Program Version,EnergyPlus, Version 22.2.0-c249759bad, YMD=2023.09.01 14:30
1,5,Environment Title[],Latitude[deg],Longitude[deg],Time Zone[],Elevation[m]
2,8,Day of Simulation[],Month[],Day of Month[],DST Indicator[1=yes 0=no],Hour[],StartMinute[],EndMinute[],DayType
3,5,Cumulative Day of Simulation[],Month[],Day of Month[],DST Indicator[1=yes 0=no],DayType  ! When Daily Report Variables Requested
4,2,Cumulative Days of Simulation[],Month[]  ! When Monthly Report Variables Requested
5,1,Cumulative Days of Simulation[] ! When Run Period Report Variables Requested
6,1,Calendar Year of Simulation[] ! When Annual Report Variables Requested
7,1,Environment,Site Outdoor Air Drybulb Temperature [C] !Hourly
619,1,DX_HEATING_COIL,Heating Coil Heating Rate [W] !Hourly
633,1,DX_HEATING_COIL,Heating Coil Electricity Rate [W] !Hourly
659,1,DX_HEATING_COIL,Heating Coil Defrost Electricity Rate [W] !Hourly
661,1,DX_HEATING_COIL,Heating Coil Crankcase Heater Electricity Rate [W] !Hourly
690,1,FAN,Fan Electricity Rate [W] !Hourly
716,1,HEAT PUMP WATER HEATER FAN,Fan Electricity Rate [W] !Hourly
718,1,LIVING,Zone Mean Air Temperature [C] !Hourly
719,1,ATTIC,Zone Mean Air Temperature [C] !Hourly
720,1,CRAWLSPACE,Zone Mean Air Temperature [C] !Hourly
843,1,LIVING,Zone Predicted Sensible Load to Heating Setpoint Heat Transfer Rate [W] !Hourly
844,1,LIVING,Zone System Predicted Sensible Load to Heating Setpoint Heat Transfer Rate [W] !Hourly
907,1,ATTIC,Zone Predicted Sensible Load to Heating Setpoint Heat Transfer Rate [W] !Hourly
908,1,ATTIC,Zone System Predicted Sensible Load to Heating Setpoint Heat Transfer Rate [W] !Hourly
971,1,CRAWLSPACE,Zone Predicted Sensible Load to Heating Setpoint Heat Transfer Rate [W] !Hourly
972,1,CRAWLSPACE,Zone System Predicted Sensible Load to Heating Setpoint Heat Transfer Rate [W] !Hourly
1195,1,HEATING_RESISTANCE_BACKUP,Heating Coil Heating Rate [W] !Hourly
1197,1,HEATING_RESISTANCE_BACKUP,Heating Coil Electricity Rate [W] !Hourly
End of Data Dictionary
1,EXTREME_WINTER,  38.23, -85.66,  -5.00, 166.00
2,1, 1, 6, 0, 1, 0.00,60.00,Monday
7,-3.9
718,18.711605716664188
719,-2.2201770476293023
720,18.737162640233553
619,2887.2477544812205
633,963.5801704481082
659,1.0588236829924556
661,65.71854809743722
690,101.73813105392362
716,0.0
843,1926.7837812238467
844,1926.7837812238467
907,0.0
908,0.0
971,0.0
972,0.0
1195,0.0
1197,0.0
2,1, 1, 6, 0, 2, 0.00,60.00,Monday
7,-3.3
718,18.625707496172602
719,-1.4582794605317118
720,18.35258050145521
619,3233.7204731961897
633,1058.9454190636463
659,1.7219979022152672
661,53.11249271400891
690,111.27813456219499
716,0.0
843,2177.1194538144246
844,2177.1194538144246
907,0.0
908,0.0
971,0.0
972,0.0
1195,0.0
1197,0.0
2,1, 1, 6, 0, 3, 0.00,60.00,Monday
7,-3.3
718,18.61768306849463
719,-0.8757979447207401
720,18.161006918176252
619,3432.788965821028
633,1115.7448537091796
659,1.8194848272437008
661,44.91892737353174
690,117.48535528103318
716,0.0
843,2352.3645913062064
844,2352.3645913062064
907,0.0
908,0.0
971,0.0
972,0.0
1195,0.0
1197,0.0
2,1, 1, 6, 0, 4, 0.00,60.00,Monday
7,-3.3
718,18.592491443644622
719,-0.419571144083777
720,17.947342690351732
619,3763.0420335610806
633,1212.8114011405905
659,5.529937119183027
661,30.690762581954402
690,128.18260107778008
716,0.0
843,2585.5562401159896
844,2585.5562401159896
907,0.0
908,0.0
971,0.0
972,0.0
1195,0.0
1197,0.0
2,1, 1, 6, 0, 5, 0.00,60.00,Monday
7,-3.3
718,18.591826011456828
719,0.00690010052672914
720,17.768323623018933
619,3918.758471288432
633,1257.388802946305
659,11.268209786675438
661,23.294103212955974
690,133.65489482499254
716,0.0
843,2712.519789168393
844,2712.519789168393
907,0.0
908,0.0
971,0.0
972,0.0
1195,0.0
1197,0.0
2,1, 1, 6, 0, 6, 0.00,60.00,Monday
7,-2.8
718,19.3446785889817
719,0.6507565842989743
720,17.596783684037618
619,4539.18535490867
633,1418.4811080457687
659,20.267280354008587
661,0.0
690,151.56854519386383
716,0.0
843,3579.232979339162
844,3579.232979339162
907,0.0
908,0.0
971,0.0
972,0.0
1195,491.39253480993557
1197,491.39253480993557
2,1, 1, 6, 0, 7, 0.00,60.00,Monday
7,-2.2
718,19.55260425976667
719,0.8692498827997104
720,17.48260590540535
619,4620.199406364691
633,1453.7479774341966
659,15.28795622403075
661,0.0
690,151.56854519386383
716,85.44000000000007
843,3413.2507759932687
844,3413.2507759932687
907,0.0
908,0.0
971,0.0
972,0.0
1195,1371.8156761214468
1197,1371.8156761214468
2,1, 1, 6, 0, 8, 0.00,60.00,Monday
7,-1.7
718,19.652668808630168
719,1.2249074890813936
720,17.34955879062817
619,4695.561346287997
633,1470.6466613921525
659,11.835419425546407
661,0.0
690,151.56854519386383
716,80.25625070406542
843,3124.079733882072
844,3124.079733882072
907,0.0
908,0.0
971,0.0
972,0.0
1195,954.1214760939229
1197,954.1214760939229
2,1, 1, 6, 0, 9, 0.00,60.00,Monday
7,-1.1
718,19.71144875485141
719,1.4562915113328578
720,17.230015844730463
619,4543.2495302971665
633,1419.226466622631
659,5.458528940863533
661,9.45702468094687
690,144.30778896564695
716,0.0
843,3174.986777926464
844,3174.986777926464
907,0.0
908,0.0
971,0.0
972,0.0
1195,0.0
1197,0.0
2,1, 1, 6, 0,10, 0.00,60.00,Monday
7,-1.1
718,19.714017507439667
719,1.8374332332016607
720,17.107268087860216
619,4590.664970874523
633,1434.283955928364
659,5.508090804729852
661,7.633348162410725
690,145.68897206555067
716,0.0
843,3214.5874796324497
844,3214.5874796324497
907,0.0
908,0.0
971,0.0
972,0.0
1195,0.0
1197,0.0
2,1, 1, 6, 0,11, 0.00,60.00,Monday
7,-0.6
718,19.78144434755902
719,3.942384952813235
720,17.00281358751759
619,3481.99917639889
633,1107.2033770621754
659,1.0276422883424872
661,52.76492438728899
690,111.56471047324662
716,0.0
843,2453.080477994812
844,2453.080477994812
907,0.0
908,0.0
971,0.0
972,0.0
1195,0.0
1197,0.0
2,1, 1, 6, 0,12, 0.00,60.00,Monday
7,0.0
718,19.80782926294685
719,5.22312520798246
720,16.902856509573343
619,2554.9998997284906
633,823.3449017383779
659,1.2515322823706927
661,91.13844812291401
690,82.48186130293384
716,0.0
843,1854.8462619877446
844,1854.8462619877446
907,0.0
908,0.0
971,0.0
972,0.0
1195,0.0
1197,0.0
2,1, 1, 6, 0,13, 0.00,60.00,Monday
7,0.6
718,19.733894605987377
719,8.183247203668321
720,16.81604956549678
619,1562.1809095890997
633,510.376551888713
659,0.02443983646878519
661,133.05394438267862
690,50.73426343784219
716,0.0
843,1153.715892003769
844,1153.715892003769
907,0.0
908,0.0
971,0.0
972,0.0
1195,0.0
1197,0.0
2,1, 1, 6, 0,14, 0.00,60.00,Monday
7,0.6
718,19.611315699446358
719,8.803410374432557
720,16.750078838903573
619,2206.3135700272255
633,708.5926809128705
659,0.03398752055779647
661,106.90075015587067
690,70.55414745744385
716,79.56285168075543
843,811.3842183661109
844,811.3842183661109
907,0.0
908,0.0
971,0.0
972,0.0
1195,0.0
1197,0.0
2,1, 1, 6, 0,15, 0.00,60.00,Monday
7,0.6
718,19.687210463983288
719,6.833642239165021
720,16.70440969847892
619,1286.4059232283357
633,420.94003102738344
659,0.02023745597131177
661,144.56518337432752
690,42.01060961692554
716,0.0
843,996.4183755184185
844,996.4183755184185
907,0.0
908,0.0
971,0.0
972,0.0
1195,0.0
1197,0.0
2,1, 1, 6, 0,16, 0.00,60.00,Monday
7,0.0
718,19.859455681589104
719,6.574808673543355
720,16.677004176181804
619,1245.0964736487163
633,412.9296230997426
659,0.6288417902032092
661,145.2962408670449
690,41.44776907783864
716,0.0
843,941.5415140662626
844,941.5415140662626
907,0.0
908,0.0
971,0.0
972,0.0
1195,0.0
1197,0.0
2,1, 1, 6, 0,17, 0.00,60.00,Monday
7,-1.1
718,19.60011916486668
719,4.144711436858745
720,16.650532167754545
619,1062.2360235701672
633,362.574873572688
659,1.3890414298370646
661,151.51219499795943
690,36.722231624019464
716,0.0
843,780.2554635767938
844,780.2554635767938
907,0.0
908,0.0
971,0.0
972,0.0
1195,0.0
1197,0.0
2,1, 1, 6, 0,18, 0.00,60.00,Monday
7,-1.7
718,19.283014999709295
719,2.04002629982576
720,16.61691852096972
619,1466.5051718378238
633,497.7676339547924
659,2.3878893425857304
661,132.65222975578706
690,50.994247298562
716,0.0
843,1065.908394044629
844,1065.908394044629
907,0.0
908,0.0
971,0.0
972,0.0
1195,0.0
1197,0.0
2,1, 1, 6, 0,19, 0.00,60.00,Monday
7,-2.8
718,19.595253783171593
719,1.2278086078457426
720,16.566859717769947
619,3591.381885481103
633,1169.7202248320555
659,12.942340322951614
661,37.81701927772445
690,122.62661659674482
716,85.44000000000007
843,1551.242355991937
844,1551.242355991937
907,0.0
908,0.0
971,0.0
972,0.0
1195,0.0
1197,0.0
2,1, 1, 6, 0,20, 0.00,60.00,Monday
7,-3.9
718,19.527753422764693
719,-0.5456344467377003
720,16.52122783668897
619,4259.665586229701
633,1400.3864649906516
659,5.344598031837518
661,7.116621539576373
690,146.0425935757548
716,85.44000000000007
843,1919.9057397016832
844,1919.9057397016832
907,0.0
908,0.0
971,0.0
972,0.0
1195,0.0
1197,0.0
2,1, 1, 6, 0,21, 0.00,60.00,Monday
7,-4.4
718,19.645640509959595
719,-1.490583584987979
720,16.45273960988719
619,3850.098831333243
633,1287.8385519055128
659,4.266657867555497
661,21.76247374277014
690,134.96385524868452
716,36.521117376593836
843,2139.5447411434216
844,2139.5447411434216
907,0.0
908,0.0
971,0.0
972,0.0
1195,0.0
1197,0.0
2,1, 1, 6, 0,22, 0.00,60.00,Monday
7,-5.0
718,19.746836640916225
719,-1.942035349887328
720,16.381765495279755
619,3342.7137581139477
633,1147.9026577164884
659,0.05789887892245521
661,41.402311612279405
690,120.19048088859914
716,0.0
843,2172.446492114477
844,2172.446492114477
907,0.0
908,0.0
971,0.0
972,0.0
1195,0.0
1197,0.0
2,1, 1, 6, 0,23, 0.00,60.00,Monday
7,-5.6
718,18.96199638039676
719,-2.984722733563438
720,16.293692624883615
619,2346.3733152157956
633,839.1260720037302
659,1.839885855754051
661,83.3702372344533
690,88.33177733642289
716,0.0
843,1491.6646714677372
844,1491.6646714677372
907,0.0
908,0.0
971,0.0
972,0.0
1195,0.0
1197,0.0
2,1, 1, 6, 0,24, 0.00,60.00,Monday
7,-6.1
718,18.700894097113967
719,-2.701827421783746
720,16.166335466477296
619,3016.329538471799
633,1048.7169806842282
659,4.347032811063415
661,50.96379337481813
690,112.80875645764604
716,0.0
843,1934.5772751234708
844,1934.5772751234708
907,0.0
908,0.0
971,0.0
972,0.0
1195,0.0
1197,0.0
2,2, 1, 7, 0, 1, 0.00,60.00,Tuesday
7,-6.1
718,18.50685121582729
719,-3.1908430322753145
720,16.039156089009598
619,4178.499995192161
633,1398.3883662570445
659,2.5338470082225824
661,0.8189487881360202
690,150.868229806782
716,0.0
843,2708.6233271927886
844,2708.6233271927886
907,0.0
908,0.0
971,0.0
972,0.0
1195,0.0
1197,0.0
2,2, 1, 7, 0, 2, 0.00,60.00,Tuesday
7,-6.1
718,18.574447908229686
719,-2.659859234725248
720,15.92427151616602
619,4214.615285474438
633,1401.9575806757348
659,0.07301352183760836
661,0.0
690,151.56854519386383
716,0.0
843,3004.6062918358075
844,3004.6062918358075
907,0.0
908,0.0
971,0.0
972,0.0
1195,349.93297911494847
1197,349.93297911494847
2,2, 1, 7, 0, 3, 0.00,60.00,Tuesday
7,-6.1
718,18.595201734837197
719,-3.101561324292949
720,15.808928005177778
619,4213.174426659455
633,1403.6215111223871
659,0.07301352183760836
661,0.0
690,151.56854519386383
716,0.0
843,3882.1108238659817
844,3882.1108238659817
907,0.0
908,0.0
971,0.0
972,0.0
1195,1373.4792044368414
1197,1373.4792044368414
2,2, 1, 7, 0, 4, 0.00,60.00,Tuesday
7,-6.7
718,18.603255065895734
719,-3.206913691718321
720,15.692201007705606
619,4132.32080325777
633,1394.583079885175
659,1.8623702240175612
661,0.0
690,151.56854519386383
716,0.0
843,4159.1847173384485
844,4159.1847173384485
907,0.0
908,0.0
971,0.0
972,0.0
1195,1818.384103571139
1197,1818.384103571139
2,2, 1, 7, 0, 5, 0.00,60.00,Tuesday
7,-6.7
718,18.60710846579197
719,-2.7846857503022977
720,15.58384696228271
619,4101.814609640122
633,1384.378541758034
659,9.627680145598251
661,0.0
690,151.56854519386383
716,0.0
843,3626.506962223535
844,3626.506962223535
907,0.0
908,0.0
971,0.0
972,0.0
1195,1216.0805042460738
1197,1216.0805042460738
2,2, 1, 7, 0, 6, 0.00,60.00,Tuesday
7,-6.7
718,19.372457666036226
719,-3.2719605985925684
720,15.467005305702754
619,4082.925503184599
633,1377.9280786071834
659,14.458516172917935
661,0.0
690,151.56854519386383
716,0.0
843,5380.2433388833615
844,5380.2433388833615
907,0.0
908,0.0
971,0.0
972,0.0
1195,3311.260200250849
1197,3311.260200250849
2,2, 1, 7, 0, 7, 0.00,60.00,Tuesday
7,-7.8
718,19.574340599559335
719,-3.4950361104392385
720,15.381995964119444
619,3975.398903521953
633,1399.5579708915943
659,3.5826471744735326
661,0.0
690,151.56854519386383
716,85.44000000000007
843,5639.661266345482
844,5639.661266345482
907,0.0
908,0.0
971,0.0
972,0.0
1195,4943.9766708013085
1197,4943.9766708013085
2,2, 1, 7, 0, 8, 0.00,60.00,Tuesday
7,-9.4
718,19.646013722122923
719,-4.812510665732918
720,15.262832400418773
619,3795.3551041417854
633,1389.7544233383649
659,0.07301352183760836
661,0.0
690,151.56854519386383
716,85.44000000000007
843,6074.338133358939
844,6074.338133358939
907,0.0
908,0.0
971,0.0
972,0.0
1195,5783.195719179095
1197,5783.195719179095
2,2, 1, 7, 0, 9, 0.00,60.00,Tuesday
7,-10.0
718,19.680609976930587
719,-5.405506717646393
720,15.1572701105811
619,3711.480920426679
633,1379.1610058674178
659,3.73455303000764
661,0.0
690,151.56854519386383
716,85.44000000000007
843,6102.653374681126
844,6102.653374681126
907,0.0
908,0.0
971,0.0
972,0.0
1195,5932.121315218103
1197,5932.121315218103
2,2, 1, 7, 0,10, 0.00,60.00,Tuesday
7,-10.6
718,19.71777721926147
719,-3.9951291798165127
720,15.05461948469666
619,3655.0198538951686
633,1377.1423333847763
659,0.07301352183760836
661,0.0
690,151.56854519386383
716,8.365499121693377
843,4700.477828548996
844,4700.477828548996
907,0.0
908,0.0
971,0.0
972,0.0
1195,3305.0327664944484
1197,3305.0327664944484
2,2, 1, 7, 0,11, 0.00,60.00,Tuesday
7,-9.4
718,19.715900955428143
719,-3.5406563963769826
720,14.960398121559123
619,3792.388887428595
633,1393.0488374013319
659,0.07301352183760836
661,0.0
690,151.56854519386383
716,0.0
843,4425.188711767911
844,4425.188711767911
907,0.0
908,0.0
971,0.0
972,0.0
1195,2649.6802096098204
1197,2649.6802096098204
2,2, 1, 7, 0,12, 0.00,60.00,Tuesday
7,-10.0
718,19.720143640210555
719,-3.543133670584779
720,14.872098645959403
619,3723.1325802523593
633,1385.3531364658854
659,0.07301352183760836
661,0.0
690,151.56854519386383
716,0.0
843,4127.580041694313
844,4127.580041694313
907,0.0
908,0.0
971,0.0
972,0.0
1195,2341.679203075394
1197,2341.679203075394
2,2, 1, 7, 0,13, 0.00,60.00,Tuesday
7,-9.4
718,19.716523152803752
719,-2.91019149110921
720,14.804220553113426
619,3792.554736351214
633,1392.8646844651514
659,0.07301352183760836
661,0.0
690,151.56854519386383
716,0.0
843,4128.634287862649
844,4128.634287862649
907,0.0
908,0.0
971,0.0
972,0.0
1195,2268.8709278337183
1197,2268.8709278337183
2,2, 1, 7, 0,14, 0.00,60.00,Tuesday
7,-9.4
718,19.72292798970207
719,-1.4718988515980613
720,14.741925295400014
619,3792.7181321318453
633,1392.683250005452
659,0.07301352183760836
661,0.0
690,151.56854519386383
716,0.0
843,3446.948591985227
844,3446.948591985227
907,0.0
908,0.0
971,0.0
972,0.0
1195,1431.4757617409464
1197,1431.4757617409464
2,2, 1, 7, 0,15, 0.00,60.00,Tuesday
7,-9.4
718,19.72014694920057
719,-1.3061650685252157
720,14.690660241033273
619,3792.6483806313477
633,1392.7607026359312
659,0.07301352183760836
661,0.0
690,151.56854519386383
716,0.0
843,3291.800550948441
844,3291.800550948441
907,0.0
908,0.0
971,0.0
972,0.0
1195,1163.4224288445566
1197,1163.4224288445566
2,2, 1, 7, 0,16, 0.00,60.00,Tuesday
7,-10.0
718,19.724725507465774
719,-2.0424474808607256
720,14.64980352627615
619,3723.3531750843213
633,1385.110338537794
659,0.07301352183760836
661,0.0
690,151.56854519386383
716,0.0
843,2645.7087513107035
844,2645.7087513107035
907,0.0
908,0.0
971,0.0
972,0.0
1195,451.17280024485535
1197,451.17280024485535
2,2, 1, 7, 0,17, 0.00,60.00,Tuesday
7,-11.7
718,19.71985616133488
719,-4.717075825186021
720,14.605499019558547
619,3530.6337499138726
633,1363.429054976031
659,0.07301352183760836
661,0.0
690,151.56854519386383
716,0.0
843,2974.817775571437
844,2974.817775571437
907,0.0
908,0.0
971,0.0
972,0.0
1195,1077.7923545888002
1197,1077.7923545888002
2,2, 1, 7, 0,18, 0.00,60.00,Tuesday
7,-12.2
718,19.718036758833538
719,-5.544767995011303
720,14.585813027894377
619,3475.228636452451
633,1356.752673852426
659,0.07301352183760836
661,0.0
690,151.56854519386383
716,0.0
843,2918.2123155455683
844,2918.2123155455683
907,0.0
908,0.0
971,0.0
972,0.0
1195,1220.30665674978
1197,1220.30665674978
2,2, 1, 7, 0,19, 0.00,60.00,Tuesday
7,-12.8
718,19.708898084794804
719,-7.047402815900848
720,14.549279111503456
619,3409.297008176902
633,1348.7788680437702
659,0.07301352183760836
661,0.0
690,151.56854519386383
716,85.44000000000007
843,3682.7546255613524
844,3682.7546255613524
907,0.0
908,0.0
971,0.0
972,0.0
1195,3337.758695889658
1197,3337.758695889658
2,2, 1, 7, 0,20, 0.00,60.00,Tuesday
7,-13.9
718,19.702801113831576
719,-7.180072816767717
720,14.499136512122396
619,3290.377876727011
633,1333.8389080997285
659,0.07301352183760836
661,0.0
690,151.56854519386383
716,85.44000000000007
843,3120.7457369464883
844,3120.7457369464883
907,0.0
908,0.0
971,0.0
972,0.0
1195,2940.70159164104
1197,2940.70159164104
2,2, 1, 7, 0,21, 0.00,60.00,Tuesday
7,-14.4
718,19.703941191438354
719,-8.02486491642612
720,14.422107408101118
619,3237.2476136536284
633,1326.8153338626046
659,0.07301352183760836
661,0.0
690,151.56854519386383
716,85.44000000000007
843,3668.6095007717413
844,3668.6095007717413
907,0.0
908,0.0
971,0.0
972,0.0
1195,3644.7020158105215
1197,3644.7020158105215
2,2, 1, 7, 0,22, 0.00,60.00,Tuesday
7,-15.0
718,19.707983934435465
719,-9.099493951728581
720,14.33065282515968
619,3173.97930017855
633,1318.468481266281
659,0.07301352183760836
661,0.0
690,151.56854519386383
716,34.23871547555086
843,4100.673976626784
844,4100.673976626784
907,0.0
908,0.0
971,0.0
972,0.0
1195,3530.321539306798
1197,3530.321539306798
2,2, 1, 7, 0,23, 0.00,60.00,Tuesday
7,-15.0
718,18.952731774940926
719,-8.86344997252395
720,14.232218071880606
619,3174.0058693728274
633,1318.4418656025423
659,0.07301352183760836
661,0.0
690,151.56854519386383
716,0.0
843,3740.286067579429
844,3740.286067579429
907,0.0
908,0.0
971,0.0
972,0.0
1195,2748.413818007605
1197,2748.413818007605
2,2, 1, 7, 0,24, 0.00,60.00,Tuesday
7,-15.0
718,18.72256254292597
719,-9.221164895566714
720,14.092038907443419
619,3191.2119355491304
633,1301.1317428165994
659,0.07301352183760836
661,0.0
690,151.56854519386383
716,0.0
843,3876.641859080428
844,3876.641859080428
907,0.0
908,0.0
971,0.0
972,0.0
1195,2816.7757800611284
1197,2816.7757800611284
2,3, 1, 8, 0, 1, 0.00,60.00,Wednesday
7,-16.7
718,18.634068357864027
719,-10.37833404660686
720,13.955884445454206
619,3015.0281771458217
633,1270.256960995259
659,2.1074639952334917
661,0.0
690,151.56854519386383
716,0.0
843,4803.135593135552
844,4803.135593135552
907,0.0
908,0.0
971,0.0
972,0.0
1195,4096.883798468038
1197,4096.883798468038
2,3, 1, 8, 0, 2, 0.00,60.00,Wednesday
7,-16.7
718,18.60925384860009
719,-10.963070590805618
720,13.82735159146821
619,3017.1649095561424
633,1268.1724332820554
659,2.1078768362469944
661,0.0
690,151.56854519386383
716,0.0
843,5501.1395424235525
844,5501.1395424235525
907,0.0
908,0.0
971,0.0
972,0.0
1195,5007.485537319256
1197,5007.485537319256
2,3, 1, 8, 0, 3, 0.00,60.00,Wednesday
7,-16.7
718,18.600788091957256
719,-10.202060968665144
720,13.703164541699943
619,3017.8436150293196
633,1267.503846605041
659,2.1094884628702224
661,0.0
690,151.56854519386383
716,0.0
843,5405.982411187666
844,5405.982411187666
907,0.0
908,0.0
971,0.0
972,0.0
1195,4907.586491550906
1197,4907.586491550906
2,3, 1, 8, 0, 4, 0.00,60.00,Wednesday
7,-16.7
718,18.60285492294715
719,-10.487831260312262
720,13.573811042788469
619,3018.175763288074
633,1267.174826479826
659,2.110709151792788
661,0.0
690,151.56854519386383
716,0.0
843,5599.9266165028475
844,5599.9266165028475
907,0.0
908,0.0
971,0.0
972,0.0
1195,5117.956159164638
1197,5117.956159164638
2,3, 1, 8, 0, 5, 0.00,60.00,Wednesday
7,-17.2
718,18.598084795837625
719,-10.169839225469094
720,13.444107784316612
619,2963.6617626240163
633,1258.438362597384
659,3.5767068429120927
661,0.0
690,151.56854519386383
716,0.0
843,5623.95616458418
844,5623.95616458418
907,0.0
908,0.0
971,0.0
972,0.0
1195,5199.198537330224
1197,5199.198537330224
2,3, 1, 8, 0, 6, 0.00,60.00,Wednesday
7,-17.2
718,18.754718132162484
719,-9.705002987065011
720,13.320910841519348
619,2963.9142731094166
633,1258.1895426905164
659,3.5780752995076965
661,0.0
690,151.56854519386383
716,80.00652892374144
843,6687.79199648424
844,6687.79199648424
907,0.0
908,0.0
971,0.0
972,0.0
1195,6213.819691761937
1197,6213.819691761937
2,3, 1, 8, 0, 7, 0.00,60.00,Wednesday
7,-17.2
718,18.594900545194665
719,-10.059666337809428
720,13.205078489617845
619,2953.8956820356707
633,1258.4996231321554
659,5.967625830926624
661,0.0
690,151.56854519386383
716,85.44000000000007
843,6973.731838149928
844,6973.731838149928
907,0.0
908,0.0
971,0.0
972,0.0
1195,6213.819691761937
1197,6213.819691761937
2,3, 1, 8, 0, 8, 0.00,60.00,Wednesday
7,-16.7
718,18.653747188698656
719,-10.086730165304488
720,13.08515254593497
619,3006.3133053973593
633,1261.1795448733308
659,6.5060584228199065
661,0.0
690,151.56854519386383
716,74.3749701838076
843,6876.449042956936
844,6876.449042956936
907,0.0
908,0.0
971,0.0
972,0.0
1195,6213.819691761937
1197,6213.819691761937
2,3, 1, 8, 0, 9, 0.00,60.00,Wednesday
7,-15.6
718,19.39809056519081
719,-9.101053936100831
720,12.98370225003957
619,3119.885280900396
633,1278.0595643963338
659,5.71732470157668
661,0.0
690,151.56854519386383
716,0.0
843,6599.291883651664
844,6599.291883651664
907,0.0
908,0.0
971,0.0
972,0.0
1195,6209.608356343189
1197,6209.608356343189
2,3, 1, 8, 0,10, 0.00,60.00,Wednesday
7,-14.4
718,19.627224531355836
719,-7.23706465395047
720,12.91792830278472
619,3241.2666610156166
633,1315.8531930197469
659,1.643723977906538
661,0.0
690,151.56854519386383
716,0.0
843,6061.625445113403
844,6061.625445113403
907,0.0
908,0.0
971,0.0
972,0.0
1195,5482.624847193083
1197,5482.624847193083
2,3, 1, 8, 0,11, 0.00,60.00,Wednesday
7,-12.8
718,19.692288742956556
719,-3.5052412463771727
720,12.849105130388194
619,3413.4317952253673
633,1344.438070067226
659,0.07301352183760836
661,0.0
690,151.56854519386383
716,0.0
843,4509.336170384786
844,4509.336170384786
907,0.0
908,0.0
971,0.0
972,0.0
1195,3340.8991185349555
1197,3340.8991185349555
2,3, 1, 8, 0,12, 0.00,60.00,Wednesday
7,-11.1
718,19.719017149427888
719,0.24893006134780649
720,12.797350547106582
619,3600.9517261464607
633,1367.9420144501826
659,0.07301352183760836
661,0.0
690,151.56854519386383
716,0.0
843,3666.1568955457824
844,3666.1568955457824
907,0.0
908,0.0
971,0.0
972,0.0
1195,1955.7078400298633
1197,1955.7078400298633
2,3, 1, 8, 0,13, 0.00,60.00,Wednesday
7,-9.4
718,19.718084926500264
719,1.1182015141311867
720,12.76566067231864
619,3795.2009303078867
633,1389.9256987154672
659,0.07301352183760836
661,0.0
690,151.56854519386383
716,0.0
843,3665.6631127199507
844,3665.6631127199507
907,0.0
908,0.0
971,0.0
972,0.0
1195,1555.3053853641245
1197,1555.3053853641245
2,3, 1, 8, 0,14, 0.00,60.00,Wednesday
7,-8.9
718,19.7227027675745
719,2.148509938487892
720,12.748656615444471
619,3853.6587065046656
633,1396.0652995045543
659,0.07301352183760836
661,0.0
690,151.56854519386383
716,0.0
843,3329.1969976682594
844,3329.1969976682594
907,0.0
908,0.0
971,0.0
972,0.0
1195,1054.0221959934402
1197,1054.0221959934402
2,3, 1, 8, 0,15, 0.00,60.00,Wednesday
7,-7.2
718,19.71704209036286
719,1.8408118898948393
720,12.755639745272326
619,4055.9162304540137
633,1417.0360057017438
659,0.07301352183760836
661,0.0
690,151.56854519386383
716,74.0670649752426
843,3245.1858777088382
844,3245.1858777088382
907,0.0
908,0.0
971,0.0
972,0.0
1195,1596.7494740589182
1197,1596.7494740589182
2,3, 1, 8, 0,16, 0.00,60.00,Wednesday
7,-7.2
718,19.70745027374795
719,1.2127441403112036
720,12.759064944806843
619,4056.0246551752216
633,1416.9121707240242
659,0.07301352183760836
661,0.0
690,151.56854519386383
716,82.08808962231993
843,3202.127080492299
844,3202.127080492299
907,0.0
908,0.0
971,0.0
972,0.0
1195,1674.4844374511722
1197,1674.4844374511722
2,3, 1, 8, 0,17, 0.00,60.00,Wednesday
7,-6.7
718,19.721122887866077
719,1.2307903977933587
720,12.770726966200517
619,4116.841339316744
633,1422.7884096974692
659,0.07301352183760836
661,0.0
690,151.56854519386383
716,0.0
843,2714.7086187791992
844,2714.7086187791992
907,0.0
908,0.0
971,0.0
972,0.0
1195,47.77293924644346
1197,47.77293924644346
2,3, 1, 8, 0,18, 0.00,60.00,Wednesday
7,-6.1
718,19.721624985453975
719,0.31059782320934604
720,12.779023337131692
619,4189.916522861828
633,1430.4867162026667
659,0.07301352183760836
661,0.0
690,151.56854519386383
716,0.0
843,2737.164308007861
844,2737.164308007861
907,0.0
908,0.0
971,0.0
972,0.0
1195,2.2545112904444977
1197,2.2545112904444977
2,3, 1, 8, 0,19, 0.00,60.00,Wednesday
7,-5.0
718,19.721787169028655
719,-0.8029465067371939
720,12.786355291241206
619,4326.393789235425
633,1443.8957137404036
659,0.07301352183760836
661,0.0
690,151.56854519386383
716,0.0
843,2821.7527859979964
844,2821.7527859979964
907,0.0
908,0.0
971,0.0
972,0.0
1195,17.8261734900625
1197,17.8261734900625
2,3, 1, 8, 0,20, 0.00,60.00,Wednesday
7,-4.4
718,19.70294057810049
719,-0.48548562826001174
720,12.785781845233807
619,4401.833445110671
633,1451.2705326948496
659,0.07301352183760836
661,0.0
690,151.56854519386383
716,85.44000000000007
843,2634.196580005955
844,2634.196580005955
907,0.0
908,0.0
971,0.0
972,0.0
1195,942.2780387404891
1197,942.2780387404891
2,3, 1, 8, 0,21, 0.00,60.00,Wednesday
7,-3.3
718,19.7134210401875
719,-0.1895585895271862
720,12.779634556752244
619,4542.520632989216
633,1464.298979759323
659,0.07301352183760836
661,0.0
690,151.56854519386383
716,85.44000000000007
843,2412.20797147773
844,2412.20797147773
907,0.0
908,0.0
971,0.0
972,0.0
1195,497.53817737954705
1197,497.53817737954705
2,3, 1, 8, 0,22, 0.00,60.00,Wednesday
7,-2.8
718,19.714693270263503
719,-0.26832443535319495
720,12.760895672853822
619,4606.849482180736
633,1470.7798111653021
659,0.07301352183760836
661,0.0
690,151.56854519386383
716,32.12389160768893
843,2899.0126971360223
844,2899.0126971360223
907,0.0
908,0.0
971,0.0
972,0.0
1195,240.28982149836565
1197,240.28982149836565
2,3, 1, 8, 0,23, 0.00,60.00,Wednesday
7,-2.8
718,18.945129500506347
719,-0.5937952762541984
720,12.69511878700517
619,3633.6296484678746
633,1187.8822543564706
659,0.058961681114789666
661,38.49106403625298
690,122.39709991748833
716,0.0
843,2375.352341102076
844,2375.352341102076
907,0.0
908,0.0
971,0.0
972,0.0
1195,0.0
1197,0.0
2,3, 1, 8, 0,24, 0.00,60.00,Wednesday
7,-2.8
718,18.709644309751628
719,-0.18260243662944442
720,12.660518855782032
619,4189.892127534247
633,1326.057874459815
659,0.06683043432490715
661,16.93682856842107
690,138.73165654097454
716,0.0
843,2784.842043617622
844,2784.842043617622
907,0.0
908,0.0
971,0.0
972,0.0
1195,0.0
1197,0.0
2,4, 1, 9, 0, 1, 0.00,60.00,Thursday
7,-2.8
718,18.629678223250366
719,-0.08090738281338604
720,12.62917700398654
619,4631.275161078184
633,1441.9290057743176
659,0.07301352183760836
661,0.0
690,151.56854519386383
716,0.0
843,3236.171925112856
844,3236.171925112856
907,0.0
908,0.0
971,0.0
972,0.0
1195,150.07830297714827
1197,150.07830297714827
2,4, 1, 9, 0, 2, 0.00,60.00,Thursday
7,-2.8
718,18.617117731409127
719,0.14228543081964284
720,12.588884359616676
619,4633.20252040984
633,1439.6581485115846
659,0.07301352183760836
661,0.0
690,151.56854519386383
716,0.0
843,3167.0717533019306
844,3167.0717533019306
907,0.0
908,0.0
971,0.0
972,0.0
1195,50.589394957726654
1197,50.589394957726654
2,4, 1, 9, 0, 3, 0.00,60.00,Thursday
7,-2.8
718,18.612337902821846
719,0.18461106311446424
720,12.550217384005386
619,4633.556028133771
633,1439.2417360733002
659,0.07301352183760836
661,0.0
690,151.56854519386383
716,0.0
843,3341.1767486447516
844,3341.1767486447516
907,0.0
908,0.0
971,0.0
972,0.0
1195,245.00582239295545
1197,245.00582239295545
2,4, 1, 9, 0, 4, 0.00,60.00,Thursday
7,-2.8
718,18.61061047982418
719,-0.37317564067614234
720,12.51087941370775
619,4633.7350038140485
633,1439.0309243669317
659,0.07301352183760836
661,0.0
690,151.56854519386383
716,0.0
843,3446.2211488676585
844,3446.2211488676585
907,0.0
908,0.0
971,0.0
972,0.0
1195,365.83935267071956
1197,365.83935267071956
2,4, 1, 9, 0, 5, 0.00,60.00,Thursday
7,-2.8
718,18.617765923225214
719,0.31260857654554947
720,12.470092661595713
619,4437.075338043007
633,1384.416446187643
659,0.07024318045247702
661,7.588570761708868
690,145.81609506158776
716,0.0
843,2979.3104066078995
844,2979.3104066078995
907,0.0
908,0.0
971,0.0
972,0.0
1195,0.0
1197,0.0
2,4, 1, 9, 0, 6, 0.00,60.00,Thursday
7,-3.3
718,19.364969600628122
719,0.15866768105154452
720,12.437628597475967
619,4569.033872431094
633,1433.0656936406406
659,0.07301352183760836
661,0.0
690,151.56854519386383
716,0.0
843,4024.4442463239284
844,4024.4442463239284
907,0.0
908,0.0
971,0.0
972,0.0
1195,1110.8465542057097
1197,1110.8465542057097
2,4, 1, 9, 0, 7, 0.00,60.00,Thursday
7,-5.6
718,19.571267430559796
719,-1.891932954739567
720,12.416143000803427
619,4227.421231077025
633,1415.028808913086
659,8.303965676993025
661,0.0
690,151.56854519386383
716,85.44000000000007
843,4942.755319870328
844,4942.755319870328
907,0.0
908,0.0
971,0.0
972,0.0
1195,3768.365789698213
1197,3768.365789698213
2,4, 1, 9, 0, 8, 0.00,60.00,Thursday
7,-6.1
718,19.647138393940256
719,-1.8206888305138766
720,12.385469079789887
619,4151.056181597632
633,1411.1996483141952
659,10.878569990314528
661,0.0
690,151.56854519386383
716,85.44000000000007
843,4708.549124171124
844,4708.549124171124
907,0.0
908,0.0
971,0.0
972,0.0
1195,3747.467375864949
1197,3747.467375864949
2,4, 1, 9, 0, 9, 0.00,60.00,Thursday
7,-7.8
718,19.687830649227205
719,-3.4802017849972215
720,12.340827996342497
619,3986.0964442016943
633,1407.1324869476466
659,0.07301352183760836
661,0.0
690,151.56854519386383
716,73.19640464572686
843,4293.802000509728
844,4293.802000509728
907,0.0
908,0.0
971,0.0
972,0.0
1195,3144.3814454095923
1197,3144.3814454095923
2,4, 1, 9, 0,10, 0.00,60.00,Thursday
7,-7.2
718,19.71787548461006
719,-1.521269532048806
720,12.317946176943027
619,4057.2498109191365