Program Version,EnergyPlus, Version 22.2.0-c249759bad, YMD=2023.07.07 15:08
1,5,Environment Title[],Latitude[deg],Longitude[deg],Time Zone[],Elevation[m]
2,8,Day of Simulation[],Month[],Day of Month[],DST Indicator[1=yes 0=no],Hour[],StartMinute[],EndMinute[],DayType
3,5,Cumulative Day of Simulation[],Month[],Day of Month[],DST Indicator[1=yes 0=no],DayType  ! When Daily Report Variables Requested
4,2,Cumulative Days of Simulation[],Month[]  ! When Monthly Report Variables Requested
5,1,Cumulative Days of Simulation[] ! When Run Period Report Variables Requested
6,1,Calendar Year of Simulation[] ! When Annual Report Variables Requested
581,11,LIVING,AFN Zone Infiltration Air Change Rate [ach] !RunPeriod [Value,Min,Month,Day,Hour,Minute,Max,Month,Day,Hour,Minute]
582,11,ATTIC,AFN Zone Infiltration Air Change Rate [ach] !RunPeriod [Value,Min,Month,Day,Hour,Minute,Max,Month,Day,Hour,Minute]
583,11,CRAWLSPACE,AFN Zone Infiltration Air Change Rate [ach] !RunPeriod [Value,Min,Month,Day,Hour,Minute,Max,Month,Day,Hour,Minute]
1038,11,Facility,Facility Heating Setpoint Not Met Time [hr] !RunPeriod [Value,Min,Month,Day,Hour,Minute,Max,Month,Day,Hour,Minute]
1039,11,Facility,Facility Cooling Setpoint Not Met Time [hr] !RunPeriod [Value,Min,Month,Day,Hour,Minute,Max,Month,Day,Hour,Minute]
1115,11,DX_HEATING_COIL,Heating Coil Heating Energy [J] !RunPeriod [Value,Min,Month,Day,Hour,Minute,Max,Month,Day,Hour,Minute]
1128,11,DX_HEATING_COIL,Heating Coil Electricity Energy [J] !RunPeriod [Value,Min,Month,Day,Hour,Minute,Max,Month,Day,Hour,Minute]
1153,11,DX_HEATING_COIL,Heating Coil Defrost Electricity Energy [J] !RunPeriod [Value,Min,Month,Day,Hour,Minute,Max,Month,Day,Hour,Minute]
1154,11,DX_HEATING_COIL,Heating Coil Crankcase Heater Electricity Energy [J] !RunPeriod [Value,Min,Month,Day,Hour,Minute,Max,Month,Day,Hour,Minute]
1156,11,HEATING_RESISTANCE_BACKUP,Heating Coil Electricity Energy [J] !RunPeriod [Value,Min,Month,Day,Hour,Minute,Max,Month,Day,Hour,Minute]
13,11,Electricity:Facility [J] !RunPeriod [Value,Min,Month,Day,Hour,Minute,Max,Month,Day,Hour,Minute]
1134,11,Heating:Electricity [J] !RunPeriod [Value,Min,Month,Day,Hour,Minute,Max,Month,Day,Hour,Minute]
1096,11,Cooling:Electricity [J] !RunPeriod [Value,Min,Month,Day,Hour,Minute,Max,Month,Day,Hour,Minute]
562,11,Fans:Electricity [J] !RunPeriod [Value,Min,Month,Day,Hour,Minute,Max,Month,Day,Hour,Minute]
1388,11,Pumps:Electricity [J] !RunPeriod [Value,Min,Month,Day,Hour,Minute,Max,Month,Day,Hour,Minute]
1360,11,WaterSystems:Electricity [J] !RunPeriod [Value,Min,Month,Day,Hour,Minute,Max,Month,Day,Hour,Minute]
61,11,InteriorLights:Electricity [J] !RunPeriod [Value,Min,Month,Day,Hour,Minute,Max,Month,Day,Hour,Minute]
1046,11,ExteriorLights:Electricity [J] !RunPeriod [Value,Min,Month,Day,Hour,Minute,Max,Month,Day,Hour,Minute]
134,11,InteriorEquipment:Electricity [J] !RunPeriod [Value,Min,Month,Day,Hour,Minute,Max,Month,Day,Hour,Minute]
170,11,gas_dryer:InteriorEquipment:Electricity [J] !RunPeriod [Value,Min,Month,Day,Hour,Minute,Max,Month,Day,Hour,Minute]
207,11,clotheswasher:InteriorEquipment:Electricity [J] !RunPeriod [Value,Min,Month,Day,Hour,Minute,Max,Month,Day,Hour,Minute]
244,11,dishwasher:InteriorEquipment:Electricity [J] !RunPeriod [Value,Min,Month,Day,Hour,Minute,Max,Month,Day,Hour,Minute]
281,11,refrigerator:InteriorEquipment:Electricity [J] !RunPeriod [Value,Min,Month,Day,Hour,Minute,Max,Month,Day,Hour,Minute]
318,11,electric_mels:InteriorEquipment:Electricity [J] !RunPeriod [Value,Min,Month,Day,Hour,Minute,Max,Month,Day,Hour,Minute]
355,11,NaturalGas:Facility [J] !RunPeriod [Value,Min,Month,Day,Hour,Minute,Max,Month,Day,Hour,Minute]
1323,11,WaterSystems:NaturalGas [J] !RunPeriod [Value,Min,Month,Day,Hour,Minute,Max,Month,Day,Hour,Minute]
403,11,InteriorEquipment:NaturalGas [J] !RunPeriod [Value,Min,Month,Day,Hour,Minute,Max,Month,Day,Hour,Minute]
476,11,gas_dryer:InteriorEquipment:NaturalGas [J] !RunPeriod [Value,Min,Month,Day,Hour,Minute,Max,Month,Day,Hour,Minute]
513,11,gas_mels:InteriorEquipment:NaturalGas [J] !RunPeriod [Value,Min,Month,Day,Hour,Minute,Max,Month,Day,Hour,Minute]
End of Data Dictionary
1,EXTREME_WINTER,  37.36,-121.92,  -8.00,  15.50
5,7
1038,0.16666666666666666,0.0, 1,15, 1,10,0.16666666666666666, 1,20, 6,10
1039,1.0,0.0, 1,15, 1,10,0.16666666666666666, 1,15,13,40
581,0.20333053546236704,0.12118006080934864, 1,16, 6, 2,0.6524304403367568, 1,18,14,55
582,2.277173995016414,0.0, 1,15, 4,56,12.953864487587413, 1,18,14,55
583,2.829881275905719,0.00014416197625406125, 1,18, 2,60,17.571851383040276, 1,18,14,55
1115,101103472.30450875,0.0, 1,15, 1,10,1406559.4132474447, 1,20, 6,40
1128,28717636.410485122,0.0, 1,15, 1,10,425932.41099202546, 1,20, 6,40
1153,1163945.8228020004,0.0, 1,15, 1,10,35910.29009326861, 1,20, 6,40
1154,64222556.43178547,0.0, 1,15, 6, 2,120000.0, 1,15, 1,10
1156,0.0,0.0, 1,15, 1,10,0.0, 1,15, 1,10
13,502461834.4456697,106115.4183601288, 1,18, 4,10,1141274.9116518262, 1,19,20,40
61,301924526.0238348,58759.40635443481, 1,15, 1,10,854682.2742463244, 1,15,20,10
134,70666020.44019979,42376.01200569399, 1,15, 4,10,104369.48322671017, 1,20,20,10
170,5241013.419656074,232.27731661587313, 1,15, 4,10,11650.931360040839, 1,20,12,10
207,6509451.13922266,543.5021409221355, 1,15, 3,10,15327.095199349082, 1,20,10,10
244,12749673.39982522,1014.5707620042115, 1,15, 4,10,35359.08742820678, 1,20,20,10
281,46165882.48149605,39959.06841621388, 1,15, 5,10,54634.54471212738, 1,15,19,10
318,0.0,0.0, 1,15, 1,10,0.0, 1,15, 1,10
355,740124595.9463865,12374.216038804521, 1,15, 4,10,3829218.154066982, 1,16,18,60
403,197687796.27748126,12374.216038804521, 1,15, 4,10,483183.26346918393, 1,20,18,10
476,106772067.24485692,4732.048419519677, 1,15, 4,10,237357.535085481, 1,20,12,10
513,0.0,0.0, 1,15, 1,10,0.0, 1,15, 1,10
562,6327539.352130719,0.0, 1,15, 1,10,63914.04385593976, 1,20, 6,10
1046,0.0,0.0, 1,15, 1,10,0.0, 1,15, 1,10
1096,24419769.964431882,0.0, 1,15, 1,10,246757.9753694563, 1,15,14,40
1134,94104138.66507265,0.0, 1,15,11,60,651406.4951158125, 1,20, 6,10
1323,542436799.6689014,0.0, 1,15, 1,10,3375000.0000000005, 1,15,21,40
1360,5019840.0,4980.0, 1,15, 1,10,4980.000000000002, 1,16,18,60
1388,0.0,0.0, 1,15, 1,10,0.0, 1,15, 1,10
1,EXTREME_SUMMER,  37.36,-121.92,  -8.00,  15.50
5,7
1038,0.0,0.0, 9, 2, 1,10,0.0, 9, 2, 1,10
1039,13.666666666666668,0.0, 9, 2, 1,10,0.16666666666666666, 9, 6,15,10
581,0.16362970209405997,0.0, 9, 6,22,35,0.5091102012497793, 9, 4,14,60
582,3.6357926411718684,0.0, 9, 6, 8,50,12.527399327869684, 9, 5,15,55
583,4.450138724379222,0.0, 9, 6,23, 3,15.829403871314977, 9, 5,15,55
1115,0.0,0.0, 9, 2, 1,10,0.0, 9, 2, 1,10
1128,0.0,0.0, 9, 2, 1,10,0.0, 9, 2, 1,10
1153,0.0,0.0, 9, 2, 1,10,0.0, 9, 2, 1,10
1154,0.0,0.0, 9, 2, 1,10,0.0, 9, 2, 1,10
1156,0.0,0.0, 9, 2, 1,10,0.0, 9, 2, 1,10
13,761953045.1034913,106115.4183601288, 9, 2, 4,10,1785240.7003697718, 9, 7,20,10
61,301924526.0238348,58759.40635443481, 9, 2, 1,10,854682.2742463244, 9, 2,20,10
134,70666020.44019979,42376.01200569399, 9, 2, 4,10,104369.48322671017, 9, 7,20,10
170,5241013.419656074,232.27731661587313, 9, 2, 4,10,11650.931360040839, 9, 7,12,10
207,6509451.13922266,543.5021409221355, 9, 2, 3,10,15327.095199349082, 9, 7,10,10
244,12749673.39982522,1014.5707620042115, 9, 2, 4,10,35359.08742820678, 9, 7,20,10
281,46165882.48149605,39959.06841621388, 9, 2, 5,10,54634.54471212738, 9, 2,19,10
318,0.0,0.0, 9, 2, 1,10,0.0, 9, 2, 1,10
355,617701674.7493179,12374.216038804521, 9, 2, 4,10,3829218.154066982, 9, 3,18,60
403,197687796.27748126,12374.216038804521, 9, 2, 4,10,483183.26346918393, 9, 7,18,10
476,106772067.24485692,4732.048419519677, 9, 2, 4,10,237357.535085481, 9, 7,12,10
513,0.0,0.0, 9, 2, 1,10,0.0, 9, 2, 1,10
562,39810409.98038118,0.0, 9, 2, 3,40,87323.65217213168, 9, 6,14,40
1046,0.0,0.0, 9, 2, 1,10,0.0, 9, 2, 1,10
1096,344532248.6590753,0.0, 9, 2, 3,40,922366.447596341, 9, 7,15,60
1134,0.0,0.0, 9, 2, 1,10,0.0, 9, 2, 1,10
1323,420013878.47183645,0.0, 9, 2, 1,10,3375000.000000001, 9, 5,21,40
1360,5019840.0,4980.0, 9, 2, 1,10,4980.000000000001, 9, 2, 6,10
1388,0.0,0.0, 9, 2, 1,10,0.0, 9, 2, 1,10
1,ANNUAL,  37.36,-121.92,  -8.00,  15.50
5,365
1038,3.333333333333332,0.0, 1, 1, 1,10,0.16666666666666666, 1, 9, 6,10
1039,214.33333333333334,0.0, 1, 1, 1,10,0.16666666666666666, 1,20,13,60
581,0.19093753866268584,0.0, 4,22,22,35,1.3029215863159702, 1, 1, 9,60
582,3.2596243403004164,0.0, 1, 2, 4,60,26.281277993982748, 1, 1, 9,60
583,3.8412806866391422,0.0, 4,22,23, 2,36.23585300845518, 1, 1, 9,60
1115,1298288476.1826408,0.0, 1, 1, 1, 5,2330528.6309520057, 2,18, 6,30
1128,371196715.95208764,0.0, 1, 1, 1, 5,683114.3063389057, 2,18, 6,30
1153,16654496.615971794,0.0, 1, 1, 1, 5,64140.13474068423, 2,18, 6,30
1154,884624434.6674591,0.0, 1, 1, 1, 5,120000.0, 1, 2,23,40
1156,1779934.5991003248,0.0, 1, 1, 1, 5,384860.7830189697,12,27, 6,15
13,32213027627.867455,106115.4183601288, 1, 2, 4,10,1843225.1109608302, 6, 8,20,10
61,15743207428.39043,58759.40635443481, 1, 1, 1,10,854682.2742463244, 1, 1,20,10
134,3685071073.433083,42376.01200569399, 1, 2, 4,10,104369.48322671017, 1, 1,20,10
170,273393721.45534325,232.27731661587313, 1, 2, 4,10,11650.931360040839, 1, 1,12,10
207,339560869.06955314,543.5021409221355, 1, 2, 3,10,15327.095199349082, 1, 1,10,10
244,664895467.8009839,1014.5707620042115, 1, 2, 4,10,35359.08742820678, 1, 1,20,10
281,2407221015.1057043,39959.06841621388, 1, 1, 5,10,54634.54471212738, 1, 1,19,10
318,0.0,0.0, 1, 1, 1,10,0.0, 1, 1, 1,10
355,35650044461.34294,12374.216038804521, 1, 2, 4,10,3829218.154066983,10,31,18,60
403,10310294493.052883,12374.216038804521, 1, 2, 4,10,483183.26346918393, 1, 1,18,10
476,5569688622.065564,4732.048419519677, 1, 2, 4,10,237357.535085481, 1, 1,12,10
513,0.0,0.0, 1, 1, 1,10,0.0, 1, 1, 1,10
562,1265950164.0952308,0.0, 1, 1, 1,10,87323.6521721317, 5, 7,15,40
1046,0.0,0.0, 1, 1, 1,10,0.0, 1, 1, 1,10
1096,9982794580.119204,0.0, 1, 1, 1,10,923777.8180870112, 9, 7,15,60
1134,1274255581.8346164,0.0, 1, 1, 1,10,1223302.4844273948,12,27, 6,10
1323,25339749968.294106,0.0, 1, 1, 1,10,3375000.0000000023, 4,11,10,30
1360,261748800.0,4979.999999999998, 2,16,17,30,4980.000000000002, 1, 1, 9,40
1388,0.0,0.0, 1, 1, 1,10,0.0, 1, 1, 1,10
End of Data
 Number of Records Written=          87
