Program Version,EnergyPlus, Version 22.2.0-c249759bad, YMD=2023.09.01 18:03
1,5,Environment Title[],Latitude[deg],Longitude[deg],Time Zone[],Elevation[m]
2,8,Day of Simulation[],Month[],Day of Month[],DST Indicator[1=yes 0=no],Hour[],StartMinute[],EndMinute[],DayType
3,5,Cumulative Day of Simulation[],Month[],Day of Month[],DST Indicator[1=yes 0=no],DayType  ! When Daily Report Variables Requested
4,2,Cumulative Days of Simulation[],Month[]  ! When Monthly Report Variables Requested
5,1,Cumulative Days of Simulation[] ! When Run Period Report Variables Requested
6,1,Calendar Year of Simulation[] ! When Annual Report Variables Requested
581,11,LIVING,AFN Zone Infiltration Air Change Rate [ach] !RunPeriod [Value,Min,Month,Day,Hour,Minute,Max,Month,Day,Hour,Minute]
582,11,ATTIC,AFN Zone Infiltration Air Change Rate [ach] !RunPeriod [Value,Min,Month,Day,Hour,Minute,Max,Month,Day,Hour,Minute]
583,11,CRAWLSPACE,AFN Zone Infiltration Air Change Rate [ach] !RunPeriod [Value,Min,Month,Day,Hour,Minute,Max,Month,Day,Hour,Minute]
1038,11,Facility,Facility Heating Setpoint Not Met Time [hr] !RunPeriod [Value,Min,Month,Day,Hour,Minute,Max,Month,Day,Hour,Minute]
1039,11,Facility,Facility Cooling Setpoint Not Met Time [hr] !RunPeriod [Value,Min,Month,Day,Hour,Minute,Max,Month,Day,Hour,Minute]
1115,11,DX_HEATING_COIL,Heating Coil Heating Energy [J] !RunPeriod [Value,Min,Month,Day,Hour,Minute,Max,Month,Day,Hour,Minute]
1128,11,DX_HEATING_COIL,Heating Coil Electricity Energy [J] !RunPeriod [Value,Min,Month,Day,Hour,Minute,Max,Month,Day,Hour,Minute]
1153,11,DX_HEATING_COIL,Heating Coil Defrost Electricity Energy [J] !RunPeriod [Value,Min,Month,Day,Hour,Minute,Max,Month,Day,Hour,Minute]
1154,11,DX_HEATING_COIL,Heating Coil Crankcase Heater Electricity Energy [J] !RunPeriod [Value,Min,Month,Day,Hour,Minute,Max,Month,Day,Hour,Minute]
1155,11,HEATING_RESISTANCE_BACKUP,Heating Coil Heating Energy [J] !RunPeriod [Value,Min,Month,Day,Hour,Minute,Max,Month,Day,Hour,Minute]
1156,11,HEATING_RESISTANCE_BACKUP,Heating Coil Electricity Energy [J] !RunPeriod [Value,Min,Month,Day,Hour,Minute,Max,Month,Day,Hour,Minute]
1292,11,WATER HEATER,Water Heater Heat Loss Energy [J] !RunPeriod [Value,Min,Month,Day,Hour,Minute,Max,Month,Day,Hour,Minute]
1306,11,WATER HEATER,Water Heater Heating Energy [J] !RunPeriod [Value,Min,Month,Day,Hour,Minute,Max,Month,Day,Hour,Minute]
1307,11,WATER HEATER,Water Heater Unmet Demand Heat Transfer Energy [J] !RunPeriod [Value,Min,Month,Day,Hour,Minute,Max,Month,Day,Hour,Minute]
1308,11,WATER HEATER,Water Heater Electricity Energy [J] !RunPeriod [Value,Min,Month,Day,Hour,Minute,Max,Month,Day,Hour,Minute]
13,11,Electricity:Facility [J] !RunPeriod [Value,Min,Month,Day,Hour,Minute,Max,Month,Day,Hour,Minute]
1134,11,Heating:Electricity [J] !RunPeriod [Value,Min,Month,Day,Hour,Minute,Max,Month,Day,Hour,Minute]
1096,11,Cooling:Electricity [J] !RunPeriod [Value,Min,Month,Day,Hour,Minute,Max,Month,Day,Hour,Minute]
562,11,Fans:Electricity [J] !RunPeriod [Value,Min,Month,Day,Hour,Minute,Max,Month,Day,Hour,Minute]
1379,11,Pumps:Electricity [J] !RunPeriod [Value,Min,Month,Day,Hour,Minute,Max,Month,Day,Hour,Minute]
1326,11,WaterSystems:Electricity [J] !RunPeriod [Value,Min,Month,Day,Hour,Minute,Max,Month,Day,Hour,Minute]
61,11,InteriorLights:Electricity [J] !RunPeriod [Value,Min,Month,Day,Hour,Minute,Max,Month,Day,Hour,Minute]
1046,11,ExteriorLights:Electricity [J] !RunPeriod [Value,Min,Month,Day,Hour,Minute,Max,Month,Day,Hour,Minute]
134,11,InteriorEquipment:Electricity [J] !RunPeriod [Value,Min,Month,Day,Hour,Minute,Max,Month,Day,Hour,Minute]
170,11,gas_dryer:InteriorEquipment:Electricity [J] !RunPeriod [Value,Min,Month,Day,Hour,Minute,Max,Month,Day,Hour,Minute]
207,11,clotheswasher:InteriorEquipment:Electricity [J] !RunPeriod [Value,Min,Month,Day,Hour,Minute,Max,Month,Day,Hour,Minute]
244,11,dishwasher:InteriorEquipment:Electricity [J] !RunPeriod [Value,Min,Month,Day,Hour,Minute,Max,Month,Day,Hour,Minute]
281,11,refrigerator:InteriorEquipment:Electricity [J] !RunPeriod [Value,Min,Month,Day,Hour,Minute,Max,Month,Day,Hour,Minute]
318,11,electric_mels:InteriorEquipment:Electricity [J] !RunPeriod [Value,Min,Month,Day,Hour,Minute,Max,Month,Day,Hour,Minute]
355,11,NaturalGas:Facility [J] !RunPeriod [Value,Min,Month,Day,Hour,Minute,Max,Month,Day,Hour,Minute]
403,11,InteriorEquipment:NaturalGas [J] !RunPeriod [Value,Min,Month,Day,Hour,Minute,Max,Month,Day,Hour,Minute]
476,11,gas_dryer:InteriorEquipment:NaturalGas [J] !RunPeriod [Value,Min,Month,Day,Hour,Minute,Max,Month,Day,Hour,Minute]
513,11,gas_mels:InteriorEquipment:NaturalGas [J] !RunPeriod [Value,Min,Month,Day,Hour,Minute,Max,Month,Day,Hour,Minute]
End of Data Dictionary
1,EXTREME_WINTER,  34.35, -85.17,  -5.00, 196.00
5,7
1038,0.25,0.0, 1,27, 1,15,0.25, 1,29, 6,15
1039,7.25,0.0, 1,27, 1,15,0.25, 1,27,16,45
581,0.2800917774851726,0.12957997430603463, 2, 1,10,46,0.5521029697793066, 1,28,22,60
582,2.5653196098382027,0.0, 1,27, 3,37,11.654534595260293, 1,28,14,60
583,0.02284726796848053,0.0002380877051708346, 2, 1,10,57,0.07813877804560108, 1,31, 4,60
1115,747090376.1977686,0.0, 1,27, 1, 7,4344341.8627661085, 1,30, 6,45
1128,245257825.21504682,0.0, 1,27, 1, 7,1353511.3849743216, 1,30, 6,45
1153,6107548.7420249395,0.0, 1,27, 1, 7,62045.73668138406, 2, 1, 6,60
1154,75220545.68090808,0.0, 1,27, 6, 5,180000.0, 1,27,21,30
1155,57027131.202956595,0.0, 1,27, 1, 7,2088500.227740986, 1,29, 6,45
1156,57027131.202956595,0.0, 1,27, 1, 7,2088500.227740986, 1,29, 6,45
1292,-24509710.959633153,-39742.77943089242, 1,31, 5,45,-3251.8904112598966, 2, 1,11,23
1306,209568927.86350453,0.0, 1,27, 1, 7,4050000.0, 2, 2, 9,60
1307,30501207.742937572,0.0, 1,27, 1, 7,10306850.072860554, 2, 2,19,60
1308,209568927.86350453,0.0, 1,27, 1, 7,4050000.0, 2, 2, 9,60
13,1000266052.8141665,272017.0388981225, 1,27,15,15,7095421.330521081, 1,29, 7,60
61,301924526.02383536,88139.10953165221, 1,27, 1,15,1282023.4113694867, 1,27,20,15
134,70666020.44019976,63564.01800854099, 1,27, 4,15,156554.22484006523, 2, 1,20,15
170,5241013.419656067,348.4159749238097, 1,27, 4,15,17476.39704006126, 2, 1,12,15
207,6509451.13922267,815.2532113832032, 1,27, 3,15,22990.642799023623, 2, 1,10,15
244,12749673.399825225,1521.856143006317, 1,27, 4,15,53038.631142310165, 2, 1,20,15
281,46165882.481495745,59938.60262432081, 1,27, 5,15,81951.81706819107, 1,27,19,15
318,0.0,0.0, 1,27, 1,15,0.0, 1,27, 1,15
355,197687796.27748066,18561.32405820678, 1,27, 4,15,724774.895203776, 2, 1,18,15
403,197687796.27748066,18561.32405820678, 1,27, 4,15,724774.895203776, 2, 1,18,15
476,106772067.24485716,7098.072629279515, 1,27, 4,15,356036.3026282215, 2, 1,12,15
513,0.0,0.0, 1,27, 1,15,0.0, 1,27, 1,15
562,27236507.8930764,0.0, 1,27, 1,15,137922.02951773512, 1,27, 6,45
1046,0.0,0.0, 1,27, 1,15,0.0, 1,27, 1,15
1096,7257019.752614652,0.0, 1,27, 1,15,418004.16493099154, 2, 1,15,60
1134,383613050.8409365,0.0, 1,27,12,30,3875968.2221283205, 1,29, 6,15
1326,209568927.86350462,0.0, 1,27, 1,15,4050000.0, 1,28,20,30
1379,0.0,0.0, 1,27, 1,15,0.0, 1,27, 1,15
1,EXTREME_SUMMER,  34.35, -85.17,  -5.00, 196.00
5,7
1038,0.0,0.0, 6,15, 1,15,0.0, 6,15, 1,15
1039,53.25,0.0, 6,15, 1,15,0.25, 6,15,14,45
581,0.0673010278155471,0.0, 6,15, 8,31,0.34579274702584845, 6,18,14,46
582,2.104969032049698,0.0, 6,15,21,32,9.688187219345128, 6,20,16,48
583,0.042561724007519605,0.0, 6,15,23, 3,0.07131109720739437, 6,18,14,46
1115,0.0,0.0, 6,15, 1, 7,0.0, 6,15, 1, 7
1128,0.0,0.0, 6,15, 1, 7,0.0, 6,15, 1, 7
1153,0.0,0.0, 6,15, 1, 7,0.0, 6,15, 1, 7
1154,0.0,0.0, 6,15, 1, 7,0.0, 6,15, 1, 7
1155,0.0,0.0, 6,15, 1, 7,0.0, 6,15, 1, 7
1156,0.0,0.0, 6,15, 1, 7,0.0, 6,15, 1, 7
1292,-21781362.228455603,-34125.62029785073, 6,20,12,60,-3057.4323995802297, 6,15, 9,45
1306,159730449.8107149,0.0, 6,15, 1, 7,3518427.7567342864, 6,15,14,30
1307,12967978.239613894,0.0, 6,15, 1, 7,1767800.716408338, 6,21,19,52
1308,159730449.8107149,0.0, 6,15, 1, 7,3518427.7567342864, 6,15,14,30
13,1158038558.0027092,189783.5182995776, 6,19, 4,60,6991103.621787613, 6,21,20,15
61,301924526.02383536,88139.10953165221, 6,15, 1,15,1282023.4113694867, 6,15,20,15
134,70666020.44019976,63564.01800854099, 6,15, 4,15,156554.22484006523, 6,20,20,15
170,5241013.419656067,348.4159749238097, 6,15, 4,15,17476.39704006126, 6,20,12,15
207,6509451.13922267,815.2532113832032, 6,15, 3,15,22990.642799023623, 6,20,10,15
244,12749673.399825225,1521.856143006317, 6,15, 4,15,53038.631142310165, 6,20,20,15
281,46165882.481495745,59938.60262432081, 6,15, 5,15,81951.81706819107, 6,15,19,15
318,0.0,0.0, 6,15, 1,15,0.0, 6,15, 1,15
355,197687796.27748066,18561.32405820678, 6,15, 4,15,724774.895203776, 6,20,18,15
403,197687796.27748066,18561.32405820678, 6,15, 4,15,724774.895203776, 6,20,18,15
476,106772067.24485716,7098.072629279515, 6,15, 4,15,356036.3026282215, 6,20,12,15
513,0.0,0.0, 6,15, 1,15,0.0, 6,15, 1,15
562,58308881.6288698,0.0, 6,19, 6,30,137922.02951773512, 6,15,13,60
1046,0.0,0.0, 6,15, 1,15,0.0, 6,15, 1,15
1096,567408680.0990902,0.0, 6,19, 6,30,1515102.3980538426, 6,17,15,60
1134,0.0,0.0, 6,15, 1,15,0.0, 6,15, 1,15
1326,159730449.81071493,0.0, 6,15, 1,15,4050000.0, 6,20, 9,60
1379,0.0,0.0, 6,15, 1,15,0.0, 6,15, 1,15
1,ANNUAL,  34.35, -85.17,  -5.00, 196.00
5,365
1038,2.5,0.0, 1, 1, 1,15,0.25, 1, 2, 6,15
1039,727.25,0.0, 1, 1, 1,15,0.25, 1, 2,14,45
581,0.15212202455834167,0.0, 3,24, 8,47,1.7443094708342666,11,17,23,48
582,1.9279255600920133,0.0, 1, 2,21,50,46.74169014503622,11,17,23,48
583,0.02518575991221973,0.0, 5, 9,23, 3,0.0801944711378844, 8,19,17,47
1115,7473627808.228967,0.0, 1, 1, 1,30,4365289.061279557, 1,30, 6,60
1128,2330951203.5185704,0.0, 1, 1, 1,30,1352109.6284817678, 3, 2, 8,45
1153,75390978.1593558,0.0, 1, 1, 1,15,96632.1467520768, 3,30, 6,45
1154,1312212529.4326487,0.0, 1, 1, 1,60,180000.0, 1, 1, 1,30
1155,344193992.80713904,0.0, 1, 1, 1,15,2984193.735469841, 2, 5, 6,60
1156,344193992.80713904,0.0, 1, 1, 1,15,2984193.735469841, 2, 5, 6,60
1292,-1193721752.0809255,-39815.4144364898, 1,31, 2,45,-2038.17784637031, 6,25,15,31
1306,9480551062.895126,0.0, 1, 1, 1,15,4050000.0, 1, 1,20,15
1307,1063366330.3991938,0.0, 1, 1, 1,15,10271152.887514165, 1,22,19,60
1308,9480551062.895126,0.0, 1, 1, 1,15,4050000.0, 1, 1,20,15
13,47204171640.84186,151703.1275401932, 1, 5, 4,15,7581651.596797633, 2, 6, 7,60
61,15743207428.383959,88139.10953165221, 1, 1, 1,15,1282023.4113694867, 1, 1,20,15
134,3685071073.4325233,63564.01800854099, 1, 2, 4,15,156554.22484006523, 1, 1,20,15
170,273393721.45532674,348.4159749238097, 1, 2, 4,15,17476.39704006126, 1, 1,12,15
207,339560869.0695816,815.2532113832032, 1, 2, 3,15,22990.642799023623, 1, 1,10,15
244,664895467.8009144,1521.856143006317, 1, 2, 4,15,53038.631142310165, 1, 1,20,15
281,2407221015.106824,59938.60262432081, 1, 1, 5,15,81951.81706819107, 1, 1,19,15
318,0.0,0.0, 1, 1, 1,15,0.0, 1, 1, 1,15
355,10310294493.051695,18561.32405820678, 1, 2, 4,15,724774.895203776, 1, 1,18,15
403,10310294493.051695,18561.32405820678, 1, 2, 4,15,724774.895203776, 1, 1,18,15
476,5569688622.066177,7098.072629279515, 1, 2, 4,15,356036.3026282215, 1, 1,12,15
513,0.0,0.0, 1, 1, 1,15,0.0, 1, 1, 1,15
562,1668354155.4625773,0.0, 1, 1, 1,30,137922.02951773515, 6, 8,20,30
1046,0.0,0.0, 1, 1, 1,15,0.0, 1, 1, 1,15
1096,12564239216.748056,0.0, 1, 1, 1,15,1538264.0500898487, 6,24,15,60
1134,4062748703.9177094,0.0, 1, 1, 1,60,4784585.277836676, 2, 5, 6,15
1326,9480551062.89512,0.0, 1, 1, 1,15,4050000.0000000014, 3,19, 9,60
1379,0.0,0.0, 1, 1, 1,15,0.0, 1, 1, 1,15
End of Data
 Number of Records Written=          99
