Program Version,EnergyPlus, Version 22.2.0-c249759bad, YMD=2023.09.01 14:31
1,5,Environment Title[],Latitude[deg],Longitude[deg],Time Zone[],Elevation[m]
2,8,Day of Simulation[],Month[],Day of Month[],DST Indicator[1=yes 0=no],Hour[],StartMinute[],EndMinute[],DayType
3,5,Cumulative Day of Simulation[],Month[],Day of Month[],DST Indicator[1=yes 0=no],DayType  ! When Daily Report Variables Requested
4,2,Cumulative Days of Simulation[],Month[]  ! When Monthly Report Variables Requested
5,1,Cumulative Days of Simulation[] ! When Run Period Report Variables Requested
6,1,Calendar Year of Simulation[] ! When Annual Report Variables Requested
7,1,Environment,Site Outdoor Air Drybulb Temperature [C] !Hourly
545,1,LIVING,Zone Mean Air Temperature [C] !Hourly
546,1,ATTIC,Zone Mean Air Temperature [C] !Hourly
547,1,CRAWLSPACE,Zone Mean Air Temperature [C] !Hourly
548,1,FAN,Fan Electricity Rate [W] !Hourly
720,1,LIVING,Zone Predicted Sensible Load to Heating Setpoint Heat Transfer Rate [W] !Hourly
721,1,LIVING,Zone System Predicted Sensible Load to Heating Setpoint Heat Transfer Rate [W] !Hourly
784,1,ATTIC,Zone Predicted Sensible Load to Heating Setpoint Heat Transfer Rate [W] !Hourly
785,1,ATTIC,Zone System Predicted Sensible Load to Heating Setpoint Heat Transfer Rate [W] !Hourly
848,1,CRAWLSPACE,Zone Predicted Sensible Load to Heating Setpoint Heat Transfer Rate [W] !Hourly
849,1,CRAWLSPACE,Zone System Predicted Sensible Load to Heating Setpoint Heat Transfer Rate [W] !Hourly
1121,1,DX_HEATING_COIL,Heating Coil Heating Rate [W] !Hourly
1135,1,DX_HEATING_COIL,Heating Coil Electricity Rate [W] !Hourly
1161,1,DX_HEATING_COIL,Heating Coil Defrost Electricity Rate [W] !Hourly
1163,1,DX_HEATING_COIL,Heating Coil Crankcase Heater Electricity Rate [W] !Hourly
1166,1,HEATING_RESISTANCE_BACKUP,Heating Coil Heating Rate [W] !Hourly
1168,1,HEATING_RESISTANCE_BACKUP,Heating Coil Electricity Rate [W] !Hourly
End of Data Dictionary
1,EXTREME_WINTER,  30.41, -89.07,  -6.00,  16.00
2,1, 1, 6, 0, 1, 0.00,60.00,Monday
7,1.7
545,22.36034634818316
546,1.1995327764209665
547,20.20590612379629
548,0.0
720,-3051.594568671304
721,-3051.594568671304
784,0.0
785,0.0
848,0.0
849,0.0
1121,0.0
1135,0.0
1161,0.0
1163,200.0
1166,0.0
1168,0.0
2,1, 1, 6, 0, 2, 0.00,60.00,Monday
7,1.7
545,21.511002685949627
546,-0.09240934943346941
547,20.00646631464138
548,0.0
720,-2396.6433550498696
721,-2396.6433550498696
784,0.0
785,0.0
848,0.0
849,0.0
1121,0.0
1135,0.0
1161,0.0
1163,200.0
1166,0.0
1168,0.0
2,1, 1, 6, 0, 3, 0.00,60.00,Monday
7,1.1
545,20.614006415542555
546,-1.1598698040779247
547,19.860997355270467
548,0.0
720,-1600.066358348049
721,-1600.066358348049
784,0.0
785,0.0
848,0.0
849,0.0
1121,0.0
1135,0.0
1161,0.0
1163,200.0
1166,0.0
1168,0.0
2,1, 1, 6, 0, 4, 0.00,60.00,Monday
7,1.1
545,19.816943399412803
546,-2.027582920182895
547,19.71085945044984
548,0.0
720,-950.4327229532319
721,-950.4327229532319
784,0.0
785,0.0
848,0.0
849,0.0
1121,0.0
1135,0.0
1161,0.0
1163,200.0
1166,0.0
1168,0.0
2,1, 1, 6, 0, 5, 0.00,60.00,Monday
7,0.6
545,19.099940073152375
546,-2.761371298292438
547,19.565775954054445
548,0.0
720,-372.21983846907824
721,-372.21983846907824
784,0.0
785,0.0
848,0.0
849,0.0
1121,0.0
1135,0.0
1161,0.0
1163,200.0
1166,0.0
1168,0.0
2,1, 1, 6, 0, 6, 0.00,60.00,Monday
7,0.6
545,20.358654709507064
546,-0.19631986332699186
547,19.309443915385096
548,94.75264732361664
720,910.4549878012767
721,910.4549878012767
784,0.0
785,0.0
848,0.0
849,0.0
1121,2892.9178808983643
1135,904.9015138425794
1161,73.17099596585426
1163,66.09006886370781
1166,0.0
1168,0.0
2,1, 1, 6, 0, 7, 0.00,60.00,Monday
7,1.1
545,20.194043565570368
546,-0.20176220726072552
547,19.25038144998928
548,67.81216539747275
720,1035.3811876884738
721,1035.3811876884738
784,0.0
785,0.0
848,0.0
849,0.0
1121,2046.9464462499955
1135,668.5628387666385
1161,50.586706086194816
1163,104.27826977298133
1166,0.0
1168,0.0
2,1, 1, 6, 0, 8, 0.00,60.00,Monday
7,3.3
545,20.069762841773617
546,-0.07844411597183656
547,19.116816612945605
548,46.26016000446584
720,870.9526967661914
721,870.9526967661914
784,0.0
785,0.0
848,0.0
849,0.0
1121,1469.1989213396917
1135,466.2541273228701
1161,31.485166295190723
1163,134.96998934536663
1166,0.0
1168,0.0
2,1, 1, 6, 0, 9, 0.00,60.00,Monday
7,6.7
545,19.952611444983987
546,4.127775881867885
547,19.01128184917698
548,7.875365199373099
720,124.24135115793797
721,124.24135115793797
784,0.0
785,0.0
848,0.0
849,0.0
1121,333.32120932612577
1135,94.05551900562911
1161,0.0
1163,188.9848849660646
1166,0.0
1168,0.0
2,1, 1, 6, 0,10, 0.00,60.00,Monday
7,10.6
545,20.806811077723008
546,10.438571845040398
547,18.90565036112043
548,0.0
720,-758.9603890274975
721,-758.9603890274975
784,0.0
785,0.0
848,0.0
849,0.0
1121,0.0
1135,0.0
1161,0.0
1163,0.0
1166,0.0
1168,0.0
2,1, 1, 6, 0,11, 0.00,60.00,Monday
7,12.2
545,21.933583295540224
546,18.49404526013968
547,18.836214198191655
548,0.0
720,-1873.253004821996
721,-1873.253004821996
784,0.0
785,0.0
848,0.0
849,0.0
1121,0.0
1135,0.0
1161,0.0
1163,0.0
1166,0.0
1168,0.0
2,1, 1, 6, 0,12, 0.00,60.00,Monday
7,14.4
545,22.803845110469556
546,23.073508482224305
547,18.805427510568414
548,0.0
720,-2664.7220624479833
721,-2664.7220624479833
784,0.0
785,0.0
848,0.0
849,0.0
1121,0.0
1135,0.0
1161,0.0
1163,0.0
1166,0.0
1168,0.0
2,1, 1, 6, 0,13, 0.00,60.00,Monday
7,15.6
545,23.3520379261959
546,27.018490716263443
547,18.82120950881023
548,8.28798555488317
720,-3357.6364571039267
721,-3357.6364571039267
784,0.0
785,0.0
848,0.0
849,0.0
1121,0.0
1135,0.0
1161,0.0
1163,0.0
1166,0.0
1168,0.0
2,1, 1, 6, 0,14, 0.00,60.00,Monday
7,14.4
545,23.184677203400888
546,27.130260114544416
547,18.86615139883011
548,19.300545951632845
720,-3157.0719527539786
721,-3157.0719527539786
784,0.0
785,0.0
848,0.0
849,0.0
1121,0.0
1135,0.0
1161,0.0
1163,0.0
1166,0.0
1168,0.0
2,1, 1, 6, 0,15, 0.00,60.00,Monday
7,15.0
545,23.41171578932957
546,27.322020511168823
547,18.95300838236478
548,39.591448731184734
720,-4612.087811451
721,-4612.087811451
784,0.0
785,0.0
848,0.0
849,0.0
1121,0.0
1135,0.0
1161,0.0
1163,0.0
1166,0.0
1168,0.0
2,1, 1, 6, 0,16, 0.00,60.00,Monday
7,14.4
545,23.297182185430177
546,25.300558313715072
547,19.05957047182257
548,57.57127141111384
720,-5712.360957638821
721,-5712.360957638821
784,0.0
785,0.0
848,0.0
849,0.0
1121,0.0
1135,0.0
1161,0.0
1163,0.0
1166,0.0
1168,0.0
2,1, 1, 6, 0,17, 0.00,60.00,Monday
7,12.8
545,23.32389139828797
546,22.427564039494563
547,19.146422252632533
548,59.31516781481167
720,-6102.4301630636655
721,-6102.4301630636655
784,0.0
785,0.0
848,0.0
849,0.0
1121,0.0
1135,0.0
1161,0.0
1163,0.0
1166,0.0
1168,0.0
2,1, 1, 6, 0,18, 0.00,60.00,Monday
7,8.9
545,23.250991192519912
546,16.88793803536342
547,19.198516114303647
548,30.824335505664568
720,-4969.555034396937
721,-4969.555034396937
784,0.0
785,0.0
848,0.0
849,0.0
1121,0.0
1135,0.0
1161,0.0
1163,156.88662140181867
1166,0.0
1168,0.0
2,1, 1, 6, 0,19, 0.00,60.00,Monday
7,7.8
545,23.32580619575316
546,13.288369213624451
547,19.25667785918405
548,20.20280150031098
720,-4221.989478247577
721,-4221.989478247577
784,0.0
785,0.0
848,0.0
849,0.0
1121,0.0
1135,0.0
1161,0.0
1163,171.74274755519875
1166,0.0
1168,0.0
2,1, 1, 6, 0,20, 0.00,60.00,Monday
7,6.7
545,23.304114389576164
546,9.922963339345795
547,19.279141722175478
548,14.904712867799356
720,-3863.224459675621
721,-3863.224459675621
784,0.0
785,0.0
848,0.0
849,0.0
1121,0.0
1135,0.0
1161,0.0
1163,179.15307765033475
1166,0.0
1168,0.0
2,1, 1, 6, 0,21, 0.00,60.00,Monday
7,5.6
545,23.301275197552993
546,7.47358867553956
547,19.271059277536832
548,8.028517664486731
720,-3472.4366765696177
721,-3472.4366765696177
784,0.0
785,0.0
848,0.0
849,0.0
1121,0.0
1135,0.0
1161,0.0
1163,188.77067369099996
1166,0.0
1168,0.0
2,1, 1, 6, 0,22, 0.00,60.00,Monday
7,5.0
545,23.244088912906737
546,5.459088256015931
547,19.241926706422625
548,0.0
720,-2880.458588256801
721,-2880.458588256801
784,0.0
785,0.0
848,0.0
849,0.0
1121,0.0
1135,0.0
1161,0.0
1163,200.0
1166,0.0
1168,0.0
2,1, 1, 6, 0,23, 0.00,60.00,Monday
7,4.4
545,22.58833377965353
546,3.8071358737417307
547,19.200555403213954
548,0.0
720,-2921.6149512909888
721,-2921.6149512909888
784,0.0
785,0.0
848,0.0
849,0.0
1121,0.0
1135,0.0
1161,0.0
1163,200.0
1166,0.0
1168,0.0
2,1, 1, 6, 0,24, 0.00,60.00,Monday
7,3.3
545,21.741967626765156
546,2.2870558472207665
547,19.144256586722506
548,0.0
720,-2372.706465822306
721,-2372.706465822306
784,0.0
785,0.0
848,0.0
849,0.0
1121,0.0
1135,0.0
1161,0.0
1163,200.0
1166,0.0
1168,0.0
2,2, 1, 7, 0, 1, 0.00,60.00,Tuesday
7,4.4
545,21.05257814720708
546,2.1362977944833457
547,19.073551348121615
548,0.0
720,-1878.763583523727
721,-1878.763583523727
784,0.0
785,0.0
848,0.0
849,0.0
1121,0.0
1135,0.0
1161,0.0
1163,200.0
1166,0.0
1168,0.0
2,2, 1, 7, 0, 2, 0.00,60.00,Tuesday
7,4.4
545,20.39692051338731
546,1.103484012474569
547,18.993376037239855
548,0.0
720,-1302.443513187467
721,-1302.443513187467
784,0.0
785,0.0
848,0.0
849,0.0
1121,0.0
1135,0.0
1161,0.0
1163,200.0
1166,0.0
1168,0.0
2,2, 1, 7, 0, 3, 0.00,60.00,Tuesday
7,3.9
545,19.61149376685437
546,1.231876146872132
547,18.90298843862905
548,0.0
720,-696.1426163897304
721,-696.1426163897304
784,0.0
785,0.0
848,0.0
849,0.0
1121,0.0
1135,0.0
1161,0.0
1163,200.0
1166,0.0
1168,0.0
2,2, 1, 7, 0, 4, 0.00,60.00,Tuesday
7,3.9
545,18.783063348984083
546,1.804663526760863
547,18.808035500226374
548,0.0
720,-121.94581009801914
721,-121.94581009801914
784,0.0
785,0.0
848,0.0
849,0.0
1121,0.0
1135,0.0
1161,0.0
1163,200.0
1166,0.0
1168,0.0
2,2, 1, 7, 0, 5, 0.00,60.00,Tuesday
7,4.4
545,18.57703992723509
546,2.211636506478495
547,18.704277671764547
548,6.941393147812173
720,182.38511615016614
721,182.38511615016614
784,0.0
785,0.0
848,0.0
849,0.0
1121,221.74111874350348
1135,68.79729740245766
1161,4.635507860216596
1163,190.2577872136343
1166,0.0
1168,0.0
2,2, 1, 7, 0, 6, 0.00,60.00,Tuesday
7,5.6
545,19.560217360763815
546,3.826989534290954
547,18.589943304560077
548,27.448335361391074
720,930.1768309975105
721,930.1768309975105
784,0.0
785,0.0
848,0.0
849,0.0
1121,1154.9690522201463
1135,314.8757093874951
1161,0.0
1163,161.6085649564763
1166,0.0
1168,0.0
2,2, 1, 7, 0, 7, 0.00,60.00,Tuesday
7,6.1
545,19.682049169965442
546,5.034349988648569
547,18.504561970264863
548,32.446340680342765
720,1073.424039402793
721,1073.424039402793
784,0.0
785,0.0
848,0.0
849,0.0
1121,1382.159570080512
1135,381.1509560919531
1161,0.0
1163,154.61795536127224
1166,0.0
1168,0.0
2,2, 1, 7, 0, 8, 0.00,60.00,Tuesday
7,6.1
545,19.673874486429053
546,5.932415506556825
547,18.415865340526707
548,31.63147422429427
720,1033.7623608125596
721,1033.7623608125596
784,0.0
785,0.0
848,0.0
849,0.0
1121,1345.8829156482657
1135,372.40727798448745
1161,0.0
1163,155.75769269705748
1166,0.0
1168,0.0
2,2, 1, 7, 0, 9, 0.00,60.00,Tuesday
7,7.8
545,19.721723763947395
546,8.39829041293595
547,18.33826468869069
548,18.26916289312092
720,595.2301938904511
721,595.2301938904511
784,0.0
785,0.0
848,0.0
849,0.0
1121,802.7266443165172
1135,219.03326367452394
1161,0.0
1163,174.44728901493357
1166,0.0
1168,0.0
2,2, 1, 7, 0,10, 0.00,60.00,Tuesday
7,8.9
545,19.647838543555306
546,10.858512443846156
547,18.272187191004843
548,0.0
720,-10.279858108198823
721,-10.279858108198823
784,0.0
785,0.0
848,0.0
849,0.0
1121,0.0
1135,0.0
1161,0.0
1163,200.0
1166,0.0
1168,0.0
2,2, 1, 7, 0,11, 0.00,60.00,Tuesday
7,11.1
545,20.69364732039957
546,14.925678355687378
547,18.23269314316951
548,0.0
720,-762.0947779020444
721,-762.0947779020444
784,0.0
785,0.0
848,0.0
849,0.0
1121,0.0
1135,0.0
1161,0.0
1163,0.0
1166,0.0
1168,0.0
2,2, 1, 7, 0,12, 0.00,60.00,Tuesday
7,12.8
545,21.660517767087377
546,18.94787109866066
547,18.2213045475151
548,0.0
720,-1413.3818133055138
721,-1413.3818133055138
784,0.0
785,0.0
848,0.0
849,0.0
1121,0.0
1135,0.0
1161,0.0
1163,0.0
1166,0.0
1168,0.0
2,2, 1, 7, 0,13, 0.00,60.00,Tuesday
7,11.7
545,21.310310875404056
546,17.181141201317104
547,18.231521358076037
548,0.0
720,-1218.9294047715903
721,-1218.9294047715903
784,0.0
785,0.0
848,0.0
849,0.0
1121,0.0
1135,0.0
1161,0.0
1163,0.0
1166,0.0
1168,0.0
2,2, 1, 7, 0,14, 0.00,60.00,Tuesday
7,12.2
545,22.385837078900895
546,17.8765103925633
547,18.26474855282709
548,0.0
720,-2392.720867652546
721,-2392.720867652546
784,0.0
785,0.0
848,0.0
849,0.0
1121,0.0
1135,0.0
1161,0.0
1163,0.0
1166,0.0
1168,0.0
2,2, 1, 7, 0,15, 0.00,60.00,Tuesday
7,12.2
545,23.36779435100097
546,18.045142310879722
547,18.3176968587783
548,0.0
720,-3010.9468883662885
721,-3010.9468883662885
784,0.0
785,0.0
848,0.0
849,0.0
1121,0.0
1135,0.0
1161,0.0
1163,0.0
1166,0.0
1168,0.0
2,2, 1, 7, 0,16, 0.00,60.00,Tuesday
7,11.7
545,23.80436725576695
546,16.435543746535586
547,18.38868078116508
548,0.0
720,-3423.487820671431
721,-3423.487820671431
784,0.0
785,0.0
848,0.0
849,0.0
1121,0.0
1135,0.0
1161,0.0
1163,0.0
1166,0.0
1168,0.0
2,2, 1, 7, 0,17, 0.00,60.00,Tuesday
7,10.6
545,24.148133842761368
546,14.43883699419403
547,18.4713456197849
548,0.0
720,-4091.0741384310986
721,-4091.0741384310986
784,0.0
785,0.0
848,0.0
849,0.0
1121,0.0
1135,0.0
1161,0.0
1163,0.0
1166,0.0
1168,0.0
2,2, 1, 7, 0,18, 0.00,60.00,Tuesday
7,8.3
545,23.45342766046314
546,11.60065754728181
547,18.551121348430037
548,0.0
720,-3431.6468340985302
721,-3431.6468340985302
784,0.0
785,0.0
848,0.0
849,0.0
1121,0.0
1135,0.0
1161,0.0
1163,200.0
1166,0.0
1168,0.0
2,2, 1, 7, 0,19, 0.00,60.00,Tuesday
7,6.7
545,22.420021901204308
546,9.330733882904862
547,18.59840233834716
548,0.0
720,-2591.8365577520217
721,-2591.8365577520217
784,0.0
785,0.0
848,0.0
849,0.0
1121,0.0
1135,0.0
1161,0.0
1163,200.0
1166,0.0
1168,0.0
2,2, 1, 7, 0,20, 0.00,60.00,Tuesday
7,5.0
545,21.745914510310154
546,7.436369409721267
547,18.611479458731615
548,0.0
720,-2125.7195569006544
721,-2125.7195569006544
784,0.0
785,0.0
848,0.0
849,0.0
1121,0.0
1135,0.0
1161,0.0
1163,200.0
1166,0.0
1168,0.0
2,2, 1, 7, 0,21, 0.00,60.00,Tuesday
7,3.9
545,21.420658281659417
546,5.990964702523034
547,18.594565265143213
548,0.0
720,-1740.2227302366482
721,-1740.2227302366482
784,0.0
785,0.0
848,0.0
849,0.0
1121,0.0
1135,0.0
1161,0.0
1163,200.0
1166,0.0
1168,0.0
2,2, 1, 7, 0,22, 0.00,60.00,Tuesday
7,2.2
545,20.38098772570347
546,4.5143505705513745
547,18.54734043543794
548,0.0
720,-648.8672427407146
721,-648.8672427407146
784,0.0
785,0.0
848,0.0
849,0.0
1121,0.0
1135,0.0
1161,0.0
1163,200.0
1166,0.0
1168,0.0
2,2, 1, 7, 0,23, 0.00,60.00,Tuesday
7,0.6
545,19.25763887939772
546,2.6818532679326164
547,18.474390682777905
548,0.0
720,-664.599269495111
721,-664.599269495111
784,0.0
785,0.0
848,0.0
849,0.0
1121,0.0
1135,0.0
1161,0.0
1163,200.0
1166,0.0
1168,0.0
2,2, 1, 7, 0,24, 0.00,60.00,Tuesday
7,-1.1
545,19.52151592307178
546,1.9879250784023998
547,18.317337880837986
548,71.60358011113392
720,477.24435436940985
721,477.24435436940985
784,0.0
785,0.0
848,0.0
849,0.0
1121,2280.821284664521
1135,745.4411049019666
1161,0.03657796551802803
1163,99.84868760079752
1166,0.0
1168,0.0
2,3, 1, 8, 0, 1, 0.00,60.00,Wednesday
7,-2.2
545,18.964323869511503
546,0.9293988889023709
547,18.220202712603058
548,79.73150841429755
720,1484.2936461956124
721,1484.2936461956124
784,0.0
785,0.0
848,0.0
849,0.0
1121,2476.5690187576433
1135,826.4089716378948
1161,0.040730092133686634
1163,88.48006925593867
1166,0.0
1168,0.0
2,3, 1, 8, 0, 2, 0.00,60.00,Wednesday
7,-3.3
545,18.844320457165498
546,-0.3270645124611549
547,18.076409582541928
548,90.109709617254
720,1880.4424605329586
721,1880.4424605329586
784,0.0
785,0.0
848,0.0
849,0.0
1121,2745.193822788274
1135,915.0997049475905
1161,0.04603176440424157
1163,73.96396842072848
1166,0.0
1168,0.0
2,3, 1, 8, 0, 3, 0.00,60.00,Wednesday
7,-4.4
545,18.697885654176357
546,-0.6534941430729636
547,17.94409688957378
548,101.96804637001088
720,2103.216124857804
721,2103.216124857804
784,0.0
785,0.0
848,0.0
849,0.0
1121,3042.68679912695
1135,1023.3754702268992
1161,0.05208957285264546
1163,57.37754930806334
1166,0.0
1168,0.0
2,3, 1, 8, 0, 4, 0.00,60.00,Wednesday
7,-5.0
545,18.409906427892594
546,-1.165461138970378
547,17.76992815410601
548,133.73425160331348
720,2823.4413443452177
721,2823.4413443452177
784,0.0
785,0.0
848,0.0
849,0.0
1121,4032.772633373078
1135,1331.2257791065072
1161,0.06831714768943918
1163,12.946075497412156
1166,0.0
1168,0.0
2,3, 1, 8, 0, 5, 0.00,60.00,Wednesday
7,-5.6
545,18.514666774179137
546,-1.4519698466723143
547,17.622162580598076
548,142.99197375807066
720,3096.0695541648765
721,3096.0695541648765
784,0.0
785,0.0
848,0.0
849,0.0
1121,4278.711206886451
1135,1407.964924658529
1161,0.07304540428232932
1163,0.0
1166,225.02594785253314
1168,225.02594785253314
2,3, 1, 8, 0, 6, 0.00,60.00,Wednesday
7,-6.7
545,19.29627121386123
546,-1.9068258312858204
547,17.485236159888736
548,142.99197375807066
720,4373.410922014589
721,4373.410922014589
784,0.0
785,0.0
848,0.0
849,0.0
1121,4141.053887788418
1135,1397.6639154923837
1161,0.07304540428232932
1163,0.0
1166,1893.1625944148082
1168,1893.1625944148082
2,3, 1, 8, 0, 7, 0.00,60.00,Wednesday
7,-7.2
545,19.574952446486343
546,-2.2332360597883656
547,17.38476282961537
548,142.99197375807066
720,4331.348513288936
721,4331.348513288936
784,0.0
785,0.0
848,0.0
849,0.0
1121,4062.0089675240574
1135,1412.7182565687633
1161,0.07304540428232932
1163,0.0
1166,2039.4518115409874
1168,2039.4518115409874
2,3, 1, 8, 0, 8, 0.00,60.00,Wednesday
7,-6.1
545,19.662736614932587
546,-1.9594223685264929
547,17.263888448493198
548,142.99197375807066
720,4322.852813302561
721,4322.852813302561
784,0.0
785,0.0
848,0.0
849,0.0
1121,4189.582430628479
1135,1433.6107771451482
1161,0.07304540428232932
1163,0.0
1166,1961.460119362875
1168,1961.460119362875
2,3, 1, 8, 0, 9, 0.00,60.00,Wednesday
7,-4.4
545,19.723677756008428
546,-0.048055898563224377
547,17.156443227904816
548,142.99197375807066
720,3122.659038579157
721,3122.659038579157
784,0.0
785,0.0
848,0.0
849,0.0
1121,4399.628924234563
1135,1456.7410243606957
1161,0.07304540428232932
1163,0.0
1166,367.3700823110703
1168,367.3700823110703
2,3, 1, 8, 0,10, 0.00,60.00,Wednesday
7,-3.3
545,19.972705160014872
546,3.7673950356460795
547,17.075714716822606
548,92.75974575998272
720,1707.0233934605858
721,1707.0233934605858
784,0.0
785,0.0
848,0.0
849,0.0
1121,2821.4718868446876
1135,955.1354609260735
1161,0.047385514383209384
1163,70.25736978589742
1166,0.0
1168,0.0
2,3, 1, 8, 0,11, 0.00,60.00,Wednesday
7,-1.7
545,20.206351439273284
546,13.444745089176552
547,17.0168595998299
548,28.977318385899483
720,418.1523003744187
721,418.1523003744187
784,0.0
785,0.0
848,0.0
849,0.0
1121,874.4206216052686
1135,304.0234183141632
1161,0.014802781766474177
1163,159.46964244523957
1166,0.0
1168,0.0
2,3, 1, 8, 0,12, 0.00,60.00,Wednesday
7,-1.1
545,20.001932842203733
546,19.36603366266913
547,16.973763792150976
548,0.0
720,-249.0591515171982
721,-249.0591515171982
784,0.0
785,0.0
848,0.0
849,0.0
1121,0.0
1135,0.0
1161,0.0
1163,200.0
1166,0.0
1168,0.0
2,3, 1, 8, 0,13, 0.00,60.00,Wednesday
7,0.0
545,20.226542399569542
546,18.616340597214275
547,16.963698355510658
548,0.0
720,-411.35602261458916
721,-411.35602261458916
784,0.0
785,0.0
848,0.0
849,0.0
1121,0.0
1135,0.0
1161,0.0
1163,200.0
1166,0.0
1168,0.0
2,3, 1, 8, 0,14, 0.00,60.00,Wednesday
7,0.0
545,20.614085510376803
546,18.180706760952447
547,16.980431466420754
548,0.0
720,-758.7865540355688
721,-758.7865540355688
784,0.0
785,0.0
848,0.0
849,0.0
1121,0.0
1135,0.0
1161,0.0
1163,200.0
1166,0.0
1168,0.0
2,3, 1, 8, 0,15, 0.00,60.00,Wednesday
7,1.1
545,21.081426983567294
546,17.339261706005924
547,17.015230715126503
548,0.0
720,-1167.2049162290768
721,-1167.2049162290768
784,0.0
785,0.0
848,0.0
849,0.0
1121,0.0
1135,0.0
1161,0.0
1163,200.0
1166,0.0
1168,0.0
2,3, 1, 8, 0,16, 0.00,60.00,Wednesday
7,2.8
545,20.819646550811797
546,13.390523327289975
547,17.05637977686969
548,0.0
720,-901.5702670993978
721,-901.5702670993978
784,0.0
785,0.0
848,0.0
849,0.0
1121,0.0
1135,0.0
1161,0.0
1163,200.0
1166,0.0
1168,0.0
2,3, 1, 8, 0,17, 0.00,60.00,Wednesday
7,2.8
545,20.503943072512754
546,10.14358872268378
547,17.095184682102346
548,0.0
720,-661.9784230152472
721,-661.9784230152472
784,0.0
785,0.0
848,0.0
849,0.0
1121,0.0
1135,0.0
1161,0.0
1163,200.0
1166,0.0
1168,0.0
2,3, 1, 8, 0,18, 0.00,60.00,Wednesday
7,2.0
545,20.340421758710956
546,7.385010576520007
547,17.130355048755835
548,0.0
720,-508.3217722892314
721,-508.3217722892314
784,0.0
785,0.0
848,0.0
849,0.0
1121,0.0
1135,0.0
1161,0.0
1163,200.0
1166,0.0
1168,0.0
2,3, 1, 8, 0,19, 0.00,60.00,Wednesday
7,1.1
545,20.310039769867156
546,4.610625557334088
547,17.14326673780119
548,0.0
720,-463.97924106161736
721,-463.97924106161736
784,0.0
785,0.0
848,0.0
849,0.0
1121,0.0
1135,0.0
1161,0.0
1163,200.0
1166,0.0
1168,0.0
2,3, 1, 8, 0,20, 0.00,60.00,Wednesday
7,1.1
545,20.237367122294046
546,3.003372985761554
547,17.136219647947115
548,0.0
720,-385.0318108491647
721,-385.0318108491647
784,0.0
785,0.0
848,0.0
849,0.0
1121,0.0
1135,0.0
1161,0.0
1163,200.0
1166,0.0
1168,0.0
2,3, 1, 8, 0,21, 0.00,60.00,Wednesday
7,2.2
545,20.062789030350338
546,2.67887901802728
547,17.112798338699363
548,0.0
720,-243.0251003088997
721,-243.0251003088997
784,0.0
785,0.0
848,0.0
849,0.0
1121,0.0
1135,0.0
1161,0.0
1163,200.0
1166,0.0
1168,0.0
2,3, 1, 8, 0,22, 0.00,60.00,Wednesday
7,2.8
545,19.729967269892736
546,2.8441133627375086
547,17.08070458087328
548,0.0
720,-5.358428074872791
721,-5.358428074872791
784,0.0
785,0.0
848,0.0
849,0.0
1121,0.0
1135,0.0
1161,0.0
1163,200.0
1166,0.0
1168,0.0
2,3, 1, 8, 0,23, 0.00,60.00,Wednesday
7,2.8
545,19.029949164063638
546,2.9311639270250227
547,17.038937976020804
548,0.0
720,-283.39990954885616
721,-283.39990954885616
784,0.0
785,0.0
848,0.0
849,0.0
1121,0.0
1135,0.0
1161,0.0
1163,200.0
1166,0.0
1168,0.0
2,3, 1, 8, 0,24, 0.00,60.00,Wednesday
7,2.2
545,18.69808117898769
546,3.177414181547357
547,16.989130918273602
548,17.219658208665944
720,349.3568067838387
721,349.3568067838387
784,0.0
785,0.0
848,0.0
849,0.0
1121,570.0132973629707
1135,182.10669034473182
1161,1.1002858602816281
1163,175.9014363438071
1166,0.0
1168,0.0
2,4, 1, 9, 0, 1, 0.00,60.00,Thursday
7,2.2
545,18.65208745925783
546,3.231600589671966
547,16.932484059466493
548,29.220219226868725
720,727.4216960202893
721,727.4216960202893
784,0.0
785,0.0
848,0.0
849,0.0
1121,972.1279774233192
1135,305.29078578949975
1161,3.14470721126719
1163,159.0907421910935
1166,0.0
1168,0.0
2,4, 1, 9, 0, 2, 0.00,60.00,Thursday
7,2.8
545,18.654497886923195
546,3.445340070872009
547,16.87164428874677
548,38.76829100078646
720,986.3069776683078
721,986.3069776683078
784,0.0
785,0.0
848,0.0
849,0.0
1121,1303.4688068220426
1135,401.91745962834835
1161,7.833011919178892
1163,145.68919555742988
1166,0.0
1168,0.0
2,4, 1, 9, 0, 3, 0.00,60.00,Thursday
7,2.2
545,18.478253833191012
546,3.620056192620752
547,16.80350109733796
548,50.15308847775226
720,1258.838402897156
721,1258.838402897156
784,0.0
785,0.0
848,0.0
849,0.0
1121,1666.4310844172678
1135,514.6224667010986
1161,12.00339070404883
1163,129.69847335791033
1166,0.0
1168,0.0
2,4, 1, 9, 0, 4, 0.00,60.00,Thursday
7,2.8
545,18.562189437783505
546,3.652247426036875
547,16.73720218977524
548,61.09103950953452
720,1575.6676846224382
721,1575.6676846224382
784,0.0
785,0.0
848,0.0
849,0.0
1121,2080.1397341261018
1135,627.4382784572387
1161,15.031720798607822
1163,114.3866201018563
1166,0.0
1168,0.0
2,4, 1, 9, 0, 5, 0.00,60.00,Thursday
7,2.8
545,18.596589352997867
546,3.8746012219987183
547,16.67466698287741
548,63.248505972545765
720,1611.846496138951
721,1611.846496138951
784,0.0
785,0.0
848,0.0
849,0.0
1121,2155.500870565575
1135,650.297584912971
1161,15.78817556466122
1163,111.36048621552916
1166,0.0
1168,0.0
2,4, 1, 9, 0, 6, 0.00,60.00,Thursday
7,2.8
545,19.236765282647234
546,4.754282567369148
547,16.605570166253205
548,99.31212932033056
720,2641.4310635489255
721,2641.4310635489255
784,0.0
785,0.0
848,0.0
849,0.0
1121,3454.127115323155
1135,1012.6485621056933
1161,31.351020695064644
1163,60.743344459314756
1166,0.0
1168,0.0
2,4, 1, 9, 0, 7, 0.00,60.00,Thursday
7,2.8
545,19.55141671049831
546,5.109592490374866
547,16.56905184676998
548,105.48009329749466
720,2750.382809820543
721,2750.382809820543
784,0.0
785,0.0
848,0.0
849,0.0
1121,3679.2887595908364
1135,1089.4975155163247
1161,32.79590820762824
1163,52.09932627298579
1166,0.0
1168,0.0
2,4, 1, 9, 0, 8, 0.00,60.00,Thursday
7,3.3
545,19.693498268956905
546,5.6096219426219145
547,16.520023860294327
548,96.30611828332819
720,2522.4395163114386
721,2522.4395163114386
784,0.0
785,0.0
848,0.0
849,0.0
1121,3420.7368374439297
1135,1018.9294198080299
1161,20.114373634718785
1163,65.10341080583572
1166,0.0
1168,0.0
2,4, 1, 9, 0, 9, 0.00,60.00,Thursday
7,5.6
545,19.88076502790151
546,7.134931039337679
547,16.46761921627692
548,60.627475329017
720,1929.4049158077323
721,1929.4049158077323
784,0.0
785,0.0
848,0.0
849,0.0
1121,2607.8449910871427
1135,708.7839769727303
1161,0.0
1163,115.20156868161963
1166,0.0
1168,0.0
2,4, 1, 9, 0,10, 0.00,60.00,Thursday
7,5.0
545,19.629017446786783
546,7.972583534186245
547,16.421261988704106
548,56.306353191480405
720,1540.488043214733
721,1540.488043214733
784,0.0
785,0.0
848,0.0
849,0.0
1121,2077.8989588276163
1135,626.3339843189972
1161,0.028763348924347818
1163,121.24528789470726
1166,0.0
1168,0.0
2,4, 1, 9, 0,11, 0.00,60.00,Thursday
7,5.6
545,19.89280861711601
546,8.917319209279299
547,16.378434284550607
548,43.07117413111554
720,1397.7066409552444
721,1397.7066409552444
784,0.0
785,0.0
848,0.0
849,0.0
1121,1827.3235468481018
1135,502.914445810018
1161,0.0
1163,139.7572143398929
1166,0.0
1168,0.0
2,4, 1, 9, 0,12, 0.00,60.00,Thursday
7,5.6
545,19.840004836162734
546,9.49881999224334
547,16.35517849372689
548,32.627297060034806
720,1048.6103951439836
721,1048.6103951439836
784,0.0
785,0.0
848,0.0
849,0.0
1121,1371.2177065791752
1135,382.88183509010344
1161,0.0
1163,154.36485530965928
1166,0.0
1168,0.0
2,4, 1, 9, 0,13, 0.00,60.00,Thursday
7,6.1
545,19.87080858096703
546,10.795192765167933
547,16.33927319276417
548,24.425090623748364
720,796.0162892919434
721,796.0162892919434
784,0.0
785,0.0
848,0.0
849,0.0
1121,1033.1638623923295
1135,287.8317323503106
1161,0.0
1163,165.83711661316966
1166,0.0
1168,0.0
2,4, 1, 9, 0,14, 0.00,60.00,Thursday
7,5.6
545,19.778992370818873
546,11.445597316120516
547,16.331368946288404
548,17.054477649816782
720,547.8799126294998
721,547.8799126294998
784,0.0
785,0.0
848,0.0
849,0.0
1121,708.103384470412
1135,200.06162614116502
1161,0.0
1163,176.14624485333505
1166,0.0
1168,0.0
2,4, 1, 9, 0,15, 0.00,60.00,Thursday
7,3.9
545,19.509531848779645
546,10.635616529527464
547,16.33410592436802
548,19.662681478176232
720,538.4084602512157
721,538.4084602512157
784,0.0
785,0.0
848,0.0
849,0.0
1121,681.0736118477105
1135,214.64774668629815
1161,0.9356259228387179
1163,172.49078196713492
1166,0.0
1168,0.0
2,4, 1, 9, 0,16, 0.00,60.00,Thursday
7,2.8
545,19.502474252959086
546,9.050137192107949
547,16.345140736547418
548,34.38172639300809
720,893.059267537481
721,893.059267537481
784,0.0
785,0.0
848,0.0
849,0.0
1121,1110.1224917848913
1135,351.046489948237
1161,15.060916727168198
1163,151.73896379740052
1166,0.0
1168,0.0
2,4, 1, 9, 0,17, 0.00,60.00,Thursday
7,2.2
545,19.616740145950946
546,7.54040363422567
547,16.351447603537327
548,38.93886368443796
720,966.1764282531294
721,966.1764282531294
784,0.0
785,0.0
848,0.0
849,0.0
1121,1234.7263222678619
1135,393.338035889619
1161,18.687976128434652
1163,145.2895159758134
1166,0.0
1168,0.0
2,4, 1, 9, 0,18, 0.00,60.00,Thursday
7,2.2
545,19.922486390716227
546,6.393306915012074
547,16.353385902275903
548,38.85670943235598
720,929.8536470904673
721,929.8536470904673
784,0.0
785,0.0
848,0.0
849,0.0
1121,1221.0806494402905
1135,390.32599702323887
1161,20.919055592738076
1163,145.3725522744066
1166,0.0
1168,0.0
2,4, 1, 9, 0,19, 0.00,60.00,Thursday
7,2.2
545,19.610882251214186
546,5.035219499323198
547,16.34090565428601
548,30.616175556106423
720,696.7967298238873
721,696.7967298238873
784,0.0
785,0.0
848,0.0
849,0.0
1121,954.4703175050303
1135,309.4045591355317
1161,16.47674546313895
1163,156.957428386828
1166,0.0
1168,0.0
2,4, 1, 9, 0,20, 0.00,60.00,Thursday
7,2.2
545,19.780008380145457
546,4.319452959121615
547,16.319218741487575
548,34.18875228879277
720,815.7263768095945
721,815.7263768095945
784,0.0
785,0.0
848,0.0
849,0.0
1121,1098.1548517761612
1135,351.6790748443626
1161,12.275005119265943
1163,152.02082539004036
1166,0.0
1168,0.0
2,4, 1, 9, 0,21, 0.00,60.00,Thursday
7,2.2
545,19.91299165592126
546,3.951741339283832
547,16.293414195981036
548,31.658818195580935
720,728.3742020711543
721,728.3742020711543
784,0.0
785,0.0
848,0.0
849,0.0
1121,1005.3915714613129
1135,324.13016072331845
1161,13.28256462520012
1163,155.54472688522563
1166,0.0
1168,0.0
2,4, 1, 9, 0,22, 0.00,60.00,Thursday
7,1.7
545,19.59296128614072
546,3.4238877997067623
547,16.259003646027296
548,36.09715380575706
720,830.1550731865682
721,830.1550731865682
784,0.0
785,0.0
848,0.0
849,0.0
1121,1139.9090666568718
1135,370.6161467663176
1161,13.939866718299006
1163,149.30817760320906
1166,0.0
1168,0.0
2,4, 1, 9, 0,23, 0.00,60.00,Thursday
7,1.1
545,18.908751908964916
546,1.8934362986888236
547,16.207800191067946
548,22.047143391492387
720,460.63364146103413
721,460.63364146103413
784,0.0
785,0.0
848,0.0
849,0.0
1121,680.1711169144464
1135,224.3272117924376
1161,8.1633272747438
1163,169.02942483717908
1166,0.0
1168,0.0
2,4, 1, 9, 0,24, 0.00,60.00,Thursday
7,1.7
545,18.525994183378458
546,2.274643777626179
547,16.155808886075903
548,31.184360014325645
720,727.664624768282
721,727.664624768282
784,0.0
785,0.0
848,0.0
849,0.0
1121,993.9030873227481
1135,316.37075244995316
1161,10.201719497622646
1163,156.23601160229535
1166,0.0
1168,0.0
2,5, 1,10, 0, 1, 0.00,60.00,Friday
7,1.7
545,18.334398863149392
546,2.59142247888466
547,16.09398519585517
548,52.694692053440164
720,1300.618399690169
721,1300.618399690169
784,0.0
785,0.0
848,0.0
849,0.0
1121,1726.0279895783094
1135,534.6577349164619
1161,14.095054002799898
1163,126.09575766788295
1166,0.0
1168,0.0
2,5, 1,10, 0, 2, 0.00,60.00,Friday
7,1.1
545,18.427193791359723
546,2.505391290878639
547,16.025521251251206