Program Version,EnergyPlus, Version 22.2.0-c249759bad, YMD=2023.09.01 14:30
1,5,Environment Title[],Latitude[deg],Longitude[deg],Time Zone[],Elevation[m]
2,8,Day of Simulation[],Month[],Day of Month[],DST Indicator[1=yes 0=no],Hour[],StartMinute[],EndMinute[],DayType
3,5,Cumulative Day of Simulation[],Month[],Day of Month[],DST Indicator[1=yes 0=no],DayType  ! When Daily Report Variables Requested
4,2,Cumulative Days of Simulation[],Month[]  ! When Monthly Report Variables Requested
5,1,Cumulative Days of Simulation[] ! When Run Period Report Variables Requested
6,1,Calendar Year of Simulation[] ! When Annual Report Variables Requested
7,1,Environment,Site Outdoor Air Drybulb Temperature [C] !Hourly
619,1,DX_HEATING_COIL,Heating Coil Heating Rate [W] !Hourly
633,1,DX_HEATING_COIL,Heating Coil Electricity Rate [W] !Hourly
659,1,DX_HEATING_COIL,Heating Coil Defrost Electricity Rate [W] !Hourly
661,1,DX_HEATING_COIL,Heating Coil Crankcase Heater Electricity Rate [W] !Hourly
690,1,FAN,Fan Electricity Rate [W] !Hourly
716,1,HEAT PUMP WATER HEATER FAN,Fan Electricity Rate [W] !Hourly
718,1,LIVING,Zone Mean Air Temperature [C] !Hourly
719,1,ATTIC,Zone Mean Air Temperature [C] !Hourly
720,1,CRAWLSPACE,Zone Mean Air Temperature [C] !Hourly
843,1,LIVING,Zone Predicted Sensible Load to Heating Setpoint Heat Transfer Rate [W] !Hourly
844,1,LIVING,Zone System Predicted Sensible Load to Heating Setpoint Heat Transfer Rate [W] !Hourly
907,1,ATTIC,Zone Predicted Sensible Load to Heating Setpoint Heat Transfer Rate [W] !Hourly
908,1,ATTIC,Zone System Predicted Sensible Load to Heating Setpoint Heat Transfer Rate [W] !Hourly
971,1,CRAWLSPACE,Zone Predicted Sensible Load to Heating Setpoint Heat Transfer Rate [W] !Hourly
972,1,CRAWLSPACE,Zone System Predicted Sensible Load to Heating Setpoint Heat Transfer Rate [W] !Hourly
1195,1,HEATING_RESISTANCE_BACKUP,Heating Coil Heating Rate [W] !Hourly
1197,1,HEATING_RESISTANCE_BACKUP,Heating Coil Electricity Rate [W] !Hourly
End of Data Dictionary
1,EXTREME_WINTER,  43.52,-112.07,  -7.00,1441.40
2,1,12,15, 0, 1, 0.00,60.00,Monday
7,-16.0
718,18.62868662820357
719,-8.910139463679942
720,17.387071137304595
619,3627.6582485979998
633,1511.816270386601
659,3.7428016351795033
661,0.0
690,178.58860403485463
716,0.0
843,5921.715021868351
844,5921.715021868351
907,0.0
908,0.0
971,0.0
972,0.0
1195,4584.170161844491
1197,4584.170161844491
2,1,12,15, 0, 2, 0.00,60.00,Monday
7,-17.0
718,18.609764435200134
719,-9.777913155545136
720,16.8613106838299
619,3497.822627502751
633,1488.5803281107612
659,7.950653988805703
661,0.0
690,178.58860403485463
716,0.0
843,6058.882754510698
844,6058.882754510698
907,0.0
908,0.0
971,0.0
972,0.0
1195,4969.652730401426
1197,4969.652730401426
2,1,12,15, 0, 3, 0.00,60.00,Monday
7,-16.7
718,18.60076634000796
719,-9.400394105023123
720,16.635824005898932
619,3548.6455279884403
633,1498.2897618052364
659,3.0302777133418726
661,0.0
690,178.58860403485463
716,0.0
843,5988.876114918145
844,5988.876114918145
907,0.0
908,0.0
971,0.0
972,0.0
1195,4868.630646321106
1197,4868.630646321106
2,1,12,15, 0, 4, 0.00,60.00,Monday
7,-16.7
718,18.606492554612544
719,-9.42997520646492
720,16.355815804286255
619,3538.9241532590113
633,1493.4656174650925
659,6.610428028118707
661,0.0
690,178.58860403485463
716,0.0
843,5633.68628196966
844,5633.68628196966
907,0.0
908,0.0
971,0.0
972,0.0
1195,4445.828513491487
1197,4445.828513491487
2,1,12,15, 0, 5, 0.00,60.00,Monday
7,-16.7
718,18.60051968269626
719,-9.207939274709767
720,16.112775081219738
619,3539.1504470194564
633,1493.2632242014454
659,6.605948935515702
661,0.0
690,178.58860403485463
716,0.0
843,5674.346912780104
844,5674.346912780104
907,0.0
908,0.0
971,0.0
972,0.0
1195,4485.97941175437
1197,4485.97941175437
2,1,12,15, 0, 6, 0.00,60.00,Monday
7,-17.0
718,19.37379863263034
719,-8.93089744443192
720,15.877527615311804
619,3500.1746207469682
633,1486.308612093934
659,7.950653988805703
661,0.0
690,178.58860403485463
716,0.0
843,6686.362130780386
844,6686.362130780386
907,0.0
908,0.0
971,0.0
972,0.0
1195,5743.25268982982
1197,5743.25268982982
2,1,12,15, 0, 7, 0.00,60.00,Monday
7,-17.2
718,19.43124201685207
719,-8.829373502360315
720,15.688081107570788
619,3464.5354138283415
633,1505.5908367715158
659,5.1094149472958135
661,0.0
690,178.58860403485463
716,85.44000000000005
843,6510.001466560061
844,6510.001466560061
907,0.0
908,0.0
971,0.0
972,0.0
1195,6268.360989315353
1197,6268.360989315353
2,1,12,15, 0, 8, 0.00,60.00,Monday
7,-16.7
718,19.290670910226932
719,-9.55963090822471
720,15.476528027201523
619,3510.784985379924
633,1510.1765608810574
659,9.259975053094587
661,0.0
690,178.58860403485463
716,85.44000000000005
843,6770.12500920554
844,6770.12500920554
907,0.0
908,0.0
971,0.0
972,0.0
1195,6268.360989315353
1197,6268.360989315353
2,1,12,15, 0, 9, 0.00,60.00,Monday
7,-16.7
718,19.566584617289756
719,-9.488954022547807
720,15.279724041055248
619,3514.782235179374
633,1506.3406729302344
659,9.255483368526543
661,0.0
690,178.58860403485463
716,34.5053254423325
843,6339.137652217994
844,6339.137652217994
907,0.0
908,0.0
971,0.0
972,0.0
1195,5770.7255089341525
1197,5770.7255089341525
2,1,12,15, 0,10, 0.00,60.00,Monday
7,-16.1
718,19.6722182638191
719,-8.695782861865878
720,15.104560172331745
619,3595.7675266753895
633,1530.106001746608
659,3.6249767310758902
661,0.0
690,178.58860403485463
716,0.0
843,6436.250464274106
844,6436.250464274106
907,0.0
908,0.0
971,0.0
972,0.0
1195,5472.877917096153
1197,5472.877917096153
2,1,12,15, 0,11, 0.00,60.00,Monday
7,-16.1
718,19.69474552998448
719,-8.434768848277288
720,14.919471997453966
619,3585.035390085142
633,1529.1103785066543
659,6.448031687898508
661,0.0
690,178.58860403485463
716,0.0
843,6719.687597896695
844,6719.687597896695
907,0.0
908,0.0
971,0.0
972,0.0
1195,5779.4914598017795
1197,5779.4914598017795
2,1,12,15, 0,12, 0.00,60.00,Monday
7,-16.0
718,19.710968457806224
719,-8.004353689805033
720,14.74833182389341
619,3604.602861361138
633,1534.4726153639463
659,3.7428016351795033
661,0.0
690,178.58860403485463
716,0.0
843,6424.285902634423
844,6424.285902634423
907,0.0
908,0.0
971,0.0
972,0.0
1195,5417.839421653194
1197,5417.839421653194
2,1,12,15, 0,13, 0.00,60.00,Monday
7,-15.0
718,19.71209432381625
719,-7.1404827863560865
720,14.593940289612375
619,3701.1416179648986
633,1540.6943973419866
659,12.184719783111246
661,0.0
690,178.58860403485463
716,0.0
843,5754.1437795905
844,5754.1437795905
907,0.0
908,0.0
971,0.0
972,0.0
1195,4472.130092876327
1197,4472.130092876327
2,1,12,15, 0,14, 0.00,60.00,Monday
7,-14.0
718,19.70692326199316
719,-4.572013077491569
720,14.448335282282605
619,3839.9588080961194
633,1562.7084269680333
659,7.350360149794748
661,0.0
690,178.58860403485463
716,85.44000000000005
843,4847.295897688431
844,4847.295897688431
907,0.0
908,0.0
971,0.0
972,0.0
1195,4175.122284406047
1197,4175.122284406047
2,1,12,15, 0,15, 0.00,60.00,Monday
7,-14.0
718,19.713805682153023
719,-4.124512265329884
720,14.306001990902361
619,3819.119031554409
633,1553.7421261425206
659,14.171456456546608
661,0.0
690,178.58860403485463
716,7.749151962670734
843,4783.013483070583
844,4783.013483070583
907,0.0
908,0.0
971,0.0
972,0.0
1195,3092.727379946257
1197,3092.727379946257
2,1,12,15, 0,16, 0.00,60.00,Monday
7,-14.0
718,19.718345319318065
719,-3.6934211916772792
720,14.177954384838651
619,3794.7086356039085
633,1543.790909163864
659,22.037104503808457
661,0.0
690,178.58860403485463
716,0.0
843,4700.793993245034
844,4700.793993245034
907,0.0
908,0.0
971,0.0
972,0.0
1195,2921.3306533984673
1197,2921.3306533984673
2,1,12,15, 0,17, 0.00,60.00,Monday
7,-14.0
718,19.71691897045113
719,-3.8206493396391914
720,14.05791271693013
619,3794.7648849583597
633,1543.7333452930197
659,22.037104503808457
661,0.0
690,178.58860403485463
716,0.0
843,4415.408786869961
844,4415.408786869961
907,0.0
908,0.0
971,0.0
972,0.0
1195,2550.629729877284
1197,2550.629729877284
2,1,12,15, 0,18, 0.00,60.00,Monday
7,-14.0
718,19.71838388637378
719,-5.071486320664178
720,13.943197051414076
619,3794.9788280036178
633,1543.5143911740322
659,22.037104503808457
661,0.0
690,178.58860403485463
716,0.0
843,4400.872143635666
844,4400.872143635666
907,0.0
908,0.0
971,0.0
972,0.0
1195,2554.4921033164746
1197,2554.4921033164746
2,1,12,15, 0,19, 0.00,60.00,Monday
7,-13.0
718,19.712713613742515
719,-5.331252707577591
720,13.841057623974471
619,3910.7221455281006
633,1555.223639343618
659,24.960823551632057
661,0.0
690,178.58860403485463
716,85.44000000000005
843,4124.652321884627
844,4124.652321884627
907,0.0
908,0.0
971,0.0
972,0.0
1195,3224.778865532506
1197,3224.778865532506
2,1,12,15, 0,20, 0.00,60.00,Monday
7,-12.8
718,19.705338900559042
719,-5.462485259859132
720,13.733783393656921
619,3930.762237154224
633,1555.8026491944875
659,26.6587528803182
661,0.0
690,178.58860403485463
716,85.44000000000005
843,3993.262674471871
844,3993.262674471871
907,0.0
908,0.0
971,0.0
972,0.0
1195,3123.538653410794
1197,3123.538653410794
2,1,12,15, 0,21, 0.00,60.00,Monday
7,-13.0
718,19.709758536588758
719,-5.543081891335106
720,13.625939448878196
619,3911.3677928551306
633,1554.5490780796067
659,24.960823551632057
661,0.0
690,178.58860403485463
716,75.36220189177403
843,4026.2262122533684
844,4026.2262122533684
907,0.0
908,0.0
971,0.0
972,0.0
1195,3014.2322336375187
1197,3014.2322336375187
2,1,12,15, 0,22, 0.00,60.00,Monday
7,-13.0
718,19.718867392424656
719,-5.92253863737632
720,13.520582698728125
619,3911.4088247821082
633,1554.506203750933
659,24.960823551632057
661,0.0
690,178.58860403485463
716,0.0
843,4314.309015521734
844,4314.309015521734
907,0.0
908,0.0
971,0.0
972,0.0
1195,2443.9563833336656
1197,2443.9563833336656
2,1,12,15, 0,23, 0.00,60.00,Monday
7,-15.0
718,18.95397270144495
719,-7.011608456669015
720,13.399298206235386
619,3678.3682445423588
633,1529.0725788130794
659,20.26758759732314
661,0.0
690,178.58860403485463
716,0.0
843,3820.6561404563054
844,3820.6561404563054
907,0.0
908,0.0
971,0.0
972,0.0
1195,2108.9151759387614
1197,2108.9151759387614
2,1,12,15, 0,24, 0.00,60.00,Monday
7,-15.0
718,18.71995488420529
719,-7.115748299202603
720,13.262624635714083
619,3698.6461790675185
633,1508.6521420546126
659,20.27349521217882
661,0.0
690,178.58860403485463
716,0.0
843,4089.705360748607
844,4089.705360748607
907,0.0
908,0.0
971,0.0
972,0.0
1195,2414.0372656677728
1197,2414.0372656677728
2,2,12,16, 0, 1, 0.00,60.00,Tuesday
7,-16.7
718,18.63610342324758
719,-7.84277779903978
720,13.130614810957258
619,3512.8090758153166
633,1480.4943510743658
659,16.230804580713833
661,0.0
690,178.58860403485463
716,0.0
843,4848.369107731889
844,4848.369107731889
907,0.0
908,0.0
971,0.0
972,0.0
1195,3482.678114110307
1197,3482.678114110307
2,2,12,16, 0, 2, 0.00,60.00,Tuesday
7,-17.2
718,18.611905908188845
719,-8.532004388552446
720,13.007446710783837
619,3459.303686851076
633,1471.418012354365
659,15.176540982612657
661,0.0
690,178.58860403485463
716,0.0
843,5318.763658314807
844,5318.763658314807
907,0.0
908,0.0
971,0.0
972,0.0
1195,4148.88962706802
1197,4148.88962706802
2,2,12,16, 0, 3, 0.00,60.00,Tuesday
7,-16.7
718,18.603427489238967
719,-8.608802724775042
720,12.891764111140454
619,3515.9228363402453
633,1477.4272533237413
659,16.238788036280944
661,0.0
690,178.58860403485463
716,0.0
843,5267.403729003072
844,5267.403729003072
907,0.0
908,0.0
971,0.0
972,0.0
1195,4052.015516419623
1197,4052.015516419623
2,2,12,16, 0, 4, 0.00,60.00,Tuesday
7,-18.9
718,18.600492626541534
719,-9.60207434270212
720,12.75066307064293
619,3275.103992430173
633,1446.8075291949335
659,11.25132792336217
661,0.0
690,178.58860403485463
716,0.0
843,5875.3275776095215
844,5875.3275776095215
907,0.0
908,0.0
971,0.0
972,0.0
1195,5044.669718003682
1197,5044.669718003682
2,2,12,16, 0, 5, 0.00,60.00,Tuesday
7,-18.3
718,18.59967001585324
719,-9.661058603517574
720,12.638709329618539
619,3332.9348999211243
633,1451.8750269010366
659,15.296235380882061
661,0.0
690,178.58860403485463
716,0.0
843,5572.001738363204
844,5572.001738363204
907,0.0
908,0.0
971,0.0
972,0.0
1195,4661.823309918085
1197,4661.823309918085
2,2,12,16, 0, 6, 0.00,60.00,Tuesday
7,-13.9
718,19.377423043544905
719,-8.43319548261644
720,12.54818840936656
619,3817.378941602366
633,1504.1805257837989
659,28.866601029766464
661,0.0
690,178.58860403485463
716,0.0
843,6222.189827173326
844,6222.189827173326
907,0.0
908,0.0
971,0.0
972,0.0
1195,4977.595285361328
1197,4977.595285361328
2,2,12,16, 0, 7, 0.00,60.00,Tuesday
7,-14.4
718,19.57862731688027
719,-7.543964776734854
720,12.455135481491968
619,3757.2436774586727
633,1526.0699840052164
659,21.8803058444596
661,0.0
690,178.58860403485463
716,85.44000000000005
843,6170.080198477197
844,6170.080198477197
907,0.0
908,0.0
971,0.0
972,0.0
1195,5949.456262999118
1197,5949.456262999118
2,2,12,16, 0, 8, 0.00,60.00,Tuesday
7,-17.2
718,19.6526883353867
719,-7.744943501521011
720,12.33131689063687
619,3435.759793708193
633,1493.9914077045826
659,15.16622970254366
661,0.0
690,178.58860403485463
716,85.44000000000005
843,6004.739959118067
844,6004.739959118067
907,0.0
908,0.0
971,0.0
972,0.0
1195,6166.812608140644
1197,6166.812608140644
2,2,12,16, 0, 9, 0.00,60.00,Tuesday
7,-16.7
718,19.683731391407886
719,-8.232809208568808
720,12.23703830630011
619,3489.800695729717
633,1502.7977456577112
659,16.224537370362153
661,0.0
690,178.58860403485463
716,85.44000000000005
843,6077.603447862126
844,6077.603447862126
907,0.0
908,0.0
971,0.0
972,0.0
1195,6212.071113433665
1197,6212.071113433665
2,2,12,16, 0,10, 0.00,60.00,Tuesday
7,-14.4
718,19.701237767135144
719,-7.626115204850352
720,12.150878908965929
619,3749.613307595327
633,1533.8538461248609
659,21.875975524300483
661,0.0
690,178.58860403485463
716,50.82055386175487
843,5859.736519000266
844,5859.736519000266
907,0.0
908,0.0
971,0.0
972,0.0
1195,5227.356516502781
1197,5227.356516502781
2,2,12,16, 0,11, 0.00,60.00,Tuesday
7,-10.6
718,19.713341509451602
719,-5.957129254293746
720,12.080733456035876
619,4220.333686603278
633,1587.093557978514
659,25.604205523571203
661,0.0
690,178.58860403485463
716,0.0
843,5036.8425909268335
844,5036.8425909268335
907,0.0
908,0.0
971,0.0
972,0.0
1195,3136.368139143544
1197,3136.368139143544
2,2,12,16, 0,12, 0.00,60.00,Tuesday
7,-9.4
718,19.721815759411736
719,-3.3822448602562574
720,11.995331616309052
619,4370.643418846427
633,1601.5167784192718
659,28.058848058313792
661,0.0
690,178.58860403485463
716,0.0
843,4461.325825912891
844,4461.325825912891
907,0.0
908,0.0
971,0.0
972,0.0
1195,2219.1750142783785
1197,2219.1750142783785
2,2,12,16, 0,13, 0.00,60.00,Tuesday
7,-8.0
718,19.718983546843116
719,-1.5266243616182218
720,11.925946371404994
619,4540.205953009261
633,1614.4080166761653
659,33.42760510948755
661,0.0
690,178.58860403485463
716,0.0
843,4360.372763682
844,4360.372763682
907,0.0
908,0.0
971,0.0
972,0.0
1195,1784.7657129516551
1197,1784.7657129516551
2,2,12,16, 0,14, 0.00,60.00,Tuesday
7,-7.0
718,19.722746271086283
719,-0.17637058099174496
720,11.867268801650697
619,4662.004006371107
633,1622.6470523933465
659,37.59949296289911
661,0.0
690,178.58860403485463
716,0.0
843,4122.444789422903
844,4122.444789422903
907,0.0
908,0.0
971,0.0
972,0.0
1195,1284.738974050816
1197,1284.738974050816
2,2,12,16, 0,15, 0.00,60.00,Tuesday
7,-5.0
718,19.723260853902914
719,1.233236775269066
720,11.830373450566734
619,4837.238327752341
633,1615.1387222146266
659,63.51410532505136
661,0.0
690,178.58860403485463
716,0.0
843,3482.213420244121
844,3482.213420244121
907,0.0
908,0.0
971,0.0
972,0.0
1195,269.28767359304993
1197,269.28767359304993
2,2,12,16, 0,16, 0.00,60.00,Tuesday
7,-5.0
718,19.72359383522484
719,1.3267282998593866
720,11.786795896163149
619,4837.280722297583
633,1615.0892686911345
659,63.51410532505136
661,0.0
690,178.58860403485463
716,0.0
843,3445.71870089245
844,3445.71870089245
907,0.0
908,0.0
971,0.0
972,0.0
1195,151.71849520649812
1197,151.71849520649812
2,2,12,16, 0,17, 0.00,60.00,Tuesday
7,-4.0
718,19.74717582183812
719,1.3010068027774062
720,11.74085174919586
619,4369.157093203061
633,1461.8505571578205
659,63.38510161250047
661,19.481828308638537
690,159.53025213669875
716,0.0
843,3012.4530937814307
844,3012.4530937814307
907,0.0
908,0.0
971,0.0
972,0.0
1195,0.0
1197,0.0
2,2,12,16, 0,18, 0.00,60.00,Tuesday
7,-5.0
718,19.72331767340988
719,0.6115650068669339
720,11.707926552954554
619,4186.452383575558
633,1434.7440121346726
659,71.50249060104635
661,19.985584249008802
690,158.63008522878198
716,0.0
843,2861.02653325943
844,2861.02653325943
907,0.0
908,0.0
971,0.0
972,0.0
1195,0.0
1197,0.0
2,2,12,16, 0,19, 0.00,60.00,Tuesday
7,-5.0
718,19.69669417066964
719,0.29955182987642237
720,11.702130326062914
619,4837.4673463818635
633,1614.871571495163
659,63.51410532505136
661,0.0
690,178.58860403485463
716,85.44000000000005
843,2699.738778617524
844,2699.738778617524
907,0.0
908,0.0
971,0.0
972,0.0
1195,373.16337764305354
1197,373.16337764305354
2,2,12,16, 0,20, 0.00,60.00,Tuesday
7,-6.1
718,19.69359295244546
719,0.17574767221022547
720,11.663597435304684
619,4662.8890337293205
633,1591.2953322561464
659,69.2317870073438
661,0.0
690,178.58860403485463
716,85.44000000000005
843,2599.310860494261
844,2599.310860494261
907,0.0
908,0.0
971,0.0
972,0.0
1195,536.3674595448101
1197,536.3674595448101
2,2,12,16, 0,21, 0.00,60.00,Tuesday
7,-6.7
718,19.70939359284005
719,-0.1457265348137268
720,11.635725763173339
619,4566.222333574417
633,1577.7859728762191
659,73.10676816826275
661,0.0
690,178.58860403485463
716,85.44000000000005
843,2545.1731060964685
844,2545.1731060964685
907,0.0
908,0.0
971,0.0
972,0.0
1195,591.3708502715699
1197,591.3708502715699
2,2,12,16, 0,22, 0.00,60.00,Tuesday
7,-6.1
718,19.71243647939076
719,-0.5083947679958937
720,11.612352728453368
619,4662.407859495145
633,1591.5048595351334
659,69.29009595866361
661,0.0
690,178.58860403485463
716,49.9096949806905
843,2613.5653048380336
844,2613.5653048380336
907,0.0
908,0.0
971,0.0
972,0.0
1195,13.291488917232982
1197,13.291488917232982
2,2,12,16, 0,23, 0.00,60.00,Tuesday
7,-8.3
718,18.976377242714772
719,-1.87774841790995
720,11.523544550050962
619,3435.4364818209656
633,1275.223626816948
659,49.26218556820372
661,37.88067396570616
690,142.75950299478484
716,0.0
843,2228.6984725638904
844,2228.6984725638904
907,0.0
908,0.0
971,0.0
972,0.0
1195,0.0
1197,0.0
2,2,12,16, 0,24, 0.00,60.00,Tuesday
7,-7.2
718,18.713361795778468
719,-1.965858060992126
720,11.489046447956984
619,3896.8496135459827
633,1373.6709246563316
659,52.806745419042166
661,24.618354772203
690,154.6810116250552
716,0.0
843,2555.3071256940602
844,2555.3071256940602
907,0.0
908,0.0
971,0.0
972,0.0
1195,0.0
1197,0.0
2,3,12,17, 0, 1, 0.00,60.00,Wednesday
7,-7.2
718,18.60367227902907
719,-1.926425748012255
720,11.455177258631636
619,4574.505200750194
633,1558.2712424485353
659,60.27590940796365
661,0.0
690,178.58860403485463
716,0.0
843,3080.6417141949623
844,3080.6417141949623
907,0.0
908,0.0
971,0.0
972,0.0
1195,83.29615294248379
1197,83.29615294248379
2,3,12,17, 0, 2, 0.00,60.00,Wednesday
7,-8.0
718,18.607740616290226
719,-1.7415132568491114
720,11.396766843845352
619,4474.2601773575825
633,1545.9696638202133
659,59.071756323988495
661,0.0
690,178.58860403485463
716,0.0
843,3226.2481460777963
844,3226.2481460777963
907,0.0
908,0.0
971,0.0
972,0.0
1195,343.7502600429384
1197,343.7502600429384
2,3,12,17, 0, 3, 0.00,60.00,Wednesday
7,-7.8
718,18.60766900463611
719,-2.2171048966614397
720,11.351179778899942
619,4538.027935796156
633,1561.3457593208295
659,49.339902972875976
661,0.0
690,178.58860403485463
716,0.0
843,3622.0708627296826
844,3622.0708627296826
907,0.0
908,0.0
971,0.0
972,0.0
1195,744.2978412950833
1197,744.2978412950833
2,3,12,17, 0, 4, 0.00,60.00,Wednesday
7,-9.4
718,18.606413490757923
719,-2.5458205460562424
720,11.287740617167309
619,4335.11554568228
633,1543.691980301636
659,46.36849166387362
661,0.0
690,178.58860403485463
716,0.0
843,3965.6517761156647
844,3965.6517761156647
907,0.0
908,0.0
971,0.0
972,0.0
1195,1378.8165016269622
1197,1378.8165016269622
2,3,12,17, 0, 5, 0.00,60.00,Wednesday
7,-8.3
718,18.608364228252594
719,-2.7140758009669343
720,11.24709141512112
619,4480.369473434266
633,1557.7809192676946
659,46.784337876557785
661,0.0
690,178.58860403485463
716,0.0
843,3971.481611254887
844,3971.481611254887
907,0.0
908,0.0
971,0.0
972,0.0
1195,1266.4973055350265
1197,1266.4973055350265
2,3,12,17, 0, 6, 0.00,60.00,Wednesday
7,-8.9
718,19.267258560117245
719,-2.5725872784954613
720,11.187302984118674
619,4410.890335594575
633,1553.5324004452098
659,43.83878132278082
661,0.0
690,178.58860403485463
716,82.0519002980499
843,5239.436707743984
844,5239.436707743984
907,0.0
908,0.0
971,0.0
972,0.0
1195,3795.747983706589
1197,3795.747983706589
2,3,12,17, 0, 7, 0.00,60.00,Wednesday
7,-8.9
718,19.53144916138941
719,-2.3590578127406814
720,11.168591940473254
619,4368.756103731606
633,1564.1541231777135
659,50.60233835543915
661,0.0
690,178.58860403485463
716,85.44000000000005
843,4846.772213343424
844,4846.772213343424
907,0.0
908,0.0
971,0.0
972,0.0
1195,3605.0613454682943
1197,3605.0613454682943
2,3,12,17, 0, 8, 0.00,60.00,Wednesday
7,-8.9
718,19.641170398388176
719,-2.74327901976207
720,11.1226787332691
619,4386.663065188499
633,1580.895710525126
659,43.80096321794747
661,0.0
690,178.58860403485463
716,82.84695999424578
843,4874.715005316146
844,4874.715005316146
907,0.0
908,0.0
971,0.0
972,0.0
1195,3602.771645505088
1197,3602.771645505088
2,3,12,17, 0, 9, 0.00,60.00,Wednesday
7,-9.0
718,19.7014629697864
719,-2.5280000264791123
720,11.079355289811026
619,4378.533184469961
633,1585.658474310489
659,41.57993767587747
661,0.0
690,178.58860403485463
716,0.0
843,4551.338173739947
844,4551.338173739947
907,0.0
908,0.0
971,0.0
972,0.0
1195,2159.6738112138064
1197,2159.6738112138064
2,3,12,17, 0,10, 0.00,60.00,Wednesday
7,-10.0
718,19.711667876077218
719,-2.4459962194729896
720,11.024643486268582
619,4265.787451064257
633,1581.0129402951056
659,35.621760064205546
661,0.0
690,178.58860403485463
716,0.0
843,4510.200214691129
844,4510.200214691129
907,0.0
908,0.0
971,0.0
972,0.0
1195,2209.0563462483437
1197,2209.0563462483437
2,3,12,17, 0,11, 0.00,60.00,Wednesday
7,-9.0
718,19.717700606804932
719,-2.088046435960635
720,10.985729874908888
619,4376.794562657181
633,1587.6011541482412
659,41.57993767587747
661,0.0
690,178.58860403485463
716,0.0
843,4443.208430253531
844,4443.208430253531
907,0.0
908,0.0
971,0.0
972,0.0
1195,2025.7047876299976
1197,2025.7047876299976
2,3,12,17, 0,12, 0.00,60.00,Wednesday
7,-10.0
718,19.716905198904065
719,-1.912755169440266
720,10.929764459244119
619,4265.490201299209
633,1581.3403477057277
659,35.621760064205546
661,0.0
690,178.58860403485463
716,0.0
843,4408.674517174428
844,4408.674517174428
907,0.0
908,0.0
971,0.0
972,0.0
1195,2068.9888530663825
1197,2068.9888530663825
2,3,12,17, 0,13, 0.00,60.00,Wednesday
7,-9.4
718,19.72504039454682
719,1.8633162767430351
720,10.89421234858532
619,4324.461980622836
633,1582.2973559435536
659,41.34025015542604
661,0.0
690,178.58860403485463
716,0.0
843,3407.309255108912
844,3407.309255108912
907,0.0
908,0.0
971,0.0
972,0.0
1195,816.1473033472512
1197,816.1473033472512
2,3,12,17, 0,14, 0.00,60.00,Wednesday
7,-9.0
718,19.72390714137513
719,4.52879482276574
720,10.86307758440209
619,4376.592797234111
633,1587.8265707620994
659,41.57993767587747
661,0.0
690,178.58860403485463
716,0.0
843,3079.0251652424213
844,3079.0251652424213
907,0.0
908,0.0
971,0.0
972,0.0
1195,168.50013583009968
1197,168.50013583009968
2,3,12,17, 0,15, 0.00,60.00,Wednesday
7,-7.0
718,19.709123184323534
719,2.3594491932076784
720,10.85652557886274
619,4609.251555470018
633,1602.1492160843543
659,51.62171950003387
661,0.0
690,178.58860403485463
716,76.1242949959656
843,3465.5742910174376
844,3465.5742910174376
907,0.0
908,0.0
971,0.0
972,0.0
1195,1194.4286781900696
1197,1194.4286781900696
2,3,12,17, 0,16, 0.00,60.00,Wednesday
7,-7.0
718,19.713054719254693
719,1.384028781888649
720,10.84085000120362
619,4609.668977589358
633,1601.6713981276598
659,51.62171950003387
661,0.0
690,178.58860403485463
716,85.44000000000005
843,3510.063996239476
844,3510.063996239476
907,0.0
908,0.0
971,0.0
972,0.0
1195,1500.5556753698793
1197,1500.5556753698793
2,3,12,17, 0,17, 0.00,60.00,Wednesday
7,-7.0
718,19.72354949879844
719,0.8604680988811899
720,10.83375223919353
619,4556.563984466465
633,1583.3916335877602
659,65.32936079764613
661,0.0
690,178.58860403485463
716,9.430001563689782
843,2990.0213655136267
844,2990.0213655136267
907,0.0
908,0.0
971,0.0
972,0.0
1195,35.30765106659692
1197,35.30765106659692
2,3,12,17, 0,18, 0.00,60.00,Wednesday
7,-6.7
718,19.71860035340446
719,-1.3313891830906
720,10.82271175248921
619,4629.235806688796
633,1598.7455614617745
659,57.08720714814051
661,0.0
690,178.58860403485463
716,0.0
843,3800.7418280225393
844,3800.7418280225393
907,0.0
908,0.0
971,0.0
972,0.0
1195,846.8948514388785
1197,846.8948514388785
2,3,12,17, 0,19, 0.00,60.00,Wednesday
7,-6.7
718,19.72345283106893
719,-1.6443604505078604
720,10.812052731398884
619,4629.393073793251
633,1598.6889790813107
659,57.06591903587795
661,0.0
690,178.58860403485463
716,0.0
843,3068.708841261794
844,3068.708841261794
907,0.0
908,0.0
971,0.0
972,0.0
1195,86.73742932421283
1197,86.73742932421283
2,3,12,17, 0,20, 0.00,60.00,Wednesday
7,-8.0
718,19.713153438492515
719,-3.2556267004704056
720,10.775498357085308
619,4493.449595359068
633,1595.0582817514398
659,46.38362946945042
661,0.0
690,178.58860403485463
716,85.44000000000005
843,4197.929988498408
844,4197.929988498408
907,0.0
908,0.0
971,0.0
972,0.0
1195,2781.11237163481
1197,2781.11237163481
2,3,12,17, 0,21, 0.00,60.00,Wednesday
7,-9.4
718,19.70259238808698
719,-4.588197259885266
720,10.739870154393422
619,4325.69190611861
633,1582.0378052831402
659,41.13179260664312
661,0.0
690,178.58860403485463
716,85.44000000000005
843,4284.428510409305
844,4284.428510409305
907,0.0
908,0.0
971,0.0
972,0.0
1195,3135.8276881002043
1197,3135.8276881002043
2,3,12,17, 0,22, 0.00,60.00,Wednesday
7,-10.0
718,19.70829305930108
719,-5.065176621245202
720,10.695590256051739
619,4256.404891814877
633,1576.5827929132874
659,38.463071594798215
661,0.0
690,178.58860403485463
716,36.8448708585396
843,4826.127897395561
844,4826.127897395561
907,0.0
908,0.0
971,0.0
972,0.0
1195,3204.0902107659435
1197,3204.0902107659435
2,3,12,17, 0,23, 0.00,60.00,Wednesday
7,-11.0
718,18.95685019705298
719,-5.271092333857471
720,10.640241680807021
619,4110.032889299362
633,1556.2086766362916
659,43.14560750658688
661,0.0
690,178.58860403485463
716,0.0
843,4284.887432540356
844,4284.887432540356
907,0.0
908,0.0
971,0.0
972,0.0
1195,2290.4183989302765
1197,2290.4183989302765
2,3,12,17, 0,24, 0.00,60.00,Wednesday
7,-11.1
718,18.726891917658794
719,-5.585140127277143
720,10.55634931731023
619,4148.502532890145
633,1545.1356523776599
659,33.92722460247544
661,0.0
690,178.58860403485463
716,0.0
843,3661.4125956929656
844,3661.4125956929656
907,0.0
908,0.0
971,0.0
972,0.0
1195,1428.828782653076
1197,1428.828782653076
2,4,12,18, 0, 1, 0.00,60.00,Thursday
7,-11.0
718,18.64302418507217
719,-5.081840118574642
720,10.486518930984241
619,4135.879208874639
633,1528.0982283044698
659,43.14560750658688
661,0.0
690,178.58860403485463
716,0.0
843,4318.94898783395
844,4318.94898783395
907,0.0
908,0.0
971,0.0
972,0.0
1195,2231.1818201958204
1197,2231.1818201958204
2,4,12,18, 0, 2, 0.00,60.00,Thursday
7,-11.1
718,18.616512444581662
719,-5.518825114592886
720,10.414624822229493
619,4137.612404237259
633,1528.7886794919505
659,39.55810837079089
661,0.0
690,178.58860403485463
716,0.0
843,4392.371409162988
844,4392.371409162988
907,0.0
908,0.0
971,0.0
972,0.0
1195,2272.4084293597834
1197,2272.4084293597834
2,4,12,18, 0, 3, 0.00,60.00,Thursday
7,-11.1
718,18.61036405942545
719,-5.228756706581703
720,10.344382074282104
619,4138.425645801386
633,1527.9593646263997
659,39.54679406345174
661,0.0
690,178.58860403485463
716,0.0
843,4439.902636157636
844,4439.902636157636
907,0.0
908,0.0
971,0.0
972,0.0
1195,2357.3638955157876
1197,2357.3638955157876
2,4,12,18, 0, 4, 0.00,60.00,Thursday
7,-11.0
718,18.60708915124516
719,-4.932775025876484
720,10.276039540878005
619,4139.149972744488
633,1524.5301124000155
659,43.14560750658688
661,0.0
690,178.58860403485463
716,0.0
843,4296.820054348713
844,4296.820054348713
907,0.0
908,0.0
971,0.0
972,0.0
1195,2157.6561275335325
1197,2157.6561275335325
2,4,12,18, 0, 5, 0.00,60.00,Thursday
7,-9.4
718,18.607590924256804
719,-4.501127864776902
720,10.220378408188273
619,4355.77582019838
633,1548.7460121571557
659,41.09279394425816
661,0.0
690,178.58860403485463
716,0.0
843,4442.494253333611
844,4442.494253333611
907,0.0
908,0.0
971,0.0
972,0.0
1195,2113.931016903737
1197,2113.931016903737
2,4,12,18, 0, 6, 0.00,60.00,Thursday
7,-9.0
718,19.37181049518493
719,-4.195752048713064
720,10.157058467251112
619,4407.312090990146
633,1553.4414571500088
659,41.57993767587747
661,0.0
690,178.58860403485463
716,0.0
843,5518.942559218127
844,5518.942559218127
907,0.0
908,0.0
971,0.0
972,0.0
1195,3310.0736139039564
1197,3310.0736139039564
2,4,12,18, 0, 7, 0.00,60.00,Thursday
7,-10.0
718,19.570250762376762
719,-3.8906817955218873
720,10.128524931054873
619,4232.099585292865
633,1553.7431761105402
659,48.00828435592539
661,0.0
690,178.58860403485463
716,85.44000000000005
843,5099.448611305308
844,5099.448611305308
907,0.0
908,0.0
971,0.0
972,0.0
1195,4182.326212108442
1197,4182.326212108442
2,4,12,18, 0, 8, 0.00,60.00,Thursday
7,-11.0
718,19.654140131045033
719,-4.293487172428506
720,10.068989126479396
619,4114.33686671712
633,1551.5386881936183
659,43.14560750658688
661,0.0
690,178.58860403485463
716,85.44000000000005
843,5310.688515957088
844,5310.688515957088
907,0.0
908,0.0
971,0.0
972,0.0
1195,4597.555651312112
1197,4597.555651312112
2,4,12,18, 0, 9, 0.00,60.00,Thursday
7,-10.6
718,19.684089731849014
719,-4.098201652013049
720,10.029020153076113
619,4168.749568926404
633,1561.4471374280647
659,41.726387615262155
661,0.0
690,178.58860403485463
716,85.44000000000005
843,4930.041704189383
844,4930.041704189383
907,0.0
908,0.0