Program Version,EnergyPlus, Version 22.2.0-c249759bad, YMD=2023.09.01 14:30
1,5,Environment Title[],Latitude[deg],Longitude[deg],Time Zone[],Elevation[m]
2,8,Day of Simulation[],Month[],Day of Month[],DST Indicator[1=yes 0=no],Hour[],StartMinute[],EndMinute[],DayType
3,5,Cumulative Day of Simulation[],Month[],Day of Month[],DST Indicator[1=yes 0=no],DayType  ! When Daily Report Variables Requested
4,2,Cumulative Days of Simulation[],Month[]  ! When Monthly Report Variables Requested
5,1,Cumulative Days of Simulation[] ! When Run Period Report Variables Requested
6,1,Calendar Year of Simulation[] ! When Annual Report Variables Requested
7,1,Environment,Site Outdoor Air Drybulb Temperature [C] !Hourly
619,1,DX_HEATING_COIL,Heating Coil Heating Rate [W] !Hourly
633,1,DX_HEATING_COIL,Heating Coil Electricity Rate [W] !Hourly
659,1,DX_HEATING_COIL,Heating Coil Defrost Electricity Rate [W] !Hourly
661,1,DX_HEATING_COIL,Heating Coil Crankcase Heater Electricity Rate [W] !Hourly
690,1,FAN,Fan Electricity Rate [W] !Hourly
716,1,HEAT PUMP WATER HEATER FAN,Fan Electricity Rate [W] !Hourly
718,1,LIVING,Zone Mean Air Temperature [C] !Hourly
719,1,ATTIC,Zone Mean Air Temperature [C] !Hourly
720,1,CRAWLSPACE,Zone Mean Air Temperature [C] !Hourly
843,1,LIVING,Zone Predicted Sensible Load to Heating Setpoint Heat Transfer Rate [W] !Hourly
844,1,LIVING,Zone System Predicted Sensible Load to Heating Setpoint Heat Transfer Rate [W] !Hourly
907,1,ATTIC,Zone Predicted Sensible Load to Heating Setpoint Heat Transfer Rate [W] !Hourly
908,1,ATTIC,Zone System Predicted Sensible Load to Heating Setpoint Heat Transfer Rate [W] !Hourly
971,1,CRAWLSPACE,Zone Predicted Sensible Load to Heating Setpoint Heat Transfer Rate [W] !Hourly
972,1,CRAWLSPACE,Zone System Predicted Sensible Load to Heating Setpoint Heat Transfer Rate [W] !Hourly
1195,1,HEATING_RESISTANCE_BACKUP,Heating Coil Heating Rate [W] !Hourly
1197,1,HEATING_RESISTANCE_BACKUP,Heating Coil Electricity Rate [W] !Hourly
End of Data Dictionary
1,EXTREME_WINTER,  33.93,-118.40,  -8.00,  32.00
2,1, 2,15, 0, 1, 0.00,60.00,Monday
7,9.4
718,20.632158276198407
719,8.072165614719234
720,20.120431857839215
619,0.0
633,0.0
659,0.0
661,200.0
690,0.0
716,0.0
843,-1205.4402144054102
844,-1205.4402144054102
907,0.0
908,0.0
971,0.0
972,0.0
1195,0.0
1197,0.0
2,1, 2,15, 0, 2, 0.00,60.00,Monday
7,9.4
718,20.266011047069625
719,7.651967399573879
720,19.923968888141896
619,0.0
633,0.0
659,0.0
661,200.0
690,0.0
716,0.0
843,-884.9556143350446
844,-884.9556143350446
907,0.0
908,0.0
971,0.0
972,0.0
1195,0.0
1197,0.0
2,1, 2,15, 0, 3, 0.00,60.00,Monday
7,8.9
718,19.851623531749322
719,6.373634298754869
720,19.80309485239898
619,0.0
633,0.0
659,0.0
661,200.0
690,0.0
716,0.0
843,-659.600360175109
844,-659.600360175109
907,0.0
908,0.0
971,0.0
972,0.0
1195,0.0
1197,0.0
2,1, 2,15, 0, 4, 0.00,60.00,Monday
7,9.4
718,19.546710674163563
719,6.951894807017218
720,19.67893076797511
619,0.0
633,0.0
659,0.0
661,200.0
690,0.0
716,0.0
843,-519.4540716993733
844,-519.4540716993733
907,0.0
908,0.0
971,0.0
972,0.0
1195,0.0
1197,0.0
2,1, 2,15, 0, 5, 0.00,60.00,Monday
7,9.4
718,19.330379319886884
719,7.348561760399752
720,19.566693067310506
619,0.0
633,0.0
659,0.0
661,200.0
690,0.0
716,0.0
843,-393.79734597987135
844,-393.79734597987135
907,0.0
908,0.0
971,0.0
972,0.0
1195,0.0
1197,0.0
2,1, 2,15, 0, 6, 0.00,60.00,Monday
7,8.3
718,19.710149609521633
719,7.20577554441683
720,19.452540687085843
619,510.53507133806875
633,137.71235793318974
659,0.0
661,177.60773869726447
690,12.176587581120597
716,0.0
843,366.3469021656747
844,366.3469021656747
907,0.0
908,0.0
971,0.0
972,0.0
1195,0.0
1197,0.0
2,1, 2,15, 0, 7, 0.00,60.00,Monday
7,9.0
718,19.698494974349067
719,8.271996141998395
720,19.34256347535828
619,1928.35827521343
633,502.8425202984526
659,0.0
661,119.43380575838567
690,43.810730278533555
716,85.44000000000005
843,382.8024269035104
844,382.8024269035104
907,0.0
908,0.0
971,0.0
972,0.0
1195,0.0
1197,0.0
2,1, 2,15, 0, 8, 0.00,60.00,Monday
7,10.6
718,19.759859460721422
719,9.00086598919033
720,19.262504564180528
619,923.8400593095904
633,242.01896978907968
659,0.0
661,0.0
690,20.683243815090368
716,31.18288020688232
843,295.2509334743354
844,295.2509334743354
907,0.0
908,0.0
971,0.0
972,0.0
1195,0.0
1197,0.0
2,1, 2,15, 0, 9, 0.00,60.00,Monday
7,11.0
718,19.78742044504575
719,11.459981695984066
720,19.180879496651777
619,0.0
633,0.0
659,0.0
661,0.0
690,0.0
716,0.0
843,-86.16341448209278
844,-86.16341448209278
907,0.0
908,0.0
971,0.0
972,0.0
1195,0.0
1197,0.0
2,1, 2,15, 0,10, 0.00,60.00,Monday
7,13.3
718,20.4120895789157
719,15.031740633684612
720,19.11159561684005
619,0.0
633,0.0
659,0.0
661,0.0
690,0.0
716,0.0
843,-491.9244382691577
844,-491.9244382691577
907,0.0
908,0.0
971,0.0
972,0.0
1195,0.0
1197,0.0
2,1, 2,15, 0,11, 0.00,60.00,Monday
7,13.3
718,20.620865126546118
719,16.934987202407505
720,19.062690801799754
619,0.0
633,0.0
659,0.0
661,0.0
690,0.0
716,0.0
843,-644.1980610586743
844,-644.1980610586743
907,0.0
908,0.0
971,0.0
972,0.0
1195,0.0
1197,0.0
2,1, 2,15, 0,12, 0.00,60.00,Monday
7,13.0
718,20.18638243345629
719,14.919420048024065
720,19.029170296866738
619,0.0
633,0.0
659,0.0
661,0.0
690,0.0
716,0.0
843,-327.5878001667643
844,-327.5878001667643
907,0.0
908,0.0
971,0.0
972,0.0
1195,0.0
1197,0.0
2,1, 2,15, 0,13, 0.00,60.00,Monday
7,12.8
718,20.861413177896576
719,15.620555827103235
720,19.011023282172562
619,0.0
633,0.0
659,0.0
661,0.0
690,0.0
716,0.0
843,-709.0236538490844
844,-709.0236538490844
907,0.0
908,0.0
971,0.0
972,0.0
1195,0.0
1197,0.0
2,1, 2,15, 0,14, 0.00,60.00,Monday
7,12.2
718,19.925581701295627
719,16.054159552479472
720,19.000565096991952
619,0.0
633,0.0
659,0.0
661,0.0
690,0.0
716,61.950321292368315
843,-735.9020931927616
844,-735.9020931927616
907,0.0
908,0.0
971,0.0
972,0.0
1195,0.0
1197,0.0
2,1, 2,15, 0,15, 0.00,60.00,Monday
7,13.0
718,20.677935856312217
719,15.047123255657327
720,18.99359910041003
619,0.0
633,0.0
659,0.0
661,0.0
690,0.0
716,0.0
843,-788.0804308717143
844,-788.0804308717143
907,0.0
908,0.0
971,0.0
972,0.0
1195,0.0
1197,0.0
2,1, 2,15, 0,16, 0.00,60.00,Monday
7,12.0
718,21.222932090029577
719,15.598451860460548
720,18.99111921430581
619,0.0
633,0.0
659,0.0
661,0.0
690,0.0
716,0.0
843,-1015.8522386612294
844,-1015.8522386612294
907,0.0
908,0.0
971,0.0
972,0.0
1195,0.0
1197,0.0
2,1, 2,15, 0,17, 0.00,60.00,Monday
7,12.8
718,21.79465239026458
719,15.472082659359666
720,18.99486920815239
619,0.0
633,0.0
659,0.0
661,0.0
690,0.0
716,0.0
843,-1473.229392988209
844,-1473.229392988209
907,0.0
908,0.0
971,0.0
972,0.0
1195,0.0
1197,0.0
2,1, 2,15, 0,18, 0.00,60.00,Monday
7,10.0
718,22.33140979585622
719,13.207244700933304
720,19.00440196700442
619,0.0
633,0.0
659,0.0
661,0.0
690,0.0
716,0.0
843,-1730.3027956499627
844,-1730.3027956499627
907,0.0
908,0.0
971,0.0
972,0.0
1195,0.0
1197,0.0
2,1, 2,15, 0,19, 0.00,60.00,Monday
7,10.0
718,21.06479698242192
719,11.767247399243924
720,19.011758202831754
619,0.0
633,0.0
659,0.0
661,0.0
690,0.0
716,72.74067555481811
843,-1548.1813340251902
844,-1548.1813340251902
907,0.0
908,0.0
971,0.0
972,0.0
1195,0.0
1197,0.0
2,1, 2,15, 0,20, 0.00,60.00,Monday
7,10.0
718,21.0240133727131
719,10.130902119678124
720,19.00956193059541
619,0.0
633,0.0
659,0.0
661,0.0
690,0.0
716,65.79844006754469
843,-2075.1572387161723
844,-2075.1572387161723
907,0.0
908,0.0
971,0.0
972,0.0
1195,0.0
1197,0.0
2,1, 2,15, 0,21, 0.00,60.00,Monday
7,9.4
718,21.882574988137918
719,9.069046663001016
720,18.993783131078356
619,0.0
633,0.0
659,0.0
661,200.0
690,0.0
716,0.0
843,-1806.9704198657546
844,-1806.9704198657546
907,0.0
908,0.0
971,0.0
972,0.0
1195,0.0
1197,0.0
2,1, 2,15, 0,22, 0.00,60.00,Monday
7,9.4
718,21.960198483618896
719,7.595356699322632
720,18.966046556628296
619,0.0
633,0.0
659,0.0
661,200.0
690,0.0
716,0.0
843,-1125.0829792900404
844,-1125.0829792900404
907,0.0
908,0.0
971,0.0
972,0.0
1195,0.0
1197,0.0
2,1, 2,15, 0,23, 0.00,60.00,Monday
7,9.4
718,21.605668078874935
719,6.472226211391528
720,18.92844800613947
619,0.0
633,0.0
659,0.0
661,200.0
690,0.0
716,0.0
843,-1329.091590506856
844,-1329.091590506856
907,0.0
908,0.0
971,0.0
972,0.0
1195,0.0
1197,0.0
2,1, 2,15, 0,24, 0.00,60.00,Monday
7,11.1
718,20.807002168609817
719,8.767060392912015
720,18.88172773615003
619,0.0
633,0.0
659,0.0
661,0.0
690,0.0
716,0.0
843,-957.3272898181467
844,-957.3272898181467
907,0.0
908,0.0
971,0.0
972,0.0
1195,0.0
1197,0.0
2,2, 2,16, 0, 1, 0.00,60.00,Tuesday
7,11.1
718,20.432335992770124
719,8.649256198859522
720,18.832790419191525
619,0.0
633,0.0
659,0.0
661,0.0
690,0.0
716,0.0
843,-1077.023041776385
844,-1077.023041776385
907,0.0
908,0.0
971,0.0
972,0.0
1195,0.0
1197,0.0
2,2, 2,16, 0, 2, 0.00,60.00,Tuesday
7,11.1
718,19.97776427865906
719,9.029769463991311
720,18.77665595056941
619,0.0
633,0.0
659,0.0
661,0.0
690,0.0
716,0.0
843,-718.0825261400742
844,-718.0825261400742
907,0.0
908,0.0
971,0.0
972,0.0
1195,0.0
1197,0.0
2,2, 2,16, 0, 3, 0.00,60.00,Tuesday
7,7.2
718,19.239259486759902
719,7.457593571297867
720,18.71660096206892
619,0.0
633,0.0
659,0.0
661,200.0
690,0.0
716,0.0
843,-332.62632791818305
844,-332.62632791818305
907,0.0
908,0.0
971,0.0
972,0.0
1195,0.0
1197,0.0
2,2, 2,16, 0, 4, 0.00,60.00,Tuesday
7,6.1
718,18.748384167797887
719,6.073983745629533
720,18.654482758396917
619,0.0
633,0.0
659,0.0
661,200.0
690,0.0
716,0.0
843,-82.58393532283753
844,-82.58393532283753
907,0.0
908,0.0
971,0.0
972,0.0
1195,0.0
1197,0.0
2,2, 2,16, 0, 5, 0.00,60.00,Tuesday
7,6.1
718,18.642475653806947
719,5.211667219117312
720,18.583363849239422
619,153.82089042135425
633,42.532706239243936
659,0.0
661,192.83166212914495
690,3.8980383765380058
716,0.0
843,93.036214685505
844,93.036214685505
907,0.0
908,0.0
971,0.0
972,0.0
1195,0.0
1197,0.0
2,2, 2,16, 0, 6, 0.00,60.00,Tuesday
7,6.1
718,19.437903130066275
719,5.430584131397349
720,18.49585437674871
619,1037.0250519384208
633,279.64711535457013
659,0.0
661,152.76583202777672
690,25.685256855451005
716,0.0
843,764.572066550737
844,764.572066550737
907,0.0
908,0.0
971,0.0
972,0.0
1195,0.0
1197,0.0
2,2, 2,16, 0, 7, 0.00,60.00,Tuesday
7,11.7
718,19.693130673247687
719,8.718016983694513
720,18.442258076247963
619,2595.5393546077516
633,643.9786468520011
659,0.0
661,0.0
690,54.553340254004084
716,81.7832418079285
843,845.8335603810137
844,845.8335603810137
907,0.0
908,0.0
971,0.0
972,0.0
1195,0.0
1197,0.0
2,2, 2,16, 0, 8, 0.00,60.00,Tuesday
7,13.3
718,19.69305221366912
719,11.400096478156248
720,18.377672691335636
619,1648.0773637939728
633,413.5945361891936
659,0.0
661,0.0
690,34.12324013411119
716,85.44000000000005
843,105.97932276902975
844,105.97932276902975
907,0.0
908,0.0
971,0.0
972,0.0
1195,0.0
1197,0.0
2,2, 2,16, 0, 9, 0.00,60.00,Tuesday
7,15.0
718,20.092377051269267
719,14.766640058492722
720,18.317782996517092
619,0.0
633,0.0
659,0.0
661,0.0
690,0.0
716,24.595548765790156
843,-591.756877393922
844,-591.756877393922
907,0.0
908,0.0
971,0.0
972,0.0
1195,0.0
1197,0.0
2,2, 2,16, 0,10, 0.00,60.00,Tuesday
7,18.3
718,21.80199743004057
719,19.399474062752496
720,18.297374042403288
619,0.0
633,0.0
659,0.0
661,0.0
690,0.0
716,0.0
843,-1580.5473572323444
844,-1580.5473572323444
907,0.0
908,0.0
971,0.0
972,0.0
1195,0.0
1197,0.0
2,2, 2,16, 0,11, 0.00,60.00,Tuesday
7,18.3
718,22.82053667808703
719,22.40984525968224
720,18.308841403349838
619,0.0
633,0.0
659,0.0
661,0.0
690,0.0
716,0.0
843,-2722.032212114411
844,-2722.032212114411
907,0.0
908,0.0
971,0.0
972,0.0
1195,0.0
1197,0.0
2,2, 2,16, 0,12, 0.00,60.00,Tuesday
7,20.0
718,23.294447991327928
719,28.34504481875532
720,18.394064086515886
619,0.0
633,0.0
659,0.0
661,0.0
690,17.858637349883566
716,0.0
843,-3661.6775368989856
844,-3661.6775368989856
907,0.0
908,0.0
971,0.0
972,0.0
1195,0.0
1197,0.0
2,2, 2,16, 0,13, 0.00,60.00,Tuesday
7,20.0
718,23.35848368257246
719,35.0715396832503
720,18.50893065766506
619,0.0
633,0.0
659,0.0
661,0.0
690,34.55157005945486
716,0.0
843,-3831.5199880621294
844,-3831.5199880621294
907,0.0
908,0.0
971,0.0
972,0.0
1195,0.0
1197,0.0
2,2, 2,16, 0,14, 0.00,60.00,Tuesday
7,21.1
718,23.311287847342083
719,33.01333570934977
720,18.682922517853754
619,0.0
633,0.0
659,0.0
661,0.0
690,63.45577111404926
716,0.0
843,-5366.834400125743
844,-5366.834400125743
907,0.0
908,0.0
971,0.0
972,0.0
1195,0.0
1197,0.0
2,2, 2,16, 0,15, 0.00,60.00,Tuesday
7,21.7
718,23.31877952967854
719,29.201637424427883
720,18.850254883832353
619,0.0
633,0.0
659,0.0
661,0.0
690,81.773920006587
716,0.0
843,-6620.017413149195
844,-6620.017413149195
907,0.0
908,0.0
971,0.0
972,0.0
1195,0.0
1197,0.0
2,2, 2,16, 0,16, 0.00,60.00,Tuesday
7,21.1
718,23.31399348469275
719,26.191149196073926
720,19.019032604088654
619,0.0
633,0.0
659,0.0
661,0.0
690,88.378240640845
716,0.0
843,-7318.165340300071
844,-7318.165340300071
907,0.0
908,0.0
971,0.0
972,0.0
1195,0.0
1197,0.0
2,2, 2,16, 0,17, 0.00,60.00,Tuesday
7,21.1
718,23.32969463727782
719,23.991692531314392
720,19.173694104318518
619,0.0
633,0.0
659,0.0
661,0.0
690,90.25556847603242
716,0.0
843,-7616.94823140655
844,-7616.94823140655
907,0.0
908,0.0
971,0.0
972,0.0
1195,0.0
1197,0.0
2,2, 2,16, 0,18, 0.00,60.00,Tuesday
7,17.2
718,23.337672331235822
719,20.46696824005132
720,19.212444168687643
619,0.0
633,0.0
659,0.0
661,0.0
690,67.92507101834205
716,0.0
843,-6653.458047541975
844,-6653.458047541975
907,0.0
908,0.0
971,0.0
972,0.0
1195,0.0
1197,0.0
2,2, 2,16, 0,19, 0.00,60.00,Tuesday
7,15.6
718,23.346963449482327
719,18.05535824862901
720,19.1914729992443
619,0.0
633,0.0
659,0.0
661,0.0
690,21.932078140808287
716,84.53316120854356
843,-5743.729460026225
844,-5743.729460026225
907,0.0
908,0.0
971,0.0
972,0.0
1195,0.0
1197,0.0
2,2, 2,16, 0,20, 0.00,60.00,Tuesday
7,15.0
718,23.310548004089874
719,15.947700325858179
720,19.266617467187263
619,0.0
633,0.0
659,0.0
661,0.0
690,12.960974927512968
716,85.44000000000005
843,-5207.368570729121
844,-5207.368570729121
907,0.0
908,0.0
971,0.0
972,0.0
1195,0.0
1197,0.0
2,2, 2,16, 0,21, 0.00,60.00,Tuesday
7,14.4
718,23.30949294034023
719,14.63141699515105
720,19.346179474260246
619,0.0
633,0.0
659,0.0
661,0.0
690,22.74738231186189
716,30.685393779247043
843,-4790.746626115793
844,-4790.746626115793
907,0.0
908,0.0
971,0.0
972,0.0
1195,0.0
1197,0.0
2,2, 2,16, 0,22, 0.00,60.00,Tuesday
7,15.6
718,23.326152641392277
719,14.6401678191442
720,19.359793687906603
619,0.0
633,0.0
659,0.0
661,0.0
690,23.468063726621303
716,0.0
843,-4256.404286832852
844,-4256.404286832852
907,0.0
908,0.0
971,0.0
972,0.0
1195,0.0
1197,0.0
2,2, 2,16, 0,23, 0.00,60.00,Tuesday
7,15.6
718,23.94802124356967
719,14.712569996319452
720,19.28018760341613
619,0.0
633,0.0
659,0.0
661,0.0
690,0.0
716,0.0
843,-4576.107094567189
844,-4576.107094567189
907,0.0
908,0.0
971,0.0
972,0.0
1195,0.0
1197,0.0
2,2, 2,16, 0,24, 0.00,60.00,Tuesday
7,16.1
718,23.801817422723854
719,14.476294304626384
720,19.253154408600096
619,0.0
633,0.0
659,0.0
661,0.0
690,0.0
716,0.0
843,-2856.207264346426
844,-2856.207264346426
907,0.0
908,0.0
971,0.0
972,0.0
1195,0.0
1197,0.0
2,3, 2,17, 0, 1, 0.00,60.00,Wednesday
7,15.0
718,23.312058366801015
719,13.801656842264197
720,19.231211301267724
619,0.0
633,0.0
659,0.0
661,0.0
690,0.0
716,0.0
843,-2089.964759666591
844,-2089.964759666591
907,0.0
908,0.0
971,0.0
972,0.0
1195,0.0
1197,0.0
2,3, 2,17, 0, 2, 0.00,60.00,Wednesday
7,15.6
718,22.932036132877133
719,13.882323534014741
720,19.204036988213517
619,0.0
633,0.0
659,0.0
661,0.0
690,0.0
716,0.0
843,-2079.475813045762
844,-2079.475813045762
907,0.0
908,0.0
971,0.0
972,0.0
1195,0.0
1197,0.0
2,3, 2,17, 0, 3, 0.00,60.00,Wednesday
7,15.0
718,22.75291774230136
719,12.585604716561056
720,19.174087206552162
619,0.0
633,0.0
659,0.0
661,0.0
690,0.0
716,0.0
843,-1910.1769335007957
844,-1910.1769335007957
907,0.0
908,0.0
971,0.0
972,0.0
1195,0.0
1197,0.0
2,3, 2,17, 0, 4, 0.00,60.00,Wednesday
7,12.8
718,22.292738261817785
719,10.450454477426637
720,19.138311322406352
619,0.0
633,0.0
659,0.0
661,0.0
690,0.0
716,0.0
843,-2005.8530011369585
844,-2005.8530011369585
907,0.0
908,0.0
971,0.0
972,0.0
1195,0.0
1197,0.0
2,3, 2,17, 0, 5, 0.00,60.00,Wednesday
7,12.8
718,22.06106728883812
719,8.453882507225442
720,19.09830498404555
619,0.0
633,0.0
659,0.0
661,0.0
690,0.0
716,0.0
843,-1690.4418205108677
844,-1690.4418205108677
907,0.0
908,0.0
971,0.0
972,0.0
1195,0.0
1197,0.0
2,3, 2,17, 0, 6, 0.00,60.00,Wednesday
7,11.7
718,20.772378981926646
719,6.863306134567387
720,19.05311418436613
619,0.0
633,0.0
659,0.0
661,0.0
690,0.0
716,67.38315858894912
843,-1229.7223795546706
844,-1229.7223795546706
907,0.0
908,0.0
971,0.0
972,0.0
1195,0.0
1197,0.0
2,3, 2,17, 0, 7, 0.00,60.00,Wednesday
7,15.0
718,20.199318723061445
719,9.119752493753202
720,19.00393608458265
619,0.0
633,0.0
659,0.0
661,0.0
690,0.0
716,85.44000000000005
843,-1360.1108496554625
844,-1360.1108496554625
907,0.0
908,0.0
971,0.0
972,0.0
1195,0.0
1197,0.0
2,3, 2,17, 0, 8, 0.00,60.00,Wednesday
7,12.8
718,20.862432629973405
719,9.940567577762904
720,18.95320383630816
619,0.0
633,0.0
659,0.0
661,0.0
690,0.0
716,19.380531506939832
843,-1221.0691128130911
844,-1221.0691128130911
907,0.0
908,0.0
971,0.0
972,0.0
1195,0.0
1197,0.0
2,3, 2,17, 0, 9, 0.00,60.00,Wednesday
7,15.6
718,22.7114423963123
719,15.50270667422104
720,18.910506924882394
619,0.0
633,0.0
659,0.0
661,0.0
690,0.0
716,0.0
843,-1740.0189020897687
844,-1740.0189020897687
907,0.0
908,0.0
971,0.0
972,0.0
1195,0.0
1197,0.0
2,3, 2,17, 0,10, 0.00,60.00,Wednesday
7,18.3
718,23.30116886460178
719,22.707454948776515
720,18.915739097619998
619,0.0
633,0.0
659,0.0
661,0.0
690,12.964282639977528
716,0.0
843,-3326.788789337428
844,-3326.788789337428
907,0.0
908,0.0
971,0.0
972,0.0
1195,0.0
1197,0.0
2,3, 2,17, 0,11, 0.00,60.00,Wednesday
7,18.3
718,23.300032488930256
719,28.479947308139348
720,18.981027469886122
619,0.0
633,0.0
659,0.0
661,0.0
690,32.994686480230236
716,0.0
843,-3852.440662301742
844,-3852.440662301742
907,0.0
908,0.0
971,0.0
972,0.0
1195,0.0
1197,0.0
2,3, 2,17, 0,12, 0.00,60.00,Wednesday
7,19.4
718,23.3023387038059
719,29.955365267020692
720,19.071573337433197
619,0.0
633,0.0
659,0.0
661,0.0
690,49.27281179966755
716,0.0
843,-4964.586428414106
844,-4964.586428414106
907,0.0
908,0.0
971,0.0
972,0.0
1195,0.0
1197,0.0
2,3, 2,17, 0,13, 0.00,60.00,Wednesday
7,17.8
718,23.294844224522468
719,29.486684566583623
720,19.151301456570913
619,0.0
633,0.0
659,0.0
661,0.0
690,57.36570616734726
716,0.0
843,-5599.689768727165
844,-5599.689768727165
907,0.0
908,0.0
971,0.0
972,0.0
1195,0.0
1197,0.0
2,3, 2,17, 0,14, 0.00,60.00,Wednesday
7,18.3
718,23.356012730398888
719,30.494836498817737
720,19.299329159146335
619,0.0
633,0.0
659,0.0
661,0.0
690,73.56454421424176
716,0.0
843,-6333.696630077822
844,-6333.696630077822
907,0.0
908,0.0
971,0.0
972,0.0
1195,0.0
1197,0.0
2,3, 2,17, 0,15, 0.00,60.00,Wednesday
7,16.7
718,23.308618695294143
719,27.438409503417642
720,19.404131894117086
619,0.0
633,0.0
659,0.0
661,0.0
690,73.9658412702226
716,0.0
843,-6484.141381620968
844,-6484.141381620968
907,0.0
908,0.0
971,0.0
972,0.0
1195,0.0
1197,0.0
2,3, 2,17, 0,16, 0.00,60.00,Wednesday
7,16.1
718,23.322825084077888
719,25.097827710994487
720,19.424925668911637
619,0.0
633,0.0
659,0.0
661,0.0
690,35.89781327198227
716,85.44000000000005
843,-6449.298281082327
844,-6449.298281082327
907,0.0
908,0.0
971,0.0
972,0.0
1195,0.0
1197,0.0
2,3, 2,17, 0,17, 0.00,60.00,Wednesday
7,16.1
718,23.327155940662514
719,22.325374555977657
720,19.619467175005905
619,0.0
633,0.0
659,0.0
661,0.0
690,61.335937299908146
716,39.30396028821024
843,-6695.19252556036
844,-6695.19252556036
907,0.0
908,0.0
971,0.0
972,0.0
1195,0.0
1197,0.0
2,3, 2,17, 0,18, 0.00,60.00,Wednesday
7,13.9
718,23.315239403147785
719,19.05128738954216
720,19.691079358420588
619,0.0
633,0.0
659,0.0
661,0.0
690,61.310170176573266
716,0.0
843,-6228.844826189616
844,-6228.844826189616
907,0.0
908,0.0
971,0.0
972,0.0
1195,0.0
1197,0.0
2,3, 2,17, 0,19, 0.00,60.00,Wednesday
7,13.9
718,23.386218144243404
719,16.721238537623545
720,19.75786725580621
619,0.0
633,0.0
659,0.0
661,0.0
690,46.480221685967564
716,0.0
843,-5495.347507961327
844,-5495.347507961327
907,0.0
908,0.0
971,0.0
972,0.0
1195,0.0
1197,0.0
2,3, 2,17, 0,20, 0.00,60.00,Wednesday
7,13.9
718,23.36268956012397
719,14.569044380623923
720,19.751729744935716
619,0.0
633,0.0
659,0.0
661,0.0
690,9.745726479424722
716,81.46180847359182
843,-4985.270742252025
844,-4985.270742252025
907,0.0
908,0.0
971,0.0
972,0.0
1195,0.0
1197,0.0
2,3, 2,17, 0,21, 0.00,60.00,Wednesday
7,12.8
718,23.32232651338946
719,12.258069617507333
720,19.812088243560755
619,0.0
633,0.0
659,0.0
661,0.0
690,32.70225385678276
716,0.0
843,-4619.229474566304
844,-4619.229474566304
907,0.0
908,0.0
971,0.0
972,0.0
1195,0.0
1197,0.0
2,3, 2,17, 0,22, 0.00,60.00,Wednesday
7,13.3
718,23.368908161374833
719,10.582359883940356
720,19.78591195623784
619,0.0
633,0.0
659,0.0
661,0.0
690,22.665536969941407
716,0.0
843,-4097.746392718485
844,-4097.746392718485
907,0.0
908,0.0
971,0.0
972,0.0
1195,0.0
1197,0.0
2,3, 2,17, 0,23, 0.00,60.00,Wednesday
7,13.3
718,23.948699560458504
719,9.486217647673627
720,19.725145601586853
619,0.0
633,0.0
659,0.0
661,0.0
690,0.0
716,0.0
843,-4328.671563958722
844,-4328.671563958722
907,0.0
908,0.0
971,0.0
972,0.0
1195,0.0
1197,0.0
2,3, 2,17, 0,24, 0.00,60.00,Wednesday
7,12.8
718,23.343991550811644
719,10.388980353131133
720,19.677196191869044
619,0.0
633,0.0
659,0.0
661,0.0
690,0.0
716,0.0
843,-2182.3593911740572
844,-2182.3593911740572
907,0.0
908,0.0
971,0.0
972,0.0
1195,0.0
1197,0.0
2,4, 2,18, 0, 1, 0.00,60.00,Thursday
7,11.1
718,22.87429481008082
719,8.58693005620198
720,19.619198955540668
619,0.0
633,0.0
659,0.0
661,0.0
690,0.0
716,0.0
843,-2515.4655934272632
844,-2515.4655934272632
907,0.0
908,0.0
971,0.0
972,0.0
1195,0.0
1197,0.0
2,4, 2,18, 0, 2, 0.00,60.00,Thursday
7,10.0
718,22.28299822260525
719,8.25188568652644
720,19.54406486501322
619,0.0
633,0.0
659,0.0
661,0.0
690,0.0
716,0.0
843,-2002.019520555712
844,-2002.019520555712
907,0.0
908,0.0
971,0.0
972,0.0
1195,0.0
1197,0.0
2,4, 2,18, 0, 3, 0.00,60.00,Thursday
7,10.0
718,21.89290591688644
719,7.921105883370513
720,19.459924939212218
619,0.0
633,0.0
659,0.0
661,0.0
690,0.0
716,0.0
843,-1866.6692124055407
844,-1866.6692124055407
907,0.0
908,0.0
971,0.0
972,0.0
1195,0.0
1197,0.0
2,4, 2,18, 0, 4, 0.00,60.00,Thursday
7,10.0
718,21.29540994609317
719,8.509433525350346
720,19.374323902696155
619,0.0
633,0.0
659,0.0
661,0.0
690,0.0
716,0.0
843,-1384.2795072297167
844,-1384.2795072297167
907,0.0
908,0.0
971,0.0
972,0.0
1195,0.0
1197,0.0
2,4, 2,18, 0, 5, 0.00,60.00,Thursday
7,9.4
718,21.006763515446163
719,8.54184027848314
720,19.30944669943942
619,0.0
633,0.0
659,0.0
661,200.0
690,0.0
716,0.0
843,-1288.9138667370908
844,-1288.9138667370908
907,0.0
908,0.0
971,0.0
972,0.0
1195,0.0
1197,0.0
2,4, 2,18, 0, 6, 0.00,60.00,Thursday
7,9.0
718,19.79951020678021
719,8.20728502198229
720,19.246003644968216
619,0.0
633,0.0
659,0.0
661,200.0
690,0.0
716,53.999725800862144
843,-504.1226775468549
844,-504.1226775468549
907,0.0
908,0.0
971,0.0
972,0.0
1195,0.0
1197,0.0
2,4, 2,18, 0, 7, 0.00,60.00,Thursday
7,10.0
718,19.230557385844005
719,7.844474549435584
720,19.182129104189187
619,0.0
633,0.0
659,0.0
661,0.0
690,0.0
716,85.44000000000005
843,-459.9864548612604
844,-459.9864548612604
907,0.0
908,0.0
971,0.0
972,0.0
1195,0.0
1197,0.0
2,4, 2,18, 0, 8, 0.00,60.00,Thursday
7,11.1
718,19.839520838603047
719,9.583407099228053
720,19.11640040223871
619,0.0
633,0.0
659,0.0
661,0.0
690,0.0
716,39.20919635129124
843,-635.2622298940914
844,-635.2622298940914
907,0.0
908,0.0
971,0.0
972,0.0
1195,0.0
1197,0.0
2,4, 2,18, 0, 9, 0.00,60.00,Thursday
7,12.2
718,21.241321730525122
719,12.887391781120495
720,19.056454422136646
619,0.0
633,0.0
659,0.0
661,0.0
690,0.0
716,0.0
843,-1086.3074274184364
844,-1086.3074274184364
907,0.0
908,0.0
971,0.0
972,0.0
1195,0.0
1197,0.0
2,4, 2,18, 0,10, 0.00,60.00,Thursday
7,14.4
718,22.634183922329733
719,19.450797134965317
720,19.02056853690725
619,0.0
633,0.0
659,0.0
661,0.0
690,0.0
716,0.0
843,-2149.7148219021983
844,-2149.7148219021983
907,0.0
908,0.0
971,0.0
972,0.0
1195,0.0
1197,0.0
2,4, 2,18, 0,11, 0.00,60.00,Thursday
7,14.4
718,23.302343865080744
719,25.368491620207564
720,19.03321197401177
619,0.0
633,0.0
659,0.0
661,0.0
690,9.426677861135591
716,0.0
843,-3267.182487796521
844,-3267.182487796521
907,0.0
908,0.0
971,0.0
972,0.0
1195,0.0
1197,0.0
2,4, 2,18, 0,12, 0.00,60.00,Thursday
7,15.0
718,23.20322542730511
719,25.31133405375177
720,19.108311989353712
619,0.0
633,0.0
659,0.0
661,0.0
690,26.76074124117226
716,0.0
843,-3284.1283592910986
844,-3284.1283592910986
907,0.0
908,0.0
971,0.0
972,0.0
1195,0.0
1197,0.0
2,4, 2,18, 0,13, 0.00,60.00,Thursday
7,15.0
718,23.334466399471026
719,29.11334921666481
720,19.193313847401118
619,0.0
633,0.0
659,0.0
661,0.0
690,41.93557350892743
716,0.0
843,-4443.3884980889015
844,-4443.3884980889015
907,0.0
908,0.0
971,0.0
972,0.0
1195,0.0
1197,0.0
2,4, 2,18, 0,14, 0.00,60.00,Thursday
7,15.0
718,23.313107626069716
719,25.70607600353892
720,19.328387366969054
619,0.0
633,0.0
659,0.0
661,0.0
690,62.5324678930603
716,0.0
843,-5368.0655487335625
844,-5368.0655487335625
907,0.0
908,0.0
971,0.0
972,0.0
1195,0.0
1197,0.0
2,4, 2,18, 0,15, 0.00,60.00,Thursday
7,15.0
718,23.30564715323488
719,25.02653517649172
720,19.455705721729228
619,0.0
633,0.0
659,0.0
661,0.0
690,72.03595263439999
716,0.0
843,-6141.649934755089
844,-6141.649934755089
907,0.0
908,0.0
971,0.0
972,0.0
1195,0.0
1197,0.0
2,4, 2,18, 0,16, 0.00,60.00,Thursday
7,14.0
718,23.30487994586929
719,21.95201973967547
720,19.538927676760082
619,0.0
633,0.0
659,0.0
661,0.0
690,66.67399487657114
716,0.0
843,-6179.822304914582
844,-6179.822304914582
907,0.0
908,0.0
971,0.0
972,0.0
1195,0.0
1197,0.0
2,4, 2,18, 0,17, 0.00,60.00,Thursday
7,13.9
718,23.337977574697923
719,20.12000061749449
720,19.57049225979191
619,0.0
633,0.0
659,0.0
661,0.0
690,25.717177445603244
716,71.45949650673711
843,-5789.500189909355
844,-5789.500189909355
907,0.0
908,0.0
971,0.0
972,0.0
1195,0.0
1197,0.0
2,4, 2,18, 0,18, 0.00,60.00,Thursday
7,13.3
718,23.37345972131119
719,17.06950029643322
720,19.723976664699293
619,0.0
633,0.0
659,0.0
661,0.0
690,49.092151229988616
716,0.0
843,-5473.150224314366
844,-5473.150224314366
907,0.0
908,0.0
971,0.0
972,0.0
1195,0.0
1197,0.0
2,4, 2,18, 0,19, 0.00,60.00,Thursday
7,12.8
718,23.43267879298263
719,16.06739434287476
720,19.699822308684304
619,0.0
633,0.0
659,0.0
661,0.0
690,4.174193128316466
716,85.44000000000005
843,-5043.8115850969225
844,-5043.8115850969225
907,0.0
908,0.0
971,0.0
972,0.0
1195,0.0
1197,0.0
2,4, 2,18, 0,20, 0.00,60.00,Thursday
7,12.8
718,23.355101585674014
719,14.622382536818277
720,19.79770917239478
619,0.0
633,0.0
659,0.0
661,0.0
690,26.719866598032755
716,24.588345883632993
843,-4673.82711652141
844,-4673.82711652141
907,0.0
908,0.0
971,0.0
972,0.0
1195,0.0
1197,0.0
2,4, 2,18, 0,21, 0.00,60.00,Thursday
7,13.0
718,23.33755685675598
719,13.590780184041616
720,19.802331619115126
619,0.0
633,0.0
659,0.0
661,0.0
690,30.45030782103585
716,0.0
843,-4386.357637383302
844,-4386.357637383302
907,0.0
908,0.0
971,0.0
972,0.0
1195,0.0
1197,0.0
2,4, 2,18, 0,22, 0.00,60.00,Thursday
7,12.2
718,23.29532417257427
719,12.86419725840291
720,19.7779975049624
619,0.0
633,0.0
659,0.0
661,0.0
690,19.81393075417696
716,0.0
843,-3874.93316053168
844,-3874.93316053168
907,0.0
908,0.0
971,0.0
972,0.0
1195,0.0
1197,0.0
2,4, 2,18, 0,23, 0.00,60.00,Thursday
7,12.2
718,23.684261562703075
719,12.513579510346784
720,19.719809592942035
619,0.0
633,0.0
659,0.0
661,0.0
690,0.0
716,0.0
843,-4112.097091487622
844,-4112.097091487622
907,0.0
908,0.0
971,0.0
972,0.0
1195,0.0
1197,0.0
2,4, 2,18, 0,24, 0.00,60.00,Thursday
7,11.7
718,23.27881440360385
719,11.738220861044471
720,19.673286151764408
619,0.0
633,0.0
659,0.0
661,0.0
690,0.0
716,0.0
843,-2523.1924462109055
844,-2523.1924462109055
907,0.0
908,0.0
971,0.0
972,0.0
1195,0.0
1197,0.0
2,5, 2,19, 0, 1, 0.00,60.00,Friday
7,12.2
718,22.837161737555952
719,11.639526419307453
720,19.61840297180654
619,0.0
633,0.0
659,0.0
661,0.0
690,0.0
716,0.0
843,-2319.168614906641
844,-2319.168614906641
907,0.0
908,0.0
971,0.0
972,0.0
1195,0.0
1197,0.0
2,5, 2,19, 0, 2, 0.00,60.00,Friday
7,11.7
718,22.48585281235689
719,10.880237143903328
720,19.55584859170866
619,0.0
633,0.0
659,0.0
661,0.0
690,0.0
716,0.0
843,-2057.344052353832
844,-2057.344052353832
907,0.0
908,0.0
971,0.0
972,0.0
1195,0.0
1197,0.0
2,5, 2,19, 0, 3, 0.00,60.00,Friday
7,11.1
718,21.98990479267908
719,9.586515347578331
720,19.484123052396406
619,0.0
633,0.0
659,0.0
661,0.0
690,0.0
716,0.0
843,-1506.061875866204
844,-1506.061875866204
907,0.0
908,0.0
971,0.0
972,0.0
1195,0.0
1197,0.0
2,5, 2,19, 0, 4, 0.00,60.00,Friday
7,11.1
718,21.649140400980343
719,9.016135679468249
720,19.398693796487755
619,0.0
633,0.0
659,0.0
661,0.0
690,0.0
716,0.0
843,-1382.8882587087464
844,-1382.8882587087464
907,0.0
908,0.0
971,0.0
972,0.0
1195,0.0
1197,0.0
2,5, 2,19, 0, 5, 0.00,60.00,Friday
7,11.1
718,21.428704155157693
719,8.82941295207656
720,19.344191198886953
619,0.0
633,0.0
659,0.0
661,0.0
690,0.0
716,0.0
843,-1342.6359274972147
844,-1342.6359274972147
907,0.0
908,0.0
971,0.0
972,0.0
1195,0.0
1197,0.0
2,5, 2,19, 0, 6, 0.00,60.00,Friday
7,10.0
718,19.97389807135599
719,7.849439262278809
720,19.291795892446846
619,0.0
633,0.0
659,0.0
661,0.0
690,0.0
716,85.44000000000005
843,-828.3798894988549
844,-828.3798894988549
907,0.0
908,0.0
971,0.0
972,0.0
1195,0.0
1197,0.0
2,5, 2,19, 0, 7, 0.00,60.00,Friday
7,10.0
718,19.83235927768774
719,6.870154903030055
720,19.23578434313021
619,0.0
633,0.0
659,0.0
661,0.0
690,0.0
716,51.99156926467662
843,-685.3593170078329
844,-685.3593170078329
907,0.0
908,0.0
971,0.0
972,0.0
1195,0.0
1197,0.0
2,5, 2,19, 0, 8, 0.00,60.00,Friday
7,11.1
718,20.960137524958814
719,8.479613244984975
720,19.177990119519297
619,0.0
633,0.0
659,0.0
661,0.0
690,0.0
716,0.0
843,-899.9757924145688
844,-899.9757924145688
907,0.0
908,0.0
971,0.0
972,0.0
1195,0.0
1197,0.0
2,5, 2,19, 0, 9, 0.00,60.00,Friday
7,12.8
718,21.986154860943874
719,14.379464514884496
720,19.12683366031486
619,0.0
633,0.0
659,0.0
661,0.0
690,0.0