Program Version,EnergyPlus, Version 22.2.0-c249759bad, YMD=2023.09.01 14:31
1,5,Environment Title[],Latitude[deg],Longitude[deg],Time Zone[],Elevation[m]
2,8,Day of Simulation[],Month[],Day of Month[],DST Indicator[1=yes 0=no],Hour[],StartMinute[],EndMinute[],DayType
3,5,Cumulative Day of Simulation[],Month[],Day of Month[],DST Indicator[1=yes 0=no],DayType  ! When Daily Report Variables Requested
4,2,Cumulative Days of Simulation[],Month[]  ! When Monthly Report Variables Requested
5,1,Cumulative Days of Simulation[] ! When Run Period Report Variables Requested
6,1,Calendar Year of Simulation[] ! When Annual Report Variables Requested
7,1,Environment,Site Outdoor Air Drybulb Temperature [C] !Hourly
545,1,LIVING,Zone Mean Air Temperature [C] !Hourly
546,1,ATTIC,Zone Mean Air Temperature [C] !Hourly
547,1,CRAWLSPACE,Zone Mean Air Temperature [C] !Hourly
548,1,FAN,Fan Electricity Rate [W] !Hourly
720,1,LIVING,Zone Predicted Sensible Load to Heating Setpoint Heat Transfer Rate [W] !Hourly
721,1,LIVING,Zone System Predicted Sensible Load to Heating Setpoint Heat Transfer Rate [W] !Hourly
784,1,ATTIC,Zone Predicted Sensible Load to Heating Setpoint Heat Transfer Rate [W] !Hourly
785,1,ATTIC,Zone System Predicted Sensible Load to Heating Setpoint Heat Transfer Rate [W] !Hourly
848,1,CRAWLSPACE,Zone Predicted Sensible Load to Heating Setpoint Heat Transfer Rate [W] !Hourly
849,1,CRAWLSPACE,Zone System Predicted Sensible Load to Heating Setpoint Heat Transfer Rate [W] !Hourly
1121,1,DX_HEATING_COIL,Heating Coil Heating Rate [W] !Hourly
1135,1,DX_HEATING_COIL,Heating Coil Electricity Rate [W] !Hourly
1161,1,DX_HEATING_COIL,Heating Coil Defrost Electricity Rate [W] !Hourly
1163,1,DX_HEATING_COIL,Heating Coil Crankcase Heater Electricity Rate [W] !Hourly
1166,1,HEATING_RESISTANCE_BACKUP,Heating Coil Heating Rate [W] !Hourly
1168,1,HEATING_RESISTANCE_BACKUP,Heating Coil Electricity Rate [W] !Hourly
End of Data Dictionary
1,EXTREME_WINTER,  37.37,-118.37,  -8.00,1252.00
2,1, 1,13, 0, 1, 0.00,60.00,Monday
7,-3.9
545,18.96012396921222
546,-4.178971649734822
547,18.697704011588943
548,0.0
720,-311.78013311904033
721,-311.78013311904033
784,0.0
785,0.0
848,0.0
849,0.0
1121,0.0
1135,0.0
1161,0.0
1163,200.0
1166,0.0
1168,0.0
2,1, 1,13, 0, 2, 0.00,60.00,Monday
7,-5.0
545,19.742713610375148
546,-3.071675102972389
547,18.219317029052544
548,108.21474997348878
720,716.6166002855425
721,716.6166002855425
784,0.0
785,0.0
848,0.0
849,0.0
1121,2948.959121359135
1135,1023.0627703882261
1161,0.05212985599799705
1163,80.478509423003
1166,0.0
1168,0.0
2,1, 1,13, 0, 3, 0.00,60.00,Monday
7,-7.8
545,19.163825341833082
546,-3.8189568392233455
547,18.016148025061355
548,106.70322807563984
720,1430.1366389072937
721,1430.1366389072937
784,0.0
785,0.0
848,0.0
849,0.0
1121,2663.0755092779104
1135,999.607615599474
1161,0.05140195252764683
1163,82.14742076194416
1166,0.0
1168,0.0
2,1, 1,13, 0, 4, 0.00,60.00,Monday
7,-5.6
545,18.907760307481425
546,-3.8379710463847845
547,17.767840262898655
548,103.56598268021159
720,1796.2570468631075
721,1796.2570468631075
784,0.0
785,0.0
848,0.0
849,0.0
1121,2762.5003209174242
1135,977.5278987335349
1161,0.049890470111829475
1163,85.61289420055009
1166,0.0
1168,0.0
2,1, 1,13, 0, 5, 0.00,60.00,Monday
7,-5.6
545,18.678765972696336
546,-3.7205597614181394
547,17.533643483672268
548,111.51776584207484
720,2047.3410233781124
721,2047.3410233781124
784,0.0
785,0.0
848,0.0
849,0.0
1121,2994.569318845483
1135,1047.0501147303426
1161,0.05372105297492582
1163,76.83026925730132
1166,0.0
1168,0.0
2,1, 1,13, 0, 6, 0.00,60.00,Monday
7,-6.7
545,19.195251580778887
546,-3.4163317433688394
547,17.267369801554885
548,167.4647932866292
720,3222.4819648849025
721,3222.4819648849025
784,0.0
785,0.0
848,0.0
849,0.0
1121,4525.634570681616
1135,1550.1168838539784
1161,0.08067235244106054
1163,15.037282810087405
1166,0.0
1168,0.0
2,1, 1,13, 0, 7, 0.00,60.00,Monday
7,-8.3
545,19.485555751047897
546,-3.6108182213324738
547,17.074085737342546
548,181.08242634882922
720,3721.92336722047
721,3721.92336722047
784,0.0
785,0.0
848,0.0
849,0.0
1121,4695.159552432533
1135,1669.331310157373
1161,0.08723093352724622
1163,0.0
1166,636.4440536675802
1168,636.4440536675802
2,1, 1,13, 0, 8, 0.00,60.00,Monday
7,-4.4
545,19.665215489319007
546,-2.6543879715302334
547,16.92601317431084
548,172.56337810870411
720,3380.081200279865
721,3380.081200279865
784,0.0
785,0.0
848,0.0
849,0.0
1121,4981.353527027125
1135,1653.7844887776744
1161,0.08312819098664688
1163,9.406623028556393
1166,0.0
1168,0.0
2,1, 1,13, 0, 9, 0.00,60.00,Monday
7,1.1
545,19.959981902381827
546,0.11051531935343424
547,16.791448982879118
548,94.62901214756296
720,1961.2418764162994
721,1961.2418764162994
784,0.0
785,0.0
848,0.0
849,0.0
1121,3019.4178338578768
1135,954.4067201660052
1161,0.04558489955430898
1163,95.48455413452447
1166,0.0
1168,0.0
2,1, 1,13, 0,10, 0.00,60.00,Monday
7,6.7
545,20.146478852074775
546,5.353437020224395
547,16.63525480767306
548,23.41015111723566
720,534.7942364575247
721,534.7942364575247
784,0.0
785,0.0
848,0.0
849,0.0
1121,942.7566607898079
1135,262.8470188146681
1161,0.0
1163,174.14420428392165
1166,0.0
1168,0.0
2,1, 1,13, 0,11, 0.00,60.00,Monday
7,6.7
545,20.31437867389519
546,11.514091620725695
547,16.50890068432538
548,0.0
720,-523.6308537394452
721,-523.6308537394452
784,0.0
785,0.0
848,0.0
849,0.0
1121,0.0
1135,0.0
1161,0.0
1163,200.0
1166,0.0
1168,0.0
2,1, 1,13, 0,12, 0.00,60.00,Monday
7,12.2
545,21.461313296816154
546,21.115500448532934
547,16.437179074245023
548,0.0
720,-1422.7223788354513
721,-1422.7223788354513
784,0.0
785,0.0
848,0.0
849,0.0
1121,0.0
1135,0.0
1161,0.0
1163,0.0
1166,0.0
1168,0.0
2,1, 1,13, 0,13, 0.00,60.00,Monday
7,13.9
545,22.344326473640884
546,25.537806243606838
547,16.40490798200215
548,0.0
720,-2197.3097341226403
721,-2197.3097341226403
784,0.0
785,0.0
848,0.0
849,0.0
1121,0.0
1135,0.0
1161,0.0
1163,0.0
1166,0.0
1168,0.0
2,1, 1,13, 0,14, 0.00,60.00,Monday
7,14.4
545,23.482097122085488
546,26.959535773137375
547,16.411417443794797
548,0.0
720,-3155.5451344535213
721,-3155.5451344535213
784,0.0
785,0.0
848,0.0
849,0.0
1121,0.0
1135,0.0
1161,0.0
1163,0.0
1166,0.0
1168,0.0
2,1, 1,13, 0,15, 0.00,60.00,Monday
7,15.0
545,24.636287107824113
546,26.34776883537568
547,16.442708004591058
548,0.0
720,-4092.515416647724
721,-4092.515416647724
784,0.0
785,0.0
848,0.0
849,0.0
1121,0.0
1135,0.0
1161,0.0
1163,0.0
1166,0.0
1168,0.0
2,1, 1,13, 0,16, 0.00,60.00,Monday
7,14.4
545,25.624655205724146
546,23.903348143462082
547,16.499878793726886
548,0.0
720,-4853.312340121689
721,-4853.312340121689
784,0.0
785,0.0
848,0.0
849,0.0
1121,0.0
1135,0.0
1161,0.0
1163,0.0
1166,0.0
1168,0.0
2,1, 1,13, 0,17, 0.00,60.00,Monday
7,14.4
545,26.258921494375468
546,20.590981239284247
547,16.585576861011397
548,0.0
720,-5076.296951805965
721,-5076.296951805965
784,0.0
785,0.0
848,0.0
849,0.0
1121,0.0
1135,0.0
1161,0.0
1163,0.0
1166,0.0
1168,0.0
2,1, 1,13, 0,18, 0.00,60.00,Monday
7,5.6
545,24.91109054723275
546,14.324978505435942
547,16.669311904612677
548,0.0
720,-3411.5436495975628
721,-3411.5436495975628
784,0.0
785,0.0
848,0.0
849,0.0
1121,0.0
1135,0.0
1161,0.0
1163,200.0
1166,0.0
1168,0.0
2,1, 1,13, 0,19, 0.00,60.00,Monday
7,-0.6
545,24.262471129518662
546,8.878165121298071
547,16.730635109130986
548,0.0
720,-3704.0021022308465
721,-3704.0021022308465
784,0.0
785,0.0
848,0.0
849,0.0
1121,0.0
1135,0.0
1161,0.0
1163,200.0
1166,0.0
1168,0.0
2,1, 1,13, 0,20, 0.00,60.00,Monday
7,-2.2
545,23.70146222759875
546,4.598472779236928
547,16.754693452829812
548,0.0
720,-3387.376683988072
721,-3387.376683988072
784,0.0
785,0.0
848,0.0
849,0.0
1121,0.0
1135,0.0
1161,0.0
1163,200.0
1166,0.0
1168,0.0
2,1, 1,13, 0,21, 0.00,60.00,Monday
7,-5.0
545,22.729885137791584
546,1.284883600236975
547,16.735453916972652
548,0.0
720,-2593.15769957287
721,-2593.15769957287
784,0.0
785,0.0
848,0.0
849,0.0
1121,0.0
1135,0.0
1161,0.0
1163,200.0
1166,0.0
1168,0.0
2,1, 1,13, 0,22, 0.00,60.00,Monday
7,-5.6
545,21.836534929403776
546,-1.44995700995823
547,16.679777718943146
548,0.0
720,-1916.20640126352
721,-1916.20640126352
784,0.0
785,0.0
848,0.0
849,0.0
1121,0.0
1135,0.0
1161,0.0
1163,200.0
1166,0.0
1168,0.0
2,1, 1,13, 0,23, 0.00,60.00,Monday
7,-5.6
545,20.761096175112403
546,-2.9111059979187646
547,16.598265170717223
548,0.0
720,-1916.3918291018144
721,-1916.3918291018144
784,0.0
785,0.0
848,0.0
849,0.0
1121,0.0
1135,0.0
1161,0.0
1163,200.0
1166,0.0
1168,0.0
2,1, 1,13, 0,24, 0.00,60.00,Monday
7,-6.1
545,19.42672377672338
546,-3.8669243626253005
547,16.494447790353327
548,0.0
720,-722.0753503962605
721,-722.0753503962605
784,0.0
785,0.0
848,0.0
849,0.0
1121,0.0
1135,0.0
1161,0.0
1163,200.0
1166,0.0
1168,0.0
2,2, 1,14, 0, 1, 0.00,60.00,Tuesday
7,-6.7
545,19.811617685098074
546,-3.5622213086967376
547,16.336647150742323
548,96.7055445444526
720,272.6598943673089
721,272.6598943673089
784,0.0
785,0.0
848,0.0
849,0.0
1121,2483.7598675318
1135,907.6583379926434
1161,0.04658569804515431
1163,93.18995874186429
1166,0.0
1168,0.0
2,2, 1,14, 0, 2, 0.00,60.00,Tuesday
7,-6.1
545,19.43561453369939
546,-3.7919717306340623
547,16.224687334038983
548,87.14084502858965
720,1126.0698390046618
721,1126.0698390046618
784,0.0
785,0.0
848,0.0
849,0.0
1121,2259.094250423057
1135,828.1602377535827
1161,0.04197808224298462
1163,103.75413733277784
1166,0.0
1168,0.0
2,2, 1,14, 0, 3, 0.00,60.00,Tuesday
7,-7.2
545,18.78136315436362
546,-3.979845592568071
547,16.058424151269346
548,103.52499776668937
720,1684.1211258086023
721,1684.1211258086023
784,0.0
785,0.0
848,0.0
849,0.0
1121,2631.4346285005395
1135,967.3846261100406
1161,0.04987085601897133
1163,85.65786469912217
1166,0.0
1168,0.0
2,2, 1,14, 0, 4, 0.00,60.00,Tuesday
7,-8.3
545,18.55562955118333
546,-4.354845461881751
547,15.882181069650025
548,135.29084927927394
720,2324.4642644563774
721,2324.4642644563774
784,0.0
785,0.0
848,0.0
849,0.0
1121,3410.9778698260898
1135,1236.2497047085149
1161,0.06517346511936474
1163,50.57258363741326
1166,0.0
1168,0.0
2,2, 1,14, 0, 5, 0.00,60.00,Tuesday
7,-8.3
545,18.49387995015781
546,-4.398393752796192
547,15.728247914841049
548,159.9362237675566
720,2800.637266602729
721,2800.637266602729
784,0.0
785,0.0
848,0.0
849,0.0
1121,4105.074183488907
1135,1454.72926733897
1161,0.07704584364871359
1163,23.352013939759942
1166,0.0
1168,0.0
2,2, 1,14, 0, 6, 0.00,60.00,Tuesday
7,-9.4
545,19.188255585236167
546,-4.371280523289004
547,15.558760095120183
548,181.08242634882922
720,4392.615020725694
721,4392.615020725694
784,0.0
785,0.0
848,0.0
849,0.0
1121,4559.608253251386
1135,1628.0097610868263
1161,0.8959004386730423
1163,0.0
1166,1571.8337727919475
1168,1571.8337727919475
2,2, 1,14, 0, 7, 0.00,60.00,Tuesday
7,-8.3
545,19.537708878648214
546,-4.160822668654143
547,15.464220023588506
548,181.08242634882922
720,4170.066849197843
721,4170.066849197843
784,0.0
785,0.0
848,0.0
849,0.0
1121,4697.715767712244
1135,1666.4473599424914
1161,0.08723093352724622
1163,0.0
1166,1295.4678665306383
1168,1295.4678665306383
2,2, 1,14, 0, 8, 0.00,60.00,Tuesday
7,-5.6
545,19.6666660573492
546,-3.241354532570186
547,15.353099533088633
548,181.08242634882922
720,3692.679111247622
721,3692.679111247622
784,0.0
785,0.0
848,0.0
849,0.0
1121,5079.040625464531
1135,1716.8953834881797
1161,0.08723093352724622
1163,0.0
1166,395.3330478834014
1168,395.3330478834014
2,2, 1,14, 0, 9, 0.00,60.00,Tuesday
7,0.6
545,19.880655449911266
546,-1.231805194009297
547,15.248580574219934
548,121.89805854594414
720,2577.5637580758703
721,2577.5637580758703
784,0.0
785,0.0
848,0.0
849,0.0
1121,3907.7562448183426
1135,1221.9917335121372
1161,0.058721037785043645
1163,65.36648087870715
1166,0.0
1168,0.0
2,2, 1,14, 0,10, 0.00,60.00,Tuesday
7,5.6
545,20.06605554817693
546,4.452490630713769
547,15.095890934059767
548,38.784055908526334
720,935.1188619507848
721,935.1188619507848
784,0.0
785,0.0
848,0.0
849,0.0
1121,1534.6238698044192
1135,429.20814558905164
1161,0.0
1163,157.1641967798527
1166,0.0
1168,0.0
2,2, 1,14, 0,11, 0.00,60.00,Tuesday
7,5.6
545,19.782458614519186
546,10.887604045841464
547,14.984617384364503
548,0.0
720,-53.77751563515085
721,-53.77751563515085
784,0.0
785,0.0
848,0.0
849,0.0
1121,0.0
1135,0.0
1161,0.0
1163,200.0
1166,0.0
1168,0.0
2,2, 1,14, 0,12, 0.00,60.00,Tuesday
7,11.1
545,20.96014660084063
546,20.439499236082288
547,14.947624882637978
548,0.0
720,-949.1179394580722
721,-949.1179394580722
784,0.0
785,0.0
848,0.0
849,0.0
1121,0.0
1135,0.0
1161,0.0
1163,0.0
1166,0.0
1168,0.0
2,2, 1,14, 0,13, 0.00,60.00,Tuesday
7,12.2
545,21.706870040221073
546,24.545713833379775
547,14.945788213201823
548,0.0
720,-1642.1665066932273
721,-1642.1665066932273
784,0.0
785,0.0
848,0.0
849,0.0
1121,0.0
1135,0.0
1161,0.0
1163,0.0
1166,0.0
1168,0.0
2,2, 1,14, 0,14, 0.00,60.00,Tuesday
7,12.8
545,22.786919299039585
546,26.78623295591642
547,14.978840785984026
548,0.0
720,-2546.442691468139
721,-2546.442691468139
784,0.0
785,0.0
848,0.0
849,0.0
1121,0.0
1135,0.0
1161,0.0
1163,0.0
1166,0.0
1168,0.0
2,2, 1,14, 0,15, 0.00,60.00,Tuesday
7,13.3
545,23.883255258912413
546,25.925987084923218
547,15.037658747111829
548,0.0
720,-3423.078506377773
721,-3423.078506377773
784,0.0
785,0.0
848,0.0
849,0.0
1121,0.0
1135,0.0
1161,0.0
1163,0.0
1166,0.0
1168,0.0
2,2, 1,14, 0,16, 0.00,60.00,Tuesday
7,11.7
545,24.404102104923016
546,22.726384014299292
547,15.1171207235376
548,0.0
720,-3781.9707388184815
721,-3781.9707388184815
784,0.0
785,0.0
848,0.0
849,0.0
1121,0.0
1135,0.0
1161,0.0
1163,0.0
1166,0.0
1168,0.0
2,2, 1,14, 0,17, 0.00,60.00,Tuesday
7,11.7
545,24.816900980901984
546,18.9348466673417
547,15.22281290603943
548,0.0
720,-3383.7610827365097
721,-3383.7610827365097
784,0.0
785,0.0
848,0.0
849,0.0
1121,0.0
1135,0.0
1161,0.0
1163,0.0
1166,0.0
1168,0.0
2,2, 1,14, 0,18, 0.00,60.00,Tuesday
7,4.4
545,23.89041389684003
546,13.548507351585332
547,15.32171391715038
548,0.0
720,-2777.2612409385783
721,-2777.2612409385783
784,0.0
785,0.0
848,0.0
849,0.0
1121,0.0
1135,0.0
1161,0.0
1163,200.0
1166,0.0
1168,0.0
2,2, 1,14, 0,19, 0.00,60.00,Tuesday
7,-2.8
545,22.857904567413982
546,7.285747786492396
547,15.397903257899825
548,0.0
720,-2405.5161202461168
721,-2405.5161202461168
784,0.0
785,0.0
848,0.0
849,0.0
1121,0.0
1135,0.0
1161,0.0
1163,200.0
1166,0.0
1168,0.0
2,2, 1,14, 0,20, 0.00,60.00,Tuesday
7,-2.8
545,22.513670294334705
546,3.4830721066502286
547,15.430622320710283
548,0.0
720,-2466.5979138305484
721,-2466.5979138305484
784,0.0
785,0.0
848,0.0
849,0.0
1121,0.0
1135,0.0
1161,0.0
1163,200.0
1166,0.0
1168,0.0
2,2, 1,14, 0,21, 0.00,60.00,Tuesday
7,-3.9
545,21.807343895523285
546,0.4883919413730688
547,15.422906094876204
548,0.0
720,-1753.1169022549639
721,-1753.1169022549639
784,0.0
785,0.0
848,0.0
849,0.0
1121,0.0
1135,0.0
1161,0.0
1163,200.0
1166,0.0
1168,0.0
2,2, 1,14, 0,22, 0.00,60.00,Tuesday
7,-5.6
545,20.879775756038985
546,-1.5357617416777904
547,15.386267741784879
548,0.0
720,-994.061572831708
721,-994.061572831708
784,0.0
785,0.0
848,0.0
849,0.0
1121,0.0
1135,0.0
1161,0.0
1163,200.0
1166,0.0
1168,0.0
2,2, 1,14, 0,23, 0.00,60.00,Tuesday
7,-5.6
545,19.856653947439412
546,-3.2127341593615326
547,15.322245657180499
548,0.0
720,-1080.2182973552262
721,-1080.2182973552262
784,0.0
785,0.0
848,0.0
849,0.0
1121,0.0
1135,0.0
1161,0.0
1163,200.0
1166,0.0
1168,0.0
2,2, 1,14, 0,24, 0.00,60.00,Tuesday
7,-7.8
545,19.922293661452066
546,-3.5647160997358283
547,15.248878193423348
548,95.942214252069
720,187.28436329558645
721,187.28436329558645
784,0.0
785,0.0
848,0.0
849,0.0
1121,2378.245456590193
1135,898.36252503146
1161,0.046218068729009104
1163,94.03284623894783
1166,0.0
1168,0.0
2,3, 1,15, 0, 1, 0.00,60.00,Wednesday
7,-6.1
545,19.80566318376938
546,-4.174912388700601
547,15.156647071397359
548,81.53437877028294
720,1006.9668330550176
721,1006.9668330550176
784,0.0
785,0.0
848,0.0
849,0.0
1121,2105.4675389497806
1135,775.7503223832695
1161,0.03927729727691541
1163,109.946401606152
1166,0.0
1168,0.0
2,3, 1,15, 0, 2, 0.00,60.00,Wednesday
7,-6.7
545,18.956308956251824
546,-4.814125480799149
547,15.038421303203254
548,79.02786929456867
720,1202.270802177345
721,1202.270802177345
784,0.0
785,0.0
848,0.0
849,0.0
1121,2003.1251613162663
1135,746.2959526397547
1161,0.03806988093222265
1163,112.71472310833019
1166,0.0
1168,0.0
2,3, 1,15, 0, 3, 0.00,60.00,Wednesday
7,-5.0
545,18.635174406322882
546,-4.143594924700526
547,14.91055603378157
548,93.64016214546838
720,1704.2977755750308
721,1704.2977755750308
784,0.0
785,0.0
848,0.0
849,0.0
1121,2530.249196649693
1135,882.2887020318606
1161,0.04510889787814112
1163,96.57591394673877
1166,0.0
1168,0.0
2,3, 1,15, 0, 4, 0.00,60.00,Wednesday
7,-5.6
545,18.55307863600258
546,-3.9173169162602046
547,14.783554138074674
548,119.00875096762263
720,2232.3140721908676
721,2232.3140721908676
784,0.0
785,0.0
848,0.0
849,0.0
1121,3218.8017660044625
1135,1108.433166416691
1161,0.05732965645099298
1163,68.55659080368251
1166,0.0
1168,0.0
2,3, 1,15, 0, 5, 0.00,60.00,Wednesday
7,-5.6
545,18.52737982394772
546,-3.7464036333877844
547,14.666805707434147
548,135.58159857572224
720,2567.3078579954235
721,2567.3078579954235
784,0.0
785,0.0
848,0.0
849,0.0
1121,3709.1795875875773
1135,1260.513545999718
1161,0.06531323408571599
1163,50.25212629344229
1166,0.0
1168,0.0
2,3, 1,15, 0, 6, 0.00,60.00,Wednesday
7,-7.2
545,19.165018608637958
546,-3.3648249471508223
547,14.533394260387016
548,181.08242634882922
720,3965.560096537929
721,3965.560096537929
784,0.0
785,0.0
848,0.0
849,0.0
1121,4874.892553630718
1135,1659.5996343439526
1161,0.08723093352724622
1163,0.0
1166,732.6935688043327
1168,732.6935688043327
2,3, 1,15, 0, 7, 0.00,60.00,Wednesday
7,-5.6
545,19.531663684239774
546,-2.9292955684786737
547,14.469521655959959
548,181.08242634882922
720,3941.345645232537
721,3941.345645232537
784,0.0
785,0.0
848,0.0
849,0.0
1121,5091.0707366753395
1135,1702.935516070314
1161,0.08723093352724622
1163,0.0
1166,598.8899865593448
1168,598.8899865593448
2,3, 1,15, 0, 8, 0.00,60.00,Wednesday
7,-5.0
545,19.662894079046072
546,-2.3752484066730086
547,14.371832005211822
548,181.08242634882922
720,3684.9327186415685
721,3684.9327186415685
784,0.0
785,0.0
848,0.0
849,0.0
1121,5169.953322435548
1135,1723.7592757805999
1161,0.08723093352724622
1163,0.0
1166,246.96899873948814
1168,246.96899873948814
2,3, 1,15, 0, 9, 0.00,60.00,Wednesday
7,1.1
545,19.843591207150094
546,-0.6348377078461919
547,14.283466980006539
548,128.8308500112193
720,2841.098865780359
721,2841.098865780359
784,0.0
785,0.0
848,0.0
849,0.0
1121,4206.206373092483
1135,1295.8599738965806
1161,0.062060685211463656
1163,57.70945534572489
1166,0.0
1168,0.0
2,3, 1,15, 0,10, 0.00,60.00,Wednesday
7,3.3
545,19.89029138722092
546,0.4312958643152707
547,14.173550044897077
548,99.54640736982994
720,2341.5144039287316
721,2341.5144039287316
784,0.0
785,0.0
848,0.0
849,0.0
1121,3376.896264672529
1135,1025.4336354360214
1161,0.04795360986340953
1163,90.05365889284809
1166,0.0
1168,0.0
2,3, 1,15, 0,11, 0.00,60.00,Wednesday
7,3.3
545,19.827225282610957
546,3.663790728118518
547,14.068784709661895
548,77.77315274786001
720,1823.4160436634902
721,1823.4160436634902
784,0.0
785,0.0
848,0.0
849,0.0
1121,2601.0970729569312
1135,801.8673342806545
1161,0.0374649726298166
1163,114.10163547518479
1166,0.0
1168,0.0
2,3, 1,15, 0,12, 0.00,60.00,Wednesday
7,6.1
545,19.87205561741519
546,6.680765252526154
547,13.976230776666831
548,48.61682933382961
720,1446.4821240662623
721,1446.4821240662623
784,0.0
785,0.0
848,0.0
849,0.0
1121,1961.244518287331
1135,539.6307662700008
1161,0.0
1163,146.304199348228
1166,0.0
1168,0.0
2,3, 1,15, 0,13, 0.00,60.00,Wednesday
7,7.2
545,19.81589436236133
546,11.531879963157458
547,13.904401826607762
548,27.855122937605913
720,849.4306113449384
721,849.4306113449384
784,0.0
785,0.0
848,0.0
849,0.0
1121,1140.1617662235428
1135,313.09413775973974
1161,0.0
1163,169.23486889451434
1166,0.0
1168,0.0
2,3, 1,15, 0,14, 0.00,60.00,Wednesday
7,7.8
545,19.74643250480355
546,14.722943263940289
547,13.85037361549152
548,8.198864036018252
720,237.67384534390658
721,237.67384534390658
784,0.0
785,0.0
848,0.0
849,0.0
1121,336.6365942322543
1135,92.67308509375864
1161,0.0
1163,190.94460550222107
1166,0.0
1168,0.0
2,3, 1,15, 0,15, 0.00,60.00,Wednesday
7,7.8
545,19.822004320487125
546,16.7997599958001
547,13.83600091996023
548,0.0
720,-51.92034847767172
721,-51.92034847767172
784,0.0
785,0.0
848,0.0
849,0.0
1121,0.0
1135,0.0
1161,0.0
1163,200.0
1166,0.0
1168,0.0
2,3, 1,15, 0,16, 0.00,60.00,Wednesday
7,8.9
545,19.81325012801945
546,15.04104737841033
547,13.849726155405966
548,0.0
720,-58.39850977302922
721,-58.39850977302922
784,0.0
785,0.0
848,0.0
849,0.0
1121,0.0
1135,0.0
1161,0.0
1163,200.0
1166,0.0
1168,0.0
2,3, 1,15, 0,17, 0.00,60.00,Wednesday
7,8.9
545,19.960262071066733
546,11.944056809760333
547,13.871112609219766
548,0.0
720,-135.1450113240553
721,-135.1450113240553
784,0.0
785,0.0
848,0.0
849,0.0
1121,0.0
1135,0.0
1161,0.0
1163,200.0
1166,0.0
1168,0.0
2,3, 1,15, 0,18, 0.00,60.00,Wednesday
7,3.3
545,19.72355751591821
546,7.172030306716246
547,13.901628013831319
548,9.627966329871875
720,243.2793827961441
721,243.2793827961441
784,0.0
785,0.0
848,0.0
849,0.0
1121,308.4938780306916
1135,99.40433013973964
1161,0.004637995023963515
1163,189.3661690035339
1166,0.0
1168,0.0
2,3, 1,15, 0,19, 0.00,60.00,Wednesday
7,1.7
545,19.538303904253976
546,3.801929155179273
547,13.9085254105104
548,11.079812692319752
720,266.93818264897527
721,266.93818264897527
784,0.0
785,0.0
848,0.0
849,0.0
1121,341.01483499121383
1135,112.19523603799018
1161,0.005337388736851062
1163,187.76262382842904
1166,0.0
1168,0.0
2,3, 1,15, 0,20, 0.00,60.00,Wednesday
7,-2.2
545,19.352685264154218
546,1.4745859207222038
547,13.910452041513043
548,22.088738441138783
720,476.1385889023286
721,476.1385889023286
784,0.0
785,0.0
848,0.0
849,0.0
1121,615.9692733043586
1135,215.37999331301953
1161,0.010640677996910784
1163,175.60342973152473
1166,0.0
1168,0.0
2,3, 1,15, 0,21, 0.00,60.00,Wednesday
7,-3.9
545,18.985804627882985
546,-0.643835206773093
547,13.895878787778646
548,43.98696254065658
720,898.2837893961032
721,898.2837893961032
784,0.0
785,0.0
848,0.0
849,0.0
1121,1186.3720835604393
1135,421.1903643949136
1161,0.02118962892978852
1163,151.41716803209488
1166,0.0
1168,0.0
2,3, 1,15, 0,22, 0.00,60.00,Wednesday
7,-0.6
545,19.9251423553031
546,-0.3520183228316515
547,13.873856158309934
548,62.30466349294794
720,1396.9986425382967
721,1396.9986425382967
784,0.0
785,0.0
848,0.0
849,0.0
1121,1867.3998279546693
1135,609.128647902607
1161,0.030013598955493204
1163,131.18588156317603
1166,0.0
1168,0.0
2,3, 1,15, 0,23, 0.00,60.00,Wednesday
7,-0.6
545,18.815543913651926
546,-1.0337682764064617
547,13.80231519746414
548,29.787770084132887
720,564.2618028609031
721,564.2618028609031
784,0.0
785,0.0
848,0.0
849,0.0
1121,870.6824786421706
1135,296.69478614788966
1161,0.014349459052630792
1163,167.1000676654485
1166,0.0
1168,0.0
2,3, 1,15, 0,24, 0.00,60.00,Wednesday
7,0.6
545,18.811696030849642
546,-0.789019237229211
547,13.744909298115013
548,43.40011747131648
720,975.457449633559
721,975.457449633559
784,0.0
785,0.0
848,0.0
849,0.0
1121,1329.0590520258918
1135,427.38027806599956
1161,0.0209068126066619
1163,152.0655992976809
1166,0.0
1168,0.0
2,4, 1,16, 0, 1, 0.00,60.00,Thursday
7,1.7
545,18.48089204789021
546,0.3442337357201177
547,13.686987903112332
548,56.34223408141766
720,1332.1085895751276
721,1332.1085895751276
784,0.0
785,0.0
848,0.0
849,0.0
1121,1791.4121917404789
1135,560.2569896038655
1161,0.027141289044402682
1163,137.77141216555887
1166,0.0
1168,0.0
2,4, 1,16, 0, 2, 0.00,60.00,Thursday
7,-2.2
545,18.179155164894308
546,-0.10304504322774365
547,13.614155116247305
548,94.01321793115535
720,2069.5205172023907
721,2069.5205172023907
784,0.0
785,0.0
848,0.0
849,0.0
1121,2758.6149972641765
1135,897.2919482361989
1161,0.04528843185063902
1163,96.16428480272225
1166,0.0
1168,0.0
2,4, 1,16, 0, 3, 0.00,60.00,Thursday
7,1.7
545,18.701435090404587
546,0.749685640933926
547,13.553635746386053
548,96.4873371744827
720,2359.484974695708
721,2359.484974695708
784,0.0
785,0.0
848,0.0
849,0.0
1121,3156.915854040339
1135,947.4358339761809
1161,0.04648006437530122
1163,93.43215188501136
1166,0.0
1168,0.0
2,4, 1,16, 0, 4, 0.00,60.00,Thursday
7,-4.4
545,18.444684949917036
546,-0.6912265441012589
547,13.477460151953194
548,128.9703827692355
720,2659.960124346435
721,2659.960124346435
784,0.0
785,0.0
848,0.0
849,0.0
1121,3634.757034148538
1135,1213.2552186841046
1161,0.06212832658683201
1163,57.55436959200606
1166,0.0
1168,0.0
2,4, 1,16, 0, 5, 0.00,60.00,Thursday
7,-4.4
545,18.520419217204378
546,-1.4063971026288968
547,13.396812044441871
548,140.16899405279298
720,2866.467619803061
721,2866.467619803061
784,0.0
785,0.0
848,0.0
849,0.0
1121,3985.3896828896445
1135,1311.8152375525212
1161,0.06752298239265346
1163,45.185693509601286
1166,0.0
1168,0.0
2,4, 1,16, 0, 6, 0.00,60.00,Thursday
7,0.6
545,19.376436376487188
546,0.05811573295152978
547,13.36373527693759
548,146.88115673015466
720,3511.39369889931
721,3511.39369889931
784,0.0
785,0.0
848,0.0
849,0.0
1121,4816.373137565994
1135,1436.7847668757202
1161,0.07075595566641342
1163,37.773246701955564
1166,0.0
1168,0.0
2,4, 1,16, 0, 7, 0.00,60.00,Thursday
7,-0.6
545,19.584432427981934
546,0.6311333154222478
547,13.313189167908721
548,152.53529265574423
720,3470.5870160889117
721,3470.5870160889117
784,0.0
785,0.0
848,0.0
849,0.0
1121,4839.713094485513
1135,1501.3060437686263
1161,0.07347978310394325
1163,31.528151464773345
1166,0.0
1168,0.0
2,4, 1,16, 0, 8, 0.00,60.00,Thursday
7,1.1
545,19.581263645319353
546,2.640119958673249
547,13.252341606302165
548,149.2665656758997
720,3549.9331197602114
721,3549.9331197602114
784,0.0
785,0.0
848,0.0
849,0.0
1121,4943.399721402464
1135,1497.191868076933
1161,0.07190502358122382
1163,35.138704416674436
1166,0.0
1168,0.0
2,4, 1,16, 0, 9, 0.00,60.00,Thursday
7,1.1
545,19.68864522792385
546,3.858097744875906
547,13.176873318035286
548,137.11102879248082
720,3251.2806451659053
721,3251.2806451659053
784,0.0
785,0.0
848,0.0
849,0.0
1121,4504.377770155748
1135,1375.1198023371833
1161,0.06604943117988017
1163,48.56419962707401
1166,0.0
1168,0.0
2,4, 1,16, 0,10, 0.00,60.00,Thursday
7,3.3
545,19.962509265036836
546,6.256216421261287
547,13.095753488246
548,86.83007494094763
720,2073.4608970792196
721,2073.4608970792196
784,0.0
785,0.0
848,0.0
849,0.0
1121,2924.4488816037865
1135,890.6963512821688
1161,0.04182788343303219
1163,104.09850785336965
1166,0.0
1168,0.0
2,4, 1,16, 0,11, 0.00,60.00,Thursday
7,3.3
545,19.882817449566605
546,7.33518887366639
547,13.04386192882827
548,50.20071459715909
720,1162.4176973269387
721,1162.4176973269387
784,0.0
785,0.0
848,0.0
849,0.0
1121,1649.824541726456
1135,517.7375580103092
1161,0.024182746004065572
1163,144.5546550375683
1166,0.0
1168,0.0
2,4, 1,16, 0,12, 0.00,60.00,Thursday
7,6.1
545,20.556178532670046
546,10.999289355344885
547,13.02182036140922
548,18.512326613559818
720,515.5933289142213
721,515.5933289142213
784,0.0
785,0.0
848,0.0
849,0.0
1121,732.9714143341189
1135,205.5040523148328
1161,0.0
1163,179.55370160779879
1166,0.0
1168,0.0
2,4, 1,16, 0,13, 0.00,60.00,Thursday
7,7.8
545,21.045857027239755
546,14.381744529102473
547,13.033450167606569
548,0.0
720,-586.4130464374157
721,-586.4130464374157
784,0.0
785,0.0
848,0.0
849,0.0
1121,0.0
1135,0.0
1161,0.0
1163,200.0
1166,0.0
1168,0.0
2,4, 1,16, 0,14, 0.00,60.00,Thursday
7,8.3
545,21.763078703374028
546,15.563876419560074
547,13.09072987230914
548,0.0
720,-1514.8571748396898
721,-1514.8571748396898
784,0.0
785,0.0
848,0.0
849,0.0
1121,0.0
1135,0.0
1161,0.0
1163,200.0
1166,0.0
1168,0.0
2,4, 1,16, 0,15, 0.00,60.00,Thursday
7,9.4
545,22.875074933517194
546,16.957958583153562
547,13.163987173397201
548,0.0
720,-2388.6043343517904
721,-2388.6043343517904
784,0.0
785,0.0
848,0.0
849,0.0
1121,0.0
1135,0.0
1161,0.0
1163,200.0
1166,0.0
1168,0.0
2,4, 1,16, 0,16, 0.00,60.00,Thursday
7,8.3
545,23.51892406724289
546,15.410755795539671
547,13.248526176013279
548,0.0
720,-2823.806511797784
721,-2823.806511797784
784,0.0
785,0.0
848,0.0
849,0.0
1121,0.0
1135,0.0
1161,0.0
1163,200.0
1166,0.0
1168,0.0
2,4, 1,16, 0,17, 0.00,60.00,Thursday
7,8.3
545,23.849430011758386
546,13.210906273741966
547,13.363325977395863
548,0.0
720,-3159.7021756501326
721,-3159.7021756501326
784,0.0
785,0.0
848,0.0
849,0.0
1121,0.0
1135,0.0
1161,0.0
1163,200.0
1166,0.0
1168,0.0
2,4, 1,16, 0,18, 0.00,60.00,Thursday
7,2.8
545,22.527624139991662
546,8.557104008738339
547,13.472582916519897
548,0.0
720,-2088.9453590415815
721,-2088.9453590415815
784,0.0
785,0.0
848,0.0
849,0.0
1121,0.0
1135,0.0
1161,0.0
1163,200.0
1166,0.0
1168,0.0
2,4, 1,16, 0,19, 0.00,60.00,Thursday
7,0.6
545,21.947690801730737
546,5.1710848840104315
547,13.558609379249269
548,0.0
720,-1915.920630956347
721,-1915.920630956347
784,0.0
785,0.0
848,0.0
849,0.0
1121,0.0
1135,0.0
1161,0.0
1163,200.0
1166,0.0
1168,0.0
2,4, 1,16, 0,20, 0.00,60.00,Thursday
7,-0.6
545,21.633796893110215
546,2.781956255608764
547,13.601975215030325
548,0.0
720,-1626.2252439042732
721,-1626.2252439042732
784,0.0
785,0.0
848,0.0
849,0.0
1121,0.0
1135,0.0
1161,0.0
1163,200.0
1166,0.0
1168,0.0
2,4, 1,16, 0,21, 0.00,60.00,Thursday
7,-2.8
545,21.07360400058127
546,0.4368307515836865
547,13.609406600251656
548,0.0
720,-1083.2388031191422
721,-1083.2388031191422
784,0.0
785,0.0
848,0.0
849,0.0
1121,0.0
1135,0.0
1161,0.0
1163,200.0
1166,0.0
1168,0.0
2,4, 1,16, 0,22, 0.00,60.00,Thursday
7,-3.3
545,20.019415333800758
546,-1.4785302966908103
547,13.585980736111548
548,0.0
720,-240.18860269867764
721,-240.18860269867764
784,0.0
785,0.0
848,0.0
849,0.0
1121,0.0
1135,0.0
1161,0.0
1163,200.0
1166,0.0
1168,0.0
2,4, 1,16, 0,23, 0.00,60.00,Thursday
7,-3.3
545,19.041657110958198
546,-2.262169242254329
547,13.54316942562544
548,0.0
720,-368.4328122986735
721,-368.4328122986735
784,0.0
785,0.0
848,0.0
849,0.0
1121,0.0
1135,0.0
1161,0.0
1163,200.0
1166,0.0
1168,0.0
2,4, 1,16, 0,24, 0.00,60.00,Thursday
7,-6.1
545,19.701146418116295
546,-2.1722783959598377
547,13.551025298201601
548,104.48645068389324