Program Version,EnergyPlus, Version 9.5.0-de239b2e5f, YMD=2022.08.10 16:06
1,5,Environment Title[],Latitude[deg],Longitude[deg],Time Zone[],Elevation[m]
2,8,Day of Simulation[],Month[],Day of Month[],DST Indicator[1=yes 0=no],Hour[],StartMinute[],EndMinute[],DayType
3,5,Cumulative Day of Simulation[],Month[],Day of Month[],DST Indicator[1=yes 0=no],DayType  ! When Daily Report Variables Requested
4,2,Cumulative Days of Simulation[],Month[]  ! When Monthly Report Variables Requested
5,1,Cumulative Days of Simulation[] ! When Run Period Report Variables Requested
6,1,Calendar Year of Simulation[] ! When Annual Report Variables Requested
191,1,UNHEATEDBSMT_UNIT1,Zone Windows Total Transmitted Solar Radiation Rate [W] !Hourly
192,1,UNHEATEDBSMT_UNIT1,Zone Windows Total Transmitted Solar Radiation Energy [J] !Hourly
193,1,UNHEATEDBSMT_UNIT1,Zone Windows Total Heat Gain Energy [J] !Hourly
194,1,LIVING_UNIT1,Zone Windows Total Transmitted Solar Radiation Rate [W] !Hourly
195,1,LIVING_UNIT1,Zone Windows Total Transmitted Solar Radiation Energy [J] !Hourly
196,1,LIVING_UNIT1,Zone Windows Total Heat Gain Energy [J] !Hourly
197,1,ATTIC_UNIT1,Zone Windows Total Transmitted Solar Radiation Rate [W] !Hourly
198,1,ATTIC_UNIT1,Zone Windows Total Transmitted Solar Radiation Energy [J] !Hourly
199,1,ATTIC_UNIT1,Zone Windows Total Heat Gain Energy [J] !Hourly
200,1,UNHEATEDBSMT_UNIT1,Zone Mean Air Temperature [C] !Hourly
201,1,LIVING_UNIT1,Zone Mean Air Temperature [C] !Hourly
202,1,ATTIC_UNIT1,Zone Mean Air Temperature [C] !Hourly
279,1,UNHEATEDBSMT_UNIT1,AFN Zone Infiltration Sensible Heat Gain Rate [W] !Hourly
280,1,LIVING_UNIT1,AFN Zone Infiltration Sensible Heat Gain Rate [W] !Hourly
281,1,ATTIC_UNIT1,AFN Zone Infiltration Sensible Heat Gain Rate [W] !Hourly
282,1,UNHEATEDBSMT_UNIT1,AFN Zone Infiltration Air Change Rate [ach] !Hourly
283,1,LIVING_UNIT1,AFN Zone Infiltration Air Change Rate [ach] !Hourly
284,1,ATTIC_UNIT1,AFN Zone Infiltration Air Change Rate [ach] !Hourly
618,1,Whole Building,Facility Total HVAC Electricity Demand Rate [W] !Hourly
End of Data Dictionary
1,BAKER.MUNI.AP ANN HTG 99.6% CONDNS DB,  46.35,-104.27,  -7.00, 906.00
2,1, 1,21, 0, 1, 0.00,60.00,WinterDesignDay
191,0.0
192,0.0
193,0.0
194,0.0
195,0.0
196,0.0
197,0.0
198,0.0
199,0.0
200,14.4040929257089
201,13.659780981358569
202,-12.993190137228125
279,0.0
280,0.0
281,0.0
282,0.6017216858561157
283,0.5878854975045726
284,5.283911490305608
618,11694.926127789411
2,1, 1,21, 0, 2, 0.00,60.00,WinterDesignDay
191,0.0
192,0.0
193,0.0
194,0.0
195,0.0
196,0.0
197,0.0
198,0.0
199,0.0
200,13.771752233646229
201,13.671989172517444
202,-12.983161788290416
279,0.0
280,0.0
281,0.0
282,0.6009332885623261
283,0.587747557106579
284,5.283952358555044
618,11694.926127789411
2,1, 1,21, 0, 3, 0.00,60.00,WinterDesignDay
191,0.0
192,0.0
193,0.0
194,0.0
195,0.0
196,0.0
197,0.0
198,0.0
199,0.0
200,13.400978078501148
201,13.65959168544223
202,-12.990437501435207
279,0.0
280,0.0
281,0.0
282,0.5997290830460496
283,0.587920911214281
284,5.283922021527367
618,11694.926127789411
2,1, 1,21, 0, 4, 0.00,60.00,WinterDesignDay
191,0.0
192,0.0
193,0.0
194,0.0
195,0.0
196,0.0
197,0.0
198,0.0
199,0.0
200,13.044251607539828
201,13.648364157511495
202,-12.996039677822579
279,0.0
280,0.0
281,0.0
282,0.5987059351703449
283,0.5878934659584209
284,5.283921217841981
618,11694.926127789411
2,1, 1,21, 0, 5, 0.00,60.00,WinterDesignDay
191,0.0
192,0.0
193,0.0
194,0.0
195,0.0
196,0.0
197,0.0
198,0.0
199,0.0
200,12.731642003829342
201,13.63345982974105
202,-13.00397085191195
279,0.0
280,0.0
281,0.0
282,0.59778621225903
283,0.5878630902159486
284,5.283871074382299
618,11694.926127789411
2,1, 1,21, 0, 6, 0.00,60.00,WinterDesignDay
191,0.0
192,0.0
193,0.0
194,0.0
195,0.0
196,0.0
197,0.0
198,0.0
199,0.0
200,12.446270478532388
201,13.616345884431813
202,-13.012463578065454
279,0.0
280,0.0
281,0.0
282,0.5969495925553062
283,0.5877967458304102
284,5.283809060161994
618,11694.926127789411
2,1, 1,21, 0, 7, 0.00,60.00,WinterDesignDay
191,0.0
192,0.0
193,0.0
194,0.0
195,0.0
196,0.0
197,0.0
198,0.0
199,0.0
200,12.183484265012435
201,13.597212968667622
202,-13.02161970750045
279,0.0
280,0.0
281,0.0
282,0.5961766358523599
283,0.5877080800154361
284,5.283734753155877
618,11694.926127789411
2,1, 1,21, 0, 8, 0.00,60.00,WinterDesignDay
191,0.0
192,0.0
193,0.0
194,0.0
195,0.0
196,0.0
197,0.0
198,0.0
199,0.0
200,11.939008035261434
201,13.576424250911077
202,-13.031180251349769
279,0.0
280,0.0
281,0.0
282,0.5954553621842905
283,0.5875997296486353
284,5.283653424283587
618,11694.926127789411
2,1, 1,21, 0, 9, 0.00,60.00,WinterDesignDay
191,0.0
192,0.0
193,0.0
194,0.0
195,0.0
196,0.0
197,0.0
198,0.0
199,0.0
200,11.70999183241569
201,13.554276545383497
202,-13.041064437927956
279,0.0
280,0.0
281,0.0
282,0.5947772848719806
283,0.5874754108187421
284,5.283566806210965
618,11694.926127789411
2,1, 1,21, 0,10, 0.00,60.00,WinterDesignDay
191,0.0
192,0.0
193,0.0
194,0.0
195,0.0
196,0.0
197,0.0
198,0.0
199,0.0
200,11.494260501027375
201,13.531036949588973
202,-13.051179253204764
279,0.0
280,0.0
281,0.0
282,0.5941362258314967
283,0.5873379560448676
284,5.2834764610953519
618,11694.926127789411
2,1, 1,21, 0,11, 0.00,60.00,WinterDesignDay
191,0.0
192,0.0
193,0.0
194,0.0
195,0.0
196,0.0
197,0.0
198,0.0
199,0.0
200,11.290130127097234
201,13.506936362667102
202,-13.061460012008113
279,0.0
280,0.0
281,0.0
282,0.5935274723011713
283,0.5871898371644004
284,5.283383372157228
618,11694.926127789411
2,1, 1,21, 0,12, 0.00,60.00,WinterDesignDay
191,0.0
192,0.0
193,0.0
194,0.0
195,0.0
196,0.0
197,0.0
198,0.0
199,0.0
200,11.096251854774366
201,13.482172904563696
202,-13.071850263524862
279,0.0
280,0.0
281,0.0
282,0.5929473096061578
283,0.5870331343351387
284,5.283288327401141
618,11694.926127789411
2,1, 1,21, 0,13, 0.00,60.00,WinterDesignDay
191,0.0
192,0.0
193,0.0
194,0.0
195,0.0
196,0.0
197,0.0
198,0.0
199,0.0
200,10.911521322788884
201,13.4569154133646
202,-13.082303713578496
279,0.0
280,0.0
281,0.0
282,0.5923927283352005
283,0.5868696123218881
284,5.2831919420423889
618,11694.926127789411
2,1, 1,21, 0,14, 0.00,60.00,WinterDesignDay
191,0.0
192,0.0
193,0.0
194,0.0
195,0.0
196,0.0
197,0.0
198,0.0
199,0.0
200,10.735016227110137
201,13.431307260841319
202,-13.09278112378495
279,0.0
280,0.0
281,0.0
282,0.5918612343539582
283,0.5867007637094079
284,5.283094723401361
618,11694.926127789411
2,1, 1,21, 0,15, 0.00,60.00,WinterDesignDay
191,0.0
192,0.0
193,0.0
194,0.0
195,0.0
196,0.0
197,0.0
198,0.0
199,0.0
200,10.565948112612905
201,13.40546995876526
202,-13.103249576227722
279,0.0
280,0.0
281,0.0
282,0.5913507092205945
283,0.5865278526785296
284,5.282997091238396
618,11694.926127789411
2,1, 1,21, 0,16, 0.00,60.00,WinterDesignDay
191,0.0
192,0.0
193,0.0
194,0.0
195,0.0
196,0.0
197,0.0
198,0.0
199,0.0
200,10.40369981441304
201,13.379506238857259
202,-13.113681513729924
279,0.0
280,0.0
281,0.0
282,0.590859458706803
283,0.5863519514349451
284,5.282899395713557
618,11694.926127789411
2,1, 1,21, 0,17, 0.00,60.00,WinterDesignDay
191,0.0
192,0.0
193,0.0
194,0.0
195,0.0
196,0.0
197,0.0
198,0.0
199,0.0
200,10.247674840672208
201,13.353504221478975
202,-13.124053047074249
279,0.0
280,0.0
281,0.0
282,0.5903859288004975
283,0.5861739597356819
284,5.282801933145201
618,11694.926127789411
2,1, 1,21, 0,18, 0.00,60.00,WinterDesignDay
191,0.0
192,0.0
193,0.0
194,0.0
195,0.0
196,0.0
197,0.0
198,0.0
199,0.0
200,10.097371887215609
201,13.32753745450709
202,-13.13434499136144
279,0.0
280,0.0
281,0.0
282,0.5899287607473756
283,0.5859946586360976
284,5.282704947318494
618,11694.926127789411
2,1, 1,21, 0,19, 0.00,60.00,WinterDesignDay
191,0.0
192,0.0
193,0.0
194,0.0
195,0.0
196,0.0
197,0.0
198,0.0
199,0.0
200,9.952350376690808
201,13.301668425656251
202,-13.144541198046252
279,0.0
280,0.0
281,0.0
282,0.5894867711636875
283,0.5858147026071888
284,5.282608643687877
618,11694.926127789411
2,1, 1,21, 0,20, 0.00,60.00,WinterDesignDay
191,0.0
192,0.0
193,0.0
194,0.0
195,0.0
196,0.0
197,0.0
198,0.0
199,0.0
200,9.812221332865106
201,13.275949841758191
202,-13.154628390649842
279,0.0
280,0.0
281,0.0
282,0.5890589133704645
283,0.5856346499515894
284,5.2825131908178
618,11694.926127789411
2,1, 1,21, 0,21, 0.00,60.00,WinterDesignDay
191,0.0
192,0.0
193,0.0
194,0.0
195,0.0
196,0.0
197,0.0
198,0.0
199,0.0
200,9.676638936003015
201,13.250426065884997
202,-13.164595690567236
279,0.0
280,0.0
281,0.0
282,0.5886442549031651
283,0.5854549747518965
284,5.282418727640522
618,11694.926127789411
2,1, 1,21, 0,22, 0.00,60.00,WinterDesignDay
191,0.0
192,0.0
193,0.0
194,0.0
195,0.0
196,0.0
197,0.0
198,0.0
199,0.0
200,9.545294151739574
201,13.225134286607336
202,-13.174434290716798
279,0.0
280,0.0
281,0.0
282,0.5882419600833367
283,0.5852760793265487
284,5.282325367511029
618,11694.926127789411
2,1, 1,21, 0,23, 0.00,60.00,WinterDesignDay
191,0.0
192,0.0
193,0.0
194,0.0
195,0.0
196,0.0
197,0.0
198,0.0
199,0.0
200,9.417909502109755
201,13.200105516640486
202,-13.18413715313998
279,0.0
280,0.0
281,0.0
282,0.5878512760830096
283,0.5850983043070636
284,5.282233202115998
618,11694.926127789411
2,1, 1,21, 0,24, 0.00,60.00,WinterDesignDay
191,0.0
192,0.0
193,0.0
194,0.0
195,0.0
196,0.0
197,0.0
198,0.0
199,0.0
200,9.294234780026699
201,13.175365439243637
202,-13.193698756893497
279,0.0
280,0.0
281,0.0
282,0.5874715215534798
283,0.5849219372144656
284,5.2821423046159989
618,11694.926127789411
1,BAKER.MUNI.AP ANN CLG .4% CONDNS DB=>MWB,  46.35,-104.27,  -7.00, 906.00
2,1, 7,21, 0, 1, 0.00,60.00,SummerDesignDay
191,0.0
192,0.0
193,0.0
194,0.0
195,0.0
196,0.0
197,0.0
198,0.0
199,0.0
200,21.587111158253796
201,34.48493941958537
202,23.625017892190976
279,0.0
280,0.0
281,0.0
282,0.9346287961727727
283,0.4806315070163622
284,6.648427146132432
618,268.6550317631766
2,1, 7,21, 0, 2, 0.00,60.00,SummerDesignDay
191,0.0
192,0.0
193,0.0
194,0.0
195,0.0
196,0.0
197,0.0
198,0.0
199,0.0
200,21.39408256570379
201,33.5522114256608
202,22.76995485469562
279,0.0
280,0.0
281,0.0
282,0.9354674791149861
283,0.4778037232802327
284,6.647547165964874
618,268.6550317631766
2,1, 7,21, 0, 3, 0.00,60.00,SummerDesignDay
191,0.0
192,0.0
193,0.0
194,0.0
195,0.0
196,0.0
197,0.0
198,0.0
199,0.0
200,21.212184188259927
201,32.664497896089368
202,22.090892259612276
279,0.0
280,0.0
281,0.0
282,0.935833886201518
283,0.47397375112463765
284,6.647100087419466
618,268.6550317631766
2,1, 7,21, 0, 4, 0.00,60.00,SummerDesignDay
191,0.0
192,0.0
193,0.0
194,0.0
195,0.0
196,0.0
197,0.0
198,0.0
199,0.0
200,21.02668987268259
201,31.801776794110166
202,21.472211419143887
279,0.0
280,0.0
281,0.0
282,0.9362278202712909
283,0.47061310302646999
284,6.647987416035321
618,268.6550317631766
2,1, 7,21, 0, 5, 0.00,60.00,SummerDesignDay
191,0.0
192,0.0
193,0.0
194,0.0
195,0.0
196,0.0
197,0.0
198,0.0
199,0.0
200,20.857650996431798
201,30.971846137351077
202,20.960668398147165
279,0.0
280,0.0
281,0.0
282,0.9361613051001317
283,0.46607100981184
284,6.647609379331003
618,268.6550317631766
2,1, 7,21, 0, 6, 0.00,60.00,SummerDesignDay
191,0.0
192,0.0
193,0.0
194,1952.058101158358
195,7027409.164170089
196,6734589.998602674
197,0.0
198,0.0
199,0.0
200,20.777493482943148
201,30.897105840174917
202,21.769406341261765
279,0.0
280,0.0
281,0.0
282,0.9342797373039496
283,0.4571009887005959
284,6.662594879396478
618,268.6550317631766
2,1, 7,21, 0, 7, 0.00,60.00,SummerDesignDay
191,0.0
192,0.0
193,0.0
194,2584.8413515365039
195,9305428.865531413
196,9635058.614803253
197,0.0
198,0.0
199,0.0
200,20.879124960034035
201,31.166647428853218
202,24.2094941202704
279,0.0
280,0.0
281,0.0
282,0.930892412636112
283,0.4475044211428498
284,6.693896947785987
618,268.6550317631766
2,1, 7,21, 0, 8, 0.00,60.00,SummerDesignDay
191,0.0
192,0.0
193,0.0
194,2843.345526128958
195,10236043.89406425
196,11033837.409774306
197,0.0
198,0.0
199,0.0
200,21.222245809837238
201,31.650078093332028
202,27.973162618528236
279,142.05871726509617
280,0.0
281,0.0
282,0.923529337721046
283,0.4305762733732815
284,6.720577469431393
618,268.6550317631766
2,1, 7,21, 0, 9, 0.00,60.00,SummerDesignDay
191,0.0
192,0.0
193,0.0
194,2955.479009738814
195,10639724.43505973
196,12256173.217196476
197,0.0
198,0.0
199,0.0
200,21.611382452321487
201,32.35464984042743
202,32.2570327073188
279,308.78910159769085
280,0.0
281,0.0
282,0.9155131493940124
283,0.42004875270203448
284,6.751073844645808
618,268.6550317631766
2,1, 7,21, 0,10, 0.00,60.00,SummerDesignDay
191,0.0
192,0.0
193,0.0
194,2867.7860498327579
195,10324029.779397928
196,12564494.052836
197,0.0
198,0.0
199,0.0
200,22.002147091154169
201,33.19213116047053
202,36.61031570647257
279,452.55711997514569
280,0.0
281,0.0
282,0.9088529496081065
283,0.41401849227370837
284,6.789516518248794
618,268.6550317631766
2,1, 7,21, 0,11, 0.00,60.00,SummerDesignDay
191,0.0
192,0.0
193,0.0
194,2526.185394098661
195,9094267.41875518
196,11571753.34072678
197,0.0
198,0.0
199,0.0
200,22.38526086890522
201,34.05696594218485
202,40.45485669065571
279,574.9777466805517
280,0.0
281,0.0
282,0.9032602199298626
283,0.41221552622397786
284,6.821321809040165
618,268.6550317631766
2,1, 7,21, 0,12, 0.00,60.00,SummerDesignDay
191,0.0
192,0.0
193,0.0
194,2190.4083353852536
195,7885470.007386913
196,9923115.07128296
197,0.0
198,0.0
199,0.0
200,22.704252555695868
201,34.848229226127987
202,43.383218248974
279,651.718110159021
280,0.0
281,0.0
282,0.900005436533109
283,0.41179357313186878
284,6.8488395374204249
618,268.6550317631766
2,1, 7,21, 0,13, 0.00,60.00,SummerDesignDay
191,0.0
192,0.0
193,0.0
194,2170.8163410708336
195,7814938.827855
196,9864911.693262445
197,0.0
198,0.0
199,0.0
200,22.999375656191476
201,35.6862976146217
202,45.385794083683318
279,710.1189629171079
280,0.0
281,0.0
282,0.8976067178682511
283,0.4116913523438577
284,6.862389178695435
618,268.6550317631766
2,1, 7,21, 0,14, 0.00,60.00,SummerDesignDay
191,0.0
192,0.0
193,0.0
194,2480.7751319638789
195,8930790.475069965
196,11592357.017410603
197,0.0
198,0.0
199,0.0
200,23.256180936037688
201,36.676806225309608
202,46.41056738114045
279,742.0373197477998
280,0.0
281,0.0
282,0.8965779704567857
283,0.41262157641213428
284,6.863737318456448
618,268.6550317631766
2,1, 7,21, 0,15, 0.00,60.00,SummerDesignDay
191,0.0
192,0.0
193,0.0
194,2841.892806881915
195,10230814.104774895
196,12792271.15573879
197,0.0
198,0.0
199,0.0
200,23.451086620268879
201,37.71212118036682
202,46.33950556972918
279,730.3005268881468
280,0.0
281,0.0
282,0.897865879662478
283,0.4151911849897981
284,6.856430746401329
618,268.6550317631766
2,1, 7,21, 0,16, 0.00,60.00,SummerDesignDay
191,0.0
192,0.0
193,0.0
194,2953.6468508289365
195,10633128.66298417
196,12583840.654663269
197,0.0
198,0.0
199,0.0
200,23.555352259657828
201,38.613387923725088
202,45.055626624259868
279,666.7869946993319
280,0.0
281,0.0
282,0.9016862870687709
283,0.42113859480940499
284,6.841014330526827
618,268.6550317631766
2,1, 7,21, 0,17, 0.00,60.00,SummerDesignDay
191,0.0
192,0.0
193,0.0
194,2863.9762794807786
195,10310314.606130803
196,11473942.354456636
197,0.0
198,0.0
199,0.0
200,23.610886500384358
201,39.29422876548521
202,42.787037157288818
279,586.4468316233267
280,0.0
281,0.0
282,0.9062573650651669
283,0.4315164827582937
284,6.811929914167264
618,268.6550317631766
2,1, 7,21, 0,18, 0.00,60.00,SummerDesignDay
191,0.0
192,0.0
193,0.0
194,2623.469568180877
195,9444490.445451158
196,10115817.056360586
197,0.0
198,0.0
199,0.0
200,23.608337963595316
201,39.741849772314527
202,39.701748952969797
279,489.30181083065818
280,0.0
281,0.0
282,0.9113936965272121
283,0.4429416358663328
284,6.7718648189876389
618,268.6550317631766
2,1, 7,21, 0,19, 0.00,60.00,SummerDesignDay
191,0.0
192,0.0
193,0.0
194,2058.315944601384
195,7409937.4005649839
196,7232732.667178994
197,0.0
198,0.0
199,0.0
200,23.49435031234995
201,39.78078284923901
202,35.86582403714328
279,348.55267023080156
280,0.0
281,0.0
282,0.9186871088831708
283,0.4645560481291445
284,6.735038545069104
618,268.6550317631766
2,1, 7,21, 0,20, 0.00,60.00,SummerDesignDay
191,0.0
192,0.0
193,0.0
194,401.3356838317891
195,1444808.4617944407
196,0.0
197,0.0
198,0.0
199,0.0
200,23.387845887377144
201,39.10297635087704
202,32.287391076609747
279,245.2603192442046
280,0.0
281,0.0
282,0.9238302846102456
283,0.4746119868440607
284,6.6920654747798589
618,268.6550317631766
2,1, 7,21, 0,21, 0.00,60.00,SummerDesignDay
191,0.0
192,0.0
193,0.0
194,0.0
195,0.0
196,0.0
197,0.0
198,0.0
199,0.0
200,23.23502429731717
201,38.2219554159822
202,29.483331073168089
279,164.03785014836434
280,0.0
281,0.0
282,0.9274141843846463
283,0.4773366393536743
284,6.662686301697189
618,268.6550317631766
2,1, 7,21, 0,22, 0.00,60.00,SummerDesignDay
191,0.0
192,0.0
193,0.0
194,0.0
195,0.0
196,0.0
197,0.0
198,0.0
199,0.0
200,23.03943531607426
201,37.32902002149949
202,27.45862418507905
279,84.89416305406547
280,0.0
281,0.0
282,0.9307934757256489
283,0.47968486463074708
284,6.651973217018606
618,268.6550317631766
2,1, 7,21, 0,23, 0.00,60.00,SummerDesignDay
191,0.0
192,0.0
193,0.0
194,0.0
195,0.0
196,0.0
197,0.0
198,0.0
199,0.0
200,22.8487919791233
201,36.4297230556076
202,26.00434643679349
279,25.39651700325434
280,0.0
281,0.0
282,0.9331898687643171
283,0.48016644058454147
284,6.647422481521992
618,268.6550317631766
2,1, 7,21, 0,24, 0.00,60.00,SummerDesignDay
191,0.0
192,0.0
193,0.0
194,0.0
195,0.0
196,0.0
197,0.0
198,0.0
199,0.0
200,22.632898412062056
201,35.50092571313125
202,24.708579298815743
279,0.0
280,0.0
281,0.0
282,0.9355437023118393
283,0.48123035303707398
284,6.646966116517865
618,268.6550317631766
1,SUB-ANNUAL,  46.35,-104.27,  -7.00, 906.00
2,1, 1, 1, 0, 1, 0.00,60.00,Sunday
191,0.0
192,0.0
193,0.0
194,0.0
195,0.0
196,0.0
197,0.0
198,0.0
199,0.0
200,15.627208848796313
201,20.55242137508106
202,0.5235902506240856
279,0.0
280,0.0
281,0.0
282,0.7817234579933017
283,0.5932340979097429
284,8.434317545035576
618,8840.493803392124
2,1, 1, 1, 0, 2, 0.00,60.00,Sunday
191,0.0
192,0.0
193,0.0
194,0.0
195,0.0
196,0.0
197,0.0
198,0.0
199,0.0
200,15.429628727155059
201,20.552204752218086
202,-0.0291482526113357
279,0.0
280,0.0
281,0.0
282,0.6995110625253815
283,0.5674772844926984
284,7.321936860753799
618,8867.516790192823
2,1, 1, 1, 0, 3, 0.00,60.00,Sunday
191,0.0
192,0.0
193,0.0
194,0.0
195,0.0
196,0.0
197,0.0
198,0.0
199,0.0
200,15.103137409773053
201,20.553121366641375
202,-0.342662118278346
279,0.0
280,0.0
281,0.0
282,0.7057157673493754
283,0.5307186360680312
284,6.002760799156263
618,8584.818954532913
2,1, 1, 1, 0, 4, 0.00,60.00,Sunday
191,0.0
192,0.0
193,0.0
194,0.0
195,0.0
196,0.0
197,0.0
198,0.0
199,0.0
200,15.134318172951526
201,20.55314639396107
202,0.6391217685774013
279,0.0
280,0.0
281,0.0
282,0.6204257272706663
283,0.48239046282233569
284,3.9064666064256885
618,8242.395114065272
2,1, 1, 1, 0, 5, 0.00,60.00,Sunday
191,0.0
192,0.0
193,0.0
194,0.0
195,0.0
196,0.0
197,0.0
198,0.0
199,0.0
200,14.841563481465859
201,20.552732460389519
202,0.11317484995968562
279,0.0
280,0.0
281,0.0
282,0.6431992727802585
283,0.5109339398120988
284,5.03218849775805
618,8453.810073882045
2,1, 1, 1, 0, 6, 0.00,60.00,Sunday
191,0.0
192,0.0
193,0.0
194,0.0
195,0.0
196,0.0
197,0.0
198,0.0
199,0.0
200,14.330637292510179
201,20.552474448372516
202,-0.6462244187222455
279,0.0
280,0.0
281,0.0
282,0.7692701321684404
283,0.5648209931994764
284,8.317744717038523
618,8825.904237440916
2,1, 1, 1, 0, 7, 0.00,60.00,Sunday
191,0.0
192,0.0
193,0.0
194,0.0
195,0.0
196,0.0
197,0.0
198,0.0
199,0.0
200,12.403609752288459
201,20.548669911568639
202,-2.2754445839162957
279,0.0
280,0.0
281,0.0
282,1.4146897589098154
283,0.746330031503527
284,15.01804073818362
618,10218.981440600033
2,1, 1, 1, 0, 8, 0.00,60.00,Sunday
191,0.0
192,0.0
193,0.0
194,0.0
195,0.0
196,0.0
197,0.0
198,0.0
199,0.0
200,13.250568782623004
201,20.55433148555526
202,-1.3722297301457929
279,0.0
280,0.0
281,0.0
282,1.0283505966287423
283,0.6305216515394685
284,11.976489552326898
618,9434.903126660025
2,1, 1, 1, 0, 9, 0.00,60.00,Sunday
191,0.0
192,0.0
193,0.0
194,1339.7485386199888
195,4823094.739031959
196,1595515.3424132488
197,0.0
198,0.0
199,0.0
200,11.868186840285432
201,20.550703980309526
202,-0.9253789658549975
279,0.0
280,0.0
281,0.0
282,1.4385741064464999
283,0.7614243814952397
284,11.716761728476527
618,9534.582131803954
2,1, 1, 1, 0,10, 0.00,60.00,Sunday
191,0.0
192,0.0
193,0.0
194,2495.6493193929466
195,8984337.549814607
196,6494202.333131417
197,0.0
198,0.0
199,0.0
200,11.21383484035722
201,20.55255795822351
202,-0.5658392416279137
279,0.0
280,0.0
281,0.0
282,1.569184246057437
283,0.8229859669034418
284,12.258456459799414
618,9120.539704925864
2,1, 1, 1, 0,11, 0.00,60.00,Sunday
191,0.0
192,0.0
193,0.0
194,3062.426486917487
195,11024735.352902955
196,8853080.017993849
197,0.0
198,0.0
199,0.0
200,10.95215575691706
201,20.55105418186642
202,-0.060170924453634217
279,0.0
280,0.0
281,0.0
282,1.4593114747990668
283,0.7987676521429442
284,11.30222552043622
618,8254.035683839265
2,1, 1, 1, 0,12, 0.00,60.00,Sunday
191,0.0
192,0.0
193,0.0
194,2397.585616524163
195,8631308.219486988
196,5568943.017805066
197,0.0
198,0.0
199,0.0
200,11.510375778709318
201,20.557251773331936
202,-0.8222444639814689
279,0.0
280,0.0
281,0.0
282,1.1371015003099896
283,0.6408835919537589
284,11.756866611372955
618,6825.323310677413
2,1, 1, 1, 0,13, 0.00,60.00,Sunday
191,0.0
192,0.0
193,0.0
194,327.248420206015
195,1178094.312741654
196,0.0
197,0.0
198,0.0
199,0.0
200,11.522438141391064
201,20.553156920111904
202,-1.3467612305394779
279,0.0
280,0.0
281,0.0
282,1.0427103219603409
283,0.6255743405970817
284,10.604166160519448
618,7762.351796273729
2,1, 1, 1, 0,14, 0.00,60.00,Sunday
191,0.0
192,0.0
193,0.0
194,256.88013558767877
195,924768.4881156435
196,0.0
197,0.0
198,0.0
199,0.0
200,12.181271133727736
201,20.55272469296277
202,-0.3625219180272657
279,0.0
280,0.0
281,0.0
282,0.7654921718362903
283,0.5501638279757415
284,5.835710915288353
618,8020.665873637603
2,1, 1, 1, 0,15, 0.00,60.00,Sunday
191,0.0
192,0.0
193,0.0
194,202.00840019340354
195,727230.2406962527
196,0.0
197,0.0
198,0.0
199,0.0
200,12.411995136025493
201,20.552660807716277
202,-0.536475034145671
279,0.0
280,0.0
281,0.0
282,0.7029746150435151
283,0.5381149079699719
284,6.036049663972336
618,7950.963264893139
2,1, 1, 1, 0,16, 0.00,60.00,Sunday
191,0.0
192,0.0
193,0.0
194,118.00436828203407
195,424815.72581532268
196,0.0
197,0.0
198,0.0
199,0.0
200,12.335488955788583
201,20.55292064584593
202,-0.25180254556722955
279,0.0
280,0.0
281,0.0
282,0.7624093812104232
283,0.537623963797417
284,7.020262000310991
618,7981.161683471908
2,1, 1, 1, 0,17, 0.00,60.00,Sunday
191,0.0
192,0.0
193,0.0
194,0.0
195,0.0
196,0.0
197,0.0
198,0.0
199,0.0
200,13.040790462490153
201,20.553282723962739
202,1.6960068643260838
279,0.0
280,0.0
281,0.0
282,0.4830602219576963
283,0.4572032320111966
284,2.711853899902232
618,7715.944896775924
2,1, 1, 1, 0,18, 0.00,60.00,Sunday
191,0.0
192,0.0
193,0.0
194,0.0
195,0.0
196,0.0
197,0.0
198,0.0
199,0.0
200,13.394345891162953
201,20.55342647707039
202,2.354539304826641
279,0.0
280,0.0
281,0.0
282,0.37100671995893066
283,0.4392958795207459
284,1.36311404256035
618,7625.892888955288
2,1, 1, 1, 0,19, 0.00,60.00,Sunday
191,0.0
192,0.0
193,0.0
194,0.0
195,0.0
196,0.0
197,0.0
198,0.0
199,0.0
200,12.89510452792215
201,20.553244140564055
202,1.4152751533649644
279,0.0
280,0.0
281,0.0
282,0.5656623005569981
283,0.4961164037072688
284,5.2061876869027
618,7942.951387189462
2,1, 1, 1, 0,20, 0.00,60.00,Sunday
191,0.0
192,0.0
193,0.0
194,0.0
195,0.0
196,0.0
197,0.0
198,0.0
199,0.0
200,12.019858686167425
201,20.553383386821076
202,1.2308081684888606
279,0.0
280,0.0
281,0.0
282,1.0050675573317996
283,0.5480927197675741
284,10.315163046936512
618,8092.126567596945
2,1, 1, 1, 0,21, 0.00,60.00,Sunday
191,0.0
192,0.0
193,0.0
194,0.0
195,0.0
196,0.0
197,0.0
198,0.0
199,0.0
200,11.98455860064468
201,20.553154300109488
202,1.5191465805725478
279,0.0
280,0.0
281,0.0
282,1.010413679662683
283,0.5524975924836896
284,10.372302004231523
618,8130.569169475083
2,1, 1, 1, 0,22, 0.00,60.00,Sunday
191,0.0
192,0.0
193,0.0
194,0.0
195,0.0
196,0.0
197,0.0
198,0.0
199,0.0
200,11.991745821070908
201,20.55322017522525
202,2.1204884498165494
279,0.0
280,0.0
281,0.0
282,1.0058942445668298
283,0.5458819241184917
284,10.348913131831557
618,7920.678035383776
2,1, 1, 1, 0,23, 0.00,60.00,Sunday
191,0.0
192,0.0
193,0.0
194,0.0
195,0.0
196,0.0
197,0.0
198,0.0
199,0.0
200,12.41736828387857
201,20.55372611367751
202,3.4669890341611238
279,0.0
280,0.0
281,0.0
282,0.8052270146279348
283,0.48483529852882698
284,7.958524142604834
618,7348.227019533914
2,1, 1, 1, 0,24, 0.00,60.00,Sunday
191,0.0
192,0.0
193,0.0
194,0.0
195,0.0
196,0.0
197,0.0
198,0.0
199,0.0
200,12.58303869162276
201,20.55342507567493
202,5.391086127090529
279,0.0
280,0.0
281,0.0
282,0.6961870657271624
283,0.5006546375744715
284,3.9912469561557066
618,7352.996413144831
End of Data
 Number of Records Written=        1368
