Program Version,EnergyPlus, Version 22.2.0-c249759bad, YMD=2023.09.01 18:03
1,5,Environment Title[],Latitude[deg],Longitude[deg],Time Zone[],Elevation[m]
2,8,Day of Simulation[],Month[],Day of Month[],DST Indicator[1=yes 0=no],Hour[],StartMinute[],EndMinute[],DayType
3,5,Cumulative Day of Simulation[],Month[],Day of Month[],DST Indicator[1=yes 0=no],DayType  ! When Daily Report Variables Requested
4,2,Cumulative Days of Simulation[],Month[]  ! When Monthly Report Variables Requested
5,1,Cumulative Days of Simulation[] ! When Run Period Report Variables Requested
6,1,Calendar Year of Simulation[] ! When Annual Report Variables Requested
581,11,LIVING,AFN Zone Infiltration Air Change Rate [ach] !RunPeriod [Value,Min,Month,Day,Hour,Minute,Max,Month,Day,Hour,Minute]
582,11,ATTIC,AFN Zone Infiltration Air Change Rate [ach] !RunPeriod [Value,Min,Month,Day,Hour,Minute,Max,Month,Day,Hour,Minute]
583,11,CRAWLSPACE,AFN Zone Infiltration Air Change Rate [ach] !RunPeriod [Value,Min,Month,Day,Hour,Minute,Max,Month,Day,Hour,Minute]
1038,11,Facility,Facility Heating Setpoint Not Met Time [hr] !RunPeriod [Value,Min,Month,Day,Hour,Minute,Max,Month,Day,Hour,Minute]
1039,11,Facility,Facility Cooling Setpoint Not Met Time [hr] !RunPeriod [Value,Min,Month,Day,Hour,Minute,Max,Month,Day,Hour,Minute]
1115,11,DX_HEATING_COIL,Heating Coil Heating Energy [J] !RunPeriod [Value,Min,Month,Day,Hour,Minute,Max,Month,Day,Hour,Minute]
1128,11,DX_HEATING_COIL,Heating Coil Electricity Energy [J] !RunPeriod [Value,Min,Month,Day,Hour,Minute,Max,Month,Day,Hour,Minute]
1153,11,DX_HEATING_COIL,Heating Coil Defrost Electricity Energy [J] !RunPeriod [Value,Min,Month,Day,Hour,Minute,Max,Month,Day,Hour,Minute]
1154,11,DX_HEATING_COIL,Heating Coil Crankcase Heater Electricity Energy [J] !RunPeriod [Value,Min,Month,Day,Hour,Minute,Max,Month,Day,Hour,Minute]
1155,11,HEATING_RESISTANCE_BACKUP,Heating Coil Heating Energy [J] !RunPeriod [Value,Min,Month,Day,Hour,Minute,Max,Month,Day,Hour,Minute]
1156,11,HEATING_RESISTANCE_BACKUP,Heating Coil Electricity Energy [J] !RunPeriod [Value,Min,Month,Day,Hour,Minute,Max,Month,Day,Hour,Minute]
1292,11,WATER HEATER,Water Heater Heat Loss Energy [J] !RunPeriod [Value,Min,Month,Day,Hour,Minute,Max,Month,Day,Hour,Minute]
1306,11,WATER HEATER,Water Heater Heating Energy [J] !RunPeriod [Value,Min,Month,Day,Hour,Minute,Max,Month,Day,Hour,Minute]
1307,11,WATER HEATER,Water Heater Unmet Demand Heat Transfer Energy [J] !RunPeriod [Value,Min,Month,Day,Hour,Minute,Max,Month,Day,Hour,Minute]
1308,11,WATER HEATER,Water Heater Electricity Energy [J] !RunPeriod [Value,Min,Month,Day,Hour,Minute,Max,Month,Day,Hour,Minute]
13,11,Electricity:Facility [J] !RunPeriod [Value,Min,Month,Day,Hour,Minute,Max,Month,Day,Hour,Minute]
1134,11,Heating:Electricity [J] !RunPeriod [Value,Min,Month,Day,Hour,Minute,Max,Month,Day,Hour,Minute]
1096,11,Cooling:Electricity [J] !RunPeriod [Value,Min,Month,Day,Hour,Minute,Max,Month,Day,Hour,Minute]
562,11,Fans:Electricity [J] !RunPeriod [Value,Min,Month,Day,Hour,Minute,Max,Month,Day,Hour,Minute]
1379,11,Pumps:Electricity [J] !RunPeriod [Value,Min,Month,Day,Hour,Minute,Max,Month,Day,Hour,Minute]
1326,11,WaterSystems:Electricity [J] !RunPeriod [Value,Min,Month,Day,Hour,Minute,Max,Month,Day,Hour,Minute]
61,11,InteriorLights:Electricity [J] !RunPeriod [Value,Min,Month,Day,Hour,Minute,Max,Month,Day,Hour,Minute]
1046,11,ExteriorLights:Electricity [J] !RunPeriod [Value,Min,Month,Day,Hour,Minute,Max,Month,Day,Hour,Minute]
134,11,InteriorEquipment:Electricity [J] !RunPeriod [Value,Min,Month,Day,Hour,Minute,Max,Month,Day,Hour,Minute]
170,11,gas_dryer:InteriorEquipment:Electricity [J] !RunPeriod [Value,Min,Month,Day,Hour,Minute,Max,Month,Day,Hour,Minute]
207,11,clotheswasher:InteriorEquipment:Electricity [J] !RunPeriod [Value,Min,Month,Day,Hour,Minute,Max,Month,Day,Hour,Minute]
244,11,dishwasher:InteriorEquipment:Electricity [J] !RunPeriod [Value,Min,Month,Day,Hour,Minute,Max,Month,Day,Hour,Minute]
281,11,refrigerator:InteriorEquipment:Electricity [J] !RunPeriod [Value,Min,Month,Day,Hour,Minute,Max,Month,Day,Hour,Minute]
318,11,electric_mels:InteriorEquipment:Electricity [J] !RunPeriod [Value,Min,Month,Day,Hour,Minute,Max,Month,Day,Hour,Minute]
355,11,NaturalGas:Facility [J] !RunPeriod [Value,Min,Month,Day,Hour,Minute,Max,Month,Day,Hour,Minute]
403,11,InteriorEquipment:NaturalGas [J] !RunPeriod [Value,Min,Month,Day,Hour,Minute,Max,Month,Day,Hour,Minute]
476,11,gas_dryer:InteriorEquipment:NaturalGas [J] !RunPeriod [Value,Min,Month,Day,Hour,Minute,Max,Month,Day,Hour,Minute]
513,11,gas_mels:InteriorEquipment:NaturalGas [J] !RunPeriod [Value,Min,Month,Day,Hour,Minute,Max,Month,Day,Hour,Minute]
End of Data Dictionary
1,EXTREME_WINTER,  43.57,-116.21,  -7.00, 857.70
5,7
1038,0.25,0.0,12,15, 1,15,0.25,12,18, 6,15
1039,0.0,0.0,12,15, 1,15,0.0,12,15, 1,15
581,0.39697296158696205,0.2447553042750145,12,16,23, 7,0.7804509350253584,12,19,10,60
582,3.6818407992016606,0.0,12,17,22,30,15.421349303758133,12,19,18,60
583,0.07049394566174859,0.00040619928110146756,12,16,23, 7,0.10127914382036957,12,19,10,60
1115,2254976049.5349813,0.0,12,15,23, 3,4943511.155568887,12,16,11,30
1128,772218695.6272116,0.0,12,15,23, 3,1571767.2746729942,12,16,11,30
1153,21106643.352121174,0.0,12,15,23, 3,80261.60284352885,12,15, 6,45
1154,30200348.26949628,0.0,12,15, 6, 5,159663.55441546388,12,17,16,30
1155,182732629.4816879,0.0,12,15, 1,15,3395472.2259413223,12,18, 6,45
1156,182732629.4816879,0.0,12,15, 1,15,3395472.2259413223,12,18, 6,45
1292,-25370010.60056177,-39752.139717029764,12,15, 1,15,-5187.872077864324,12,20,15,60
1306,222819380.17190164,0.0,12,15, 1,15,4050000.0,12,15, 7,60
1307,35755471.49310767,0.0,12,15, 1,15,6539014.0978194345,12,21, 9,45
1308,222819380.17190164,0.0,12,15, 1,15,4050000.0,12,15, 7,60
13,1686019299.777734,751473.4908413165,12,17,16,30,9507541.797226463,12,18, 7,60
61,301924526.02383536,88139.10953165221,12,15, 1,15,1282023.4113694867,12,15,20,15
134,70666020.44019976,63564.01800854099,12,15, 4,15,156554.22484006523,12,20,20,15
170,5241013.419656067,348.4159749238097,12,15, 4,15,17476.39704006126,12,20,12,15
207,6509451.13922267,815.2532113832032,12,15, 3,15,22990.642799023623,12,20,10,15
244,12749673.399825225,1521.856143006317,12,15, 4,15,53038.631142310165,12,20,20,15
281,46165882.481495745,59938.60262432081,12,15, 5,15,81951.81706819107,12,15,19,15
318,0.0,0.0,12,15, 1,15,0.0,12,15, 1,15
355,197687796.27748066,18561.32405820678,12,15, 4,15,724774.895203776,12,20,18,15
403,197687796.27748066,18561.32405820678,12,15, 4,15,724774.895203776,12,20,18,15
476,106772067.24485716,7098.072629279515,12,15, 4,15,356036.3026282215,12,20,12,15
513,0.0,0.0,12,15, 1,15,0.0,12,15, 1,15
562,84351056.41128156,15453.979209116704,12,17,17,15,168016.06555125143,12,15,10,30
1046,0.0,0.0,12,15, 1,15,0.0,12,15, 1,15
1096,0.0,0.0,12,15, 1,15,0.0,12,15, 1,15
1134,1006258316.7305168,309651.4761811601,12,17,17,15,5605171.367539661,12,18, 6,15
1326,222819380.1719017,0.0,12,15, 1,15,4050000.0,12,15, 7,60
1379,0.0,0.0,12,15, 1,15,0.0,12,15, 1,15
1,EXTREME_SUMMER,  43.57,-116.21,  -7.00, 857.70
5,7
1038,0.0,0.0, 7,20, 1,15,0.0, 7,20, 1,15
1039,10.0,0.0, 7,20, 1,15,0.25, 7,21,17,60
581,0.13146079977350963,0.0, 7,25,23, 3,0.3876748284098253, 7,26,13,52
582,2.8453391767281806,0.06912678735026456, 7,21,21,27,8.620224902236396, 7,26,18,48
583,0.04284659097547516,0.0, 7,25,23, 3,0.08899505252594352, 7,26,19,18
1115,0.0,0.0, 7,20, 1, 7,0.0, 7,20, 1, 7
1128,0.0,0.0, 7,20, 1, 7,0.0, 7,20, 1, 7
1153,0.0,0.0, 7,20, 1, 7,0.0, 7,20, 1, 7
1154,0.0,0.0, 7,20, 1, 7,0.0, 7,20, 1, 7
1155,0.0,0.0, 7,20, 1, 7,0.0, 7,20, 1, 7
1156,0.0,0.0, 7,20, 1, 7,0.0, 7,20, 1, 7
1292,-22077624.459982228,-34336.8282167813, 7,26,14,15,-3067.906723114457, 7,21,10,14
1306,171343952.1707978,0.0, 7,20, 1, 7,4050000.0, 7,24, 6,60
1307,16946301.31898142,0.0, 7,20, 1, 7,2002532.9720104935, 7,26,19,52
1308,171343952.1707978,0.0, 7,20, 1, 7,4050000.0, 7,24, 6,60
13,1158270769.5884833,151703.1275401932, 7,20, 4,60,7300697.2345658075, 7,21,20,15
61,301924526.02383536,88139.10953165221, 7,20, 1,15,1282023.4113694867, 7,20,20,15
134,70666020.44019976,63564.01800854099, 7,20, 4,15,156554.22484006523, 7,25,20,15
170,5241013.419656067,348.4159749238097, 7,20, 4,15,17476.39704006126, 7,25,12,15
207,6509451.13922267,815.2532113832032, 7,20, 3,15,22990.642799023623, 7,25,10,15
244,12749673.399825225,1521.856143006317, 7,20, 4,15,53038.631142310165, 7,25,20,15
281,46165882.481495745,59938.60262432081, 7,20, 5,15,81951.81706819107, 7,20,19,15
318,0.0,0.0, 7,20, 1,15,0.0, 7,20, 1,15
355,197687796.27748066,18561.32405820678, 7,20, 4,15,724774.895203776, 7,25,18,15
403,197687796.27748066,18561.32405820678, 7,20, 4,15,724774.895203776, 7,25,18,15
476,106772067.24485716,7098.072629279515, 7,20, 4,15,356036.3026282215, 7,25,12,15
513,0.0,0.0, 7,20, 1,15,0.0, 7,20, 1,15
562,56054531.28945316,0.0, 7,20, 4,60,168016.06555125146, 7,21,19,60
1046,0.0,0.0, 7,20, 1,15,0.0, 7,20, 1,15
1096,558281739.6641971,0.0, 7,20, 4,60,2021126.1992532203, 7,22,15,60
1134,0.0,0.0, 7,20, 1,15,0.0, 7,20, 1,15
1326,171343952.17079782,0.0, 7,20, 1,15,4050000.0, 7,21,20,30
1379,0.0,0.0, 7,20, 1,15,0.0, 7,20, 1,15
1,ANNUAL,  43.57,-116.21,  -7.00, 857.70
5,365
1038,2.0,0.0, 1, 1, 1,15,0.25, 1, 1, 6,15
1039,151.5,0.0, 1, 1, 1,15,0.25, 3, 4,14,45
581,0.24437913282807414,0.0, 6, 8,23, 3,1.2858638697907046, 5,21,16,49
582,3.5837441047347824,0.0, 1, 2,24,45,33.177610613776395,10,17, 9,60
583,0.02852015725310685,0.0, 6, 8,23, 3,0.10545767524355112, 8, 3,19,47
1115,22872155834.332417,0.0, 1, 1,23, 5,5090522.154833231,12,25,10,45
1128,7294951650.128215,0.0, 1, 1,23, 5,1598262.8419685883,12,25,10,45
1153,338292394.3343734,0.0, 1, 1,23, 5,137855.50908322516, 1,19, 6,45
1154,2129123111.8034081,0.0, 1, 1, 1, 7,180000.0, 1, 7,14,15
1155,720348921.1079406,0.0, 1, 1,12,18,3767658.5233158255,12,27, 6,30
1156,720348921.1079406,0.0, 1, 1,12,18,3767658.5233158255,12,27, 6,30
1292,-1229709690.9951563,-39775.72813855666, 2,13, 5,15,-2224.961562274442, 5,28,16,45
1306,10616443419.062382,0.0, 1, 1, 1, 7,4050000.0, 1, 1, 9,60
1307,1493244229.6499777,0.0, 1, 1, 1, 7,12108146.969100168, 3, 5,19,60
1308,10616443419.062382,0.0, 1, 1, 1, 7,4050000.0, 1, 1, 9,60
13,51009161197.028175,151703.1275401932, 3, 6, 4,15,9750410.544652877,12,18, 7,60
61,15743207428.383959,88139.10953165221, 1, 1, 1,15,1282023.4113694867, 1, 1,20,15
134,3685071073.4325233,63564.01800854099, 1, 2, 4,15,156554.22484006523, 1, 1,20,15
170,273393721.45532674,348.4159749238097, 1, 2, 4,15,17476.39704006126, 1, 1,12,15
207,339560869.0695816,815.2532113832032, 1, 2, 3,15,22990.642799023623, 1, 1,10,15
244,664895467.8009144,1521.856143006317, 1, 2, 4,15,53038.631142310165, 1, 1,20,15
281,2407221015.106824,59938.60262432081, 1, 1, 5,15,81951.81706819107, 1, 1,19,15
318,0.0,0.0, 1, 1, 1,15,0.0, 1, 1, 1,15
355,10310294493.051695,18561.32405820678, 1, 2, 4,15,724774.895203776, 1, 1,18,15
403,10310294493.051695,18561.32405820678, 1, 2, 4,15,724774.895203776, 1, 1,18,15
476,5569688622.066177,7098.072629279515, 1, 2, 4,15,356036.3026282215, 1, 1,12,15
513,0.0,0.0, 1, 1, 1,15,0.0, 1, 1, 1,15
562,1778017176.8320959,0.0, 1, 7,13,15,168016.0655512515, 8, 3,19,30
1046,0.0,0.0, 1, 1, 1,15,0.0, 1, 1, 1,15
1096,8703706021.941422,0.0, 1, 1, 1,15,2044222.288314717, 7,18,14,60
1134,10482716077.373924,0.0, 2, 7,14,60,5846512.395970841,12,27, 6,15
1326,10616443419.06236,0.0, 1, 1, 1,15,4050000.0000000014, 8,19, 9,60
1379,0.0,0.0, 1, 1, 1,15,0.0, 1, 1, 1,15
End of Data
 Number of Records Written=          99
