Program Version,EnergyPlus, Version 22.2.0-c249759bad, YMD=2023.07.07 15:08
1,5,Environment Title[],Latitude[deg],Longitude[deg],Time Zone[],Elevation[m]
2,8,Day of Simulation[],Month[],Day of Month[],DST Indicator[1=yes 0=no],Hour[],StartMinute[],EndMinute[],DayType
3,5,Cumulative Day of Simulation[],Month[],Day of Month[],DST Indicator[1=yes 0=no],DayType  ! When Daily Report Variables Requested
4,2,Cumulative Days of Simulation[],Month[]  ! When Monthly Report Variables Requested
5,1,Cumulative Days of Simulation[] ! When Run Period Report Variables Requested
6,1,Calendar Year of Simulation[] ! When Annual Report Variables Requested
581,11,LIVING,AFN Zone Infiltration Air Change Rate [ach] !RunPeriod [Value,Min,Month,Day,Hour,Minute,Max,Month,Day,Hour,Minute]
582,11,ATTIC,AFN Zone Infiltration Air Change Rate [ach] !RunPeriod [Value,Min,Month,Day,Hour,Minute,Max,Month,Day,Hour,Minute]
583,11,CRAWLSPACE,AFN Zone Infiltration Air Change Rate [ach] !RunPeriod [Value,Min,Month,Day,Hour,Minute,Max,Month,Day,Hour,Minute]
1038,11,Facility,Facility Heating Setpoint Not Met Time [hr] !RunPeriod [Value,Min,Month,Day,Hour,Minute,Max,Month,Day,Hour,Minute]
1039,11,Facility,Facility Cooling Setpoint Not Met Time [hr] !RunPeriod [Value,Min,Month,Day,Hour,Minute,Max,Month,Day,Hour,Minute]
1115,11,DX_HEATING_COIL,Heating Coil Heating Energy [J] !RunPeriod [Value,Min,Month,Day,Hour,Minute,Max,Month,Day,Hour,Minute]
1128,11,DX_HEATING_COIL,Heating Coil Electricity Energy [J] !RunPeriod [Value,Min,Month,Day,Hour,Minute,Max,Month,Day,Hour,Minute]
1153,11,DX_HEATING_COIL,Heating Coil Defrost Electricity Energy [J] !RunPeriod [Value,Min,Month,Day,Hour,Minute,Max,Month,Day,Hour,Minute]
1154,11,DX_HEATING_COIL,Heating Coil Crankcase Heater Electricity Energy [J] !RunPeriod [Value,Min,Month,Day,Hour,Minute,Max,Month,Day,Hour,Minute]
1156,11,HEATING_RESISTANCE_BACKUP,Heating Coil Electricity Energy [J] !RunPeriod [Value,Min,Month,Day,Hour,Minute,Max,Month,Day,Hour,Minute]
13,11,Electricity:Facility [J] !RunPeriod [Value,Min,Month,Day,Hour,Minute,Max,Month,Day,Hour,Minute]
1134,11,Heating:Electricity [J] !RunPeriod [Value,Min,Month,Day,Hour,Minute,Max,Month,Day,Hour,Minute]
1096,11,Cooling:Electricity [J] !RunPeriod [Value,Min,Month,Day,Hour,Minute,Max,Month,Day,Hour,Minute]
562,11,Fans:Electricity [J] !RunPeriod [Value,Min,Month,Day,Hour,Minute,Max,Month,Day,Hour,Minute]
1388,11,Pumps:Electricity [J] !RunPeriod [Value,Min,Month,Day,Hour,Minute,Max,Month,Day,Hour,Minute]
1360,11,WaterSystems:Electricity [J] !RunPeriod [Value,Min,Month,Day,Hour,Minute,Max,Month,Day,Hour,Minute]
61,11,InteriorLights:Electricity [J] !RunPeriod [Value,Min,Month,Day,Hour,Minute,Max,Month,Day,Hour,Minute]
1046,11,ExteriorLights:Electricity [J] !RunPeriod [Value,Min,Month,Day,Hour,Minute,Max,Month,Day,Hour,Minute]
134,11,InteriorEquipment:Electricity [J] !RunPeriod [Value,Min,Month,Day,Hour,Minute,Max,Month,Day,Hour,Minute]
170,11,gas_dryer:InteriorEquipment:Electricity [J] !RunPeriod [Value,Min,Month,Day,Hour,Minute,Max,Month,Day,Hour,Minute]
207,11,clotheswasher:InteriorEquipment:Electricity [J] !RunPeriod [Value,Min,Month,Day,Hour,Minute,Max,Month,Day,Hour,Minute]
244,11,dishwasher:InteriorEquipment:Electricity [J] !RunPeriod [Value,Min,Month,Day,Hour,Minute,Max,Month,Day,Hour,Minute]
281,11,refrigerator:InteriorEquipment:Electricity [J] !RunPeriod [Value,Min,Month,Day,Hour,Minute,Max,Month,Day,Hour,Minute]
318,11,electric_mels:InteriorEquipment:Electricity [J] !RunPeriod [Value,Min,Month,Day,Hour,Minute,Max,Month,Day,Hour,Minute]
355,11,NaturalGas:Facility [J] !RunPeriod [Value,Min,Month,Day,Hour,Minute,Max,Month,Day,Hour,Minute]
1323,11,WaterSystems:NaturalGas [J] !RunPeriod [Value,Min,Month,Day,Hour,Minute,Max,Month,Day,Hour,Minute]
403,11,InteriorEquipment:NaturalGas [J] !RunPeriod [Value,Min,Month,Day,Hour,Minute,Max,Month,Day,Hour,Minute]
476,11,gas_dryer:InteriorEquipment:NaturalGas [J] !RunPeriod [Value,Min,Month,Day,Hour,Minute,Max,Month,Day,Hour,Minute]
513,11,gas_mels:InteriorEquipment:NaturalGas [J] !RunPeriod [Value,Min,Month,Day,Hour,Minute,Max,Month,Day,Hour,Minute]
End of Data Dictionary
1,EXTREME_WINTER,  39.22,-106.87,  -7.00,2384.00
5,15
1038,3.166666666666666,0.0,12,22, 1,10,0.16666666666666666,12,24, 6,10
1039,0.0,0.0,12,22, 1,10,0.0,12,22, 1,10
581,0.307952639678718,0.20277170531081495,12,22, 6,50,0.6114352083434503,12,23,17,55
582,1.8055455390031325,0.0,12,25, 5,55,10.054036451499654,12,23,17,55
583,2.7624712249695644,0.00029558482298451744, 1, 5,16,60,13.602138843751538,12,23, 4,55
1115,3926923640.526588,0.0,12,22, 6, 5,3039186.3041723315, 1, 5, 4,30
1128,1489114026.286337,0.0,12,22, 6, 5,1004180.9657982244,12,25, 9,20
1153,30858969.85881185,0.0,12,22, 6, 5,53967.557441459736,12,23, 1,10
1154,74569881.38279435,0.0,12,22, 6, 2,120000.0,12,31,15,30
1156,1667022933.298484,0.0,12,22, 1, 1,4261143.488283664, 1, 1, 6,10
13,4247837657.060032,306324.6925987483,12,31,15,30,5735982.031805133, 1, 1, 7,60
61,646981127.1939279,58759.40635443481,12,22, 1,10,854682.2742463244,12,22,20,10
134,151290040.75163832,42376.01200569399,12,22, 4,10,104369.48322671017,12,27,20,10
170,11185820.069951665,232.27731661587313,12,22, 4,10,11650.931360040839,12,27,12,10
207,13893028.574283868,543.5021409221355,12,22, 3,10,15327.095199349082,12,27,10,10
244,27284301.07562606,1014.5707620042115,12,22, 4,10,35359.08742820678,12,27,20,10
281,98926891.03177528,39959.06841621388,12,22, 5,10,54634.54471212738,12,22,19,10
318,0.0,0.0,12,22, 1,10,0.0,12,22, 1,10
355,1574656509.675577,12374.216038804521,12,22, 4,10,3829218.1540669827,12,23,18,60
403,422701517.161075,12374.216038804521,12,22, 4,10,483183.26346918393,12,27,18,10
476,227882097.80545104,4732.048419519677,12,22, 4,10,237357.535085481,12,27,12,10
513,0.0,0.0,12,22, 1,10,0.0,12,22, 1,10
562,177243878.28804338,0.0,12,26,16,10,115525.37950485476,12,23,22,10
1046,0.0,0.0,12,22, 1,10,0.0,12,22, 1,10
1096,0.0,0.0,12,22, 1,10,0.0,12,22, 1,10
1134,3261565810.826424,120000.0,12,26,16,10,5164363.938094358, 1, 2, 6,40
1323,1151954992.5145006,0.0,12,22, 1,10,3375000.0000000005,12,22,16,50
1360,10756800.0,4980.0,12,22, 1,10,4980.000000000001,12,22, 1,20
1388,0.0,0.0,12,22, 1,10,0.0,12,22, 1,10
1,EXTREME_SUMMER,  39.22,-106.87,  -7.00,2384.00
5,7
1038,0.0,0.0, 6,29, 1,10,0.0, 6,29, 1,10
1039,0.0,0.0, 6,29, 1,10,0.0, 6,29, 1,10
581,0.173347372822123,0.03200794974999974, 7, 3,19,60,0.44568021292888704, 7, 5,16,55
582,3.0110360056765666,0.0, 6,29, 6,40,9.967488208627216, 7, 5,17,60
583,3.774271739040666,0.00015527964577274022, 7, 2, 5,55,12.691988319723794, 7, 5,17,40
1115,0.0,0.0, 6,29, 1,10,0.0, 6,29, 1,10
1128,0.0,0.0, 6,29, 1,10,0.0, 6,29, 1,10
1153,0.0,0.0, 6,29, 1,10,0.0, 6,29, 1,10
1154,2400000.0,0.0, 6,29, 1,10,120000.0, 7, 2, 6,20
1156,0.0,0.0, 6,29, 1,10,0.0, 6,29, 1,10
13,712677784.3592962,106115.4183601288, 6,29, 4,10,1789382.2992220223, 7, 2,19,10
61,301924526.0238348,58759.40635443481, 6,29, 1,10,854682.2742463244, 6,29,20,10
134,70666020.44019979,42376.01200569399, 6,29, 4,10,104369.48322671017, 7, 4,20,10
170,5241013.419656074,232.27731661587313, 6,29, 4,10,11650.931360040839, 7, 4,12,10
207,6509451.13922266,543.5021409221355, 6,29, 3,10,15327.095199349082, 7, 4,10,10
244,12749673.39982522,1014.5707620042115, 6,29, 4,10,35359.08742820678, 7, 4,20,10
281,46165882.48149605,39959.06841621388, 6,29, 5,10,54634.54471212738, 6,29,19,10
318,0.0,0.0, 6,29, 1,10,0.0, 6,29, 1,10
355,655714318.1919949,12374.216038804521, 6,29, 4,10,3829218.154066982, 6,30,18,60
403,197687796.27748126,12374.216038804521, 6,29, 4,10,483183.26346918393, 7, 4,18,10
476,106772067.24485692,4732.048419519677, 6,29, 4,10,237357.535085481, 7, 4,12,10
513,0.0,0.0, 6,29, 1,10,0.0, 6,29, 1,10
562,36514304.60829836,0.0, 6,29, 2,20,95283.54507560907, 7, 2,18,40
1046,0.0,0.0, 6,29, 1,10,0.0, 6,29, 1,10
1096,296153093.2869638,0.0, 6,29, 2,20,855626.2193132151, 7, 2,18,20
1134,2400000.0,0.0, 6,29, 1,10,120000.0, 7, 2, 5,40
1323,458026521.91451234,0.0, 6,29, 1,10,3375000.0000000005, 7, 4,21,60
1360,5019840.0,4979.999999999998, 7, 2, 8,60,4980.000000000002, 6,30,18,60
1388,0.0,0.0, 6,29, 1,10,0.0, 6,29, 1,10
1,ANNUAL,  39.22,-106.87,  -7.00,2384.00
5,365
1038,2.333333333333333,0.0, 1, 1, 1,10,0.16666666666666666, 1, 1, 6,10
1039,6.0,0.0, 1, 1, 1,10,0.16666666666666666, 4,11,12,30
581,0.23654500685385565,0.010722210313835507, 8, 2,19,49,0.9857843889466471, 4,28,13,53
582,2.4677854843778126,0.0, 1, 3, 9,52,19.402353953998848, 4,28,13,51
583,3.202166484249062,0.00005465977555497386, 7,13, 8, 2,26.33439535620365, 4,28,13,51
1115,32779218464.505707,0.0, 1, 1,15,40,3461381.4852480185, 3,21, 6,30
1128,11281073626.658926,0.0, 1, 1,15,40,1075500.3266323756, 3,21, 6,30
1153,396836733.3714631,0.0, 1, 1,15,40,91723.5667899378,11,21, 6,30
1154,2687429865.3540235,0.0, 1, 1, 1, 1,120000.0, 1, 3,14,60
1156,5003835548.149434,0.0, 1, 1,11,32,4261143.488283664,12,27, 6,30
13,45046734656.12465,106115.4183601288, 5,29, 4,10,5721825.173597525,12,27, 7,60
61,15743207428.39043,58759.40635443481, 1, 1, 1,10,854682.2742463244, 1, 1,20,10
134,3685071073.433083,42376.01200569399, 1, 2, 4,10,104369.48322671017, 1, 1,20,10
170,273393721.45534325,232.27731661587313, 1, 2, 4,10,11650.931360040839, 1, 1,12,10
207,339560869.06955314,543.5021409221355, 1, 2, 3,10,15327.095199349082, 1, 1,10,10
244,664895467.8009839,1014.5707620042115, 1, 2, 4,10,35359.08742820678, 1, 1,20,10
281,2407221015.1057043,39959.06841621388, 1, 1, 5,10,54634.54471212738, 1, 1,19,10
318,0.0,0.0, 1, 1, 1,10,0.0, 1, 1, 1,10
355,35786474864.79694,12374.216038804521, 1, 2, 4,10,3829218.154066983,12, 5,18,60
403,10310294493.052883,12374.216038804521, 1, 2, 4,10,483183.26346918393, 1, 1,18,10
476,5569688622.065564,4732.048419519677, 1, 2, 4,10,237357.535085481, 1, 1,12,10
513,0.0,0.0, 1, 1, 1,10,0.0, 1, 1, 1,10
562,1855210755.6245155,0.0, 1, 1,15,50,115525.37950485476, 1, 1, 1,10
1046,0.0,0.0, 1, 1, 1,10,0.0, 1, 1, 1,10
1096,4132320825.14955,0.0, 1, 1, 1,10,916364.5646845984, 7, 2,18,20
1134,19369175773.533863,0.0, 3, 2,13,60,5169374.425307073, 1,12, 6,10
1323,25476180371.748096,0.0, 1, 1, 1,10,3375000.000000001, 1,10,20,20
1360,261748800.0,4979.999999999998, 3,15,13,30,4980.000000000002, 1,10,10,60
1388,0.0,0.0, 1, 1, 1,10,0.0, 1, 1, 1,10
End of Data
 Number of Records Written=          87
