Program Version,EnergyPlus, Version 22.2.0-c249759bad, YMD=2023.09.01 15:27
1,5,Environment Title[],Latitude[deg],Longitude[deg],Time Zone[],Elevation[m]
2,8,Day of Simulation[],Month[],Day of Month[],DST Indicator[1=yes 0=no],Hour[],StartMinute[],EndMinute[],DayType
3,5,Cumulative Day of Simulation[],Month[],Day of Month[],DST Indicator[1=yes 0=no],DayType  ! When Daily Report Variables Requested
4,2,Cumulative Days of Simulation[],Month[]  ! When Monthly Report Variables Requested
5,1,Cumulative Days of Simulation[] ! When Run Period Report Variables Requested
6,1,Calendar Year of Simulation[] ! When Annual Report Variables Requested
581,11,LIVING,AFN Zone Infiltration Air Change Rate [ach] !RunPeriod [Value,Min,Month,Day,Hour,Minute,Max,Month,Day,Hour,Minute]
582,11,ATTIC,AFN Zone Infiltration Air Change Rate [ach] !RunPeriod [Value,Min,Month,Day,Hour,Minute,Max,Month,Day,Hour,Minute]
583,11,CRAWLSPACE,AFN Zone Infiltration Air Change Rate [ach] !RunPeriod [Value,Min,Month,Day,Hour,Minute,Max,Month,Day,Hour,Minute]
1038,11,Facility,Facility Heating Setpoint Not Met Time [hr] !RunPeriod [Value,Min,Month,Day,Hour,Minute,Max,Month,Day,Hour,Minute]
1039,11,Facility,Facility Cooling Setpoint Not Met Time [hr] !RunPeriod [Value,Min,Month,Day,Hour,Minute,Max,Month,Day,Hour,Minute]
1115,11,DX_HEATING_COIL,Heating Coil Heating Energy [J] !RunPeriod [Value,Min,Month,Day,Hour,Minute,Max,Month,Day,Hour,Minute]
1128,11,DX_HEATING_COIL,Heating Coil Electricity Energy [J] !RunPeriod [Value,Min,Month,Day,Hour,Minute,Max,Month,Day,Hour,Minute]
1153,11,DX_HEATING_COIL,Heating Coil Defrost Electricity Energy [J] !RunPeriod [Value,Min,Month,Day,Hour,Minute,Max,Month,Day,Hour,Minute]
1154,11,DX_HEATING_COIL,Heating Coil Crankcase Heater Electricity Energy [J] !RunPeriod [Value,Min,Month,Day,Hour,Minute,Max,Month,Day,Hour,Minute]
1155,11,HEATING_RESISTANCE_BACKUP,Heating Coil Heating Energy [J] !RunPeriod [Value,Min,Month,Day,Hour,Minute,Max,Month,Day,Hour,Minute]
1156,11,HEATING_RESISTANCE_BACKUP,Heating Coil Electricity Energy [J] !RunPeriod [Value,Min,Month,Day,Hour,Minute,Max,Month,Day,Hour,Minute]
1292,11,WATER HEATER,Water Heater Heat Loss Energy [J] !RunPeriod [Value,Min,Month,Day,Hour,Minute,Max,Month,Day,Hour,Minute]
1306,11,WATER HEATER,Water Heater Heating Energy [J] !RunPeriod [Value,Min,Month,Day,Hour,Minute,Max,Month,Day,Hour,Minute]
1307,11,WATER HEATER,Water Heater Unmet Demand Heat Transfer Energy [J] !RunPeriod [Value,Min,Month,Day,Hour,Minute,Max,Month,Day,Hour,Minute]
1308,11,WATER HEATER,Water Heater Electricity Energy [J] !RunPeriod [Value,Min,Month,Day,Hour,Minute,Max,Month,Day,Hour,Minute]
13,11,Electricity:Facility [J] !RunPeriod [Value,Min,Month,Day,Hour,Minute,Max,Month,Day,Hour,Minute]
1134,11,Heating:Electricity [J] !RunPeriod [Value,Min,Month,Day,Hour,Minute,Max,Month,Day,Hour,Minute]
1096,11,Cooling:Electricity [J] !RunPeriod [Value,Min,Month,Day,Hour,Minute,Max,Month,Day,Hour,Minute]
562,11,Fans:Electricity [J] !RunPeriod [Value,Min,Month,Day,Hour,Minute,Max,Month,Day,Hour,Minute]
1379,11,Pumps:Electricity [J] !RunPeriod [Value,Min,Month,Day,Hour,Minute,Max,Month,Day,Hour,Minute]
1326,11,WaterSystems:Electricity [J] !RunPeriod [Value,Min,Month,Day,Hour,Minute,Max,Month,Day,Hour,Minute]
61,11,InteriorLights:Electricity [J] !RunPeriod [Value,Min,Month,Day,Hour,Minute,Max,Month,Day,Hour,Minute]
1046,11,ExteriorLights:Electricity [J] !RunPeriod [Value,Min,Month,Day,Hour,Minute,Max,Month,Day,Hour,Minute]
134,11,InteriorEquipment:Electricity [J] !RunPeriod [Value,Min,Month,Day,Hour,Minute,Max,Month,Day,Hour,Minute]
170,11,gas_dryer:InteriorEquipment:Electricity [J] !RunPeriod [Value,Min,Month,Day,Hour,Minute,Max,Month,Day,Hour,Minute]
207,11,clotheswasher:InteriorEquipment:Electricity [J] !RunPeriod [Value,Min,Month,Day,Hour,Minute,Max,Month,Day,Hour,Minute]
244,11,dishwasher:InteriorEquipment:Electricity [J] !RunPeriod [Value,Min,Month,Day,Hour,Minute,Max,Month,Day,Hour,Minute]
281,11,refrigerator:InteriorEquipment:Electricity [J] !RunPeriod [Value,Min,Month,Day,Hour,Minute,Max,Month,Day,Hour,Minute]
318,11,electric_mels:InteriorEquipment:Electricity [J] !RunPeriod [Value,Min,Month,Day,Hour,Minute,Max,Month,Day,Hour,Minute]
355,11,NaturalGas:Facility [J] !RunPeriod [Value,Min,Month,Day,Hour,Minute,Max,Month,Day,Hour,Minute]
403,11,InteriorEquipment:NaturalGas [J] !RunPeriod [Value,Min,Month,Day,Hour,Minute,Max,Month,Day,Hour,Minute]
476,11,gas_dryer:InteriorEquipment:NaturalGas [J] !RunPeriod [Value,Min,Month,Day,Hour,Minute,Max,Month,Day,Hour,Minute]
513,11,gas_mels:InteriorEquipment:NaturalGas [J] !RunPeriod [Value,Min,Month,Day,Hour,Minute,Max,Month,Day,Hour,Minute]
End of Data Dictionary
1,EXTREME_WINTER,  33.57, -86.75,  -6.00, 192.00
5,7
1038,0.5,0.0, 1,13, 1,15,0.25, 1,17, 6,15
1039,0.0,0.0, 1,13, 1,15,0.0, 1,13, 1,15
581,0.25616247447644236,0.10581642943709361, 1,14, 9,46,0.5124697561380906, 1,18, 9,60
582,2.4370701520256306,0.0, 1,13, 5,30,8.108741157795313, 1,17,13,60
583,0.016098099105354525,0.00005388308755631808, 1,16, 1,60,0.07026526372996178, 1,18, 7,60
1115,495438976.9348243,0.0, 1,13, 1,15,3878356.914418487, 1,18, 8,15
1128,159127909.63907206,0.0, 1,13, 1,15,1203476.3211180065, 1,18, 8,15
1153,4972093.13278216,0.0, 1,13, 1,15,73541.47649097517, 1,13, 7,45
1154,70260275.09054446,0.0, 1,13, 6, 5,180000.0, 1,13, 1,15
1155,39000927.835350215,0.0, 1,13, 1,15,2274274.6691473126, 1,19, 6,45
1156,39000927.835350215,0.0, 1,13, 1,15,2274274.6691473126, 1,19, 6,45
1292,-24473417.174546685,-39755.17398802094, 1,17, 5,45,-3645.5688532098443, 1,14,10,30
1306,210807739.9712376,0.0, 1,13, 1,15,6937140.052539321, 1,13, 7,45
1307,3986792.2832857138,0.0, 1,13, 1,15,1401022.919230532, 1,19,19,55
1308,210807739.9712376,0.0, 1,13, 1,15,6937140.052539321, 1,13, 7,45
13,891520265.6032286,154673.5309366046, 1,16, 3,15,11804656.99577736, 1,19, 9,45
61,301924526.02383536,88139.10953165221, 1,13, 1,15,1282023.4113694867, 1,13,20,15
134,70666020.44019976,63564.01800854099, 1,13, 4,15,156554.22484006523, 1,18,20,15
170,5241013.419656067,348.4159749238097, 1,13, 4,15,17476.39704006126, 1,18,12,15
207,6509451.13922267,815.2532113832032, 1,13, 3,15,22990.642799023623, 1,18,10,15
244,12749673.399825225,1521.856143006317, 1,13, 4,15,53038.631142310165, 1,18,20,15
281,46165882.481495745,59938.60262432081, 1,13, 5,15,81951.81706819107, 1,13,19,15
318,0.0,0.0, 1,13, 1,15,0.0, 1,13, 1,15
355,197687796.27748066,18561.32405820678, 1,13, 4,15,724774.895203776, 1,18,18,15
403,197687796.27748066,18561.32405820678, 1,13, 4,15,724774.895203776, 1,18,18,15
476,106772067.24485716,7098.072629279515, 1,13, 4,15,356036.3026282215, 1,18,12,15
513,0.0,0.0, 1,13, 1,15,0.0, 1,13, 1,15
562,19196724.936911285,0.0, 1,13, 1,15,127975.46321088867, 1,13, 6,45
1046,0.0,0.0, 1,13, 1,15,0.0, 1,13, 1,15
1096,15564048.533296855,0.0, 1,13, 1,15,344423.1314540827, 1,14,16,30
1134,273361205.6977488,0.0, 1,13,13,60,4116899.2924743444, 1,19, 6,15
1326,210807739.97123754,0.0, 1,13, 1,15,10117267.670984449, 1,19, 9,45
1379,0.0,0.0, 1,13, 1,15,0.0, 1,13, 1,15
1,EXTREME_SUMMER,  33.57, -86.75,  -6.00, 192.00
5,7
1038,0.0,0.0, 7, 6, 1,15,0.0, 7, 6, 1,15
1039,56.25,0.0, 7, 6, 1,15,0.25, 7, 6,14,45
581,0.059021910850871204,0.0, 7, 6,20,17,0.6578458804759278, 7,10,14,47
582,1.9913593632168178,0.0, 7, 6,20,36,13.42240272505341, 7, 9,17,47
583,0.04028159967376883,0.0, 7, 6,23, 3,0.07461502923335918, 7,10,14,47
1115,0.0,0.0, 7, 6, 1,15,0.0, 7, 6, 1,15
1128,0.0,0.0, 7, 6, 1,15,0.0, 7, 6, 1,15
1153,0.0,0.0, 7, 6, 1,15,0.0, 7, 6, 1,15
1154,0.0,0.0, 7, 6, 1,15,0.0, 7, 6, 1,15
1155,0.0,0.0, 7, 6, 1,15,0.0, 7, 6, 1,15
1156,0.0,0.0, 7, 6, 1,15,0.0, 7, 6, 1,15
1292,-21730304.131611895,-34305.88129208459, 7, 8, 6,30,-2033.8353201891969, 7,10,14,15
1306,147347343.6347311,0.0, 7, 6, 1,15,3513600.0, 7,12,19,55
1307,0.0,0.0, 7, 6, 1,15,0.0, 7, 6, 1,15
1308,147347343.6347311,0.0, 7, 6, 1,15,3513600.0, 7,12,19,55
13,1115954968.1139271,192018.22918112137, 7, 8, 4,60,12244691.651334576, 7,12,19,60
61,301924526.02383536,88139.10953165221, 7, 6, 1,15,1282023.4113694867, 7, 6,20,15
134,70666020.44019976,63564.01800854099, 7, 6, 4,15,156554.22484006523, 7,11,20,15
170,5241013.419656067,348.4159749238097, 7, 6, 4,15,17476.39704006126, 7,11,12,15
207,6509451.13922267,815.2532113832032, 7, 6, 3,15,22990.642799023623, 7,11,10,15
244,12749673.399825225,1521.856143006317, 7, 6, 4,15,53038.631142310165, 7,11,20,15
281,46165882.481495745,59938.60262432081, 7, 6, 5,15,81951.81706819107, 7, 6,19,15
318,0.0,0.0, 7, 6, 1,15,0.0, 7, 6, 1,15
355,197687796.27748066,18561.32405820678, 7, 6, 4,15,724774.895203776, 7,11,18,15
403,197687796.27748066,18561.32405820678, 7, 6, 4,15,724774.895203776, 7,11,18,15
476,106772067.24485716,7098.072629279515, 7, 6, 4,15,356036.3026282215, 7,11,12,15
513,0.0,0.0, 7, 6, 1,15,0.0, 7, 6, 1,15
562,56045388.35466897,4224.087267361292, 7, 8, 4,60,127975.4632108887, 7, 7,17,30
1046,0.0,0.0, 7, 6, 1,15,0.0, 7, 6, 1,15
1096,539971689.660492,36091.01437356687, 7, 8, 4,60,1396319.3579518935, 7,12,15,60
1134,0.0,0.0, 7, 6, 1,15,0.0, 7, 6, 1,15
1326,147347343.63473114,0.0, 7, 6, 1,15,9621096.0750205, 7,12,19,60
1379,0.0,0.0, 7, 6, 1,15,0.0, 7, 6, 1,15
1,ANNUAL,  33.57, -86.75,  -6.00, 192.00
5,365
1038,4.75,0.0, 1, 1, 1,15,0.25, 1, 1, 6,15
1039,989.5,0.0, 1, 1, 1,15,0.25, 2,13,13,45
581,0.17001448946217393,0.0, 3,19,23, 3,1.0837209131366454, 2,11,14,52
582,2.787817294994273,0.0, 1, 2,22,60,24.61170409189656, 7, 4,14,46
583,0.025831799431856064,0.0, 5, 9,23, 3,0.08109013361053635, 1,22,22,60
1115,5612610124.98024,0.0, 1, 1,23, 7,4053259.4503004933, 1, 5, 6,60
1128,1732404806.768166,0.0, 1, 1,23, 7,1257854.156862851, 1, 5, 6,45
1153,69028299.80836421,0.0, 1, 1,14,15,105516.45226345693, 1,27, 6,45
1154,1116525262.8199139,0.0, 1, 1, 6, 7,180000.0, 1, 2,12,60
1155,270691631.55259913,0.0, 1, 1, 1, 7,2500953.2058584206, 2, 5, 6,60
1156,270691631.55259913,0.0, 1, 1, 1, 7,2500953.2058584206, 2, 5, 6,60
1292,-1185121426.0264862,-39781.51779570818, 2,16, 4,45,-1960.7406122670914, 7,10,14,23
1306,9360258209.779438,0.0, 1, 1, 1, 7,10109123.344022473, 1,22, 9,45
1307,95693119.97435448,0.0, 1, 1, 1, 7,4012134.441371811, 1,22,19,60
1308,9360258209.779438,0.0, 1, 1, 1, 7,10109123.344022473, 1,22, 9,45
13,47302473982.15479,151703.1275401932, 1, 9, 4,15,13014243.46478511, 6,11,19,60
61,15743207428.383959,88139.10953165221, 1, 1, 1,15,1282023.4113694867, 1, 1,20,15
134,3685071073.4325233,63564.01800854099, 1, 2, 4,15,156554.22484006523, 1, 1,20,15
170,273393721.45532674,348.4159749238097, 1, 2, 4,15,17476.39704006126, 1, 1,12,15
207,339560869.0695816,815.2532113832032, 1, 2, 3,15,22990.642799023623, 1, 1,10,15
244,664895467.8009144,1521.856143006317, 1, 2, 4,15,53038.631142310165, 1, 1,20,15
281,2407221015.106824,59938.60262432081, 1, 1, 5,15,81951.81706819107, 1, 1,19,15
318,0.0,0.0, 1, 1, 1,15,0.0, 1, 1, 1,15
355,10310294493.051695,18561.32405820678, 1, 2, 4,15,724774.895203776, 1, 1,18,15
403,10310294493.051695,18561.32405820678, 1, 2, 4,15,724774.895203776, 1, 1,18,15
476,5569688622.066177,7098.072629279515, 1, 2, 4,15,356036.3026282215, 1, 1,12,15
513,0.0,0.0, 1, 1, 1,15,0.0, 1, 1, 1,15
562,1719175736.696016,0.0, 1, 1,23,15,127975.4632108887, 5, 3,16,45
1046,0.0,0.0, 1, 1, 1,15,0.0, 1, 1, 1,15
1096,13606111532.911867,0.0, 1, 1, 1,15,1430812.2326125423, 8, 4,15,60
1134,3188650000.9490423,0.0, 1, 3,15,60,4279200.197913067, 2, 4, 6,15
1326,9360258209.779427,0.0, 1, 1, 1,15,10524522.256374072, 9,24,19,60
1379,0.0,0.0, 1, 1, 1,15,0.0, 1, 1, 1,15
End of Data
 Number of Records Written=          99
