Program Version,EnergyPlus, Version 22.2.0-c249759bad, YMD=2023.09.01 20:33
1,5,Environment Title[],Latitude[deg],Longitude[deg],Time Zone[],Elevation[m]
2,8,Day of Simulation[],Month[],Day of Month[],DST Indicator[1=yes 0=no],Hour[],StartMinute[],EndMinute[],DayType
3,5,Cumulative Day of Simulation[],Month[],Day of Month[],DST Indicator[1=yes 0=no],DayType  ! When Daily Report Variables Requested
4,2,Cumulative Days of Simulation[],Month[]  ! When Monthly Report Variables Requested
5,1,Cumulative Days of Simulation[] ! When Run Period Report Variables Requested
6,1,Calendar Year of Simulation[] ! When Annual Report Variables Requested
581,11,LIVING,AFN Zone Infiltration Air Change Rate [ach] !RunPeriod [Value,Min,Month,Day,Hour,Minute,Max,Month,Day,Hour,Minute]
582,11,ATTIC,AFN Zone Infiltration Air Change Rate [ach] !RunPeriod [Value,Min,Month,Day,Hour,Minute,Max,Month,Day,Hour,Minute]
583,11,CRAWLSPACE,AFN Zone Infiltration Air Change Rate [ach] !RunPeriod [Value,Min,Month,Day,Hour,Minute,Max,Month,Day,Hour,Minute]
1038,11,Facility,Facility Heating Setpoint Not Met Time [hr] !RunPeriod [Value,Min,Month,Day,Hour,Minute,Max,Month,Day,Hour,Minute]
1039,11,Facility,Facility Cooling Setpoint Not Met Time [hr] !RunPeriod [Value,Min,Month,Day,Hour,Minute,Max,Month,Day,Hour,Minute]
1115,11,DX_HEATING_COIL,Heating Coil Heating Energy [J] !RunPeriod [Value,Min,Month,Day,Hour,Minute,Max,Month,Day,Hour,Minute]
1128,11,DX_HEATING_COIL,Heating Coil Electricity Energy [J] !RunPeriod [Value,Min,Month,Day,Hour,Minute,Max,Month,Day,Hour,Minute]
1153,11,DX_HEATING_COIL,Heating Coil Defrost Electricity Energy [J] !RunPeriod [Value,Min,Month,Day,Hour,Minute,Max,Month,Day,Hour,Minute]
1154,11,DX_HEATING_COIL,Heating Coil Crankcase Heater Electricity Energy [J] !RunPeriod [Value,Min,Month,Day,Hour,Minute,Max,Month,Day,Hour,Minute]
1155,11,HEATING_RESISTANCE_BACKUP,Heating Coil Heating Energy [J] !RunPeriod [Value,Min,Month,Day,Hour,Minute,Max,Month,Day,Hour,Minute]
1156,11,HEATING_RESISTANCE_BACKUP,Heating Coil Electricity Energy [J] !RunPeriod [Value,Min,Month,Day,Hour,Minute,Max,Month,Day,Hour,Minute]
1292,11,WATER HEATER,Water Heater Heat Loss Energy [J] !RunPeriod [Value,Min,Month,Day,Hour,Minute,Max,Month,Day,Hour,Minute]
1306,11,WATER HEATER,Water Heater Heating Energy [J] !RunPeriod [Value,Min,Month,Day,Hour,Minute,Max,Month,Day,Hour,Minute]
1307,11,WATER HEATER,Water Heater Unmet Demand Heat Transfer Energy [J] !RunPeriod [Value,Min,Month,Day,Hour,Minute,Max,Month,Day,Hour,Minute]
1308,11,WATER HEATER,Water Heater Electricity Energy [J] !RunPeriod [Value,Min,Month,Day,Hour,Minute,Max,Month,Day,Hour,Minute]
13,11,Electricity:Facility [J] !RunPeriod [Value,Min,Month,Day,Hour,Minute,Max,Month,Day,Hour,Minute]
1134,11,Heating:Electricity [J] !RunPeriod [Value,Min,Month,Day,Hour,Minute,Max,Month,Day,Hour,Minute]
1096,11,Cooling:Electricity [J] !RunPeriod [Value,Min,Month,Day,Hour,Minute,Max,Month,Day,Hour,Minute]
562,11,Fans:Electricity [J] !RunPeriod [Value,Min,Month,Day,Hour,Minute,Max,Month,Day,Hour,Minute]
1379,11,Pumps:Electricity [J] !RunPeriod [Value,Min,Month,Day,Hour,Minute,Max,Month,Day,Hour,Minute]
1326,11,WaterSystems:Electricity [J] !RunPeriod [Value,Min,Month,Day,Hour,Minute,Max,Month,Day,Hour,Minute]
61,11,InteriorLights:Electricity [J] !RunPeriod [Value,Min,Month,Day,Hour,Minute,Max,Month,Day,Hour,Minute]
1046,11,ExteriorLights:Electricity [J] !RunPeriod [Value,Min,Month,Day,Hour,Minute,Max,Month,Day,Hour,Minute]
134,11,InteriorEquipment:Electricity [J] !RunPeriod [Value,Min,Month,Day,Hour,Minute,Max,Month,Day,Hour,Minute]
170,11,gas_dryer:InteriorEquipment:Electricity [J] !RunPeriod [Value,Min,Month,Day,Hour,Minute,Max,Month,Day,Hour,Minute]
207,11,clotheswasher:InteriorEquipment:Electricity [J] !RunPeriod [Value,Min,Month,Day,Hour,Minute,Max,Month,Day,Hour,Minute]
244,11,dishwasher:InteriorEquipment:Electricity [J] !RunPeriod [Value,Min,Month,Day,Hour,Minute,Max,Month,Day,Hour,Minute]
281,11,refrigerator:InteriorEquipment:Electricity [J] !RunPeriod [Value,Min,Month,Day,Hour,Minute,Max,Month,Day,Hour,Minute]
318,11,electric_mels:InteriorEquipment:Electricity [J] !RunPeriod [Value,Min,Month,Day,Hour,Minute,Max,Month,Day,Hour,Minute]
355,11,NaturalGas:Facility [J] !RunPeriod [Value,Min,Month,Day,Hour,Minute,Max,Month,Day,Hour,Minute]
403,11,InteriorEquipment:NaturalGas [J] !RunPeriod [Value,Min,Month,Day,Hour,Minute,Max,Month,Day,Hour,Minute]
476,11,gas_dryer:InteriorEquipment:NaturalGas [J] !RunPeriod [Value,Min,Month,Day,Hour,Minute,Max,Month,Day,Hour,Minute]
513,11,gas_mels:InteriorEquipment:NaturalGas [J] !RunPeriod [Value,Min,Month,Day,Hour,Minute,Max,Month,Day,Hour,Minute]
End of Data Dictionary
1,EXTREME_WINTER,  39.22,-106.87,  -7.00,2384.00
5,15
1038,5.0,0.0,12,22, 1,15,0.25,12,24, 6,15
1039,0.0,0.0,12,22, 1,15,0.0,12,22, 1,15
581,0.4014471241396099,0.21560915672096984, 1, 5,23, 7,0.7303808388725889,12,23,17,55
582,1.892654586414928,0.0,12,25, 7,45,10.168810362723422,12,23,17,50
583,0.06747033772876655,0.000335702723559051, 1, 5,16,60,0.09765993584584796,12,23,18,60
1115,3923160066.4432416,0.0,12,22,23, 3,4513188.289159008,12,23, 4,60
1128,1527744329.991787,0.0,12,22,23, 3,1502161.797696818,12,23, 6,60
1153,31485080.584204793,0.0,12,22,23, 3,83644.74785632592,12,23, 1,15
1154,68136844.5319669,0.0,12,22, 6, 5,180000.0, 1, 3,15,45
1155,1810388214.5114176,0.0,12,22, 1,15,6352645.360898993,12,27, 6,45
1156,1810388214.5114176,0.0,12,22, 1,15,6352645.360898993,12,27, 6,45
1292,-54370237.141928054,-39814.16742281089,12,22, 1,15,-4032.783459446997,12,27,11,11
1306,527363939.20880115,0.0,12,22, 1,15,4050000.0,12,22, 7,60
1307,104300331.21536319,0.0,12,22, 1,15,13478905.090311732, 1, 4,19,60
1308,527363939.20880115,0.0,12,22, 1,15,4050000.0,12,22, 7,60
13,4940720740.080856,458150.8545527997, 1, 3,15,30,12615492.048634736, 1, 2, 7,15
61,646981127.1939323,88139.10953165221,12,22, 1,15,1282023.4113694867,12,22,20,15
134,151290040.75163814,63564.01800854099,12,22, 4,15,156554.22484006523,12,27,20,15
170,11185820.069951689,348.4159749238097,12,22, 4,15,17476.39704006126,12,27,12,15
207,13893028.5742839,815.2532113832032,12,22, 3,15,22990.642799023623,12,27,10,15
244,27284301.07562584,1521.856143006317,12,22, 4,15,53038.631142310165,12,27,20,15
281,98926891.03177746,59938.60262432081,12,22, 5,15,81951.81706819107,12,22,19,15
318,0.0,0.0,12,22, 1,15,0.0,12,22, 1,15
355,422701517.16107386,18561.32405820678,12,22, 4,15,724774.895203776,12,27,18,15
403,422701517.16107386,18561.32405820678,12,22, 4,15,724774.895203776,12,27,18,15
476,227882097.80545202,7098.072629279515,12,22, 4,15,356036.3026282215,12,27,12,15
513,0.0,0.0,12,22, 1,15,0.0,12,22, 1,15
562,177331163.30710158,0.0,12,26,16,15,167490.84987095158,12,24,10,30
1046,0.0,0.0,12,22, 1,15,0.0,12,22, 1,15
1096,0.0,0.0,12,22, 1,15,0.0,12,22, 1,15
1134,3437754469.619378,179999.99999999997, 1, 4,18,15,7701924.159421483, 1, 2, 7,15
1326,527363939.2088014,0.0,12,22, 1,15,4050000.0,12,22, 7,60
1379,0.0,0.0,12,22, 1,15,0.0,12,22, 1,15
1,EXTREME_SUMMER,  39.22,-106.87,  -7.00,2384.00
5,7
1038,0.0,0.0, 6,29, 1,15,0.0, 6,29, 1,15
1039,0.0,0.0, 6,29, 1,15,0.0, 6,29, 1,15
581,0.2014344868956945,0.07940620903807248, 7, 1, 6,50,0.47072728119019736, 7, 5,16,50
582,3.0757939143741972,0.0, 6,29, 7,45,10.003763678657103, 7, 5,17,52
583,0.025638187385229456,0.00019736727941652876, 6,29, 7,18,0.06855312852703284, 7, 2,18,33
1115,0.0,0.0, 6,29, 1,15,0.0, 6,29, 1,15
1128,0.0,0.0, 6,29, 1,15,0.0, 6,29, 1,15
1153,0.0,0.0, 6,29, 1,15,0.0, 6,29, 1,15
1154,2340000.0,0.0, 6,29, 1,15,180000.0, 7, 3, 4,60
1155,0.0,0.0, 6,29, 1,15,0.0, 6,29, 1,15
1156,0.0,0.0, 6,29, 1,15,0.0, 6,29, 1,15
1292,-22276873.22598981,-34776.172310868766, 7, 4, 6,15,-2464.5851586781223, 6,30, 8,60
1306,217065315.52812555,0.0, 6,29, 1,15,3452305.862710427, 6,29,14,30
1307,34320547.17813122,0.0, 6,29, 1,15,5827250.084410422, 7, 5,19,60
1308,217065315.52812555,0.0, 6,29, 1,15,3452305.862710427, 6,29,14,30
13,898045529.4399128,151703.1275401932, 6,29, 4,15,6496202.876644557, 7, 2,19,45
61,301924526.02383536,88139.10953165221, 6,29, 1,15,1282023.4113694867, 6,29,20,15
134,70666020.44019976,63564.01800854099, 6,29, 4,15,156554.22484006523, 7, 4,20,15
170,5241013.419656067,348.4159749238097, 6,29, 4,15,17476.39704006126, 7, 4,12,15
207,6509451.13922267,815.2532113832032, 6,29, 3,15,22990.642799023623, 7, 4,10,15
244,12749673.399825225,1521.856143006317, 6,29, 4,15,53038.631142310165, 7, 4,20,15
281,46165882.481495745,59938.60262432081, 6,29, 5,15,81951.81706819107, 6,29,19,15
318,0.0,0.0, 6,29, 1,15,0.0, 6,29, 1,15
355,197687796.27748066,18561.32405820678, 6,29, 4,15,724774.895203776, 7, 4,18,15
403,197687796.27748066,18561.32405820678, 6,29, 4,15,724774.895203776, 7, 4,18,15
476,106772067.24485716,7098.072629279515, 6,29, 4,15,356036.3026282215, 7, 4,12,15
513,0.0,0.0, 6,29, 1,15,0.0, 6,29, 1,15
562,33556975.78510422,0.0, 6,29, 1,30,138555.61964075104, 7, 2,18,30
1046,0.0,0.0, 6,29, 1,15,0.0, 6,29, 1,15
1096,272492691.66264915,0.0, 6,29, 1,30,1240963.6491885898, 7, 2,18,30
1134,2340000.0,0.0, 6,29, 1,15,180000.0, 7, 2, 5,45
1326,217065315.52812546,0.0, 6,29, 1,15,4050000.0, 6,29, 7,60
1379,0.0,0.0, 6,29, 1,15,0.0, 6,29, 1,15
1,ANNUAL,  39.22,-106.87,  -7.00,2384.00
5,365
1038,6.0,0.0, 1, 1, 1,15,0.25, 1, 1, 6,15
1039,24.25,0.0, 1, 1, 1,15,0.25, 3, 2,15,60
581,0.2729329385239199,0.04769868374717197, 9, 2, 8,46,1.024237854631011, 4,28,13,48
582,2.512411699260264,0.0, 1, 3,20,52,19.479972408652106, 4,28,13,46
583,0.02895475456798581,0.000035824021434921046, 7,22, 1,60,0.09786047932746092, 1, 1, 6,60
1115,33898553555.20712,0.0, 1, 1,16, 3,4901775.05534298, 3,21, 6,45
1128,11923130760.392063,0.0, 1, 1,16, 3,1573391.2560457194, 3, 8, 7,45
1153,416575768.67412806,0.0, 1, 1,16, 3,136625.11770261044,11,21, 6,45
1154,2593532573.7228756,0.0, 1, 1, 1, 7,180000.0, 1, 3,15,60
1155,5694031543.298632,0.0, 1, 1,12, 3,6352645.360898993, 1, 1, 6,30
1156,5694031543.298632,0.0, 1, 1,12, 3,6352645.360898993, 1, 1, 6,30
1292,-1249450999.582344,-39787.99423455333, 5,13, 4,15,-1963.9411387055477, 9,17, 9,46
1306,12195814876.726332,0.0, 1, 1, 1, 7,4050000.0, 1, 2, 7,60
1307,2218625656.800126,0.0, 1, 1, 1, 7,14059517.627626985, 2,19,19,60
1308,12195814876.726332,0.0, 1, 1, 1, 7,4050000.0, 1, 2, 7,60
13,57957187753.353134,151703.1275401932, 5,29, 4,15,12534043.70883027,12,27, 8,15
61,15743207428.383959,88139.10953165221, 1, 1, 1,15,1282023.4113694867, 1, 1,20,15
134,3685071073.4325233,63564.01800854099, 1, 2, 4,15,156554.22484006523, 1, 1,20,15
170,273393721.45532674,348.4159749238097, 1, 2, 4,15,17476.39704006126, 1, 1,12,15
207,339560869.0695816,815.2532113832032, 1, 2, 3,15,22990.642799023623, 1, 1,10,15
244,664895467.8009144,1521.856143006317, 1, 2, 4,15,53038.631142310165, 1, 1,20,15
281,2407221015.106824,59938.60262432081, 1, 1, 5,15,81951.81706819107, 1, 1,19,15
318,0.0,0.0, 1, 1, 1,15,0.0, 1, 1, 1,15
355,10310294493.051695,18561.32405820678, 1, 2, 4,15,724774.895203776, 1, 1,18,15
403,10310294493.051695,18561.32405820678, 1, 2, 4,15,724774.895203776, 1, 1,18,15
476,5569688622.066177,7098.072629279515, 1, 2, 4,15,356036.3026282215, 1, 1,12,15
513,0.0,0.0, 1, 1, 1,15,0.0, 1, 1, 1,15
562,1858870262.3398218,0.0, 1, 1,16,15,167490.84987095158, 1, 1,10,45
1046,0.0,0.0, 1, 1, 1,15,0.0, 1, 1, 1,15
1096,3846953466.3810077,0.0, 1, 1, 1,15,1339191.236380925, 7, 2,18,30
1134,20627270646.08762,0.0, 3, 2,13,60,7726636.4710954055, 1,12, 6,30
1326,12195814876.726318,0.0, 1, 1, 1,15,4050000.0000000014, 4, 8,10,15
1379,0.0,0.0, 1, 1, 1,15,0.0, 1, 1, 1,15
End of Data
 Number of Records Written=          99
