Program Version,EnergyPlus, Version 22.2.0-c249759bad, YMD=2023.07.07 15:04
1,5,Environment Title[],Latitude[deg],Longitude[deg],Time Zone[],Elevation[m]
2,8,Day of Simulation[],Month[],Day of Month[],DST Indicator[1=yes 0=no],Hour[],StartMinute[],EndMinute[],DayType
3,5,Cumulative Day of Simulation[],Month[],Day of Month[],DST Indicator[1=yes 0=no],DayType  ! When Daily Report Variables Requested
4,2,Cumulative Days of Simulation[],Month[]  ! When Monthly Report Variables Requested
5,1,Cumulative Days of Simulation[] ! When Run Period Report Variables Requested
6,1,Calendar Year of Simulation[] ! When Annual Report Variables Requested
581,11,LIVING,AFN Zone Infiltration Air Change Rate [ach] !RunPeriod [Value,Min,Month,Day,Hour,Minute,Max,Month,Day,Hour,Minute]
582,11,ATTIC,AFN Zone Infiltration Air Change Rate [ach] !RunPeriod [Value,Min,Month,Day,Hour,Minute,Max,Month,Day,Hour,Minute]
583,11,CRAWLSPACE,AFN Zone Infiltration Air Change Rate [ach] !RunPeriod [Value,Min,Month,Day,Hour,Minute,Max,Month,Day,Hour,Minute]
1038,11,Facility,Facility Heating Setpoint Not Met Time [hr] !RunPeriod [Value,Min,Month,Day,Hour,Minute,Max,Month,Day,Hour,Minute]
1039,11,Facility,Facility Cooling Setpoint Not Met Time [hr] !RunPeriod [Value,Min,Month,Day,Hour,Minute,Max,Month,Day,Hour,Minute]
1115,11,DX_HEATING_COIL,Heating Coil Heating Energy [J] !RunPeriod [Value,Min,Month,Day,Hour,Minute,Max,Month,Day,Hour,Minute]
1128,11,DX_HEATING_COIL,Heating Coil Electricity Energy [J] !RunPeriod [Value,Min,Month,Day,Hour,Minute,Max,Month,Day,Hour,Minute]
1153,11,DX_HEATING_COIL,Heating Coil Defrost Electricity Energy [J] !RunPeriod [Value,Min,Month,Day,Hour,Minute,Max,Month,Day,Hour,Minute]
1154,11,DX_HEATING_COIL,Heating Coil Crankcase Heater Electricity Energy [J] !RunPeriod [Value,Min,Month,Day,Hour,Minute,Max,Month,Day,Hour,Minute]
1156,11,HEATING_RESISTANCE_BACKUP,Heating Coil Electricity Energy [J] !RunPeriod [Value,Min,Month,Day,Hour,Minute,Max,Month,Day,Hour,Minute]
13,11,Electricity:Facility [J] !RunPeriod [Value,Min,Month,Day,Hour,Minute,Max,Month,Day,Hour,Minute]
1134,11,Heating:Electricity [J] !RunPeriod [Value,Min,Month,Day,Hour,Minute,Max,Month,Day,Hour,Minute]
1096,11,Cooling:Electricity [J] !RunPeriod [Value,Min,Month,Day,Hour,Minute,Max,Month,Day,Hour,Minute]
562,11,Fans:Electricity [J] !RunPeriod [Value,Min,Month,Day,Hour,Minute,Max,Month,Day,Hour,Minute]
1388,11,Pumps:Electricity [J] !RunPeriod [Value,Min,Month,Day,Hour,Minute,Max,Month,Day,Hour,Minute]
1360,11,WaterSystems:Electricity [J] !RunPeriod [Value,Min,Month,Day,Hour,Minute,Max,Month,Day,Hour,Minute]
61,11,InteriorLights:Electricity [J] !RunPeriod [Value,Min,Month,Day,Hour,Minute,Max,Month,Day,Hour,Minute]
1046,11,ExteriorLights:Electricity [J] !RunPeriod [Value,Min,Month,Day,Hour,Minute,Max,Month,Day,Hour,Minute]
134,11,InteriorEquipment:Electricity [J] !RunPeriod [Value,Min,Month,Day,Hour,Minute,Max,Month,Day,Hour,Minute]
170,11,gas_dryer:InteriorEquipment:Electricity [J] !RunPeriod [Value,Min,Month,Day,Hour,Minute,Max,Month,Day,Hour,Minute]
207,11,clotheswasher:InteriorEquipment:Electricity [J] !RunPeriod [Value,Min,Month,Day,Hour,Minute,Max,Month,Day,Hour,Minute]
244,11,dishwasher:InteriorEquipment:Electricity [J] !RunPeriod [Value,Min,Month,Day,Hour,Minute,Max,Month,Day,Hour,Minute]
281,11,refrigerator:InteriorEquipment:Electricity [J] !RunPeriod [Value,Min,Month,Day,Hour,Minute,Max,Month,Day,Hour,Minute]
318,11,electric_mels:InteriorEquipment:Electricity [J] !RunPeriod [Value,Min,Month,Day,Hour,Minute,Max,Month,Day,Hour,Minute]
355,11,NaturalGas:Facility [J] !RunPeriod [Value,Min,Month,Day,Hour,Minute,Max,Month,Day,Hour,Minute]
1323,11,WaterSystems:NaturalGas [J] !RunPeriod [Value,Min,Month,Day,Hour,Minute,Max,Month,Day,Hour,Minute]
403,11,InteriorEquipment:NaturalGas [J] !RunPeriod [Value,Min,Month,Day,Hour,Minute,Max,Month,Day,Hour,Minute]
476,11,gas_dryer:InteriorEquipment:NaturalGas [J] !RunPeriod [Value,Min,Month,Day,Hour,Minute,Max,Month,Day,Hour,Minute]
513,11,gas_mels:InteriorEquipment:NaturalGas [J] !RunPeriod [Value,Min,Month,Day,Hour,Minute,Max,Month,Day,Hour,Minute]
End of Data Dictionary
1,EXTREME_WINTER,  36.01, -94.17,  -6.00, 381.00
5,7
1038,0.5,0.0, 1, 8, 1,10,0.16666666666666666, 1, 8, 6,10
1039,0.0,0.0, 1, 8, 1,10,0.0, 1, 8, 1,10
581,0.2872093015708012,0.1735213156139505, 1,11,23,60,0.6202359430609272, 1, 8,13,40
582,2.2994489179823137,0.0, 1, 8, 4,60,9.572402613376362, 1, 8,13,60
583,3.1743209444122016,0.00022545918484365485, 1,13,20,55,13.41290313151812, 1, 8,12,60
1115,1499146721.0585685,0.0, 1, 8,23, 2,3181105.7558913645, 1, 9, 5,60
1128,503482752.68160623,0.0, 1, 8,23, 2,985452.3209328911, 1, 9, 6,20
1153,15754393.110841256,0.0, 1, 8,23, 2,84611.49785640911, 1,12, 6,30
1154,55845893.482507005,0.0, 1, 8, 1,40,120000.0, 1, 9,15,10
1156,239213328.9284179,0.0, 1, 8, 1, 2,2652003.5701989243, 1,10, 6,30
13,1246624737.0689793,306324.6925987483, 1, 9,15,10,4517208.461486336, 1,10, 6,10
61,301924526.0238348,58759.40635443481, 1, 8, 1,10,854682.2742463244, 1, 8,20,10
134,70666020.44019979,42376.01200569399, 1, 8, 4,10,104369.48322671017, 1,13,20,10
170,5241013.419656074,232.27731661587313, 1, 8, 4,10,11650.931360040839, 1,13,12,10
207,6509451.13922266,543.5021409221355, 1, 8, 3,10,15327.095199349082, 1,13,10,10
244,12749673.39982522,1014.5707620042115, 1, 8, 4,10,35359.08742820678, 1,13,20,10
281,46165882.48149605,39959.06841621388, 1, 8, 5,10,54634.54471212738, 1, 8,19,10
318,0.0,0.0, 1, 8, 1,10,0.0, 1, 8, 1,10
355,739610479.0870547,12374.216038804521, 1, 8, 4,10,3829218.154066982, 1, 9,18,60
403,197687796.27748126,12374.216038804521, 1, 8, 4,10,483183.26346918393, 1,13,18,10
476,106772067.24485692,4732.048419519677, 1, 8, 4,10,237357.535085481, 1,13,12,10
513,0.0,0.0, 1, 8, 1,10,0.0, 1, 8, 1,10
562,54717982.401576065,0.0, 1, 9,14,50,101172.75724835994, 1, 8, 1,40
1046,0.0,0.0, 1, 8, 1,10,0.0, 1, 8, 1,10
1096,0.0,0.0, 1, 8, 1,10,0.0, 1, 8, 1,10
1134,814296368.2033739,120000.0, 1, 9,14,50,3998476.381227323, 1,10, 6,10
1323,541922682.8095703,0.0, 1, 8, 1,10,3375000.000000001, 1, 9, 9,60
1360,5019840.0,4980.0, 1, 8, 1,10,4980.000000000001, 1, 8, 2,10
1388,0.0,0.0, 1, 8, 1,10,0.0, 1, 8, 1,10
1,EXTREME_SUMMER,  36.01, -94.17,  -6.00, 381.00
5,7
1038,0.0,0.0, 7,29, 1,10,0.0, 7,29, 1,10
1039,37.99999999999999,0.0, 7,29, 1,10,0.16666666666666666, 7,29,15,30
581,0.080389322281824,0.0, 7,29, 6,40,0.4161416706333876, 8, 3,11,55
582,2.5794084554432324,0.0, 7,29,20,42,9.071093294737551, 8, 3,13,60
583,3.119936425176051,0.0, 7,30,23, 3,11.174061702538125, 8, 3,11,55
1115,0.0,0.0, 7,29, 1,10,0.0, 7,29, 1,10
1128,0.0,0.0, 7,29, 1,10,0.0, 7,29, 1,10
1153,0.0,0.0, 7,29, 1,10,0.0, 7,29, 1,10
1154,0.0,0.0, 7,29, 1,10,0.0, 7,29, 1,10
1156,0.0,0.0, 7,29, 1,10,0.0, 7,29, 1,10
13,1085423135.7455237,129202.28328116327, 7,31, 4,60,2202984.218003847, 8, 3,20,10
61,301924526.0238348,58759.40635443481, 7,29, 1,10,854682.2742463244, 7,29,20,10
134,70666020.44019979,42376.01200569399, 7,29, 4,10,104369.48322671017, 8, 3,20,10
170,5241013.419656074,232.27731661587313, 7,29, 4,10,11650.931360040839, 8, 3,12,10
207,6509451.13922266,543.5021409221355, 7,29, 3,10,15327.095199349082, 8, 3,10,10
244,12749673.39982522,1014.5707620042115, 7,29, 4,10,35359.08742820678, 8, 3,20,10
281,46165882.48149605,39959.06841621388, 7,29, 5,10,54634.54471212738, 7,29,19,10
318,0.0,0.0, 7,29, 1,10,0.0, 7,29, 1,10
355,631154970.9245874,12374.216038804521, 7,29, 4,10,3829218.154066982, 7,30,18,60
403,197687796.27748126,12374.216038804521, 7,29, 4,10,483183.26346918393, 8, 3,18,10
476,106772067.24485692,4732.048419519677, 7,29, 4,10,237357.535085481, 8, 3,12,10
513,0.0,0.0, 7,29, 1,10,0.0, 7,29, 1,10
562,62015684.10310404,0.0, 7,31, 6,20,101172.75724835994, 7,29,14,50
1046,0.0,0.0, 7,29, 1,10,0.0, 7,29, 1,10
1096,645797065.1783829,0.0, 7,31, 6,20,1225059.2607020773, 8, 1,13,60
1134,0.0,0.0, 7,29, 1,10,0.0, 7,29, 1,10
1323,433467174.64710426,0.0, 7,29, 1,10,3375000.0, 7,29, 9,50
1360,5019840.0,4979.999999999999, 8, 1,19,40,4980.000000000002, 7,30,20,20
1388,0.0,0.0, 7,29, 1,10,0.0, 7,29, 1,10
1,ANNUAL,  36.01, -94.17,  -6.00, 381.00
5,365
1038,3.333333333333332,0.0, 1, 1, 1,10,0.16666666666666666, 1, 3, 6,10
1039,413.1666666666667,0.0, 1, 1, 1,10,0.16666666666666666, 2,14,14,40
581,0.18875763143468077,0.0, 5,11,20,45,0.9685795342475979, 4, 8,11,52
582,2.920369811908584,0.0, 1, 1,22,60,20.940258908677514, 3, 6,12,60
583,3.578167699278777,0.0, 5,24,23, 2,27.167380525677157, 4, 8,11,52
1115,13024386627.171255,0.0, 1, 1, 6, 6,3186882.8943320643, 1, 9, 5,60
1128,4139753090.5918365,0.0, 1, 1, 6, 6,978810.6780903287, 1, 9, 6,20
1153,209486078.87366125,0.0, 1, 1, 6, 6,93648.7725096719, 2,13, 6,30
1154,1518052333.1344628,0.0, 1, 1, 6, 3,120000.0, 1, 3,19,10
1156,719912554.8107505,0.0, 1, 1, 1,10,3109708.071367049, 1, 8, 6,30
13,40304726393.184586,106115.4183601288, 2, 7, 4,10,4510449.256892469, 1, 8, 6,50
61,15743207428.39043,58759.40635443481, 1, 1, 1,10,854682.2742463244, 1, 1,20,10
134,3685071073.433083,42376.01200569399, 1, 2, 4,10,104369.48322671017, 1, 1,20,10
170,273393721.45534325,232.27731661587313, 1, 2, 4,10,11650.931360040839, 1, 1,12,10
207,339560869.06955314,543.5021409221355, 1, 2, 3,10,15327.095199349082, 1, 1,10,10
244,664895467.8009839,1014.5707620042115, 1, 2, 4,10,35359.08742820678, 1, 1,20,10
281,2407221015.1057043,39959.06841621388, 1, 1, 5,10,54634.54471212738, 1, 1,19,10
318,0.0,0.0, 1, 1, 1,10,0.0, 1, 1, 1,10
355,35693457998.51267,12374.216038804521, 1, 2, 4,10,3829218.154066983, 2, 7,18,60
403,10310294493.052883,12374.216038804521, 1, 2, 4,10,483183.26346918393, 1, 1,18,10
476,5569688622.065564,4732.048419519677, 1, 2, 4,10,237357.535085481, 1, 1,12,10
513,0.0,0.0, 1, 1, 1,10,0.0, 1, 1, 1,10
562,1779406976.8143468,0.0, 1, 1,23,10,101172.75724835995, 9, 7,16,40
1046,0.0,0.0, 1, 1, 1,10,0.0, 1, 1, 1,10
1096,12248088057.142845,0.0, 1, 1, 1,10,1232096.8836558945, 8, 5,17,50
1134,6587204057.410757,0.0, 1,16,12,20,3991042.9566124105, 1,10, 6,10
1323,25383163505.463814,0.0, 1, 1, 1,10,3375000.000000002, 2,27,17,10
1360,261748800.0,4979.999999999998, 1,27,11,10,4980.000000000002, 1,30,16,40
1388,0.0,0.0, 1, 1, 1,10,0.0, 1, 1, 1,10
End of Data
 Number of Records Written=          87
