Program Version,EnergyPlus, Version 9.5.0-de239b2e5f, YMD=2022.08.10 15:49
1,5,Environment Title[],Latitude[deg],Longitude[deg],Time Zone[],Elevation[m]
2,8,Day of Simulation[],Month[],Day of Month[],DST Indicator[1=yes 0=no],Hour[],StartMinute[],EndMinute[],DayType
3,5,Cumulative Day of Simulation[],Month[],Day of Month[],DST Indicator[1=yes 0=no],DayType  ! When Daily Report Variables Requested
4,2,Cumulative Days of Simulation[],Month[]  ! When Monthly Report Variables Requested
5,1,Cumulative Days of Simulation[] ! When Run Period Report Variables Requested
6,1,Calendar Year of Simulation[] ! When Annual Report Variables Requested
191,1,UNHEATEDBSMT_UNIT1,Zone Windows Total Transmitted Solar Radiation Rate [W] !Hourly
192,1,UNHEATEDBSMT_UNIT1,Zone Windows Total Transmitted Solar Radiation Energy [J] !Hourly
193,1,UNHEATEDBSMT_UNIT1,Zone Windows Total Heat Gain Energy [J] !Hourly
194,1,LIVING_UNIT1,Zone Windows Total Transmitted Solar Radiation Rate [W] !Hourly
195,1,LIVING_UNIT1,Zone Windows Total Transmitted Solar Radiation Energy [J] !Hourly
196,1,LIVING_UNIT1,Zone Windows Total Heat Gain Energy [J] !Hourly
197,1,ATTIC_UNIT1,Zone Windows Total Transmitted Solar Radiation Rate [W] !Hourly
198,1,ATTIC_UNIT1,Zone Windows Total Transmitted Solar Radiation Energy [J] !Hourly
199,1,ATTIC_UNIT1,Zone Windows Total Heat Gain Energy [J] !Hourly
200,1,UNHEATEDBSMT_UNIT1,Zone Mean Air Temperature [C] !Hourly
201,1,LIVING_UNIT1,Zone Mean Air Temperature [C] !Hourly
202,1,ATTIC_UNIT1,Zone Mean Air Temperature [C] !Hourly
279,1,UNHEATEDBSMT_UNIT1,AFN Zone Infiltration Sensible Heat Gain Rate [W] !Hourly
280,1,LIVING_UNIT1,AFN Zone Infiltration Sensible Heat Gain Rate [W] !Hourly
281,1,ATTIC_UNIT1,AFN Zone Infiltration Sensible Heat Gain Rate [W] !Hourly
282,1,UNHEATEDBSMT_UNIT1,AFN Zone Infiltration Air Change Rate [ach] !Hourly
283,1,LIVING_UNIT1,AFN Zone Infiltration Air Change Rate [ach] !Hourly
284,1,ATTIC_UNIT1,AFN Zone Infiltration Air Change Rate [ach] !Hourly
618,1,Whole Building,Facility Total HVAC Electricity Demand Rate [W] !Hourly
End of Data Dictionary
1,KALISPELL-GLACIER.PARK.INTL.A ANN HTG 99.6% CONDNS DB,  48.30,-114.27,  -7.00, 906.00
2,1, 1,21, 0, 1, 0.00,60.00,WinterDesignDay
191,0.0
192,0.0
193,0.0
194,0.0
195,0.0
196,0.0
197,0.0
198,0.0
199,0.0
200,16.644985997670525
201,15.59124114342184
202,-6.198572549457838
279,0.0
280,0.0
281,0.0
282,0.3498473989986545
283,0.4954991939729077
284,0.7535770316845379
618,9770.902002856958
2,1, 1,21, 0, 2, 0.00,60.00,WinterDesignDay
191,0.0
192,0.0
193,0.0
194,0.0
195,0.0
196,0.0
197,0.0
198,0.0
199,0.0
200,16.20397296125289
201,15.59195750948734
202,-6.196620119853187
279,0.0
280,0.0
281,0.0
282,0.34954604014663218
283,0.4954549419661957
284,0.7535201166355107
618,9770.902002856958
2,1, 1,21, 0, 3, 0.00,60.00,WinterDesignDay
191,0.0
192,0.0
193,0.0
194,0.0
195,0.0
196,0.0
197,0.0
198,0.0
199,0.0
200,15.92782995569758
201,15.580648843508584
202,-6.204205506117914
279,0.0
280,0.0
281,0.0
282,0.3486850157511791
283,0.495494958442705
284,0.7536630004850597
618,9770.902002856958
2,1, 1,21, 0, 4, 0.00,60.00,WinterDesignDay
191,0.0
192,0.0
193,0.0
194,0.0
195,0.0
196,0.0
197,0.0
198,0.0
199,0.0
200,15.666513448721963
201,15.569677368563019
202,-6.210721011858607
279,0.0
280,0.0
281,0.0
282,0.3480196326699226
283,0.49542552272351367
284,0.753723154584739
618,9770.902002856958
2,1, 1,21, 0, 5, 0.00,60.00,WinterDesignDay
191,0.0
192,0.0
193,0.0
194,0.0
195,0.0
196,0.0
197,0.0
198,0.0
199,0.0
200,15.434267652059708
201,15.556654445410711
202,-6.218828275658698
279,0.0
280,0.0
281,0.0
282,0.3474085034492562
283,0.49535404991972589
284,0.7537817389191566
618,9770.902002856958
2,1, 1,21, 0, 6, 0.00,60.00,WinterDesignDay
191,0.0
192,0.0
193,0.0
194,0.0
195,0.0
196,0.0
197,0.0
198,0.0
199,0.0
200,15.219395280137425
201,15.54240123425375
202,-6.227149525704396
279,0.0
280,0.0
281,0.0
282,0.3468506048440866
283,0.49526190768388447
284,0.7538234320113935
618,9770.902002856958
2,1, 1,21, 0, 7, 0.00,60.00,WinterDesignDay
191,0.0
192,0.0
193,0.0
194,0.0
195,0.0
196,0.0
197,0.0
198,0.0
199,0.0
200,15.020184166209127
201,15.526665627458846
202,-6.236174155839869
279,0.0
280,0.0
281,0.0
282,0.3463297931910557
283,0.495155964044956
284,0.7538642352817165
618,9770.902002856958
2,1, 1,21, 0, 8, 0.00,60.00,WinterDesignDay
191,0.0
192,0.0
193,0.0
194,0.0
195,0.0
196,0.0
197,0.0
198,0.0
199,0.0
200,14.833295110178762
201,15.509783271074279
202,-6.24558566419821
279,0.0
280,0.0
281,0.0
282,0.3458400204874675
283,0.49503517566387397
284,0.7539006124737966
618,9770.902002856958
2,1, 1,21, 0, 9, 0.00,60.00,WinterDesignDay
191,0.0
192,0.0
193,0.0
194,0.0
195,0.0
196,0.0
197,0.0
198,0.0
199,0.0
200,14.656893965014858
201,15.491949058476259
202,-6.255356854714027
279,0.0
280,0.0
281,0.0
282,0.34537577084462436
283,0.4949029016487252
284,0.7539347107388245
618,9770.902002856958
2,1, 1,21, 0,10, 0.00,60.00,WinterDesignDay
191,0.0
192,0.0
193,0.0
194,0.0
195,0.0
196,0.0
197,0.0
198,0.0
199,0.0
200,14.489561438468908
201,15.473344161524205
202,-6.265391278616358
279,0.0
280,0.0
281,0.0
282,0.3449334911464268
283,0.494761078522404
284,0.753966446451006
618,9770.902002856958
2,1, 1,21, 0,11, 0.00,60.00,WinterDesignDay
191,0.0
192,0.0
193,0.0
194,0.0
195,0.0
196,0.0
197,0.0
198,0.0
199,0.0
200,14.330221779685937
201,15.454124146154618
202,-6.275633111267036
279,0.0
280,0.0
281,0.0
282,0.34451050000381158
283,0.4946114855527929
284,0.7539963408604445
618,9770.902002856958
2,1, 1,21, 0,12, 0.00,60.00,WinterDesignDay
191,0.0
192,0.0
193,0.0
194,0.0
195,0.0
196,0.0
197,0.0
198,0.0
199,0.0
200,14.178013438664437
201,15.434422902029713
202,-6.286025445285851
279,0.0
280,0.0
281,0.0
282,0.3441047311891882
283,0.4944556126581489
284,0.7540245644515312
618,9770.902002856958
2,1, 1,21, 0,13, 0.00,60.00,WinterDesignDay
191,0.0
192,0.0
193,0.0
194,0.0
195,0.0
196,0.0
197,0.0
198,0.0
199,0.0
200,14.032229999160725
201,15.414355187410092
202,-6.296522521606703
279,0.0
280,0.0
281,0.0
282,0.3437145230971431
283,0.4942947379317842
284,0.7540513338917352
618,9770.902002856958
2,1, 1,21, 0,14, 0.00,60.00,WinterDesignDay
191,0.0
192,0.0
193,0.0
194,0.0
195,0.0
196,0.0
197,0.0
198,0.0
199,0.0
200,13.892279611728967
201,15.394019107166772
202,-6.307083894727468
279,0.0
280,0.0
281,0.0
282,0.3433385040519663
283,0.4941299500017949
284,0.7540768021308826
618,9770.902002856958
2,1, 1,21, 0,15, 0.00,60.00,WinterDesignDay
191,0.0
192,0.0
193,0.0
194,0.0
195,0.0
196,0.0
197,0.0
198,0.0
199,0.0
200,13.757658533862232
201,15.373498558318059
202,-6.317675265017521
279,0.0
280,0.0
281,0.0
282,0.34297551742617896
283,0.49396217880986939
284,0.7541011117278772
618,9770.902002856958
2,1, 1,21, 0,16, 0.00,60.00,WinterDesignDay
191,0.0
192,0.0
193,0.0
194,0.0
195,0.0
196,0.0
197,0.0
198,0.0
199,0.0
200,13.62793255525449
201,15.35286530937187
202,-6.328267158395856
279,0.0
280,0.0
281,0.0
282,0.34262457194694576
283,0.4937922192187189
284,0.7541243830823515
618,9770.902002856958
2,1, 1,21, 0,17, 0.00,60.00,WinterDesignDay
191,0.0
192,0.0
193,0.0
194,0.0
195,0.0
196,0.0
197,0.0
198,0.0
199,0.0
200,13.502723515343515
201,15.332180806216341
202,-6.33883449118279
279,0.0
280,0.0
281,0.0
282,0.3422848069729796
283,0.4936207519016665
284,0.7541467225613415
618,9770.902002856958
2,1, 1,21, 0,18, 0.00,60.00,WinterDesignDay
191,0.0
192,0.0
193,0.0
194,0.0
195,0.0
196,0.0
197,0.0
198,0.0
199,0.0
200,13.381699123469519
201,15.311497682726352
202,-6.349355927448655
279,0.0
280,0.0
281,0.0
282,0.341955467196612
283,0.4934483605615898
284,0.7541682221383987
618,9770.902002856958
2,1, 1,21, 0,19, 0.00,60.00,WinterDesignDay
191,0.0
192,0.0
193,0.0
194,0.0
195,0.0
196,0.0
197,0.0
198,0.0
199,0.0
200,13.264564883879393
201,15.290861028829076
202,-6.3598134062834259
279,0.0
280,0.0
281,0.0
282,0.3416358833072634
283,0.49327554631316158
284,0.7541889620229755
618,9770.902002856958
2,1, 1,21, 0,20, 0.00,60.00,WinterDesignDay
191,0.0
192,0.0
193,0.0
194,0.0
195,0.0
196,0.0
197,0.0
198,0.0
199,0.0
200,13.151056928026272
201,15.27030944374976
202,-6.370191696391165
279,0.0
280,0.0
281,0.0
282,0.3413254558454353
283,0.49310273970261739
284,0.7542090116226671
618,9770.902002856958
2,1, 1,21, 0,21, 0.00,60.00,WinterDesignDay
191,0.0
192,0.0
193,0.0
194,0.0
195,0.0
196,0.0
197,0.0
198,0.0
199,0.0
200,13.040932787257102
201,15.24987590169078
202,-6.380478035485296
279,0.0
280,0.0
281,0.0
282,0.34102363733273918
283,0.4929303107451958
284,0.7542284313306162
618,9770.902002856958
2,1, 1,21, 0,22, 0.00,60.00,WinterDesignDay
191,0.0
192,0.0
193,0.0
194,0.0
195,0.0
196,0.0
197,0.0
198,0.0
199,0.0
200,12.933936718799407
201,15.22958840622413
202,-6.390661878690013
279,0.0
280,0.0
281,0.0
282,0.3407298813149766
283,0.4927585773600772
284,0.7542472753021672
618,9770.902002856958
2,1, 1,21, 0,23, 0.00,60.00,WinterDesignDay
191,0.0
192,0.0
193,0.0
194,0.0
195,0.0
196,0.0
197,0.0
198,0.0
199,0.0
200,12.830270693071649
201,15.209469976348205
202,-6.400735140257311
279,0.0
280,0.0
281,0.0
282,0.3404441626665814
283,0.49258781432961276
284,0.7542656010228029
618,9770.902002856958
2,1, 1,21, 0,24, 0.00,60.00,WinterDesignDay
191,0.0
192,0.0
193,0.0
194,0.0
195,0.0
196,0.0
197,0.0
198,0.0
199,0.0
200,12.729612889709104
201,15.189548476709172
202,-6.410684303604304
279,0.0
280,0.0
281,0.0
282,0.34016637242540456
283,0.4924182129169365
284,0.7542833295452053
618,9770.902002856958
1,KALISPELL-GLACIER.PARK.INTL.A ANN CLG .4% CONDNS DB=>MWB,  48.30,-114.27,  -7.00, 906.00
2,1, 7,21, 0, 1, 0.00,60.00,SummerDesignDay
191,0.0
192,0.0
193,0.0
194,0.0
195,0.0
196,0.0
197,0.0
198,0.0
199,0.0
200,20.550870536418619
201,33.75579601133516
202,20.377340983562346
279,0.0
280,0.0
281,0.0
282,0.5256479604907066
283,0.36669153772168186
284,2.869730602407407
618,248.58255920064256
2,1, 7,21, 0, 2, 0.00,60.00,SummerDesignDay
191,0.0
192,0.0
193,0.0
194,0.0
195,0.0
196,0.0
197,0.0
198,0.0
199,0.0
200,20.277936531181234
201,32.68996187754598
202,19.234911027422979
279,0.0
280,0.0
281,0.0
282,0.525988984813808
283,0.3634470496442153
284,2.8663969306483376
618,248.58255920064256
2,1, 7,21, 0, 3, 0.00,60.00,SummerDesignDay
191,0.0
192,0.0
193,0.0
194,0.0
195,0.0
196,0.0
197,0.0
198,0.0
199,0.0
200,20.019387367904558
201,31.640886299903149
202,18.30299763885971
279,0.0
280,0.0
281,0.0
282,0.5259421934512523
283,0.35855263649733656
284,2.8641487323857359
618,248.58255920064256
2,1, 7,21, 0, 4, 0.00,60.00,SummerDesignDay
191,0.0
192,0.0
193,0.0
194,0.0
195,0.0
196,0.0
197,0.0
198,0.0
199,0.0
200,19.750287296571427
201,30.608503903446324
202,17.496198774638388
279,0.0
280,0.0
281,0.0
282,0.5258847794959167
283,0.3543568333320343
284,2.86372705289017
618,248.58255920064256
2,1, 7,21, 0, 5, 0.00,60.00,SummerDesignDay
191,0.0
192,0.0
193,0.0
194,0.0
195,0.0
196,0.0
197,0.0
198,0.0
199,0.0
200,19.533188947740049
201,29.632755914336728
202,16.834224543200116
279,0.0
280,0.0
281,0.0
282,0.5255206514947247
283,0.34989004791150976
284,2.86310499250076
618,248.58255920064256
2,1, 7,21, 0, 6, 0.00,60.00,SummerDesignDay
191,0.0
192,0.0
193,0.0
194,1199.0589670177522
195,4316612.281263907
196,2821885.494005236
197,0.0
198,0.0
199,0.0
200,19.39032194108008
201,29.171274672204438
202,17.148161498840947
279,0.0
280,0.0
281,0.0
282,0.5236839919241086
283,0.3404766550159223
284,2.864029625745434
618,248.58255920064256
2,1, 7,21, 0, 7, 0.00,60.00,SummerDesignDay
191,0.0
192,0.0
193,0.0
194,2358.4743209002469
195,8490507.555240889
196,8357138.356511578
197,0.0
198,0.0
199,0.0
200,19.392168190610936
201,29.26772862786021
202,19.408972353894329
279,0.0
280,0.0
281,0.0
282,0.5204534139461108
283,0.3279324642772406
284,2.8753931381494777
618,248.58255920064256
2,1, 7,21, 0, 8, 0.00,60.00,SummerDesignDay
191,0.0
192,0.0
193,0.0
194,2755.361857484982
195,9919302.686945936
196,10385067.059632987
197,0.0
198,0.0
199,0.0
200,19.661193223578569
201,29.66086412860762
202,24.00419661740739
279,0.0
280,0.0
281,0.0
282,0.5141717245766988
283,0.30525333636784887
284,2.8949769494504724
618,248.58255920064256
2,1, 7,21, 0, 9, 0.00,60.00,SummerDesignDay
191,0.0
192,0.0
193,0.0
194,2939.1100774186909
195,10580796.278707287
196,11739689.840536289
197,0.0
198,0.0
199,0.0
200,19.915348378772199
201,30.298845576240166
202,29.7223703166312
279,93.40511201036949
280,0.0
281,0.0
282,0.50759534739153
283,0.28298151123409329
284,2.930477461018902
618,248.58255920064256
2,1, 7,21, 0,10, 0.00,60.00,SummerDesignDay
191,0.0
192,0.0
193,0.0
194,3005.741552148279
195,10820669.587733806
196,12827688.862932243
197,0.0
198,0.0
199,0.0
200,20.20063687513272
201,31.167743890991557
202,35.27141825619637
279,192.6618935919106
280,0.0
281,0.0
282,0.5022102335219534
283,0.2660062169624843
284,2.97123524267814
618,248.58255920064256
2,1, 7,21, 0,11, 0.00,60.00,SummerDesignDay
191,0.0
192,0.0
193,0.0
194,2856.1241648956249
195,10282046.99362425
196,12803883.9873378
197,0.0
198,0.0
199,0.0
200,20.48538094295524
201,32.16190654048156
202,40.555238239665637
279,277.3197802580262
280,0.0
281,0.0
282,0.497857955451705
283,0.2530143890243507
284,3.0103980900198534
618,248.58255920064256
2,1, 7,21, 0,12, 0.00,60.00,SummerDesignDay
191,0.0
192,0.0
193,0.0
194,2482.5671277717694
195,8937241.65997837
196,11392817.51051576
197,0.0
198,0.0
199,0.0
200,20.735689354895088
201,33.10495396000301
202,44.71973751672816
279,330.9633169924599
280,0.0
281,0.0
282,0.4954500262397055
283,0.24996612618160975
284,3.0440433618353435
618,248.58255920064256
2,1, 7,21, 0,13, 0.00,60.00,SummerDesignDay
191,0.0
192,0.0
193,0.0
194,2241.281554854263
195,8068613.597475347
196,9940684.024275037
197,0.0
198,0.0
199,0.0
200,20.973827236683574
201,33.98395590980472
202,47.79230634107757
279,372.1877160841301
280,0.0
281,0.0
282,0.4937044295503865
283,0.2487045935851234
284,3.0665005451353086
618,248.58255920064256
2,1, 7,21, 0,14, 0.00,60.00,SummerDesignDay
191,0.0
192,0.0
193,0.0
194,2337.8082990922919
195,8416109.87673225
196,10685592.83386254
197,0.0
198,0.0
199,0.0
200,21.183287969406103
201,34.976834398970357
202,49.59228029404841
279,395.82645969801089
280,0.0
281,0.0
282,0.4929367282142271
283,0.2516310135437742
284,3.078130926301267
618,248.58255920064256
2,1, 7,21, 0,15, 0.00,60.00,SummerDesignDay
191,0.0
192,0.0
193,0.0
194,2702.485876110812
195,9728949.153998925
196,12323207.08313738
197,0.0
198,0.0
199,0.0
200,21.353992683389138
201,36.09507334967584
202,50.06062603856205
279,390.4327282981553
280,0.0
281,0.0
282,0.49394600134589125
283,0.26394608601880778
284,3.0804785494591768
618,248.58255920064256
2,1, 7,21, 0,16, 0.00,60.00,SummerDesignDay
191,0.0
192,0.0
193,0.0
194,2974.961509509939
195,10709861.43423578
196,12883568.282471754
197,0.0
198,0.0
199,0.0
200,21.47192066322465
201,37.162395438974979
202,49.10682062110554
279,350.17467671394288
280,0.0
281,0.0
282,0.49710701813961558
283,0.2856615679608321
284,3.07532265651281
618,248.58255920064256
2,1, 7,21, 0,17, 0.00,60.00,SummerDesignDay
191,0.0
192,0.0
193,0.0
194,2985.0091335393638
195,10746032.880741708
196,12139020.333315956
197,0.0
198,0.0
199,0.0
200,21.56057515449732
201,38.03996176268383
202,46.8362298174229
279,297.9588815159699
280,0.0
281,0.0
282,0.500902477626641
283,0.30680697188454017
284,3.05854835517555
618,248.58255920064256
2,1, 7,21, 0,18, 0.00,60.00,SummerDesignDay
191,0.0
192,0.0
193,0.0
194,2845.7583684950934
195,10244730.126582336
196,10783022.558696948
197,0.0
198,0.0
199,0.0
200,21.607542696246659
201,38.634028570166687
202,43.42165388076754
279,233.71828678120586
280,0.0
281,0.0
282,0.5052495804519822
283,0.326666131442377
284,3.032663726547433
618,248.58255920064256
2,1, 7,21, 0,19, 0.00,60.00,SummerDesignDay
191,0.0
192,0.0
193,0.0
194,2572.772259485267
195,9261980.134146963
196,9214726.319048474
197,0.0
198,0.0
199,0.0
200,21.571057369730445
201,38.92274840919765
202,38.861284448923239
279,139.01112825876028
280,0.0
281,0.0
282,0.5112020837792402
283,0.3494547935469501
284,3.004121496986468
618,248.58255920064256
2,1, 7,21, 0,20, 0.00,60.00,SummerDesignDay
191,0.0
192,0.0
193,0.0
194,1892.4415510503332
195,6812789.5837811999
196,5821608.031620325
197,0.0
198,0.0
199,0.0
200,21.539812466232516
201,38.80478617634821
202,34.019390332203297
279,68.25074090384254
280,0.0
281,0.0
282,0.5154505637634544
283,0.36163831666500537
284,2.9634257571694997
618,248.58255920064256
2,1, 7,21, 0,21, 0.00,60.00,SummerDesignDay
191,0.0
192,0.0
193,0.0
194,0.0
195,0.0
196,0.0
197,0.0
198,0.0
199,0.0
200,21.481242327924137
201,37.86427492709398
202,29.4442768610587
279,10.671400982531779
280,0.0
281,0.0
282,0.5186620132308593
283,0.3667196598404298
284,2.921952698309776
618,248.58255920064256
2,1, 7,21, 0,22, 0.00,60.00,SummerDesignDay
191,0.0
192,0.0
193,0.0
194,0.0
195,0.0
196,0.0
197,0.0
198,0.0
199,0.0
200,21.340174832828198
201,36.8408616786485
202,25.929661333603158
279,0.0
280,0.0
281,0.0
282,0.5212594758907659
283,0.36718560687287257
284,2.8950134319996847
618,248.58255920064256
2,1, 7,21, 0,23, 0.00,60.00,SummerDesignDay
191,0.0
192,0.0
193,0.0
194,0.0
195,0.0
196,0.0
197,0.0
198,0.0
199,0.0
200,21.186216192432068
201,35.82914252498252
202,23.59671348444779
279,0.0
280,0.0
281,0.0
282,0.5230187206808804
283,0.3655410931263868
284,2.8790852129728066
618,248.58255920064256
2,1, 7,21, 0,24, 0.00,60.00,SummerDesignDay
191,0.0
192,0.0
193,0.0
194,0.0
195,0.0
196,0.0
197,0.0
198,0.0
199,0.0
200,21.00499108436894
201,34.78932418782079
202,21.83816069186387
279,0.0
280,0.0
281,0.0
282,0.5248085755754041
283,0.36586476322256658
284,2.873068342527724
618,248.58255920064256
1,SUB-ANNUAL,  48.30,-114.27,  -7.00, 906.00
2,1, 1, 1, 0, 1, 0.00,60.00,Sunday
191,0.0
192,0.0
193,0.0
194,0.0
195,0.0
196,0.0
197,0.0
198,0.0
199,0.0
200,16.89014087475894
201,20.554140258359764
202,7.739625881221898
279,0.0
280,0.0
281,0.0
282,0.33716238140317719
283,0.43553046012812449
284,0.0
618,6439.389177996537
2,1, 1, 1, 0, 2, 0.00,60.00,Sunday
191,0.0
192,0.0
193,0.0
194,0.0
195,0.0
196,0.0
197,0.0
198,0.0
199,0.0
200,16.290998892437434
201,20.553300795510205
202,5.265501727946453
279,0.0
280,0.0
281,0.0
282,0.3451239442301622
283,0.47525462239784879
284,0.0
618,7386.019689735481
2,1, 1, 1, 0, 3, 0.00,60.00,Sunday
191,0.0
192,0.0
193,0.0
194,0.0
195,0.0
196,0.0
197,0.0
198,0.0
199,0.0
200,15.866084425192787
201,20.552116494227016
202,3.1147275010628294
279,0.0
280,0.0
281,0.0
282,0.35091938572698735
283,0.5028683333756948
284,0.0
618,8204.822723404746
2,1, 1, 1, 0, 4, 0.00,60.00,Sunday
191,0.0
192,0.0
193,0.0
194,0.0
195,0.0
196,0.0
197,0.0
198,0.0
199,0.0
200,15.268154285806599
201,20.551500548611565
202,0.13954585807717896
279,0.0
280,0.0
281,0.0
282,0.4310099589746455
283,0.504748259342322
284,2.0716533174268356
618,8574.29196136319
2,1, 1, 1, 0, 5, 0.00,60.00,Sunday
191,0.0
192,0.0
193,0.0
194,0.0
195,0.0
196,0.0
197,0.0
198,0.0
199,0.0
200,15.37340669627017
201,20.55187501445014
202,0.2902743557416287
279,0.0
280,0.0
281,0.0
282,0.346525529077919
283,0.49383599295949906
284,0.0
618,8742.483954682823
2,1, 1, 1, 0, 6, 0.00,60.00,Sunday
191,0.0
192,0.0
193,0.0
194,0.0
195,0.0
196,0.0
197,0.0
198,0.0
199,0.0
200,15.26351523178687
201,20.553921726603496
202,0.30421353415187038
279,0.0
280,0.0
281,0.0
282,0.34074908591452637
283,0.4685819587955621
284,0.0
618,8391.265939721401
2,1, 1, 1, 0, 7, 0.00,60.00,Sunday
191,0.0
192,0.0
193,0.0
194,0.0
195,0.0
196,0.0
197,0.0
198,0.0
199,0.0
200,15.126654973099932
201,20.551435027860174
202,0.6609978025108032
279,0.0
280,0.0
281,0.0
282,0.3488700094730728
283,0.453682058403343
284,1.1625205860177559
618,8283.901422646572
2,1, 1, 1, 0, 8, 0.00,60.00,Sunday
191,0.0
192,0.0
193,0.0
194,0.0
195,0.0
196,0.0
197,0.0
198,0.0
199,0.0
200,15.094587293969135
201,20.55366144363261
202,1.9966228549769925
279,0.0
280,0.0
281,0.0
282,0.3322387063764718
283,0.43227403666906297
284,0.0
618,8003.04590451625
2,1, 1, 1, 0, 9, 0.00,60.00,Sunday
191,0.0
192,0.0
193,0.0
194,0.0
195,0.0
196,0.0
197,0.0
198,0.0
199,0.0
200,14.946602775871888
201,20.551916523643276
202,2.5725895617318805
279,0.0
280,0.0
281,0.0
282,0.33182037967702818
283,0.43329973383323397
284,0.0
618,8043.209628294495
2,1, 1, 1, 0,10, 0.00,60.00,Sunday
191,0.0
192,0.0
193,0.0
194,43.68939803263309
195,157281.83291747914
196,0.0
197,0.0
198,0.0
199,0.0
200,14.9180715334696
201,20.554086017814148
202,3.5195180974230038
279,0.0
280,0.0
281,0.0
282,0.32657651605432838
283,0.4113361549618201
284,0.0
618,7632.361906389017
2,1, 1, 1, 0,11, 0.00,60.00,Sunday
191,0.0
192,0.0
193,0.0
194,132.25655172236464
195,476123.58620051268
196,0.0
197,0.0
198,0.0
199,0.0
200,14.895071449602645
201,20.55333533717623
202,5.047218931531508
279,0.0
280,0.0
281,0.0
282,0.32152178599754357
283,0.3888181112245733
284,0.0
618,7106.065395936409
2,1, 1, 1, 0,12, 0.00,60.00,Sunday
191,0.0
192,0.0
193,0.0
194,201.85394999298974
195,726674.219974763
196,0.0
197,0.0
198,0.0
199,0.0
200,14.839146546459862
201,20.55360707900884
202,6.8344489200829419
279,0.0
280,0.0
281,0.0
282,0.31919002989773778
283,0.37866528992098449
284,0.0
618,6718.60270147778
2,1, 1, 1, 0,13, 0.00,60.00,Sunday
191,0.0
192,0.0
193,0.0
194,422.87874012072617
195,1522363.4644346142
196,0.0
197,0.0
198,0.0
199,0.0
200,14.795611359060443
201,20.554105439882205
202,9.151122157284373
279,0.0
280,0.0
281,0.0
282,0.31696130572338096
283,0.36949920055493087
284,0.0
618,6196.328489153469
2,1, 1, 1, 0,14, 0.00,60.00,Sunday
191,0.0
192,0.0
193,0.0
194,398.51569671385547
195,1434656.5081698797
196,0.0
197,0.0
198,0.0
199,0.0
200,14.76074124837463
201,20.554428298836684
202,10.870257077157529
279,0.0
280,0.0
281,0.0
282,0.3146843866010717
283,0.3597363180259791
284,0.0
618,5746.986624162374
2,1, 1, 1, 0,15, 0.00,60.00,Sunday
191,0.0
192,0.0
193,0.0
194,491.2846565729608
195,1768624.7636626589
196,0.0
197,0.0
198,0.0
199,0.0
200,14.686730346213603
201,20.554620394362066
202,12.235697501134393
279,0.0
280,0.0
281,0.0
282,0.3148712536620194
283,0.36127053211508577
284,0.0
618,5441.181768381729
2,1, 1, 1, 0,16, 0.00,60.00,Sunday
191,0.0
192,0.0
193,0.0
194,217.6549444234413
195,783557.7999243887
196,0.0
197,0.0
198,0.0
199,0.0
200,14.619287277103457
201,20.55462717611624
202,12.21040251539697
279,0.0
280,0.0
281,0.0
282,0.3149586980724957
283,0.36252071492582668
284,0.0
618,5368.061802921033
2,1, 1, 1, 0,17, 0.00,60.00,Sunday
191,0.0
192,0.0
193,0.0
194,87.85854651131253
195,316290.7674407251
196,0.0
197,0.0
198,0.0
199,0.0
200,14.602380076773312
201,20.554844105025077
202,11.753693564738573
279,0.0
280,0.0
281,0.0
282,0.31229427951437196
283,0.3498922694766889
284,0.0
618,5198.5655898615809
2,1, 1, 1, 0,18, 0.00,60.00,Sunday
191,0.0
192,0.0
193,0.0
194,0.0
195,0.0
196,0.0
197,0.0
198,0.0
199,0.0
200,14.540819550029252
201,20.554905382353956
202,11.08360708159609
279,0.0
280,0.0
281,0.0
282,0.31237351665847687
283,0.350168098821309
284,0.0
618,5204.001491040143
2,1, 1, 1, 0,19, 0.00,60.00,Sunday
191,0.0
192,0.0
193,0.0
194,0.0
195,0.0
196,0.0
197,0.0
198,0.0
199,0.0
200,14.446412268925819
201,20.554893209049405
202,10.508467790314566
279,0.0
280,0.0
281,0.0
282,0.31803925147771258
283,0.3614781927306654
284,0.0
618,5300.145835231661
2,1, 1, 1, 0,20, 0.00,60.00,Sunday
191,0.0
192,0.0
193,0.0
194,0.0
195,0.0
196,0.0
197,0.0
198,0.0
199,0.0
200,14.378719052205465
201,20.554894825783678
202,10.055255964061653
279,0.0
280,0.0
281,0.0
282,0.31463259408808189
283,0.36123349244095168
284,0.0
618,5345.207988962548
2,1, 1, 1, 0,21, 0.00,60.00,Sunday
191,0.0
192,0.0
193,0.0
194,0.0
195,0.0
196,0.0
197,0.0
198,0.0
199,0.0
200,14.367585145430417
201,20.55502670486684
202,9.866428291964465
279,0.0
280,0.0
281,0.0
282,0.3121723857622665
283,0.35036998792062948
284,0.0
618,5200.05903156678
2,1, 1, 1, 0,22, 0.00,60.00,Sunday
191,0.0
192,0.0
193,0.0
194,0.0
195,0.0
196,0.0
197,0.0
198,0.0
199,0.0
200,14.311168779582927
201,20.555034119852317
202,9.7776501588805
279,0.0
280,0.0
281,0.0
282,0.312180001869865
283,0.3505689791348637
284,0.0
618,5206.203918723226
2,1, 1, 1, 0,23, 0.00,60.00,Sunday
191,0.0
192,0.0
193,0.0
194,0.0
195,0.0
196,0.0
197,0.0
198,0.0
199,0.0
200,14.260302785617633
201,20.55503082571348
202,9.725566233748385
279,0.0
280,0.0
281,0.0
282,0.31213280723566436
283,0.35078780771453085
284,0.0
618,5214.681653234333
2,1, 1, 1, 0,24, 0.00,60.00,Sunday
191,0.0
192,0.0
193,0.0
194,0.0
195,0.0
196,0.0
197,0.0
198,0.0
199,0.0
200,14.209109184569737
201,20.555022798851178
202,9.684801678889397
279,0.0
280,0.0
281,0.0
282,0.3120819025249151
283,0.350989196420096
284,0.0
618,5224.415207748216
End of Data
 Number of Records Written=        1368
