Program Version,EnergyPlus, Version 22.2.0-c249759bad, YMD=2023.09.01 15:36
1,5,Environment Title[],Latitude[deg],Longitude[deg],Time Zone[],Elevation[m]
2,8,Day of Simulation[],Month[],Day of Month[],DST Indicator[1=yes 0=no],Hour[],StartMinute[],EndMinute[],DayType
3,5,Cumulative Day of Simulation[],Month[],Day of Month[],DST Indicator[1=yes 0=no],DayType  ! When Daily Report Variables Requested
4,2,Cumulative Days of Simulation[],Month[]  ! When Monthly Report Variables Requested
5,1,Cumulative Days of Simulation[] ! When Run Period Report Variables Requested
6,1,Calendar Year of Simulation[] ! When Annual Report Variables Requested
581,11,LIVING,AFN Zone Infiltration Air Change Rate [ach] !RunPeriod [Value,Min,Month,Day,Hour,Minute,Max,Month,Day,Hour,Minute]
582,11,ATTIC,AFN Zone Infiltration Air Change Rate [ach] !RunPeriod [Value,Min,Month,Day,Hour,Minute,Max,Month,Day,Hour,Minute]
583,11,CRAWLSPACE,AFN Zone Infiltration Air Change Rate [ach] !RunPeriod [Value,Min,Month,Day,Hour,Minute,Max,Month,Day,Hour,Minute]
1038,11,Facility,Facility Heating Setpoint Not Met Time [hr] !RunPeriod [Value,Min,Month,Day,Hour,Minute,Max,Month,Day,Hour,Minute]
1039,11,Facility,Facility Cooling Setpoint Not Met Time [hr] !RunPeriod [Value,Min,Month,Day,Hour,Minute,Max,Month,Day,Hour,Minute]
1115,11,DX_HEATING_COIL,Heating Coil Heating Energy [J] !RunPeriod [Value,Min,Month,Day,Hour,Minute,Max,Month,Day,Hour,Minute]
1128,11,DX_HEATING_COIL,Heating Coil Electricity Energy [J] !RunPeriod [Value,Min,Month,Day,Hour,Minute,Max,Month,Day,Hour,Minute]
1153,11,DX_HEATING_COIL,Heating Coil Defrost Electricity Energy [J] !RunPeriod [Value,Min,Month,Day,Hour,Minute,Max,Month,Day,Hour,Minute]
1154,11,DX_HEATING_COIL,Heating Coil Crankcase Heater Electricity Energy [J] !RunPeriod [Value,Min,Month,Day,Hour,Minute,Max,Month,Day,Hour,Minute]
1155,11,HEATING_RESISTANCE_BACKUP,Heating Coil Heating Energy [J] !RunPeriod [Value,Min,Month,Day,Hour,Minute,Max,Month,Day,Hour,Minute]
1156,11,HEATING_RESISTANCE_BACKUP,Heating Coil Electricity Energy [J] !RunPeriod [Value,Min,Month,Day,Hour,Minute,Max,Month,Day,Hour,Minute]
1292,11,WATER HEATER,Water Heater Heat Loss Energy [J] !RunPeriod [Value,Min,Month,Day,Hour,Minute,Max,Month,Day,Hour,Minute]
1306,11,WATER HEATER,Water Heater Heating Energy [J] !RunPeriod [Value,Min,Month,Day,Hour,Minute,Max,Month,Day,Hour,Minute]
1307,11,WATER HEATER,Water Heater Unmet Demand Heat Transfer Energy [J] !RunPeriod [Value,Min,Month,Day,Hour,Minute,Max,Month,Day,Hour,Minute]
1308,11,WATER HEATER,Water Heater Electricity Energy [J] !RunPeriod [Value,Min,Month,Day,Hour,Minute,Max,Month,Day,Hour,Minute]
13,11,Electricity:Facility [J] !RunPeriod [Value,Min,Month,Day,Hour,Minute,Max,Month,Day,Hour,Minute]
1134,11,Heating:Electricity [J] !RunPeriod [Value,Min,Month,Day,Hour,Minute,Max,Month,Day,Hour,Minute]
1096,11,Cooling:Electricity [J] !RunPeriod [Value,Min,Month,Day,Hour,Minute,Max,Month,Day,Hour,Minute]
562,11,Fans:Electricity [J] !RunPeriod [Value,Min,Month,Day,Hour,Minute,Max,Month,Day,Hour,Minute]
1379,11,Pumps:Electricity [J] !RunPeriod [Value,Min,Month,Day,Hour,Minute,Max,Month,Day,Hour,Minute]
1326,11,WaterSystems:Electricity [J] !RunPeriod [Value,Min,Month,Day,Hour,Minute,Max,Month,Day,Hour,Minute]
61,11,InteriorLights:Electricity [J] !RunPeriod [Value,Min,Month,Day,Hour,Minute,Max,Month,Day,Hour,Minute]
1046,11,ExteriorLights:Electricity [J] !RunPeriod [Value,Min,Month,Day,Hour,Minute,Max,Month,Day,Hour,Minute]
134,11,InteriorEquipment:Electricity [J] !RunPeriod [Value,Min,Month,Day,Hour,Minute,Max,Month,Day,Hour,Minute]
170,11,gas_dryer:InteriorEquipment:Electricity [J] !RunPeriod [Value,Min,Month,Day,Hour,Minute,Max,Month,Day,Hour,Minute]
207,11,clotheswasher:InteriorEquipment:Electricity [J] !RunPeriod [Value,Min,Month,Day,Hour,Minute,Max,Month,Day,Hour,Minute]
244,11,dishwasher:InteriorEquipment:Electricity [J] !RunPeriod [Value,Min,Month,Day,Hour,Minute,Max,Month,Day,Hour,Minute]
281,11,refrigerator:InteriorEquipment:Electricity [J] !RunPeriod [Value,Min,Month,Day,Hour,Minute,Max,Month,Day,Hour,Minute]
318,11,electric_mels:InteriorEquipment:Electricity [J] !RunPeriod [Value,Min,Month,Day,Hour,Minute,Max,Month,Day,Hour,Minute]
355,11,NaturalGas:Facility [J] !RunPeriod [Value,Min,Month,Day,Hour,Minute,Max,Month,Day,Hour,Minute]
403,11,InteriorEquipment:NaturalGas [J] !RunPeriod [Value,Min,Month,Day,Hour,Minute,Max,Month,Day,Hour,Minute]
476,11,gas_dryer:InteriorEquipment:NaturalGas [J] !RunPeriod [Value,Min,Month,Day,Hour,Minute,Max,Month,Day,Hour,Minute]
513,11,gas_mels:InteriorEquipment:NaturalGas [J] !RunPeriod [Value,Min,Month,Day,Hour,Minute,Max,Month,Day,Hour,Minute]
End of Data Dictionary
1,EXTREME_WINTER,  38.68,-121.58,  -8.00,   8.00
5,15
1038,0.75,0.0,12,22, 1,15,0.25,12,24, 6,15
1039,0.0,0.0,12,22, 1,15,0.0,12,22, 1,15
581,0.276680631090812,0.1253067327192058,12,25,22,45,1.0288862824299843,12,28,14,60
582,2.982576255970459,0.0,12,23, 5,52,20.613193157933363,12,28,14,60
583,0.016536167767758226,0.0001702449383544525, 1, 2,20,35,0.09320046712194091,12,28, 6,22
1115,1235179553.6029632,0.0,12,22, 1,15,4660032.017178965,12,28, 6,45
1128,372808091.39538336,0.0,12,22, 1,15,1348154.7971636958, 1, 1, 6,45
1153,22877676.308944177,0.0,12,22, 1,15,98397.5782815471,12,30, 6,60
1154,164005973.1677465,0.0,12,22, 6, 3,180000.0,12,22, 1,15
1155,7234673.1417423505,0.0,12,22, 1,15,1091370.18942549, 1, 1, 6, 5
1156,7234673.1417423505,0.0,12,22, 1,15,1091370.18942549, 1, 1, 6, 5
1292,-52947993.25460463,-39766.80508053732,12,25, 4,45,-4707.061288219319, 1, 3,18,29
1306,440943025.6909943,0.0,12,22, 1,15,9910751.662719177,12,28,19,60
1307,7188601.43270832,0.0,12,22, 1,15,3538459.7349890396,12,28,19,60
1308,440943025.6909943,0.0,12,22, 1,15,9910751.662719177,12,28,19,60
13,1851031410.3401752,272017.0388981225,12,23,15,15,11410129.774470458, 1, 4,19,60
61,646981127.1939323,88139.10953165221,12,22, 1,15,1282023.4113694867,12,22,20,15
134,151290040.75163814,63564.01800854099,12,22, 4,15,156554.22484006523,12,27,20,15
170,11185820.069951689,348.4159749238097,12,22, 4,15,17476.39704006126,12,27,12,15
207,13893028.5742839,815.2532113832032,12,22, 3,15,22990.642799023623,12,27,10,15
244,27284301.07562584,1521.856143006317,12,22, 4,15,53038.631142310165,12,27,20,15
281,98926891.03177746,59938.60262432081,12,22, 5,15,81951.81706819107,12,22,19,15
318,0.0,0.0,12,22, 1,15,0.0,12,22, 1,15
355,422701517.16107386,18561.32405820678,12,22, 4,15,724774.895203776,12,27,18,15
403,422701517.16107386,18561.32405820678,12,22, 4,15,724774.895203776,12,27,18,15
476,227882097.80545202,7098.072629279515,12,22, 4,15,356036.3026282215,12,27,12,15
513,0.0,0.0,12,22, 1,15,0.0,12,22, 1,15
562,40169471.91072733,0.0,12,22, 1,15,150384.5432749363, 1, 1, 6,60
1046,0.0,0.0,12,22, 1,15,0.0,12,22, 1,15
1096,4721330.779062269,0.0,12,22, 1,15,181731.81168077074,12,22,16,30
1134,566926414.0138162,0.0,12,22,12,60,2426936.877808264, 1, 2, 6,15
1326,440943025.6909944,0.0,12,22, 1,15,10023605.785276342,12,28, 9,45
1379,0.0,0.0,12,22, 1,15,0.0,12,22, 1,15
1,EXTREME_SUMMER,  38.68,-121.58,  -8.00,   8.00
5,7
1038,0.0,0.0, 6,29, 1,15,0.0, 6,29, 1,15
1039,30.0,0.0, 6,29, 1,15,0.25, 6,29,16,15
581,0.18419957605344284,0.018691164958455464, 7, 5, 6, 7,0.44930787912072306, 7, 1,18,52
582,3.3801071136950935,0.0, 6,29, 7,53,7.503118037354283, 7, 1,24,60
583,0.04077232087080368,0.00012272611385168421, 7, 5, 6, 7,0.07962777669858265, 7, 4, 6, 3
1115,0.0,0.0, 6,29, 1, 7,0.0, 6,29, 1, 7
1128,0.0,0.0, 6,29, 1, 7,0.0, 6,29, 1, 7
1153,0.0,0.0, 6,29, 1, 7,0.0, 6,29, 1, 7
1154,0.0,0.0, 6,29, 1, 7,0.0, 6,29, 1, 7
1155,0.0,0.0, 6,29, 1, 7,0.0, 6,29, 1, 7
1156,0.0,0.0, 6,29, 1, 7,0.0, 6,29, 1, 7
1292,-21935836.88809641,-34739.200369272665, 7, 1, 5,30,-3038.8199639106297, 7, 2, 9,60
1306,164173812.6315605,0.0, 6,29, 1, 7,3805028.8509620815, 7, 3,16,30
1307,632103.6253849255,0.0, 6,29, 1, 7,101246.1558929901, 7, 5,19,60
1308,164173812.6315605,0.0, 6,29, 1, 7,3805028.8509620815, 7, 3,16,30
13,1102203479.4830298,151703.1275401932, 6,29, 4,15,12536807.67556019, 7, 5,19,60
61,301924526.02383536,88139.10953165221, 6,29, 1,15,1282023.4113694867, 6,29,20,15
134,70666020.44019976,63564.01800854099, 6,29, 4,15,156554.22484006523, 7, 4,20,15
170,5241013.419656067,348.4159749238097, 6,29, 4,15,17476.39704006126, 7, 4,12,15
207,6509451.13922267,815.2532113832032, 6,29, 3,15,22990.642799023623, 7, 4,10,15
244,12749673.399825225,1521.856143006317, 6,29, 4,15,53038.631142310165, 7, 4,20,15
281,46165882.481495745,59938.60262432081, 6,29, 5,15,81951.81706819107, 6,29,19,15
318,0.0,0.0, 6,29, 1,15,0.0, 6,29, 1,15
355,197687796.27748066,18561.32405820678, 6,29, 4,15,724774.895203776, 7, 4,18,15
403,197687796.27748066,18561.32405820678, 6,29, 4,15,724774.895203776, 7, 4,18,15
476,106772067.24485716,7098.072629279515, 6,29, 4,15,356036.3026282215, 7, 4,12,15
513,0.0,0.0, 6,29, 1,15,0.0, 6,29, 1,15
562,52490057.513017066,0.0, 6,29, 3,60,150384.5432749363, 6,29,14,60
1046,0.0,0.0, 6,29, 1,15,0.0, 6,29, 1,15
1096,512949062.87441707,0.0, 6,29, 3,60,1841084.343282903, 7, 5,16,60
1134,0.0,0.0, 6,29, 1,15,0.0, 6,29, 1,15
1326,164173812.63156044,0.0, 6,29, 1,15,9401805.459511055, 7, 5,19,60
1379,0.0,0.0, 6,29, 1,15,0.0, 6,29, 1,15
1,ANNUAL,  38.68,-121.58,  -8.00,   8.00
5,365
1038,1.25,0.0, 1, 1, 1,15,0.25, 1, 6, 6,15
1039,456.75,0.0, 1, 1, 1,15,0.25, 1,30,13,60
581,0.23814028336848225,0.0, 4,21,23, 3,1.2086048170406647, 5,23, 8,52
582,3.4556507084332,0.0, 1, 1, 3,60,30.785255805336575,10,24,10,60
583,0.024046915386231833,0.0, 9, 8,23, 3,0.09337295725515739,12,28, 6,22
1115,4194198494.2660623,0.0, 1, 1, 1, 7,4615160.495311345,12,28, 6,45
1128,1241884837.220755,0.0, 1, 1, 1, 7,1324284.5587311974,12,28, 6,45
1153,65038061.06404759,0.0, 1, 1, 1, 7,97078.65899211651,12,24, 6,45
1154,1221751453.7122717,0.0, 1, 1, 6, 5,180000.0, 1, 1, 1,30
1155,19170296.45727198,0.0, 1, 1, 1, 7,1091370.18942549, 1, 1, 6, 5
1156,19170296.45727198,0.0, 1, 1, 1, 7,1091370.18942549, 1, 1, 6, 5
1292,-1194444435.940943,-39814.35903323549, 1, 2, 2,15,-2569.6938500126457, 3,12,10,14
1306,9723312834.172401,0.0, 1, 1, 1, 7,9955964.585239777,12,10, 9,45
1307,115528891.48657206,0.0, 1, 1, 1, 7,3468907.928790721,12,24,19,60
1308,9723312834.172401,0.0, 1, 1, 1, 7,9955964.585239777,12,10, 9,45
13,45103981465.88799,151703.1275401932, 2,23, 4,15,13103755.684734136, 4,23,19,60
61,15743207428.383959,88139.10953165221, 1, 1, 1,15,1282023.4113694867, 1, 1,20,15
134,3685071073.4325233,63564.01800854099, 1, 2, 4,15,156554.22484006523, 1, 1,20,15
170,273393721.45532674,348.4159749238097, 1, 2, 4,15,17476.39704006126, 1, 1,12,15
207,339560869.0695816,815.2532113832032, 1, 2, 3,15,22990.642799023623, 1, 1,10,15
244,664895467.8009144,1521.856143006317, 1, 2, 4,15,53038.631142310165, 1, 1,20,15
281,2407221015.106824,59938.60262432081, 1, 1, 5,15,81951.81706819107, 1, 1,19,15
318,0.0,0.0, 1, 1, 1,15,0.0, 1, 1, 1,15
355,10310294493.051695,18561.32405820678, 1, 2, 4,15,724774.895203776, 1, 1,18,15
403,10310294493.051695,18561.32405820678, 1, 2, 4,15,724774.895203776, 1, 1,18,15
476,5569688622.066177,7098.072629279515, 1, 2, 4,15,356036.3026282215, 1, 1,12,15
513,0.0,0.0, 1, 1, 1,15,0.0, 1, 1, 1,15
562,1481231407.443346,0.0, 1, 1, 1,15,150384.5432749363, 4,21,15,45
1046,0.0,0.0, 1, 1, 1,15,0.0, 1, 1, 1,15
1096,11923314073.99908,0.0, 1, 1, 1,15,1842132.389855355, 7, 5,16,60
1134,2547844648.4543433,0.0, 1, 1,15,60,2324175.5565787423, 1, 2, 6,15
1326,9723312834.17238,0.0, 1, 1, 1,15,10536429.53951163, 5,21,19,60
1379,0.0,0.0, 1, 1, 1,15,0.0, 1, 1, 1,15
End of Data
 Number of Records Written=          99
