Program Version,EnergyPlus, Version 22.2.0-c249759bad, YMD=2023.09.01 16:30
1,5,Environment Title[],Latitude[deg],Longitude[deg],Time Zone[],Elevation[m]
2,8,Day of Simulation[],Month[],Day of Month[],DST Indicator[1=yes 0=no],Hour[],StartMinute[],EndMinute[],DayType
3,5,Cumulative Day of Simulation[],Month[],Day of Month[],DST Indicator[1=yes 0=no],DayType  ! When Daily Report Variables Requested
4,2,Cumulative Days of Simulation[],Month[]  ! When Monthly Report Variables Requested
5,1,Cumulative Days of Simulation[] ! When Run Period Report Variables Requested
6,1,Calendar Year of Simulation[] ! When Annual Report Variables Requested
618,11,DX_HEATING_COIL,Heating Coil Heating Energy [J] !RunPeriod [Value,Min,Month,Day,Hour,Minute,Max,Month,Day,Hour,Minute]
631,11,DX_HEATING_COIL,Heating Coil Electricity Energy [J] !RunPeriod [Value,Min,Month,Day,Hour,Minute,Max,Month,Day,Hour,Minute]
656,11,DX_HEATING_COIL,Heating Coil Defrost Electricity Energy [J] !RunPeriod [Value,Min,Month,Day,Hour,Minute,Max,Month,Day,Hour,Minute]
657,11,DX_HEATING_COIL,Heating Coil Crankcase Heater Electricity Energy [J] !RunPeriod [Value,Min,Month,Day,Hour,Minute,Max,Month,Day,Hour,Minute]
684,11,HEAT PUMP WATER HEATER EVAPORATOR,Cooling Coil Total Water Heating Energy [J] !RunPeriod [Value,Min,Month,Day,Hour,Minute,Max,Month,Day,Hour,Minute]
685,11,HEAT PUMP WATER HEATER EVAPORATOR,Cooling Coil Water Heating Electricity Energy [J] !RunPeriod [Value,Min,Month,Day,Hour,Minute,Max,Month,Day,Hour,Minute]
712,11,LIVING,AFN Zone Infiltration Air Change Rate [ach] !RunPeriod [Value,Min,Month,Day,Hour,Minute,Max,Month,Day,Hour,Minute]
713,11,ATTIC,AFN Zone Infiltration Air Change Rate [ach] !RunPeriod [Value,Min,Month,Day,Hour,Minute,Max,Month,Day,Hour,Minute]
714,11,CRAWLSPACE,AFN Zone Infiltration Air Change Rate [ach] !RunPeriod [Value,Min,Month,Day,Hour,Minute,Max,Month,Day,Hour,Minute]
1157,11,Facility,Facility Heating Setpoint Not Met Time [hr] !RunPeriod [Value,Min,Month,Day,Hour,Minute,Max,Month,Day,Hour,Minute]
1158,11,Facility,Facility Cooling Setpoint Not Met Time [hr] !RunPeriod [Value,Min,Month,Day,Hour,Minute,Max,Month,Day,Hour,Minute]
1184,11,HEATING_RESISTANCE_BACKUP,Heating Coil Heating Energy [J] !RunPeriod [Value,Min,Month,Day,Hour,Minute,Max,Month,Day,Hour,Minute]
1185,11,HEATING_RESISTANCE_BACKUP,Heating Coil Electricity Energy [J] !RunPeriod [Value,Min,Month,Day,Hour,Minute,Max,Month,Day,Hour,Minute]
1321,11,WATER HEATER TANK,Water Heater Heat Loss Energy [J] !RunPeriod [Value,Min,Month,Day,Hour,Minute,Max,Month,Day,Hour,Minute]
1335,11,WATER HEATER TANK,Water Heater Heating Energy [J] !RunPeriod [Value,Min,Month,Day,Hour,Minute,Max,Month,Day,Hour,Minute]
1336,11,WATER HEATER TANK,Water Heater Unmet Demand Heat Transfer Energy [J] !RunPeriod [Value,Min,Month,Day,Hour,Minute,Max,Month,Day,Hour,Minute]
1337,11,WATER HEATER TANK,Water Heater Electricity Energy [J] !RunPeriod [Value,Min,Month,Day,Hour,Minute,Max,Month,Day,Hour,Minute]
13,11,Electricity:Facility [J] !RunPeriod [Value,Min,Month,Day,Hour,Minute,Max,Month,Day,Hour,Minute]
637,11,Heating:Electricity [J] !RunPeriod [Value,Min,Month,Day,Hour,Minute,Max,Month,Day,Hour,Minute]
599,11,Cooling:Electricity [J] !RunPeriod [Value,Min,Month,Day,Hour,Minute,Max,Month,Day,Hour,Minute]
692,11,Fans:Electricity [J] !RunPeriod [Value,Min,Month,Day,Hour,Minute,Max,Month,Day,Hour,Minute]
1374,11,Pumps:Electricity [J] !RunPeriod [Value,Min,Month,Day,Hour,Minute,Max,Month,Day,Hour,Minute]
677,11,WaterSystems:Electricity [J] !RunPeriod [Value,Min,Month,Day,Hour,Minute,Max,Month,Day,Hour,Minute]
61,11,InteriorLights:Electricity [J] !RunPeriod [Value,Min,Month,Day,Hour,Minute,Max,Month,Day,Hour,Minute]
1165,11,ExteriorLights:Electricity [J] !RunPeriod [Value,Min,Month,Day,Hour,Minute,Max,Month,Day,Hour,Minute]
134,11,InteriorEquipment:Electricity [J] !RunPeriod [Value,Min,Month,Day,Hour,Minute,Max,Month,Day,Hour,Minute]
170,11,gas_dryer:InteriorEquipment:Electricity [J] !RunPeriod [Value,Min,Month,Day,Hour,Minute,Max,Month,Day,Hour,Minute]
207,11,clotheswasher:InteriorEquipment:Electricity [J] !RunPeriod [Value,Min,Month,Day,Hour,Minute,Max,Month,Day,Hour,Minute]
244,11,dishwasher:InteriorEquipment:Electricity [J] !RunPeriod [Value,Min,Month,Day,Hour,Minute,Max,Month,Day,Hour,Minute]
281,11,refrigerator:InteriorEquipment:Electricity [J] !RunPeriod [Value,Min,Month,Day,Hour,Minute,Max,Month,Day,Hour,Minute]
318,11,electric_mels:InteriorEquipment:Electricity [J] !RunPeriod [Value,Min,Month,Day,Hour,Minute,Max,Month,Day,Hour,Minute]
355,11,NaturalGas:Facility [J] !RunPeriod [Value,Min,Month,Day,Hour,Minute,Max,Month,Day,Hour,Minute]
403,11,InteriorEquipment:NaturalGas [J] !RunPeriod [Value,Min,Month,Day,Hour,Minute,Max,Month,Day,Hour,Minute]
476,11,gas_dryer:InteriorEquipment:NaturalGas [J] !RunPeriod [Value,Min,Month,Day,Hour,Minute,Max,Month,Day,Hour,Minute]
513,11,gas_mels:InteriorEquipment:NaturalGas [J] !RunPeriod [Value,Min,Month,Day,Hour,Minute,Max,Month,Day,Hour,Minute]
End of Data Dictionary
1,EXTREME_WINTER,  33.43,-112.02,  -7.00, 337.40
5,7
1157,0.0,0.0,12,15, 1,15,0.0,12,15, 1,15
1158,0.0,0.0,12,15, 1,15,0.0,12,15, 1,15
618,48763095.68146015,0.0,12,15, 1,15,1634843.8405756562,12,20, 6, 3
631,13294267.785328574,0.0,12,15, 1,15,407797.7216605363,12,21, 8,45
656,18.2244902552104,0.0,12,15, 1,15,18.2244902552104,12,21, 8,60
657,35132166.11269779,0.0,12,15, 1,15,180000.0,12,17, 2,30
684,281167363.9784728,0.0,12,15, 1,15,1538215.8822304779,12,16,20,45
685,84382186.64033945,0.0,12,15, 1,15,436057.7372363097,12,15,13,15
712,0.20651316964568553,0.1055614899482562,12,19,21,60,0.565012108680046,12,20, 3,52
713,3.497719236588727,0.0,12,16,21,60,21.45751758786367,12,20, 3,52
714,0.00749185368390679,0.00018607135920685073,12,16,14,50,0.0833398218890622,12,20, 6, 3
1184,0.0,0.0,12,15, 1,15,0.0,12,15, 1,15
1185,0.0,0.0,12,15, 1,15,0.0,12,15, 1,15
1321,-131800130.14901549,-249308.6806093334,12,21, 5,30,-18906.536635693126,12,21,10,16
1335,434083.9912936268,0.0,12,15, 1,15,266647.54819807515,12,21,19,60
1336,133985480.66896209,11420.615657461032,12,18,17,46,1412556.9138152145,12,18, 7,15
1337,434083.9912936268,0.0,12,15, 1,15,266647.54819807515,12,21,19,60
13,567680572.3995547,159353.1275401932,12,15, 4,15,1989960.5663847905,12,21,20,45
61,301924526.02383536,88139.10953165221,12,15, 1,15,1282023.4113694867,12,15,20,15
134,70666020.44019976,63564.01800854099,12,15, 4,15,156554.22484006523,12,20,20,15
170,5241013.419656067,348.4159749238097,12,15, 4,15,17476.39704006126,12,20,12,15
207,6509451.13922267,815.2532113832032,12,15, 3,15,22990.642799023623,12,20,10,15
244,12749673.399825225,1521.856143006317,12,15, 4,15,53038.631142310165,12,20,20,15
281,46165882.481495745,59938.60262432081,12,15, 5,15,81951.81706819107,12,15,19,15
318,0.0,0.0,12,15, 1,15,0.0,12,15, 1,15
355,197687796.27748066,18561.32405820678,12,15, 4,15,724774.895203776,12,20,18,15
403,197687796.27748066,18561.32405820678,12,15, 4,15,724774.895203776,12,20,18,15
476,106772067.24485716,7098.072629279515,12,15, 4,15,356036.3026282215,12,20,12,15
513,0.0,0.0,12,15, 1,15,0.0,12,15, 1,15
599,43986966.01519688,0.0,12,15, 1,15,545411.5577338747,12,18,16,45
637,48426452.12251663,0.0,12,15, 1,15,694918.0140409189,12,20, 6,15
677,89957070.63163304,7650.0,12,15, 1,15,615666.3828988225,12,21,19,60
692,12719537.16617312,0.0,12,15, 1,15,77542.31651422822,12,18,17,30
1165,0.0,0.0,12,15, 1,15,0.0,12,15, 1,15
1374,0.0,0.0,12,15, 1,15,0.0,12,15, 1,15
1,EXTREME_SUMMER,  33.43,-112.02,  -7.00, 337.40
5,7
1157,0.0,0.0, 7,13, 1,15,0.0, 7,13, 1,15
1158,67.25,0.0, 7,13, 1,15,0.25, 7,13,14,45
618,0.0,0.0, 7,13, 1, 7,0.0, 7,13, 1, 7
631,0.0,0.0, 7,13, 1, 7,0.0, 7,13, 1, 7
656,0.0,0.0, 7,13, 1, 7,0.0, 7,13, 1, 7
657,0.0,0.0, 7,13, 1, 7,0.0, 7,13, 1, 7
684,200696849.51405936,0.0, 7,13, 1, 7,1464270.029461106, 7,17,24,45
685,60514802.580295615,0.0, 7,13, 1, 7,448508.5348903713, 7,17, 5,15
712,0.11208771136300319,0.0, 7,13, 6,45,0.6277016355673902, 7,16,19,52
713,4.136030095755691,0.33156473925438923, 7,14,19,60,14.92797799311522, 7,16,19,48
714,0.07423492245256996,0.0013585060923186254, 7,13,23, 3,0.10216003553105588, 7,16,19,48
1184,0.0,0.0, 7,13, 1, 7,0.0, 7,13, 1, 7
1185,0.0,0.0, 7,13, 1, 7,0.0, 7,13, 1, 7
1321,-126534434.63478851,-218421.92437584524, 7,16, 6,30,-20261.993443843945, 7,16,16,58
1335,0.0,0.0, 7,13, 1, 7,0.0, 7,13, 1, 7
1336,122532040.28937212,9162.532710808584, 7,16,16,60,896937.7183683375, 7,17, 6,60
1337,0.0,0.0, 7,13, 1, 7,0.0, 7,13, 1, 7
13,1650980093.492649,826714.4258441741, 7,13, 4,45,4406937.088847618, 7,15,20,45
61,301924526.02383536,88139.10953165221, 7,13, 1,15,1282023.4113694867, 7,13,20,15
134,70666020.44019976,63564.01800854099, 7,13, 4,15,156554.22484006523, 7,18,20,15
170,5241013.419656067,348.4159749238097, 7,13, 4,15,17476.39704006126, 7,18,12,15
207,6509451.13922267,815.2532113832032, 7,13, 3,15,22990.642799023623, 7,18,10,15
244,12749673.399825225,1521.856143006317, 7,13, 4,15,53038.631142310165, 7,18,20,15
281,46165882.481495745,59938.60262432081, 7,13, 5,15,81951.81706819107, 7,13,19,15
318,0.0,0.0, 7,13, 1,15,0.0, 7,13, 1,15
355,197687796.27748066,18561.32405820678, 7,13, 4,15,724774.895203776, 7,18,18,15
403,197687796.27748066,18561.32405820678, 7,13, 4,15,724774.895203776, 7,18,18,15
476,106772067.24485716,7098.072629279515, 7,13, 4,15,356036.3026282215, 7,18,12,15
513,0.0,0.0, 7,13, 1,15,0.0, 7,13, 1,15
599,1115848851.4090633,301439.6439530117, 7,13, 4,60,2388519.4159052917, 7,15,16,60
637,0.0,0.0, 7,13, 1,15,0.0, 7,13, 1,15
677,65655602.580295585,7650.0, 7,13, 1,15,456158.5348903713, 7,17, 5,15
692,96885093.03925657,52214.99992445005, 7,13, 5,60,205042.81730032203, 7,13,16,15
1165,0.0,0.0, 7,13, 1,15,0.0, 7,13, 1,15
1374,0.0,0.0, 7,13, 1,15,0.0, 7,13, 1,15
1,ANNUAL,  33.43,-112.02,  -7.00, 337.40
5,365
1157,0.0,0.0, 1, 1, 1,15,0.0, 1, 1, 1,15
1158,1077.25,0.0, 1, 1, 1,15,0.25, 2,14,21,45
618,219850108.47508782,0.0, 1, 1, 1,15,1730401.4400305646,12,21, 6, 3
631,61150785.946616545,0.0, 1, 1, 1,15,538245.1136229244,12,29, 7,45
656,601412.4068771178,0.0, 1, 1, 1,15,51574.561176465766, 1,24, 8,30
657,301028162.0403208,0.0, 1, 1, 1,15,180000.0, 1, 1, 2,60
684,12736295230.6847,0.0, 1, 1, 1,15,1608756.4305107638,11,28, 9,15
685,3886062687.295391,0.0, 1, 1, 1,15,457649.2606916461, 7,31, 5,60
712,0.15248376772668454,0.0, 3,12,23, 3,1.1958870095596323, 1,21,19,60
713,3.522869528935769,0.0, 1, 1, 1,30,26.941169203173292, 2,14,20,48
714,0.04308118345584511,0.0, 4,19,23, 3,0.11775182546671253, 8,17,19,32
1184,0.0,0.0, 1, 1, 1,15,0.0, 1, 1, 1,15
1185,0.0,0.0, 1, 1, 1,15,0.0, 1, 1, 1,15
1321,-6611752432.933901,-248391.69720482695, 1,23, 3,60,-10757.271279449817, 7,24,19,33
1335,5779664.843205143,0.0, 1, 1, 1,15,320186.1174908918, 1, 8,19,60
1336,6607890802.450682,5206.052172306036, 3, 5,19,60,1635901.6443889667, 3, 3, 6,60
1337,5779664.843205143,0.0, 1, 1, 1,15,320186.1174908918, 1, 8,19,60
13,53958405193.14891,159353.1275401932, 1, 2, 4,15,4406748.46568477, 6,22,20,15
61,15743207428.383959,88139.10953165221, 1, 1, 1,15,1282023.4113694867, 1, 1,20,15
134,3685071073.4325233,63564.01800854099, 1, 2, 4,15,156554.22484006523, 1, 1,20,15
170,273393721.45532674,348.4159749238097, 1, 2, 4,15,17476.39704006126, 1, 1,12,15
207,339560869.0695816,815.2532113832032, 1, 2, 3,15,22990.642799023623, 1, 1,10,15
244,664895467.8009144,1521.856143006317, 1, 2, 4,15,53038.631142310165, 1, 1,20,15
281,2407221015.106824,59938.60262432081, 1, 1, 5,15,81951.81706819107, 1, 1,19,15
318,0.0,0.0, 1, 1, 1,15,0.0, 1, 1, 1,15
355,10310294493.051695,18561.32405820678, 1, 2, 4,15,724774.895203776, 1, 1,18,15
403,10310294493.051695,18561.32405820678, 1, 2, 4,15,724774.895203776, 1, 1,18,15
476,5569688622.066177,7098.072629279515, 1, 2, 4,15,356036.3026282215, 1, 1,12,15
513,0.0,0.0, 1, 1, 1,15,0.0, 1, 1, 1,15
599,27105932865.116985,0.0, 1, 1, 1,15,2452090.772223711, 6,22,15,60
637,362780360.3938143,0.0, 1, 1, 1,15,710407.8152939905,12,29, 7,60
677,4159898352.138611,7650.0, 1, 1, 1,15,667766.5473537897, 1, 8,19,60
692,2901515113.6815395,0.0, 1, 1, 1,15,205042.81730032203, 5, 3,17,30
1165,0.0,0.0, 1, 1, 1,15,0.0, 1, 1, 1,15
1374,0.0,0.0, 1, 1, 1,15,0.0, 1, 1, 1,15
End of Data
 Number of Records Written=         105
