Program Version,EnergyPlus, Version 22.2.0-c249759bad, YMD=2023.09.01 14:32
1,5,Environment Title[],Latitude[deg],Longitude[deg],Time Zone[],Elevation[m]
2,8,Day of Simulation[],Month[],Day of Month[],DST Indicator[1=yes 0=no],Hour[],StartMinute[],EndMinute[],DayType
3,5,Cumulative Day of Simulation[],Month[],Day of Month[],DST Indicator[1=yes 0=no],DayType  ! When Daily Report Variables Requested
4,2,Cumulative Days of Simulation[],Month[]  ! When Monthly Report Variables Requested
5,1,Cumulative Days of Simulation[] ! When Run Period Report Variables Requested
6,1,Calendar Year of Simulation[] ! When Annual Report Variables Requested
7,1,Environment,Site Outdoor Air Drybulb Temperature [C] !Hourly
545,1,LIVING,Zone Mean Air Temperature [C] !Hourly
546,1,ATTIC,Zone Mean Air Temperature [C] !Hourly
547,1,CRAWLSPACE,Zone Mean Air Temperature [C] !Hourly
548,1,FAN,Fan Electricity Rate [W] !Hourly
720,1,LIVING,Zone Predicted Sensible Load to Heating Setpoint Heat Transfer Rate [W] !Hourly
721,1,LIVING,Zone System Predicted Sensible Load to Heating Setpoint Heat Transfer Rate [W] !Hourly
784,1,ATTIC,Zone Predicted Sensible Load to Heating Setpoint Heat Transfer Rate [W] !Hourly
785,1,ATTIC,Zone System Predicted Sensible Load to Heating Setpoint Heat Transfer Rate [W] !Hourly
848,1,CRAWLSPACE,Zone Predicted Sensible Load to Heating Setpoint Heat Transfer Rate [W] !Hourly
849,1,CRAWLSPACE,Zone System Predicted Sensible Load to Heating Setpoint Heat Transfer Rate [W] !Hourly
1121,1,DX_HEATING_COIL,Heating Coil Heating Rate [W] !Hourly
1135,1,DX_HEATING_COIL,Heating Coil Electricity Rate [W] !Hourly
1161,1,DX_HEATING_COIL,Heating Coil Defrost Electricity Rate [W] !Hourly
1163,1,DX_HEATING_COIL,Heating Coil Crankcase Heater Electricity Rate [W] !Hourly
1166,1,HEATING_RESISTANCE_BACKUP,Heating Coil Heating Rate [W] !Hourly
1168,1,HEATING_RESISTANCE_BACKUP,Heating Coil Electricity Rate [W] !Hourly
End of Data Dictionary
1,EXTREME_WINTER,  37.04,-113.51,  -7.00, 879.00
2,1,12,22, 0, 1, 0.00,60.00,Monday
7,2.0
545,18.31635956137026
546,2.345088119500989
547,19.415272375290524
548,21.66888672378674
720,557.3330398262488
721,557.3330398262488
784,0.0
785,0.0
848,0.0
849,0.0
1121,669.8725020235248
1135,213.64282201527925
1161,1.951908298496714
1163,178.51220684054806
1166,0.0
1168,0.0
2,1,12,22, 0, 2, 0.00,60.00,Monday
7,0.0
545,18.323394186572507
546,0.8299461165952886
547,19.096675210080726
548,47.257694192398915
720,1123.1479241917823
721,1123.1479241917823
784,0.0
785,0.0
848,0.0
849,0.0
1121,1377.5351555418135
1135,446.68113960901917
1161,11.030546340464557
1163,153.01787125845163
1166,0.0
1168,0.0
2,1,12,22, 0, 3, 0.00,60.00,Monday
7,1.0
545,18.522833095860555
546,0.6956110679347646
547,18.944521252523213
548,63.578422477846104
720,1543.6125291408534
721,1543.6125291408534
784,0.0
785,0.0
848,0.0
849,0.0
1121,1939.9068109673601
1135,611.2151001413077
1161,10.688580727870026
1163,136.8793311086507
1166,0.0
1168,0.0
2,1,12,22, 0, 4, 0.00,60.00,Monday
7,1.0
545,18.629196488030644
546,-0.3831721359919454
547,18.778778108839564
548,69.66268021285869
720,1663.6164149201904
721,1663.6164149201904
784,0.0
785,0.0
848,0.0
849,0.0
1121,2130.9054715985885
1135,672.2570994162377
1161,11.711467214202614
1163,130.83874622081018
1166,0.0
1168,0.0
2,1,12,22, 0, 5, 0.00,60.00,Monday
7,1.0
545,18.615275577580174
546,-1.2731595163984002
547,18.63357684627887
548,68.64819227820117
720,1605.3202712143084
721,1605.3202712143084
784,0.0
785,0.0
848,0.0
849,0.0
1121,2097.637148271306
1135,663.7901728478599
1161,11.54092640437037
1163,131.8458630929142
1166,0.0
1168,0.0
2,1,12,22, 0, 6, 0.00,60.00,Monday
7,1.0
545,19.27386941260351
546,0.23459157690362417
547,18.457926183706416
548,107.4207183185432
720,2568.345324514925
721,2568.345324514925
784,0.0
785,0.0
848,0.0
849,0.0
1121,3306.228426403801
1135,1023.8181627787178
1161,29.14719234788737
1163,93.21236970688291
1166,0.0
1168,0.0
2,1,12,22, 0, 7, 0.00,60.00,Monday
7,1.0
545,19.63731501929581
546,0.2928403687222549
547,18.34692693453685
548,108.0607557299511
720,2523.497997562792
721,2523.497997562792
784,0.0
785,0.0
848,0.0
849,0.0
1121,3316.5501767396004
1135,1043.3448915055894
1161,29.321174484995236
1163,92.57494501385143
1166,0.0
1168,0.0
2,1,12,22, 0, 8, 0.00,60.00,Monday
7,1.0
545,19.674500723487373
546,0.8520095239999378
547,18.228297096019666
548,102.19774348318032
720,2342.913428796179
721,2342.913428796179
784,0.0
785,0.0
848,0.0
849,0.0
1121,3120.4106692372275
1135,993.8061567451007
1161,27.730473108040858
1163,98.40285558998858
1166,0.0
1168,0.0
2,1,12,22, 0, 9, 0.00,60.00,Monday
7,2.0
545,19.809247996364853
546,1.3134700084668425
547,18.120288046164536
548,91.75152041147142
720,2176.1176905158372
721,2176.1176905158372
784,0.0
785,0.0
848,0.0
849,0.0
1121,2888.2714139554646
1135,908.8329587753409
1161,18.63026718490294
1163,108.9093650969056
1166,0.0
1168,0.0
2,1,12,22, 0,10, 0.00,60.00,Monday
7,3.0
545,19.813835658409364
546,2.0501343506880456
547,18.018903645322528
548,77.25474938514601
720,1850.0557423737264
721,1850.0557423737264
784,0.0
785,0.0
848,0.0
849,0.0
1121,2460.694436580081
1135,769.8801474802997
1161,18.66115665293956
1163,123.31073784591418
1166,0.0
1168,0.0
2,1,12,22, 0,11, 0.00,60.00,Monday
7,4.0
545,19.739458135919577
546,3.67902169126584
547,17.918237175332813
548,66.75404811246845
720,1671.9840009430281
721,1671.9840009430281
784,0.0
785,0.0
848,0.0
849,0.0
1121,2196.734153945646
1135,679.4067155173584
1161,10.437755576619141
1163,133.80195325669274
1166,0.0
1168,0.0
2,1,12,22, 0,12, 0.00,60.00,Monday
7,4.0
545,19.806757742442702
546,5.883268957001419
547,17.82413416427563
548,57.27600334822958
720,1444.98643596892
721,1444.98643596892
784,0.0
785,0.0
848,0.0
849,0.0
1121,1875.4411037121174
1135,582.0727955584134
1161,8.955752404743105
1163,143.20107306989658
1166,0.0
1168,0.0
2,1,12,22, 0,13, 0.00,60.00,Monday
7,6.0
545,19.816550196272352
546,7.471177614639731
547,17.74714266940817
548,38.40031021970348
720,1209.7224794999456
721,1209.7224794999456
784,0.0
785,0.0
848,0.0
849,0.0
1121,1530.533524233478
1135,427.0596133203072
1161,0.0
1163,161.95470449389896
1166,0.0
1168,0.0
2,1,12,22, 0,14, 0.00,60.00,Monday
7,6.0
545,19.761118257364437
546,9.791789404411878
547,17.673339184378573
548,29.60961545516139
720,939.454912200461
721,939.454912200461
784,0.0
785,0.0
848,0.0
849,0.0
1121,1174.370304033715
1135,329.3486007449753
1161,0.0
1163,170.66412840499362
1166,0.0
1168,0.0
2,1,12,22, 0,15, 0.00,60.00,Monday
7,7.0
545,19.767437617604735
546,10.536663796552324
547,17.612604716779884
548,24.716635603158476
720,820.8749239534627
721,820.8749239534627
784,0.0
785,0.0
848,0.0
849,0.0
1121,1002.854267545583
1135,277.5407153625115
1161,0.0
1163,175.5118721682545
1166,0.0
1168,0.0
2,1,12,22, 0,16, 0.00,60.00,Monday
7,7.0
545,19.71945231154137
546,9.92481666194386
547,17.560206692211082
548,23.77892915937533
720,799.696750922436
721,799.696750922436
784,0.0
785,0.0
848,0.0
849,0.0
1121,964.2919019908983
1135,267.0308257160182
1161,0.0
1163,176.4409094220577
1166,0.0
1168,0.0
2,1,12,22, 0,17, 0.00,60.00,Monday
7,7.0
545,19.729552653874453
546,7.891356361454436
547,17.512759362037485
548,20.980215158928143
720,701.6521404639097
721,701.6521404639097
784,0.0
785,0.0
848,0.0
849,0.0
1121,849.6688727549431
1135,235.38204309084867
1161,0.0
1163,179.2137490312919
1166,0.0
1168,0.0
2,1,12,22, 0,18, 0.00,60.00,Monday
7,6.0
545,19.715369855134323
546,5.6007391828992565
547,17.467235121991973
548,16.059140365719934
720,511.48284040411454
721,511.48284040411454
784,0.0
785,0.0
848,0.0
849,0.0
1121,632.4552457685766
1135,178.30538666320925
1161,0.0
1163,184.08932799521304
1166,0.0
1168,0.0
2,1,12,22, 0,19, 0.00,60.00,Monday
7,6.0
545,19.761055241068064
546,4.41640290423441
547,17.421715301518635
548,9.439194479622026
720,289.24561562943563
721,289.24561562943563
784,0.0
785,0.0
848,0.0
849,0.0
1121,370.41917255355537
1135,104.77424667143379
1161,0.0
1163,190.64807181863569
1166,0.0
1168,0.0
2,1,12,22, 0,20, 0.00,60.00,Monday
7,6.0
545,19.757667242484942
546,4.05674963974337
547,17.375866558480933
548,4.982954909292423
720,147.83893840439487
721,147.83893840439487
784,0.0
785,0.0
848,0.0
849,0.0
1121,195.02955474918224
1135,55.35746264509715
1161,0.0
1163,195.0631130078649
1166,0.0
1168,0.0
2,1,12,22, 0,21, 0.00,60.00,Monday
7,6.0
545,19.6710122260549
546,4.514519212618596
547,17.32867922147571
548,3.9413497804498405
720,119.94695041115847
721,119.94695041115847
784,0.0
785,0.0
848,0.0
849,0.0
1121,154.17767379925985
1135,43.78151487384907
1161,0.0
1163,196.09508839297916
1166,0.0
1168,0.0
2,1,12,22, 0,22, 0.00,60.00,Monday
7,6.0
545,19.5875538206497
546,4.945082770190004
547,17.279713981501857
548,10.304119544689913
720,332.90800581241456
721,332.90800581241456
784,0.0
785,0.0
848,0.0
849,0.0
1121,404.64411320776816
1135,114.26430001769384
1161,0.0
1163,189.79114307241275
1166,0.0
1168,0.0
2,1,12,22, 0,23, 0.00,60.00,Monday
7,7.0
545,18.860132516513087
546,5.36058847891072
547,17.230559058052304
548,0.0
720,-111.64580198558724
721,-111.64580198558724
784,0.0
785,0.0
848,0.0
849,0.0
1121,0.0
1135,0.0
1161,0.0
1163,200.0
1166,0.0
1168,0.0
2,1,12,22, 0,24, 0.00,60.00,Monday
7,5.0
545,18.612747052290175
546,4.703514258328663
547,17.177047018323837
548,8.380380469603079
720,216.21368063078262
721,216.21368063078262
784,0.0
785,0.0
848,0.0
849,0.0
1121,273.5797960143682
1135,84.04399481267146
1161,1.634521892819279
1163,191.69065233076375
1166,0.0
1168,0.0
2,2,12,23, 0, 1, 0.00,60.00,Tuesday
7,5.0
545,18.585052648607643
546,4.320219668529471
547,17.118286945958573
548,20.590717258990363
720,548.920171174339
721,548.920171174339
784,0.0
785,0.0
848,0.0
849,0.0
1121,666.6578652032791
1135,202.31303657454947
1161,6.248038808754874
1163,179.57465037198165
1166,0.0
1168,0.0
2,2,12,23, 0, 2, 0.00,60.00,Tuesday
7,5.0
545,18.578416751969872
546,4.0996649705544375
547,17.05882837536171
548,29.88112700080216
720,805.2082359796368
721,805.2082359796368
784,0.0
785,0.0
848,0.0
849,0.0
1121,988.3564120647543
1135,298.04580706014235
1161,5.8280538054041635
1163,170.37217701587994
1166,0.0
1168,0.0
2,2,12,23, 0, 3, 0.00,60.00,Tuesday
7,5.0
545,18.58906309944023
546,4.030599936666597
547,16.999218098771767
548,37.092955249488554
720,977.4826453056412
721,977.4826453056412
784,0.0
785,0.0
848,0.0
849,0.0
1121,1212.2102651521025
1135,364.15877327727634
1161,11.255468531771786
1163,163.20495326206026
1166,0.0
1168,0.0
2,2,12,23, 0, 4, 0.00,60.00,Tuesday
7,6.0
545,18.650531213559063
546,4.08865313450514
547,16.944900067462154
548,32.879483900112334
720,1061.308872017753
721,1061.308872017753
784,0.0
785,0.0
848,0.0
849,0.0
1121,1313.7017197136352
1135,357.08879318462044
1161,0.0
1163,167.42449022127914
1166,0.0
1168,0.0
2,2,12,23, 0, 5, 0.00,60.00,Tuesday
7,5.0
545,18.566589784672054
546,4.122770226919627
547,16.886250714215056
548,40.22397064923955
720,1027.6711724933302
721,1027.6711724933302
784,0.0
785,0.0
848,0.0
849,0.0
1121,1290.657593660185
1135,387.87007324454197
1161,17.47377328677558
1163,160.07663444333966
1166,0.0
1168,0.0
2,2,12,23, 0, 6, 0.00,60.00,Tuesday
7,4.0
545,19.375242726722654
546,4.529608718753155
547,16.821065362621002
548,78.85787452724564
720,1931.1551426167443
721,1931.1551426167443
784,0.0
785,0.0
848,0.0
849,0.0
1121,2383.728752894853
1135,712.6242945185063
1161,62.75157252535237
1163,121.46982649619318
1166,0.0
1168,0.0
2,2,12,23, 0, 7, 0.00,60.00,Tuesday
7,4.0
545,19.51335703906602
546,5.106455754956682
547,16.78573875759965
548,83.6848977456456
720,1993.9616783849578
721,1993.9616783849578
784,0.0
785,0.0
848,0.0
849,0.0
1121,2527.347132392967
1135,768.1070669036966
1161,66.59395494768553
1163,116.66129427699032
1166,0.0
1168,0.0
2,2,12,23, 0, 8, 0.00,60.00,Tuesday
7,4.0
545,19.764891824809887
546,5.269264759709366
547,16.73712165732588
548,78.675172142245
720,1852.6550306309
721,1852.6550306309
784,0.0
785,0.0
848,0.0
849,0.0
1121,2367.7329278686743
1135,724.0594525651585
1161,62.60756812488415
1163,121.65004015616975
1166,0.0
1168,0.0
2,2,12,23, 0, 9, 0.00,60.00,Tuesday
7,4.0
545,19.72377456481234
546,5.219314190737128
547,16.693146433651872
548,73.75563982883365
720,1723.451588675036
721,1723.451588675036
784,0.0
785,0.0
848,0.0
849,0.0
1121,2210.8866136232255
1135,682.0957431884655
1161,58.69308662595101
1163,126.54880044085375
1166,0.0
1168,0.0
2,2,12,23, 0,10, 0.00,60.00,Tuesday
7,4.0
545,19.714454649610015
546,5.437238342771048
547,16.644070919158416
548,74.3210584081565
720,1744.490222806411
721,1744.490222806411
784,0.0
785,0.0
848,0.0
849,0.0
1121,2229.0007795667666
1135,686.747194163617
1161,59.14297324135414
1163,125.985791857278
1166,0.0
1168,0.0
2,2,12,23, 0,11, 0.00,60.00,Tuesday
7,5.0
545,19.780254427704893
546,5.773252746219391
547,16.599330549166336
548,69.15475791002095
720,1646.7264694236874
721,1646.7264694236874
784,0.0
785,0.0
848,0.0
849,0.0
1121,2104.472699707435
1135,638.9761068457207
1161,58.47965073192942
1163,131.22943709558962
1166,0.0
1168,0.0
2,2,12,23, 0,12, 0.00,60.00,Tuesday
7,6.0
545,19.85973191326133
546,8.453892131556318
547,16.547408657924116
548,32.23449216432
720,990.0515604435932
721,990.0515604435932
784,0.0
785,0.0
848,0.0
849,0.0
1121,1280.8340863386302
1135,357.95219177735834
1161,0.0
1163,168.063518943881
1166,0.0
1168,0.0
2,2,12,23, 0,13, 0.00,60.00,Tuesday
7,6.0
545,19.77392400633613
546,10.523857919962612
547,16.510014868065525
548,26.90570548554529
720,855.0638199960304
721,855.0638199960304
784,0.0
785,0.0
848,0.0
849,0.0
1121,1065.5732333709957
1135,299.22420970526485
1161,0.0
1163,173.34304045615602
1166,0.0
1168,0.0
2,2,12,23, 0,14, 0.00,60.00,Tuesday
7,6.0
545,19.71096138623064
546,10.009652014003024
547,16.480793683936845
548,28.709697948060295
720,942.0673330939517
721,942.0673330939517
784,0.0
785,0.0
848,0.0
849,0.0
1121,1138.5993644843645
1135,318.7524588640552
1161,0.0
1163,171.5557260846188
1166,0.0
1168,0.0
2,2,12,23, 0,15, 0.00,60.00,Tuesday
7,6.0
545,19.723078532826598
546,9.640510418352795
547,16.45566089666227
548,29.418245537422024
720,966.6077132469363
721,966.6077132469363
784,0.0
785,0.0
848,0.0
849,0.0
1121,1167.491741566509
1135,326.2187709544216
1161,0.0
1163,170.85372908867868
1166,0.0
1168,0.0
2,2,12,23, 0,16, 0.00,60.00,Tuesday
7,6.0
545,19.702365907119827
546,9.137657995842474
547,16.43106420285527
548,27.89649798507783
720,911.2292626293456
721,911.2292626293456
784,0.0
785,0.0
848,0.0
849,0.0
1121,1106.1122143794603
1135,309.41038143020734
1161,0.0
1163,172.36140793250513
1166,0.0
1168,0.0
2,2,12,23, 0,17, 0.00,60.00,Tuesday
7,6.0
545,19.625092291983425
546,8.393950742504877
547,16.40578168783717
548,23.789967849919883
720,769.0898386511362
721,769.0898386511362
784,0.0
785,0.0
848,0.0
849,0.0
1121,941.2361065676514
1135,263.7567989280625
1161,0.0
1163,176.4299727853127
1166,0.0
1168,0.0
2,2,12,23, 0,18, 0.00,60.00,Tuesday
7,5.0
545,19.748672025323714
546,7.409089001032152
547,16.38364260264864
548,29.926781302313046
720,703.3629308158961
721,703.3629308158961
784,0.0
785,0.0
848,0.0
849,0.0
1121,871.924886973001
1135,270.23285530988403
1161,29.311132669434038
1163,170.21932145313124
1166,0.0
1168,0.0
2,2,12,23, 0,19, 0.00,60.00,Tuesday
7,5.0
545,19.790637656790715
546,6.495502317875322
547,16.358623413928658
548,19.690279798614426
720,455.38802794777075
721,455.38802794777075
784,0.0
785,0.0
848,0.0
849,0.0
1121,582.7277899253048
1135,182.04904410102105
1161,16.650789543769292
1163,180.41910039824026
1166,0.0
1168,0.0
2,2,12,23, 0,20, 0.00,60.00,Tuesday
7,5.0
545,19.686977343108367
546,6.013495079636472
547,16.33186143707569
548,13.56402042059402
720,308.1317242335954
721,308.1317242335954
784,0.0
785,0.0
848,0.0
849,0.0
1121,399.99165455258793
1135,125.50947311019728
1161,11.470218375705066
1163,186.51131864741006
1166,0.0
1168,0.0
2,2,12,23, 0,21, 0.00,60.00,Tuesday
7,5.0
545,19.75727507448015
546,5.72350285668503
547,16.304327644280818
548,14.556768563088974
720,331.1494253662386
721,331.1494253662386
784,0.0
785,0.0
848,0.0
849,0.0
1121,420.40142297218756
1135,131.60107314917553
1161,14.25732668836986
1163,185.51427992113025
1166,0.0
1168,0.0
2,2,12,23, 0,22, 0.00,60.00,Tuesday
7,5.0
545,19.760658096248438
546,5.584470619688294
547,16.276132295407827
548,19.11040300870301
720,440.5932840391597
721,440.5932840391597
784,0.0
785,0.0
848,0.0
849,0.0
1121,553.1301649846847
1135,172.99531185115745
1161,18.717315374108665
1163,180.98284502673033
1166,0.0
1168,0.0
2,2,12,23, 0,23, 0.00,60.00,Tuesday
7,5.0
545,18.88977874153569
546,4.8977216238963255
547,16.2382752922967
548,0.0
720,-167.0704194689224
721,-167.0704194689224
784,0.0
785,0.0
848,0.0
849,0.0
1121,0.0
1135,0.0
1161,0.0
1163,200.0
1166,0.0
1168,0.0
2,2,12,23, 0,24, 0.00,60.00,Tuesday
7,6.0
545,18.64069593930531
546,4.637022069482326
547,16.20406188913441
548,4.343406464833373
720,122.26898801768766
721,122.26898801768766
784,0.0
785,0.0
848,0.0
849,0.0
1121,170.63223432320538
1135,47.415397316395925
1161,0.0
1163,195.69674876290696
1166,0.0
1168,0.0
2,3,12,24, 0, 1, 0.00,60.00,Wednesday
7,5.0
545,18.400619091990247
546,5.149095455081632
547,16.164433169796016
548,21.35016058170339
720,508.9265971217228
721,508.9265971217228
784,0.0
785,0.0
848,0.0
849,0.0
1121,621.8469503510107
1135,189.16021719916586
1161,20.9105419670552
1163,178.75448432564093
1166,0.0
1168,0.0
2,3,12,24, 0, 2, 0.00,60.00,Wednesday
7,5.0
545,18.60873476807301
546,5.24875347560018
547,16.12221460645285
548,37.63328420963798
720,904.3222311624158
721,904.3222311624158
784,0.0
785,0.0
848,0.0
849,0.0
1121,1107.2868556956535
1135,331.8751606795068
1161,36.85820703399784
1163,162.55134771239733
1166,0.0
1168,0.0
2,3,12,24, 0, 3, 0.00,60.00,Wednesday
7,5.0
545,18.524445289445005
546,5.574974811748458
547,16.08130356160742
548,45.68543307096157
720,1085.6921794825284
721,1085.6921794825284
784,0.0
785,0.0
848,0.0
849,0.0
1121,1349.0583834635765
1135,404.4556936173077
1161,44.744694600055965
1163,154.53852358453364
1166,0.0
1168,0.0
2,3,12,24, 0, 4, 0.00,60.00,Wednesday
7,5.0
545,18.6481314383471
546,5.363991512495549
547,16.03873050163409
548,50.01080369104522
720,1216.6199622202766
721,1216.6199622202766
784,0.0
785,0.0
848,0.0
849,0.0
1121,1513.7062566928255
1135,451.4982377009807
1161,42.290012754775674
1163,150.2680343336472
1166,0.0
1168,0.0
2,3,12,24, 0, 5, 0.00,60.00,Wednesday
7,5.0
545,18.618809164668082
546,5.057506547798363
547,15.99838688690282
548,47.35889921777681
720,1136.5340878352745
721,1136.5340878352745
784,0.0
785,0.0
848,0.0
849,0.0
1121,1430.5278515161826
1135,428.55479048083043
1161,40.04759612555733
1163,152.90505852800268
1166,0.0
1168,0.0
2,3,12,24, 0, 6, 0.00,60.00,Wednesday
7,5.0
545,19.406816267251223
546,5.668908561935576
547,15.960398305569717
548,79.42835187564259
720,1980.6472707826797
721,1980.6472707826797
784,0.0
785,0.0
848,0.0
849,0.0
1121,2443.6239171200295
1135,718.2372516439841
1161,67.16610057417286
1163,121.01439583225581
1166,0.0
1168,0.0
2,3,12,24, 0, 7, 0.00,60.00,Wednesday
7,5.0
545,19.656520165100307
546,5.885199419929335
547,15.939068918667706
548,78.53203815449899
720,1858.5555274338694
721,1858.5555274338694
784,0.0
785,0.0
848,0.0
849,0.0
1121,2354.286927945111
1135,705.7567002856135
1161,76.9161131885509
1163,121.85173914034775
1166,0.0
1168,0.0
2,3,12,24, 0, 8, 0.00,60.00,Wednesday
7,5.0
545,19.753609795349384
546,5.662204298492882
547,15.90286206676705
548,66.33463607981425
720,1573.5416530304428
721,1573.5416530304428
784,0.0
785,0.0
848,0.0
849,0.0
1121,2016.2309664743932
1135,611.8736338567459
1161,56.094774806110294
1163,134.03398975318973
1166,0.0
1168,0.0
2,3,12,24, 0, 9, 0.00,60.00,Wednesday
7,6.0
545,19.801496776637066
546,6.165437135616116
547,15.8653050599516
548,42.33093419070853
720,1335.8732054459015
721,1335.8732054459015
784,0.0
785,0.0
848,0.0
849,0.0
1121,1691.9362766455415
1135,469.53570223599183
1161,0.0
1163,158.06041953514045
1166,0.0
1168,0.0
2,3,12,24, 0,10, 0.00,60.00,Wednesday
7,6.0
545,19.756857725467547
546,8.443120192227228
547,15.832932916653336
548,31.245339077650318
720,977.6207316286163
721,977.6207316286163
784,0.0
785,0.0
848,0.0
849,0.0
1121,1240.9112454575732
1135,346.8939727700023
1161,0.0
1163,169.04352721120512
1166,0.0
1168,0.0
2,3,12,24, 0,11, 0.00,60.00,Wednesday
7,8.0
545,19.734073926118747
546,10.258754896515894
547,15.806145178311548
548,18.39261189440471
720,603.0700293629634
721,603.0700293629634
784,0.0
785,0.0
848,0.0
849,0.0
1121,762.6897118363441
1135,208.48998510992627
1161,0.0
1163,181.7774296444978
1166,0.0
1168,0.0
2,3,12,24, 0,12, 0.00,60.00,Wednesday
7,8.0
545,19.608865305892987
546,10.873391196163249
547,15.794466527197919
548,17.243349815583493
720,585.7309356529022
721,585.7309356529022
784,0.0
785,0.0
848,0.0
849,0.0
1121,714.6545835455169
1135,195.37523818388937
1161,0.0
1163,182.9160666803068
1166,0.0
1168,0.0
2,3,12,24, 0,13, 0.00,60.00,Wednesday
7,8.0
545,19.71658763110409
546,11.464961965803342
547,15.792150868595805
548,17.125759548931743
720,589.1859309671872
721,589.1859309671872
784,0.0
785,0.0
848,0.0
849,0.0
1121,710.1151554410663
1135,193.59273602434058
1161,0.0
1163,183.0325698131672
1166,0.0
1168,0.0
2,3,12,24, 0,14, 0.00,60.00,Wednesday
7,8.0
545,19.5276711254992
546,11.383996262383384
547,15.794199386058146
548,13.105472658750354
720,446.7129514640692
721,446.7129514640692
784,0.0
785,0.0
848,0.0
849,0.0
1121,541.9668099166709
1135,148.442412793665
1161,0.0
1163,187.01568874843494
1166,0.0
1168,0.0
2,3,12,24, 0,15, 0.00,60.00,Wednesday
7,8.0
545,19.81599711761286
546,11.407731366742496
547,15.807090067142513
548,16.229744535010923
720,564.4975538704366
721,564.4975538704366
784,0.0
785,0.0
848,0.0
849,0.0
1121,672.862730909755
1135,183.18948772814647
1161,0.0
1163,183.9203010785524
1166,0.0
1168,0.0
2,3,12,24, 0,16, 0.00,60.00,Wednesday
7,9.0
545,19.981034085376596
546,12.029630557026168
547,15.822084364734268
548,11.631297612031608
720,405.94098683462835
721,405.94098683462835
784,0.0
785,0.0
848,0.0
849,0.0
1121,492.38026847333094
1135,133.51623394106684
1161,0.0
1163,188.47623489921466
1166,0.0
1168,0.0
2,3,12,24, 0,17, 0.00,60.00,Wednesday
7,9.0
545,19.747885948812325
546,11.512025152520827
547,15.832629224902469
548,1.7276422569462198
720,48.77908853803274
721,48.77908853803274
784,0.0
785,0.0
848,0.0
849,0.0
1121,72.68897338149085
1135,19.892417143668485
1161,0.0
1163,198.28832996873498
1166,0.0
1168,0.0
2,3,12,24, 0,18, 0.00,60.00,Wednesday
7,8.0
545,19.61086737262923
546,10.23756973724941
547,15.850965030171798
548,1.5910784615037956
720,52.55517313929886
721,52.55517313929886
784,0.0
785,0.0
848,0.0
849,0.0
1121,65.37457686708122
1135,18.033779290678915
1161,0.0
1163,198.42363121821228
1166,0.0
1168,0.0
2,3,12,24, 0,19, 0.00,60.00,Wednesday
7,7.0
545,19.93523849808397
546,8.849065772004899
547,15.865618911015611
548,1.0663021632176748
720,34.52391462452033
721,34.52391462452033
784,0.0
785,0.0
848,0.0
849,0.0
1121,42.74824856578475
1135,11.922795910016678
1161,0.0
1163,198.94355590706672
1166,0.0
1168,0.0
2,3,12,24, 0,20, 0.00,60.00,Wednesday
7,7.0
545,19.974899257977874
546,8.117228753312547
547,15.871803842423683
548,0.0
720,-167.47519762974207
721,-167.47519762974207
784,0.0
785,0.0
848,0.0
849,0.0
1121,0.0
1135,0.0
1161,0.0
1163,200.0
1166,0.0
1168,0.0
2,3,12,24, 0,21, 0.00,60.00,Wednesday
7,7.0
545,20.110646127085115
546,7.5206510867636895
547,15.872586421281706
548,0.0
720,-190.52775433738952
721,-190.52775433738952
784,0.0
785,0.0
848,0.0
849,0.0
1121,0.0
1135,0.0
1161,0.0
1163,200.0
1166,0.0
1168,0.0
2,3,12,24, 0,22, 0.00,60.00,Wednesday
7,8.0
545,19.91875757855094
546,7.667204992683223
547,15.866468642463614
548,0.0
720,-113.43918484809546
721,-113.43918484809546
784,0.0
785,0.0
848,0.0
849,0.0
1121,0.0
1135,0.0
1161,0.0
1163,200.0
1166,0.0
1168,0.0
2,3,12,24, 0,23, 0.00,60.00,Wednesday
7,8.0
545,19.22811693140394
546,7.90670304652541
547,15.855140177814775
548,0.0
720,-337.60594795076577
721,-337.60594795076577
784,0.0
785,0.0
848,0.0
849,0.0
1121,0.0
1135,0.0
1161,0.0
1163,200.0
1166,0.0
1168,0.0
2,3,12,24, 0,24, 0.00,60.00,Wednesday
7,9.0
545,18.88501319658412
546,8.378942304648863
547,15.840397188420583
548,0.0
720,-143.42963611238702
721,-143.42963611238702
784,0.0
785,0.0
848,0.0
849,0.0
1121,0.0
1135,0.0
1161,0.0
1163,200.0
1166,0.0
1168,0.0
2,4,12,25, 0, 1, 0.00,60.00,Thursday
7,9.0
545,18.59532965005187
546,8.93844533313735
547,15.822525589481106
548,9.03841084807697
720,326.7329260735323
721,326.7329260735323
784,0.0
785,0.0
848,0.0
849,0.0
1121,383.5516947481898
1135,102.02451380753942
1161,0.0
1163,191.0451501653704
1166,0.0
1168,0.0
2,4,12,25, 0, 2, 0.00,60.00,Thursday
7,11.0
545,18.57227964176476
546,10.525233719052585
547,15.80126437641136
548,13.476774522659538
720,507.96892886186924
721,507.96892886186924
784,0.0
785,0.0
848,0.0
849,0.0
1121,602.3319917496927
1135,155.23847545237768
1161,0.0
1163,0.0
1166,0.0
1168,0.0
2,4,12,25, 0, 3, 0.00,60.00,Thursday
7,11.0
545,18.47647280659846
546,11.024836360910944
547,15.779100826608603
548,18.820523255867474
720,713.5043751086832
721,713.5043751086832
784,0.0
785,0.0
848,0.0
849,0.0
1121,843.7255566171383
1135,216.69879978943118
1161,0.0
1163,0.0
1166,0.0
1168,0.0
2,4,12,25, 0, 4, 0.00,60.00,Thursday
7,9.0
545,18.927707481371446
546,10.13988288890308
547,15.75860705598092
548,26.320933854692804
720,958.3214664298375
721,958.3214664298375
784,0.0
785,0.0
848,0.0
849,0.0
1121,1129.537765994719
1135,294.9192549096591
1161,0.0
1163,173.92240581471899
1166,0.0
1168,0.0
2,4,12,25, 0, 5, 0.00,60.00,Thursday
7,8.0
545,18.684847503250715
546,9.126411258011562
547,15.736641365866168
548,18.852428565520277
720,646.9060694536474
721,646.9060694536474
784,0.0
785,0.0
848,0.0
849,0.0
1121,784.7154408761553
1135,210.4561963335783
1161,0.0
1163,181.3218640245553
1166,0.0
1168,0.0
2,4,12,25, 0, 6, 0.00,60.00,Thursday
7,8.0
545,19.604531282539085
546,8.926785287548595
547,15.723158173901947
548,37.93645147168075
720,1348.697576165412
721,1348.697576165412
784,0.0
785,0.0
848,0.0
849,0.0
1121,1597.4974052464506
1135,421.58817201079535
1161,0.0
1163,162.41427482134281
1166,0.0
1168,0.0
2,4,12,25, 0, 7, 0.00,60.00,Thursday
7,8.0
545,19.606778783931137
546,8.895221652052298
547,15.710865786424666
548,34.48626247272513
720,1186.694584635563
721,1186.694584635563
784,0.0
785,0.0
848,0.0
849,0.0
1121,1443.8169534009787
1135,389.76110259492395
1161,0.0
1163,165.83256647748192
1166,0.0
1168,0.0
2,4,12,25, 0, 8, 0.00,60.00,Thursday
7,7.0
545,19.49345162192417
546,8.49051471677725
547,15.689116294148796
548,35.3832114916546
720,1185.804698538679
721,1185.804698538679
784,0.0
785,0.0
848,0.0
849,0.0
1121,1445.6809442028691
1135,395.5005970445704
1161,0.0
1163,164.94390984205793
1166,0.0
1168,0.0
2,4,12,25, 0, 9, 0.00,60.00,Thursday
7,7.0
545,19.728320334220577
546,8.14361452024448
547,15.673838614162799
548,42.19590059894481
720,1427.7499670882498
721,1427.7499670882498
784,0.0
785,0.0
848,0.0
849,0.0
1121,1731.4488780646993
1135,470.63244899617234
1161,0.0
1163,158.1942047278253
1166,0.0
1168,0.0
2,4,12,25, 0,10, 0.00,60.00,Thursday
7,7.0
545,19.8110570811369
546,8.022682528372352
547,15.656007285620515
548,40.94112730872993
720,1368.6559290569294
721,1368.6559290569294
784,0.0
785,0.0
848,0.0
849,0.0
1121,1677.077530808323
1135,458.6503361890389
1161,0.0
1163,159.43737751331216
1166,0.0
1168,0.0
2,4,12,25, 0,11, 0.00,60.00,Thursday
7,6.0
545,19.475901994236548
546,7.597937759247158
547,15.630206514546963
548,41.59272161375527
720,1350.4886815535938
721,1350.4886815535938
784,0.0
785,0.0
848,0.0
849,0.0
1121,1661.4115919461583
1135,461.7456209318978
1161,0.0
1163,158.79180726289107
1166,0.0
1168,0.0
2,4,12,25, 0,12, 0.00,60.00,Thursday
7,6.0
545,19.85919884392123
546,7.617712412020151
547,15.607185652706693
548,47.39629301161485
720,1555.7207548618208
721,1555.7207548618208
784,0.0
785,0.0
848,0.0
849,0.0
1121,1902.2145584641246
1135,522.819990604636
1161,0.0
1163,153.0418904638067
1166,0.0
1168,0.0
2,4,12,25, 0,13, 0.00,60.00,Thursday
7,6.0
545,19.87653232977463
546,8.645723072151558
547,15.579993687922105
548,33.97969224511127
720,1079.037752942515
721,1079.037752942515
784,0.0
785,0.0
848,0.0
849,0.0
1121,1351.2816121214307
1135,377.5784166645421
1161,0.0
1163,166.3344534126107
1166,0.0
1168,0.0
2,4,12,25, 0,14, 0.00,60.00,Thursday
7,7.0
545,19.894923883400132
546,10.358130193294727
547,15.556421271510695
548,25.70242281137163
720,838.6864829912975
721,838.6864829912975
784,0.0
785,0.0
848,0.0
849,0.0
1121,1043.3141004328497
1135,288.73616294973334
1161,0.0
1163,174.5351986615035
1166,0.0
1168,0.0
2,4,12,25, 0,15, 0.00,60.00,Thursday
7,6.0
545,19.517304942586502
546,9.600117472770684
547,15.53642992735101
548,23.076124155036002
720,744.9442120897584
721,744.9442120897584
784,0.0
785,0.0
848,0.0
849,0.0
1121,912.0102656457876
1135,256.592272342129
1161,0.0
1163,177.13721692374912
1166,0.0
1168,0.0
2,4,12,25, 0,16, 0.00,60.00,Thursday
7,6.0
545,19.863085307790467
546,10.231996738451345
547,15.526061314088658
548,27.310298298531787
720,897.3764553732308
721,897.3764553732308
784,0.0
785,0.0
848,0.0
849,0.0
1121,1083.6998744409573
1135,301.4942688762302
1161,0.0
1163,172.94218814424374
1166,0.0
1168,0.0
2,4,12,25, 0,17, 0.00,60.00,Thursday
7,6.0
545,19.55112850264746
546,8.990861304745545
547,15.51094065142203
548,19.97391769367389
720,641.2931998224685
721,641.2931998224685
784,0.0
785,0.0
848,0.0
849,0.0
1121,788.1710113338844
1135,221.95933022766658
1161,0.0
1163,180.21074317570367
1166,0.0
1168,0.0
2,4,12,25, 0,18, 0.00,60.00,Thursday
7,5.0
545,19.471203763975247
546,6.959780631554509
547,15.501480101735964
548,29.977910190909796
720,745.6693364461462
721,745.6693364461462
784,0.0
785,0.0
848,0.0
849,0.0
1121,913.4156482486594
1135,281.9419283323311
1161,21.169180701379645
1163,170.2089421891746
1166,0.0
1168,0.0
2,4,12,25, 0,19, 0.00,60.00,Thursday
7,5.0
545,19.95810779118851
546,6.495009813635379
547,15.4899040648627
548,31.174724626446128
720,762.7575907032733
721,762.7575907032733
784,0.0
785,0.0
848,0.0
849,0.0
1121,950.8578307368989
1135,292.74712544
1161,22.014298259891575