Program Version,EnergyPlus, Version 22.2.0-c249759bad, YMD=2023.09.01 18:03
1,5,Environment Title[],Latitude[deg],Longitude[deg],Time Zone[],Elevation[m]
2,8,Day of Simulation[],Month[],Day of Month[],DST Indicator[1=yes 0=no],Hour[],StartMinute[],EndMinute[],DayType
3,5,Cumulative Day of Simulation[],Month[],Day of Month[],DST Indicator[1=yes 0=no],DayType  ! When Daily Report Variables Requested
4,2,Cumulative Days of Simulation[],Month[]  ! When Monthly Report Variables Requested
5,1,Cumulative Days of Simulation[] ! When Run Period Report Variables Requested
6,1,Calendar Year of Simulation[] ! When Annual Report Variables Requested
581,11,LIVING,AFN Zone Infiltration Air Change Rate [ach] !RunPeriod [Value,Min,Month,Day,Hour,Minute,Max,Month,Day,Hour,Minute]
582,11,ATTIC,AFN Zone Infiltration Air Change Rate [ach] !RunPeriod [Value,Min,Month,Day,Hour,Minute,Max,Month,Day,Hour,Minute]
583,11,CRAWLSPACE,AFN Zone Infiltration Air Change Rate [ach] !RunPeriod [Value,Min,Month,Day,Hour,Minute,Max,Month,Day,Hour,Minute]
1038,11,Facility,Facility Heating Setpoint Not Met Time [hr] !RunPeriod [Value,Min,Month,Day,Hour,Minute,Max,Month,Day,Hour,Minute]
1039,11,Facility,Facility Cooling Setpoint Not Met Time [hr] !RunPeriod [Value,Min,Month,Day,Hour,Minute,Max,Month,Day,Hour,Minute]
1115,11,DX_HEATING_COIL,Heating Coil Heating Energy [J] !RunPeriod [Value,Min,Month,Day,Hour,Minute,Max,Month,Day,Hour,Minute]
1128,11,DX_HEATING_COIL,Heating Coil Electricity Energy [J] !RunPeriod [Value,Min,Month,Day,Hour,Minute,Max,Month,Day,Hour,Minute]
1153,11,DX_HEATING_COIL,Heating Coil Defrost Electricity Energy [J] !RunPeriod [Value,Min,Month,Day,Hour,Minute,Max,Month,Day,Hour,Minute]
1154,11,DX_HEATING_COIL,Heating Coil Crankcase Heater Electricity Energy [J] !RunPeriod [Value,Min,Month,Day,Hour,Minute,Max,Month,Day,Hour,Minute]
1155,11,HEATING_RESISTANCE_BACKUP,Heating Coil Heating Energy [J] !RunPeriod [Value,Min,Month,Day,Hour,Minute,Max,Month,Day,Hour,Minute]
1156,11,HEATING_RESISTANCE_BACKUP,Heating Coil Electricity Energy [J] !RunPeriod [Value,Min,Month,Day,Hour,Minute,Max,Month,Day,Hour,Minute]
1292,11,WATER HEATER,Water Heater Heat Loss Energy [J] !RunPeriod [Value,Min,Month,Day,Hour,Minute,Max,Month,Day,Hour,Minute]
1306,11,WATER HEATER,Water Heater Heating Energy [J] !RunPeriod [Value,Min,Month,Day,Hour,Minute,Max,Month,Day,Hour,Minute]
1307,11,WATER HEATER,Water Heater Unmet Demand Heat Transfer Energy [J] !RunPeriod [Value,Min,Month,Day,Hour,Minute,Max,Month,Day,Hour,Minute]
1308,11,WATER HEATER,Water Heater Electricity Energy [J] !RunPeriod [Value,Min,Month,Day,Hour,Minute,Max,Month,Day,Hour,Minute]
13,11,Electricity:Facility [J] !RunPeriod [Value,Min,Month,Day,Hour,Minute,Max,Month,Day,Hour,Minute]
1134,11,Heating:Electricity [J] !RunPeriod [Value,Min,Month,Day,Hour,Minute,Max,Month,Day,Hour,Minute]
1096,11,Cooling:Electricity [J] !RunPeriod [Value,Min,Month,Day,Hour,Minute,Max,Month,Day,Hour,Minute]
562,11,Fans:Electricity [J] !RunPeriod [Value,Min,Month,Day,Hour,Minute,Max,Month,Day,Hour,Minute]
1379,11,Pumps:Electricity [J] !RunPeriod [Value,Min,Month,Day,Hour,Minute,Max,Month,Day,Hour,Minute]
1326,11,WaterSystems:Electricity [J] !RunPeriod [Value,Min,Month,Day,Hour,Minute,Max,Month,Day,Hour,Minute]
61,11,InteriorLights:Electricity [J] !RunPeriod [Value,Min,Month,Day,Hour,Minute,Max,Month,Day,Hour,Minute]
1046,11,ExteriorLights:Electricity [J] !RunPeriod [Value,Min,Month,Day,Hour,Minute,Max,Month,Day,Hour,Minute]
134,11,InteriorEquipment:Electricity [J] !RunPeriod [Value,Min,Month,Day,Hour,Minute,Max,Month,Day,Hour,Minute]
170,11,gas_dryer:InteriorEquipment:Electricity [J] !RunPeriod [Value,Min,Month,Day,Hour,Minute,Max,Month,Day,Hour,Minute]
207,11,clotheswasher:InteriorEquipment:Electricity [J] !RunPeriod [Value,Min,Month,Day,Hour,Minute,Max,Month,Day,Hour,Minute]
244,11,dishwasher:InteriorEquipment:Electricity [J] !RunPeriod [Value,Min,Month,Day,Hour,Minute,Max,Month,Day,Hour,Minute]
281,11,refrigerator:InteriorEquipment:Electricity [J] !RunPeriod [Value,Min,Month,Day,Hour,Minute,Max,Month,Day,Hour,Minute]
318,11,electric_mels:InteriorEquipment:Electricity [J] !RunPeriod [Value,Min,Month,Day,Hour,Minute,Max,Month,Day,Hour,Minute]
355,11,NaturalGas:Facility [J] !RunPeriod [Value,Min,Month,Day,Hour,Minute,Max,Month,Day,Hour,Minute]
403,11,InteriorEquipment:NaturalGas [J] !RunPeriod [Value,Min,Month,Day,Hour,Minute,Max,Month,Day,Hour,Minute]
476,11,gas_dryer:InteriorEquipment:NaturalGas [J] !RunPeriod [Value,Min,Month,Day,Hour,Minute,Max,Month,Day,Hour,Minute]
513,11,gas_mels:InteriorEquipment:NaturalGas [J] !RunPeriod [Value,Min,Month,Day,Hour,Minute,Max,Month,Day,Hour,Minute]
End of Data Dictionary
1,EXTREME_WINTER,  43.52,-112.07,  -7.00,1441.40
5,7
1038,1.0,0.0,12,15, 1,15,0.25,12,15, 6,15
1039,0.0,0.0,12,15, 1,15,0.0,12,15, 1,15
581,0.5291560450081965,0.2585264917926425,12,16,23, 3,1.1107579750567733,12,20,10,60
582,4.510202857102458,0.011631967678190816,12,18,22,60,19.457194861273415,12,20,10,60
583,0.0899446246164927,0.0004167263115060461,12,16,23, 3,0.10494180986033491,12,20,10,60
1115,2443446440.69346,0.0,12,16,23, 3,4856847.490014196,12,20, 4,60
1128,929185078.0916774,0.0,12,16,23, 3,1483556.57089425,12,20,13,30
1153,18534743.72870327,0.0,12,16,23, 3,86817.90276924476,12,20, 6,60
1154,1714450.4050212929,0.0,12,15, 1, 7,60000.0,12,18,23, 5
1155,1457530037.969445,0.0,12,15,23, 5,5252928.278142258,12,19, 9,15
1156,1457530037.969445,0.0,12,15,23, 5,5252928.278142258,12,19, 9,15
1292,-25385562.41340444,-39763.303497724264,12,19, 5,30,-4537.201527564796,12,19,12,60
1306,237867057.0329331,0.0,12,15, 1, 7,4050000.0,12,15, 7,60
1307,44149113.35708149,0.0,12,15, 1, 7,7408381.107636916,12,21, 9,45
1308,237867057.0329331,0.0,12,15, 1, 7,4050000.0,12,15, 7,60
13,3124479106.585983,1494548.5422411815,12,16,23,15,10948857.558364874,12,19, 7,15
61,301924526.02383536,88139.10953165221,12,15, 1,15,1282023.4113694867,12,15,20,15
134,70666020.44019976,63564.01800854099,12,15, 4,15,156554.22484006523,12,20,20,15
170,5241013.419656067,348.4159749238097,12,15, 4,15,17476.39704006126,12,20,12,15
207,6509451.13922267,815.2532113832032,12,15, 3,15,22990.642799023623,12,20,10,15
244,12749673.399825225,1521.856143006317,12,15, 4,15,53038.631142310165,12,20,20,15
281,46165882.481495745,59938.60262432081,12,15, 5,15,81951.81706819107,12,15,19,15
318,0.0,0.0,12,15, 1,15,0.0,12,15, 1,15
355,197687796.27748066,18561.32405820678,12,15, 4,15,724774.895203776,12,20,18,15
403,197687796.27748066,18561.32405820678,12,15, 4,15,724774.895203776,12,20,18,15
476,106772067.24485716,7098.072629279515,12,15, 4,15,356036.3026282215,12,20,12,15
513,0.0,0.0,12,15, 1,15,0.0,12,15, 1,15
562,107057192.89416961,73534.0452234839,12,16,23,15,161719.63165786606,12,15, 1,15
1046,0.0,0.0,12,15, 1,15,0.0,12,15, 1,15
1096,0.0,0.0,12,15, 1,15,0.0,12,15, 1,15
1134,2406964310.1948466,774170.0268255032,12,16,23,15,6817075.246983435,12,19, 6,15
1326,237867057.0329331,0.0,12,15, 1,15,4050000.0,12,15, 7,60
1379,0.0,0.0,12,15, 1,15,0.0,12,15, 1,15
1,EXTREME_SUMMER,  43.52,-112.07,  -7.00,1441.40
5,7
1038,0.0,0.0, 7, 6, 1,15,0.0, 7, 6, 1,15
1039,0.0,0.0, 7, 6, 1,15,0.0, 7, 6, 1,15
581,0.18671104238683972,0.02482676190205845, 7,10,21,60,0.534657942120267, 7, 9,11,52
582,3.0379735271468076,0.0, 7, 6, 3,50,11.044341402169843, 7, 9,11,52
583,0.034756297787581665,0.0000487424088500246, 7, 6, 3,60,0.08127756039677844, 7,11,18,18
1115,0.0,0.0, 7, 6, 1, 5,0.0, 7, 6, 1, 5
1128,0.0,0.0, 7, 6, 1, 5,0.0, 7, 6, 1, 5
1153,0.0,0.0, 7, 6, 1, 5,0.0, 7, 6, 1, 5
1154,0.0,0.0, 7, 6, 1, 5,0.0, 7, 6, 1, 5
1155,0.0,0.0, 7, 6, 1, 5,0.0, 7, 6, 1, 5
1156,0.0,0.0, 7, 6, 1, 5,0.0, 7, 6, 1, 5
1292,-22152539.06071119,-34312.670053173046, 7, 9,17,60,-2843.414799558541, 7, 9, 9,15
1306,200660643.99619424,0.0, 7, 6, 1, 5,3410804.5126341763, 7, 8, 6,45
1307,28009808.303459346,0.0, 7, 6, 1, 5,2067709.17922522, 7,12,19,51
1308,200660643.99619424,0.0, 7, 6, 1, 5,3410804.5126341763, 7, 8, 6,45
13,1033723152.772537,151703.1275401932, 7, 6, 4,15,6997957.388036493, 7, 6,20,30
61,301924526.02383536,88139.10953165221, 7, 6, 1,15,1282023.4113694867, 7, 6,20,15
134,70666020.44019976,63564.01800854099, 7, 6, 4,15,156554.22484006523, 7,11,20,15
170,5241013.419656067,348.4159749238097, 7, 6, 4,15,17476.39704006126, 7,11,12,15
207,6509451.13922267,815.2532113832032, 7, 6, 3,15,22990.642799023623, 7,11,10,15
244,12749673.399825225,1521.856143006317, 7, 6, 4,15,53038.631142310165, 7,11,20,15
281,46165882.481495745,59938.60262432081, 7, 6, 5,15,81951.81706819107, 7, 6,19,15
318,0.0,0.0, 7, 6, 1,15,0.0, 7, 6, 1,15
355,197687796.27748066,18561.32405820678, 7, 6, 4,15,724774.895203776, 7,11,18,15
403,197687796.27748066,18561.32405820678, 7, 6, 4,15,724774.895203776, 7,11,18,15
476,106772067.24485716,7098.072629279515, 7, 6, 4,15,356036.3026282215, 7,11,12,15
513,0.0,0.0, 7, 6, 1,15,0.0, 7, 6, 1,15
562,45505292.68322187,0.0, 7, 6, 3,60,161719.63165786606, 7, 6,19,15
1046,0.0,0.0, 7, 6, 1,15,0.0, 7, 6, 1,15
1096,414966669.62908614,0.0, 7, 6, 3,60,1641700.9625369555, 7, 6,19,15
1134,0.0,0.0, 7, 6, 1,15,0.0, 7, 6, 1,15
1326,200660643.99619424,0.0, 7, 6, 1,15,4050000.0, 7, 7,20,30
1379,0.0,0.0, 7, 6, 1,15,0.0, 7, 6, 1,15
1,ANNUAL,  43.52,-112.07,  -7.00,1441.40
5,365
1038,27.25,0.0, 1, 1, 1,15,0.25, 1, 7, 2,60
1039,57.5,0.0, 1, 1, 1,15,0.25, 4, 7,14,60
581,0.33548119380816455,0.009402912532234357, 8,23, 2,15,1.466078081316999, 3,17,10,60
582,4.306510206307764,0.0, 1, 1, 6, 5,34.498959995997964, 3,17,12,52
583,0.03507137740498157,0.00002981545196987884, 5, 9, 8,46,0.11030528656979867,12,14,14,60
1115,40790697871.14199,0.0, 1, 1,23, 5,5016782.991519515, 2, 9,11,45
1128,13649349404.716055,0.0, 1, 1,23, 5,1532287.541458039,11,21, 9,60
1153,580789364.8950342,0.0, 1, 1,23, 5,146157.82069719507,12, 1, 6,45
1154,2016733110.0754695,0.0, 1, 1, 6, 5,180000.0, 1,11,16,15
1155,7290873246.770265,0.0, 1, 1, 1,15,5455260.887344245, 1, 7, 2,30
1156,7290873246.770265,0.0, 1, 1, 1,15,5455260.887344245, 1, 7, 2,30
1292,-1248882322.4324133,-42068.14864653002, 1, 7, 8,45,-2122.7782317867072, 5,14, 9,44
1306,11697372045.24535,0.0, 1, 1, 1,15,4050000.0, 1, 1, 9,60
1307,1977415938.1025238,0.0, 1, 1, 1,15,13662838.301126773, 2,19,19,60
1308,11697372045.24535,0.0, 1, 1, 1,15,4050000.0, 1, 1, 9,60
13,62549853432.92282,151703.1275401932, 4,18, 4,15,11740968.752516571,12,22, 7,15
61,15743207428.383959,88139.10953165221, 1, 1, 1,15,1282023.4113694867, 1, 1,20,15
134,3685071073.4325233,63564.01800854099, 1, 2, 4,15,156554.22484006523, 1, 1,20,15
170,273393721.45532674,348.4159749238097, 1, 2, 4,15,17476.39704006126, 1, 1,12,15
207,339560869.0695816,815.2532113832032, 1, 2, 3,15,22990.642799023623, 1, 1,10,15
244,664895467.8009144,1521.856143006317, 1, 2, 4,15,53038.631142310165, 1, 1,20,15
281,2407221015.106824,59938.60262432081, 1, 1, 5,15,81951.81706819107, 1, 1,19,15
318,0.0,0.0, 1, 1, 1,15,0.0, 1, 1, 1,15
355,10310294493.051695,18561.32405820678, 1, 2, 4,15,724774.895203776, 1, 1,18,15
403,10310294493.051695,18561.32405820678, 1, 2, 4,15,724774.895203776, 1, 1,18,15
476,5569688622.066177,7098.072629279515, 1, 2, 4,15,356036.3026282215, 1, 1,12,15
513,0.0,0.0, 1, 1, 1,15,0.0, 1, 1, 1,15
562,2201677826.463532,0.0, 1,11,15,45,161719.63165786606, 1, 3, 6,45
1046,0.0,0.0, 1, 1, 1,15,0.0, 1, 1, 1,15
1096,5684779932.939841,0.0, 1, 1, 1,15,1748848.2389159065, 8,21,17,60
1134,23537745126.456905,0.0, 3, 4,14,60,6836479.094474679,12,15,11,60
1326,11697372045.245338,0.0, 1, 1, 1,15,4050000.0000000014, 4,30, 9,60
1379,0.0,0.0, 1, 1, 1,15,0.0, 1, 1, 1,15
End of Data
 Number of Records Written=          99
