Program Version,EnergyPlus, Version 22.2.0-c249759bad, YMD=2023.09.01 14:31
1,5,Environment Title[],Latitude[deg],Longitude[deg],Time Zone[],Elevation[m]
2,8,Day of Simulation[],Month[],Day of Month[],DST Indicator[1=yes 0=no],Hour[],StartMinute[],EndMinute[],DayType
3,5,Cumulative Day of Simulation[],Month[],Day of Month[],DST Indicator[1=yes 0=no],DayType  ! When Daily Report Variables Requested
4,2,Cumulative Days of Simulation[],Month[]  ! When Monthly Report Variables Requested
5,1,Cumulative Days of Simulation[] ! When Run Period Report Variables Requested
6,1,Calendar Year of Simulation[] ! When Annual Report Variables Requested
7,1,Environment,Site Outdoor Air Drybulb Temperature [C] !Hourly
545,1,LIVING,Zone Mean Air Temperature [C] !Hourly
546,1,ATTIC,Zone Mean Air Temperature [C] !Hourly
547,1,CRAWLSPACE,Zone Mean Air Temperature [C] !Hourly
548,1,FAN,Fan Electricity Rate [W] !Hourly
720,1,LIVING,Zone Predicted Sensible Load to Heating Setpoint Heat Transfer Rate [W] !Hourly
721,1,LIVING,Zone System Predicted Sensible Load to Heating Setpoint Heat Transfer Rate [W] !Hourly
784,1,ATTIC,Zone Predicted Sensible Load to Heating Setpoint Heat Transfer Rate [W] !Hourly
785,1,ATTIC,Zone System Predicted Sensible Load to Heating Setpoint Heat Transfer Rate [W] !Hourly
848,1,CRAWLSPACE,Zone Predicted Sensible Load to Heating Setpoint Heat Transfer Rate [W] !Hourly
849,1,CRAWLSPACE,Zone System Predicted Sensible Load to Heating Setpoint Heat Transfer Rate [W] !Hourly
1121,1,DX_HEATING_COIL,Heating Coil Heating Rate [W] !Hourly
1135,1,DX_HEATING_COIL,Heating Coil Electricity Rate [W] !Hourly
1161,1,DX_HEATING_COIL,Heating Coil Defrost Electricity Rate [W] !Hourly
1163,1,DX_HEATING_COIL,Heating Coil Crankcase Heater Electricity Rate [W] !Hourly
1166,1,HEATING_RESISTANCE_BACKUP,Heating Coil Heating Rate [W] !Hourly
1168,1,HEATING_RESISTANCE_BACKUP,Heating Coil Electricity Rate [W] !Hourly
End of Data Dictionary
1,EXTREME_WINTER,  33.67,-117.87,  -8.00,  17.00
2,1, 1,15, 0, 1, 0.00,60.00,Monday
7,7.8
545,21.907692516877464
546,9.766031275808475
547,19.944544188104878
548,0.0
720,-2084.1834511940615
721,-2084.1834511940615
784,0.0
785,0.0
848,0.0
849,0.0
1121,0.0
1135,0.0
1161,0.0
1163,200.0
1166,0.0
1168,0.0
2,1, 1,15, 0, 2, 0.00,60.00,Monday
7,8.9
545,21.611868197969077
546,8.531745135719715
547,19.748643109942037
548,0.0
720,-2120.999145318521
721,-2120.999145318521
784,0.0
785,0.0
848,0.0
849,0.0
1121,0.0
1135,0.0
1161,0.0
1163,200.0
1166,0.0
1168,0.0
2,1, 1,15, 0, 3, 0.00,60.00,Monday
7,8.9
545,21.165465850131298
546,7.78169558109829
547,19.611738553125093
548,0.0
720,-1592.8643393991697
721,-1592.8643393991697
784,0.0
785,0.0
848,0.0
849,0.0
1121,0.0
1135,0.0
1161,0.0
1163,200.0
1166,0.0
1168,0.0
2,1, 1,15, 0, 4, 0.00,60.00,Monday
7,9.4
545,20.817372827998113
546,7.228047604670841
547,19.478382368281167
548,0.0
720,-1310.235435144814
721,-1310.235435144814
784,0.0
785,0.0
848,0.0
849,0.0
1121,0.0
1135,0.0
1161,0.0
1163,200.0
1166,0.0
1168,0.0
2,1, 1,15, 0, 5, 0.00,60.00,Monday
7,9.4
545,20.53059243593376
546,6.316658308680867
547,19.354648954923118
548,0.0
720,-1017.0935649895655
721,-1017.0935649895655
784,0.0
785,0.0
848,0.0
849,0.0
1121,0.0
1135,0.0
1161,0.0
1163,200.0
1166,0.0
1168,0.0
2,1, 1,15, 0, 6, 0.00,60.00,Monday
7,10.0
545,20.442671541303614
546,6.990405439690357
547,19.236594590423532
548,0.0
720,-361.82008683857293
721,-361.82008683857293
784,0.0
785,0.0
848,0.0
849,0.0
1121,0.0
1135,0.0
1161,0.0
1163,0.0
1166,0.0
1168,0.0
2,1, 1,15, 0, 7, 0.00,60.00,Monday
7,10.6
545,20.456464748441757
546,6.924822300098022
547,19.12583641790493
548,0.0
720,-385.714276640173
721,-385.714276640173
784,0.0
785,0.0
848,0.0
849,0.0
1121,0.0
1135,0.0
1161,0.0
1163,0.0
1166,0.0
1168,0.0
2,1, 1,15, 0, 8, 0.00,60.00,Monday
7,11.1
545,20.36078329304831
546,7.098670540301336
547,19.020746381875718
548,0.0
720,-397.9957967064747
721,-397.9957967064747
784,0.0
785,0.0
848,0.0
849,0.0
1121,0.0
1135,0.0
1161,0.0
1163,0.0
1166,0.0
1168,0.0
2,1, 1,15, 0, 9, 0.00,60.00,Monday
7,12.8
545,20.256506898904163
546,7.922690372163905
547,18.922399750980514
548,0.0
720,-332.2427582263899
721,-332.2427582263899
784,0.0
785,0.0
848,0.0
849,0.0
1121,0.0
1135,0.0
1161,0.0
1163,0.0
1166,0.0
1168,0.0
2,1, 1,15, 0,10, 0.00,60.00,Monday
7,13.3
545,20.252656391521914
546,10.175134539197826
547,18.83093752244359
548,0.0
720,-341.4745302115716
721,-341.4745302115716
784,0.0
785,0.0
848,0.0
849,0.0
1121,0.0
1135,0.0
1161,0.0
1163,0.0
1166,0.0
1168,0.0
2,1, 1,15, 0,11, 0.00,60.00,Monday
7,17.2
545,20.934307917006958
546,15.572343400191587
547,18.749890272970404
548,0.0
720,-770.8548973199031
721,-770.8548973199031
784,0.0
785,0.0
848,0.0
849,0.0
1121,0.0
1135,0.0
1161,0.0
1163,0.0
1166,0.0
1168,0.0
2,1, 1,15, 0,12, 0.00,60.00,Monday
7,17.8
545,21.842001269523827
546,21.672685145208096
547,18.687914172919914
548,0.0
720,-1418.3602338667006
721,-1418.3602338667006
784,0.0
785,0.0
848,0.0
849,0.0
1121,0.0
1135,0.0
1161,0.0
1163,0.0
1166,0.0
1168,0.0
2,1, 1,15, 0,13, 0.00,60.00,Monday
7,16.1
545,21.787924670611297
546,20.147970502699202
547,18.652755303993242
548,0.0
720,-1657.6518603403256
721,-1657.6518603403256
784,0.0
785,0.0
848,0.0
849,0.0
1121,0.0
1135,0.0
1161,0.0
1163,0.0
1166,0.0
1168,0.0
2,1, 1,15, 0,14, 0.00,60.00,Monday
7,16.7
545,22.37648632497835
546,22.875231683464968
547,18.641604490356798
548,0.0
720,-1562.529971785003
721,-1562.529971785003
784,0.0
785,0.0
848,0.0
849,0.0
1121,0.0
1135,0.0
1161,0.0
1163,0.0
1166,0.0
1168,0.0
2,1, 1,15, 0,15, 0.00,60.00,Monday
7,16.7
545,22.778682984959318
546,21.541782239690995
547,18.639246172862258
548,0.0
720,-1913.3658037039877
721,-1913.3658037039877
784,0.0
785,0.0
848,0.0
849,0.0
1121,0.0
1135,0.0
1161,0.0
1163,0.0
1166,0.0
1168,0.0
2,1, 1,15, 0,16, 0.00,60.00,Monday
7,16.1
545,23.25236199466397
546,21.38056817039796
547,18.645427635762992
548,0.0
720,-2205.752034799565
721,-2205.752034799565
784,0.0
785,0.0
848,0.0
849,0.0
1121,0.0
1135,0.0
1161,0.0
1163,0.0
1166,0.0
1168,0.0
2,1, 1,15, 0,17, 0.00,60.00,Monday
7,15.6
545,23.326804540659577
546,19.622607636698632
547,18.66213383781579
548,2.3907883187775436
720,-2195.1442554131245
721,-2195.1442554131245
784,0.0
785,0.0
848,0.0
849,0.0
1121,0.0
1135,0.0
1161,0.0
1163,0.0
1166,0.0
1168,0.0
2,1, 1,15, 0,18, 0.00,60.00,Monday
7,15.0
545,23.449112789617477
546,18.098396242793825
547,18.68274885402375
548,5.5351120911602605
720,-1816.6183499433255
721,-1816.6183499433255
784,0.0
785,0.0
848,0.0
849,0.0
1121,0.0
1135,0.0
1161,0.0
1163,0.0
1166,0.0
1168,0.0
2,1, 1,15, 0,19, 0.00,60.00,Monday
7,15.0
545,23.217990919015243
546,16.37322583910457
547,18.705848977644266
548,13.186913634864894
720,-2272.412723949681
721,-2272.412723949681
784,0.0
785,0.0
848,0.0
849,0.0
1121,0.0
1135,0.0
1161,0.0
1163,0.0
1166,0.0
1168,0.0
2,1, 1,15, 0,20, 0.00,60.00,Monday
7,15.0
545,23.432100202722612
546,15.68513657244608
547,18.710643546660588
548,15.587833038644998
720,-3101.954633213374
721,-3101.954633213374
784,0.0
785,0.0
848,0.0
849,0.0
1121,0.0
1135,0.0
1161,0.0
1163,0.0
1166,0.0
1168,0.0
2,1, 1,15, 0,21, 0.00,60.00,Monday
7,13.0
545,23.210353434461037
546,14.435931643460941
547,18.70501980842952
548,16.23322619731768
720,-2951.0654845520003
721,-2951.0654845520003
784,0.0
785,0.0
848,0.0
849,0.0
1121,0.0
1135,0.0
1161,0.0
1163,0.0
1166,0.0
1168,0.0
2,1, 1,15, 0,22, 0.00,60.00,Monday
7,12.8
545,23.360765761141515
546,13.646422036356082
547,18.675742853533105
548,7.717861833997503
720,-2930.0838181596846
721,-2930.0838181596846
784,0.0
785,0.0
848,0.0
849,0.0
1121,0.0
1135,0.0
1161,0.0
1163,0.0
1166,0.0
1168,0.0
2,1, 1,15, 0,23, 0.00,60.00,Monday
7,11.7
545,23.279344041984853
546,12.73140057619292
547,18.64313918851596
548,0.0
720,-2951.463919923958
721,-2951.463919923958
784,0.0
785,0.0
848,0.0
849,0.0
1121,0.0
1135,0.0
1161,0.0
1163,0.0
1166,0.0
1168,0.0
2,1, 1,15, 0,24, 0.00,60.00,Monday
7,11.7
545,22.61242211665271
546,12.180526308867277
547,18.613061550753255
548,0.0
720,-1944.8684142833908
721,-1944.8684142833908
784,0.0
785,0.0
848,0.0
849,0.0
1121,0.0
1135,0.0
1161,0.0
1163,0.0
1166,0.0
1168,0.0
2,2, 1,16, 0, 1, 0.00,60.00,Tuesday
7,11.7
545,22.30690585269787
546,11.964107385260576
547,18.576945010987544
548,0.0
720,-2244.4344386755492
721,-2244.4344386755492
784,0.0
785,0.0
848,0.0
849,0.0
1121,0.0
1135,0.0
1161,0.0
1163,0.0
1166,0.0
1168,0.0
2,2, 1,16, 0, 2, 0.00,60.00,Tuesday
7,11.7
545,21.98485795981509
546,11.528052674266522
547,18.533976305754457
548,0.0
720,-1601.9542747870046
721,-1601.9542747870046
784,0.0
785,0.0
848,0.0
849,0.0
1121,0.0
1135,0.0
1161,0.0
1163,0.0
1166,0.0
1168,0.0
2,2, 1,16, 0, 3, 0.00,60.00,Tuesday
7,12.2
545,21.7194313377196
546,11.213978841836708
547,18.486522479374994
548,0.0
720,-1272.161792884509
721,-1272.161792884509
784,0.0
785,0.0
848,0.0
849,0.0
1121,0.0
1135,0.0
1161,0.0
1163,0.0
1166,0.0
1168,0.0
2,2, 1,16, 0, 4, 0.00,60.00,Tuesday
7,11.1
545,21.191556822387078
546,9.76177054886537
547,18.436919576629446
548,0.0
720,-1465.683246601795
721,-1465.683246601795
784,0.0
785,0.0
848,0.0
849,0.0
1121,0.0
1135,0.0
1161,0.0
1163,0.0
1166,0.0
1168,0.0
2,2, 1,16, 0, 5, 0.00,60.00,Tuesday
7,11.1
545,21.021934594001262
546,9.09124521435607
547,18.383946710982755
548,0.0
720,-1073.6765148347395
721,-1073.6765148347395
784,0.0
785,0.0
848,0.0
849,0.0
1121,0.0
1135,0.0
1161,0.0
1163,0.0
1166,0.0
1168,0.0
2,2, 1,16, 0, 6, 0.00,60.00,Tuesday
7,10.6
545,20.84108091594049
546,9.381884003818438
547,18.328621710434728
548,0.0
720,-652.1392337692496
721,-652.1392337692496
784,0.0
785,0.0
848,0.0
849,0.0
1121,0.0
1135,0.0
1161,0.0
1163,0.0
1166,0.0
1168,0.0
2,2, 1,16, 0, 7, 0.00,60.00,Tuesday
7,11.0
545,20.840153761371656
546,9.009329190504214
547,18.27380326486925
548,0.0
720,-629.6352752777675
721,-629.6352752777675
784,0.0
785,0.0
848,0.0
849,0.0
1121,0.0
1135,0.0
1161,0.0
1163,0.0
1166,0.0
1168,0.0
2,2, 1,16, 0, 8, 0.00,60.00,Tuesday
7,12.2
545,20.880272893391506
546,9.65884562672826
547,18.218910476840712
548,0.0
720,-713.6484463638371
721,-713.6484463638371
784,0.0
785,0.0
848,0.0
849,0.0
1121,0.0
1135,0.0
1161,0.0
1163,0.0
1166,0.0
1168,0.0
2,2, 1,16, 0, 9, 0.00,60.00,Tuesday
7,13.3
545,20.672430744656157
546,11.726109343425263
547,18.165498074059357
548,0.0
720,-621.2261757389715
721,-621.2261757389715
784,0.0
785,0.0
848,0.0
849,0.0
1121,0.0
1135,0.0
1161,0.0
1163,0.0
1166,0.0
1168,0.0
2,2, 1,16, 0,10, 0.00,60.00,Tuesday
7,13.0
545,20.626127260766882
546,13.248779601482367
547,18.11585502161259
548,0.0
720,-542.5614519646897
721,-542.5614519646897
784,0.0
785,0.0
848,0.0
849,0.0
1121,0.0
1135,0.0
1161,0.0
1163,0.0
1166,0.0
1168,0.0
2,2, 1,16, 0,11, 0.00,60.00,Tuesday
7,13.3
545,20.71486503655825
546,14.794851105020143
547,18.071107801707328
548,0.0
720,-567.2478779988651
721,-567.2478779988651
784,0.0
785,0.0
848,0.0
849,0.0
1121,0.0
1135,0.0
1161,0.0
1163,0.0
1166,0.0
1168,0.0
2,2, 1,16, 0,12, 0.00,60.00,Tuesday
7,13.3
545,20.987833951137713
546,16.59377718375985
547,18.03624385302065
548,0.0
720,-731.6585974236496
721,-731.6585974236496
784,0.0
785,0.0
848,0.0
849,0.0
1121,0.0
1135,0.0
1161,0.0
1163,0.0
1166,0.0
1168,0.0
2,2, 1,16, 0,13, 0.00,60.00,Tuesday
7,13.0
545,21.58159324047265
546,18.761152752974308
547,18.015083593218716
548,0.0
720,-1033.5172765178195
721,-1033.5172765178195
784,0.0
785,0.0
848,0.0
849,0.0
1121,0.0
1135,0.0
1161,0.0
1163,0.0
1166,0.0
1168,0.0
2,2, 1,16, 0,14, 0.00,60.00,Tuesday
7,14.0
545,22.23089369812876
546,19.993024072089174
547,18.01039536976129
548,0.0
720,-1501.506950338482
721,-1501.506950338482
784,0.0
785,0.0
848,0.0
849,0.0
1121,0.0
1135,0.0
1161,0.0
1163,0.0
1166,0.0
1168,0.0
2,2, 1,16, 0,15, 0.00,60.00,Tuesday
7,13.3
545,22.646238071502818
546,21.13597517479399
547,18.024696095177603
548,0.0
720,-1853.8273651715517
721,-1853.8273651715517
784,0.0
785,0.0
848,0.0
849,0.0
1121,0.0
1135,0.0
1161,0.0
1163,0.0
1166,0.0
1168,0.0
2,2, 1,16, 0,16, 0.00,60.00,Tuesday
7,13.3
545,23.319092638812368
546,19.220037524926862
547,18.05349042154506
548,2.713987045715697
720,-2319.1353939455403
721,-2319.1353939455403
784,0.0
785,0.0
848,0.0
849,0.0
1121,0.0
1135,0.0
1161,0.0
1163,0.0
1166,0.0
1168,0.0
2,2, 1,16, 0,17, 0.00,60.00,Tuesday
7,12.2
545,23.313749466175533
546,17.498330679001146
547,18.11581657089164
548,16.436393621963326
720,-3237.7143111721343
721,-3237.7143111721343
784,0.0
785,0.0
848,0.0
849,0.0
1121,0.0
1135,0.0
1161,0.0
1163,0.0
1166,0.0
1168,0.0
2,2, 1,16, 0,18, 0.00,60.00,Tuesday
7,11.7
545,23.470925811111613
546,15.299073280145796
547,18.135952404397358
548,6.833671334131619
720,-3370.1691375854025
721,-3370.1691375854025
784,0.0
785,0.0
848,0.0
849,0.0
1121,0.0
1135,0.0
1161,0.0
1163,0.0
1166,0.0
1168,0.0
2,2, 1,16, 0,19, 0.00,60.00,Tuesday
7,11.1
545,23.299713891896218
546,12.941228434343397
547,18.173346747998767
548,9.394033816947655
720,-2932.8231500600305
721,-2932.8231500600305
784,0.0
785,0.0
848,0.0
849,0.0
1121,0.0
1135,0.0
1161,0.0
1163,0.0
1166,0.0
1168,0.0
2,2, 1,16, 0,20, 0.00,60.00,Tuesday
7,10.6
545,23.376241892374154
546,11.39471861866874
547,18.18226674052897
548,7.863563956129582
720,-3079.154958582152
721,-3079.154958582152
784,0.0
785,0.0
848,0.0
849,0.0
1121,0.0
1135,0.0
1161,0.0
1163,0.0
1166,0.0
1168,0.0
2,2, 1,16, 0,21, 0.00,60.00,Tuesday
7,10.6
545,23.33486256935894
546,10.786279501285584
547,18.17789890479238
548,7.125118626629321
720,-2871.3489639706295
721,-2871.3489639706295
784,0.0
785,0.0
848,0.0
849,0.0
1121,0.0
1135,0.0
1161,0.0
1163,0.0
1166,0.0
1168,0.0
2,2, 1,16, 0,22, 0.00,60.00,Tuesday
7,11.1
545,23.452801143014902
546,10.156371592687867
547,18.152268871906525
548,2.247365614426455
720,-2620.04433555146
721,-2620.04433555146
784,0.0
785,0.0
848,0.0
849,0.0
1121,0.0
1135,0.0
1161,0.0
1163,0.0
1166,0.0
1168,0.0
2,2, 1,16, 0,23, 0.00,60.00,Tuesday
7,10.6
545,22.980152630928618
546,9.912568885094549
547,18.120297576070207
548,0.0
720,-2496.6441284275497
721,-2496.6441284275497
784,0.0
785,0.0
848,0.0
849,0.0
1121,0.0
1135,0.0
1161,0.0
1163,0.0
1166,0.0
1168,0.0
2,2, 1,16, 0,24, 0.00,60.00,Tuesday
7,9.4
545,22.33928638164385
546,8.407619681806096
547,18.086281754294454
548,0.0
720,-2125.3229648521037
721,-2125.3229648521037
784,0.0
785,0.0
848,0.0
849,0.0
1121,0.0
1135,0.0
1161,0.0
1163,200.0
1166,0.0
1168,0.0
2,3, 1,17, 0, 1, 0.00,60.00,Wednesday
7,8.9
545,21.653527493864395
546,7.974049339609899
547,18.04137222762313
548,0.0
720,-1785.5661894264204
721,-1785.5661894264204
784,0.0
785,0.0
848,0.0
849,0.0
1121,0.0
1135,0.0
1161,0.0
1163,200.0
1166,0.0
1168,0.0
2,3, 1,17, 0, 2, 0.00,60.00,Wednesday
7,8.3
545,21.060827866155247
546,6.172128059829361
547,17.992267369983296
548,0.0
720,-1502.3033985348839
721,-1502.3033985348839
784,0.0
785,0.0
848,0.0
849,0.0
1121,0.0
1135,0.0
1161,0.0
1163,200.0
1166,0.0
1168,0.0
2,3, 1,17, 0, 3, 0.00,60.00,Wednesday
7,7.8
545,20.488574442008463
546,4.563636281163522
547,17.934806368581558
548,0.0
720,-1124.7449876433911
721,-1124.7449876433911
784,0.0
785,0.0
848,0.0
849,0.0
1121,0.0
1135,0.0
1161,0.0
1163,200.0
1166,0.0
1168,0.0
2,3, 1,17, 0, 4, 0.00,60.00,Wednesday
7,7.8
545,20.073724835336222
546,4.514448619710717
547,17.871992819104197
548,0.0
720,-838.3075992803851
721,-838.3075992803851
784,0.0
785,0.0
848,0.0
849,0.0
1121,0.0
1135,0.0
1161,0.0
1163,200.0
1166,0.0
1168,0.0
2,3, 1,17, 0, 5, 0.00,60.00,Wednesday
7,7.2
545,19.66352471654013
546,4.6193591201699835
547,17.803303729311803
548,0.0
720,-552.8917636963388
721,-552.8917636963388
784,0.0
785,0.0
848,0.0
849,0.0
1121,0.0
1135,0.0
1161,0.0
1163,200.0
1166,0.0
1168,0.0
2,3, 1,17, 0, 6, 0.00,60.00,Wednesday
7,7.8
545,19.703760421212696
546,4.798389620446393
547,17.733407376895066
548,2.5630452487057815
720,85.92121323284118
721,85.92121323284118
784,0.0
785,0.0
848,0.0
849,0.0
1121,104.94548628129886
1135,28.955422733573606
1161,0.0
1163,196.16904060420714
1166,0.0
1168,0.0
2,3, 1,17, 0, 7, 0.00,60.00,Wednesday
7,7.8
545,19.579097795656665
546,6.030926353008074
547,17.662695062412435
548,6.622487873482157
720,215.4033792264363
721,215.4033792264363
784,0.0
785,0.0
848,0.0
849,0.0
1121,272.03113901183417
1135,74.864500919667
1161,0.0
1163,190.10143025947292
1166,0.0
1168,0.0
2,3, 1,17, 0, 8, 0.00,60.00,Wednesday
7,8.9
545,19.90878454165397
546,6.824734636759479
547,17.59526536779346
548,2.749804072087264
720,82.25203962336127
721,82.25203962336127
784,0.0
785,0.0
848,0.0
849,0.0
1121,115.74894237127077
1135,31.406916235898443
1161,0.0
1163,195.889893964271
1166,0.0
1168,0.0
2,3, 1,17, 0, 9, 0.00,60.00,Wednesday
7,11.1
545,19.871150762347725
546,9.152955749126933
547,17.533466354722343
548,0.0
720,-57.73414589071399
721,-57.73414589071399
784,0.0
785,0.0
848,0.0
849,0.0
1121,0.0
1135,0.0
1161,0.0
1163,0.0
1166,0.0
1168,0.0
2,3, 1,17, 0,10, 0.00,60.00,Wednesday
7,13.3
545,21.208260651010836
546,16.925699710777092
547,17.487167927898163
548,0.0
720,-960.519371123055
721,-960.519371123055
784,0.0
785,0.0
848,0.0
849,0.0
1121,0.0
1135,0.0
1161,0.0
1163,0.0
1166,0.0
1168,0.0
2,3, 1,17, 0,11, 0.00,60.00,Wednesday
7,13.9
545,22.336503016186725
546,23.391449456090964
547,17.46578692019801
548,0.0
720,-2199.8546500239954
721,-2199.8546500239954
784,0.0
785,0.0
848,0.0
849,0.0
1121,0.0
1135,0.0
1161,0.0
1163,0.0
1166,0.0
1168,0.0
2,3, 1,17, 0,12, 0.00,60.00,Wednesday
7,15.0
545,23.34896618899191
546,28.088327346679158
547,17.479860628778628
548,0.0
720,-3049.659372398257
721,-3049.659372398257
784,0.0
785,0.0
848,0.0
849,0.0
1121,0.0
1135,0.0
1161,0.0
1163,0.0
1166,0.0
1168,0.0
2,3, 1,17, 0,13, 0.00,60.00,Wednesday
7,15.0
545,24.3349823219851
546,29.88231202726483
547,17.52438977722993
548,0.0
720,-3777.5391058782097
721,-3777.5391058782097
784,0.0
785,0.0
848,0.0
849,0.0
1121,0.0
1135,0.0
1161,0.0
1163,0.0
1166,0.0
1168,0.0
2,3, 1,17, 0,14, 0.00,60.00,Wednesday
7,15.6
545,25.597336041884713
546,31.744561718408
547,17.591004883844544
548,0.0
720,-4623.809794895831
721,-4623.809794895831
784,0.0
785,0.0
848,0.0
849,0.0
1121,0.0
1135,0.0
1161,0.0
1163,0.0
1166,0.0
1168,0.0
2,3, 1,17, 0,15, 0.00,60.00,Wednesday
7,15.0
545,26.690910055957872
546,29.286015821850043
547,17.69090007561987
548,0.0
720,-5472.186449024373
721,-5472.186449024373
784,0.0
785,0.0
848,0.0
849,0.0
1121,0.0
1135,0.0
1161,0.0
1163,0.0
1166,0.0
1168,0.0
2,3, 1,17, 0,16, 0.00,60.00,Wednesday
7,14.4
545,27.66893519161406
546,26.3372211295014
547,17.809148998805515
548,0.0
720,-5562.630390020837
721,-5562.630390020837
784,0.0
785,0.0
848,0.0
849,0.0
1121,0.0
1135,0.0
1161,0.0
1163,0.0
1166,0.0
1168,0.0
2,3, 1,17, 0,17, 0.00,60.00,Wednesday
7,13.3
545,28.206501351545803
546,21.943642095099744
547,17.939767938631107
548,0.0
720,-6288.237267491368
721,-6288.237267491368
784,0.0
785,0.0
848,0.0
849,0.0
1121,0.0
1135,0.0
1161,0.0
1163,0.0
1166,0.0
1168,0.0
2,3, 1,17, 0,18, 0.00,60.00,Wednesday
7,12.8
545,27.8881865665191
546,19.025964908027564
547,18.059384175558097
548,0.0
720,-5981.538320377684
721,-5981.538320377684
784,0.0
785,0.0
848,0.0
849,0.0
1121,0.0
1135,0.0
1161,0.0
1163,0.0
1166,0.0
1168,0.0
2,3, 1,17, 0,19, 0.00,60.00,Wednesday
7,12.2
545,27.825109131087103
546,15.28384954171742
547,18.14906946246221
548,0.0
720,-5479.365563311949
721,-5479.365563311949
784,0.0
785,0.0
848,0.0
849,0.0
1121,0.0
1135,0.0
1161,0.0
1163,0.0
1166,0.0
1168,0.0
2,3, 1,17, 0,20, 0.00,60.00,Wednesday
7,11.1
545,27.66694827263663
546,12.573313699205665
547,18.20158303674424
548,0.0
720,-5392.51011415408
721,-5392.51011415408
784,0.0
785,0.0
848,0.0
849,0.0
1121,0.0
1135,0.0
1161,0.0
1163,0.0
1166,0.0
1168,0.0
2,3, 1,17, 0,21, 0.00,60.00,Wednesday
7,11.7
545,27.521323383240606
546,11.213030577678046
547,18.215720349897136
548,0.0
720,-5283.543374730216
721,-5283.543374730216
784,0.0
785,0.0
848,0.0
849,0.0
1121,0.0
1135,0.0
1161,0.0
1163,0.0
1166,0.0
1168,0.0
2,3, 1,17, 0,22, 0.00,60.00,Wednesday
7,10.6
545,26.973321445330434
546,9.484517130991103
547,18.204852458257168
548,0.0
720,-4560.4770584690905
721,-4560.4770584690905
784,0.0
785,0.0
848,0.0
849,0.0
1121,0.0
1135,0.0
1161,0.0
1163,0.0
1166,0.0
1168,0.0
2,3, 1,17, 0,23, 0.00,60.00,Wednesday
7,8.9
545,26.08790476834561
546,7.7733629206726995
547,18.18553399200975
548,0.0
720,-5112.615777995328
721,-5112.615777995328
784,0.0
785,0.0
848,0.0
849,0.0
1121,0.0
1135,0.0
1161,0.0
1163,200.0
1166,0.0
1168,0.0
2,3, 1,17, 0,24, 0.00,60.00,Wednesday
7,8.9
545,25.27799455004561
546,6.379263805368356
547,18.153845124706862
548,0.0
720,-4899.102621334665
721,-4899.102621334665
784,0.0
785,0.0
848,0.0
849,0.0
1121,0.0
1135,0.0
1161,0.0
1163,200.0
1166,0.0
1168,0.0
2,4, 1,18, 0, 1, 0.00,60.00,Thursday
7,8.3
545,24.410239662191614
546,5.24462985173406
547,18.10587142117187
548,0.0
720,-4173.170530629457
721,-4173.170530629457
784,0.0
785,0.0
848,0.0
849,0.0
1121,0.0
1135,0.0
1161,0.0
1163,200.0
1166,0.0
1168,0.0
2,4, 1,18, 0, 2, 0.00,60.00,Thursday
7,7.2
545,23.53632680712266
546,4.202039300437835
547,18.049167023389266
548,0.0
720,-3525.694330327329
721,-3525.694330327329
784,0.0
785,0.0
848,0.0
849,0.0
1121,0.0
1135,0.0
1161,0.0
1163,200.0
1166,0.0
1168,0.0
2,4, 1,18, 0, 3, 0.00,60.00,Thursday
7,7.2
545,22.799573087471686
546,3.378812406431772
547,17.98780017691559
548,0.0
720,-2998.844787251921
721,-2998.844787251921
784,0.0
785,0.0
848,0.0
849,0.0
1121,0.0
1135,0.0
1161,0.0
1163,200.0
1166,0.0
1168,0.0
2,4, 1,18, 0, 4, 0.00,60.00,Thursday
7,6.1
545,21.953111980419028
546,2.516514449974441
547,17.917742644591705
548,0.0
720,-2291.5985381554474
721,-2291.5985381554474
784,0.0
785,0.0
848,0.0
849,0.0
1121,0.0
1135,0.0
1161,0.0
1163,200.0
1166,0.0
1168,0.0
2,4, 1,18, 0, 5, 0.00,60.00,Thursday
7,6.1
545,21.369993481445704
546,1.8046407375730584
547,17.84184520954408
548,0.0
720,-1911.778910541183
721,-1911.778910541183
784,0.0
785,0.0
848,0.0
849,0.0
1121,0.0
1135,0.0
1161,0.0
1163,200.0
1166,0.0
1168,0.0
2,4, 1,18, 0, 6, 0.00,60.00,Thursday
7,6.1
545,20.86052456242956
546,2.259174462187545
547,17.759363366429
548,0.0
720,-737.4568467810404
721,-737.4568467810404
784,0.0
785,0.0
848,0.0
849,0.0
1121,0.0
1135,0.0
1161,0.0
1163,200.0
1166,0.0
1168,0.0
2,4, 1,18, 0, 7, 0.00,60.00,Thursday
7,5.6
545,20.483968082909215
546,1.8192192448615099
547,17.67805795458249
548,0.0
720,-470.5960648225464
721,-470.5960648225464
784,0.0
785,0.0
848,0.0
849,0.0
1121,0.0
1135,0.0
1161,0.0
1163,200.0
1166,0.0
1168,0.0
2,4, 1,18, 0, 8, 0.00,60.00,Thursday
7,7.8
545,20.902159570335932
546,3.1429508128979515
547,17.5949194518693
548,0.0
720,-664.5294070754353
721,-664.5294070754353
784,0.0
785,0.0
848,0.0
849,0.0
1121,0.0
1135,0.0
1161,0.0
1163,200.0
1166,0.0
1168,0.0
2,4, 1,18, 0, 9, 0.00,60.00,Thursday
7,10.6
545,21.684640699763417
546,7.884210988530194
547,17.52228011041835
548,0.0
720,-1345.0042174889277
721,-1345.0042174889277
784,0.0
785,0.0
848,0.0
849,0.0
1121,0.0
1135,0.0
1161,0.0
1163,0.0
1166,0.0
1168,0.0
2,4, 1,18, 0,10, 0.00,60.00,Thursday
7,13.3
545,22.862913919736993
546,16.223485220424507
547,17.47340702253894
548,0.0
720,-2504.433963407191
721,-2504.433963407191
784,0.0
785,0.0
848,0.0
849,0.0
1121,0.0
1135,0.0
1161,0.0
1163,0.0
1166,0.0
1168,0.0
2,4, 1,18, 0,11, 0.00,60.00,Thursday
7,15.0
545,23.8483423042105
546,23.43486172570027
547,17.458148334922175
548,0.0
720,-3521.4136378022904
721,-3521.4136378022904
784,0.0
785,0.0
848,0.0
849,0.0
1121,0.0
1135,0.0
1161,0.0
1163,0.0
1166,0.0
1168,0.0
2,4, 1,18, 0,12, 0.00,60.00,Thursday
7,16.7
545,24.76000745203615
546,28.333400730832818
547,17.479526308498823
548,0.0
720,-4212.8608756338235
721,-4212.8608756338235
784,0.0
785,0.0
848,0.0
849,0.0
1121,0.0
1135,0.0
1161,0.0
1163,0.0
1166,0.0
1168,0.0
2,4, 1,18, 0,13, 0.00,60.00,Thursday
7,18.3
545,25.901457527170198
546,32.51872363933321
547,17.534677506087018
548,0.0
720,-4911.556620275074
721,-4911.556620275074
784,0.0
785,0.0
848,0.0
849,0.0
1121,0.0
1135,0.0
1161,0.0
1163,0.0
1166,0.0
1168,0.0
2,4, 1,18, 0,14, 0.00,60.00,Thursday
7,18.9
545,27.103788317104414
546,32.4191473916115
547,17.619838495270972
548,0.0
720,-5866.363846185344
721,-5866.363846185344
784,0.0
785,0.0
848,0.0
849,0.0
1121,0.0
1135,0.0
1161,0.0
1163,0.0
1166,0.0
1168,0.0
2,4, 1,18, 0,15, 0.00,60.00,Thursday
7,17.2
545,28.2015772678506
546,32.12579321073852
547,17.732493056506986
548,0.0
720,-6734.920231932056
721,-6734.920231932056
784,0.0
785,0.0
848,0.0
849,0.0
1121,0.0
1135,0.0
1161,0.0
1163,0.0
1166,0.0
1168,0.0
2,4, 1,18, 0,16, 0.00,60.00,Thursday
7,16.1
545,28.94723244010022
546,27.619630044408403
547,17.868105409330827
548,0.0
720,-7016.498334844371
721,-7016.498334844371
784,0.0
785,0.0
848,0.0
849,0.0
1121,0.0
1135,0.0
1161,0.0
1163,0.0
1166,0.0
1168,0.0
2,4, 1,18, 0,17, 0.00,60.00,Thursday
7,14.4
545,29.48171918428992
546,23.51680088035912
547,18.02041897952868
548,0.0
720,-7301.346082966116
721,-7301.346082966116
784,0.0
785,0.0
848,0.0
849,0.0
1121,0.0
1135,0.0
1161,0.0
1163,0.0
1166,0.0
1168,0.0
2,4, 1,18, 0,18, 0.00,60.00,Thursday
7,13.3
545,29.068901767882494
546,20.42565796946621
547,18.147511646368727
548,0.0
720,-6917.986269889114
721,-6917.986269889114
784,0.0
785,0.0
848,0.0
849,0.0
1121,0.0
1135,0.0
1161,0.0
1163,0.0
1166,0.0
1168,0.0
2,4, 1,18, 0,19, 0.00,60.00,Thursday
7,12.8
545,28.890077568046074
546,16.685679384376026
547,18.256701013008666
548,0.0
720,-6575.992423292275
721,-6575.992423292275
784,0.0
785,0.0
848,0.0
849,0.0
1121,0.0
1135,0.0
1161,0.0
1163,0.0
1166,0.0
1168,0.0
2,4, 1,18, 0,20, 0.00,60.00,Thursday
7,12.2
545,28.812732449379343
546,14.109750355523044
547,18.333617945518967
548,0.0
720,-6536.583455490703
721,-6536.583455490703
784,0.0
785,0.0
848,0.0
849,0.0
1121,0.0
1135,0.0
1161,0.0
1163,0.0
1166,0.0
1168,0.0
2,4, 1,18, 0,21, 0.00,60.00,Thursday
7,11.1
545,28.47448374439291
546,11.790274777912083
547,18.36772547834562
548,0.0
720,-6006.276050640443
721,-6006.276050640443
784,0.0
785,0.0
848,0.0
849,0.0
1121,0.0
1135,0.0
1161,0.0
1163,0.0
1166,0.0
1168,0.0
2,4, 1,18, 0,22, 0.00,60.00,Thursday
7,10.0
545,27.85917936883158
546,9.876917702864633
547,18.370928752076104
548,0.0
720,-5763.160720129881
721,-5763.160720129881
784,0.0
785,0.0
848,0.0
849,0.0
1121,0.0
1135,0.0
1161,0.0
1163,0.0
1166,0.0
1168,0.0
2,4, 1,18, 0,23, 0.00,60.00,Thursday
7,10.0
545,27.125085120496735
546,8.335045993111407
547,18.349355506629852
548,0.0
720,-6243.190674047859
721,-6243.190674047859
784,0.0
785,0.0
848,0.0
849,0.0
1121,0.0
1135,0.0
1161,0.0
1163,0.0
1166,0.0
1168,0.0
2,4, 1,18, 0,24, 0.00,60.00,Thursday
7,8.9
545,26.162828074335984
546,7.023925697241765
547,18.3054071687048
548,0.0
720,-5504.417675672643
721,-5504.417675672643
784,0.0
785,0.0
848,0.0
849,0.0
1121,0.0
1135,0.0
1161,0.0
1163,200.0
1166,0.0
1168,0.0
2,5, 1,19, 0, 1, 0.00,60.00,Friday
7,8.3
545,25.244390305570487
546,5.840032616771334
547,18.245270870893
548,0.0
720,-4952.454353690193
721,-4952.454353690193
784,0.0
785,0.0
848,0.0
849,0.0
1121,0.0
1135,0.0
1161,0.0
1163,200.0
1166,0.0
1168,0.0
2,5, 1,19, 0, 2, 0.00,60.00,Friday
7,7.8
545,24.387759328676374
546,4.798797853581968
547,18.16882833201483
548,0.0
720,-4272.174779349791
721,-4272.174779349791
784,0.0
785,0.0
848,0.0
849,0.0
1121,0.0
1135,0.0
1161,0.0
1163,200.0
1166,0.0
1168,0.0
2,5, 1,19, 0, 3, 0.00,60.00,Friday
7,7.2
545,23.45833975807237
546,4.797467555887058
547,18.06794851185296
548,0.0
720,-3534.2080131735274
721,-3534.2080131735274
784,0.0
785,0.0
848,0.0
849,0.0
1121,0.0
1135,0.0
1161,0.0
1163,200.0
1166,0.0
1168,0.0
2,5, 1,19, 0, 4, 0.00,60.00,Friday
7,6.7
545,22.704722757056533
546,3.682119190142392
547,17.99288259791562
548,0.0
720,-3011.3686723018163
721,-3011.3686723018163
784,0.0
785,0.0
848,0.0
849,0.0
1121,0.0
1135,0.0
1161,0.0
1163,200.0
1166,0.0
1168,0.0
2,5, 1,19, 0, 5, 0.00,60.00,Friday
7,6.1
545,22.022122072551074
546,2.70718010280305
547,17.91478239392442
548,0.0
720,-2396.2938579929814
721,-2396.2938579929814
784,0.0
785,0.0
848,0.0
849,0.0
1121,0.0
1135,0.0
1161,0.0
1163,200.0
1166,0.0
1168,0.0
2,5, 1,19, 0, 6, 0.00,60.00,Friday
7,6.1
545,21.48654204968577
546,2.9482578806797033
547,17.835403435983693
548,0.0
720,-1206.4896152663678
721,-1206.4896152663678
784,0.0
785,0.0
848,0.0
849,0.0
1121,0.0
1135,0.0
1161,0.0
1163,200.0
1166,0.0
1168,0.0
2,5, 1,19, 0, 7, 0.00,60.00,Friday
7,6.7
545,21.200651947703967
546,2.5419587069095386
547,17.750311890781095
548,0.0
720,-964.6122733606226
721,-964.6122733606226
784,0.0
785,0.0
848,0.0
849,0.0
1121,0.0
1135,0.0
1161,0.0
1163,200.0
1166,0.0
1168,0.0
2,5, 1,19, 0, 8, 0.00,60.00,Friday
7,8.9
545,21.59551332265102
546,3.9772858688277
547,17.664381164578113
548,0.0
720,-1036.8209421567963
721,-1036.8209421567963
784,0.0
785,0.0
848,0.0
849,0.0
1121,0.0
1135,0.0
1161,0.0
1163,200.0
1166,0.0
1168,0.0
2,5, 1,19, 0, 9, 0.00,60.00,Friday
7,11.7
545,22.334372653491677
546,8.750668988155875
547,17.590879868697932
548,0.0
720,-1747.954557821984
721,-1747.954557821984
784,0.0
785,0.0
848,0.0
849,0.0
1121,0.0
1135,0.0
1161,0.0
1163,0.0
1166,0.0
1168,0.0
2,5, 1,19, 0,10, 0.00,60.00,Friday
7,13.9
545,23.402671194052232
546,16.21098091624717
547,17.54084874793676
548,0.0
720,-2901.6383079561074
721,-2901.6383079561074
784,0.0
785,0.0
848,0.0
849,0.0
1121,0.0
1135,0.0
1161,0.0
1163,0.0
1166,0.0
1168,0.0
2,5, 1,19, 0,11, 0.00,60.00,Friday
7,16.1
545,24.37102922450741
546,22.361496814803957
547,17.5265044897011
548,0.0
720,-3931.145081950497
721,-3931.145081950497
784,0.0
785,0.0
848,0.0
849,0.0
1121,0.0
1135,0.0
1161,0.0
1163,0.0
1166,0.0
1168,0.0
2,5, 1,19, 0,12, 0.00,60.00,Friday
7,16.7
545,25.294304278496988
546,26.999931998521763
547,17.54926997141975
548,0.0
720,-4597.538803092069
721,-4597.538803092069
784,0.0
785,0.0
848,0.0
849,0.0
1121,0.0
1135,0.0
1161,0.0
1163,0.0
1166,0.0
1168,0.0
2,5, 1,19, 0,13, 0.00,60.00,Friday
7,17.2
545,26.263590181453402
546,29.873549906941577
547,17.60640745083006
548,0.0
720,-5210.439416000121
721,-5210.439416000121
784,0.0
785,0.0
848,0.0
849,0.0
1121,0.0
1135,0.0
1161,0.0
1163,0.0
1166,0.0
1168,0.0
2,5, 1,19, 0,14, 0.00,60.00,Friday
7,16.7
545,27.328049281303
546,29.692441983091
547,17.696102794419353
548,0.0
720,-5877.734558454686
721,-5877.734558454686
784,0.0
785,0.0
848,0.0
849,0.0
1121,0.0
1135,0.0