Program Version,EnergyPlus, Version 22.2.0-c249759bad, YMD=2023.09.01 14:31
1,5,Environment Title[],Latitude[deg],Longitude[deg],Time Zone[],Elevation[m]
2,8,Day of Simulation[],Month[],Day of Month[],DST Indicator[1=yes 0=no],Hour[],StartMinute[],EndMinute[],DayType
3,5,Cumulative Day of Simulation[],Month[],Day of Month[],DST Indicator[1=yes 0=no],DayType  ! When Daily Report Variables Requested
4,2,Cumulative Days of Simulation[],Month[]  ! When Monthly Report Variables Requested
5,1,Cumulative Days of Simulation[] ! When Run Period Report Variables Requested
6,1,Calendar Year of Simulation[] ! When Annual Report Variables Requested
7,1,Environment,Site Outdoor Air Drybulb Temperature [C] !Hourly
545,1,LIVING,Zone Mean Air Temperature [C] !Hourly
546,1,ATTIC,Zone Mean Air Temperature [C] !Hourly
547,1,CRAWLSPACE,Zone Mean Air Temperature [C] !Hourly
548,1,FAN,Fan Electricity Rate [W] !Hourly
720,1,LIVING,Zone Predicted Sensible Load to Heating Setpoint Heat Transfer Rate [W] !Hourly
721,1,LIVING,Zone System Predicted Sensible Load to Heating Setpoint Heat Transfer Rate [W] !Hourly
784,1,ATTIC,Zone Predicted Sensible Load to Heating Setpoint Heat Transfer Rate [W] !Hourly
785,1,ATTIC,Zone System Predicted Sensible Load to Heating Setpoint Heat Transfer Rate [W] !Hourly
848,1,CRAWLSPACE,Zone Predicted Sensible Load to Heating Setpoint Heat Transfer Rate [W] !Hourly
849,1,CRAWLSPACE,Zone System Predicted Sensible Load to Heating Setpoint Heat Transfer Rate [W] !Hourly
1121,1,DX_HEATING_COIL,Heating Coil Heating Rate [W] !Hourly
1135,1,DX_HEATING_COIL,Heating Coil Electricity Rate [W] !Hourly
1161,1,DX_HEATING_COIL,Heating Coil Defrost Electricity Rate [W] !Hourly
1163,1,DX_HEATING_COIL,Heating Coil Crankcase Heater Electricity Rate [W] !Hourly
1166,1,HEATING_RESISTANCE_BACKUP,Heating Coil Heating Rate [W] !Hourly
1168,1,HEATING_RESISTANCE_BACKUP,Heating Coil Electricity Rate [W] !Hourly
End of Data Dictionary
1,EXTREME_WINTER,  40.65, -73.78,  -5.00,   3.40
2,1, 1, 6, 0, 1, 0.00,60.00,Monday
7,-5.6
545,18.58855913775723
546,-3.0519964905094237
547,19.031411594623798
548,135.59060815365444
720,3576.9939499235606
721,3576.9939499235606
784,0.0
785,0.0
848,0.0
849,0.0
1121,3817.9599158158317
1135,1268.304404672518
1161,0.06531663820312394
1163,0.0
1166,1348.9542875782977
1168,1348.9542875782977
2,1, 1, 6, 0, 2, 0.00,60.00,Monday
7,-5.6
545,18.58125803276741
546,-2.953767528598108
547,18.666673792393386
548,135.59060815365444
720,3936.0170790310167
721,3936.0170790310167
784,0.0
785,0.0
848,0.0
849,0.0
1121,3820.995118116662
1135,1264.7840390068811
1161,0.06531663820312394
1163,0.0
1166,1801.0567920335761
1168,1801.0567920335761
2,1, 1, 6, 0, 3, 0.00,60.00,Monday
7,-6.7
545,18.591552879918854
546,-2.7010699492878083
547,18.504705352716616
548,135.59060815365444
720,3818.0779507695515
721,3818.0779507695515
784,0.0
785,0.0
848,0.0
849,0.0
1121,3700.5035932487344
1135,1252.5314925892026
1161,0.06531663820312394
1163,0.0
1166,1807.0416247371822
1168,1807.0416247371822
2,1, 1, 6, 0, 4, 0.00,60.00,Monday
7,-6.7
545,18.6042041237417
546,-2.1919889385789593
547,18.317052618011125
548,135.59060815365444
720,3511.904986217296
721,3511.904986217296
784,0.0
785,0.0
848,0.0
849,0.0
1121,3700.411810955648
1135,1252.6369278466132
1161,0.06531663820312394
1163,0.0
1166,1436.4549899979193
1168,1436.4549899979193
2,1, 1, 6, 0, 5, 0.00,60.00,Monday
7,-6.7
545,18.604031803875387
546,-2.2139470301576862
547,18.146269197180153
548,135.59060815365444
720,3510.7152163136507
721,3510.7152163136507
784,0.0
785,0.0
848,0.0
849,0.0
1121,3700.318912073565
1135,1252.7436457411573
1161,0.06531663820312394
1163,0.0
1166,1405.5416052940186
1168,1405.5416052940186
2,1, 1, 6, 0, 6, 0.00,60.00,Monday
7,-6.1
545,19.366304464448035
546,-1.8617612336068319
547,17.990357135250584
548,135.59060815365444
720,4288.824203658403
721,4288.824203658403
784,0.0
785,0.0
848,0.0
849,0.0
1121,3766.223878315996
1135,1258.9001296333033
1161,0.06531663820312394
1163,0.0
1166,2236.5880867629776
1168,2236.5880867629776
2,1, 1, 6, 0, 7, 0.00,60.00,Monday
7,-6.1
545,19.60542251993999
546,-2.3513181701473442
547,17.864862429085218
548,135.59060815365444
720,4250.332306198767
721,4250.332306198767
784,0.0
785,0.0
848,0.0
849,0.0
1121,3750.1434271672606
1135,1277.4750531558007
1161,0.06531663820312394
1163,0.0
1166,2267.497956521246
1168,2267.497956521246
2,1, 1, 6, 0, 8, 0.00,60.00,Monday
7,-6.1
545,19.67815761033023
546,-2.2962570649925524
547,17.729319208325283
548,135.59060815365444
720,3962.837783165067
721,3962.837783165067
784,0.0
785,0.0
848,0.0
849,0.0
1121,3745.160806106129
1135,1283.2308318598384
1161,0.06531663820312394
1163,0.0
1166,1987.427532159908
1168,1987.427532159908
2,1, 1, 6, 0, 9, 0.00,60.00,Monday
7,-7.0
545,19.698053259071845
546,-0.9377344823792494
547,17.594687791367033
548,135.59060815365444
720,3910.553842663501
721,3910.553842663501
784,0.0
785,0.0
848,0.0
849,0.0
1121,3635.2265532798474
1135,1271.3838303361586
1161,2.727525350473914
1163,0.0
1166,2040.2897685034368
1168,2040.2897685034368
2,1, 1, 6, 0,10, 0.00,60.00,Monday
7,-7.0
545,19.717522304094
546,0.2819154722144254
547,17.470575963446883
548,135.59060815365444
720,3587.714980767407
721,3587.714980767407
784,0.0
785,0.0
848,0.0
849,0.0
1121,3609.0156286912206
1135,1262.6169661435401
1161,9.448876506172699
1163,0.0
1166,1631.5890570160475
1168,1631.5890570160475
2,1, 1, 6, 0,11, 0.00,60.00,Monday
7,-6.7
545,19.732743382140015
546,4.026025609759993
547,17.357812175937216
548,135.59060815365444
720,3028.664371351506
721,3028.664371351506
784,0.0
785,0.0
848,0.0
849,0.0
1121,3577.650814771051
1135,1244.1576962591012
1161,25.720836187552333
1163,0.0
1166,945.2969750141674
1168,945.2969750141674
2,1, 1, 6, 0,12, 0.00,60.00,Monday
7,-7.0
545,19.7450361029264
546,6.399244721011027
547,17.25162726206605
548,135.59060815365444
720,2853.3567002064774
721,2853.3567002064774
784,0.0
785,0.0
848,0.0
849,0.0
1121,3518.0974658236432
1135,1231.4831158282195
1161,32.88887885909956
1163,0.0
1166,607.304006681537
1168,607.304006681537
2,1, 1, 6, 0,13, 0.00,60.00,Monday
7,-6.0
545,19.747399147823444
546,8.038327585995619
547,17.17095518924289
548,135.59060815365444
720,2625.5212053020387
721,2625.5212053020387
784,0.0
785,0.0
848,0.0
849,0.0
1121,3608.780842998379
1135,1237.239517268268
1161,36.57006291021877
1163,0.0
1166,114.74848058056341
1168,114.74848058056341
2,1, 1, 6, 0,14, 0.00,60.00,Monday
7,-5.6
545,19.76291567511371
546,4.223434538442217
547,17.09538827360166
548,128.85034439393357
720,2497.6383530692674
721,2497.6383530692674
784,0.0
785,0.0
848,0.0
849,0.0
1121,3473.717171604583
1135,1195.6701290483566
1161,29.384809781421794
1163,8.609456076315247
1166,0.0
1168,0.0
2,1, 1, 6, 0,15, 0.00,60.00,Monday
7,-5.6
545,19.77685534806783
546,5.679340805284974
547,17.039309790507467
548,113.39779134590326
720,2066.8866184507588
721,2066.8866184507588
784,0.0
785,0.0
848,0.0
849,0.0
1121,3032.686361180817
1135,1057.763129967817
1161,21.037569011223397
1163,31.785526511475815
1166,0.0
1168,0.0
2,1, 1, 6, 0,16, 0.00,60.00,Monday
7,-5.6
545,19.77592885687066
546,3.3686172467844897
547,16.986507254632098
548,104.87451002569833
720,1903.062957404154
721,1903.062957404154
784,0.0
785,0.0
848,0.0
849,0.0
1121,2766.1517487654696
1135,973.6923645102896
1161,23.960649503909718
1163,44.22025179356761
1166,0.0
1168,0.0
2,1, 1, 6, 0,17, 0.00,60.00,Monday
7,-5.6
545,19.742711860252445
546,1.9407806626631903
547,16.941608675699882
548,102.69900776519898
720,1821.6551369970675
721,1821.6551369970675
784,0.0
785,0.0
848,0.0
849,0.0
1121,2703.565200787765
1135,953.4346705102673
1161,23.463610129320646
1163,47.45174468817943
1166,0.0
1168,0.0
2,1, 1, 6, 0,18, 0.00,60.00,Monday
7,-6.1
545,19.668225400886534
546,0.03662771141158953
547,16.890229422604342
548,112.24080455875044
720,1999.4281772985596
721,1999.4281772985596
784,0.0
785,0.0
848,0.0
849,0.0
1121,2990.9869752683744
1135,1052.1577116708627
1161,11.419707811413994
1163,33.90357287222023
1166,0.0
1168,0.0
2,1, 1, 6, 0,19, 0.00,60.00,Monday
7,-6.1
545,19.644671875067814
546,-1.6266210153069307
547,16.833257316907922
548,118.15545396658179
720,2049.2746765500215
721,2049.2746765500215
784,0.0
785,0.0
848,0.0
849,0.0
1121,3166.79795115553
1135,1105.9068089058442
1161,12.02380499021781
1163,25.15108928380412
1166,0.0
1168,0.0
2,1, 1, 6, 0,20, 0.00,60.00,Monday
7,-6.1
545,19.65614124853493
546,-2.033090760392084
547,16.769018892794875
548,122.86298416055708
720,2069.9773218634073
721,2069.9773218634073
784,0.0
785,0.0
848,0.0
849,0.0
1121,3307.518257386386
1135,1149.3456296614354
1161,12.50284895718285
1163,18.184882174062444
1166,0.0
1168,0.0
2,1, 1, 6, 0,21, 0.00,60.00,Monday
7,-5.6
545,19.634683019017313
546,-2.742486512247464
547,16.69362151596691
548,135.59060815365444
720,2514.541585985942
721,2514.541585985942
784,0.0
785,0.0
848,0.0
849,0.0
1121,3717.68002859065
1135,1260.3487683161002
1161,20.669583024846894
1163,0.0
1166,263.7023962161038
1168,263.7023962161038
2,1, 1, 6, 0,22, 0.00,60.00,Monday
7,-6.0
545,19.675119477399747
546,-2.9177312377848468
547,16.610318383259898
548,135.59060815365444
720,2852.169740326348
721,2852.169740326348
784,0.0
785,0.0
848,0.0
849,0.0
1121,3650.3945653832006
1135,1247.050608520208
1161,26.84784226035926
1163,0.0
1166,790.4845952143241
1168,790.4845952143241
2,1, 1, 6, 0,23, 0.00,60.00,Monday
7,-5.6
545,18.96004330074328
546,-2.9441475376071398
547,16.529354705313658
548,133.9594608892927
720,2141.8503489837312
721,2141.8503489837312
784,0.0
785,0.0
848,0.0
849,0.0
1121,3652.4449311635694
1135,1246.577513513122
1161,24.885660975497046
1163,1.2835378359523641
1166,0.0
1168,0.0
2,1, 1, 6, 0,24, 0.00,60.00,Monday
7,-6.1
545,18.73149757979101
546,-2.479262667426503
547,16.40684046777942
548,135.59060815365444
720,2248.0474488106884
721,2248.0474488106884
784,0.0
785,0.0
848,0.0
849,0.0
1121,3705.831438416775
1135,1247.1510603152944
1161,13.789500227841955
1163,0.0
1166,5.7734852755293105
1168,5.7734852755293105
2,2, 1, 7, 0, 1, 0.00,60.00,Tuesday
7,-6.1
545,18.638365686166857
546,-3.1261002874382435
547,16.302654539378143
548,135.59060815365444
720,2807.321996754845
721,2807.321996754845
784,0.0
785,0.0
848,0.0
849,0.0
1121,3710.754273740407
1135,1241.4729098507225
1161,13.788158523553149
1163,0.0
1166,610.2531835641375
1168,610.2531835641375
2,2, 1, 7, 0, 2, 0.00,60.00,Tuesday
7,-6.1
545,18.604194587276098
546,-2.99728459539515
547,16.19932715673145
548,135.59060815365444
720,3113.2748119432963
721,3113.2748119432963
784,0.0
785,0.0
848,0.0
849,0.0
1121,3712.810625009272
1135,1239.0979423571885
1161,13.788158523553149
1163,0.0
1166,996.1401557492918
1168,996.1401557492918
2,2, 1, 7, 0, 3, 0.00,60.00,Tuesday
7,-5.6
545,18.599970208578753
546,-2.8479129740680365
547,16.100285378069675
548,135.59060815365444
720,3244.425917048329
721,3244.425917048329
784,0.0
785,0.0
848,0.0
849,0.0
1121,3794.221526600151
1135,1251.959804640158
1161,7.340213934508399
1163,0.0
1166,1073.461132180374
1168,1073.461132180374
2,2, 1, 7, 0, 4, 0.00,60.00,Tuesday
7,-5.6
545,18.59895644159635
546,-2.1836489689591008
547,16.00407927259605
548,135.59060815365444
720,3355.4462989223703
721,3355.4462989223703
784,0.0
785,0.0
848,0.0
849,0.0
1121,3794.369341008557
1135,1251.7232496871766
1161,7.351018866505038
1163,0.0
1166,1200.3127719673284
1168,1200.3127719673284
2,2, 1, 7, 0, 5, 0.00,60.00,Tuesday
7,-5.6
545,18.6033649791498
546,-2.1793027036802632
547,15.907574188395333
548,135.59060815365444
720,3358.2785962078215
721,3358.2785962078215
784,0.0
785,0.0
848,0.0
849,0.0
1121,3794.501670904595
1135,1251.5698077528843
1161,7.351018866505038
1163,0.0
1166,1177.2478057299395
1168,1177.2478057299395
2,2, 1, 7, 0, 6, 0.00,60.00,Tuesday
7,-5.0
545,19.365416153344306
546,-2.1746812839798992
547,15.816954950451409
548,135.59060815365444
720,4334.840865649618
721,4334.840865649618
784,0.0
785,0.0
848,0.0
849,0.0
1121,3837.5186042417013
1135,1250.210081567544
1161,13.037720285628513
1163,0.0
1166,2262.014570519744
1168,2262.014570519744
2,2, 1, 7, 0, 7, 0.00,60.00,Tuesday
7,-5.6
545,19.59672618203795
546,-2.4037000261555783
547,15.756107104062766
548,135.59060815365444
720,4561.212919687356
721,4561.212919687356
784,0.0
785,0.0
848,0.0
849,0.0
1121,3742.321525161352
1135,1257.8435557725807
1161,16.345577906761456
1163,0.0
1166,2701.029128525583
1168,2701.029128525583
2,2, 1, 7, 0, 8, 0.00,60.00,Tuesday
7,-5.6
545,19.673447733349274
546,-2.492288461145715
547,15.677940138781267
548,135.59060815365444
720,4269.162515465248
721,4269.162515465248
784,0.0
785,0.0
848,0.0
849,0.0
1121,3737.5332874582346
1135,1263.4002100701762
1161,16.345577906761456
1163,0.0
1166,2411.768822322486
1168,2411.768822322486
2,2, 1, 7, 0, 9, 0.00,60.00,Tuesday
7,-5.6
545,19.692013627467652
546,-2.501640712455632
547,15.597099884997197
548,135.59060815365444
720,4298.9849226870265
721,4298.9849226870265
784,0.0
785,0.0
848,0.0
849,0.0
1121,3801.5752327309424
1135,1287.3157542609442
1161,0.06531663820312394
1163,0.0
1166,2401.8505431968943
1168,2401.8505431968943
2,2, 1, 7, 0,10, 0.00,60.00,Tuesday
7,-4.4
545,19.736702224063833
546,-1.1327787004090055
547,15.542238280740447
548,135.59060815365444
720,2817.629906452019
721,2817.629906452019
784,0.0
785,0.0
848,0.0
849,0.0
1121,3935.6336798289503
1135,1300.8256286558612
1161,0.06531663820312394
1163,0.0
1166,555.5513624060268
1168,555.5513624060268
2,2, 1, 7, 0,11, 0.00,60.00,Tuesday
7,-4.4
545,19.79483407624434
546,-0.232640656233066
547,15.494212739713388
548,128.77044257923816
720,2232.122182504472
721,2232.122182504472
784,0.0
785,0.0
848,0.0
849,0.0
1121,3713.7000822713508
1135,1236.4539914878526
1161,0.06203201475551715
1163,10.057539818237915
1166,0.0
1168,0.0
2,2, 1, 7, 0,12, 0.00,60.00,Tuesday
7,-4.4
545,19.71477869380635
546,0.041294849228826216
547,15.474853707959905
548,135.59060815365444
720,2690.885988610633
721,2690.885988610633
784,0.0
785,0.0
848,0.0
849,0.0
1121,3933.556875933295
1135,1303.2600884850171
1161,0.06531663820312394
1163,0.0
1166,251.89942905946737
1168,251.89942905946737
2,2, 1, 7, 0,13, 0.00,60.00,Tuesday
7,-4.4
545,19.71147745786732
546,-0.8526249331701422
547,15.453363188328927
548,135.59060815365444
720,2986.833919980734
721,2986.833919980734
784,0.0
785,0.0
848,0.0
849,0.0
1121,3935.3603451875856
1135,1301.1460121544662
1161,0.06531663820312394
1163,0.0
1166,582.6273610956205
1168,582.6273610956205
2,2, 1, 7, 0,14, 0.00,60.00,Tuesday
7,-4.4
545,19.719352405337123
546,-0.8581751650555816
547,15.449574861742713
548,135.59060815365444
720,2627.712779800153
721,2627.712779800153
784,0.0
785,0.0
848,0.0
849,0.0
1121,3935.4577687706255
1135,1301.0318183082481
1161,0.06531663820312394
1163,0.0
1166,213.21665779332398
1168,213.21665779332398
2,2, 1, 7, 0,15, 0.00,60.00,Tuesday
7,-5.6
545,19.825927435278583
546,-0.4339406031725364
547,15.44430494140876
548,115.24640083086418
720,1871.5797201596251
721,1871.5797201596251
784,0.0
785,0.0
848,0.0
849,0.0
1121,3171.6469078992027
1135,1095.01991010559
1161,0.055517237680289336
1163,30.005832487459294
1166,0.0
1168,0.0
2,2, 1, 7, 0,16, 0.00,60.00,Tuesday
7,-5.6
545,19.65281165476022
546,-1.4817285118921706
547,15.4546289430385
548,134.1376070254656
720,2359.892175632942
721,2359.892175632942
784,0.0
785,0.0
848,0.0
849,0.0
1121,3752.9155291510674
1135,1276.971916017205
1161,0.06461763159531324
1163,2.1403630898360504
1166,0.0
1168,0.0
2,2, 1, 7, 0,17, 0.00,60.00,Tuesday
7,-5.6
545,19.675482064294993
546,-2.1947190819774636
547,15.444560598621173
548,135.59060815365444
720,2711.4194492971837
721,2711.4194492971837
784,0.0
785,0.0
848,0.0
849,0.0
1121,3802.292167669361
1135,1286.4837015400008
1161,0.06531663820312394
1163,0.0
1166,439.3325353588939
1168,439.3325353588939
2,2, 1, 7, 0,18, 0.00,60.00,Tuesday
7,-7.8
545,19.569727712941308
546,-3.8171027789013263
547,15.379666292322495
548,135.59060815365444
720,6188.775659368628
721,6188.775659368628
784,0.0
785,0.0
848,0.0
849,0.0
1121,3562.4428563773236
1135,1262.7102104184446
1161,0.06531663820312394
1163,0.0
1166,4859.9310870962645
1168,4859.9310870962645
2,2, 1, 7, 0,19, 0.00,60.00,Tuesday
7,-9.4
545,19.58525275686942
546,-5.7588829035620686
547,15.336367630602195
548,135.59060815365444
720,6903.857830304932
721,6903.857830304932
784,0.0
785,0.0
848,0.0
849,0.0
1121,3395.9620359244077
1135,1242.4695595835226
1161,0.06531663820312394
1163,0.0
1166,6029.654756551066
1168,6029.654756551066
2,2, 1, 7, 0,20, 0.00,60.00,Tuesday
7,-9.4
545,19.60790032423645
546,-5.9762213541495175
547,15.278122932250517
548,135.59060815365444
720,7094.163743542258
721,7094.163743542258
784,0.0
785,0.0
848,0.0
849,0.0
1121,3395.69053108473
1135,1242.7712186052695
1161,0.06531663820312394
1163,0.0
1166,6394.7798241205965
1168,6394.7798241205965
2,2, 1, 7, 0,21, 0.00,60.00,Tuesday
7,-11.1
545,19.6339077525593
546,-6.796570143521222
547,15.18797827245441
548,135.59060815365444
720,6946.581901612579
721,6946.581901612579
784,0.0
785,0.0
848,0.0
849,0.0
1121,3221.031283556869
1135,1224.0816165931526
1161,0.06531663820312394
1163,0.0
1166,6441.301900632573
1168,6441.301900632573
2,2, 1, 7, 0,22, 0.00,60.00,Tuesday
7,-11.7
545,19.685322989968192
546,-7.4176338352238345
547,15.117870857134047
548,135.59060815365444
720,5664.58690803338
721,5664.58690803338
784,0.0
785,0.0
848,0.0
849,0.0
1121,3160.2310153286066
1135,1217.7867175744618
1161,0.06531663820312394
1163,0.0
1166,4988.550538123025
1168,4988.550538123025
2,2, 1, 7, 0,23, 0.00,60.00,Tuesday
7,-11.7
545,18.904644879135127
546,-7.70145943339695
547,15.012453056113094
548,135.59060815365444
720,4924.331740908827
721,4924.331740908827
784,0.0
785,0.0
848,0.0
849,0.0
1121,3159.2518937963755
1135,1218.8352981591167
1161,0.06531663820312394
1163,0.0
1166,4125.998990100407
1168,4125.998990100407
2,2, 1, 7, 0,24, 0.00,60.00,Tuesday
7,-12.2
545,18.604370922499914
546,-8.411941766782464
547,14.846956583287788
548,135.59060815365444
720,7017.379138428258
721,7017.379138428258
784,0.0
785,0.0
848,0.0
849,0.0
1121,3125.756416534546
1135,1195.767376815197
1161,0.06531663820312394
1163,0.0
1166,6564.330622096475
1168,6564.330622096475
2,3, 1, 8, 0, 1, 0.00,60.00,Wednesday
7,-12.8
545,18.558899875945954
546,-8.676087808633913
547,14.73043577847687
548,135.59060815365444
720,6764.109832032389
721,6764.109832032389
784,0.0
785,0.0
848,0.0
849,0.0
1121,3072.8876448096703
1135,1182.3667957284606
1161,0.06531663820312394
1163,0.0
1166,6367.801097255525
1168,6367.801097255525
2,3, 1, 8, 0, 2, 0.00,60.00,Wednesday
7,-12.8
545,18.53526020639876
546,-8.762583743492437
547,14.602037192417663
548,135.59060815365444
720,7162.837329553571
721,7162.837329553571
784,0.0
785,0.0
848,0.0
849,0.0
1121,3073.9441822900235
1135,1181.248188091866
1161,0.06531663820312394
1163,0.0
1166,6844.057724731476
1168,6844.057724731476
2,3, 1, 8, 0, 3, 0.00,60.00,Wednesday
7,-12.8
545,18.542627582734045
546,-8.688553153036434
547,14.478624289450876
548,135.59060815365444
720,6976.925299054383
721,6976.925299054383
784,0.0
785,0.0
848,0.0
849,0.0
1121,3074.554484040436
1135,1180.6018327480201
1161,0.06531663820312394
1163,0.0
1166,6635.182503250818
1168,6635.182503250818
2,3, 1, 8, 0, 4, 0.00,60.00,Wednesday
7,-12.8
545,18.58426353169745
546,-8.74334592156132
547,14.364532068280054
548,135.59060815365444
720,5593.274007100768
721,5593.274007100768
784,0.0
785,0.0
848,0.0
849,0.0
1121,3074.4889182656243
1135,1180.6712787985048
1161,0.06531663820312394
1163,0.0
1166,4993.083675469077
1168,4993.083675469077
2,3, 1, 8, 0, 5, 0.00,60.00,Wednesday
7,-12.8
545,18.572645772728492
546,-8.808182211147388
547,14.240374695535158
548,135.59060815365444
720,5594.852975661408
721,5594.852975661408
784,0.0
785,0.0
848,0.0
849,0.0
1121,3073.7805552408995
1135,1181.421456652828
1161,0.06531663820312394
1163,0.0
1166,4962.794238508886
1168,4962.794238508886
2,3, 1, 8, 0, 6, 0.00,60.00,Wednesday
7,-12.2
545,19.34122229879622
546,-8.438196232993194
547,14.124826253730168
548,135.59060815365444
720,6809.59229077338
721,6809.59229077338
784,0.0
785,0.0
848,0.0
849,0.0
1121,3133.2987076845443
1135,1187.706584269903
1161,0.06531663820312394
1163,0.0
1166,6312.516721426991
1168,6312.516721426991
2,3, 1, 8, 0, 7, 0.00,60.00,Wednesday
7,-12.2
545,19.579911153888307
546,-8.582170965735315
547,14.042462216208873
548,135.59060815365444
720,6450.642641990222
721,6450.642641990222
784,0.0
785,0.0
848,0.0
849,0.0
1121,3117.7711352601987
1135,1204.2788429301802
1161,0.06531663820312394
1163,0.0
1166,5985.7002577958465
1168,5985.7002577958465
2,3, 1, 8, 0, 8, 0.00,60.00,Wednesday
7,-12.2
545,19.648023592284893
546,-8.56158118805876
547,13.940822914763181
548,135.59060815365444
720,6138.38815477613
721,6138.38815477613
784,0.0
785,0.0
848,0.0
849,0.0
1121,3112.966442247225
1135,1209.3884688273872
1161,0.06531663820312394
1163,0.0
1166,5654.246939461165
1168,5654.246939461165
2,3, 1, 8, 0, 9, 0.00,60.00,Wednesday
7,-10.6
545,19.682426568429833
546,-7.012783010495024
547,13.857663126696606
548,135.59060815365444
720,5443.253256312559
721,5443.253256312559
784,0.0
785,0.0
848,0.0
849,0.0
1121,3272.3459557818924
1135,1229.1006174094093
1161,0.06531663820312394
1163,0.0
1166,4690.2480276053675
1168,4690.2480276053675
2,3, 1, 8, 0,10, 0.00,60.00,Wednesday
7,-9.4
545,19.725941517399733
546,-5.939811769137507
547,13.775918588907768
548,135.59060815365444
720,4010.5009221410473
721,4010.5009221410473
784,0.0
785,0.0
848,0.0
849,0.0
1121,3395.2809889379914
1135,1243.226215267222
1161,0.06531663820312394
1163,0.0
1166,2817.405290167092
1168,2817.405290167092
2,3, 1, 8, 0,11, 0.00,60.00,Wednesday
7,-9.4
545,19.7327055735099
546,-5.240774780104489
547,13.709821762833906
548,135.59060815365444
720,3356.5788497601625
721,3356.5788497601625
784,0.0
785,0.0
848,0.0
849,0.0
1121,3394.471800701601
1135,1244.125105758198
1161,0.06531663820312394
1163,0.0
1166,1965.2080734383223
1168,1965.2080734383223
2,3, 1, 8, 0,12, 0.00,60.00,Wednesday
7,-7.2
545,19.73279601457097
546,-2.4435054831698593
547,13.683326984895894
548,135.59060815365444
720,2934.0760056354466
721,2934.0760056354466
784,0.0
785,0.0
848,0.0
849,0.0
1121,3627.6401538676505
1135,1268.4698445300924
1161,0.06531663820312394
1163,0.0
1166,1183.9981328524934
1168,1183.9981328524934
2,3, 1, 8, 0,13, 0.00,60.00,Wednesday
7,-6.1
545,19.860073912002633
546,1.5152195499573946
547,13.66387496869864
548,120.62012489377855
720,1774.055357576739
721,1774.055357576739
784,0.0
785,0.0
848,0.0
849,0.0
1121,3288.794566758318
1135,1139.2470609402726
1161,0.058105947668509586
1163,22.079184517091342
1166,0.0
1168,0.0
2,3, 1, 8, 0,14, 0.00,60.00,Wednesday
7,-6.1
545,19.943519127307717
546,2.2306708692386135
547,13.646835821930546
548,86.36286596943714
720,1262.3746958324682
721,1262.3746958324682
784,0.0
785,0.0
848,0.0
849,0.0
1121,2282.6046626718526
1135,817.8227443247107
1161,0.0416033081873328
1163,72.61038126930724
1166,0.0
1168,0.0
2,3, 1, 8, 0,15, 0.00,60.00,Wednesday
7,-5.6
545,19.86976319174365
546,0.02404540354451708
547,13.659167933997011
548,61.48463427703735
720,919.9476210945759
721,919.9476210945759
784,0.0
785,0.0
848,0.0
849,0.0
1121,1613.1964268306392
1135,585.710605944585
1161,0.02961877392653043
1163,109.30710844480103
1166,0.0
1168,0.0
2,3, 1, 8, 0,16, 0.00,60.00,Wednesday
7,-6.7
545,19.628452973975218
546,-0.7473276903445838
547,13.710128427832819
548,66.18129080591837
720,1020.3054715031994
721,1020.3054715031994
784,0.0
785,0.0
848,0.0
849,0.0
1121,1688.6524307673249
1135,623.6695223162316
1161,0.03188133322439196
1163,102.37913615441663
1166,0.0
1168,0.0
2,3, 1, 8, 0,17, 0.00,60.00,Wednesday
7,-6.7
545,19.578390074017115
546,-1.9100150068277486
547,13.783603510930181
548,96.9742661747588
720,1634.6893712194978
721,1634.6893712194978
784,0.0
785,0.0
848,0.0
849,0.0
1121,2545.074172841992
1135,909.5370200398584
1161,0.04671514842218478
1163,56.957890952965485
1166,0.0
1168,0.0
2,3, 1, 8, 0,18, 0.00,60.00,Wednesday
7,-7.2
545,19.417722964237953
546,-3.309244405347137
547,13.846219285608445
548,135.59060815365444
720,2540.490618004338
721,2540.490618004338
784,0.0
785,0.0
848,0.0
849,0.0
1121,3630.8047790884157
1135,1264.855233336568
1161,0.06531663820312394
1163,0.0
1166,340.0199445558287
1168,340.0199445558287
2,3, 1, 8, 0,19, 0.00,60.00,Wednesday
7,-7.2
545,19.566314278387956
546,-3.829135132142116
547,13.85511784152543
548,135.59060815365444
720,2655.087461653058
721,2655.087461653058
784,0.0
785,0.0
848,0.0
849,0.0
1121,3634.1119137633073
1135,1261.0770535682218
1161,0.06531663820312394
1163,0.0
1166,646.7748543161017
1168,646.7748543161017
2,3, 1, 8, 0,20, 0.00,60.00,Wednesday
7,-7.2
545,19.648654153343884
546,-3.9782464489499847
547,13.85923397624754
548,135.59060815365444
720,2877.5930004093734
721,2877.5930004093734
784,0.0
785,0.0
848,0.0
849,0.0
1121,3630.961466028216
1135,1264.6762467328772
1161,0.06531663820312394
1163,0.0
1166,974.0473231955375
1168,974.0473231955375
2,3, 1, 8, 0,21, 0.00,60.00,Wednesday
7,-7.8
545,19.680125736885465
546,-4.392590641586283
547,13.833900719262266
548,135.59060815365444
720,3178.175300925577
721,3178.175300925577
784,0.0
785,0.0
848,0.0
849,0.0
1121,3564.734270509468
1135,1260.1111868699745
1161,0.06531663820312394
1163,0.0
1166,1416.5662715077328
1168,1416.5662715077328
2,3, 1, 8, 0,22, 0.00,60.00,Wednesday
7,-7.2
545,19.685807701687345
546,-3.9553395565733784
547,13.80457144211977
548,135.59060815365444
720,3578.631155522251
721,3578.631155522251
784,0.0
785,0.0
848,0.0
849,0.0
1121,3628.577540076072
1135,1267.3992509595844
1161,0.06531663820312394
1163,0.0
1166,1850.9208882419002
1168,1850.9208882419002
2,3, 1, 8, 0,23, 0.00,60.00,Wednesday
7,-7.2
545,18.943600281309728
546,-4.025102536293408
547,13.757702976861266
548,135.59060815365444
720,2906.1785219830745
721,2906.1785219830745
784,0.0
785,0.0
848,0.0
849,0.0
1121,3628.4939438624924
1135,1267.4947294840335
1161,0.06531663820312394
1163,0.0
1166,1068.0714673078319
1168,1068.0714673078319
2,3, 1, 8, 0,24, 0.00,60.00,Wednesday
7,-6.7
545,18.683969247243425
546,-3.5673294891797562
547,13.668118760303733
548,135.59060815365444
720,3980.497871964002
721,3980.497871964002
784,0.0
785,0.0
848,0.0
849,0.0
1121,3698.5075477758155
1135,1254.8244438191018
1161,0.06531663820312394
1163,0.0
1166,2188.1115249847953
1168,2188.1115249847953
2,4, 1, 9, 0, 1, 0.00,60.00,Thursday
7,-5.6
545,18.594361583938362
546,-2.5662091970508913
547,13.60375967842418
548,135.59060815365444
720,4856.664970231968
721,4856.664970231968
784,0.0
785,0.0
848,0.0
849,0.0
1121,3825.1391144072745
1135,1259.978650644541
1161,0.06531663820312394
1163,0.0
1166,3083.305944485925
1168,3083.305944485925
2,4, 1, 9, 0, 2, 0.00,60.00,Thursday
7,-5.6
545,18.579228759591274
546,-2.366926648178738
547,13.534391243285958
548,135.59060815365444
720,5199.300770385571
721,5199.300770385571
784,0.0
785,0.0
848,0.0
849,0.0
1121,3827.1027852174907
1135,1257.7020257307772
1161,0.06531663820312394
1163,0.0
1166,3452.9476390892596
1168,3452.9476390892596
2,4, 1, 9, 0, 3, 0.00,60.00,Thursday
7,-2.8
545,18.599518971119444
546,-0.18727727237488556
547,13.4933073502835
548,135.59060815365444
720,4522.891080180541
721,4522.891080180541
784,0.0
785,0.0
848,0.0
849,0.0
1121,4145.443412242182
1135,1287.1156083392789
1161,0.06531663820312394
1163,0.0
1166,2346.0040134263245
1168,2346.0040134263245
2,4, 1, 9, 0, 4, 0.00,60.00,Thursday
7,-2.2
545,18.598195384216627
546,0.23188746504776353
547,13.432199669012865
548,135.59060815365444
720,4836.6192206954765
721,4836.6192206954765
784,0.0
785,0.0
848,0.0
849,0.0
1121,4215.051772509466
1135,1294.1080305721764
1161,0.06531663820312394
1163,0.0
1166,2521.842659689298
1168,2521.842659689298
2,4, 1, 9, 0, 5, 0.00,60.00,Thursday
7,-2.2
545,18.595784917864517
546,0.4549567024995777
547,13.377328816207191
548,135.59060815365444
720,4795.797946389883
721,4795.797946389883
784,0.0
785,0.0
848,0.0
849,0.0
1121,4215.157496611429
1135,1293.9832440137488
1161,0.06531663820312394
1163,0.0
1166,2445.0274889271213
1168,2445.0274889271213
2,4, 1, 9, 0, 6, 0.00,60.00,Thursday
7,-2.2
545,19.385690510444608
546,0.6185325321366915
547,13.334677709870977
548,135.59060815365444
720,5055.595957007992
721,5055.595957007992
784,0.0
785,0.0
848,0.0
849,0.0
1121,4215.188361626642
1135,1293.9468145858898
1161,0.06531663820312394
1163,0.0
1166,2702.9695341753995
1168,2702.9695341753995
2,4, 1, 9, 0, 7, 0.00,60.00,Thursday
7,-2.2
545,19.610159541459808
546,0.6250574975860754
547,13.324728993636004
548,135.59060815365444
720,5071.327560339281
721,5071.327560339281
784,0.0
785,0.0
848,0.0
849,0.0
1121,4198.268082541592
1135,1313.9604012956684
1161,0.06531663820312394
1163,0.0
1166,2795.405718552627
1168,2795.405718552627
2,4, 1, 9, 0, 8, 0.00,60.00,Thursday
7,-2.2
545,19.680512288257102
546,0.6475438905485281
547,13.292952467792155
548,135.59060815365444
720,4730.297889171563
721,4730.297889171563
784,0.0
785,0.0
848,0.0
849,0.0
1121,4193.414671202814
1135,1319.7158698095436
1161,0.06531663820312394
1163,0.0
1166,2427.18796016111
1168,2427.18796016111
2,4, 1, 9, 0, 9, 0.00,60.00,Thursday
7,-3.9
545,19.67642711832343
546,-0.9273073732405024
547,13.249640052396225
548,135.59060815365444
720,5397.778637337366
721,5397.778637337366
784,0.0
785,0.0
848,0.0
849,0.0
1121,3764.3945866980557
1135,1227.203717974551
1161,54.71414253625418
1163,0.0
1166,3626.1314157093248
1168,3626.1314157093248
2,4, 1, 9, 0,10, 0.00,60.00,Thursday
7,-4.0
545,19.69578237743204
546,-0.9823539788222084
547,13.222243355182194
548,135.59060815365444
720,4654.612275227231
721,4654.612275227231
784,0.0
785,0.0
848,0.0
849,0.0
1121,3748.2783347454524
1135,1224.2683562097338
1161,56.01329297053323
1163,0.0
1166,2860.60913452044
1168,2860.60913452044
2,4, 1, 9, 0,11, 0.00,60.00,Thursday
7,-3.3
545,19.69802708301186
546,-0.5839768091048947
547,13.195277232895556
548,135.59060815365444
720,4624.6290243603125
721,4624.6290243603125
784,0.0
785,0.0
848,0.0
849,0.0
1121,3894.4784465471807
1135,1254.8505871288312
1161,39.47174728770494
1163,0.0
1166,2684.370230140634
1168,2684.370230140634
2,4, 1, 9, 0,12, 0.00,60.00,Thursday
7,-1.7