Program Version,EnergyPlus, Version 22.2.0-c249759bad, YMD=2023.09.01 20:54
1,5,Environment Title[],Latitude[deg],Longitude[deg],Time Zone[],Elevation[m]
2,8,Day of Simulation[],Month[],Day of Month[],DST Indicator[1=yes 0=no],Hour[],StartMinute[],EndMinute[],DayType
3,5,Cumulative Day of Simulation[],Month[],Day of Month[],DST Indicator[1=yes 0=no],DayType  ! When Daily Report Variables Requested
4,2,Cumulative Days of Simulation[],Month[]  ! When Monthly Report Variables Requested
5,1,Cumulative Days of Simulation[] ! When Run Period Report Variables Requested
6,1,Calendar Year of Simulation[] ! When Annual Report Variables Requested
581,11,LIVING,AFN Zone Infiltration Air Change Rate [ach] !RunPeriod [Value,Min,Month,Day,Hour,Minute,Max,Month,Day,Hour,Minute]
582,11,ATTIC,AFN Zone Infiltration Air Change Rate [ach] !RunPeriod [Value,Min,Month,Day,Hour,Minute,Max,Month,Day,Hour,Minute]
583,11,CRAWLSPACE,AFN Zone Infiltration Air Change Rate [ach] !RunPeriod [Value,Min,Month,Day,Hour,Minute,Max,Month,Day,Hour,Minute]
1038,11,Facility,Facility Heating Setpoint Not Met Time [hr] !RunPeriod [Value,Min,Month,Day,Hour,Minute,Max,Month,Day,Hour,Minute]
1039,11,Facility,Facility Cooling Setpoint Not Met Time [hr] !RunPeriod [Value,Min,Month,Day,Hour,Minute,Max,Month,Day,Hour,Minute]
1115,11,DX_HEATING_COIL,Heating Coil Heating Energy [J] !RunPeriod [Value,Min,Month,Day,Hour,Minute,Max,Month,Day,Hour,Minute]
1128,11,DX_HEATING_COIL,Heating Coil Electricity Energy [J] !RunPeriod [Value,Min,Month,Day,Hour,Minute,Max,Month,Day,Hour,Minute]
1153,11,DX_HEATING_COIL,Heating Coil Defrost Electricity Energy [J] !RunPeriod [Value,Min,Month,Day,Hour,Minute,Max,Month,Day,Hour,Minute]
1154,11,DX_HEATING_COIL,Heating Coil Crankcase Heater Electricity Energy [J] !RunPeriod [Value,Min,Month,Day,Hour,Minute,Max,Month,Day,Hour,Minute]
1155,11,HEATING_RESISTANCE_BACKUP,Heating Coil Heating Energy [J] !RunPeriod [Value,Min,Month,Day,Hour,Minute,Max,Month,Day,Hour,Minute]
1156,11,HEATING_RESISTANCE_BACKUP,Heating Coil Electricity Energy [J] !RunPeriod [Value,Min,Month,Day,Hour,Minute,Max,Month,Day,Hour,Minute]
1292,11,WATER HEATER,Water Heater Heat Loss Energy [J] !RunPeriod [Value,Min,Month,Day,Hour,Minute,Max,Month,Day,Hour,Minute]
1306,11,WATER HEATER,Water Heater Heating Energy [J] !RunPeriod [Value,Min,Month,Day,Hour,Minute,Max,Month,Day,Hour,Minute]
1307,11,WATER HEATER,Water Heater Unmet Demand Heat Transfer Energy [J] !RunPeriod [Value,Min,Month,Day,Hour,Minute,Max,Month,Day,Hour,Minute]
1308,11,WATER HEATER,Water Heater Electricity Energy [J] !RunPeriod [Value,Min,Month,Day,Hour,Minute,Max,Month,Day,Hour,Minute]
13,11,Electricity:Facility [J] !RunPeriod [Value,Min,Month,Day,Hour,Minute,Max,Month,Day,Hour,Minute]
1134,11,Heating:Electricity [J] !RunPeriod [Value,Min,Month,Day,Hour,Minute,Max,Month,Day,Hour,Minute]
1096,11,Cooling:Electricity [J] !RunPeriod [Value,Min,Month,Day,Hour,Minute,Max,Month,Day,Hour,Minute]
562,11,Fans:Electricity [J] !RunPeriod [Value,Min,Month,Day,Hour,Minute,Max,Month,Day,Hour,Minute]
1379,11,Pumps:Electricity [J] !RunPeriod [Value,Min,Month,Day,Hour,Minute,Max,Month,Day,Hour,Minute]
1326,11,WaterSystems:Electricity [J] !RunPeriod [Value,Min,Month,Day,Hour,Minute,Max,Month,Day,Hour,Minute]
61,11,InteriorLights:Electricity [J] !RunPeriod [Value,Min,Month,Day,Hour,Minute,Max,Month,Day,Hour,Minute]
1046,11,ExteriorLights:Electricity [J] !RunPeriod [Value,Min,Month,Day,Hour,Minute,Max,Month,Day,Hour,Minute]
134,11,InteriorEquipment:Electricity [J] !RunPeriod [Value,Min,Month,Day,Hour,Minute,Max,Month,Day,Hour,Minute]
170,11,gas_dryer:InteriorEquipment:Electricity [J] !RunPeriod [Value,Min,Month,Day,Hour,Minute,Max,Month,Day,Hour,Minute]
207,11,clotheswasher:InteriorEquipment:Electricity [J] !RunPeriod [Value,Min,Month,Day,Hour,Minute,Max,Month,Day,Hour,Minute]
244,11,dishwasher:InteriorEquipment:Electricity [J] !RunPeriod [Value,Min,Month,Day,Hour,Minute,Max,Month,Day,Hour,Minute]
281,11,refrigerator:InteriorEquipment:Electricity [J] !RunPeriod [Value,Min,Month,Day,Hour,Minute,Max,Month,Day,Hour,Minute]
318,11,electric_mels:InteriorEquipment:Electricity [J] !RunPeriod [Value,Min,Month,Day,Hour,Minute,Max,Month,Day,Hour,Minute]
355,11,NaturalGas:Facility [J] !RunPeriod [Value,Min,Month,Day,Hour,Minute,Max,Month,Day,Hour,Minute]
403,11,InteriorEquipment:NaturalGas [J] !RunPeriod [Value,Min,Month,Day,Hour,Minute,Max,Month,Day,Hour,Minute]
476,11,gas_dryer:InteriorEquipment:NaturalGas [J] !RunPeriod [Value,Min,Month,Day,Hour,Minute,Max,Month,Day,Hour,Minute]
513,11,gas_mels:InteriorEquipment:NaturalGas [J] !RunPeriod [Value,Min,Month,Day,Hour,Minute,Max,Month,Day,Hour,Minute]
End of Data Dictionary
1,EXTREME_WINTER,  30.32, -97.76,  -6.00, 204.20
5,7
1038,0.25,0.0, 1,29, 1,15,0.25, 2, 2, 6,15
1039,0.0,0.0, 1,29, 1,15,0.0, 1,29, 1,15
581,0.3154171645163319,0.08559132231527032, 1,31, 9,33,0.6417344423616497, 2, 1,23,60
582,3.2424608086352142,0.0, 1,30,20, 3,9.028052056131648, 2, 1,15,50
583,0.03267726658808431,0.0002934995144538246, 1,31, 2,60,0.08464421139785801, 2, 1,24,30
1115,861712644.1257161,0.0, 1,29, 1,15,4144133.9319249303, 2, 3,10,45
1128,293945094.49901706,0.0, 1,29, 1,15,1394154.0244895893, 2, 3,10,45
1153,3411887.033719477,0.0, 1,29, 1,15,62773.92967641133, 2, 4, 1,60
1154,40566192.13032148,0.0, 1,29, 1,15,180000.0, 1,30, 7,30
1155,110050375.53186062,0.0, 1,29, 1,15,2154304.655824549, 2, 2, 6,45
1156,110050375.53186062,0.0, 1,29, 1,15,2154304.655824549, 2, 2, 6,45
1292,-23920451.65911116,-39713.06319042203, 2, 3, 5,60,-2624.66201762326, 1,31,10,31
1306,295083370.78524345,0.0, 1,29, 1,15,4050000.0, 1,29, 8,30
1307,110008715.63232446,0.0, 1,29, 1,15,10782514.912175, 2, 1, 9,45
1308,295083370.78524345,0.0, 1,29, 1,15,4050000.0, 1,29, 8,30
13,1212597986.562975,151703.1275401932, 1,29, 4,15,7059188.817554042, 2, 2,10,15
61,301924526.02383536,88139.10953165221, 1,29, 1,15,1282023.4113694867, 1,29,20,15
134,70666020.44019976,63564.01800854099, 1,29, 4,15,156554.22484006523, 2, 3,20,15
170,5241013.419656067,348.4159749238097, 1,29, 4,15,17476.39704006126, 2, 3,12,15
207,6509451.13922267,815.2532113832032, 1,29, 3,15,22990.642799023623, 2, 3,10,15
244,12749673.399825225,1521.856143006317, 1,29, 4,15,53038.631142310165, 2, 3,20,15
281,46165882.481495745,59938.60262432081, 1,29, 5,15,81951.81706819107, 1,29,19,15
318,0.0,0.0, 1,29, 1,15,0.0, 1,29, 1,15
355,197687796.27748066,18561.32405820678, 1,29, 4,15,724774.895203776, 2, 3,18,15
403,197687796.27748066,18561.32405820678, 1,29, 4,15,724774.895203776, 2, 3,18,15
476,106772067.24485716,7098.072629279515, 1,29, 4,15,356036.3026282215, 2, 3,12,15
513,0.0,0.0, 1,29, 1,15,0.0, 1,29, 1,15
562,39095750.69870136,0.0, 1,29, 1,15,146421.9401904996, 2, 1,24,45
1046,0.0,0.0, 1,29, 1,15,0.0, 1,29, 1,15
1096,57854769.4200757,0.0, 1,29, 1,15,1035099.5042873241, 1,29,16,30
1134,447973549.1949187,0.0, 1,29, 1,15,4120593.283732087, 2, 2, 6,15
1326,295083370.78524333,0.0, 1,29, 1,15,4050000.0, 1,29, 8,30
1379,0.0,0.0, 1,29, 1,15,0.0, 1,29, 1,15
1,EXTREME_SUMMER,  30.32, -97.76,  -6.00, 204.20
5,7
1038,0.0,0.0, 8,12, 1,15,0.0, 8,12, 1,15
1039,74.25,0.0, 8,12, 1,15,0.25, 8,12,12,15
581,0.0967562204409221,0.0, 8,14,20,32,0.2641928951066183, 8,16,22,60
582,2.365085905758436,0.0, 8,14,20,17,5.660253846128384, 8,16,14,50
583,0.053628862405673425,0.000780632287287321, 8,18,23, 3,0.0772697550461845, 8,16,22,22
1115,0.0,0.0, 8,12, 1, 7,0.0, 8,12, 1, 7
1128,0.0,0.0, 8,12, 1, 7,0.0, 8,12, 1, 7
1153,0.0,0.0, 8,12, 1, 7,0.0, 8,12, 1, 7
1154,0.0,0.0, 8,12, 1, 7,0.0, 8,12, 1, 7
1155,0.0,0.0, 8,12, 1, 7,0.0, 8,12, 1, 7
1156,0.0,0.0, 8,12, 1, 7,0.0, 8,12, 1, 7
1292,-21440382.538032625,-34321.956415774584, 8,18, 6,30,-2947.43426368137, 8,15, 9,44
1306,205737568.15455008,0.0, 8,12, 1, 7,3630045.009701064, 8,12,16,45
1307,47256365.234918214,0.0, 8,12, 1, 7,1664159.1899512166, 8,12,16,45
1308,205737568.15455008,0.0, 8,12, 1, 7,3630045.009701064, 8,12,16,45
13,1382598010.0005114,377986.32911127585, 8,12, 4,60,7132437.612480884, 8,18,21,15
61,301924526.02383536,88139.10953165221, 8,12, 1,15,1282023.4113694867, 8,12,20,15
134,70666020.44019976,63564.01800854099, 8,12, 4,15,156554.22484006523, 8,17,20,15
170,5241013.419656067,348.4159749238097, 8,12, 4,15,17476.39704006126, 8,17,12,15
207,6509451.13922267,815.2532113832032, 8,12, 3,15,22990.642799023623, 8,17,10,15
244,12749673.399825225,1521.856143006317, 8,12, 4,15,53038.631142310165, 8,17,20,15
281,46165882.481495745,59938.60262432081, 8,12, 5,15,81951.81706819107, 8,12,19,15
318,0.0,0.0, 8,12, 1,15,0.0, 8,12, 1,15
355,197687796.27748066,18561.32405820678, 8,12, 4,15,724774.895203776, 8,17,18,15
403,197687796.27748066,18561.32405820678, 8,12, 4,15,724774.895203776, 8,17,18,15
476,106772067.24485716,7098.072629279515, 8,12, 4,15,356036.3026282215, 8,17,12,15
513,0.0,0.0, 8,12, 1,15,0.0, 8,12, 1,15
562,70683095.07058325,20924.239673979915, 8,12, 5,60,146421.94019049962, 8,12,11,45
1046,0.0,0.0, 8,12, 1,15,0.0, 8,12, 1,15
1096,733586800.3113436,178339.12173754777, 8,12, 5,60,1712570.4838490605, 8,12,16,60
1134,0.0,0.0, 8,12, 1,15,0.0, 8,12, 1,15
1326,205737568.15455008,0.0, 8,12, 1,15,4050000.0, 8,12, 9,60
1379,0.0,0.0, 8,12, 1,15,0.0, 8,12, 1,15
1,ANNUAL,  30.32, -97.76,  -6.00, 204.20
5,365
1038,0.0,0.0, 1, 1, 1,15,0.0, 1, 1, 1,15
1039,1326.0,0.0, 1, 1, 1,15,0.25, 2, 8,13,15
581,0.14849771121234984,0.0, 1, 1, 1,50,0.7015008375898115, 2, 9, 6,49
582,2.1838071126510545,0.0, 1, 2, 7,52,12.386888049575258,12,22,11,60
583,0.03499305620342624,0.0, 2,26,10,21,0.08481645832561664, 2, 2, 4,60
1115,2466099343.9700375,0.0, 1, 1, 1,15,4142884.600083239, 2, 3,12,30
1128,799476076.1301234,0.0, 1, 1, 1,15,1397231.6347458845, 2, 3,10,45
1153,24653940.262524202,0.0, 1, 1, 1,15,76396.9942958052, 3,13, 6,45
1154,701771849.1379454,0.0, 1, 1, 1,37,180000.0, 1, 1, 1,15
1155,118641012.0907897,0.0, 1, 1, 1,15,1990898.8782824322, 2, 2, 6,45
1156,118641012.0907897,0.0, 1, 1, 1,15,1990898.8782824322, 2, 2, 6,45
1292,-1156160668.1106462,-39778.2645022391, 2,12, 4,30,-1717.9621400996657,11,10,10, 1
1306,12991849574.774479,0.0, 1, 1, 1,15,4050000.0, 1, 1,21,15
1307,4015908858.135328,0.0, 1, 1, 1,15,12766429.564856796,12,15, 9,60
1308,12991849574.774479,0.0, 1, 1, 1,15,4050000.0, 1, 1,21,15
13,56666791734.03871,151703.1275401932, 1, 9, 4,15,7192473.775147596, 7,13,21,15
61,15743207428.383959,88139.10953165221, 1, 1, 1,15,1282023.4113694867, 1, 1,20,15
134,3685071073.4325233,63564.01800854099, 1, 2, 4,15,156554.22484006523, 1, 1,20,15
170,273393721.45532674,348.4159749238097, 1, 2, 4,15,17476.39704006126, 1, 1,12,15
207,339560869.0695816,815.2532113832032, 1, 2, 3,15,22990.642799023623, 1, 1,10,15
244,664895467.8009144,1521.856143006317, 1, 2, 4,15,53038.631142310165, 1, 1,20,15
281,2407221015.106824,59938.60262432081, 1, 1, 5,15,81951.81706819107, 1, 1,19,15
318,0.0,0.0, 1, 1, 1,15,0.0, 1, 1, 1,15
355,10310294493.051695,18561.32405820678, 1, 2, 4,15,724774.895203776, 1, 1,18,15
403,10310294493.051695,18561.32405820678, 1, 2, 4,15,724774.895203776, 1, 1,18,15
476,5569688622.066177,7098.072629279515, 1, 2, 4,15,356036.3026282215, 1, 1,12,15
513,0.0,0.0, 1, 1, 1,15,0.0, 1, 1, 1,15
562,2286557123.696897,0.0, 1, 1, 1,15,146421.94019049962, 4,27,18,45
1046,0.0,0.0, 1, 1, 1,15,0.0, 1, 1, 1,15
1096,20315563656.128136,0.0, 1, 1, 1,15,1754112.9882249054, 7,13,15,60
1134,1644542877.6213799,0.0, 1, 1, 1,45,3959694.755977787, 2, 2, 6,15
1326,12991849574.774466,0.0, 1, 1, 1,15,4050000.0000000014, 1,20,10,45
1379,0.0,0.0, 1, 1, 1,15,0.0, 1, 1, 1,15
End of Data
 Number of Records Written=          99
