Program Version,EnergyPlus, Version 22.2.0-c249759bad, YMD=2023.09.01 14:31
1,5,Environment Title[],Latitude[deg],Longitude[deg],Time Zone[],Elevation[m]
2,8,Day of Simulation[],Month[],Day of Month[],DST Indicator[1=yes 0=no],Hour[],StartMinute[],EndMinute[],DayType
3,5,Cumulative Day of Simulation[],Month[],Day of Month[],DST Indicator[1=yes 0=no],DayType  ! When Daily Report Variables Requested
4,2,Cumulative Days of Simulation[],Month[]  ! When Monthly Report Variables Requested
5,1,Cumulative Days of Simulation[] ! When Run Period Report Variables Requested
6,1,Calendar Year of Simulation[] ! When Annual Report Variables Requested
7,1,Environment,Site Outdoor Air Drybulb Temperature [C] !Hourly
545,1,LIVING,Zone Mean Air Temperature [C] !Hourly
546,1,ATTIC,Zone Mean Air Temperature [C] !Hourly
547,1,CRAWLSPACE,Zone Mean Air Temperature [C] !Hourly
548,1,FAN,Fan Electricity Rate [W] !Hourly
720,1,LIVING,Zone Predicted Sensible Load to Heating Setpoint Heat Transfer Rate [W] !Hourly
721,1,LIVING,Zone System Predicted Sensible Load to Heating Setpoint Heat Transfer Rate [W] !Hourly
784,1,ATTIC,Zone Predicted Sensible Load to Heating Setpoint Heat Transfer Rate [W] !Hourly
785,1,ATTIC,Zone System Predicted Sensible Load to Heating Setpoint Heat Transfer Rate [W] !Hourly
848,1,CRAWLSPACE,Zone Predicted Sensible Load to Heating Setpoint Heat Transfer Rate [W] !Hourly
849,1,CRAWLSPACE,Zone System Predicted Sensible Load to Heating Setpoint Heat Transfer Rate [W] !Hourly
1121,1,DX_HEATING_COIL,Heating Coil Heating Rate [W] !Hourly
1135,1,DX_HEATING_COIL,Heating Coil Electricity Rate [W] !Hourly
1161,1,DX_HEATING_COIL,Heating Coil Defrost Electricity Rate [W] !Hourly
1163,1,DX_HEATING_COIL,Heating Coil Crankcase Heater Electricity Rate [W] !Hourly
1166,1,HEATING_RESISTANCE_BACKUP,Heating Coil Heating Rate [W] !Hourly
1168,1,HEATING_RESISTANCE_BACKUP,Heating Coil Electricity Rate [W] !Hourly
End of Data Dictionary
1,EXTREME_WINTER,  44.74, -85.58,  -5.00, 188.40
2,1,12,15, 0, 1, 0.00,60.00,Monday
7,-8.9
545,18.63562414067233
546,-5.790799736360876
547,17.400683857786962
548,130.06477264288222
720,3487.7686921106524
721,3487.7686921106524
784,0.0
785,0.0
848,0.0
849,0.0
1121,3303.8865462791114
1135,1172.3328043715226
1161,5.434273839761014
1163,0.0
1166,2240.7336441313673
1168,2240.7336441313673
2,1,12,15, 0, 2, 0.00,60.00,Monday
7,-7.8
545,18.61795333592128
546,-5.048055854824141
547,16.8964832059881
548,130.06477264288222
720,3760.9520002783156
721,3760.9520002783156
784,0.0
785,0.0
848,0.0
849,0.0
1121,3396.2166283173774
1135,1176.5716495294423
1161,10.486216311969983
1163,0.0
1166,2261.036993286965
1168,2261.036993286965
2,1,12,15, 0, 3, 0.00,60.00,Monday
7,-7.8
545,18.600153244784977
546,-4.26353650865452
547,16.661469719198113
548,130.06477264288222
720,3912.9571077374712
721,3912.9571077374712
784,0.0
785,0.0
848,0.0
849,0.0
1121,3383.2033458707815
1135,1170.7286740252227
1161,14.155153140496594
1163,0.0
1166,2401.619208738929
1168,2401.619208738929
2,1,12,15, 0, 4, 0.00,60.00,Monday
7,-7.0
545,18.59391414045107
546,-3.690379760740218
547,16.40428867675129
548,130.06477264288222
720,4028.526563556019
721,4028.526563556019
784,0.0
785,0.0
848,0.0
849,0.0
1121,3458.8802949275164
1135,1175.8696577825885
1161,15.786811960333797
1163,0.0
1166,2423.204517300414
1168,2423.204517300414
2,1,12,15, 0, 5, 0.00,60.00,Monday
7,-6.7
545,18.580993383634045
546,-3.621719772611544
547,16.18358644178104
548,130.06477264288222
720,4481.9835156530025
721,4481.9835156530025
784,0.0
785,0.0
848,0.0
849,0.0
1121,3487.5219560154583
1135,1177.5157979207454
1161,16.43302433348241
1163,0.0
1166,2901.286209555984
1168,2901.286209555984
2,1,12,15, 0, 6, 0.00,60.00,Monday
7,-7.2
545,19.36231384790785
546,-4.111352443754832
547,15.97453667548387
548,130.06477264288222
720,5605.027760214614
721,5605.027760214614
784,0.0
785,0.0
848,0.0
849,0.0
1121,3441.0277322695224
1135,1173.356143118026
1161,15.366583733258379
1163,0.0
1166,4264.151147560557
1168,4264.151147560557
2,1,12,15, 0, 7, 0.00,60.00,Monday
7,-8.0
545,19.574339286809465
546,-5.046703809914563
547,15.807719837230117
548,130.06477264288222
720,6098.266131876791
721,6098.266131876791
784,0.0
785,0.0
848,0.0
849,0.0
1121,3350.8839984341816
1135,1184.6418082522323
1161,13.767440205277529
1163,0.0
1166,5052.767969704162
1168,5052.767969704162
2,1,12,15, 0, 8, 0.00,60.00,Monday
7,-8.9
545,19.660610485305835
546,-5.291238807003985
547,15.63950084232511
548,130.06477264288222
720,5255.21054651827
721,5255.21054651827
784,0.0
785,0.0
848,0.0
849,0.0
1121,3262.940708952175
1135,1182.0348433908055
1161,12.117608697050953
1163,0.0
1166,4241.411117825617
1168,4241.411117825617
2,1,12,15, 0, 9, 0.00,60.00,Monday
7,-8.3
545,19.676011969258845
546,-4.812416048471111
547,15.482596820781508
548,130.06477264288222
720,5218.9145286893345
721,5218.9145286893345
784,0.0
785,0.0
848,0.0
849,0.0
1121,3343.3547379207603
1135,1197.9208599969866
1161,6.185501736474708
1163,0.0
1166,4130.163677447581
1168,4130.163677447581
2,1,12,15, 0,10, 0.00,60.00,Monday
7,-8.9
545,19.68802510942678
546,-5.2394881765819665
547,15.318645641010134
548,130.06477264288222
720,4987.047302098208
721,4987.047302098208
784,0.0
785,0.0
848,0.0
849,0.0
1121,3249.27486630804
1135,1179.5001229492825
1161,15.414580366011702
1163,0.0
1166,3935.2228559673017
1168,3935.2228559673017
2,1,12,15, 0,11, 0.00,60.00,Monday
7,-8.3
545,19.69314857568122
546,-4.581972119073057
547,15.17251448529642
548,130.06477264288222
720,4666.917782990429
721,4666.917782990429
784,0.0
785,0.0
848,0.0
849,0.0
1121,3317.1236050012735
1135,1188.7712966371528
1161,13.200493961378482
1163,0.0
1166,3508.519481480699
1168,3508.519481480699
2,1,12,15, 0,12, 0.00,60.00,Monday
7,-10.0
545,19.676450324610116
546,-5.88285104564842
547,15.008550394925564
548,130.06477264288222
720,5192.498852561679
721,5192.498852561679
784,0.0
785,0.0
848,0.0
849,0.0
1121,3097.0091048551585
1135,1151.297787078565
1161,28.033318077799617
1163,0.0
1166,4310.427473702989
1168,4310.427473702989
2,1,12,15, 0,13, 0.00,60.00,Monday
7,-9.4
545,19.70600507415823
546,-3.730809431022285
547,14.883899235245918
548,130.06477264288222
720,3983.396701489559
721,3983.396701489559
784,0.0
785,0.0
848,0.0
849,0.0
1121,3204.0906159544306
1135,1174.9679574764818
1161,14.42638662105825
1163,0.0
1166,2860.8190328550963
1168,2860.8190328550963
2,1,12,15, 0,14, 0.00,60.00,Monday
7,-10.0
545,19.701513890884115
546,-4.6600774319038605
547,14.743812151418402
548,130.06477264288222
720,4302.6986826275515
721,4302.6986826275515
784,0.0
785,0.0
848,0.0
849,0.0
1121,3138.490087387151
1135,1166.6387062712147
1161,16.28855433481847
1163,0.0
1166,3182.9009767630105
1168,3182.9009767630105
2,1,12,15, 0,15, 0.00,60.00,Monday
7,-10.0
545,19.695663368693793
546,-3.7372773809698923
547,14.623920374185904
548,130.06477264288222
720,4124.867591518341
721,4124.867591518341
784,0.0
785,0.0
848,0.0
849,0.0
1121,3124.8017250673006
1135,1161.196213744019
1161,20.237404049943212
1163,0.0
1166,3022.8988525476293
1168,3022.8988525476293
2,1,12,15, 0,16, 0.00,60.00,Monday
7,-10.6
545,19.70149955345599
546,-3.147620520397454
547,14.503940661953774
548,130.06477264288222
720,3993.9510976962865
721,3993.9510976962865
784,0.0
785,0.0
848,0.0
849,0.0
1121,3030.742951392795
1135,1140.7679602104104
1161,30.828994522338395
1163,0.0
1166,2923.953854489727
1168,2923.953854489727
2,1,12,15, 0,17, 0.00,60.00,Monday
7,-11.0
545,19.696060208742555
546,-5.299524297375648
547,14.385909863329555
548,130.06477264288222
720,4133.537834662826
721,4133.537834662826
784,0.0
785,0.0
848,0.0
849,0.0
1121,3006.6232833552303
1135,1141.596147223861
1161,26.896691555195716
1163,0.0
1166,3077.864572638349
1168,3077.864572638349
2,1,12,15, 0,18, 0.00,60.00,Monday
7,-10.6
545,19.693359668441193
546,-4.989870748114922
547,14.28170876603579
548,130.06477264288222
720,3782.563533214896
721,3782.563533214896
784,0.0
785,0.0
848,0.0
849,0.0
1121,3046.8617829295667
1135,1146.4241158102684
1161,26.25506490281287
1163,0.0
1166,2728.3910045417365
1168,2728.3910045417365
2,1,12,15, 0,19, 0.00,60.00,Monday
7,-10.6
545,19.670587518105265
546,-7.546425190574951
547,14.155531921886643
548,130.06477264288222
720,4721.17887179547
721,4721.17887179547
784,0.0
785,0.0
848,0.0
849,0.0
1121,3108.8484146817054
1135,1169.3203954281307
1161,8.440192790810718
1163,0.0
1166,3759.337352474625
1168,3759.337352474625
2,1,12,15, 0,20, 0.00,60.00,Monday
7,-11.1
545,19.66784106406401
546,-8.023431998184872
547,14.043338263121303
548,130.06477264288222
720,4581.651955562616
721,4581.651955562616
784,0.0
785,0.0
848,0.0
849,0.0
1121,3005.3034889960522
1135,1142.0157217707756
1161,24.844475844659307
1163,0.0
1166,3842.7381891761293
1168,3842.7381891761293
2,1,12,15, 0,21, 0.00,60.00,Monday
7,-11.7
545,19.665291548043175
546,-8.231976070885029
547,13.924344305868834
548,130.06477264288222
720,4859.161043510507
721,4859.161043510507
784,0.0
785,0.0
848,0.0
849,0.0
1121,2965.915734170573
1135,1141.8257564597245
1161,19.867360213374216
1163,0.0
1166,4254.018915549637
1168,4254.018915549637
2,1,12,15, 0,22, 0.00,60.00,Monday
7,-12.8
545,19.659464200768802
546,-9.030581061624623
547,13.795539978559134
548,130.06477264288222
720,5244.027387595008
721,5244.027387595008
784,0.0
785,0.0
848,0.0
849,0.0
1121,2861.993488534574
1135,1128.7854594843643
1161,20.504682288407704
1163,0.0
1166,4833.578791554572
1168,4833.578791554572
2,1,12,15, 0,23, 0.00,60.00,Monday
7,-13.3
545,18.84389582368067
546,-9.254086237383033
547,13.666804148300086
548,130.06477264288222
720,5340.059949475522
721,5340.059949475522
784,0.0
785,0.0
848,0.0
849,0.0
1121,2810.9693391395567
1135,1120.7127427874802
1161,22.271506846179026
1163,0.0
1166,5057.922781444892
1168,5057.922781444892
2,1,12,15, 0,24, 0.00,60.00,Monday
7,-13.3
545,18.66584319931713
546,-9.307954333924208
547,13.509382517290435
548,130.06477264288222
720,4567.032696623712
721,4567.032696623712
784,0.0
785,0.0
848,0.0
849,0.0
1121,2847.645401958938
1135,1112.6708663575837
1161,15.68028421741638
1163,0.0
1166,4075.199934973697
1168,4075.199934973697
2,2,12,16, 0, 1, 0.00,60.00,Tuesday
7,-12.8
545,18.58757948607925
546,-9.023649841780198
547,13.377501252810578
548,130.06477264288222
720,4996.978589788327
721,4996.978589788327
784,0.0
785,0.0
848,0.0
849,0.0
1121,2929.484752613567
1135,1126.6840863715106
1161,5.755203136843223
1163,0.0
1166,4462.212361782954
1168,4462.212361782954
2,2,12,16, 0, 2, 0.00,60.00,Tuesday
7,-12.8
545,18.555213547707716
546,-8.809567064494788
547,13.238624762154108
548,130.06477264288222
720,5587.944164406614
721,5587.944164406614
784,0.0
785,0.0
848,0.0
849,0.0
1121,2931.1424727981735
1135,1124.9285177135357
1161,5.755203136843223
1163,0.0
1166,5140.32706775829
1168,5140.32706775829
2,2,12,16, 0, 3, 0.00,60.00,Tuesday
7,-12.2
545,18.548619684999306
546,-8.869381735544824
547,13.104730162382916
548,130.06477264288222
720,5864.461792446931
721,5864.461792446931
784,0.0
785,0.0
848,0.0
849,0.0
1121,2966.9086745219024
1135,1122.3231330582348
1161,12.207689727850658
1163,0.0
1166,5436.011996282456
1168,5436.011996282456
2,2,12,16, 0, 4, 0.00,60.00,Tuesday
7,-12.2
545,18.553161310353932
546,-8.283592383141185
547,12.978652108015272
548,130.06477264288222
720,5829.119671228247
721,5829.119671228247
784,0.0
785,0.0
848,0.0
849,0.0
1121,2978.106769247984
1135,1126.1916555173113
1161,8.91044045035223
1163,0.0
1166,5393.2317522273315
1168,5393.2317522273315
2,2,12,16, 0, 5, 0.00,60.00,Tuesday
7,-11.7
545,18.57166072739323
546,-8.131358492524123
547,12.85647298644465
548,130.06477264288222
720,5357.378260047826
721,5357.378260047826
784,0.0
785,0.0
848,0.0
849,0.0
1121,3011.458619312227
1135,1126.130681826542
1161,13.05715860270707
1163,0.0
1166,4784.157140392435
1168,4784.157140392435
2,2,12,16, 0, 6, 0.00,60.00,Tuesday
7,-12.2
545,19.314988094368243
546,-8.394935138705085
547,12.729138695784671
548,130.06477264288222
720,6801.069434105531
721,6801.069434105531
784,0.0
785,0.0
848,0.0
849,0.0
1121,2948.0578189462094
1135,1115.0268700193767
1161,17.921279233616318
1163,0.0
1166,6453.325496640969
1168,6453.325496640969
2,2,12,16, 0, 7, 0.00,60.00,Tuesday
7,-12.0
545,19.571319283589247
546,-8.055664927790664
547,12.64761471685376
548,130.06477264288222
720,6363.538370943179
721,6363.538370943179
784,0.0
785,0.0
848,0.0
849,0.0
1121,2934.858810022137
1135,1125.3379872580451
1161,23.279217796267
1163,0.0
1166,6117.015604531063
1168,6117.015604531063
2,2,12,16, 0, 8, 0.00,60.00,Tuesday
7,-11.7
545,19.651205726013192
546,-7.749957062052637
547,12.544715705338515
548,130.06477264288222
720,5854.960093420055
721,5854.960093420055
784,0.0
785,0.0
848,0.0
849,0.0
1121,2969.407984055382
1135,1138.081796515344
1161,19.867360213374216
1163,0.0
1166,5495.882027273405
1168,5495.882027273405
2,2,12,16, 0, 9, 0.00,60.00,Tuesday
7,-11.0
545,19.670352134434392
546,-7.261143205655092
547,12.447967925445095
548,130.06477264288222
720,5670.841556580397
721,5670.841556580397
784,0.0
785,0.0
848,0.0
849,0.0
1121,3034.399381436356
1135,1147.2423314763669
1161,19.753514447418823
1163,0.0
1166,5196.809489393804
1168,5196.809489393804
2,2,12,16, 0,10, 0.00,60.00,Tuesday
7,-11.1
545,19.691003034691093
546,-7.095824341595756
547,12.348000320784811
548,130.06477264288222
720,5081.6187494482
721,5081.6187494482
784,0.0
785,0.0
848,0.0
849,0.0
1121,3019.3654801503526
1135,1144.4586585573277
1161,21.302733523872732
1163,0.0
1166,4495.609480983468
1168,4495.609480983468
2,2,12,16, 0,11, 0.00,60.00,Tuesday
7,-10.6
545,19.69137057838557
546,-5.623343709708876
547,12.260429108224404
548,130.06477264288222
720,4834.495979458352
721,4834.495979458352
784,0.0
785,0.0
848,0.0
849,0.0
1121,3062.9392279724375
1135,1148.7286627505453
1161,22.349458096122234
1163,0.0
1166,4140.280988373594
1168,4140.280988373594
2,2,12,16, 0,12, 0.00,60.00,Tuesday
7,-10.0
545,19.691479558607387
546,-4.961912470451948
547,12.173476373134108
548,130.06477264288222
720,4892.658443622324
721,4892.658443622324
784,0.0
785,0.0
848,0.0
849,0.0
1121,3114.980175478374
1135,1152.851989406222
1161,23.925071767489488
1163,0.0
1166,4079.6705596520555
1168,4079.6705596520555
2,2,12,16, 0,13, 0.00,60.00,Tuesday
7,-9.4
545,19.706915447122743
546,-3.5068832342378773
547,12.09860694462689
548,130.06477264288222
720,4299.634733031717
721,4299.634733031717
784,0.0
785,0.0
848,0.0
849,0.0
1121,3180.986069085354
1135,1161.918864326275
1161,21.717646956907767
1163,0.0
1166,3282.370739829759
1168,3282.370739829759
2,2,12,16, 0,14, 0.00,60.00,Tuesday
7,-8.9
545,19.706735367217327
546,-4.3476554516419395
547,12.027900481795184
548,130.06477264288222
720,4234.8621443677985
721,4234.8621443677985
784,0.0
785,0.0
848,0.0
849,0.0
1121,3221.9434637817058
1135,1164.4456312158134
1161,23.855819828680335
1163,0.0
1166,3082.3458842882924
1168,3082.3458842882924
2,2,12,16, 0,15, 0.00,60.00,Tuesday
7,-8.9
545,19.688765075012057
546,-3.8928314237410095
547,11.965336358846427
548,130.06477264288222
720,4433.528262817757
721,4433.528262817757
784,0.0
785,0.0
848,0.0
849,0.0
1121,3221.145448057851
1135,1164.0642953583194
1161,24.091509983419378
1163,0.0
1166,3337.288947495223
1168,3337.288947495223
2,2,12,16, 0,16, 0.00,60.00,Tuesday
7,-8.3
545,19.694113396889488
546,-3.863501335849115
547,11.910240862992502
548,130.06477264288222
720,4342.700148196522
721,4342.700148196522
784,0.0
785,0.0
848,0.0
849,0.0
1121,3291.247162884474
1135,1173.5164418262802
1161,21.249076894962943
1163,0.0
1166,3149.928628948881
1168,3149.928628948881
2,2,12,16, 0,17, 0.00,60.00,Tuesday
7,-8.3
545,19.709589236825973
546,-2.167732384232047
547,11.858938727974508
548,130.06477264288222
720,3775.956414699531
721,3775.956414699531
784,0.0
785,0.0
848,0.0
849,0.0
1121,3308.903946153282
1135,1179.9317292805958
1161,16.480653380744624
1163,0.0
1166,2467.9812237503475
1168,2467.9812237503475
2,2,12,16, 0,18, 0.00,60.00,Tuesday
7,-8.3
545,19.71685479144511
546,-2.570459542258626
547,11.805873822499427
548,130.06477264288222
720,3616.1909298913197
721,3616.1909298913197
784,0.0
785,0.0
848,0.0
849,0.0
1121,3307.955988649949
1135,1179.97011775317
1161,16.667324276562276
1163,0.0
1166,2191.1690853199398
1168,2191.1690853199398
2,2,12,16, 0,19, 0.00,60.00,Tuesday
7,-8.9
545,19.711050784571835
546,-3.1835710580308034
547,11.751705554774693
548,130.06477264288222
720,3427.9532621521957
721,3427.9532621521957
784,0.0
785,0.0
848,0.0
849,0.0
1121,3221.1667287491778
1135,1164.040482528156
1161,24.091509983419378
1163,0.0
1166,2059.5440671634137
1168,2059.5440671634137
2,2,12,16, 0,20, 0.00,60.00,Tuesday
7,-9.4
545,19.701273005909325
546,-4.08283440447312
547,11.69771882700526
548,130.06477264288222
720,3477.3077318982687
721,3477.3077318982687
784,0.0
785,0.0
848,0.0
849,0.0
1121,3207.961310867154
1135,1171.556554726231
1161,14.258955765920273
1163,0.0
1166,2156.395549256254
1168,2156.395549256254
2,2,12,16, 0,21, 0.00,60.00,Tuesday
7,-9.4
545,19.696005927129992
546,-3.927291209254261
547,11.645827846777344
548,130.06477264288222
720,3496.9435168247546
721,3496.9435168247546
784,0.0
785,0.0
848,0.0
849,0.0
1121,3196.3010726848383
1135,1166.9523299727791
1161,17.565535387851558
1163,0.0
1166,2237.896805291459
1168,2237.896805291459
2,2,12,16, 0,22, 0.00,60.00,Tuesday
7,-9.4
545,19.69603145324224
546,-3.6779328416706494
547,11.59224547239937
548,130.06477264288222
720,3615.954012838174
721,3615.954012838174
784,0.0
785,0.0
848,0.0
849,0.0
1121,3182.411980349815
1135,1161.629937882761
1161,21.47368133630445
1163,0.0
1166,2392.6236155601455
1168,2392.6236155601455
2,2,12,16, 0,23, 0.00,60.00,Tuesday
7,-10.6
545,18.91834028621683
546,-4.174355696692848
547,11.527367294777468
548,130.06477264288222
720,2936.061629743648
721,2936.061629743648
784,0.0
785,0.0
848,0.0
849,0.0
1121,3076.6141708319724
1135,1152.6985060353163
1161,18.631975079349388
1163,0.0
1166,1701.1588330208888
1168,1701.1588330208888
2,2,12,16, 0,24, 0.00,60.00,Tuesday
7,-10.6
545,18.68079614799665
546,-4.323895191234974
547,11.433938615101397
548,130.06477264288222
720,3407.824951146913
721,3407.824951146913
784,0.0
785,0.0
848,0.0
849,0.0
1121,3091.734518394938
1135,1136.1812553551363
1161,18.62666736160736
1163,0.0
1166,2183.3018056759042
1168,2183.3018056759042
2,3,12,17, 0, 1, 0.00,60.00,Wednesday
7,-10.0
545,18.604308880812354
546,-4.696327591610258
547,11.367124624976704
548,130.06477264288222
720,3826.456511771228
721,3826.456511771228
784,0.0
785,0.0
848,0.0
849,0.0
1121,3149.2774792717923
1135,1135.3503667308037
1161,20.011680906073256
1163,0.0
1166,2611.132170868931
1168,2611.132170868931
2,3,12,17, 0, 2, 0.00,60.00,Wednesday
7,-11.1
545,18.576820725272157
546,-5.02945360658846
547,11.286237529021037
548,130.06477264288222
720,4211.602207237453
721,4211.602207237453
784,0.0
785,0.0
848,0.0
849,0.0
1121,3041.852505023762
1135,1121.22087190487
1161,21.063576690929526
1163,0.0
1166,3189.126430196309
1168,3189.126430196309
2,3,12,17, 0, 3, 0.00,60.00,Wednesday
7,-10.6
545,18.571543821377304
546,-5.504640215847011
547,11.217711904949715
548,130.06477264288222
720,4393.069799683175
721,4393.069799683175
784,0.0
785,0.0
848,0.0
849,0.0
1121,3098.533044950019
1135,1128.685165443029
1161,18.6338060282869
1163,0.0
1166,3373.2714800019276
1168,3373.2714800019276
2,3,12,17, 0, 4, 0.00,60.00,Wednesday
7,-10.0
545,18.571627737284945
546,-5.253596472356513
547,11.147522831509379
548,130.06477264288222
720,4469.95001407495
721,4469.95001407495
784,0.0
785,0.0
848,0.0
849,0.0
1121,3165.4726001974536
1135,1137.7291924540743
1161,16.11848024488744
1163,0.0
1166,3428.957995601287
1168,3428.957995601287
2,3,12,17, 0, 5, 0.00,60.00,Wednesday
7,-10.6
545,18.5766893244565
546,-5.381486535029017
547,11.0711182305583
548,130.06477264288222
720,4466.636923288139
721,4466.636923288139
784,0.0
785,0.0
848,0.0
849,0.0
1121,3108.4601349887907
1135,1131.9216107940458
1161,15.865045886922589
1163,0.0
1166,3477.822377512704
1168,3477.822377512704
2,3,12,17, 0, 6, 0.00,60.00,Wednesday
7,-10.6
545,19.356253242704472
546,-4.710464735165009
547,11.000251887042522
548,130.06477264288222
720,5622.041553041443
721,5622.041553041443
784,0.0
785,0.0
848,0.0
849,0.0
1121,3108.444645210704
1135,1131.9154370795188
1161,15.86958619482587
1163,0.0
1166,4829.185629192398
1168,4829.185629192398
2,3,12,17, 0, 7, 0.00,60.00,Wednesday
7,-10.0
545,19.60011830795943
546,-3.9458265390924847
547,10.96999110801395
548,130.06477264288222
720,5191.677845912138
721,5191.677845912138
784,0.0
785,0.0
848,0.0
849,0.0
1121,3160.957353673509
1135,1158.0200920293255
1161,13.182786946026935
1163,0.0
1166,4333.666704239751
1168,4333.666704239751
2,3,12,17, 0, 8, 0.00,60.00,Wednesday
7,-10.0
545,19.67248080540158
546,-3.8350789101324034
547,10.910832885574067
548,130.06477264288222
720,4813.0410716840415
721,4813.0410716840415
784,0.0
785,0.0
848,0.0
849,0.0
1121,3145.800020621569
1135,1159.3960892908133
1161,16.1324775170239
1163,0.0
1166,3885.363383868567
1168,3885.363383868567
2,3,12,17, 0, 9, 0.00,60.00,Wednesday
7,-8.3
545,19.691755081925923
546,-2.991409383306701
547,10.866696744886232
548,130.06477264288222
720,4548.189839690003
721,4548.189839690003
784,0.0
785,0.0
848,0.0
849,0.0
1121,3323.237371942483
1135,1182.585694984931
1161,13.072257617871514
1163,0.0
1166,3388.379891802949
1168,3388.379891802949
2,3,12,17, 0,10, 0.00,60.00,Wednesday
7,-7.8
545,19.698518194214547
546,-2.0152750472867704
547,10.813166115540307
548,130.06477264288222
720,4438.97493184445
721,4438.97493184445
784,0.0
785,0.0
848,0.0
849,0.0
1121,3337.471759451273
1135,1175.5153204187468
1161,22.54339031320004
1163,0.0
1166,3202.657203314856
1168,3202.657203314856
2,3,12,17, 0,11, 0.00,60.00,Wednesday
7,-7.2
545,19.707803895362343
546,-0.5011145438995328
547,10.768503965233508
548,130.06477264288222
720,4147.439775536668
721,4147.439775536668
784,0.0
785,0.0
848,0.0
849,0.0
1121,3377.127654772641
1135,1174.5211586455866
1161,27.902602720480527
1163,0.0
1166,2772.6877701594494
1168,2772.6877701594494
2,3,12,17, 0,12, 0.00,60.00,Wednesday
7,-5.6
545,19.729577214405836
546,2.0017905750102294
547,10.739438090087553
548,130.06477264288222
720,3438.6170546946287
721,3438.6170546946287
784,0.0
785,0.0
848,0.0
849,0.0
1121,3553.2851666480806
1135,1195.3376542906765
1161,24.567012669930964
1163,0.0
1166,1687.6151987274393
1168,1687.6151987274393
2,3,12,17, 0,13, 0.00,60.00,Wednesday
7,-5.6
545,19.737213020960912
546,4.470191755605014
547,10.711093034883199
548,130.06477264288222
720,3144.5387852634503
721,3144.5387852634503
784,0.0
785,0.0
848,0.0
849,0.0
1121,3530.026162093387
1135,1188.1087302071544
1161,30.2383109765029
1163,0.0
1166,1224.656962916508
1168,1224.656962916508
2,3,12,17, 0,14, 0.00,60.00,Wednesday
7,-4.4
545,19.73209262354092
546,4.23422570489638
547,10.70321437976812
548,130.06477264288222
720,3253.3030119888917
721,3253.3030119888917
784,0.0
785,0.0
848,0.0
849,0.0
1121,3709.033788039268
1135,1218.2207173065915
1161,17.182521927367187
1163,0.0
1166,1035.5309102541996
1168,1035.5309102541996
2,3,12,17, 0,15, 0.00,60.00,Wednesday
7,-5.6
545,19.71929742880861
546,4.507642252112985
547,10.687772874399696
548,130.06477264288222
720,3231.6676014168333
721,3231.6676014168333
784,0.0
785,0.0
848,0.0
849,0.0
1121,3552.6205147058367
1135,1195.7107413365968
1161,24.63300743270724
1163,0.0
1166,1154.7022193864545
1168,1154.7022193864545
2,3,12,17, 0,16, 0.00,60.00,Wednesday
7,-6.1
545,19.715239692463673
546,3.684894511542694
547,10.682294570200883
548,130.06477264288222
720,3240.2808138492637
721,3240.2808138492637
784,0.0
785,0.0
848,0.0
849,0.0
1121,3528.8210545118404
1135,1199.669744294749
1161,17.71806376068809
1163,0.0
1166,1173.4504423399076
1168,1173.4504423399076
2,3,12,17, 0,17, 0.00,60.00,Wednesday
7,-7.2
545,19.70646954735311
546,2.007550125809371
547,10.67192158200253
548,130.06477264288222
720,3286.7419973962187
721,3286.7419973962187
784,0.0
785,0.0
848,0.0
849,0.0
1121,3377.3067095130837
1135,1174.829524933264
1161,27.81310210452747
1163,0.0
1166,1414.083064455077
1168,1414.083064455077
2,3,12,17, 0,18, 0.00,60.00,Wednesday
7,-7.8
545,19.69648306856314
546,0.21850474711992157
547,10.662888212395117
548,130.06477264288222
720,3362.4891046789
721,3362.4891046789
784,0.0
785,0.0
848,0.0
849,0.0
1121,3319.877071462802
1135,1169.361391497325
1161,27.193419859856235
1163,0.0
1166,1643.3337058782768
1168,1643.3337058782768
2,3,12,17, 0,19, 0.00,60.00,Wednesday
7,-7.8
545,19.699071941008423
546,-0.9517785825166006
547,10.652378392836612
548,130.06477264288222
720,3152.042742059948
721,3152.042742059948
784,0.0
785,0.0
848,0.0
849,0.0
1121,3306.5275445737057
1135,1164.369537563916
1161,30.778966120346364
1163,0.0
1166,1506.8160516306218
1168,1506.8160516306218
2,3,12,17, 0,20, 0.00,60.00,Wednesday
7,-8.3
545,19.70330230551125
546,-1.6163357183280127
547,10.632827219798225
548,130.06477264288222
720,2973.5871770964914
721,2973.5871770964914
784,0.0
785,0.0
848,0.0
849,0.0
1121,3246.742926213038
1135,1155.67250535781
1161,33.57115840802001
1163,0.0
1166,1420.084962702959
1168,1420.084962702959
2,3,12,17, 0,21, 0.00,60.00,Wednesday
7,-8.3
545,19.697478680227324
546,-2.2688286656396133
547,10.610600002110946
548,130.06477264288222
720,3170.966726016575
721,3170.966726016575
784,0.0
785,0.0
848,0.0
849,0.0
1121,3263.1237026835606
1135,1161.569695087901
1161,29.157205124351872
1163,0.0
1166,1671.7015021903003
1168,1671.7015021903003
2,3,12,17, 0,22, 0.00,60.00,Wednesday
7,-8.9
545,19.69971735631905
546,-2.257147521814803
547,10.577107841030834
548,130.06477264288222
720,3153.849354277858
721,3153.849354277858
784,0.0
785,0.0
848,0.0
849,0.0
1121,3195.730616439933
1135,1152.1795931995302
1161,31.5495261101703
1163,0.0
1166,1755.7975893047847
1168,1755.7975893047847
2,3,12,17, 0,23, 0.00,60.00,Wednesday
7,-8.9
545,18.93325181803777
546,-2.9880476146640995
547,10.540549763022247
548,130.06477264288222
720,2398.288873889549
721,2398.288873889549
784,0.0
785,0.0
848,0.0
849,0.0
1121,3195.4676374244405
1135,1152.0902606479424
1161,31.620475879563156
1163,0.0
1166,884.4406915368388
1168,884.4406915368388
2,3,12,17, 0,24, 0.00,60.00,Wednesday
7,-8.9
545,18.692758060551686
546,-2.8651599098064073
547,10.462725848255586
548,130.06477264288222
720,2858.9611024458045
721,2858.9611024458045
784,0.0
785,0.0
848,0.0
849,0.0
1121,3210.483769234059
1135,1135.6459485019009
1161,31.5495261101703
1163,0.0
1166,1364.7176624377182
1168,1364.7176624377182
2,4,12,18, 0, 1, 0.00,60.00,Thursday
7,-8.9
545,18.61453454769364
546,-2.5873128840242505
547,10.409616754495643
548,130.06477264288222
720,3293.1137971496646
721,3293.1137971496646
784,0.0
785,0.0
848,0.0
849,0.0
1121,3199.1741951080867
1135,1124.7940512574653
1161,35.89449774550575
1163,0.0
1166,1866.0340515459538
1168,1866.0340515459538
2,4,12,18, 0, 2, 0.00,60.00,Thursday
7,-8.9
545,18.589302608657512
546,-3.2119866162912585
547,10.353831326482197
548,130.06477264288222
720,3686.7777233567613
721,3686.7777233567613
784,0.0
785,0.0
848,0.0
849,0.0
1121,3216.70665525654
1135,1128.6613422245457
1161,31.5495261101703
1163,0.0
1166,2299.7873319556948
1168,2299.7873319556948
2,4,12,18, 0, 3, 0.00,60.00,Thursday
7,-8.9
545,18.579893759524364
546,-3.330919690668925
547,10.299950329491528
548,130.06477264288222
720,3888.288056284282
721,3888.288056284282
784,0.0
785,0.0
848,0.0
849,0.0
1121,3217.2508780988233
1135,1128.0502353689735
1161,31.5495261101703
1163,0.0
1166,2570.562148417349
1168,2570.562148417349
2,4,12,18, 0, 4, 0.00,60.00,Thursday
7,-8.9
545,18.580867199432376
546,-3.0012226194785496
547,10.246189523431722
548,130.06477264288222
720,3988.2177701777637
721,3988.2177701777637
784,0.0
785,0.0
848,0.0
849,0.0
1121,3276.8560311715887
1135,1148.5877543954161
1161,15.414580366011702
1163,0.0
1166,2644.593177825997
1168,2644.593177825997
2,4,12,18, 0, 5, 0.00,60.00,Thursday
7,-8.9
545,18.586219619030988
546,-2.852443424057859
547,10.193535533085713
548,130.06477264288222
720,3952.980190183125
721,3952.980190183125
784,0.0
785,0.0
848,0.0
849,0.0
1121,3217.5352082437225
1135,1127.7309451685494
1161,31.5495261101703
1163,0.0
1166,2653.0807014884244
1168,2653.0807014884244
2,4,12,18, 0, 6, 0.00,60.00,Thursday
7,-10.6
545,19.35526483682313
546,-3.508897070621386
547,10.130402971906161
548,130.06477264288222
720,5282.291187819892
721,5282.291187819892
784,0.0
785,0.0
848,0.0
849,0.0
1121,3056.301600736895
1135,1111.7368305606713
1161,31.035289660307917
1163,0.0
1166,4347.695978826295
1168,4347.695978826295
2,4,12,18, 0, 7, 0.00,60.00,Thursday
7,-13.3
545,19.57604491134219
546,-4.598349788417644
547,10.098757031772209
548,130.06477264288222
720,5447.788507093146
721,5447.788507093146
784,0.0
785,0.0
848,0.0
849,0.0
1121,2799.6360061127193
1135,1101.9032558237561
1161,28.952441433165163
1163,0.0
1166,4917.270591806295
1168,4917.270591806295
2,4,12,18, 0, 8, 0.00,60.00,Thursday
7,-12.0
545,19.653594654769186
546,-4.632106756656061
547,10.064429230424285
548,130.06477264288222
720,4932.999674905006
721,4932.999674905006
784,0.0
785,0.0
848,0.0
849,0.0
1121,2911.376653755365
1135,1119.1349285084061
1161,29.76219320777016
1163,0.0
1166,4296.340262659668
1168,4296.340262659668
2,4,12,18, 0, 9, 0.00,60.00,Thursday
7,-8.9
545,19.68763502948596
546,-3.930552819573784
547,10.036896820564946
548,130.06477264288222
720,4446.19950011284
721,4446.19950011284
784,0.0
785,0.0
848,0.0
849,0.0
1121,3181.0466782990575
1135,1144.689607381405
1161,35.97373830947366
1163,0.0
1166,3467.817450443568
1168,3467.817450443568
2,4,12,18, 0,10, 0.00,60.00,Thursday
7,-7.8
545,19.69767318397837
546,-2.6823215510211393
547,9.994489637340095
548,130.06477264288222
720,4311.0201630436695
721,4311.0201630436695
784,0.0
785,0.0
848,0.0
849,0.0
1121,3306.7831446433865
1135,1163.1228855046882
1161,30.949262701651605
1163,0.0
1166,3146.702669858474
1168,3146.702669858474
2,4,12,18, 0,11, 0.00,60.00,Thursday
7,-7.2
545,19.70669564605431
546,-1.0175040302566005
547,9.95430879897224
548,130.06477264288222
720,4123.817526078452
721,4123.817526078452
784,0.0
785,0.0
848,0.0
849,0.0
1121,3391.8925733296574
1135,1178.1717520280456
1161,24.322329439314167