Program Version,EnergyPlus, Version 22.2.0-c249759bad, YMD=2023.09.01 18:17
1,5,Environment Title[],Latitude[deg],Longitude[deg],Time Zone[],Elevation[m]
2,8,Day of Simulation[],Month[],Day of Month[],DST Indicator[1=yes 0=no],Hour[],StartMinute[],EndMinute[],DayType
3,5,Cumulative Day of Simulation[],Month[],Day of Month[],DST Indicator[1=yes 0=no],DayType  ! When Daily Report Variables Requested
4,2,Cumulative Days of Simulation[],Month[]  ! When Monthly Report Variables Requested
5,1,Cumulative Days of Simulation[] ! When Run Period Report Variables Requested
6,1,Calendar Year of Simulation[] ! When Annual Report Variables Requested
581,11,LIVING,AFN Zone Infiltration Air Change Rate [ach] !RunPeriod [Value,Min,Month,Day,Hour,Minute,Max,Month,Day,Hour,Minute]
582,11,ATTIC,AFN Zone Infiltration Air Change Rate [ach] !RunPeriod [Value,Min,Month,Day,Hour,Minute,Max,Month,Day,Hour,Minute]
583,11,CRAWLSPACE,AFN Zone Infiltration Air Change Rate [ach] !RunPeriod [Value,Min,Month,Day,Hour,Minute,Max,Month,Day,Hour,Minute]
1038,11,Facility,Facility Heating Setpoint Not Met Time [hr] !RunPeriod [Value,Min,Month,Day,Hour,Minute,Max,Month,Day,Hour,Minute]
1039,11,Facility,Facility Cooling Setpoint Not Met Time [hr] !RunPeriod [Value,Min,Month,Day,Hour,Minute,Max,Month,Day,Hour,Minute]
1115,11,DX_HEATING_COIL,Heating Coil Heating Energy [J] !RunPeriod [Value,Min,Month,Day,Hour,Minute,Max,Month,Day,Hour,Minute]
1128,11,DX_HEATING_COIL,Heating Coil Electricity Energy [J] !RunPeriod [Value,Min,Month,Day,Hour,Minute,Max,Month,Day,Hour,Minute]
1153,11,DX_HEATING_COIL,Heating Coil Defrost Electricity Energy [J] !RunPeriod [Value,Min,Month,Day,Hour,Minute,Max,Month,Day,Hour,Minute]
1154,11,DX_HEATING_COIL,Heating Coil Crankcase Heater Electricity Energy [J] !RunPeriod [Value,Min,Month,Day,Hour,Minute,Max,Month,Day,Hour,Minute]
1155,11,HEATING_RESISTANCE_BACKUP,Heating Coil Heating Energy [J] !RunPeriod [Value,Min,Month,Day,Hour,Minute,Max,Month,Day,Hour,Minute]
1156,11,HEATING_RESISTANCE_BACKUP,Heating Coil Electricity Energy [J] !RunPeriod [Value,Min,Month,Day,Hour,Minute,Max,Month,Day,Hour,Minute]
1292,11,WATER HEATER,Water Heater Heat Loss Energy [J] !RunPeriod [Value,Min,Month,Day,Hour,Minute,Max,Month,Day,Hour,Minute]
1306,11,WATER HEATER,Water Heater Heating Energy [J] !RunPeriod [Value,Min,Month,Day,Hour,Minute,Max,Month,Day,Hour,Minute]
1307,11,WATER HEATER,Water Heater Unmet Demand Heat Transfer Energy [J] !RunPeriod [Value,Min,Month,Day,Hour,Minute,Max,Month,Day,Hour,Minute]
1308,11,WATER HEATER,Water Heater Electricity Energy [J] !RunPeriod [Value,Min,Month,Day,Hour,Minute,Max,Month,Day,Hour,Minute]
13,11,Electricity:Facility [J] !RunPeriod [Value,Min,Month,Day,Hour,Minute,Max,Month,Day,Hour,Minute]
1134,11,Heating:Electricity [J] !RunPeriod [Value,Min,Month,Day,Hour,Minute,Max,Month,Day,Hour,Minute]
1096,11,Cooling:Electricity [J] !RunPeriod [Value,Min,Month,Day,Hour,Minute,Max,Month,Day,Hour,Minute]
562,11,Fans:Electricity [J] !RunPeriod [Value,Min,Month,Day,Hour,Minute,Max,Month,Day,Hour,Minute]
1379,11,Pumps:Electricity [J] !RunPeriod [Value,Min,Month,Day,Hour,Minute,Max,Month,Day,Hour,Minute]
1326,11,WaterSystems:Electricity [J] !RunPeriod [Value,Min,Month,Day,Hour,Minute,Max,Month,Day,Hour,Minute]
61,11,InteriorLights:Electricity [J] !RunPeriod [Value,Min,Month,Day,Hour,Minute,Max,Month,Day,Hour,Minute]
1046,11,ExteriorLights:Electricity [J] !RunPeriod [Value,Min,Month,Day,Hour,Minute,Max,Month,Day,Hour,Minute]
134,11,InteriorEquipment:Electricity [J] !RunPeriod [Value,Min,Month,Day,Hour,Minute,Max,Month,Day,Hour,Minute]
170,11,gas_dryer:InteriorEquipment:Electricity [J] !RunPeriod [Value,Min,Month,Day,Hour,Minute,Max,Month,Day,Hour,Minute]
207,11,clotheswasher:InteriorEquipment:Electricity [J] !RunPeriod [Value,Min,Month,Day,Hour,Minute,Max,Month,Day,Hour,Minute]
244,11,dishwasher:InteriorEquipment:Electricity [J] !RunPeriod [Value,Min,Month,Day,Hour,Minute,Max,Month,Day,Hour,Minute]
281,11,refrigerator:InteriorEquipment:Electricity [J] !RunPeriod [Value,Min,Month,Day,Hour,Minute,Max,Month,Day,Hour,Minute]
318,11,electric_mels:InteriorEquipment:Electricity [J] !RunPeriod [Value,Min,Month,Day,Hour,Minute,Max,Month,Day,Hour,Minute]
355,11,NaturalGas:Facility [J] !RunPeriod [Value,Min,Month,Day,Hour,Minute,Max,Month,Day,Hour,Minute]
403,11,InteriorEquipment:NaturalGas [J] !RunPeriod [Value,Min,Month,Day,Hour,Minute,Max,Month,Day,Hour,Minute]
476,11,gas_dryer:InteriorEquipment:NaturalGas [J] !RunPeriod [Value,Min,Month,Day,Hour,Minute,Max,Month,Day,Hour,Minute]
513,11,gas_mels:InteriorEquipment:NaturalGas [J] !RunPeriod [Value,Min,Month,Day,Hour,Minute,Max,Month,Day,Hour,Minute]
End of Data Dictionary
1,EXTREME_WINTER,  37.04,-113.51,  -7.00, 879.00
5,15
1038,0.0,0.0,12,22, 1,15,0.0,12,22, 1,15
1039,0.0,0.0,12,22, 1,15,0.0,12,22, 1,15
581,0.23334653495297117,0.1376084816128284, 1, 3, 4,52,0.5653491924347627,12,25, 3,60
582,1.6024605567426182,0.0,12,22, 1,15,11.713351849034757,12,25, 3,60
583,0.020720220201547904,0.00015352963865864692,12,31,22,60,0.10419309279920087, 1, 5, 6,52
1115,1501995218.3520272,0.0,12,22,23, 7,5102159.497951444, 1, 5, 6,45
1128,480032066.7311074,0.0,12,22,23, 7,1744311.2083040816, 1, 5, 6,45
1153,16217744.245342422,0.0,12,22,13,37,76071.27335850331, 1, 1, 6,60
1154,204118815.45030525,0.0,12,22, 6, 5,180000.0,12,24,20,15
1155,7113804.506908616,0.0,12,22, 1,15,1077939.2606110347, 1, 5, 6, 5
1156,7113804.506908616,0.0,12,22, 1,15,1077939.2606110347, 1, 5, 6, 5
1292,-53180565.83151716,-39774.41297996302,12,22, 1,15,-4137.952021483209,12,30,11,44
1306,442779863.1669942,0.0,12,22, 1,15,4050000.0,12,23,20,30
1307,61753734.94154729,0.0,12,22, 1,15,5449879.502493492, 1, 4,19,60
1308,442779863.1669942,0.0,12,22, 1,15,4050000.0,12,23,20,30
13,2008805164.7230659,293594.88253450376, 1, 2,15,30,6500072.030470911, 1, 5, 7,60
61,646981127.1939323,88139.10953165221,12,22, 1,15,1282023.4113694867,12,22,20,15
134,151290040.75163814,63564.01800854099,12,22, 4,15,156554.22484006523,12,27,20,15
170,11185820.069951689,348.4159749238097,12,22, 4,15,17476.39704006126,12,27,12,15
207,13893028.5742839,815.2532113832032,12,22, 3,15,22990.642799023623,12,27,10,15
244,27284301.07562584,1521.856143006317,12,22, 4,15,53038.631142310165,12,27,20,15
281,98926891.03177746,59938.60262432081,12,22, 5,15,81951.81706819107,12,22,19,15
318,0.0,0.0,12,22, 1,15,0.0,12,22, 1,15
355,422701517.16107386,18561.32405820678,12,22, 4,15,724774.895203776,12,27,18,15
403,422701517.16107386,18561.32405820678,12,22, 4,15,724774.895203776,12,27,18,15
476,227882097.80545202,7098.072629279515,12,22, 4,15,356036.3026282215,12,27,12,15
513,0.0,0.0,12,22, 1,15,0.0,12,22, 1,15
562,51605163.09462812,0.0,12,22,23,15,184172.54050964926, 1, 5, 6,45
1046,0.0,0.0,12,22, 1,15,0.0,12,22, 1,15
1096,8666539.582210848,0.0,12,22, 1,15,246188.58316130622,12,30,17,30
1134,707482430.9336634,0.0,12,29,17,60,2732841.3066298384, 1, 5, 6,15
1326,442779863.16699445,0.0,12,22, 1,15,4050000.0,12,23,20,30
1379,0.0,0.0,12,22, 1,15,0.0,12,22, 1,15
1,EXTREME_SUMMER,  37.04,-113.51,  -7.00, 879.00
5,7
1038,0.0,0.0, 6,29, 1,15,0.0, 6,29, 1,15
1039,24.75,0.0, 6,29, 1,15,0.25, 6,30,17,15
581,0.1459442525132372,0.0, 7, 2, 6, 7,0.7406033996356062, 7, 5,17,50
582,5.017520382338865,0.1661439006673921, 7, 3, 2,37,23.85858832348913, 7, 5,17,50
583,0.055723069492431936,0.0, 7, 2, 6, 7,0.10433055006406051, 7, 5,17,50
1115,0.0,0.0, 6,29, 1, 7,0.0, 6,29, 1, 7
1128,0.0,0.0, 6,29, 1, 7,0.0, 6,29, 1, 7
1153,0.0,0.0, 6,29, 1, 7,0.0, 6,29, 1, 7
1154,0.0,0.0, 6,29, 1, 7,0.0, 6,29, 1, 7
1155,0.0,0.0, 6,29, 1, 7,0.0, 6,29, 1, 7
1156,0.0,0.0, 6,29, 1, 7,0.0, 6,29, 1, 7
1292,-22040704.152264442,-34340.260702923115, 7, 2, 7,30,-3064.3529548740294, 7, 5, 9,46
1306,136350668.26159218,0.0, 6,29, 1, 7,3115626.595431322, 6,29, 7,45
1307,6788407.633509146,0.0, 6,29, 1, 7,1733710.3759485832, 7, 5,19,55
1308,136350668.26159218,0.0, 6,29, 1, 7,3115626.595431322, 6,29, 7,45
13,1363539055.8046758,330667.9576599852, 6,29, 4,60,7721424.450642872, 7, 5,20,15
61,301924526.02383536,88139.10953165221, 6,29, 1,15,1282023.4113694867, 6,29,20,15
134,70666020.44019976,63564.01800854099, 6,29, 4,15,156554.22484006523, 7, 4,20,15
170,5241013.419656067,348.4159749238097, 6,29, 4,15,17476.39704006126, 7, 4,12,15
207,6509451.13922267,815.2532113832032, 6,29, 3,15,22990.642799023623, 7, 4,10,15
244,12749673.399825225,1521.856143006317, 6,29, 4,15,53038.631142310165, 7, 4,20,15
281,46165882.481495745,59938.60262432081, 6,29, 5,15,81951.81706819107, 6,29,19,15
318,0.0,0.0, 6,29, 1,15,0.0, 6,29, 1,15
355,197687796.27748066,18561.32405820678, 6,29, 4,15,724774.895203776, 7, 4,18,15
403,197687796.27748066,18561.32405820678, 6,29, 4,15,724774.895203776, 7, 4,18,15
476,106772067.24485716,7098.072629279515, 6,29, 4,15,356036.3026282215, 7, 4,12,15
513,0.0,0.0, 6,29, 1,15,0.0, 6,29, 1,15
562,70985578.37635961,17796.30649479814, 6,29, 5,45,184172.54050964926, 6,30,16,60
1046,0.0,0.0, 6,29, 1,15,0.0, 6,29, 1,15
1096,783612262.7026894,155864.43182124547, 6,29, 5,45,2366846.8648452256, 7, 4,16,60
1134,0.0,0.0, 6,29, 1,15,0.0, 6,29, 1,15
1326,136350668.26159218,0.0, 6,29, 1,15,4050000.0, 7, 4, 9,60
1379,0.0,0.0, 6,29, 1,15,0.0, 6,29, 1,15
1,ANNUAL,  37.04,-113.51,  -7.00, 879.00
5,365
1038,0.0,0.0, 1, 1, 1,15,0.0, 1, 1, 1,15
1039,397.0,0.0, 1, 1, 1,15,0.25, 1,27,16,60
581,0.19496281076352112,0.0, 4,27,23, 7,1.8974113280929665, 2,18,23,52
582,3.279926448251736,0.0, 1, 1, 6, 5,39.180527112377476, 6,16,17,52
583,0.03145343620384635,0.0, 6, 9, 6, 7,0.11829082371670697, 6,16,17,52
1115,6063703595.7212,0.0, 1, 1, 1,15,5101384.376833535, 1, 5, 6,45
1128,1938161127.4431105,0.0, 1, 1, 1,15,1745207.449181347, 1, 5, 6,45
1153,51805822.49865051,0.0, 1, 1, 1,15,99614.05647194308, 2,23, 7,15
1154,1501512331.9316876,0.0, 1, 1, 6, 5,180000.0, 1, 1, 1,15
1155,32047253.82737537,0.0, 1, 1, 1,15,1077939.2606110347, 1, 5, 6, 5
1156,32047253.82737537,0.0, 1, 1, 1,15,1077939.2606110347, 1, 5, 6, 5
1292,-1191530521.1411543,-39827.87161542795, 1, 9, 3,45,-2350.266758824328, 4,20,13,59
1306,9032147007.99537,0.0, 1, 1, 1,15,4050000.0, 1,16, 7,60
1307,936156578.8011149,0.0, 1, 1, 1,15,10462528.902801368, 2,12,19,60
1308,9032147007.99537,0.0, 1, 1, 1,15,4050000.0, 1,16, 7,60
13,50566154426.79939,151703.1275401932, 1,23, 4,15,7804479.181686935, 7, 9,20,15
61,15743207428.383959,88139.10953165221, 1, 1, 1,15,1282023.4113694867, 1, 1,20,15
134,3685071073.4325233,63564.01800854099, 1, 2, 4,15,156554.22484006523, 1, 1,20,15
170,273393721.45532674,348.4159749238097, 1, 2, 4,15,17476.39704006126, 1, 1,12,15
207,339560869.0695816,815.2532113832032, 1, 2, 3,15,22990.642799023623, 1, 1,10,15
244,664895467.8009144,1521.856143006317, 1, 2, 4,15,53038.631142310165, 1, 1,20,15
281,2407221015.106824,59938.60262432081, 1, 1, 5,15,81951.81706819107, 1, 1,19,15
318,0.0,0.0, 1, 1, 1,15,0.0, 1, 1, 1,15
355,10310294493.051695,18561.32405820678, 1, 2, 4,15,724774.895203776, 1, 1,18,15
403,10310294493.051695,18561.32405820678, 1, 2, 4,15,724774.895203776, 1, 1,18,15
476,5569688622.066177,7098.072629279515, 1, 2, 4,15,356036.3026282215, 1, 1,12,15
513,0.0,0.0, 1, 1, 1,15,0.0, 1, 1, 1,15
562,1951440951.7924905,0.0, 1, 1, 1,15,184172.5405096493, 5,26,18,30
1046,0.0,0.0, 1, 1, 1,15,0.0, 1, 1, 1,15
1096,16630761429.492527,0.0, 1, 1, 1,15,2357135.3445735592, 7, 4,16,60
1134,3523526535.7008066,0.0, 1, 2,15,30,3121387.8050127653, 1, 6, 6,15
1326,9032147007.995369,0.0, 1, 1, 1,15,4050000.0000000014, 4, 2, 9,60
1379,0.0,0.0, 1, 1, 1,15,0.0, 1, 1, 1,15
End of Data
 Number of Records Written=          99
