Program Version,EnergyPlus, Version 22.2.0-c249759bad, YMD=2023.09.01 14:30
1,5,Environment Title[],Latitude[deg],Longitude[deg],Time Zone[],Elevation[m]
2,8,Day of Simulation[],Month[],Day of Month[],DST Indicator[1=yes 0=no],Hour[],StartMinute[],EndMinute[],DayType
3,5,Cumulative Day of Simulation[],Month[],Day of Month[],DST Indicator[1=yes 0=no],DayType  ! When Daily Report Variables Requested
4,2,Cumulative Days of Simulation[],Month[]  ! When Monthly Report Variables Requested
5,1,Cumulative Days of Simulation[] ! When Run Period Report Variables Requested
6,1,Calendar Year of Simulation[] ! When Annual Report Variables Requested
7,1,Environment,Site Outdoor Air Drybulb Temperature [C] !Hourly
619,1,DX_HEATING_COIL,Heating Coil Heating Rate [W] !Hourly
633,1,DX_HEATING_COIL,Heating Coil Electricity Rate [W] !Hourly
659,1,DX_HEATING_COIL,Heating Coil Defrost Electricity Rate [W] !Hourly
661,1,DX_HEATING_COIL,Heating Coil Crankcase Heater Electricity Rate [W] !Hourly
690,1,FAN,Fan Electricity Rate [W] !Hourly
716,1,HEAT PUMP WATER HEATER FAN,Fan Electricity Rate [W] !Hourly
718,1,LIVING,Zone Mean Air Temperature [C] !Hourly
719,1,ATTIC,Zone Mean Air Temperature [C] !Hourly
720,1,CRAWLSPACE,Zone Mean Air Temperature [C] !Hourly
843,1,LIVING,Zone Predicted Sensible Load to Heating Setpoint Heat Transfer Rate [W] !Hourly
844,1,LIVING,Zone System Predicted Sensible Load to Heating Setpoint Heat Transfer Rate [W] !Hourly
907,1,ATTIC,Zone Predicted Sensible Load to Heating Setpoint Heat Transfer Rate [W] !Hourly
908,1,ATTIC,Zone System Predicted Sensible Load to Heating Setpoint Heat Transfer Rate [W] !Hourly
971,1,CRAWLSPACE,Zone Predicted Sensible Load to Heating Setpoint Heat Transfer Rate [W] !Hourly
972,1,CRAWLSPACE,Zone System Predicted Sensible Load to Heating Setpoint Heat Transfer Rate [W] !Hourly
1195,1,HEATING_RESISTANCE_BACKUP,Heating Coil Heating Rate [W] !Hourly
1197,1,HEATING_RESISTANCE_BACKUP,Heating Coil Electricity Rate [W] !Hourly
End of Data Dictionary
1,EXTREME_WINTER,  43.12, -76.12,  -5.00, 124.00
2,1, 1,20, 0, 1, 0.00,60.00,Monday
7,8.3
718,18.803374745873796
719,4.362993876262673
720,17.7484547022943
619,2111.840618754846
633,550.113873305336
659,0.0
661,138.18786280183951
690,45.69218653792013
716,0.0
843,1520.1790329271062
844,1520.1790329271062
907,0.0
908,0.0
971,0.0
972,0.0
1195,0.0
1197,0.0
2,1, 1,20, 0, 2, 0.00,60.00,Monday
7,8.3
718,18.625001296854183
719,6.247431970179817
720,17.266623915747278
619,1959.9709272227478
633,511.3223535400389
659,0.0
661,142.50225722124742
690,42.50294048454772
716,0.0
843,1519.4248672997765
844,1519.4248672997765
907,0.0
908,0.0
971,0.0
972,0.0
1195,0.0
1197,0.0
2,1, 1,20, 0, 3, 0.00,60.00,Monday
7,7.8
718,18.647374512039097
719,7.093097580657794
720,17.053055475306554
619,2122.4842129103627
633,553.1628855236273
659,0.0
661,137.2051733110228
690,46.41860101828834
716,0.0
843,1662.250122593745
844,1662.250122593745
907,0.0
908,0.0
971,0.0
972,0.0
1195,0.0
1197,0.0
2,1, 1,20, 0, 4, 0.00,60.00,Monday
7,7.2
718,18.606878359933955
719,7.2640150611776795
720,16.826779983466675
619,2179.5132619228416
633,571.9347261147121
659,0.0
661,134.64367806147072
690,48.31208543840014
716,0.0
843,1726.6066171116036
844,1726.6066171116036
907,0.0
908,0.0
971,0.0
972,0.0
1195,0.0
1197,0.0
2,1, 1,20, 0, 5, 0.00,60.00,Monday
7,7.2
718,18.620705776198275
719,7.534608353968546
720,16.64850634577982
619,2087.364956679743
633,547.9568482464383
659,0.0
661,137.32473895650926
690,46.33021682669211
716,0.0
843,1645.9540668088757
844,1645.9540668088757
907,0.0
908,0.0
971,0.0
972,0.0
1195,0.0
1197,0.0
2,1, 1,20, 0, 6, 0.00,60.00,Monday
7,8.3
718,19.28169008669146
719,8.848062261582086
720,16.495436057159758
619,3228.101988127801
633,820.839540964821
659,0.0
661,107.28852968203685
690,68.53330086925526
716,0.0
843,2558.953372715514
844,2558.953372715514
907,0.0
908,0.0
971,0.0
972,0.0
1195,0.0
1197,0.0
2,1, 1,20, 0, 7, 0.00,60.00,Monday
7,6.0
718,19.504855944686945
719,7.190301662754973
720,16.376156424385183
619,4661.249414171631
633,1208.5674316141415
659,0.0
661,61.606198311450555
690,102.30216409073316
716,85.44000000000005
843,2714.152680589952
844,2714.152680589952
907,0.0
908,0.0
971,0.0
972,0.0
1195,0.0
1197,0.0
2,1, 1,20, 0, 8, 0.00,60.00,Monday
7,5.0
718,19.309249557062873
719,6.473402206279762
720,16.27279951993873
619,5437.574000073177
633,1510.5185974430224
659,97.02200437295654
661,0.0
690,147.8421184222697
716,85.44000000000005
843,3235.9324967854973
844,3235.9324967854973
907,0.0
908,0.0
971,0.0
972,0.0
1195,0.0
1197,0.0
2,1, 1,20, 0, 9, 0.00,60.00,Monday
7,3.9
718,19.624571136035097
719,5.164865697098895
720,16.143195413575164
619,4705.526216465654
633,1350.2374284475457
659,22.45454341392856
661,30.417813174087648
690,125.22955452727247
716,9.021420219251816
843,3463.473184032089
844,3463.473184032089
907,0.0
908,0.0
971,0.0
972,0.0
1195,0.0
1197,0.0
2,1, 1,20, 0,10, 0.00,60.00,Monday
7,2.8
718,19.744216012909362
719,4.344308362119555
720,16.05556459149126
619,3702.657175244907
633,1110.760081179936
659,0.052388260643534405
661,63.21979462454641
690,101.10897816763996
716,0.0
843,2756.256536274963
844,2756.256536274963
907,0.0
908,0.0
971,0.0
972,0.0
1195,0.0
1197,0.0
2,1, 1,20, 0,11, 0.00,60.00,Monday
7,2.8
718,19.75133776574655
719,4.425966051164145
720,15.970007236377409
619,2924.4355315159496
633,893.9469510496551
659,0.042064345233077775
661,90.17444539505917
690,81.1838931493412
716,0.0
843,2152.4225575673136
844,2152.4225575673136
907,0.0
908,0.0
971,0.0
972,0.0
1195,0.0
1197,0.0
2,1, 1,20, 0,12, 0.00,60.00,Monday
7,1.1
718,20.038561570199967
719,4.322255035821534
720,15.89781921075642
619,1953.2037143678756
633,626.5997221679306
659,0.02993872434322232
661,121.83315853509949
690,57.78142716130227
716,0.0
843,1432.5500446049627
844,1432.5500446049627
907,0.0
908,0.0
971,0.0
972,0.0
1195,0.0
1197,0.0
2,1, 1,20, 0,13, 0.00,60.00,Monday
7,0.0
718,18.89797892283809
719,2.101571072440336
720,15.840387273556335
619,2342.486471011219
633,764.0443035845327
659,0.03666563170668768
661,104.26991517840294
690,70.76420086285798
716,0.0
843,1698.9509331979098
844,1698.9509331979098
907,0.0
908,0.0
971,0.0
972,0.0
1195,0.0
1197,0.0
2,1, 1,20, 0,14, 0.00,60.00,Monday
7,0.0
718,19.139155841468884
719,1.957140983236091
720,15.774600094902613
619,5239.430729730587
633,1560.300184744856
659,0.07660210846990867
661,0.0
690,147.8421184222697
716,80.49646418732345
843,2997.911949390207
844,2997.911949390207
907,0.0
908,0.0
971,0.0
972,0.0
1195,117.24368918675873
1197,117.24368918675873
2,1, 1,20, 0,15, 0.00,60.00,Monday
7,-1.7
718,19.68281906841625
719,1.3672079917745288
720,15.73355758196752
619,2622.7832644184255
633,856.2578482383856
659,0.04244427236126775
661,89.18249586317593
690,81.91673923895361
716,0.0
843,1851.5484916907862
844,1851.5484916907862
907,0.0
908,0.0
971,0.0
972,0.0
1195,0.0
1197,0.0
2,1, 1,20, 0,16, 0.00,60.00,Monday
7,-1.7
718,19.623679019016198
719,0.9439248307338901
720,15.690823469292294
619,2558.1169932773587
633,847.5522985623969
659,0.04156877563061442
661,91.4683251912218
690,80.2270431170368
716,0.0
843,1783.501406852045
844,1783.501406852045
907,0.0
908,0.0
971,0.0
972,0.0
1195,0.0
1197,0.0
2,1, 1,20, 0,17, 0.00,60.00,Monday
7,-1.7
718,19.7060738565774
719,0.5565635161780865
720,15.637749797729523
619,2753.225760877269
633,906.6648178034271
659,0.0445229304274848
661,83.75533959362338
690,85.92851281620318
716,0.0
843,1895.0336740051061
844,1895.0336740051061
907,0.0
908,0.0
971,0.0
972,0.0
1195,0.0
1197,0.0
2,1, 1,20, 0,18, 0.00,60.00,Monday
7,-2.8
718,19.67623674112575
719,-0.48476718288539167
720,15.585085656139992
619,3238.9243159124444
633,1077.0080783697326
659,0.05330637150016009
661,60.82270432255727
690,102.88026082934603
716,0.0
843,2218.9398258461297
844,2218.9398258461297
907,0.0
908,0.0
971,0.0
972,0.0
1195,0.0
1197,0.0
2,1, 1,20, 0,19, 0.00,60.00,Monday
7,-3.9
718,19.53563730701913
719,-1.293584199136427
720,15.522656190801616
619,4682.226056480423
633,1532.0063186603627
659,0.07660210846990867
661,0.0
690,147.8421184222697
716,85.44000000000005
843,2455.216416951278
844,2455.216416951278
907,0.0
908,0.0
971,0.0
972,0.0
1195,388.59561084637517
1197,388.59561084637517
2,1, 1,20, 0,20, 0.00,60.00,Monday
7,-3.9
718,19.62862948579495
719,-1.5687775945851683
720,15.437315313615745
619,4685.884523723047
633,1527.7036640965327
659,0.07660210846990867
661,0.0
690,147.8421184222697
716,85.44000000000005
843,2690.798097317762
844,2690.798097317762
907,0.0
908,0.0
971,0.0
972,0.0
1195,736.5769827309286
1197,736.5769827309286
2,1, 1,20, 0,21, 0.00,60.00,Monday
7,-4.4
718,19.664644491401926
719,-1.6966636735995317
720,15.353940374103274
619,4617.043352280494
633,1523.9342120493977
659,0.07660210846990867
661,0.0
690,147.8421184222697
716,63.362982625235034
843,2480.9865503736637
844,2480.9865503736637
907,0.0
908,0.0
971,0.0
972,0.0
1195,228.63074568310685
1197,228.63074568310685
2,1, 1,20, 0,22, 0.00,60.00,Monday
7,-5.0
718,19.70245868026691
719,-2.6831836090472696
720,15.246806957928348
619,4520.389163350696
633,1511.5222127041004
659,4.157798944534597
661,0.0
690,147.8421184222697
716,0.0
843,2996.5189954680773
844,2996.5189954680773
907,0.0
908,0.0
971,0.0
972,0.0
1195,74.42505416838776
1197,74.42505416838776
2,1, 1,20, 0,23, 0.00,60.00,Monday
7,-5.0
718,18.945328751947404
719,-2.9557081365950344
720,15.137914022436846
619,3691.756468528474
633,1261.877810611942
659,3.468502256022453
661,33.15680713316937
690,123.2415659359058
716,0.0
843,2345.357030076175
844,2345.357030076175
907,0.0
908,0.0
971,0.0
972,0.0
1195,0.0
1197,0.0
2,1, 1,20, 0,24, 0.00,60.00,Monday
7,-6.1
718,18.84324327983836
719,-2.3945826217060326
720,15.001935067204673
619,3588.776546589172
633,1232.8630212750786
659,13.861815468184727
661,31.14813806870458
690,124.40739246329687
716,0.0
843,2291.692335654383
844,2291.692335654383
907,0.0
908,0.0
971,0.0
972,0.0
1195,0.0
1197,0.0
2,2, 1,21, 0, 1, 0.00,60.00,Tuesday
7,-6.1
718,18.56117166820276
719,-3.154416732631379
720,14.88493212108635
619,4390.6687535692035
633,1470.6916508029333
659,6.1527197601356445
661,0.0
690,147.8421184222697
716,0.0
843,3284.835425508072
844,3284.835425508072
907,0.0
908,0.0
971,0.0
972,0.0
1195,526.8426356504528
1197,526.8426356504528
2,2, 1,21, 0, 2, 0.00,60.00,Tuesday
7,-6.1
718,18.591714327478506
719,-3.2185838805316447
720,14.755161771905227
619,4397.770672558208
633,1462.4896250173358
659,6.1527197601356445
661,0.0
690,147.8421184222697
716,0.0
843,3812.6705708290665
844,3812.6705708290665
907,0.0
908,0.0
971,0.0
972,0.0
1195,1173.0609360317208
1197,1173.0609360317208
2,2, 1,21, 0, 3, 0.00,60.00,Tuesday
7,-7.2
718,18.604956745726643
719,-1.6253438053314417
720,14.64046223954226
619,4209.191657840819
633,1433.3685929237656
659,18.561708655600658
661,0.0
690,147.8421184222697
716,0.0
843,3264.0984555837895
844,3264.0984555837895
907,0.0
908,0.0
971,0.0
972,0.0
1195,708.6694741950855
1197,708.6694741950855
2,2, 1,21, 0, 4, 0.00,60.00,Tuesday
7,-6.7
718,18.609156690526028
719,-1.9525695804634715
720,14.527713649836462
619,4198.554710075913
633,1415.012659568338
659,37.19339868376227
661,0.0
690,147.8421184222697
716,0.0
843,3397.394198246755
844,3397.394198246755
907,0.0
908,0.0
971,0.0
972,0.0
1195,796.3412549034283
1197,796.3412549034283
2,2, 1,21, 0, 5, 0.00,60.00,Tuesday
7,-6.7
718,18.608784104911752
719,-1.7173914675230675
720,14.415583415880365
619,4198.598545126605
633,1414.9623037155231
659,37.19339868376227
661,0.0
690,147.8421184222697
716,0.0
843,3404.0826720849836
844,3404.0826720849836
907,0.0
908,0.0
971,0.0
972,0.0
1195,822.2345343801885
1197,822.2345343801885
2,2, 1,21, 0, 6, 0.00,60.00,Tuesday
7,-6.7
718,19.374758538347514
719,-2.313886225206002
720,14.306898321779096
619,4317.557623720148
633,1454.7993855902612
659,6.90490361548466
661,0.0
690,147.8421184222697
716,0.0
843,4595.746040940707
844,4595.746040940707
907,0.0
908,0.0
971,0.0
972,0.0
1195,2116.714257477036
1197,2116.714257477036
2,2, 1,21, 0, 7, 0.00,60.00,Tuesday
7,-6.7
718,19.576638853037306
719,-1.5012905260007048
720,14.242176958399403
619,4318.1094187955705
633,1482.9375123835214
659,1.966992046968191
661,0.0
690,147.8421184222697
716,85.44000000000005
843,4250.577613947718
844,4250.577613947718
907,0.0
908,0.0
971,0.0
972,0.0
1195,2913.115797377639
1197,2913.115797377639
2,2, 1,21, 0, 8, 0.00,60.00,Tuesday
7,-6.7
718,19.651194983589452
719,-1.623743351483465
720,14.147736066491456
619,4313.168294091644
633,1488.6120305696984
659,1.966992046968191
661,0.0
690,147.8421184222697
716,85.44000000000005
843,3990.0019830831407
844,3990.0019830831407
907,0.0
908,0.0
971,0.0
972,0.0
1195,2691.457884148961
1197,2691.457884148961
2,2, 1,21, 0, 9, 0.00,60.00,Tuesday
7,-6.1
718,19.68931398209118
719,0.01163969741600837
720,14.065167508114213
619,4385.452761490898
633,1497.2959868141397
659,2.687756252814077
661,0.0
690,147.8421184222697
716,85.44000000000005
843,3695.1144210680177
844,3695.1144210680177
907,0.0
908,0.0
971,0.0
972,0.0
1195,2276.3047085269045
1197,2276.3047085269045
2,2, 1,21, 0,10, 0.00,60.00,Tuesday
7,-5.6
718,19.712339669909905
719,0.014851702171258621
720,13.981773198734244
619,4459.744950214479
633,1508.1958679972709
659,0.07660210846990867
661,0.0
690,147.8421184222697
716,25.46778117499751
843,3517.4413016900526
844,3517.4413016900526
907,0.0
908,0.0
971,0.0
972,0.0
1195,1022.3838551029821
1197,1022.3838551029821
2,2, 1,21, 0,11, 0.00,60.00,Tuesday
7,-5.6
718,19.720477402929077
719,2.0845042246155723
720,13.90430579127814
619,4459.27649533855
633,1508.7395368240054
659,0.07660210846990867
661,0.0
690,147.8421184222697
716,0.0
843,3117.3576709133886
844,3117.3576709133886
907,0.0
908,0.0
971,0.0
972,0.0
1195,217.53797457923747
1197,217.53797457923747
2,2, 1,21, 0,12, 0.00,60.00,Tuesday
7,-5.6
718,19.745834296357707
719,4.552351149157542
720,13.828041649723902
619,3984.535813017591
633,1366.4793834399811
659,17.94462021805168
661,15.655822646674999
690,135.76291032052276
716,0.0
843,2687.796702902213
844,2687.796702902213
907,0.0
908,0.0
971,0.0
972,0.0
1195,0.0
1197,0.0
2,2, 1,21, 0,13, 0.00,60.00,Tuesday
7,-6.0
718,19.7548161423422
719,6.464785579514342
720,13.763196962077856
619,3490.6740138342566
633,1222.367776098886
659,18.108798223196146
661,34.251673879834364
690,121.98899186738808
716,0.0
843,2436.186197959578
844,2436.186197959578
907,0.0
908,0.0
971,0.0
972,0.0
1195,0.0
1197,0.0
2,2, 1,21, 0,14, 0.00,60.00,Tuesday
7,-6.1
718,19.73223972711765
719,7.768741225436807
720,13.71962770164948
619,3251.6420858716046
633,1150.4303862799588
659,31.61312676013297
661,41.26480890748392
690,116.38456798047861
716,0.0
843,2330.143325694633
844,2330.143325694633
907,0.0
908,0.0
971,0.0
972,0.0
1195,0.0
1197,0.0
2,2, 1,21, 0,15, 0.00,60.00,Tuesday
7,-6.0
718,19.717981309351234
719,6.811943146168943
720,13.686818889996372
619,3181.984761574447
633,1125.530648495235
659,33.90665021994056
661,44.219268562921734
690,114.13935769590086
716,0.0
843,2325.802807484186
844,2325.802807484186
907,0.0
908,0.0
971,0.0
972,0.0
1195,0.0
1197,0.0
2,2, 1,21, 0,16, 0.00,60.00,Tuesday
7,-6.0
718,19.734223735933764
719,6.373840282336304
720,13.662961991281044
619,3220.5592399275524
633,1137.5399567335883
659,34.27916563073526
661,42.50778356547264
690,115.39344377989039
716,0.0
843,2318.1250297856004
844,2318.1250297856004
907,0.0
908,0.0
971,0.0
972,0.0
1195,0.0
1197,0.0
2,2, 1,21, 0,17, 0.00,60.00,Tuesday
7,-6.1
718,19.709500378032
719,3.8269067832979453
720,13.64014671862937
619,3288.1087659413465
633,1162.0696446456204
659,36.08931958383091
661,38.82866597914156
690,118.04652966990005
716,0.0
843,2352.7707699710736
844,2352.7707699710736
907,0.0
908,0.0
971,0.0
972,0.0
1195,0.0
1197,0.0
2,2, 1,21, 0,18, 0.00,60.00,Tuesday
7,-6.1
718,19.678707005816037
719,2.287438227483159
720,13.636647919148244
619,4289.600278580466
633,1465.6771135683796
659,26.654407265573656
661,0.0
690,147.8421184222697
716,66.56288801147467
843,2371.1252572022768
844,2371.1252572022768
907,0.0
908,0.0
971,0.0
972,0.0
1195,172.76091960705753
1197,172.76091960705753
2,2, 1,21, 0,19, 0.00,60.00,Tuesday
7,-6.1
718,19.753896833492448
719,0.4087517855664633
720,13.57662398483429
619,3573.7046830596155
633,1249.2323724501953
659,22.72705929113616
661,29.451866441476128
690,125.39184454994076
716,0.0
843,2403.249602401489
844,2403.249602401489
907,0.0
908,0.0
971,0.0
972,0.0
1195,0.0
1197,0.0
2,2, 1,21, 0,20, 0.00,60.00,Tuesday
7,-6.1
718,19.67502916479436
719,0.22105294721566285
720,13.562522290141215
619,4288.611049013677
633,1466.8354250867028
659,26.651783067842644
661,0.0
690,147.8421184222697
716,85.44000000000005
843,2307.8630546556906
844,2307.8630546556906
907,0.0
908,0.0
971,0.0
972,0.0
1195,717.4648788675804
1197,717.4648788675804
2,2, 1,21, 0,21, 0.00,60.00,Tuesday
7,-7.8
718,19.696899141901252
719,-1.056832909300819
720,13.489690530405605
619,4131.874094263151
633,1461.8460162084357
659,12.777056306819105
661,0.0
690,147.8421184222697
716,85.44000000000005
843,2691.375672984568
844,2691.375672984568
907,0.0
908,0.0
971,0.0
972,0.0
1195,1324.7640589671823
1197,1324.7640589671823
2,2, 1,21, 0,22, 0.00,60.00,Tuesday
7,-7.2
718,19.698920848609603
719,-3.1187116591102555
720,13.439330501312906
619,4237.646604399937
633,1480.8984832943247
659,4.597581077195698
661,0.0
690,147.8421184222697
716,66.01608619098549
843,3379.9436359019855
844,3379.9436359019855
907,0.0
908,0.0
971,0.0
972,0.0
1195,1685.3971711427275
1197,1685.3971711427275
2,2, 1,21, 0,23, 0.00,60.00,Tuesday
7,-7.2
718,18.961465420918962
719,-3.487265621655383
720,13.372218101252129
619,4237.663686268337
633,1480.8789739508547
659,4.597581077195698
661,0.0
690,147.8421184222697
716,0.0
843,2630.3223367466326
844,2630.3223367466326
907,0.0
908,0.0
971,0.0
972,0.0
1195,49.59031608832083
1197,49.59031608832083
2,2, 1,21, 0,24, 0.00,60.00,Tuesday
7,-7.0
718,18.721383566617234
719,-4.091483176832025
720,13.260316797106269
619,4255.475432968673
633,1453.5754206915765
659,11.253030044046142
661,0.0
690,147.8421184222697
716,0.0
843,3663.70304571182
844,3663.70304571182
907,0.0
908,0.0
971,0.0
972,0.0
1195,1230.9761711883357
1197,1230.9761711883357
2,3, 1,22, 0, 1, 0.00,60.00,Wednesday
7,-8.0
718,18.643035616192787
719,-4.38994511215658
720,13.16961360721556
619,4046.4422149372776
633,1403.2235251834015
659,35.13905517445026
661,0.0
690,147.8421184222697
716,0.0
843,3751.103871290725
844,3751.103871290725
907,0.0
908,0.0
971,0.0
972,0.0
1195,1550.5946012078666
1197,1550.5946012078666
2,3, 1,22, 0, 2, 0.00,60.00,Wednesday
7,-8.9
718,18.616612924890937
719,-5.499756784845404
720,13.068669414026326
619,4030.029472356513
633,1421.8324205927067
659,10.692297336501085
661,0.0
690,147.8421184222697
716,0.0
843,4264.124347596731
844,4264.124347596731
907,0.0
908,0.0
971,0.0
972,0.0
1195,2199.841760068659
1197,2199.841760068659
2,3, 1,22, 0, 3, 0.00,60.00,Wednesday
7,-10.0
718,18.603062024436127
719,-6.173723277714857
720,12.965997278185144
619,3935.5656694810177
633,1420.946757529092
659,0.07660210846990867
661,0.0
690,147.8421184222697
716,0.0
843,5286.547104785053
844,5286.547104785053
907,0.0
908,0.0
971,0.0
972,0.0
1195,3572.0435062372435
1197,3572.0435062372435
2,3, 1,22, 0, 4, 0.00,60.00,Wednesday
7,-10.6
718,18.6115238901488
719,-6.422373502520061
720,12.870014179764992
619,3863.8378916066263
633,1412.9090387504027
659,0.07660210846990867
661,0.0
690,147.8421184222697
716,0.0
843,4360.302614022443
844,4360.302614022443
907,0.0
908,0.0
971,0.0
972,0.0
1195,2582.8364477221785
1197,2582.8364477221785
2,3, 1,22, 0, 5, 0.00,60.00,Wednesday
7,-10.6
718,18.605816066119136
719,-6.557860520964127
720,12.768915891037903
619,3863.761245217561
633,1412.993147123446
659,0.07660210846990867
661,0.0
690,147.8421184222697
716,0.0
843,4372.057804935217
844,4372.057804935217
907,0.0
908,0.0
971,0.0
972,0.0
1195,2603.332011771346
1197,2603.332011771346
2,3, 1,22, 0, 6, 0.00,60.00,Wednesday
7,-11.7
718,19.163771509399094
719,-7.702672408491196
720,12.645857921183039
619,3733.8384453548897
633,1398.5425520109984
659,0.07660210846990867
661,0.0
690,147.8421184222697
716,76.39731432409478
843,7760.799885469267
844,7760.799885469267
907,0.0
908,0.0
971,0.0
972,0.0
1195,7470.376172357884
1197,7470.376172357884
2,3, 1,22, 0, 7, 0.00,60.00,Wednesday
7,-11.7
718,19.49561024424881
719,-7.717552013568344
720,12.575571897798367
619,3720.5993150895492
633,1412.8053019219335
659,0.07660210846990867
661,0.0
690,147.8421184222697
716,85.44000000000005
843,6940.887021372237
844,6940.887021372237
907,0.0
908,0.0
971,0.0
972,0.0
1195,7115.945760998673
1197,7115.945760998673
2,3, 1,22, 0, 8, 0.00,60.00,Wednesday
7,-11.7
718,19.620484713704357
719,-7.899479905206798
720,12.482288854303773
619,3712.6819197615873
633,1421.3106862451284
659,0.07660210846990867
661,0.0
690,147.8421184222697
716,81.37433734856897
843,6726.495534882852
844,6726.495534882852
907,0.0
908,0.0
971,0.0
972,0.0
1195,6882.050494443407
1197,6882.050494443407
2,3, 1,22, 0, 9, 0.00,60.00,Wednesday
7,-11.7
718,19.68272658640399
719,-8.022664390325247
720,12.384735827469633
619,3709.7993062066826
633,1424.4027157580006
659,0.07660210846990867
661,0.0
690,147.8421184222697
716,0.0
843,6809.3228057183205
844,6809.3228057183205
907,0.0
908,0.0
971,0.0
972,0.0
1195,5865.271897472889
1197,5865.271897472889
2,3, 1,22, 0,10, 0.00,60.00,Wednesday
7,-10.6
718,19.70570199596384
719,-7.335859589904204
720,12.29029210799729
619,3838.656174837419
633,1440.471261858423
659,0.07660210846990867
661,0.0
690,147.8421184222697
716,0.0
843,6721.345440609202
844,6721.345440609202
907,0.0
908,0.0
971,0.0
972,0.0
1195,5691.618981031177
1197,5691.618981031177
2,3, 1,22, 0,11, 0.00,60.00,Wednesday
7,-10.6
718,19.70755241008188
719,-6.998040564496024
720,12.204784250181774
619,3838.2277495275575
633,1440.9388857081456
659,0.07660210846990867
661,0.0
690,147.8421184222697
716,0.0
843,6098.14110743253
844,6098.14110743253
907,0.0
908,0.0
971,0.0
972,0.0
1195,4884.237820893032
1197,4884.237820893032
2,3, 1,22, 0,12, 0.00,60.00,Wednesday
7,-9.4
718,19.720840079634456
719,-5.385667280230335
720,12.153079671090563
619,3983.111791095541
633,1456.7087952511993
659,0.07660210846990867
661,0.0
690,147.8421184222697
716,0.0
843,4908.316908725454
844,4908.316908725454
907,0.0
908,0.0
971,0.0
972,0.0
1195,3298.5939801422987
1197,3298.5939801422987
2,3, 1,22, 0,13, 0.00,60.00,Wednesday
7,-8.9
718,19.718148908396234
719,-4.828449796724016
720,12.104749094920844
619,4044.097817859112
633,1463.5254813339307
659,0.07660210846990867
661,0.0
690,147.8421184222697
716,0.0
843,4214.167248403786
844,4214.167248403786
907,0.0
908,0.0
971,0.0
972,0.0
1195,2298.575377280162
1197,2298.575377280162
2,3, 1,22, 0,14, 0.00,60.00,Wednesday
7,-8.9
718,19.71872845495149
719,-4.800687190446446
720,12.061495553272744
619,4044.2322124274733
633,1463.3751238675438
659,0.07660210846990867
661,0.0
690,147.8421184222697
716,0.0
843,4324.983129432536
844,4324.983129432536
907,0.0
908,0.0
971,0.0
972,0.0
1195,2409.8837857048575
1197,2409.8837857048575
2,3, 1,22, 0,15, 0.00,60.00,Wednesday
7,-9.4
718,19.70920932954223
719,-5.062275635546018
720,12.01823473142677
619,3983.0248720551626
633,1456.805376004207
659,0.07660210846990867
661,0.0
690,147.8421184222697
716,76.34324407917234
843,5008.9315621099195
844,5008.9315621099195
907,0.0
908,0.0
971,0.0
972,0.0
1195,4239.659602532542
1197,4239.659602532542
2,3, 1,22, 0,16, 0.00,60.00,Wednesday
7,-10.0
718,19.700272574331148
719,-5.61915937681848
720,11.977013812789046
619,3910.481162661567
633,1448.6440373561352
659,0.07660210846990867
661,0.0
690,147.8421184222697
716,85.44000000000005
843,5183.048345375948
844,5183.048345375948
907,0.0
908,0.0
971,0.0
972,0.0
1195,4687.463826267813
1197,4687.463826267813
2,3, 1,22, 0,17, 0.00,60.00,Wednesday
7,-10.0
718,19.70815361183265
719,-6.177716972475214
720,11.935930762701547
619,3910.756797066667
633,1448.3403940076334
659,0.07660210846990867
661,0.0
690,147.8421184222697
716,10.58918437022703
843,5275.268048592754
844,5275.268048592754
907,0.0
908,0.0
971,0.0
972,0.0
1195,3856.806697791874
1197,3856.806697791874
2,3, 1,22, 0,18, 0.00,60.00,Wednesday
7,-10.6
718,19.716116651568726
719,-6.715303061437928
720,11.885231800114479
619,3838.532793856887
633,1440.6059362071735
659,0.07660210846990867
661,0.0
690,147.8421184222697
716,0.0
843,5011.451112485536
844,5011.451112485536
907,0.0
908,0.0
971,0.0
972,0.0
1195,3519.005265233892
1197,3519.005265233892
2,3, 1,22, 0,19, 0.00,60.00,Wednesday
7,-11.1
718,19.714352520890923
719,-7.031695018850151
720,11.828789431313895
619,3778.9113841375715
633,1434.1211408549707
659,0.07660210846990867
661,0.0
690,147.8421184222697
716,0.0
843,4615.4645290242115
844,4615.4645290242115
907,0.0
908,0.0
971,0.0
972,0.0
1195,3119.9764103951447
1197,3119.9764103951447
2,3, 1,22, 0,20, 0.00,60.00,Wednesday
7,-11.1
718,19.69929748959014
719,-7.049484352186045
720,11.767291990336307
619,3779.0322688137826
633,1433.9902570405916
659,0.07660210846990867
661,0.0
690,147.8421184222697
716,85.44000000000005
843,4584.484937757206
844,4584.484937757206
907,0.0
908,0.0
971,0.0
972,0.0
1195,4310.230109736629
1197,4310.230109736629
2,3, 1,22, 0,21, 0.00,60.00,Wednesday
7,-12.0
718,19.70782752780858
719,-7.633763983572407
720,11.694033632445178
619,3647.233067083503
633,1411.178259735386
659,8.06827549451171
661,0.0
690,147.8421184222697
716,85.44000000000005
843,3917.446062330935
844,3917.446062330935
907,0.0
908,0.0
971,0.0
972,0.0
1195,3619.2148349009076
1197,3619.2148349009076
2,3, 1,22, 0,22, 0.00,60.00,Wednesday
7,-12.0
718,19.710148511905246
719,-6.650674737573183
720,11.627680886061357
619,3603.3499939719554
633,1394.4126570884387
659,21.255127670053618
661,0.0
690,147.8421184222697
716,40.40473875633503
843,4050.635343732987
844,4050.635343732987
907,0.0
908,0.0
971,0.0
972,0.0
1195,3189.7484273173773
1197,3189.7484273173773
2,3, 1,22, 0,23, 0.00,60.00,Wednesday
7,-12.8
718,18.93691987937895
719,-7.108541479709085
720,11.543167332494251
619,3525.56348558048
633,1388.6660383462315
659,17.271708245814608
661,0.0
690,147.8421184222697
716,0.0
843,3946.9550732494754
844,3946.9550732494754
907,0.0
908,0.0
971,0.0
972,0.0
1195,2584.6733976144264
1197,2584.6733976144264
2,3, 1,22, 0,24, 0.00,60.00,Wednesday
7,-13.0
718,18.71351925722367
719,-7.234803889740312
720,11.43319575992754
619,3537.2408684367647
633,1372.9420756021395
659,12.33065150709629
661,0.0
690,147.8421184222697
716,0.0
843,3854.443209127825
844,3854.443209127825
907,0.0
908,0.0
971,0.0
972,0.0
1195,2421.7667461709343
1197,2421.7667461709343
2,4, 1,23, 0, 1, 0.00,60.00,Thursday
7,-14.0
718,18.633429574227108
719,-7.3942915732764405
720,11.339258662431916
619,3417.0962365401065
633,1348.796064886512
659,16.5869888824086
661,0.0
690,147.8421184222697
716,0.0
843,4496.749061761275
844,4496.749061761275
907,0.0
908,0.0
971,0.0
972,0.0
1195,3289.1389145021517
1197,3289.1389145021517
2,4, 1,23, 0, 2, 0.00,60.00,Thursday
7,-13.9
718,18.612660361288924
719,-6.843992833656892
720,11.253428061474064
619,3435.2065161976025
633,1350.046164929658
659,14.98272468908772
661,0.0
690,147.8421184222697
716,0.0
843,4806.723970870398
844,4806.723970870398
907,0.0
908,0.0
971,0.0
972,0.0
1195,3661.092399948239
1197,3661.092399948239
2,4, 1,23, 0, 3, 0.00,60.00,Thursday
7,-14.0
718,18.602897285696162
719,-7.28967909556044
720,11.165270972005114
619,3438.252819060328
633,1353.450217192867
659,10.656277775658834
661,0.0
690,147.8421184222697
716,0.0
843,5013.077461215531
844,5013.077461215531
907,0.0
908,0.0
971,0.0
972,0.0
1195,3857.4219801948393
1197,3857.4219801948393
2,4, 1,23, 0, 4, 0.00,60.00,Thursday
7,-14.0
718,18.60479953838519
719,-6.385680408082043
720,11.08192477983005
619,3419.995266550447
633,1345.7923815405318
659,16.5869888824086
661,0.0
690,147.8421184222697
716,0.0
843,5019.100592842178
844,5019.100592842178
907,0.0
908,0.0
971,0.0
972,0.0
1195,3922.9409970337633
1197,3922.9409970337633
2,4, 1,23, 0, 5, 0.00,60.00,Thursday
7,-13.9
718,18.60144547769693
719,-6.498366295141432
720,11.000659468272977
619,3428.248355990675
633,1345.8935274905498
659,17.511271455557306
661,0.0
690,147.8421184222697
716,0.0
843,5016.962247958134
844,5016.962247958134
907,0.0
908,0.0
971,0.0
972,0.0
1195,3849.736252072279
1197,3849.736252072279
2,4, 1,23, 0, 6, 0.00,60.00,Thursday
7,-16.7
718,19.3820869075901
719,-5.996001616753582
720,10.899091468397637
619,3141.532074997896
633,1314.0314782557568
659,12.171102943193674
661,0.0
690,147.8421184222697
716,0.0
843,6518.313857344907
844,6518.313857344907
907,0.0
908,0.0
971,0.0
972,0.0
1195,5962.382445797789
1197,5962.382445797789
2,4, 1,23, 0, 7, 0.00,60.00,Thursday
7,-16.0
718,19.576061857388364
719,-6.730810335832729
720,10.86518885413566
619,3198.292479119593
633,1341.7066309461145
659,12.065025727637538
661,0.0
690,147.8421184222697
716,85.44000000000005
843,6497.392651465136
844,6497.392651465136
907,0.0
908,0.0
971,0.0
972,0.0
1195,7080.057209590868
1197,7080.057209590868
2,4, 1,23, 0, 8, 0.00,60.00,Thursday
7,-16.7
718,19.64705098141367
719,-7.163954191733061
720,10.785137965269511
619,3119.258446649446
633,1335.7093118515788
659,12.162829829128647
661,0.0
690,147.8421184222697
716,85.44000000000005
843,6474.461459946508
844,6474.461459946508
907,0.0
908,0.0
971,0.0
972,0.0
1195,7281.465747536149
1197,7281.465747536149
2,4, 1,23, 0, 9, 0.00,60.00,Thursday
7,-17.0
718,19.683826390134502
719,-6.516110639323583
720,10.715711510689262
619,3103.639703376968
633,1340.2919907559346
659,5.96280070961474
661,0.0
690,147.8421184222697
716,85.44000000000005
843,5711.857103943303
844,5711.857103943303
907,0.0
908,0.0
971,0.0
972,0.0
1195,6254.10861745946
1197,6254.10861745946
2,4, 1,23, 0,10, 0.00,60.00,Thursday
7,-18.0
718,19.714878066042992
719,-4.325115445016055
720,10.646573711567438
619,3001.313435187466
633,1327.0057943752638
659,4.954023483234302
661,0.0
690,147.8421184222697
716,16.862880643122974
843,4789.909561571689
844,4789.909561571689
907,0.0
908,0.0
971,0.0
972,0.0
1195,4333.806544339368
1197,4333.806544339368
2,4, 1,23, 0,11, 0.00,60.00,Thursday