Program Version,EnergyPlus, Version 22.2.0-c249759bad, YMD=2023.07.31 20:00
1,5,Environment Title[],Latitude[deg],Longitude[deg],Time Zone[],Elevation[m]
2,8,Day of Simulation[],Month[],Day of Month[],DST Indicator[1=yes 0=no],Hour[],StartMinute[],EndMinute[],DayType
3,5,Cumulative Day of Simulation[],Month[],Day of Month[],DST Indicator[1=yes 0=no],DayType  ! When Daily Report Variables Requested
4,2,Cumulative Days of Simulation[],Month[]  ! When Monthly Report Variables Requested
5,1,Cumulative Days of Simulation[] ! When Run Period Report Variables Requested
6,1,Calendar Year of Simulation[] ! When Annual Report Variables Requested
581,11,LIVING,AFN Zone Infiltration Air Change Rate [ach] !RunPeriod [Value,Min,Month,Day,Hour,Minute,Max,Month,Day,Hour,Minute]
582,11,ATTIC,AFN Zone Infiltration Air Change Rate [ach] !RunPeriod [Value,Min,Month,Day,Hour,Minute,Max,Month,Day,Hour,Minute]
583,11,CRAWLSPACE,AFN Zone Infiltration Air Change Rate [ach] !RunPeriod [Value,Min,Month,Day,Hour,Minute,Max,Month,Day,Hour,Minute]
1038,11,Facility,Facility Heating Setpoint Not Met Time [hr] !RunPeriod [Value,Min,Month,Day,Hour,Minute,Max,Month,Day,Hour,Minute]
1039,11,Facility,Facility Cooling Setpoint Not Met Time [hr] !RunPeriod [Value,Min,Month,Day,Hour,Minute,Max,Month,Day,Hour,Minute]
1127,11,HEATING_FUEL_MAIN,Heating Coil Electricity Energy [J] !RunPeriod [Value,Min,Month,Day,Hour,Minute,Max,Month,Day,Hour,Minute]
13,11,Electricity:Facility [J] !RunPeriod [Value,Min,Month,Day,Hour,Minute,Max,Month,Day,Hour,Minute]
1133,11,Heating:Electricity [J] !RunPeriod [Value,Min,Month,Day,Hour,Minute,Max,Month,Day,Hour,Minute]
1172,11,Cooling:Electricity [J] !RunPeriod [Value,Min,Month,Day,Hour,Minute,Max,Month,Day,Hour,Minute]
562,11,Fans:Electricity [J] !RunPeriod [Value,Min,Month,Day,Hour,Minute,Max,Month,Day,Hour,Minute]
1422,11,Pumps:Electricity [J] !RunPeriod [Value,Min,Month,Day,Hour,Minute,Max,Month,Day,Hour,Minute]
1394,11,WaterSystems:Electricity [J] !RunPeriod [Value,Min,Month,Day,Hour,Minute,Max,Month,Day,Hour,Minute]
61,11,InteriorLights:Electricity [J] !RunPeriod [Value,Min,Month,Day,Hour,Minute,Max,Month,Day,Hour,Minute]
1046,11,ExteriorLights:Electricity [J] !RunPeriod [Value,Min,Month,Day,Hour,Minute,Max,Month,Day,Hour,Minute]
134,11,InteriorEquipment:Electricity [J] !RunPeriod [Value,Min,Month,Day,Hour,Minute,Max,Month,Day,Hour,Minute]
170,11,gas_dryer:InteriorEquipment:Electricity [J] !RunPeriod [Value,Min,Month,Day,Hour,Minute,Max,Month,Day,Hour,Minute]
207,11,clotheswasher:InteriorEquipment:Electricity [J] !RunPeriod [Value,Min,Month,Day,Hour,Minute,Max,Month,Day,Hour,Minute]
244,11,dishwasher:InteriorEquipment:Electricity [J] !RunPeriod [Value,Min,Month,Day,Hour,Minute,Max,Month,Day,Hour,Minute]
281,11,refrigerator:InteriorEquipment:Electricity [J] !RunPeriod [Value,Min,Month,Day,Hour,Minute,Max,Month,Day,Hour,Minute]
318,11,electric_mels:InteriorEquipment:Electricity [J] !RunPeriod [Value,Min,Month,Day,Hour,Minute,Max,Month,Day,Hour,Minute]
355,11,NaturalGas:Facility [J] !RunPeriod [Value,Min,Month,Day,Hour,Minute,Max,Month,Day,Hour,Minute]
1108,11,Heating:NaturalGas [J] !RunPeriod [Value,Min,Month,Day,Hour,Minute,Max,Month,Day,Hour,Minute]
1357,11,WaterSystems:NaturalGas [J] !RunPeriod [Value,Min,Month,Day,Hour,Minute,Max,Month,Day,Hour,Minute]
403,11,InteriorEquipment:NaturalGas [J] !RunPeriod [Value,Min,Month,Day,Hour,Minute,Max,Month,Day,Hour,Minute]
476,11,gas_dryer:InteriorEquipment:NaturalGas [J] !RunPeriod [Value,Min,Month,Day,Hour,Minute,Max,Month,Day,Hour,Minute]
513,11,gas_mels:InteriorEquipment:NaturalGas [J] !RunPeriod [Value,Min,Month,Day,Hour,Minute,Max,Month,Day,Hour,Minute]
End of Data Dictionary
1,EXTREME_WINTER,  39.12, -94.60,  -6.00, 231.00
5,7
1038,36.333333333333336,0.0, 1,13, 1,10,0.16666666666666666, 1,13, 3,60
1039,0.0,0.0, 1,13, 1,10,0.0, 1,13, 1,10
581,0.32103433161897965,0.16331033008477094, 1,19,20,43,0.6270545885524196, 1,18,15,60
582,3.6430573438134695,0.0, 1,17, 5,60,13.545401552661206, 1,18,15,10
583,4.984455339170583,0.00014261985415686297, 1,19,18,52,17.306705208489017, 1,18,15,60
1127,0.0,0.0, 1,13, 1, 2,0.0, 1,13, 1, 2
13,441620919.0120701,162086.7428392159, 1,19, 1,10,1033436.8235573475, 1,15,21,60
61,301924526.0238348,58759.40635443481, 1,13, 1,10,854682.2742463244, 1,13,20,10
134,70666020.44019979,42376.01200569399, 1,13, 4,10,104369.48322671017, 1,18,20,10
170,5241013.419656074,232.27731661587313, 1,13, 4,10,11650.931360040839, 1,18,12,10
207,6509451.13922266,543.5021409221355, 1,13, 3,10,15327.095199349082, 1,18,10,10
244,12749673.39982522,1014.5707620042115, 1,13, 4,10,35359.08742820678, 1,18,20,10
281,46165882.48149605,39959.06841621388, 1,13, 5,10,54634.54471212738, 1,13,19,10
318,0.0,0.0, 1,13, 1,10,0.0, 1,13, 1,10
355,3600929764.2505765,161027.08588691714, 1,18,23,10,8226064.826472084, 1,15, 8,10
403,197687796.27748126,12374.216038804521, 1,13, 4,10,483183.26346918393, 1,18,18,10
476,106772067.24485692,4732.048419519677, 1,13, 4,10,237357.535085481, 1,18,12,10
513,0.0,0.0, 1,13, 1,10,0.0, 1,13, 1,10
562,64010532.54803469,0.0, 1,18,16,20,97711.5430604892, 1,13, 3,40
1046,0.0,0.0, 1,13, 1,10,0.0, 1,13, 1,10
1108,3068142897.759269,0.0, 1,18,16,20,4683494.495927969, 1,13, 3,40
1133,0.0,0.0, 1,13, 1,10,0.0, 1,13, 1,10
1172,0.0,0.0, 1,13, 1,10,0.0, 1,13, 1,10
1357,335099070.2138185,0.0, 1,13, 1,10,3375000.0000000005, 1,13,14,40
1394,5019840.0,4980.0, 1,13, 1,20,4980.000000000002, 1,16,19,50
1422,0.0,0.0, 1,13, 1,10,0.0, 1,13, 1,10
1,EXTREME_SUMMER,  39.12, -94.60,  -6.00, 231.00
5,7
1038,0.0,0.0, 8,24, 1,10,0.0, 8,24, 1,10
1039,64.33333333333333,0.0, 8,24, 1,10,0.16666666666666666, 8,24,13,50
581,0.12711695198831593,0.0, 8,28, 4,45,0.3095253948517237, 8,27,16,53
582,3.5767250249813225,0.3233213169972256, 8,29, 6,30,8.382810525167619, 8,28,15,53
583,4.7206546089317465,0.0, 8,28, 6, 7,10.08104384808759, 8,27,10,54
1127,0.0,0.0, 8,24, 1,10,0.0, 8,24, 1,10
13,1078536781.7082312,223794.06405292923, 8,28, 4,60,2020160.684127014, 8,30,20,10
61,301924526.0238348,58759.40635443481, 8,24, 1,10,854682.2742463244, 8,24,20,10
134,70666020.44019979,42376.01200569399, 8,24, 4,10,104369.48322671017, 8,29,20,10
170,5241013.419656074,232.27731661587313, 8,24, 4,10,11650.931360040839, 8,29,12,10
207,6509451.13922266,543.5021409221355, 8,24, 3,10,15327.095199349082, 8,29,10,10
244,12749673.39982522,1014.5707620042115, 8,24, 4,10,35359.08742820678, 8,29,20,10
281,46165882.48149605,39959.06841621388, 8,24, 5,10,54634.54471212738, 8,24,19,10
318,0.0,0.0, 8,24, 1,10,0.0, 8,24, 1,10
355,455755785.51754445,12374.216038804521, 8,24, 4,10,3858183.263469184, 8,29,18,60
403,197687796.27748126,12374.216038804521, 8,24, 4,10,483183.26346918393, 8,29,18,10
476,106772067.24485692,4732.048419519677, 8,24, 4,10,237357.535085481, 8,29,12,10
513,0.0,0.0, 8,24, 1,10,0.0, 8,24, 1,10
562,67891954.31390513,12275.684985575634, 8,28, 5,60,97711.5430604892, 8,24,13,30
1046,0.0,0.0, 8,24, 1,10,0.0, 8,24, 1,10
1108,0.0,0.0, 8,24, 1,10,0.0, 8,24, 1,10
1133,0.0,0.0, 8,24, 1,10,0.0, 8,24, 1,10
1172,633034440.9302896,98157.19752445149, 8,28, 5,60,1048951.1375220988, 8,30,16,60
1357,258067989.2400645,0.0, 8,24, 1,10,3375000.0, 8,24, 7,60
1394,5019840.0,4980.0, 8,24, 1,10,4980.000000000001, 8,24, 8,40
1422,0.0,0.0, 8,24, 1,10,0.0, 8,24, 1,10
1,ANNUAL,  39.12, -94.60,  -6.00, 231.00
5,365
1038,191.66666666666646,0.0, 1, 1, 1,10,0.16666666666666666, 1, 1, 6,10
1039,470.0,0.0, 1, 1, 1,10,0.16666666666666666, 2,17,15,60
581,0.21443804591506327,0.0, 3,17,19,53,1.1406844741291775, 6,27, 5,60
582,3.9123651687508354,0.0, 1, 1,19,55,23.368552915740118, 2,10,17,55
583,4.748659981668854,0.0, 5,27,23, 3,26.99031534554188, 6,19, 1,55
1127,0.0,0.0, 1, 1, 1, 2,0.0, 1, 1, 1, 2
13,31829186304.270493,106115.4183601288, 2, 7, 4,10,2037948.7649658395, 7, 9,20,10
61,15743207428.39043,58759.40635443481, 1, 1, 1,10,854682.2742463244, 1, 1,20,10
134,3685071073.433083,42376.01200569399, 1, 2, 4,10,104369.48322671017, 1, 1,20,10
170,273393721.45534325,232.27731661587313, 1, 2, 4,10,11650.931360040839, 1, 1,12,10
207,339560869.06955314,543.5021409221355, 1, 2, 3,10,15327.095199349082, 1, 1,10,10
244,664895467.8009839,1014.5707620042115, 1, 2, 4,10,35359.08742820678, 1, 1,20,10
281,2407221015.1057043,39959.06841621388, 1, 1, 5,10,54634.54471212738, 1, 1,19,10
318,0.0,0.0, 1, 1, 1,10,0.0, 1, 1, 1,10
355,53672883068.173065,12374.216038804521, 2, 7, 4,10,8361748.412450559, 1,15,10,10
403,10310294493.052883,12374.216038804521, 1, 2, 4,10,483183.26346918393, 1, 1,18,10
476,5569688622.065564,4732.048419519677, 1, 2, 4,10,237357.535085481, 1, 1,12,10
513,0.0,0.0, 1, 1, 1,10,0.0, 1, 1, 1,10
562,1813689855.8780456,0.0, 1, 1,11,60,97711.54306048922, 6,18,19,40
1046,0.0,0.0, 1, 1, 1,10,0.0, 1, 1, 1,10
1108,27699073835.338974,0.0, 1, 1,11,60,4683494.495927969, 1, 8, 6,10
1133,0.0,0.0, 1, 1, 1,10,0.0, 1, 1, 1,10
1172,10325469146.574419,0.0, 1, 1, 1,10,1050472.2294083878, 8,30,16,60
1357,15663514739.782478,0.0, 1, 1, 1,10,3375000.000000002, 1,22,20,50
1394,261748800.0,4979.999999999998, 4,12, 9,20,4980.000000000002, 1,19,17,40
1422,0.0,0.0, 1, 1, 1,10,0.0, 1, 1, 1,10
End of Data
 Number of Records Written=          78
