Program Version,EnergyPlus, Version 22.2.0-c249759bad, YMD=2023.09.01 20:24
1,5,Environment Title[],Latitude[deg],Longitude[deg],Time Zone[],Elevation[m]
2,8,Day of Simulation[],Month[],Day of Month[],DST Indicator[1=yes 0=no],Hour[],StartMinute[],EndMinute[],DayType
3,5,Cumulative Day of Simulation[],Month[],Day of Month[],DST Indicator[1=yes 0=no],DayType  ! When Daily Report Variables Requested
4,2,Cumulative Days of Simulation[],Month[]  ! When Monthly Report Variables Requested
5,1,Cumulative Days of Simulation[] ! When Run Period Report Variables Requested
6,1,Calendar Year of Simulation[] ! When Annual Report Variables Requested
581,11,LIVING,AFN Zone Infiltration Air Change Rate [ach] !RunPeriod [Value,Min,Month,Day,Hour,Minute,Max,Month,Day,Hour,Minute]
582,11,ATTIC,AFN Zone Infiltration Air Change Rate [ach] !RunPeriod [Value,Min,Month,Day,Hour,Minute,Max,Month,Day,Hour,Minute]
583,11,CRAWLSPACE,AFN Zone Infiltration Air Change Rate [ach] !RunPeriod [Value,Min,Month,Day,Hour,Minute,Max,Month,Day,Hour,Minute]
1038,11,Facility,Facility Heating Setpoint Not Met Time [hr] !RunPeriod [Value,Min,Month,Day,Hour,Minute,Max,Month,Day,Hour,Minute]
1039,11,Facility,Facility Cooling Setpoint Not Met Time [hr] !RunPeriod [Value,Min,Month,Day,Hour,Minute,Max,Month,Day,Hour,Minute]
1115,11,DX_HEATING_COIL,Heating Coil Heating Energy [J] !RunPeriod [Value,Min,Month,Day,Hour,Minute,Max,Month,Day,Hour,Minute]
1128,11,DX_HEATING_COIL,Heating Coil Electricity Energy [J] !RunPeriod [Value,Min,Month,Day,Hour,Minute,Max,Month,Day,Hour,Minute]
1153,11,DX_HEATING_COIL,Heating Coil Defrost Electricity Energy [J] !RunPeriod [Value,Min,Month,Day,Hour,Minute,Max,Month,Day,Hour,Minute]
1154,11,DX_HEATING_COIL,Heating Coil Crankcase Heater Electricity Energy [J] !RunPeriod [Value,Min,Month,Day,Hour,Minute,Max,Month,Day,Hour,Minute]
1155,11,HEATING_RESISTANCE_BACKUP,Heating Coil Heating Energy [J] !RunPeriod [Value,Min,Month,Day,Hour,Minute,Max,Month,Day,Hour,Minute]
1156,11,HEATING_RESISTANCE_BACKUP,Heating Coil Electricity Energy [J] !RunPeriod [Value,Min,Month,Day,Hour,Minute,Max,Month,Day,Hour,Minute]
1292,11,WATER HEATER,Water Heater Heat Loss Energy [J] !RunPeriod [Value,Min,Month,Day,Hour,Minute,Max,Month,Day,Hour,Minute]
1306,11,WATER HEATER,Water Heater Heating Energy [J] !RunPeriod [Value,Min,Month,Day,Hour,Minute,Max,Month,Day,Hour,Minute]
1307,11,WATER HEATER,Water Heater Unmet Demand Heat Transfer Energy [J] !RunPeriod [Value,Min,Month,Day,Hour,Minute,Max,Month,Day,Hour,Minute]
1308,11,WATER HEATER,Water Heater Electricity Energy [J] !RunPeriod [Value,Min,Month,Day,Hour,Minute,Max,Month,Day,Hour,Minute]
13,11,Electricity:Facility [J] !RunPeriod [Value,Min,Month,Day,Hour,Minute,Max,Month,Day,Hour,Minute]
1134,11,Heating:Electricity [J] !RunPeriod [Value,Min,Month,Day,Hour,Minute,Max,Month,Day,Hour,Minute]
1096,11,Cooling:Electricity [J] !RunPeriod [Value,Min,Month,Day,Hour,Minute,Max,Month,Day,Hour,Minute]
562,11,Fans:Electricity [J] !RunPeriod [Value,Min,Month,Day,Hour,Minute,Max,Month,Day,Hour,Minute]
1379,11,Pumps:Electricity [J] !RunPeriod [Value,Min,Month,Day,Hour,Minute,Max,Month,Day,Hour,Minute]
1326,11,WaterSystems:Electricity [J] !RunPeriod [Value,Min,Month,Day,Hour,Minute,Max,Month,Day,Hour,Minute]
61,11,InteriorLights:Electricity [J] !RunPeriod [Value,Min,Month,Day,Hour,Minute,Max,Month,Day,Hour,Minute]
1046,11,ExteriorLights:Electricity [J] !RunPeriod [Value,Min,Month,Day,Hour,Minute,Max,Month,Day,Hour,Minute]
134,11,InteriorEquipment:Electricity [J] !RunPeriod [Value,Min,Month,Day,Hour,Minute,Max,Month,Day,Hour,Minute]
170,11,gas_dryer:InteriorEquipment:Electricity [J] !RunPeriod [Value,Min,Month,Day,Hour,Minute,Max,Month,Day,Hour,Minute]
207,11,clotheswasher:InteriorEquipment:Electricity [J] !RunPeriod [Value,Min,Month,Day,Hour,Minute,Max,Month,Day,Hour,Minute]
244,11,dishwasher:InteriorEquipment:Electricity [J] !RunPeriod [Value,Min,Month,Day,Hour,Minute,Max,Month,Day,Hour,Minute]
281,11,refrigerator:InteriorEquipment:Electricity [J] !RunPeriod [Value,Min,Month,Day,Hour,Minute,Max,Month,Day,Hour,Minute]
318,11,electric_mels:InteriorEquipment:Electricity [J] !RunPeriod [Value,Min,Month,Day,Hour,Minute,Max,Month,Day,Hour,Minute]
355,11,NaturalGas:Facility [J] !RunPeriod [Value,Min,Month,Day,Hour,Minute,Max,Month,Day,Hour,Minute]
403,11,InteriorEquipment:NaturalGas [J] !RunPeriod [Value,Min,Month,Day,Hour,Minute,Max,Month,Day,Hour,Minute]
476,11,gas_dryer:InteriorEquipment:NaturalGas [J] !RunPeriod [Value,Min,Month,Day,Hour,Minute,Max,Month,Day,Hour,Minute]
513,11,gas_mels:InteriorEquipment:NaturalGas [J] !RunPeriod [Value,Min,Month,Day,Hour,Minute,Max,Month,Day,Hour,Minute]
End of Data Dictionary
1,EXTREME_WINTER,  39.67, -75.60,  -5.00,  23.00
5,7
1038,1.0,0.0, 1, 8, 1,15,0.25, 1, 8, 6,15
1039,0.0,0.0, 1, 8, 1,15,0.0, 1, 8, 1,15
581,0.3939337176753276,0.18838912333585633, 1,11,23,22,0.8227804335016687, 1, 8, 1,50
582,4.64311436848293,0.0, 1, 9,23,60,16.77401698553915, 1, 8, 1,50
583,0.04932007000018847,0.00040209966965163053, 1,11,23,22,0.0799474139586356, 1, 8, 1,50
1115,1718222567.8999548,0.0, 1, 8,23, 5,4404036.0630133655, 1,13, 6,45
1128,579617467.1759633,0.0, 1, 8,23, 5,1317162.6145444636, 1,13, 6,60
1153,8898683.36449319,0.0, 1, 8,23, 5,95311.13290696115, 1,12, 9,60
1154,36950712.69035624,0.0, 1, 8, 1, 7,180000.0, 1, 9,15,45
1155,477632793.4904537,0.0, 1, 8,12, 5,4345504.578743075, 1, 8, 2,15
1156,477632793.4904537,0.0, 1, 8,12, 5,4345504.578743075, 1, 8, 2,15
1292,-25428258.41739644,-39730.52672721729, 1,14, 5,30,-3682.2399969262124, 1,11,10,32
1306,184387749.06860492,0.0, 1, 8, 1, 7,4050000.0, 1, 8, 8,45
1307,35927288.834220506,0.0, 1, 8, 1, 7,9546175.78339712, 1,13,10,30
1308,184387749.06860492,0.0, 1, 8, 1, 7,4050000.0, 1, 8, 8,45
13,1720497820.2317464,452017.0388981225, 1, 9,15,45,9510870.484123709, 1, 8, 8,45
61,301924526.02383536,88139.10953165221, 1, 8, 1,15,1282023.4113694867, 1, 8,20,15
134,70666020.44019976,63564.01800854099, 1, 8, 4,15,156554.22484006523, 1,13,20,15
170,5241013.419656067,348.4159749238097, 1, 8, 4,15,17476.39704006126, 1,13,12,15
207,6509451.13922267,815.2532113832032, 1, 8, 3,15,22990.642799023623, 1,13,10,15
244,12749673.399825225,1521.856143006317, 1, 8, 4,15,53038.631142310165, 1,13,20,15
281,46165882.481495745,59938.60262432081, 1, 8, 5,15,81951.81706819107, 1, 8,19,15
318,0.0,0.0, 1, 8, 1,15,0.0, 1, 8, 1,15
355,197687796.27748066,18561.32405820678, 1, 8, 4,15,724774.895203776, 1,13,18,15
403,197687796.27748066,18561.32405820678, 1, 8, 4,15,724774.895203776, 1,13,18,15
476,106772067.24485716,7098.072629279515, 1, 8, 4,15,356036.3026282215, 1,13,12,15
513,0.0,0.0, 1, 8, 1,15,0.0, 1, 8, 1,15
562,60419867.97784084,0.0, 1, 9,15,45,129650.9840355553, 1, 8, 1,30
1046,0.0,0.0, 1, 8, 1,15,0.0, 1, 8, 1,15
1096,0.0,0.0, 1, 8, 1,15,0.0, 1, 8, 1,15
1134,1103099656.7212653,180000.0, 1, 9,15,45,5970127.351644947, 1, 8, 6,15
1326,184387749.06860486,0.0, 1, 8, 1,15,4050000.0, 1, 8, 8,45
1379,0.0,0.0, 1, 8, 1,15,0.0, 1, 8, 1,15
1,EXTREME_SUMMER,  39.67, -75.60,  -5.00,  23.00
5,7
1038,0.0,0.0, 7,15, 1,15,0.0, 7,15, 1,15
1039,37.25,0.0, 7,15, 1,15,0.25, 7,17,14,60
581,0.1309370811670943,0.0, 7,15,23, 5,0.44944817029276385, 7,21,22,33
582,3.337511483056385,0.07372307910985593, 7,15,20,26,17.804167443748266, 7,21,22,48
583,0.037056647167373676,0.000054924155158076306, 7,16, 5,60,0.07005160554231858, 7,21,22,33
1115,0.0,0.0, 7,15, 1,15,0.0, 7,15, 1,15
1128,0.0,0.0, 7,15, 1,15,0.0, 7,15, 1,15
1153,0.0,0.0, 7,15, 1,15,0.0, 7,15, 1,15
1154,0.0,0.0, 7,15, 1,15,0.0, 7,15, 1,15
1155,0.0,0.0, 7,15, 1,15,0.0, 7,15, 1,15
1156,0.0,0.0, 7,15, 1,15,0.0, 7,15, 1,15
1292,-21896395.42753055,-34330.785707610565, 7,20,11,60,-3024.5788701302868, 7,17, 9,14
1306,134152868.38623422,0.0, 7,15, 1,15,3255902.110408879, 7,15, 8,45
1307,16339808.849357685,0.0, 7,15, 1,15,1375323.9434650966, 7,20,10,22
1308,134152868.38623422,0.0, 7,15, 1,15,3255902.110408879, 7,15, 8,45
13,1058038099.6401038,151703.1275401932, 7,16, 4,30,6741755.259623256, 7,21,20,60
61,301924526.02383536,88139.10953165221, 7,15, 1,15,1282023.4113694867, 7,15,20,15
134,70666020.44019976,63564.01800854099, 7,15, 4,15,156554.22484006523, 7,20,20,15
170,5241013.419656067,348.4159749238097, 7,15, 4,15,17476.39704006126, 7,20,12,15
207,6509451.13922267,815.2532113832032, 7,15, 3,15,22990.642799023623, 7,20,10,15
244,12749673.399825225,1521.856143006317, 7,15, 4,15,53038.631142310165, 7,20,20,15
281,46165882.481495745,59938.60262432081, 7,15, 5,15,81951.81706819107, 7,15,19,15
318,0.0,0.0, 7,15, 1,15,0.0, 7,15, 1,15
355,197687796.27748066,18561.32405820678, 7,15, 4,15,724774.895203776, 7,20,18,15
403,197687796.27748066,18561.32405820678, 7,15, 4,15,724774.895203776, 7,20,18,15
476,106772067.24485716,7098.072629279515, 7,15, 4,15,356036.3026282215, 7,20,12,15
513,0.0,0.0, 7,15, 1,15,0.0, 7,15, 1,15
562,50299629.75956819,0.0, 7,16, 4,30,129650.9840355553, 7,17,17,60
1046,0.0,0.0, 7,15, 1,15,0.0, 7,15, 1,15
1096,500995055.03026783,0.0, 7,16, 4,30,1437159.2234537432, 7,20,15,60
1134,0.0,0.0, 7,15, 1,15,0.0, 7,15, 1,15
1326,134152868.38623422,0.0, 7,15, 1,15,4050000.0, 7,17, 9,45
1379,0.0,0.0, 7,15, 1,15,0.0, 7,15, 1,15
1,ANNUAL,  39.67, -75.60,  -5.00,  23.00
5,365
1038,18.0,0.0, 1, 1, 1,15,0.25, 1, 7, 6,15
1039,325.0,0.0, 1, 1, 1,15,0.25, 4,12,13,45
581,0.25137240650041914,0.0, 5,15,23, 5,1.2300963563121383, 3,10,22,60
582,4.42379742477725,0.0, 1, 2,22,52,33.93846452423884, 2,12,14,60
583,0.025693547039593208,0.0, 5,20,23, 5,0.08297702835368409,12,16,12,60
1115,21873429988.11051,0.0, 1, 1,13,37,4452633.942079424, 3, 1, 6,60
1128,6801377182.240069,0.0, 1, 1,13,37,1328629.0191909247, 3, 1, 6,60
1153,202421663.2218416,0.0, 1, 1,13,37,129022.03708274783, 2,18,17,15
1154,1493852656.2434363,0.0, 1, 1, 6, 5,180000.0, 1, 1,14,15
1155,2387864499.329286,0.0, 1, 1, 1,15,4794697.5688981945, 1, 8, 1,30
1156,2387864499.329286,0.0, 1, 1, 1,15,4794697.5688981945, 1, 8, 1,30
1292,-1224626040.3246462,-39786.082140647,10,28, 4,60,-2384.3826602700046, 7, 1,10,31
1306,8357538292.9156475,0.0, 1, 1, 1,15,4050000.0, 1, 2, 8,45
1307,1382490878.8608594,0.0, 1, 1, 1,15,9696847.034886815, 1,26,10,30
1308,8357538292.9156475,0.0, 1, 1, 1,15,4050000.0, 1, 2, 8,45
13,48900304741.316154,151703.1275401932, 4, 3, 4,15,10144125.652440505, 1,31, 7,30
61,15743207428.383959,88139.10953165221, 1, 1, 1,15,1282023.4113694867, 1, 1,20,15
134,3685071073.4325233,63564.01800854099, 1, 2, 4,15,156554.22484006523, 1, 1,20,15
170,273393721.45532674,348.4159749238097, 1, 2, 4,15,17476.39704006126, 1, 1,12,15
207,339560869.0695816,815.2532113832032, 1, 2, 3,15,22990.642799023623, 1, 1,10,15
244,664895467.8009144,1521.856143006317, 1, 2, 4,15,53038.631142310165, 1, 1,20,15
281,2407221015.106824,59938.60262432081, 1, 1, 5,15,81951.81706819107, 1, 1,19,15
318,0.0,0.0, 1, 1, 1,15,0.0, 1, 1, 1,15
355,10310294493.051695,18561.32405820678, 1, 2, 4,15,724774.895203776, 1, 1,18,15
403,10310294493.051695,18561.32405820678, 1, 2, 4,15,724774.895203776, 1, 1,18,15
476,5569688622.066177,7098.072629279515, 1, 2, 4,15,356036.3026282215, 1, 1,12,15
513,0.0,0.0, 1, 1, 1,15,0.0, 1, 1, 1,15
562,1643530697.068589,0.0, 1, 1,13,45,129650.9840355553, 1,11,10,15
1046,0.0,0.0, 1, 1, 1,15,0.0, 1, 1, 1,15
1096,8585441248.479043,0.0, 1, 1, 1,15,1439476.0122502383, 7,20,15,60
1134,10885516001.03467,0.0, 1, 4,18,45,6015023.132466031, 1, 7,22,60
1326,8357538292.91563,0.0, 1, 1, 1,15,4050000.0000000014, 4,12, 9,45
1379,0.0,0.0, 1, 1, 1,15,0.0, 1, 1, 1,15
End of Data
 Number of Records Written=          99
