Program Version,EnergyPlus, Version 22.2.0-c249759bad, YMD=2023.09.01 20:51
1,5,Environment Title[],Latitude[deg],Longitude[deg],Time Zone[],Elevation[m]
2,8,Day of Simulation[],Month[],Day of Month[],DST Indicator[1=yes 0=no],Hour[],StartMinute[],EndMinute[],DayType
3,5,Cumulative Day of Simulation[],Month[],Day of Month[],DST Indicator[1=yes 0=no],DayType  ! When Daily Report Variables Requested
4,2,Cumulative Days of Simulation[],Month[]  ! When Monthly Report Variables Requested
5,1,Cumulative Days of Simulation[] ! When Run Period Report Variables Requested
6,1,Calendar Year of Simulation[] ! When Annual Report Variables Requested
581,11,LIVING,AFN Zone Infiltration Air Change Rate [ach] !RunPeriod [Value,Min,Month,Day,Hour,Minute,Max,Month,Day,Hour,Minute]
582,11,ATTIC,AFN Zone Infiltration Air Change Rate [ach] !RunPeriod [Value,Min,Month,Day,Hour,Minute,Max,Month,Day,Hour,Minute]
583,11,CRAWLSPACE,AFN Zone Infiltration Air Change Rate [ach] !RunPeriod [Value,Min,Month,Day,Hour,Minute,Max,Month,Day,Hour,Minute]
1038,11,Facility,Facility Heating Setpoint Not Met Time [hr] !RunPeriod [Value,Min,Month,Day,Hour,Minute,Max,Month,Day,Hour,Minute]
1039,11,Facility,Facility Cooling Setpoint Not Met Time [hr] !RunPeriod [Value,Min,Month,Day,Hour,Minute,Max,Month,Day,Hour,Minute]
1115,11,DX_HEATING_COIL,Heating Coil Heating Energy [J] !RunPeriod [Value,Min,Month,Day,Hour,Minute,Max,Month,Day,Hour,Minute]
1128,11,DX_HEATING_COIL,Heating Coil Electricity Energy [J] !RunPeriod [Value,Min,Month,Day,Hour,Minute,Max,Month,Day,Hour,Minute]
1153,11,DX_HEATING_COIL,Heating Coil Defrost Electricity Energy [J] !RunPeriod [Value,Min,Month,Day,Hour,Minute,Max,Month,Day,Hour,Minute]
1154,11,DX_HEATING_COIL,Heating Coil Crankcase Heater Electricity Energy [J] !RunPeriod [Value,Min,Month,Day,Hour,Minute,Max,Month,Day,Hour,Minute]
1155,11,HEATING_RESISTANCE_BACKUP,Heating Coil Heating Energy [J] !RunPeriod [Value,Min,Month,Day,Hour,Minute,Max,Month,Day,Hour,Minute]
1156,11,HEATING_RESISTANCE_BACKUP,Heating Coil Electricity Energy [J] !RunPeriod [Value,Min,Month,Day,Hour,Minute,Max,Month,Day,Hour,Minute]
1292,11,WATER HEATER,Water Heater Heat Loss Energy [J] !RunPeriod [Value,Min,Month,Day,Hour,Minute,Max,Month,Day,Hour,Minute]
1306,11,WATER HEATER,Water Heater Heating Energy [J] !RunPeriod [Value,Min,Month,Day,Hour,Minute,Max,Month,Day,Hour,Minute]
1307,11,WATER HEATER,Water Heater Unmet Demand Heat Transfer Energy [J] !RunPeriod [Value,Min,Month,Day,Hour,Minute,Max,Month,Day,Hour,Minute]
1308,11,WATER HEATER,Water Heater Electricity Energy [J] !RunPeriod [Value,Min,Month,Day,Hour,Minute,Max,Month,Day,Hour,Minute]
13,11,Electricity:Facility [J] !RunPeriod [Value,Min,Month,Day,Hour,Minute,Max,Month,Day,Hour,Minute]
1134,11,Heating:Electricity [J] !RunPeriod [Value,Min,Month,Day,Hour,Minute,Max,Month,Day,Hour,Minute]
1096,11,Cooling:Electricity [J] !RunPeriod [Value,Min,Month,Day,Hour,Minute,Max,Month,Day,Hour,Minute]
562,11,Fans:Electricity [J] !RunPeriod [Value,Min,Month,Day,Hour,Minute,Max,Month,Day,Hour,Minute]
1379,11,Pumps:Electricity [J] !RunPeriod [Value,Min,Month,Day,Hour,Minute,Max,Month,Day,Hour,Minute]
1326,11,WaterSystems:Electricity [J] !RunPeriod [Value,Min,Month,Day,Hour,Minute,Max,Month,Day,Hour,Minute]
61,11,InteriorLights:Electricity [J] !RunPeriod [Value,Min,Month,Day,Hour,Minute,Max,Month,Day,Hour,Minute]
1046,11,ExteriorLights:Electricity [J] !RunPeriod [Value,Min,Month,Day,Hour,Minute,Max,Month,Day,Hour,Minute]
134,11,InteriorEquipment:Electricity [J] !RunPeriod [Value,Min,Month,Day,Hour,Minute,Max,Month,Day,Hour,Minute]
170,11,gas_dryer:InteriorEquipment:Electricity [J] !RunPeriod [Value,Min,Month,Day,Hour,Minute,Max,Month,Day,Hour,Minute]
207,11,clotheswasher:InteriorEquipment:Electricity [J] !RunPeriod [Value,Min,Month,Day,Hour,Minute,Max,Month,Day,Hour,Minute]
244,11,dishwasher:InteriorEquipment:Electricity [J] !RunPeriod [Value,Min,Month,Day,Hour,Minute,Max,Month,Day,Hour,Minute]
281,11,refrigerator:InteriorEquipment:Electricity [J] !RunPeriod [Value,Min,Month,Day,Hour,Minute,Max,Month,Day,Hour,Minute]
318,11,electric_mels:InteriorEquipment:Electricity [J] !RunPeriod [Value,Min,Month,Day,Hour,Minute,Max,Month,Day,Hour,Minute]
355,11,NaturalGas:Facility [J] !RunPeriod [Value,Min,Month,Day,Hour,Minute,Max,Month,Day,Hour,Minute]
403,11,InteriorEquipment:NaturalGas [J] !RunPeriod [Value,Min,Month,Day,Hour,Minute,Max,Month,Day,Hour,Minute]
476,11,gas_dryer:InteriorEquipment:NaturalGas [J] !RunPeriod [Value,Min,Month,Day,Hour,Minute,Max,Month,Day,Hour,Minute]
513,11,gas_mels:InteriorEquipment:NaturalGas [J] !RunPeriod [Value,Min,Month,Day,Hour,Minute,Max,Month,Day,Hour,Minute]
End of Data Dictionary
1,EXTREME_WINTER,  46.68, -68.05,  -5.00, 146.00
5,15
1038,52.25,0.0,12,22, 1,15,0.25,12,23, 6,15
1039,0.0,0.0,12,22, 1,15,0.0,12,22, 1,15
581,0.4590347580998246,0.24465430252992443,12,23,19,60,0.8804743778335753,12,31,13,60
582,4.366557706025286,0.08673751445249579, 1, 5,21,60,15.866552086711076,12,31,13,60
583,0.05157385705184747,0.0005300268641841383,12,27,23, 3,0.06467861095460352,12,31,11,60
1115,3059829568.776887,0.0,12,22,23, 5,3111387.6906419406,12,23, 6,60
1128,1144756658.5082726,0.0,12,22,23, 5,895475.1959473778,12,29,11,60
1153,21937514.08899308,0.0,12,22,23, 5,81868.86783857118,12,23, 6,60
1154,7953765.17485438,0.0,12,22, 1,60,146400.82975754727,12,23,15,15
1155,5590109053.835445,0.0,12,22, 1,15,9176994.457233856, 1, 2, 4,30
1156,5590109053.835445,0.0,12,22, 1,15,9176994.457233856, 1, 2, 4,30
1292,-53958968.873576,-43797.03847172458, 1, 3, 5,60,-3543.04504290558, 1, 2,10, 3
1306,846850322.6817199,0.0,12,22, 1,15,4050000.0,12,22, 9,60
1307,414568742.5968148,0.0,12,22, 1,15,16933673.11519785,12,28, 9,45
1308,846850322.6817199,0.0,12,22, 1,15,4050000.0,12,22, 9,60
13,8544852961.322726,611955.0619574424,12,23,12,60,14713802.194975387, 1, 3,21,60
61,646981127.1939323,88139.10953165221,12,22, 1,15,1282023.4113694867,12,22,20,15
134,151290040.75163814,63564.01800854099,12,22, 4,15,156554.22484006523,12,27,20,15
170,11185820.069951689,348.4159749238097,12,22, 4,15,17476.39704006126,12,27,12,15
207,13893028.5742839,815.2532113832032,12,22, 3,15,22990.642799023623,12,27,10,15
244,27284301.07562584,1521.856143006317,12,22, 4,15,53038.631142310165,12,27,20,15
281,98926891.03177746,59938.60262432081,12,22, 5,15,81951.81706819107,12,22,19,15
318,0.0,0.0,12,22, 1,15,0.0,12,22, 1,15
355,422701517.16107386,18561.32405820678,12,22, 4,15,724774.895203776,12,27,18,15
403,422701517.16107386,18561.32405820678,12,22, 4,15,724774.895203776,12,27,18,15
476,227882097.80545202,7098.072629279515,12,22, 4,15,356036.3026282215,12,27,12,15
513,0.0,0.0,12,22, 1,15,0.0,12,22, 1,15
562,134974479.0878785,13516.342114853016,12,22,23,15,96733.1193836181,12,26,10,60
1046,0.0,0.0,12,22, 1,15,0.0,12,22, 1,15
1096,0.0,0.0,12,22, 1,15,0.0,12,22, 1,15
1134,6764756991.607565,286708.5052496085,12,22,23,15,9868069.134917194, 1, 3,11,30
1326,846850322.68172,0.0,12,22, 1,15,4050000.0,12,22, 9,60
1379,0.0,0.0,12,22, 1,15,0.0,12,22, 1,15
1,EXTREME_SUMMER,  46.68, -68.05,  -5.00, 146.00
5,7
1038,0.0,0.0, 7, 6, 1,15,0.0, 7, 6, 1,15
1039,27.75,0.0, 7, 6, 1,15,0.25, 7, 6,12,15
581,0.18408749688508688,0.03807361247019625, 7,11,23, 3,0.6875363261631533, 7, 9,17,52
582,3.1730381531744896,0.0, 7, 6, 2,18,13.862019644115467, 7, 9,17,52
583,0.02365053655230922,0.0001424837315642965, 7,10,23, 3,0.05054907343952943, 7, 7,15,20
1115,0.0,0.0, 7, 6, 1, 7,0.0, 7, 6, 1, 7
1128,0.0,0.0, 7, 6, 1, 7,0.0, 7, 6, 1, 7
1153,0.0,0.0, 7, 6, 1, 7,0.0, 7, 6, 1, 7
1154,3420000.0,0.0, 7, 6, 1, 7,180000.0, 7, 8, 2,45
1155,0.0,0.0, 7, 6, 1, 7,0.0, 7, 6, 1, 7
1156,0.0,0.0, 7, 6, 1, 7,0.0, 7, 6, 1, 7
1292,-21844963.21147191,-35394.52411402818, 7, 8, 4,60,-3652.2219817586147, 7, 6, 7,59
1306,337369779.66072214,0.0, 7, 6, 1, 7,4050000.0, 7, 6, 9,60
1307,147967035.53258774,0.0, 7, 6, 1, 7,7059266.822860486, 7, 9, 9,45
1308,337369779.66072214,0.0, 7, 6, 1, 7,4050000.0, 7, 6, 9,60
13,1024536881.3379421,151703.1275401932, 7, 6, 4,15,6382769.559812609, 7,10,20,15
61,301924526.02383536,88139.10953165221, 7, 6, 1,15,1282023.4113694867, 7, 6,20,15
134,70666020.44019976,63564.01800854099, 7, 6, 4,15,156554.22484006523, 7,11,20,15
170,5241013.419656067,348.4159749238097, 7, 6, 4,15,17476.39704006126, 7,11,12,15
207,6509451.13922267,815.2532113832032, 7, 6, 3,15,22990.642799023623, 7,11,10,15
244,12749673.399825225,1521.856143006317, 7, 6, 4,15,53038.631142310165, 7,11,20,15
281,46165882.481495745,59938.60262432081, 7, 6, 5,15,81951.81706819107, 7, 6,19,15
318,0.0,0.0, 7, 6, 1,15,0.0, 7, 6, 1,15
355,197687796.27748066,18561.32405820678, 7, 6, 4,15,724774.895203776, 7,11,18,15
403,197687796.27748066,18561.32405820678, 7, 6, 4,15,724774.895203776, 7,11,18,15
476,106772067.24485716,7098.072629279515, 7, 6, 4,15,356036.3026282215, 7,11,12,15
513,0.0,0.0, 7, 6, 1,15,0.0, 7, 6, 1,15
562,33308969.126522213,0.0, 7, 6, 1,60,96733.1193836181, 7,10,13,60
1046,0.0,0.0, 7, 6, 1,15,0.0, 7, 6, 1,15
1096,277847586.08666295,0.0, 7, 6, 1,60,914120.1424781209, 7,11,16,15
1134,3420000.0,0.0, 7, 6, 1,15,180000.0, 7, 8, 2,45
1326,337369779.66072214,0.0, 7, 6, 1,15,4050000.0, 7, 6, 8,30
1379,0.0,0.0, 7, 6, 1,15,0.0, 7, 6, 1,15
1,ANNUAL,  46.68, -68.05,  -5.00, 146.00
5,365
1038,209.25,0.0, 1, 1, 1,15,0.25, 1, 1, 6,15
1039,363.0,0.0, 1, 1, 1,15,0.25, 4,16,15,60
581,0.30115131127816436,0.0, 8, 3,23, 3,1.1191486457628856, 2,10,14,60
582,3.634528141610953,0.0, 1,15,19,52,27.021672646340125, 4, 3,17,52
583,0.02730871028528851,0.000034821397468500906, 8, 3,23, 3,0.07008169156241846,12, 7, 8,60
1115,35987011544.87524,0.0, 1, 4,23, 3,4135029.7312702215, 3,19, 7,15
1128,11989829862.255215,0.0, 1, 4,23, 3,1027939.4778046397, 3,19, 7,15
1153,324234133.5513003,0.0, 1, 4,23, 3,93701.2548304071, 2,25,15,60
1154,1397125269.1914926,0.0, 1, 1, 1, 7,180000.0, 1,15,15,45
1155,31791280988.606815,0.0, 1, 4,23, 3,9176994.457233856, 1, 2, 5,60
1156,31791280988.606815,0.0, 1, 4,23, 3,9176994.457233856, 1, 2, 5,60
1292,-1235364429.0547404,-43327.25753353486, 1, 3, 7,30,-1668.2105802447659, 5,21, 9,44
1306,19230375186.745796,0.0, 1, 1, 1, 7,4050000.0, 1, 1,21,15
1307,9037135407.930088,0.0, 1, 1, 1, 7,20342581.838527262, 3, 3, 9,60
1308,19230375186.745796,0.0, 1, 1, 1, 7,4050000.0, 1, 1,21,15
13,89999759427.539,151703.1275401932, 5,11, 4,15,14606789.302616436, 1, 4, 8,60
61,15743207428.383959,88139.10953165221, 1, 1, 1,15,1282023.4113694867, 1, 1,20,15
134,3685071073.4325233,63564.01800854099, 1, 2, 4,15,156554.22484006523, 1, 1,20,15
170,273393721.45532674,348.4159749238097, 1, 2, 4,15,17476.39704006126, 1, 1,12,15
207,339560869.0695816,815.2532113832032, 1, 2, 3,15,22990.642799023623, 1, 1,10,15
244,664895467.8009144,1521.856143006317, 1, 2, 4,15,53038.631142310165, 1, 1,20,15
281,2407221015.106824,59938.60262432081, 1, 1, 5,15,81951.81706819107, 1, 1,19,15
318,0.0,0.0, 1, 1, 1,15,0.0, 1, 1, 1,15
355,10310294493.051695,18561.32405820678, 1, 2, 4,15,724774.895203776, 1, 1,18,15
403,10310294493.051695,18561.32405820678, 1, 2, 4,15,724774.895203776, 1, 1,18,15
476,5569688622.066177,7098.072629279515, 1, 2, 4,15,356036.3026282215, 1, 1,12,15
513,0.0,0.0, 1, 1, 1,15,0.0, 1, 1, 1,15
562,1838216634.9261818,0.0, 1,13,23,15,96733.11938361812, 2,21,10,15
1046,0.0,0.0, 1, 1, 1,15,0.0, 1, 1, 1,15
1096,4000418850.4429197,0.0, 1, 1, 1,15,956834.1079844404, 7,23,15,60
1134,45502470253.60514,0.0, 2,24,14,60,9867732.003237901, 1, 3, 9,60
1326,19230375186.745895,0.0, 1, 1, 1,15,4050000.0, 1, 1, 9,60
1379,0.0,0.0, 1, 1, 1,15,0.0, 1, 1, 1,15
End of Data
 Number of Records Written=          99
