Program Version,EnergyPlus, Version 22.2.0-c249759bad, YMD=2023.08.31 12:58
1,5,Environment Title[],Latitude[deg],Longitude[deg],Time Zone[],Elevation[m]
2,8,Day of Simulation[],Month[],Day of Month[],DST Indicator[1=yes 0=no],Hour[],StartMinute[],EndMinute[],DayType
3,5,Cumulative Day of Simulation[],Month[],Day of Month[],DST Indicator[1=yes 0=no],DayType  ! When Daily Report Variables Requested
4,2,Cumulative Days of Simulation[],Month[]  ! When Monthly Report Variables Requested
5,1,Cumulative Days of Simulation[] ! When Run Period Report Variables Requested
6,1,Calendar Year of Simulation[] ! When Annual Report Variables Requested
618,11,DX_HEATING_COIL,Heating Coil Heating Energy [J] !RunPeriod [Value,Min,Month,Day,Hour,Minute,Max,Month,Day,Hour,Minute]
631,11,DX_HEATING_COIL,Heating Coil Electricity Energy [J] !RunPeriod [Value,Min,Month,Day,Hour,Minute,Max,Month,Day,Hour,Minute]
656,11,DX_HEATING_COIL,Heating Coil Defrost Electricity Energy [J] !RunPeriod [Value,Min,Month,Day,Hour,Minute,Max,Month,Day,Hour,Minute]
657,11,DX_HEATING_COIL,Heating Coil Crankcase Heater Electricity Energy [J] !RunPeriod [Value,Min,Month,Day,Hour,Minute,Max,Month,Day,Hour,Minute]
684,11,HEAT PUMP WATER HEATER EVAPORATOR,Cooling Coil Total Water Heating Energy [J] !RunPeriod [Value,Min,Month,Day,Hour,Minute,Max,Month,Day,Hour,Minute]
685,11,HEAT PUMP WATER HEATER EVAPORATOR,Cooling Coil Water Heating Electricity Energy [J] !RunPeriod [Value,Min,Month,Day,Hour,Minute,Max,Month,Day,Hour,Minute]
712,11,LIVING,AFN Zone Infiltration Air Change Rate [ach] !RunPeriod [Value,Min,Month,Day,Hour,Minute,Max,Month,Day,Hour,Minute]
713,11,ATTIC,AFN Zone Infiltration Air Change Rate [ach] !RunPeriod [Value,Min,Month,Day,Hour,Minute,Max,Month,Day,Hour,Minute]
714,11,CRAWLSPACE,AFN Zone Infiltration Air Change Rate [ach] !RunPeriod [Value,Min,Month,Day,Hour,Minute,Max,Month,Day,Hour,Minute]
1157,11,Facility,Facility Heating Setpoint Not Met Time [hr] !RunPeriod [Value,Min,Month,Day,Hour,Minute,Max,Month,Day,Hour,Minute]
1158,11,Facility,Facility Cooling Setpoint Not Met Time [hr] !RunPeriod [Value,Min,Month,Day,Hour,Minute,Max,Month,Day,Hour,Minute]
1184,11,HEATING_RESISTANCE_BACKUP,Heating Coil Heating Energy [J] !RunPeriod [Value,Min,Month,Day,Hour,Minute,Max,Month,Day,Hour,Minute]
1185,11,HEATING_RESISTANCE_BACKUP,Heating Coil Electricity Energy [J] !RunPeriod [Value,Min,Month,Day,Hour,Minute,Max,Month,Day,Hour,Minute]
1334,11,WATER HEATER TANK,Water Heater Heating Energy [J] !RunPeriod [Value,Min,Month,Day,Hour,Minute,Max,Month,Day,Hour,Minute]
13,11,Electricity:Facility [J] !RunPeriod [Value,Min,Month,Day,Hour,Minute,Max,Month,Day,Hour,Minute]
637,11,Heating:Electricity [J] !RunPeriod [Value,Min,Month,Day,Hour,Minute,Max,Month,Day,Hour,Minute]
599,11,Cooling:Electricity [J] !RunPeriod [Value,Min,Month,Day,Hour,Minute,Max,Month,Day,Hour,Minute]
692,11,Fans:Electricity [J] !RunPeriod [Value,Min,Month,Day,Hour,Minute,Max,Month,Day,Hour,Minute]
1372,11,Pumps:Electricity [J] !RunPeriod [Value,Min,Month,Day,Hour,Minute,Max,Month,Day,Hour,Minute]
677,11,WaterSystems:Electricity [J] !RunPeriod [Value,Min,Month,Day,Hour,Minute,Max,Month,Day,Hour,Minute]
61,11,InteriorLights:Electricity [J] !RunPeriod [Value,Min,Month,Day,Hour,Minute,Max,Month,Day,Hour,Minute]
1165,11,ExteriorLights:Electricity [J] !RunPeriod [Value,Min,Month,Day,Hour,Minute,Max,Month,Day,Hour,Minute]
134,11,InteriorEquipment:Electricity [J] !RunPeriod [Value,Min,Month,Day,Hour,Minute,Max,Month,Day,Hour,Minute]
170,11,gas_dryer:InteriorEquipment:Electricity [J] !RunPeriod [Value,Min,Month,Day,Hour,Minute,Max,Month,Day,Hour,Minute]
207,11,clotheswasher:InteriorEquipment:Electricity [J] !RunPeriod [Value,Min,Month,Day,Hour,Minute,Max,Month,Day,Hour,Minute]
244,11,dishwasher:InteriorEquipment:Electricity [J] !RunPeriod [Value,Min,Month,Day,Hour,Minute,Max,Month,Day,Hour,Minute]
281,11,refrigerator:InteriorEquipment:Electricity [J] !RunPeriod [Value,Min,Month,Day,Hour,Minute,Max,Month,Day,Hour,Minute]
318,11,electric_mels:InteriorEquipment:Electricity [J] !RunPeriod [Value,Min,Month,Day,Hour,Minute,Max,Month,Day,Hour,Minute]
355,11,NaturalGas:Facility [J] !RunPeriod [Value,Min,Month,Day,Hour,Minute,Max,Month,Day,Hour,Minute]
403,11,InteriorEquipment:NaturalGas [J] !RunPeriod [Value,Min,Month,Day,Hour,Minute,Max,Month,Day,Hour,Minute]
476,11,gas_dryer:InteriorEquipment:NaturalGas [J] !RunPeriod [Value,Min,Month,Day,Hour,Minute,Max,Month,Day,Hour,Minute]
513,11,gas_mels:InteriorEquipment:NaturalGas [J] !RunPeriod [Value,Min,Month,Day,Hour,Minute,Max,Month,Day,Hour,Minute]
End of Data Dictionary
1,EXTREME_WINTER,  25.79, -80.32,  -5.00,   8.80
5,7
1157,0.0,0.0, 1,15, 1,15,0.0, 1,15, 1,15
1158,0.0,0.0, 1,15, 1,15,0.0, 1,15, 1,15
618,15074443.012184242,0.0, 1,15, 1,15,1717967.0130776477, 1,17, 8,30
631,3872324.1124955793,0.0, 1,15, 1,15,437009.7143965405, 1,17, 8,30
656,0.0,0.0, 1,15, 1,15,0.0, 1,15, 1,15
657,0.0,0.0, 1,15, 1,15,0.0, 1,15, 1,15
684,192172525.82384604,0.0, 1,15, 1,15,1966149.7608580708, 1,15, 8,45
685,39365286.174122296,0.0, 1,15, 1,15,395024.2137869265, 1,15,10,15
712,0.2107584552023608,0.0, 1,15,19,37,0.4034238421532926, 1,18, 8,60
713,3.996758827258904,0.08176207607870739, 1,15,19,60,8.328760118965617, 1,16,12,60
714,5.076525800398297,0.29837541004983814, 1,15,19,60,11.012374369674342, 1,16,12,60
1184,0.0,0.0, 1,15, 1,15,0.0, 1,15, 1,15
1185,0.0,0.0, 1,15, 1,15,0.0, 1,15, 1,15
1334,0.0,0.0, 1,15, 1,15,0.0, 1,15, 1,15
13,563918070.851566,159353.1275401932, 1,16, 4,45,2196788.9358014045, 1,21,20,15
61,301924526.02383536,88139.10953165221, 1,15, 1,15,1282023.4113694867, 1,15,20,15
134,70666020.44019976,63564.01800854099, 1,15, 4,15,156554.22484006523, 1,20,20,15
170,5241013.419656067,348.4159749238097, 1,15, 4,15,17476.39704006126, 1,20,12,15
207,6509451.13922267,815.2532113832032, 1,15, 3,15,22990.642799023623, 1,20,10,15
244,12749673.399825225,1521.856143006317, 1,15, 4,15,53038.631142310165, 1,20,20,15
281,46165882.481495745,59938.60262432081, 1,15, 5,15,81951.81706819107, 1,15,19,15
318,0.0,0.0, 1,15, 1,15,0.0, 1,15, 1,15
355,197687796.27748066,18561.32405820678, 1,15, 4,15,724774.895203776, 1,20,18,15
403,197687796.27748066,18561.32405820678, 1,15, 4,15,724774.895203776, 1,20,18,15
476,106772067.24485716,7098.072629279515, 1,15, 4,15,356036.3026282215, 1,20,12,15
513,0.0,0.0, 1,15, 1,15,0.0, 1,15, 1,15
599,118959668.50953425,0.0, 1,15, 8,15,1003723.5216358572, 1,21,17,15
637,3872324.1124955784,0.0, 1,15, 1,15,437009.7143965405, 1,17, 8,30
677,44506086.17412231,7650.0, 1,15, 1,15,402674.2137869265, 1,15,10,15
692,23989445.591378078,0.0, 1,15,23,15,133032.74847284122, 1,20,16,45
1165,0.0,0.0, 1,15, 1,15,0.0, 1,15, 1,15
1372,0.0,0.0, 1,15, 1,15,0.0, 1,15, 1,15
1,EXTREME_SUMMER,  25.79, -80.32,  -5.00,   8.80
5,7
1157,0.0,0.0, 7,23, 1,15,0.0, 7,23, 1,15
1158,76.25,0.0, 7,23, 1,15,0.25, 7,23,11,30
618,0.0,0.0, 7,23, 1, 5,0.0, 7,23, 1, 5
631,0.0,0.0, 7,23, 1, 5,0.0, 7,23, 1, 5
656,0.0,0.0, 7,23, 1, 5,0.0, 7,23, 1, 5
657,0.0,0.0, 7,23, 1, 5,0.0, 7,23, 1, 5
684,151730301.74639338,0.0, 7,23, 1, 5,1768592.9850344588, 7,26, 6,60
685,31868070.213055763,0.0, 7,23, 1, 5,384130.180798767, 7,29, 4,30
712,0.11829598291337318,0.0, 7,23, 1,37,0.3082081155585031, 7,27,11,60
713,5.229428153812069,0.055618089988563754, 7,26, 8,52,12.469660992281918, 7,29,13,50
714,5.208369170945158,0.17081309676602102, 7,24, 7,60,11.434607488936267, 7,27,12,30
1184,0.0,0.0, 7,23, 1, 5,0.0, 7,23, 1, 5
1185,0.0,0.0, 7,23, 1, 5,0.0, 7,23, 1, 5
1334,0.0,0.0, 7,23, 1, 5,0.0, 7,23, 1, 5
13,1166846098.3794353,498143.0871249899, 7,23, 4,60,3335308.9706807313, 7,26,20,60
61,301924526.02383536,88139.10953165221, 7,23, 1,15,1282023.4113694867, 7,23,20,15
134,70666020.44019976,63564.01800854099, 7,23, 4,15,156554.22484006523, 7,28,20,15
170,5241013.419656067,348.4159749238097, 7,23, 4,15,17476.39704006126, 7,28,12,15
207,6509451.13922267,815.2532113832032, 7,23, 3,15,22990.642799023623, 7,28,10,15
244,12749673.399825225,1521.856143006317, 7,23, 4,15,53038.631142310165, 7,28,20,15
281,46165882.481495745,59938.60262432081, 7,23, 5,15,81951.81706819107, 7,23,19,15
318,0.0,0.0, 7,23, 1,15,0.0, 7,23, 1,15
355,197687796.27748066,18561.32405820678, 7,23, 4,15,724774.895203776, 7,28,18,15
403,197687796.27748066,18561.32405820678, 7,23, 4,15,724774.895203776, 7,28,18,15
476,106772067.24485716,7098.072629279515, 7,23, 4,15,356036.3026282215, 7,28,12,15
513,0.0,0.0, 7,23, 1,15,0.0, 7,23, 1,15
599,682863114.7641377,55737.20315540772, 7,26, 5,60,1424788.4092031, 7,23,17,60
637,0.0,0.0, 7,23, 1,15,0.0, 7,23, 1,15
677,37008870.21305577,7650.0, 7,23, 1,15,392709.9966166549, 7,28,10,45
692,74383566.93820706,32518.814695185567, 7,23, 4,60,210286.8504568867, 7,23,18,15
1165,0.0,0.0, 7,23, 1,15,0.0, 7,23, 1,15
1372,0.0,0.0, 7,23, 1,15,0.0, 7,23, 1,15
1,ANNUAL,  25.79, -80.32,  -5.00,   8.80
5,365
1157,0.25,0.0, 1, 1, 1,15,0.25, 1,25, 8,15
1158,1567.25,0.0, 1, 1, 1,15,0.25, 1, 6,14,45
618,33359334.054863617,0.0, 1, 1, 1,15,2006770.9096887817, 1,24, 7,30
631,8815378.252052248,0.0, 1, 1, 1,15,539987.416400898, 1,24, 7,30
656,0.0,0.0, 1, 1, 1,15,0.0, 1, 1, 1,15
657,14124307.014678713,0.0, 1, 1, 1,15,180000.0, 1,24, 1,30
684,9104171442.845608,0.0, 1, 1, 1,15,1951838.431575086, 1,14, 9,45
685,1892586395.0620053,0.0, 1, 1, 1,15,391215.3012195835, 1,15,12,30
712,0.12701010307047744,0.0, 1, 4, 7,52,0.7806906849181598, 5,26,15,48
713,4.094581884847857,0.0, 1,25,20, 9,22.303415587816218, 5,26,15,46
714,4.460311648545692,0.0, 2, 7,23, 3,25.73634832397498, 5,26,15,46
1184,0.0,0.0, 1, 1, 1,15,0.0, 1, 1, 1,15
1185,0.0,0.0, 1, 1, 1,15,0.0, 1, 1, 1,15
1334,0.0,0.0, 1, 1, 1,15,0.0, 1, 1, 1,15
13,48801812567.713005,159353.1275401932, 1,16, 4,60,3363379.349801545, 6,15,20,60
61,15743207428.383959,88139.10953165221, 1, 1, 1,15,1282023.4113694867, 1, 1,20,15
134,3685071073.4325233,63564.01800854099, 1, 2, 4,15,156554.22484006523, 1, 1,20,15
170,273393721.45532674,348.4159749238097, 1, 2, 4,15,17476.39704006126, 1, 1,12,15
207,339560869.0695816,815.2532113832032, 1, 2, 3,15,22990.642799023623, 1, 1,10,15
244,664895467.8009144,1521.856143006317, 1, 2, 4,15,53038.631142310165, 1, 1,20,15
281,2407221015.106824,59938.60262432081, 1, 1, 5,15,81951.81706819107, 1, 1,19,15
318,0.0,0.0, 1, 1, 1,15,0.0, 1, 1, 1,15
355,10310294493.051695,18561.32405820678, 1, 2, 4,15,724774.895203776, 1, 1,18,15
403,10310294493.051695,18561.32405820678, 1, 2, 4,15,724774.895203776, 1, 1,18,15
476,5569688622.066177,7098.072629279515, 1, 2, 4,15,356036.3026282215, 1, 1,12,15
513,0.0,0.0, 1, 1, 1,15,0.0, 1, 1, 1,15
599,24190931125.571613,0.0, 1, 2, 7,30,1457686.1333693739, 8,21,14,60
637,22939685.266730964,0.0, 1, 1, 1,15,655738.6132265304, 1,24, 7,30
677,2160642395.0620055,7650.0, 1, 1, 1,15,401093.582524635, 6,25,11,60
692,2999020859.994222,0.0, 1, 5, 5,60,210286.8504568867, 2,24,18,45
1165,0.0,0.0, 1, 1, 1,15,0.0, 1, 1, 1,15
1372,0.0,0.0, 1, 1, 1,15,0.0, 1, 1, 1,15
End of Data
 Number of Records Written=          96
