Program Version,EnergyPlus, Version 22.2.0-c249759bad, YMD=2023.07.31 21:00
1,5,Environment Title[],Latitude[deg],Longitude[deg],Time Zone[],Elevation[m]
2,8,Day of Simulation[],Month[],Day of Month[],DST Indicator[1=yes 0=no],Hour[],StartMinute[],EndMinute[],DayType
3,5,Cumulative Day of Simulation[],Month[],Day of Month[],DST Indicator[1=yes 0=no],DayType  ! When Daily Report Variables Requested
4,2,Cumulative Days of Simulation[],Month[]  ! When Monthly Report Variables Requested
5,1,Cumulative Days of Simulation[] ! When Run Period Report Variables Requested
6,1,Calendar Year of Simulation[] ! When Annual Report Variables Requested
581,11,LIVING,AFN Zone Infiltration Air Change Rate [ach] !RunPeriod [Value,Min,Month,Day,Hour,Minute,Max,Month,Day,Hour,Minute]
582,11,ATTIC,AFN Zone Infiltration Air Change Rate [ach] !RunPeriod [Value,Min,Month,Day,Hour,Minute,Max,Month,Day,Hour,Minute]
583,11,CRAWLSPACE,AFN Zone Infiltration Air Change Rate [ach] !RunPeriod [Value,Min,Month,Day,Hour,Minute,Max,Month,Day,Hour,Minute]
1038,11,Facility,Facility Heating Setpoint Not Met Time [hr] !RunPeriod [Value,Min,Month,Day,Hour,Minute,Max,Month,Day,Hour,Minute]
1039,11,Facility,Facility Cooling Setpoint Not Met Time [hr] !RunPeriod [Value,Min,Month,Day,Hour,Minute,Max,Month,Day,Hour,Minute]
1127,11,HEATING_FUEL_MAIN,Heating Coil Electricity Energy [J] !RunPeriod [Value,Min,Month,Day,Hour,Minute,Max,Month,Day,Hour,Minute]
13,11,Electricity:Facility [J] !RunPeriod [Value,Min,Month,Day,Hour,Minute,Max,Month,Day,Hour,Minute]
1133,11,Heating:Electricity [J] !RunPeriod [Value,Min,Month,Day,Hour,Minute,Max,Month,Day,Hour,Minute]
1172,11,Cooling:Electricity [J] !RunPeriod [Value,Min,Month,Day,Hour,Minute,Max,Month,Day,Hour,Minute]
562,11,Fans:Electricity [J] !RunPeriod [Value,Min,Month,Day,Hour,Minute,Max,Month,Day,Hour,Minute]
1422,11,Pumps:Electricity [J] !RunPeriod [Value,Min,Month,Day,Hour,Minute,Max,Month,Day,Hour,Minute]
61,11,InteriorLights:Electricity [J] !RunPeriod [Value,Min,Month,Day,Hour,Minute,Max,Month,Day,Hour,Minute]
1046,11,ExteriorLights:Electricity [J] !RunPeriod [Value,Min,Month,Day,Hour,Minute,Max,Month,Day,Hour,Minute]
134,11,InteriorEquipment:Electricity [J] !RunPeriod [Value,Min,Month,Day,Hour,Minute,Max,Month,Day,Hour,Minute]
170,11,gas_dryer:InteriorEquipment:Electricity [J] !RunPeriod [Value,Min,Month,Day,Hour,Minute,Max,Month,Day,Hour,Minute]
207,11,clotheswasher:InteriorEquipment:Electricity [J] !RunPeriod [Value,Min,Month,Day,Hour,Minute,Max,Month,Day,Hour,Minute]
244,11,dishwasher:InteriorEquipment:Electricity [J] !RunPeriod [Value,Min,Month,Day,Hour,Minute,Max,Month,Day,Hour,Minute]
281,11,refrigerator:InteriorEquipment:Electricity [J] !RunPeriod [Value,Min,Month,Day,Hour,Minute,Max,Month,Day,Hour,Minute]
318,11,electric_mels:InteriorEquipment:Electricity [J] !RunPeriod [Value,Min,Month,Day,Hour,Minute,Max,Month,Day,Hour,Minute]
355,11,NaturalGas:Facility [J] !RunPeriod [Value,Min,Month,Day,Hour,Minute,Max,Month,Day,Hour,Minute]
1108,11,Heating:NaturalGas [J] !RunPeriod [Value,Min,Month,Day,Hour,Minute,Max,Month,Day,Hour,Minute]
1357,11,WaterSystems:NaturalGas [J] !RunPeriod [Value,Min,Month,Day,Hour,Minute,Max,Month,Day,Hour,Minute]
403,11,InteriorEquipment:NaturalGas [J] !RunPeriod [Value,Min,Month,Day,Hour,Minute,Max,Month,Day,Hour,Minute]
476,11,gas_dryer:InteriorEquipment:NaturalGas [J] !RunPeriod [Value,Min,Month,Day,Hour,Minute,Max,Month,Day,Hour,Minute]
513,11,gas_mels:InteriorEquipment:NaturalGas [J] !RunPeriod [Value,Min,Month,Day,Hour,Minute,Max,Month,Day,Hour,Minute]
End of Data Dictionary
1,EXTREME_WINTER,  39.10, -84.42,  -5.00, 149.40
5,7
1038,28.999999999999996,0.0, 1,15, 1,10,0.16666666666666666, 1,15, 6,10
1039,0.0,0.0, 1,15, 1,10,0.0, 1,15, 1,10
581,0.2739286489052632,0.17636220864401356, 1,16,22,17,0.42495369530489757, 1,17,24,15
582,3.0193770825582558,0.0, 1,15, 3,60,12.161691953295165, 1,17,24,55
583,3.636847150616453,0.0001980078792679402, 1,16,20,60,11.459063192848106, 1,17,24,15
1127,0.0,0.0, 1,15, 1,10,0.0, 1,15, 1,10
13,416812869.6523102,127582.28743715906, 1,17, 1,10,1025971.320638023, 1,19,21,60
61,301924526.0238348,58759.40635443481, 1,15, 1,10,854682.2742463244, 1,15,20,10
134,70666020.44019979,42376.01200569399, 1,15, 4,10,104369.48322671017, 1,20,20,10
170,5241013.419656074,232.27731661587313, 1,15, 4,10,11650.931360040839, 1,20,12,10
207,6509451.13922266,543.5021409221355, 1,15, 3,10,15327.095199349082, 1,20,10,10
244,12749673.39982522,1014.5707620042115, 1,15, 4,10,35359.08742820678, 1,20,20,10
281,46165882.48149605,39959.06841621388, 1,15, 5,10,54634.54471212738, 1,15,19,10
318,0.0,0.0, 1,15, 1,10,0.0, 1,15, 1,10
355,2691124251.1332555,137769.5713143841, 1,16,23,10,13316529.785131272, 1,21,10,30
403,197687796.27748126,12374.216038804521, 1,15, 4,10,483183.26346918393, 1,20,18,10
476,106772067.24485692,4732.048419519677, 1,15, 4,10,237357.535085481, 1,20,12,10
513,0.0,0.0, 1,15, 1,10,0.0, 1,15, 1,10
562,44222323.18827606,0.0, 1,15,15,40,92194.89871757582, 1,15, 6,10
1046,0.0,0.0, 1,15, 1,10,0.0, 1,15, 1,10
1108,2028619879.3592968,0.0, 1,15,15,40,4229275.868608683, 1,16, 7,60
1133,0.0,0.0, 1,15, 1,10,0.0, 1,15, 1,10
1172,0.0,0.0, 1,15, 1,10,0.0, 1,15, 1,10
1357,464816575.4964819,0.0, 1,15, 1,10,8784000.0, 1,15, 8,30
1422,0.0,0.0, 1,15, 1,10,0.0, 1,15, 1,10
1,EXTREME_SUMMER,  39.10, -84.42,  -5.00, 149.40
5,7
1038,0.0,0.0, 7,15, 1,10,0.0, 7,15, 1,10
1039,35.5,0.0, 7,15, 1,10,0.16666666666666666, 7,15,14,20
581,0.03836601923949422,0.0, 7,15, 1,10,0.40276196166937606, 7,20,16,52
582,1.659975656251553,0.0, 7,16,21,22,8.698019282451732, 7,20,16,52
583,1.8061271350591825,0.0, 7,15, 6, 7,10.179266740498017, 7,20,16,52
1127,0.0,0.0, 7,15, 1,10,0.0, 7,15, 1,10
13,910529710.5115459,138277.66224387666, 7,19, 4,60,1850169.6805850873, 7,15,20,10
61,301924526.0238348,58759.40635443481, 7,15, 1,10,854682.2742463244, 7,15,20,10
134,70666020.44019979,42376.01200569399, 7,15, 4,10,104369.48322671017, 7,20,20,10
170,5241013.419656074,232.27731661587313, 7,15, 4,10,11650.931360040839, 7,20,12,10
207,6509451.13922266,543.5021409221355, 7,15, 3,10,15327.095199349082, 7,20,10,10
244,12749673.39982522,1014.5707620042115, 7,15, 4,10,35359.08742820678, 7,20,20,10
281,46165882.48149605,39959.06841621388, 7,15, 5,10,54634.54471212738, 7,15,19,10
318,0.0,0.0, 7,15, 1,10,0.0, 7,15, 1,10
355,556598259.0270191,12374.216038804521, 7,15, 4,10,9087253.91652259, 7,21,10,30
403,197687796.27748126,12374.216038804521, 7,15, 4,10,483183.26346918393, 7,20,18,10
476,106772067.24485692,4732.048419519677, 7,15, 4,10,237357.535085481, 7,20,12,10
513,0.0,0.0, 7,15, 1,10,0.0, 7,15, 1,10
562,55503294.56505031,0.0, 7,19, 6,20,92194.89871757584, 7,18,16,50
1046,0.0,0.0, 7,15, 1,10,0.0, 7,15, 1,10
1108,0.0,0.0, 7,15, 1,10,0.0, 7,15, 1,10
1133,0.0,0.0, 7,15, 1,10,0.0, 7,15, 1,10
1172,482435869.48246104,0.0, 7,19, 6,20,906134.0026604661, 7,16,15,60
1357,358910462.7495386,0.0, 7,15, 1,10,8784000.0, 7,15, 8,30
1422,0.0,0.0, 7,15, 1,10,0.0, 7,15, 1,10
1,ANNUAL,  39.10, -84.42,  -5.00, 149.40
5,365
1038,220.9999999999994,0.0, 1, 1, 1,30,0.16666666666666666, 1, 1, 1,10
1039,536.6666666666665,0.0, 1, 1, 1,10,0.16666666666666666, 3, 5,14,30
581,0.18698994416998962,0.0, 5, 7, 8,51,1.2428868222345633, 2,18,22,55
582,3.0431186922142555,0.0, 1, 3,22,60,27.70750773817891, 1,29,21,60
583,3.6021077953046707,0.0, 6, 8,23, 3,33.75286846877555, 4,29,17,52
1127,0.0,0.0, 1, 1, 1, 1,0.0, 1, 1, 1, 1
13,30650114307.463287,101135.4183601288, 1, 9, 4,10,1880727.181075704, 8, 5,20,10
61,15743207428.39043,58759.40635443481, 1, 1, 1,10,854682.2742463244, 1, 1,20,10
134,3685071073.433083,42376.01200569399, 1, 2, 4,10,104369.48322671017, 1, 1,20,10
170,273393721.45534325,232.27731661587313, 1, 2, 4,10,11650.931360040839, 1, 1,12,10
207,339560869.06955314,543.5021409221355, 1, 2, 3,10,15327.095199349082, 1, 1,10,10
244,664895467.8009839,1014.5707620042115, 1, 2, 4,10,35359.08742820678, 1, 1,20,10
281,2407221015.1057043,39959.06841621388, 1, 1, 5,10,54634.54471212738, 1, 1,19,10
318,0.0,0.0, 1, 1, 1,10,0.0, 1, 1, 1,10
355,57589345547.22913,12374.216038804521, 1, 9, 4,10,13316529.785131272, 1,15,10,30
403,10310294493.052883,12374.216038804521, 1, 2, 4,10,483183.26346918393, 1, 1,18,10
476,5569688622.065564,4732.048419519677, 1, 2, 4,10,237357.535085481, 1, 1,12,10
513,0.0,0.0, 1, 1, 1,10,0.0, 1, 1, 1,10
562,1734947817.771534,0.0, 1, 4,14,50,92194.89871757584, 1, 1, 1,10
1046,0.0,0.0, 1, 1, 1,10,0.0, 1, 1, 1,10
1108,25849513963.665154,0.0, 1, 4,14,50,4229275.868608683, 1, 1,13,60
1133,0.0,0.0, 1, 1, 1,10,0.0, 1, 1, 1,10
1172,9486887987.873434,0.0, 1, 1, 1,10,941234.7060729242, 8, 9,14,60
1357,21429537090.511974,0.0, 1, 1, 1,10,8784000.0, 1, 1,10,30
1422,0.0,0.0, 1, 1, 1,10,0.0, 1, 1, 1,10
End of Data
 Number of Records Written=          75
