Program Version,EnergyPlus, Version 22.2.0-c249759bad, YMD=2023.09.01 15:32
1,5,Environment Title[],Latitude[deg],Longitude[deg],Time Zone[],Elevation[m]
2,8,Day of Simulation[],Month[],Day of Month[],DST Indicator[1=yes 0=no],Hour[],StartMinute[],EndMinute[],DayType
3,5,Cumulative Day of Simulation[],Month[],Day of Month[],DST Indicator[1=yes 0=no],DayType  ! When Daily Report Variables Requested
4,2,Cumulative Days of Simulation[],Month[]  ! When Monthly Report Variables Requested
5,1,Cumulative Days of Simulation[] ! When Run Period Report Variables Requested
6,1,Calendar Year of Simulation[] ! When Annual Report Variables Requested
581,11,LIVING,AFN Zone Infiltration Air Change Rate [ach] !RunPeriod [Value,Min,Month,Day,Hour,Minute,Max,Month,Day,Hour,Minute]
582,11,ATTIC,AFN Zone Infiltration Air Change Rate [ach] !RunPeriod [Value,Min,Month,Day,Hour,Minute,Max,Month,Day,Hour,Minute]
583,11,CRAWLSPACE,AFN Zone Infiltration Air Change Rate [ach] !RunPeriod [Value,Min,Month,Day,Hour,Minute,Max,Month,Day,Hour,Minute]
1038,11,Facility,Facility Heating Setpoint Not Met Time [hr] !RunPeriod [Value,Min,Month,Day,Hour,Minute,Max,Month,Day,Hour,Minute]
1039,11,Facility,Facility Cooling Setpoint Not Met Time [hr] !RunPeriod [Value,Min,Month,Day,Hour,Minute,Max,Month,Day,Hour,Minute]
1115,11,DX_HEATING_COIL,Heating Coil Heating Energy [J] !RunPeriod [Value,Min,Month,Day,Hour,Minute,Max,Month,Day,Hour,Minute]
1128,11,DX_HEATING_COIL,Heating Coil Electricity Energy [J] !RunPeriod [Value,Min,Month,Day,Hour,Minute,Max,Month,Day,Hour,Minute]
1153,11,DX_HEATING_COIL,Heating Coil Defrost Electricity Energy [J] !RunPeriod [Value,Min,Month,Day,Hour,Minute,Max,Month,Day,Hour,Minute]
1154,11,DX_HEATING_COIL,Heating Coil Crankcase Heater Electricity Energy [J] !RunPeriod [Value,Min,Month,Day,Hour,Minute,Max,Month,Day,Hour,Minute]
1155,11,HEATING_RESISTANCE_BACKUP,Heating Coil Heating Energy [J] !RunPeriod [Value,Min,Month,Day,Hour,Minute,Max,Month,Day,Hour,Minute]
1156,11,HEATING_RESISTANCE_BACKUP,Heating Coil Electricity Energy [J] !RunPeriod [Value,Min,Month,Day,Hour,Minute,Max,Month,Day,Hour,Minute]
1292,11,WATER HEATER,Water Heater Heat Loss Energy [J] !RunPeriod [Value,Min,Month,Day,Hour,Minute,Max,Month,Day,Hour,Minute]
1306,11,WATER HEATER,Water Heater Heating Energy [J] !RunPeriod [Value,Min,Month,Day,Hour,Minute,Max,Month,Day,Hour,Minute]
1307,11,WATER HEATER,Water Heater Unmet Demand Heat Transfer Energy [J] !RunPeriod [Value,Min,Month,Day,Hour,Minute,Max,Month,Day,Hour,Minute]
1308,11,WATER HEATER,Water Heater Electricity Energy [J] !RunPeriod [Value,Min,Month,Day,Hour,Minute,Max,Month,Day,Hour,Minute]
13,11,Electricity:Facility [J] !RunPeriod [Value,Min,Month,Day,Hour,Minute,Max,Month,Day,Hour,Minute]
1134,11,Heating:Electricity [J] !RunPeriod [Value,Min,Month,Day,Hour,Minute,Max,Month,Day,Hour,Minute]
1096,11,Cooling:Electricity [J] !RunPeriod [Value,Min,Month,Day,Hour,Minute,Max,Month,Day,Hour,Minute]
562,11,Fans:Electricity [J] !RunPeriod [Value,Min,Month,Day,Hour,Minute,Max,Month,Day,Hour,Minute]
1379,11,Pumps:Electricity [J] !RunPeriod [Value,Min,Month,Day,Hour,Minute,Max,Month,Day,Hour,Minute]
1326,11,WaterSystems:Electricity [J] !RunPeriod [Value,Min,Month,Day,Hour,Minute,Max,Month,Day,Hour,Minute]
61,11,InteriorLights:Electricity [J] !RunPeriod [Value,Min,Month,Day,Hour,Minute,Max,Month,Day,Hour,Minute]
1046,11,ExteriorLights:Electricity [J] !RunPeriod [Value,Min,Month,Day,Hour,Minute,Max,Month,Day,Hour,Minute]
134,11,InteriorEquipment:Electricity [J] !RunPeriod [Value,Min,Month,Day,Hour,Minute,Max,Month,Day,Hour,Minute]
170,11,gas_dryer:InteriorEquipment:Electricity [J] !RunPeriod [Value,Min,Month,Day,Hour,Minute,Max,Month,Day,Hour,Minute]
207,11,clotheswasher:InteriorEquipment:Electricity [J] !RunPeriod [Value,Min,Month,Day,Hour,Minute,Max,Month,Day,Hour,Minute]
244,11,dishwasher:InteriorEquipment:Electricity [J] !RunPeriod [Value,Min,Month,Day,Hour,Minute,Max,Month,Day,Hour,Minute]
281,11,refrigerator:InteriorEquipment:Electricity [J] !RunPeriod [Value,Min,Month,Day,Hour,Minute,Max,Month,Day,Hour,Minute]
318,11,electric_mels:InteriorEquipment:Electricity [J] !RunPeriod [Value,Min,Month,Day,Hour,Minute,Max,Month,Day,Hour,Minute]
355,11,NaturalGas:Facility [J] !RunPeriod [Value,Min,Month,Day,Hour,Minute,Max,Month,Day,Hour,Minute]
403,11,InteriorEquipment:NaturalGas [J] !RunPeriod [Value,Min,Month,Day,Hour,Minute,Max,Month,Day,Hour,Minute]
476,11,gas_dryer:InteriorEquipment:NaturalGas [J] !RunPeriod [Value,Min,Month,Day,Hour,Minute,Max,Month,Day,Hour,Minute]
513,11,gas_mels:InteriorEquipment:NaturalGas [J] !RunPeriod [Value,Min,Month,Day,Hour,Minute,Max,Month,Day,Hour,Minute]
End of Data Dictionary
1,EXTREME_WINTER,  35.27,-113.93,  -7.00,1033.00
5,7
1038,0.0,0.0,12,22, 1,15,0.0,12,22, 1,15
1039,0.0,0.0,12,22, 1,15,0.0,12,22, 1,15
581,0.29195218785492133,0.129196836530012,12,22,10,17,0.9470386522908266,12,25, 5,15
582,3.9364862156351457,0.0,12,22, 2,55,20.18979348298578,12,25, 8,60
583,0.018673639657033177,0.00025371255426751384,12,22,10, 3,0.09950404392265165,12,26, 6, 5
1115,632285618.5941203,0.0,12,22, 1,15,4311448.22493513,12,27, 6,45
1128,194660041.52203253,0.0,12,22, 1,15,1403054.1398168392,12,27, 6,45
1153,8833939.61415128,0.0,12,22, 1,15,80337.95222838095,12,25, 9,45
1154,93758699.15395626,0.0,12,22,10,32,180000.0,12,22, 1,15
1155,2601995.152709045,0.0,12,22, 1,15,943150.6500896884,12,27, 6, 5
1156,2601995.152709045,0.0,12,22, 1,15,943150.6500896884,12,27, 6, 5
1292,-24982170.164067473,-39809.56589218965,12,26, 5,15,-5082.648737318973,12,22,11,14
1306,208779043.41162643,0.0,12,22, 1,15,6846780.470490278,12,22, 7,45
1307,3818295.0880738916,0.0,12,22, 1,15,1348305.693331745,12,28,19,55
1308,208779043.41162643,0.0,12,22, 1,15,6846780.470490278,12,22, 7,45
13,902815379.2226646,190029.5815608576,12,25, 1,60,11433148.844798334,12,28,19,60
61,301924526.02383536,88139.10953165221,12,22, 1,15,1282023.4113694867,12,22,20,15
134,70666020.44019976,63564.01800854099,12,22, 4,15,156554.22484006523,12,27,20,15
170,5241013.419656067,348.4159749238097,12,22, 4,15,17476.39704006126,12,27,12,15
207,6509451.13922267,815.2532113832032,12,22, 3,15,22990.642799023623,12,27,10,15
244,12749673.399825225,1521.856143006317,12,22, 4,15,53038.631142310165,12,27,20,15
281,46165882.481495745,59938.60262432081,12,22, 5,15,81951.81706819107,12,22,19,15
318,0.0,0.0,12,22, 1,15,0.0,12,22, 1,15
355,197687796.27748066,18561.32405820678,12,22, 4,15,724774.895203776,12,27,18,15
403,197687796.27748066,18561.32405820678,12,22, 4,15,724774.895203776,12,27,18,15
476,106772067.24485716,7098.072629279515,12,22, 4,15,356036.3026282215,12,27,12,15
513,0.0,0.0,12,22, 1,15,0.0,12,22, 1,15
562,20482331.634771965,0.0,12,22, 1,15,151662.30751062575,12,27, 6,45
1046,0.0,0.0,12,22, 1,15,0.0,12,22, 1,15
1096,1108782.2693821576,0.0,12,22, 1,15,163462.96850068663,12,28,17,30
1134,299854675.4428491,0.0,12,22,10,45,2352373.580494696,12,27, 6,15
1326,208779043.4116264,0.0,12,22, 1,15,10074947.593269527,12,28, 9,45
1379,0.0,0.0,12,22, 1,15,0.0,12,22, 1,15
1,EXTREME_SUMMER,  35.27,-113.93,  -7.00,1033.00
5,7
1038,0.0,0.0, 6,29, 1,15,0.0, 6,29, 1,15
1039,15.25,0.0, 6,29, 1,15,0.25, 6,29,15,30
581,0.21709855046292853,0.0, 7, 2, 7,33,1.2224125880573304, 6,30,18,52
582,5.772293522028989,0.04670194136497962, 7, 4, 3,25,23.17227027935108, 6,29,16,46
583,0.05219715583677481,0.00005550559122966601, 7, 5, 6, 7,0.11427681874440233, 6,30,18,52
1115,0.0,0.0, 6,29, 1, 3,0.0, 6,29, 1, 3
1128,0.0,0.0, 6,29, 1, 3,0.0, 6,29, 1, 3
1153,0.0,0.0, 6,29, 1, 3,0.0, 6,29, 1, 3
1154,0.0,0.0, 6,29, 1, 3,0.0, 6,29, 1, 3
1155,0.0,0.0, 6,29, 1, 3,0.0, 6,29, 1, 3
1156,0.0,0.0, 6,29, 1, 3,0.0, 6,29, 1, 3
1292,-22068134.670185238,-34345.478913054765, 7, 3,22,30,-2765.5470484057237, 7, 4, 8,60
1306,146410893.71363986,0.0, 6,29, 1, 3,2977585.3945955015, 7, 5, 9,45
1307,0.0,0.0, 6,29, 1, 3,0.0, 6,29, 1, 3
1308,146410893.71363986,0.0, 6,29, 1, 3,2977585.3945955015, 7, 5, 9,45
13,1310185678.0221152,246960.0240481455, 7, 4, 4,60,12839351.524746329, 7, 5,19,60
61,301924526.02383536,88139.10953165221, 6,29, 1,15,1282023.4113694867, 6,29,20,15
134,70666020.44019976,63564.01800854099, 6,29, 4,15,156554.22484006523, 7, 4,20,15
170,5241013.419656067,348.4159749238097, 6,29, 4,15,17476.39704006126, 7, 4,12,15
207,6509451.13922267,815.2532113832032, 6,29, 3,15,22990.642799023623, 7, 4,10,15
244,12749673.399825225,1521.856143006317, 6,29, 4,15,53038.631142310165, 7, 4,20,15
281,46165882.481495745,59938.60262432081, 6,29, 5,15,81951.81706819107, 6,29,19,15
318,0.0,0.0, 6,29, 1,15,0.0, 6,29, 1,15
355,197687796.27748066,18561.32405820678, 6,29, 4,15,724774.895203776, 7, 4,18,15
403,197687796.27748066,18561.32405820678, 6,29, 4,15,724774.895203776, 7, 4,18,15
476,106772067.24485716,7098.072629279515, 6,29, 4,15,356036.3026282215, 7, 4,12,15
513,0.0,0.0, 6,29, 1,15,0.0, 6,29, 1,15
562,66238422.01393022,8721.545753674081, 7, 4, 6,30,176795.45987666893, 6,29,16,30
1046,0.0,0.0, 6,29, 1,15,0.0, 6,29, 1,15
1096,724945815.8305107,71979.76744503244, 7, 4, 6,30,2333664.70061888, 6,29,15,60
1134,0.0,0.0, 6,29, 1,15,0.0, 6,29, 1,15
1326,146410893.71363991,0.0, 6,29, 1,15,9613622.232431697, 7, 5,19,60
1379,0.0,0.0, 6,29, 1,15,0.0, 6,29, 1,15
1,ANNUAL,  35.27,-113.93,  -7.00,1033.00
5,365
1038,0.0,0.0, 1, 1, 1,15,0.0, 1, 1, 1,15
1039,245.5,0.0, 1, 1, 1,15,0.25, 1,27,16,15
581,0.27597954302731775,0.0, 3,14, 9,33,1.2244612654145752, 6,30,18,60
582,4.971714728537211,0.0, 1, 1,10,50,28.748114512926573, 6,28,19,46
583,0.029631879759084476,0.0, 6,28, 6, 7,0.11900221814638817, 6,30,18,60
1115,6063897237.157449,0.0, 1, 1,18,52,4659867.6612830795, 2, 3, 6,45
1128,1892405899.778511,0.0, 1, 1,18,52,1576779.4022769318, 1,26, 7,60
1153,45393481.7455777,0.0, 1, 1,10,20,108030.37543081668, 4, 9, 6,45
1154,1537319397.8170168,0.0, 1, 1, 6, 5,180000.0, 1, 1,21,60
1155,28044119.7765334,0.0, 1, 1, 1,15,943150.6500896884, 1, 4, 6, 5
1156,28044119.7765334,0.0, 1, 1, 1,15,943150.6500896884, 1, 4, 6, 5
1292,-1195526764.1701944,-39767.8390037435,12,18, 1,60,-2106.9586910043895, 8,25,16,34
1306,9362820146.856348,0.0, 1, 1, 1,15,10072072.062476179, 1,15, 9,45
1307,98354003.30720426,0.0, 1, 1, 1,15,3719710.3181877574,12,24,19,60
1308,9362820146.856348,0.0, 1, 1, 1,15,10072072.062476179, 1,15, 9,45
13,48704798826.22697,151703.1275401932, 2, 8, 4,60,13686124.99954548, 7,23,19,60
61,15743207428.383959,88139.10953165221, 1, 1, 1,15,1282023.4113694867, 1, 1,20,15
134,3685071073.4325233,63564.01800854099, 1, 2, 4,15,156554.22484006523, 1, 1,20,15
170,273393721.45532674,348.4159749238097, 1, 2, 4,15,17476.39704006126, 1, 1,12,15
207,339560869.0695816,815.2532113832032, 1, 2, 3,15,22990.642799023623, 1, 1,10,15
244,664895467.8009144,1521.856143006317, 1, 2, 4,15,53038.631142310165, 1, 1,20,15
281,2407221015.106824,59938.60262432081, 1, 1, 5,15,81951.81706819107, 1, 1,19,15
318,0.0,0.0, 1, 1, 1,15,0.0, 1, 1, 1,15
355,10310294493.051695,18561.32405820678, 1, 2, 4,15,724774.895203776, 1, 1,18,15
403,10310294493.051695,18561.32405820678, 1, 2, 4,15,724774.895203776, 1, 1,18,15
476,5569688622.066177,7098.072629279515, 1, 2, 4,15,356036.3026282215, 1, 1,12,15
513,0.0,0.0, 1, 1, 1,15,0.0, 1, 1, 1,15
562,1778470298.2935085,0.0, 1, 1,18,60,176795.45987666893, 6, 6,15,45
1046,0.0,0.0, 1, 1, 1,15,0.0, 1, 1, 1,15
1096,14632066980.140741,0.0, 1, 1, 1,15,2316075.3245527, 6,29,15,60
1134,3503162899.1176343,0.0, 1, 2,18,60,2455399.4135174286,12,21, 6,15
1326,9362820146.856339,0.0, 1, 1, 1,15,10519142.347982574, 6, 4,19,60
1379,0.0,0.0, 1, 1, 1,15,0.0, 1, 1, 1,15
End of Data
 Number of Records Written=          99
