Program Version,EnergyPlus, Version 22.2.0-c249759bad, YMD=2023.09.01 14:31
1,5,Environment Title[],Latitude[deg],Longitude[deg],Time Zone[],Elevation[m]
2,8,Day of Simulation[],Month[],Day of Month[],DST Indicator[1=yes 0=no],Hour[],StartMinute[],EndMinute[],DayType
3,5,Cumulative Day of Simulation[],Month[],Day of Month[],DST Indicator[1=yes 0=no],DayType  ! When Daily Report Variables Requested
4,2,Cumulative Days of Simulation[],Month[]  ! When Monthly Report Variables Requested
5,1,Cumulative Days of Simulation[] ! When Run Period Report Variables Requested
6,1,Calendar Year of Simulation[] ! When Annual Report Variables Requested
7,1,Environment,Site Outdoor Air Drybulb Temperature [C] !Hourly
545,1,LIVING,Zone Mean Air Temperature [C] !Hourly
546,1,ATTIC,Zone Mean Air Temperature [C] !Hourly
547,1,CRAWLSPACE,Zone Mean Air Temperature [C] !Hourly
548,1,FAN,Fan Electricity Rate [W] !Hourly
720,1,LIVING,Zone Predicted Sensible Load to Heating Setpoint Heat Transfer Rate [W] !Hourly
721,1,LIVING,Zone System Predicted Sensible Load to Heating Setpoint Heat Transfer Rate [W] !Hourly
784,1,ATTIC,Zone Predicted Sensible Load to Heating Setpoint Heat Transfer Rate [W] !Hourly
785,1,ATTIC,Zone System Predicted Sensible Load to Heating Setpoint Heat Transfer Rate [W] !Hourly
848,1,CRAWLSPACE,Zone Predicted Sensible Load to Heating Setpoint Heat Transfer Rate [W] !Hourly
849,1,CRAWLSPACE,Zone System Predicted Sensible Load to Heating Setpoint Heat Transfer Rate [W] !Hourly
1121,1,DX_HEATING_COIL,Heating Coil Heating Rate [W] !Hourly
1135,1,DX_HEATING_COIL,Heating Coil Electricity Rate [W] !Hourly
1161,1,DX_HEATING_COIL,Heating Coil Defrost Electricity Rate [W] !Hourly
1163,1,DX_HEATING_COIL,Heating Coil Crankcase Heater Electricity Rate [W] !Hourly
1166,1,HEATING_RESISTANCE_BACKUP,Heating Coil Heating Rate [W] !Hourly
1168,1,HEATING_RESISTANCE_BACKUP,Heating Coil Electricity Rate [W] !Hourly
End of Data Dictionary
1,EXTREME_WINTER,  46.84, -92.18,  -6.00, 432.00
2,1, 1,20, 0, 1, 0.00,60.00,Monday
7,-19.4
545,18.55873563780147
546,-13.978912819512901
547,17.24162159933113
548,146.1558969718496
720,6376.1926527106825
721,6376.1926527106825
784,0.0
785,0.0
848,0.0
849,0.0
1121,2751.795267677793
1135,1234.5450694495285
1161,2.1431216227487973
1163,0.0
1166,6550.863357529686
1168,6550.863357529686
2,1, 1,20, 0, 2, 0.00,60.00,Monday
7,-20.6
545,18.552549170620573
546,-13.709084952472825
547,16.68145769660594
548,146.1558969718496
720,6614.048185682932
721,6614.048185682932
784,0.0
785,0.0
848,0.0
849,0.0
1121,2635.7814815435754
1135,1214.5663654017794
1161,3.265030468066879
1163,0.0
1166,6813.930619890017
1168,6813.930619890017
2,1, 1,20, 0, 3, 0.00,60.00,Monday
7,-21.1
545,18.544103904359357
546,-13.879388204271041
547,16.422895900824503
548,146.1558969718496
720,6733.570658151566
721,6733.570658151566
784,0.0
785,0.0
848,0.0
849,0.0
1121,2587.639374284839
1135,1205.147528386928
1161,4.218899919225802
1163,0.0
1166,6983.6582545789715
1168,6983.6582545789715
2,1, 1,20, 0, 4, 0.00,60.00,Monday
7,-21.7
545,18.540732249494226
546,-14.148879462882338
547,16.114798230577065
548,146.1558969718496
720,6743.245353706088
721,6743.245353706088
784,0.0
785,0.0
848,0.0
849,0.0
1121,2534.0537615801622
1135,1195.9677460402027
1161,3.7571197167159514
1163,0.0
1166,7055.535037043874
1168,7055.535037043874
2,1, 1,20, 0, 5, 0.00,60.00,Monday
7,-22.2
545,18.53653223025162
546,-14.48714278704646
547,15.848262404061298
548,146.1558969718496
720,6819.615111412264
721,6819.615111412264
784,0.0
785,0.0
848,0.0
849,0.0
1121,2490.810772103358
1135,1188.5999101635696
1161,3.0075244797992395
1163,0.0
1166,7207.350658609192
1168,7207.350658609192
2,1, 1,20, 0, 6, 0.00,60.00,Monday
7,-22.8
545,19.297133984711216
546,-14.707478203771991
547,15.587605901546855
548,146.1558969718496
720,8383.422218480484
721,8383.422218480484
784,0.0
785,0.0
848,0.0
849,0.0
1121,2437.332689162598
1135,1178.7261678110465
1161,2.9973569379599234
1163,0.0
1166,9104.275006561298
1168,9104.275006561298
2,1, 1,20, 0, 7, 0.00,60.00,Monday
7,-22.8
545,19.52982842182801
546,-15.148231372862924
547,15.373097727565614
548,146.1558969718496
720,8411.418312947384
721,8411.418312947384
784,0.0
785,0.0
848,0.0
849,0.0
1121,2421.2996196335753
1135,1191.6149303054424
1161,2.9968007274470025
1163,0.0
1166,9272.511560283792
1168,9272.511560283792
2,1, 1,20, 0, 8, 0.00,60.00,Monday
7,-23.3
545,19.606189650231695
546,-15.091184477934556
547,15.144923596574603
548,146.1558969718496
720,7988.310265664868
721,7988.310265664868
784,0.0
785,0.0
848,0.0
849,0.0
1121,2373.6889038748964
1135,1187.7271407748456
1161,2.3369042719179007
1163,0.0
1166,8888.796683810742
1168,8888.796683810742
2,1, 1,20, 0, 9, 0.00,60.00,Monday
7,-23.3
545,19.624372805943633
546,-15.470194613557574
547,14.924235362633576
548,146.1558969718496
720,7939.148547735154
721,7939.148547735154
784,0.0
785,0.0
848,0.0
849,0.0
1121,2372.3268056592337
1135,1188.786166603702
1161,2.336229505975503
1163,0.0
1166,8839.833025324124
1168,8839.833025324124
2,1, 1,20, 0,10, 0.00,60.00,Monday
7,-22.8
545,19.666376829058873
546,-13.805628755881774
547,14.723129914445384
548,146.1558969718496
720,6619.686522964632
721,6619.686522964632
784,0.0
785,0.0
848,0.0
849,0.0
1121,2415.0056980292106
1135,1196.6202722767243
1161,2.9935911042989045
1163,0.0
1166,7283.378247533041
1168,7283.378247533041
2,1, 1,20, 0,11, 0.00,60.00,Monday
7,-21.1
545,19.693478181944602
546,-10.40567338488704
547,14.542047316580264
548,146.1558969718496
720,5655.612643217048
721,5655.612643217048
784,0.0
785,0.0
848,0.0
849,0.0
1121,2570.0056415623135
1135,1225.804317456815
1161,2.4697808443027123
1163,0.0
1166,5907.715635893636
1168,5907.715635893636
2,1, 1,20, 0,12, 0.00,60.00,Monday
7,-21.0
545,19.698000136804954
546,-10.722742845553459
547,14.365513621867432
548,146.1558969718496
720,5471.700842910977
721,5471.700842910977
784,0.0
785,0.0
848,0.0
849,0.0
1121,2579.7527579967054
1135,1228.1266300462605
1161,2.124979713265078
1163,0.0
1166,5489.062171007591
1168,5489.062171007591
2,1, 1,20, 0,13, 0.00,60.00,Monday
7,-20.0
545,19.69151555435583
546,-10.703062773525232
547,14.22448986516977
548,146.1558969718496
720,5054.844570695177
721,5054.844570695177
784,0.0
785,0.0
848,0.0
849,0.0
1121,2670.8353947368396
1135,1242.61048478703
1161,3.257304949807403
1163,0.0
1166,4899.490007527331
1168,4899.490007527331
2,1, 1,20, 0,14, 0.00,60.00,Monday
7,-18.9
545,19.688963240253933
546,-9.5683272301232
547,14.101553402548346
548,146.1558969718496
720,4782.875865865757
721,4782.875865865757
784,0.0
785,0.0
848,0.0
849,0.0
1121,2784.9856988043603
1135,1263.144622313918
1161,0.07313011242322599
1163,0.0
1166,4460.412617318778
1168,4460.412617318778
2,1, 1,20, 0,15, 0.00,60.00,Monday
7,-17.8
545,19.71071586245214
546,-9.470876379390354
547,13.997289244732677
548,146.1558969718496
720,3996.430974063498
721,3996.430974063498
784,0.0
785,0.0
848,0.0
849,0.0
1121,2893.399585942924
1135,1279.5413849790484
1161,0.07313011242322599
1163,0.0
1166,3383.420759222214
1168,3383.420759222214
2,1, 1,20, 0,16, 0.00,60.00,Monday
7,-18.0
545,19.70275535299212
546,-9.409009114750933
547,13.905081530307534
548,146.1558969718496
720,3852.4792284711657
721,3852.4792284711657
784,0.0
785,0.0
848,0.0
849,0.0
1121,2873.173959987401
1135,1276.9037940126018
1161,0.07313011242322599
1163,0.0
1166,3204.299626010507
1168,3204.299626010507
2,1, 1,20, 0,17, 0.00,60.00,Monday
7,-18.9
545,19.688660056696765
546,-10.05890186296635
547,13.823312506630515
548,146.1558969718496
720,3971.1509558895377
721,3971.1509558895377
784,0.0
785,0.0
848,0.0
849,0.0
1121,2785.125908680996
1135,1263.017841278663
1161,0.07313011242322599
1163,0.0
1166,3421.480470098456
1168,3421.480470098456
2,1, 1,20, 0,18, 0.00,60.00,Monday
7,-19.0
545,19.66791505858395
546,-11.249404829350192
547,13.742831398634783
548,146.1558969718496
720,4532.81492400756
721,4532.81492400756
784,0.0
785,0.0
848,0.0
849,0.0
1121,2773.8904454230324
1135,1260.2446306857883
1161,0.8070847374129193
1163,0.0
1166,4113.214452539363
1168,4113.214452539363
2,1, 1,20, 0,19, 0.00,60.00,Monday
7,-20.6
545,19.659880850617988
546,-11.731139920483269
547,13.639408267597531
548,146.1558969718496
720,4838.359068127802
721,4838.359068127802
784,0.0
785,0.0
848,0.0
849,0.0
1121,2612.399098409421
1135,1230.2860299974411
1161,4.6255475050888855
1163,0.0
1166,4703.44901223986
1168,4703.44901223986
2,1, 1,20, 0,20, 0.00,60.00,Monday
7,-20.6
545,19.660353467191378
546,-12.984490772808373
547,13.531542440121706
548,146.1558969718496
720,5052.192180148113
721,5052.192180148113
784,0.0
785,0.0
848,0.0
849,0.0
1121,2616.1035748426493
1135,1231.6116661013962
1161,3.25960201211346
1163,0.0
1166,4992.606291082853
1168,4992.606291082853
2,1, 1,20, 0,21, 0.00,60.00,Monday
7,-21.1
545,19.64639815463279
546,-14.39041413358862
547,13.403365212963557
548,146.1558969718496
720,5594.910536286203
721,5594.910536286203
784,0.0
785,0.0
848,0.0
849,0.0
1121,2571.6446031118608
1135,1224.3942654424397
1161,2.478920540062673
1163,0.0
1166,5740.299491286171
1168,5740.299491286171
2,1, 1,20, 0,22, 0.00,60.00,Monday
7,-21.7
545,19.63924866584838
546,-14.435684059921243
547,13.270691474811985
548,146.1558969718496
720,5960.618273520828
721,5960.618273520828
784,0.0
785,0.0
848,0.0
849,0.0
1121,2517.7750526889117
1135,1214.6974970842057
1161,2.1175314425653706
1163,0.0
1166,6310.155304763454
1168,6310.155304763454
2,1, 1,20, 0,23, 0.00,60.00,Monday
7,-22.2
545,18.86640749701576
546,-15.776579686778904
547,13.125078515611463
548,146.1558969718496
720,5531.379118506469
721,5531.379118506469
784,0.0
785,0.0
848,0.0
849,0.0
1121,2476.995698434917
1135,1208.3184927631473
1161,0.2671401427205892
1163,0.0
1166,5884.687487260888
1168,5884.687487260888
2,1, 1,20, 0,24, 0.00,60.00,Monday
7,-23.3
545,18.611745674683984
546,-16.372841894854243
547,12.938037862951656
548,146.1558969718496
720,6542.91662159181
721,6542.91662159181
784,0.0
785,0.0
848,0.0
849,0.0
1121,2395.852508695856
1135,1176.8817646067075
1161,0.07313011242322599
1163,0.0
1166,7140.871769357853
1168,7140.871769357853
2,2, 1,21, 0, 1, 0.00,60.00,Tuesday
7,-24.4
545,18.5338841152192
546,-16.54392132523908
547,12.769991779761563
548,146.1558969718496
720,7170.478970516382
721,7170.478970516382
784,0.0
785,0.0
848,0.0
849,0.0
1121,2305.4034624627166
1135,1154.3086691015362
1161,0.07313011242322599
1163,0.0
1166,8006.703390996367
1168,8006.703390996367
2,2, 1,21, 0, 2, 0.00,60.00,Tuesday
7,-25.0
545,18.49867805477857
546,-17.952517691775846
547,12.598217112179269
548,146.1558969718496
720,8120.57657664199
721,8120.57657664199
784,0.0
785,0.0
848,0.0
849,0.0
1121,2255.862394968603
1135,1142.8703515768916
1161,0.07313011242322599
1163,0.0
1166,9183.197747175935
1168,9183.197747175935
2,2, 1,21, 0, 3, 0.00,60.00,Tuesday
7,-25.6
545,18.403962737508788
546,-18.43562156177446
547,12.425613807511718
548,146.1558969718496
720,8499.233097274542
721,8499.233097274542
784,0.0
785,0.0
848,0.0
849,0.0
1121,2206.137189101285
1135,1132.0245148165516
1161,0.07313011242322599
1163,0.0
1166,9604.933511751482
1168,9604.933511751482
2,2, 1,21, 0, 4, 0.00,60.00,Tuesday
7,-26.1
545,18.453513997454007
546,-18.367741711589808
547,12.251252825199925
548,146.1558969718496
720,8328.897351166823
721,8328.897351166823
784,0.0
785,0.0
848,0.0
849,0.0
1121,2166.63378576139
1135,1121.9248272407976
1161,0.07313011242322599
1163,0.0
1166,9604.933511751482
1168,9604.933511751482
2,2, 1,21, 0, 5, 0.00,60.00,Tuesday
7,-27.0
545,18.305647473964846
546,-19.06185875554473
547,12.075551120774078
548,146.1558969718496
720,8532.448720060653
721,8532.448720060653
784,0.0
785,0.0
848,0.0
849,0.0
1121,2092.0584507443873
1135,1106.9303588174469
1161,0.07313011242322599
1163,0.0
1166,9604.933511751482
1168,9604.933511751482
2,2, 1,21, 0, 6, 0.00,60.00,Tuesday
7,-27.0
545,18.464270435391317
546,-18.88101681623688
547,11.901490199243687
548,146.1558969718496
720,9511.16568782967
721,9511.16568782967
784,0.0
785,0.0
848,0.0
849,0.0
1121,2095.322082343784
1135,1104.6930321605955
1161,0.07313011242322599
1163,0.0
1166,9604.933511751482
1168,9604.933511751482
2,2, 1,21, 0, 7, 0.00,60.00,Tuesday
7,-28.3
545,18.27853313666893
546,-20.134109593764915
547,11.727558167558225
548,146.1558969718496
720,9812.37127697343
721,9812.37127697343
784,0.0
785,0.0
848,0.0
849,0.0
1121,1988.6448550933912
1135,1083.7538922817637
1161,0.07313011242322599
1163,0.0
1166,9604.933511751482
1168,9604.933511751482
2,2, 1,21, 0, 8, 0.00,60.00,Tuesday
7,-28.3
545,18.031557364130457
546,-20.313796011713297
547,11.55284407680465
548,146.1558969718496
720,10069.480922913255
721,10069.480922913255
784,0.0
785,0.0
848,0.0
849,0.0
1121,1992.666584139364
1135,1081.170314858159
1161,0.07313011242322599
1163,0.0
1166,9604.933511751482
1168,9604.933511751482
2,2, 1,21, 0, 9, 0.00,60.00,Tuesday
7,-28.3
545,18.350248417847887
546,-20.187610228090712
547,11.378665320208398
548,146.1558969718496
720,9420.26970458189
721,9420.26970458189
784,0.0
785,0.0
848,0.0
849,0.0
1121,1997.9211971451912
1135,1077.7665938519244
1161,0.07313011242322599
1163,0.0
1166,9604.933511751482
1168,9604.933511751482
2,2, 1,21, 0,10, 0.00,60.00,Tuesday
7,-27.2
545,18.02977582715758
546,-20.04398467414578
547,11.235973545368369
548,146.1558969718496
720,10163.091509606718
721,10163.091509606718
784,0.0
785,0.0
848,0.0
849,0.0
1121,2079.143216057585
1135,1101.2193375963413
1161,0.07313011242322599
1163,0.0
1166,9604.933511751482
1168,9604.933511751482
2,2, 1,21, 0,11, 0.00,60.00,Tuesday
7,-26.0
545,19.050064074352257
546,-17.233518032378328
547,11.093692066183106
548,146.1558969718496
720,8395.538144476377
721,8395.538144476377
784,0.0
785,0.0
848,0.0
849,0.0
1121,2184.140094887241
1135,1116.9816724545683
1161,0.07313011242322599
1163,0.0
1166,9604.933511751482
1168,9604.933511751482
2,2, 1,21, 0,12, 0.00,60.00,Tuesday
7,-25.0
545,19.310680147504364
546,-16.574220254324853
547,11.020891963745134
548,146.1558969718496
720,8572.533580368057
721,8572.533580368057
784,0.0
785,0.0
848,0.0
849,0.0
1121,2247.0706417536353
1135,1149.3947246347564
1161,0.07313011242322599
1163,0.0
1166,9604.933511751482
1168,9604.933511751482
2,2, 1,21, 0,13, 0.00,60.00,Tuesday
7,-24.4
545,19.57097988967455
546,-13.905427585075785
547,10.933875280247257
548,146.1558969718496
720,7046.91803445515
721,7046.91803445515
784,0.0
785,0.0
848,0.0
849,0.0
1121,2292.9375805172695
1135,1163.752471940846
1161,0.07313011242322599
1163,0.0
1166,8055.276285140087
1168,8055.276285140087
2,2, 1,21, 0,14, 0.00,60.00,Tuesday
7,-24.0
545,19.625336828131093
546,-16.668774010436408
547,10.854565412370123
548,146.1558969718496
720,7312.145880032322
721,7312.145880032322
784,0.0
785,0.0
848,0.0
849,0.0
1121,2322.1839655652802
1135,1174.664436787821
1161,0.07313011242322599
1163,0.0
1166,8201.37814455893
1168,8201.37814455893
2,2, 1,21, 0,15, 0.00,60.00,Tuesday
7,-23.0
545,19.640853305410005
546,-14.451362367018469
547,10.80281963925132
548,146.1558969718496
720,6578.9865791430875
721,6578.9865791430875
784,0.0
785,0.0
848,0.0
849,0.0
1121,2409.021572253942
1135,1192.4924722662386
1161,0.07313011242322599
1163,0.0
1166,7380.209887575131
1168,7380.209887575131
2,2, 1,21, 0,16, 0.00,60.00,Tuesday
7,-23.3
545,19.686065886361607
546,-15.002091746642138
547,10.74358408750991
548,146.1558969718496
720,5449.311728321123
721,5449.311728321123
784,0.0
785,0.0
848,0.0
849,0.0
1121,2382.1555486262773
1135,1187.6491933936745
1161,0.07313011242322599
1163,0.0
1166,5994.48705636844
1168,5994.48705636844
2,2, 1,21, 0,17, 0.00,60.00,Tuesday
7,-24.0
545,19.67485608048345
546,-13.439611981080624
547,10.699299227618857
548,146.1558969718496
720,5238.892895648491
721,5238.892895648491
784,0.0
785,0.0
848,0.0
849,0.0
1121,2319.8211461851192
1135,1176.4553186675853
1161,0.07313011242322599
1163,0.0
1166,5793.632034944662
1168,5793.632034944662
2,2, 1,21, 0,18, 0.00,60.00,Tuesday
7,-24.4
545,19.65196044179854
546,-14.744935810724412
547,10.647935226626984
548,146.1558969718496
720,5951.198289293903
721,5951.198289293903
784,0.0
785,0.0
848,0.0
849,0.0
1121,2285.520986484626
1135,1169.2994485514641
1161,0.07313011242322599
1163,0.0
1166,6573.07646791458
1168,6573.07646791458
2,2, 1,21, 0,19, 0.00,60.00,Tuesday
7,-24.4
545,19.641505163175243
546,-15.62738381161162
547,10.58811702895499
548,146.1558969718496
720,6145.378491420135
721,6145.378491420135
784,0.0
785,0.0
848,0.0
849,0.0
1121,2286.0763176795394
1135,1168.885964970166
1161,0.07313011242322599
1163,0.0
1166,6864.113442696964
1168,6864.113442696964
2,2, 1,21, 0,20, 0.00,60.00,Tuesday
7,-25.6
545,19.634346002163053
546,-16.06318719693135
547,10.50376792799877
548,146.1558969718496
720,6402.641214293179
721,6402.641214293179
784,0.0
785,0.0
848,0.0
849,0.0
1121,2184.4537383133397
1135,1147.573508445156
1161,0.07313011242322599
1163,0.0
1166,7321.340729648162
1168,7321.340729648162
2,2, 1,21, 0,21, 0.00,60.00,Tuesday
7,-25.6
545,19.63318739111556
546,-16.776041453651303
547,10.415720698531608
548,146.1558969718496
720,6600.92378354868
721,6600.92378354868
784,0.0
785,0.0
848,0.0
849,0.0
1121,2184.720671148621
1135,1147.3850373457065
1161,0.07313011242322599
1163,0.0
1166,7589.354312133932
1168,7589.354312133932
2,2, 1,21, 0,22, 0.00,60.00,Tuesday
7,-25.6
545,19.620644801464902
546,-17.61895039335174
547,10.314100282623482
548,146.1558969718496
720,7138.43655068808
721,7138.43655068808
784,0.0
785,0.0
848,0.0
849,0.0
1121,2184.8811571808155
1135,1147.2716888637276
1161,0.07313011242322599
1163,0.0
1166,8258.571456584312
1168,8258.571456584312
2,2, 1,21, 0,23, 0.00,60.00,Tuesday
7,-26.1
545,18.841716236597733
546,-18.147180828379746
547,10.202929276745408
548,146.1558969718496
720,6387.065057040629
721,6387.065057040629
784,0.0
785,0.0
848,0.0
849,0.0
1121,2143.668615868334
1135,1138.0511979898804
1161,0.07313011242322599
1163,0.0
1166,7492.13212587364
1168,7492.13212587364
2,2, 1,21, 0,24, 0.00,60.00,Tuesday
7,-26.7
545,18.598220850045628
546,-17.914586484778518
547,10.052225524559782
548,146.1558969718496
720,7174.78082795985
721,7174.78082795985
784,0.0
785,0.0
848,0.0
849,0.0
1121,2110.8835776334417
1135,1116.0099957605548
1161,0.07313011242322599
1163,0.0
1166,8403.887982149103
1168,8403.887982149103
2,3, 1,22, 0, 1, 0.00,60.00,Wednesday
7,-27.2
545,18.516649974796135
546,-19.261748029183128
547,9.918906736714163
548,146.1558969718496
720,8104.396443613059
721,8104.396443613059
784,0.0
785,0.0
848,0.0
849,0.0
1121,2075.5939347116737
1135,1103.628239711015
1161,0.07313011242322599
1163,0.0
1166,9502.384048654998
1168,9502.384048654998
2,3, 1,22, 0, 2, 0.00,60.00,Wednesday
7,-27.8
545,18.307574465242855
546,-18.572882101323845
547,9.784520036757998
548,146.1558969718496
720,8391.11308245729
721,8391.11308245729
784,0.0
785,0.0
848,0.0
849,0.0
1121,2028.669482121391
1135,1091.4199202324141
1161,0.4595975507643374
1163,0.0
1166,9604.933511751482
1168,9604.933511751482
2,3, 1,22, 0, 3, 0.00,60.00,Wednesday
7,-27.8
545,18.151561788994382
546,-18.58564424396054
547,9.644711271945242
548,146.1558969718496
720,8607.542892608104
721,8607.542892608104
784,0.0
785,0.0
848,0.0
849,0.0
1121,2033.8605010150318
1135,1088.8774214181688
1161,0.07313011242322599
1163,0.0
1166,9604.933511751482
1168,9604.933511751482
2,3, 1,22, 0, 4, 0.00,60.00,Wednesday
7,-28.3
545,18.002060274355298
546,-19.047457394781585
547,9.502381425885861
548,146.1558969718496
720,8768.631281230711
721,8768.631281230711
784,0.0
785,0.0
848,0.0
849,0.0
1121,1997.7416801537136
1135,1077.8834031584806
1161,0.07313011242322599
1163,0.0
1166,9604.933511751482
1168,9604.933511751482
2,3, 1,22, 0, 5, 0.00,60.00,Wednesday
7,-28.3
545,17.8832151312734
546,-19.194665955375815
547,9.36391328151672
548,146.1558969718496
720,8890.410715843384
721,8890.410715843384
784,0.0
785,0.0
848,0.0
849,0.0
1121,2000.9554096080951
1135,1075.7866487343472
1161,0.07313011242322599
1163,0.0
1166,9604.933511751482
1168,9604.933511751482
2,3, 1,22, 0, 6, 0.00,60.00,Wednesday
7,-28.9
545,17.75339372008777
546,-19.65233804088773
547,9.222372342808692
548,146.1558969718496
720,10359.843451354172
721,10359.843451354172
784,0.0
785,0.0
848,0.0
849,0.0
1121,1956.6364770812872
1135,1063.5114244843037
1161,0.16457337913783174
1163,0.0
1166,9604.933511751482
1168,9604.933511751482
2,3, 1,22, 0, 7, 0.00,60.00,Wednesday
7,-28.9
545,17.36868235641613
546,-20.52805146983833
547,9.081244076758999
548,146.1558969718496
720,10923.631298090684
721,10923.631298090684
784,0.0
785,0.0
848,0.0
849,0.0
1121,1959.4676299656426
1135,1061.7032846081927
1161,0.16460399429780934
1163,0.0
1166,9604.933511751482
1168,9604.933511751482
2,3, 1,22, 0, 8, 0.00,60.00,Wednesday
7,-28.9
545,17.51910882816585
546,-19.53983672782282
547,8.942324308926134
548,146.1558969718496
720,10426.125243094812
721,10426.125243094812
784,0.0
785,0.0
848,0.0
849,0.0
1121,1967.3059180559594
1135,1056.6479584552762
1161,0.16465334268815524
1163,0.0
1166,9604.933511751482
1168,9604.933511751482
2,3, 1,22, 0, 9, 0.00,60.00,Wednesday
7,-27.8
545,17.7388413617096
546,-18.307364322659655
547,8.82810796625841
548,146.1558969718496
720,10292.645992128259
721,10292.645992128259
784,0.0
785,0.0
848,0.0
849,0.0
1121,2050.156330608031
1135,1077.009040726851
1161,0.4591037034299901
1163,0.0
1166,9604.933511751482
1168,9604.933511751482
2,3, 1,22, 0,10, 0.00,60.00,Wednesday
7,-25.0
545,18.539432138775915
546,-16.672112043462217
547,8.731003185860196
548,146.1558969718496
720,9300.42872088412
721,9300.42872088412
784,0.0
785,0.0
848,0.0
849,0.0
1121,2277.197894619495
1135,1126.71800639711
1161,0.07313011242322599
1163,0.0
1166,9604.933511751482
1168,9604.933511751482
2,3, 1,22, 0,11, 0.00,60.00,Wednesday
7,-23.3
545,19.355657836805566
546,-12.849652529678995
547,8.668315983345673
548,146.1558969718496
720,7744.7707143235275
721,7744.7707143235275
784,0.0
785,0.0
848,0.0
849,0.0
1121,2408.2473642145437
1135,1166.990030649658
1161,0.07313011242322599
1163,0.0
1166,8748.444308954684
1168,8748.444308954684
2,3, 1,22, 0,12, 0.00,60.00,Wednesday
7,-22.2
545,19.61018191083014
546,-9.89925110745669
547,8.62945769202048
548,146.1558969718496
720,6402.347551429733
721,6402.347551429733
784,0.0
785,0.0
848,0.0
849,0.0
1121,2489.4473079777877
1135,1198.7492966023153
1161,0.07313011242322599
1163,0.0
1166,6972.298964668031
1168,6972.298964668031
2,3, 1,22, 0,13, 0.00,60.00,Wednesday
7,-21.7
545,19.676710255662517
546,-9.982073810237733
547,8.599280098822138
548,146.1558969718496
720,5765.160908164644
721,5765.160908164644
784,0.0
785,0.0
848,0.0
849,0.0
1121,2529.5876089032236
1135,1211.3035925367142
1161,0.07313011242322599
1163,0.0
1166,6018.423698995075
1168,6018.423698995075
2,3, 1,22, 0,14, 0.00,60.00,Wednesday
7,-20.0
545,19.700598413130383
546,-9.15026939284629
547,8.605109290477358
548,146.1558969718496
720,4753.139448730308
721,4753.139448730308
784,0.0
785,0.0
848,0.0
849,0.0
1121,2686.8509599305276
1135,1239.3972333752035
1161,0.07313011242322599
1163,0.0
1166,4654.1219622324315
1168,4654.1219622324315
2,3, 1,22, 0,15, 0.00,60.00,Wednesday
7,-19.4
545,19.69055923944903
546,-9.804404732965441
547,8.61805298684246
548,146.1558969718496
720,4769.95236334933
721,4769.95236334933
784,0.0
785,0.0
848,0.0
849,0.0
1121,2743.7559675109487
1135,1249.0659442089902
1161,0.07313011242322599
1163,0.0
1166,4548.966908337384
1168,4548.966908337384
2,3, 1,22, 0,16, 0.00,60.00,Wednesday
7,-18.9
545,19.707585939973132
546,-10.348928498921344
547,8.650750927967179
548,146.1558969718496
720,3787.6905706800153
721,3787.6905706800153
784,0.0
785,0.0
848,0.0
849,0.0
1121,2792.3204958479973
1135,1256.4937297171032
1161,0.07313011242322599
1163,0.0
1166,3382.871725356642
1168,3382.871725356642
2,3, 1,22, 0,17, 0.00,60.00,Wednesday
7,-20.0
545,19.687666279637984
546,-10.621168985790582
547,8.680682854756864
548,146.1558969718496
720,3939.1508568299178
721,3939.1508568299178
784,0.0
785,0.0
848,0.0
849,0.0
1121,2686.0946620589884
1135,1240.0620925510445
1161,0.07313011242322599
1163,0.0
1166,3667.686131369189
1168,3667.686131369189
2,3, 1,22, 0,18, 0.00,60.00,Wednesday
7,-20.6
545,19.65904455895789
546,-11.736169568743948
547,8.708796977963209
548,146.1558969718496
720,4682.5535576320635
721,4682.5535576320635
784,0.0
785,0.0
848,0.0
849,0.0
1121,2629.812189709118
1135,1230.345743624448
1161,0.07313011242322599
1163,0.0
1166,4598.666357074805
1168,4598.666357074805
2,3, 1,22, 0,19, 0.00,60.00,Wednesday
7,-20.6
545,19.653159992188435
546,-12.830199074349643
547,8.719042381894226
548,146.1558969718496
720,5048.202201409666
721,5048.202201409666
784,0.0
785,0.0
848,0.0
849,0.0
1121,2630.4006560177654
1135,1229.8382830715614
1161,0.07313011242322599
1163,0.0
1166,5091.809949231483
1168,5091.809949231483
2,3, 1,22, 0,20, 0.00,60.00,Wednesday
7,-20.6
545,19.655808032659657
546,-12.972689525916591
547,8.708604958388117
548,146.1558969718496
720,5155.028763395747
721,5155.028763395747
784,0.0
785,0.0
848,0.0
849,0.0
1121,2630.5051590701232
1135,1229.7481369707787
1161,0.07313011242322599
1163,0.0
1166,5285.972117586551
1168,5285.972117586551
2,3, 1,22, 0,21, 0.00,60.00,Wednesday
7,-20.6
545,19.656838662885253
546,-13.49230594062871
547,8.677585158247181
548,146.1558969718496
720,5397.007273235256
721,5397.007273235256
784,0.0
785,0.0
848,0.0
849,0.0
1121,2630.4690737543983
1135,1229.779265745698
1161,0.07313011242322599
1163,0.0
1166,5587.942629650182
1168,5587.942629650182
2,3, 1,22, 0,22, 0.00,60.00,Wednesday
7,-21.7
545,19.645838431533438
546,-13.66094442212785
547,8.624561211396102
548,146.1558969718496
720,5879.047329073164
721,5879.047329073164
784,0.0
785,0.0
848,0.0
849,0.0
1121,2526.540759235999
1135,1211.3036863365842
1161,0.8811846793574727
1163,0.0
1166,6284.075867908641
1168,6284.075867908641
2,3, 1,22, 0,23, 0.00,60.00,Wednesday
7,-22.2
545,18.87648701799951
546,-14.231345467859073
547,8.564970061828754
548,146.1558969718496
720,5181.893323489723
721,5181.893323489723
784,0.0
785,0.0
848,0.0
849,0.0
1121,2479.080319051545
1135,1201.836861332059
1161,1.8370563682211245
1163,0.0
1166,5550.146550618196
1168,5550.146550618196
2,3, 1,22, 0,24, 0.00,60.00,Wednesday
7,-21.1
545,18.63952831904919
546,-14.33772048408437
547,8.47250546086835
548,146.1558969718496
720,5673.742282040614
721,5673.742282040614
784,0.0
785,0.0
848,0.0
849,0.0
1121,2594.9589707890423
1135,1204.5125282845922
1161,2.4803819892457106
1163,0.0
1166,5962.144475580048
1168,5962.144475580048
2,4, 1,23, 0, 1, 0.00,60.00,Thursday
7,-20.6
545,18.562138697671443
546,-14.281677549246261
547,8.39592869266895
548,146.1558969718496
720,6205.189144487749
721,6205.189144487749
784,0.0
785,0.0
848,0.0
849,0.0
1121,2644.829062960714
1135,1206.6402056540023
1161,3.2637475880941977
1163,0.0
1166,6526.03468503056
1168,6526.03468503056
2,4, 1,23, 0, 2, 0.00,60.00,Thursday
7,-20.6
545,18.541873505465286
546,-13.557295097705259
547,8.314963253618258
548,146.1558969718496
720,6502.379968518313
721,6502.379968518313
784,0.0
785,0.0
848,0.0
849,0.0
1121,2646.5631674812666
1135,1205.1098199112944
1161,3.2646927703050577
1163,0.0
1166,6873.322723140046
1168,6873.322723140046
2,4, 1,23, 0, 3, 0.00,60.00,Thursday
7,-20.6
545,18.541126409301828
546,-12.791840971859532
547,8.233724555015042
548,146.1558969718496
720,6650.331955327703
721,6650.331955327703
784,0.0
785,0.0
848,0.0
849,0.0
1121,2647.0886033523825
1135,1204.6487671371501
1161,3.2640513369709483
1163,0.0
1166,7016.6678888319075
1168,7016.6678888319075
2,4, 1,23, 0, 4, 0.00,60.00,Thursday
7,-21.1
545,18.53967912376066
546,-12.482786161989788
547,8.149317702992391
548,146.1558969718496
720,6820.035867199378
721,6820.035867199378
784,0.0
785,0.0
848,0.0
849,0.0
1121,2598.2275914914226
1135,1195.9774470413377
1161,4.226314744585366
1163,0.0
1166,7225.522695060482
1168,7225.522695060482
2,4, 1,23, 0, 5, 0.00,60.00,Thursday
7,-20.0
545,18.544000281972583
546,-12.611120770513946
547,8.078993152176432
548,146.1558969718496
720,6731.311891672263
721,6731.311891672263
784,0.0
785,0.0
848,0.0
849,0.0
1121,2697.8254368600983
1135,1210.518215274578
1161,5.647932007712599
1163,0.0
1166,7010.43411342605
1168,7010.43411342605
2,4, 1,23, 0, 6, 0.00,60.00,Thursday
7,-19.4
545,19.320513933738596
546,-12.290685823232925
547,8.006904576563727
548,146.1558969718496
720,7840.560798847557
721,7840.560798847557
784,0.0
785,0.0
848,0.0
849,0.0
1121,2754.7855338243107
1135,1219.1034460893093
1161,5.7349177003133445
1163,0.0
1166,8241.391091398293
1168,8241.391091398293
2,4, 1,23, 0, 7, 0.00,60.00,Thursday
7,-18.9
545,19.561407240238495
546,-11.665318932830461
547,7.973903662418409
548,146.1558969718496
720,7413.06950184933
721,7413.06950184933
784,0.0
785,0.0
848,0.0
849,0.0
1121,2779.2135578724856
1135,1238.568313560397
1161,8.379985129144083
1163,0.0
1166,7794.195775010332
1168,7794.195775010332
2,4, 1,23, 0, 8, 0.00,60.00,Thursday
7,-18.3
545,19.635170201902074
546,-11.54404164171743
547,7.918061155899718
548,146.1558969718496
720,7019.306667632693
721,7019.306667632693
784,0.0
785,0.0
848,0.0
849,0.0
1121,2830.2070096451057
1135,1251.2422105057622
1161,9.15154809626744
1163,0.0
1166,7275.273635232736
1168,7275.273635232736
2,4, 1,23, 0, 9, 0.00,60.00,Thursday
7,-18.0
545,19.653081720289027
546,-11.222616427646155
547,7.864656453406257
548,146.1558969718496
720,6826.779680330286
721,6826.779680330286
784,0.0
785,0.0
848,0.0
849,0.0
1121,2858.344947447945
1135,1257.2047800519085
1161,9.03782743492322
1163,0.0
1166,7010.76650807845
1168,7010.76650807845
2,4, 1,23, 0,10, 0.00,60.00,Thursday
7,-15.6
545,19.64889880614348
546,-10.26474229979698
547,7.823363534614214
548,146.1558969718496
720,7109.816789101551
721,7109.816789101551
784,0.0
785,0.0
848,0.0
849,0.0
1121,3108.7218961415433
1135,1294.920381971835
1161,6.0322958907772
1163,0.0
1166,7094.222139731522
1168,7094.222139731522
2,4, 1,23, 0,11, 0.00,60.00,Thursday
7,-16.0
545,19.68127044938286
546,-9.67665790087489
547,7.780788283184067
548,146.1558969718496
720,6130.158091712543
721,6130.158091712543
784,0.0
785,0.0
848,0.0
849,0.0
1121,3062.550845073388
1135,1287.1976188916353
1161,7.7647796321906855
1163,0.0
1166,5952.294276094677