Program Version,EnergyPlus, Version 22.2.0-c249759bad, YMD=2023.09.01 20:29
1,5,Environment Title[],Latitude[deg],Longitude[deg],Time Zone[],Elevation[m]
2,8,Day of Simulation[],Month[],Day of Month[],DST Indicator[1=yes 0=no],Hour[],StartMinute[],EndMinute[],DayType
3,5,Cumulative Day of Simulation[],Month[],Day of Month[],DST Indicator[1=yes 0=no],DayType  ! When Daily Report Variables Requested
4,2,Cumulative Days of Simulation[],Month[]  ! When Monthly Report Variables Requested
5,1,Cumulative Days of Simulation[] ! When Run Period Report Variables Requested
6,1,Calendar Year of Simulation[] ! When Annual Report Variables Requested
581,11,LIVING,AFN Zone Infiltration Air Change Rate [ach] !RunPeriod [Value,Min,Month,Day,Hour,Minute,Max,Month,Day,Hour,Minute]
582,11,ATTIC,AFN Zone Infiltration Air Change Rate [ach] !RunPeriod [Value,Min,Month,Day,Hour,Minute,Max,Month,Day,Hour,Minute]
583,11,CRAWLSPACE,AFN Zone Infiltration Air Change Rate [ach] !RunPeriod [Value,Min,Month,Day,Hour,Minute,Max,Month,Day,Hour,Minute]
1038,11,Facility,Facility Heating Setpoint Not Met Time [hr] !RunPeriod [Value,Min,Month,Day,Hour,Minute,Max,Month,Day,Hour,Minute]
1039,11,Facility,Facility Cooling Setpoint Not Met Time [hr] !RunPeriod [Value,Min,Month,Day,Hour,Minute,Max,Month,Day,Hour,Minute]
1115,11,DX_HEATING_COIL,Heating Coil Heating Energy [J] !RunPeriod [Value,Min,Month,Day,Hour,Minute,Max,Month,Day,Hour,Minute]
1128,11,DX_HEATING_COIL,Heating Coil Electricity Energy [J] !RunPeriod [Value,Min,Month,Day,Hour,Minute,Max,Month,Day,Hour,Minute]
1153,11,DX_HEATING_COIL,Heating Coil Defrost Electricity Energy [J] !RunPeriod [Value,Min,Month,Day,Hour,Minute,Max,Month,Day,Hour,Minute]
1154,11,DX_HEATING_COIL,Heating Coil Crankcase Heater Electricity Energy [J] !RunPeriod [Value,Min,Month,Day,Hour,Minute,Max,Month,Day,Hour,Minute]
1155,11,HEATING_RESISTANCE_BACKUP,Heating Coil Heating Energy [J] !RunPeriod [Value,Min,Month,Day,Hour,Minute,Max,Month,Day,Hour,Minute]
1156,11,HEATING_RESISTANCE_BACKUP,Heating Coil Electricity Energy [J] !RunPeriod [Value,Min,Month,Day,Hour,Minute,Max,Month,Day,Hour,Minute]
1292,11,WATER HEATER,Water Heater Heat Loss Energy [J] !RunPeriod [Value,Min,Month,Day,Hour,Minute,Max,Month,Day,Hour,Minute]
1306,11,WATER HEATER,Water Heater Heating Energy [J] !RunPeriod [Value,Min,Month,Day,Hour,Minute,Max,Month,Day,Hour,Minute]
1307,11,WATER HEATER,Water Heater Unmet Demand Heat Transfer Energy [J] !RunPeriod [Value,Min,Month,Day,Hour,Minute,Max,Month,Day,Hour,Minute]
1308,11,WATER HEATER,Water Heater Electricity Energy [J] !RunPeriod [Value,Min,Month,Day,Hour,Minute,Max,Month,Day,Hour,Minute]
13,11,Electricity:Facility [J] !RunPeriod [Value,Min,Month,Day,Hour,Minute,Max,Month,Day,Hour,Minute]
1134,11,Heating:Electricity [J] !RunPeriod [Value,Min,Month,Day,Hour,Minute,Max,Month,Day,Hour,Minute]
1096,11,Cooling:Electricity [J] !RunPeriod [Value,Min,Month,Day,Hour,Minute,Max,Month,Day,Hour,Minute]
562,11,Fans:Electricity [J] !RunPeriod [Value,Min,Month,Day,Hour,Minute,Max,Month,Day,Hour,Minute]
1379,11,Pumps:Electricity [J] !RunPeriod [Value,Min,Month,Day,Hour,Minute,Max,Month,Day,Hour,Minute]
1326,11,WaterSystems:Electricity [J] !RunPeriod [Value,Min,Month,Day,Hour,Minute,Max,Month,Day,Hour,Minute]
61,11,InteriorLights:Electricity [J] !RunPeriod [Value,Min,Month,Day,Hour,Minute,Max,Month,Day,Hour,Minute]
1046,11,ExteriorLights:Electricity [J] !RunPeriod [Value,Min,Month,Day,Hour,Minute,Max,Month,Day,Hour,Minute]
134,11,InteriorEquipment:Electricity [J] !RunPeriod [Value,Min,Month,Day,Hour,Minute,Max,Month,Day,Hour,Minute]
170,11,gas_dryer:InteriorEquipment:Electricity [J] !RunPeriod [Value,Min,Month,Day,Hour,Minute,Max,Month,Day,Hour,Minute]
207,11,clotheswasher:InteriorEquipment:Electricity [J] !RunPeriod [Value,Min,Month,Day,Hour,Minute,Max,Month,Day,Hour,Minute]
244,11,dishwasher:InteriorEquipment:Electricity [J] !RunPeriod [Value,Min,Month,Day,Hour,Minute,Max,Month,Day,Hour,Minute]
281,11,refrigerator:InteriorEquipment:Electricity [J] !RunPeriod [Value,Min,Month,Day,Hour,Minute,Max,Month,Day,Hour,Minute]
318,11,electric_mels:InteriorEquipment:Electricity [J] !RunPeriod [Value,Min,Month,Day,Hour,Minute,Max,Month,Day,Hour,Minute]
355,11,NaturalGas:Facility [J] !RunPeriod [Value,Min,Month,Day,Hour,Minute,Max,Month,Day,Hour,Minute]
403,11,InteriorEquipment:NaturalGas [J] !RunPeriod [Value,Min,Month,Day,Hour,Minute,Max,Month,Day,Hour,Minute]
476,11,gas_dryer:InteriorEquipment:NaturalGas [J] !RunPeriod [Value,Min,Month,Day,Hour,Minute,Max,Month,Day,Hour,Minute]
513,11,gas_mels:InteriorEquipment:NaturalGas [J] !RunPeriod [Value,Min,Month,Day,Hour,Minute,Max,Month,Day,Hour,Minute]
End of Data Dictionary
1,EXTREME_WINTER,  35.53, -97.65,  -6.00, 396.00
5,7
1038,1.75,0.0, 1,29, 1,15,0.25, 1,30, 6,15
1039,0.0,0.0, 1,29, 1,15,0.0, 1,29, 1,15
581,0.5141253028467343,0.15898524300149822, 1,30,22,60,1.4464568233817459, 2, 1,13,60
582,6.331175080740784,0.028648774741302122, 2, 3,24,45,22.836839562677856, 2, 1,13,60
583,0.05280534574483116,0.00042632125531152275, 2, 3,23, 7,0.11380757956946148, 2, 1,13,60
1115,1483809235.4307427,0.0, 1,29, 1, 5,4003691.486006495, 2, 4, 8,60
1128,535706164.32466316,0.0, 1,29, 1, 5,1384141.1574642877, 2, 4, 8,60
1153,6843723.088310244,0.0, 1,29, 1, 5,77026.32844214479, 1,31,10,60
1154,43573222.8355566,0.0, 1,29, 1,32,180000.0, 1,29,16,15
1155,1019567901.1688111,0.0, 1,29, 1, 5,7746051.489426583, 2, 1,11,30
1156,1019567901.1688111,0.0, 1,29, 1, 5,7746051.489426583, 2, 1,11,30
1292,-25342966.816263817,-39749.83910361354, 2, 2, 5,30,-5421.312145731423, 2, 3,10,30
1306,177077483.65836453,0.0, 1,29, 1, 5,4050000.0, 1,31, 9,45
1307,32632956.903977156,0.0, 1,29, 1, 5,8891219.938309874, 2, 1,10,30
1308,177077483.65836453,0.0, 1,29, 1, 5,4050000.0, 1,31, 9,45
13,2214578537.7814975,158004.1357532369, 1,29, 2,15,13459012.310715664, 2, 1,11,45
61,301924526.02383536,88139.10953165221, 1,29, 1,15,1282023.4113694867, 1,29,20,15
134,70666020.44019976,63564.01800854099, 1,29, 4,15,156554.22484006523, 2, 3,20,15
170,5241013.419656067,348.4159749238097, 1,29, 4,15,17476.39704006126, 2, 3,12,15
207,6509451.13922267,815.2532113832032, 1,29, 3,15,22990.642799023623, 2, 3,10,15
244,12749673.399825225,1521.856143006317, 1,29, 4,15,53038.631142310165, 2, 3,20,15
281,46165882.481495745,59938.60262432081, 1,29, 5,15,81951.81706819107, 1,29,19,15
318,0.0,0.0, 1,29, 1,15,0.0, 1,29, 1,15
355,197687796.27748066,18561.32405820678, 1,29, 4,15,724774.895203776, 2, 3,18,15
403,197687796.27748066,18561.32405820678, 1,29, 4,15,724774.895203776, 2, 3,18,15
476,106772067.24485716,7098.072629279515, 1,29, 4,15,356036.3026282215, 2, 3,12,15
513,0.0,0.0, 1,29, 1,15,0.0, 1,29, 1,15
562,59219496.24175895,0.0, 1,29, 1,15,148352.15381092427, 1,31,24,60
1046,0.0,0.0, 1,29, 1,15,0.0, 1,29, 1,15
1096,0.0,0.0, 1,29, 1,15,0.0, 1,29, 1,15
1134,1605691011.4173388,0.0, 1,29, 1,45,9045383.640725685, 2, 1,11,30
1326,177077483.65836456,0.0, 1,29, 1,15,4050000.0, 1,29, 8,45
1379,0.0,0.0, 1,29, 1,15,0.0, 1,29, 1,15
1,EXTREME_SUMMER,  35.53, -97.65,  -6.00, 396.00
5,7
1038,0.0,0.0, 7,22, 1,15,0.0, 7,22, 1,15
1039,55.25,0.0, 7,22, 1,15,0.25, 7,22,15,30
581,0.2748292023326266,0.10798673770207637, 7,23,14,55,0.5371263666240202, 7,26, 8,50
582,5.567917149598155,2.6396489713363795, 7,27,19,60,11.036544164295169, 7,26, 8,50
583,0.05452831348083133,0.0020112972438093174, 7,23,23, 3,0.08226972774018931, 7,28,21,60
1115,0.0,0.0, 7,22, 1, 7,0.0, 7,22, 1, 7
1128,0.0,0.0, 7,22, 1, 7,0.0, 7,22, 1, 7
1153,0.0,0.0, 7,22, 1, 7,0.0, 7,22, 1, 7
1154,0.0,0.0, 7,22, 1, 7,0.0, 7,22, 1, 7
1155,0.0,0.0, 7,22, 1, 7,0.0, 7,22, 1, 7
1156,0.0,0.0, 7,22, 1, 7,0.0, 7,22, 1, 7
1292,-21773050.84389155,-34235.551462805146, 7,27,12,30,-4684.578955563145, 7,25,10,32
1306,121120694.72554114,0.0, 7,22, 1, 7,2235033.9260617206, 7,28,13,60
1307,10946522.094358332,0.0, 7,22, 1, 7,886841.344083552, 7,25,10,21
1308,121120694.72554114,0.0, 7,22, 1, 7,2235033.9260617206, 7,28,13,60
13,1274904604.587127,336729.2779576002, 7,25, 4,60,6390703.88807303, 7,28,20,60
61,301924526.02383536,88139.10953165221, 7,22, 1,15,1282023.4113694867, 7,22,20,15
134,70666020.44019976,63564.01800854099, 7,22, 4,15,156554.22484006523, 7,27,20,15
170,5241013.419656067,348.4159749238097, 7,22, 4,15,17476.39704006126, 7,27,12,15
207,6509451.13922267,815.2532113832032, 7,22, 3,15,22990.642799023623, 7,27,10,15
244,12749673.399825225,1521.856143006317, 7,22, 4,15,53038.631142310165, 7,27,20,15
281,46165882.481495745,59938.60262432081, 7,22, 5,15,81951.81706819107, 7,22,19,15
318,0.0,0.0, 7,22, 1,15,0.0, 7,22, 1,15
355,197687796.27748066,18561.32405820678, 7,22, 4,15,724774.895203776, 7,27,18,15
403,197687796.27748066,18561.32405820678, 7,22, 4,15,724774.895203776, 7,27,18,15
476,106772067.24485716,7098.072629279515, 7,22, 4,15,356036.3026282215, 7,27,12,15
513,0.0,0.0, 7,22, 1,15,0.0, 7,22, 1,15
562,69362411.5489469,18718.276042356225, 7,25, 5,60,148352.15381092427, 7,22,14,30
1046,0.0,0.0, 7,22, 1,15,0.0, 7,22, 1,15
1096,711830951.848604,158648.3417532481, 7,25, 5,60,1691197.4845215534, 7,28,12,60
1134,0.0,0.0, 7,22, 1,15,0.0, 7,22, 1,15
1326,121120694.72554114,0.0, 7,22, 1,15,4050000.0, 7,24, 9,45
1379,0.0,0.0, 7,22, 1,15,0.0, 7,22, 1,15
1,ANNUAL,  35.53, -97.65,  -6.00, 396.00
5,365
1038,6.75,0.0, 1, 1, 1,15,0.25, 1, 3, 6,15
1039,707.75,0.0, 1, 1, 1,15,0.25, 2,13,14,15
581,0.3475714535869052,0.0, 5,17, 7,33,1.4465631365867135, 2, 1,13,60
582,5.919152056646761,0.0, 1, 1,23,30,29.444700125097196,11,11,15,50
583,0.0326567592009576,0.0, 5,26,23, 3,0.1125979436168738, 2, 1,13,60
1115,15688326891.454882,0.0, 1, 1,23, 5,4854627.796389383,11,21, 6,60
1128,5014248171.043913,0.0, 1, 1,23, 5,1462692.9381243084, 1,10,10,45
1153,172381635.75371584,0.0, 1, 1,23, 5,123767.30668751457, 1,12, 6,45
1154,1174815202.3121734,0.0, 1, 1, 6, 5,180000.0, 1, 5,15,45
1155,2603749447.024281,0.0, 1, 1, 1,15,7746051.489426583, 2, 1, 7,60
1156,2603749447.024281,0.0, 1, 1, 1,15,7746051.489426583, 2, 1, 7,60
1292,-1204047180.1821806,-39777.78207925188, 1, 1, 1,15,-2215.706839998865, 5,16,15,60
1306,7779463450.13199,0.0, 1, 1, 1,15,4050000.0, 1, 1, 9,45
1307,1144803732.7740893,0.0, 1, 1, 1,15,8873317.290623799, 2, 9,10,30
1308,7779463450.13199,0.0, 1, 1, 1,15,4050000.0, 1, 1, 9,45
13,51275415577.8894,151703.1275401932, 1,25, 4,15,12778503.756644534, 2, 9,10,30
61,15743207428.383959,88139.10953165221, 1, 1, 1,15,1282023.4113694867, 1, 1,20,15
134,3685071073.4325233,63564.01800854099, 1, 2, 4,15,156554.22484006523, 1, 1,20,15
170,273393721.45532674,348.4159749238097, 1, 2, 4,15,17476.39704006126, 1, 1,12,15
207,339560869.0695816,815.2532113832032, 1, 2, 3,15,22990.642799023623, 1, 1,10,15
244,664895467.8009144,1521.856143006317, 1, 2, 4,15,53038.631142310165, 1, 1,20,15
281,2407221015.106824,59938.60262432081, 1, 1, 5,15,81951.81706819107, 1, 1,19,15
318,0.0,0.0, 1, 1, 1,15,0.0, 1, 1, 1,15
355,10310294493.051695,18561.32405820678, 1, 2, 4,15,724774.895203776, 1, 1,18,15
403,10310294493.051695,18561.32405820678, 1, 2, 4,15,724774.895203776, 1, 1,18,15
476,5569688622.066177,7098.072629279515, 1, 2, 4,15,356036.3026282215, 1, 1,12,15
513,0.0,0.0, 1, 1, 1,15,0.0, 1, 1, 1,15
562,1968255419.4548948,0.0, 1, 3,23,15,148352.15381092427, 1, 1, 6,45
1046,0.0,0.0, 1, 1, 1,15,0.0, 1, 1, 1,15
1096,13134223750.350227,0.0, 1, 1, 1,15,1774249.5469179095, 7,29,13,60
1134,8965194456.134071,0.0, 1,15,11,45,9054236.596419279, 2, 1, 7,60
1326,7779463450.132005,0.0, 1, 1, 1,15,4050000.0000000014, 3,30,10,30
1379,0.0,0.0, 1, 1, 1,15,0.0, 1, 1, 1,15
End of Data
 Number of Records Written=          99
