Program Version,EnergyPlus, Version 22.2.0-c249759bad, YMD=2023.07.07 15:22
1,5,Environment Title[],Latitude[deg],Longitude[deg],Time Zone[],Elevation[m]
2,8,Day of Simulation[],Month[],Day of Month[],DST Indicator[1=yes 0=no],Hour[],StartMinute[],EndMinute[],DayType
3,5,Cumulative Day of Simulation[],Month[],Day of Month[],DST Indicator[1=yes 0=no],DayType  ! When Daily Report Variables Requested
4,2,Cumulative Days of Simulation[],Month[]  ! When Monthly Report Variables Requested
5,1,Cumulative Days of Simulation[] ! When Run Period Report Variables Requested
6,1,Calendar Year of Simulation[] ! When Annual Report Variables Requested
581,11,LIVING,AFN Zone Infiltration Air Change Rate [ach] !RunPeriod [Value,Min,Month,Day,Hour,Minute,Max,Month,Day,Hour,Minute]
582,11,ATTIC,AFN Zone Infiltration Air Change Rate [ach] !RunPeriod [Value,Min,Month,Day,Hour,Minute,Max,Month,Day,Hour,Minute]
583,11,CRAWLSPACE,AFN Zone Infiltration Air Change Rate [ach] !RunPeriod [Value,Min,Month,Day,Hour,Minute,Max,Month,Day,Hour,Minute]
1038,11,Facility,Facility Heating Setpoint Not Met Time [hr] !RunPeriod [Value,Min,Month,Day,Hour,Minute,Max,Month,Day,Hour,Minute]
1039,11,Facility,Facility Cooling Setpoint Not Met Time [hr] !RunPeriod [Value,Min,Month,Day,Hour,Minute,Max,Month,Day,Hour,Minute]
1115,11,DX_HEATING_COIL,Heating Coil Heating Energy [J] !RunPeriod [Value,Min,Month,Day,Hour,Minute,Max,Month,Day,Hour,Minute]
1128,11,DX_HEATING_COIL,Heating Coil Electricity Energy [J] !RunPeriod [Value,Min,Month,Day,Hour,Minute,Max,Month,Day,Hour,Minute]
1153,11,DX_HEATING_COIL,Heating Coil Defrost Electricity Energy [J] !RunPeriod [Value,Min,Month,Day,Hour,Minute,Max,Month,Day,Hour,Minute]
1154,11,DX_HEATING_COIL,Heating Coil Crankcase Heater Electricity Energy [J] !RunPeriod [Value,Min,Month,Day,Hour,Minute,Max,Month,Day,Hour,Minute]
1156,11,HEATING_RESISTANCE_BACKUP,Heating Coil Electricity Energy [J] !RunPeriod [Value,Min,Month,Day,Hour,Minute,Max,Month,Day,Hour,Minute]
13,11,Electricity:Facility [J] !RunPeriod [Value,Min,Month,Day,Hour,Minute,Max,Month,Day,Hour,Minute]
1134,11,Heating:Electricity [J] !RunPeriod [Value,Min,Month,Day,Hour,Minute,Max,Month,Day,Hour,Minute]
1096,11,Cooling:Electricity [J] !RunPeriod [Value,Min,Month,Day,Hour,Minute,Max,Month,Day,Hour,Minute]
562,11,Fans:Electricity [J] !RunPeriod [Value,Min,Month,Day,Hour,Minute,Max,Month,Day,Hour,Minute]
1388,11,Pumps:Electricity [J] !RunPeriod [Value,Min,Month,Day,Hour,Minute,Max,Month,Day,Hour,Minute]
1360,11,WaterSystems:Electricity [J] !RunPeriod [Value,Min,Month,Day,Hour,Minute,Max,Month,Day,Hour,Minute]
61,11,InteriorLights:Electricity [J] !RunPeriod [Value,Min,Month,Day,Hour,Minute,Max,Month,Day,Hour,Minute]
1046,11,ExteriorLights:Electricity [J] !RunPeriod [Value,Min,Month,Day,Hour,Minute,Max,Month,Day,Hour,Minute]
134,11,InteriorEquipment:Electricity [J] !RunPeriod [Value,Min,Month,Day,Hour,Minute,Max,Month,Day,Hour,Minute]
170,11,gas_dryer:InteriorEquipment:Electricity [J] !RunPeriod [Value,Min,Month,Day,Hour,Minute,Max,Month,Day,Hour,Minute]
207,11,clotheswasher:InteriorEquipment:Electricity [J] !RunPeriod [Value,Min,Month,Day,Hour,Minute,Max,Month,Day,Hour,Minute]
244,11,dishwasher:InteriorEquipment:Electricity [J] !RunPeriod [Value,Min,Month,Day,Hour,Minute,Max,Month,Day,Hour,Minute]
281,11,refrigerator:InteriorEquipment:Electricity [J] !RunPeriod [Value,Min,Month,Day,Hour,Minute,Max,Month,Day,Hour,Minute]
318,11,electric_mels:InteriorEquipment:Electricity [J] !RunPeriod [Value,Min,Month,Day,Hour,Minute,Max,Month,Day,Hour,Minute]
355,11,NaturalGas:Facility [J] !RunPeriod [Value,Min,Month,Day,Hour,Minute,Max,Month,Day,Hour,Minute]
1323,11,WaterSystems:NaturalGas [J] !RunPeriod [Value,Min,Month,Day,Hour,Minute,Max,Month,Day,Hour,Minute]
403,11,InteriorEquipment:NaturalGas [J] !RunPeriod [Value,Min,Month,Day,Hour,Minute,Max,Month,Day,Hour,Minute]
476,11,gas_dryer:InteriorEquipment:NaturalGas [J] !RunPeriod [Value,Min,Month,Day,Hour,Minute,Max,Month,Day,Hour,Minute]
513,11,gas_mels:InteriorEquipment:NaturalGas [J] !RunPeriod [Value,Min,Month,Day,Hour,Minute,Max,Month,Day,Hour,Minute]
End of Data Dictionary
1,EXTREME_WINTER,  41.15,-104.82,  -7.00,1872.00
5,7
1038,0.8333333333333333,0.0,12,22, 1,10,0.16666666666666666,12,26, 6,10
1039,0.0,0.0,12,22, 1,10,0.0,12,22, 1,10
581,0.39065105470063105,0.2041445589331093,12,22,24,60,0.8507213671483367,12,25,23,55
582,6.526174296015528,0.0,12,23, 7,60,24.72536654268213,12,23,24,60
583,7.526291910417552,0.20198700140405562,12,28,18, 5,20.99269515981096,12,23,23,60
1115,1917471371.615102,0.0,12,22,13,60,3024649.6792227956,12,24,10,20
1128,682467341.3088744,0.0,12,22,13,60,990284.1972154164,12,23, 6,30
1153,7454017.2737575285,0.0,12,22,13,60,32275.365553695778,12,25,21,60
1154,33542784.014532685,0.0,12,22, 6, 3,120000.0,12,22,13,60
1156,796345757.4746314,0.0,12,22, 1, 3,4063007.31170025,12,27, 6,30
13,1976315444.609542,306324.6925987483,12,22,15,10,5533783.748196371,12,26, 6,20
61,301924526.0238348,58759.40635443481,12,22, 1,10,854682.2742463244,12,22,20,10
134,70666020.44019979,42376.01200569399,12,22, 4,10,104369.48322671017,12,27,20,10
170,5241013.419656074,232.27731661587313,12,22, 4,10,11650.931360040839,12,27,12,10
207,6509451.13922266,543.5021409221355,12,22, 3,10,15327.095199349082,12,27,10,10
244,12749673.39982522,1014.5707620042115,12,22, 4,10,35359.08742820678,12,27,20,10
281,46165882.48149605,39959.06841621388,12,22, 5,10,54634.54471212738,12,22,19,10
318,0.0,0.0,12,22, 1,10,0.0,12,22, 1,10
355,732688796.3920352,12374.216038804521,12,22, 4,10,3829218.154066982,12,23,18,60
403,197687796.27748126,12374.216038804521,12,22, 4,10,483183.26346918393,12,27,18,10
476,106772067.24485692,4732.048419519677,12,22, 4,10,237357.535085481,12,27,12,10
513,0.0,0.0,12,22, 1,10,0.0,12,22, 1,10
562,78895158.07370895,0.0,12,22,13,60,108390.68209557504,12,23, 6,30
1046,0.0,0.0,12,22, 1,10,0.0,12,22, 1,10
1096,0.0,0.0,12,22, 1,10,0.0,12,22, 1,10
1134,1519809900.0717943,120000.0,12,22,13,60,5007833.743090143,12,26, 6,20
1323,535001000.1145516,0.0,12,22, 1,10,3375000.0000000005,12,22,21,50
1360,5019840.0,4980.0,12,22, 1,20,4980.000000000001,12,22, 1,10
1388,0.0,0.0,12,22, 1,10,0.0,12,22, 1,10
1,EXTREME_SUMMER,  41.15,-104.82,  -7.00,1872.00
5,7
1038,0.0,0.0, 7,27, 1,10,0.0, 7,27, 1,10
1039,0.0,0.0, 7,27, 1,10,0.0, 7,27, 1,10
581,0.17472187287709476,0.0, 7,31, 7,52,0.44600022853615967, 7,29,21,60
582,4.156721625267802,0.021782577191963134, 8, 2, 3,10,10.396726733180492, 8, 1,18,53
583,4.706978755853514,0.037919326640778205, 7,31, 3,55,12.384366214617726, 7,29,21,60
1115,0.0,0.0, 7,27, 1,10,0.0, 7,27, 1,10
1128,0.0,0.0, 7,27, 1,10,0.0, 7,27, 1,10
1153,0.0,0.0, 7,27, 1,10,0.0, 7,27, 1,10
1154,0.0,0.0, 7,27, 1,10,0.0, 7,27, 1,10
1156,0.0,0.0, 7,27, 1,10,0.0, 7,27, 1,10
13,776622270.9536929,106115.4183601288, 7,27, 4,10,1921034.9742081983, 7,30,19,10
61,301924526.0238348,58759.40635443481, 7,27, 1,10,854682.2742463244, 7,27,20,10
134,70666020.44019979,42376.01200569399, 7,27, 4,10,104369.48322671017, 8, 1,20,10
170,5241013.419656074,232.27731661587313, 7,27, 4,10,11650.931360040839, 8, 1,12,10
207,6509451.13922266,543.5021409221355, 7,27, 3,10,15327.095199349082, 8, 1,10,10
244,12749673.39982522,1014.5707620042115, 7,27, 4,10,35359.08742820678, 8, 1,20,10
281,46165882.48149605,39959.06841621388, 7,27, 5,10,54634.54471212738, 7,27,19,10
318,0.0,0.0, 7,27, 1,10,0.0, 7,27, 1,10
355,632537122.4589682,12374.216038804521, 7,27, 4,10,3829218.154066982, 7,28,18,60
403,197687796.27748126,12374.216038804521, 7,27, 4,10,483183.26346918393, 8, 1,18,10
476,106772067.24485692,4732.048419519677, 7,27, 4,10,237357.535085481, 8, 1,12,10
513,0.0,0.0, 7,27, 1,10,0.0, 7,27, 1,10
562,41670892.406406395,0.0, 7,27, 2,50,103777.78977743782, 7,30,18,30
1046,0.0,0.0, 7,27, 1,10,0.0, 7,27, 1,10
1096,357340992.083252,0.0, 7,27, 2,50,993200.0270452348, 7,30,17,20
1134,0.0,0.0, 7,27, 1,10,0.0, 7,27, 1,10
1323,434849326.18148524,0.0, 7,27, 1,10,3375000.000000001, 7,29,16,40
1360,5019840.0,4979.999999999999, 7,28,19,60,4980.000000000002, 8, 2, 5,40
1388,0.0,0.0, 7,27, 1,10,0.0, 7,27, 1,10
1,ANNUAL,  41.15,-104.82,  -7.00,1872.00
5,365
1038,7.66666666666667,0.0, 1, 1, 1,10,0.16666666666666666, 1, 3, 6,10
1039,3.1666666666666665,0.0, 1, 1, 1,10,0.16666666666666666, 6, 1,12,50
581,0.32467704874996417,0.0, 6,28,21,43,1.3789791824320812, 3,22,14,60
582,6.82307649771264,0.0, 1, 2,23,53,42.70354946356592, 2, 7,14,60
583,7.434076965187263,0.00011271185928500193, 8,31, 6,40,38.28953078247152, 3,22,14,60
1115,34859677766.975464,0.0, 1, 1,23, 1,3655757.419518376, 1,12, 6,40
1128,11106013445.232016,0.0, 1, 1,23, 1,1044862.5273784082, 1, 7, 6,30
1153,272847899.9249647,0.0, 1, 1,23, 1,98262.06943188045, 3,18, 6,20
1154,2200436326.9636607,0.0, 1, 1, 1, 1,120000.0, 1, 2,12,40
1156,4867273472.559168,0.0, 1, 1, 1, 2,4100587.363215614, 1, 5, 6,30
13,45272310924.63173,106115.4183601288, 4,13, 4,10,5562652.098932726, 1, 5, 7,50
61,15743207428.39043,58759.40635443481, 1, 1, 1,10,854682.2742463244, 1, 1,20,10
134,3685071073.433083,42376.01200569399, 1, 2, 4,10,104369.48322671017, 1, 1,20,10
170,273393721.45534325,232.27731661587313, 1, 2, 4,10,11650.931360040839, 1, 1,12,10
207,339560869.06955314,543.5021409221355, 1, 2, 3,10,15327.095199349082, 1, 1,10,10
244,664895467.8009839,1014.5707620042115, 1, 2, 4,10,35359.08742820678, 1, 1,20,10
281,2407221015.1057043,39959.06841621388, 1, 1, 5,10,54634.54471212738, 1, 1,19,10
318,0.0,0.0, 1, 1, 1,10,0.0, 1, 1, 1,10
355,35781595800.006546,12374.216038804521, 1, 2, 4,10,3829218.154066983, 2,28,18,60
403,10310294493.052883,12374.216038804521, 1, 2, 4,10,483183.26346918393, 1, 1,18,10
476,5569688622.065564,4732.048419519677, 1, 2, 4,10,237357.535085481, 1, 1,12,10
513,0.0,0.0, 1, 1, 1,10,0.0, 1, 1, 1,10
562,1885788723.418164,0.0, 1, 2,11,60,108390.68209557506, 1,27,21,40
1046,0.0,0.0, 1, 1, 1,10,0.0, 1, 1, 1,10
1096,5249923754.716532,0.0, 1, 1, 1,10,1061249.4692132415, 8,22,15,60
1134,18446571144.67953,0.0, 1, 3,14,60,5005848.506918932,12,26, 6,30
1323,25471301306.957527,0.0, 1, 1, 1,10,3375000.0000000023,12,12,20,20
1360,261748800.0,4979.999999999998, 3,28,13,30,4980.000000000002, 1,24,20,40
1388,0.0,0.0, 1, 1, 1,10,0.0, 1, 1, 1,10
End of Data
 Number of Records Written=          87
