Program Version,EnergyPlus, Version 22.2.0-c249759bad, YMD=2023.09.01 20:45
1,5,Environment Title[],Latitude[deg],Longitude[deg],Time Zone[],Elevation[m]
2,8,Day of Simulation[],Month[],Day of Month[],DST Indicator[1=yes 0=no],Hour[],StartMinute[],EndMinute[],DayType
3,5,Cumulative Day of Simulation[],Month[],Day of Month[],DST Indicator[1=yes 0=no],DayType  ! When Daily Report Variables Requested
4,2,Cumulative Days of Simulation[],Month[]  ! When Monthly Report Variables Requested
5,1,Cumulative Days of Simulation[] ! When Run Period Report Variables Requested
6,1,Calendar Year of Simulation[] ! When Annual Report Variables Requested
581,11,LIVING,AFN Zone Infiltration Air Change Rate [ach] !RunPeriod [Value,Min,Month,Day,Hour,Minute,Max,Month,Day,Hour,Minute]
582,11,ATTIC,AFN Zone Infiltration Air Change Rate [ach] !RunPeriod [Value,Min,Month,Day,Hour,Minute,Max,Month,Day,Hour,Minute]
583,11,CRAWLSPACE,AFN Zone Infiltration Air Change Rate [ach] !RunPeriod [Value,Min,Month,Day,Hour,Minute,Max,Month,Day,Hour,Minute]
1038,11,Facility,Facility Heating Setpoint Not Met Time [hr] !RunPeriod [Value,Min,Month,Day,Hour,Minute,Max,Month,Day,Hour,Minute]
1039,11,Facility,Facility Cooling Setpoint Not Met Time [hr] !RunPeriod [Value,Min,Month,Day,Hour,Minute,Max,Month,Day,Hour,Minute]
1115,11,DX_HEATING_COIL,Heating Coil Heating Energy [J] !RunPeriod [Value,Min,Month,Day,Hour,Minute,Max,Month,Day,Hour,Minute]
1128,11,DX_HEATING_COIL,Heating Coil Electricity Energy [J] !RunPeriod [Value,Min,Month,Day,Hour,Minute,Max,Month,Day,Hour,Minute]
1153,11,DX_HEATING_COIL,Heating Coil Defrost Electricity Energy [J] !RunPeriod [Value,Min,Month,Day,Hour,Minute,Max,Month,Day,Hour,Minute]
1154,11,DX_HEATING_COIL,Heating Coil Crankcase Heater Electricity Energy [J] !RunPeriod [Value,Min,Month,Day,Hour,Minute,Max,Month,Day,Hour,Minute]
1155,11,HEATING_RESISTANCE_BACKUP,Heating Coil Heating Energy [J] !RunPeriod [Value,Min,Month,Day,Hour,Minute,Max,Month,Day,Hour,Minute]
1156,11,HEATING_RESISTANCE_BACKUP,Heating Coil Electricity Energy [J] !RunPeriod [Value,Min,Month,Day,Hour,Minute,Max,Month,Day,Hour,Minute]
1292,11,WATER HEATER,Water Heater Heat Loss Energy [J] !RunPeriod [Value,Min,Month,Day,Hour,Minute,Max,Month,Day,Hour,Minute]
1306,11,WATER HEATER,Water Heater Heating Energy [J] !RunPeriod [Value,Min,Month,Day,Hour,Minute,Max,Month,Day,Hour,Minute]
1307,11,WATER HEATER,Water Heater Unmet Demand Heat Transfer Energy [J] !RunPeriod [Value,Min,Month,Day,Hour,Minute,Max,Month,Day,Hour,Minute]
1308,11,WATER HEATER,Water Heater Electricity Energy [J] !RunPeriod [Value,Min,Month,Day,Hour,Minute,Max,Month,Day,Hour,Minute]
13,11,Electricity:Facility [J] !RunPeriod [Value,Min,Month,Day,Hour,Minute,Max,Month,Day,Hour,Minute]
1134,11,Heating:Electricity [J] !RunPeriod [Value,Min,Month,Day,Hour,Minute,Max,Month,Day,Hour,Minute]
1096,11,Cooling:Electricity [J] !RunPeriod [Value,Min,Month,Day,Hour,Minute,Max,Month,Day,Hour,Minute]
562,11,Fans:Electricity [J] !RunPeriod [Value,Min,Month,Day,Hour,Minute,Max,Month,Day,Hour,Minute]
1379,11,Pumps:Electricity [J] !RunPeriod [Value,Min,Month,Day,Hour,Minute,Max,Month,Day,Hour,Minute]
1326,11,WaterSystems:Electricity [J] !RunPeriod [Value,Min,Month,Day,Hour,Minute,Max,Month,Day,Hour,Minute]
61,11,InteriorLights:Electricity [J] !RunPeriod [Value,Min,Month,Day,Hour,Minute,Max,Month,Day,Hour,Minute]
1046,11,ExteriorLights:Electricity [J] !RunPeriod [Value,Min,Month,Day,Hour,Minute,Max,Month,Day,Hour,Minute]
134,11,InteriorEquipment:Electricity [J] !RunPeriod [Value,Min,Month,Day,Hour,Minute,Max,Month,Day,Hour,Minute]
170,11,gas_dryer:InteriorEquipment:Electricity [J] !RunPeriod [Value,Min,Month,Day,Hour,Minute,Max,Month,Day,Hour,Minute]
207,11,clotheswasher:InteriorEquipment:Electricity [J] !RunPeriod [Value,Min,Month,Day,Hour,Minute,Max,Month,Day,Hour,Minute]
244,11,dishwasher:InteriorEquipment:Electricity [J] !RunPeriod [Value,Min,Month,Day,Hour,Minute,Max,Month,Day,Hour,Minute]
281,11,refrigerator:InteriorEquipment:Electricity [J] !RunPeriod [Value,Min,Month,Day,Hour,Minute,Max,Month,Day,Hour,Minute]
318,11,electric_mels:InteriorEquipment:Electricity [J] !RunPeriod [Value,Min,Month,Day,Hour,Minute,Max,Month,Day,Hour,Minute]
355,11,NaturalGas:Facility [J] !RunPeriod [Value,Min,Month,Day,Hour,Minute,Max,Month,Day,Hour,Minute]
403,11,InteriorEquipment:NaturalGas [J] !RunPeriod [Value,Min,Month,Day,Hour,Minute,Max,Month,Day,Hour,Minute]
476,11,gas_dryer:InteriorEquipment:NaturalGas [J] !RunPeriod [Value,Min,Month,Day,Hour,Minute,Max,Month,Day,Hour,Minute]
513,11,gas_mels:InteriorEquipment:NaturalGas [J] !RunPeriod [Value,Min,Month,Day,Hour,Minute,Max,Month,Day,Hour,Minute]
End of Data Dictionary
1,EXTREME_WINTER,  43.12, -76.12,  -5.00, 124.00
5,7
1038,3.75,0.0, 1,20, 1,15,0.25, 1,23, 6,15
1039,0.0,0.0, 1,20, 1,15,0.0, 1,20, 1,15
581,0.4837122178565731,0.30421950648768536, 1,26,23, 5,0.9823216780851115, 1,20, 9,30
582,6.671847884067766,0.12949843626100327, 1,21, 9,50,35.51091388608569, 1,20,13,52
583,0.06939498779882805,0.00048487864121229, 1,26,23, 5,0.08527607387973804, 1,22,10,60
1115,2093376214.6802678,0.0, 1,20,23, 5,4056160.4446269916, 1,20,22,60
1128,783934729.5304301,0.0, 1,20,23, 5,1357296.9755909136, 1,20,22,60
1153,5030516.536710904,0.0, 1,20, 1,46,65453.849077758736, 1,20, 8,60
1154,9659913.308148181,0.0, 1,20, 6, 5,130971.18863679333, 1,20,12,60
1155,1317399176.9416046,0.0, 1,20, 1, 5,6117504.437731815, 1,24, 6,15
1156,1317399176.9416046,0.0, 1,20, 1, 5,6117504.437731815, 1,24, 6,15
1292,-25273923.456789196,-39761.91632398125, 1,24, 6,15,-3884.5629752839545, 1,26,10,33
1306,278283246.18196183,0.0, 1,20, 1, 5,4050000.0, 1,20, 8,45
1307,97235331.68120873,0.0, 1,20, 1, 5,15149038.914085746, 1,20, 8,30
1308,278283246.18196183,0.0, 1,20, 1, 5,4050000.0, 1,20, 8,45
13,2850057082.136025,831420.7437721672, 1,20, 2,15,12092456.10765922, 1,24, 8,60
61,301924526.02383536,88139.10953165221, 1,20, 1,15,1282023.4113694867, 1,20,20,15
134,70666020.44019976,63564.01800854099, 1,20, 4,15,156554.22484006523, 1,25,20,15
170,5241013.419656067,348.4159749238097, 1,20, 4,15,17476.39704006126, 1,25,12,15
207,6509451.13922267,815.2532113832032, 1,20, 3,15,22990.642799023623, 1,25,10,15
244,12749673.399825225,1521.856143006317, 1,20, 4,15,53038.631142310165, 1,25,20,15
281,46165882.481495745,59938.60262432081, 1,20, 5,15,81951.81706819107, 1,20,19,15
318,0.0,0.0, 1,20, 1,15,0.0, 1,20, 1,15
355,197687796.27748066,18561.32405820678, 1,20, 4,15,724774.895203776, 1,25,18,15
403,197687796.27748066,18561.32405820678, 1,20, 4,15,724774.895203776, 1,25,18,15
476,106772067.24485716,7098.072629279515, 1,20, 4,15,356036.3026282215, 1,25,12,15
513,0.0,0.0, 1,20, 1,15,0.0, 1,20, 1,15
562,83158953.1731372,36645.182015173275, 1,20,12,60,134536.61759677672, 1,20,22,60
1046,0.0,0.0, 1,20, 1,15,0.0, 1,20, 1,15
1096,0.0,0.0, 1,20, 1,15,0.0, 1,20, 1,15
1134,2116024336.3168936,523360.92304110597, 1,20,12,60,7276038.575027396, 1,24, 7,60
1326,278283246.1819619,0.0, 1,20, 1,15,4050000.0, 1,20, 8,45
1379,0.0,0.0, 1,20, 1,15,0.0, 1,20, 1,15
1,EXTREME_SUMMER,  43.12, -76.12,  -5.00, 124.00
5,7
1038,0.0,0.0, 7,13, 1,15,0.0, 7,13, 1,15
1039,45.5,0.0, 7,13, 1,15,0.25, 7,14,15,15
581,0.1250995989441915,0.0, 7,14, 6, 7,0.4499798650352491, 7,19,21,48
582,3.761599094257225,0.0, 7,13, 2,22,12.899028794695893, 7,19,21,46
583,0.04117114559536158,0.0, 7,14, 6, 7,0.07318430503377847, 7,19,21,46
1115,0.0,0.0, 7,13, 1, 7,0.0, 7,13, 1, 7
1128,0.0,0.0, 7,13, 1, 7,0.0, 7,13, 1, 7
1153,0.0,0.0, 7,13, 1, 7,0.0, 7,13, 1, 7
1154,0.0,0.0, 7,13, 1, 7,0.0, 7,13, 1, 7
1155,0.0,0.0, 7,13, 1, 7,0.0, 7,13, 1, 7
1156,0.0,0.0, 7,13, 1, 7,0.0, 7,13, 1, 7
1292,-21799217.410627916,-34225.447851084915, 7,15,13,60,-3190.548536598302, 7,15, 8, 1
1306,215139737.5796582,0.0, 7,13, 1, 7,4050000.0, 7,14,14,30
1307,58453224.386148736,0.0, 7,13, 1, 7,5749096.578534866, 7,13, 8,30
1308,215139737.5796582,0.0, 7,13, 1, 7,4050000.0, 7,14,14,30
13,1206480847.3160088,168740.35164837993, 7,13, 4,60,6321673.877383088, 7,15,17,30
61,301924526.02383536,88139.10953165221, 7,13, 1,15,1282023.4113694867, 7,13,20,15
134,70666020.44019976,63564.01800854099, 7,13, 4,15,156554.22484006523, 7,18,20,15
170,5241013.419656067,348.4159749238097, 7,13, 4,15,17476.39704006126, 7,18,12,15
207,6509451.13922267,815.2532113832032, 7,13, 3,15,22990.642799023623, 7,18,10,15
244,12749673.399825225,1521.856143006317, 7,13, 4,15,53038.631142310165, 7,18,20,15
281,46165882.481495745,59938.60262432081, 7,13, 5,15,81951.81706819107, 7,13,19,15
318,0.0,0.0, 7,13, 1,15,0.0, 7,13, 1,15
355,197687796.27748066,18561.32405820678, 7,13, 4,15,724774.895203776, 7,18,18,15
403,197687796.27748066,18561.32405820678, 7,13, 4,15,724774.895203776, 7,18,18,15
476,106772067.24485716,7098.072629279515, 7,13, 4,15,356036.3026282215, 7,18,12,15
513,0.0,0.0, 7,13, 1,15,0.0, 7,13, 1,15
562,55726008.451973744,0.0, 7,13, 6,30,134536.61759677672, 7,14,14,30
1046,0.0,0.0, 7,13, 1,15,0.0, 7,13, 1,15
1096,563024554.8203405,0.0, 7,13, 6,30,1520416.267541823, 7,19,17,60
1134,0.0,0.0, 7,13, 1,15,0.0, 7,13, 1,15
1326,215139737.57965815,0.0, 7,13, 1,15,4050000.0, 7,13, 8,45
1379,0.0,0.0, 7,13, 1,15,0.0, 7,13, 1,15
1,ANNUAL,  43.12, -76.12,  -5.00, 124.00
5,365
1038,12.25,0.0, 1, 1, 1,15,0.25, 1, 3, 6,15
1039,180.0,0.0, 1, 1, 1,15,0.25, 5,12,11,60
581,0.2717392432941248,0.0, 5,31,24,52,1.1508518716857479,12,16,16,52
582,4.55483429170005,0.0, 1, 8, 3,30,39.47079675950063, 5, 9,19,52
583,0.03007470204831413,0.0, 6, 7,23, 3,0.08918226011534611, 9,11, 6, 3
1115,34213344042.41125,0.0, 1, 1,23, 5,5205611.1003217995, 1,19, 6,60
1128,11127101040.009134,0.0, 1, 1,23, 5,1461704.8922077902, 1,19, 7,15
1153,344462719.2113765,0.0, 1, 1,23, 5,127845.40437369698,12,19, 6,45
1154,1621051997.7743583,0.0, 1, 1, 6, 5,180000.0, 1,12,19,45
1155,5913031296.629288,0.0, 1, 1, 1,15,6117504.437731815, 1,24, 4,45
1156,5913031296.629288,0.0, 1, 1, 1,15,6117504.437731815, 1,24, 4,45
1292,-1233936584.7982416,-39775.89745509536,12,30, 1,30,-1696.6591258907984, 5,15, 8,31
1306,12870648902.00411,0.0, 1, 1, 1,15,4050000.0, 1, 1, 9,45
1307,4023138265.091892,0.0, 1, 1, 1,15,15378904.799089625, 2,13, 8,30
1308,12870648902.00411,0.0, 1, 1, 1,15,4050000.0, 1, 1, 9,45
13,60330218122.17042,151703.1275401932, 3,14, 4,60,12150295.943853663, 1,24, 7,45
61,15743207428.383959,88139.10953165221, 1, 1, 1,15,1282023.4113694867, 1, 1,20,15
134,3685071073.4325233,63564.01800854099, 1, 2, 4,15,156554.22484006523, 1, 1,20,15
170,273393721.45532674,348.4159749238097, 1, 2, 4,15,17476.39704006126, 1, 1,12,15
207,339560869.0695816,815.2532113832032, 1, 2, 3,15,22990.642799023623, 1, 1,10,15
244,664895467.8009144,1521.856143006317, 1, 2, 4,15,53038.631142310165, 1, 1,20,15
281,2407221015.106824,59938.60262432081, 1, 1, 5,15,81951.81706819107, 1, 1,19,15
318,0.0,0.0, 1, 1, 1,15,0.0, 1, 1, 1,15
355,10310294493.051695,18561.32405820678, 1, 2, 4,15,724774.895203776, 1, 1,18,15
403,10310294493.051695,18561.32405820678, 1, 2, 4,15,724774.895203776, 1, 1,18,15
476,5569688622.066177,7098.072629279515, 1, 2, 4,15,356036.3026282215, 1, 1,12,15
513,0.0,0.0, 1, 1, 1,15,0.0, 1, 1, 1,15
562,1922608474.6485367,0.0, 1, 8,15,60,134536.61759677675, 6, 6,18,60
1046,0.0,0.0, 1, 1, 1,15,0.0, 1, 1, 1,15
1096,7103035190.076236,0.0, 1, 1, 1,15,1572652.4421219737, 6, 8,15,60
1134,19005647053.624317,0.0, 1,12,13,60,7403959.55295683,12,16,16,60
1326,12870648902.004091,0.0, 1, 1, 1,15,4050000.0000000014, 4,15, 9,60
1379,0.0,0.0, 1, 1, 1,15,0.0, 1, 1, 1,15
End of Data
 Number of Records Written=          99
