Program Version,EnergyPlus, Version 22.2.0-c249759bad, YMD=2023.09.01 14:32
1,5,Environment Title[],Latitude[deg],Longitude[deg],Time Zone[],Elevation[m]
2,8,Day of Simulation[],Month[],Day of Month[],DST Indicator[1=yes 0=no],Hour[],StartMinute[],EndMinute[],DayType
3,5,Cumulative Day of Simulation[],Month[],Day of Month[],DST Indicator[1=yes 0=no],DayType  ! When Daily Report Variables Requested
4,2,Cumulative Days of Simulation[],Month[]  ! When Monthly Report Variables Requested
5,1,Cumulative Days of Simulation[] ! When Run Period Report Variables Requested
6,1,Calendar Year of Simulation[] ! When Annual Report Variables Requested
7,1,Environment,Site Outdoor Air Drybulb Temperature [C] !Hourly
545,1,LIVING,Zone Mean Air Temperature [C] !Hourly
546,1,ATTIC,Zone Mean Air Temperature [C] !Hourly
547,1,CRAWLSPACE,Zone Mean Air Temperature [C] !Hourly
548,1,FAN,Fan Electricity Rate [W] !Hourly
720,1,LIVING,Zone Predicted Sensible Load to Heating Setpoint Heat Transfer Rate [W] !Hourly
721,1,LIVING,Zone System Predicted Sensible Load to Heating Setpoint Heat Transfer Rate [W] !Hourly
784,1,ATTIC,Zone Predicted Sensible Load to Heating Setpoint Heat Transfer Rate [W] !Hourly
785,1,ATTIC,Zone System Predicted Sensible Load to Heating Setpoint Heat Transfer Rate [W] !Hourly
848,1,CRAWLSPACE,Zone Predicted Sensible Load to Heating Setpoint Heat Transfer Rate [W] !Hourly
849,1,CRAWLSPACE,Zone System Predicted Sensible Load to Heating Setpoint Heat Transfer Rate [W] !Hourly
1121,1,DX_HEATING_COIL,Heating Coil Heating Rate [W] !Hourly
1135,1,DX_HEATING_COIL,Heating Coil Electricity Rate [W] !Hourly
1161,1,DX_HEATING_COIL,Heating Coil Defrost Electricity Rate [W] !Hourly
1163,1,DX_HEATING_COIL,Heating Coil Crankcase Heater Electricity Rate [W] !Hourly
1166,1,HEATING_RESISTANCE_BACKUP,Heating Coil Heating Rate [W] !Hourly
1168,1,HEATING_RESISTANCE_BACKUP,Heating Coil Electricity Rate [W] !Hourly
End of Data Dictionary
1,EXTREME_WINTER,  36.12, -86.69,  -6.00, 182.90
2,1, 1,27, 0, 1, 0.00,60.00,Monday
7,5.6
545,19.53155171769751
546,4.179241424969718
547,19.42258885976301
548,0.0
720,-762.5498001775031
721,-762.5498001775031
784,0.0
785,0.0
848,0.0
849,0.0
1121,0.0
1135,0.0
1161,0.0
1163,200.0
1166,0.0
1168,0.0
2,1, 1,27, 0, 2, 0.00,60.00,Monday
7,1.7
545,18.69370131640825
546,2.7399947370213114
547,19.139329116765552
548,6.755439047981946
720,99.78925873682601
721,99.78925873682601
784,0.0
785,0.0
848,0.0
849,0.0
1121,206.41146820794918
1135,68.08473609381905
1161,0.2643273272204369
1163,190.66806990327117
1166,0.0
1168,0.0
2,1, 1,27, 0, 3, 0.00,60.00,Monday
7,1.7
545,18.53246718700611
546,2.245696000691187
547,18.938471534192807
548,25.192108975373312
720,598.7231552265384
721,598.7231552265384
784,0.0
785,0.0
848,0.0
849,0.0
1121,776.9871249516291
1135,247.59967675238155
1161,2.5418417820244286
1163,165.1768644104183
1166,0.0
1168,0.0
2,1, 1,27, 0, 4, 0.00,60.00,Monday
7,1.7
545,18.53374510829504
546,1.9979273386883458
547,18.746043425014772
548,37.60996631684138
720,892.7491117898235
721,892.7491117898235
784,0.0
785,0.0
848,0.0
849,0.0
1121,1172.2249895902576
1135,368.39465466335065
1161,3.7947795281173375
1163,148.01166501600576
1166,0.0
1168,0.0
2,1, 1,27, 0, 5, 0.00,60.00,Monday
7,2.2
545,18.669573791543197
546,1.7602294456966958
547,18.573014516911755
548,45.77090667549174
720,1098.6691581914547
721,1098.6691581914547
784,0.0
785,0.0
848,0.0
849,0.0
1121,1463.091077298761
1135,452.64071482877
1161,2.8486327850235593
1163,136.7611812319864
1166,0.0
1168,0.0
2,1, 1,27, 0, 6, 0.00,60.00,Monday
7,4.4
545,19.396170905452422
546,3.345479392665543
547,18.39820665813031
548,72.89214857208347
720,1941.656457079167
721,1941.656457079167
784,0.0
785,0.0
848,0.0
849,0.0
1121,2542.277787503288
1135,744.2156560011047
1161,0.03511365280572614
1163,99.34855741303943
1166,0.0
1168,0.0
2,1, 1,27, 0, 7, 0.00,60.00,Monday
7,4.4
545,19.631800726867137
546,3.8995342605281227
547,18.2624349682626
548,75.58018705244938
720,1961.5867015719723
721,1961.5867015719723
784,0.0
785,0.0
848,0.0
849,0.0
1121,2633.1742411407226
1135,782.368809574159
1161,0.036408536720120954
1163,95.63684064328102
1166,0.0
1168,0.0
2,1, 1,27, 0, 8, 0.00,60.00,Monday
7,4.4
545,19.756070783034144
546,4.719512160853086
547,18.130579199609524
548,57.4028260476918
720,1399.7442895038785
721,1399.7442895038785
784,0.0
785,0.0
848,0.0
849,0.0
1121,1948.4410995488356
1135,590.879405120409
1161,4.195249977387214
1163,120.70750131875671
1166,0.0
1168,0.0
2,1, 1,27, 0, 9, 0.00,60.00,Monday
7,7.8
545,19.98204783700031
546,7.509313061677757
547,18.02007322285298
548,22.765926143772596
720,651.708819484551
721,651.708819484551
784,0.0
785,0.0
848,0.0
849,0.0
1121,946.0989893632556
1135,257.7444192040015
1161,0.0
1163,168.56427137743268
1166,0.0
1168,0.0
2,1, 1,27, 0,10, 0.00,60.00,Monday
7,7.8
545,19.99723951792601
546,10.65334822277266
547,17.918582911636804
548,0.0
720,-209.5586646863958
721,-209.5586646863958
784,0.0
785,0.0
848,0.0
849,0.0
1121,0.0
1135,0.0
1161,0.0
1163,200.0
1166,0.0
1168,0.0
2,1, 1,27, 0,11, 0.00,60.00,Monday
7,12.8
545,21.3802276027557
546,15.831917225087459
547,17.8528961427518
548,0.0
720,-1241.4998460367879
721,-1241.4998460367879
784,0.0
785,0.0
848,0.0
849,0.0
1121,0.0
1135,0.0
1161,0.0
1163,0.0
1166,0.0
1168,0.0
2,1, 1,27, 0,12, 0.00,60.00,Monday
7,13.9
545,22.06774916409423
546,19.53204611309828
547,17.820770709418156
548,0.0
720,-1925.8184396116685
721,-1925.8184396116685
784,0.0
785,0.0
848,0.0
849,0.0
1121,0.0
1135,0.0
1161,0.0
1163,0.0
1166,0.0
1168,0.0
2,1, 1,27, 0,13, 0.00,60.00,Monday
7,13.9
545,22.605420755388657
546,20.96220265575358
547,17.820404503322198
548,0.0
720,-2219.7355959294728
721,-2219.7355959294728
784,0.0
785,0.0
848,0.0
849,0.0
1121,0.0
1135,0.0
1161,0.0
1163,0.0
1166,0.0
1168,0.0
2,1, 1,27, 0,14, 0.00,60.00,Monday
7,13.3
545,22.791601563591467
546,20.748750024152837
547,17.84037395484184
548,0.0
720,-2045.0898245246462
721,-2045.0898245246462
784,0.0
785,0.0
848,0.0
849,0.0
1121,0.0
1135,0.0
1161,0.0
1163,0.0
1166,0.0
1168,0.0
2,1, 1,27, 0,15, 0.00,60.00,Monday
7,12.8
545,22.806811340200312
546,17.961592033293442
547,17.864594624459777
548,0.0
720,-1760.637308197779
721,-1760.637308197779
784,0.0
785,0.0
848,0.0
849,0.0
1121,0.0
1135,0.0
1161,0.0
1163,0.0
1166,0.0
1168,0.0
2,1, 1,27, 0,16, 0.00,60.00,Monday
7,12.8
545,22.827482583067855
546,16.324362306239614
547,17.891928606278565
548,0.0
720,-1946.9728085414063
721,-1946.9728085414063
784,0.0
785,0.0
848,0.0
849,0.0
1121,0.0
1135,0.0
1161,0.0
1163,0.0
1166,0.0
1168,0.0
2,1, 1,27, 0,17, 0.00,60.00,Monday
7,11.1
545,22.684414352657754
546,14.552699067848986
547,17.916856639063624
548,0.0
720,-1780.4413761486612
721,-1780.4413761486612
784,0.0
785,0.0
848,0.0
849,0.0
1121,0.0
1135,0.0
1161,0.0
1163,0.0
1166,0.0
1168,0.0
2,1, 1,27, 0,18, 0.00,60.00,Monday
7,10.6
545,22.701033838116057
546,12.901805600371327
547,17.93090090574269
548,0.0
720,-1880.6055813092153
721,-1880.6055813092153
784,0.0
785,0.0
848,0.0
849,0.0
1121,0.0
1135,0.0
1161,0.0
1163,0.0
1166,0.0
1168,0.0
2,1, 1,27, 0,19, 0.00,60.00,Monday
7,10.6
545,22.867641276309563
546,11.855234318967357
547,17.93287977649558
548,0.0
720,-2019.616579936357
721,-2019.616579936357
784,0.0
785,0.0
848,0.0
849,0.0
1121,0.0
1135,0.0
1161,0.0
1163,0.0
1166,0.0
1168,0.0
2,1, 1,27, 0,20, 0.00,60.00,Monday
7,7.0
545,21.958121920362373
546,9.54550171163185
547,17.919335676502815
548,0.0
720,-1410.975953514322
721,-1410.975953514322
784,0.0
785,0.0
848,0.0
849,0.0
1121,0.0
1135,0.0
1161,0.0
1163,200.0
1166,0.0
1168,0.0
2,1, 1,27, 0,21, 0.00,60.00,Monday
7,5.0
545,21.874605712716434
546,8.100614882922217
547,17.898406090097144
548,0.0
720,-1836.4592858605938
721,-1836.4592858605938
784,0.0
785,0.0
848,0.0
849,0.0
1121,0.0
1135,0.0
1161,0.0
1163,200.0
1166,0.0
1168,0.0
2,1, 1,27, 0,22, 0.00,60.00,Monday
7,3.9
545,21.19591764027163
546,6.651205190993034
547,17.86051497636995
548,0.0
720,-1167.1793909045464
721,-1167.1793909045464
784,0.0
785,0.0
848,0.0
849,0.0
1121,0.0
1135,0.0
1161,0.0
1163,200.0
1166,0.0
1168,0.0
2,1, 1,27, 0,23, 0.00,60.00,Monday
7,2.0
545,20.22838615613594
546,5.151289125617542
547,17.81014547660637
548,0.0
720,-1370.188152006167
721,-1370.188152006167
784,0.0
785,0.0
848,0.0
849,0.0
1121,0.0
1135,0.0
1161,0.0
1163,200.0
1166,0.0
1168,0.0
2,1, 1,27, 0,24, 0.00,60.00,Monday
7,1.7
545,19.533840549076835
546,4.189363446139496
547,17.746368171992067
548,0.0
720,-809.2900649604253
721,-809.2900649604253
784,0.0
785,0.0
848,0.0
849,0.0
1121,0.0
1135,0.0
1161,0.0
1163,200.0
1166,0.0
1168,0.0
2,2, 1,28, 0, 1, 0.00,60.00,Tuesday
7,1.7
545,18.735103408294826
546,3.5221245396775283
547,17.669302119020756
548,0.0
720,-103.91753751723627
721,-103.91753751723627
784,0.0
785,0.0
848,0.0
849,0.0
1121,0.0
1135,0.0
1161,0.0
1163,200.0
1166,0.0
1168,0.0
2,2, 1,28, 0, 2, 0.00,60.00,Tuesday
7,1.1
545,18.577421508982685
546,3.293108660104591
547,17.561430620425803
548,30.524660184834108
720,687.0857840305471
721,687.0857840305471
784,0.0
785,0.0
848,0.0
849,0.0
1121,944.0521591975775
1135,302.2665238049503
1161,0.014704407251977995
1163,157.8505884737689
1166,0.0
1168,0.0
2,2, 1,28, 0, 3, 0.00,60.00,Tuesday
7,0.0
545,18.711788445900037
546,2.4233130190546586
547,17.455559324655166
548,46.68619517603191
720,1073.2491680304129
721,1073.2491680304129
784,0.0
785,0.0
848,0.0
849,0.0
1121,1420.7567480908178
1135,456.30120054925095
1161,0.022489805246444852
1163,135.5341537925861
1166,0.0
1168,0.0
2,2, 1,28, 0, 4, 0.00,60.00,Tuesday
7,0.0
545,18.594060245014834
546,2.0283003227082648
547,17.35258652297068
548,53.658868563691726
720,1212.3683651637039
721,1212.3683651637039
784,0.0
785,0.0
848,0.0
849,0.0
1121,1640.9380284269773
1135,525.7637383491087
1161,0.025848701193167622
1163,125.906054875973
1166,0.0
1168,0.0
2,2, 1,28, 0, 5, 0.00,60.00,Tuesday
7,-1.7
545,18.445732662157347
546,1.1421771908638767
547,17.225350495324395
548,71.8716171242882
720,1546.971899782131
721,1546.971899782131
784,0.0
785,0.0
848,0.0
849,0.0
1121,2106.1568306519252
1135,685.3795113052978
1161,5.692426511125968
1163,100.61074156826666
1166,0.0
1168,0.0
2,2, 1,28, 0, 6, 0.00,60.00,Tuesday
7,-1.7
545,19.145860821959854
546,1.688726463600994
547,17.087758515573256
548,119.27852489284743
720,2728.9813805639114
721,2728.9813805639114
784,0.0
785,0.0
848,0.0
849,0.0
1121,3678.0560974161144
1135,1144.9708410835337
1161,0.05745930275777943
1163,35.295924790020614
1166,0.0
1168,0.0
2,2, 1,28, 0, 7, 0.00,60.00,Tuesday
7,-1.7
545,19.48728085516891
546,1.75252728719506
547,17.011393126281035
548,131.6766687604165
720,2925.9231483376698
721,2925.9231483376698
784,0.0
785,0.0
848,0.0
849,0.0
1121,4088.434415038541
1135,1281.2484528376192
1161,0.06343178557313875
1163,18.176116306474977
1166,0.0
1168,0.0
2,2, 1,28, 0, 8, 0.00,60.00,Tuesday
7,-1.7
545,19.59678861844758
546,1.257706324200953
547,16.91262338646918
548,139.19498595718366
720,3055.5024462626534
721,3055.5024462626534
784,0.0
785,0.0
848,0.0
849,0.0
1121,4341.971431597303
1135,1363.3524701341662
1161,0.0670535389581607
1163,7.794550340850881
1166,0.0
1168,0.0
2,2, 1,28, 0, 9, 0.00,60.00,Tuesday
7,-3.3
545,19.64228963588154
546,1.263153898898174
547,16.796033800392678
548,144.84109095807122
720,3598.632134752437
721,3598.632134752437
784,0.0
785,0.0
848,0.0
849,0.0
1121,4338.359794714153
1135,1402.302161446223
1161,0.06977277603426049
1163,0.0
1166,741.9839795126336
1168,741.9839795126336
2,2, 1,28, 0,10, 0.00,60.00,Tuesday
7,-3.3
545,19.77212110289918
546,2.7680764661070247
547,16.705425165482303
548,130.31045778025126
720,2546.7190193376045
721,2546.7190193376045
784,0.0
785,0.0
848,0.0
849,0.0
1121,3854.4379950849448
1135,1262.7040672195042
1161,0.06277378223368887
1163,20.062248339194365
1166,0.0
1168,0.0
2,2, 1,28, 0,11, 0.00,60.00,Tuesday
7,-1.7
545,20.07438735716601
546,5.162544690011514
547,16.641235174887335
548,60.10136695429559
720,1035.2538652507428
721,1035.2538652507428
784,0.0
785,0.0
848,0.0
849,0.0
1121,1754.1310928551054
1135,592.0322072689438
1161,0.02895225986171379
1163,117.00986686412655
1166,0.0
1168,0.0
2,2, 1,28, 0,12, 0.00,60.00,Tuesday
7,-1.1
545,20.00575109550409
546,6.4126726022236555
547,16.578993378002036
548,17.49522703280101
720,227.14053684956525
721,227.14053684956525
784,0.0
785,0.0
848,0.0
849,0.0
1121,501.3475635478388
1135,174.28506116701573
1161,0.008427861388623937
1163,175.8419777235591
1166,0.0
1168,0.0
2,2, 1,28, 0,13, 0.00,60.00,Tuesday
7,-1.1
545,19.923984040367415
546,6.95187883733271
547,16.546961339869526
548,0.0
720,-139.72585712079308
721,-139.72585712079308
784,0.0
785,0.0
848,0.0
849,0.0
1121,0.0
1135,0.0
1161,0.0
1163,200.0
1166,0.0
1168,0.0
2,2, 1,28, 0,14, 0.00,60.00,Tuesday
7,0.0
545,19.74674845241144
546,6.330195179058409
547,16.53763316427117
548,16.39362460105611
720,328.50753251593596
721,328.50753251593596
784,0.0
785,0.0
848,0.0
849,0.0
1121,484.13966737075066
1135,164.37040020789294
1161,0.00789718330279133
1163,177.3631386003229
1166,0.0
1168,0.0
2,2, 1,28, 0,15, 0.00,60.00,Tuesday
7,-0.6
545,20.508718851422444
546,6.928983916979159
547,16.54890086495804
548,0.0
720,-118.04021343100612
721,-118.04021343100612
784,0.0
785,0.0
848,0.0
849,0.0
1121,0.0
1135,0.0
1161,0.0
1163,200.0
1166,0.0
1168,0.0
2,2, 1,28, 0,16, 0.00,60.00,Tuesday
7,-0.6
545,20.840511432045247
546,5.880053700175322
547,16.56721360252983
548,0.0
720,-984.4564460359816
721,-984.4564460359816
784,0.0
785,0.0
848,0.0
849,0.0
1121,0.0
1135,0.0
1161,0.0
1163,200.0
1166,0.0
1168,0.0
2,2, 1,28, 0,17, 0.00,60.00,Tuesday
7,-3.3
545,19.84291477532105
546,3.219923599693909
547,16.58260998245978
548,0.0
720,-110.86760282709656
721,-110.86760282709656
784,0.0
785,0.0
848,0.0
849,0.0
1121,0.0
1135,0.0
1161,0.0
1163,200.0
1166,0.0
1168,0.0
2,2, 1,28, 0,18, 0.00,60.00,Tuesday
7,-4.4
545,19.601548110593768
546,0.09838536696536007
547,16.59226237477313
548,56.612304306646976
720,1136.3340026448695
721,1136.3340026448695
784,0.0
785,0.0
848,0.0
849,0.0
1121,1526.121862501177
1135,545.7144231382448
1161,0.027271594899264548
1163,121.82740475777145
1166,0.0
1168,0.0
2,2, 1,28, 0,19, 0.00,60.00,Tuesday
7,-4.4
545,19.585219133182225
546,-1.0140898632865392
547,16.57231173264129
548,83.01837140366146
720,1617.928683100121
721,1617.928683100121
784,0.0
785,0.0
848,0.0
849,0.0
1121,2288.9876555856185
1135,796.3986882989341
1161,0.03999207209060622
1163,85.36482461019199
1166,0.0
1168,0.0
2,2, 1,28, 0,20, 0.00,60.00,Tuesday
7,-6.1
545,19.853672604098744
546,-1.8409520371319623
547,16.525778727761512
548,93.78003120031296
720,1651.2266421767163
721,1651.2266421767163
784,0.0
785,0.0
848,0.0
849,0.0
1121,2483.0853382966825
1135,886.4319674808494
1161,0.04517635518193692
1163,70.50434926151141
1166,0.0
1168,0.0
2,2, 1,28, 0,21, 0.00,60.00,Tuesday
7,-6.7
545,19.68751180030958
546,-2.567258613709231
547,16.466784467669378
548,97.41894098607743
720,1612.240459014768
721,1612.240459014768
784,0.0
785,0.0
848,0.0
849,0.0
1121,2537.869763885048
1135,920.7967832600278
1161,0.04692936217743561
1163,65.47944672749753
1166,0.0
1168,0.0
2,2, 1,28, 0,22, 0.00,60.00,Tuesday
7,-6.7
545,19.593852168078953
546,-2.885988146544122
547,16.375691729705775
548,115.01382213757451
720,1944.467689253339
721,1944.467689253339
784,0.0
785,0.0
848,0.0
849,0.0
1121,3043.1910526118977
1135,1083.469852386672
1161,0.05540529563607548
1163,41.183628385747916
1166,0.0
1168,0.0
2,2, 1,28, 0,23, 0.00,60.00,Tuesday
7,-7.8
545,18.95682555750807
546,-3.545204493746359
547,16.280357063584162
548,104.69172062582277
720,1595.407292556165
721,1595.407292556165
784,0.0
785,0.0
848,0.0
849,0.0
1121,2659.3940073563576
1135,975.1119246887239
1161,0.05043295104156292
1163,55.43659315834344
1166,0.0
1168,0.0
2,2, 1,28, 0,24, 0.00,60.00,Tuesday
7,-7.8
545,18.622926266215224
546,-3.8100861095060674
547,16.14400439848088
548,127.92656563032489
720,2098.7088070514565
721,2098.7088070514565
784,0.0
785,0.0
848,0.0
849,0.0
1121,3325.8730330576022
1135,1176.8449743678445
1161,0.06162582615827099
1163,23.352804171039754
1166,0.0
1168,0.0
2,3, 1,29, 0, 1, 0.00,60.00,Wednesday
7,-7.8
545,18.551733271049237
546,-3.840394162361643
547,16.013364740418368
548,144.84109095807122
720,2707.335962156749
721,2707.335962156749
784,0.0
785,0.0
848,0.0
849,0.0
1121,3827.7164065911893
1135,1323.620227953021
1161,0.06977277603426049
1163,0.0
1166,382.9417445846916
1168,382.9417445846916
2,3, 1,29, 0, 2, 0.00,60.00,Wednesday
7,-8.9
545,18.573302442300875
546,-4.438864404291369
547,15.884470656436372
548,144.84109095807122
720,3149.2344199106556
721,3149.2344199106556
784,0.0
785,0.0
848,0.0
849,0.0
1121,3696.70360871055
1135,1306.3021835155241
1161,2.2888809474658793
1163,0.0
1166,1065.8566765324022
1168,1065.8566765324022
2,3, 1,29, 0, 3, 0.00,60.00,Wednesday
7,-8.9
545,18.578126462044068
546,-4.940411942734505
547,15.764184848176065
548,144.84109095807122
720,3556.03784897323
721,3556.03784897323
784,0.0
785,0.0
848,0.0
849,0.0
1121,3682.789179645847
1135,1301.8606127609505
1161,5.990351729155935
1163,0.0
1166,1599.6139810303173
1168,1599.6139810303173
2,3, 1,29, 0, 4, 0.00,60.00,Wednesday
7,-8.9
545,18.582648119658753
546,-4.8419871315620595
547,15.642168225345687
548,144.84109095807122
720,3756.6617925516475
721,3756.6617925516475
784,0.0
785,0.0
848,0.0
849,0.0
1121,3682.8242683646486
1135,1301.8212426386394
1161,5.990351729155935
1163,0.0
1166,1874.6401010375025
1168,1874.6401010375025
2,3, 1,29, 0, 5, 0.00,60.00,Wednesday
7,-10.6
545,18.577621908481216
546,-5.026169923528733
547,15.50484677925693
548,144.84109095807122
720,4225.109999502414
721,4225.109999502414
784,0.0
785,0.0
848,0.0
849,0.0
1121,3455.5156919359597
1135,1267.5128893578876
1161,17.605771986753453
1163,0.0
1166,2654.0923594731003
1168,2654.0923594731003
2,3, 1,29, 0, 6, 0.00,60.00,Wednesday
7,-9.4
545,19.34547937358326
546,-4.822977909064716
547,15.39852169767415
548,144.84109095807122
720,4969.3292320410255
721,4969.3292320410255
784,0.0
785,0.0
848,0.0
849,0.0
1121,3604.5284980756605
1135,1287.5567358667179
1161,12.370220092836664
1163,0.0
1166,3385.618812565269
1168,3385.618812565269
2,3, 1,29, 0, 7, 0.00,60.00,Wednesday
7,-9.4
545,19.589092724630227
546,-4.672449473778073
547,15.310777775793957
548,144.84109095807122
720,4947.281964796524
721,4947.281964796524
784,0.0
785,0.0
848,0.0
849,0.0
1121,3587.788212477565
1135,1306.197951979586
1161,12.370220092836664
1163,0.0
1166,3449.2458682105294
1168,3449.2458682105294
2,3, 1,29, 0, 8, 0.00,60.00,Wednesday
7,-8.9
545,19.678921560854803
546,-3.887276335606717
547,15.20418187671639
548,144.84109095807122
720,4251.514981531711
721,4251.514981531711
784,0.0
785,0.0
848,0.0
849,0.0
1121,3634.211894707734
1135,1316.6804152478576
1161,13.308670041850222
1163,0.0
1166,2623.576925771551
1168,2623.576925771551
2,3, 1,29, 0, 9, 0.00,60.00,Wednesday
7,-6.1
545,19.72455587256859
546,-1.083665476050664
547,15.126523379182128
548,144.84109095807122
720,3264.863120860098
721,3264.863120860098
784,0.0
785,0.0
848,0.0
849,0.0
1121,4002.0563484665695
1135,1369.1751867886946
1161,0.06977277603426049
1163,0.0
1166,1079.8481495573214
1168,1079.8481495573214
2,3, 1,29, 0,10, 0.00,60.00,Wednesday
7,-6.1
545,19.753609155546123
546,2.1368708109695156
547,15.044466722146225
548,144.84109095807122
720,2503.896743111123
721,2503.896743111123
784,0.0
785,0.0
848,0.0
849,0.0
1121,4001.112129501741
1135,1370.2659043852952
1161,0.06977277603426049
1163,0.0
1166,45.97324319819609
1168,45.97324319819609
2,3, 1,29, 0,11, 0.00,60.00,Wednesday
7,-1.7
545,19.9463488113608
546,5.1746453411474
547,14.994993656471616
548,93.59075978399854
720,1756.9771097023513
721,1756.9771097023513
784,0.0
785,0.0
848,0.0
849,0.0
1121,2808.0917709446635
1135,919.7560296702278
1161,0.04508489773407478
1163,70.76650723503745
1166,0.0
1168,0.0
2,3, 1,29, 0,12, 0.00,60.00,Wednesday
7,-0.6
545,20.11518345672929
546,7.576218282957938
547,14.955016463009958
548,55.959366952261476
720,1072.7747596743156
721,1072.7747596743156
784,0.0
785,0.0
848,0.0
849,0.0
1121,1677.3565108450462
1135,557.3684721405247
1161,0.02695692367761001
1163,122.7293932969691
1166,0.0
1168,0.0
2,3, 1,29, 0,13, 0.00,60.00,Wednesday
7,-0.6
545,19.831156498182423
546,7.397346374395503
547,14.950266952431997
548,48.696621375419646
720,1023.1073123152328
721,1023.1073123152328
784,0.0
785,0.0
848,0.0
849,0.0
1121,1450.0593310248362
1135,486.6348938089938
1161,0.023458291003795775
1163,132.75804020675037
1166,0.0
1168,0.0
2,3, 1,29, 0,14, 0.00,60.00,Wednesday
7,1.1
545,19.933526994176244
546,7.746449927400524
547,14.953566883698144
548,45.29403437176337
720,1038.8248926382075
721,1038.8248926382075
784,0.0
785,0.0
848,0.0
849,0.0
1121,1410.623587206195
1135,456.90971359507216
1161,0.021819143631860976
1163,137.45657010652081
1166,0.0
1168,0.0
2,3, 1,29, 0,15, 0.00,60.00,Wednesday
7,2.2
545,19.73430081042929
546,7.652247944865057
547,14.962357921050899
548,40.41587873921712
720,957.8944112501249
721,957.8944112501249
784,0.0
785,0.0
848,0.0
849,0.0
1121,1290.575723804687
1135,412.61346197028087
1161,0.019469205005498556
1163,144.19254582635895
1166,0.0
1168,0.0
2,3, 1,29, 0,16, 0.00,60.00,Wednesday
7,2.2
545,19.727741128570543
546,7.170596600091054
547,14.968960449121418
548,40.89165316507318
720,982.1201232562616
721,982.1201232562616
784,0.0
785,0.0
848,0.0
849,0.0
1121,1307.4903415973808
1135,415.8600950952829
1161,0.01969839577652131
1163,143.5355825118702
1166,0.0
1168,0.0
2,3, 1,29, 0,17, 0.00,60.00,Wednesday
7,2.8
545,19.805753047991214
546,6.652620717703536
547,14.971289502066252
548,33.8584158673975
720,809.2066088319261
721,809.2066088319261
784,0.0
785,0.0
848,0.0
849,0.0
1121,1093.871457217386
1135,346.22586983757566
1161,0.016310323014220817
1163,153.24731523879177
1166,0.0
1168,0.0
2,3, 1,29, 0,18, 0.00,60.00,Wednesday
7,2.8
545,19.863891050685808
546,5.786791430732894
547,14.97981589353632
548,34.03996099494739
720,817.9291847510685
721,817.9291847510685
784,0.0
785,0.0
848,0.0
849,0.0
1121,1099.4871691660308
1135,348.61261932569334
1161,0.016397777208476204
1163,152.99663238159133
1166,0.0
1168,0.0
2,3, 1,29, 0,19, 0.00,60.00,Wednesday
7,2.8
545,19.76378778684129
546,4.750466181092448
547,14.975122420923409
548,28.74391550394299
720,672.2702896568062
721,672.2702896568062
784,0.0
785,0.0
848,0.0
849,0.0
1121,924.3474326918943
1135,294.7169381077191
1161,0.013846558846720706
1163,160.30956589738773
1166,0.0
1168,0.0
2,3, 1,29, 0,20, 0.00,60.00,Wednesday
7,1.1
545,19.639976936336083
546,3.392191093540706
547,14.967877109678122
548,33.046586870928635
720,744.5958339500412
721,744.5958339500412
784,0.0
785,0.0
848,0.0
849,0.0
1121,1019.6824042105027
1135,332.95644591783713
1161,0.015919275777321593
1163,154.3682316165699
1166,0.0
1168,0.0
2,3, 1,29, 0,21, 0.00,60.00,Wednesday
7,1.1
545,19.801233202655716
546,2.693747047829696
547,14.951755373159873
548,37.46791012441839
720,841.0692420083233
721,841.0692420083233
784,0.0
785,0.0
848,0.0
849,0.0
1121,1160.8067607350747
1135,376.58196426166637
1161,0.018049125446218273
1163,148.26312934043037
1166,0.0
1168,0.0
2,3, 1,29, 0,22, 0.00,60.00,Wednesday
7,1.1
545,19.7041342895463
546,2.498124248937644
547,14.931862267356713
548,43.54924911075884
720,972.28300412526
721,972.28300412526
784,0.0
785,0.0
848,0.0
849,0.0
1121,1354.6147831363
1135,439.06301138626304
1161,0.020978641753376895
1163,139.86582462169554
1166,0.0
1168,0.0
2,3, 1,29, 0,23, 0.00,60.00,Wednesday
7,1.1
545,18.782257640690485
546,1.6934325438435687
547,14.875949212589399
548,23.340158086306246
720,462.2173375235561
721,462.2173375235561
784,0.0
785,0.0
848,0.0
849,0.0
1121,714.9823345151019
1135,234.889307181128
1161,0.011243473164238807
1163,167.77117436543466
1166,0.0
1168,0.0
2,3, 1,29, 0,24, 0.00,60.00,Wednesday
7,1.1
545,18.59459745462915
546,1.4786427353338727
547,14.837747125689553
548,39.47506748603853
720,898.5555314441908
721,898.5555314441908
784,0.0
785,0.0
848,0.0
849,0.0
1121,1230.0099159388592
1135,390.1350102246873
1161,0.019016017328939688
1163,145.4915845125547
1166,0.0
1168,0.0
2,4, 1,30, 0, 1, 0.00,60.00,Thursday
7,1.1
545,18.526932290945567
546,1.5185657793142164
547,14.79430900714398
548,59.12554302741852
720,1379.356855717695
721,1379.356855717695
784,0.0
785,0.0
848,0.0
849,0.0
1121,1872.827353253617
1135,582.1297016535292
1161,0.028482087972576335
1163,118.35758990414602
1166,0.0
1168,0.0
2,4, 1,30, 0, 2, 0.00,60.00,Thursday
7,1.1
545,18.48034513584956
546,2.1210275016458335
547,14.744554439937028
548,74.86801302692903
720,1753.2515021071813
721,1753.2515021071813
784,0.0
785,0.0
848,0.0
849,0.0
1121,2402.388362642792
1135,736.0587359073143
1161,0.036065585530361544
1163,96.6198922265834
1166,0.0
1168,0.0
2,4, 1,30, 0, 3, 0.00,60.00,Thursday
7,1.1
545,18.560702184431467
546,2.632420958608121
547,14.691412137691486
548,85.3569271526019
720,2009.180443882151
721,2009.180443882151
784,0.0
785,0.0
848,0.0
849,0.0
1121,2762.9713398444915
1135,838.333080456635
1161,0.04111832848320261
1163,82.1364697800979
1166,0.0
1168,0.0
2,4, 1,30, 0, 4, 0.00,60.00,Thursday
7,1.1
545,18.575178754718667
546,2.869164389308329
547,14.639674510218548
548,91.31432652960717
720,2152.6498770287108
721,2152.6498770287108
784,0.0
785,0.0
848,0.0
849,0.0
1121,2969.111210955359
1135,898.1663359520148
1161,0.04398814022935246
1163,73.91030505149175
1166,0.0
1168,0.0
2,4, 1,30, 0, 5, 0.00,60.00,Thursday
7,0.6
545,18.604152017644076
546,2.180947318542551
547,14.583104121321746
548,94.99276400667327
720,2179.7936010856392
721,2179.7936010856392
784,0.0
785,0.0
848,0.0
849,0.0
1121,3024.7655718822
1135,921.4586215291847
1161,7.0010698707890535
1163,68.70565437685737
1166,0.0
1168,0.0
2,4, 1,30, 0, 6, 0.00,60.00,Thursday
7,0.6
545,19.281019932137465
546,2.144147650331525
547,14.55090137133243
548,131.2103289571995
720,3129.4427506362135
721,3129.4427506362135
784,0.0
785,0.0
848,0.0
849,0.0
1121,4282.218441989306
1135,1266.8601674192844
1161,14.612971189645842
1163,18.557159670611867
1166,0.0
1168,0.0
2,4, 1,30, 0, 7, 0.00,60.00,Thursday
7,0.6
545,19.581285034320462
546,2.2589336922193306
547,14.524702154934085
548,130.74513733389912
720,2995.0662344648317
721,2995.0662344648317
784,0.0
785,0.0
848,0.0
849,0.0
1121,4251.469666141361
1135,1279.1080991608812
1161,14.561231893098723
1163,19.19958377453439
1166,0.0
1168,0.0
2,4, 1,30, 0, 8, 0.00,60.00,Thursday
7,1.1
545,19.79722343543824
546,2.6851768399457314
547,14.453901875493022
548,97.3316191745634
720,2141.545123607393
721,2141.545123607393
784,0.0
785,0.0
848,0.0
849,0.0
1121,3165.026391400992
1135,976.3643161218714
1161,0.04688680510090001
1163,65.6014343534871
1166,0.0
1168,0.0
2,4, 1,30, 0, 9, 0.00,60.00,Thursday
7,1.7
545,19.797124920338327
546,3.600233057472873
547,14.380027653677317
548,58.499782491185066
720,1205.749382832495
721,1205.749382832495
784,0.0
785,0.0
848,0.0
849,0.0
1121,1871.3908654460924
1135,592.5643149387258
1161,0.028180628046000977
1163,119.22170895948456
1166,0.0
1168,0.0
2,4, 1,30, 0,10, 0.00,60.00,Thursday
7,1.7
545,19.849560417982076
546,4.829915076824803
547,14.326935141421416
548,29.207346177803984
720,557.922673842535
721,557.922673842535
784,0.0
785,0.0
848,0.0
849,0.0
1121,913.0612040120836
1135,295.8724985681201
1161,0.01406981913215581
1163,159.6696020085338
1166,0.0
1168,0.0
2,4, 1,30, 0,11, 0.00,60.00,Thursday
7,3.3
545,19.82006302167986
546,7.515586839176901
547,14.297855803736894
548,0.0
720,-145.24600033828392
721,-145.24600033828392
784,0.0
785,0.0
848,0.0
849,0.0
1121,0.0
1135,0.0
1161,0.0
1163,200.0
1166,0.0
1168,0.0
2,4, 1,30, 0,12, 0.00,60.00,Thursday
7,3.3
545,20.559824570640032
546,10.652720577513707
547,14.328128001238278
548,0.0
720,-647.5463293223202
721,-647.5463293223202
784,0.0
785,0.0
848,0.0
849,0.0
1121,0.0
1135,0.0
1161,0.0
1163,200.0
1166,0.0
1168,0.0
2,4, 1,30, 0,13, 0.00,60.00,Thursday
7,3.3
545,21.083170019422937
546,12.281382944570938
547,14.372340966519886
548,0.0
720,-988.9423512000467
721,-988.9423512000467
784,0.0
785,0.0
848,0.0
849,0.0
1121,0.0
1135,0.0
1161,0.0
1163,200.0
1166,0.0
1168,0.0
2,4, 1,30, 0,14, 0.00,60.00,Thursday
7,3.9
545,21.40298207118978
546,13.504195083123035
547,14.434040655074652
548,0.0
720,-1321.9737588426196
721,-1321.9737588426196
784,0.0
785,0.0
848,0.0
849,0.0
1121,0.0
1135,0.0
1161,0.0
1163,200.0
1166,0.0
1168,0.0
2,4, 1,30, 0,15, 0.00,60.00,Thursday
7,2.8
545,21.94990900267087
546,13.477392641532752
547,14.510845760314213
548,0.0
720,-1895.396403889199
721,-1895.396403889199
784,0.0
785,0.0
848,0.0
849,0.0
1121,0.0
1135,0.0
1161,0.0
1163,200.0
1166,0.0
1168,0.0
2,4, 1,30, 0,16, 0.00,60.00,Thursday
7,2.8
545,22.402870566026635
546,11.929271368695648
547,14.593892498630545
548,0.0
720,-2262.963119902972
721,-2262.963119902972
784,0.0
785,0.0
848,0.0
849,0.0
1121,0.0
1135,0.0
1161,0.0
1163,200.0
1166,0.0
1168,0.0
2,4, 1,30, 0,17, 0.00,60.00,Thursday
7,0.0
545,22.093305668911576
546,8.256401710047063
547,14.696745146507478
548,0.0
720,-2074.895957629573
721,-2074.895957629573
784,0.0
785,0.0
848,0.0
849,0.0
1121,0.0
1135,0.0
1161,0.0
1163,200.0
1166,0.0
1168,0.0
2,4, 1,30, 0,18, 0.00,60.00,Thursday
7,-2.8
545,20.55795380439579
546,3.496223726089995
547,14.782492989883975
548,0.0
720,-818.6097821323347
721,-818.6097821323347
784,0.0
785,0.0
848,0.0
849,0.0
1121,0.0
1135,0.0
1161,0.0
1163,200.0
1166,0.0
1168,0.0
2,4, 1,30, 0,19, 0.00,60.00,Thursday
7,-2.8
545,19.906613848387597
546,1.2196934771679104
547,14.8407034550783
548,0.0
720,-191.11701105118846
721,-191.11701105118846
784,0.0
785,0.0
848,0.0
849,0.0
1121,0.0
1135,0.0
1161,0.0
1163,200.0
1166,0.0
1168,0.0
2,4, 1,30, 0,20, 0.00,60.00,Thursday
7,-4.4
545,19.73845792968379
546,-0.7274062463531186
547,14.872499219057731
548,18.43898067562702
720,269.3202855341624
721,269.3202855341624
784,0.0
785,0.0
848,0.0
849,0.0
1121,482.5076285123099
1135,177.67053030054814
1161,0.008882528573409296
1163,174.53869810469428
1166,0.0
1168,0.0
2,4, 1,30, 0,21, 0.00,60.00,Thursday
7,-6.7
545,19.45049290147375
546,-2.1246630798778003
547,14.866518910357906
548,54.97570294726395
720,956.2266595758865
721,956.2266595758865
784,0.0
785,0.0
848,0.0
849,0.0
1121,1385.5726575912684