Program Version,EnergyPlus, Version 22.2.0-c249759bad, YMD=2023.09.01 20:20
1,5,Environment Title[],Latitude[deg],Longitude[deg],Time Zone[],Elevation[m]
2,8,Day of Simulation[],Month[],Day of Month[],DST Indicator[1=yes 0=no],Hour[],StartMinute[],EndMinute[],DayType
3,5,Cumulative Day of Simulation[],Month[],Day of Month[],DST Indicator[1=yes 0=no],DayType  ! When Daily Report Variables Requested
4,2,Cumulative Days of Simulation[],Month[]  ! When Monthly Report Variables Requested
5,1,Cumulative Days of Simulation[] ! When Run Period Report Variables Requested
6,1,Calendar Year of Simulation[] ! When Annual Report Variables Requested
581,11,LIVING,AFN Zone Infiltration Air Change Rate [ach] !RunPeriod [Value,Min,Month,Day,Hour,Minute,Max,Month,Day,Hour,Minute]
582,11,ATTIC,AFN Zone Infiltration Air Change Rate [ach] !RunPeriod [Value,Min,Month,Day,Hour,Minute,Max,Month,Day,Hour,Minute]
583,11,CRAWLSPACE,AFN Zone Infiltration Air Change Rate [ach] !RunPeriod [Value,Min,Month,Day,Hour,Minute,Max,Month,Day,Hour,Minute]
1038,11,Facility,Facility Heating Setpoint Not Met Time [hr] !RunPeriod [Value,Min,Month,Day,Hour,Minute,Max,Month,Day,Hour,Minute]
1039,11,Facility,Facility Cooling Setpoint Not Met Time [hr] !RunPeriod [Value,Min,Month,Day,Hour,Minute,Max,Month,Day,Hour,Minute]
1115,11,DX_HEATING_COIL,Heating Coil Heating Energy [J] !RunPeriod [Value,Min,Month,Day,Hour,Minute,Max,Month,Day,Hour,Minute]
1128,11,DX_HEATING_COIL,Heating Coil Electricity Energy [J] !RunPeriod [Value,Min,Month,Day,Hour,Minute,Max,Month,Day,Hour,Minute]
1153,11,DX_HEATING_COIL,Heating Coil Defrost Electricity Energy [J] !RunPeriod [Value,Min,Month,Day,Hour,Minute,Max,Month,Day,Hour,Minute]
1154,11,DX_HEATING_COIL,Heating Coil Crankcase Heater Electricity Energy [J] !RunPeriod [Value,Min,Month,Day,Hour,Minute,Max,Month,Day,Hour,Minute]
1155,11,HEATING_RESISTANCE_BACKUP,Heating Coil Heating Energy [J] !RunPeriod [Value,Min,Month,Day,Hour,Minute,Max,Month,Day,Hour,Minute]
1156,11,HEATING_RESISTANCE_BACKUP,Heating Coil Electricity Energy [J] !RunPeriod [Value,Min,Month,Day,Hour,Minute,Max,Month,Day,Hour,Minute]
1292,11,WATER HEATER,Water Heater Heat Loss Energy [J] !RunPeriod [Value,Min,Month,Day,Hour,Minute,Max,Month,Day,Hour,Minute]
1306,11,WATER HEATER,Water Heater Heating Energy [J] !RunPeriod [Value,Min,Month,Day,Hour,Minute,Max,Month,Day,Hour,Minute]
1307,11,WATER HEATER,Water Heater Unmet Demand Heat Transfer Energy [J] !RunPeriod [Value,Min,Month,Day,Hour,Minute,Max,Month,Day,Hour,Minute]
1308,11,WATER HEATER,Water Heater Electricity Energy [J] !RunPeriod [Value,Min,Month,Day,Hour,Minute,Max,Month,Day,Hour,Minute]
13,11,Electricity:Facility [J] !RunPeriod [Value,Min,Month,Day,Hour,Minute,Max,Month,Day,Hour,Minute]
1134,11,Heating:Electricity [J] !RunPeriod [Value,Min,Month,Day,Hour,Minute,Max,Month,Day,Hour,Minute]
1096,11,Cooling:Electricity [J] !RunPeriod [Value,Min,Month,Day,Hour,Minute,Max,Month,Day,Hour,Minute]
562,11,Fans:Electricity [J] !RunPeriod [Value,Min,Month,Day,Hour,Minute,Max,Month,Day,Hour,Minute]
1379,11,Pumps:Electricity [J] !RunPeriod [Value,Min,Month,Day,Hour,Minute,Max,Month,Day,Hour,Minute]
1326,11,WaterSystems:Electricity [J] !RunPeriod [Value,Min,Month,Day,Hour,Minute,Max,Month,Day,Hour,Minute]
61,11,InteriorLights:Electricity [J] !RunPeriod [Value,Min,Month,Day,Hour,Minute,Max,Month,Day,Hour,Minute]
1046,11,ExteriorLights:Electricity [J] !RunPeriod [Value,Min,Month,Day,Hour,Minute,Max,Month,Day,Hour,Minute]
134,11,InteriorEquipment:Electricity [J] !RunPeriod [Value,Min,Month,Day,Hour,Minute,Max,Month,Day,Hour,Minute]
170,11,gas_dryer:InteriorEquipment:Electricity [J] !RunPeriod [Value,Min,Month,Day,Hour,Minute,Max,Month,Day,Hour,Minute]
207,11,clotheswasher:InteriorEquipment:Electricity [J] !RunPeriod [Value,Min,Month,Day,Hour,Minute,Max,Month,Day,Hour,Minute]
244,11,dishwasher:InteriorEquipment:Electricity [J] !RunPeriod [Value,Min,Month,Day,Hour,Minute,Max,Month,Day,Hour,Minute]
281,11,refrigerator:InteriorEquipment:Electricity [J] !RunPeriod [Value,Min,Month,Day,Hour,Minute,Max,Month,Day,Hour,Minute]
318,11,electric_mels:InteriorEquipment:Electricity [J] !RunPeriod [Value,Min,Month,Day,Hour,Minute,Max,Month,Day,Hour,Minute]
355,11,NaturalGas:Facility [J] !RunPeriod [Value,Min,Month,Day,Hour,Minute,Max,Month,Day,Hour,Minute]
403,11,InteriorEquipment:NaturalGas [J] !RunPeriod [Value,Min,Month,Day,Hour,Minute,Max,Month,Day,Hour,Minute]
476,11,gas_dryer:InteriorEquipment:NaturalGas [J] !RunPeriod [Value,Min,Month,Day,Hour,Minute,Max,Month,Day,Hour,Minute]
513,11,gas_mels:InteriorEquipment:NaturalGas [J] !RunPeriod [Value,Min,Month,Day,Hour,Minute,Max,Month,Day,Hour,Minute]
End of Data Dictionary
1,EXTREME_WINTER,  40.00, -82.88,  -5.00, 254.00
5,7
1038,2.0,0.0, 1,20, 1,15,0.25, 1,20, 6,15
1039,0.0,0.0, 1,20, 1,15,0.0, 1,20, 1,15
581,0.40900370154758453,0.25529742764246766, 1,25,23, 7,1.0089486531984329, 1,22, 6,60
582,4.776243012855273,0.0004218551886831684, 1,21, 1,60,21.490622508512914, 1,22,17,52
583,0.05503430529755523,0.0006334208367096578, 1,25,23, 7,0.07502016044682228, 1,22, 6,60
1115,1846260648.190413,0.0, 1,20,23, 5,3990707.847563854, 1,22, 6,60
1128,632474168.0546238,0.0, 1,20,23, 5,1183632.9402917149, 1,22, 6,60
1153,7616105.036227108,0.0, 1,20,23, 5,81604.80623912335, 1,22,14,60
1154,15812469.506963884,0.0, 1,20, 1, 7,163016.2787604156, 1,23,15,30
1155,937793136.9717289,0.0, 1,20,14,37,5615102.624752568, 1,20, 6,15
1156,937793136.9717289,0.0, 1,20,14,37,5615102.624752568, 1,20, 6,15
1292,-25414918.37203512,-39777.6172101439, 1,23, 4,30,-6602.463290284459, 1,25,10,33
1306,127829377.17695181,0.0, 1,20, 1, 7,4050000.0, 1,20, 7,15
1307,24968399.14458657,0.0, 1,20, 1, 7,7430049.69986621, 1,20, 6,60
1308,127829377.17695181,0.0, 1,20, 1, 7,4050000.0, 1,20, 7,15
13,2163161653.437294,519447.70995040244, 1,23,15,60,11511522.099739626, 1,20, 7,15
61,301924526.02383536,88139.10953165221, 1,20, 1,15,1282023.4113694867, 1,20,20,15
134,70666020.44019976,63564.01800854099, 1,20, 4,15,156554.22484006523, 1,25,20,15
170,5241013.419656067,348.4159749238097, 1,20, 4,15,17476.39704006126, 1,25,12,15
207,6509451.13922267,815.2532113832032, 1,20, 3,15,22990.642799023623, 1,25,10,15
244,12749673.399825225,1521.856143006317, 1,20, 4,15,53038.631142310165, 1,25,20,15
281,46165882.481495745,59938.60262432081, 1,20, 5,15,81951.81706819107, 1,20,19,15
318,0.0,0.0, 1,20, 1,15,0.0, 1,20, 1,15
355,197687796.27748066,18561.32405820678, 1,20, 4,15,724774.895203776, 1,25,18,15
403,197687796.27748066,18561.32405820678, 1,20, 4,15,724774.895203776, 1,25,18,15
476,106772067.24485716,7098.072629279515, 1,20, 4,15,356036.3026282215, 1,25,12,15
513,0.0,0.0, 1,20, 1,15,0.0, 1,20, 1,15
562,69045850.22676298,0.0, 1,21,17,30,118227.08193139071, 1,20, 1,15
1046,0.0,0.0, 1,20, 1,15,0.0, 1,20, 1,15
1096,0.0,0.0, 1,20, 1,15,0.0, 1,20, 1,15
1134,1593695879.5695422,180000.0, 1,21,17,30,6647217.978465935, 1,20, 7,15
1326,127829377.17695183,0.0, 1,20, 1,15,4050000.0, 1,20, 7,15
1379,0.0,0.0, 1,20, 1,15,0.0, 1,20, 1,15
1,EXTREME_SUMMER,  40.00, -82.88,  -5.00, 254.00
5,7
1038,0.0,0.0, 8, 3, 1,15,0.0, 8, 3, 1,15
1039,33.25,0.0, 8, 3, 1,15,0.25, 8, 4,14,60
581,0.11158989071430327,0.0, 8, 3,23,22,0.37703911952801844, 8, 9,12,60
582,3.2978426617306615,0.0, 8, 5,21,50,14.972289381180035, 8, 9,12,60
583,0.03245868987569742,0.0, 8, 5, 6, 7,0.05975980583327785, 8, 7,16,31
1115,0.0,0.0, 8, 3, 1,15,0.0, 8, 3, 1,15
1128,0.0,0.0, 8, 3, 1,15,0.0, 8, 3, 1,15
1153,0.0,0.0, 8, 3, 1,15,0.0, 8, 3, 1,15
1154,0.0,0.0, 8, 3, 1,15,0.0, 8, 3, 1,15
1155,0.0,0.0, 8, 3, 1,15,0.0, 8, 3, 1,15
1156,0.0,0.0, 8, 3, 1,15,0.0, 8, 3, 1,15
1292,-21956912.877511565,-34405.89598902717, 8, 8, 6,45,-2986.180750878818, 8, 7,16,31
1306,96170643.10467134,0.0, 8, 3, 1,15,4050000.0, 8, 3, 7,15
1307,10922242.842604272,0.0, 8, 3, 1,15,4211491.221561745, 8, 3, 6,60
1308,96170643.10467134,0.0, 8, 3, 1,15,4050000.0, 8, 3, 7,15
13,921421025.0378585,152071.80019841267, 8, 8, 4,45,5369185.26995852, 8, 9,13,60
61,301924526.02383536,88139.10953165221, 8, 3, 1,15,1282023.4113694867, 8, 3,20,15
134,70666020.44019976,63564.01800854099, 8, 3, 4,15,156554.22484006523, 8, 8,20,15
170,5241013.419656067,348.4159749238097, 8, 3, 4,15,17476.39704006126, 8, 8,12,15
207,6509451.13922267,815.2532113832032, 8, 3, 3,15,22990.642799023623, 8, 8,10,15
244,12749673.399825225,1521.856143006317, 8, 3, 4,15,53038.631142310165, 8, 8,20,15
281,46165882.481495745,59938.60262432081, 8, 3, 5,15,81951.81706819107, 8, 3,19,15
318,0.0,0.0, 8, 3, 1,15,0.0, 8, 3, 1,15
355,197687796.27748066,18561.32405820678, 8, 3, 4,15,724774.895203776, 8, 8,18,15
403,197687796.27748066,18561.32405820678, 8, 3, 4,15,724774.895203776, 8, 8,18,15
476,106772067.24485716,7098.072629279515, 8, 3, 4,15,356036.3026282215, 8, 8,12,15
513,0.0,0.0, 8, 3, 1,15,0.0, 8, 3, 1,15
562,44777688.256456666,0.0, 8, 4, 6,30,118227.08193139074, 8, 7,16,45
1046,0.0,0.0, 8, 3, 1,15,0.0, 8, 3, 1,15
1096,407882147.2126965,0.0, 8, 4, 6,30,1165567.0016779657, 8, 6,17,60
1134,0.0,0.0, 8, 3, 1,15,0.0, 8, 3, 1,15
1326,96170643.10467134,0.0, 8, 3, 1,15,4050000.0, 8, 3, 7,15
1379,0.0,0.0, 8, 3, 1,15,0.0, 8, 3, 1,15
1,ANNUAL,  40.00, -82.88,  -5.00, 254.00
5,365
1038,32.25,0.0, 1, 1, 1,15,0.25, 1, 1, 2,45
1039,621.75,0.0, 1, 1, 1,15,0.25, 4,17,13,45
581,0.25044400614842144,0.0, 5,30, 6, 7,1.333590718851348, 2,11,22,30
582,4.238732004097789,0.0, 1, 9,19,52,40.502230543989285, 2,11,21,60
583,0.02844607085219108,0.0, 6, 5,23, 3,0.08333139803159412, 1,30, 1,47
1115,26925637120.695908,0.0, 1, 1,23, 5,4176438.539733107, 1, 5, 6,60
1128,8486346478.885062,0.0, 1, 1,23, 5,1197208.3289645733, 1, 5, 6,60
1153,282283974.86379576,0.0, 1, 1,23, 5,137195.78946240706,12,25, 6,45
1154,1231645394.217974,0.0, 1, 1, 1, 3,180000.0, 1, 9,12,30
1155,5929040809.468262,0.0, 1, 1, 1,47,5615102.624752568, 1,20, 6,15
1156,5929040809.468262,0.0, 1, 1, 1,47,5615102.624752568, 1,20, 6,15
1292,-1226109937.063405,-39848.38909508805, 1, 1, 3,45,-2161.3838670683917, 9, 4,16,16
1306,5913024294.174244,0.0, 1, 1, 1, 3,4050000.0, 1, 2, 7,15
1307,950630906.3954524,0.0, 1, 1, 1, 3,7522878.318569889, 2, 6, 6,60
1308,5913024294.174244,0.0, 1, 1, 1, 3,4050000.0, 1, 2, 7,15
13,51416715699.67156,151703.1275401932, 3,21, 4,15,10711899.484326769, 1,30, 7,15
61,15743207428.383959,88139.10953165221, 1, 1, 1,15,1282023.4113694867, 1, 1,20,15
134,3685071073.4325233,63564.01800854099, 1, 2, 4,15,156554.22484006523, 1, 1,20,15
170,273393721.45532674,348.4159749238097, 1, 2, 4,15,17476.39704006126, 1, 1,12,15
207,339560869.0695816,815.2532113832032, 1, 2, 3,15,22990.642799023623, 1, 1,10,15
244,664895467.8009144,1521.856143006317, 1, 2, 4,15,53038.631142310165, 1, 1,20,15
281,2407221015.106824,59938.60262432081, 1, 1, 5,15,81951.81706819107, 1, 1,19,15
318,0.0,0.0, 1, 1, 1,15,0.0, 1, 1, 1,15
355,10310294493.051695,18561.32405820678, 1, 2, 4,15,724774.895203776, 1, 1,18,15
403,10310294493.051695,18561.32405820678, 1, 2, 4,15,724774.895203776, 1, 1,18,15
476,5569688622.066177,7098.072629279515, 1, 2, 4,15,356036.3026282215, 1, 1,12,15
513,0.0,0.0, 1, 1, 1,15,0.0, 1, 1, 1,15
562,1868734122.8430204,0.0, 1, 5,23,15,118227.08193139074, 7,22,14,60
1046,0.0,0.0, 1, 1, 1,15,0.0, 1, 1, 1,15
1096,8277362123.400608,0.0, 1, 1, 1,15,1255625.0972577771, 6, 8,15,60
1134,15929316657.435104,0.0, 1, 6,19,30,6687989.042571085, 1,30, 6,15
1326,5913024294.1742525,0.0, 1, 1, 1,15,4050000.0, 1, 2, 7,15
1379,0.0,0.0, 1, 1, 1,15,0.0, 1, 1, 1,15
End of Data
 Number of Records Written=          99
