Program Version,EnergyPlus, Version 22.2.0-c249759bad, YMD=2023.09.01 14:31
1,5,Environment Title[],Latitude[deg],Longitude[deg],Time Zone[],Elevation[m]
2,8,Day of Simulation[],Month[],Day of Month[],DST Indicator[1=yes 0=no],Hour[],StartMinute[],EndMinute[],DayType
3,5,Cumulative Day of Simulation[],Month[],Day of Month[],DST Indicator[1=yes 0=no],DayType  ! When Daily Report Variables Requested
4,2,Cumulative Days of Simulation[],Month[]  ! When Monthly Report Variables Requested
5,1,Cumulative Days of Simulation[] ! When Run Period Report Variables Requested
6,1,Calendar Year of Simulation[] ! When Annual Report Variables Requested
7,1,Environment,Site Outdoor Air Drybulb Temperature [C] !Hourly
545,1,LIVING,Zone Mean Air Temperature [C] !Hourly
546,1,ATTIC,Zone Mean Air Temperature [C] !Hourly
547,1,CRAWLSPACE,Zone Mean Air Temperature [C] !Hourly
548,1,FAN,Fan Electricity Rate [W] !Hourly
720,1,LIVING,Zone Predicted Sensible Load to Heating Setpoint Heat Transfer Rate [W] !Hourly
721,1,LIVING,Zone System Predicted Sensible Load to Heating Setpoint Heat Transfer Rate [W] !Hourly
784,1,ATTIC,Zone Predicted Sensible Load to Heating Setpoint Heat Transfer Rate [W] !Hourly
785,1,ATTIC,Zone System Predicted Sensible Load to Heating Setpoint Heat Transfer Rate [W] !Hourly
848,1,CRAWLSPACE,Zone Predicted Sensible Load to Heating Setpoint Heat Transfer Rate [W] !Hourly
849,1,CRAWLSPACE,Zone System Predicted Sensible Load to Heating Setpoint Heat Transfer Rate [W] !Hourly
1121,1,DX_HEATING_COIL,Heating Coil Heating Rate [W] !Hourly
1135,1,DX_HEATING_COIL,Heating Coil Electricity Rate [W] !Hourly
1161,1,DX_HEATING_COIL,Heating Coil Defrost Electricity Rate [W] !Hourly
1163,1,DX_HEATING_COIL,Heating Coil Crankcase Heater Electricity Rate [W] !Hourly
1166,1,HEATING_RESISTANCE_BACKUP,Heating Coil Heating Rate [W] !Hourly
1168,1,HEATING_RESISTANCE_BACKUP,Heating Coil Electricity Rate [W] !Hourly
End of Data Dictionary
1,EXTREME_WINTER,  42.41, -83.01,  -5.00, 190.80
2,1,12,15, 0, 1, 0.00,60.00,Monday
7,-11.1
545,18.63213270976303
546,-5.768074165071606
547,18.25663632515587
548,149.10581374681942
720,3493.249894777726
721,3493.249894777726
784,0.0
785,0.0
848,0.0
849,0.0
1121,3489.6781126140754
1135,1301.724309958349
1161,20.335425619038062
1163,0.0
1166,1846.8356296255943
1168,1846.8356296255943
2,1,12,15, 0, 2, 0.00,60.00,Monday
7,-10.6
545,18.60785847985888
546,-6.163271719016877
547,17.82603044947306
548,149.10581374681942
720,3792.132797191458
721,3792.132797191458
784,0.0
785,0.0
848,0.0
849,0.0
1121,3541.041789446081
1135,1304.8710253289764
1161,21.603322622559187
1163,0.0
1166,2054.571069270829
1168,2054.571069270829
2,1,12,15, 0, 3, 0.00,60.00,Monday
7,-11.1
545,18.588292962051835
546,-5.905304163206627
547,17.620943511112188
548,149.10581374681942
720,4132.005436516003
721,4132.005436516003
784,0.0
785,0.0
848,0.0
849,0.0
1121,3491.7221073009614
1135,1299.501624232023
1161,20.335425619038062
1163,0.0
1166,2517.8921166774803
1168,2517.8921166774803
2,1,12,15, 0, 4, 0.00,60.00,Monday
7,-11.1
545,18.58089707725637
546,-6.400835330232272
547,17.38307023662586
548,149.10581374681942
720,4483.598520453026
721,4483.598520453026
784,0.0
785,0.0
848,0.0
849,0.0
1121,3506.5294906921617
1135,1304.0477220381526
1161,16.209583017077296
1163,0.0
1166,2912.1109113305843
1168,2912.1109113305843
2,1,12,15, 0, 5, 0.00,60.00,Monday
7,-11.1
545,18.580894758674507
546,-6.420506934025424
547,17.17956734096041
548,149.10581374681942
720,4512.325678624584
721,4512.325678624584
784,0.0
785,0.0
848,0.0
849,0.0
1121,3493.359926005311
1135,1298.5288152700043
1161,20.17384405625717
1163,0.0
1166,2996.0278884129602
1168,2996.0278884129602
2,1,12,15, 0, 6, 0.00,60.00,Monday
7,-11.1
545,19.33354329207325
546,-6.444881629683467
547,16.981059427902593
548,149.10581374681942
720,5653.1298861917
721,5653.1298861917
784,0.0
785,0.0
848,0.0
849,0.0
1121,3493.599608415476
1135,1298.286973866843
1161,20.170061342443454
1163,0.0
1166,4323.121636511383
1168,4323.121636511383
2,1,12,15, 0, 7, 0.00,60.00,Monday
7,-11.1
545,19.581742817481793
546,-6.367194516711202
547,16.82536754998785
548,149.10581374681942
720,5452.460480603302
721,5452.460480603302
784,0.0
785,0.0
848,0.0
849,0.0
1121,3477.0140576875137
1135,1316.304626918919
1161,20.168071010161203
1163,0.0
1166,4197.026449852874
1168,4197.026449852874
2,1,12,15, 0, 8, 0.00,60.00,Monday
7,-11.1
545,19.654462779334697
546,-6.890533538557033
547,16.650524052325803
548,149.10581374681942
720,5464.78359136526
721,5464.78359136526
784,0.0
785,0.0
848,0.0
849,0.0
1121,3457.746391208321
1135,1316.8626931803387
1161,24.237915765960015
1163,0.0
1166,4251.679089789848
1168,4251.679089789848
2,1,12,15, 0, 9, 0.00,60.00,Monday
7,-10.0
545,19.684364766818312
546,-5.9311046390694395
547,16.491423045477
548,149.10581374681942
720,5022.499987501895
721,5022.499987501895
784,0.0
785,0.0
848,0.0
849,0.0
1121,3596.885227913183
1135,1339.3400790308108
1161,18.53207312529244
1163,0.0
1166,3645.395009126844
1168,3645.395009126844
2,1,12,15, 0,10, 0.00,60.00,Monday
7,-8.3
545,19.693863022846422
546,-4.705952054307387
547,16.338680353445415
548,149.10581374681942
720,5038.25879775501
721,5038.25879775501
784,0.0
785,0.0
848,0.0
849,0.0
1121,3856.8052869159055
1135,1384.985604228807
1161,0.07182717610829523
1163,0.0
1166,3375.457365090863
1168,3375.457365090863
2,1,12,15, 0,11, 0.00,60.00,Monday
7,-7.8
545,19.721710017958912
546,-3.709221263844101
547,16.211978188998057
548,149.10581374681942
720,4178.540191166119
721,4178.540191166119
784,0.0
785,0.0
848,0.0
849,0.0
1121,3915.272478998168
1135,1391.1383759134505
1161,0.07182717610829523
1163,0.0
1166,2251.6050806110316
1168,2251.6050806110316
2,1,12,15, 0,12, 0.00,60.00,Monday
7,-7.2
545,19.72543352341341
546,-2.089500665879794
547,16.094624036436358
548,149.10581374681942
720,3825.2004246519973
721,3825.2004246519973
784,0.0
785,0.0
848,0.0
849,0.0
1121,3985.6742282259497
1135,1398.9679761654654
1161,0.07182717610829523
1163,0.0
1166,1703.2570653953462
1168,1703.2570653953462
2,1,12,15, 0,13, 0.00,60.00,Monday
7,-7.2
545,19.73245738660066
546,-1.8731628729682184
547,15.990655656646535
548,149.10581374681942
720,3469.2040702605973
721,3469.2040702605973
784,0.0
785,0.0
848,0.0
849,0.0
1121,3985.724792613708
1135,1398.910242058044
1161,0.07182717610829523
1163,0.0
1166,1195.4246810011182
1168,1195.4246810011182
2,1,12,15, 0,14, 0.00,60.00,Monday
7,-7.8
545,19.726708677837888
546,-1.1739037696964574
547,15.89486980219665
548,149.10581374681942
720,3255.825129345918
721,3255.825129345918
784,0.0
785,0.0
848,0.0
849,0.0
1121,3869.7472860261414
1135,1375.6554789291056
1161,12.025092401911516
1163,0.0
1166,1036.5251260014984
1168,1036.5251260014984
2,1,12,15, 0,15, 0.00,60.00,Monday
7,-7.8
545,19.708844658643557
546,-2.0405645583561047
547,15.813830176984778
548,149.10581374681942
720,3764.3918359605486
721,3764.3918359605486
784,0.0
785,0.0
848,0.0
849,0.0
1121,3854.159723243613
1135,1369.7107702577941
1161,16.232446575659626
1163,0.0
1166,1602.8757847191155
1168,1602.8757847191155
2,1,12,15, 0,16, 0.00,60.00,Monday
7,-8.0
545,19.699844032578707
546,-3.197249271468788
547,15.742398897678896
548,149.10581374681942
720,3896.8134996672325
721,3896.8134996672325
784,0.0
785,0.0
848,0.0
849,0.0
1121,3802.795067314484
1135,1356.4860079928735
1161,23.908146156252496
1163,0.0
1166,1849.9117543522536
1168,1849.9117543522536
2,1,12,15, 0,17, 0.00,60.00,Monday
7,-8.3
545,19.69132486293474
546,-4.108659972852737
547,15.669042243331655
548,149.10581374681942
720,4090.540496396654
721,4090.540496396654
784,0.0
785,0.0
848,0.0
849,0.0
1121,3767.1353993411963
1135,1351.9706688986546
1161,24.367115249925465
1163,0.0
1166,2175.2993991450994
1168,2175.2993991450994
2,1,12,15, 0,18, 0.00,60.00,Monday
7,-8.9
545,19.690711474138343
546,-4.400538458498083
547,15.591607978535471
548,149.10581374681942
720,4124.139209870433
721,4124.139209870433
784,0.0
785,0.0
848,0.0
849,0.0
1121,3723.8644251837636
1135,1353.3678498086701
1161,17.67668848325217
1163,0.0
1166,2318.665628514748
1168,2318.665628514748
2,1,12,15, 0,19, 0.00,60.00,Monday
7,-8.3
545,19.695836896627277
546,-4.837552010160349
547,15.517164337321544
548,149.10581374681942
720,4142.332153676931
721,4142.332153676931
784,0.0
785,0.0
848,0.0
849,0.0
1121,3767.5227080189693
1135,1351.534196637948
1161,24.367115249925465
1163,0.0
1166,2317.203481429926
1168,2317.203481429926
2,1,12,15, 0,20, 0.00,60.00,Monday
7,-8.3
545,19.733129133053392
546,-3.9533522058020867
547,15.435674322815057
548,149.10581374681942
720,2746.963312829108
721,2746.963312829108
784,0.0
785,0.0
848,0.0
849,0.0
1121,3672.7445299316078
1135,1317.6467571234707
1161,49.86372584639923
1163,0.0
1166,819.9127539912879
1168,819.9127539912879
2,1,12,15, 0,21, 0.00,60.00,Monday
7,-9.4
545,19.72231243567054
546,-4.759680421069166
547,15.331704569541477
548,149.10581374681942
720,2995.1495548021176
721,2995.1495548021176
784,0.0
785,0.0
848,0.0
849,0.0
1121,3683.857904810193
1135,1354.4497863445793
1161,12.892777152507282
1163,0.0
1166,1029.1919430633861
1168,1029.1919430633861
2,1,12,15, 0,22, 0.00,60.00,Monday
7,-9.4
545,19.680812978126504
546,-5.630322538110878
547,15.226040048691546
548,149.10581374681942
720,4311.860138418082
721,4311.860138418082
784,0.0
785,0.0
848,0.0
849,0.0
1121,3671.1607911876777
1135,1349.1714670646668
1161,16.543316103499333
1163,0.0
1166,2599.9014136100764
1168,2599.9014136100764
2,1,12,15, 0,23, 0.00,60.00,Monday
7,-10.0
545,18.953009191184414
546,-6.396434992461544
547,15.116686726410816
548,149.10581374681942
720,3105.913094967489
721,3105.913094967489
784,0.0
785,0.0
848,0.0
849,0.0
1121,3597.506974474529
1135,1337.8931867259985
1161,18.678912794349223
1163,0.0
1166,1357.1547577768786
1168,1357.1547577768786
2,1,12,15, 0,24, 0.00,60.00,Monday
7,-11.1
545,18.692558198373373
546,-7.216954224461718
547,14.966301711841163
548,149.10581374681942
720,4046.71598224003
721,4046.71598224003
784,0.0
785,0.0
848,0.0
849,0.0
1121,3556.5631055909635
1135,1330.4018220017374
1161,0.07182717610829523
1163,0.0
1166,2453.1304065930317
1168,2453.1304065930317
2,2,12,16, 0, 1, 0.00,60.00,Tuesday
7,-11.7
545,18.605919544347863
546,-7.637285716341775
547,14.841298664089967
548,149.10581374681942
720,4497.269356476625
721,4497.269356476625
784,0.0
785,0.0
848,0.0
849,0.0
1121,3496.313851250779
1135,1316.5191486374897
1161,0.07182717610829523
1163,0.0
1166,3075.2416570128134
1168,3075.2416570128134
2,2,12,16, 0, 2, 0.00,60.00,Tuesday
7,-12.2
545,18.576522720725723
546,-8.12191387054002
547,14.71030482194592
548,149.10581374681942
720,4936.292556345197
721,4936.292556345197
784,0.0
785,0.0
848,0.0
849,0.0
1121,3443.685686731046
1135,1308.1572002356759
1161,0.07182717610829523
1163,0.0
1166,3668.3923191816643
1168,3668.3923191816643
2,2,12,16, 0, 3, 0.00,60.00,Tuesday
7,-12.8
545,18.56148321354033
546,-8.475106903733277
547,14.5784183719862
548,149.10581374681942
720,5452.685711586728
721,5452.685711586728
784,0.0
785,0.0
848,0.0
849,0.0
1121,3376.019346574985
1135,1298.5728058403818
1161,1.1358649782203831
1163,0.0
1166,4371.5133142894665
1168,4371.5133142894665
2,2,12,16, 0, 4, 0.00,60.00,Tuesday
7,-13.3
545,18.567376577243937
546,-8.623026186237771
547,14.448154525592557
548,149.10581374681942
720,5371.870499225413
721,5371.870499225413
784,0.0
785,0.0
848,0.0
849,0.0
1121,3324.0646421376277
1135,1292.3028305716614
1161,0.7783327603845338
1163,0.0
1166,4364.558835852732
1168,4364.558835852732
2,2,12,16, 0, 5, 0.00,60.00,Tuesday
7,-13.9
545,18.553704924264032
546,-9.485217520737983
547,14.310968588754042
548,149.10581374681942
720,6011.664220713767
721,6011.664220713767
784,0.0
785,0.0
848,0.0
849,0.0
1121,3262.6515377904907
1135,1285.6113638413658
1161,0.07182717610829523
1163,0.0
1166,5180.419682062948
1168,5180.419682062948
2,2,12,16, 0, 6, 0.00,60.00,Tuesday
7,-14.4
545,19.324240135918945
546,-9.582131925989893
547,14.180988088699122
548,149.10581374681942
720,6740.960457071951
721,6740.960457071951
784,0.0
785,0.0
848,0.0
849,0.0
1121,3210.567232786468
1135,1278.784499060059
1161,0.07182717610829523
1163,0.0
1166,6132.659639270453
1168,6132.659639270453
2,2,12,16, 0, 7, 0.00,60.00,Tuesday
7,-14.4
545,19.578924068864293
546,-9.412437658369214
547,14.088428020769621
548,149.10581374681942
720,6077.4794864356245
721,6077.4794864356245
784,0.0
785,0.0
848,0.0
849,0.0
1121,3188.684894120594
1135,1294.1959457426635
1161,1.660812026049602
1163,0.0
1166,5477.9938833979995
1168,5477.9938833979995
2,2,12,16, 0, 8, 0.00,60.00,Tuesday
7,-13.9
545,19.658273929459387
546,-8.644322201533361
547,13.974209573270121
548,149.10581374681942
720,5611.283259432419
721,5611.283259432419
784,0.0
785,0.0
848,0.0
849,0.0
1121,3231.7338419813977
1135,1305.0218432315457
1161,2.8642807944085393
1163,0.0
1166,4902.9967584043325
1168,4902.9967584043325
2,2,12,16, 0, 9, 0.00,60.00,Tuesday
7,-12.8
545,19.693331063164877
546,-8.379057798637376
547,13.864152994635372
548,149.10581374681942
720,5004.415737437652
721,5004.415737437652
784,0.0
785,0.0
848,0.0
849,0.0
1121,3356.0178723481786
1135,1324.6427258309277
1161,0.07182717610829523
1163,0.0
1166,4041.448507354501
1168,4041.448507354501
2,2,12,16, 0,10, 0.00,60.00,Tuesday
7,-11.1
545,19.720462645349684
546,-6.7854658495201905
547,13.76952976604413
548,149.10581374681942
720,3916.7019750703785
721,3916.7019750703785
784,0.0
785,0.0
848,0.0
849,0.0
1121,3541.2339785815734
1135,1347.023069380306
1161,0.07182717610829523
1163,0.0
1166,2576.560595407475
1168,2576.560595407475
2,2,12,16, 0,11, 0.00,60.00,Tuesday
7,-10.6
545,19.725091233442146
546,-5.780978819475503
547,13.68160681410821
548,149.10581374681942
720,3605.000066432074
721,3605.000066432074
784,0.0
785,0.0
848,0.0
849,0.0
1121,3596.523687862878
1135,1353.7935661929748
1161,0.07182717610829523
1163,0.0
1166,2063.5862347010643
1168,2063.5862347010643
2,2,12,16, 0,12, 0.00,60.00,Tuesday
7,-9.4
545,19.732395770574918
546,-4.2542527051491525
547,13.630992590741341
548,149.10581374681942
720,3097.754282728991
721,3097.754282728991
784,0.0
785,0.0
848,0.0
849,0.0
1121,3732.3779860620125
1135,1368.6273696781243
1161,0.07182717610829523
1163,0.0
1166,1276.1146657514328
1168,1276.1146657514328
2,2,12,16, 0,13, 0.00,60.00,Tuesday
7,-8.9
545,19.741831907731996
546,-2.806280181701035
547,13.600740865685237
548,149.10581374681942
720,2558.550849437297
721,2558.550849437297
784,0.0
785,0.0
848,0.0
849,0.0
1121,3789.708810816685
1135,1374.8742136428023
1161,0.07182717610829523
1163,0.0
1166,503.6976091267952
1168,503.6976091267952
2,2,12,16, 0,14, 0.00,60.00,Tuesday
7,-8.9
545,19.73928849335022
546,-2.1514922219356127
547,13.5874813317196
548,149.10581374681942
720,2425.246048713043
721,2425.246048713043
784,0.0
785,0.0
848,0.0
849,0.0
1121,3789.5298418774123
1135,1375.0743644707004
1161,0.07182717610829523
1163,0.0
1166,257.4722845918177
1168,257.4722845918177
2,2,12,16, 0,15, 0.00,60.00,Tuesday
7,-8.9
545,19.990503416389313
546,-0.5117566672172513
547,13.55987882809266
548,99.88976994324142
720,1273.953233490538
721,1273.953233490538
784,0.0
785,0.0
848,0.0
849,0.0
1121,2439.0200020343777
1135,921.4221608481199
1161,0.04811981111292986
1163,66.01224294164459
1166,0.0
1168,0.0
2,2,12,16, 0,16, 0.00,60.00,Tuesday
7,-9.4
545,19.81998057911092
546,-2.3745280445949253
547,13.572974369513384
548,88.00604168232907
720,1176.7184783523953
721,1176.7184783523953
784,0.0
785,0.0
848,0.0
849,0.0
1121,2093.1483398826003
1135,812.0215666326346
1161,0.04239511428502976
1163,81.95244033787483
1166,0.0
1168,0.0
2,2,12,16, 0,17, 0.00,60.00,Tuesday
7,-10.0
545,19.771096636779415
546,-2.8489628065825308
547,13.5972262835816
548,99.85877348339135
720,1388.763076455365
721,1388.763076455365
784,0.0
785,0.0
848,0.0
849,0.0
1121,2348.2478427367387
1135,911.3067387427425
1161,2.4364071539534087
1163,65.90616304217598
1166,0.0
1168,0.0
2,2,12,16, 0,18, 0.00,60.00,Tuesday
7,-10.6
545,19.51786631907801
546,-4.349340780713955
547,13.637708248916166
548,144.34598440821514
720,2120.730814095292
721,2120.730814095292
784,0.0
785,0.0
848,0.0
849,0.0
1121,3443.6616551166744
1135,1305.5728725687839
1161,7.154776672395711
1163,5.9181415907388235
1166,0.0
1168,0.0
2,2,12,16, 0,19, 0.00,60.00,Tuesday
7,-11.1
545,19.584414352114685
546,-5.689539658919791
547,13.618532778418906
548,149.10581374681942
720,2440.9696546081304
721,2440.9696546081304
784,0.0
785,0.0
848,0.0
849,0.0
1121,3515.798645728287
1135,1331.131046641382
1161,8.77809234031619
1163,0.0
1166,536.3918570411179
1168,536.3918570411179
2,2,12,16, 0,20, 0.00,60.00,Tuesday
7,-11.7
545,19.64679546121028
546,-6.134191514545312
547,13.593703829874324
548,149.10581374681942
720,2732.1523789574876
721,2732.1523789574876
784,0.0
785,0.0
848,0.0
849,0.0
1121,3438.362448998236
1135,1321.3333826573944
1161,11.835562731998195
1163,0.0
1166,1061.7552853852835
1168,1061.7552853852835
2,2,12,16, 0,21, 0.00,60.00,Tuesday
7,-12.2
545,19.67585530413492
546,-6.716475229269996
547,13.543966789138143
548,149.10581374681942
720,3055.2395456821378
721,3055.2395456821378
784,0.0
785,0.0
848,0.0
849,0.0
1121,3376.4975313664945
1135,1314.0048869381892
1161,13.791176952086364
1163,0.0
1166,1545.69130403873
1168,1545.69130403873
2,2,12,16, 0,22, 0.00,60.00,Tuesday
7,-13.9
545,19.672350160004775
546,-8.16740897911694
547,13.467401562604815
548,149.10581374681942
720,3764.633771555149
721,3764.633771555149
784,0.0
785,0.0
848,0.0
849,0.0
1121,3175.639520375979
1135,1284.4420215984228
1161,20.379502325828053
1163,0.0
1166,2610.944094654427
1168,2610.944094654427
2,2,12,16, 0,23, 0.00,60.00,Tuesday
7,-14.4
545,18.938645083608435
546,-8.096539070685148
547,13.393471059327748
548,149.10581374681942
720,3145.409725233396
721,3145.409725233396
784,0.0
785,0.0
848,0.0
849,0.0
1121,3130.206244343847
1135,1280.1431642883076
1161,18.467697397629042
1163,0.0
1166,2034.5130377248427
1168,2034.5130377248427
2,2,12,16, 0,24, 0.00,60.00,Tuesday
7,-14.4
545,18.694519259448317
546,-8.770450089353416
547,13.27293728732315
548,149.10581374681942
720,3786.1771864971433
721,3786.1771864971433
784,0.0
785,0.0
848,0.0
849,0.0
1121,3146.408770128264
1135,1263.6310727952628
1161,18.464071922378302
1163,0.0
1166,2701.443837823881
1168,2701.443837823881
2,3,12,17, 0, 1, 0.00,60.00,Wednesday
7,-15.0
545,18.600707138396356
546,-9.117358700998254
547,13.167157618054853
548,149.10581374681942
720,4451.044667766668
721,4451.044667766668
784,0.0
785,0.0
848,0.0
849,0.0
1121,3094.4909607346654
1135,1252.0153730800166
1161,17.172277263441906
1163,0.0
1166,3546.002385314473
1168,3546.002385314473
2,3,12,17, 0, 2, 0.00,60.00,Wednesday
7,-14.4
545,18.57561993945202
546,-9.074429880265553
547,13.06446196763436
548,149.10581374681942
720,4765.175349932779
721,4765.175349932779
784,0.0
785,0.0
848,0.0
849,0.0
1121,3163.384117948284
1135,1259.5386927827385
1161,15.438289067969453
1163,0.0
1166,3871.829742395617
1168,3871.829742395617
2,3,12,17, 0, 3, 0.00,60.00,Wednesday
7,-13.9
545,18.57195459276404
546,-8.897128545687837
547,12.958660473704734
548,149.10581374681942
720,4941.655416539801
721,4941.655416539801
784,0.0
785,0.0
848,0.0
849,0.0
1121,3211.869933115131
1135,1263.5566573455794
1161,16.692122710123012
1163,0.0
1166,4034.9325579110637
1168,4034.9325579110637
2,3,12,17, 0, 4, 0.00,60.00,Wednesday
7,-13.3
545,18.574093131825325
546,-8.360172891858317
547,12.855505340096562
548,149.10581374681942
720,4998.081412934873
721,4998.081412934873
784,0.0
785,0.0
848,0.0
849,0.0
1121,3270.6387530131983
1135,1269.131397417039
1161,17.981380450688643
1163,0.0
1166,4039.7541219947934
1168,4039.7541219947934
2,3,12,17, 0, 5, 0.00,60.00,Wednesday
7,-12.8
545,18.582695733346032
546,-7.237563427183898
547,12.75391459483593
548,149.10581374681942
720,4820.992917432706
721,4820.992917432706
784,0.0
785,0.0
848,0.0
849,0.0
1121,3319.734744049268
1135,1273.721722015534
1161,19.115407941373732
1163,0.0
1166,3763.2264059503354
1168,3763.2264059503354
2,3,12,17, 0, 6, 0.00,60.00,Wednesday
7,-12.8
545,19.338960665575776
546,-6.7688352282969815
547,12.651490427394158
548,149.10581374681942
720,6140.889878455648
721,6140.889878455648
784,0.0
785,0.0
848,0.0
849,0.0
1121,3306.476889700837
1135,1268.6970015094273
1161,23.174030690378412
1163,0.0
1166,5245.39320644755
1168,5245.39320644755
2,3,12,17, 0, 7, 0.00,60.00,Wednesday
7,-12.2
545,19.585070173388875
546,-6.315799798554496
547,12.594385538725534
548,149.10581374681942
720,5813.336714917708
721,5813.336714917708
784,0.0
785,0.0
848,0.0
849,0.0
1121,3363.202080337362
1135,1297.1993173894061
1161,20.257455746642034
1163,0.0
1166,4870.698046870476
1168,4870.698046870476
2,3,12,17, 0, 8, 0.00,60.00,Wednesday
7,-12.2
545,19.65775440598678
546,-5.720818412861121
547,12.509762815349058
548,149.10581374681942
720,5634.755994754161
721,5634.755994754161
784,0.0
785,0.0
848,0.0
849,0.0
1121,3357.840073729644
1135,1302.9409753107434
1161,20.249712917461537
1163,0.0
1166,4669.478773600172
1168,4669.478773600172
2,3,12,17, 0, 9, 0.00,60.00,Wednesday
7,-11.7
545,19.68539844781498
546,-6.5589984811048225
547,12.434037409615764
548,149.10581374681942
720,5330.323094932712
721,5330.323094932712
784,0.0
785,0.0
848,0.0
849,0.0
1121,3415.452155847064
1135,1312.8779721329824
1161,18.606118744362583
1163,0.0
1166,4231.1041872277765
1168,4231.1041872277765
2,3,12,17, 0,10, 0.00,60.00,Wednesday
7,-10.6
545,19.687721847815716
546,-4.582405170992753
547,12.364796043853232
548,149.10581374681942
720,5120.69848231705
721,5120.69848231705
784,0.0
785,0.0
848,0.0
849,0.0
1121,3525.482072705048
1135,1323.4689996321933
1161,21.292682285573136
1163,0.0
1166,3924.2965421979416
1168,3924.2965421979416
2,3,12,17, 0,11, 0.00,60.00,Wednesday
7,-9.4
545,19.723331606468477
546,-2.8725429810071894
547,12.308023439540717
548,149.10581374681942
720,4115.422306049335
721,4115.422306049335
784,0.0
785,0.0
848,0.0
849,0.0
1121,3646.757366737613
1135,1333.5954302187247
1161,24.582445719448256
1163,0.0
1166,2548.833329234038
1168,2548.833329234038
2,3,12,17, 0,12, 0.00,60.00,Wednesday
7,-8.9
545,19.72993120315077
546,-0.5537361522241598
547,12.264699176881244
548,149.10581374681942
720,3730.1993625541963
721,3730.1993625541963
784,0.0
785,0.0
848,0.0
849,0.0
1121,3728.067436094977
1135,1349.8022241039275
1161,17.46668329396559
1163,0.0
1166,1903.784589632411
1168,1903.784589632411
2,3,12,17, 0,13, 0.00,60.00,Wednesday
7,-8.3
545,19.722086532300796
546,0.11715783581813154
547,12.23222836463826
548,149.10581374681942
720,3951.4104860679945
721,3951.4104860679945
784,0.0
785,0.0
848,0.0
849,0.0
1121,3805.7102541543168
1135,1360.3761097028537
1161,14.965984332516234
1163,0.0
1166,1950.2852606445258
1168,1950.2852606445258
2,3,12,17, 0,14, 0.00,60.00,Wednesday
7,-7.8
545,19.724409138810664
546,1.5613884566614116
547,12.20805630458996
548,149.10581374681942
720,3618.0751798232377
721,3618.0751798232377
784,0.0
785,0.0
848,0.0
849,0.0
1121,3858.8316591145176
1135,1364.4123467450343
1161,16.232446575659626
1163,0.0
1166,1463.3791985232237
1168,1463.3791985232237
2,3,12,17, 0,15, 0.00,60.00,Wednesday
7,-7.8
545,19.71777442683024
546,1.228903598926039
547,12.18589882447024
548,149.10581374681942
720,3809.648634098068
721,3809.648634098068
784,0.0
785,0.0
848,0.0
849,0.0
1121,3875.040107864007
1135,1370.118020975558
1161,11.942265798837685
1163,0.0
1166,1593.2991211244175
1168,1593.2991211244175
2,3,12,17, 0,16, 0.00,60.00,Wednesday
7,-7.8
545,19.721018749427536
546,1.4984071256600622
547,12.173433825147955
548,149.10581374681942
720,3420.353148065331
721,3420.353148065331
784,0.0
785,0.0
848,0.0
849,0.0
1121,3890.899924352074
1135,1375.4981356542883
1161,7.780483528602819
1163,0.0
1166,1131.7128150785497
1168,1131.7128150785497
2,3,12,17, 0,17, 0.00,60.00,Wednesday
7,-7.8
545,19.7263992397615
546,1.1149767569180817
547,12.163720591776983
548,149.10581374681942
720,3067.7971364763653
721,3067.7971364763653
784,0.0
785,0.0
848,0.0
849,0.0
1121,3875.0347766311365
1135,1370.0005302321338
1161,11.964264951370525
1163,0.0
1166,718.0183894733846
1168,718.0183894733846
2,3,12,17, 0,18, 0.00,60.00,Wednesday
7,-7.2
545,19.71569622126977
546,-0.5321501304080718
547,12.158767623316301
548,149.10581374681942
720,3211.2215924256416
721,3211.2215924256416
784,0.0
785,0.0
848,0.0
849,0.0
1121,3957.405407518464
1135,1381.5683294443681
1161,8.743461328557911
1163,0.0
1166,810.1688082810756
1168,810.1688082810756
2,3,12,17, 0,19, 0.00,60.00,Wednesday
7,-7.0
545,19.705481299624783
546,-1.4060818628464118
547,12.144651939616354
548,149.10581374681942
720,3271.856963936574
721,3271.856963936574
784,0.0
785,0.0
848,0.0
849,0.0
1121,3911.0061725278883
1135,1359.2306157659712
1161,26.919163625627565
1163,0.0
1166,1008.2520080834261
1168,1008.2520080834261
2,3,12,17, 0,20, 0.00,60.00,Wednesday
7,-7.2
545,19.713654532728988
546,-1.1968500195729348
547,12.124431489092128
548,149.10581374681942
720,2934.5582595097603
721,2934.5582595097603
784,0.0
785,0.0
848,0.0
849,0.0
1121,3805.1301881626077
1135,1327.6971308917884
1161,48.49840421279694
1163,0.0
1166,774.8843814760548
1168,774.8843814760548
2,3,12,17, 0,21, 0.00,60.00,Wednesday
7,-7.2
545,19.713165298025665
546,-1.732648174938667
547,12.097862866358104
548,149.10581374681942
720,3057.2927908678776
721,3057.2927908678776
784,0.0
785,0.0
848,0.0
849,0.0
1121,3804.06846510912
1135,1327.5588645227263
1161,48.73417084323485
1163,0.0
1166,908.9585200288138
1168,908.9585200288138
2,3,12,17, 0,22, 0.00,60.00,Wednesday
7,-7.2
545,19.7049857021355
546,-2.5843913450806197
547,12.065302782062217
548,149.10581374681942
720,3340.4378655846394
721,3340.4378655846394
784,0.0
785,0.0
848,0.0
849,0.0
1121,3804.1334291455746
1135,1327.484662455177
1161,48.73417084323485
1163,0.0
1166,1261.9594779240151
1168,1261.9594779240151
2,3,12,17, 0,23, 0.00,60.00,Wednesday
7,-7.2
545,18.953594894100483
546,-2.2851206484353352
547,12.028535056701873
548,149.10581374681942
720,2795.421087274319
721,2795.421087274319
784,0.0
785,0.0
848,0.0
849,0.0
1121,3778.1764377370764
1135,1318.084290779053
1161,55.548784370194944
1163,0.0
1166,714.8532345131171
1168,714.8532345131171
2,3,12,17, 0,24, 0.00,60.00,Wednesday
7,-7.2
545,18.723046131973717
546,-2.4030397647601287
547,11.953629816482188
548,149.10581374681942
720,2975.736840049407
721,2975.736840049407
784,0.0
785,0.0
848,0.0
849,0.0
1121,3794.7054061304525
1135,1299.196000175623
1161,55.548784370194944
1163,0.0
1166,829.0452267482433
1168,829.0452267482433
2,4,12,18, 0, 1, 0.00,60.00,Thursday
7,-6.7
545,18.632238233147923
546,-2.2800204028105786
547,11.905835863173735
548,149.10581374681942
720,3446.066135443958
721,3446.066135443958
784,0.0
785,0.0
848,0.0
849,0.0
1121,3845.541120827385
1135,1295.1785014258776
1161,58.30231397347498
1163,0.0
1166,1307.501175131235
1168,1307.501175131235
2,4,12,18, 0, 2, 0.00,60.00,Thursday
7,-5.6
545,18.604604819991327
546,-1.5358167234679616
547,11.859550347191945
548,149.10581374681942
720,3709.1433878322678
721,3709.1433878322678
784,0.0
785,0.0
848,0.0
849,0.0
1121,3947.083373986058
1135,1296.2531441916963
1161,64.75022614712118
1163,0.0
1166,1509.6507914777449
1168,1509.6507914777449
2,4,12,18, 0, 3, 0.00,60.00,Thursday
7,-5.6
545,18.601396318278407
546,-1.048542705925013
547,11.80830509252551
548,149.10581374681942
720,3804.3234898245028
721,3804.3234898245028
784,0.0
785,0.0
848,0.0
849,0.0
1121,3917.02617416324
1135,1285.4256385942417
1161,72.32548877954238
1163,0.0
1166,1618.2151265735502
1168,1618.2151265735502
2,4,12,18, 0, 4, 0.00,60.00,Thursday
7,-5.0
545,18.609295094218695
546,-0.3996665782635539
547,11.76685008482919
548,149.10581374681942
720,3505.8934272239567
721,3505.8934272239567
784,0.0
785,0.0
848,0.0
849,0.0
1121,3975.2444015194405
1135,1288.404696639156
1161,74.84273855533635
1163,0.0
1166,1186.8051355412872
1168,1186.8051355412872
2,4,12,18, 0, 5, 0.00,60.00,Thursday
7,-4.4
545,18.613647012382593
546,-0.17798212179577005
547,11.726186189087127
548,149.10581374681942
720,3290.4884615834562
721,3290.4884615834562
784,0.0
785,0.0
848,0.0
849,0.0
1121,4059.1646190385836
1135,1299.870697990832
1161,71.24964858785764
1163,0.0
1166,812.9212464317243
1168,812.9212464317243
2,4,12,18, 0, 6, 0.00,60.00,Thursday
7,-4.4
545,19.35584131011382
546,0.22167154372947767
547,11.685635617418384
548,149.10581374681942
720,4384.218597666091
721,4384.218597666091
784,0.0
785,0.0
848,0.0
849,0.0
1121,4026.4156436306776
1135,1289.4315381353606
1161,79.04719589332657
1163,0.0
1166,2086.282826130422
1168,2086.282826130422
2,4,12,18, 0, 7, 0.00,60.00,Thursday
7,-4.4
545,19.60742927504475
546,0.7073901289659376
547,11.686054202968432
548,149.10581374681942
720,3963.208303313135
721,3963.208303313135
784,0.0
785,0.0
848,0.0
849,0.0
1121,4010.381187440147
1135,1308.187949695084
1161,79.04719589332657
1163,0.0
1166,1674.2441199534123
1168,1674.2441199534123
2,4,12,18, 0, 8, 0.00,60.00,Thursday
7,-3.9
545,19.687936324263404
546,0.49232332623331165
547,11.665667094210516
548,149.10581374681942
720,3628.402142374618
721,3628.402142374618
784,0.0
785,0.0
848,0.0
849,0.0
1121,4113.044968031588
1135,1336.5692198560907
1161,67.12502230730192
1163,0.0
1166,1179.3509411854939
1168,1179.3509411854939
2,4,12,18, 0, 9, 0.00,60.00,Thursday
7,-3.9
545,19.70559776397205
546,0.4862608829051488
547,11.643293485267085
548,149.10581374681942
720,3599.8746970117318
721,3599.8746970117318
784,0.0
785,0.0
848,0.0
849,0.0
1121,4111.289245351974
1135,1338.6332354644962
1161,67.12502230730192
1163,0.0
1166,1155.7729788697452
1168,1155.7729788697452
2,4,12,18, 0,10, 0.00,60.00,Thursday
7,-3.3
545,19.715778996913386
546,1.2958201112067294
547,11.625513125505869
548,149.10581374681942
720,3386.5807904117537
721,3386.5807904117537
784,0.0
785,0.0
848,0.0
849,0.0
1121,4123.747908033725
1135,1327.26167464343
1161,80.56490261608431
1163,0.0
1166,898.212342302807
1168,898.212342302807
2,4,12,18, 0,11, 0.00,60.00,Thursday
7,-2.8
545,19.7245369815356
546,2.2262342948089304
547,11.60832120015796
548,149.10581374681942
720,3187.031880046523
721,3187.031880046523
784,0.0
785,0.0
848,0.0
849,0.0
1121,4232.326215926954
1135,1349.126769254124