Program Version,EnergyPlus, Version 22.2.0-c249759bad, YMD=2023.09.01 15:45
1,5,Environment Title[],Latitude[deg],Longitude[deg],Time Zone[],Elevation[m]
2,8,Day of Simulation[],Month[],Day of Month[],DST Indicator[1=yes 0=no],Hour[],StartMinute[],EndMinute[],DayType
3,5,Cumulative Day of Simulation[],Month[],Day of Month[],DST Indicator[1=yes 0=no],DayType  ! When Daily Report Variables Requested
4,2,Cumulative Days of Simulation[],Month[]  ! When Monthly Report Variables Requested
5,1,Cumulative Days of Simulation[] ! When Run Period Report Variables Requested
6,1,Calendar Year of Simulation[] ! When Annual Report Variables Requested
581,11,LIVING,AFN Zone Infiltration Air Change Rate [ach] !RunPeriod [Value,Min,Month,Day,Hour,Minute,Max,Month,Day,Hour,Minute]
582,11,ATTIC,AFN Zone Infiltration Air Change Rate [ach] !RunPeriod [Value,Min,Month,Day,Hour,Minute,Max,Month,Day,Hour,Minute]
583,11,CRAWLSPACE,AFN Zone Infiltration Air Change Rate [ach] !RunPeriod [Value,Min,Month,Day,Hour,Minute,Max,Month,Day,Hour,Minute]
1038,11,Facility,Facility Heating Setpoint Not Met Time [hr] !RunPeriod [Value,Min,Month,Day,Hour,Minute,Max,Month,Day,Hour,Minute]
1039,11,Facility,Facility Cooling Setpoint Not Met Time [hr] !RunPeriod [Value,Min,Month,Day,Hour,Minute,Max,Month,Day,Hour,Minute]
1115,11,DX_HEATING_COIL,Heating Coil Heating Energy [J] !RunPeriod [Value,Min,Month,Day,Hour,Minute,Max,Month,Day,Hour,Minute]
1128,11,DX_HEATING_COIL,Heating Coil Electricity Energy [J] !RunPeriod [Value,Min,Month,Day,Hour,Minute,Max,Month,Day,Hour,Minute]
1153,11,DX_HEATING_COIL,Heating Coil Defrost Electricity Energy [J] !RunPeriod [Value,Min,Month,Day,Hour,Minute,Max,Month,Day,Hour,Minute]
1154,11,DX_HEATING_COIL,Heating Coil Crankcase Heater Electricity Energy [J] !RunPeriod [Value,Min,Month,Day,Hour,Minute,Max,Month,Day,Hour,Minute]
1155,11,HEATING_RESISTANCE_BACKUP,Heating Coil Heating Energy [J] !RunPeriod [Value,Min,Month,Day,Hour,Minute,Max,Month,Day,Hour,Minute]
1156,11,HEATING_RESISTANCE_BACKUP,Heating Coil Electricity Energy [J] !RunPeriod [Value,Min,Month,Day,Hour,Minute,Max,Month,Day,Hour,Minute]
1292,11,WATER HEATER,Water Heater Heat Loss Energy [J] !RunPeriod [Value,Min,Month,Day,Hour,Minute,Max,Month,Day,Hour,Minute]
1306,11,WATER HEATER,Water Heater Heating Energy [J] !RunPeriod [Value,Min,Month,Day,Hour,Minute,Max,Month,Day,Hour,Minute]
1307,11,WATER HEATER,Water Heater Unmet Demand Heat Transfer Energy [J] !RunPeriod [Value,Min,Month,Day,Hour,Minute,Max,Month,Day,Hour,Minute]
1308,11,WATER HEATER,Water Heater Electricity Energy [J] !RunPeriod [Value,Min,Month,Day,Hour,Minute,Max,Month,Day,Hour,Minute]
13,11,Electricity:Facility [J] !RunPeriod [Value,Min,Month,Day,Hour,Minute,Max,Month,Day,Hour,Minute]
1134,11,Heating:Electricity [J] !RunPeriod [Value,Min,Month,Day,Hour,Minute,Max,Month,Day,Hour,Minute]
1096,11,Cooling:Electricity [J] !RunPeriod [Value,Min,Month,Day,Hour,Minute,Max,Month,Day,Hour,Minute]
562,11,Fans:Electricity [J] !RunPeriod [Value,Min,Month,Day,Hour,Minute,Max,Month,Day,Hour,Minute]
1379,11,Pumps:Electricity [J] !RunPeriod [Value,Min,Month,Day,Hour,Minute,Max,Month,Day,Hour,Minute]
1326,11,WaterSystems:Electricity [J] !RunPeriod [Value,Min,Month,Day,Hour,Minute,Max,Month,Day,Hour,Minute]
61,11,InteriorLights:Electricity [J] !RunPeriod [Value,Min,Month,Day,Hour,Minute,Max,Month,Day,Hour,Minute]
1046,11,ExteriorLights:Electricity [J] !RunPeriod [Value,Min,Month,Day,Hour,Minute,Max,Month,Day,Hour,Minute]
134,11,InteriorEquipment:Electricity [J] !RunPeriod [Value,Min,Month,Day,Hour,Minute,Max,Month,Day,Hour,Minute]
170,11,gas_dryer:InteriorEquipment:Electricity [J] !RunPeriod [Value,Min,Month,Day,Hour,Minute,Max,Month,Day,Hour,Minute]
207,11,clotheswasher:InteriorEquipment:Electricity [J] !RunPeriod [Value,Min,Month,Day,Hour,Minute,Max,Month,Day,Hour,Minute]
244,11,dishwasher:InteriorEquipment:Electricity [J] !RunPeriod [Value,Min,Month,Day,Hour,Minute,Max,Month,Day,Hour,Minute]
281,11,refrigerator:InteriorEquipment:Electricity [J] !RunPeriod [Value,Min,Month,Day,Hour,Minute,Max,Month,Day,Hour,Minute]
318,11,electric_mels:InteriorEquipment:Electricity [J] !RunPeriod [Value,Min,Month,Day,Hour,Minute,Max,Month,Day,Hour,Minute]
355,11,NaturalGas:Facility [J] !RunPeriod [Value,Min,Month,Day,Hour,Minute,Max,Month,Day,Hour,Minute]
403,11,InteriorEquipment:NaturalGas [J] !RunPeriod [Value,Min,Month,Day,Hour,Minute,Max,Month,Day,Hour,Minute]
476,11,gas_dryer:InteriorEquipment:NaturalGas [J] !RunPeriod [Value,Min,Month,Day,Hour,Minute,Max,Month,Day,Hour,Minute]
513,11,gas_mels:InteriorEquipment:NaturalGas [J] !RunPeriod [Value,Min,Month,Day,Hour,Minute,Max,Month,Day,Hour,Minute]
End of Data Dictionary
1,EXTREME_WINTER,  46.90, -96.80,  -6.00, 274.30
5,7
1038,14.25,0.0, 2, 5, 1,15,0.25, 2, 5, 6,15
1039,0.0,0.0, 2, 5, 1,15,0.0, 2, 5, 1,15
581,0.5766030698006364,0.3454965994601563, 2, 8,15,60,1.1669604707561765, 2, 9,15,55
582,5.720687880381957,0.15894532187697172, 2, 8, 8,60,22.312681846623963, 2, 9, 5,52
583,0.07631216794928658,0.002071751482654704, 2, 8,23, 5,0.09496255975858102, 2, 9,10,60
1115,1778938326.3274052,0.0, 2, 6,23, 5,3638464.5546377613, 2, 8,19,60
1128,733898962.6951364,0.0, 2, 6,23, 5,1210156.473327469, 2, 8,19,45
1153,11070576.420459457,0.0, 2, 6,23, 5,65851.02434544606, 2, 8,11,60
1154,1433503.771162583,0.0, 2, 5, 1, 7,60000.0, 2, 6,23, 5
1155,3102758939.563913,0.0, 2, 6,15,30,9226683.059188887, 2, 9,22,60
1156,3102758939.563913,0.0, 2, 6,15,30,9226683.059188887, 2, 9,22,60
1292,-25585431.80896642,-43065.86490254308, 2,10, 4,30,-4691.505100103297, 2, 7,11,60
1306,271298855.3259685,0.0, 2, 5, 1, 7,10279253.16597577, 2,11,19,60
1307,10635129.778977072,0.0, 2, 5, 1, 7,8495631.461621502, 2,11,19,60
1308,271298855.3259685,0.0, 2, 5, 1, 7,10279253.16597577, 2,11,19,60
13,4581859774.436015,1261250.1919620472, 2, 7,12,60,20161333.37006008, 2,11, 9,45
61,301924526.02383536,88139.10953165221, 2, 5, 1,15,1282023.4113694867, 2, 5,20,15
134,70666020.44019976,63564.01800854099, 2, 5, 4,15,156554.22484006523, 2,10,20,15
170,5241013.419656067,348.4159749238097, 2, 5, 4,15,17476.39704006126, 2,10,12,15
207,6509451.13922267,815.2532113832032, 2, 5, 3,15,22990.642799023623, 2,10,10,15
244,12749673.399825225,1521.856143006317, 2, 5, 4,15,53038.631142310165, 2,10,20,15
281,46165882.481495745,59938.60262432081, 2, 5, 5,15,81951.81706819107, 2, 5,19,15
318,0.0,0.0, 2, 5, 1,15,0.0, 2, 5, 1,15
355,197687796.27748066,18561.32405820678, 2, 5, 4,15,724774.895203776, 2,10,18,15
403,197687796.27748066,18561.32405820678, 2, 5, 4,15,724774.895203776, 2,10,18,15
476,106772067.24485716,7098.072629279515, 2, 5, 4,15,356036.3026282215, 2,10,12,15
513,0.0,0.0, 2, 5, 1,15,0.0, 2, 5, 1,15
562,88808390.19534597,88737.79997265691, 2, 8,23,15,133767.1330567618, 2, 7,11,45
1046,0.0,0.0, 2, 5, 1,15,0.0, 2, 5, 1,15
1096,0.0,0.0, 2, 5, 1,15,0.0, 2, 5, 1,15
1134,3849161982.4506664,888259.9378733345, 2, 7,12,60,10266578.281821206, 2,11, 6,15
1326,271298855.3259685,0.0, 2, 5, 1,15,10279253.16597577, 2,11,19,60
1379,0.0,0.0, 2, 5, 1,15,0.0, 2, 5, 1,15
1,EXTREME_SUMMER,  46.90, -96.80,  -6.00, 274.30
5,7
1038,0.0,0.0, 7, 1, 1,15,0.0, 7, 1, 1,15
1039,27.5,0.0, 7, 1, 1,15,0.25, 7, 1,16,15
581,0.14169295328044,0.0, 7, 1, 6, 7,0.5369212675387208, 7, 4,16,60
582,2.697894217719142,0.0, 7, 1, 7,55,9.240304278621123, 7, 4,15,60
583,0.03660869211201397,0.0, 7, 1,23, 3,0.07198786234118042, 7, 4,16,60
1115,0.0,0.0, 7, 1, 1, 7,0.0, 7, 1, 1, 7
1128,0.0,0.0, 7, 1, 1, 7,0.0, 7, 1, 1, 7
1153,0.0,0.0, 7, 1, 1, 7,0.0, 7, 1, 1, 7
1154,0.0,0.0, 7, 1, 1, 7,0.0, 7, 1, 1, 7
1155,0.0,0.0, 7, 1, 1, 7,0.0, 7, 1, 1, 7
1156,0.0,0.0, 7, 1, 1, 7,0.0, 7, 1, 1, 7
1292,-22004011.993887983,-34297.75854838026, 7, 4, 7,30,-3308.1014629605093, 7, 1, 9,15
1306,209422328.040766,0.0, 7, 1, 1, 7,6074280.02347647, 7, 5, 6,60
1307,3927950.3126774924,0.0, 7, 1, 1, 7,1385218.4319003187, 7, 7,19,55
1308,209422328.040766,0.0, 7, 1, 1, 7,6074280.02347647, 7, 5, 6,60
13,1081369249.5039556,151703.1275401932, 7, 1, 4,60,12572859.445809005, 7, 7,19,60
61,301924526.02383536,88139.10953165221, 7, 1, 1,15,1282023.4113694867, 7, 1,20,15
134,70666020.44019976,63564.01800854099, 7, 1, 4,15,156554.22484006523, 7, 6,20,15
170,5241013.419656067,348.4159749238097, 7, 1, 4,15,17476.39704006126, 7, 6,12,15
207,6509451.13922267,815.2532113832032, 7, 1, 3,15,22990.642799023623, 7, 6,10,15
244,12749673.399825225,1521.856143006317, 7, 1, 4,15,53038.631142310165, 7, 6,20,15
281,46165882.481495745,59938.60262432081, 7, 1, 5,15,81951.81706819107, 7, 1,19,15
318,0.0,0.0, 7, 1, 1,15,0.0, 7, 1, 1,15
355,197687796.27748066,18561.32405820678, 7, 1, 4,15,724774.895203776, 7, 6,18,15
403,197687796.27748066,18561.32405820678, 7, 1, 4,15,724774.895203776, 7, 6,18,15
476,106772067.24485716,7098.072629279515, 7, 1, 4,15,356036.3026282215, 7, 6,12,15
513,0.0,0.0, 7, 1, 1,15,0.0, 7, 1, 1,15
562,49468922.855054595,0.0, 7, 1, 4,60,133767.1330567618, 7, 5,18,45
1046,0.0,0.0, 7, 1, 1,15,0.0, 7, 1, 1,15
1096,449887452.14409965,0.0, 7, 1, 4,60,1364955.0733521602, 7, 4,17,60
1134,0.0,0.0, 7, 1, 1,15,0.0, 7, 1, 1,15
1326,209422328.040766,0.0, 7, 1, 1,15,9961695.60433508, 7, 7,19,60
1379,0.0,0.0, 7, 1, 1,15,0.0, 7, 1, 1,15
1,ANNUAL,  46.90, -96.80,  -6.00, 274.30
5,365
1038,120.0,0.0, 1, 1, 1,15,0.25, 1,10, 8,60
1039,251.5,0.0, 1, 1, 1,15,0.25, 4, 6,14,30
581,0.38872223453440313,0.0, 7, 1, 6, 7,1.6018347331958447,10,27, 9,60
582,5.707934189817584,0.0, 2, 1,19,37,42.461967862335264, 3, 7,18,60
583,0.03887418265641973,0.0, 7, 1,23, 3,0.10142681291730013, 1,19,16,60
1115,43818544120.35874,0.0, 1, 1,23, 5,4630011.706982046, 3,23, 8,60
1128,15365755910.96855,0.0, 1, 1,23, 5,1335688.9219433132, 4,10,10,15
1153,366100707.4212007,0.0, 1, 1,23, 5,116965.73236721537, 3,24, 6,15
1154,1151648791.6855898,0.0, 1, 1, 1, 7,180000.0, 3, 5,14,15
1155,37702058870.061295,0.0, 1, 1,23, 5,9226683.059188887, 1,21, 6,15
1156,37702058870.061295,0.0, 1, 1,23, 5,9226683.059188887, 1,21, 6,15
1292,-1252099319.9895816,-44765.494066504645, 2,20, 7,60,-2424.128317426002, 6,26,16,30
1306,12329819811.963045,0.0, 1, 1, 1, 7,10511938.69156859,10,22,19,60
1307,352705211.9054956,0.0, 1, 1, 1, 7,8544011.32754254, 2,19,19,60
1308,12329819811.963045,0.0, 1, 1, 1, 7,10511938.69156859,10,22,19,60
13,94731592600.53217,151703.1275401932, 4, 3, 4,15,21914644.65964456, 2,19,19,60
61,15743207428.383959,88139.10953165221, 1, 1, 1,15,1282023.4113694867, 1, 1,20,15
134,3685071073.4325233,63564.01800854099, 1, 2, 4,15,156554.22484006523, 1, 1,20,15
170,273393721.45532674,348.4159749238097, 1, 2, 4,15,17476.39704006126, 1, 1,12,15
207,339560869.0695816,815.2532113832032, 1, 2, 3,15,22990.642799023623, 1, 1,10,15
244,664895467.8009144,1521.856143006317, 1, 2, 4,15,53038.631142310165, 1, 1,20,15
281,2407221015.106824,59938.60262432081, 1, 1, 5,15,81951.81706819107, 1, 1,19,15
318,0.0,0.0, 1, 1, 1,15,0.0, 1, 1, 1,15
355,10310294493.051695,18561.32405820678, 1, 2, 4,15,724774.895203776, 1, 1,18,15
403,10310294493.051695,18561.32405820678, 1, 2, 4,15,724774.895203776, 1, 1,18,15
476,5569688622.066177,7098.072629279515, 1, 2, 4,15,356036.3026282215, 1, 1,12,15
513,0.0,0.0, 1, 1, 1,15,0.0, 1, 1, 1,15
562,2431294800.346734,0.0, 2,24,16,60,133767.1330567618, 2, 7,11,45
1046,0.0,0.0, 1, 1, 1,15,0.0, 1, 1, 1,15
1096,5956635206.266814,0.0, 1, 1, 1,15,1461006.5231126472, 9, 5,16,60
1134,54585564280.13673,0.0, 3, 5,14,45,10335093.522804586, 1,24,14,15
1326,12329819811.963053,0.0, 1, 1, 1,15,10540800.0, 6,11,19,60
1379,0.0,0.0, 1, 1, 1,15,0.0, 1, 1, 1,15
End of Data
 Number of Records Written=          99
