Program Version,EnergyPlus, Version 9.5.0-de239b2e5f, YMD=2022.08.10 16:06
1,5,Environment Title[],Latitude[deg],Longitude[deg],Time Zone[],Elevation[m]
2,8,Day of Simulation[],Month[],Day of Month[],DST Indicator[1=yes 0=no],Hour[],StartMinute[],EndMinute[],DayType
3,5,Cumulative Day of Simulation[],Month[],Day of Month[],DST Indicator[1=yes 0=no],DayType  ! When Daily Report Variables Requested
4,2,Cumulative Days of Simulation[],Month[]  ! When Monthly Report Variables Requested
5,1,Cumulative Days of Simulation[] ! When Run Period Report Variables Requested
6,1,Calendar Year of Simulation[] ! When Annual Report Variables Requested
191,1,UNHEATEDBSMT_UNIT1,Zone Windows Total Transmitted Solar Radiation Rate [W] !Hourly
192,1,UNHEATEDBSMT_UNIT1,Zone Windows Total Transmitted Solar Radiation Energy [J] !Hourly
193,1,UNHEATEDBSMT_UNIT1,Zone Windows Total Heat Gain Energy [J] !Hourly
194,1,LIVING_UNIT1,Zone Windows Total Transmitted Solar Radiation Rate [W] !Hourly
195,1,LIVING_UNIT1,Zone Windows Total Transmitted Solar Radiation Energy [J] !Hourly
196,1,LIVING_UNIT1,Zone Windows Total Heat Gain Energy [J] !Hourly
197,1,ATTIC_UNIT1,Zone Windows Total Transmitted Solar Radiation Rate [W] !Hourly
198,1,ATTIC_UNIT1,Zone Windows Total Transmitted Solar Radiation Energy [J] !Hourly
199,1,ATTIC_UNIT1,Zone Windows Total Heat Gain Energy [J] !Hourly
200,1,UNHEATEDBSMT_UNIT1,Zone Mean Air Temperature [C] !Hourly
201,1,LIVING_UNIT1,Zone Mean Air Temperature [C] !Hourly
202,1,ATTIC_UNIT1,Zone Mean Air Temperature [C] !Hourly
279,1,UNHEATEDBSMT_UNIT1,AFN Zone Infiltration Sensible Heat Gain Rate [W] !Hourly
280,1,LIVING_UNIT1,AFN Zone Infiltration Sensible Heat Gain Rate [W] !Hourly
281,1,ATTIC_UNIT1,AFN Zone Infiltration Sensible Heat Gain Rate [W] !Hourly
282,1,UNHEATEDBSMT_UNIT1,AFN Zone Infiltration Air Change Rate [ach] !Hourly
283,1,LIVING_UNIT1,AFN Zone Infiltration Air Change Rate [ach] !Hourly
284,1,ATTIC_UNIT1,AFN Zone Infiltration Air Change Rate [ach] !Hourly
618,1,Whole Building,Facility Total HVAC Electricity Demand Rate [W] !Hourly
End of Data Dictionary
1,BAKER.CITY.MUNI.AP ANN HTG 99.6% CONDNS DB,  44.84,-117.81,  -8.00,1024.40
2,1,12,21, 0, 1, 0.00,60.00,WinterDesignDay
191,0.0
192,0.0
193,0.0
194,0.0
195,0.0
196,0.0
197,0.0
198,0.0
199,0.0
200,16.552588304679757
201,16.111340182387769
202,-4.834248619320528
279,0.0
280,0.0
281,0.0
282,0.34629006281973187
283,0.463626702872178
284,0.09948579639206158
618,8858.584471775515
2,1,12,21, 0, 2, 0.00,60.00,WinterDesignDay
191,0.0
192,0.0
193,0.0
194,0.0
195,0.0
196,0.0
197,0.0
198,0.0
199,0.0
200,16.10249787920999
201,16.11154229627108
202,-4.832679527969179
279,0.0
280,0.0
281,0.0
282,0.3459766812462958
283,0.4635781189167649
284,0.09935503204708536
618,8858.584471775515
2,1,12,21, 0, 3, 0.00,60.00,WinterDesignDay
191,0.0
192,0.0
193,0.0
194,0.0
195,0.0
196,0.0
197,0.0
198,0.0
199,0.0
200,15.818489863306962
201,16.100049148993663
202,-4.840446764407878
279,0.0
280,0.0
281,0.0
282,0.3451031859041592
283,0.4636182945747018
284,0.09968829776085586
618,8858.584471775515
2,1,12,21, 0, 4, 0.00,60.00,WinterDesignDay
191,0.0
192,0.0
193,0.0
194,0.0
195,0.0
196,0.0
197,0.0
198,0.0
199,0.0
200,15.553055713708952
201,16.088720481091408
202,-4.847154272650055
279,0.0
280,0.0
281,0.0
282,0.3444293204122651
283,0.46354839418764046
284,0.09980252790827993
618,8858.584471775515
2,1,12,21, 0, 5, 0.00,60.00,WinterDesignDay
191,0.0
192,0.0
193,0.0
194,0.0
195,0.0
196,0.0
197,0.0
198,0.0
199,0.0
200,15.3192096659006
201,16.075118677140485
202,-4.855753131868931
279,0.0
280,0.0
281,0.0
282,0.3438153137943318
283,0.46347409901614869
284,0.09993356842487453
618,8858.584471775515
2,1,12,21, 0, 6, 0.00,60.00,WinterDesignDay
191,0.0
192,0.0
193,0.0
194,0.0
195,0.0
196,0.0
197,0.0
198,0.0
199,0.0
200,15.10502011086391
201,16.06000588114092
202,-4.864809850380461
279,0.0
280,0.0
281,0.0
282,0.34325845339678937
283,0.4633758734524951
284,0.10002106105279532
618,8858.584471775515
2,1,12,21, 0, 7, 0.00,60.00,WinterDesignDay
191,0.0
192,0.0
193,0.0
194,0.0
195,0.0
196,0.0
197,0.0
198,0.0
199,0.0
200,14.906937745116922
201,16.043518616962908
202,-4.874562717732043
279,0.0
280,0.0
281,0.0
282,0.34274178262546109
283,0.4632618730458736
284,0.1001014152976935
618,8858.584471775515
2,1,12,21, 0, 8, 0.00,60.00,WinterDesignDay
191,0.0
192,0.0
193,0.0
194,0.0
195,0.0
196,0.0
197,0.0
198,0.0
199,0.0
200,14.721900648782662
201,16.025894071813505
202,-4.88474510416475
279,0.0
280,0.0
281,0.0
282,0.3422576327399106
283,0.46313374348057359
284,0.1001688827144867
618,8858.584471775515
2,1,12,21, 0, 9, 0.00,60.00,WinterDesignDay
191,0.0
192,0.0
193,0.0
194,0.0
195,0.0
196,0.0
197,0.0
198,0.0
199,0.0
200,14.547887144400333
201,16.007336036865497
202,-4.89531208678915
279,0.0
280,0.0
281,0.0
282,0.3418003619330798
283,0.46299406764361158
284,0.10022969463802435
618,8858.584471775515
2,1,12,21, 0,10, 0.00,60.00,WinterDesignDay
191,0.0
192,0.0
193,0.0
194,0.0
195,0.0
196,0.0
197,0.0
198,0.0
199,0.0
200,14.383370456668095
201,15.988026681777674
202,-4.906164497727152
279,0.0
280,0.0
281,0.0
282,0.34136607470125326
283,0.4628448726007516
284,0.10028394233248546
618,8858.584471775515
2,1,12,21, 0,11, 0.00,60.00,WinterDesignDay
191,0.0
192,0.0
193,0.0
194,0.0
195,0.0
196,0.0
197,0.0
198,0.0
199,0.0
200,14.227174626151366
201,15.968124457426667
202,-4.917240811314917
279,0.0
280,0.0
281,0.0
282,0.3409518520658738
283,0.4626879675194261
284,0.10033310341825055
618,8858.584471775515
2,1,12,21, 0,12, 0.00,60.00,WinterDesignDay
191,0.0
192,0.0
193,0.0
194,0.0
195,0.0
196,0.0
197,0.0
198,0.0
199,0.0
200,14.078360280625385
201,15.947765113729169
202,-4.928479749192205
279,0.0
280,0.0
281,0.0
282,0.3405554319195354
283,0.46252488667959137
284,0.10037771432058607
618,8858.584471775515
2,1,12,21, 0,13, 0.00,60.00,WinterDesignDay
191,0.0
192,0.0
193,0.0
194,0.0
195,0.0
196,0.0
197,0.0
198,0.0
199,0.0
200,13.936159117724726
201,15.92706458030917
202,-4.939831534685943
279,0.0
280,0.0
281,0.0
282,0.340175000904657
283,0.46235694129812557
284,0.10041842191490509
618,8858.584471775515
2,1,12,21, 0,14, 0.00,60.00,WinterDesignDay
191,0.0
192,0.0
193,0.0
194,0.0
195,0.0
196,0.0
197,0.0
198,0.0
199,0.0
200,13.799930300708886
201,15.906121486089769
202,-4.95125216653555
279,0.0
280,0.0
281,0.0
282,0.3398090681507074
283,0.4621852447384676
284,0.10045569187651719
618,8858.584471775515
2,1,12,21, 0,15, 0.00,60.00,WinterDesignDay
191,0.0
192,0.0
193,0.0
194,0.0
195,0.0
196,0.0
197,0.0
198,0.0
199,0.0
200,13.669130968509578
201,15.885019754991518
202,-4.962704246158207
279,0.0
280,0.0
281,0.0
282,0.33945638297644417
283,0.46201074398458938
284,0.1004899582220866
618,8858.584471775515
2,1,12,21, 0,16, 0.00,60.00,WinterDesignDay
191,0.0
192,0.0
193,0.0
194,0.0
195,0.0
196,0.0
197,0.0
198,0.0
199,0.0
200,13.543295415911505
201,15.863830806016287
202,-4.9741556013300649
279,0.0
280,0.0
281,0.0
282,0.3391158791256934
283,0.4618342447719808
284,0.10052158906526468
618,8858.584471775515
2,1,12,21, 0,17, 0.00,60.00,WinterDesignDay
191,0.0
192,0.0
193,0.0
194,0.0
195,0.0
196,0.0
197,0.0
198,0.0
199,0.0
200,13.422019928189929
201,15.842615464546443
202,-4.985578840878917
279,0.0
280,0.0
281,0.0
282,0.33878663561879227
283,0.4616564338360061
284,0.10055091079204212
618,8858.584471775515
2,1,12,21, 0,18, 0.00,60.00,WinterDesignDay
191,0.0
192,0.0
193,0.0
194,0.0
195,0.0
196,0.0
197,0.0
198,0.0
199,0.0
200,13.304951432470018
201,15.821425556318732
202,-4.996950669634936
279,0.0
280,0.0
281,0.0
282,0.3384678483083848
283,0.46147789724383467
284,0.10057820669708097
618,8858.584471775515
2,1,12,21, 0,19, 0.00,60.00,WinterDesignDay
191,0.0
192,0.0
193,0.0
194,0.0
195,0.0
196,0.0
197,0.0
198,0.0
199,0.0
200,13.191778805530218
201,15.800305241854636
202,-5.008251382430617
279,0.0
280,0.0
281,0.0
282,0.3381588086440995
283,0.4612991357396543
284,0.10060372383232616
618,8858.584471775515
2,1,12,21, 0,20, 0.00,60.00,WinterDesignDay
191,0.0
192,0.0
193,0.0
194,0.0
195,0.0
196,0.0
197,0.0
198,0.0
199,0.0
200,13.082226086435308
201,15.779292126511204
202,-5.01946437815888
279,0.0
280,0.0
281,0.0
282,0.3378588874298011
283,0.46112057742950615
284,0.10062767618367769
618,8858.584471775515
2,1,12,21, 0,21, 0.00,60.00,WinterDesignDay
191,0.0
192,0.0
193,0.0
194,0.0
195,0.0
196,0.0
197,0.0
198,0.0
199,0.0
200,12.976047087710601
201,15.758418187541525
202,-5.030575747004571
279,0.0
280,0.0
281,0.0
282,0.3375675221471869
283,0.4609425883186279
284,0.1006502491071397
618,8858.584471775515
2,1,12,21, 0,22, 0.00,60.00,WinterDesignDay
191,0.0
192,0.0
193,0.0
194,0.0
195,0.0
196,0.0
197,0.0
198,0.0
199,0.0
200,12.873021055944767
201,15.737710550587594
202,-5.041573904912275
279,0.0
280,0.0
281,0.0
282,0.33728420689060309
283,0.46076548108868017
284,0.10067160272842645
618,8858.584471775515
2,1,12,21, 0,23, 0.00,60.00,WinterDesignDay
191,0.0
192,0.0
193,0.0
194,0.0
195,0.0
196,0.0
197,0.0
198,0.0
199,0.0
200,12.772949134231745
201,15.717192143668825
202,-5.052449278176305
279,0.0
280,0.0
281,0.0
282,0.33700848425973958
283,0.46058952244438808
284,0.1006918754413062
618,8858.584471775515
2,1,12,21, 0,24, 0.00,60.00,WinterDesignDay
191,0.0
192,0.0
193,0.0
194,0.0
195,0.0
196,0.0
197,0.0
198,0.0
199,0.0
200,12.675651447207733
201,15.696882251036467
202,-5.063194029633268
279,0.0
280,0.0
281,0.0
282,0.33673993874569876
283,0.46041493929171137
284,0.10071118672636093
618,8858.584471775515
1,BAKER.CITY.MUNI.AP ANN CLG .4% CONDNS DB=>MWB,  44.84,-117.81,  -8.00,1024.40
2,1, 7,21, 0, 1, 0.00,60.00,SummerDesignDay
191,0.0
192,0.0
193,0.0
194,0.0
195,0.0
196,0.0
197,0.0
198,0.0
199,0.0
200,19.780125354555154
201,32.55428704209721
202,19.32650057817214
279,0.0
280,0.0
281,0.0
282,0.637437835828151
283,0.3843729142038548
284,4.336255236195227
618,252.7075028724915
2,1, 7,21, 0, 2, 0.00,60.00,SummerDesignDay
191,0.0
192,0.0
193,0.0
194,0.0
195,0.0
196,0.0
197,0.0
198,0.0
199,0.0
200,19.414897565898003
201,31.49967359708158
202,18.21497993482775
279,0.0
280,0.0
281,0.0
282,0.6379611485384501
283,0.3821037497740746
284,4.334401887622456
618,252.7075028724915
2,1, 7,21, 0, 3, 0.00,60.00,SummerDesignDay
191,0.0
192,0.0
193,0.0
194,0.0
195,0.0
196,0.0
197,0.0
198,0.0
199,0.0
200,19.10825627397647
201,30.462581402521445
202,17.299435884236357
279,0.0
280,0.0
281,0.0
282,0.6380955359403358
283,0.3785045880609199
284,4.3329169327236249
618,252.7075028724915
2,1, 7,21, 0, 4, 0.00,60.00,SummerDesignDay
191,0.0
192,0.0
193,0.0
194,0.0
195,0.0
196,0.0
197,0.0
198,0.0
199,0.0
200,18.828199537804467
201,29.466191454268665
202,16.50806624843282
279,0.0
280,0.0
281,0.0
282,0.6383213849264809
283,0.3752635444396501
284,4.33374228189099
618,252.7075028724915
2,1, 7,21, 0, 5, 0.00,60.00,SummerDesignDay
191,0.0
192,0.0
193,0.0
194,267.7616403998307
195,963941.9054393905
196,0.0
197,0.0
198,0.0
199,0.0
200,18.584582645173947
201,28.602932382849674
202,16.00684318705948
279,0.0
280,0.0
281,0.0
282,0.6381291385403455
283,0.37079949620906246
284,4.3357836019117699
618,252.7075028724915
2,1, 7,21, 0, 6, 0.00,60.00,SummerDesignDay
191,0.0
192,0.0
193,0.0
194,2058.922734119228
195,7412121.842829221
196,6794459.844840208
197,0.0
198,0.0
199,0.0
200,18.446914948753489
201,28.47573244147136
202,17.028749076886326
279,0.0
280,0.0
281,0.0
282,0.6361325976870833
283,0.3612183155329438
284,4.347784050970075
618,252.7075028724915
2,1, 7,21, 0, 7, 0.00,60.00,SummerDesignDay
191,0.0
192,0.0
193,0.0
194,2663.6553338568899
195,9589159.201884803
196,9628909.22744766
197,0.0
198,0.0
199,0.0
200,18.493623986563635
201,28.684642235335518
202,20.25878423257265
279,0.0
280,0.0
281,0.0
282,0.6324475294836693
283,0.34935299305121317
284,4.377246861343013
618,252.7075028724915
2,1, 7,21, 0, 8, 0.00,60.00,SummerDesignDay
191,0.0
192,0.0
193,0.0
194,2896.3200927823156
195,10426752.334016337
196,11048720.501765715
197,0.0
198,0.0
199,0.0
200,18.837033215507128
201,29.155525820220356
202,25.416193656624594
279,0.0
280,0.0
281,0.0
282,0.6246004613732314
283,0.3233844744179749
284,4.408679767871664
618,252.7075028724915
2,1, 7,21, 0, 9, 0.00,60.00,SummerDesignDay
191,0.0
192,0.0
193,0.0
194,2967.0218410560948
195,10681278.627801942
196,12216757.969791729
197,0.0
198,0.0
199,0.0
200,19.178419895115547
201,29.892844673752035
202,31.029302493114466
279,152.27557479554549
280,0.0
281,0.0
282,0.6163330208694293
283,0.2942665056490027
284,4.447038734267319
618,252.7075028724915
2,1, 7,21, 0,10, 0.00,60.00,SummerDesignDay
191,0.0
192,0.0
193,0.0
194,2826.539294163603
195,10175541.45898897
196,12429528.034611183
197,0.0
198,0.0
199,0.0
200,19.541329946572288
201,30.782488146732999
202,36.688432554895509
279,283.4036745992394
280,0.0
281,0.0
282,0.609505625112717
283,0.28509786570002318
284,4.492520410151357
618,252.7075028724915
2,1, 7,21, 0,11, 0.00,60.00,SummerDesignDay
191,0.0
192,0.0
193,0.0
194,2439.2060265121469
195,8781141.695443729
196,11322110.683189676
197,0.0
198,0.0
199,0.0
200,19.884077986319395
201,31.723199375279778
202,41.65087940988425
279,395.5445946830301
280,0.0
281,0.0
282,0.6037347009665964
283,0.27640482450087819
284,4.530733927571982
618,252.7075028724915
2,1, 7,21, 0,12, 0.00,60.00,SummerDesignDay
191,0.0
192,0.0
193,0.0
194,2110.835510087845
195,7599007.836316241
196,9691855.657299709
197,0.0
198,0.0
199,0.0
200,20.17121704273328
201,32.587364709297698
202,45.39265714044744
279,466.738242352518
280,0.0
281,0.0
282,0.6003519058583023
283,0.27295283258266347
284,4.562069329739019
618,252.7075028724915
2,1, 7,21, 0,13, 0.00,60.00,SummerDesignDay
191,0.0
192,0.0
193,0.0
194,2126.4975627484107
195,7655391.225894278
196,9934329.44344502
197,0.0
198,0.0
199,0.0
200,20.43766815977444
201,33.557707038804299
202,47.92449719980517
279,521.5415260065259
280,0.0
281,0.0
282,0.5978183632533957
283,0.27051214533927578
284,4.578719670133477
618,252.7075028724915
2,1, 7,21, 0,14, 0.00,60.00,SummerDesignDay
191,0.0
192,0.0
193,0.0
194,2476.0854265958466
195,8913907.535745047
196,11792187.074249218
197,0.0
198,0.0
199,0.0
200,20.67615671021861
201,34.70713666151711
202,49.17704979420717
279,552.784506472829
280,0.0
281,0.0
282,0.5966955993695691
283,0.2720522993196711
284,4.581065640458016
618,252.7075028724915
2,1, 7,21, 0,15, 0.00,60.00,SummerDesignDay
191,0.0
192,0.0
193,0.0
194,2849.1312231835379
195,10256872.403460736
196,12955578.76360629
197,0.0
198,0.0
199,0.0
200,20.864543964111634
201,35.90759592091751
202,49.03644469247085
279,545.6684553790196
280,0.0
281,0.0
282,0.597903222893345
283,0.2803927851473199
284,4.572289982153801
618,252.7075028724915
2,1, 7,21, 0,16, 0.00,60.00,SummerDesignDay
191,0.0
192,0.0
193,0.0
194,2967.872208905035
195,10684339.952058128
196,12675911.69567066
197,0.0
198,0.0
199,0.0
200,20.97681958989847
201,36.961989749578339
202,47.297144417854287
279,492.73222224907706
280,0.0
281,0.0
282,0.6017450540118878
283,0.2935953862522525
284,4.553806028012275
618,252.7075028724915
2,1, 7,21, 0,17, 0.00,60.00,SummerDesignDay
191,0.0
192,0.0
193,0.0
194,2883.1649784991498
195,10379393.922596939
196,11553548.705448732
197,0.0
198,0.0
199,0.0
200,21.043184786066765
201,37.78183148346091
202,44.2774898968387
279,424.24419102416808
280,0.0
281,0.0
282,0.6061416774680617
283,0.30955868984935039
284,4.519388945481368
618,252.7075028724915
2,1, 7,21, 0,18, 0.00,60.00,SummerDesignDay
191,0.0
192,0.0
193,0.0
194,2633.422875407763
195,9480322.351467947
196,10120433.706244983
197,0.0
198,0.0
199,0.0
200,21.054247297413743
201,38.29654398632641
202,40.17913666320085
279,340.20617085434039
280,0.0
281,0.0
282,0.6113494997929354
283,0.33270576475886645
284,4.477086370195548
618,252.7075028724915
2,1, 7,21, 0,19, 0.00,60.00,SummerDesignDay
191,0.0
192,0.0
193,0.0
194,1970.5458141482878
195,7093964.930933836
196,6643215.337181257
197,0.0
198,0.0
199,0.0
200,20.957809479465455
201,38.32541709044155
202,35.16930108301749
279,216.16515404720833
280,0.0
281,0.0
282,0.6186707603688165
283,0.3586080415720001
284,4.437514884754913
618,252.7075028724915
2,1, 7,21, 0,20, 0.00,60.00,SummerDesignDay
191,0.0
192,0.0
193,0.0
194,0.0
195,0.0
196,0.0
197,0.0
198,0.0
199,0.0
200,20.85830095854764
201,37.46874282064101
202,30.425142841925717
279,124.43663301478253
280,0.0
281,0.0
282,0.6237737210004336
283,0.370937649989083
284,4.390804349611188
618,252.7075028724915
2,1, 7,21, 0,21, 0.00,60.00,SummerDesignDay
191,0.0
192,0.0
193,0.0
194,0.0
195,0.0
196,0.0
197,0.0
198,0.0
199,0.0
200,20.69648313206139
201,36.53186843667426
202,26.83877584860524
279,51.69227173128553
280,0.0
281,0.0
282,0.6272725190380326
283,0.3743593446685867
284,4.359612192344535
618,252.7075028724915
2,1, 7,21, 0,22, 0.00,60.00,SummerDesignDay
191,0.0
192,0.0
193,0.0
194,0.0
195,0.0
196,0.0
197,0.0
198,0.0
199,0.0
200,20.49609926062087
201,35.57310592270122
202,24.269425284482364
279,0.0
280,0.0
281,0.0
282,0.6307120408292537
283,0.3786035161390567
284,4.346167804704566
618,252.7075028724915
2,1, 7,21, 0,23, 0.00,60.00,SummerDesignDay
191,0.0
192,0.0
193,0.0
194,0.0
195,0.0
196,0.0
197,0.0
198,0.0
199,0.0
200,20.29277427374922
201,34.577167012551289
202,22.29089670227795
279,0.0
280,0.0
281,0.0
282,0.6331655773385474
283,0.38052306155079798
284,4.337625837203545
618,252.7075028724915
2,1, 7,21, 0,24, 0.00,60.00,SummerDesignDay
191,0.0
192,0.0
193,0.0
194,0.0
195,0.0
196,0.0
197,0.0
198,0.0
199,0.0
200,20.060158067962548
201,33.542877365474229
202,20.69232411858516
279,0.0
280,0.0
281,0.0
282,0.6355809085784795
283,0.38292418502640127
284,4.336392371739159
618,252.7075028724915
1,SUB-ANNUAL,  44.84,-117.81,  -8.00,1024.40
2,1, 1, 1, 0, 1, 0.00,60.00,Sunday
191,0.0
192,0.0
193,0.0
194,0.0
195,0.0
196,0.0
197,0.0
198,0.0
199,0.0
200,17.265855352197624
201,20.55472037800834
202,6.13677711387538
279,0.0
280,0.0
281,0.0
282,0.48660165974900429
283,0.3720924037992248
284,2.8405296531885089
618,5468.891361798192
2,1, 1, 1, 0, 2, 0.00,60.00,Sunday
191,0.0
192,0.0
193,0.0
194,0.0
195,0.0
196,0.0
197,0.0
198,0.0
199,0.0
200,17.20566052321229
201,20.554801795272959
202,7.1131604348306969
279,0.0
280,0.0
281,0.0
282,0.32766797373658149
283,0.3597777253046909
284,0.6409934488607112
618,5560.950081504046
2,1, 1, 1, 0, 3, 0.00,60.00,Sunday
191,0.0
192,0.0
193,0.0
194,0.0
195,0.0
196,0.0
197,0.0
198,0.0
199,0.0
200,15.74671802455432
201,20.55437981748403
202,5.421136113062471
279,0.0
280,0.0
281,0.0
282,0.9154148136339047
283,0.5005063472479117
284,9.857459860579438
618,5946.812515228425
2,1, 1, 1, 0, 4, 0.00,60.00,Sunday
191,0.0
192,0.0
193,0.0
194,0.0
195,0.0
196,0.0
197,0.0
198,0.0
199,0.0
200,15.303751310041769
201,20.55411272822358
202,5.582267484923496
279,0.0
280,0.0
281,0.0
282,1.0829296495067274
283,0.5632541621665034
284,11.391491260969393
618,6306.20796454622
2,1, 1, 1, 0, 5, 0.00,60.00,Sunday
191,0.0
192,0.0
193,0.0
194,0.0
195,0.0
196,0.0
197,0.0
198,0.0
199,0.0
200,15.296543792574932
201,20.554109668544098
202,6.13815807310398
279,0.0
280,0.0
281,0.0
282,0.9099278995249951
283,0.49293075213384748
284,7.634765718311214
618,6017.305380763314
2,1, 1, 1, 0, 6, 0.00,60.00,Sunday
191,0.0
192,0.0
193,0.0
194,0.0
195,0.0
196,0.0
197,0.0
198,0.0
199,0.0
200,15.767975201356445
201,20.554391035908119
202,7.418822708451224
279,0.0
280,0.0
281,0.0
282,0.5535219105353662
283,0.4125547366302748
284,3.2612826370285608
618,5612.784572242346
2,1, 1, 1, 0, 7, 0.00,60.00,Sunday
191,0.0
192,0.0
193,0.0
194,0.0
195,0.0
196,0.0
197,0.0
198,0.0
199,0.0
200,15.034944179691387
201,20.553671169561235
202,6.9528353519861689
279,0.0
280,0.0
281,0.0
282,0.8319596396408165
283,0.5124368084345234
284,5.650718882913219
618,6030.717414213631
2,1, 1, 1, 0, 8, 0.00,60.00,Sunday
191,0.0
192,0.0
193,0.0
194,0.0
195,0.0
196,0.0
197,0.0
198,0.0
199,0.0
200,14.793537325498124
201,20.55422310343977
202,6.3082715856163029
279,0.0
280,0.0
281,0.0
282,0.9064383125961
283,0.4926299212660434
284,7.626678004239771
618,5906.04050279872
2,1, 1, 1, 0, 9, 0.00,60.00,Sunday
191,0.0
192,0.0
193,0.0
194,73.10026339887408
195,263160.94823594667
196,0.0
197,0.0
198,0.0
199,0.0
200,15.095327589724862
201,20.554666140573823
202,6.81671721257923
279,0.0
280,0.0
281,0.0
282,0.6588545596183187
283,0.4196025745902771
284,5.923234708313299
618,5534.405934178258
2,1, 1, 1, 0,10, 0.00,60.00,Sunday
191,0.0
192,0.0
193,0.0
194,423.53786926980237
195,1524736.3293712885
196,0.0
197,0.0
198,0.0
199,0.0
200,14.873186654740949
201,20.554830097723
202,6.865954241579205
279,0.0
280,0.0
281,0.0
282,0.7266934195799476
283,0.45303491023986289
284,7.43031771578871
618,5324.027513777061
2,1, 1, 1, 0,11, 0.00,60.00,Sunday
191,0.0
192,0.0
193,0.0
194,427.4498289953953
195,1538819.384383423
196,0.0
197,0.0
198,0.0
199,0.0
200,14.406959513826
201,20.554660558553203
202,6.347188076943348
279,0.0
280,0.0
281,0.0
282,0.9038432099721029
283,0.5156253074154132
284,10.683093641148906
618,5506.972098473573
2,1, 1, 1, 0,12, 0.00,60.00,Sunday
191,0.0
192,0.0
193,0.0
194,276.90494033470989
195,996857.7852049555
196,0.0
197,0.0
198,0.0
199,0.0
200,14.423787836899573
201,20.554972913770006
202,7.236239028897763
279,0.0
280,0.0
281,0.0
282,0.8926139524644512
283,0.4781994397795298
284,9.211580887925927
618,5219.5437712912539
2,1, 1, 1, 0,13, 0.00,60.00,Sunday
191,0.0
192,0.0
193,0.0
194,414.12682882432116
195,1490856.5837675562
196,0.0
197,0.0
198,0.0
199,0.0
200,14.58257768305014
201,20.555069442024676
202,7.52335023962041
279,0.0
280,0.0
281,0.0
282,0.7306258419537817
283,0.4612003188030999
284,8.24348084934702
618,5000.28373971707
2,1, 1, 1, 0,14, 0.00,60.00,Sunday
191,0.0
192,0.0
193,0.0
194,266.83682689772618
195,960612.5768318141
196,0.0
197,0.0
198,0.0
199,0.0
200,13.9245964810555
201,20.55470791936832
202,6.3173489942652349
279,0.0
280,0.0
281,0.0
282,1.0613816033224138
283,0.5462943773869519
284,12.988305493688902
618,5377.21594392406
2,1, 1, 1, 0,15, 0.00,60.00,Sunday
191,0.0
192,0.0
193,0.0
194,53.534492604611518
195,192724.17337660146
196,0.0
197,0.0
198,0.0
199,0.0
200,14.311990383944839
201,20.555022259572753
202,8.394422912023425
279,0.0
280,0.0
281,0.0
282,0.830200241398546
283,0.4818535878509919
284,5.98614246302557
618,5157.260454195866
2,1, 1, 1, 0,16, 0.00,60.00,Sunday
191,0.0
192,0.0
193,0.0
194,14.493449568575715
195,52176.41844687257
196,0.0
197,0.0
198,0.0
199,0.0
200,14.70588995518692
201,20.55482687511526
202,7.809183953338166
279,0.0
280,0.0
281,0.0
282,0.4782501494301864
283,0.3731227905369429
284,2.86163316296935
618,4867.476357298915
2,1, 1, 1, 0,17, 0.00,60.00,Sunday
191,0.0
192,0.0
193,0.0
194,0.0
195,0.0
196,0.0
197,0.0
198,0.0
199,0.0
200,14.902102471350413
201,20.555134320985876
202,8.637323500163836
279,0.0
280,0.0
281,0.0
282,0.35131849907170867
283,0.37452503469123918
284,1.0646482968826188
618,4969.18880851729
2,1, 1, 1, 0,18, 0.00,60.00,Sunday
191,0.0
192,0.0
193,0.0
194,0.0
195,0.0
196,0.0
197,0.0
198,0.0
199,0.0
200,14.847119181507346
201,20.554880334382717
202,7.707116851512896
279,0.0
280,0.0
281,0.0
282,0.32188668534953066
283,0.3658500198053466
284,0.0
618,5208.5424873260249
2,1, 1, 1, 0,19, 0.00,60.00,Sunday
191,0.0
192,0.0
193,0.0
194,0.0
195,0.0
196,0.0
197,0.0
198,0.0
199,0.0
200,14.708223331976152
201,20.554547171821676
202,6.27203070121601
279,0.0
280,0.0
281,0.0
282,0.32697838670387915
283,0.39103710073978306
284,0.0
618,5703.228767114562
2,1, 1, 1, 0,20, 0.00,60.00,Sunday
191,0.0
192,0.0
193,0.0
194,0.0
195,0.0
196,0.0
197,0.0
198,0.0
199,0.0
200,14.354478321296297
201,20.554508663573708
202,4.717902657970482
279,0.0
280,0.0
281,0.0
282,0.45390837170741057
283,0.3941702401965169
284,2.2228383362917136
618,5827.5572118674649
2,1, 1, 1, 0,21, 0.00,60.00,Sunday
191,0.0
192,0.0
193,0.0
194,0.0
195,0.0
196,0.0
197,0.0
198,0.0
199,0.0
200,13.999272976639717
201,20.55455604480422
202,4.742879942709649
279,0.0
280,0.0
281,0.0
282,0.64589193055917
283,0.42618061709126228
284,4.741469986203503
618,5880.0883158553519
2,1, 1, 1, 0,22, 0.00,60.00,Sunday
191,0.0
192,0.0
193,0.0
194,0.0
195,0.0
196,0.0
197,0.0
198,0.0
199,0.0
200,13.662566996018004
201,20.553758667384938
202,4.230226130054504
279,0.0
280,0.0
281,0.0
282,0.7175829650535786
283,0.461246099709487
284,5.688048169470735
618,6304.566954372031
2,1, 1, 1, 0,23, 0.00,60.00,Sunday
191,0.0
192,0.0
193,0.0
194,0.0
195,0.0
196,0.0
197,0.0
198,0.0
199,0.0
200,13.95851362773574
201,20.55382181810527
202,4.922835971831931
279,0.0
280,0.0
281,0.0
282,0.5556439378097405
283,0.42357241361325506
284,3.462682748528211
618,6161.75616722191
2,1, 1, 1, 0,24, 0.00,60.00,Sunday
191,0.0
192,0.0
193,0.0
194,0.0
195,0.0
196,0.0
197,0.0
198,0.0
199,0.0
200,14.349488562135493
201,20.553999511454529
202,5.5516486095596149
279,0.0
280,0.0
281,0.0
282,0.3577047617778599
283,0.3815749652501411
284,1.470581775367127
618,5894.166229953044
End of Data
 Number of Records Written=        1368
