Program Version,EnergyPlus, Version 22.2.0-c249759bad, YMD=2023.09.01 14:32
1,5,Environment Title[],Latitude[deg],Longitude[deg],Time Zone[],Elevation[m]
2,8,Day of Simulation[],Month[],Day of Month[],DST Indicator[1=yes 0=no],Hour[],StartMinute[],EndMinute[],DayType
3,5,Cumulative Day of Simulation[],Month[],Day of Month[],DST Indicator[1=yes 0=no],DayType  ! When Daily Report Variables Requested
4,2,Cumulative Days of Simulation[],Month[]  ! When Monthly Report Variables Requested
5,1,Cumulative Days of Simulation[] ! When Run Period Report Variables Requested
6,1,Calendar Year of Simulation[] ! When Annual Report Variables Requested
7,1,Environment,Site Outdoor Air Drybulb Temperature [C] !Hourly
545,1,LIVING,Zone Mean Air Temperature [C] !Hourly
546,1,ATTIC,Zone Mean Air Temperature [C] !Hourly
547,1,CRAWLSPACE,Zone Mean Air Temperature [C] !Hourly
548,1,FAN,Fan Electricity Rate [W] !Hourly
720,1,LIVING,Zone Predicted Sensible Load to Heating Setpoint Heat Transfer Rate [W] !Hourly
721,1,LIVING,Zone System Predicted Sensible Load to Heating Setpoint Heat Transfer Rate [W] !Hourly
784,1,ATTIC,Zone Predicted Sensible Load to Heating Setpoint Heat Transfer Rate [W] !Hourly
785,1,ATTIC,Zone System Predicted Sensible Load to Heating Setpoint Heat Transfer Rate [W] !Hourly
848,1,CRAWLSPACE,Zone Predicted Sensible Load to Heating Setpoint Heat Transfer Rate [W] !Hourly
849,1,CRAWLSPACE,Zone System Predicted Sensible Load to Heating Setpoint Heat Transfer Rate [W] !Hourly
1121,1,DX_HEATING_COIL,Heating Coil Heating Rate [W] !Hourly
1135,1,DX_HEATING_COIL,Heating Coil Electricity Rate [W] !Hourly
1161,1,DX_HEATING_COIL,Heating Coil Defrost Electricity Rate [W] !Hourly
1163,1,DX_HEATING_COIL,Heating Coil Crankcase Heater Electricity Rate [W] !Hourly
1166,1,HEATING_RESISTANCE_BACKUP,Heating Coil Heating Rate [W] !Hourly
1168,1,HEATING_RESISTANCE_BACKUP,Heating Coil Electricity Rate [W] !Hourly
End of Data Dictionary
1,EXTREME_WINTER,  41.15,-104.82,  -7.00,1872.00
2,1,12,22, 0, 1, 0.00,60.00,Monday
7,-5.6
545,18.138455235882898
546,-2.1923572172677117
547,18.461610029303518
548,76.69546080880058
720,1434.1347869930196
721,1434.1347869930196
784,0.0
785,0.0
848,0.0
849,0.0
1121,1911.0612683543275
1135,685.0042528117809
1161,29.73416158806218
1163,110.8576473470413
1166,0.0
1168,0.0
2,1,12,22, 0, 2, 0.00,60.00,Monday
7,-0.6
545,18.57230417859439
546,-0.9982679173136688
547,18.089299079441936
548,87.19018504892506
720,1911.4926300314219
721,1911.4926300314219
784,0.0
785,0.0
848,0.0
849,0.0
1121,2575.298129751729
1135,815.6866900079523
1161,21.596041040129702
1163,99.46531821545814
1166,0.0
1168,0.0
2,1,12,22, 0, 3, 0.00,60.00,Monday
7,2.2
545,18.481569621088564
546,1.4660665521201877
547,17.887098807595034
548,87.36162854685983
720,2085.939047555501
721,2085.939047555501
784,0.0
785,0.0
848,0.0
849,0.0
1121,2824.5525145700963
1135,857.5248162412962
1161,11.24845182939268
1163,99.54820239316058
1166,0.0
1168,0.0
2,1,12,22, 0, 4, 0.00,60.00,Monday
7,1.7
545,18.6417264435891
546,1.7926787579434282
547,17.6564767141083
548,93.61469203281925
720,2236.3617019133017
721,2236.3617019133017
784,0.0
785,0.0
848,0.0
849,0.0
1121,2979.941894452322
1135,907.0361059054234
1161,16.57528369364934
1163,92.28652299288132
1166,0.0
1168,0.0
2,1,12,22, 0, 5, 0.00,60.00,Monday
7,0.6
545,18.687261317342678
546,1.541959922559401
547,17.46772705556128
548,93.0802123787957
720,2130.305472661279
721,2130.305472661279
784,0.0
785,0.0
848,0.0
849,0.0
1121,2860.4344485649654
1135,892.0615296046661
1161,19.526187981455593
1163,92.80614356144439
1166,0.0
1168,0.0
2,1,12,22, 0, 6, 0.00,60.00,Monday
7,0.6
545,19.389608133818086
546,1.608891535405083
547,17.27852040710192
548,122.90545530821986
720,2924.3151446918764
721,2924.3151446918764
784,0.0
785,0.0
848,0.0
849,0.0
1121,3853.8367000601856
1135,1178.5533129323098
1161,25.78287993171543
1163,58.45847983243713
1166,0.0
1168,0.0
2,1,12,22, 0, 7, 0.00,60.00,Monday
7,0.6
545,19.552797213602553
546,1.6076085374418225
547,17.13641940752012
548,127.04504671915947
720,2914.2051435301346
721,2914.2051435301346
784,0.0
785,0.0
848,0.0
849,0.0
1121,3941.70631254746
1135,1223.600466699553
1161,35.36598813013608
1163,53.55124822597339
1166,0.0
1168,0.0
2,1,12,22, 0, 8, 0.00,60.00,Monday
7,-1.1
545,19.675493341894562
546,1.5776955073554295
547,16.977180116884643
548,132.08751069663046
720,2858.2013086880306
721,2858.2013086880306
784,0.0
785,0.0
848,0.0
849,0.0
1121,3926.8135199747594
1135,1259.6745986114072
1161,36.059300748239934
1163,47.57400949856232
1166,0.0
1168,0.0
2,1,12,22, 0, 9, 0.00,60.00,Monday
7,0.0
545,19.830216848406323
546,2.59785694430722
547,16.85069302164196
548,94.74809850519377
720,1891.4474488614142
721,1891.4474488614142
784,0.0
785,0.0
848,0.0
849,0.0
1121,2725.7042434623922
1135,884.0385852271622
1161,49.18240738649511
1163,90.31701693601228
1166,0.0
1168,0.0
2,1,12,22, 0,10, 0.00,60.00,Monday
7,1.1
545,19.90663182126408
546,4.408251828532318
547,16.728258489944643
548,55.92080370791189
720,1116.8561679732447
721,1116.8561679732447
784,0.0
785,0.0
848,0.0
849,0.0
1121,1647.364294374284
1135,537.9068454966832
1161,21.2894809123791
1163,135.4737909019068
1166,0.0
1168,0.0
2,1,12,22, 0,11, 0.00,60.00,Monday
7,2.2
545,19.670212876069797
546,5.573050179993218
547,16.625051415735996
548,26.763282903626695
720,550.8445346620738
721,550.8445346620738
784,0.0
785,0.0
848,0.0
849,0.0
1121,826.25505161997
1135,269.2693537642016
1161,3.5076130902649614
1163,169.22561276562593
1166,0.0
1168,0.0
2,1,12,22, 0,12, 0.00,60.00,Monday
7,2.2
545,19.76119440331498
546,6.900688813604723
547,16.548538321294807
548,19.5198839670069
720,431.54937141605296
721,431.54937141605296
784,0.0
785,0.0
848,0.0
849,0.0
1121,600.5241495210504
1135,195.47580366787352
1161,2.5582848709186394
1163,177.5546369432828
1166,0.0
1168,0.0
2,1,12,22, 0,13, 0.00,60.00,Monday
7,3.3
545,19.78553732950514
546,8.111528080854786
547,16.493070832488154
548,10.181170235397751
720,232.45462129152475
721,232.45462129152475
784,0.0
785,0.0
848,0.0
849,0.0
1121,325.265561398538
1135,104.65047765335616
1161,0.26900896423330994
1163,188.3054707210983
1166,0.0
1168,0.0
2,1,12,22, 0,14, 0.00,60.00,Monday
7,2.8
545,20.054235179816533
546,8.882201476002045
547,16.45288762096742
548,0.0
720,-110.69412349685808
721,-110.69412349685808
784,0.0
785,0.0
848,0.0
849,0.0
1121,0.0
1135,0.0
1161,0.0
1163,200.0
1166,0.0
1168,0.0
2,1,12,22, 0,15, 0.00,60.00,Monday
7,1.7
545,20.216166042603685
546,8.488325008991561
547,16.426067833045423
548,0.0
720,-375.92005993209204
721,-375.92005993209204
784,0.0
785,0.0
848,0.0
849,0.0
1121,0.0
1135,0.0
1161,0.0
1163,200.0
1166,0.0
1168,0.0
2,1,12,22, 0,16, 0.00,60.00,Monday
7,1.1
545,19.72546880632464
546,6.688719964521167
547,16.410121519875947
548,9.678943507026244
720,218.41692257015166
721,218.41692257015166
784,0.0
785,0.0
848,0.0
849,0.0
1121,288.033529387023
1135,97.46101424959261
1161,0.9357195140650875
1163,188.87152257614952
1166,0.0
1168,0.0
2,1,12,22, 0,17, 0.00,60.00,Monday
7,0.0
545,19.60508746551302
546,4.263681907399266
547,16.38261485117947
548,29.89953464109935
720,710.9746519008149
721,710.9746519008149
784,0.0
785,0.0
848,0.0
849,0.0
1121,886.9426737028048
1135,298.32162450652135
1161,0.5790084873592904
1163,165.65303067483472
1166,0.0
1168,0.0
2,1,12,22, 0,18, 0.00,60.00,Monday
7,0.0
545,19.66745056366309
546,3.089440827388034
547,16.339126048688712
548,38.08586027393593
720,876.640654555451
721,876.640654555451
784,0.0
785,0.0
848,0.0
849,0.0
1121,1136.4738359816251
1135,379.0765084278397
1161,0.737537650406525
1163,156.24902983684922
1166,0.0
1168,0.0
2,1,12,22, 0,19, 0.00,60.00,Monday
7,-0.6
545,20.242225935219242
546,2.4577294266539402
547,16.286611553059387
548,36.88077802662601
720,749.7584864164328
721,749.7584864164328
784,0.0
785,0.0
848,0.0
849,0.0
1121,1017.9003486166492
1135,346.4638618105634
1161,15.925048358822444
1163,157.3382778672345
1166,0.0
1168,0.0
2,1,12,22, 0,20, 0.00,60.00,Monday
7,-1.7
545,19.64891285587869
546,1.1486086631754961
547,16.21803241397344
548,25.49671432736227
720,451.6328462352267
721,451.6328462352267
784,0.0
785,0.0
848,0.0
849,0.0
1121,660.3570732197093
1135,235.57544282014837
1161,14.878186398355542
1163,170.37448332394797
1166,0.0
1168,0.0
2,1,12,22, 0,21, 0.00,60.00,Monday
7,-1.7
545,19.897248929733188
546,0.06254663020518712
547,16.14303969376436
548,35.4435135346562
720,683.5385445608772
721,683.5385445608772
784,0.0
785,0.0
848,0.0
849,0.0
1121,936.8169898823563
1135,326.63831929587906
1161,18.179981877629263
1163,158.88005094265358
1166,0.0
1168,0.0
2,1,12,22, 0,22, 0.00,60.00,Monday
7,-1.1
545,19.738983243696712
546,0.08358033541976632
547,16.065244629231525
548,38.81920653938568
720,785.2738873171256
721,785.2738873171256
784,0.0
785,0.0
848,0.0
849,0.0
1121,1088.565073423923
1135,374.44742984721256
1161,9.060602755580279
1163,155.2354198002068
1166,0.0
1168,0.0
2,1,12,22, 0,23, 0.00,60.00,Monday
7,-1.7
545,18.75694039042305
546,-0.4576460846899195
547,15.968662850650663
548,20.674423906451757
720,366.8219197635335
721,366.8219197635335
784,0.0
785,0.0
848,0.0
849,0.0
1121,567.018106359135
1135,198.77620095140415
1161,4.076784634126099
1163,176.1674298058994
1166,0.0
1168,0.0
2,1,12,22, 0,24, 0.00,60.00,Monday
7,-1.7
545,18.57140944499494
546,-0.8781078093353025
547,15.869660061088739
548,39.3287422897644
720,814.581139132154
721,814.581139132154
784,0.0
785,0.0
848,0.0
849,0.0
1121,1097.3026522109892
1135,370.82159144138245
1161,7.7550767725798995
1163,154.66441616856014
1166,0.0
1168,0.0
2,2,12,23, 0, 1, 0.00,60.00,Tuesday
7,-2.2
545,18.436370391418205
546,-1.2543042304018326
547,15.765466570483738
548,66.68013113951727
720,1433.9232758887229
721,1433.9232758887229
784,0.0
785,0.0
848,0.0
849,0.0
1121,1914.7976192759886
1135,636.6927254428143
1161,2.2015006753521633
1163,123.37248673232723
1166,0.0
1168,0.0
2,2,12,23, 0, 2, 0.00,60.00,Tuesday
7,-5.6
545,18.285694652036664
546,-2.5007036482025913
547,15.638147735572952
548,110.13609006084788
720,2114.5060778055176
721,2114.5060778055176
784,0.0
785,0.0
848,0.0
849,0.0
1121,2890.1192575830705
1135,1000.2949371842763
1161,21.73585979035692
1163,72.75768368039279
1166,0.0
1168,0.0
2,2,12,23, 0, 3, 0.00,60.00,Tuesday
7,-6.7
545,18.353777095784334
546,-2.9642198205236845
547,15.514460686480659
548,146.8895102300635
720,2717.2637924817755
721,2717.2637924817755
784,0.0
785,0.0
848,0.0
849,0.0
1121,3825.9644918488834
1135,1316.6817546469456
1161,30.82607821292274
1163,30.101360355379825
1166,0.0
1168,0.0
2,2,12,23, 0, 4, 0.00,60.00,Tuesday
7,-5.6
545,18.442335557807073
546,-3.1480693475717563
547,15.408485035864357
548,162.3509237036531
720,3078.253129953526
721,3078.253129953526
784,0.0
785,0.0
848,0.0
849,0.0
1121,4420.721817670985
1135,1471.3860971823717
1161,32.01181553355375
1163,12.434604137905891
1166,0.0
1168,0.0
2,2,12,23, 0, 5, 0.00,60.00,Tuesday
7,-5.6
545,18.558145172971308
546,-2.741641494833525
547,15.294723275853213
548,161.83965990982065
720,3015.7134423010084
721,3015.7134423010084
784,0.0
785,0.0
848,0.0
849,0.0
1121,4429.611914274336
1135,1476.2766369647559
1161,25.094576917607576
1163,13.26707610923017
1166,0.0
1168,0.0
2,2,12,23, 0, 6, 0.00,60.00,Tuesday
7,-5.6
545,19.317482277101938
546,-2.636836288065078
547,15.179546247702481
548,174.15161592404263
720,3988.7406625740714
721,3988.7406625740714
784,0.0
785,0.0
848,0.0
849,0.0
1121,4802.83957389688
1135,1584.4511750293773
1161,26.877506542217212
1163,0.0
1166,827.2999624144622
1168,827.2999624144622
2,2,12,23, 0, 7, 0.00,60.00,Tuesday
7,-7.8
545,19.589334473446282
546,-3.1551150812536655
547,15.081181580599806
548,174.15161592404263
720,3956.4401668600494
721,3956.4401668600494
784,0.0
785,0.0
848,0.0
849,0.0
1121,4493.71715276766
1135,1582.1040869608871
1161,23.69124405691543
1163,0.0
1166,1182.885461005324
1168,1182.885461005324
2,2,12,23, 0, 8, 0.00,60.00,Tuesday
7,-5.6
545,19.673316580578835
546,-3.0792516333610123
547,14.99089281257453
548,174.15161592404263
720,3928.5997336705295
721,3928.5997336705295
784,0.0
785,0.0
848,0.0
849,0.0
1121,4883.399290529992
1135,1652.626546670124
1161,0.0838922270848559
1163,0.0
1166,824.3209967696821
1168,824.3209967696821
2,2,12,23, 0, 9, 0.00,60.00,Tuesday
7,-4.4
545,19.788966924467523
546,-1.2424107223871632
547,14.886398192407658
548,155.53873411622234
720,2888.984745247839
721,2888.984745247839
784,0.0
785,0.0
848,0.0
849,0.0
1121,4454.672444477073
1135,1493.552214112831
1161,0.07492698524666971
1163,21.373235995077255
1166,0.0
1168,0.0
2,2,12,23, 0,10, 0.00,60.00,Tuesday
7,-3.3
545,19.949360891553052
546,1.418571701213257
547,14.775858433860265
548,101.43579600453332
720,1814.7961829178075
721,1814.7961829178075
784,0.0
785,0.0
848,0.0
849,0.0
1121,2886.3838420995544
1135,985.5301345640164
1161,0.04886414129081354
1163,83.50734510507607
1166,0.0
1168,0.0
2,2,12,23, 0,11, 0.00,60.00,Tuesday
7,-1.7
545,19.614339891712877
546,2.902146510680747
547,14.698210170462627
548,76.6233394431314
720,1490.858295328957
721,1490.858295328957
784,0.0
785,0.0
848,0.0
849,0.0
1121,2241.081685280813
1135,756.9931231013692
1161,0.03691128776071313
1163,112.00308051572443
1166,0.0
1168,0.0
2,2,12,23, 0,12, 0.00,60.00,Tuesday
7,-1.7
545,19.792249939028725
546,4.253528485870243
547,14.64212534790214
548,60.97331563791723
720,1224.5023046273418
721,1224.5023046273418
784,0.0
785,0.0
848,0.0
849,0.0
1121,1768.078355185692
1135,598.4376109102845
1161,0.02937229805584627
1163,129.9761156033286
1166,0.0
1168,0.0
2,2,12,23, 0,13, 0.00,60.00,Tuesday
7,0.0
545,20.284146786084655
546,6.540403609336021
547,14.620872728724354
548,38.423858252239796
720,798.6953293756669
721,798.6953293756669
784,0.0
785,0.0
848,0.0
849,0.0
1121,1149.3838542343715
1135,384.0779012721618
1161,0.01850964979112254
1163,155.87278956750006
1166,0.0
1168,0.0
2,2,12,23, 0,14, 0.00,60.00,Tuesday
7,0.0
545,20.456914749513402
546,7.737787750762853
547,14.60240219605594
548,13.909100872167556
720,256.456975099738
721,256.456975099738
784,0.0
785,0.0
848,0.0
849,0.0
1121,408.54286447006575
1135,140.4010669507788
1161,0.0067003315712025
1163,184.02633520641857
1166,0.0
1168,0.0
2,2,12,23, 0,15, 0.00,60.00,Tuesday
7,-1.7
545,19.751359816109765
546,6.8437208833176975
547,14.594714181170659
548,0.0
720,-94.01419087967224
721,-94.01419087967224
784,0.0
785,0.0
848,0.0
849,0.0
1121,0.0
1135,0.0
1161,0.0
1163,200.0
1166,0.0
1168,0.0
2,2,12,23, 0,16, 0.00,60.00,Tuesday
7,-3.0
545,19.62115197110487
546,4.455519511750973
547,14.621242240313508
548,38.69984113664014
720,781.710659386712
721,781.710659386712
784,0.0
785,0.0
848,0.0
849,0.0
1121,1010.8117499442856
1135,360.21048430881854
1161,14.075008425314316
1163,155.18153394215315
1166,0.0
1168,0.0
2,2,12,23, 0,17, 0.00,60.00,Tuesday
7,-3.3
545,19.750002664801407
546,2.7435359338751613
547,14.627131064529147
548,61.56021132250183
720,1244.243909318193
721,1244.243909318193
784,0.0
785,0.0
848,0.0
849,0.0
1121,1633.9487335008055
1135,574.4262967027558
1161,18.72764749885544
1163,128.78961397860567
1166,0.0
1168,0.0
2,2,12,23, 0,18, 0.00,60.00,Tuesday
7,-4.4
545,19.903427049113844
546,0.6017673318218034
547,14.608730299850338
548,62.16039343375718
720,1119.5245025663517
721,1119.5245025663517
784,0.0
785,0.0
848,0.0
849,0.0
1121,1557.7269972379686
1135,564.6936710557575
1161,29.806885924247922
1163,127.66313884782572
1166,0.0
1168,0.0
2,2,12,23, 0,19, 0.00,60.00,Tuesday
7,-5.0
545,19.692740956070665
546,-1.6233497837399897
547,14.572764138537577
548,60.81024176003402
720,1074.464681079604
721,1074.464681079604
784,0.0
785,0.0
848,0.0
849,0.0
1121,1546.1717686987163
1135,566.8121425388509
1161,15.30719903108045
1163,129.65573084320883
1166,0.0
1168,0.0
2,2,12,23, 0,20, 0.00,60.00,Tuesday
7,-6.7
545,19.14823242550658
546,-3.678394553245647
547,14.522723087000102
548,83.76212329343203
720,1457.4716391076818
721,1457.4716391076818
784,0.0
785,0.0
848,0.0
849,0.0
1121,2099.924316858115
1135,778.6809724345215
1161,10.006198926155921
1163,103.41456051692089
1166,0.0
1168,0.0
2,2,12,23, 0,21, 0.00,60.00,Tuesday
7,-7.2
545,19.406548698463347
546,-4.356334662687699
547,14.456234813286835
548,114.98069459835979
720,2033.760564505039
721,2033.760564505039
784,0.0
785,0.0
848,0.0
849,0.0
1121,2955.1433225691544
1135,1065.693158213124
1161,1.2884846079308947
1163,67.90120936934427
1166,0.0
1168,0.0
2,2,12,23, 0,22, 0.00,60.00,Tuesday
7,-6.7
545,19.26506281455759
546,-4.398241952485405
547,14.40537289931285
548,162.93063120691264
720,2968.76831557444
721,2968.76831557444
784,0.0
785,0.0
848,0.0
849,0.0
1121,4360.743042159839
1135,1516.2492471738929
1161,8.934982609962201
1163,12.540466347303303
1166,0.0
1168,0.0
2,2,12,23, 0,23, 0.00,60.00,Tuesday
7,-6.7
545,18.753815405979324
546,-4.786663007451615
547,14.299077662646708
548,170.07447000358366
720,2992.7065703194785
721,2992.7065703194785
784,0.0
785,0.0
848,0.0
849,0.0
1121,4562.243327808925
1135,1573.6986209929332
1161,13.749524730572794
1163,4.148797096331069
1166,0.0
1168,0.0
2,2,12,23, 0,24, 0.00,60.00,Tuesday
7,-6.7
545,18.634228989619636
546,-4.73263841368877
547,14.176473209597118
548,174.15161592404263
720,3541.9931652260148
721,3541.9931652260148
784,0.0
785,0.0
848,0.0
849,0.0
1121,4697.488157352087
1135,1591.0706496904686
1161,14.04078660403798
1163,0.0
1166,574.4666755315407
1168,574.4666755315407
2,3,12,24, 0, 1, 0.00,60.00,Wednesday
7,-7.2
545,18.61515400773001
546,-4.475235716121835
547,14.067397069755716
548,174.15161592404263
720,3464.058097241359
721,3464.058097241359
784,0.0
785,0.0
848,0.0
849,0.0
1121,4685.778459027237
1135,1598.9729967385247
1161,0.0838922270848559
1163,0.0
1166,511.4767758492485
1168,511.4767758492485
2,3,12,24, 0, 2, 0.00,60.00,Wednesday
7,-7.2
545,18.600832499769755
546,-4.423315391148794
547,13.94696589665295
548,174.15161592404263
720,3864.7636577486555
721,3864.7636577486555
784,0.0
785,0.0
848,0.0
849,0.0
1121,4686.44394646492
1135,1598.2121648521004
1161,0.0838922270848559
1163,0.0
1166,963.8336465892903
1168,963.8336465892903
2,3,12,24, 0, 3, 0.00,60.00,Wednesday
7,-7.8
545,18.583390350256384
546,-5.561423689527912
547,13.812001617426516
548,174.15161592404263
720,4609.269447715747
721,4609.269447715747
784,0.0
785,0.0
848,0.0
849,0.0
1121,4604.18327374856
1135,1589.3392555466091
1161,0.0838922270848559
1163,0.0
1166,1916.573635525866
1168,1916.573635525866
2,3,12,24, 0, 4, 0.00,60.00,Wednesday
7,-8.3
545,18.575989763057137
546,-5.646353077452517
547,13.692548594815568
548,174.15161592404263
720,4881.598120476852
721,4881.598120476852
784,0.0
785,0.0
848,0.0
849,0.0
1121,4536.381950797662
1135,1581.8102322281613
1161,0.0838922270848559
1163,0.0
1166,2376.1491868345493
1168,2376.1491868345493
2,3,12,24, 0, 5, 0.00,60.00,Wednesday
7,-8.9
545,18.598472704262605
546,-6.12285034286721
547,13.57098177779138
548,174.15161592404263
720,4263.757662729771
721,4263.757662729771
784,0.0
785,0.0
848,0.0
849,0.0
1121,4455.344563202959
1135,1573.252722658549
1161,0.0838922270848559
1163,0.0
1166,1758.2932447945418
1168,1758.2932447945418
2,3,12,24, 0, 6, 0.00,60.00,Wednesday
7,-8.9
545,19.35224414611818
546,-6.075157106930705
547,13.452600141303142
548,174.15161592404263
720,5322.768458034265
721,5322.768458034265
784,0.0
785,0.0
848,0.0
849,0.0
1121,4454.924523278511
1135,1573.7240576499785
1161,0.0838922270848559
1163,0.0
1166,2995.366708097468
1168,2995.366708097468
2,3,12,24, 0, 7, 0.00,60.00,Wednesday
7,-8.3
545,19.595410220225506
546,-5.454327194485928
547,13.37689311923647
548,174.15161592404263
720,5177.831675170157
721,5177.831675170157
784,0.0
785,0.0
848,0.0
849,0.0
1121,4516.210605847399
1135,1604.5868125613765
1161,0.0838922270848559
1163,0.0
1166,2851.8922878760845
1168,2851.8922878760845
2,3,12,24, 0, 8, 0.00,60.00,Wednesday
7,-7.8
545,19.684691019483747
546,-4.99086014672493
547,13.27373392987853
548,174.15161592404263
720,4535.512854770735
721,4535.512854770735
784,0.0
785,0.0
848,0.0
849,0.0
1121,4578.093237524872
1135,1618.9613280687624
1161,0.0838922270848559
1163,0.0
1166,2042.72348845527
1168,2042.72348845527
2,3,12,24, 0, 9, 0.00,60.00,Wednesday
7,-6.7
545,19.716796811949468
546,-4.2074637972073345
547,13.177490894320883
548,174.15161592404263
720,3949.4876127323587
721,3949.4876127323587
784,0.0
785,0.0
848,0.0
849,0.0
1121,4728.3416256348155
1135,1636.9499078903548
1161,0.0838922270848559
1163,0.0
1166,1192.6586474502383
1168,1192.6586474502383
2,3,12,24, 0,10, 0.00,60.00,Wednesday
7,-5.0
545,19.800709622529855
546,-2.720777771561312
547,13.089772959832516
548,159.09032985320198
720,2789.53174577515
721,2789.53174577515
784,0.0
785,0.0
848,0.0
849,0.0
1121,4490.958944010762
1135,1518.0686029652613
1161,0.07663794708176674
1163,17.294284000236516
1166,0.0
1168,0.0
2,3,12,24, 0,11, 0.00,60.00,Wednesday
7,-3.3
545,20.02326436759573
546,0.3022313561768362
547,12.991773964169886
548,100.6722518031592
720,1718.4912075094908
721,1718.4912075094908
784,0.0
785,0.0
848,0.0
849,0.0
1121,2864.5499851522786
1135,976.4109290331897
1161,0.04849632283561975
1163,84.38422838252619
1166,0.0
1168,0.0
2,3,12,24, 0,12, 0.00,60.00,Wednesday
7,-3.3
545,19.92994177787802
546,1.846208666089273
547,12.935199170816865
548,63.372330419404584
720,1066.1230904529148
721,1066.1230904529148
784,0.0
785,0.0
848,0.0
849,0.0
1121,1756.809173963673
1135,617.3765691300209
1161,0.030528025164864254
1163,127.22084935476667
1166,0.0
1168,0.0
2,3,12,24, 0,13, 0.00,60.00,Wednesday
7,-2.8
545,19.615821171750436
546,0.7942499701060298
547,12.913759651190528
548,46.89296663408208
720,850.1022930108265
721,850.1022930108265
784,0.0
785,0.0
848,0.0
849,0.0
1121,1304.9963557874821
1135,457.92019459628966
1161,0.0225894910509494
1163,146.14640274575038
1166,0.0
1168,0.0
2,3,12,24, 0,14, 0.00,60.00,Wednesday
7,-2.8
545,19.823878647134084
546,0.5030329316283783
547,12.919128961017291
548,39.78339789739606
720,745.0004543042578
721,745.0004543042578
784,0.0
785,0.0
848,0.0
849,0.0
1121,1103.8680512241706
1135,386.1251137566212
1161,0.019164637253926062
1163,154.31129219029725
1166,0.0
1168,0.0
2,3,12,24, 0,15, 0.00,60.00,Wednesday
7,-2.8
545,19.758688392227025
546,0.132709064570021
547,12.930068642637085
548,23.861154959132822
720,416.8885039046381
721,416.8885039046381
784,0.0
785,0.0
848,0.0
849,0.0
1121,654.5760556268126
1135,232.5557595711318
1161,0.011494502952946042
1163,172.59697744984288
1166,0.0
1168,0.0
2,3,12,24, 0,16, 0.00,60.00,Wednesday
7,-3.9
545,20.431412416472664
546,0.08763493449182351
547,12.956800939139862
548,13.789624031085284
720,221.4064966281694
721,221.4064966281694
784,0.0
785,0.0
848,0.0
849,0.0
1121,364.42961379037075
1135,133.00039050649602
1161,0.006642809742000782
1163,184.1634678853342
1166,0.0
1168,0.0
2,3,12,24, 0,17, 0.00,60.00,Wednesday
7,-6.1
545,19.185471086657092
546,-2.0849841228387866
547,13.019964729142718
548,41.63607757861831
720,751.3689007006451
721,751.3689007006451
784,0.0
785,0.0
848,0.0
849,0.0
1121,1047.0702245231555
1135,399.23727072729787
1161,0.020057216102366705
1163,152.18337431409685
1166,0.0
1168,0.0
2,3,12,24, 0,18, 0.00,60.00,Wednesday
7,-6.1
545,19.42273743809213
546,-2.875500672406644
547,13.057037957559888
548,92.914101398009
720,1757.323954977388
721,1757.323954977388
784,0.0
785,0.0
848,0.0
849,0.0
1121,2434.464410854296
1135,869.6146103775405
1161,0.044759211607010546
1163,93.29354300789467
1166,0.0
1168,0.0
2,3,12,24, 0,19, 0.00,60.00,Wednesday
7,-7.8
545,19.876495186838756
546,-4.029759239089736
547,13.047117618006702
548,96.21383353218367
720,1595.9392879331645
721,1595.9392879331645
784,0.0
785,0.0
848,0.0
849,0.0
1121,2399.0812890286397
1135,891.5978101931175
1161,0.04634891267887572
1163,89.50367801776345
1166,0.0
1168,0.0
2,3,12,24, 0,20, 0.00,60.00,Wednesday
7,-7.8
545,19.704652240585347
546,-4.776721507122523
547,13.031860806637702
548,101.69678905904658
720,1630.6845369505136
721,1630.6845369505136
784,0.0
785,0.0
848,0.0
849,0.0
1121,2538.3573849181385
1135,950.5475009862799
1161,0.0489902091091477
1163,83.20679802767725
1166,0.0
1168,0.0
2,3,12,24, 0,21, 0.00,60.00,Wednesday
7,-11.7
545,19.301220153324152
546,-5.846337858985319
547,12.99588229183168
548,156.42611717460235
720,2297.914369414424
721,2297.914369414424
784,0.0
785,0.0
848,0.0
849,0.0
1121,3599.336712511961
1135,1406.2838076282521
1161,0.07535543822190656
1163,20.351799349216204
1166,0.0
1168,0.0
2,3,12,24, 0,22, 0.00,60.00,Wednesday
7,-11.7
545,19.510383731448332
546,-6.651667392407811
547,12.925364225633048
548,174.15161592404263
720,2819.305010913102
721,2819.305010913102
784,0.0
785,0.0
848,0.0
849,0.0
1121,4058.9482546522936
1135,1550.269861754941
1161,2.9292337214318978
1163,0.0
1166,439.74321218322893
1168,439.74321218322893
2,3,12,24, 0,23, 0.00,60.00,Wednesday
7,-12.2
545,18.888180891534958
546,-6.4157015035568925
547,12.856587089729544
548,174.15161592404263
720,2719.067113352805
721,2719.067113352805
784,0.0
785,0.0
848,0.0
849,0.0
1121,3964.4554635194163
1135,1538.8683854137748
1161,10.620668326682251
1163,0.0
1166,533.5717178746017
1168,533.5717178746017
2,3,12,24, 0,24, 0.00,60.00,Wednesday
7,-12.2
545,18.687689055650775
546,-6.730704255262164
547,12.735095144027751
548,174.15161592404263
720,3278.508459125742
721,3278.508459125742
784,0.0
785,0.0
848,0.0
849,0.0
1121,3980.8190882906515
1135,1521.4367970818912
1161,10.620668326682251
1163,0.0
1166,1124.6656350151734
1168,1124.6656350151734
2,4,12,25, 0, 1, 0.00,60.00,Thursday
7,-10.6
545,18.62805505069631
546,-6.501186760755074
547,12.649815394769586
548,174.15161592404263
720,3303.0326263122006
721,3303.0326263122006
784,0.0
785,0.0
848,0.0
849,0.0
1121,4190.361509784575
1135,1537.9113737978682
1161,10.79505255524177
1163,0.0
1166,953.6331708799366
1168,953.6331708799366
2,4,12,25, 0, 2, 0.00,60.00,Thursday
7,-10.0
545,18.597112479225004
546,-6.259007222777849
547,12.544411283154364
548,174.15161592404263
720,3885.2592545185325
721,3885.2592545185325
784,0.0
785,0.0
848,0.0
849,0.0
1121,4289.807232396703
1135,1551.3238950293
1161,5.322467822146862
1163,0.0
1166,1520.6310641632945
1168,1520.6310641632945
2,4,12,25, 0, 3, 0.00,60.00,Thursday
7,-8.9
545,18.597292200631646
546,-5.647090809538065
547,12.450654632622273
548,174.15161592404263
720,3931.004539919457
721,3931.004539919457
784,0.0
785,0.0
848,0.0
849,0.0
1121,4423.561992220898
1135,1560.479464998765
1161,9.02363003962001
1163,0.0
1166,1441.6443847327664
1168,1441.6443847327664
2,4,12,25, 0, 4, 0.00,60.00,Thursday
7,-9.4
545,18.600935850382523
546,-5.403690417560177
547,12.346249566948401
548,174.15161592404263
720,3927.3607383419912
721,3927.3607383419912
784,0.0
785,0.0
848,0.0
849,0.0
1121,4347.613922447304
1135,1550.2168628047957
1161,11.617266734287202
1163,0.0
1166,1485.4688089690285
1168,1485.4688089690285
2,4,12,25, 0, 5, 0.00,60.00,Thursday
7,-8.9
545,18.60029995138919
546,-5.318578126612785
547,12.254403301330646
548,174.15161592404263
720,3950.143550728146
721,3950.143550728146
784,0.0
785,0.0
848,0.0
849,0.0
1121,4383.28290682727
1135,1546.0070179200923
1161,20.036642541414572
1163,0.0
1166,1464.212595810056
1168,1464.212595810056
2,4,12,25, 0, 6, 0.00,60.00,Thursday
7,-8.9
545,19.356677555071265
546,-4.4114656618250265
547,12.16120340023506
548,174.15161592404263
720,4952.136525978523
721,4952.136525978523
784,0.0
785,0.0
848,0.0
849,0.0
1121,4383.433705336805
1135,1545.837778699336
1161,20.036642541414572
1163,0.0
1166,2617.5417826983207
1168,2617.5417826983207
2,4,12,25, 0, 7, 0.00,60.00,Thursday
7,-7.2
545,19.614948339465275
546,-3.475743458777703
547,12.124932280282788
548,174.15161592404263
720,4333.216873385734
721,4333.216873385734
784,0.0
785,0.0
848,0.0
849,0.0
1121,4596.15161666446
1135,1592.6183825549751
1161,19.060739717323138
1163,0.0
1166,1727.3353081980326
1168,1727.3353081980326
2,4,12,25, 0, 8, 0.00,60.00,Thursday
7,-7.2
545,19.68800968113558
546,-3.3792846302080877
547,12.048614470495265
548,174.15161592404263
720,4195.12243920824
721,4195.12243920824
784,0.0
785,0.0
848,0.0
849,0.0
1121,4589.280795097223
1135,1600.4354818920767
1161,19.06639692714679
1163,0.0
1166,1541.2178807053997
1168,1541.2178807053997
2,4,12,25, 0, 9, 0.00,60.00,Thursday
7,-5.6
545,19.729031621209995
546,-1.8802172244351745
547,11.996874832115543
548,174.15161592404263
720,3204.03237785489
721,3204.03237785489
784,0.0
785,0.0
848,0.0
849,0.0
1121,4867.254885272995
1135,1644.359630897876
1161,4.558887263287337
1163,0.0
1166,112.28007282305907
1168,112.28007282305907
2,4,12,25, 0,10, 0.00,60.00,Thursday
7,-4.4
545,19.80832639327074
546,-0.028050820080158727
547,11.918477470033379
548,152.39495152142774
720,2814.059615402406
721,2814.059615402406
784,0.0
785,0.0
848,0.0
849,0.0
1121,4357.653553957549
1135,1460.2576365409295
1161,0.07341254423111403
1163,24.983680176095003
1166,0.0
1168,0.0
2,4,12,25, 0,11, 0.00,60.00,Thursday
7,-2.8
545,19.840711957657813
546,2.2733366741953334
547,11.854892908049315
548,125.03531821652541
720,2426.0668772749013
721,2426.0668772749013
784,0.0
785,0.0
848,0.0
849,0.0
1121,3669.9059006455363
1135,1216.3496029739033
1161,0.060232575890572154
1163,56.40487090741391
1166,0.0
1168,0.0
2,4,12,25, 0,12, 0.00,60.00,Thursday
7,-2.8
545,19.850972468199963
546,4.239161741843896
547,11.797503683407461
548,100.6845594476516
720,1963.093466986651
721,1963.093466986651
784,0.0
785,0.0
848,0.0
849,0.0
1121,2906.1022050818056
1135,980.143597364284
1161,0.04850221894322763
1163,84.37017199658257
1166,0.0
1168,0.0
2,4,12,25, 0,13, 0.00,60.00,Thursday
7,-1.1
545,19.99762229234288
546,7.946839173056483
547,11.749282401080642
548,67.60422987252406
720,1373.756608635791
721,1373.756608635791
784,0.0
785,0.0
848,0.0
849,0.0
1121,2001.0949193636543
1135,667.9581926510261
1161,0.03256654329243853
1163,122.36099952502657
1166,0.0
1168,0.0
2,4,12,25, 0,14, 0.00,60.00,Thursday
7,-2.2
545,19.671336059883977
546,6.0690363952608655
547,11.722320198351877
548,44.70011613042552
720,890.0892278002575
721,890.0892278002575
784,0.0
785,0.0
848,0.0
849,0.0
1121,1263.2503147045895
1135,438.7976154577601
1161,0.021533124295031184
1163,148.66479281030243
1166,0.0
1168,0.0
2,4,12,25, 0,15, 0.00,60.00,Thursday
7,-5.6