Program Version,EnergyPlus, Version 22.2.0-c249759bad, YMD=2023.09.01 14:11
1,5,Environment Title[],Latitude[deg],Longitude[deg],Time Zone[],Elevation[m]
2,8,Day of Simulation[],Month[],Day of Month[],DST Indicator[1=yes 0=no],Hour[],StartMinute[],EndMinute[],DayType
3,5,Cumulative Day of Simulation[],Month[],Day of Month[],DST Indicator[1=yes 0=no],DayType  ! When Daily Report Variables Requested
4,2,Cumulative Days of Simulation[],Month[]  ! When Monthly Report Variables Requested
5,1,Cumulative Days of Simulation[] ! When Run Period Report Variables Requested
6,1,Calendar Year of Simulation[] ! When Annual Report Variables Requested
581,11,LIVING,AFN Zone Infiltration Air Change Rate [ach] !RunPeriod [Value,Min,Month,Day,Hour,Minute,Max,Month,Day,Hour,Minute]
582,11,ATTIC,AFN Zone Infiltration Air Change Rate [ach] !RunPeriod [Value,Min,Month,Day,Hour,Minute,Max,Month,Day,Hour,Minute]
583,11,CRAWLSPACE,AFN Zone Infiltration Air Change Rate [ach] !RunPeriod [Value,Min,Month,Day,Hour,Minute,Max,Month,Day,Hour,Minute]
1038,11,Facility,Facility Heating Setpoint Not Met Time [hr] !RunPeriod [Value,Min,Month,Day,Hour,Minute,Max,Month,Day,Hour,Minute]
1039,11,Facility,Facility Cooling Setpoint Not Met Time [hr] !RunPeriod [Value,Min,Month,Day,Hour,Minute,Max,Month,Day,Hour,Minute]
1115,11,DX_HEATING_COIL,Heating Coil Heating Energy [J] !RunPeriod [Value,Min,Month,Day,Hour,Minute,Max,Month,Day,Hour,Minute]
1128,11,DX_HEATING_COIL,Heating Coil Electricity Energy [J] !RunPeriod [Value,Min,Month,Day,Hour,Minute,Max,Month,Day,Hour,Minute]
1153,11,DX_HEATING_COIL,Heating Coil Defrost Electricity Energy [J] !RunPeriod [Value,Min,Month,Day,Hour,Minute,Max,Month,Day,Hour,Minute]
1154,11,DX_HEATING_COIL,Heating Coil Crankcase Heater Electricity Energy [J] !RunPeriod [Value,Min,Month,Day,Hour,Minute,Max,Month,Day,Hour,Minute]
1155,11,HEATING_RESISTANCE_BACKUP,Heating Coil Heating Energy [J] !RunPeriod [Value,Min,Month,Day,Hour,Minute,Max,Month,Day,Hour,Minute]
1156,11,HEATING_RESISTANCE_BACKUP,Heating Coil Electricity Energy [J] !RunPeriod [Value,Min,Month,Day,Hour,Minute,Max,Month,Day,Hour,Minute]
1292,11,WATER HEATER,Water Heater Heat Loss Energy [J] !RunPeriod [Value,Min,Month,Day,Hour,Minute,Max,Month,Day,Hour,Minute]
1306,11,WATER HEATER,Water Heater Heating Energy [J] !RunPeriod [Value,Min,Month,Day,Hour,Minute,Max,Month,Day,Hour,Minute]
1307,11,WATER HEATER,Water Heater Unmet Demand Heat Transfer Energy [J] !RunPeriod [Value,Min,Month,Day,Hour,Minute,Max,Month,Day,Hour,Minute]
1308,11,WATER HEATER,Water Heater Electricity Energy [J] !RunPeriod [Value,Min,Month,Day,Hour,Minute,Max,Month,Day,Hour,Minute]
13,11,Electricity:Facility [J] !RunPeriod [Value,Min,Month,Day,Hour,Minute,Max,Month,Day,Hour,Minute]
1134,11,Heating:Electricity [J] !RunPeriod [Value,Min,Month,Day,Hour,Minute,Max,Month,Day,Hour,Minute]
1096,11,Cooling:Electricity [J] !RunPeriod [Value,Min,Month,Day,Hour,Minute,Max,Month,Day,Hour,Minute]
562,11,Fans:Electricity [J] !RunPeriod [Value,Min,Month,Day,Hour,Minute,Max,Month,Day,Hour,Minute]
1379,11,Pumps:Electricity [J] !RunPeriod [Value,Min,Month,Day,Hour,Minute,Max,Month,Day,Hour,Minute]
1326,11,WaterSystems:Electricity [J] !RunPeriod [Value,Min,Month,Day,Hour,Minute,Max,Month,Day,Hour,Minute]
61,11,InteriorLights:Electricity [J] !RunPeriod [Value,Min,Month,Day,Hour,Minute,Max,Month,Day,Hour,Minute]
1046,11,ExteriorLights:Electricity [J] !RunPeriod [Value,Min,Month,Day,Hour,Minute,Max,Month,Day,Hour,Minute]
134,11,InteriorEquipment:Electricity [J] !RunPeriod [Value,Min,Month,Day,Hour,Minute,Max,Month,Day,Hour,Minute]
170,11,gas_dryer:InteriorEquipment:Electricity [J] !RunPeriod [Value,Min,Month,Day,Hour,Minute,Max,Month,Day,Hour,Minute]
207,11,clotheswasher:InteriorEquipment:Electricity [J] !RunPeriod [Value,Min,Month,Day,Hour,Minute,Max,Month,Day,Hour,Minute]
244,11,dishwasher:InteriorEquipment:Electricity [J] !RunPeriod [Value,Min,Month,Day,Hour,Minute,Max,Month,Day,Hour,Minute]
281,11,refrigerator:InteriorEquipment:Electricity [J] !RunPeriod [Value,Min,Month,Day,Hour,Minute,Max,Month,Day,Hour,Minute]
318,11,electric_mels:InteriorEquipment:Electricity [J] !RunPeriod [Value,Min,Month,Day,Hour,Minute,Max,Month,Day,Hour,Minute]
355,11,NaturalGas:Facility [J] !RunPeriod [Value,Min,Month,Day,Hour,Minute,Max,Month,Day,Hour,Minute]
403,11,InteriorEquipment:NaturalGas [J] !RunPeriod [Value,Min,Month,Day,Hour,Minute,Max,Month,Day,Hour,Minute]
476,11,gas_dryer:InteriorEquipment:NaturalGas [J] !RunPeriod [Value,Min,Month,Day,Hour,Minute,Max,Month,Day,Hour,Minute]
513,11,gas_mels:InteriorEquipment:NaturalGas [J] !RunPeriod [Value,Min,Month,Day,Hour,Minute,Max,Month,Day,Hour,Minute]
End of Data Dictionary
1,EXTREME_WINTER,  39.88, -75.25,  -5.00,   3.10
5,7
1038,0.75,0.0, 1, 6, 1,15,0.25, 1, 9, 6,15
1039,0.0,0.0, 1, 6, 1,15,0.0, 1, 6, 1,15
581,0.41130459487094756,0.20976150450196557, 1, 7,18,52,0.6774788985772429, 1, 6,13,60
582,6.319260073388873,0.05945138854825218, 1, 8, 4,60,16.552783640564705, 1, 8,13,60
583,0.04613737787926336,0.0012896787292479, 1, 7,18,60,0.0729775294819, 1, 9,22,60
1115,1627307278.2697427,0.0, 1, 6,23, 3,4076188.999113436, 1, 6,12,15
1128,528530630.9055845,0.0, 1, 6,23, 3,1235070.1101931175, 1, 6,12,15
1153,5283309.070277715,0.0, 1, 6,23, 3,75715.24200447295, 1, 8, 8,60
1154,40522134.2629505,0.0, 1, 6, 6, 5,180000.0, 1, 7,14,30
1155,288055375.19580245,0.0, 1, 6, 1,15,3922609.725535375, 1,10, 6,45
1156,288055375.19580245,0.0, 1, 6, 1,15,3922609.725535375, 1,10, 6,45
1292,-28901731.083193548,-46117.51008992125, 1,11,14,15,-10288.950019479696, 1, 6,23, 7
1306,190261046.44740176,0.0, 1, 6, 1,15,10085673.767354744, 1,12, 9,30
1307,5357514.214902291,0.0, 1, 6, 1,15,1385550.5580552106, 1, 9,10,30
1308,190261046.44740176,0.0, 1, 6, 1,15,10085673.767354744, 1,12, 9,30
13,1480801833.8063838,452017.0388981225, 1, 7,15,15,12744757.369868793, 1,12, 9,30
61,301924526.02383536,88139.10953165221, 1, 6, 1,15,1282023.4113694867, 1, 6,20,15
134,70666020.44019976,63564.01800854099, 1, 6, 4,15,156554.22484006523, 1,11,20,15
170,5241013.419656067,348.4159749238097, 1, 6, 4,15,17476.39704006126, 1,11,12,15
207,6509451.13922267,815.2532113832032, 1, 6, 3,15,22990.642799023623, 1,11,10,15
244,12749673.399825225,1521.856143006317, 1, 6, 4,15,53038.631142310165, 1,11,20,15
281,46165882.481495745,59938.60262432081, 1, 6, 5,15,81951.81706819107, 1, 6,19,15
318,0.0,0.0, 1, 6, 1,15,0.0, 1, 6, 1,15
355,197687796.27748066,18561.32405820678, 1, 6, 4,15,724774.895203776, 1,11,18,15
403,197687796.27748066,18561.32405820678, 1, 6, 4,15,724774.895203776, 1,11,18,15
476,106772067.24485716,7098.072629279515, 1, 6, 4,15,356036.3026282215, 1,11,12,15
513,0.0,0.0, 1, 6, 1,15,0.0, 1, 6, 1,15
562,55558791.46033327,0.0, 1, 7,13,45,124442.00475103453, 1, 6, 6,30
1046,0.0,0.0, 1, 6, 1,15,0.0, 1, 6, 1,15
1096,0.0,0.0, 1, 6, 1,15,0.0, 1, 6, 1,15
1134,862391449.4346147,180000.0, 1, 7,13,45,5701170.805439669, 1,10, 6,15
1326,190261046.44740173,0.0, 1, 6, 1,15,10128004.174646908, 1,11,10,30
1379,0.0,0.0, 1, 6, 1,15,0.0, 1, 6, 1,15
1,EXTREME_SUMMER,  39.88, -75.25,  -5.00,   3.10
5,7
1038,0.0,0.0, 7,20, 1,15,0.0, 7,20, 1,15
1039,32.25,0.0, 7,20, 1,15,0.25, 7,20,13,30
581,0.17279717938297554,0.0, 7,21, 7,48,0.41808987655439117, 7,26,10,60
582,4.078016998747444,0.048742927889139406, 7,25, 8, 5,11.484572576556939, 7,26,10,52
583,0.03895321910195323,0.00023844831058770843, 7,24, 6,11,0.06572722497691777, 7,26,18,48
1115,0.0,0.0, 7,20, 1,15,0.0, 7,20, 1,15
1128,0.0,0.0, 7,20, 1,15,0.0, 7,20, 1,15
1153,0.0,0.0, 7,20, 1,15,0.0, 7,20, 1,15
1154,0.0,0.0, 7,20, 1,15,0.0, 7,20, 1,15
1155,0.0,0.0, 7,20, 1,15,0.0, 7,20, 1,15
1156,0.0,0.0, 7,20, 1,15,0.0, 7,20, 1,15
1292,-22576975.883085728,-36530.69652689663, 7,20,14,45,-3542.6750035398436, 7,25, 8,38
1306,134559022.47192445,0.0, 7,20, 1,15,4916876.154278098, 7,21, 7,15
1307,0.0,0.0, 7,20, 1,15,0.0, 7,20, 1,15
1308,134559022.47192445,0.0, 7,20, 1,15,4916876.154278098, 7,21, 7,15
13,1049142708.5272087,179725.63187839795, 7,24, 4,60,10765247.196914278, 7,25,10,30
61,301924526.02383536,88139.10953165221, 7,20, 1,15,1282023.4113694867, 7,20,20,15
134,70666020.44019976,63564.01800854099, 7,20, 4,15,156554.22484006523, 7,25,20,15
170,5241013.419656067,348.4159749238097, 7,20, 4,15,17476.39704006126, 7,25,12,15
207,6509451.13922267,815.2532113832032, 7,20, 3,15,22990.642799023623, 7,25,10,15
244,12749673.399825225,1521.856143006317, 7,20, 4,15,53038.631142310165, 7,25,20,15
281,46165882.481495745,59938.60262432081, 7,20, 5,15,81951.81706819107, 7,20,19,15
318,0.0,0.0, 7,20, 1,15,0.0, 7,20, 1,15
355,197687796.27748066,18561.32405820678, 7,20, 4,15,724774.895203776, 7,25,18,15
403,197687796.27748066,18561.32405820678, 7,20, 4,15,724774.895203776, 7,25,18,15
476,106772067.24485716,7098.072629279515, 7,20, 4,15,356036.3026282215, 7,25,12,15
513,0.0,0.0, 7,20, 1,15,0.0, 7,20, 1,15
562,52474914.42333123,3088.2587685260596, 7,24, 4,60,124442.00475103453, 7,20,11,15
1046,0.0,0.0, 7,20, 1,15,0.0, 7,20, 1,15
1096,489518225.1679185,24934.245569678693, 7,24, 4,60,1321555.6120798795, 7,20,16,60
1134,0.0,0.0, 7,20, 1,15,0.0, 7,20, 1,15
1326,134559022.47192448,0.0, 7,20, 1,15,9432181.43894731, 7,25,10,30
1379,0.0,0.0, 7,20, 1,15,0.0, 7,20, 1,15
1,ANNUAL,  39.88, -75.25,  -5.00,   3.10
5,365
1038,12.5,0.0, 1, 1, 1,15,0.25, 1, 3, 6,15
1039,634.25,0.0, 1, 1, 1,15,0.25, 3,27,15,60
581,0.2558556990389842,0.0, 5,21,23, 3,1.6758487458975422, 3, 9,18,48
582,4.755807440254288,0.0, 1, 1, 6, 5,45.23215538313341, 3, 9,18,48
583,0.026150805361797452,0.0, 5,21,23, 3,0.08400907883683353, 1, 2,13,60
1115,19631661761.0225,0.0, 1, 1,23, 3,4338674.049728447, 3,22, 6,45
1128,6030035941.512296,0.0, 1, 1,23, 3,1257468.2770477042, 3,22, 6,45
1153,114664834.22777158,0.0, 1, 1,14,37,117644.89166615758, 1,18, 6,45
1154,1413996449.6051452,0.0, 1, 1, 6, 5,180000.0, 1, 7,14,30
1155,2310892043.432152,0.0, 1, 1, 1, 5,4145669.336536528, 1,31, 7,60
1156,2310892043.432152,0.0, 1, 1, 1, 5,4145669.336536528, 1,31, 7,60
1292,-1237387715.055034,-50122.72300150855, 1,31, 7,30,-2308.7773520871933, 6,21,17,30
1306,8443727071.684365,0.0, 1, 1, 1, 5,10540800.0, 1,12,10,30
1307,117336338.07917099,0.0, 1, 1, 1, 5,2898582.745517391, 1,28,10,30
1308,8443727071.684365,0.0, 1, 1, 1, 5,10540800.0, 1,12,10,30
13,48662807742.79299,151703.1275401932, 3, 6, 4,15,14877507.85237406, 1,29, 9,30
61,15743207428.383959,88139.10953165221, 1, 1, 1,15,1282023.4113694867, 1, 1,20,15
134,3685071073.4325233,63564.01800854099, 1, 2, 4,15,156554.22484006523, 1, 1,20,15
170,273393721.45532674,348.4159749238097, 1, 2, 4,15,17476.39704006126, 1, 1,12,15
207,339560869.0695816,815.2532113832032, 1, 2, 3,15,22990.642799023623, 1, 1,10,15
244,664895467.8009144,1521.856143006317, 1, 2, 4,15,53038.631142310165, 1, 1,20,15
281,2407221015.106824,59938.60262432081, 1, 1, 5,15,81951.81706819107, 1, 1,19,15
318,0.0,0.0, 1, 1, 1,15,0.0, 1, 1, 1,15
355,10310294493.051695,18561.32405820678, 1, 2, 4,15,724774.895203776, 1, 1,18,15
403,10310294493.051695,18561.32405820678, 1, 2, 4,15,724774.895203776, 1, 1,18,15
476,5569688622.066177,7098.072629279515, 1, 2, 4,15,356036.3026282215, 1, 1,12,15
513,0.0,0.0, 1, 1, 1,15,0.0, 1, 1, 1,15
562,1674320517.712208,0.0, 1, 7,13,60,124442.00475103456, 6,21,17,15
1046,0.0,0.0, 1, 1, 1,15,0.0, 1, 1, 1,15
1096,9246892382.800566,0.0, 1, 1, 1,15,1344080.2564931528, 7,19,16,60
1134,9869589268.777407,0.0, 1,15,15,30,5758493.134941094, 1,29, 6,15
1326,8443727071.684358,0.0, 1, 1, 1,15,10540800.0, 1,12,10,30
1379,0.0,0.0, 1, 1, 1,15,0.0, 1, 1, 1,15
End of Data
 Number of Records Written=          99
