Program Version,EnergyPlus, Version 22.2.0-c249759bad, YMD=2023.09.01 14:31
1,5,Environment Title[],Latitude[deg],Longitude[deg],Time Zone[],Elevation[m]
2,8,Day of Simulation[],Month[],Day of Month[],DST Indicator[1=yes 0=no],Hour[],StartMinute[],EndMinute[],DayType
3,5,Cumulative Day of Simulation[],Month[],Day of Month[],DST Indicator[1=yes 0=no],DayType  ! When Daily Report Variables Requested
4,2,Cumulative Days of Simulation[],Month[]  ! When Monthly Report Variables Requested
5,1,Cumulative Days of Simulation[] ! When Run Period Report Variables Requested
6,1,Calendar Year of Simulation[] ! When Annual Report Variables Requested
7,1,Environment,Site Outdoor Air Drybulb Temperature [C] !Hourly
545,1,LIVING,Zone Mean Air Temperature [C] !Hourly
546,1,ATTIC,Zone Mean Air Temperature [C] !Hourly
547,1,CRAWLSPACE,Zone Mean Air Temperature [C] !Hourly
548,1,FAN,Fan Electricity Rate [W] !Hourly
720,1,LIVING,Zone Predicted Sensible Load to Heating Setpoint Heat Transfer Rate [W] !Hourly
721,1,LIVING,Zone System Predicted Sensible Load to Heating Setpoint Heat Transfer Rate [W] !Hourly
784,1,ATTIC,Zone Predicted Sensible Load to Heating Setpoint Heat Transfer Rate [W] !Hourly
785,1,ATTIC,Zone System Predicted Sensible Load to Heating Setpoint Heat Transfer Rate [W] !Hourly
848,1,CRAWLSPACE,Zone Predicted Sensible Load to Heating Setpoint Heat Transfer Rate [W] !Hourly
849,1,CRAWLSPACE,Zone System Predicted Sensible Load to Heating Setpoint Heat Transfer Rate [W] !Hourly
1121,1,DX_HEATING_COIL,Heating Coil Heating Rate [W] !Hourly
1135,1,DX_HEATING_COIL,Heating Coil Electricity Rate [W] !Hourly
1161,1,DX_HEATING_COIL,Heating Coil Defrost Electricity Rate [W] !Hourly
1163,1,DX_HEATING_COIL,Heating Coil Crankcase Heater Electricity Rate [W] !Hourly
1166,1,HEATING_RESISTANCE_BACKUP,Heating Coil Heating Rate [W] !Hourly
1168,1,HEATING_RESISTANCE_BACKUP,Heating Coil Electricity Rate [W] !Hourly
End of Data Dictionary
1,EXTREME_WINTER,  37.36,-121.92,  -8.00,  15.50
2,1, 1,15, 0, 1, 0.00,60.00,Monday
7,7.8
545,21.22026922442833
546,5.747063984609359
547,19.2362597727353
548,0.0
720,-1945.0740563530344
721,-1945.0740563530344
784,0.0
785,0.0
848,0.0
849,0.0
1121,0.0
1135,0.0
1161,0.0
1163,200.0
1166,0.0
1168,0.0
2,1, 1,15, 0, 2, 0.00,60.00,Monday
7,7.2
545,20.432506328932693
546,6.12760355727421
547,18.955991588731543
548,0.0
720,-1191.4727598030113
721,-1191.4727598030113
784,0.0
785,0.0
848,0.0
849,0.0
1121,0.0
1135,0.0
1161,0.0
1163,200.0
1166,0.0
1168,0.0
2,1, 1,15, 0, 3, 0.00,60.00,Monday
7,7.2
545,19.746115726197022
546,6.262456145336788
547,18.77248275133309
548,0.0
720,-797.2313850453393
721,-797.2313850453393
784,0.0
785,0.0
848,0.0
849,0.0
1121,0.0
1135,0.0
1161,0.0
1163,200.0
1166,0.0
1168,0.0
2,1, 1,15, 0, 4, 0.00,60.00,Monday
7,6.1
545,19.321309625186636
546,4.224141813408756
547,18.59605150891141
548,0.0
720,-490.72257926853854
721,-490.72257926853854
784,0.0
785,0.0
848,0.0
849,0.0
1121,0.0
1135,0.0
1161,0.0
1163,200.0
1166,0.0
1168,0.0
2,1, 1,15, 0, 5, 0.00,60.00,Monday
7,6.7
545,18.96133131224967
546,4.165425697995362
547,18.43177656128836
548,0.0
720,-209.0869342858632
721,-209.0869342858632
784,0.0
785,0.0
848,0.0
849,0.0
1121,0.0
1135,0.0
1161,0.0
1163,200.0
1166,0.0
1168,0.0
2,1, 1,15, 0, 6, 0.00,60.00,Monday
7,6.1
545,19.562794565020305
546,3.9472058031777726
547,18.271011394911888
548,18.07365077589192
720,589.0545072424338
721,589.0545072424338
784,0.0
785,0.0
848,0.0
849,0.0
1121,720.1269894900539
1135,197.94764488355307
1161,0.0
1163,173.86904061876513
1166,0.0
1168,0.0
2,1, 1,15, 0, 7, 0.00,60.00,Monday
7,3.9
545,19.518933493253616
546,3.120449660363371
547,18.1247435482407
548,36.27705191487767
720,812.999169221086
721,812.999169221086
784,0.0
785,0.0
848,0.0
849,0.0
1121,1071.0682886985046
1135,333.5382038688058
1161,29.236389536639344
1163,147.26672624758947
1166,0.0
1168,0.0
2,1, 1,15, 0, 8, 0.00,60.00,Monday
7,3.9
545,19.624756015999125
546,3.308509037246849
547,17.986224188052226
548,47.50109646115111
720,1033.3724112214204
721,1033.3724112214204
784,0.0
785,0.0
848,0.0
849,0.0
1121,1403.2458859838484
1135,432.5548087606976
1161,40.93328920884383
1163,130.92211088829103
1166,0.0
1168,0.0
2,1, 1,15, 0, 9, 0.00,60.00,Monday
7,6.7
545,19.964295480660795
546,5.338282285112984
547,17.87451878165041
548,13.045491185933054
720,335.4866436861121
721,335.4866436861121
784,0.0
785,0.0
848,0.0
849,0.0
1121,524.0975383399712
1135,145.53599036762938
1161,0.0
1163,181.13877464410334
1166,0.0
1168,0.0
2,1, 1,15, 0,10, 0.00,60.00,Monday
7,9.4
545,20.49377402044592
546,9.834941137328439
547,17.76253180763035
548,0.0
720,-654.8591388734512
721,-654.8591388734512
784,0.0
785,0.0
848,0.0
849,0.0
1121,0.0
1135,0.0
1161,0.0
1163,200.0
1166,0.0
1168,0.0
2,1, 1,15, 0,11, 0.00,60.00,Monday
7,10.0
545,21.057611563751585
546,12.965446454076986
547,17.68305870821538
548,0.0
720,-1145.463955886291
721,-1145.463955886291
784,0.0
785,0.0
848,0.0
849,0.0
1121,0.0
1135,0.0
1161,0.0
1163,0.0
1166,0.0
1168,0.0
2,1, 1,15, 0,12, 0.00,60.00,Monday
7,10.6
545,22.13760605333189
546,17.434170796088562
547,17.638560461203546
548,0.0
720,-1822.1057744441696
721,-1822.1057744441696
784,0.0
785,0.0
848,0.0
849,0.0
1121,0.0
1135,0.0
1161,0.0
1163,0.0
1166,0.0
1168,0.0
2,1, 1,15, 0,13, 0.00,60.00,Monday
7,11.1
545,23.088472051404004
546,21.423808758362384
547,17.616611819212586
548,0.0
720,-2530.192769188756
721,-2530.192769188756
784,0.0
785,0.0
848,0.0
849,0.0
1121,0.0
1135,0.0
1161,0.0
1163,0.0
1166,0.0
1168,0.0
2,1, 1,15, 0,14, 0.00,60.00,Monday
7,12.2
545,23.35523246333509
546,20.774347818847122
547,17.637443013846525
548,8.529773210083022
720,-3194.6176470653863
721,-3194.6176470653863
784,0.0
785,0.0
848,0.0
849,0.0
1121,0.0
1135,0.0
1161,0.0
1163,0.0
1166,0.0
1168,0.0
2,1, 1,15, 0,15, 0.00,60.00,Monday
7,11.7
545,23.25100559798749
546,19.57502791243953
547,17.698919119982826
548,25.302418459865592
720,-4004.172660683891
721,-4004.172660683891
784,0.0
785,0.0
848,0.0
849,0.0
1121,0.0
1135,0.0
1161,0.0
1163,0.0
1166,0.0
1168,0.0
2,1, 1,15, 0,16, 0.00,60.00,Monday
7,11.7
545,23.377980947464632
546,18.468478957130884
547,17.763860884446984
548,33.783491564325054
720,-4882.035483470629
721,-4882.035483470629
784,0.0
785,0.0
848,0.0
849,0.0
1121,0.0
1135,0.0
1161,0.0
1163,0.0
1166,0.0
1168,0.0
2,1, 1,15, 0,17, 0.00,60.00,Monday
7,11.1
545,23.369842660694573
546,16.76777412421803
547,17.832580531758
548,35.935543430628755
720,-5051.595711334679
721,-5051.595711334679
784,0.0
785,0.0
848,0.0
849,0.0
1121,0.0
1135,0.0
1161,0.0
1163,0.0
1166,0.0
1168,0.0
2,1, 1,15, 0,18, 0.00,60.00,Monday
7,8.9
545,23.321356073465793
546,13.096569739521385
547,17.856085158209797
548,17.15442442678206
720,-4277.75632651396
721,-4277.75632651396
784,0.0
785,0.0
848,0.0
849,0.0
1121,0.0
1135,0.0
1161,0.0
1163,175.19806189335955
1166,0.0
1168,0.0
2,1, 1,15, 0,19, 0.00,60.00,Monday
7,8.3
545,23.451429304622245
546,11.048422856180558
547,17.882697498651027
548,10.701362166084834
720,-3626.5515612797262
721,-3626.5515612797262
784,0.0
785,0.0
848,0.0
849,0.0
1121,0.0
1135,0.0
1161,0.0
1163,184.52792612000403
1166,0.0
1168,0.0
2,1, 1,15, 0,20, 0.00,60.00,Monday
7,7.8
545,23.287811535793857
546,9.390764157331997
547,17.883574917891888
548,9.853419458983629
720,-3349.8291982617375
721,-3349.8291982617375
784,0.0
785,0.0
848,0.0
849,0.0
1121,0.0
1135,0.0
1161,0.0
1163,185.7538852088247
1166,0.0
1168,0.0
2,1, 1,15, 0,21, 0.00,60.00,Monday
7,7.2
545,23.287280136053013
546,8.224315736757164
547,17.851619940827256
548,3.5849356179896517
720,-3092.706457496124
721,-3092.706457496124
784,0.0
785,0.0
848,0.0
849,0.0
1121,0.0
1135,0.0
1161,0.0
1163,194.81688518940595
1166,0.0
1168,0.0
2,1, 1,15, 0,22, 0.00,60.00,Monday
7,6.7
545,23.0243058354735
546,7.258671490111242
547,17.808664893454647
548,0.0
720,-2492.0128338165596
721,-2492.0128338165596
784,0.0
785,0.0
848,0.0
849,0.0
1121,0.0
1135,0.0
1161,0.0
1163,200.0
1166,0.0
1168,0.0
2,1, 1,15, 0,23, 0.00,60.00,Monday
7,5.6
545,22.310176424431543
546,5.897865876588241
547,17.757791702307305
548,0.0
720,-2647.252426914616
721,-2647.252426914616
784,0.0
785,0.0
848,0.0
849,0.0
1121,0.0
1135,0.0
1161,0.0
1163,200.0
1166,0.0
1168,0.0
2,1, 1,15, 0,24, 0.00,60.00,Monday
7,5.0
545,21.507298872009546
546,4.701119815502555
547,17.69297492531051
548,0.0
720,-2155.154067607584
721,-2155.154067607584
784,0.0
785,0.0
848,0.0
849,0.0
1121,0.0
1135,0.0
1161,0.0
1163,200.0
1166,0.0
1168,0.0
2,2, 1,16, 0, 1, 0.00,60.00,Tuesday
7,5.0
545,20.84847412871384
546,3.0508286861948615
547,17.61791742056591
548,0.0
720,-1666.144540246265
721,-1666.144540246265
784,0.0
785,0.0
848,0.0
849,0.0
1121,0.0
1135,0.0
1161,0.0
1163,200.0
1166,0.0
1168,0.0
2,2, 1,16, 0, 2, 0.00,60.00,Tuesday
7,5.6
545,20.30155947161422
546,2.383468732998434
547,17.533597532584622
548,0.0
720,-1182.7023864929579
721,-1182.7023864929579
784,0.0
785,0.0
848,0.0
849,0.0
1121,0.0
1135,0.0
1161,0.0
1163,200.0
1166,0.0
1168,0.0
2,2, 1,16, 0, 3, 0.00,60.00,Tuesday
7,5.6
545,19.54950090780895
546,3.229104622660981
547,17.44255028177359
548,0.0
720,-601.4647812689818
721,-601.4647812689818
784,0.0
785,0.0
848,0.0
849,0.0
1121,0.0
1135,0.0
1161,0.0
1163,200.0
1166,0.0
1168,0.0
2,2, 1,16, 0, 4, 0.00,60.00,Tuesday
7,5.6
545,19.11595922918987
546,3.325390454684283
547,17.350915704190946
548,0.0
720,-330.28410054412416
721,-330.28410054412416
784,0.0
785,0.0
848,0.0
849,0.0
1121,0.0
1135,0.0
1161,0.0
1163,200.0
1166,0.0
1168,0.0
2,2, 1,16, 0, 5, 0.00,60.00,Tuesday
7,6.1
545,18.790733306267843
546,3.728665079241706
547,17.257650537112006
548,0.0
720,-101.99037008602681
721,-101.99037008602681
784,0.0
785,0.0
848,0.0
849,0.0
1121,0.0
1135,0.0
1161,0.0
1163,200.0
1166,0.0
1168,0.0
2,2, 1,16, 0, 6, 0.00,60.00,Tuesday
7,6.1
545,19.48640660213698
546,5.4332507073346665
547,17.162239431740797
548,23.19477645776845
720,753.8190618021163
721,753.8190618021163
784,0.0
785,0.0
848,0.0
849,0.0
1121,928.9355051633443
1135,252.9427477273019
1161,0.0
1163,166.46489583149202
1166,0.0
1168,0.0
2,2, 1,16, 0, 7, 0.00,60.00,Tuesday
7,6.7
545,19.706251298843018
546,6.174740175933701
547,17.083895310176786
548,31.702417508602668
720,1012.1881953498741
721,1012.1881953498741
784,0.0
785,0.0
848,0.0
849,0.0
1121,1294.062697424191
1135,352.44183011971586
1161,0.0
1163,154.16451305403933
1166,0.0
1168,0.0
2,2, 1,16, 0, 8, 0.00,60.00,Tuesday
7,6.7
545,19.735465476310942
546,6.378506920566802
547,17.001303350771884
548,30.469802371944724
720,949.9694143483175
721,949.9694143483175
784,0.0
785,0.0
848,0.0
849,0.0
1121,1241.3382222009914
1135,340.1067572562391
1161,0.0
1163,155.94663313968732
1166,0.0
1168,0.0
2,2, 1,16, 0, 9, 0.00,60.00,Tuesday
7,7.8
545,19.82159957963538
546,7.466902991999894
547,16.924561130618205
548,26.40770991319158
720,837.9054988604639
721,837.9054988604639
784,0.0
785,0.0
848,0.0
849,0.0
1121,1102.027109487237
1135,298.4747211202367
1161,0.0
1163,161.81962329307044
1166,0.0
1168,0.0
2,2, 1,16, 0,10, 0.00,60.00,Tuesday
7,9.4
545,19.763300292429605
546,10.116763177021783
547,16.84955406637981
548,13.807942898821622
720,433.8732582195644
721,433.8732582195644
784,0.0
785,0.0
848,0.0
849,0.0
1121,593.057830053694
1135,159.22343482735843
1161,0.0
1163,180.03641878989927
1166,0.0
1168,0.0
2,2, 1,16, 0,11, 0.00,60.00,Tuesday
7,10.6
545,19.969817397346027
546,15.368257373960835
547,16.782265038595984
548,0.0
720,-86.97724426866625
721,-86.97724426866625
784,0.0
785,0.0
848,0.0
849,0.0
1121,0.0
1135,0.0
1161,0.0
1163,0.0
1166,0.0
1168,0.0
2,2, 1,16, 0,12, 0.00,60.00,Tuesday
7,11.7
545,20.51702783679845
546,20.457295458612986
547,16.743477020635915
548,0.0
720,-580.1767727435144
721,-580.1767727435144
784,0.0
785,0.0
848,0.0
849,0.0
1121,0.0
1135,0.0
1161,0.0
1163,0.0
1166,0.0
1168,0.0
2,2, 1,16, 0,13, 0.00,60.00,Tuesday
7,13.3
545,21.10468577016758
546,22.538794006340623
547,16.725600578969274
548,0.0
720,-962.6258641253025
721,-962.6258641253025
784,0.0
785,0.0
848,0.0
849,0.0
1121,0.0
1135,0.0
1161,0.0
1163,0.0
1166,0.0
1168,0.0
2,2, 1,16, 0,14, 0.00,60.00,Tuesday
7,13.9
545,22.161311580763098
546,24.73082931688144
547,16.729009729830977
548,0.0
720,-1720.6877705892475
721,-1720.6877705892475
784,0.0
785,0.0
848,0.0
849,0.0
1121,0.0
1135,0.0
1161,0.0
1163,0.0
1166,0.0
1168,0.0
2,2, 1,16, 0,15, 0.00,60.00,Tuesday
7,13.9
545,22.89469921698492
546,23.61109822360133
547,16.754505985895573
548,0.0
720,-2455.976385704087
721,-2455.976385704087
784,0.0
785,0.0
848,0.0
849,0.0
1121,0.0
1135,0.0
1161,0.0
1163,0.0
1166,0.0
1168,0.0
2,2, 1,16, 0,16, 0.00,60.00,Tuesday
7,13.9
545,23.346530138874947
546,22.20846160383441
547,16.830340045112536
548,9.47597750314111
720,-2845.4774579451423
721,-2845.4774579451423
784,0.0
785,0.0
848,0.0
849,0.0
1121,0.0
1135,0.0
1161,0.0
1163,0.0
1166,0.0
1168,0.0
2,2, 1,16, 0,17, 0.00,60.00,Tuesday
7,11.7
545,23.225849023712904
546,19.10160199330856
547,16.91911638622968
548,20.187976932915724
720,-3413.2230462984553
721,-3413.2230462984553
784,0.0
785,0.0
848,0.0
849,0.0
1121,0.0
1135,0.0
1161,0.0
1163,0.0
1166,0.0
1168,0.0
2,2, 1,16, 0,18, 0.00,60.00,Tuesday
7,10.6
545,23.237020991678293
546,15.977893208233256
547,16.953828824453957
548,8.04570976793241
720,-3510.594360256042
721,-3510.594360256042
784,0.0
785,0.0
848,0.0
849,0.0
1121,0.0
1135,0.0
1161,0.0
1163,0.0
1166,0.0
1168,0.0
2,2, 1,16, 0,19, 0.00,60.00,Tuesday
7,11.1
545,23.49508441401161
546,14.173274299409194
547,17.00357417468188
548,5.991089380172775
720,-3081.72810154981
721,-3081.72810154981
784,0.0
785,0.0
848,0.0
849,0.0
1121,0.0
1135,0.0
1161,0.0
1163,0.0
1166,0.0
1168,0.0
2,2, 1,16, 0,20, 0.00,60.00,Tuesday
7,11.1
545,23.427795927525146
546,12.635378051146644
547,17.039363102545195
548,10.02836718905224
720,-2990.0759527863556
721,-2990.0759527863556
784,0.0
785,0.0
848,0.0
849,0.0
1121,0.0
1135,0.0
1161,0.0
1163,0.0
1166,0.0
1168,0.0
2,2, 1,16, 0,21, 0.00,60.00,Tuesday
7,10.6
545,23.270027582250435
546,11.701658376859243
547,17.046169557707376
548,9.747499298523227
720,-3053.3613076238125
721,-3053.3613076238125
784,0.0
785,0.0
848,0.0
849,0.0
1121,0.0
1135,0.0
1161,0.0
1163,0.0
1166,0.0
1168,0.0
2,2, 1,16, 0,22, 0.00,60.00,Tuesday
7,9.4
545,23.292856277883107
546,10.916494231018396
547,17.020869784759633
548,1.3828481192451283
720,-2758.7076212188567
721,-2758.7076212188567
784,0.0
785,0.0
848,0.0
849,0.0
1121,0.0
1135,0.0
1161,0.0
1163,198.00067244396405
1166,0.0
1168,0.0
2,2, 1,16, 0,23, 0.00,60.00,Tuesday
7,8.9
545,22.811653506924504
546,10.05442592440333
547,17.00207129575654
548,0.0
720,-2694.621418492243
721,-2694.621418492243
784,0.0
785,0.0
848,0.0
849,0.0
1121,0.0
1135,0.0
1161,0.0
1163,200.0
1166,0.0
1168,0.0
2,2, 1,16, 0,24, 0.00,60.00,Tuesday
7,8.3
545,22.22181175093166
546,8.945368476396322
547,16.973567598768504
548,0.0
720,-2323.7805506868754
721,-2323.7805506868754
784,0.0
785,0.0
848,0.0
849,0.0
1121,0.0
1135,0.0
1161,0.0
1163,200.0
1166,0.0
1168,0.0
2,3, 1,17, 0, 1, 0.00,60.00,Wednesday
7,7.8
545,21.56578591598138
546,7.930381950197374
547,16.93491846508681
548,0.0
720,-1881.9470564785206
721,-1881.9470564785206
784,0.0
785,0.0
848,0.0
849,0.0
1121,0.0
1135,0.0
1161,0.0
1163,200.0
1166,0.0
1168,0.0
2,3, 1,17, 0, 2, 0.00,60.00,Wednesday
7,7.2
545,20.791626793772103
546,7.527875025580856
547,16.88785991141343
548,0.0
720,-1414.0792821137147
721,-1414.0792821137147
784,0.0
785,0.0
848,0.0
849,0.0
1121,0.0
1135,0.0
1161,0.0
1163,200.0
1166,0.0
1168,0.0
2,3, 1,17, 0, 3, 0.00,60.00,Wednesday
7,7.2
545,20.331326141495964
546,7.2664114512727105
547,16.835339865241096
548,0.0
720,-1186.6527502568497
721,-1186.6527502568497
784,0.0
785,0.0
848,0.0
849,0.0
1121,0.0
1135,0.0
1161,0.0
1163,200.0
1166,0.0
1168,0.0
2,3, 1,17, 0, 4, 0.00,60.00,Wednesday
7,7.2
545,19.875597637579208
546,6.832100937932691
547,16.776953564130032
548,0.0
720,-784.9378676322958
721,-784.9378676322958
784,0.0
785,0.0
848,0.0
849,0.0
1121,0.0
1135,0.0
1161,0.0
1163,200.0
1166,0.0
1168,0.0
2,3, 1,17, 0, 5, 0.00,60.00,Wednesday
7,6.7
545,19.352633535442646
546,6.5411022012070035
547,16.714257504151167
548,0.0
720,-410.70134095194135
721,-410.70134095194135
784,0.0
785,0.0
848,0.0
849,0.0
1121,0.0
1135,0.0
1161,0.0
1163,200.0
1166,0.0
1168,0.0
2,3, 1,17, 0, 6, 0.00,60.00,Wednesday
7,7.2
545,19.671201095682378
546,6.021732448782261
547,16.654013388443428
548,7.1737593268806865
720,238.98789221145762
721,238.98789221145762
784,0.0
785,0.0
848,0.0
849,0.0
1121,290.88398656597485
1135,79.96306532168958
1161,0.0
1163,189.6281489608331
1166,0.0
1168,0.0
2,3, 1,17, 0, 7, 0.00,60.00,Wednesday
7,6.7
545,19.60488230094821
546,6.16230215095366
547,16.59194706267387
548,11.37946140934547
720,359.63624791643997
721,359.63624791643997
784,0.0
785,0.0
848,0.0
849,0.0
1121,456.6014088177027
1135,126.89319571033253
1161,0.0
1163,183.5475274168419
1166,0.0
1168,0.0
2,3, 1,17, 0, 8, 0.00,60.00,Wednesday
7,6.7
545,19.654039342199834
546,6.571216186865056
547,16.53117959707079
548,17.229600941256937
720,544.4400100951043
721,544.4400100951043
784,0.0
785,0.0
848,0.0
849,0.0
1121,694.813649921059
1135,191.87310424296098
1161,0.0
1163,175.0893713764007
1166,0.0
1168,0.0
2,3, 1,17, 0, 9, 0.00,60.00,Wednesday
7,8.9
545,19.648226143175467
546,8.523624580242391
547,16.474979726894333
548,20.383166138725255
720,678.9277524020708
721,678.9277524020708
784,0.0
785,0.0
848,0.0
849,0.0
1121,870.1219861587226
1135,232.85521438681562
1161,0.0
1163,170.52993371198372
1166,0.0
1168,0.0
2,3, 1,17, 0,10, 0.00,60.00,Wednesday
7,11.1
545,19.882003070184197
546,11.105806814140367
547,16.41266438648474
548,13.741714323236925
720,471.85202717025095
721,471.85202717025095
784,0.0
785,0.0
848,0.0
849,0.0
1121,615.3853365023755
1135,161.2875378289169
1161,0.0
1163,0.0
1166,0.0
1168,0.0
2,3, 1,17, 0,11, 0.00,60.00,Wednesday
7,12.2
545,20.19947834764017
546,14.216926694131713
547,16.352003481249067
548,0.0
720,-303.15848002949497
721,-303.15848002949497
784,0.0
785,0.0
848,0.0
849,0.0
1121,0.0
1135,0.0
1161,0.0
1163,0.0
1166,0.0
1168,0.0
2,3, 1,17, 0,12, 0.00,60.00,Wednesday
7,15.0
545,21.297433265779897
546,18.728712337282975
547,16.329503898137876
548,0.0
720,-1200.0355717284074
721,-1200.0355717284074
784,0.0
785,0.0
848,0.0
849,0.0
1121,0.0
1135,0.0
1161,0.0
1163,0.0
1166,0.0
1168,0.0
2,3, 1,17, 0,13, 0.00,60.00,Wednesday
7,16.1
545,22.232618063374854
546,21.757841700686267
547,16.335230596294586
548,0.0
720,-2002.1370546623293
721,-2002.1370546623293
784,0.0
785,0.0
848,0.0
849,0.0
1121,0.0
1135,0.0
1161,0.0
1163,0.0
1166,0.0
1168,0.0
2,3, 1,17, 0,14, 0.00,60.00,Wednesday
7,16.7
545,23.289779235620077
546,24.327236333269624
547,16.367616555203504
548,0.0
720,-2796.631393986916
721,-2796.631393986916
784,0.0
785,0.0
848,0.0
849,0.0
1121,0.0
1135,0.0
1161,0.0
1163,0.0
1166,0.0
1168,0.0
2,3, 1,17, 0,15, 0.00,60.00,Wednesday
7,16.7
545,23.359941042273682
546,23.73697687756011
547,16.471938977628483
548,15.082575979892791
720,-3406.713456053056
721,-3406.713456053056
784,0.0
785,0.0
848,0.0
849,0.0
1121,0.0
1135,0.0
1161,0.0
1163,0.0
1166,0.0
1168,0.0
2,3, 1,17, 0,16, 0.00,60.00,Wednesday
7,16.1
545,23.230937569945315
546,21.67229162322869
547,16.575946022641272
548,23.081400837776314
720,-3552.162919692748
721,-3552.162919692748
784,0.0
785,0.0
848,0.0
849,0.0
1121,0.0
1135,0.0
1161,0.0
1163,0.0
1166,0.0
1168,0.0
2,3, 1,17, 0,17, 0.00,60.00,Wednesday
7,13.9
545,23.170551853589995
546,18.60270722734129
547,16.662512000018232
548,22.990545902090982
720,-4131.865948400851
721,-4131.865948400851
784,0.0
785,0.0
848,0.0
849,0.0
1121,0.0
1135,0.0
1161,0.0
1163,0.0
1166,0.0
1168,0.0
2,3, 1,17, 0,18, 0.00,60.00,Wednesday
7,13.3
545,23.439710293849007
546,16.84788398566035
547,16.711436465232172
548,10.405065844123376
720,-3733.235627618704
721,-3733.235627618704
784,0.0
785,0.0
848,0.0
849,0.0
1121,0.0
1135,0.0
1161,0.0
1163,0.0
1166,0.0
1168,0.0
2,3, 1,17, 0,19, 0.00,60.00,Wednesday
7,13.3
545,23.384385024015252
546,15.366089540957844
547,16.78297220760865
548,13.454525484434601
720,-3369.5488065647587
721,-3369.5488065647587
784,0.0
785,0.0
848,0.0
849,0.0
1121,0.0
1135,0.0
1161,0.0
1163,0.0
1166,0.0
1168,0.0
2,3, 1,17, 0,20, 0.00,60.00,Wednesday
7,12.8
545,23.215827279130945
546,14.328517203808223
547,16.819434642400033
548,13.617031985646255
720,-3455.962916855102
721,-3455.962916855102
784,0.0
785,0.0
848,0.0
849,0.0
1121,0.0
1135,0.0
1161,0.0
1163,0.0
1166,0.0
1168,0.0
2,3, 1,17, 0,21, 0.00,60.00,Wednesday
7,12.2
545,23.293248634245458
546,13.380898898738053
547,16.816843767489207
548,7.30942647535274
720,-3293.934150873052
721,-3293.934150873052
784,0.0
785,0.0
848,0.0
849,0.0
1121,0.0
1135,0.0
1161,0.0
1163,0.0
1166,0.0
1168,0.0
2,3, 1,17, 0,22, 0.00,60.00,Wednesday
7,11.7
545,23.363243484434904
546,12.960851863937444
547,16.80106500734917
548,0.0
720,-2797.5886228267645
721,-2797.5886228267645
784,0.0
785,0.0
848,0.0
849,0.0
1121,0.0
1135,0.0
1161,0.0
1163,0.0
1166,0.0
1168,0.0
2,3, 1,17, 0,23, 0.00,60.00,Wednesday
7,11.7
545,22.96069882024994
546,12.607213536889507
547,16.795278802358816
548,0.0
720,-2924.450906325068
721,-2924.450906325068
784,0.0
785,0.0
848,0.0
849,0.0
1121,0.0
1135,0.0
1161,0.0
1163,0.0
1166,0.0
1168,0.0
2,3, 1,17, 0,24, 0.00,60.00,Wednesday
7,12.0
545,22.400614721187075
546,12.60457950501148
547,16.776232854294808
548,0.0
720,-2558.080050195609
721,-2558.080050195609
784,0.0
785,0.0
848,0.0
849,0.0
1121,0.0
1135,0.0
1161,0.0
1163,0.0
1166,0.0
1168,0.0
2,4, 1,18, 0, 1, 0.00,60.00,Thursday
7,11.1
545,22.178484460699824
546,11.922146291373682
547,16.75130504954305
548,0.0
720,-2363.265070006153
721,-2363.265070006153
784,0.0
785,0.0
848,0.0
849,0.0
1121,0.0
1135,0.0
1161,0.0
1163,0.0
1166,0.0
1168,0.0
2,4, 1,18, 0, 2, 0.00,60.00,Thursday
7,11.0
545,21.80209603474372
546,11.352630868598531
547,16.71826160048046
548,0.0
720,-1471.4272509302746
721,-1471.4272509302746
784,0.0
785,0.0
848,0.0
849,0.0
1121,0.0
1135,0.0
1161,0.0
1163,0.0
1166,0.0
1168,0.0
2,4, 1,18, 0, 3, 0.00,60.00,Thursday
7,11.0
545,21.29553004725354
546,10.951175529613748
547,16.68108062687568
548,0.0
720,-1132.1343063795557
721,-1132.1343063795557
784,0.0
785,0.0
848,0.0
849,0.0
1121,0.0
1135,0.0
1161,0.0
1163,0.0
1166,0.0
1168,0.0
2,4, 1,18, 0, 4, 0.00,60.00,Thursday
7,10.0
545,20.820968495891783
546,10.029483681058663
547,16.64212934499715
548,0.0
720,-935.1772242126972
721,-935.1772242126972
784,0.0
785,0.0
848,0.0
849,0.0
1121,0.0
1135,0.0
1161,0.0
1163,0.0
1166,0.0
1168,0.0
2,4, 1,18, 0, 5, 0.00,60.00,Thursday
7,9.0
545,20.31717812211775
546,8.832233161352525
547,16.59843340208741
548,0.0
720,-730.8439460309446
721,-730.8439460309446
784,0.0
785,0.0
848,0.0
849,0.0
1121,0.0
1135,0.0
1161,0.0
1163,200.0
1166,0.0
1168,0.0
2,4, 1,18, 0, 6, 0.00,60.00,Thursday
7,8.9
545,20.16261381708728
546,8.440448851179632
547,16.551859964448884
548,0.0
720,-201.4426257352943
721,-201.4426257352943
784,0.0
785,0.0
848,0.0
849,0.0
1121,0.0
1135,0.0
1161,0.0
1163,200.0
1166,0.0
1168,0.0
2,4, 1,18, 0, 7, 0.00,60.00,Thursday
7,8.9
545,20.064981571835474
546,8.409110366621928
547,16.502475648758914
548,0.0
720,-136.95331953516052
721,-136.95331953516052
784,0.0
785,0.0
848,0.0
849,0.0
1121,0.0
1135,0.0
1161,0.0
1163,200.0
1166,0.0
1168,0.0
2,4, 1,18, 0, 8, 0.00,60.00,Thursday
7,9.0
545,19.844169104208767
546,8.503090350596896
547,16.452541435551357
548,0.0
720,-67.95416884717088
721,-67.95416884717088
784,0.0
785,0.0
848,0.0
849,0.0
1121,0.0
1135,0.0
1161,0.0
1163,200.0
1166,0.0
1168,0.0
2,4, 1,18, 0, 9, 0.00,60.00,Thursday
7,10.0
545,19.709642966364722
546,9.323696052600296
547,16.402646037275737
548,0.7631849887851831
720,32.101742887800356
721,32.101742887800356
784,0.0
785,0.0
848,0.0
849,0.0
1121,32.915018517175504
1135,8.864712295698444
1161,0.0
1163,0.0
1166,0.0
1168,0.0
2,4, 1,18, 0,10, 0.00,60.00,Thursday
7,12.8
545,20.430457043506625
546,12.809518580289524
547,16.354405350219956
548,0.0
720,-297.69848011454815
721,-297.69848011454815
784,0.0
785,0.0
848,0.0
849,0.0
1121,0.0
1135,0.0
1161,0.0
1163,0.0
1166,0.0
1168,0.0
2,4, 1,18, 0,11, 0.00,60.00,Thursday
7,13.9
545,21.045242517380917
546,15.274347124099236
547,16.32078792654715
548,0.0
720,-991.2419735267849
721,-991.2419735267849
784,0.0
785,0.0
848,0.0
849,0.0
1121,0.0
1135,0.0
1161,0.0
1163,0.0
1166,0.0
1168,0.0
2,4, 1,18, 0,12, 0.00,60.00,Thursday
7,14.4
545,21.806445845151696
546,17.340705156426576
547,16.31069391000889
548,0.0
720,-1522.549074742099
721,-1522.549074742099
784,0.0
785,0.0
848,0.0
849,0.0
1121,0.0
1135,0.0
1161,0.0
1163,0.0
1166,0.0
1168,0.0
2,4, 1,18, 0,13, 0.00,60.00,Thursday
7,15.0
545,22.069270082950027
546,18.085589865976754
547,16.32318386141084
548,0.0
720,-1656.1233873457059
721,-1656.1233873457059
784,0.0
785,0.0
848,0.0
849,0.0
1121,0.0
1135,0.0
1161,0.0
1163,0.0
1166,0.0
1168,0.0
2,4, 1,18, 0,14, 0.00,60.00,Thursday
7,12.2
545,21.26611655118795
546,15.775685322400154
547,16.346699308535776
548,0.0
720,-1060.0997212856637
721,-1060.0997212856637
784,0.0
785,0.0
848,0.0
849,0.0
1121,0.0
1135,0.0
1161,0.0
1163,0.0
1166,0.0
1168,0.0
2,4, 1,18, 0,15, 0.00,60.00,Thursday
7,12.2
545,22.4917247549515
546,17.923414387265204
547,16.387117400853793
548,0.0
720,-2386.592433986749
721,-2386.592433986749
784,0.0
785,0.0
848,0.0
849,0.0
1121,0.0
1135,0.0
1161,0.0
1163,0.0
1166,0.0
1168,0.0
2,4, 1,18, 0,16, 0.00,60.00,Thursday
7,13.3
545,23.321582884208755
546,19.266008492186234
547,16.438830570113225
548,2.6596346470998258
720,-2411.9139025373697
721,-2411.9139025373697
784,0.0
785,0.0
848,0.0
849,0.0
1121,0.0
1135,0.0
1161,0.0
1163,0.0
1166,0.0
1168,0.0
2,4, 1,18, 0,17, 0.00,60.00,Thursday
7,12.2
545,23.313633012954
546,16.832798452465678
547,16.50308132235113
548,7.869753786415452
720,-2615.1531053371837
721,-2615.1531053371837
784,0.0
785,0.0
848,0.0
849,0.0
1121,0.0
1135,0.0
1161,0.0
1163,0.0
1166,0.0
1168,0.0
2,4, 1,18, 0,18, 0.00,60.00,Thursday
7,11.7
545,23.245086654188018
546,14.216352160908642
547,16.53389681182643
548,3.705573521696775
720,-2695.480579026831
721,-2695.480579026831
784,0.0
785,0.0
848,0.0
849,0.0
1121,0.0
1135,0.0
1161,0.0
1163,0.0
1166,0.0
1168,0.0
2,4, 1,18, 0,19, 0.00,60.00,Thursday
7,10.6
545,23.383526037252828
546,12.65951737384108
547,16.56419026533574
548,2.4807522836212206
720,-2533.2009017665205
721,-2533.2009017665205
784,0.0
785,0.0
848,0.0
849,0.0
1121,0.0
1135,0.0
1161,0.0
1163,0.0
1166,0.0
1168,0.0
2,4, 1,18, 0,20, 0.00,60.00,Thursday
7,10.0
545,23.344182796934682
546,11.34949373387844
547,16.58876547938485
548,4.896396198241039
720,-2432.6397965601755
721,-2432.6397965601755
784,0.0
785,0.0
848,0.0
849,0.0
1121,0.0
1135,0.0
1161,0.0
1163,0.0
1166,0.0
1168,0.0
2,4, 1,18, 0,21, 0.00,60.00,Thursday
7,10.0
545,23.3499815222356
546,9.723782161105264
547,16.583944786301466
548,3.3703622048886275
720,-2464.284886021045
721,-2464.284886021045
784,0.0
785,0.0
848,0.0
849,0.0
1121,0.0
1135,0.0
1161,0.0
1163,0.0
1166,0.0
1168,0.0
2,4, 1,18, 0,22, 0.00,60.00,Thursday
7,8.3
545,22.969199185486815
546,8.524444371696099
547,16.562119751755343
548,0.0
720,-2036.7660281378348
721,-2036.7660281378348
784,0.0
785,0.0
848,0.0
849,0.0
1121,0.0
1135,0.0
1161,0.0
1163,200.0
1166,0.0
1168,0.0
2,4, 1,18, 0,23, 0.00,60.00,Thursday
7,8.3
545,22.468778117273896
546,8.235417861123699
547,16.54130587111717
548,0.0
720,-2427.014652744333
721,-2427.014652744333
784,0.0
785,0.0
848,0.0
849,0.0
1121,0.0
1135,0.0
1161,0.0
1163,200.0
1166,0.0
1168,0.0
2,4, 1,18, 0,24, 0.00,60.00,Thursday
7,7.8
545,21.77878591108281
546,7.084949508146399
547,16.509791985262336
548,0.0
720,-1961.4027350326205
721,-1961.4027350326205
784,0.0
785,0.0
848,0.0
849,0.0
1121,0.0
1135,0.0
1161,0.0
1163,200.0
1166,0.0
1168,0.0
2,5, 1,19, 0, 1, 0.00,60.00,Friday
7,8.0
545,21.169365351519847
546,5.8300219993500315
547,16.46816940188785
548,0.0
720,-1609.4051038432062
721,-1609.4051038432062
784,0.0
785,0.0
848,0.0
849,0.0
1121,0.0
1135,0.0
1161,0.0
1163,200.0
1166,0.0
1168,0.0
2,5, 1,19, 0, 2, 0.00,60.00,Friday
7,6.7
545,20.449624311110178
546,4.8574255765063
547,16.417220253273427
548,0.0
720,-1098.1849128215745
721,-1098.1849128215745
784,0.0
785,0.0
848,0.0
849,0.0
1121,0.0
1135,0.0
1161,0.0
1163,200.0
1166,0.0
1168,0.0
2,5, 1,19, 0, 3, 0.00,60.00,Friday
7,5.6
545,19.742381572368725
546,3.7339538756998003
547,16.35953271270065
548,0.0
720,-708.7793407696372
721,-708.7793407696372
784,0.0
785,0.0
848,0.0
849,0.0
1121,0.0
1135,0.0
1161,0.0
1163,200.0
1166,0.0
1168,0.0
2,5, 1,19, 0, 4, 0.00,60.00,Friday
7,5.6
545,19.18601961595793
546,2.8013451787164296
547,16.296072128408245
548,0.0
720,-367.6439122679367
721,-367.6439122679367
784,0.0
785,0.0
848,0.0
849,0.0
1121,0.0
1135,0.0
1161,0.0
1163,200.0
1166,0.0
1168,0.0
2,5, 1,19, 0, 5, 0.00,60.00,Friday
7,5.0
545,18.696297336088143
546,2.033835800725383
547,16.227613474079035
548,0.0
720,-50.66092507752546
721,-50.66092507752546
784,0.0
785,0.0
848,0.0
849,0.0
1121,0.0
1135,0.0
1161,0.0
1163,200.0
1166,0.0
1168,0.0
2,5, 1,19, 0, 6, 0.00,60.00,Friday
7,4.4
545,19.37779663923286
546,3.3345485161966417
547,16.166141788729195
548,35.017175996770504
720,798.7242326620662
721,798.7242326620662
784,0.0
785,0.0
848,0.0
849,0.0
1121,1023.6025563689861
1135,309.38771115957167
1161,33.85186907698868
1163,149.09044865620388
1166,0.0
1168,0.0
2,5, 1,19, 0, 7, 0.00,60.00,Friday
7,5.6
545,19.732852103699155
546,3.0501875216354315
547,16.10871225719103
548,34.4668312575442
720,1043.776817929689
721,1043.776817929689
784,0.0
785,0.0
848,0.0
849,0.0
1121,1372.4258959797542
1135,377.6053929334881
1161,0.0
1163,150.1677121706852
1166,0.0
1168,0.0
2,5, 1,19, 0, 8, 0.00,60.00,Friday
7,6.1
545,19.760619944902288
546,3.628235565885581
547,16.038269760824754
548,28.036243373970812
720,818.5090137759289
721,818.5090137759289
784,0.0
785,0.0
848,0.0
849,0.0
1121,1122.9492889097605
1135,310.8167593133802
1161,0.0
1163,159.46508284951116
1166,0.0
1168,0.0
2,5, 1,19, 0, 9, 0.00,60.00,Friday
7,8.9
545,19.734072503939856
546,7.3607236524891055
547,15.95455301409449
548,8.438858789049442
720,219.89880245324275
721,219.89880245324275
784,0.0
785,0.0
848,0.0
849,0.0
1121,356.6725710097959
1135,96.54929468655509
1161,0.0
1163,187.79906290240106
1166,0.0