Program Version,EnergyPlus, Version 22.2.0-c249759bad, YMD=2023.07.07 15:16
1,5,Environment Title[],Latitude[deg],Longitude[deg],Time Zone[],Elevation[m]
2,8,Day of Simulation[],Month[],Day of Month[],DST Indicator[1=yes 0=no],Hour[],StartMinute[],EndMinute[],DayType
3,5,Cumulative Day of Simulation[],Month[],Day of Month[],DST Indicator[1=yes 0=no],DayType  ! When Daily Report Variables Requested
4,2,Cumulative Days of Simulation[],Month[]  ! When Monthly Report Variables Requested
5,1,Cumulative Days of Simulation[] ! When Run Period Report Variables Requested
6,1,Calendar Year of Simulation[] ! When Annual Report Variables Requested
581,11,LIVING,AFN Zone Infiltration Air Change Rate [ach] !RunPeriod [Value,Min,Month,Day,Hour,Minute,Max,Month,Day,Hour,Minute]
582,11,ATTIC,AFN Zone Infiltration Air Change Rate [ach] !RunPeriod [Value,Min,Month,Day,Hour,Minute,Max,Month,Day,Hour,Minute]
583,11,CRAWLSPACE,AFN Zone Infiltration Air Change Rate [ach] !RunPeriod [Value,Min,Month,Day,Hour,Minute,Max,Month,Day,Hour,Minute]
1038,11,Facility,Facility Heating Setpoint Not Met Time [hr] !RunPeriod [Value,Min,Month,Day,Hour,Minute,Max,Month,Day,Hour,Minute]
1039,11,Facility,Facility Cooling Setpoint Not Met Time [hr] !RunPeriod [Value,Min,Month,Day,Hour,Minute,Max,Month,Day,Hour,Minute]
1115,11,DX_HEATING_COIL,Heating Coil Heating Energy [J] !RunPeriod [Value,Min,Month,Day,Hour,Minute,Max,Month,Day,Hour,Minute]
1128,11,DX_HEATING_COIL,Heating Coil Electricity Energy [J] !RunPeriod [Value,Min,Month,Day,Hour,Minute,Max,Month,Day,Hour,Minute]
1153,11,DX_HEATING_COIL,Heating Coil Defrost Electricity Energy [J] !RunPeriod [Value,Min,Month,Day,Hour,Minute,Max,Month,Day,Hour,Minute]
1154,11,DX_HEATING_COIL,Heating Coil Crankcase Heater Electricity Energy [J] !RunPeriod [Value,Min,Month,Day,Hour,Minute,Max,Month,Day,Hour,Minute]
1156,11,HEATING_RESISTANCE_BACKUP,Heating Coil Electricity Energy [J] !RunPeriod [Value,Min,Month,Day,Hour,Minute,Max,Month,Day,Hour,Minute]
13,11,Electricity:Facility [J] !RunPeriod [Value,Min,Month,Day,Hour,Minute,Max,Month,Day,Hour,Minute]
1134,11,Heating:Electricity [J] !RunPeriod [Value,Min,Month,Day,Hour,Minute,Max,Month,Day,Hour,Minute]
1096,11,Cooling:Electricity [J] !RunPeriod [Value,Min,Month,Day,Hour,Minute,Max,Month,Day,Hour,Minute]
562,11,Fans:Electricity [J] !RunPeriod [Value,Min,Month,Day,Hour,Minute,Max,Month,Day,Hour,Minute]
1388,11,Pumps:Electricity [J] !RunPeriod [Value,Min,Month,Day,Hour,Minute,Max,Month,Day,Hour,Minute]
1360,11,WaterSystems:Electricity [J] !RunPeriod [Value,Min,Month,Day,Hour,Minute,Max,Month,Day,Hour,Minute]
61,11,InteriorLights:Electricity [J] !RunPeriod [Value,Min,Month,Day,Hour,Minute,Max,Month,Day,Hour,Minute]
1046,11,ExteriorLights:Electricity [J] !RunPeriod [Value,Min,Month,Day,Hour,Minute,Max,Month,Day,Hour,Minute]
134,11,InteriorEquipment:Electricity [J] !RunPeriod [Value,Min,Month,Day,Hour,Minute,Max,Month,Day,Hour,Minute]
170,11,gas_dryer:InteriorEquipment:Electricity [J] !RunPeriod [Value,Min,Month,Day,Hour,Minute,Max,Month,Day,Hour,Minute]
207,11,clotheswasher:InteriorEquipment:Electricity [J] !RunPeriod [Value,Min,Month,Day,Hour,Minute,Max,Month,Day,Hour,Minute]
244,11,dishwasher:InteriorEquipment:Electricity [J] !RunPeriod [Value,Min,Month,Day,Hour,Minute,Max,Month,Day,Hour,Minute]
281,11,refrigerator:InteriorEquipment:Electricity [J] !RunPeriod [Value,Min,Month,Day,Hour,Minute,Max,Month,Day,Hour,Minute]
318,11,electric_mels:InteriorEquipment:Electricity [J] !RunPeriod [Value,Min,Month,Day,Hour,Minute,Max,Month,Day,Hour,Minute]
355,11,NaturalGas:Facility [J] !RunPeriod [Value,Min,Month,Day,Hour,Minute,Max,Month,Day,Hour,Minute]
1323,11,WaterSystems:NaturalGas [J] !RunPeriod [Value,Min,Month,Day,Hour,Minute,Max,Month,Day,Hour,Minute]
403,11,InteriorEquipment:NaturalGas [J] !RunPeriod [Value,Min,Month,Day,Hour,Minute,Max,Month,Day,Hour,Minute]
476,11,gas_dryer:InteriorEquipment:NaturalGas [J] !RunPeriod [Value,Min,Month,Day,Hour,Minute,Max,Month,Day,Hour,Minute]
513,11,gas_mels:InteriorEquipment:NaturalGas [J] !RunPeriod [Value,Min,Month,Day,Hour,Minute,Max,Month,Day,Hour,Minute]
End of Data Dictionary
1,EXTREME_WINTER,  42.36, -71.01,  -5.00,   3.70
5,7
1038,1.6666666666666665,0.0, 1,27, 1,10,0.16666666666666666, 1,29, 6,10
1039,0.0,0.0, 1,27, 1,10,0.0, 1,27, 1,10
581,0.42883812458724985,0.19377919035554936, 1,27,23,60,0.8925093466782709, 1,28,24,53
582,9.556570571123977,2.246559198724374, 1,30,18,20,21.77763082756265, 1,29, 8,60
583,9.913879908361443,2.671296753111779, 1,27,24,50,25.098792034640557, 1,28,24,53
1115,1793799032.9708483,0.0, 1,27,11, 5,2717627.0671875244, 2, 1, 1,60
1128,578507074.8860116,0.0, 1,27,11, 5,786963.8748867346, 2, 1,10,10
1153,2527212.311632896,0.0, 1,27,11, 5,38509.35740026989, 1,28,19,60
1154,28466392.876397256,0.0, 1,27, 6, 2,120000.0, 1,27,11,50
1156,889051514.2328397,0.0, 1,27, 1, 3,4133093.9352388717, 1,30, 6,10
13,1939009454.23774,306324.6925987483, 1,27,15,10,5377018.301478016, 1,30, 7,30
61,301924526.0238348,58759.40635443481, 1,27, 1,10,854682.2742463244, 1,27,20,10
134,70666020.44019979,42376.01200569399, 1,27, 4,10,104369.48322671017, 2, 1,20,10
170,5241013.419656074,232.27731661587313, 1,27, 4,10,11650.931360040839, 2, 1,12,10
207,6509451.13922266,543.5021409221355, 1,27, 3,10,15327.095199349082, 2, 1,10,10
244,12749673.39982522,1014.5707620042115, 1,27, 4,10,35359.08742820678, 2, 1,20,10
281,46165882.48149605,39959.06841621388, 1,27, 5,10,54634.54471212738, 1,27,19,10
318,0.0,0.0, 1,27, 1,10,0.0, 1,27, 1,10
355,744537763.4859618,12374.216038804521, 1,27, 4,10,3829218.154066982, 1,28,18,60
403,197687796.27748126,12374.216038804521, 1,27, 4,10,483183.26346918393, 2, 1,18,10
476,106772067.24485692,4732.048419519677, 1,27, 4,10,237357.535085481, 2, 1,12,10
513,0.0,0.0, 1,27, 1,10,0.0, 1,27, 1,10
562,62846873.466826074,0.0, 1,27,11,10,81576.44009442006, 1,28, 6,30
1046,0.0,0.0, 1,27, 1,10,0.0, 1,27, 1,10
1096,0.0,0.0, 1,27, 1,10,0.0, 1,27, 1,10
1134,1498552194.3068814,120000.0, 1,27,11,10,4849296.546377696, 1,29, 6,10
1323,546849967.2084777,0.0, 1,27, 1,10,3375000.000000001, 1,31,19,40
1360,5019840.0,4980.0, 1,27, 1,20,4980.000000000001, 1,27, 1,10
1388,0.0,0.0, 1,27, 1,10,0.0, 1,27, 1,10
1,EXTREME_SUMMER,  42.36, -71.01,  -5.00,   3.70
5,7
1038,0.0,0.0, 7,13, 1,10,0.0, 7,13, 1,10
1039,34.0,0.0, 7,13, 1,10,0.16666666666666666, 7,13,17,50
581,0.16264448564053757,0.0, 7,15, 3,30,0.6389012478690147, 7,14,12,60
582,4.3446151056784945,0.02429547448108752, 7,15, 1,50,13.862889750547792, 7,14,12,60
583,5.048062738228261,0.0001461809766812806, 7,16, 6, 7,19.048500331084423, 7,14,12,60
1115,0.0,0.0, 7,13, 1,10,0.0, 7,13, 1,10
1128,0.0,0.0, 7,13, 1,10,0.0, 7,13, 1,10
1153,0.0,0.0, 7,13, 1,10,0.0, 7,13, 1,10
1154,0.0,0.0, 7,13, 1,10,0.0, 7,13, 1,10
1156,0.0,0.0, 7,13, 1,10,0.0, 7,13, 1,10
13,892372872.3609718,125806.32932715556, 7,14, 4,60,1861690.789707177, 7,19,20,10
61,301924526.0238348,58759.40635443481, 7,13, 1,10,854682.2742463244, 7,13,20,10
134,70666020.44019979,42376.01200569399, 7,13, 4,10,104369.48322671017, 7,18,20,10
170,5241013.419656074,232.27731661587313, 7,13, 4,10,11650.931360040839, 7,18,12,10
207,6509451.13922266,543.5021409221355, 7,13, 3,10,15327.095199349082, 7,18,10,10
244,12749673.39982522,1014.5707620042115, 7,13, 4,10,35359.08742820678, 7,18,20,10
281,46165882.48149605,39959.06841621388, 7,13, 5,10,54634.54471212738, 7,13,19,10
318,0.0,0.0, 7,13, 1,10,0.0, 7,13, 1,10
355,643036128.2649467,12374.216038804521, 7,13, 4,10,3829218.154066982, 7,14,18,60
403,197687796.27748126,12374.216038804521, 7,13, 4,10,483183.26346918393, 7,18,18,10
476,106772067.24485692,4732.048419519677, 7,13, 4,10,237357.535085481, 7,18,12,10
513,0.0,0.0, 7,13, 1,10,0.0, 7,13, 1,10
562,51037928.893172234,2106.088370841396, 7,14, 4,60,81576.44009442006, 7,13,17,10
1046,0.0,0.0, 7,13, 1,10,0.0, 7,13, 1,10
1096,463724557.0037639,17584.82259618537, 7,14, 4,60,853659.426536949, 7,19,17,60
1134,0.0,0.0, 7,13, 1,10,0.0, 7,13, 1,10
1323,445348331.9874641,0.0, 7,13, 1,10,3375000.0000000005, 7,15, 9,50
1360,5019840.0,4980.0, 7,13, 1,10,4980.000000000001, 7,13, 7,20
1388,0.0,0.0, 7,13, 1,10,0.0, 7,13, 1,10
1,ANNUAL,  42.36, -71.01,  -5.00,   3.70
5,365
1038,59.66666666666662,0.0, 1, 1, 1,10,0.16666666666666666, 1, 3, 6,10
1039,372.00000000000006,0.0, 1, 1, 1,10,0.16666666666666666, 4,16,11,50
581,0.2872677428457965,0.0, 6,24,22,25,1.3341374670031019, 2, 8,21,60
582,6.177501110583593,0.0, 1,19, 6, 2,34.6631193283769,12,28, 4,60
583,6.872345699457293,0.0, 8,21,23, 3,37.847766325806155, 2, 8,21,40
1115,28783726741.879063,0.0, 1, 1,23, 3,3687907.9623974967,12,28, 6,60
1128,8534671330.274828,0.0, 1, 1,23, 3,888668.8277171567,12,28, 8,10
1153,270503979.11559117,0.0, 1, 1,23, 3,88815.94029946368, 2,27,10,60
1154,1496759578.8505077,0.0, 1, 1, 6, 2,120000.0, 1, 7,13,50
1156,5267970726.796531,0.0, 1, 1, 1, 1,4133093.9352388717, 1,29, 7,60
13,44078846579.42788,106115.4183601288, 4,14, 4,10,5406289.668063798, 2, 9, 7,40
61,15743207428.39043,58759.40635443481, 1, 1, 1,10,854682.2742463244, 1, 1,20,10
134,3685071073.433083,42376.01200569399, 1, 2, 4,10,104369.48322671017, 1, 1,20,10
170,273393721.45534325,232.27731661587313, 1, 2, 4,10,11650.931360040839, 1, 1,12,10
207,339560869.06955314,543.5021409221355, 1, 2, 3,10,15327.095199349082, 1, 1,10,10
244,664895467.8009839,1014.5707620042115, 1, 2, 4,10,35359.08742820678, 1, 1,20,10
281,2407221015.1057043,39959.06841621388, 1, 1, 5,10,54634.54471212738, 1, 1,19,10
318,0.0,0.0, 1, 1, 1,10,0.0, 1, 1, 1,10
355,35758136524.87913,12374.216038804521, 1, 2, 4,10,3829218.154066984,11, 7,18,60
403,10310294493.052883,12374.216038804521, 1, 2, 4,10,483183.26346918393, 1, 1,18,10
476,5569688622.065564,4732.048419519677, 1, 2, 4,10,237357.535085481, 1, 1,12,10
513,0.0,0.0, 1, 1, 1,10,0.0, 1, 1, 1,10
562,1731378086.0608187,0.0, 1, 1,23,10,81576.44009442006, 1, 1, 6,30
1046,0.0,0.0, 1, 1, 1,10,0.0, 1, 1, 1,10
1096,7087535576.513017,0.0, 1, 1, 1,10,884274.7667126231, 7,20,15,60
1134,15569905615.037401,0.0, 1,25,23,10,4856705.319695884, 1, 3, 6,20
1323,25447842031.830196,0.0, 1, 1, 1,10,3375000.000000002, 5, 9,20,30
1360,261748800.0,4979.999999999998, 6, 5,15,30,4980.000000000002, 1,23,17,20
1388,0.0,0.0, 1, 1, 1,10,0.0, 1, 1, 1,10
End of Data
 Number of Records Written=          87
