Program Version,EnergyPlus, Version 22.2.0-c249759bad, YMD=2023.09.01 15:53
1,5,Environment Title[],Latitude[deg],Longitude[deg],Time Zone[],Elevation[m]
2,8,Day of Simulation[],Month[],Day of Month[],DST Indicator[1=yes 0=no],Hour[],StartMinute[],EndMinute[],DayType
3,5,Cumulative Day of Simulation[],Month[],Day of Month[],DST Indicator[1=yes 0=no],DayType  ! When Daily Report Variables Requested
4,2,Cumulative Days of Simulation[],Month[]  ! When Monthly Report Variables Requested
5,1,Cumulative Days of Simulation[] ! When Run Period Report Variables Requested
6,1,Calendar Year of Simulation[] ! When Annual Report Variables Requested
581,11,LIVING,AFN Zone Infiltration Air Change Rate [ach] !RunPeriod [Value,Min,Month,Day,Hour,Minute,Max,Month,Day,Hour,Minute]
582,11,ATTIC,AFN Zone Infiltration Air Change Rate [ach] !RunPeriod [Value,Min,Month,Day,Hour,Minute,Max,Month,Day,Hour,Minute]
583,11,CRAWLSPACE,AFN Zone Infiltration Air Change Rate [ach] !RunPeriod [Value,Min,Month,Day,Hour,Minute,Max,Month,Day,Hour,Minute]
1038,11,Facility,Facility Heating Setpoint Not Met Time [hr] !RunPeriod [Value,Min,Month,Day,Hour,Minute,Max,Month,Day,Hour,Minute]
1039,11,Facility,Facility Cooling Setpoint Not Met Time [hr] !RunPeriod [Value,Min,Month,Day,Hour,Minute,Max,Month,Day,Hour,Minute]
1115,11,DX_HEATING_COIL,Heating Coil Heating Energy [J] !RunPeriod [Value,Min,Month,Day,Hour,Minute,Max,Month,Day,Hour,Minute]
1128,11,DX_HEATING_COIL,Heating Coil Electricity Energy [J] !RunPeriod [Value,Min,Month,Day,Hour,Minute,Max,Month,Day,Hour,Minute]
1153,11,DX_HEATING_COIL,Heating Coil Defrost Electricity Energy [J] !RunPeriod [Value,Min,Month,Day,Hour,Minute,Max,Month,Day,Hour,Minute]
1154,11,DX_HEATING_COIL,Heating Coil Crankcase Heater Electricity Energy [J] !RunPeriod [Value,Min,Month,Day,Hour,Minute,Max,Month,Day,Hour,Minute]
1155,11,HEATING_RESISTANCE_BACKUP,Heating Coil Heating Energy [J] !RunPeriod [Value,Min,Month,Day,Hour,Minute,Max,Month,Day,Hour,Minute]
1156,11,HEATING_RESISTANCE_BACKUP,Heating Coil Electricity Energy [J] !RunPeriod [Value,Min,Month,Day,Hour,Minute,Max,Month,Day,Hour,Minute]
1292,11,WATER HEATER,Water Heater Heat Loss Energy [J] !RunPeriod [Value,Min,Month,Day,Hour,Minute,Max,Month,Day,Hour,Minute]
1306,11,WATER HEATER,Water Heater Heating Energy [J] !RunPeriod [Value,Min,Month,Day,Hour,Minute,Max,Month,Day,Hour,Minute]
1307,11,WATER HEATER,Water Heater Unmet Demand Heat Transfer Energy [J] !RunPeriod [Value,Min,Month,Day,Hour,Minute,Max,Month,Day,Hour,Minute]
1308,11,WATER HEATER,Water Heater Electricity Energy [J] !RunPeriod [Value,Min,Month,Day,Hour,Minute,Max,Month,Day,Hour,Minute]
13,11,Electricity:Facility [J] !RunPeriod [Value,Min,Month,Day,Hour,Minute,Max,Month,Day,Hour,Minute]
1134,11,Heating:Electricity [J] !RunPeriod [Value,Min,Month,Day,Hour,Minute,Max,Month,Day,Hour,Minute]
1096,11,Cooling:Electricity [J] !RunPeriod [Value,Min,Month,Day,Hour,Minute,Max,Month,Day,Hour,Minute]
562,11,Fans:Electricity [J] !RunPeriod [Value,Min,Month,Day,Hour,Minute,Max,Month,Day,Hour,Minute]
1379,11,Pumps:Electricity [J] !RunPeriod [Value,Min,Month,Day,Hour,Minute,Max,Month,Day,Hour,Minute]
1326,11,WaterSystems:Electricity [J] !RunPeriod [Value,Min,Month,Day,Hour,Minute,Max,Month,Day,Hour,Minute]
61,11,InteriorLights:Electricity [J] !RunPeriod [Value,Min,Month,Day,Hour,Minute,Max,Month,Day,Hour,Minute]
1046,11,ExteriorLights:Electricity [J] !RunPeriod [Value,Min,Month,Day,Hour,Minute,Max,Month,Day,Hour,Minute]
134,11,InteriorEquipment:Electricity [J] !RunPeriod [Value,Min,Month,Day,Hour,Minute,Max,Month,Day,Hour,Minute]
170,11,gas_dryer:InteriorEquipment:Electricity [J] !RunPeriod [Value,Min,Month,Day,Hour,Minute,Max,Month,Day,Hour,Minute]
207,11,clotheswasher:InteriorEquipment:Electricity [J] !RunPeriod [Value,Min,Month,Day,Hour,Minute,Max,Month,Day,Hour,Minute]
244,11,dishwasher:InteriorEquipment:Electricity [J] !RunPeriod [Value,Min,Month,Day,Hour,Minute,Max,Month,Day,Hour,Minute]
281,11,refrigerator:InteriorEquipment:Electricity [J] !RunPeriod [Value,Min,Month,Day,Hour,Minute,Max,Month,Day,Hour,Minute]
318,11,electric_mels:InteriorEquipment:Electricity [J] !RunPeriod [Value,Min,Month,Day,Hour,Minute,Max,Month,Day,Hour,Minute]
355,11,NaturalGas:Facility [J] !RunPeriod [Value,Min,Month,Day,Hour,Minute,Max,Month,Day,Hour,Minute]
403,11,InteriorEquipment:NaturalGas [J] !RunPeriod [Value,Min,Month,Day,Hour,Minute,Max,Month,Day,Hour,Minute]
476,11,gas_dryer:InteriorEquipment:NaturalGas [J] !RunPeriod [Value,Min,Month,Day,Hour,Minute,Max,Month,Day,Hour,Minute]
513,11,gas_mels:InteriorEquipment:NaturalGas [J] !RunPeriod [Value,Min,Month,Day,Hour,Minute,Max,Month,Day,Hour,Minute]
End of Data Dictionary
1,EXTREME_WINTER,  40.78,-111.97,  -7.00,1287.80
5,7
1038,0.25,0.0, 1, 6, 1,15,0.25, 1,11, 6,15
1039,0.0,0.0, 1, 6, 1,15,0.0, 1, 6, 1,15
581,0.36227265900947997,0.22149349840140528, 1,12,23, 7,0.5178139094467954, 1,11, 3,30
582,1.7840583111523838,0.0, 1,11,23,11,5.554110460083539, 1,11, 7,52
583,0.06593774863267464,0.00036923621597534194, 1,12,23, 7,0.1004917169078133, 1, 6, 8,60
1115,1974375312.2096858,0.0, 1, 6,15,20,4657721.173873087, 1,12,10,45
1128,709648507.8647742,0.0, 1, 6,15,20,1593835.153011923, 1,12, 6,45
1153,23198902.559304148,0.0, 1, 6,15,20,92648.90140332308, 1, 9, 7,60
1154,37781989.06647793,0.0, 1, 6, 3,15,180000.0, 1, 7,15,15
1155,215770957.40302372,0.0, 1, 6, 1,15,3230955.0003809407, 1,11, 6,45
1156,215770957.40302372,0.0, 1, 6, 1,15,3230955.0003809407, 1,11, 6,45
1292,-25390177.051762167,-39777.513071724905, 1, 6, 1,15,-5179.053706148613, 1, 9,12,60
1306,240961860.57140905,0.0, 1, 6, 1,15,10396419.103857262, 1,12, 9,45
1307,6674857.892543564,0.0, 1, 6, 1,15,5915331.012999677, 1,12,19,60
1308,240961860.57140905,0.0, 1, 6, 1,15,10396419.103857262, 1,12, 9,45
13,1679632969.3687925,452017.0388981225, 1, 6,15,30,13332376.791350156, 1,12, 9,45
61,301924526.02383536,88139.10953165221, 1, 6, 1,15,1282023.4113694867, 1, 6,20,15
134,70666020.44019976,63564.01800854099, 1, 6, 4,15,156554.22484006523, 1,11,20,15
170,5241013.419656067,348.4159749238097, 1, 6, 4,15,17476.39704006126, 1,11,12,15
207,6509451.13922267,815.2532113832032, 1, 6, 3,15,22990.642799023623, 1,11,10,15
244,12749673.399825225,1521.856143006317, 1, 6, 4,15,53038.631142310165, 1,11,20,15
281,46165882.481495745,59938.60262432081, 1, 6, 5,15,81951.81706819107, 1, 6,19,15
318,0.0,0.0, 1, 6, 1,15,0.0, 1, 6, 1,15
355,197687796.27748066,18561.32405820678, 1, 6, 4,15,724774.895203776, 1,11,18,15
403,197687796.27748066,18561.32405820678, 1, 6, 4,15,724774.895203776, 1,11,18,15
476,106772067.24485716,7098.072629279515, 1, 6, 4,15,356036.3026282215, 1,11,12,15
513,0.0,0.0, 1, 6, 1,15,0.0, 1, 6, 1,15
562,79680205.43976787,0.0, 1, 6,15,30,173361.22592501505, 1, 6, 3,15
1046,0.0,0.0, 1, 6, 1,15,0.0, 1, 6, 1,15
1096,0.0,0.0, 1, 6, 1,15,0.0, 1, 6, 1,15
1134,986400356.8935801,180000.0, 1, 6,15,30,5398673.272483093, 1,11, 6,15
1326,240961860.571409,0.0, 1, 6, 1,15,10396419.103857262, 1,12, 9,45
1379,0.0,0.0, 1, 6, 1,15,0.0, 1, 6, 1,15
1,EXTREME_SUMMER,  40.78,-111.97,  -7.00,1287.80
5,7
1038,0.0,0.0, 7,13, 1,15,0.0, 7,13, 1,15
1039,9.25,0.0, 7,13, 1,15,0.25, 7,13,18,30
581,0.1778423648777141,0.0, 7,13, 6, 7,1.3323747099071837, 7,14,19,47
582,3.7535868876728324,0.08826347022477467, 7,14, 2,22,23.107418586877824, 7,14,19,47
583,0.049470037718872005,0.0, 7,13, 6, 7,0.11600629472778175, 7,14,19,47
1115,0.0,0.0, 7,13, 1, 7,0.0, 7,13, 1, 7
1128,0.0,0.0, 7,13, 1, 7,0.0, 7,13, 1, 7
1153,0.0,0.0, 7,13, 1, 7,0.0, 7,13, 1, 7
1154,0.0,0.0, 7,13, 1, 7,0.0, 7,13, 1, 7
1155,0.0,0.0, 7,13, 1, 7,0.0, 7,13, 1, 7
1156,0.0,0.0, 7,13, 1, 7,0.0, 7,13, 1, 7
1292,-22074970.613056555,-34321.69561264113, 7,16,15,30,-2856.151715404356, 7,17,10,60
1306,170629662.9457288,0.0, 7,13, 1, 7,3876895.778126982, 7,13,14,30
1307,1125964.0754226104,0.0, 7,13, 1, 7,237765.72293105596, 7,19,19,51
1308,170629662.9457288,0.0, 7,13, 1, 7,3876895.778126982, 7,13,14,30
13,1233510971.5309136,220237.58141923393, 7,17, 4,60,13237222.180113941, 7,19,19,60
61,301924526.02383536,88139.10953165221, 7,13, 1,15,1282023.4113694867, 7,13,20,15
134,70666020.44019976,63564.01800854099, 7,13, 4,15,156554.22484006523, 7,18,20,15
170,5241013.419656067,348.4159749238097, 7,13, 4,15,17476.39704006126, 7,18,12,15
207,6509451.13922267,815.2532113832032, 7,13, 3,15,22990.642799023623, 7,18,10,15
244,12749673.399825225,1521.856143006317, 7,13, 4,15,53038.631142310165, 7,18,20,15
281,46165882.481495745,59938.60262432081, 7,13, 5,15,81951.81706819107, 7,13,19,15
318,0.0,0.0, 7,13, 1,15,0.0, 7,13, 1,15
355,197687796.27748066,18561.32405820678, 7,13, 4,15,724774.895203776, 7,18,18,15
403,197687796.27748066,18561.32405820678, 7,13, 4,15,724774.895203776, 7,18,18,15
476,106772067.24485716,7098.072629279515, 7,13, 4,15,356036.3026282215, 7,18,12,15
513,0.0,0.0, 7,13, 1,15,0.0, 7,13, 1,15
562,63450980.5574352,5123.7434976017685, 7,17, 5,60,173361.22592501505, 7,13,17,30
1046,0.0,0.0, 7,13, 1,15,0.0, 7,13, 1,15
1096,626839781.5637159,39245.34858495739, 7,17, 5,60,2034106.904401529, 7,14,14,60
1134,0.0,0.0, 7,13, 1,15,0.0, 7,13, 1,15
1326,170629662.94572884,0.0, 7,13, 1,15,9982954.733963806, 7,19,19,60
1379,0.0,0.0, 7,13, 1,15,0.0, 7,13, 1,15
1,ANNUAL,  40.78,-111.97,  -7.00,1287.80
5,365
1038,1.0,0.0, 1, 1, 1,15,0.25, 1, 1, 6,15
1039,98.0,0.0, 1, 1, 1,15,0.25, 2, 3,16,30
581,0.2606754729432211,0.0, 7, 6,23, 3,1.34043617564617, 7,14,19,47
582,3.506162394999232,0.0, 1, 2, 5,60,36.938901374224294, 8, 7,19,46
583,0.03122679540863398,0.0, 7, 6,23, 3,0.12050451126740096, 7,14,19,47
1115,22394267474.256363,0.0, 1, 1,16,22,5216788.066650732, 2,15, 9,30
1128,7411675496.619031,0.0, 1, 1,16,22,1662169.663766285, 2,15, 9,15
1153,319491121.6704163,0.0, 1, 1,16,22,136053.07239465902, 1,31, 6,45
1154,2021048752.229351,0.0, 1, 1, 1, 7,180000.0, 1, 1,16,60
1155,980283765.0221083,0.0, 1, 1,12,20,3437769.202399445,12,28, 6,45
1156,980283765.0221083,0.0, 1, 1,12,20,3437769.202399445,12,28, 6,45
1292,-1225077671.808884,-39792.91675043468,10,27, 5,45,-2236.363212713908, 8,11,17,45
1306,10809605635.20137,0.0, 1, 1, 1, 7,10399583.874835623, 1,15, 9,45
1307,206919069.1295888,0.0, 1, 1, 1, 7,6178362.551606802, 1, 8,19,60
1308,10809605635.20137,0.0, 1, 1, 1, 7,10399583.874835623, 1,15, 9,45
13,52822943261.5338,151703.1275401932, 3,15, 4,60,14146320.998874854, 1, 1, 9,45
61,15743207428.383959,88139.10953165221, 1, 1, 1,15,1282023.4113694867, 1, 1,20,15
134,3685071073.4325233,63564.01800854099, 1, 2, 4,15,156554.22484006523, 1, 1,20,15
170,273393721.45532674,348.4159749238097, 1, 2, 4,15,17476.39704006126, 1, 1,12,15
207,339560869.0695816,815.2532113832032, 1, 2, 3,15,22990.642799023623, 1, 1,10,15
244,664895467.8009144,1521.856143006317, 1, 2, 4,15,53038.631142310165, 1, 1,20,15
281,2407221015.106824,59938.60262432081, 1, 1, 5,15,81951.81706819107, 1, 1,19,15
318,0.0,0.0, 1, 1, 1,15,0.0, 1, 1, 1,15
355,10310294493.051695,18561.32405820678, 1, 2, 4,15,724774.895203776, 1, 1,18,15
403,10310294493.051695,18561.32405820678, 1, 2, 4,15,724774.895203776, 1, 1,18,15
476,5569688622.066177,7098.072629279515, 1, 2, 4,15,356036.3026282215, 1, 1,12,15
513,0.0,0.0, 1, 1, 1,15,0.0, 1, 1, 1,15
562,1940983529.810411,0.0, 1, 1,16,60,173361.22592501505, 1, 1, 1,15
1046,0.0,0.0, 1, 1, 1,15,0.0, 1, 1, 1,15
1096,9911576459.162132,0.0, 1, 1, 1,15,2034675.958728355, 7,23,17,60
1134,10732499135.540884,0.0, 1,17,15,30,5578436.750248866,12,28, 6,15
1326,10809605635.201323,0.0, 1, 1, 1,15,10540800.0, 4,16,19,60
1379,0.0,0.0, 1, 1, 1,15,0.0, 1, 1, 1,15
End of Data
 Number of Records Written=          99
