Program Version,EnergyPlus, Version 22.2.0-c249759bad, YMD=2023.09.01 20:45
1,5,Environment Title[],Latitude[deg],Longitude[deg],Time Zone[],Elevation[m]
2,8,Day of Simulation[],Month[],Day of Month[],DST Indicator[1=yes 0=no],Hour[],StartMinute[],EndMinute[],DayType
3,5,Cumulative Day of Simulation[],Month[],Day of Month[],DST Indicator[1=yes 0=no],DayType  ! When Daily Report Variables Requested
4,2,Cumulative Days of Simulation[],Month[]  ! When Monthly Report Variables Requested
5,1,Cumulative Days of Simulation[] ! When Run Period Report Variables Requested
6,1,Calendar Year of Simulation[] ! When Annual Report Variables Requested
581,11,LIVING,AFN Zone Infiltration Air Change Rate [ach] !RunPeriod [Value,Min,Month,Day,Hour,Minute,Max,Month,Day,Hour,Minute]
582,11,ATTIC,AFN Zone Infiltration Air Change Rate [ach] !RunPeriod [Value,Min,Month,Day,Hour,Minute,Max,Month,Day,Hour,Minute]
583,11,CRAWLSPACE,AFN Zone Infiltration Air Change Rate [ach] !RunPeriod [Value,Min,Month,Day,Hour,Minute,Max,Month,Day,Hour,Minute]
1038,11,Facility,Facility Heating Setpoint Not Met Time [hr] !RunPeriod [Value,Min,Month,Day,Hour,Minute,Max,Month,Day,Hour,Minute]
1039,11,Facility,Facility Cooling Setpoint Not Met Time [hr] !RunPeriod [Value,Min,Month,Day,Hour,Minute,Max,Month,Day,Hour,Minute]
1115,11,DX_HEATING_COIL,Heating Coil Heating Energy [J] !RunPeriod [Value,Min,Month,Day,Hour,Minute,Max,Month,Day,Hour,Minute]
1128,11,DX_HEATING_COIL,Heating Coil Electricity Energy [J] !RunPeriod [Value,Min,Month,Day,Hour,Minute,Max,Month,Day,Hour,Minute]
1153,11,DX_HEATING_COIL,Heating Coil Defrost Electricity Energy [J] !RunPeriod [Value,Min,Month,Day,Hour,Minute,Max,Month,Day,Hour,Minute]
1154,11,DX_HEATING_COIL,Heating Coil Crankcase Heater Electricity Energy [J] !RunPeriod [Value,Min,Month,Day,Hour,Minute,Max,Month,Day,Hour,Minute]
1155,11,HEATING_RESISTANCE_BACKUP,Heating Coil Heating Energy [J] !RunPeriod [Value,Min,Month,Day,Hour,Minute,Max,Month,Day,Hour,Minute]
1156,11,HEATING_RESISTANCE_BACKUP,Heating Coil Electricity Energy [J] !RunPeriod [Value,Min,Month,Day,Hour,Minute,Max,Month,Day,Hour,Minute]
1292,11,WATER HEATER,Water Heater Heat Loss Energy [J] !RunPeriod [Value,Min,Month,Day,Hour,Minute,Max,Month,Day,Hour,Minute]
1306,11,WATER HEATER,Water Heater Heating Energy [J] !RunPeriod [Value,Min,Month,Day,Hour,Minute,Max,Month,Day,Hour,Minute]
1307,11,WATER HEATER,Water Heater Unmet Demand Heat Transfer Energy [J] !RunPeriod [Value,Min,Month,Day,Hour,Minute,Max,Month,Day,Hour,Minute]
1308,11,WATER HEATER,Water Heater Electricity Energy [J] !RunPeriod [Value,Min,Month,Day,Hour,Minute,Max,Month,Day,Hour,Minute]
13,11,Electricity:Facility [J] !RunPeriod [Value,Min,Month,Day,Hour,Minute,Max,Month,Day,Hour,Minute]
1134,11,Heating:Electricity [J] !RunPeriod [Value,Min,Month,Day,Hour,Minute,Max,Month,Day,Hour,Minute]
1096,11,Cooling:Electricity [J] !RunPeriod [Value,Min,Month,Day,Hour,Minute,Max,Month,Day,Hour,Minute]
562,11,Fans:Electricity [J] !RunPeriod [Value,Min,Month,Day,Hour,Minute,Max,Month,Day,Hour,Minute]
1379,11,Pumps:Electricity [J] !RunPeriod [Value,Min,Month,Day,Hour,Minute,Max,Month,Day,Hour,Minute]
1326,11,WaterSystems:Electricity [J] !RunPeriod [Value,Min,Month,Day,Hour,Minute,Max,Month,Day,Hour,Minute]
61,11,InteriorLights:Electricity [J] !RunPeriod [Value,Min,Month,Day,Hour,Minute,Max,Month,Day,Hour,Minute]
1046,11,ExteriorLights:Electricity [J] !RunPeriod [Value,Min,Month,Day,Hour,Minute,Max,Month,Day,Hour,Minute]
134,11,InteriorEquipment:Electricity [J] !RunPeriod [Value,Min,Month,Day,Hour,Minute,Max,Month,Day,Hour,Minute]
170,11,gas_dryer:InteriorEquipment:Electricity [J] !RunPeriod [Value,Min,Month,Day,Hour,Minute,Max,Month,Day,Hour,Minute]
207,11,clotheswasher:InteriorEquipment:Electricity [J] !RunPeriod [Value,Min,Month,Day,Hour,Minute,Max,Month,Day,Hour,Minute]
244,11,dishwasher:InteriorEquipment:Electricity [J] !RunPeriod [Value,Min,Month,Day,Hour,Minute,Max,Month,Day,Hour,Minute]
281,11,refrigerator:InteriorEquipment:Electricity [J] !RunPeriod [Value,Min,Month,Day,Hour,Minute,Max,Month,Day,Hour,Minute]
318,11,electric_mels:InteriorEquipment:Electricity [J] !RunPeriod [Value,Min,Month,Day,Hour,Minute,Max,Month,Day,Hour,Minute]
355,11,NaturalGas:Facility [J] !RunPeriod [Value,Min,Month,Day,Hour,Minute,Max,Month,Day,Hour,Minute]
403,11,InteriorEquipment:NaturalGas [J] !RunPeriod [Value,Min,Month,Day,Hour,Minute,Max,Month,Day,Hour,Minute]
476,11,gas_dryer:InteriorEquipment:NaturalGas [J] !RunPeriod [Value,Min,Month,Day,Hour,Minute,Max,Month,Day,Hour,Minute]
513,11,gas_mels:InteriorEquipment:NaturalGas [J] !RunPeriod [Value,Min,Month,Day,Hour,Minute,Max,Month,Day,Hour,Minute]
End of Data Dictionary
1,EXTREME_WINTER,  35.53, -97.65,  -6.00, 396.00
5,7
1038,1.0,0.0, 1,29, 1,15,0.25, 2, 1, 6,15
1039,0.0,0.0, 1,29, 1,15,0.0, 1,29, 1,15
581,0.5138371134326575,0.16451292598366193, 1,30,22,60,1.447841598060257, 2, 1,13,60
582,6.329795623958213,0.026241572948616627, 2, 4, 1,15,22.830260862265966, 2, 1,13,60
583,0.05179790647771103,0.00042795332691094847, 2, 3,23, 7,0.11574540583375702, 2, 1,13,60
1115,1422548441.7281382,0.0, 1,29, 1, 5,4097619.8057720475, 2, 4, 8,60
1128,519679831.1812839,0.0, 1,29, 1, 5,1416862.9974780027, 2, 4, 8,60
1153,6516036.422633888,0.0, 1,29, 1, 5,70736.80723998122, 1,31,10,60
1154,46929789.41969452,0.0, 1,29, 1,32,180000.0, 1,29,16,15
1155,947192828.4687383,0.0, 1,29, 1, 5,7590426.147729597, 2, 1,11,30
1156,947192828.4687383,0.0, 1,29, 1, 5,7590426.147729597, 2, 1,11,30
1292,-25171679.010067146,-39797.12398272415, 1,31, 4,45,-5485.155302598641, 1,29, 1,60
1306,250515741.10912204,0.0, 1,29, 1, 5,4050000.0, 1,30, 7,30
1307,78774351.69456464,0.0, 1,29, 1, 5,9537321.932037069, 2, 2, 8,45
1308,250515741.10912204,0.0, 1,29, 1, 5,4050000.0, 1,30, 7,30
13,2201126104.040216,154673.5309366046, 1,29, 3,15,12977927.720694277, 2, 1, 7,15
61,301924526.02383536,88139.10953165221, 1,29, 1,15,1282023.4113694867, 1,29,20,15
134,70666020.44019976,63564.01800854099, 1,29, 4,15,156554.22484006523, 2, 3,20,15
170,5241013.419656067,348.4159749238097, 1,29, 4,15,17476.39704006126, 2, 3,12,15
207,6509451.13922267,815.2532113832032, 1,29, 3,15,22990.642799023623, 2, 3,10,15
244,12749673.399825225,1521.856143006317, 1,29, 4,15,53038.631142310165, 2, 3,20,15
281,46165882.481495745,59938.60262432081, 1,29, 5,15,81951.81706819107, 1,29,19,15
318,0.0,0.0, 1,29, 1,15,0.0, 1,29, 1,15
355,197687796.27748066,18561.32405820678, 1,29, 4,15,724774.895203776, 2, 3,18,15
403,197687796.27748066,18561.32405820678, 1,29, 4,15,724774.895203776, 2, 3,18,15
476,106772067.24485716,7098.072629279515, 1,29, 4,15,356036.3026282215, 2, 3,12,15
513,0.0,0.0, 1,29, 1,15,0.0, 1,29, 1,15
562,57701330.97470868,0.0, 1,29, 1,15,151838.741988023, 2, 1, 1,15
1046,0.0,0.0, 1,29, 1,15,0.0, 1,29, 1,15
1096,0.0,0.0, 1,29, 1,15,0.0, 1,29, 1,15
1134,1520318485.4923484,0.0, 1,29, 1,45,8920909.189103704, 2, 1,12,15
1326,250515741.10912207,0.0, 1,29, 1,15,4050000.0, 1,29, 8,45
1379,0.0,0.0, 1,29, 1,15,0.0, 1,29, 1,15
1,EXTREME_SUMMER,  35.53, -97.65,  -6.00, 396.00
5,7
1038,0.0,0.0, 7,22, 1,15,0.0, 7,22, 1,15
1039,58.25,0.0, 7,22, 1,15,0.25, 7,22,15,15
581,0.2772526940021836,0.11027871034497645, 7,23,14,55,0.5387905395922148, 7,26, 8,50
582,5.561503746957757,2.632407307120132, 7,27,19,60,11.033202755003092, 7,26, 8,50
583,0.057285231544488224,0.002011434820158764, 7,23,23, 3,0.08455981766779662, 7,28,21,60
1115,0.0,0.0, 7,22, 1, 7,0.0, 7,22, 1, 7
1128,0.0,0.0, 7,22, 1, 7,0.0, 7,22, 1, 7
1153,0.0,0.0, 7,22, 1, 7,0.0, 7,22, 1, 7
1154,0.0,0.0, 7,22, 1, 7,0.0, 7,22, 1, 7
1155,0.0,0.0, 7,22, 1, 7,0.0, 7,22, 1, 7
1156,0.0,0.0, 7,22, 1, 7,0.0, 7,22, 1, 7
1292,-21731480.927521653,-34328.640654258954, 7,22,22,30,-4607.368688873016, 7,24,11,60
1306,170449480.79300544,0.0, 7,22, 1, 7,4050000.0, 7,25, 6,60
1307,31966492.022421006,0.0, 7,22, 1, 7,2614041.1943968236, 7,22, 8,25
1308,170449480.79300544,0.0, 7,22, 1, 7,4050000.0, 7,25, 6,60
13,1358802484.543247,380599.3832490939, 7,25, 4,60,6236165.429608699, 7,24,17,15
61,301924526.02383536,88139.10953165221, 7,22, 1,15,1282023.4113694867, 7,22,20,15
134,70666020.44019976,63564.01800854099, 7,22, 4,15,156554.22484006523, 7,27,20,15
170,5241013.419656067,348.4159749238097, 7,22, 4,15,17476.39704006126, 7,27,12,15
207,6509451.13922267,815.2532113832032, 7,22, 3,15,22990.642799023623, 7,27,10,15
244,12749673.399825225,1521.856143006317, 7,22, 4,15,53038.631142310165, 7,27,20,15
281,46165882.481495745,59938.60262432081, 7,22, 5,15,81951.81706819107, 7,22,19,15
318,0.0,0.0, 7,22, 1,15,0.0, 7,22, 1,15
355,197687796.27748066,18561.32405820678, 7,22, 4,15,724774.895203776, 7,27,18,15
403,197687796.27748066,18561.32405820678, 7,22, 4,15,724774.895203776, 7,27,18,15
476,106772067.24485716,7098.072629279515, 7,22, 4,15,356036.3026282215, 7,27,12,15
513,0.0,0.0, 7,22, 1,15,0.0, 7,22, 1,15
562,72513234.29361519,23354.68713206217, 7,25, 5,60,151838.741988023, 7,22,17,15
1046,0.0,0.0, 7,22, 1,15,0.0, 7,22, 1,15
1096,743249222.9925905,198109.60863380576, 7,25, 5,60,1731217.473861463, 7,28,12,60
1134,0.0,0.0, 7,22, 1,15,0.0, 7,22, 1,15
1326,170449480.79300544,0.0, 7,22, 1,15,4050000.0, 7,22, 8,45
1379,0.0,0.0, 7,22, 1,15,0.0, 7,22, 1,15
1,ANNUAL,  35.53, -97.65,  -6.00, 396.00
5,365
1038,5.0,0.0, 1, 1, 1,15,0.25, 1, 3, 6,15
1039,735.75,0.0, 1, 1, 1,15,0.25, 1,18,13,45
581,0.3493832376647018,0.0, 5,26, 6,30,1.4479458749470862, 2, 1,13,60
582,5.914818788525631,0.0, 1, 1,23,15,29.438314711565763,11,11,15,50
583,0.033632586338192806,0.0, 5,26,23, 3,0.11452133370642145, 2, 1,13,60
1115,14106510534.517962,0.0, 1, 1,23, 5,4869232.666569503, 1,10,10,45
1128,4564590733.332132,0.0, 1, 1,23, 5,1497293.23411444, 1,10,10,45
1153,156100991.85464522,0.0, 1, 1,23, 5,126676.09915949998, 1,12, 6,45
1154,1239553204.5215237,0.0, 1, 1, 6, 5,180000.0, 1, 4,16,30
1155,2299092358.0895085,0.0, 1, 1, 1,15,7590426.147729597, 2, 1, 7,60
1156,2299092358.0895085,0.0, 1, 1, 1,15,7590426.147729597, 2, 1, 7,60
1292,-1198113172.8658822,-39805.84291509721,11,22, 3,15,-2172.684882471391, 5,31,10,30
1306,10990129852.064684,0.0, 1, 1, 1,15,4050000.0, 1, 2, 8,45
1307,2856233984.649182,0.0, 1, 1, 1,15,12956041.841608614, 1,30, 8,30
1308,10990129852.064684,0.0, 1, 1, 1,15,4050000.0, 1, 2, 8,45
13,54706177142.284645,151703.1275401932, 1,25, 4,15,13719170.509219103, 2, 1, 7,60
61,15743207428.383959,88139.10953165221, 1, 1, 1,15,1282023.4113694867, 1, 1,20,15
134,3685071073.4325233,63564.01800854099, 1, 2, 4,15,156554.22484006523, 1, 1,20,15
170,273393721.45532674,348.4159749238097, 1, 2, 4,15,17476.39704006126, 1, 1,12,15
207,339560869.0695816,815.2532113832032, 1, 2, 3,15,22990.642799023623, 1, 1,10,15
244,664895467.8009144,1521.856143006317, 1, 2, 4,15,53038.631142310165, 1, 1,20,15
281,2407221015.106824,59938.60262432081, 1, 1, 5,15,81951.81706819107, 1, 1,19,15
318,0.0,0.0, 1, 1, 1,15,0.0, 1, 1, 1,15
355,10310294493.051695,18561.32405820678, 1, 2, 4,15,724774.895203776, 1, 1,18,15
403,10310294493.051695,18561.32405820678, 1, 2, 4,15,724774.895203776, 1, 1,18,15
476,5569688622.066177,7098.072629279515, 1, 2, 4,15,356036.3026282215, 1, 1,12,15
513,0.0,0.0, 1, 1, 1,15,0.0, 1, 1, 1,15
562,2021960232.5516653,0.0, 1, 2,23,15,151838.741988023, 1, 4, 1,15
1046,0.0,0.0, 1, 1, 1,15,0.0, 1, 1, 1,15
1096,14006471268.05224,0.0, 1, 1, 1,15,1816036.490241921, 7,29,13,60
1134,8259337287.797813,0.0, 1,15,11,45,8929573.223550782, 2, 1, 7,60
1326,10990129852.06467,0.0, 1, 1, 1,15,4050000.0000000014, 6, 3, 9,45
1379,0.0,0.0, 1, 1, 1,15,0.0, 1, 1, 1,15
End of Data
 Number of Records Written=          99
