Program Version,EnergyPlus, Version 22.2.0-c249759bad, YMD=2023.09.01 20:20
1,5,Environment Title[],Latitude[deg],Longitude[deg],Time Zone[],Elevation[m]
2,8,Day of Simulation[],Month[],Day of Month[],DST Indicator[1=yes 0=no],Hour[],StartMinute[],EndMinute[],DayType
3,5,Cumulative Day of Simulation[],Month[],Day of Month[],DST Indicator[1=yes 0=no],DayType  ! When Daily Report Variables Requested
4,2,Cumulative Days of Simulation[],Month[]  ! When Monthly Report Variables Requested
5,1,Cumulative Days of Simulation[] ! When Run Period Report Variables Requested
6,1,Calendar Year of Simulation[] ! When Annual Report Variables Requested
581,11,LIVING,AFN Zone Infiltration Air Change Rate [ach] !RunPeriod [Value,Min,Month,Day,Hour,Minute,Max,Month,Day,Hour,Minute]
582,11,ATTIC,AFN Zone Infiltration Air Change Rate [ach] !RunPeriod [Value,Min,Month,Day,Hour,Minute,Max,Month,Day,Hour,Minute]
583,11,CRAWLSPACE,AFN Zone Infiltration Air Change Rate [ach] !RunPeriod [Value,Min,Month,Day,Hour,Minute,Max,Month,Day,Hour,Minute]
1038,11,Facility,Facility Heating Setpoint Not Met Time [hr] !RunPeriod [Value,Min,Month,Day,Hour,Minute,Max,Month,Day,Hour,Minute]
1039,11,Facility,Facility Cooling Setpoint Not Met Time [hr] !RunPeriod [Value,Min,Month,Day,Hour,Minute,Max,Month,Day,Hour,Minute]
1115,11,DX_HEATING_COIL,Heating Coil Heating Energy [J] !RunPeriod [Value,Min,Month,Day,Hour,Minute,Max,Month,Day,Hour,Minute]
1128,11,DX_HEATING_COIL,Heating Coil Electricity Energy [J] !RunPeriod [Value,Min,Month,Day,Hour,Minute,Max,Month,Day,Hour,Minute]
1153,11,DX_HEATING_COIL,Heating Coil Defrost Electricity Energy [J] !RunPeriod [Value,Min,Month,Day,Hour,Minute,Max,Month,Day,Hour,Minute]
1154,11,DX_HEATING_COIL,Heating Coil Crankcase Heater Electricity Energy [J] !RunPeriod [Value,Min,Month,Day,Hour,Minute,Max,Month,Day,Hour,Minute]
1155,11,HEATING_RESISTANCE_BACKUP,Heating Coil Heating Energy [J] !RunPeriod [Value,Min,Month,Day,Hour,Minute,Max,Month,Day,Hour,Minute]
1156,11,HEATING_RESISTANCE_BACKUP,Heating Coil Electricity Energy [J] !RunPeriod [Value,Min,Month,Day,Hour,Minute,Max,Month,Day,Hour,Minute]
1292,11,WATER HEATER,Water Heater Heat Loss Energy [J] !RunPeriod [Value,Min,Month,Day,Hour,Minute,Max,Month,Day,Hour,Minute]
1306,11,WATER HEATER,Water Heater Heating Energy [J] !RunPeriod [Value,Min,Month,Day,Hour,Minute,Max,Month,Day,Hour,Minute]
1307,11,WATER HEATER,Water Heater Unmet Demand Heat Transfer Energy [J] !RunPeriod [Value,Min,Month,Day,Hour,Minute,Max,Month,Day,Hour,Minute]
1308,11,WATER HEATER,Water Heater Electricity Energy [J] !RunPeriod [Value,Min,Month,Day,Hour,Minute,Max,Month,Day,Hour,Minute]
13,11,Electricity:Facility [J] !RunPeriod [Value,Min,Month,Day,Hour,Minute,Max,Month,Day,Hour,Minute]
1134,11,Heating:Electricity [J] !RunPeriod [Value,Min,Month,Day,Hour,Minute,Max,Month,Day,Hour,Minute]
1096,11,Cooling:Electricity [J] !RunPeriod [Value,Min,Month,Day,Hour,Minute,Max,Month,Day,Hour,Minute]
562,11,Fans:Electricity [J] !RunPeriod [Value,Min,Month,Day,Hour,Minute,Max,Month,Day,Hour,Minute]
1379,11,Pumps:Electricity [J] !RunPeriod [Value,Min,Month,Day,Hour,Minute,Max,Month,Day,Hour,Minute]
1326,11,WaterSystems:Electricity [J] !RunPeriod [Value,Min,Month,Day,Hour,Minute,Max,Month,Day,Hour,Minute]
61,11,InteriorLights:Electricity [J] !RunPeriod [Value,Min,Month,Day,Hour,Minute,Max,Month,Day,Hour,Minute]
1046,11,ExteriorLights:Electricity [J] !RunPeriod [Value,Min,Month,Day,Hour,Minute,Max,Month,Day,Hour,Minute]
134,11,InteriorEquipment:Electricity [J] !RunPeriod [Value,Min,Month,Day,Hour,Minute,Max,Month,Day,Hour,Minute]
170,11,gas_dryer:InteriorEquipment:Electricity [J] !RunPeriod [Value,Min,Month,Day,Hour,Minute,Max,Month,Day,Hour,Minute]
207,11,clotheswasher:InteriorEquipment:Electricity [J] !RunPeriod [Value,Min,Month,Day,Hour,Minute,Max,Month,Day,Hour,Minute]
244,11,dishwasher:InteriorEquipment:Electricity [J] !RunPeriod [Value,Min,Month,Day,Hour,Minute,Max,Month,Day,Hour,Minute]
281,11,refrigerator:InteriorEquipment:Electricity [J] !RunPeriod [Value,Min,Month,Day,Hour,Minute,Max,Month,Day,Hour,Minute]
318,11,electric_mels:InteriorEquipment:Electricity [J] !RunPeriod [Value,Min,Month,Day,Hour,Minute,Max,Month,Day,Hour,Minute]
355,11,NaturalGas:Facility [J] !RunPeriod [Value,Min,Month,Day,Hour,Minute,Max,Month,Day,Hour,Minute]
403,11,InteriorEquipment:NaturalGas [J] !RunPeriod [Value,Min,Month,Day,Hour,Minute,Max,Month,Day,Hour,Minute]
476,11,gas_dryer:InteriorEquipment:NaturalGas [J] !RunPeriod [Value,Min,Month,Day,Hour,Minute,Max,Month,Day,Hour,Minute]
513,11,gas_mels:InteriorEquipment:NaturalGas [J] !RunPeriod [Value,Min,Month,Day,Hour,Minute,Max,Month,Day,Hour,Minute]
End of Data Dictionary
1,EXTREME_WINTER,  44.25,-121.15,  -8.00, 936.00
5,15
1038,1.0,0.0,12,22, 1,15,0.25,12,27, 6,15
1039,0.0,0.0,12,22, 1,15,0.0,12,22, 1,15
581,0.33507679062523005,0.17950195326207866, 1, 4,15,60,0.7952748865312683,12,27,12,60
582,2.638180688945736,0.0,12,22, 8,60,19.437915020798542,12,27, 6,60
583,0.04882531647714144,0.0003407718750765083,12,28,14,60,0.08873179421039935,12,23, 6, 5
1115,3526138663.9314985,0.0,12,22,12,18,4729759.663982369,12,27, 6,60
1128,1171081243.6880767,0.0,12,22,12,18,1391921.0354705364,12,27, 6,60
1153,50357631.742651716,0.0,12,22,12,18,108897.60463498383,12,31, 7,60
1154,107070527.63092002,0.0,12,22, 6, 5,180000.0,12,22,14,15
1155,517790526.92770946,0.0,12,22, 1,15,4592178.387964086, 1, 1, 6,60
1156,517790526.92770946,0.0,12,22, 1,15,4592178.387964086, 1, 1, 6,60
1292,-54402941.08600926,-39745.60299540054,12,23, 5,45,-5273.012631819394,12,28,15,60
1306,289041414.0791803,0.0,12,22, 1,15,4050000.0,12,24, 9,15
1307,58368099.503906794,0.0,12,22, 1,15,7628585.955582313, 1, 5, 6,60
1308,289041414.0791803,0.0,12,22, 1,15,4050000.0,12,24, 9,15
13,3062603436.762554,452017.0388981225,12,22,15,15,10440717.920485616, 1, 1, 8,45
61,646981127.1939323,88139.10953165221,12,22, 1,15,1282023.4113694867,12,22,20,15
134,151290040.75163814,63564.01800854099,12,22, 4,15,156554.22484006523,12,27,20,15
170,11185820.069951689,348.4159749238097,12,22, 4,15,17476.39704006126,12,27,12,15
207,13893028.5742839,815.2532113832032,12,22, 3,15,22990.642799023623,12,27,10,15
244,27284301.07562584,1521.856143006317,12,22, 4,15,53038.631142310165,12,27,20,15
281,98926891.03177746,59938.60262432081,12,22, 5,15,81951.81706819107,12,22,19,15
318,0.0,0.0,12,22, 1,15,0.0,12,22, 1,15
355,422701517.16107386,18561.32405820678,12,22, 4,15,724774.895203776,12,27,18,15
403,422701517.16107386,18561.32405820678,12,22, 4,15,724774.895203776,12,27,18,15
476,227882097.80545202,7098.072629279515,12,22, 4,15,356036.3026282215,12,27,12,15
513,0.0,0.0,12,22, 1,15,0.0,12,22, 1,15
562,128990924.7484497,0.0,12,22,12,30,153332.4885162529,12,22, 6,30
1046,0.0,0.0,12,22, 1,15,0.0,12,22, 1,15
1096,0.0,0.0,12,22, 1,15,0.0,12,22, 1,15
1134,1846299929.9893599,180000.0,12,22,12,30,6046932.38164711, 1, 1, 6,30
1326,289041414.07918024,0.0,12,22, 1,15,4050000.0,12,22, 7,15
1379,0.0,0.0,12,22, 1,15,0.0,12,22, 1,15
1,EXTREME_SUMMER,  44.25,-121.15,  -8.00, 936.00
5,7
1038,0.0,0.0, 7,20, 1,15,0.0, 7,20, 1,15
1039,8.75,0.0, 7,20, 1,15,0.25, 7,21,17,15
581,0.165708881875386,0.0, 7,22, 6, 7,0.5927536119617851, 7,24,18,51
582,2.895462981022659,0.0, 7,20, 4,50,9.77442826150706, 7,24,18,48
583,0.03390302044017316,0.000007377700662024898, 7,22, 6,15,0.08362236833339003, 7,24,18,48
1115,0.0,0.0, 7,20, 1, 5,0.0, 7,20, 1, 5
1128,0.0,0.0, 7,20, 1, 5,0.0, 7,20, 1, 5
1153,0.0,0.0, 7,20, 1, 5,0.0, 7,20, 1, 5
1154,1260000.0,0.0, 7,20, 1, 5,180000.0, 7,20, 5,45
1155,0.0,0.0, 7,20, 1, 5,0.0, 7,20, 1, 5
1156,0.0,0.0, 7,20, 1, 5,0.0, 7,20, 1, 5
1292,-22175878.760587823,-35727.64299390089, 7,26, 5,60,-2810.608451366614, 7,25, 9,15
1306,106982396.9717843,0.0, 7,20, 1, 5,2829479.5155183985, 7,26,13,60
1307,16407743.313557524,0.0, 7,20, 1, 5,2087390.9204392757, 7,20, 6,55
1308,106982396.9717843,0.0, 7,20, 1, 5,2829479.5155183985, 7,26,13,60
13,972723938.6342425,151703.1275401932, 7,20, 4,15,5606796.33067574, 7,20,19,30
61,301924526.02383536,88139.10953165221, 7,20, 1,15,1282023.4113694867, 7,20,20,15
134,70666020.44019976,63564.01800854099, 7,20, 4,15,156554.22484006523, 7,25,20,15
170,5241013.419656067,348.4159749238097, 7,20, 4,15,17476.39704006126, 7,25,12,15
207,6509451.13922267,815.2532113832032, 7,20, 3,15,22990.642799023623, 7,25,10,15
244,12749673.399825225,1521.856143006317, 7,20, 4,15,53038.631142310165, 7,25,20,15
281,46165882.481495745,59938.60262432081, 7,20, 5,15,81951.81706819107, 7,20,19,15
318,0.0,0.0, 7,20, 1,15,0.0, 7,20, 1,15
355,197687796.27748066,18561.32405820678, 7,20, 4,15,724774.895203776, 7,25,18,15
403,197687796.27748066,18561.32405820678, 7,20, 4,15,724774.895203776, 7,25,18,15
476,106772067.24485716,7098.072629279515, 7,20, 4,15,356036.3026282215, 7,25,12,15
513,0.0,0.0, 7,20, 1,15,0.0, 7,20, 1,15
562,45141257.24971707,0.0, 7,20, 1,60,153332.4885162529, 7,21,15,60
1046,0.0,0.0, 7,20, 1,15,0.0, 7,20, 1,15
1096,446749737.9487058,0.0, 7,20, 1,60,1796922.4060616314, 7,23,14,60
1134,1260000.0,0.0, 7,20, 1,15,180000.0, 7,20, 4,45
1326,106982396.97178432,0.0, 7,20, 1,15,4050000.0, 7,20, 7,15
1379,0.0,0.0, 7,20, 1,15,0.0, 7,20, 1,15
1,ANNUAL,  44.25,-121.15,  -8.00, 936.00
5,365
1038,7.25,0.0, 1, 1, 1,15,0.25, 1, 1, 6,15
1039,61.25,0.0, 1, 1, 1,15,0.25, 3,29,15,15
581,0.2520348689701721,0.0, 7,22, 6, 7,1.0525691901763294, 4,15,11,60
582,3.0684328542560246,0.0, 1, 1, 9,20,29.12335355508516, 1,19,20,52
583,0.02488607920536103,0.000037794240014401336, 7,22, 6,11,0.09049709793363542, 3,17, 5,60
1115,27880140040.990955,0.0, 1, 1,23, 3,4976456.964868995, 3,17, 5,60
1128,8863184256.301413,0.0, 1, 1,23, 3,1487482.6024784236,12,19, 9,15
1153,407414242.59281945,0.0, 1, 1,23, 3,131578.6835772817,11, 9, 6,45
1154,2400795771.3496566,0.0, 1, 1, 1,15,180000.0, 1, 8,14,30
1155,1980649159.9813037,0.0, 1, 1,11, 2,4506824.50244766, 1, 1, 6,60
1156,1980649159.9813037,0.0, 1, 1,11, 2,4506824.50244766, 1, 1, 6,60
1292,-1247345506.2338874,-39804.105778817946,12,21, 4,30,-2250.2023966230568, 8,23, 9, 1
1306,6277450682.414025,0.0, 1, 1, 1,15,4050000.0, 1, 2, 7,15
1307,1133115957.3423867,0.0, 1, 1, 1,15,7925479.145419644, 2,13, 6,60
1308,6277450682.414025,0.0, 1, 1, 1,15,4050000.0, 1, 2, 7,15
13,46232619033.867,151703.1275401932, 5,11, 4,15,10170811.590783743,12,18, 7,15
61,15743207428.383959,88139.10953165221, 1, 1, 1,15,1282023.4113694867, 1, 1,20,15
134,3685071073.4325233,63564.01800854099, 1, 2, 4,15,156554.22484006523, 1, 1,20,15
170,273393721.45532674,348.4159749238097, 1, 2, 4,15,17476.39704006126, 1, 1,12,15
207,339560869.0695816,815.2532113832032, 1, 2, 3,15,22990.642799023623, 1, 1,10,15
244,664895467.8009144,1521.856143006317, 1, 2, 4,15,53038.631142310165, 1, 1,20,15
281,2407221015.106824,59938.60262432081, 1, 1, 5,15,81951.81706819107, 1, 1,19,15
318,0.0,0.0, 1, 1, 1,15,0.0, 1, 1, 1,15
355,10310294493.051695,18561.32405820678, 1, 2, 4,15,724774.895203776, 1, 1,18,15
403,10310294493.051695,18561.32405820678, 1, 2, 4,15,724774.895203776, 1, 1,18,15
476,5569688622.066177,7098.072629279515, 1, 2, 4,15,356036.3026282215, 1, 1,12,15
513,0.0,0.0, 1, 1, 1,15,0.0, 1, 1, 1,15
562,1586086076.8227797,0.0, 1, 8,13,15,153332.4885162529, 1, 1, 1,15
1046,0.0,0.0, 1, 1, 1,15,0.0, 1, 1, 1,15
1096,5288760342.586849,0.0, 1, 1, 1,15,1794903.5577081293, 7,23,14,60
1134,13652043430.225084,0.0, 1,22,11,60,6064181.925203262,12,17, 6,15
1326,6277450682.414032,0.0, 1, 1, 1,15,4050000.0000000014, 5, 3, 9,15
1379,0.0,0.0, 1, 1, 1,15,0.0, 1, 1, 1,15
End of Data
 Number of Records Written=          99
