Program Version,EnergyPlus, Version 22.2.0-c249759bad, YMD=2023.09.01 20:45
1,5,Environment Title[],Latitude[deg],Longitude[deg],Time Zone[],Elevation[m]
2,8,Day of Simulation[],Month[],Day of Month[],DST Indicator[1=yes 0=no],Hour[],StartMinute[],EndMinute[],DayType
3,5,Cumulative Day of Simulation[],Month[],Day of Month[],DST Indicator[1=yes 0=no],DayType  ! When Daily Report Variables Requested
4,2,Cumulative Days of Simulation[],Month[]  ! When Monthly Report Variables Requested
5,1,Cumulative Days of Simulation[] ! When Run Period Report Variables Requested
6,1,Calendar Year of Simulation[] ! When Annual Report Variables Requested
581,11,LIVING,AFN Zone Infiltration Air Change Rate [ach] !RunPeriod [Value,Min,Month,Day,Hour,Minute,Max,Month,Day,Hour,Minute]
582,11,ATTIC,AFN Zone Infiltration Air Change Rate [ach] !RunPeriod [Value,Min,Month,Day,Hour,Minute,Max,Month,Day,Hour,Minute]
583,11,CRAWLSPACE,AFN Zone Infiltration Air Change Rate [ach] !RunPeriod [Value,Min,Month,Day,Hour,Minute,Max,Month,Day,Hour,Minute]
1038,11,Facility,Facility Heating Setpoint Not Met Time [hr] !RunPeriod [Value,Min,Month,Day,Hour,Minute,Max,Month,Day,Hour,Minute]
1039,11,Facility,Facility Cooling Setpoint Not Met Time [hr] !RunPeriod [Value,Min,Month,Day,Hour,Minute,Max,Month,Day,Hour,Minute]
1115,11,DX_HEATING_COIL,Heating Coil Heating Energy [J] !RunPeriod [Value,Min,Month,Day,Hour,Minute,Max,Month,Day,Hour,Minute]
1128,11,DX_HEATING_COIL,Heating Coil Electricity Energy [J] !RunPeriod [Value,Min,Month,Day,Hour,Minute,Max,Month,Day,Hour,Minute]
1153,11,DX_HEATING_COIL,Heating Coil Defrost Electricity Energy [J] !RunPeriod [Value,Min,Month,Day,Hour,Minute,Max,Month,Day,Hour,Minute]
1154,11,DX_HEATING_COIL,Heating Coil Crankcase Heater Electricity Energy [J] !RunPeriod [Value,Min,Month,Day,Hour,Minute,Max,Month,Day,Hour,Minute]
1155,11,HEATING_RESISTANCE_BACKUP,Heating Coil Heating Energy [J] !RunPeriod [Value,Min,Month,Day,Hour,Minute,Max,Month,Day,Hour,Minute]
1156,11,HEATING_RESISTANCE_BACKUP,Heating Coil Electricity Energy [J] !RunPeriod [Value,Min,Month,Day,Hour,Minute,Max,Month,Day,Hour,Minute]
1292,11,WATER HEATER,Water Heater Heat Loss Energy [J] !RunPeriod [Value,Min,Month,Day,Hour,Minute,Max,Month,Day,Hour,Minute]
1306,11,WATER HEATER,Water Heater Heating Energy [J] !RunPeriod [Value,Min,Month,Day,Hour,Minute,Max,Month,Day,Hour,Minute]
1307,11,WATER HEATER,Water Heater Unmet Demand Heat Transfer Energy [J] !RunPeriod [Value,Min,Month,Day,Hour,Minute,Max,Month,Day,Hour,Minute]
1308,11,WATER HEATER,Water Heater Electricity Energy [J] !RunPeriod [Value,Min,Month,Day,Hour,Minute,Max,Month,Day,Hour,Minute]
13,11,Electricity:Facility [J] !RunPeriod [Value,Min,Month,Day,Hour,Minute,Max,Month,Day,Hour,Minute]
1134,11,Heating:Electricity [J] !RunPeriod [Value,Min,Month,Day,Hour,Minute,Max,Month,Day,Hour,Minute]
1096,11,Cooling:Electricity [J] !RunPeriod [Value,Min,Month,Day,Hour,Minute,Max,Month,Day,Hour,Minute]
562,11,Fans:Electricity [J] !RunPeriod [Value,Min,Month,Day,Hour,Minute,Max,Month,Day,Hour,Minute]
1379,11,Pumps:Electricity [J] !RunPeriod [Value,Min,Month,Day,Hour,Minute,Max,Month,Day,Hour,Minute]
1326,11,WaterSystems:Electricity [J] !RunPeriod [Value,Min,Month,Day,Hour,Minute,Max,Month,Day,Hour,Minute]
61,11,InteriorLights:Electricity [J] !RunPeriod [Value,Min,Month,Day,Hour,Minute,Max,Month,Day,Hour,Minute]
1046,11,ExteriorLights:Electricity [J] !RunPeriod [Value,Min,Month,Day,Hour,Minute,Max,Month,Day,Hour,Minute]
134,11,InteriorEquipment:Electricity [J] !RunPeriod [Value,Min,Month,Day,Hour,Minute,Max,Month,Day,Hour,Minute]
170,11,gas_dryer:InteriorEquipment:Electricity [J] !RunPeriod [Value,Min,Month,Day,Hour,Minute,Max,Month,Day,Hour,Minute]
207,11,clotheswasher:InteriorEquipment:Electricity [J] !RunPeriod [Value,Min,Month,Day,Hour,Minute,Max,Month,Day,Hour,Minute]
244,11,dishwasher:InteriorEquipment:Electricity [J] !RunPeriod [Value,Min,Month,Day,Hour,Minute,Max,Month,Day,Hour,Minute]
281,11,refrigerator:InteriorEquipment:Electricity [J] !RunPeriod [Value,Min,Month,Day,Hour,Minute,Max,Month,Day,Hour,Minute]
318,11,electric_mels:InteriorEquipment:Electricity [J] !RunPeriod [Value,Min,Month,Day,Hour,Minute,Max,Month,Day,Hour,Minute]
355,11,NaturalGas:Facility [J] !RunPeriod [Value,Min,Month,Day,Hour,Minute,Max,Month,Day,Hour,Minute]
403,11,InteriorEquipment:NaturalGas [J] !RunPeriod [Value,Min,Month,Day,Hour,Minute,Max,Month,Day,Hour,Minute]
476,11,gas_dryer:InteriorEquipment:NaturalGas [J] !RunPeriod [Value,Min,Month,Day,Hour,Minute,Max,Month,Day,Hour,Minute]
513,11,gas_mels:InteriorEquipment:NaturalGas [J] !RunPeriod [Value,Min,Month,Day,Hour,Minute,Max,Month,Day,Hour,Minute]
End of Data Dictionary
1,EXTREME_WINTER,  36.08,-115.17,  -8.00, 664.50
5,15
1038,0.0,0.0,12,22, 1,15,0.0,12,22, 1,15
1039,0.0,0.0,12,22, 1,15,0.0,12,22, 1,15
581,0.27580787906685744,0.11945942558335607,12,23, 9,47,0.8914728966091225,12,25, 1,60
582,3.194949083899711,0.0,12,22, 1,60,18.599010712260295,12,25, 1,20
583,0.012390959415583562,0.00016624650617773186,12,30,10, 3,0.10616501392903041,12,26, 6, 5
1115,691628874.9595519,0.0,12,22, 1, 7,3584946.8159787934, 1, 1, 6,60
1128,219361333.7703535,0.0,12,22, 1, 7,1199109.4042561245, 1, 1, 6,60
1153,3971790.5451088287,0.0,12,22, 1, 7,60192.43691529777, 1, 4, 7,45
1154,203563825.60050458,0.0,12,22, 9,22,180000.0,12,22, 1,60
1155,1898383.0706079768,0.0,12,22, 1, 7,516064.2994102687, 1, 1, 6, 5
1156,1898383.0706079768,0.0,12,22, 1, 7,516064.2994102687, 1, 1, 6, 5
1292,-51639831.439236715,-39761.567654594626,12,26,23,60,-2426.3868146913,12,28,10,31
1306,485254402.83727914,0.0,12,22, 1, 7,4050000.0,12,22, 8,45
1307,141694437.86218432,0.0,12,22, 1, 7,12124398.946596855, 1, 5, 8,30
1308,485254402.83727914,0.0,12,22, 1, 7,4050000.0,12,22, 8,45
13,1776060795.1986856,282771.21156012826,12,22,12,15,6053569.668099863, 1, 1, 6,60
61,646981127.1939323,88139.10953165221,12,22, 1,15,1282023.4113694867,12,22,20,15
134,151290040.75163814,63564.01800854099,12,22, 4,15,156554.22484006523,12,27,20,15
170,11185820.069951689,348.4159749238097,12,22, 4,15,17476.39704006126,12,27,12,15
207,13893028.5742839,815.2532113832032,12,22, 3,15,22990.642799023623,12,27,10,15
244,27284301.07562584,1521.856143006317,12,22, 4,15,53038.631142310165,12,27,20,15
281,98926891.03177746,59938.60262432081,12,22, 5,15,81951.81706819107,12,22,19,15
318,0.0,0.0,12,22, 1,15,0.0,12,22, 1,15
355,422701517.16107386,18561.32405820678,12,22, 4,15,724774.895203776,12,27,18,15
403,422701517.16107386,18561.32405820678,12,22, 4,15,724774.895203776,12,27,18,15
476,227882097.80545202,7098.072629279515,12,22, 4,15,356036.3026282215,12,27,12,15
513,0.0,0.0,12,22, 1,15,0.0,12,22, 1,15
562,27795124.845386308,0.0,12,22, 1,15,130732.90686048681, 1, 4, 6,15
1046,0.0,0.0,12,22, 1,15,0.0,12,22, 1,15
1096,35944766.58387445,0.0,12,22, 1,15,415167.29803430353,12,23,14,60
1134,428795332.9865752,0.0,12,22, 9,60,1724566.5383494413, 1, 1, 6,15
1326,485254402.83727914,0.0,12,22, 1,15,4050000.0,12,22, 8,45
1379,0.0,0.0,12,22, 1,15,0.0,12,22, 1,15
1,EXTREME_SUMMER,  36.08,-115.17,  -8.00, 664.50
5,7
1038,0.0,0.0, 6,29, 1,15,0.0, 6,29, 1,15
1039,46.5,0.0, 6,29, 1,15,0.25, 6,29,12,30
581,0.15965915203795872,0.002094933290200017, 7, 4, 6, 7,0.48992747547266974, 7, 5, 9,50
582,4.219452632304734,0.1357478973251633, 6,30, 8, 8,12.364714044108315, 7, 5,13,52
583,0.07007616877802281,0.0010062321456623664, 7, 4,23, 3,0.10248953621258697, 7, 5,17,52
1115,0.0,0.0, 6,29, 1,15,0.0, 6,29, 1,15
1128,0.0,0.0, 6,29, 1,15,0.0, 6,29, 1,15
1153,0.0,0.0, 6,29, 1,15,0.0, 6,29, 1,15
1154,0.0,0.0, 6,29, 1,15,0.0, 6,29, 1,15
1155,0.0,0.0, 6,29, 1,15,0.0, 6,29, 1,15
1156,0.0,0.0, 6,29, 1,15,0.0, 6,29, 1,15
1292,-21783496.162608624,-34342.28132034499, 7, 5,20,60,-2999.2025006514173, 7, 3, 8,46
1306,133927942.25438538,0.0, 6,29, 1,15,3392923.1375952642, 7, 2, 6,45
1307,14276689.281111557,0.0, 6,29, 1,15,857670.933525928, 7, 1, 7,60
1308,133927942.25438538,0.0, 6,29, 1,15,3392923.1375952642, 7, 2, 6,45
13,1633338642.9403217,464271.6254144605, 7, 4, 4,60,6914654.587824706, 6,30,19,15
61,301924526.02383536,88139.10953165221, 6,29, 1,15,1282023.4113694867, 6,29,20,15
134,70666020.44019976,63564.01800854099, 6,29, 4,15,156554.22484006523, 7, 4,20,15
170,5241013.419656067,348.4159749238097, 6,29, 4,15,17476.39704006126, 7, 4,12,15
207,6509451.13922267,815.2532113832032, 6,29, 3,15,22990.642799023623, 7, 4,10,15
244,12749673.399825225,1521.856143006317, 6,29, 4,15,53038.631142310165, 7, 4,20,15
281,46165882.481495745,59938.60262432081, 6,29, 5,15,81951.81706819107, 6,29,19,15
318,0.0,0.0, 6,29, 1,15,0.0, 6,29, 1,15
355,197687796.27748066,18561.32405820678, 6,29, 4,15,724774.895203776, 7, 4,18,15
403,197687796.27748066,18561.32405820678, 6,29, 4,15,724774.895203776, 7, 4,18,15
476,106772067.24485716,7098.072629279515, 6,29, 4,15,356036.3026282215, 7, 4,12,15
513,0.0,0.0, 6,29, 1,15,0.0, 6,29, 1,15
562,88038820.54606245,30220.941372710968, 7, 4, 5,30,188469.94179866754, 6,29,12,45
1046,0.0,0.0, 6,29, 1,15,0.0, 6,29, 1,15
1096,1038781333.6758416,281204.66976707615, 7, 4, 5,30,2596093.8759265523, 6,30,15,60
1134,0.0,0.0, 6,29, 1,15,0.0, 6,29, 1,15
1326,133927942.25438538,0.0, 6,29, 1,15,4050000.0, 6,29, 8,45
1379,0.0,0.0, 6,29, 1,15,0.0, 6,29, 1,15
1,ANNUAL,  36.08,-115.17,  -8.00, 664.50
5,365
1038,0.0,0.0, 1, 1, 1,15,0.0, 1, 1, 1,15
1039,696.0,0.0, 1, 1, 1,15,0.25, 1, 1,16,30
581,0.23885378099934523,0.0, 4,29,23, 3,1.171144830400476, 3, 7,15,60
582,3.9986020770483237,0.0, 1, 1, 4,60,25.55923725951838, 3, 7,15,60
583,0.039549404748414466,0.0, 7,16,23, 3,0.11492024018618369, 6,25, 6, 3
1115,1652199495.052908,0.0, 1, 1, 1, 7,3476109.417614398, 1, 1, 6,60
1128,507864874.4747302,0.0, 1, 1, 1, 7,1167917.6062553474, 1, 1, 6,60
1153,6397601.804812665,0.0, 1, 1, 1, 7,59200.537444194975, 1, 4, 7,45
1154,964547511.0572468,0.0, 1, 1, 6, 5,180000.0, 1, 1,12,60
1155,2146651.9140794254,0.0, 1, 1, 1, 7,483733.1372058274, 1, 1, 6, 5
1156,2146651.9140794254,0.0, 1, 1, 1, 7,483733.1372058274, 1, 1, 6, 5
1292,-1171697758.7095597,-39785.0261776812, 1, 9, 5,60,-1923.9929471198582, 3, 5,10,31
1306,9393372403.395897,0.0, 1, 1, 1, 7,4050000.0, 1, 2, 8,45
1307,1993785088.4201906,0.0, 1, 1, 1, 7,12256171.808972146, 1,16, 8,30
1308,9393372403.395897,0.0, 1, 1, 1, 7,4050000.0, 1, 2, 8,45
13,55597865572.17828,151703.1275401932, 1,17, 4,15,7143402.489489266, 8,29,19,15
61,15743207428.383959,88139.10953165221, 1, 1, 1,15,1282023.4113694867, 1, 1,20,15
134,3685071073.4325233,63564.01800854099, 1, 2, 4,15,156554.22484006523, 1, 1,20,15
170,273393721.45532674,348.4159749238097, 1, 2, 4,15,17476.39704006126, 1, 1,12,15
207,339560869.0695816,815.2532113832032, 1, 2, 3,15,22990.642799023623, 1, 1,10,15
244,664895467.8009144,1521.856143006317, 1, 2, 4,15,53038.631142310165, 1, 1,20,15
281,2407221015.106824,59938.60262432081, 1, 1, 5,15,81951.81706819107, 1, 1,19,15
318,0.0,0.0, 1, 1, 1,15,0.0, 1, 1, 1,15
355,10310294493.051695,18561.32405820678, 1, 2, 4,15,724774.895203776, 1, 1,18,15
403,10310294493.051695,18561.32405820678, 1, 2, 4,15,724774.895203776, 1, 1,18,15
476,5569688622.066177,7098.072629279515, 1, 2, 4,15,356036.3026282215, 1, 1,12,15
513,0.0,0.0, 1, 1, 1,15,0.0, 1, 1, 1,15
562,2382230009.836376,0.0, 1, 1, 1,15,188469.94179866754, 4,23,16,30
1046,0.0,0.0, 1, 1, 1,15,0.0, 1, 1, 1,15
1096,22913028017.876896,0.0, 1, 1, 1,15,2582292.86238637, 6,30,15,60
1134,1480956639.2508671,0.0, 1, 4,14,60,1679619.6775765307, 1, 1, 6,15
1326,9393372403.395918,0.0, 1, 1, 1,15,4050000.0000000014, 3, 4, 9,45
1379,0.0,0.0, 1, 1, 1,15,0.0, 1, 1, 1,15
End of Data
 Number of Records Written=          99
