Program Version,EnergyPlus, Version 22.2.0-c249759bad, YMD=2023.09.01 20:23
1,5,Environment Title[],Latitude[deg],Longitude[deg],Time Zone[],Elevation[m]
2,8,Day of Simulation[],Month[],Day of Month[],DST Indicator[1=yes 0=no],Hour[],StartMinute[],EndMinute[],DayType
3,5,Cumulative Day of Simulation[],Month[],Day of Month[],DST Indicator[1=yes 0=no],DayType  ! When Daily Report Variables Requested
4,2,Cumulative Days of Simulation[],Month[]  ! When Monthly Report Variables Requested
5,1,Cumulative Days of Simulation[] ! When Run Period Report Variables Requested
6,1,Calendar Year of Simulation[] ! When Annual Report Variables Requested
581,11,LIVING,AFN Zone Infiltration Air Change Rate [ach] !RunPeriod [Value,Min,Month,Day,Hour,Minute,Max,Month,Day,Hour,Minute]
582,11,ATTIC,AFN Zone Infiltration Air Change Rate [ach] !RunPeriod [Value,Min,Month,Day,Hour,Minute,Max,Month,Day,Hour,Minute]
583,11,CRAWLSPACE,AFN Zone Infiltration Air Change Rate [ach] !RunPeriod [Value,Min,Month,Day,Hour,Minute,Max,Month,Day,Hour,Minute]
1038,11,Facility,Facility Heating Setpoint Not Met Time [hr] !RunPeriod [Value,Min,Month,Day,Hour,Minute,Max,Month,Day,Hour,Minute]
1039,11,Facility,Facility Cooling Setpoint Not Met Time [hr] !RunPeriod [Value,Min,Month,Day,Hour,Minute,Max,Month,Day,Hour,Minute]
1115,11,DX_HEATING_COIL,Heating Coil Heating Energy [J] !RunPeriod [Value,Min,Month,Day,Hour,Minute,Max,Month,Day,Hour,Minute]
1128,11,DX_HEATING_COIL,Heating Coil Electricity Energy [J] !RunPeriod [Value,Min,Month,Day,Hour,Minute,Max,Month,Day,Hour,Minute]
1153,11,DX_HEATING_COIL,Heating Coil Defrost Electricity Energy [J] !RunPeriod [Value,Min,Month,Day,Hour,Minute,Max,Month,Day,Hour,Minute]
1154,11,DX_HEATING_COIL,Heating Coil Crankcase Heater Electricity Energy [J] !RunPeriod [Value,Min,Month,Day,Hour,Minute,Max,Month,Day,Hour,Minute]
1155,11,HEATING_RESISTANCE_BACKUP,Heating Coil Heating Energy [J] !RunPeriod [Value,Min,Month,Day,Hour,Minute,Max,Month,Day,Hour,Minute]
1156,11,HEATING_RESISTANCE_BACKUP,Heating Coil Electricity Energy [J] !RunPeriod [Value,Min,Month,Day,Hour,Minute,Max,Month,Day,Hour,Minute]
1292,11,WATER HEATER,Water Heater Heat Loss Energy [J] !RunPeriod [Value,Min,Month,Day,Hour,Minute,Max,Month,Day,Hour,Minute]
1306,11,WATER HEATER,Water Heater Heating Energy [J] !RunPeriod [Value,Min,Month,Day,Hour,Minute,Max,Month,Day,Hour,Minute]
1307,11,WATER HEATER,Water Heater Unmet Demand Heat Transfer Energy [J] !RunPeriod [Value,Min,Month,Day,Hour,Minute,Max,Month,Day,Hour,Minute]
1308,11,WATER HEATER,Water Heater Electricity Energy [J] !RunPeriod [Value,Min,Month,Day,Hour,Minute,Max,Month,Day,Hour,Minute]
13,11,Electricity:Facility [J] !RunPeriod [Value,Min,Month,Day,Hour,Minute,Max,Month,Day,Hour,Minute]
1134,11,Heating:Electricity [J] !RunPeriod [Value,Min,Month,Day,Hour,Minute,Max,Month,Day,Hour,Minute]
1096,11,Cooling:Electricity [J] !RunPeriod [Value,Min,Month,Day,Hour,Minute,Max,Month,Day,Hour,Minute]
562,11,Fans:Electricity [J] !RunPeriod [Value,Min,Month,Day,Hour,Minute,Max,Month,Day,Hour,Minute]
1379,11,Pumps:Electricity [J] !RunPeriod [Value,Min,Month,Day,Hour,Minute,Max,Month,Day,Hour,Minute]
1326,11,WaterSystems:Electricity [J] !RunPeriod [Value,Min,Month,Day,Hour,Minute,Max,Month,Day,Hour,Minute]
61,11,InteriorLights:Electricity [J] !RunPeriod [Value,Min,Month,Day,Hour,Minute,Max,Month,Day,Hour,Minute]
1046,11,ExteriorLights:Electricity [J] !RunPeriod [Value,Min,Month,Day,Hour,Minute,Max,Month,Day,Hour,Minute]
134,11,InteriorEquipment:Electricity [J] !RunPeriod [Value,Min,Month,Day,Hour,Minute,Max,Month,Day,Hour,Minute]
170,11,gas_dryer:InteriorEquipment:Electricity [J] !RunPeriod [Value,Min,Month,Day,Hour,Minute,Max,Month,Day,Hour,Minute]
207,11,clotheswasher:InteriorEquipment:Electricity [J] !RunPeriod [Value,Min,Month,Day,Hour,Minute,Max,Month,Day,Hour,Minute]
244,11,dishwasher:InteriorEquipment:Electricity [J] !RunPeriod [Value,Min,Month,Day,Hour,Minute,Max,Month,Day,Hour,Minute]
281,11,refrigerator:InteriorEquipment:Electricity [J] !RunPeriod [Value,Min,Month,Day,Hour,Minute,Max,Month,Day,Hour,Minute]
318,11,electric_mels:InteriorEquipment:Electricity [J] !RunPeriod [Value,Min,Month,Day,Hour,Minute,Max,Month,Day,Hour,Minute]
355,11,NaturalGas:Facility [J] !RunPeriod [Value,Min,Month,Day,Hour,Minute,Max,Month,Day,Hour,Minute]
403,11,InteriorEquipment:NaturalGas [J] !RunPeriod [Value,Min,Month,Day,Hour,Minute,Max,Month,Day,Hour,Minute]
476,11,gas_dryer:InteriorEquipment:NaturalGas [J] !RunPeriod [Value,Min,Month,Day,Hour,Minute,Max,Month,Day,Hour,Minute]
513,11,gas_mels:InteriorEquipment:NaturalGas [J] !RunPeriod [Value,Min,Month,Day,Hour,Minute,Max,Month,Day,Hour,Minute]
End of Data Dictionary
1,EXTREME_WINTER,  34.92, -92.15,  -6.00,  95.00
5,7
1038,0.0,0.0, 1,29, 1,15,0.0, 1,29, 1,15
1039,0.0,0.0, 1,29, 1,15,0.0, 1,29, 1,15
581,0.25884376266443376,0.11941235159581512, 2, 4, 3,50,0.48460485520036145, 1,30, 8,60
582,2.633728783519255,0.0, 2, 1,20,50,8.791653754096098, 2, 3,14,60
583,0.022016039972117204,0.00018198960390658982, 2, 4,23, 7,0.07509417825528476, 1,30, 8,60
1115,756686981.3107414,0.0, 1,29,23,15,4028792.652389554, 2, 2, 6,60
1128,240835353.63464567,0.0, 1,29,23,15,1311778.3316410393, 2, 1, 6,30
1153,9201270.155209923,0.0, 1,29,11,35,75842.78273239988, 1,30, 6,45
1154,71461907.59833942,0.0, 1,29, 6, 5,180000.0, 1,29,23,15
1155,25573652.596494507,0.0, 1,29, 1,15,1053910.7968117292, 1,29, 6, 5
1156,25573652.596494507,0.0, 1,29, 1,15,1053910.7968117292, 1,29, 6, 5
1292,-24759994.408114832,-39769.3745064487, 1,29, 1,15,-3811.5385685949223, 2, 3,10,32
1306,172650155.6252073,0.0, 1,29, 1,15,4050000.0, 1,29, 8,45
1307,31236363.81770015,0.0, 1,29, 1,15,3524635.949751664, 1,31, 9,30
1308,172650155.6252073,0.0, 1,29, 1,15,4050000.0, 1,29, 8,45
13,926254791.8479866,279566.45160502766, 2, 2,14,15,6200218.376378093, 1,29, 8,45
61,301924526.02383536,88139.10953165221, 1,29, 1,15,1282023.4113694867, 1,29,20,15
134,70666020.44019976,63564.01800854099, 1,29, 4,15,156554.22484006523, 2, 3,20,15
170,5241013.419656067,348.4159749238097, 1,29, 4,15,17476.39704006126, 2, 3,12,15
207,6509451.13922267,815.2532113832032, 1,29, 3,15,22990.642799023623, 2, 3,10,15
244,12749673.399825225,1521.856143006317, 1,29, 4,15,53038.631142310165, 2, 3,20,15
281,46165882.481495745,59938.60262432081, 1,29, 5,15,81951.81706819107, 1,29,19,15
318,0.0,0.0, 1,29, 1,15,0.0, 1,29, 1,15
355,197687796.27748066,18561.32405820678, 1,29, 4,15,724774.895203776, 2, 3,18,15
403,197687796.27748066,18561.32405820678, 1,29, 4,15,724774.895203776, 2, 3,18,15
476,106772067.24485716,7098.072629279515, 1,29, 4,15,356036.3026282215, 2, 3,12,15
513,0.0,0.0, 1,29, 1,15,0.0, 1,29, 1,15
562,26575826.72567606,0.0, 1,29,23,15,135246.16842584277, 1,29, 6,15
1046,0.0,0.0, 1,29, 1,15,0.0, 1,29, 1,15
1096,7366079.048378867,0.0, 1,29, 1,15,292941.5808090728, 2, 3,16,45
1134,347072183.98468965,0.0, 2, 2,12,60,3059380.866524143, 2, 1, 6,15
1326,172650155.62520733,0.0, 1,29, 1,15,4050000.0, 1,29, 8,45
1379,0.0,0.0, 1,29, 1,15,0.0, 1,29, 1,15
1,EXTREME_SUMMER,  34.92, -92.15,  -6.00,  95.00
5,7
1038,0.0,0.0, 9, 2, 1,15,0.0, 9, 2, 1,15
1039,65.5,0.0, 9, 2, 1,15,0.25, 9, 2,14,30
581,0.10309994574168968,0.0, 9, 3,23,52,0.6213487832903746, 9, 7,22,60
582,3.017422805376112,0.0, 9, 7,19,60,13.411192165743902, 9, 7,22,55
583,0.04432874092041886,0.000057957566701843364, 9, 4,23, 3,0.07356251895939814, 9, 7,22,60
1115,0.0,0.0, 9, 2, 1,15,0.0, 9, 2, 1,15
1128,0.0,0.0, 9, 2, 1,15,0.0, 9, 2, 1,15
1153,0.0,0.0, 9, 2, 1,15,0.0, 9, 2, 1,15
1154,0.0,0.0, 9, 2, 1,15,0.0, 9, 2, 1,15
1155,0.0,0.0, 9, 2, 1,15,0.0, 9, 2, 1,15
1156,0.0,0.0, 9, 2, 1,15,0.0, 9, 2, 1,15
1292,-21522166.022417862,-34344.30551483751, 9, 7, 7,30,-3115.8417959366543, 9, 4, 9,29
1306,124863484.6779536,0.0, 9, 2, 1,15,3454764.131065349, 9, 3, 7,15
1307,12362489.312744427,0.0, 9, 2, 1,15,681164.1313205356, 9, 5,10,19
1308,124863484.6779536,0.0, 9, 2, 1,15,3454764.131065349, 9, 3, 7,15
13,1160947208.6470668,267920.6110934757, 9, 4, 4,60,6484884.568029618, 9, 8,20,60
61,301924526.02383536,88139.10953165221, 9, 2, 1,15,1282023.4113694867, 9, 2,20,15
134,70666020.44019976,63564.01800854099, 9, 2, 4,15,156554.22484006523, 9, 7,20,15
170,5241013.419656067,348.4159749238097, 9, 2, 4,15,17476.39704006126, 9, 7,12,15
207,6509451.13922267,815.2532113832032, 9, 2, 3,15,22990.642799023623, 9, 7,10,15
244,12749673.399825225,1521.856143006317, 9, 2, 4,15,53038.631142310165, 9, 7,20,15
281,46165882.481495745,59938.60262432081, 9, 2, 5,15,81951.81706819107, 9, 2,19,15
318,0.0,0.0, 9, 2, 1,15,0.0, 9, 2, 1,15
355,197687796.27748066,18561.32405820678, 9, 2, 4,15,724774.895203776, 9, 7,18,15
403,197687796.27748066,18561.32405820678, 9, 2, 4,15,724774.895203776, 9, 7,18,15
476,106772067.24485716,7098.072629279515, 9, 2, 4,15,356036.3026282215, 9, 7,12,15
513,0.0,0.0, 9, 2, 1,15,0.0, 9, 2, 1,15
562,59393361.066520035,10903.105655746227, 9, 4, 5,60,135246.16842584277, 9, 2,14,15
1046,0.0,0.0, 9, 2, 1,15,0.0, 9, 2, 1,15
1096,604099816.4385595,94104.85349061919, 9, 4, 5,60,1580876.8306573513, 9, 4,15,60
1134,0.0,0.0, 9, 2, 1,15,0.0, 9, 2, 1,15
1326,124863484.67795365,0.0, 9, 2, 1,15,4050000.0, 9, 4, 9,45
1379,0.0,0.0, 9, 2, 1,15,0.0, 9, 2, 1,15
1,ANNUAL,  34.92, -92.15,  -6.00,  95.00
5,365
1038,6.5,0.0, 1, 1, 1,15,0.25, 1, 7, 6,15
1039,895.75,0.0, 1, 1, 1,15,0.25, 2,17,15,30
581,0.16666116839134057,0.0, 4, 1, 6,30,0.6813126161052173,12,18,17,60
582,2.6667743306440155,0.0, 1,11, 5,60,24.35638495214304, 3, 6,14,60
583,0.02672760167355295,0.0, 5,23,23, 3,0.0802186740355736, 9, 7,22,50
1115,9262853338.923906,0.0, 1, 1,14,60,4288078.723796055,12,17, 6,45
1128,2883617767.457734,0.0, 1, 1,14,60,1324443.063102388,12,17, 6,45
1153,115226624.7595772,0.0, 1, 1, 1,37,113330.59493360264, 1,11, 6,60
1154,1294198958.0887434,0.0, 1, 1, 6, 5,180000.0, 1, 3,20,15
1155,438525204.23320466,0.0, 1, 1, 1,15,3161732.390435187,12,20, 6,45
1156,438525204.23320466,0.0, 1, 1, 1,15,3161732.390435187,12,20, 6,45
1292,-1193123662.3359613,-39799.03399395969, 1, 1, 1,15,-2010.571381502433,11,11,10,31
1306,7671639793.617409,0.0, 1, 1, 1,15,4050000.0, 1, 2, 8,45
1307,1102368873.6568658,0.0, 1, 1, 1,15,8372255.952386332, 2,25,10,30
1308,7671639793.617409,0.0, 1, 1, 1,15,4050000.0, 1, 2, 8,45
13,46876183438.23961,151703.1275401932, 1,13, 4,15,7406623.684940793, 1,20, 8,30
61,15743207428.383959,88139.10953165221, 1, 1, 1,15,1282023.4113694867, 1, 1,20,15
134,3685071073.4325233,63564.01800854099, 1, 2, 4,15,156554.22484006523, 1, 1,20,15
170,273393721.45532674,348.4159749238097, 1, 2, 4,15,17476.39704006126, 1, 1,12,15
207,339560869.0695816,815.2532113832032, 1, 2, 3,15,22990.642799023623, 1, 1,10,15
244,664895467.8009144,1521.856143006317, 1, 2, 4,15,53038.631142310165, 1, 1,20,15
281,2407221015.106824,59938.60262432081, 1, 1, 5,15,81951.81706819107, 1, 1,19,15
318,0.0,0.0, 1, 1, 1,15,0.0, 1, 1, 1,15
355,10310294493.051695,18561.32405820678, 1, 2, 4,15,724774.895203776, 1, 1,18,15
403,10310294493.051695,18561.32405820678, 1, 2, 4,15,724774.895203776, 1, 1,18,15
476,5569688622.066177,7098.072629279515, 1, 2, 4,15,356036.3026282215, 1, 1,12,15
513,0.0,0.0, 1, 1, 1,15,0.0, 1, 1, 1,15
562,1755822536.763635,0.0, 1, 1,14,60,135246.1684258428, 7,20,16,15
1046,0.0,0.0, 1, 1, 1,15,0.0, 1, 1, 1,15
1096,13288874051.500938,0.0, 1, 1, 1,15,1584499.8688357235, 7,30,15,60
1134,4731568554.539263,0.0, 1, 1,14,60,4406076.065359471,12,20, 6,60
1326,7671639793.617413,0.0, 1, 1, 1,15,4050000.0000000014, 3,15, 9,45
1379,0.0,0.0, 1, 1, 1,15,0.0, 1, 1, 1,15
End of Data
 Number of Records Written=          99
