Program Version,EnergyPlus, Version 22.2.0-c249759bad, YMD=2023.08.31 13:04
1,5,Environment Title[],Latitude[deg],Longitude[deg],Time Zone[],Elevation[m]
2,8,Day of Simulation[],Month[],Day of Month[],DST Indicator[1=yes 0=no],Hour[],StartMinute[],EndMinute[],DayType
3,5,Cumulative Day of Simulation[],Month[],Day of Month[],DST Indicator[1=yes 0=no],DayType  ! When Daily Report Variables Requested
4,2,Cumulative Days of Simulation[],Month[]  ! When Monthly Report Variables Requested
5,1,Cumulative Days of Simulation[] ! When Run Period Report Variables Requested
6,1,Calendar Year of Simulation[] ! When Annual Report Variables Requested
618,11,DX_HEATING_COIL,Heating Coil Heating Energy [J] !RunPeriod [Value,Min,Month,Day,Hour,Minute,Max,Month,Day,Hour,Minute]
631,11,DX_HEATING_COIL,Heating Coil Electricity Energy [J] !RunPeriod [Value,Min,Month,Day,Hour,Minute,Max,Month,Day,Hour,Minute]
656,11,DX_HEATING_COIL,Heating Coil Defrost Electricity Energy [J] !RunPeriod [Value,Min,Month,Day,Hour,Minute,Max,Month,Day,Hour,Minute]
657,11,DX_HEATING_COIL,Heating Coil Crankcase Heater Electricity Energy [J] !RunPeriod [Value,Min,Month,Day,Hour,Minute,Max,Month,Day,Hour,Minute]
684,11,HEAT PUMP WATER HEATER EVAPORATOR,Cooling Coil Total Water Heating Energy [J] !RunPeriod [Value,Min,Month,Day,Hour,Minute,Max,Month,Day,Hour,Minute]
685,11,HEAT PUMP WATER HEATER EVAPORATOR,Cooling Coil Water Heating Electricity Energy [J] !RunPeriod [Value,Min,Month,Day,Hour,Minute,Max,Month,Day,Hour,Minute]
712,11,LIVING,AFN Zone Infiltration Air Change Rate [ach] !RunPeriod [Value,Min,Month,Day,Hour,Minute,Max,Month,Day,Hour,Minute]
713,11,ATTIC,AFN Zone Infiltration Air Change Rate [ach] !RunPeriod [Value,Min,Month,Day,Hour,Minute,Max,Month,Day,Hour,Minute]
714,11,CRAWLSPACE,AFN Zone Infiltration Air Change Rate [ach] !RunPeriod [Value,Min,Month,Day,Hour,Minute,Max,Month,Day,Hour,Minute]
1157,11,Facility,Facility Heating Setpoint Not Met Time [hr] !RunPeriod [Value,Min,Month,Day,Hour,Minute,Max,Month,Day,Hour,Minute]
1158,11,Facility,Facility Cooling Setpoint Not Met Time [hr] !RunPeriod [Value,Min,Month,Day,Hour,Minute,Max,Month,Day,Hour,Minute]
1184,11,HEATING_RESISTANCE_BACKUP,Heating Coil Heating Energy [J] !RunPeriod [Value,Min,Month,Day,Hour,Minute,Max,Month,Day,Hour,Minute]
1185,11,HEATING_RESISTANCE_BACKUP,Heating Coil Electricity Energy [J] !RunPeriod [Value,Min,Month,Day,Hour,Minute,Max,Month,Day,Hour,Minute]
1334,11,WATER HEATER TANK,Water Heater Heating Energy [J] !RunPeriod [Value,Min,Month,Day,Hour,Minute,Max,Month,Day,Hour,Minute]
13,11,Electricity:Facility [J] !RunPeriod [Value,Min,Month,Day,Hour,Minute,Max,Month,Day,Hour,Minute]
637,11,Heating:Electricity [J] !RunPeriod [Value,Min,Month,Day,Hour,Minute,Max,Month,Day,Hour,Minute]
599,11,Cooling:Electricity [J] !RunPeriod [Value,Min,Month,Day,Hour,Minute,Max,Month,Day,Hour,Minute]
692,11,Fans:Electricity [J] !RunPeriod [Value,Min,Month,Day,Hour,Minute,Max,Month,Day,Hour,Minute]
1372,11,Pumps:Electricity [J] !RunPeriod [Value,Min,Month,Day,Hour,Minute,Max,Month,Day,Hour,Minute]
677,11,WaterSystems:Electricity [J] !RunPeriod [Value,Min,Month,Day,Hour,Minute,Max,Month,Day,Hour,Minute]
61,11,InteriorLights:Electricity [J] !RunPeriod [Value,Min,Month,Day,Hour,Minute,Max,Month,Day,Hour,Minute]
1165,11,ExteriorLights:Electricity [J] !RunPeriod [Value,Min,Month,Day,Hour,Minute,Max,Month,Day,Hour,Minute]
134,11,InteriorEquipment:Electricity [J] !RunPeriod [Value,Min,Month,Day,Hour,Minute,Max,Month,Day,Hour,Minute]
170,11,gas_dryer:InteriorEquipment:Electricity [J] !RunPeriod [Value,Min,Month,Day,Hour,Minute,Max,Month,Day,Hour,Minute]
207,11,clotheswasher:InteriorEquipment:Electricity [J] !RunPeriod [Value,Min,Month,Day,Hour,Minute,Max,Month,Day,Hour,Minute]
244,11,dishwasher:InteriorEquipment:Electricity [J] !RunPeriod [Value,Min,Month,Day,Hour,Minute,Max,Month,Day,Hour,Minute]
281,11,refrigerator:InteriorEquipment:Electricity [J] !RunPeriod [Value,Min,Month,Day,Hour,Minute,Max,Month,Day,Hour,Minute]
318,11,electric_mels:InteriorEquipment:Electricity [J] !RunPeriod [Value,Min,Month,Day,Hour,Minute,Max,Month,Day,Hour,Minute]
355,11,NaturalGas:Facility [J] !RunPeriod [Value,Min,Month,Day,Hour,Minute,Max,Month,Day,Hour,Minute]
403,11,InteriorEquipment:NaturalGas [J] !RunPeriod [Value,Min,Month,Day,Hour,Minute,Max,Month,Day,Hour,Minute]
476,11,gas_dryer:InteriorEquipment:NaturalGas [J] !RunPeriod [Value,Min,Month,Day,Hour,Minute,Max,Month,Day,Hour,Minute]
513,11,gas_mels:InteriorEquipment:NaturalGas [J] !RunPeriod [Value,Min,Month,Day,Hour,Minute,Max,Month,Day,Hour,Minute]
End of Data Dictionary
1,EXTREME_WINTER,  41.78, -87.75,  -6.00, 190.00
5,7
1157,8.0,0.0, 1,20, 1,15,0.25, 1,20, 6,15
1158,0.0,0.0, 1,20, 1,15,0.0, 1,20, 1,15
618,2347146297.14097,0.0, 1,20,23, 5,4466950.202264929, 1,22, 7,60
631,836379327.7273498,0.0, 1,20,23, 5,1353432.7017463702, 1,26,20,30
656,11645102.90933703,0.0, 1,20,23, 5,93103.18512437251, 1,22, 5,60
657,3891730.0579586034,0.0, 1,20, 1, 3,101120.78068904298, 1,21,15,15
684,201790756.60308588,0.0, 1,20, 1, 3,1398546.8103677821, 1,22,10,15
685,47511319.19519011,0.0, 1,20, 1, 3,330149.85851641453, 1,23,15,15
712,0.35902184194233194,0.24432744758040972, 1,26,23,30,0.5790366469876751, 1,26,15,52
713,5.154063432419842,0.051371305830473994, 1,21, 5,52,13.360802839389768, 1,26,15,52
714,6.0000627691323,0.6754757833375135, 1,21, 5,52,15.81866512665971, 1,26,15,52
1184,1834587236.893825,0.0, 1,20,23, 5,6808251.091221026, 1,20, 9,15
1185,1834587236.893825,0.0, 1,20,23, 5,6808251.091221026, 1,20, 9,15
1334,0.0,0.0, 1,20, 1, 3,0.0, 1,20, 1, 3
13,3211828605.669476,1058696.366868433, 1,21,15,15,9156946.278609078, 1,24, 8,15
61,301924526.02383536,88139.10953165221, 1,20, 1,15,1282023.4113694867, 1,20,20,15
134,70666020.44019976,63564.01800854099, 1,20, 4,15,156554.22484006523, 1,25,20,15
170,5241013.419656067,348.4159749238097, 1,20, 4,15,17476.39704006126, 1,25,12,15
207,6509451.13922267,815.2532113832032, 1,20, 3,15,22990.642799023623, 1,25,10,15
244,12749673.399825225,1521.856143006317, 1,20, 4,15,53038.631142310165, 1,25,20,15
281,46165882.481495745,59938.60262432081, 1,20, 5,15,81951.81706819107, 1,20,19,15
318,0.0,0.0, 1,20, 1,15,0.0, 1,20, 1,15
355,197687796.27748066,18561.32405820678, 1,20, 4,15,724774.895203776, 1,25,18,15
403,197687796.27748066,18561.32405820678, 1,20, 4,15,724774.895203776, 1,25,18,15
476,106772067.24485716,7098.072629279515, 1,20, 4,15,356036.3026282215, 1,25,12,15
513,0.0,0.0, 1,20, 1,15,0.0, 1,20, 1,15
599,0.0,0.0, 1,20, 1,15,0.0, 1,20, 1,15
637,2686503397.5884695,636546.4679752531, 1,21,23,15,8034322.935214047, 1,24,11,30
677,52652119.1951901,7650.0, 1,20, 1,15,337799.85851641453, 1,23,15,15
692,100082542.42177628,50887.38453995446, 1,21,23,15,211371.8250071425, 1,20, 8,45
1165,0.0,0.0, 1,20, 1,15,0.0, 1,20, 1,15
1372,0.0,0.0, 1,20, 1,15,0.0, 1,20, 1,15
1,EXTREME_SUMMER,  41.78, -87.75,  -6.00, 190.00
5,7
1157,0.0,0.0, 7,27, 1,15,0.0, 7,27, 1,15
1158,10.75,0.0, 7,27, 1,15,0.25, 7,28,14,60
618,0.0,0.0, 7,27, 1,15,0.0, 7,27, 1,15
631,0.0,0.0, 7,27, 1,15,0.0, 7,27, 1,15
656,0.0,0.0, 7,27, 1,15,0.0, 7,27, 1,15
657,0.0,0.0, 7,27, 1,15,0.0, 7,27, 1,15
684,150199739.34801814,0.0, 7,27, 1,15,1698721.219088548, 8, 2,21,30
685,30500061.697942138,0.0, 7,27, 1,15,350435.50434539036, 7,30, 6,30
712,0.17409219440028187,0.0, 7,27, 1,45,0.9631418999496792, 8, 2,23,48
713,6.126808162384629,0.1273551703360739, 7,27, 1,60,18.934353092546523, 8, 2,23,48
714,6.354079746719273,0.04297861408765994, 7,27, 4,60,23.867123885721075, 8, 2,23,33
1184,0.0,0.0, 7,27, 1,15,0.0, 7,27, 1,15
1185,0.0,0.0, 7,27, 1,15,0.0, 7,27, 1,15
1334,0.0,0.0, 7,27, 1,15,0.0, 7,27, 1,15
13,985804512.9279937,159721.80019841267, 8, 1, 4,60,3469446.7086534207, 8, 2,20,60
61,301924526.02383536,88139.10953165221, 7,27, 1,15,1282023.4113694867, 7,27,20,15
134,70666020.44019976,63564.01800854099, 7,27, 4,15,156554.22484006523, 8, 1,20,15
170,5241013.419656067,348.4159749238097, 7,27, 4,15,17476.39704006126, 8, 1,12,15
207,6509451.13922267,815.2532113832032, 7,27, 3,15,22990.642799023623, 8, 1,10,15
244,12749673.399825225,1521.856143006317, 7,27, 4,15,53038.631142310165, 8, 1,20,15
281,46165882.481495745,59938.60262432081, 7,27, 5,15,81951.81706819107, 7,27,19,15
318,0.0,0.0, 7,27, 1,15,0.0, 7,27, 1,15
355,197687796.27748066,18561.32405820678, 7,27, 4,15,724774.895203776, 8, 1,18,15
403,197687796.27748066,18561.32405820678, 7,27, 4,15,724774.895203776, 8, 1,18,15
476,106772067.24485716,7098.072629279515, 7,27, 4,15,356036.3026282215, 8, 1,12,15
513,0.0,0.0, 7,27, 1,15,0.0, 7,27, 1,15
599,521711728.39266545,0.0, 7,28, 3,30,1602850.044711281, 8, 2,13,60
637,0.0,0.0, 7,27, 1,15,0.0, 7,27, 1,15
677,35640861.69794213,7650.0, 7,27, 1,15,375024.3878241755, 8, 1,12,60
692,55861376.3733511,0.0, 8, 1, 4,60,211371.8250071425, 8, 2,20,60
1165,0.0,0.0, 7,27, 1,15,0.0, 7,27, 1,15
1372,0.0,0.0, 7,27, 1,15,0.0, 7,27, 1,15
1,ANNUAL,  41.78, -87.75,  -6.00, 190.00
5,365
1157,67.75,0.0, 1, 1, 1,15,0.25, 1, 2, 6,15
1158,110.25,0.0, 1, 1, 1,15,0.25, 5,23,16,45
618,39601162088.97832,0.0, 1, 1,23, 3,5314268.897768338,10,31,12,30
631,12307102559.603865,0.0, 1, 1,23, 3,1464905.293234553,11,14, 7,15
656,350475752.73106515,0.0, 1, 1,23, 3,167512.52666254857, 3, 8,10,15
657,1181554373.822979,0.0, 1, 1, 1, 1,180000.0, 2,13,15,15
684,9359820507.261583,0.0, 1, 1, 1, 1,1917752.0912521712, 9,10, 9,45
685,1996632878.3182983,0.0, 1, 1, 1, 1,375833.3705193422, 6,15,12,60
712,0.26458163120985667,0.0, 5,26, 1,45,1.8060245370797259, 2, 1,21,52
713,5.3244056036383,0.0, 1, 9,21,60,40.59598057848549, 2, 1,21,52
714,6.011776354084796,0.0, 6, 4,23, 3,51.50371994888846, 2, 1,21,52
1184,11960885434.015848,0.0, 1, 1,23, 3,6808251.091221026, 1,19, 6,15
1185,11960885434.015848,0.0, 1, 1,23, 3,6808251.091221026, 1,19, 6,15
1334,0.0,0.0, 1, 1, 1, 1,0.0, 1, 1, 1, 1
13,56693657108.1963,159353.1275401932, 4,10, 4,15,9966417.471342493, 2, 1,19,45
61,15743207428.383959,88139.10953165221, 1, 1, 1,15,1282023.4113694867, 1, 1,20,15
134,3685071073.4325233,63564.01800854099, 1, 2, 4,15,156554.22484006523, 1, 1,20,15
170,273393721.45532674,348.4159749238097, 1, 2, 4,15,17476.39704006126, 1, 1,12,15
207,339560869.0695816,815.2532113832032, 1, 2, 3,15,22990.642799023623, 1, 1,10,15
244,664895467.8009144,1521.856143006317, 1, 2, 4,15,53038.631142310165, 1, 1,20,15
281,2407221015.106824,59938.60262432081, 1, 1, 5,15,81951.81706819107, 1, 1,19,15
318,0.0,0.0, 1, 1, 1,15,0.0, 1, 1, 1,15
355,10310294493.051695,18561.32405820678, 1, 2, 4,15,724774.895203776, 1, 1,18,15
403,10310294493.051695,18561.32405820678, 1, 2, 4,15,724774.895203776, 1, 1,18,15
476,5569688622.066177,7098.072629279515, 1, 2, 4,15,356036.3026282215, 1, 1,12,15
513,0.0,0.0, 1, 1, 1,15,0.0, 1, 1, 1,15
599,6800023761.428692,0.0, 1, 1, 1,15,1645986.7210270558, 6, 7,16,60
637,25800018120.173847,0.0, 1, 6,18,45,8143459.931078246, 2, 1,19,45
677,2264688878.318307,7650.0, 1, 1, 1,15,383483.3705193422, 6,15,12,60
692,2400647846.4577684,0.0, 1, 5,23,15,211371.8250071425, 1, 1, 9,30
1165,0.0,0.0, 1, 1, 1,15,0.0, 1, 1, 1,15
1372,0.0,0.0, 1, 1, 1,15,0.0, 1, 1, 1,15
End of Data
 Number of Records Written=          96
