Program Version,EnergyPlus, Version 22.2.0-c249759bad, YMD=2023.09.01 20:29
1,5,Environment Title[],Latitude[deg],Longitude[deg],Time Zone[],Elevation[m]
2,8,Day of Simulation[],Month[],Day of Month[],DST Indicator[1=yes 0=no],Hour[],StartMinute[],EndMinute[],DayType
3,5,Cumulative Day of Simulation[],Month[],Day of Month[],DST Indicator[1=yes 0=no],DayType  ! When Daily Report Variables Requested
4,2,Cumulative Days of Simulation[],Month[]  ! When Monthly Report Variables Requested
5,1,Cumulative Days of Simulation[] ! When Run Period Report Variables Requested
6,1,Calendar Year of Simulation[] ! When Annual Report Variables Requested
581,11,LIVING,AFN Zone Infiltration Air Change Rate [ach] !RunPeriod [Value,Min,Month,Day,Hour,Minute,Max,Month,Day,Hour,Minute]
582,11,ATTIC,AFN Zone Infiltration Air Change Rate [ach] !RunPeriod [Value,Min,Month,Day,Hour,Minute,Max,Month,Day,Hour,Minute]
583,11,CRAWLSPACE,AFN Zone Infiltration Air Change Rate [ach] !RunPeriod [Value,Min,Month,Day,Hour,Minute,Max,Month,Day,Hour,Minute]
1038,11,Facility,Facility Heating Setpoint Not Met Time [hr] !RunPeriod [Value,Min,Month,Day,Hour,Minute,Max,Month,Day,Hour,Minute]
1039,11,Facility,Facility Cooling Setpoint Not Met Time [hr] !RunPeriod [Value,Min,Month,Day,Hour,Minute,Max,Month,Day,Hour,Minute]
1115,11,DX_HEATING_COIL,Heating Coil Heating Energy [J] !RunPeriod [Value,Min,Month,Day,Hour,Minute,Max,Month,Day,Hour,Minute]
1128,11,DX_HEATING_COIL,Heating Coil Electricity Energy [J] !RunPeriod [Value,Min,Month,Day,Hour,Minute,Max,Month,Day,Hour,Minute]
1153,11,DX_HEATING_COIL,Heating Coil Defrost Electricity Energy [J] !RunPeriod [Value,Min,Month,Day,Hour,Minute,Max,Month,Day,Hour,Minute]
1154,11,DX_HEATING_COIL,Heating Coil Crankcase Heater Electricity Energy [J] !RunPeriod [Value,Min,Month,Day,Hour,Minute,Max,Month,Day,Hour,Minute]
1155,11,HEATING_RESISTANCE_BACKUP,Heating Coil Heating Energy [J] !RunPeriod [Value,Min,Month,Day,Hour,Minute,Max,Month,Day,Hour,Minute]
1156,11,HEATING_RESISTANCE_BACKUP,Heating Coil Electricity Energy [J] !RunPeriod [Value,Min,Month,Day,Hour,Minute,Max,Month,Day,Hour,Minute]
1292,11,WATER HEATER,Water Heater Heat Loss Energy [J] !RunPeriod [Value,Min,Month,Day,Hour,Minute,Max,Month,Day,Hour,Minute]
1306,11,WATER HEATER,Water Heater Heating Energy [J] !RunPeriod [Value,Min,Month,Day,Hour,Minute,Max,Month,Day,Hour,Minute]
1307,11,WATER HEATER,Water Heater Unmet Demand Heat Transfer Energy [J] !RunPeriod [Value,Min,Month,Day,Hour,Minute,Max,Month,Day,Hour,Minute]
1308,11,WATER HEATER,Water Heater Electricity Energy [J] !RunPeriod [Value,Min,Month,Day,Hour,Minute,Max,Month,Day,Hour,Minute]
13,11,Electricity:Facility [J] !RunPeriod [Value,Min,Month,Day,Hour,Minute,Max,Month,Day,Hour,Minute]
1134,11,Heating:Electricity [J] !RunPeriod [Value,Min,Month,Day,Hour,Minute,Max,Month,Day,Hour,Minute]
1096,11,Cooling:Electricity [J] !RunPeriod [Value,Min,Month,Day,Hour,Minute,Max,Month,Day,Hour,Minute]
562,11,Fans:Electricity [J] !RunPeriod [Value,Min,Month,Day,Hour,Minute,Max,Month,Day,Hour,Minute]
1379,11,Pumps:Electricity [J] !RunPeriod [Value,Min,Month,Day,Hour,Minute,Max,Month,Day,Hour,Minute]
1326,11,WaterSystems:Electricity [J] !RunPeriod [Value,Min,Month,Day,Hour,Minute,Max,Month,Day,Hour,Minute]
61,11,InteriorLights:Electricity [J] !RunPeriod [Value,Min,Month,Day,Hour,Minute,Max,Month,Day,Hour,Minute]
1046,11,ExteriorLights:Electricity [J] !RunPeriod [Value,Min,Month,Day,Hour,Minute,Max,Month,Day,Hour,Minute]
134,11,InteriorEquipment:Electricity [J] !RunPeriod [Value,Min,Month,Day,Hour,Minute,Max,Month,Day,Hour,Minute]
170,11,gas_dryer:InteriorEquipment:Electricity [J] !RunPeriod [Value,Min,Month,Day,Hour,Minute,Max,Month,Day,Hour,Minute]
207,11,clotheswasher:InteriorEquipment:Electricity [J] !RunPeriod [Value,Min,Month,Day,Hour,Minute,Max,Month,Day,Hour,Minute]
244,11,dishwasher:InteriorEquipment:Electricity [J] !RunPeriod [Value,Min,Month,Day,Hour,Minute,Max,Month,Day,Hour,Minute]
281,11,refrigerator:InteriorEquipment:Electricity [J] !RunPeriod [Value,Min,Month,Day,Hour,Minute,Max,Month,Day,Hour,Minute]
318,11,electric_mels:InteriorEquipment:Electricity [J] !RunPeriod [Value,Min,Month,Day,Hour,Minute,Max,Month,Day,Hour,Minute]
355,11,NaturalGas:Facility [J] !RunPeriod [Value,Min,Month,Day,Hour,Minute,Max,Month,Day,Hour,Minute]
403,11,InteriorEquipment:NaturalGas [J] !RunPeriod [Value,Min,Month,Day,Hour,Minute,Max,Month,Day,Hour,Minute]
476,11,gas_dryer:InteriorEquipment:NaturalGas [J] !RunPeriod [Value,Min,Month,Day,Hour,Minute,Max,Month,Day,Hour,Minute]
513,11,gas_mels:InteriorEquipment:NaturalGas [J] !RunPeriod [Value,Min,Month,Day,Hour,Minute,Max,Month,Day,Hour,Minute]
End of Data Dictionary
1,EXTREME_WINTER,  39.10, -84.42,  -5.00, 149.40
5,7
1038,0.75,0.0, 1,15, 1,15,0.25, 1,20, 6,15
1039,0.0,0.0, 1,15, 1,15,0.0, 1,15, 1,15
581,0.3333326495625343,0.19093287227876027, 1,16,20,22,0.4752140300617276, 1,18, 5,60
582,3.091128337790858,0.0, 1,15,23, 9,12.442328099767849, 1,17,24,52
583,0.04419413498353775,0.00033616641064504276, 1,16,18,15,0.07221008001657993, 1,15, 6,15
1115,1458816342.5663714,0.0, 1,15,15,52,3997949.4957823977, 1,19, 5,60
1128,504106729.6809921,0.0, 1,15,15,52,1244705.1751305757, 1,18, 9,30
1153,8825481.2380074,0.0, 1,15,15,52,68182.70795948051, 1,17, 6,60
1154,44024900.01092009,0.0, 1,15, 1,15,180000.0, 1,15,16,15
1155,509484373.4061922,0.0, 1,15, 1,40,5179290.02420507, 1,20, 6,45
1156,509484373.4061922,0.0, 1,15, 1,40,5179290.02420507, 1,20, 6,45
1292,-25397043.867914323,-39763.35033769526, 1,15, 1,15,-6039.620326142728, 1,20,11,32
1306,185425187.78106713,0.0, 1,15, 1,15,4050000.0, 1,15, 8,45
1307,36521165.3752257,0.0, 1,15, 1,15,9606871.366112454, 1,18,10,30
1308,185425187.78106713,0.0, 1,15, 1,15,4050000.0, 1,15, 8,45
13,1679745965.1734586,452017.0388981225, 1,15,15,60,8330134.457209045, 1,21, 9,30
61,301924526.02383536,88139.10953165221, 1,15, 1,15,1282023.4113694867, 1,15,20,15
134,70666020.44019976,63564.01800854099, 1,15, 4,15,156554.22484006523, 1,20,20,15
170,5241013.419656067,348.4159749238097, 1,15, 4,15,17476.39704006126, 1,20,12,15
207,6509451.13922267,815.2532113832032, 1,15, 3,15,22990.642799023623, 1,20,10,15
244,12749673.399825225,1521.856143006317, 1,15, 4,15,53038.631142310165, 1,20,20,15
281,46165882.481495745,59938.60262432081, 1,15, 5,15,81951.81706819107, 1,15,19,15
318,0.0,0.0, 1,15, 1,15,0.0, 1,15, 1,15
355,197687796.27748066,18561.32405820678, 1,15, 4,15,724774.895203776, 1,20,18,15
403,197687796.27748066,18561.32405820678, 1,15, 4,15,724774.895203776, 1,20,18,15
476,106772067.24485716,7098.072629279515, 1,15, 4,15,356036.3026282215, 1,20,12,15
513,0.0,0.0, 1,15, 1,15,0.0, 1,15, 1,15
562,55288746.59224706,0.0, 1,15,15,60,129528.91113553477, 1,20,11,45
1046,0.0,0.0, 1,15, 1,15,0.0, 1,15, 1,15
1096,0.0,0.0, 1,15, 1,15,0.0, 1,15, 1,15
1134,1066441484.3361113,180000.0, 1,15,15,60,6306460.080358352, 1,20, 6,60
1326,185425187.78106704,0.0, 1,15, 1,15,4050000.0, 1,15, 8,45
1379,0.0,0.0, 1,15, 1,15,0.0, 1,15, 1,15
1,EXTREME_SUMMER,  39.10, -84.42,  -5.00, 149.40
5,7
1038,0.0,0.0, 7,15, 1,15,0.0, 7,15, 1,15
1039,35.75,0.0, 7,15, 1,15,0.25, 7,15,14,60
581,0.06491613743705302,0.0, 7,15, 6, 7,0.4686292885393399, 7,20,16,51
582,1.7664466913122951,0.0, 7,16,21,47,8.884154320052422, 7,20,16,48
583,0.03512130446039694,0.0, 7,15, 6, 7,0.0654750262065142, 7,18,17, 2
1115,0.0,0.0, 7,15, 1, 7,0.0, 7,15, 1, 7
1128,0.0,0.0, 7,15, 1, 7,0.0, 7,15, 1, 7
1153,0.0,0.0, 7,15, 1, 7,0.0, 7,15, 1, 7
1154,0.0,0.0, 7,15, 1, 7,0.0, 7,15, 1, 7
1155,0.0,0.0, 7,15, 1, 7,0.0, 7,15, 1, 7
1156,0.0,0.0, 7,15, 1, 7,0.0, 7,15, 1, 7
1292,-21855630.36338553,-34359.12516497437, 7,19, 6,45,-2471.1624768219085, 7,18,16,31
1306,138483160.4310898,0.0, 7,15, 1, 7,4050000.0, 7,21,20,60
1307,18804466.07756702,0.0, 7,15, 1, 7,1448612.8148798782, 7,21, 9,30
1308,138483160.4310898,0.0, 7,15, 1, 7,4050000.0, 7,21,20,60
13,1020103030.207763,151703.1275401932, 7,19, 4,30,6164388.797253892, 7,21,20,60
61,301924526.02383536,88139.10953165221, 7,15, 1,15,1282023.4113694867, 7,15,20,15
134,70666020.44019976,63564.01800854099, 7,15, 4,15,156554.22484006523, 7,20,20,15
170,5241013.419656067,348.4159749238097, 7,15, 4,15,17476.39704006126, 7,20,12,15
207,6509451.13922267,815.2532113832032, 7,15, 3,15,22990.642799023623, 7,20,10,15
244,12749673.399825225,1521.856143006317, 7,15, 4,15,53038.631142310165, 7,20,20,15
281,46165882.481495745,59938.60262432081, 7,15, 5,15,81951.81706819107, 7,15,19,15
318,0.0,0.0, 7,15, 1,15,0.0, 7,15, 1,15
355,197687796.27748066,18561.32405820678, 7,15, 4,15,724774.895203776, 7,20,18,15
403,197687796.27748066,18561.32405820678, 7,15, 4,15,724774.895203776, 7,20,18,15
476,106772067.24485716,7098.072629279515, 7,15, 4,15,356036.3026282215, 7,20,12,15
513,0.0,0.0, 7,15, 1,15,0.0, 7,15, 1,15
562,48977495.79734472,0.0, 7,16, 6,30,129528.91113553477, 7,15,21,15
1046,0.0,0.0, 7,15, 1,15,0.0, 7,15, 1,15
1096,460051827.51529545,0.0, 7,16, 6,30,1370454.762325561, 7,16,15,60
1134,0.0,0.0, 7,15, 1,15,0.0, 7,15, 1,15
1326,138483160.43108982,0.0, 7,15, 1,15,4050000.0, 7,15, 8,45
1379,0.0,0.0, 7,15, 1,15,0.0, 7,15, 1,15
1,ANNUAL,  39.10, -84.42,  -5.00, 149.40
5,365
1038,9.5,0.0, 1, 1, 1,15,0.25, 1, 2, 6,15
1039,492.0,0.0, 1, 1, 1,15,0.25, 3,27,13,60
581,0.21544136621481907,0.0, 4,21, 9,31,1.2407745391965372, 2,18,22,50
582,3.118245939969137,0.0, 1, 9,19,56,28.110299064679648, 1,29,21,60
583,0.026745092552247166,0.0, 4,21,10,49,0.09201335987272838, 9,15,14,60
1115,21928120174.204384,0.0, 1, 1,23, 5,4611630.178041074, 1,22, 4,60
1128,6957757413.686541,0.0, 1, 1,23, 5,1288237.0075753315, 1,22, 4,60
1153,244257140.21485674,0.0, 1, 1,23, 5,113879.46021968784, 2,22, 7,60
1154,1440665495.8305564,0.0, 1, 1, 1, 3,180000.0, 1, 4,15,15
1155,3424560821.561561,0.0, 1, 1, 1,47,5179290.02420507, 1,20, 6,45
1156,3424560821.561561,0.0, 1, 1, 1,47,5179290.02420507, 1,20, 6,45
1292,-1222494663.7672582,-39864.10717026488, 1,22, 5,30,-1963.8015608088836, 3, 9,10,31
1306,8466677040.318816,0.0, 1, 1, 1, 3,4050000.0, 1, 1, 9,45
1307,1428499879.791821,0.0, 1, 1, 1, 3,9730437.950771697, 2,11,10,30
1308,8466677040.318816,0.0, 1, 1, 1, 3,4050000.0, 1, 1, 9,45
13,50544807822.70116,151703.1275401932, 3, 6, 4,15,10706166.732656842, 1,20, 8,30
61,15743207428.383959,88139.10953165221, 1, 1, 1,15,1282023.4113694867, 1, 1,20,15
134,3685071073.4325233,63564.01800854099, 1, 2, 4,15,156554.22484006523, 1, 1,20,15
170,273393721.45532674,348.4159749238097, 1, 2, 4,15,17476.39704006126, 1, 1,12,15
207,339560869.0695816,815.2532113832032, 1, 2, 3,15,22990.642799023623, 1, 1,10,15
244,664895467.8009144,1521.856143006317, 1, 2, 4,15,53038.631142310165, 1, 1,20,15
281,2407221015.106824,59938.60262432081, 1, 1, 5,15,81951.81706819107, 1, 1,19,15
318,0.0,0.0, 1, 1, 1,15,0.0, 1, 1, 1,15
355,10310294493.051695,18561.32405820678, 1, 2, 4,15,724774.895203776, 1, 1,18,15
403,10310294493.051695,18561.32405820678, 1, 2, 4,15,724774.895203776, 1, 1,18,15
476,5569688622.066177,7098.072629279515, 1, 2, 4,15,356036.3026282215, 1, 1,12,15
513,0.0,0.0, 1, 1, 1,15,0.0, 1, 1, 1,15
562,1758603447.532102,0.0, 1, 4,14,60,129528.91113553477, 1, 1, 1,30
1046,0.0,0.0, 1, 1, 1,15,0.0, 1, 1, 1,15
1096,8824007961.738007,0.0, 1, 1, 1,15,1424185.7034012096, 8, 9,14,60
1134,12067240871.2935,0.0, 1, 6,18,15,6317450.117634178, 2, 1, 6,30
1326,8466677040.318815,0.0, 1, 1, 1,15,4050000.0000000014, 3, 9,10,30
1379,0.0,0.0, 1, 1, 1,15,0.0, 1, 1, 1,15
End of Data
 Number of Records Written=          99
