Program Version,EnergyPlus, Version 22.2.0-c249759bad, YMD=2023.09.01 14:31
1,5,Environment Title[],Latitude[deg],Longitude[deg],Time Zone[],Elevation[m]
2,8,Day of Simulation[],Month[],Day of Month[],DST Indicator[1=yes 0=no],Hour[],StartMinute[],EndMinute[],DayType
3,5,Cumulative Day of Simulation[],Month[],Day of Month[],DST Indicator[1=yes 0=no],DayType  ! When Daily Report Variables Requested
4,2,Cumulative Days of Simulation[],Month[]  ! When Monthly Report Variables Requested
5,1,Cumulative Days of Simulation[] ! When Run Period Report Variables Requested
6,1,Calendar Year of Simulation[] ! When Annual Report Variables Requested
7,1,Environment,Site Outdoor Air Drybulb Temperature [C] !Hourly
619,1,DX_HEATING_COIL,Heating Coil Heating Rate [W] !Hourly
633,1,DX_HEATING_COIL,Heating Coil Electricity Rate [W] !Hourly
659,1,DX_HEATING_COIL,Heating Coil Defrost Electricity Rate [W] !Hourly
661,1,DX_HEATING_COIL,Heating Coil Crankcase Heater Electricity Rate [W] !Hourly
690,1,FAN,Fan Electricity Rate [W] !Hourly
716,1,HEAT PUMP WATER HEATER FAN,Fan Electricity Rate [W] !Hourly
718,1,LIVING,Zone Mean Air Temperature [C] !Hourly
719,1,ATTIC,Zone Mean Air Temperature [C] !Hourly
720,1,CRAWLSPACE,Zone Mean Air Temperature [C] !Hourly
843,1,LIVING,Zone Predicted Sensible Load to Heating Setpoint Heat Transfer Rate [W] !Hourly
844,1,LIVING,Zone System Predicted Sensible Load to Heating Setpoint Heat Transfer Rate [W] !Hourly
907,1,ATTIC,Zone Predicted Sensible Load to Heating Setpoint Heat Transfer Rate [W] !Hourly
908,1,ATTIC,Zone System Predicted Sensible Load to Heating Setpoint Heat Transfer Rate [W] !Hourly
971,1,CRAWLSPACE,Zone Predicted Sensible Load to Heating Setpoint Heat Transfer Rate [W] !Hourly
972,1,CRAWLSPACE,Zone System Predicted Sensible Load to Heating Setpoint Heat Transfer Rate [W] !Hourly
1195,1,HEATING_RESISTANCE_BACKUP,Heating Coil Heating Rate [W] !Hourly
1197,1,HEATING_RESISTANCE_BACKUP,Heating Coil Electricity Rate [W] !Hourly
End of Data Dictionary
1,EXTREME_WINTER,  29.62, -95.17,  -6.00,   9.80
2,1, 1,13, 0, 1, 0.00,60.00,Monday
7,22.0
718,20.39264460152355
719,15.426947544751181
720,20.83852762373233
619,0.0
633,0.0
659,0.0
661,0.0
690,0.0
716,0.0
843,-1338.0272549651054
844,-1338.0272549651054
907,0.0
908,0.0
971,0.0
972,0.0
1195,0.0
1197,0.0
2,1, 1,13, 0, 2, 0.00,60.00,Monday
7,22.0
718,20.675338190911248
719,17.302532317500813
720,20.71603817239943
619,0.0
633,0.0
659,0.0
661,0.0
690,0.0
716,0.0
843,-1297.2184112599716
844,-1297.2184112599716
907,0.0
908,0.0
971,0.0
972,0.0
1195,0.0
1197,0.0
2,1, 1,13, 0, 3, 0.00,60.00,Monday
7,21.0
718,20.705622886740365
719,18.55282795149725
720,20.651099623496563
619,0.0
633,0.0
659,0.0
661,0.0
690,0.0
716,0.0
843,-1444.9463117315881
844,-1444.9463117315881
907,0.0
908,0.0
971,0.0
972,0.0
1195,0.0
1197,0.0
2,1, 1,13, 0, 4, 0.00,60.00,Monday
7,19.0
718,20.574080478484177
719,18.68247716582607
720,20.59872154558837
619,0.0
633,0.0
659,0.0
661,0.0
690,0.0
716,0.0
843,-1469.2939890399339
844,-1469.2939890399339
907,0.0
908,0.0
971,0.0
972,0.0
1195,0.0
1197,0.0
2,1, 1,13, 0, 5, 0.00,60.00,Monday
7,10.0
718,19.487533480058392
719,13.106133049352609
720,20.55519171527984
619,0.0
633,0.0
659,0.0
661,0.0
690,0.0
716,0.0
843,-640.4436776376097
844,-640.4436776376097
907,0.0
908,0.0
971,0.0
972,0.0
1195,0.0
1197,0.0
2,1, 1,13, 0, 6, 0.00,60.00,Monday
7,8.0
718,19.685115695912764
719,10.576801998583322
720,20.48215727872885
619,1083.348525892973
633,293.2502838341436
659,0.0
661,168.9106815717757
690,25.37547322432732
716,0.0
843,901.6876309118161
844,901.6876309118161
907,0.0
908,0.0
971,0.0
972,0.0
1195,0.0
1197,0.0
2,1, 1,13, 0, 7, 0.00,60.00,Monday
7,7.0
718,19.741000817798078
719,9.504150656650754
720,20.41061950125576
619,2244.0168609681423
633,606.895852562478
659,0.0
661,135.1731379690367
690,52.91245948288316
716,85.44000000000007
843,919.8049145152672
844,919.8049145152672
907,0.0
908,0.0
971,0.0
972,0.0
1195,0.0
1197,0.0
2,1, 1,13, 0, 8, 0.00,60.00,Monday
7,6.0
718,19.970502002086054
719,8.363665495448343
720,20.379869645498307
619,1372.2402944424362
633,382.1734526036751
659,0.0
661,158.7883759152793
690,33.63742006461875
716,20.215170479646055
843,882.3467428241875
844,882.3467428241875
907,0.0
908,0.0
971,0.0
972,0.0
1195,0.0
1197,0.0
2,1, 1,13, 0, 9, 0.00,60.00,Monday
7,6.0
718,19.69936693216703
719,7.966353749094842
720,20.319894582600188
619,1033.980041225549
633,291.15704533071624
659,0.0
661,168.7410390979452
690,25.513937438727304
716,0.0
843,821.7567791075526
844,821.7567791075526
907,0.0
908,0.0
971,0.0
972,0.0
1195,0.0
1197,0.0
2,1, 1,13, 0,10, 0.00,60.00,Monday
7,6.0
718,19.421189711161308
719,8.131032139361716
720,20.239766905410402
619,1089.1856676906
633,304.45698849462747
659,0.0
661,167.14175494572365
690,26.81929227551735
716,0.0
843,875.519901110607
844,875.519901110607
907,0.0
908,0.0
971,0.0
972,0.0
1195,0.0
1197,0.0
2,1, 1,13, 0,11, 0.00,60.00,Monday
7,6.0
718,20.047215466542315
719,8.890647812697555
720,20.168446596608327
619,1118.9046655388938
633,310.55573041996394
659,0.0
661,166.3032569341034
690,27.503684372810966
716,0.0
843,895.7864676958507
844,895.7864676958507
907,0.0
908,0.0
971,0.0
972,0.0
1195,0.0
1197,0.0
2,1, 1,13, 0,12, 0.00,60.00,Monday
7,7.0
718,19.414003439431212
719,9.532354161494057
720,20.111350039790622
619,752.7303286863877
633,210.25741743767273
659,0.0
661,177.69224767682798
690,18.207854028014747
716,0.0
843,606.5361619050364
844,606.5361619050364
907,0.0
908,0.0
971,0.0
972,0.0
1195,0.0
1197,0.0
2,1, 1,13, 0,13, 0.00,60.00,Monday
7,7.5
718,19.88977187045312
719,10.650122313308161
720,20.04745330274338
619,909.1945274307193
633,247.9159781817084
659,0.0
661,173.52485578721738
690,21.609329089432908
716,0.0
843,733.2451006049978
844,733.2451006049978
907,0.0
908,0.0
971,0.0
972,0.0
1195,0.0
1197,0.0
2,1, 1,13, 0,14, 0.00,60.00,Monday
7,8.0
718,19.902478918554124
719,12.457931229054264
720,19.99842035694071
619,1255.093068960927
633,341.7718571193218
659,0.0
661,164.02194749120525
690,29.365716402181945
716,65.25670378768216
843,186.58607894858142
844,186.58607894858142
907,0.0
908,0.0
971,0.0
972,0.0
1195,0.0
1197,0.0
2,1, 1,13, 0,15, 0.00,60.00,Monday
7,9.0
718,20.36157726937353
719,13.80701814713712
720,19.989855659719712
619,0.0
633,0.0
659,0.0
661,200.0
690,0.0
716,0.0
843,-313.74697407813983
844,-313.74697407813983
907,0.0
908,0.0
971,0.0
972,0.0
1195,0.0
1197,0.0
2,1, 1,13, 0,16, 0.00,60.00,Monday
7,10.0
718,20.93751466114951
719,14.84611950072131
720,19.972430830460357
619,0.0
633,0.0
659,0.0
661,0.0
690,0.0
716,0.0
843,-901.1893243580726
844,-901.1893243580726
907,0.0
908,0.0
971,0.0
972,0.0
1195,0.0
1197,0.0
2,1, 1,13, 0,17, 0.00,60.00,Monday
7,10.0
718,21.333829481638332
719,14.316729069377006
720,19.970077704519273
619,0.0
633,0.0
659,0.0
661,0.0
690,0.0
716,0.0
843,-1065.6997386584408
844,-1065.6997386584408
907,0.0
908,0.0
971,0.0
972,0.0
1195,0.0
1197,0.0
2,1, 1,13, 0,18, 0.00,60.00,Monday
7,10.0
718,21.551222969495925
719,13.019386855307175
720,19.972744329157425
619,0.0
633,0.0
659,0.0
661,0.0
690,0.0
716,0.0
843,-1215.0823742309658
844,-1215.0823742309658
907,0.0
908,0.0
971,0.0
972,0.0
1195,0.0
1197,0.0
2,1, 1,13, 0,19, 0.00,60.00,Monday
7,10.0
718,20.43026415553342
719,11.851802387536864
720,19.975929725507143
619,0.0
633,0.0
659,0.0
661,0.0
690,0.0
716,72.09618962365938
843,-1264.0904565608053
844,-1264.0904565608053
907,0.0
908,0.0
971,0.0
972,0.0
1195,0.0
1197,0.0
2,1, 1,13, 0,20, 0.00,60.00,Monday
7,10.0
718,20.196481804826103
719,11.109638330024332
720,19.971243928817973
619,0.0
633,0.0
659,0.0
661,0.0
690,0.0
716,64.36472064007188
843,-1261.1085651625508
844,-1261.1085651625508
907,0.0
908,0.0
971,0.0
972,0.0
1195,0.0
1197,0.0
2,1, 1,13, 0,21, 0.00,60.00,Monday
7,10.0
718,20.370442711305493
719,10.958648883572991
720,19.951577557563986
619,0.0
633,0.0
659,0.0
661,0.0
690,0.0
716,0.0
843,-620.5952830655788
844,-620.5952830655788
907,0.0
908,0.0
971,0.0
972,0.0
1195,0.0
1197,0.0
2,1, 1,13, 0,22, 0.00,60.00,Monday
7,9.0
718,20.29214020566845
719,10.091381792968882
720,19.9228338108215
619,0.0
633,0.0
659,0.0
661,200.0
690,0.0
716,0.0
843,-485.943117980647
844,-485.943117980647
907,0.0
908,0.0
971,0.0
972,0.0
1195,0.0
1197,0.0
2,1, 1,13, 0,23, 0.00,60.00,Monday
7,9.0
718,19.93001080025169
719,9.881314501838022
720,19.88401705745078
619,0.0
633,0.0
659,0.0
661,200.0
690,0.0
716,0.0
843,-1064.6370955220136
844,-1064.6370955220136
907,0.0
908,0.0
971,0.0
972,0.0
1195,0.0
1197,0.0
2,1, 1,13, 0,24, 0.00,60.00,Monday
7,8.0
718,19.349464855438075
719,9.160554608647024
720,19.835225331594533
619,0.0
633,0.0
659,0.0
661,200.0
690,0.0
716,0.0
843,-586.4339182562398
844,-586.4339182562398
907,0.0
908,0.0
971,0.0
972,0.0
1195,0.0
1197,0.0
2,2, 1,14, 0, 1, 0.00,60.00,Tuesday
7,8.0
718,18.828253080572775
719,8.936330836971948
720,19.77928979471624
619,0.0
633,0.0
659,0.0
661,200.0
690,0.0
716,0.0
843,-174.61680976395655
844,-174.61680976395655
907,0.0
908,0.0
971,0.0
972,0.0
1195,0.0
1197,0.0
2,2, 1,14, 0, 2, 0.00,60.00,Tuesday
7,8.0
718,18.62144656043075
719,8.807695997103087
720,19.713131143692372
619,184.99777168978792
633,50.01478619842602
659,0.0
661,194.63025989303188
690,4.382846044713008
716,0.0
843,141.40948439530075
844,141.40948439530075
907,0.0
908,0.0
971,0.0
972,0.0
1195,0.0
1197,0.0
2,2, 1,14, 0, 3, 0.00,60.00,Tuesday
7,8.0
718,18.89537483287129
719,8.667761538824234
720,19.64166208566318
619,478.1588634997541
633,128.06138216440343
659,0.0
661,186.1977847047317
690,11.265533063070283
716,0.0
843,393.50061795373404
844,393.50061795373404
907,0.0
908,0.0
971,0.0
972,0.0
1195,0.0
1197,0.0
2,2, 1,14, 0, 4, 0.00,60.00,Tuesday
7,8.0
718,18.62623839221048
719,8.549210140725789
720,19.57868630935712
619,355.5675253839067
633,95.99727028111856
659,0.0
661,189.7047495343373
690,8.403106460255986
716,0.0
843,281.1971249946364
844,281.1971249946364
907,0.0
908,0.0
971,0.0
972,0.0
1195,0.0
1197,0.0
2,2, 1,14, 0, 5, 0.00,60.00,Tuesday
7,8.0
718,18.447287276099313
719,8.633113206845747
720,19.505887993311084
619,466.49300896455907
633,124.9573518849263
659,0.0
661,186.53208526873667
690,10.992672947774762
716,0.0
843,382.4703667126414
844,382.4703667126414
907,0.0
908,0.0
971,0.0
972,0.0
1195,0.0
1197,0.0
2,2, 1,14, 0, 6, 0.00,60.00,Tuesday
7,8.0
718,19.521287414195033
719,8.91570735901491
720,19.41423612901666
619,1481.409249992287
633,388.8976331906655
659,0.0
661,157.94141581738631
690,34.328719017851675
716,0.0
843,1208.4533988138373
844,1208.4533988138373
907,0.0
908,0.0
971,0.0
972,0.0
1195,0.0
1197,0.0
2,2, 1,14, 0, 7, 0.00,60.00,Tuesday
7,6.0
718,19.618518065307967
719,8.557142926481609
720,19.332024441493232
619,2997.4797745766255
633,807.9541052213245
659,0.0
661,112.43089206652516
690,71.47495236263492
716,82.23633302527921
843,1337.1215281949371
844,1337.1215281949371
907,0.0
908,0.0
971,0.0
972,0.0
1195,0.0
1197,0.0
2,2, 1,14, 0, 8, 0.00,60.00,Tuesday
7,6.0
718,19.636253127939955
719,8.269413537166631
720,19.272617018573573
619,2999.938760620975
633,810.3628761807239
659,0.0
661,112.32754259798435
690,71.55930743390357
716,85.44000000000007
843,1280.867351075929
844,1280.867351075929
907,0.0
908,0.0
971,0.0
972,0.0
1195,0.0
1197,0.0
2,2, 1,14, 0, 9, 0.00,60.00,Tuesday
7,6.0
718,19.620372544190552
719,7.9521383694673835
720,19.222445505865394
619,2201.862634508982
633,602.7846956513234
659,0.0
661,134.8094754203786
690,53.20928520093385
716,21.222445687717805
843,1485.47985092407
844,1485.47985092407
907,0.0
908,0.0
971,0.0
972,0.0
1195,0.0
1197,0.0
2,2, 1,14, 0,10, 0.00,60.00,Tuesday
7,6.0
718,19.62322407358699
719,8.088749290206115
720,19.16090680980727
619,2012.9789522710862
633,552.5561850977708
659,0.0
661,140.22225267520415
690,48.79131172183759
716,0.0
843,1605.3238361806325
844,1605.3238361806325
907,0.0
908,0.0
971,0.0
972,0.0
1195,0.0
1197,0.0
2,2, 1,14, 0,11, 0.00,60.00,Tuesday
7,6.0
718,19.849418689690985
719,8.586349572040591
720,19.104359250006844
619,1886.4513887287776
633,518.9103167820949
659,0.0
661,143.86336292181704
690,45.819394026598914
716,0.0
843,1516.26741513645
844,1516.26741513645
907,0.0
908,0.0
971,0.0
972,0.0
1195,0.0
1197,0.0
2,2, 1,14, 0,12, 0.00,60.00,Tuesday
7,6.0
718,19.605645620704383
719,8.906536441693472
720,19.052901084549273
619,1503.570839190758
633,418.40430036520763
659,0.0
661,154.93072495730655
690,36.78608087617161
716,0.0
843,1198.521856392168
844,1198.521856392168
907,0.0
908,0.0
971,0.0
972,0.0
1195,0.0
1197,0.0
2,2, 1,14, 0,13, 0.00,60.00,Tuesday
7,7.0
718,19.95410351593787
719,10.524707665934196
720,19.008274008103154
619,1178.5672833206645
633,323.26747883190615
659,0.0
661,165.3854782308539
690,28.25278631803159
716,0.0
843,954.0065988981714
844,954.0065988981714
907,0.0
908,0.0
971,0.0
972,0.0
1195,0.0
1197,0.0
2,2, 1,14, 0,14, 0.00,60.00,Tuesday
7,8.0
718,20.074856043056606
719,12.738105332993962
720,18.9838953484031
619,471.7409614912791
633,130.1487390999059
659,0.0
661,186.3065018513716
690,11.176796828792446
716,0.0
843,377.2052331091327
844,377.2052331091327
907,0.0
908,0.0
971,0.0
972,0.0
1195,0.0
1197,0.0
2,2, 1,14, 0,15, 0.00,60.00,Tuesday
7,8.0
718,19.76843488175994
719,13.63437253433803
720,18.96649645388447
619,0.0
633,0.0
659,0.0
661,200.0
690,0.0
716,0.0
843,-2.030226276401663
844,-2.030226276401663
907,0.0
908,0.0
971,0.0
972,0.0
1195,0.0
1197,0.0
2,2, 1,14, 0,16, 0.00,60.00,Tuesday
7,7.0
718,19.720851289827174
719,12.045264057550325
720,18.954614327072363
619,252.20429136795138
633,70.4954240191332
659,0.0
661,192.47486537323093
690,6.142104809145005
716,0.0
843,205.04347061123735
844,205.04347061123735
907,0.0
908,0.0
971,0.0
972,0.0
1195,0.0
1197,0.0
2,2, 1,14, 0,17, 0.00,60.00,Tuesday
7,7.0
718,19.939827024343078
719,11.47630810820388
720,18.955858788760157
619,208.03884080183852
633,58.12833032373216
659,0.0
661,193.78943602899184
690,5.06913653054601
716,0.0
843,172.60144398911143
844,172.60144398911143
907,0.0
908,0.0
971,0.0
972,0.0
1195,0.0
1197,0.0
2,2, 1,14, 0,18, 0.00,60.00,Tuesday
7,7.0
718,18.72814241026045
719,9.783263664389269
720,18.952729767982806
619,0.0
633,0.0
659,0.0
661,200.0
690,0.0
716,62.65954073085085
843,-101.40687184532362
844,-101.40687184532362
907,0.0
908,0.0
971,0.0
972,0.0
1195,0.0
1197,0.0
2,2, 1,14, 0,19, 0.00,60.00,Tuesday
7,7.0
718,19.702683113974526
719,8.924940995154667
720,18.94312545998935
619,176.81966737366247
633,48.31033832459456
659,0.0
661,194.74134355408148
690,4.292178233093654
716,0.0
843,146.01875048027068
844,146.01875048027068
907,0.0
908,0.0
971,0.0
972,0.0
1195,0.0
1197,0.0
2,2, 1,14, 0,20, 0.00,60.00,Tuesday
7,7.0
718,18.169868743656576
719,8.238139595130644
720,18.906402915626032
619,1186.2372378606908
633,326.254197015332
659,0.0
661,165.1462411562383
690,28.44805447726094
716,85.44000000000007
843,3.589805685065585
844,3.589805685065585
907,0.0
908,0.0
971,0.0
972,0.0
1195,0.0
1197,0.0
2,2, 1,14, 0,21, 0.00,60.00,Tuesday
7,7.0
718,19.32289798799557
719,8.377807879262186
720,18.86917862304538
619,1750.7189446766718
633,460.3531743087433
659,0.0
661,149.35953501171832
690,41.33335268652987
716,67.41021646600394
843,545.9219651653839
844,545.9219651653839
907,0.0
908,0.0
971,0.0
972,0.0
1195,0.0
1197,0.0
2,2, 1,14, 0,22, 0.00,60.00,Tuesday
7,7.0
718,19.821636156337203
719,7.801042513763779
720,18.868590851111776
619,429.90804394973514
633,118.57670345941341
659,0.0
661,187.23479707594933
690,10.419111173189323
716,0.0
843,346.61087129087264
844,346.61087129087264
907,0.0
908,0.0
971,0.0
972,0.0
1195,0.0
1197,0.0
2,2, 1,14, 0,23, 0.00,60.00,Tuesday
7,7.0
718,19.002428893592185
719,7.488906009982993
720,18.830444255626016
619,0.0
633,0.0
659,0.0
661,200.0
690,0.0
716,0.0
843,-295.279118436687
844,-295.279118436687
907,0.0
908,0.0
971,0.0
972,0.0
1195,0.0
1197,0.0
2,2, 1,14, 0,24, 0.00,60.00,Tuesday
7,7.0
718,18.631423300802894
719,7.444213108853837
720,18.78850018510753
619,61.93248624656522
633,17.0590973792154
659,0.0
661,198.1524869410281
690,1.5079622368618981
716,0.0
843,37.702183495099234
844,37.702183495099234
907,0.0
908,0.0
971,0.0
972,0.0
1195,0.0
1197,0.0
2,3, 1,15, 0, 1, 0.00,60.00,Wednesday
7,6.0
718,18.363554103683313
719,7.102485989337718
720,18.732981480641463
619,424.37600303905236
633,116.83415096162297
659,0.0
661,187.1184679363878
690,10.514060407054572
716,0.0
843,344.0430214301896
844,344.0430214301896
907,0.0
908,0.0
971,0.0
972,0.0
1195,0.0
1197,0.0
2,3, 1,15, 0, 2, 0.00,60.00,Wednesday
7,6.0
718,18.59488317082961
719,7.077863072477593
720,18.672953496985524
619,861.3163421152292
633,233.93053016026454
659,0.0
661,174.07527967706608
690,21.160066532869234
716,0.0
843,686.9461089876022
844,686.9461089876022
907,0.0
908,0.0
971,0.0
972,0.0
1195,0.0
1197,0.0
2,3, 1,15, 0, 3, 0.00,60.00,Wednesday
7,6.0
718,18.683849714245106
719,7.055632819739795
720,18.616844732000768
619,1131.2027309817602
633,307.4779458752851
659,0.0
661,166.07038981640517
690,27.693753297082186
716,0.0
843,913.8010703369109
844,913.8010703369109
907,0.0
908,0.0
971,0.0
972,0.0
1195,0.0
1197,0.0
2,3, 1,15, 0, 4, 0.00,60.00,Wednesday
7,6.0
718,18.592348645115
719,7.048358906786769
720,18.558549671473337
619,1214.9353055745828
633,330.4503544093611
659,0.0
661,163.59552666599265
690,29.713766175529642
716,0.0
843,969.3859646819892
844,969.3859646819892
907,0.0
908,0.0
971,0.0
972,0.0
1195,0.0
1197,0.0
2,3, 1,15, 0, 5, 0.00,60.00,Wednesday
7,6.0
718,18.609166273634948
719,7.0346627093735155
720,18.501108387167605
619,1251.697112335396
633,339.50172861937693
659,0.0
661,162.53181895236136
690,30.581977122903034
716,0.0
843,1009.9556840801833
844,1009.9556840801833
907,0.0
908,0.0
971,0.0
972,0.0
1195,0.0
1197,0.0
2,3, 1,15, 0, 6, 0.00,60.00,Wednesday
7,5.0
718,19.103868547753375
719,7.401077281655897
720,18.383895495775082
619,3472.7232883167385
633,990.4763854246423
659,98.17228848322796
661,67.30871468940592
690,107.88010345812337
716,64.73764347104306
843,1930.9700751357468
844,1930.9700751357468
907,0.0
908,0.0
971,0.0
972,0.0
1195,0.0
1197,0.0
2,3, 1,15, 0, 7, 0.00,60.00,Wednesday
7,5.0
718,19.459859492789622
719,7.544485116311085
720,18.347059244539764
619,4017.3579484996794
633,1145.7298181714905
659,112.50867016933114
661,47.931424600489535
690,123.6330908879838
716,85.44000000000007
843,2054.982124475222
844,2054.982124475222
907,0.0
908,0.0
971,0.0
972,0.0
1195,0.0
1197,0.0
2,3, 1,15, 0, 8, 0.00,60.00,Wednesday
7,4.0
718,19.661243863207325
719,6.787658766048101
720,18.307743022149317
619,2876.580404712009
633,860.647994011841
659,105.47368456384169
661,81.86432855754498
690,95.72439188170954
716,15.59944020721842
843,2032.5472856686138
844,2032.5472856686138
907,0.0
908,0.0
971,0.0
972,0.0
1195,0.0
1197,0.0
2,3, 1,15, 0, 9, 0.00,60.00,Wednesday
7,4.0
718,19.709313261327416
719,6.437791695342281
720,18.26110446381261
619,2650.806829807139
633,800.9799443040729
659,97.77940814509489
661,90.48229345325616
690,88.74072644433564
716,0.0
843,2034.0709741023438
844,2034.0709741023438
907,0.0
908,0.0
971,0.0
972,0.0
1195,0.0
1197,0.0
2,3, 1,15, 0,10, 0.00,60.00,Wednesday
7,4.0
718,19.74678623791366
719,6.735909668403202
720,18.212778446848784
619,2479.5393091722253
633,753.1962581268406
659,79.42661718141154
661,99.25136967986161
690,81.715449761453
716,0.0
843,1904.4577904704165
844,1904.4577904704165
907,0.0
908,0.0
971,0.0
972,0.0
1195,0.0
1197,0.0
2,3, 1,15, 0,11, 0.00,60.00,Wednesday
7,4.0
718,19.79528927162667
719,7.038885986798533
720,18.164718478751574
619,2244.5129048902772
633,686.0096894257391
659,72.28953947375284
661,108.30439030508458
690,74.37262302665061
716,0.0
843,1721.375244442681
844,1721.375244442681
907,0.0
908,0.0
971,0.0
972,0.0
1195,0.0
1197,0.0
2,3, 1,15, 0,12, 0.00,60.00,Wednesday
7,4.0
718,19.685944317862354
719,7.3776481661733415
720,18.115617528130297
619,2023.5357105032592
633,622.2646714157142
659,65.51158308218152
661,116.90188377834625
690,67.39926054515588
716,0.0
843,1562.1460154344768
844,1562.1460154344768
907,0.0
908,0.0
971,0.0
972,0.0
1195,0.0
1197,0.0
2,3, 1,15, 0,13, 0.00,60.00,Wednesday
7,4.0
718,19.757039926394715
719,7.667003251780924
720,18.066750857859226
619,2014.8200928417782
633,618.0631728632997
659,65.2099860617017
661,117.28444428262375
690,67.08919041071105
716,0.0
843,1556.5171780516794
844,1556.5171780516794
907,0.0
908,0.0
971,0.0
972,0.0
1195,0.0
1197,0.0
2,3, 1,15, 0,14, 0.00,60.00,Wednesday
7,4.0
718,19.772312358997695
719,8.440124618739812
720,18.02882772454505
619,1717.2334106257304
633,531.1900245380639
659,48.46445173661038
661,130.30045311426952
690,56.579682558333644
716,0.0
843,1338.5772204935874
844,1338.5772204935874
907,0.0
908,0.0
971,0.0
972,0.0
1195,0.0
1197,0.0
2,3, 1,15, 0,15, 0.00,60.00,Wednesday
7,4.0
718,19.71047650128645
719,8.478391475718283
720,17.990356734403974
619,1538.1260619218922
633,477.94679330241433
659,50.34277380005112
661,136.14274802504488
690,51.79340939729153
716,0.0
843,1198.6894969388777
844,1198.6894969388777
907,0.0
908,0.0
971,0.0
972,0.0
1195,0.0
1197,0.0
2,3, 1,15, 0,16, 0.00,60.00,Wednesday
7,4.0
718,19.549487005161776
719,8.106142010408076
720,17.940089829347436
619,3235.893704941291
633,966.2252456398456
659,101.92442766399748
661,70.71403960390505
690,104.86162979409276
716,85.44000000000007
843,1333.6281023836345
844,1333.6281023836345
907,0.0
908,0.0
971,0.0
972,0.0
1195,0.0
1197,0.0
2,3, 1,15, 0,17, 0.00,60.00,Wednesday
7,4.0
718,19.710451342131762
719,7.629991294981629
720,17.917697190112207
619,2260.4961889199562
633,687.2049019139644
659,72.71082101227113
661,107.7700160676934
690,74.80649972532365
716,48.427127678664014
843,1138.8489617334872
844,1138.8489617334872
907,0.0
908,0.0
971,0.0
972,0.0
1195,0.0
1197,0.0
2,3, 1,15, 0,18, 0.00,60.00,Wednesday
7,4.0
718,19.808416873432783
719,7.009867204810307
720,17.90226839222116
619,987.2424029882695
633,310.0836799773907
659,28.317715338670247
661,159.2746465250231
690,33.05947415060496
716,0.0
843,766.3055135325594
844,766.3055135325594
907,0.0
908,0.0
971,0.0
972,0.0
1195,0.0
1197,0.0
2,3, 1,15, 0,19, 0.00,60.00,Wednesday
7,4.0
718,19.652453239454967
719,6.307496497674763
720,17.877354122163933
619,926.1277756183221
633,291.9730247857277
659,26.613421989159484
661,161.72568991795868
690,31.069723107035106
716,0.0
843,715.1348358898977
844,715.1348358898977
907,0.0
908,0.0
971,0.0
972,0.0
1195,0.0
1197,0.0
2,3, 1,15, 0,20, 0.00,60.00,Wednesday
7,4.0
718,19.522846009557398
719,6.093685858947524
720,17.837844730445564
619,2509.5211171134624
633,760.6121857740679
659,69.5573295945371
661,99.96555863937799
690,81.20474537831919
716,85.44000000000007
843,804.4457840568011
844,804.4457840568011
907,0.0
908,0.0
971,0.0
972,0.0
1195,0.0
1197,0.0
2,3, 1,15, 0,21, 0.00,60.00,Wednesday
7,3.0
718,19.865575363250112
719,5.587667585796448
720,17.812357827939806
619,1679.4543348348818
633,526.0427708310606
659,52.34324861030528
661,129.3520352400386
690,57.21107953594328
716,21.82245474751817
843,993.7451543579846
844,993.7451543579846
907,0.0
908,0.0
971,0.0
972,0.0
1195,0.0
1197,0.0
2,3, 1,15, 0,22, 0.00,60.00,Wednesday
7,3.0
718,19.612402903902215
719,5.191297370912712
720,17.779390931823688
619,1430.7918727541694
633,454.4918657167602
659,44.921968942401755
661,139.3685764057438
690,49.09901018624069
716,0.0
843,1066.3045963146014
844,1066.3045963146014
907,0.0
908,0.0
971,0.0
972,0.0
1195,0.0
1197,0.0
2,3, 1,15, 0,23, 0.00,60.00,Wednesday
7,3.0
718,18.895978403956516
719,4.848479034530112
720,17.73896298260346
619,835.356173402569
633,267.2811615164133
659,22.988706409012135
661,164.78185347645277
690,28.549786473736805
716,0.0
843,630.3113182688667
844,630.3113182688667
907,0.0
908,0.0
971,0.0
972,0.0
1195,0.0
1197,0.0
2,3, 1,15, 0,24, 0.00,60.00,Wednesday
7,3.0
718,18.439019203568737
719,4.531482716216811
720,17.675425551891426
619,1185.9265456581695
633,369.92021498107
659,32.26639728098252
661,150.5686537114961
690,40.07271418276748
716,0.0
843,906.6542390685481
844,906.6542390685481
907,0.0
908,0.0
971,0.0
972,0.0
1195,0.0
1197,0.0
2,4, 1,16, 0, 1, 0.00,60.00,Thursday
7,3.0
718,18.490315813453552
719,4.871947470968884
720,17.60353120158803
619,1919.6517575926466
633,582.3798139096456
659,51.2589855693078
661,121.4724642478981
690,63.66117165144615
716,0.0
843,1456.9120180935215
844,1456.9120180935215
907,0.0
908,0.0
971,0.0
972,0.0
1195,0.0
1197,0.0
2,4, 1,16, 0, 2, 0.00,60.00,Thursday
7,3.0
718,18.55655553602039
719,4.8611513718449775
720,17.53645879786904
619,2438.380305099663
633,731.98857528036
659,64.37161368837614
661,101.38423265322704
690,79.94630842037016
716,0.0
843,1870.9842810678365
844,1870.9842810678365
907,0.0
908,0.0
971,0.0
972,0.0
1195,0.0
1197,0.0
2,4, 1,16, 0, 3, 0.00,60.00,Thursday
7,3.0
718,18.54827357559321
719,5.002880013064666
720,17.470235405368108
619,2773.732756514632
633,827.688150444479
659,72.70179083348211
661,88.62260117889423
690,90.29179817416683
716,0.0
843,2122.6786974398274
844,2122.6786974398274
907,0.0
908,0.0
971,0.0
972,0.0
1195,0.0
1197,0.0
2,4, 1,16, 0, 4, 0.00,60.00,Thursday
7,3.0
718,18.76299031841568
719,5.142512502922174
720,17.413636041976346
619,2709.8816480472983
633,809.5776917958002
659,71.12528695883077
661,91.03776728109145
690,88.33389191053718
716,0.0
843,2072.6041511402145
844,2072.6041511402145
907,0.0
908,0.0
971,0.0
972,0.0
1195,0.0
1197,0.0
2,4, 1,16, 0, 5, 0.00,60.00,Thursday
7,4.0
718,18.650109385805795
719,5.301885976063934
720,17.368693389358675
619,2265.9667575866433
633,676.0596277691684
659,33.754950774691245
661,114.53536355825382
690,69.55381666944746
716,0.0
843,1748.8814556050165
844,1748.8814556050165
907,0.0
908,0.0
971,0.0
972,0.0
1195,0.0
1197,0.0
2,4, 1,16, 0, 6, 0.00,60.00,Thursday
7,4.0
718,19.45149905301188
719,5.646264730146546
720,17.295501843508983
619,3419.3701380352813
633,993.4862458431172
659,49.720608099583316
661,74.11169036337316
690,102.45204258184295
716,0.0
843,2650.6218579657343
844,2650.6218579657343
907,0.0
908,0.0
971,0.0
972,0.0
1195,0.0
1197,0.0
2,4, 1,16, 0, 7, 0.00,60.00,Thursday
7,4.0
718,19.584344059704243
719,5.935925282185115
720,17.26767504994491
619,4635.875653699872
633,1339.106883595659
659,66.00521557830618
661,32.88046277085355
690,136.00594024030454
716,85.44000000000007
843,2403.4361361972715
844,2403.4361361972715
907,0.0
908,0.0
971,0.0
972,0.0
1195,0.0
1197,0.0
2,4, 1,16, 0, 8, 0.00,60.00,Thursday
7,4.0
718,19.678199022946774
719,5.787150530573725
720,17.220747553575496
619,4039.269075138509
633,1184.514163017063
659,58.23260524453379
661,52.560044613920034
690,119.98999983578905
716,85.44000000000007
843,1984.690906812135
844,1984.690906812135
907,0.0
908,0.0
971,0.0
972,0.0
1195,0.0
1197,0.0
2,4, 1,16, 0, 9, 0.00,60.00,Thursday
7,4.0
718,19.685697337127294
719,6.015384626945316
720,17.177305615755166
619,2245.9375296015096
633,684.8925489091233
659,33.60333424505644
661,114.91924359026125
690,69.24056464003209
716,23.917257204404102
843,1428.1112537198915
844,1428.1112537198915
907,0.0
908,0.0
971,0.0
972,0.0
1195,0.0
1197,0.0
2,4, 1,16, 0,10, 0.00,60.00,Thursday
7,5.0
718,19.687797190403213
719,7.472216400937941
720,17.145239786412272
619,974.1005143700623
633,300.2230679400992
659,8.154696071229559
661,164.18707809794827
690,29.19869900723528
716,0.0
843,748.584848014003
844,748.584848014003
907,0.0
908,0.0
971,0.0
972,0.0
1195,0.0
1197,0.0
2,4, 1,16, 0,11, 0.00,60.00,Thursday
7,7.0
718,19.924846467652273
719,10.788997816511344
720,17.13614793334558
619,19.094501975150088
633,5.337642564466813
659,0.0
661,199.42848484821945
690,0.4664774965969937
716,0.0
843,13.269157690187058
844,13.269157690187058
907,0.0
908,0.0
971,0.0
972,0.0
1195,0.0
1197,0.0
2,4, 1,16, 0,12, 0.00,60.00,Thursday
7,8.0
718,20.76011815584295
719,14.283690066330925
720,17.157785804241882
619,0.0
633,0.0
659,0.0
661,200.0
690,0.0
716,0.0
843,-635.4836969967819
844,-635.4836969967819
907,0.0
908,0.0
971,0.0
972,0.0
1195,0.0
1197,0.0
2,4, 1,16, 0,13, 0.00,60.00,Thursday
7,9.0
718,21.33844520048175
719,16.72103733837999
720,17.203089811626555
619,0.0
633,0.0
659,0.0
661,200.0
690,0.0
716,0.0
843,-1249.3307006128362
844,-1249.3307006128362
907,0.0
908,0.0
971,0.0
972,0.0
1195,0.0
1197,0.0
2,4, 1,16, 0,14, 0.00,60.00,Thursday
7,11.0
718,22.248542042895785
719,18.133966770044594
720,17.27175990544694
619,0.0
633,0.0
659,0.0
661,0.0
690,0.0
716,0.0
843,-2025.951155312614
844,-2025.951155312614
907,0.0
908,0.0
971,0.0
972,0.0
1195,0.0
1197,0.0
2,4, 1,16, 0,15, 0.00,60.00,Thursday
7,11.0
718,23.298086146656566
719,20.197187781396078
720,17.370851267387497
619,0.0
633,0.0
659,0.0
661,0.0
690,6.976500185341507
716,0.0
843,-3077.686522101865
844,-3077.686522101865
907,0.0
908,0.0
971,0.0
972,0.0
1195,0.0
1197,0.0
2,4, 1,16, 0,16, 0.00,60.00,Thursday
7,11.0
718,23.300086292628162
719,19.758562398976977
720,17.50872818167356
619,0.0
633,0.0
659,0.0
661,0.0
690,25.535912287203
716,0.0
843,-3890.041505783138
844,-3890.041505783138
907,0.0
908,0.0
971,0.0
972,0.0
1195,0.0
1197,0.0
2,4, 1,16, 0,17, 0.00,60.00,Thursday
7,10.0
718,23.142616259228546
719,16.41587243037085
720,17.611662131148112
619,0.0
633,0.0
659,0.0
661,0.0
690,18.69235604306908
716,63.21901139618761
843,-4982.524713149451
844,-4982.524713149451
907,0.0
908,0.0
971,0.0
972,0.0
1195,0.0
1197,0.0
2,4, 1,16, 0,18, 0.00,60.00,Thursday
7,9.0
718,23.436633411264896
719,14.243878785820616
720,17.75424242263419
619,0.0
633,0.0
659,0.0
661,167.45801640315315
690,26.561155894579397
716,0.0
843,-4843.093971275768
844,-4843.093971275768
907,0.0
908,0.0
971,0.0
972,0.0
1195,0.0
1197,0.0
2,4, 1,16, 0,19, 0.00,60.00,Thursday
7,7.0
718,22.92141803770829
719,11.292117845120638
720,17.83696063544664
619,0.0
633,0.0
659,0.0
661,200.0
690,0.0
716,85.44000000000007
843,-4025.8715269321074
844,-4025.8715269321074
907,0.0
908,0.0
971,0.0
972,0.0
1195,0.0
1197,0.0
2,4, 1,16, 0,20, 0.00,60.00,Thursday
7,7.0
718,23.13614794484035
719,9.127323430933476
720,17.92895630028885
619,0.0
633,0.0
659,0.0
661,200.0
690,0.0
716,33.993603561337196
843,-3627.8562004733412
844,-3627.8562004733412
907,0.0
908,0.0
971,0.0
972,0.0
1195,0.0
1197,0.0
2,4, 1,16, 0,21, 0.00,60.00,Thursday
7,6.0
718,23.330928766413233