Program Version,EnergyPlus, Version 22.2.0-c249759bad, YMD=2023.09.01 15:53
1,5,Environment Title[],Latitude[deg],Longitude[deg],Time Zone[],Elevation[m]
2,8,Day of Simulation[],Month[],Day of Month[],DST Indicator[1=yes 0=no],Hour[],StartMinute[],EndMinute[],DayType
3,5,Cumulative Day of Simulation[],Month[],Day of Month[],DST Indicator[1=yes 0=no],DayType  ! When Daily Report Variables Requested
4,2,Cumulative Days of Simulation[],Month[]  ! When Monthly Report Variables Requested
5,1,Cumulative Days of Simulation[] ! When Run Period Report Variables Requested
6,1,Calendar Year of Simulation[] ! When Annual Report Variables Requested
581,11,LIVING,AFN Zone Infiltration Air Change Rate [ach] !RunPeriod [Value,Min,Month,Day,Hour,Minute,Max,Month,Day,Hour,Minute]
582,11,ATTIC,AFN Zone Infiltration Air Change Rate [ach] !RunPeriod [Value,Min,Month,Day,Hour,Minute,Max,Month,Day,Hour,Minute]
583,11,CRAWLSPACE,AFN Zone Infiltration Air Change Rate [ach] !RunPeriod [Value,Min,Month,Day,Hour,Minute,Max,Month,Day,Hour,Minute]
1038,11,Facility,Facility Heating Setpoint Not Met Time [hr] !RunPeriod [Value,Min,Month,Day,Hour,Minute,Max,Month,Day,Hour,Minute]
1039,11,Facility,Facility Cooling Setpoint Not Met Time [hr] !RunPeriod [Value,Min,Month,Day,Hour,Minute,Max,Month,Day,Hour,Minute]
1115,11,DX_HEATING_COIL,Heating Coil Heating Energy [J] !RunPeriod [Value,Min,Month,Day,Hour,Minute,Max,Month,Day,Hour,Minute]
1128,11,DX_HEATING_COIL,Heating Coil Electricity Energy [J] !RunPeriod [Value,Min,Month,Day,Hour,Minute,Max,Month,Day,Hour,Minute]
1153,11,DX_HEATING_COIL,Heating Coil Defrost Electricity Energy [J] !RunPeriod [Value,Min,Month,Day,Hour,Minute,Max,Month,Day,Hour,Minute]
1154,11,DX_HEATING_COIL,Heating Coil Crankcase Heater Electricity Energy [J] !RunPeriod [Value,Min,Month,Day,Hour,Minute,Max,Month,Day,Hour,Minute]
1155,11,HEATING_RESISTANCE_BACKUP,Heating Coil Heating Energy [J] !RunPeriod [Value,Min,Month,Day,Hour,Minute,Max,Month,Day,Hour,Minute]
1156,11,HEATING_RESISTANCE_BACKUP,Heating Coil Electricity Energy [J] !RunPeriod [Value,Min,Month,Day,Hour,Minute,Max,Month,Day,Hour,Minute]
1292,11,WATER HEATER,Water Heater Heat Loss Energy [J] !RunPeriod [Value,Min,Month,Day,Hour,Minute,Max,Month,Day,Hour,Minute]
1306,11,WATER HEATER,Water Heater Heating Energy [J] !RunPeriod [Value,Min,Month,Day,Hour,Minute,Max,Month,Day,Hour,Minute]
1307,11,WATER HEATER,Water Heater Unmet Demand Heat Transfer Energy [J] !RunPeriod [Value,Min,Month,Day,Hour,Minute,Max,Month,Day,Hour,Minute]
1308,11,WATER HEATER,Water Heater Electricity Energy [J] !RunPeriod [Value,Min,Month,Day,Hour,Minute,Max,Month,Day,Hour,Minute]
13,11,Electricity:Facility [J] !RunPeriod [Value,Min,Month,Day,Hour,Minute,Max,Month,Day,Hour,Minute]
1134,11,Heating:Electricity [J] !RunPeriod [Value,Min,Month,Day,Hour,Minute,Max,Month,Day,Hour,Minute]
1096,11,Cooling:Electricity [J] !RunPeriod [Value,Min,Month,Day,Hour,Minute,Max,Month,Day,Hour,Minute]
562,11,Fans:Electricity [J] !RunPeriod [Value,Min,Month,Day,Hour,Minute,Max,Month,Day,Hour,Minute]
1379,11,Pumps:Electricity [J] !RunPeriod [Value,Min,Month,Day,Hour,Minute,Max,Month,Day,Hour,Minute]
1326,11,WaterSystems:Electricity [J] !RunPeriod [Value,Min,Month,Day,Hour,Minute,Max,Month,Day,Hour,Minute]
61,11,InteriorLights:Electricity [J] !RunPeriod [Value,Min,Month,Day,Hour,Minute,Max,Month,Day,Hour,Minute]
1046,11,ExteriorLights:Electricity [J] !RunPeriod [Value,Min,Month,Day,Hour,Minute,Max,Month,Day,Hour,Minute]
134,11,InteriorEquipment:Electricity [J] !RunPeriod [Value,Min,Month,Day,Hour,Minute,Max,Month,Day,Hour,Minute]
170,11,gas_dryer:InteriorEquipment:Electricity [J] !RunPeriod [Value,Min,Month,Day,Hour,Minute,Max,Month,Day,Hour,Minute]
207,11,clotheswasher:InteriorEquipment:Electricity [J] !RunPeriod [Value,Min,Month,Day,Hour,Minute,Max,Month,Day,Hour,Minute]
244,11,dishwasher:InteriorEquipment:Electricity [J] !RunPeriod [Value,Min,Month,Day,Hour,Minute,Max,Month,Day,Hour,Minute]
281,11,refrigerator:InteriorEquipment:Electricity [J] !RunPeriod [Value,Min,Month,Day,Hour,Minute,Max,Month,Day,Hour,Minute]
318,11,electric_mels:InteriorEquipment:Electricity [J] !RunPeriod [Value,Min,Month,Day,Hour,Minute,Max,Month,Day,Hour,Minute]
355,11,NaturalGas:Facility [J] !RunPeriod [Value,Min,Month,Day,Hour,Minute,Max,Month,Day,Hour,Minute]
403,11,InteriorEquipment:NaturalGas [J] !RunPeriod [Value,Min,Month,Day,Hour,Minute,Max,Month,Day,Hour,Minute]
476,11,gas_dryer:InteriorEquipment:NaturalGas [J] !RunPeriod [Value,Min,Month,Day,Hour,Minute,Max,Month,Day,Hour,Minute]
513,11,gas_mels:InteriorEquipment:NaturalGas [J] !RunPeriod [Value,Min,Month,Day,Hour,Minute,Max,Month,Day,Hour,Minute]
End of Data Dictionary
1,EXTREME_WINTER,  36.12, -86.69,  -6.00, 182.90
5,7
1038,0.75,0.0, 1,27, 1,15,0.25, 1,29, 6,15
1039,0.0,0.0, 1,27, 1,15,0.0, 1,27, 1,15
581,0.33534245760650494,0.16739415938074595, 2, 2,23,22,0.6017275744930318, 1,28,14,60
582,3.8437106337374525,0.0, 2, 1,20,37,13.847564073087836, 1,28,14,52
583,0.03241258241518307,0.00031330673878731817, 2, 2,23,15,0.07394831337909322, 2, 1, 1,60
1115,1097838508.0071108,0.0, 1,27, 1,15,4158947.691708327, 1,30, 6,45
1128,368174610.9035323,0.0, 1,27, 1,15,1270387.4142375889, 1,28, 9,30
1153,3161643.53543543,0.0, 1,27, 1,15,73318.25197541596, 2, 2, 9,60
1154,60456820.1566987,0.0, 1,27, 6, 5,180000.0, 1,27, 1,15
1155,203354459.23824587,0.0, 1,27, 1,15,3540274.0040604635, 1,31, 6,45
1156,203354459.23824587,0.0, 1,27, 1,15,3540274.0040604635, 1,31, 6,45
1292,-25114142.767465014,-39760.56267587181, 1,29, 5,60,-5313.1878784268865, 1,31,12,45
1306,215722128.18164405,0.0, 1,27, 1,15,9078568.846526116, 2, 2, 9,45
1307,4326328.247799717,0.0, 1,27, 1,15,2254782.1366560184, 2, 2,19,60
1308,215722128.18164405,0.0, 1,27, 1,15,9078568.846526116, 2, 2, 9,45
13,1262610028.9672415,272017.0388981225, 1,27,15,15,12322492.702606883, 1,29, 7,60
61,301924526.02383536,88139.10953165221, 1,27, 1,15,1282023.4113694867, 1,27,20,15
134,70666020.44019976,63564.01800854099, 1,27, 4,15,156554.22484006523, 2, 1,20,15
170,5241013.419656067,348.4159749238097, 1,27, 4,15,17476.39704006126, 2, 1,12,15
207,6509451.13922267,815.2532113832032, 1,27, 3,15,22990.642799023623, 2, 1,10,15
244,12749673.399825225,1521.856143006317, 1,27, 4,15,53038.631142310165, 2, 1,20,15
281,46165882.481495745,59938.60262432081, 1,27, 5,15,81951.81706819107, 1,27,19,15
318,0.0,0.0, 1,27, 1,15,0.0, 1,27, 1,15
355,197687796.27748066,18561.32405820678, 1,27, 4,15,724774.895203776, 2, 1,18,15
403,197687796.27748066,18561.32405820678, 1,27, 4,15,724774.895203776, 2, 1,18,15
476,106772067.24485716,7098.072629279515, 1,27, 4,15,356036.3026282215, 2, 1,12,15
513,0.0,0.0, 1,27, 1,15,0.0, 1,27, 1,15
562,39149820.48765006,0.0, 1,27, 1,15,130077.58068673154, 1,28, 9,30
1046,0.0,0.0, 1,27, 1,15,0.0, 1,27, 1,15
1096,0.0,0.0, 1,27, 1,15,0.0, 1,27, 1,15
1134,635147533.8339125,0.0, 1,27,11,30,5208765.740679649, 1,29, 6,15
1326,215722128.18164402,0.0, 1,27, 1,15,10108500.57552205, 2, 2,19,60
1379,0.0,0.0, 1,27, 1,15,0.0, 1,27, 1,15
1,EXTREME_SUMMER,  36.12, -86.69,  -6.00, 182.90
5,7
1038,0.0,0.0, 6, 1, 1,15,0.0, 6, 1, 1,15
1039,52.25,0.0, 6, 1, 1,15,0.25, 6, 1,14,30
581,0.07024045416378571,0.0, 6, 1,23, 3,0.7772845534348297, 6, 5,14,46
582,1.8451186119492315,0.014524296305167606, 6, 4, 7,45,14.711740718724895, 6, 5,14,46
583,0.03977348677036877,0.0, 6, 2, 6, 7,0.07161493625864238, 6, 5,14,46
1115,0.0,0.0, 6, 1, 1, 7,0.0, 6, 1, 1, 7
1128,0.0,0.0, 6, 1, 1, 7,0.0, 6, 1, 1, 7
1153,0.0,0.0, 6, 1, 1, 7,0.0, 6, 1, 1, 7
1154,0.0,0.0, 6, 1, 1, 7,0.0, 6, 1, 1, 7
1155,0.0,0.0, 6, 1, 1, 7,0.0, 6, 1, 1, 7
1156,0.0,0.0, 6, 1, 1, 7,0.0, 6, 1, 1, 7
1292,-21778204.707818456,-34042.75524787175, 6, 6,13,45,-2591.8238091857907, 6, 5,14,16
1306,168288298.51928514,0.0, 6, 1, 1, 7,2756771.419334088, 6, 5, 6,52
1307,932093.1553817319,0.0, 6, 1, 1, 7,199147.57887512527, 6, 7,19,60
1308,168288298.51928514,0.0, 6, 1, 1, 7,2756771.419334088, 6, 5, 6,52
13,1132665140.3449218,159313.0645060374, 6, 6, 4,60,12634343.430170534, 6, 7,19,60
61,301924526.02383536,88139.10953165221, 6, 1, 1,15,1282023.4113694867, 6, 1,20,15
134,70666020.44019976,63564.01800854099, 6, 1, 4,15,156554.22484006523, 6, 6,20,15
170,5241013.419656067,348.4159749238097, 6, 1, 4,15,17476.39704006126, 6, 6,12,15
207,6509451.13922267,815.2532113832032, 6, 1, 3,15,22990.642799023623, 6, 6,10,15
244,12749673.399825225,1521.856143006317, 6, 1, 4,15,53038.631142310165, 6, 6,20,15
281,46165882.481495745,59938.60262432081, 6, 1, 5,15,81951.81706819107, 6, 1,19,15
318,0.0,0.0, 6, 1, 1,15,0.0, 6, 1, 1,15
355,197687796.27748066,18561.32405820678, 6, 1, 4,15,724774.895203776, 6, 6,18,15
403,197687796.27748066,18561.32405820678, 6, 1, 4,15,724774.895203776, 6, 6,18,15
476,106772067.24485716,7098.072629279515, 6, 1, 4,15,356036.3026282215, 6, 6,12,15
513,0.0,0.0, 6, 1, 1,15,0.0, 6, 1, 1,15
562,55717983.617357194,802.8602914131793, 6, 6, 4,60,130077.58068673157, 6, 7,11,60
1046,0.0,0.0, 6, 1, 1,15,0.0, 6, 1, 1,15
1096,536068311.74424523,6438.404016211547, 6, 6, 4,60,1415078.8746511412, 6, 7,16,60
1134,0.0,0.0, 6, 1, 1,15,0.0, 6, 1, 1,15
1326,168288298.5192851,0.0, 6, 1, 1,15,9865666.202737315, 6, 7,19,60
1379,0.0,0.0, 6, 1, 1,15,0.0, 6, 1, 1,15
1,ANNUAL,  36.12, -86.69,  -6.00, 182.90
5,365
1038,5.75,0.0, 1, 1, 1,15,0.25, 1,11, 6,15
1039,863.75,0.0, 1, 1, 1,15,0.25, 1, 2,14,45
581,0.19952322691582375,0.0, 5, 9,23, 3,1.045568740152354, 3,28,18,60
582,2.993862108623889,0.0, 1, 2,20,52,21.244094815428436, 3,28,18,60
583,0.02595714601066545,0.0, 5,14,23, 3,0.08191568345650038, 6, 5,14,47
1115,9326311746.04155,0.0, 1, 1,23, 7,4278050.1243363535, 1,30, 6,45
1128,2897475178.7918673,0.0, 1, 1,23, 7,1281689.1975141282, 1,30, 6,45
1153,102132860.01066676,0.0, 1, 1, 1, 7,105715.76575149506, 3,14, 6,45
1154,1306485087.718924,0.0, 1, 1, 1,52,180000.0, 1, 2,13,60
1155,489051537.78675973,0.0, 1, 1, 1, 7,3653702.219657526, 1,31, 6,45
1156,489051537.78675973,0.0, 1, 1, 1, 7,3653702.219657526, 1,31, 6,45
1292,-1196007023.1301005,-39761.92858341945,12,27, 5,60,-2153.4240666258625, 4,29,12,30
1306,9699592030.652187,0.0, 1, 1, 1, 7,10461179.437088925,11,12,19,60
1307,114391802.16866665,0.0, 1, 1, 1, 7,4323567.062402869, 1,29,19,60
1308,9699592030.652187,0.0, 1, 1, 1, 7,10461179.437088925,11,12,19,60
13,48038507700.021286,151703.1275401932, 1, 5, 4,45,13195603.43894153, 7, 9,19,60
61,15743207428.383959,88139.10953165221, 1, 1, 1,15,1282023.4113694867, 1, 1,20,15
134,3685071073.4325233,63564.01800854099, 1, 2, 4,15,156554.22484006523, 1, 1,20,15
170,273393721.45532674,348.4159749238097, 1, 2, 4,15,17476.39704006126, 1, 1,12,15
207,339560869.0695816,815.2532113832032, 1, 2, 3,15,22990.642799023623, 1, 1,10,15
244,664895467.8009144,1521.856143006317, 1, 2, 4,15,53038.631142310165, 1, 1,20,15
281,2407221015.106824,59938.60262432081, 1, 1, 5,15,81951.81706819107, 1, 1,19,15
318,0.0,0.0, 1, 1, 1,15,0.0, 1, 1, 1,15
355,10310294493.051695,18561.32405820678, 1, 2, 4,15,724774.895203776, 1, 1,18,15
403,10310294493.051695,18561.32405820678, 1, 2, 4,15,724774.895203776, 1, 1,18,15
476,5569688622.066177,7098.072629279515, 1, 2, 4,15,356036.3026282215, 1, 1,12,15
513,0.0,0.0, 1, 1, 1,15,0.0, 1, 1, 1,15
562,1702523465.4668136,0.0, 1, 1,23,15,130077.58068673157, 5, 6,17,60
1046,0.0,0.0, 1, 1, 1,15,0.0, 1, 1, 1,15
1096,12412969037.775656,0.0, 1, 1, 1,15,1420834.4602811288, 7,22,16,60
1134,4795144664.308209,0.0, 1, 2,14,45,5353047.912356062, 1,29, 6,15
1326,9699592030.652193,0.0, 1, 1, 1,15,10540800.0, 7, 2,19,60
1379,0.0,0.0, 1, 1, 1,15,0.0, 1, 1, 1,15
End of Data
 Number of Records Written=          99
