Program Version,EnergyPlus, Version 22.2.0-c249759bad, YMD=2023.07.07 15:19
1,5,Environment Title[],Latitude[deg],Longitude[deg],Time Zone[],Elevation[m]
2,8,Day of Simulation[],Month[],Day of Month[],DST Indicator[1=yes 0=no],Hour[],StartMinute[],EndMinute[],DayType
3,5,Cumulative Day of Simulation[],Month[],Day of Month[],DST Indicator[1=yes 0=no],DayType  ! When Daily Report Variables Requested
4,2,Cumulative Days of Simulation[],Month[]  ! When Monthly Report Variables Requested
5,1,Cumulative Days of Simulation[] ! When Run Period Report Variables Requested
6,1,Calendar Year of Simulation[] ! When Annual Report Variables Requested
581,11,LIVING,AFN Zone Infiltration Air Change Rate [ach] !RunPeriod [Value,Min,Month,Day,Hour,Minute,Max,Month,Day,Hour,Minute]
582,11,ATTIC,AFN Zone Infiltration Air Change Rate [ach] !RunPeriod [Value,Min,Month,Day,Hour,Minute,Max,Month,Day,Hour,Minute]
583,11,CRAWLSPACE,AFN Zone Infiltration Air Change Rate [ach] !RunPeriod [Value,Min,Month,Day,Hour,Minute,Max,Month,Day,Hour,Minute]
1038,11,Facility,Facility Heating Setpoint Not Met Time [hr] !RunPeriod [Value,Min,Month,Day,Hour,Minute,Max,Month,Day,Hour,Minute]
1039,11,Facility,Facility Cooling Setpoint Not Met Time [hr] !RunPeriod [Value,Min,Month,Day,Hour,Minute,Max,Month,Day,Hour,Minute]
1115,11,DX_HEATING_COIL,Heating Coil Heating Energy [J] !RunPeriod [Value,Min,Month,Day,Hour,Minute,Max,Month,Day,Hour,Minute]
1128,11,DX_HEATING_COIL,Heating Coil Electricity Energy [J] !RunPeriod [Value,Min,Month,Day,Hour,Minute,Max,Month,Day,Hour,Minute]
1153,11,DX_HEATING_COIL,Heating Coil Defrost Electricity Energy [J] !RunPeriod [Value,Min,Month,Day,Hour,Minute,Max,Month,Day,Hour,Minute]
1154,11,DX_HEATING_COIL,Heating Coil Crankcase Heater Electricity Energy [J] !RunPeriod [Value,Min,Month,Day,Hour,Minute,Max,Month,Day,Hour,Minute]
1156,11,HEATING_RESISTANCE_BACKUP,Heating Coil Electricity Energy [J] !RunPeriod [Value,Min,Month,Day,Hour,Minute,Max,Month,Day,Hour,Minute]
13,11,Electricity:Facility [J] !RunPeriod [Value,Min,Month,Day,Hour,Minute,Max,Month,Day,Hour,Minute]
1134,11,Heating:Electricity [J] !RunPeriod [Value,Min,Month,Day,Hour,Minute,Max,Month,Day,Hour,Minute]
1096,11,Cooling:Electricity [J] !RunPeriod [Value,Min,Month,Day,Hour,Minute,Max,Month,Day,Hour,Minute]
562,11,Fans:Electricity [J] !RunPeriod [Value,Min,Month,Day,Hour,Minute,Max,Month,Day,Hour,Minute]
1388,11,Pumps:Electricity [J] !RunPeriod [Value,Min,Month,Day,Hour,Minute,Max,Month,Day,Hour,Minute]
1360,11,WaterSystems:Electricity [J] !RunPeriod [Value,Min,Month,Day,Hour,Minute,Max,Month,Day,Hour,Minute]
61,11,InteriorLights:Electricity [J] !RunPeriod [Value,Min,Month,Day,Hour,Minute,Max,Month,Day,Hour,Minute]
1046,11,ExteriorLights:Electricity [J] !RunPeriod [Value,Min,Month,Day,Hour,Minute,Max,Month,Day,Hour,Minute]
134,11,InteriorEquipment:Electricity [J] !RunPeriod [Value,Min,Month,Day,Hour,Minute,Max,Month,Day,Hour,Minute]
170,11,gas_dryer:InteriorEquipment:Electricity [J] !RunPeriod [Value,Min,Month,Day,Hour,Minute,Max,Month,Day,Hour,Minute]
207,11,clotheswasher:InteriorEquipment:Electricity [J] !RunPeriod [Value,Min,Month,Day,Hour,Minute,Max,Month,Day,Hour,Minute]
244,11,dishwasher:InteriorEquipment:Electricity [J] !RunPeriod [Value,Min,Month,Day,Hour,Minute,Max,Month,Day,Hour,Minute]
281,11,refrigerator:InteriorEquipment:Electricity [J] !RunPeriod [Value,Min,Month,Day,Hour,Minute,Max,Month,Day,Hour,Minute]
318,11,electric_mels:InteriorEquipment:Electricity [J] !RunPeriod [Value,Min,Month,Day,Hour,Minute,Max,Month,Day,Hour,Minute]
355,11,NaturalGas:Facility [J] !RunPeriod [Value,Min,Month,Day,Hour,Minute,Max,Month,Day,Hour,Minute]
1323,11,WaterSystems:NaturalGas [J] !RunPeriod [Value,Min,Month,Day,Hour,Minute,Max,Month,Day,Hour,Minute]
403,11,InteriorEquipment:NaturalGas [J] !RunPeriod [Value,Min,Month,Day,Hour,Minute,Max,Month,Day,Hour,Minute]
476,11,gas_dryer:InteriorEquipment:NaturalGas [J] !RunPeriod [Value,Min,Month,Day,Hour,Minute,Max,Month,Day,Hour,Minute]
513,11,gas_mels:InteriorEquipment:NaturalGas [J] !RunPeriod [Value,Min,Month,Day,Hour,Minute,Max,Month,Day,Hour,Minute]
End of Data Dictionary
1,EXTREME_WINTER,  42.94, -78.72,  -5.00, 218.20
5,7
1038,0.8333333333333333,0.0, 2, 3, 1,10,0.16666666666666666, 2, 3, 6,10
1039,0.0,0.0, 2, 3, 1,10,0.0, 2, 3, 1,10
581,0.31078294023141206,0.19077685020200996, 2, 8,10,60,0.7200568703694616, 2, 8,18,55
582,4.397062887160807,0.0, 2, 3, 3,60,12.77761108844993, 2, 4, 3,55
583,4.994627270149759,0.26806019006130355, 2, 5,12,60,14.312848648927341, 2, 8,18,55
1115,2287860797.8449955,0.0, 2, 3,23, 2,3288362.622773729, 2, 8, 6,60
1128,764244271.5514684,0.0, 2, 3,23, 2,978135.0171509641, 2, 8, 6,60
1153,21455882.510199647,0.0, 2, 3,23, 2,64621.99600609274, 2, 8,16,10
1154,23437346.417678483,0.0, 2, 3, 1, 1,120000.0, 2, 6,15,10
1156,380401703.1648253,0.0, 2, 3,12,13,1996078.1504230902, 2, 4, 6,40
13,1641254113.769019,306324.6925987483, 2, 6,15,10,4077510.092212421, 2, 4, 6,10
61,301924526.0238348,58759.40635443481, 2, 3, 1,10,854682.2742463244, 2, 3,20,10
134,70666020.44019979,42376.01200569399, 2, 3, 4,10,104369.48322671017, 2, 8,20,10
170,5241013.419656074,232.27731661587313, 2, 3, 4,10,11650.931360040839, 2, 8,12,10
207,6509451.13922266,543.5021409221355, 2, 3, 3,10,15327.095199349082, 2, 8,10,10
244,12749673.39982522,1014.5707620042115, 2, 3, 4,10,35359.08742820678, 2, 8,20,10
281,46165882.48149605,39959.06841621388, 2, 3, 5,10,54634.54471212738, 2, 3,19,10
318,0.0,0.0, 2, 3, 1,10,0.0, 2, 3, 1,10
355,743622256.5209223,12374.216038804521, 2, 3, 4,10,3829218.154066982, 2, 4,18,60
403,197687796.27748126,12374.216038804521, 2, 3, 4,10,483183.26346918393, 2, 8,18,10
476,106772067.24485692,4732.048419519677, 2, 3, 4,10,237357.535085481, 2, 8,12,10
513,0.0,0.0, 2, 3, 1,10,0.0, 2, 3, 1,10
562,74104523.660812,0.0, 2, 6,15,10,91414.23003709856, 2, 3, 1,50
1046,0.0,0.0, 2, 3, 1,10,0.0, 2, 3, 1,10
1096,0.0,0.0, 2, 3, 1,10,0.0, 2, 3, 1,10
1134,1189539203.6441712,120000.0, 2, 6,15,10,3568536.53916467, 2, 4, 6,10
1323,545934460.2434385,0.0, 2, 3, 1,10,3375000.000000001, 2, 4,10,50
1360,5019840.0,4980.0, 2, 3, 1,10,4980.000000000001, 2, 3, 1,50
1388,0.0,0.0, 2, 3, 1,10,0.0, 2, 3, 1,10
1,EXTREME_SUMMER,  42.94, -78.72,  -5.00, 218.20
5,7
1038,0.0,0.0, 7,13, 1,10,0.0, 7,13, 1,10
1039,31.83333333333333,0.0, 7,13, 1,10,0.16666666666666666, 7,14,17,10
581,0.16896091130958482,0.0, 7,13,21,25,0.949882378654592, 7,19,22,55
582,4.96290698571472,0.0, 7,13, 4,60,23.318950326662407, 7,19,22,55
583,6.019436607630074,0.022727001201806048, 7,13, 5,50,29.757928613355425, 7,19,22,55
1115,0.0,0.0, 7,13, 1,10,0.0, 7,13, 1,10
1128,0.0,0.0, 7,13, 1,10,0.0, 7,13, 1,10
1153,0.0,0.0, 7,13, 1,10,0.0, 7,13, 1,10
1154,0.0,0.0, 7,13, 1,10,0.0, 7,13, 1,10
1156,0.0,0.0, 7,13, 1,10,0.0, 7,13, 1,10
13,1046875335.3435982,138287.34813961992, 7,13, 4,60,2070352.7093106164, 7,16,20,10
61,301924526.0238348,58759.40635443481, 7,13, 1,10,854682.2742463244, 7,13,20,10
134,70666020.44019979,42376.01200569399, 7,13, 4,10,104369.48322671017, 7,18,20,10
170,5241013.419656074,232.27731661587313, 7,13, 4,10,11650.931360040839, 7,18,12,10
207,6509451.13922266,543.5021409221355, 7,13, 3,10,15327.095199349082, 7,18,10,10
244,12749673.39982522,1014.5707620042115, 7,13, 4,10,35359.08742820678, 7,18,20,10
281,46165882.48149605,39959.06841621388, 7,13, 5,10,54634.54471212738, 7,13,19,10
318,0.0,0.0, 7,13, 1,10,0.0, 7,13, 1,10
355,643134037.2678905,12374.216038804521, 7,13, 4,10,3829218.154066982, 7,14,18,60
403,197687796.27748126,12374.216038804521, 7,13, 4,10,483183.26346918393, 7,18,18,10
476,106772067.24485692,4732.048419519677, 7,13, 4,10,237357.535085481, 7,18,12,10
513,0.0,0.0, 7,13, 1,10,0.0, 7,13, 1,10
562,56039052.71494242,1047.1596856960807, 7,13, 6,20,91414.23003709855, 7,14,15,60
1046,0.0,0.0, 7,13, 1,10,0.0, 7,13, 1,10
1096,613225896.1646187,9642.07359235633, 7,13, 6,20,1097049.781041312, 7,16,17,60
1134,0.0,0.0, 7,13, 1,10,0.0, 7,13, 1,10
1323,445446240.9904078,0.0, 7,13, 1,10,3375000.0000000005, 7,13,16,60
1360,5019840.0,4979.999999999999, 7,17,11,10,4980.000000000001, 7,13, 8,40
1388,0.0,0.0, 7,13, 1,10,0.0, 7,13, 1,10
1,ANNUAL,  42.94, -78.72,  -5.00, 218.20
5,365
1038,25.833333333333382,0.0, 1, 1, 1,10,0.16666666666666666, 1, 4, 6,10
1039,55.83333333333333,0.0, 1, 1, 1,10,0.16666666666666666, 4, 8,13,40
581,0.2728140660581204,0.0, 5,25,21,43,1.2664047229076822,12,25, 2,60
582,5.417460477406239,0.0, 1, 8, 2,60,34.97092366111635, 5, 8,12,60
583,6.057823229021926,0.0, 5,25,23, 2,38.22476724006482,12,25, 2,60
1115,40085732785.38358,0.0, 1, 1,23, 2,3558601.508011852, 4,20, 6,10
1128,12478868465.377748,0.0, 1, 1,23, 2,1008618.1576070276, 3, 1,10,60
1153,433591385.4330414,0.0, 1, 1,23, 2,101674.57202208033, 3, 2, 6,40
1154,1585138438.9480479,0.0, 1, 1, 6, 2,120000.0, 1, 6,16,30
1156,5257946160.471449,0.0, 1, 1, 1, 1,3103470.431039631, 2,10, 6,30
13,48272085094.2666,106115.4183601288, 3,14, 4,10,4885125.162387446, 3, 5,21,60
61,15743207428.39043,58759.40635443481, 1, 1, 1,10,854682.2742463244, 1, 1,20,10
134,3685071073.433083,42376.01200569399, 1, 2, 4,10,104369.48322671017, 1, 1,20,10
170,273393721.45534325,232.27731661587313, 1, 2, 4,10,11650.931360040839, 1, 1,12,10
207,339560869.06955314,543.5021409221355, 1, 2, 3,10,15327.095199349082, 1, 1,10,10
244,664895467.8009839,1014.5707620042115, 1, 2, 4,10,35359.08742820678, 1, 1,20,10
281,2407221015.1057043,39959.06841621388, 1, 1, 5,10,54634.54471212738, 1, 1,19,10
318,0.0,0.0, 1, 1, 1,10,0.0, 1, 1, 1,10
355,35774648896.43875,12374.216038804521, 1, 2, 4,10,3829218.154066983,12,12,18,60
403,10310294493.052883,12374.216038804521, 1, 2, 4,10,483183.26346918393, 1, 1,18,10
476,5569688622.065564,4732.048419519677, 1, 2, 4,10,237357.535085481, 1, 1,12,10
513,0.0,0.0, 1, 1, 1,10,0.0, 1, 1, 1,10
562,1884987625.461099,0.0, 1, 6,16,30,91414.23003709858, 3, 6,10,30
1046,0.0,0.0, 1, 1, 1,10,0.0, 1, 1, 1,10
1096,6941525716.757804,0.0, 1, 1, 1,10,1098741.8670458598, 7,16,17,60
1134,19755544450.23025,0.0, 1,31,19,10,4048604.662077989, 1,11, 6,10
1323,25464354403.389717,0.0, 1, 1, 1,10,3375000.000000002, 1, 3, 9,60
1360,261748800.0,4979.999999999998, 3, 7,15,60,4980.000000000002, 3,11, 9,20
1388,0.0,0.0, 1, 1, 1,10,0.0, 1, 1, 1,10
End of Data
 Number of Records Written=          87
