Program Version,EnergyPlus, Version 22.2.0-c249759bad, YMD=2023.09.01 20:29
1,5,Environment Title[],Latitude[deg],Longitude[deg],Time Zone[],Elevation[m]
2,8,Day of Simulation[],Month[],Day of Month[],DST Indicator[1=yes 0=no],Hour[],StartMinute[],EndMinute[],DayType
3,5,Cumulative Day of Simulation[],Month[],Day of Month[],DST Indicator[1=yes 0=no],DayType  ! When Daily Report Variables Requested
4,2,Cumulative Days of Simulation[],Month[]  ! When Monthly Report Variables Requested
5,1,Cumulative Days of Simulation[] ! When Run Period Report Variables Requested
6,1,Calendar Year of Simulation[] ! When Annual Report Variables Requested
581,11,LIVING,AFN Zone Infiltration Air Change Rate [ach] !RunPeriod [Value,Min,Month,Day,Hour,Minute,Max,Month,Day,Hour,Minute]
582,11,ATTIC,AFN Zone Infiltration Air Change Rate [ach] !RunPeriod [Value,Min,Month,Day,Hour,Minute,Max,Month,Day,Hour,Minute]
583,11,CRAWLSPACE,AFN Zone Infiltration Air Change Rate [ach] !RunPeriod [Value,Min,Month,Day,Hour,Minute,Max,Month,Day,Hour,Minute]
1038,11,Facility,Facility Heating Setpoint Not Met Time [hr] !RunPeriod [Value,Min,Month,Day,Hour,Minute,Max,Month,Day,Hour,Minute]
1039,11,Facility,Facility Cooling Setpoint Not Met Time [hr] !RunPeriod [Value,Min,Month,Day,Hour,Minute,Max,Month,Day,Hour,Minute]
1115,11,DX_HEATING_COIL,Heating Coil Heating Energy [J] !RunPeriod [Value,Min,Month,Day,Hour,Minute,Max,Month,Day,Hour,Minute]
1128,11,DX_HEATING_COIL,Heating Coil Electricity Energy [J] !RunPeriod [Value,Min,Month,Day,Hour,Minute,Max,Month,Day,Hour,Minute]
1153,11,DX_HEATING_COIL,Heating Coil Defrost Electricity Energy [J] !RunPeriod [Value,Min,Month,Day,Hour,Minute,Max,Month,Day,Hour,Minute]
1154,11,DX_HEATING_COIL,Heating Coil Crankcase Heater Electricity Energy [J] !RunPeriod [Value,Min,Month,Day,Hour,Minute,Max,Month,Day,Hour,Minute]
1155,11,HEATING_RESISTANCE_BACKUP,Heating Coil Heating Energy [J] !RunPeriod [Value,Min,Month,Day,Hour,Minute,Max,Month,Day,Hour,Minute]
1156,11,HEATING_RESISTANCE_BACKUP,Heating Coil Electricity Energy [J] !RunPeriod [Value,Min,Month,Day,Hour,Minute,Max,Month,Day,Hour,Minute]
1292,11,WATER HEATER,Water Heater Heat Loss Energy [J] !RunPeriod [Value,Min,Month,Day,Hour,Minute,Max,Month,Day,Hour,Minute]
1306,11,WATER HEATER,Water Heater Heating Energy [J] !RunPeriod [Value,Min,Month,Day,Hour,Minute,Max,Month,Day,Hour,Minute]
1307,11,WATER HEATER,Water Heater Unmet Demand Heat Transfer Energy [J] !RunPeriod [Value,Min,Month,Day,Hour,Minute,Max,Month,Day,Hour,Minute]
1308,11,WATER HEATER,Water Heater Electricity Energy [J] !RunPeriod [Value,Min,Month,Day,Hour,Minute,Max,Month,Day,Hour,Minute]
13,11,Electricity:Facility [J] !RunPeriod [Value,Min,Month,Day,Hour,Minute,Max,Month,Day,Hour,Minute]
1134,11,Heating:Electricity [J] !RunPeriod [Value,Min,Month,Day,Hour,Minute,Max,Month,Day,Hour,Minute]
1096,11,Cooling:Electricity [J] !RunPeriod [Value,Min,Month,Day,Hour,Minute,Max,Month,Day,Hour,Minute]
562,11,Fans:Electricity [J] !RunPeriod [Value,Min,Month,Day,Hour,Minute,Max,Month,Day,Hour,Minute]
1379,11,Pumps:Electricity [J] !RunPeriod [Value,Min,Month,Day,Hour,Minute,Max,Month,Day,Hour,Minute]
1326,11,WaterSystems:Electricity [J] !RunPeriod [Value,Min,Month,Day,Hour,Minute,Max,Month,Day,Hour,Minute]
61,11,InteriorLights:Electricity [J] !RunPeriod [Value,Min,Month,Day,Hour,Minute,Max,Month,Day,Hour,Minute]
1046,11,ExteriorLights:Electricity [J] !RunPeriod [Value,Min,Month,Day,Hour,Minute,Max,Month,Day,Hour,Minute]
134,11,InteriorEquipment:Electricity [J] !RunPeriod [Value,Min,Month,Day,Hour,Minute,Max,Month,Day,Hour,Minute]
170,11,gas_dryer:InteriorEquipment:Electricity [J] !RunPeriod [Value,Min,Month,Day,Hour,Minute,Max,Month,Day,Hour,Minute]
207,11,clotheswasher:InteriorEquipment:Electricity [J] !RunPeriod [Value,Min,Month,Day,Hour,Minute,Max,Month,Day,Hour,Minute]
244,11,dishwasher:InteriorEquipment:Electricity [J] !RunPeriod [Value,Min,Month,Day,Hour,Minute,Max,Month,Day,Hour,Minute]
281,11,refrigerator:InteriorEquipment:Electricity [J] !RunPeriod [Value,Min,Month,Day,Hour,Minute,Max,Month,Day,Hour,Minute]
318,11,electric_mels:InteriorEquipment:Electricity [J] !RunPeriod [Value,Min,Month,Day,Hour,Minute,Max,Month,Day,Hour,Minute]
355,11,NaturalGas:Facility [J] !RunPeriod [Value,Min,Month,Day,Hour,Minute,Max,Month,Day,Hour,Minute]
403,11,InteriorEquipment:NaturalGas [J] !RunPeriod [Value,Min,Month,Day,Hour,Minute,Max,Month,Day,Hour,Minute]
476,11,gas_dryer:InteriorEquipment:NaturalGas [J] !RunPeriod [Value,Min,Month,Day,Hour,Minute,Max,Month,Day,Hour,Minute]
513,11,gas_mels:InteriorEquipment:NaturalGas [J] !RunPeriod [Value,Min,Month,Day,Hour,Minute,Max,Month,Day,Hour,Minute]
End of Data Dictionary
1,EXTREME_WINTER,  32.90, -80.03,  -5.00,  14.30
5,7
1038,0.0,0.0, 1, 6, 1,15,0.0, 1, 6, 1,15
1039,2.0,0.0, 1, 6, 1,15,0.25, 1, 6,13,45
581,0.28301937528598126,0.08293908876196703, 1,12, 6,52,0.7890848406619351, 1, 8, 2,60
582,4.184706689239507,0.0, 1, 6, 1,52,12.611632637981183, 1, 7,23, 7
583,0.015256384760528187,0.00006199235993293457, 1,12, 3,60,0.08360211323504875, 1, 8, 4,52
1115,527018903.2407544,0.0, 1, 6, 1,15,4552761.197260019, 1, 8, 4,15
1128,167973261.14890337,0.0, 1, 6, 1,15,1473990.5368828143, 1, 8, 6,30
1153,1553529.7815652373,0.0, 1, 6, 1,15,57017.37642802435, 1, 6, 6,45
1154,60684471.72694791,0.0, 1, 6, 6, 5,180000.0, 1, 6, 1,15
1155,39010238.70263614,0.0, 1, 6, 1,15,2558653.078955271, 1, 8, 8,15
1156,39010238.70263614,0.0, 1, 6, 1,15,2558653.078955271, 1, 8, 8,15
1292,-24382044.563061062,-39730.43993679206, 1, 9, 2,45,-4531.3860516129735, 1, 6,10,45
1306,160755993.86007842,0.0, 1, 6, 1,15,4050000.0, 1, 6, 8,45
1307,26653525.055285495,0.0, 1, 6, 1,15,3783101.4954267424, 1,11,10,22
1308,160755993.86007842,0.0, 1, 6, 1,15,4050000.0, 1, 6, 8,45
13,828945701.5760174,152071.80019841267, 1,12, 4,15,7037761.431009112, 1, 8, 9,30
61,301924526.02383536,88139.10953165221, 1, 6, 1,15,1282023.4113694867, 1, 6,20,15
134,70666020.44019976,63564.01800854099, 1, 6, 4,15,156554.22484006523, 1,11,20,15
170,5241013.419656067,348.4159749238097, 1, 6, 4,15,17476.39704006126, 1,11,12,15
207,6509451.13922267,815.2532113832032, 1, 6, 3,15,22990.642799023623, 1,11,10,15
244,12749673.399825225,1521.856143006317, 1, 6, 4,15,53038.631142310165, 1,11,20,15
281,46165882.481495745,59938.60262432081, 1, 6, 5,15,81951.81706819107, 1, 6,19,15
318,0.0,0.0, 1, 6, 1,15,0.0, 1, 6, 1,15
355,197687796.27748066,18561.32405820678, 1, 6, 4,15,724774.895203776, 1,11,18,15
403,197687796.27748066,18561.32405820678, 1, 6, 4,15,724774.895203776, 1,11,18,15
476,106772067.24485716,7098.072629279515, 1, 6, 4,15,356036.3026282215, 1,11,12,15
513,0.0,0.0, 1, 6, 1,15,0.0, 1, 6, 1,15
562,16602368.191540696,0.0, 1, 6, 1,15,137923.3505540831, 1, 8, 4,15
1046,0.0,0.0, 1, 6, 1,15,0.0, 1, 6, 1,15
1096,9775291.70031153,0.0, 1, 6, 1,15,533976.7712547464, 1, 6,15,45
1134,269221501.36005265,0.0, 1, 6,10,45,4310489.631936355, 1, 8, 6,15
1326,160755993.86007848,0.0, 1, 6, 1,15,4050000.0, 1, 6, 8,45
1379,0.0,0.0, 1, 6, 1,15,0.0, 1, 6, 1,15
1,EXTREME_SUMMER,  32.90, -80.03,  -5.00,  14.30
5,7
1038,0.0,0.0, 7,20, 1,15,0.0, 7,20, 1,15
1039,29.5,0.0, 7,20, 1,15,0.25, 7,20,14,15
581,0.16103342393752468,0.009283677591503307, 7,20,10,31,0.5422382391500362, 7,25,19,50
582,4.089043739001012,0.12788297634774984, 7,26, 6,60,10.149819455166943, 7,25,19,50
583,0.04260269989642826,0.0011663511348553649, 7,26,23, 5,0.07374509591570287, 7,22,19,48
1115,0.0,0.0, 7,20, 1,15,0.0, 7,20, 1,15
1128,0.0,0.0, 7,20, 1,15,0.0, 7,20, 1,15
1153,0.0,0.0, 7,20, 1,15,0.0, 7,20, 1,15
1154,0.0,0.0, 7,20, 1,15,0.0, 7,20, 1,15
1155,0.0,0.0, 7,20, 1,15,0.0, 7,20, 1,15
1156,0.0,0.0, 7,20, 1,15,0.0, 7,20, 1,15
1292,-21952135.04648436,-34343.608635340366, 7,21,12,45,-3332.15327334374, 7,20,10,45
1306,114757591.23541653,0.0, 7,20, 1,15,3298733.2353595747, 7,21, 7,15
1307,8913652.48232005,0.0, 7,20, 1,15,1294470.1561260591, 7,25,10,25
1308,114757591.23541653,0.0, 7,20, 1,15,3298733.2353595747, 7,21, 7,15
13,1162966160.7164052,364986.1546496219, 7,21, 4,60,5563101.184798196, 7,24, 8,30
61,301924526.02383536,88139.10953165221, 7,20, 1,15,1282023.4113694867, 7,20,20,15
134,70666020.44019976,63564.01800854099, 7,20, 4,15,156554.22484006523, 7,25,20,15
170,5241013.419656067,348.4159749238097, 7,20, 4,15,17476.39704006126, 7,25,12,15
207,6509451.13922267,815.2532113832032, 7,20, 3,15,22990.642799023623, 7,25,10,15
244,12749673.399825225,1521.856143006317, 7,20, 4,15,53038.631142310165, 7,25,20,15
281,46165882.481495745,59938.60262432081, 7,20, 5,15,81951.81706819107, 7,20,19,15
318,0.0,0.0, 7,20, 1,15,0.0, 7,20, 1,15
355,197687796.27748066,18561.32405820678, 7,20, 4,15,724774.895203776, 7,25,18,15
403,197687796.27748066,18561.32405820678, 7,20, 4,15,724774.895203776, 7,25,18,15
476,106772067.24485716,7098.072629279515, 7,20, 4,15,356036.3026282215, 7,25,12,15
513,0.0,0.0, 7,20, 1,15,0.0, 7,20, 1,15
562,55776873.09188769,9278.198621933798, 7,26,23,15,137923.3505540831, 7,20,13,15
1046,0.0,0.0, 7,20, 1,15,0.0, 7,20, 1,15
1096,619841149.9250668,88784.13547648361, 7,26,23,15,1727279.4261582987, 7,22,14,60
1134,0.0,0.0, 7,20, 1,15,0.0, 7,20, 1,15
1326,114757591.23541649,0.0, 7,20, 1,15,4050000.0, 7,24, 8,30
1379,0.0,0.0, 7,20, 1,15,0.0, 7,20, 1,15
1,ANNUAL,  32.90, -80.03,  -5.00,  14.30
5,365
1038,1.25,0.0, 1, 1, 1,15,0.25, 1,14, 6,15
1039,416.0,0.0, 1, 1, 1,15,0.25, 1,17,15,15
581,0.18775598952334205,0.0, 4, 5,23, 3,0.8331353313473246, 3,28,14,60
582,3.5329698840969885,0.0, 1, 1, 2,48,19.821872439469892, 3,29,16,50
583,0.025374090682819678,0.0, 3,19, 9,51,0.0833849317445016, 1, 8, 4,52
1115,3781017624.6208076,0.0, 1, 1, 1,15,4743702.9705093205, 3, 3, 6,45
1128,1153009738.8597198,0.0, 1, 1, 1,15,1514682.7888015802, 3, 3, 6,45
1153,53537988.356708236,0.0, 1, 1, 1,15,106635.31841167592, 2,13, 6,45
1154,845503211.566666,0.0, 1, 1, 6, 5,180000.0, 1, 1, 1,15
1155,58960191.099856734,0.0, 1, 1, 1,15,2607548.2441699966, 1, 8, 8,15
1156,58960191.099856734,0.0, 1, 1, 1,15,2607548.2441699966, 1, 8, 8,15
1292,-1181774402.273265,-39770.01120685851, 1,14, 3,60,-1798.937371587878, 3,23,10,30
1306,7212488951.057639,0.0, 1, 1, 1,15,4050000.0, 1, 4, 9,45
1307,930993526.0268127,0.0, 1, 1, 1,15,7591106.291472707, 1,14,10,30
1308,7212488951.057639,0.0, 1, 1, 1,15,4050000.0, 1, 4, 9,45
13,45670012863.137436,151703.1275401932, 1, 2, 4,15,7096652.486513985, 1, 8, 9,30
61,15743207428.383959,88139.10953165221, 1, 1, 1,15,1282023.4113694867, 1, 1,20,15
134,3685071073.4325233,63564.01800854099, 1, 2, 4,15,156554.22484006523, 1, 1,20,15
170,273393721.45532674,348.4159749238097, 1, 2, 4,15,17476.39704006126, 1, 1,12,15
207,339560869.0695816,815.2532113832032, 1, 2, 3,15,22990.642799023623, 1, 1,10,15
244,664895467.8009144,1521.856143006317, 1, 2, 4,15,53038.631142310165, 1, 1,20,15
281,2407221015.106824,59938.60262432081, 1, 1, 5,15,81951.81706819107, 1, 1,19,15
318,0.0,0.0, 1, 1, 1,15,0.0, 1, 1, 1,15
355,10310294493.051695,18561.32405820678, 1, 2, 4,15,724774.895203776, 1, 1,18,15
403,10310294493.051695,18561.32405820678, 1, 2, 4,15,724774.895203776, 1, 1,18,15
476,5569688622.066177,7098.072629279515, 1, 2, 4,15,356036.3026282215, 1, 1,12,15
513,0.0,0.0, 1, 1, 1,15,0.0, 1, 1, 1,15
562,1622077585.8445258,0.0, 1, 1, 1,15,137923.3505540831, 1, 8, 3,60
1046,0.0,0.0, 1, 1, 1,15,0.0, 1, 1, 1,15
1096,15296156694.534151,0.0, 1, 1, 1,15,1744925.8942290246, 7,13,15,60
1134,2111011129.8829517,0.0, 1, 1,12,30,4360891.698526276, 1, 8, 6,15
1326,7212488951.057632,0.0, 1, 1, 1,15,4050000.0000000014,11,25,10,45
1379,0.0,0.0, 1, 1, 1,15,0.0, 1, 1, 1,15
End of Data
 Number of Records Written=          99
