Program Version,EnergyPlus, Version 22.2.0-c249759bad, YMD=2023.09.01 14:30
1,5,Environment Title[],Latitude[deg],Longitude[deg],Time Zone[],Elevation[m]
2,8,Day of Simulation[],Month[],Day of Month[],DST Indicator[1=yes 0=no],Hour[],StartMinute[],EndMinute[],DayType
3,5,Cumulative Day of Simulation[],Month[],Day of Month[],DST Indicator[1=yes 0=no],DayType  ! When Daily Report Variables Requested
4,2,Cumulative Days of Simulation[],Month[]  ! When Monthly Report Variables Requested
5,1,Cumulative Days of Simulation[] ! When Run Period Report Variables Requested
6,1,Calendar Year of Simulation[] ! When Annual Report Variables Requested
7,1,Environment,Site Outdoor Air Drybulb Temperature [C] !Hourly
619,1,DX_HEATING_COIL,Heating Coil Heating Rate [W] !Hourly
633,1,DX_HEATING_COIL,Heating Coil Electricity Rate [W] !Hourly
659,1,DX_HEATING_COIL,Heating Coil Defrost Electricity Rate [W] !Hourly
661,1,DX_HEATING_COIL,Heating Coil Crankcase Heater Electricity Rate [W] !Hourly
690,1,FAN,Fan Electricity Rate [W] !Hourly
716,1,HEAT PUMP WATER HEATER FAN,Fan Electricity Rate [W] !Hourly
718,1,LIVING,Zone Mean Air Temperature [C] !Hourly
719,1,ATTIC,Zone Mean Air Temperature [C] !Hourly
720,1,CRAWLSPACE,Zone Mean Air Temperature [C] !Hourly
843,1,LIVING,Zone Predicted Sensible Load to Heating Setpoint Heat Transfer Rate [W] !Hourly
844,1,LIVING,Zone System Predicted Sensible Load to Heating Setpoint Heat Transfer Rate [W] !Hourly
907,1,ATTIC,Zone Predicted Sensible Load to Heating Setpoint Heat Transfer Rate [W] !Hourly
908,1,ATTIC,Zone System Predicted Sensible Load to Heating Setpoint Heat Transfer Rate [W] !Hourly
971,1,CRAWLSPACE,Zone Predicted Sensible Load to Heating Setpoint Heat Transfer Rate [W] !Hourly
972,1,CRAWLSPACE,Zone System Predicted Sensible Load to Heating Setpoint Heat Transfer Rate [W] !Hourly
1195,1,HEATING_RESISTANCE_BACKUP,Heating Coil Heating Rate [W] !Hourly
1197,1,HEATING_RESISTANCE_BACKUP,Heating Coil Electricity Rate [W] !Hourly
End of Data Dictionary
1,EXTREME_WINTER,  33.43,-112.02,  -7.00, 337.40
2,1,12,15, 0, 1, 0.00,60.00,Monday
7,13.9
718,22.825585682005684
719,13.146994177665333
720,21.516074515538225
619,0.0
633,0.0
659,0.0
661,0.0
690,0.0
716,0.0
843,-2440.0162678041515
844,-2440.0162678041515
907,0.0
908,0.0
971,0.0
972,0.0
1195,0.0
1197,0.0
2,1,12,15, 0, 2, 0.00,60.00,Monday
7,14.0
718,22.147804576606248
719,13.759262418728557
720,21.440917500749634
619,0.0
633,0.0
659,0.0
661,0.0
690,0.0
716,0.0
843,-1941.9341617264918
844,-1941.9341617264918
907,0.0
908,0.0
971,0.0
972,0.0
1195,0.0
1197,0.0
2,1,12,15, 0, 3, 0.00,60.00,Monday
7,13.3
718,22.009571614828243
719,13.55867294935756
720,21.3925647992411
619,0.0
633,0.0
659,0.0
661,0.0
690,0.0
716,0.0
843,-2173.5901981852585
844,-2173.5901981852585
907,0.0
908,0.0
971,0.0
972,0.0
1195,0.0
1197,0.0
2,1,12,15, 0, 4, 0.00,60.00,Monday
7,12.8
718,21.159380444583096
719,13.42827622992868
720,21.337113482357154
619,0.0
633,0.0
659,0.0
661,0.0
690,0.0
716,0.0
843,-1403.178936674325
844,-1403.178936674325
907,0.0
908,0.0
971,0.0
972,0.0
1195,0.0
1197,0.0
2,1,12,15, 0, 5, 0.00,60.00,Monday
7,12.2
718,21.304374245744945
719,12.711037631625588
720,21.290890505978684
619,0.0
633,0.0
659,0.0
661,0.0
690,0.0
716,0.0
843,-1885.9315883998443
844,-1885.9315883998443
907,0.0
908,0.0
971,0.0
972,0.0
1195,0.0
1197,0.0
2,1,12,15, 0, 6, 0.00,60.00,Monday
7,12.2
718,21.37517601914064
719,12.322121710268737
720,21.241530505427303
619,0.0
633,0.0
659,0.0
661,0.0
690,0.0
716,0.0
843,-838.6217684559506
844,-838.6217684559506
907,0.0
908,0.0
971,0.0
972,0.0
1195,0.0
1197,0.0
2,1,12,15, 0, 7, 0.00,60.00,Monday
7,11.7
718,19.96990780619102
719,11.885434553367137
720,21.19097355785101
619,0.0
633,0.0
659,0.0
661,0.0
690,0.0
716,85.44000000000005
843,-744.9102225226443
844,-744.9102225226443
907,0.0
908,0.0
971,0.0
972,0.0
1195,0.0
1197,0.0
2,1,12,15, 0, 8, 0.00,60.00,Monday
7,11.1
718,20.264476849422802
719,11.427941832819565
720,21.140889329691422
619,0.0
633,0.0
659,0.0
661,0.0
690,0.0
716,11.367897874952837
843,-606.7351910727193
844,-606.7351910727193
907,0.0
908,0.0
971,0.0
972,0.0
1195,0.0
1197,0.0
2,1,12,15, 0, 9, 0.00,60.00,Monday
7,11.1
718,21.224749456695342
719,11.887117470849196
720,21.0944614884923
619,0.0
633,0.0
659,0.0
661,0.0
690,0.0
716,0.0
843,-1014.0756499058134
844,-1014.0756499058134
907,0.0
908,0.0
971,0.0
972,0.0
1195,0.0
1197,0.0
2,1,12,15, 0,10, 0.00,60.00,Monday
7,11.7
718,22.42009737958796
719,14.798065098888364
720,21.055139680137433
619,0.0
633,0.0
659,0.0
661,0.0
690,0.0
716,0.0
843,-1705.8302497374807
844,-1705.8302497374807
907,0.0
908,0.0
971,0.0
972,0.0
1195,0.0
1197,0.0
2,1,12,15, 0,11, 0.00,60.00,Monday
7,12.2
718,23.313952527281995
719,21.575651108032687
720,21.03767462795787
619,0.0
633,0.0
659,0.0
661,0.0
690,4.2613113370965285
716,0.0
843,-2873.239015937401
844,-2873.239015937401
907,0.0
908,0.0
971,0.0
972,0.0
1195,0.0
1197,0.0
2,1,12,15, 0,12, 0.00,60.00,Monday
7,12.2
718,23.246213426327564
719,25.498326720763323
720,21.0481473843898
619,0.0
633,0.0
659,0.0
661,0.0
690,15.707423199985998
716,0.0
843,-3117.459451010778
844,-3117.459451010778
907,0.0
908,0.0
971,0.0
972,0.0
1195,0.0
1197,0.0
2,1,12,15, 0,13, 0.00,60.00,Monday
7,14.4
718,23.254384218820718
719,21.262622818543754
720,21.0771886159089
619,0.0
633,0.0
659,0.0
661,0.0
690,19.660705225196697
716,0.0
843,-3282.20915253169
844,-3282.20915253169
907,0.0
908,0.0
971,0.0
972,0.0
1195,0.0
1197,0.0
2,1,12,15, 0,14, 0.00,60.00,Monday
7,16.1
718,23.401518681076205
719,22.147294215396794
720,21.111169182640143
619,0.0
633,0.0
659,0.0
661,0.0
690,2.593161070391928
716,60.09514458747865
843,-3994.3054592013596
844,-3994.3054592013596
907,0.0
908,0.0
971,0.0
972,0.0
1195,0.0
1197,0.0
2,1,12,15, 0,15, 0.00,60.00,Monday
7,15.0
718,23.38270481262003
719,20.15664865358976
720,21.16303221559428
619,0.0
633,0.0
659,0.0
661,0.0
690,17.277507697939733
716,0.0
843,-3755.5702838560082
844,-3755.5702838560082
907,0.0
908,0.0
971,0.0
972,0.0
1195,0.0
1197,0.0
2,1,12,15, 0,16, 0.00,60.00,Monday
7,15.6
718,23.381716926486764
719,21.519366222954332
720,21.219943619995583
619,0.0
633,0.0
659,0.0
661,0.0
690,39.1281826688251
716,0.0
843,-4209.51905502843
844,-4209.51905502843
907,0.0
908,0.0
971,0.0
972,0.0
1195,0.0
1197,0.0
2,1,12,15, 0,17, 0.00,60.00,Monday
7,15.0
718,23.286821608781807
719,19.87793326639268
720,21.27669696040114
619,0.0
633,0.0
659,0.0
661,0.0
690,59.80820017437322
716,0.0
843,-5607.624744638872
844,-5607.624744638872
907,0.0
908,0.0
971,0.0
972,0.0
1195,0.0
1197,0.0
2,1,12,15, 0,18, 0.00,60.00,Monday
7,15.0
718,23.340882702044826
719,17.84447337938457
720,21.327725665859486
619,0.0
633,0.0
659,0.0
661,0.0
690,37.90139531568412
716,0.0
843,-5018.0719097667115
844,-5018.0719097667115
907,0.0
908,0.0
971,0.0
972,0.0
1195,0.0
1197,0.0
2,1,12,15, 0,19, 0.00,60.00,Monday
7,13.3
718,23.23418668356724
719,15.65598449793439
720,21.36822038269059
619,0.0
633,0.0
659,0.0
661,0.0
690,4.0409477681192385
716,68.2845723679323
843,-4397.379411298327
844,-4397.379411298327
907,0.0
908,0.0
971,0.0
972,0.0
1195,0.0
1197,0.0
2,1,12,15, 0,20, 0.00,60.00,Monday
7,11.7
718,23.13810241260581
719,13.866463925698165
720,21.394280244372936
619,0.0
633,0.0
659,0.0
661,0.0
690,22.69556385140334
716,0.0
843,-4141.288012816747
844,-4141.288012816747
907,0.0
908,0.0
971,0.0
972,0.0
1195,0.0
1197,0.0
2,1,12,15, 0,21, 0.00,60.00,Monday
7,11.7
718,22.889109141545546
719,13.22526510004214
720,21.406301038936718
619,0.0
633,0.0
659,0.0
661,0.0
690,0.0
716,75.89643162540216
843,-3768.9291682490166
844,-3768.9291682490166
907,0.0
908,0.0
971,0.0
972,0.0
1195,0.0
1197,0.0
2,1,12,15, 0,22, 0.00,60.00,Monday
7,11.1
718,23.307846820043224
719,12.516049479171603
720,21.397107003035604
619,0.0
633,0.0
659,0.0
661,0.0
690,10.761834264451215
716,0.0
843,-3576.7302190284445
844,-3576.7302190284445
907,0.0
908,0.0
971,0.0
972,0.0
1195,0.0
1197,0.0
2,1,12,15, 0,23, 0.00,60.00,Monday
7,11.1
718,23.42793535575232
719,11.940250308675191
720,21.37889772631745
619,0.0
633,0.0
659,0.0
661,0.0
690,0.0
716,0.0
843,-3517.2223351138946
844,-3517.2223351138946
907,0.0
908,0.0
971,0.0
972,0.0
1195,0.0
1197,0.0
2,1,12,15, 0,24, 0.00,60.00,Monday
7,11.1
718,23.014754849561434
719,11.67622026392164
720,21.34999278482658
619,0.0
633,0.0
659,0.0
661,0.0
690,0.0
716,0.0
843,-2501.0981307119055
844,-2501.0981307119055
907,0.0
908,0.0
971,0.0
972,0.0
1195,0.0
1197,0.0
2,2,12,16, 0, 1, 0.00,60.00,Tuesday
7,17.8
718,23.13634328144928
719,14.849238434565738
720,21.317157729043387
619,0.0
633,0.0
659,0.0
661,0.0
690,0.0
716,0.0
843,-2547.922162227156
844,-2547.922162227156
907,0.0
908,0.0
971,0.0
972,0.0
1195,0.0
1197,0.0
2,2,12,16, 0, 2, 0.00,60.00,Tuesday
7,14.4
718,22.255861902880643
719,14.681583273506162
720,21.278747018599528
619,0.0
633,0.0
659,0.0
661,0.0
690,0.0
716,0.0
843,-2234.450229423078
844,-2234.450229423078
907,0.0
908,0.0
971,0.0
972,0.0
1195,0.0
1197,0.0
2,2,12,16, 0, 3, 0.00,60.00,Tuesday
7,10.6
718,21.61269022435452
719,12.718125671311196
720,21.244160059080382
619,0.0
633,0.0
659,0.0
661,0.0
690,0.0
716,0.0
843,-1891.1209002628348
844,-1891.1209002628348
907,0.0
908,0.0
971,0.0
972,0.0
1195,0.0
1197,0.0
2,2,12,16, 0, 4, 0.00,60.00,Tuesday
7,10.6
718,21.223091560020475
719,11.943729725416741
720,21.20718072743699
619,0.0
633,0.0
659,0.0
661,0.0
690,0.0
716,0.0
843,-1797.9333587073343
844,-1797.9333587073343
907,0.0
908,0.0
971,0.0
972,0.0
1195,0.0
1197,0.0
2,2,12,16, 0, 5, 0.00,60.00,Tuesday
7,10.6
718,21.141978041706803
719,11.39685848308323
720,21.167256337654734
619,0.0
633,0.0
659,0.0
661,0.0
690,0.0
716,0.0
843,-1652.321378284616
844,-1652.321378284616
907,0.0
908,0.0
971,0.0
972,0.0
1195,0.0
1197,0.0
2,2,12,16, 0, 6, 0.00,60.00,Tuesday
7,10.6
718,21.128887057948063
719,11.101610071264423
720,21.12273571347678
619,0.0
633,0.0
659,0.0
661,0.0
690,0.0
716,0.0
843,-744.3572321526262
844,-744.3572321526262
907,0.0
908,0.0
971,0.0
972,0.0
1195,0.0
1197,0.0
2,2,12,16, 0, 7, 0.00,60.00,Tuesday
7,16.7
718,20.54497891826081
719,13.599237940058504
720,21.076956227876288
619,0.0
633,0.0
659,0.0
661,0.0
690,0.0
716,56.85149058043326
843,-991.9952090934794
844,-991.9952090934794
907,0.0
908,0.0
971,0.0
972,0.0
1195,0.0
1197,0.0
2,2,12,16, 0, 8, 0.00,60.00,Tuesday
7,11.7
718,19.738720495953995
719,12.56886324527147
720,21.03039899217674
619,0.0
633,0.0
659,0.0
661,0.0
690,0.0
716,79.78210412598219
843,-771.2886670158568
844,-771.2886670158568
907,0.0
908,0.0
971,0.0
972,0.0
1195,0.0
1197,0.0
2,2,12,16, 0, 9, 0.00,60.00,Tuesday
7,12.1
718,20.34267557931444
719,12.516387219921734
720,20.989580012929867
619,0.0
633,0.0
659,0.0
661,0.0
690,0.0
716,0.0
843,-512.757633510384
844,-512.757633510384
907,0.0
908,0.0
971,0.0
972,0.0
1195,0.0
1197,0.0
2,2,12,16, 0,10, 0.00,60.00,Tuesday
7,12.2
718,20.32409116218228
719,12.801985779097713
720,20.947561916286652
619,0.0
633,0.0
659,0.0
661,0.0
690,0.0
716,0.0
843,-323.50322090775353
844,-323.50322090775353
907,0.0
908,0.0
971,0.0
972,0.0
1195,0.0
1197,0.0
2,2,12,16, 0,11, 0.00,60.00,Tuesday
7,12.1
718,20.27412898900559
719,12.898950537085742
720,20.90792970211615
619,0.0
633,0.0
659,0.0
661,0.0
690,0.0
716,0.0
843,-303.2345282265087
844,-303.2345282265087
907,0.0
908,0.0
971,0.0
972,0.0
1195,0.0
1197,0.0
2,2,12,16, 0,12, 0.00,60.00,Tuesday
7,12.1
718,20.249841630642784
719,13.146747768443015
720,20.87008368505973
619,0.0
633,0.0
659,0.0
661,0.0
690,0.0
716,0.0
843,-265.4353366351843
844,-265.4353366351843
907,0.0
908,0.0
971,0.0
972,0.0
1195,0.0
1197,0.0
2,2,12,16, 0,13, 0.00,60.00,Tuesday
7,12.2
718,20.460668900530944
719,13.9750774843925
720,20.835903359267682
619,0.0
633,0.0
659,0.0
661,0.0
690,0.0
716,0.0
843,-364.01832965951144
844,-364.01832965951144
907,0.0
908,0.0
971,0.0
972,0.0
1195,0.0
1197,0.0
2,2,12,16, 0,14, 0.00,60.00,Tuesday
7,13.9
718,21.28321207935937
719,18.73991593228356
720,20.808036813253928
619,0.0
633,0.0
659,0.0
661,0.0
690,0.0
716,0.0
843,-868.1192026496919
844,-868.1192026496919
907,0.0
908,0.0
971,0.0
972,0.0
1195,0.0
1197,0.0
2,2,12,16, 0,15, 0.00,60.00,Tuesday
7,14.4
718,21.587437317870634
719,18.794609971702133
720,20.789714905194227
619,0.0
633,0.0
659,0.0
661,0.0
690,0.0
716,0.0
843,-1228.8705312779239
844,-1228.8705312779239
907,0.0
908,0.0
971,0.0
972,0.0
1195,0.0
1197,0.0
2,2,12,16, 0,16, 0.00,60.00,Tuesday
7,12.8
718,21.886975281676474
719,17.480117055116995
720,20.79006183760793
619,0.0
633,0.0
659,0.0
661,0.0
690,0.0
716,0.0
843,-1428.0555772521548
844,-1428.0555772521548
907,0.0
908,0.0
971,0.0
972,0.0
1195,0.0
1197,0.0
2,2,12,16, 0,17, 0.00,60.00,Tuesday
7,12.0
718,21.877481420266733
719,15.063897466959007
720,20.79975332760578
619,0.0
633,0.0
659,0.0
661,0.0
690,0.0
716,0.0
843,-1266.335075622127
844,-1266.335075622127
907,0.0
908,0.0
971,0.0
972,0.0
1195,0.0
1197,0.0
2,2,12,16, 0,18, 0.00,60.00,Tuesday
7,10.6
718,20.779990764467215
719,13.325681191709826
720,20.811118604713577
619,0.0
633,0.0
659,0.0
661,0.0
690,0.0
716,64.89965276652886
843,-1217.5582844639139
844,-1217.5582844639139
907,0.0
908,0.0
971,0.0
972,0.0
1195,0.0
1197,0.0
2,2,12,16, 0,19, 0.00,60.00,Tuesday
7,10.0
718,21.859294156345783
719,12.087488034232143
720,20.819292749902438
619,0.0
633,0.0
659,0.0
661,0.0
690,0.0
716,0.0
843,-1862.558293674012
844,-1862.558293674012
907,0.0
908,0.0
971,0.0
972,0.0
1195,0.0
1197,0.0
2,2,12,16, 0,20, 0.00,60.00,Tuesday
7,10.0
718,20.76901045314345
719,11.4680817813289
720,20.814023942359036
619,0.0
633,0.0
659,0.0
661,0.0
690,0.0
716,85.44000000000005
843,-1333.2091438243851
844,-1333.2091438243851
907,0.0
908,0.0
971,0.0
972,0.0
1195,0.0
1197,0.0
2,2,12,16, 0,21, 0.00,60.00,Tuesday
7,10.0
718,21.345539729252618
719,10.703904531145735
720,20.80039628447505
619,0.0
633,0.0
659,0.0
661,0.0
690,0.0
716,37.08759795152135
843,-1925.3219211327214
844,-1925.3219211327214
907,0.0
908,0.0
971,0.0
972,0.0
1195,0.0
1197,0.0
2,2,12,16, 0,22, 0.00,60.00,Tuesday
7,10.0
718,21.851307098041683
719,9.831383156409938
720,20.77863227986081
619,0.0
633,0.0
659,0.0
661,0.0
690,0.0
716,0.0
843,-1479.9750868373721
844,-1479.9750868373721
907,0.0
908,0.0
971,0.0
972,0.0
1195,0.0
1197,0.0
2,2,12,16, 0,23, 0.00,60.00,Tuesday
7,10.0
718,21.684202015780475
719,9.146283018962048
720,20.75108475701055
619,0.0
633,0.0
659,0.0
661,0.0
690,0.0
716,0.0
843,-1344.0554990638311
844,-1344.0554990638311
907,0.0
908,0.0
971,0.0
972,0.0
1195,0.0
1197,0.0
2,2,12,16, 0,24, 0.00,60.00,Tuesday
7,10.0
718,21.224104390095203
719,8.079679980207857
720,20.719497493272062
619,0.0
633,0.0
659,0.0
661,0.0
690,0.0
716,0.0
843,-1284.2609989145067
844,-1284.2609989145067
907,0.0
908,0.0
971,0.0
972,0.0
1195,0.0
1197,0.0
2,3,12,17, 0, 1, 0.00,60.00,Wednesday
7,8.9
718,20.6392376464285
719,6.953528618265108
720,20.682689284576558
619,0.0
633,0.0
659,0.0
661,200.0
690,0.0
716,0.0
843,-950.3320388243501
844,-950.3320388243501
907,0.0
908,0.0
971,0.0
972,0.0
1195,0.0
1197,0.0
2,3,12,17, 0, 2, 0.00,60.00,Wednesday
7,8.9
718,20.252774675742792
719,6.097727718444882
720,20.64097771705741
619,0.0
633,0.0
659,0.0
661,200.0
690,0.0
716,0.0
843,-839.5448440226519
844,-839.5448440226519
907,0.0
908,0.0
971,0.0
972,0.0
1195,0.0
1197,0.0
2,3,12,17, 0, 3, 0.00,60.00,Wednesday
7,8.9
718,19.85242415875326
719,6.735598855113188
720,20.594061610561695
619,0.0
633,0.0
659,0.0
661,200.0
690,0.0
716,0.0
843,-620.9698245218124
844,-620.9698245218124
907,0.0
908,0.0
971,0.0
972,0.0
1195,0.0
1197,0.0
2,3,12,17, 0, 4, 0.00,60.00,Wednesday
7,8.3
718,19.427864210653514
719,6.989956557761377
720,20.54480183671973
619,0.0
633,0.0
659,0.0
661,200.0
690,0.0
716,0.0
843,-452.1194655593272
844,-452.1194655593272
907,0.0
908,0.0
971,0.0
972,0.0
1195,0.0
1197,0.0
2,3,12,17, 0, 5, 0.00,60.00,Wednesday
7,8.3
718,19.1048448456651
719,7.2813164815385125
720,20.492285759165714
619,0.0
633,0.0
659,0.0
661,200.0
690,0.0
716,0.0
843,-276.5311342203131
844,-276.5311342203131
907,0.0
908,0.0
971,0.0
972,0.0
1195,0.0
1197,0.0
2,3,12,17, 0, 6, 0.00,60.00,Wednesday
7,8.3
718,19.491414028849935
719,7.86466653107157
720,20.40601724003762
619,1245.558051608504
633,333.2933503414378
659,0.0
661,170.69690110340255
690,29.100292583640897
716,59.67151711225706
843,402.36770037873066
844,402.36770037873066
907,0.0
908,0.0
971,0.0
972,0.0
1195,0.0
1197,0.0
2,3,12,17, 0, 7, 0.00,60.00,Wednesday
7,7.8
718,19.619383908061977
719,7.900831621439584
720,20.34855610205815
619,1708.082402918448
633,461.2199545544348
659,0.0
661,159.50475510592122
690,40.214977904631
716,81.46470054349506
843,503.2208478293869
844,503.2208478293869
907,0.0
908,0.0
971,0.0
972,0.0
1195,0.0
1197,0.0
2,3,12,17, 0, 8, 0.00,60.00,Wednesday
7,7.8
718,19.78841402522057
719,6.4994219553604635
720,20.319870468898834
619,657.8423377495584
633,180.63868433993858
659,0.0
661,184.17849616420432
690,15.712003442349651
716,0.0
843,543.6120926243111
844,543.6120926243111
907,0.0
908,0.0
971,0.0
972,0.0
1195,0.0
1197,0.0
2,3,12,17, 0, 9, 0.00,60.00,Wednesday
7,8.3
718,19.635317637723293
719,7.988704027738219
720,20.278357847232623
619,0.0
633,0.0
659,0.0
661,200.0
690,0.0
716,0.0
843,-0.17749711117539846
844,-0.17749711117539846
907,0.0
908,0.0
971,0.0
972,0.0
1195,0.0
1197,0.0
2,3,12,17, 0,10, 0.00,60.00,Wednesday
7,9.4
718,20.738854187749695
719,11.057205875055445
720,20.239836425724526
619,0.0
633,0.0
659,0.0
661,200.0
690,0.0
716,0.0
843,-712.279588263993
844,-712.279588263993
907,0.0
908,0.0
971,0.0
972,0.0
1195,0.0
1197,0.0
2,3,12,17, 0,11, 0.00,60.00,Wednesday
7,11.1
718,21.885838354934354
719,16.190617221034657
720,20.224872855047018
619,0.0
633,0.0
659,0.0
661,0.0
690,0.0
716,0.0
843,-1731.1672527265782
844,-1731.1672527265782
907,0.0
908,0.0
971,0.0
972,0.0
1195,0.0
1197,0.0
2,3,12,17, 0,12, 0.00,60.00,Wednesday
7,11.1
718,22.774279129206356
719,20.418125903477673
720,20.23857077158176
619,0.0
633,0.0
659,0.0
661,0.0
690,0.0
716,0.0
843,-2551.3257427886147
844,-2551.3257427886147
907,0.0
908,0.0
971,0.0
972,0.0
1195,0.0
1197,0.0
2,3,12,17, 0,13, 0.00,60.00,Wednesday
7,13.3
718,23.297519010726134
719,25.75845217397954
720,20.285724617756767
619,0.0
633,0.0
659,0.0
661,0.0
690,12.39598659763012
716,0.0
843,-3283.9916091617324
844,-3283.9916091617324
907,0.0
908,0.0
971,0.0
972,0.0
1195,0.0
1197,0.0
2,3,12,17, 0,14, 0.00,60.00,Wednesday
7,13.9
718,23.22500501264132
719,27.052401474812946
720,20.362974201225366
619,0.0
633,0.0
659,0.0
661,0.0
690,31.554019505148435
716,0.0
843,-3607.688122922016
844,-3607.688122922016
907,0.0
908,0.0
971,0.0
972,0.0
1195,0.0
1197,0.0
2,3,12,17, 0,15, 0.00,60.00,Wednesday
7,15.0
718,23.35272597857471
719,28.52571721626773
720,20.444208769721175
619,0.0
633,0.0
659,0.0
661,0.0
690,28.75218632851086
716,57.85557424096081
843,-5075.822641761779
844,-5075.822641761779
907,0.0
908,0.0
971,0.0
972,0.0
1195,0.0
1197,0.0
2,3,12,17, 0,16, 0.00,60.00,Wednesday
7,14.4
718,23.321973391390117
719,26.204858686131022
720,20.56323569595986
619,0.0
633,0.0
659,0.0
661,0.0
690,69.87649045133907
716,0.0
843,-5932.526192613192
844,-5932.526192613192
907,0.0
908,0.0
971,0.0
972,0.0
1195,0.0
1197,0.0
2,3,12,17, 0,17, 0.00,60.00,Wednesday
7,14.4
718,23.322945607971747
719,23.63749986084954
720,20.67840910010076
619,0.0
633,0.0
659,0.0
661,0.0
690,63.53890893292343
716,0.0
843,-5998.75141883823
844,-5998.75141883823
907,0.0
908,0.0
971,0.0
972,0.0
1195,0.0
1197,0.0
2,3,12,17, 0,18, 0.00,60.00,Wednesday
7,14.4
718,23.354174074418566
719,19.94370841286461
720,20.78841111019773
619,0.0
633,0.0
659,0.0
661,0.0
690,41.61687874016226
716,0.0
843,-5177.600293117761
844,-5177.600293117761
907,0.0
908,0.0
971,0.0
972,0.0
1195,0.0
1197,0.0
2,3,12,17, 0,19, 0.00,60.00,Wednesday
7,12.2
718,23.349392107611834
719,17.437544572242093
720,20.869256614802584
619,0.0
633,0.0
659,0.0
661,0.0
690,6.999622359731573
716,71.60061040870737
843,-4678.005906112483
844,-4678.005906112483
907,0.0
908,0.0
971,0.0
972,0.0
1195,0.0
1197,0.0
2,3,12,17, 0,20, 0.00,60.00,Wednesday
7,11.7
718,23.33239118957954
719,14.861251957711595
720,20.934163082691835
619,0.0
633,0.0
659,0.0
661,0.0
690,5.749374625635624
716,70.46423503164672
843,-4484.604750619115
844,-4484.604750619115
907,0.0
908,0.0
971,0.0
972,0.0
1195,0.0
1197,0.0
2,3,12,17, 0,21, 0.00,60.00,Wednesday
7,11.1
718,23.30411054883821
719,12.503099766219696
720,20.97437750194275
619,0.0
633,0.0
659,0.0
661,0.0
690,25.767067185601807
716,0.0
843,-4194.951794226879
844,-4194.951794226879
907,0.0
908,0.0
971,0.0
972,0.0
1195,0.0
1197,0.0
2,3,12,17, 0,22, 0.00,60.00,Wednesday
7,11.1
718,23.356654579970265
719,10.54918409542924
720,20.98740573826476
619,0.0
633,0.0
659,0.0
661,0.0
690,15.858350880637156
716,0.0
843,-3712.9867244200377
844,-3712.9867244200377
907,0.0
908,0.0
971,0.0
972,0.0
1195,0.0
1197,0.0
2,3,12,17, 0,23, 0.00,60.00,Wednesday
7,10.0
718,23.529148831892726
719,9.539602828882183
720,20.98187437875929
619,0.0
633,0.0
659,0.0
661,0.0
690,0.0
716,0.0
843,-3897.1457206240775
844,-3897.1457206240775
907,0.0
908,0.0
971,0.0
972,0.0
1195,0.0
1197,0.0
2,3,12,17, 0,24, 0.00,60.00,Wednesday
7,10.0
718,23.06413197009084
719,8.904872633076387
720,20.963769111197898
619,0.0
633,0.0
659,0.0
661,0.0
690,0.0
716,0.0
843,-2670.9824762225953
844,-2670.9824762225953
907,0.0
908,0.0
971,0.0
972,0.0
1195,0.0
1197,0.0
2,4,12,18, 0, 1, 0.00,60.00,Thursday
7,8.3
718,22.341679937127967
719,8.107093957203647
720,20.932759992856642
619,0.0
633,0.0
659,0.0
661,200.0
690,0.0
716,0.0
843,-2247.001396183674
844,-2247.001396183674
907,0.0
908,0.0
971,0.0
972,0.0
1195,0.0
1197,0.0
2,4,12,18, 0, 2, 0.00,60.00,Thursday
7,8.3
718,21.840630580119573
719,7.393596750886251
720,20.89306621549025
619,0.0
633,0.0
659,0.0
661,200.0
690,0.0
716,0.0
843,-2137.747670092749
844,-2137.747670092749
907,0.0
908,0.0
971,0.0
972,0.0
1195,0.0
1197,0.0
2,4,12,18, 0, 3, 0.00,60.00,Thursday
7,7.8
718,21.261990892833307
719,6.947350401748553
720,20.843364319869423
619,0.0
633,0.0
659,0.0
661,200.0
690,0.0
716,0.0
843,-1662.109034660316
844,-1662.109034660316
907,0.0
908,0.0
971,0.0
972,0.0
1195,0.0
1197,0.0
2,4,12,18, 0, 4, 0.00,60.00,Thursday
7,7.8
718,20.77009832676338
719,6.616897705225759
720,20.787502732127265
619,0.0
633,0.0
659,0.0
661,200.0
690,0.0
716,0.0
843,-1345.6990094217163
844,-1345.6990094217163
907,0.0
908,0.0
971,0.0
972,0.0
1195,0.0
1197,0.0
2,4,12,18, 0, 5, 0.00,60.00,Thursday
7,7.2
718,20.331672808526935
719,6.206881821207604
720,20.727177374881748
619,0.0
633,0.0
659,0.0
661,200.0
690,0.0
716,0.0
843,-1000.7095045375527
844,-1000.7095045375527
907,0.0
908,0.0
971,0.0
972,0.0
1195,0.0
1197,0.0
2,4,12,18, 0, 6, 0.00,60.00,Thursday
7,7.2
718,20.13628820105945
719,6.004674591325969
720,20.663200769846082
619,0.0
633,0.0
659,0.0
661,200.0
690,0.0
716,0.0
843,-237.88645844203984
844,-237.88645844203984
907,0.0
908,0.0
971,0.0
972,0.0
1195,0.0
1197,0.0
2,4,12,18, 0, 7, 0.00,60.00,Thursday
7,7.2
718,18.615010967877353
719,5.821299204870232
720,20.599033231947516
619,0.0
633,0.0
659,0.0
661,200.0
690,0.0
716,85.44000000000005
843,-106.37302552440269
844,-106.37302552440269
907,0.0
908,0.0
971,0.0
972,0.0
1195,0.0
1197,0.0
2,4,12,18, 0, 8, 0.00,60.00,Thursday
7,7.8
718,19.34073708955488
719,6.610051974244049
720,20.475310778080114
619,1754.0956630906028
633,464.147600999614
659,0.0
661,158.58859032823497
690,41.124801919475765
716,85.44000000000005
843,428.169650388576
844,428.169650388576
907,0.0
908,0.0
971,0.0
972,0.0
1195,0.0
1197,0.0
2,4,12,18, 0, 9, 0.00,60.00,Thursday
7,8.9
718,19.226495635431302
719,8.071301928640848
720,20.470644793272392
619,0.0
633,0.0
659,0.0
661,200.0
690,0.0
716,17.287495541788797
843,-41.16858692646747
844,-41.16858692646747
907,0.0
908,0.0
971,0.0
972,0.0
1195,0.0
1197,0.0
2,4,12,18, 0,10, 0.00,60.00,Thursday
7,10.6
718,20.889371323460562
719,11.187598681474558
720,20.40883707172119
619,0.0
633,0.0
659,0.0
661,0.0
690,0.0
716,0.0
843,-882.1524162852402
844,-882.1524162852402
907,0.0
908,0.0
971,0.0
972,0.0
1195,0.0
1197,0.0
2,4,12,18, 0,11, 0.00,60.00,Thursday
7,12.8
718,22.11694019945042
719,16.83186438865078
720,20.380491868291376
619,0.0
633,0.0
659,0.0
661,0.0
690,0.0
716,0.0
843,-1901.422542815526
844,-1901.422542815526
907,0.0
908,0.0
971,0.0
972,0.0
1195,0.0
1197,0.0
2,4,12,18, 0,12, 0.00,60.00,Thursday
7,12.8
718,23.066532869458833
719,21.494426879641242
720,20.381404377318827
619,0.0
633,0.0
659,0.0
661,0.0
690,0.0
716,0.0
843,-2823.2625070027407
844,-2823.2625070027407
907,0.0
908,0.0
971,0.0
972,0.0
1195,0.0
1197,0.0
2,4,12,18, 0,13, 0.00,60.00,Thursday
7,15.0
718,23.303978912974998
719,28.79886518745316
720,20.42525883114838
619,0.0
633,0.0
659,0.0
661,0.0
690,20.517926375695826
716,0.0
843,-3635.158393655838
844,-3635.158393655838
907,0.0
908,0.0
971,0.0
972,0.0
1195,0.0
1197,0.0
2,4,12,18, 0,14, 0.00,60.00,Thursday
7,15.6
718,23.296627893407514
719,32.27361339151919
720,20.49196377388959
619,0.0
633,0.0
659,0.0
661,0.0
690,40.22721968063071
716,0.0
843,-4077.8046850947685
844,-4077.8046850947685
907,0.0
908,0.0
971,0.0
972,0.0
1195,0.0
1197,0.0
2,4,12,18, 0,15, 0.00,60.00,Thursday
7,16.1
718,23.32478296032281
719,33.101612399187225
720,20.594425754676195
619,0.0
633,0.0
659,0.0
661,0.0
690,62.072906700841955
716,0.0
843,-5452.652545443856
844,-5452.652545443856
907,0.0
908,0.0
971,0.0
972,0.0
1195,0.0
1197,0.0
2,4,12,18, 0,16, 0.00,60.00,Thursday
7,16.7
718,23.335297173167657
719,31.188284335195146
720,20.718938555103556
619,0.0
633,0.0
659,0.0
661,0.0
690,77.36197582832547
716,0.0
843,-6330.3902386597565
844,-6330.3902386597565
907,0.0
908,0.0
971,0.0
972,0.0
1195,0.0
1197,0.0
2,4,12,18, 0,17, 0.00,60.00,Thursday
7,16.1
718,23.3299492656683
719,25.84278102706846
720,20.834641714758426
619,0.0
633,0.0
659,0.0
661,0.0
690,58.45493403765553
716,56.68131194143255
843,-6640.996493760387
844,-6640.996493760387
907,0.0
908,0.0
971,0.0
972,0.0
1195,0.0
1197,0.0
2,4,12,18, 0,18, 0.00,60.00,Thursday
7,16.1
718,23.349538610267462
719,21.265279177242828
720,20.96021289863959
619,0.0
633,0.0
659,0.0
661,0.0
690,53.11817742319392
716,0.0
843,-5731.834370505789
844,-5731.834370505789
907,0.0
908,0.0
971,0.0
972,0.0
1195,0.0
1197,0.0
2,4,12,18, 0,19, 0.00,60.00,Thursday
7,14.4
718,23.338828326019428
719,17.774137033900317
720,21.043265296754917
619,0.0
633,0.0
659,0.0
661,0.0
690,11.12937607448912
716,85.44000000000005
843,-5122.921255652953
844,-5122.921255652953
907,0.0
908,0.0
971,0.0
972,0.0
1195,0.0
1197,0.0
2,4,12,18, 0,20, 0.00,60.00,Thursday
7,13.3
718,23.30669338736005
719,14.073017160810162
720,21.11627909955409
619,0.0
633,0.0
659,0.0
661,0.0
690,30.900502141922164
716,21.1558349593802
843,-4869.624995689741
844,-4869.624995689741
907,0.0
908,0.0
971,0.0
972,0.0
1195,0.0
1197,0.0
2,4,12,18, 0,21, 0.00,60.00,Thursday
7,12.8
718,23.301856851901924
719,12.366903764896799
720,21.1483284573101
619,0.0
633,0.0
659,0.0
661,0.0
690,31.171829732395327
716,0.0
843,-4526.904249495545
844,-4526.904249495545
907,0.0
908,0.0
971,0.0
972,0.0
1195,0.0
1197,0.0
2,4,12,18, 0,22, 0.00,60.00,Thursday
7,11.7
718,23.347270596794164
719,10.340255663403452
720,21.152746277373822
619,0.0
633,0.0
659,0.0
661,0.0
690,20.292829775015907
716,0.0
843,-3992.442574237133
844,-3992.442574237133
907,0.0
908,0.0
971,0.0
972,0.0
1195,0.0
1197,0.0
2,4,12,18, 0,23, 0.00,60.00,Thursday
7,10.0
718,23.684042213169555
719,8.541825587774749
720,21.140834641886322
619,0.0
633,0.0
659,0.0
661,0.0
690,0.0
716,0.0
843,-4169.094443417636
844,-4169.094443417636
907,0.0
908,0.0
971,0.0
972,0.0
1195,0.0
1197,0.0
2,4,12,18, 0,24, 0.00,60.00,Thursday
7,10.0
718,23.26916498377651
719,7.0941919623015535
720,21.11642703248373
619,0.0
633,0.0
659,0.0
661,0.0
690,0.0
716,0.0
843,-2721.0808787006754
844,-2721.0808787006754
907,0.0
908,0.0
971,0.0
972,0.0
1195,0.0
1197,0.0
2,5,12,19, 0, 1, 0.00,60.00,Friday
7,8.9
718,22.642697893185165
719,5.844648108335129
720,21.07952727944168
619,0.0
633,0.0
659,0.0
661,200.0
690,0.0
716,0.0
843,-2351.594212634086
844,-2351.594212634086
907,0.0
908,0.0
971,0.0
972,0.0
1195,0.0
1197,0.0
2,5,12,19, 0, 2, 0.00,60.00,Friday
7,8.9
718,22.151291042954757
719,4.8586546394906795
720,21.03303618824234
619,0.0
633,0.0
659,0.0
661,200.0
690,0.0
716,0.0
843,-2149.7609110272315
844,-2149.7609110272315
907,0.0
908,0.0
971,0.0
972,0.0
1195,0.0
1197,0.0
2,5,12,19, 0, 3, 0.00,60.00,Friday
7,7.8
718,21.56383021843561
719,4.316256137288064
720,20.97862635970225
619,0.0
633,0.0
659,0.0
661,200.0
690,0.0
716,0.0
843,-1706.739984462658
844,-1706.739984462658
907,0.0
908,0.0
971,0.0
972,0.0
1195,0.0
1197,0.0
2,5,12,19, 0, 4, 0.00,60.00,Friday
7,8.3
718,21.068879869253433
719,4.954078705332147
720,20.917288238450542
619,0.0
633,0.0
659,0.0
661,200.0
690,0.0
716,0.0
843,-1425.2784700214315
844,-1425.2784700214315
907,0.0
908,0.0
971,0.0
972,0.0
1195,0.0
1197,0.0
2,5,12,19, 0, 5, 0.00,60.00,Friday
7,7.8
718,20.679159099530967
719,4.267799775145214
720,20.853687398706427
619,0.0
633,0.0
659,0.0
661,200.0
690,0.0
716,0.0
843,-1121.8871252265944
844,-1121.8871252265944
907,0.0
908,0.0
971,0.0
972,0.0
1195,0.0
1197,0.0
2,5,12,19, 0, 6, 0.00,60.00,Friday
7,7.8
718,19.18593675900385
719,3.787968776470015
720,20.786853377128846
619,0.0
633,0.0
659,0.0
661,200.0
690,0.0
716,85.44000000000005
843,-414.7360033154464
844,-414.7360033154464
907,0.0
908,0.0
971,0.0
972,0.0
1195,0.0
1197,0.0
2,5,12,19, 0, 7, 0.00,60.00,Friday
7,7.2
718,19.604308933426577
719,5.6426418690216105
720,20.685031144162885
619,905.9655803785809
633,247.59404320444494
659,0.0
661,177.99873556139787
690,21.848994013657666
716,53.37018484211072
843,82.45033705716196
844,82.45033705716196
907,0.0
908,0.0
971,0.0
972,0.0
1195,0.0
1197,0.0
2,5,12,19, 0, 8, 0.00,60.00,Friday
7,8.3
718,19.698147758506927
719,6.661314963934345
720,20.64633571154037
619,165.73938715730782
633,45.503749245304185
659,0.0
661,196.0369557356104
690,3.935616093799816
716,0.0
843,134.37825823295225
844,134.37825823295225
907,0.0
908,0.0
971,0.0
972,0.0
1195,0.0
1197,0.0
2,5,12,19, 0, 9, 0.00,60.00,Friday
7,8.9
718,19.907673545879856
719,7.975398396774237
720,20.572031632607647
619,350.7004065133778
633,95.50562973926762
659,0.0
661,191.75341994454413
690,8.189505597172477
716,0.0