Program Version,EnergyPlus, Version 22.2.0-c249759bad, YMD=2023.09.01 20:53
1,5,Environment Title[],Latitude[deg],Longitude[deg],Time Zone[],Elevation[m]
2,8,Day of Simulation[],Month[],Day of Month[],DST Indicator[1=yes 0=no],Hour[],StartMinute[],EndMinute[],DayType
3,5,Cumulative Day of Simulation[],Month[],Day of Month[],DST Indicator[1=yes 0=no],DayType  ! When Daily Report Variables Requested
4,2,Cumulative Days of Simulation[],Month[]  ! When Monthly Report Variables Requested
5,1,Cumulative Days of Simulation[] ! When Run Period Report Variables Requested
6,1,Calendar Year of Simulation[] ! When Annual Report Variables Requested
581,11,LIVING,AFN Zone Infiltration Air Change Rate [ach] !RunPeriod [Value,Min,Month,Day,Hour,Minute,Max,Month,Day,Hour,Minute]
582,11,ATTIC,AFN Zone Infiltration Air Change Rate [ach] !RunPeriod [Value,Min,Month,Day,Hour,Minute,Max,Month,Day,Hour,Minute]
583,11,CRAWLSPACE,AFN Zone Infiltration Air Change Rate [ach] !RunPeriod [Value,Min,Month,Day,Hour,Minute,Max,Month,Day,Hour,Minute]
1038,11,Facility,Facility Heating Setpoint Not Met Time [hr] !RunPeriod [Value,Min,Month,Day,Hour,Minute,Max,Month,Day,Hour,Minute]
1039,11,Facility,Facility Cooling Setpoint Not Met Time [hr] !RunPeriod [Value,Min,Month,Day,Hour,Minute,Max,Month,Day,Hour,Minute]
1115,11,DX_HEATING_COIL,Heating Coil Heating Energy [J] !RunPeriod [Value,Min,Month,Day,Hour,Minute,Max,Month,Day,Hour,Minute]
1128,11,DX_HEATING_COIL,Heating Coil Electricity Energy [J] !RunPeriod [Value,Min,Month,Day,Hour,Minute,Max,Month,Day,Hour,Minute]
1153,11,DX_HEATING_COIL,Heating Coil Defrost Electricity Energy [J] !RunPeriod [Value,Min,Month,Day,Hour,Minute,Max,Month,Day,Hour,Minute]
1154,11,DX_HEATING_COIL,Heating Coil Crankcase Heater Electricity Energy [J] !RunPeriod [Value,Min,Month,Day,Hour,Minute,Max,Month,Day,Hour,Minute]
1155,11,HEATING_RESISTANCE_BACKUP,Heating Coil Heating Energy [J] !RunPeriod [Value,Min,Month,Day,Hour,Minute,Max,Month,Day,Hour,Minute]
1156,11,HEATING_RESISTANCE_BACKUP,Heating Coil Electricity Energy [J] !RunPeriod [Value,Min,Month,Day,Hour,Minute,Max,Month,Day,Hour,Minute]
1292,11,WATER HEATER,Water Heater Heat Loss Energy [J] !RunPeriod [Value,Min,Month,Day,Hour,Minute,Max,Month,Day,Hour,Minute]
1306,11,WATER HEATER,Water Heater Heating Energy [J] !RunPeriod [Value,Min,Month,Day,Hour,Minute,Max,Month,Day,Hour,Minute]
1307,11,WATER HEATER,Water Heater Unmet Demand Heat Transfer Energy [J] !RunPeriod [Value,Min,Month,Day,Hour,Minute,Max,Month,Day,Hour,Minute]
1308,11,WATER HEATER,Water Heater Electricity Energy [J] !RunPeriod [Value,Min,Month,Day,Hour,Minute,Max,Month,Day,Hour,Minute]
13,11,Electricity:Facility [J] !RunPeriod [Value,Min,Month,Day,Hour,Minute,Max,Month,Day,Hour,Minute]
1134,11,Heating:Electricity [J] !RunPeriod [Value,Min,Month,Day,Hour,Minute,Max,Month,Day,Hour,Minute]
1096,11,Cooling:Electricity [J] !RunPeriod [Value,Min,Month,Day,Hour,Minute,Max,Month,Day,Hour,Minute]
562,11,Fans:Electricity [J] !RunPeriod [Value,Min,Month,Day,Hour,Minute,Max,Month,Day,Hour,Minute]
1379,11,Pumps:Electricity [J] !RunPeriod [Value,Min,Month,Day,Hour,Minute,Max,Month,Day,Hour,Minute]
1326,11,WaterSystems:Electricity [J] !RunPeriod [Value,Min,Month,Day,Hour,Minute,Max,Month,Day,Hour,Minute]
61,11,InteriorLights:Electricity [J] !RunPeriod [Value,Min,Month,Day,Hour,Minute,Max,Month,Day,Hour,Minute]
1046,11,ExteriorLights:Electricity [J] !RunPeriod [Value,Min,Month,Day,Hour,Minute,Max,Month,Day,Hour,Minute]
134,11,InteriorEquipment:Electricity [J] !RunPeriod [Value,Min,Month,Day,Hour,Minute,Max,Month,Day,Hour,Minute]
170,11,gas_dryer:InteriorEquipment:Electricity [J] !RunPeriod [Value,Min,Month,Day,Hour,Minute,Max,Month,Day,Hour,Minute]
207,11,clotheswasher:InteriorEquipment:Electricity [J] !RunPeriod [Value,Min,Month,Day,Hour,Minute,Max,Month,Day,Hour,Minute]
244,11,dishwasher:InteriorEquipment:Electricity [J] !RunPeriod [Value,Min,Month,Day,Hour,Minute,Max,Month,Day,Hour,Minute]
281,11,refrigerator:InteriorEquipment:Electricity [J] !RunPeriod [Value,Min,Month,Day,Hour,Minute,Max,Month,Day,Hour,Minute]
318,11,electric_mels:InteriorEquipment:Electricity [J] !RunPeriod [Value,Min,Month,Day,Hour,Minute,Max,Month,Day,Hour,Minute]
355,11,NaturalGas:Facility [J] !RunPeriod [Value,Min,Month,Day,Hour,Minute,Max,Month,Day,Hour,Minute]
403,11,InteriorEquipment:NaturalGas [J] !RunPeriod [Value,Min,Month,Day,Hour,Minute,Max,Month,Day,Hour,Minute]
476,11,gas_dryer:InteriorEquipment:NaturalGas [J] !RunPeriod [Value,Min,Month,Day,Hour,Minute,Max,Month,Day,Hour,Minute]
513,11,gas_mels:InteriorEquipment:NaturalGas [J] !RunPeriod [Value,Min,Month,Day,Hour,Minute,Max,Month,Day,Hour,Minute]
End of Data Dictionary
1,EXTREME_WINTER,  35.62,-106.09,  -7.00,1935.00
5,15
1038,0.0,0.0,12,22, 1,15,0.0,12,22, 1,15
1039,0.0,0.0,12,22, 1,15,0.0,12,22, 1,15
581,0.40250887701671384,0.18840030961986723,12,24,23,15,1.6081562035818753,12,26,23,60
582,4.704999514044196,0.0,12,22, 8,60,24.461677182084394,12,26,23,60
583,0.04597683001543458,0.0002809344100081129, 1, 3,19,40,0.12693456129769035,12,26,23,60
1115,3074656833.8868155,0.0,12,22,23, 5,5146308.3568357965,12,27, 9,60
1128,1043433908.7876089,0.0,12,22,23, 5,1680721.6705153352,12,27, 9,60
1153,42081780.46388134,0.0,12,22,23, 5,118448.73497759858, 1, 5, 6,45
1154,139511347.8784553,0.0,12,22, 6, 5,180000.0,12,23,12,15
1155,240487371.81649274,0.0,12,22, 1,15,3057706.179920466, 1, 2, 6,45
1156,240487371.81649274,0.0,12,22, 1,15,3057706.179920466, 1, 2, 6,45
1292,-53421282.09410119,-39761.11933634936, 1, 3, 5,60,-3463.2452306759355,12,25, 9,47
1306,757463259.4196191,0.0,12,22, 1,15,4050000.0,12,22,16,60
1307,341147051.0619465,0.0,12,22, 1,15,16363071.834039513,12,26, 9,60
1308,757463259.4196191,0.0,12,22, 1,15,4050000.0,12,22,16,60
13,3136516259.0741706,452017.0388981225,12,23,15,15,8979261.389044067,12,26,19,60
61,646981127.1939323,88139.10953165221,12,22, 1,15,1282023.4113694867,12,22,20,15
134,151290040.75163814,63564.01800854099,12,22, 4,15,156554.22484006523,12,27,20,15
170,11185820.069951689,348.4159749238097,12,22, 4,15,17476.39704006126,12,27,12,15
207,13893028.5742839,815.2532113832032,12,22, 3,15,22990.642799023623,12,27,10,15
244,27284301.07562584,1521.856143006317,12,22, 4,15,53038.631142310165,12,27,20,15
281,98926891.03177746,59938.60262432081,12,22, 5,15,81951.81706819107,12,22,19,15
318,0.0,0.0,12,22, 1,15,0.0,12,22, 1,15
355,422701517.16107386,18561.32405820678,12,22, 4,15,724774.895203776,12,27,18,15
403,422701517.16107386,18561.32405820678,12,22, 4,15,724774.895203776,12,27,18,15
476,227882097.80545202,7098.072629279515,12,22, 4,15,356036.3026282215,12,27,12,15
513,0.0,0.0,12,22, 1,15,0.0,12,22, 1,15
562,115208278.31787394,0.0,12,23,11,30,174708.554342993,12,26, 6,45
1046,0.0,0.0,12,22, 1,15,0.0,12,22, 1,15
1096,59144.444668648335,0.0,12,22, 1,15,24359.37834722805,12,31,17,15
1134,1465514408.9464345,0.0,12,25,14,60,5197350.81579901, 1, 2, 6,15
1326,757463259.4196192,0.0,12,22, 1,15,4050000.0,12,22, 9,60
1379,0.0,0.0,12,22, 1,15,0.0,12,22, 1,15
1,EXTREME_SUMMER,  35.62,-106.09,  -7.00,1935.00
5,7
1038,0.0,0.0, 7,13, 1,15,0.0, 7,13, 1,15
1039,1.75,0.0, 7,13, 1,15,0.25, 7,19,17,30
581,0.1749620582215093,0.0010360376985003388, 7,13,23, 3,0.6842764037124233, 7,14,19,52
582,3.661155904946615,0.09372052786094098, 7,14, 8,36,14.791638680605697, 7,14,19,48
583,0.04151489966111804,0.00030594772053014693, 7,15,23, 3,0.08941479291191073, 7,18,18,33
1115,0.0,0.0, 7,13, 1, 7,0.0, 7,13, 1, 7
1128,0.0,0.0, 7,13, 1, 7,0.0, 7,13, 1, 7
1153,0.0,0.0, 7,13, 1, 7,0.0, 7,13, 1, 7
1154,0.0,0.0, 7,13, 1, 7,0.0, 7,13, 1, 7
1155,0.0,0.0, 7,13, 1, 7,0.0, 7,13, 1, 7
1156,0.0,0.0, 7,13, 1, 7,0.0, 7,13, 1, 7
1292,-21985663.433102507,-34248.196843718, 7,18,15,30,-1794.0137139670417, 7,17, 9,60
1306,280240724.90635407,0.0, 7,13, 1, 7,3185041.3931609043, 7,15,16,45
1307,98529261.50393564,0.0, 7,13, 1, 7,2671468.083807844, 7,19,20,55
1308,280240724.90635407,0.0, 7,13, 1, 7,3185041.3931609043, 7,15,16,45
13,1229127411.773081,151703.1275401932, 7,13, 4,15,6942753.076099832, 7,17,18,30
61,301924526.02383536,88139.10953165221, 7,13, 1,15,1282023.4113694867, 7,13,20,15
134,70666020.44019976,63564.01800854099, 7,13, 4,15,156554.22484006523, 7,18,20,15
170,5241013.419656067,348.4159749238097, 7,13, 4,15,17476.39704006126, 7,18,12,15
207,6509451.13922267,815.2532113832032, 7,13, 3,15,22990.642799023623, 7,18,10,15
244,12749673.399825225,1521.856143006317, 7,13, 4,15,53038.631142310165, 7,18,20,15
281,46165882.481495745,59938.60262432081, 7,13, 5,15,81951.81706819107, 7,13,19,15
318,0.0,0.0, 7,13, 1,15,0.0, 7,13, 1,15
355,197687796.27748066,18561.32405820678, 7,13, 4,15,724774.895203776, 7,18,18,15
403,197687796.27748066,18561.32405820678, 7,13, 4,15,724774.895203776, 7,18,18,15
476,106772067.24485716,7098.072629279515, 7,13, 4,15,356036.3026282215, 7,18,12,15
513,0.0,0.0, 7,13, 1,15,0.0, 7,13, 1,15
562,54329051.64749203,0.0, 7,13, 4,15,174708.55434299304, 7,19,18,30
1046,0.0,0.0, 7,13, 1,15,0.0, 7,13, 1,15
1096,521967088.75519973,0.0, 7,13, 4,15,1961799.5865342428, 7,19,15,60
1134,0.0,0.0, 7,13, 1,15,0.0, 7,13, 1,15
1326,280240724.90635407,0.0, 7,13, 1,15,4050000.0, 7,13, 8,30
1379,0.0,0.0, 7,13, 1,15,0.0, 7,13, 1,15
1,ANNUAL,  35.62,-106.09,  -7.00,1935.00
5,365
1038,0.5,0.0, 1, 1, 1,15,0.25, 1,11, 6,15
1039,33.25,0.0, 1, 1, 1,15,0.25, 1,22,16,45
581,0.2788135687312796,0.0, 8, 3,23, 3,1.608232486313784,12,26,23,60
582,4.378253627323026,0.0, 1, 2,19,30,25.760476964539816, 5,17,23,60
583,0.026985759341881934,0.0, 8, 3,23, 3,0.12642756482525028,12,26,23,60
1115,16243911861.03922,0.0, 1, 1,17, 7,5187922.738900357,12,27,10,15
1128,5446446667.201015,0.0, 1, 1,17, 7,1683282.2255454876,12,27,10,15
1153,173533366.59530357,0.0, 1, 1,17, 7,137678.01673488194, 2,21, 6,60
1154,2193354457.274155,0.0, 1, 1, 6, 5,180000.0, 1, 2,14,45
1155,785408686.1094261,0.0, 1, 1, 1,15,4239998.389624746, 1,11, 6,45
1156,785408686.1094261,0.0, 1, 1, 1,15,4239998.389624746, 1,11, 6,45
1292,-1203218149.0464838,-39790.6888077004,11, 5, 4,15,-1523.0874276795007, 5, 7, 9,46
1306,16683369157.512959,0.0, 1, 1, 1,15,4050000.0, 1, 1, 9,60
1307,6885483572.124105,0.0, 1, 1, 1,15,14904040.145184254, 1, 1, 9,45
1308,16683369157.512959,0.0, 1, 1, 1,15,4050000.0, 1, 1, 9,60
13,55154304585.64107,151703.1275401932, 4, 6, 4,15,10501010.151604729, 1,11, 8,60
61,15743207428.383959,88139.10953165221, 1, 1, 1,15,1282023.4113694867, 1, 1,20,15
134,3685071073.4325233,63564.01800854099, 1, 2, 4,15,156554.22484006523, 1, 1,20,15
170,273393721.45532674,348.4159749238097, 1, 2, 4,15,17476.39704006126, 1, 1,12,15
207,339560869.0695816,815.2532113832032, 1, 2, 3,15,22990.642799023623, 1, 1,10,15
244,664895467.8009144,1521.856143006317, 1, 2, 4,15,53038.631142310165, 1, 1,20,15
281,2407221015.106824,59938.60262432081, 1, 1, 5,15,81951.81706819107, 1, 1,19,15
318,0.0,0.0, 1, 1, 1,15,0.0, 1, 1, 1,15
355,10310294493.051695,18561.32405820678, 1, 2, 4,15,724774.895203776, 1, 1,18,15
403,10310294493.051695,18561.32405820678, 1, 2, 4,15,724774.895203776, 1, 1,18,15
476,5569688622.066177,7098.072629279515, 1, 2, 4,15,356036.3026282215, 1, 1,12,15
513,0.0,0.0, 1, 1, 1,15,0.0, 1, 1, 1,15
562,1663209616.3547814,0.0, 1, 1,17,15,174708.55434299304, 6, 5,16,60
1046,0.0,0.0, 1, 1, 1,15,0.0, 1, 1, 1,15
1096,8780704132.774595,0.0, 1, 1, 1,15,1968621.0800376441, 6, 5,16,60
1134,8598743177.179888,0.0, 1,23,15,60,6165265.682438683, 1,11, 6,15
1326,16683369157.512913,0.0, 1, 1, 1,15,4050000.0000000014, 3, 6,10,15
1379,0.0,0.0, 1, 1, 1,15,0.0, 1, 1, 1,15
End of Data
 Number of Records Written=          99
