Program Version,EnergyPlus, Version 22.2.0-c249759bad, YMD=2023.09.01 14:31
1,5,Environment Title[],Latitude[deg],Longitude[deg],Time Zone[],Elevation[m]
2,8,Day of Simulation[],Month[],Day of Month[],DST Indicator[1=yes 0=no],Hour[],StartMinute[],EndMinute[],DayType
3,5,Cumulative Day of Simulation[],Month[],Day of Month[],DST Indicator[1=yes 0=no],DayType  ! When Daily Report Variables Requested
4,2,Cumulative Days of Simulation[],Month[]  ! When Monthly Report Variables Requested
5,1,Cumulative Days of Simulation[] ! When Run Period Report Variables Requested
6,1,Calendar Year of Simulation[] ! When Annual Report Variables Requested
7,1,Environment,Site Outdoor Air Drybulb Temperature [C] !Hourly
545,1,LIVING,Zone Mean Air Temperature [C] !Hourly
546,1,ATTIC,Zone Mean Air Temperature [C] !Hourly
547,1,CRAWLSPACE,Zone Mean Air Temperature [C] !Hourly
548,1,FAN,Fan Electricity Rate [W] !Hourly
720,1,LIVING,Zone Predicted Sensible Load to Heating Setpoint Heat Transfer Rate [W] !Hourly
721,1,LIVING,Zone System Predicted Sensible Load to Heating Setpoint Heat Transfer Rate [W] !Hourly
784,1,ATTIC,Zone Predicted Sensible Load to Heating Setpoint Heat Transfer Rate [W] !Hourly
785,1,ATTIC,Zone System Predicted Sensible Load to Heating Setpoint Heat Transfer Rate [W] !Hourly
848,1,CRAWLSPACE,Zone Predicted Sensible Load to Heating Setpoint Heat Transfer Rate [W] !Hourly
849,1,CRAWLSPACE,Zone System Predicted Sensible Load to Heating Setpoint Heat Transfer Rate [W] !Hourly
1121,1,DX_HEATING_COIL,Heating Coil Heating Rate [W] !Hourly
1135,1,DX_HEATING_COIL,Heating Coil Electricity Rate [W] !Hourly
1161,1,DX_HEATING_COIL,Heating Coil Defrost Electricity Rate [W] !Hourly
1163,1,DX_HEATING_COIL,Heating Coil Crankcase Heater Electricity Rate [W] !Hourly
1166,1,HEATING_RESISTANCE_BACKUP,Heating Coil Heating Rate [W] !Hourly
1168,1,HEATING_RESISTANCE_BACKUP,Heating Coil Electricity Rate [W] !Hourly
End of Data Dictionary
1,EXTREME_WINTER,  34.65,-112.42,  -7.00,1539.80
2,1, 1, 6, 0, 1, 0.00,60.00,Monday
7,4.4
545,18.88343004087269
546,4.613624062786549
547,18.506728128202166
548,45.242440960471804
720,1019.0405437035342
721,1019.0405437035342
784,0.0
785,0.0
848,0.0
849,0.0
1121,1303.1644557745715
1135,393.56891733506546
1161,47.78241772130789
1163,149.4878057033347
1166,0.0
1168,0.0
2,1, 1, 6, 0, 2, 0.00,60.00,Monday
7,4.0
545,18.66958012485219
546,4.733446735055976
547,18.132841459140614
548,46.73581640098382
720,1045.9528740710412
721,1045.9528740710412
784,0.0
785,0.0
848,0.0
849,0.0
1121,1346.3250295499033
1135,413.25193711308117
1161,46.17603943964774
1163,147.79857834111607
1166,0.0
1168,0.0
2,1, 1, 6, 0, 3, 0.00,60.00,Monday
7,3.9
545,18.571880276714385
546,4.813179126039064
547,17.93071978895928
548,53.06045420168976
720,1171.4844636704656
721,1171.4844636704656
784,0.0
785,0.0
848,0.0
849,0.0
1121,1501.3226606624196
1135,457.72158423631174
1161,58.972834357574
1163,140.6628978207906
1166,0.0
1168,0.0
2,1, 1, 6, 0, 4, 0.00,60.00,Monday
7,1.7
545,18.602989893238444
546,4.56900388937689
547,17.715951451761686
548,65.80520412389764
720,1406.0936226200884
721,1406.0936226200884
784,0.0
785,0.0
848,0.0
849,0.0
1121,1796.7730983689962
1135,564.7946285330414
1161,68.30334707526157
1163,126.06073955421795
1166,0.0
1168,0.0
2,1, 1, 6, 0, 5, 0.00,60.00,Monday
7,0.6
545,18.49921386336017
546,3.5295436699426097
547,17.53570350450789
548,74.32593982817167
720,1535.9748952291957
721,1535.9748952291957
784,0.0
785,0.0
848,0.0
849,0.0
1121,1983.1253692502692
1135,634.1332392240719
1161,77.02436305984105
1163,116.24938182076554
1166,0.0
1168,0.0
2,1, 1, 6, 0, 6, 0.00,60.00,Monday
7,0.0
545,19.265656400814773
546,3.585390449383159
547,17.34651800188628
548,119.51879889764103
720,2543.1515593938802
721,2543.1515593938802
784,0.0
785,0.0
848,0.0
849,0.0
1121,3255.3660962595163
1135,1019.1982633309922
1161,119.3822093528872
1163,65.2029104395042
1166,0.0
1168,0.0
2,1, 1, 6, 0, 7, 0.00,60.00,Monday
7,0.6
545,19.599989340932037
546,3.330332899237414
547,17.226604011684334
548,119.73019324179478
720,2505.3683522978044
721,2505.3683522978044
784,0.0
785,0.0
848,0.0
849,0.0
1121,3318.8338423979008
1135,1045.0058295177469
1161,115.65212834957363
1163,65.24097521254659
1166,0.0
1168,0.0
2,1, 1, 6, 0, 8, 0.00,60.00,Monday
7,0.6
545,19.7585681089428
546,3.1375761540155653
547,17.093202365127734
548,106.83429679488547
720,2128.2241408359496
721,2128.2241408359496
784,0.0
785,0.0
848,0.0
849,0.0
1121,2898.252786161525
1135,929.037555741174
1161,110.72094883098356
1163,79.61019680510685
1166,0.0
1168,0.0
2,1, 1, 6, 0, 9, 0.00,60.00,Monday
7,1.7
545,19.71852936048955
546,3.9553389125128446
547,16.970503632613326
548,76.64234637490017
720,1517.5378789725219
721,1517.5378789725219
784,0.0
785,0.0
848,0.0
849,0.0
1121,2122.686102601971
1135,680.6748787078196
1161,73.55164886447695
1163,113.97096690744775
1166,0.0
1168,0.0
2,1, 1, 6, 0,10, 0.00,60.00,Monday
7,2.0
545,20.0085218864457
546,6.817483815124853
547,16.85832531506008
548,37.003204547627355
720,668.6800836979073
721,668.6800836979073
784,0.0
785,0.0
848,0.0
849,0.0
1121,1001.6557481733466
1135,327.3535211498757
1161,36.77452349795266
1163,158.47572205682866
1166,0.0
1168,0.0
2,1, 1, 6, 0,11, 0.00,60.00,Monday
7,3.3
545,19.365798132001462
546,6.642822455293206
547,16.769508825975386
548,26.34149666553226
720,538.1223453734547
721,538.1223453734547
784,0.0
785,0.0
848,0.0
849,0.0
1121,742.117722092962
1135,239.55433102064325
1161,23.869609838082848
1163,170.55368663368398
1166,0.0
1168,0.0
2,1, 1, 6, 0,12, 0.00,60.00,Monday
7,2.8
545,20.08276902123069
546,8.641787776674782
547,16.701833372531308
548,38.843449070636176
720,849.5509041654423
721,849.5509041654423
784,0.0
785,0.0
848,0.0
849,0.0
1121,1082.229883302657
1135,344.6422372564864
1161,37.3718368516356
1163,156.5084560903649
1166,0.0
1168,0.0
2,1, 1, 6, 0,13, 0.00,60.00,Monday
7,3.3
545,19.979874668033748
546,10.216306462267735
547,16.649163404766
548,21.15621096699627
720,431.43481766154946
721,431.43481766154946
784,0.0
785,0.0
848,0.0
849,0.0
1121,579.6500177792549
1135,188.29050448616326
1161,22.31015453198724
1163,176.31688777750045
1166,0.0
1168,0.0
2,1, 1, 6, 0,14, 0.00,60.00,Monday
7,3.9
545,19.70639054360384
546,10.777720228921586
547,16.594148951305325
548,8.511189780328712
720,174.6152506312901
721,174.6152506312901
784,0.0
785,0.0
848,0.0
849,0.0
1121,242.20661820621618
1135,78.09516746010105
1161,7.4235033371465295
1163,190.4996591120582
1166,0.0
1168,0.0
2,1, 1, 6, 0,15, 0.00,60.00,Monday
7,4.4
545,19.572310654102793
546,9.736792282742709
547,16.55202006614628
548,11.855252784750439
720,282.7912945659373
721,282.7912945659373
784,0.0
785,0.0
848,0.0
849,0.0
1121,349.34435371973814
1135,110.57856406366523
1161,8.959563368084964
1163,186.78929338419036
1166,0.0
1168,0.0
2,1, 1, 6, 0,16, 0.00,60.00,Monday
7,4.4
545,19.78107195369682
546,9.387820622631047
547,16.515479307008164
548,16.60303024727449
720,404.77509343288693
721,404.77509343288693
784,0.0
785,0.0
848,0.0
849,0.0
1121,496.79664566060427
1135,156.20897290371434
1161,11.31779873512032
1163,181.50715391895184
1166,0.0
1168,0.0
2,1, 1, 6, 0,17, 0.00,60.00,Monday
7,3.9
545,19.747235502261386
546,8.550056721644857
547,16.478677759992905
548,10.923345723130543
720,252.38954816614387
721,252.38954816614387
784,0.0
785,0.0
848,0.0
849,0.0
1121,323.5597960873589
1135,103.47657417640221
1161,6.944593054514662
1163,187.82853573177582
1166,0.0
1168,0.0
2,1, 1, 6, 0,18, 0.00,60.00,Monday
7,3.3
545,19.860674767704058
546,7.212479935855145
547,16.44391992650384
548,14.413961289677193
720,328.8066287880556
721,328.8066287880556
784,0.0
785,0.0
848,0.0
849,0.0
1121,412.35303666294806
1135,133.04875367666975
1161,11.136450274786855
1163,183.9067247514729
1166,0.0
1168,0.0
2,1, 1, 6, 0,19, 0.00,60.00,Monday
7,3.3
545,19.575623851179152
546,5.467106752738432
547,16.400963919178828
548,9.555612601115671
720,206.64936632385707
721,206.64936632385707
784,0.0
785,0.0
848,0.0
849,0.0
1121,272.39434816386995
1135,88.39471963101036
1161,7.384511124110964
1163,189.33104936469303
1166,0.0
1168,0.0
2,1, 1, 6, 0,20, 0.00,60.00,Monday
7,3.0
545,19.819490181291357
546,4.195763839771272
547,16.35303982759509
548,14.712432417523992
720,325.7432349128958
721,325.7432349128958
784,0.0
785,0.0
848,0.0
849,0.0
1121,416.0761094740873
1135,134.43819550428142
1161,11.803532548550725
1163,183.56034260344674
1166,0.0
1168,0.0
2,1, 1, 6, 0,21, 0.00,60.00,Monday
7,2.8
545,19.750382429297535
546,3.3526909505307
547,16.295535521173548
548,13.105039765504968
720,275.9626077285302
721,275.9626077285302
784,0.0
785,0.0
848,0.0
849,0.0
1121,367.19184461620904
1135,119.92161866461537
1161,10.674019094113632
1163,185.34915829958592
1166,0.0
1168,0.0
2,1, 1, 6, 0,22, 0.00,60.00,Monday
7,3.0
545,19.558614871069008
546,3.7020924532330355
547,16.23255432035389
548,20.197115962136618
720,439.66460517409723
721,439.66460517409723
784,0.0
785,0.0
848,0.0
849,0.0
1121,572.6842018371849
1135,185.1600965389661
1161,16.20388890677038
1163,177.43163912808265
1166,0.0
1168,0.0
2,1, 1, 6, 0,23, 0.00,60.00,Monday
7,1.7
545,18.378235137691686
546,3.3219438613261056
547,16.155790834648897
548,13.537355769733463
720,259.11231571952885
721,259.11231571952885
784,0.0
785,0.0
848,0.0
849,0.0
1121,360.7599400055103
1135,119.74311267821638
1161,12.953180002368223
1163,184.80544299747885
1166,0.0
1168,0.0
2,1, 1, 6, 0,24, 0.00,60.00,Monday
7,1.7
545,18.44902597861483
546,3.5513626305098023
547,16.073019306757594
548,44.90477009293695
720,961.5013963658112
721,961.5013963658112
784,0.0
785,0.0
848,0.0
849,0.0
1121,1212.4233626975004
1135,383.6726850260223
1161,46.368901618264886
1163,149.54916411011888
1166,0.0
1168,0.0
2,2, 1, 7, 0, 1, 0.00,60.00,Tuesday
7,2.2
545,18.293987476516765
546,3.9245082572665617
547,15.98994215557483
548,62.529453520418464
720,1369.753678751762
721,1369.753678751762
784,0.0
785,0.0
848,0.0
849,0.0
1121,1758.5429588188435
1135,545.0505693272635
1161,58.090855727610865
1163,129.92427351120116
1166,0.0
1168,0.0
2,2, 1, 7, 0, 2, 0.00,60.00,Tuesday
7,2.2
545,18.35299838729541
546,4.349430166070087
547,15.898138757749274
548,89.80018188269547
720,1985.1859312636207
721,1985.1859312636207
784,0.0
785,0.0
848,0.0
849,0.0
1121,2548.7279923211318
1135,773.5550358765994
1161,88.55907626746408
1163,99.29313121169695
1166,0.0
1168,0.0
2,2, 1, 7, 0, 3, 0.00,60.00,Tuesday
7,2.2
545,18.488727204745434
546,4.479545237831955
547,15.810905136267428
548,107.77366303305085
720,2393.0234059721515
721,2393.0234059721515
784,0.0
785,0.0
848,0.0
849,0.0
1121,3094.464220275206
1135,929.2806240233674
1161,106.28440983928488
1163,79.13638480599758
1166,0.0
1168,0.0
2,2, 1, 7, 0, 4, 0.00,60.00,Tuesday
7,1.1
545,18.716519239520515
546,4.192185814247823
547,15.72447402905784
548,109.06711922258177
720,2315.3456086411115
721,2315.3456086411115
784,0.0
785,0.0
848,0.0
849,0.0
1121,3039.3780017695713
1135,934.9184946238981
1161,108.61702962110105
1163,77.3428071942767
1166,0.0
1168,0.0
2,2, 1, 7, 0, 5, 0.00,60.00,Tuesday
7,2.2
545,18.679962387748187
546,4.167826748413825
547,15.646259670178848
548,94.78881887475409
720,2043.8475274178581
721,2043.8475274178581
784,0.0
785,0.0
848,0.0
849,0.0
1121,2718.0275055456445
1135,829.8837990726252
1161,88.27097770090305
1163,93.76770356480495
1166,0.0
1168,0.0
2,2, 1, 7, 0, 6, 0.00,60.00,Tuesday
7,2.2
545,19.340103086372086
546,4.674689929426316
547,15.564601476148825
548,127.0906754970277
720,2914.3900808147755
721,2914.3900808147755
784,0.0
785,0.0
848,0.0
849,0.0
1121,3775.0209271286008
1135,1125.8523747274958
1161,107.51285173446608
1163,57.711643179852686
1166,0.0
1168,0.0
2,2, 1, 7, 0, 7, 0.00,60.00,Tuesday
7,0.6
545,19.698504064807775
546,4.552293727937242
547,15.50095470244246
548,125.37972464107135
720,2580.286087948274
721,2580.286087948274
784,0.0
785,0.0
848,0.0
849,0.0
1121,3449.6358499212934
1135,1082.8677271690417
1161,129.93766746437637
1163,58.715352615708085
1166,0.0
1168,0.0
2,2, 1, 7, 0, 8, 0.00,60.00,Tuesday
7,1.1
545,19.76453715287372
546,4.15915780418468
547,15.429167413775922
548,107.30948471975734
720,2182.811056953693
721,2182.811056953693
784,0.0
785,0.0
848,0.0
849,0.0
1121,2967.510165043512
1135,941.0554442014457
1161,107.37496667084623
1163,79.30148683943253
1166,0.0
1168,0.0
2,2, 1, 7, 0, 9, 0.00,60.00,Tuesday
7,1.7
545,19.78671088065092
546,4.1740691301896256
547,15.356151705412366
548,95.86322946422354
720,1975.8222867865989
721,1975.8222867865989
784,0.0
785,0.0
848,0.0
849,0.0
1121,2689.027256327584
1135,849.8565633084212
1161,92.11787772938602
1163,92.39466619883325
1166,0.0
1168,0.0
2,2, 1, 7, 0,10, 0.00,60.00,Tuesday
7,1.7
545,19.737990935526533
546,5.007392832964619
547,15.284812886684694
548,88.9716700723148
720,1828.6806235012773
721,1828.6806235012773
784,0.0
785,0.0
848,0.0
849,0.0
1121,2485.873864072462
1135,789.5473993557084
1161,85.13306011410667
1163,100.1357863886434
1166,0.0
1168,0.0
2,2, 1, 7, 0,11, 0.00,60.00,Tuesday
7,1.1
545,19.775760853170283
546,8.541300226851178
547,15.21076510878435
548,73.878329962421
720,1462.1762455685457
721,1462.1762455685457
784,0.0
785,0.0
848,0.0
849,0.0
1121,1999.883512150433
1135,648.7946112960506
1161,73.5792980128742
1163,116.90962113070353
1166,0.0
1168,0.0
2,2, 1, 7, 0,12, 0.00,60.00,Tuesday
7,1.1
545,19.774217763651166
546,11.709641565883574
547,15.14949853560818
548,56.92505586476076
720,1130.1956070359502
721,1130.1956070359502
784,0.0
785,0.0
848,0.0
849,0.0
1121,1506.158970833434
1135,494.99136795547884
1161,60.801617841829824
1163,135.90476735282095
1166,0.0
1168,0.0
2,2, 1, 7, 0,13, 0.00,60.00,Tuesday
7,2.8
545,19.821459334938016
546,13.149214449313911
547,15.100081202798826
548,37.41394452232735
720,807.8970702903662
721,807.8970702903662
784,0.0
785,0.0
848,0.0
849,0.0
1121,1040.0373599842833
1135,334.13966752264815
1161,35.95764557501087
1163,158.10891063864568
1166,0.0
1168,0.0
2,2, 1, 7, 0,14, 0.00,60.00,Tuesday
7,3.3
545,19.561956421707542
546,10.257146017165395
547,15.064164484582658
548,24.83967285567434
720,561.0705639388834
721,561.0705639388834
784,0.0
785,0.0
848,0.0
849,0.0
1121,706.9494001509476
1135,226.78277603746093
1161,20.999420928269906
1163,172.24822723921315
1166,0.0
1168,0.0
2,2, 1, 7, 0,15, 0.00,60.00,Tuesday
7,3.3
545,19.78245435753603
546,10.69639192021944
547,15.051302273316635
548,27.75802043389261
720,636.4791755597926
721,636.4791755597926
784,0.0
785,0.0
848,0.0
849,0.0
1121,793.1828841089788
1135,252.37200258282937
1161,23.298951882475254
1163,168.98969544234373
1166,0.0
1168,0.0
2,2, 1, 7, 0,16, 0.00,60.00,Tuesday
7,2.8
545,19.680345749402925
546,8.113738586093016
547,15.047662799004142
548,31.52068713891309
720,728.9904385455557
721,728.9904385455557
784,0.0
785,0.0
848,0.0
849,0.0
1121,905.5683091221307
1135,291.37364726734035
1161,23.084192433286802
1163,164.79070667438083
1166,0.0
1168,0.0
2,2, 1, 7, 0,17, 0.00,60.00,Tuesday
7,1.1
545,19.775912308580505
546,6.16695342082554
547,15.042976810238827
548,41.730412126103
720,883.3928734553356
721,883.3928734553356
784,0.0
785,0.0
848,0.0
849,0.0
1121,1119.0524287113253
1135,369.6720108306406
1161,38.73909377876113
1163,153.11472449044683
1166,0.0
1168,0.0
2,2, 1, 7, 0,18, 0.00,60.00,Tuesday
7,1.7
545,19.617192949776086
546,4.657840543178924
547,15.023484923508772
548,36.86884202267107
720,786.2650779719934
721,786.2650779719934
784,0.0
785,0.0
848,0.0
849,0.0
1121,1030.6332981645971
1135,337.442781241072
1161,27.44413781792122
1163,158.73336675367585
1166,0.0
1168,0.0
2,2, 1, 7, 0,19, 0.00,60.00,Tuesday
7,0.6
545,19.76684395446067
546,3.2425448419365948
547,14.995080376664543
548,38.08220652877322
720,780.6210578445516
721,780.6210578445516
784,0.0
785,0.0
848,0.0
849,0.0
1121,1037.6155127747109
1135,345.4561366506943
1161,27.84884209023431
1163,157.29908275508805
1166,0.0
1168,0.0
2,2, 1, 7, 0,20, 0.00,60.00,Tuesday
7,0.6
545,19.616012580488142
546,2.4337333289631284
547,14.95947258233687
548,36.682640911812236
720,734.9990420018894
721,734.9990420018894
784,0.0
785,0.0
848,0.0
849,0.0
1121,998.5058073021327
1135,333.92327857490903
1161,26.67617370867007
1163,158.87070326892845
1166,0.0
1168,0.0
2,2, 1, 7, 0,21, 0.00,60.00,Tuesday
7,0.0
545,19.755186535024198
546,2.606972787770295
547,14.919890135374565
548,46.1205796432318
720,876.854852394621
721,876.854852394621
784,0.0
785,0.0
848,0.0
849,0.0
1121,1191.3576127820188
1135,401.20947419869333
1161,46.07159219205813
1163,147.9795476011828
1166,0.0
1168,0.0
2,2, 1, 7, 0,22, 0.00,60.00,Tuesday
7,-0.6
545,19.650302499117295
546,2.1417963206710553
547,14.875219457042968
548,56.27384799466063
720,1078.1693757193061
721,1078.1693757193061
784,0.0
785,0.0
848,0.0
849,0.0
1121,1463.6755844541906
1135,496.6033915137641
1161,50.15959312649343
1163,136.56184276505127
1166,0.0
1168,0.0
2,2, 1, 7, 0,23, 0.00,60.00,Tuesday
7,-0.6
545,18.710718939388435
546,1.2384701572833954
547,14.802847324358
548,36.858288677243856
720,663.8194567909377
721,663.8194567909377
784,0.0
785,0.0
848,0.0
849,0.0
1121,960.1136819481707
1135,328.44569765675703
1161,29.725681328284207
1163,158.51841626347323
1166,0.0
1168,0.0
2,2, 1, 7, 0,24, 0.00,60.00,Tuesday
7,0.0
545,18.840089971114864
546,1.3515939010969287
547,14.74062327779291
548,52.16428543758183
720,1047.0059426850612
721,1047.0059426850612
784,0.0
785,0.0
848,0.0
849,0.0
1121,1407.770255660182
1135,459.94984127217236
1161,40.47161714810916
1163,141.40185388577257
1166,0.0
1168,0.0
2,3, 1, 8, 0, 1, 0.00,60.00,Wednesday
7,0.0
545,18.498488784966963
546,1.4599604949000218
547,14.67790246296591
548,66.56988163918643
720,1348.1311476612918
721,1348.1311476612918
784,0.0
785,0.0
848,0.0
849,0.0
1121,1812.0280877582466
1135,588.352970764965
1161,51.67171005882322
1163,125.21849398149467
1166,0.0
1168,0.0
2,3, 1, 8, 0, 2, 0.00,60.00,Wednesday
7,-0.6
545,18.563434032504357
546,1.2844108630596913
547,14.603623983892787
548,87.80793511403392
720,1793.0484002081666
721,1793.0484002081666
784,0.0
785,0.0
848,0.0
849,0.0
1121,2396.4740509608573
1135,769.9393933958563
1161,66.32530082016267
1163,101.2824244047925
1166,0.0
1168,0.0
2,3, 1, 8, 0, 3, 0.00,60.00,Wednesday
7,-0.6
545,18.527199190023254
546,1.680317465843386
547,14.536921957722635
548,100.60274765933995
720,2027.811504767542
721,2027.811504767542
784,0.0
785,0.0
848,0.0
849,0.0
1121,2745.886987146949
1135,876.8747386895454
1161,81.18671748292039
1163,86.78580334421098
1166,0.0
1168,0.0
2,3, 1, 8, 0, 4, 0.00,60.00,Wednesday
7,-0.6
545,18.617488892532975
546,1.8270926728752142
547,14.464123072106856
548,105.32195844796478
720,2120.569566151542
721,2120.569566151542
784,0.0
785,0.0
848,0.0
849,0.0
1121,2886.2615658151312
1135,917.8369453226194
1161,84.5257429016358
1163,81.4854783126102
1166,0.0
1168,0.0
2,3, 1, 8, 0, 5, 0.00,60.00,Wednesday
7,-1.1
545,18.546958599337444
546,1.8359471578665194
547,14.393690218719449
548,111.31965859150677
720,2197.066926367863
721,2197.066926367863
784,0.0
785,0.0
848,0.0
849,0.0
1121,3005.2194766415437
1135,964.381424230233
1161,92.98206682335231
1163,74.51626392092953
1166,0.0
1168,0.0
2,3, 1, 8, 0, 6, 0.00,60.00,Wednesday
7,-0.6
545,19.331993784456067
546,2.3256201248303316
547,14.339758957298926
548,146.32924030199888
720,3073.8965463355635
721,3073.8965463355635
784,0.0
785,0.0
848,0.0
849,0.0
1121,4119.280184493113
1135,1274.5316487559037
1161,118.03375949707821
1163,35.328697576541515
1166,0.0
1168,0.0
2,3, 1, 8, 0, 7, 0.00,60.00,Wednesday
7,-2.2
545,19.573766146373725
546,2.098267639718389
547,14.296698854264214
548,153.24777308443132
720,3045.9128041785334
721,3045.9128041785334
784,0.0
785,0.0
848,0.0
849,0.0
1121,4199.925693711437
1135,1360.6650442563644
1161,107.84451969539035
1163,27.34216641748768
1166,0.0
1168,0.0
2,3, 1, 8, 0, 8, 0.00,60.00,Wednesday
7,-1.1
545,19.71046151932666
546,1.7062947966427053
547,14.238244230021396
548,140.56096011128673
720,2773.063395912035
721,2773.063395912035
784,0.0
785,0.0
848,0.0
849,0.0
1121,3889.494835618372
1135,1251.2181919988036
1161,108.54532914885539
1163,41.74996198447707
1166,0.0
1168,0.0
2,3, 1, 8, 0, 9, 0.00,60.00,Wednesday
7,-0.6
545,19.77935249483092
546,2.963448358172688
547,14.172276877878552
548,122.55042552169947
720,2370.126493176849
721,2370.126493176849
784,0.0
785,0.0
848,0.0
849,0.0
1121,3376.33113341253
1135,1092.4435633339606
1161,98.62132837596286
1163,62.082137564173955
1166,0.0
1168,0.0
2,3, 1, 8, 0,10, 0.00,60.00,Wednesday
7,0.0
545,19.81921869146807
546,5.6443023733718105
547,14.100535100032943
548,97.01149863598503
720,1884.8701576578442
721,1884.8701576578442
784,0.0
785,0.0
848,0.0
849,0.0
1121,2683.2344941477877
1135,873.2920736584286
1161,74.89536342109575
1163,91.02388135098603
1166,0.0
1168,0.0
2,3, 1, 8, 0,11, 0.00,60.00,Wednesday
7,1.7
545,19.88075854685843
546,8.876331577825415
547,14.026129543159163
548,57.74196426587644
720,1168.968618737208
721,1168.968618737208
784,0.0
785,0.0
848,0.0
849,0.0
1121,1657.9073367338067
1135,534.9898340073925
1161,38.00139279282299
1163,135.44105759393713
1166,0.0
1168,0.0
2,3, 1, 8, 0,12, 0.00,60.00,Wednesday
7,2.2
545,19.85580572179039
546,11.509442827902504
547,13.965501456548658
548,21.444409924398805
720,417.3709562101649
721,417.3709562101649
784,0.0
785,0.0
848,0.0
849,0.0
1121,620.1242358756817
1135,202.89025197310366
1161,11.741688324342999
1163,176.07158491544996
1166,0.0
1168,0.0
2,3, 1, 8, 0,13, 0.00,60.00,Wednesday
7,3.3
545,19.80240704699941
546,13.741278056509246
547,13.94319614459532
548,0.0
720,-12.913569504980842
721,-12.913569504980842
784,0.0
785,0.0
848,0.0
849,0.0
1121,0.0
1135,0.0
1161,0.0
1163,200.0
1166,0.0
1168,0.0
2,3, 1, 8, 0,14, 0.00,60.00,Wednesday
7,4.4
545,20.049636635358993
546,13.714624421959405
547,13.963964247175221
548,0.0
720,-224.56520880845528
721,-224.56520880845528
784,0.0
785,0.0
848,0.0
849,0.0
1121,0.0
1135,0.0
1161,0.0
1163,200.0
1166,0.0
1168,0.0
2,3, 1, 8, 0,15, 0.00,60.00,Wednesday
7,3.9
545,20.641534970849175
546,15.680631169126743
547,14.003030474237898
548,0.0
720,-650.9585607479348
721,-650.9585607479348
784,0.0
785,0.0
848,0.0
849,0.0
1121,0.0
1135,0.0
1161,0.0
1163,200.0
1166,0.0
1168,0.0
2,3, 1, 8, 0,16, 0.00,60.00,Wednesday
7,5.0
545,21.055369120065098
546,11.763620586173385
547,14.05470831480174
548,0.0
720,-954.2237841590668
721,-954.2237841590668
784,0.0
785,0.0
848,0.0
849,0.0
1121,0.0
1135,0.0
1161,0.0
1163,200.0
1166,0.0
1168,0.0
2,3, 1, 8, 0,17, 0.00,60.00,Wednesday
7,1.7
545,20.844140033598332
546,10.015703816515245
547,14.115887186210305
548,0.0
720,-839.7005152320362
721,-839.7005152320362
784,0.0
785,0.0
848,0.0
849,0.0
1121,0.0
1135,0.0
1161,0.0
1163,200.0
1166,0.0
1168,0.0
2,3, 1, 8, 0,18, 0.00,60.00,Wednesday
7,0.6
545,20.587268984110885
546,7.5414804753505695
547,14.176518863673056
548,0.0
720,-737.5592096327946
721,-737.5592096327946
784,0.0
785,0.0
848,0.0
849,0.0
1121,0.0
1135,0.0
1161,0.0
1163,200.0
1166,0.0
1168,0.0
2,3, 1, 8, 0,19, 0.00,60.00,Wednesday
7,1.1
545,20.682580111383665
546,5.691960053745453
547,14.218564498493718
548,0.0
720,-714.9083994910379
721,-714.9083994910379
784,0.0
785,0.0
848,0.0
849,0.0
1121,0.0
1135,0.0
1161,0.0
1163,200.0
1166,0.0
1168,0.0
2,3, 1, 8, 0,20, 0.00,60.00,Wednesday
7,0.0
545,20.267788446398086
546,2.790927012677126
547,14.238920274686423
548,0.0
720,-359.63964472162115
721,-359.63964472162115
784,0.0
785,0.0
848,0.0
849,0.0
1121,0.0
1135,0.0
1161,0.0
1163,200.0
1166,0.0
1168,0.0
2,3, 1, 8, 0,21, 0.00,60.00,Wednesday
7,0.0
545,20.035131487785705
546,1.941596121169351
547,14.240150603616815
548,0.0
720,-220.8860853301121
721,-220.8860853301121
784,0.0
785,0.0
848,0.0
849,0.0
1121,0.0
1135,0.0
1161,0.0
1163,200.0
1166,0.0
1168,0.0
2,3, 1, 8, 0,22, 0.00,60.00,Wednesday
7,0.0
545,19.760649291854943
546,1.6365036694173034
547,14.232583285073988
548,8.608557222999679
720,130.63696341458308
721,130.63696341458308
784,0.0
785,0.0
848,0.0
849,0.0
1121,227.35743593875765
1135,78.74073358492286
1161,6.001478413255012
1163,190.34211783437067
1166,0.0
1168,0.0
2,3, 1, 8, 0,23, 0.00,60.00,Wednesday
7,-1.1
545,18.583127602958303
546,0.10842963863517538
547,14.19165811346377
548,0.0
720,-23.049090415181126
721,-23.049090415181126
784,0.0
785,0.0
848,0.0
849,0.0
1121,0.0
1135,0.0
1161,0.0
1163,200.0
1166,0.0
1168,0.0
2,3, 1, 8, 0,24, 0.00,60.00,Wednesday
7,-1.1
545,18.510120931724686
546,-0.42829006238456635
547,14.166801984074132
548,31.538376711112452
720,632.3379135659798
721,632.3379135659798
784,0.0
785,0.0
848,0.0
849,0.0
1121,834.4407163198
1135,280.6717774823877
1161,19.94818438530612
1163,164.59490103481238
1166,0.0
1168,0.0
2,4, 1, 9, 0, 1, 0.00,60.00,Thursday
7,-2.8
545,18.257335182837956
546,-1.1425372088673575
547,14.113054272550224
548,50.6948699743418
720,954.3193776462149
721,954.3193776462149
784,0.0
785,0.0
848,0.0
849,0.0
1121,1290.2564740857922
1135,443.7049728551432
1161,33.588418297314924
1163,142.87773954906277
1166,0.0
1168,0.0
2,4, 1, 9, 0, 2, 0.00,60.00,Thursday
7,-3.3
545,18.433609566351514
546,-1.090862965275334
547,14.053951527406472
548,88.40393388784203
720,1671.892804632609
721,1671.892804632609
784,0.0
785,0.0
848,0.0
849,0.0
1121,2266.202980798996
1135,764.2692105424659
1161,61.33307250767878
1163,100.21093843869045
1166,0.0
1168,0.0
2,4, 1, 9, 0, 3, 0.00,60.00,Thursday
7,-3.9
545,18.391351363438346
546,-1.4020492223728924
547,13.9915153715839
548,118.80596879403647
720,2211.1786475951485
721,2211.1786475951485
784,0.0
785,0.0
848,0.0
849,0.0
1121,3063.402270418531
1135,1029.4794936900394
1161,79.84825880832744
1163,65.80684040577027
1166,0.0
1168,0.0
2,4, 1, 9, 0, 4, 0.00,60.00,Thursday
7,-4.4
545,18.414627156117657
546,-1.4883424579547986
547,13.91671805832309
548,144.99420175622708
720,2717.9462703361114
721,2717.9462703361114
784,0.0
785,0.0
848,0.0
849,0.0
1121,3816.086487250167
1135,1268.3772649268499
1161,81.34876721286254
1163,36.596635551453275
1166,0.0
1168,0.0
2,4, 1, 9, 0, 5, 0.00,60.00,Thursday
7,-5.0
545,18.54200491633917
546,-2.1710057822585354
547,13.837927607694063
548,152.09833656162738
720,2757.7674068100005
721,2757.7674068100005
784,0.0
785,0.0
848,0.0
849,0.0
1121,3964.6966347539305
1135,1328.6730900798514
1161,82.62894546958687
1163,28.504443026711932
1166,0.0
1168,0.0
2,4, 1, 9, 0, 6, 0.00,60.00,Thursday
7,-5.6
545,19.239459741883344
546,-2.1108695912370643
547,13.76657383010966
548,180.2384026397789
720,3998.376445474536
721,3998.376445474536
784,0.0
785,0.0
848,0.0
849,0.0
1121,4717.026852917201
1135,1552.2547899169133
1161,91.11905151301967
1163,0.0
1166,884.8900967056197
1168,884.8900967056197
2,4, 1, 9, 0, 7, 0.00,60.00,Thursday
7,-6.1
545,19.55837141298772
546,-2.122809398246024
547,13.716914791306133
548,180.2384026397789
720,3942.686587913311
721,3942.686587913311
784,0.0
785,0.0
848,0.0
849,0.0
1121,4647.359601445756
1135,1572.3592273400661
1161,86.93319197013463
1163,0.0
1166,999.3219512685037
1168,999.3219512685037
2,4, 1, 9, 0, 8, 0.00,60.00,Thursday
7,-5.6
545,19.668130461170545
546,-2.1475998512577665
547,13.651389974420967
548,180.2384026397789
720,3718.067047272614
721,3718.067047272614
784,0.0
785,0.0
848,0.0
849,0.0
1121,4725.414741416414
1135,1594.8612381187277
1161,82.44286230364163
1163,0.0
1166,701.4037719711291
1168,701.4037719711291
2,4, 1, 9, 0, 9, 0.00,60.00,Thursday
7,-2.8
545,19.860999412094753
546,-0.3814907446423835
547,13.561936738337833
548,133.4815365221635
720,2279.9601524887094
721,2279.9601524887094
784,0.0
785,0.0
848,0.0
849,0.0
1121,3599.867962607065
1135,1203.6488765331524
1161,80.19767244805655
1163,49.81267420082207
1166,0.0
1168,0.0
2,4, 1, 9, 0,10, 0.00,60.00,Thursday
7,-0.6
545,20.02828337283526
546,4.422676655009795
547,13.44701103619248
548,66.19559281947808
720,1058.3247178827987
721,1058.3247178827987
784,0.0
785,0.0
848,0.0
849,0.0
1121,1796.5196693628018
1135,603.5564793322067
1161,43.5948861262822
1163,125.70949117655725
1166,0.0
1168,0.0
2,4, 1, 9, 0,11, 0.00,60.00,Thursday
7,1.0
545,20.018270465307225
546,11.467609889366676
547,13.360556292534005
548,11.702640227584332
720,94.93901059469135
721,94.93901059469135
784,0.0
785,0.0
848,0.0
849,0.0
1121,319.63898092579313
1135,108.12830404341977
1161,7.813999339356023
1163,186.89939917531458
1166,0.0
1168,0.0
2,4, 1, 9, 0,12, 0.00,60.00,Thursday
7,3.3
545,20.291832772605133
546,14.175398059775038
547,13.351761801229072
548,0.0
720,-588.0797851019161
721,-588.0797851019161
784,0.0
785,0.0
848,0.0
849,0.0
1121,0.0
1135,0.0
1161,0.0
1163,200.0
1166,0.0
1168,0.0
2,4, 1, 9, 0,13, 0.00,60.00,Thursday
7,4.4
545,20.74558528729706
546,16.644852088035616
547,13.382597092916328
548,0.0
720,-756.5473563680407
721,-756.5473563680407
784,0.0
785,0.0
848,0.0
849,0.0
1121,0.0
1135,0.0
1161,0.0
1163,200.0
1166,0.0
1168,0.0
2,4, 1, 9, 0,14, 0.00,60.00,Thursday
7,3.9
545,21.61958812473884
546,19.965237475285
547,13.435668909514106
548,0.0
720,-1373.4436371430347
721,-1373.4436371430347
784,0.0
785,0.0
848,0.0
849,0.0
1121,0.0
1135,0.0
1161,0.0
1163,200.0
1166,0.0
1168,0.0
2,4, 1, 9, 0,15, 0.00,60.00,Thursday
7,6.1
545,22.52549574641825
546,21.83530331076987
547,13.503925204429049
548,0.0
720,-1982.1220133958795
721,-1982.1220133958795
784,0.0
785,0.0
848,0.0
849,0.0
1121,0.0
1135,0.0
1161,0.0
1163,200.0
1166,0.0
1168,0.0
2,4, 1, 9, 0,16, 0.00,60.00,Thursday
7,5.6
545,23.54231934508838
546,20.79450602585369
547,13.583737930007961
548,0.0
720,-2628.9298313260533
721,-2628.9298313260533
784,0.0
785,0.0
848,0.0
849,0.0
1121,0.0
1135,0.0
1161,0.0
1163,200.0
1166,0.0
1168,0.0
2,4, 1, 9, 0,17, 0.00,60.00,Thursday
7,5.0
545,24.398148563332796
546,17.60051915472514
547,13.69730754688558
548,0.0
720,-3435.829568020301
721,-3435.829568020301
784,0.0
785,0.0
848,0.0
849,0.0
1121,0.0
1135,0.0
1161,0.0
1163,200.0
1166,0.0
1168,0.0
2,4, 1, 9, 0,18, 0.00,60.00,Thursday
7,3.3
545,24.102477835985425
546,13.320110365331702
547,13.820207957075695
548,0.0
720,-3202.4544320698133
721,-3202.4544320698133
784,0.0
785,0.0
848,0.0
849,0.0
1121,0.0
1135,0.0
1161,0.0
1163,200.0
1166,0.0
1168,0.0
2,4, 1, 9, 0,19, 0.00,60.00,Thursday
7,0.6
545,23.36402944041797
546,8.79094736684689
547,13.930542339661447
548,0.0
720,-2713.1194895965527
721,-2713.1194895965527