Program Version,EnergyPlus, Version 22.2.0-c249759bad, YMD=2023.09.01 20:34
1,5,Environment Title[],Latitude[deg],Longitude[deg],Time Zone[],Elevation[m]
2,8,Day of Simulation[],Month[],Day of Month[],DST Indicator[1=yes 0=no],Hour[],StartMinute[],EndMinute[],DayType
3,5,Cumulative Day of Simulation[],Month[],Day of Month[],DST Indicator[1=yes 0=no],DayType  ! When Daily Report Variables Requested
4,2,Cumulative Days of Simulation[],Month[]  ! When Monthly Report Variables Requested
5,1,Cumulative Days of Simulation[] ! When Run Period Report Variables Requested
6,1,Calendar Year of Simulation[] ! When Annual Report Variables Requested
581,11,LIVING,AFN Zone Infiltration Air Change Rate [ach] !RunPeriod [Value,Min,Month,Day,Hour,Minute,Max,Month,Day,Hour,Minute]
582,11,ATTIC,AFN Zone Infiltration Air Change Rate [ach] !RunPeriod [Value,Min,Month,Day,Hour,Minute,Max,Month,Day,Hour,Minute]
583,11,CRAWLSPACE,AFN Zone Infiltration Air Change Rate [ach] !RunPeriod [Value,Min,Month,Day,Hour,Minute,Max,Month,Day,Hour,Minute]
1038,11,Facility,Facility Heating Setpoint Not Met Time [hr] !RunPeriod [Value,Min,Month,Day,Hour,Minute,Max,Month,Day,Hour,Minute]
1039,11,Facility,Facility Cooling Setpoint Not Met Time [hr] !RunPeriod [Value,Min,Month,Day,Hour,Minute,Max,Month,Day,Hour,Minute]
1115,11,DX_HEATING_COIL,Heating Coil Heating Energy [J] !RunPeriod [Value,Min,Month,Day,Hour,Minute,Max,Month,Day,Hour,Minute]
1128,11,DX_HEATING_COIL,Heating Coil Electricity Energy [J] !RunPeriod [Value,Min,Month,Day,Hour,Minute,Max,Month,Day,Hour,Minute]
1153,11,DX_HEATING_COIL,Heating Coil Defrost Electricity Energy [J] !RunPeriod [Value,Min,Month,Day,Hour,Minute,Max,Month,Day,Hour,Minute]
1154,11,DX_HEATING_COIL,Heating Coil Crankcase Heater Electricity Energy [J] !RunPeriod [Value,Min,Month,Day,Hour,Minute,Max,Month,Day,Hour,Minute]
1155,11,HEATING_RESISTANCE_BACKUP,Heating Coil Heating Energy [J] !RunPeriod [Value,Min,Month,Day,Hour,Minute,Max,Month,Day,Hour,Minute]
1156,11,HEATING_RESISTANCE_BACKUP,Heating Coil Electricity Energy [J] !RunPeriod [Value,Min,Month,Day,Hour,Minute,Max,Month,Day,Hour,Minute]
1292,11,WATER HEATER,Water Heater Heat Loss Energy [J] !RunPeriod [Value,Min,Month,Day,Hour,Minute,Max,Month,Day,Hour,Minute]
1306,11,WATER HEATER,Water Heater Heating Energy [J] !RunPeriod [Value,Min,Month,Day,Hour,Minute,Max,Month,Day,Hour,Minute]
1307,11,WATER HEATER,Water Heater Unmet Demand Heat Transfer Energy [J] !RunPeriod [Value,Min,Month,Day,Hour,Minute,Max,Month,Day,Hour,Minute]
1308,11,WATER HEATER,Water Heater Electricity Energy [J] !RunPeriod [Value,Min,Month,Day,Hour,Minute,Max,Month,Day,Hour,Minute]
13,11,Electricity:Facility [J] !RunPeriod [Value,Min,Month,Day,Hour,Minute,Max,Month,Day,Hour,Minute]
1134,11,Heating:Electricity [J] !RunPeriod [Value,Min,Month,Day,Hour,Minute,Max,Month,Day,Hour,Minute]
1096,11,Cooling:Electricity [J] !RunPeriod [Value,Min,Month,Day,Hour,Minute,Max,Month,Day,Hour,Minute]
562,11,Fans:Electricity [J] !RunPeriod [Value,Min,Month,Day,Hour,Minute,Max,Month,Day,Hour,Minute]
1379,11,Pumps:Electricity [J] !RunPeriod [Value,Min,Month,Day,Hour,Minute,Max,Month,Day,Hour,Minute]
1326,11,WaterSystems:Electricity [J] !RunPeriod [Value,Min,Month,Day,Hour,Minute,Max,Month,Day,Hour,Minute]
61,11,InteriorLights:Electricity [J] !RunPeriod [Value,Min,Month,Day,Hour,Minute,Max,Month,Day,Hour,Minute]
1046,11,ExteriorLights:Electricity [J] !RunPeriod [Value,Min,Month,Day,Hour,Minute,Max,Month,Day,Hour,Minute]
134,11,InteriorEquipment:Electricity [J] !RunPeriod [Value,Min,Month,Day,Hour,Minute,Max,Month,Day,Hour,Minute]
170,11,gas_dryer:InteriorEquipment:Electricity [J] !RunPeriod [Value,Min,Month,Day,Hour,Minute,Max,Month,Day,Hour,Minute]
207,11,clotheswasher:InteriorEquipment:Electricity [J] !RunPeriod [Value,Min,Month,Day,Hour,Minute,Max,Month,Day,Hour,Minute]
244,11,dishwasher:InteriorEquipment:Electricity [J] !RunPeriod [Value,Min,Month,Day,Hour,Minute,Max,Month,Day,Hour,Minute]
281,11,refrigerator:InteriorEquipment:Electricity [J] !RunPeriod [Value,Min,Month,Day,Hour,Minute,Max,Month,Day,Hour,Minute]
318,11,electric_mels:InteriorEquipment:Electricity [J] !RunPeriod [Value,Min,Month,Day,Hour,Minute,Max,Month,Day,Hour,Minute]
355,11,NaturalGas:Facility [J] !RunPeriod [Value,Min,Month,Day,Hour,Minute,Max,Month,Day,Hour,Minute]
403,11,InteriorEquipment:NaturalGas [J] !RunPeriod [Value,Min,Month,Day,Hour,Minute,Max,Month,Day,Hour,Minute]
476,11,gas_dryer:InteriorEquipment:NaturalGas [J] !RunPeriod [Value,Min,Month,Day,Hour,Minute,Max,Month,Day,Hour,Minute]
513,11,gas_mels:InteriorEquipment:NaturalGas [J] !RunPeriod [Value,Min,Month,Day,Hour,Minute,Max,Month,Day,Hour,Minute]
End of Data Dictionary
1,EXTREME_WINTER,  43.65, -70.32,  -5.00,  13.70
5,15
1038,6.5,0.0,12,22, 1,15,0.25,12,22, 6,15
1039,0.0,0.0,12,22, 1,15,0.0,12,22, 1,15
581,0.44841484237876167,0.16683091356183374,12,31,23,15,1.3854557216633354,12,27, 9,60
582,5.052028274646212,0.0,12,25, 8,60,21.412763672248353,12,27, 9,60
583,0.050986528734981384,0.00029242968215266376,12,31,16,30,0.08927769450735605,12,27, 9,60
1115,3648156656.353715,0.0,12,22,23, 3,3691978.4234578237,12,22, 6,15
1128,1217842882.378266,0.0,12,22,23, 3,1104001.3641574497,12,28,12,60
1153,32445488.38569232,0.0,12,22,23, 3,81607.49559616655,12,23, 7,60
1154,46556218.82132533,0.0,12,22, 6,15,180000.0,12,24,15,15
1155,2113902311.022751,0.0,12,22, 1,15,6424305.9580064, 1, 3, 6,15
1156,2113902311.022751,0.0,12,22, 1,15,6424305.9580064, 1, 3, 6,15
1292,-54381890.316823885,-39778.174086982915,12,22, 1,15,-5360.707391975349, 1, 4,13,14
1306,505152540.84390265,0.0,12,22, 1,15,4050000.0,12,22, 7,60
1307,91521842.47434513,0.0,12,22, 1,15,12628796.083529102, 1, 4,19,60
1308,505152540.84390265,0.0,12,22, 1,15,4050000.0,12,22, 7,60
13,4847089758.004308,452017.0388981225,12,24,15,30,11385858.548165202, 1, 3, 9,30
61,646981127.1939323,88139.10953165221,12,22, 1,15,1282023.4113694867,12,22,20,15
134,151290040.75163814,63564.01800854099,12,22, 4,15,156554.22484006523,12,27,20,15
170,11185820.069951689,348.4159749238097,12,22, 4,15,17476.39704006126,12,27,12,15
207,13893028.5742839,815.2532113832032,12,22, 3,15,22990.642799023623,12,27,10,15
244,27284301.07562584,1521.856143006317,12,22, 4,15,53038.631142310165,12,27,20,15
281,98926891.03177746,59938.60262432081,12,22, 5,15,81951.81706819107,12,22,19,15
318,0.0,0.0,12,22, 1,15,0.0,12,22, 1,15
355,422701517.16107386,18561.32405820678,12,22, 4,15,724774.895203776,12,27,18,15
403,422701517.16107386,18561.32405820678,12,22, 4,15,724774.895203776,12,27,18,15
476,227882097.80545202,7098.072629279515,12,22, 4,15,356036.3026282215,12,27,12,15
513,0.0,0.0,12,22, 1,15,0.0,12,22, 1,15
562,132919148.60679829,0.0,12,24,15,15,112680.19389267315,12,22, 6,15
1046,0.0,0.0,12,22, 1,15,0.0,12,22, 1,15
1096,0.0,0.0,12,22, 1,15,0.0,12,22, 1,15
1134,3410746900.6080327,180000.0,12,24,15,15,7390805.718469108, 1, 4, 8,45
1326,505152540.8439026,0.0,12,22, 1,15,4050000.0,12,22, 7,60
1379,0.0,0.0,12,22, 1,15,0.0,12,22, 1,15
1,EXTREME_SUMMER,  43.65, -70.32,  -5.00,  13.70
5,7
1038,0.0,0.0, 8,17, 1,15,0.0, 8,17, 1,15
1039,25.5,0.0, 8,17, 1,15,0.25, 8,17,11,30
581,0.12027061851767035,0.0, 8,17, 6, 7,0.4525693118675387, 8,19,16,48
582,2.386977822046742,0.03141853329157739, 8,23,20,22,7.253239742733151, 8,19,16,48
583,0.0245175588367542,0.0, 8,17,23, 3,0.05939460203351277, 8,19,16,48
1115,0.0,0.0, 8,17, 1, 7,0.0, 8,17, 1, 7
1128,0.0,0.0, 8,17, 1, 7,0.0, 8,17, 1, 7
1153,0.0,0.0, 8,17, 1, 7,0.0, 8,17, 1, 7
1154,0.0,0.0, 8,17, 1, 7,0.0, 8,17, 1, 7
1155,0.0,0.0, 8,17, 1, 7,0.0, 8,17, 1, 7
1156,0.0,0.0, 8,17, 1, 7,0.0, 8,17, 1, 7
1292,-21961235.947312623,-34339.183900333664, 8,21, 7,60,-3370.5348463450773, 8,17,10,15
1306,190920512.40315446,0.0, 8,17, 1, 7,4050000.0, 8,23,10,15
1307,23831381.280086238,0.0, 8,17, 1, 7,4805245.137485788, 8,23,19,60
1308,190920512.40315446,0.0, 8,17, 1, 7,4050000.0, 8,23,10,15
13,891711507.9710878,151703.1275401932, 8,21, 4,15,6540062.615793605, 8,18,20,30
61,301924526.02383536,88139.10953165221, 8,17, 1,15,1282023.4113694867, 8,17,20,15
134,70666020.44019976,63564.01800854099, 8,17, 4,15,156554.22484006523, 8,22,20,15
170,5241013.419656067,348.4159749238097, 8,17, 4,15,17476.39704006126, 8,22,12,15
207,6509451.13922267,815.2532113832032, 8,17, 3,15,22990.642799023623, 8,22,10,15
244,12749673.399825225,1521.856143006317, 8,17, 4,15,53038.631142310165, 8,22,20,15
281,46165882.481495745,59938.60262432081, 8,17, 5,15,81951.81706819107, 8,17,19,15
318,0.0,0.0, 8,17, 1,15,0.0, 8,17, 1,15
355,197687796.27748066,18561.32405820678, 8,17, 4,15,724774.895203776, 8,22,18,15
403,197687796.27748066,18561.32405820678, 8,17, 4,15,724774.895203776, 8,22,18,15
476,106772067.24485716,7098.072629279515, 8,17, 4,15,356036.3026282215, 8,22,12,15
513,0.0,0.0, 8,17, 1,15,0.0, 8,17, 1,15
562,33769967.998738974,0.0, 8,20,23,15,112680.19389267315, 8,17,11,45
1046,0.0,0.0, 8,17, 1,15,0.0, 8,17, 1,15
1096,294430481.10515934,0.0, 8,20,23,15,1117517.6986815357, 8,17,12,60
1134,0.0,0.0, 8,17, 1,15,0.0, 8,17, 1,15
1326,190920512.4031545,0.0, 8,17, 1,15,4050000.0, 8,18,20,30
1379,0.0,0.0, 8,17, 1,15,0.0, 8,17, 1,15
1,ANNUAL,  43.65, -70.32,  -5.00,  13.70
5,365
1038,54.0,0.0, 1, 1, 1,15,0.25, 1, 3, 6,15
1039,232.25,0.0, 1, 1, 1,15,0.25, 3,20,16,30
581,0.2724829600219107,0.0, 7,23,23, 3,1.3856973645430237,12,27, 9,60
582,3.8472892274976127,0.0, 1, 1, 5,45,28.419605669478887, 3, 2,16,50
583,0.026199109124931654,0.0, 7,23,23, 3,0.09168431414449042,11, 7,24,52
1115,32432517001.246655,0.0, 1, 1,23, 5,5001721.943814855,11, 8, 6,60
1128,10315523473.074856,0.0, 1, 1,23, 5,1246155.653702407,11, 8, 6,60
1153,276816714.5789557,0.0, 1, 1,23, 5,121769.89115340784, 3,11, 7,60
1154,1609232315.7127383,0.0, 1, 1, 1,22,180000.0, 1, 8,21,15
1155,10085609340.719961,0.0, 1, 1, 1, 7,6424305.9580064, 1, 3, 6,15
1156,10085609340.719961,0.0, 1, 1, 1, 7,6424305.9580064, 1, 3, 6,15
1292,-1244556904.0116708,-40398.79368232592,11, 8, 5,60,-1895.5357519194008, 5,21, 9,46
1306,11443406011.937492,0.0, 1, 1, 1, 7,4050000.0, 1, 1,20,15
1307,1851134232.009848,0.0, 1, 1, 1, 7,13157935.171542749, 2,12,19,60
1308,11443406011.937492,0.0, 1, 1, 1, 7,4050000.0, 1, 1,20,15
13,60002713054.96139,151703.1275401932, 4,20, 4,15,12185992.637803312,12,28, 7,60
61,15743207428.383959,88139.10953165221, 1, 1, 1,15,1282023.4113694867, 1, 1,20,15
134,3685071073.4325233,63564.01800854099, 1, 2, 4,15,156554.22484006523, 1, 1,20,15
170,273393721.45532674,348.4159749238097, 1, 2, 4,15,17476.39704006126, 1, 1,12,15
207,339560869.0695816,815.2532113832032, 1, 2, 3,15,22990.642799023623, 1, 1,10,15
244,664895467.8009144,1521.856143006317, 1, 2, 4,15,53038.631142310165, 1, 1,20,15
281,2407221015.106824,59938.60262432081, 1, 1, 5,15,81951.81706819107, 1, 1,19,15
318,0.0,0.0, 1, 1, 1,15,0.0, 1, 1, 1,15
355,10310294493.051695,18561.32405820678, 1, 2, 4,15,724774.895203776, 1, 1,18,15
403,10310294493.051695,18561.32405820678, 1, 2, 4,15,724774.895203776, 1, 1,18,15
476,5569688622.066177,7098.072629279515, 1, 2, 4,15,356036.3026282215, 1, 1,12,15
513,0.0,0.0, 1, 1, 1,15,0.0, 1, 1, 1,15
562,1720261613.127956,0.0, 1, 7,23,15,112680.19389267317, 2, 4,10,45
1046,0.0,0.0, 1, 1, 1,15,0.0, 1, 1, 1,15
1096,5123585083.991943,0.0, 1, 1, 1,15,1163057.9086940947, 6, 9,15,60
1134,22287181844.086483,0.0, 1, 8,10,60,7451209.270361317,12,28, 6,15
1326,11443406011.93751,0.0, 1, 1, 1,15,4050000.0000000014, 6, 4, 9,60
1379,0.0,0.0, 1, 1, 1,15,0.0, 1, 1, 1,15
End of Data
 Number of Records Written=          99
