Program Version,EnergyPlus, Version 22.2.0-c249759bad, YMD=2023.09.01 20:19
1,5,Environment Title[],Latitude[deg],Longitude[deg],Time Zone[],Elevation[m]
2,8,Day of Simulation[],Month[],Day of Month[],DST Indicator[1=yes 0=no],Hour[],StartMinute[],EndMinute[],DayType
3,5,Cumulative Day of Simulation[],Month[],Day of Month[],DST Indicator[1=yes 0=no],DayType  ! When Daily Report Variables Requested
4,2,Cumulative Days of Simulation[],Month[]  ! When Monthly Report Variables Requested
5,1,Cumulative Days of Simulation[] ! When Run Period Report Variables Requested
6,1,Calendar Year of Simulation[] ! When Annual Report Variables Requested
581,11,LIVING,AFN Zone Infiltration Air Change Rate [ach] !RunPeriod [Value,Min,Month,Day,Hour,Minute,Max,Month,Day,Hour,Minute]
582,11,ATTIC,AFN Zone Infiltration Air Change Rate [ach] !RunPeriod [Value,Min,Month,Day,Hour,Minute,Max,Month,Day,Hour,Minute]
583,11,CRAWLSPACE,AFN Zone Infiltration Air Change Rate [ach] !RunPeriod [Value,Min,Month,Day,Hour,Minute,Max,Month,Day,Hour,Minute]
1038,11,Facility,Facility Heating Setpoint Not Met Time [hr] !RunPeriod [Value,Min,Month,Day,Hour,Minute,Max,Month,Day,Hour,Minute]
1039,11,Facility,Facility Cooling Setpoint Not Met Time [hr] !RunPeriod [Value,Min,Month,Day,Hour,Minute,Max,Month,Day,Hour,Minute]
1115,11,DX_HEATING_COIL,Heating Coil Heating Energy [J] !RunPeriod [Value,Min,Month,Day,Hour,Minute,Max,Month,Day,Hour,Minute]
1128,11,DX_HEATING_COIL,Heating Coil Electricity Energy [J] !RunPeriod [Value,Min,Month,Day,Hour,Minute,Max,Month,Day,Hour,Minute]
1153,11,DX_HEATING_COIL,Heating Coil Defrost Electricity Energy [J] !RunPeriod [Value,Min,Month,Day,Hour,Minute,Max,Month,Day,Hour,Minute]
1154,11,DX_HEATING_COIL,Heating Coil Crankcase Heater Electricity Energy [J] !RunPeriod [Value,Min,Month,Day,Hour,Minute,Max,Month,Day,Hour,Minute]
1155,11,HEATING_RESISTANCE_BACKUP,Heating Coil Heating Energy [J] !RunPeriod [Value,Min,Month,Day,Hour,Minute,Max,Month,Day,Hour,Minute]
1156,11,HEATING_RESISTANCE_BACKUP,Heating Coil Electricity Energy [J] !RunPeriod [Value,Min,Month,Day,Hour,Minute,Max,Month,Day,Hour,Minute]
1292,11,WATER HEATER,Water Heater Heat Loss Energy [J] !RunPeriod [Value,Min,Month,Day,Hour,Minute,Max,Month,Day,Hour,Minute]
1306,11,WATER HEATER,Water Heater Heating Energy [J] !RunPeriod [Value,Min,Month,Day,Hour,Minute,Max,Month,Day,Hour,Minute]
1307,11,WATER HEATER,Water Heater Unmet Demand Heat Transfer Energy [J] !RunPeriod [Value,Min,Month,Day,Hour,Minute,Max,Month,Day,Hour,Minute]
1308,11,WATER HEATER,Water Heater Electricity Energy [J] !RunPeriod [Value,Min,Month,Day,Hour,Minute,Max,Month,Day,Hour,Minute]
13,11,Electricity:Facility [J] !RunPeriod [Value,Min,Month,Day,Hour,Minute,Max,Month,Day,Hour,Minute]
1134,11,Heating:Electricity [J] !RunPeriod [Value,Min,Month,Day,Hour,Minute,Max,Month,Day,Hour,Minute]
1096,11,Cooling:Electricity [J] !RunPeriod [Value,Min,Month,Day,Hour,Minute,Max,Month,Day,Hour,Minute]
562,11,Fans:Electricity [J] !RunPeriod [Value,Min,Month,Day,Hour,Minute,Max,Month,Day,Hour,Minute]
1379,11,Pumps:Electricity [J] !RunPeriod [Value,Min,Month,Day,Hour,Minute,Max,Month,Day,Hour,Minute]
1326,11,WaterSystems:Electricity [J] !RunPeriod [Value,Min,Month,Day,Hour,Minute,Max,Month,Day,Hour,Minute]
61,11,InteriorLights:Electricity [J] !RunPeriod [Value,Min,Month,Day,Hour,Minute,Max,Month,Day,Hour,Minute]
1046,11,ExteriorLights:Electricity [J] !RunPeriod [Value,Min,Month,Day,Hour,Minute,Max,Month,Day,Hour,Minute]
134,11,InteriorEquipment:Electricity [J] !RunPeriod [Value,Min,Month,Day,Hour,Minute,Max,Month,Day,Hour,Minute]
170,11,gas_dryer:InteriorEquipment:Electricity [J] !RunPeriod [Value,Min,Month,Day,Hour,Minute,Max,Month,Day,Hour,Minute]
207,11,clotheswasher:InteriorEquipment:Electricity [J] !RunPeriod [Value,Min,Month,Day,Hour,Minute,Max,Month,Day,Hour,Minute]
244,11,dishwasher:InteriorEquipment:Electricity [J] !RunPeriod [Value,Min,Month,Day,Hour,Minute,Max,Month,Day,Hour,Minute]
281,11,refrigerator:InteriorEquipment:Electricity [J] !RunPeriod [Value,Min,Month,Day,Hour,Minute,Max,Month,Day,Hour,Minute]
318,11,electric_mels:InteriorEquipment:Electricity [J] !RunPeriod [Value,Min,Month,Day,Hour,Minute,Max,Month,Day,Hour,Minute]
355,11,NaturalGas:Facility [J] !RunPeriod [Value,Min,Month,Day,Hour,Minute,Max,Month,Day,Hour,Minute]
403,11,InteriorEquipment:NaturalGas [J] !RunPeriod [Value,Min,Month,Day,Hour,Minute,Max,Month,Day,Hour,Minute]
476,11,gas_dryer:InteriorEquipment:NaturalGas [J] !RunPeriod [Value,Min,Month,Day,Hour,Minute,Max,Month,Day,Hour,Minute]
513,11,gas_mels:InteriorEquipment:NaturalGas [J] !RunPeriod [Value,Min,Month,Day,Hour,Minute,Max,Month,Day,Hour,Minute]
End of Data Dictionary
1,EXTREME_WINTER,  36.08,-115.17,  -8.00, 664.50
5,15
1038,0.0,0.0,12,22, 1,15,0.0,12,22, 1,15
1039,1.5,0.0,12,22, 1,15,0.25,12,31,15,45
581,0.2740120039322772,0.10919629658558366,12,23, 9,47,0.9069537541137027,12,25, 1,50
582,3.196971379187189,0.0,12,22, 1,60,18.603537530488776,12,25, 1,20
583,0.014334527199855396,0.00019171200232322546,12,24, 9, 5,0.10387647038686927,12,26, 6, 5
1115,927831145.8020241,0.0,12,22, 1, 7,3985112.005633892, 1, 1, 6,60
1128,290719974.4442303,0.0,12,22, 1, 7,1319221.0105890224, 1, 1, 6,60
1153,5166726.452793798,0.0,12,22, 1, 7,67085.57178339381, 1, 3,10,15
1154,196746956.9057812,0.0,12,22, 9,22,180000.0,12,22, 1,60
1155,2999649.9785119975,0.0,12,22, 1, 7,693836.4468650107, 1, 1, 6, 5
1156,2999649.9785119975,0.0,12,22, 1, 7,693836.4468650107, 1, 1, 6, 5
1292,-52183332.146360256,-39743.476143937456,12,26, 5,60,-3868.15077198697,12,23,10,44
1306,247005842.4059077,0.0,12,22, 1, 7,4050000.0,12,22, 7,15
1307,39234363.76453458,0.0,12,22, 1, 7,5570927.31992012, 1, 5, 6,60
1308,247005842.4059077,0.0,12,22, 1, 7,4050000.0,12,22, 7,15
13,1597372781.5690567,280098.39039752306,12,22,13,15,5940410.851154899, 1, 5, 7,15
61,646981127.1939323,88139.10953165221,12,22, 1,15,1282023.4113694867,12,22,20,15
134,151290040.75163814,63564.01800854099,12,22, 4,15,156554.22484006523,12,27,20,15
170,11185820.069951689,348.4159749238097,12,22, 4,15,17476.39704006126,12,27,12,15
207,13893028.5742839,815.2532113832032,12,22, 3,15,22990.642799023623,12,27,10,15
244,27284301.07562584,1521.856143006317,12,22, 4,15,53038.631142310165,12,27,20,15
281,98926891.03177746,59938.60262432081,12,22, 5,15,81951.81706819107,12,22,19,15
318,0.0,0.0,12,22, 1,15,0.0,12,22, 1,15
355,422701517.16107386,18561.32405820678,12,22, 4,15,724774.895203776,12,27,18,15
403,422701517.16107386,18561.32405820678,12,22, 4,15,724774.895203776,12,27,18,15
476,227882097.80545202,7098.072629279515,12,22, 4,15,356036.3026282215,12,27,12,15
513,0.0,0.0,12,22, 1,15,0.0,12,22, 1,15
562,33148709.24304948,0.0,12,22, 1,15,140650.98658468964, 1, 4, 6,15
1046,0.0,0.0,12,22, 1,15,0.0,12,22, 1,15
1096,23313754.193210807,0.0,12,22, 1,15,334766.4824168641,12,23,14,60
1134,495633307.7813175,0.0,12,22,10,30,1959723.1689441442, 1, 1, 6,15
1326,247005842.4059077,0.0,12,22, 1,15,4050000.0,12,22, 7,15
1379,0.0,0.0,12,22, 1,15,0.0,12,22, 1,15
1,EXTREME_SUMMER,  36.08,-115.17,  -8.00, 664.50
5,7
1038,0.0,0.0, 6,29, 1,15,0.0, 6,29, 1,15
1039,44.0,0.0, 6,29, 1,15,0.25, 6,29,12,45
581,0.1537380372505441,0.00044279573576123883, 7, 4, 6, 7,0.4829993667747264, 7, 5, 9,50
582,4.235386840047556,0.15619343252633938, 6,30, 8, 8,12.382045021280852, 7, 5,13,52
583,0.0657939863890746,0.0010006942360257596, 7, 4,23, 3,0.0986194522079292, 7, 5,17,52
1115,0.0,0.0, 6,29, 1,15,0.0, 6,29, 1,15
1128,0.0,0.0, 6,29, 1,15,0.0, 6,29, 1,15
1153,0.0,0.0, 6,29, 1,15,0.0, 6,29, 1,15
1154,0.0,0.0, 6,29, 1,15,0.0, 6,29, 1,15
1155,0.0,0.0, 6,29, 1,15,0.0, 6,29, 1,15
1156,0.0,0.0, 6,29, 1,15,0.0, 6,29, 1,15
1292,-21779455.634729963,-34308.56709853872, 7, 4,12,15,-3313.8978228774713, 7, 3, 8,59
1306,68372598.01943353,0.0, 6,29, 1,15,3434499.1693555983, 6,29, 6,60
1307,1485159.7691385087,0.0, 6,29, 1,15,1485159.7691385087, 6,29, 6,60
1308,68372598.01943353,0.0, 6,29, 1,15,3434499.1693555983, 6,29, 6,60
13,1513780880.0536103,407167.72246930917, 7, 4, 4,60,6352846.631092263, 6,29,19,30
61,301924526.02383536,88139.10953165221, 6,29, 1,15,1282023.4113694867, 6,29,20,15
134,70666020.44019976,63564.01800854099, 6,29, 4,15,156554.22484006523, 7, 4,20,15
170,5241013.419656067,348.4159749238097, 6,29, 4,15,17476.39704006126, 7, 4,12,15
207,6509451.13922267,815.2532113832032, 6,29, 3,15,22990.642799023623, 7, 4,10,15
244,12749673.399825225,1521.856143006317, 6,29, 4,15,53038.631142310165, 7, 4,20,15
281,46165882.481495745,59938.60262432081, 6,29, 5,15,81951.81706819107, 6,29,19,15
318,0.0,0.0, 6,29, 1,15,0.0, 6,29, 1,15
355,197687796.27748066,18561.32405820678, 6,29, 4,15,724774.895203776, 7, 4,18,15
403,197687796.27748066,18561.32405820678, 6,29, 4,15,724774.895203776, 7, 4,18,15
476,106772067.24485716,7098.072629279515, 6,29, 4,15,356036.3026282215, 7, 4,12,15
513,0.0,0.0, 6,29, 1,15,0.0, 6,29, 1,15
562,83499825.77105549,24891.430205473083, 7, 4, 5,30,183068.7562658026, 6,29,12,45
1046,0.0,0.0, 6,29, 1,15,0.0, 6,29, 1,15
1096,989317909.799087,229326.4612787792, 7, 4, 5,30,2532760.5801429213, 6,30,15,60
1134,0.0,0.0, 6,29, 1,15,0.0, 6,29, 1,15
1326,68372598.01943353,0.0, 6,29, 1,15,3738362.667013851, 7, 4,10,30
1379,0.0,0.0, 6,29, 1,15,0.0, 6,29, 1,15
1,ANNUAL,  36.08,-115.17,  -8.00, 664.50
5,365
1038,0.0,0.0, 1, 1, 1,15,0.0, 1, 1, 1,15
1039,642.75,0.0, 1, 1, 1,15,0.25, 1,18,11,15
581,0.23333468505340002,0.0, 4,29,23, 3,1.1682402362908426, 3, 7,15,60
582,4.0080333202152865,0.0, 1, 1, 4,60,25.562801223017455, 3, 7,15,60
583,0.03680828377268378,0.0, 7,16,23, 3,0.11063771998622804, 9,26,13,15
1115,2588065895.268533,0.0, 1, 1,11,31,3885625.913817959, 1, 1, 6,60
1128,778719998.6047322,0.0, 1, 1,11,31,1291935.1569427275, 1, 1, 6,60
1153,8804045.14533225,0.0, 1, 1,11,31,65612.68974343275, 1, 4, 7,60
1154,940760195.1424725,0.0, 1, 1, 6, 5,180000.0, 1, 1,12,60
1155,3886400.9750637617,0.0, 1, 1, 1,15,665732.6734224501, 1, 1, 6, 5
1156,3886400.9750637617,0.0, 1, 1, 1,15,665732.6734224501, 1, 1, 6, 5
1292,-1178331959.3701165,-39789.27697372914, 1, 2, 2,15,-2441.83409100102, 8, 2,14,44
1306,4691102887.006011,0.0, 1, 1, 1,15,4050000.0, 1, 2, 7,15
1307,436837069.846028,0.0, 1, 1, 1,15,5680595.774596178, 1,23, 6,60
1308,4691102887.006011,0.0, 1, 1, 1,15,4050000.0, 1, 2, 7,15
13,49321394495.47125,151703.1275401932, 1,17, 4,15,6734562.575445928, 4,24,19,30
61,15743207428.383959,88139.10953165221, 1, 1, 1,15,1282023.4113694867, 1, 1,20,15
134,3685071073.4325233,63564.01800854099, 1, 2, 4,15,156554.22484006523, 1, 1,20,15
170,273393721.45532674,348.4159749238097, 1, 2, 4,15,17476.39704006126, 1, 1,12,15
207,339560869.0695816,815.2532113832032, 1, 2, 3,15,22990.642799023623, 1, 1,10,15
244,664895467.8009144,1521.856143006317, 1, 2, 4,15,53038.631142310165, 1, 1,20,15
281,2407221015.106824,59938.60262432081, 1, 1, 5,15,81951.81706819107, 1, 1,19,15
318,0.0,0.0, 1, 1, 1,15,0.0, 1, 1, 1,15
355,10310294493.051695,18561.32405820678, 1, 2, 4,15,724774.895203776, 1, 1,18,15
403,10310294493.051695,18561.32405820678, 1, 2, 4,15,724774.895203776, 1, 1,18,15
476,5569688622.066177,7098.072629279515, 1, 2, 4,15,356036.3026282215, 1, 1,12,15
513,0.0,0.0, 1, 1, 1,15,0.0, 1, 1, 1,15
562,2229532082.735991,0.0, 1, 1,11,45,183068.7562658026, 4,23,16,30
1046,0.0,0.0, 1, 1, 1,15,0.0, 1, 1, 1,15
1096,21240310384.043015,0.0, 1, 1, 1,15,2513801.8098253584, 6,30,15,60
1134,1732170639.8675995,0.0, 1, 4,14,60,1921625.922534017, 1, 1, 6,15
1326,4691102887.006013,0.0, 1, 1, 1,15,4050000.0, 1, 2, 7,15
1379,0.0,0.0, 1, 1, 1,15,0.0, 1, 1, 1,15
End of Data
 Number of Records Written=          99
