Program Version,EnergyPlus, Version 22.2.0-c249759bad, YMD=2023.09.01 20:38
1,5,Environment Title[],Latitude[deg],Longitude[deg],Time Zone[],Elevation[m]
2,8,Day of Simulation[],Month[],Day of Month[],DST Indicator[1=yes 0=no],Hour[],StartMinute[],EndMinute[],DayType
3,5,Cumulative Day of Simulation[],Month[],Day of Month[],DST Indicator[1=yes 0=no],DayType  ! When Daily Report Variables Requested
4,2,Cumulative Days of Simulation[],Month[]  ! When Monthly Report Variables Requested
5,1,Cumulative Days of Simulation[] ! When Run Period Report Variables Requested
6,1,Calendar Year of Simulation[] ! When Annual Report Variables Requested
581,11,LIVING,AFN Zone Infiltration Air Change Rate [ach] !RunPeriod [Value,Min,Month,Day,Hour,Minute,Max,Month,Day,Hour,Minute]
582,11,ATTIC,AFN Zone Infiltration Air Change Rate [ach] !RunPeriod [Value,Min,Month,Day,Hour,Minute,Max,Month,Day,Hour,Minute]
583,11,CRAWLSPACE,AFN Zone Infiltration Air Change Rate [ach] !RunPeriod [Value,Min,Month,Day,Hour,Minute,Max,Month,Day,Hour,Minute]
1038,11,Facility,Facility Heating Setpoint Not Met Time [hr] !RunPeriod [Value,Min,Month,Day,Hour,Minute,Max,Month,Day,Hour,Minute]
1039,11,Facility,Facility Cooling Setpoint Not Met Time [hr] !RunPeriod [Value,Min,Month,Day,Hour,Minute,Max,Month,Day,Hour,Minute]
1115,11,DX_HEATING_COIL,Heating Coil Heating Energy [J] !RunPeriod [Value,Min,Month,Day,Hour,Minute,Max,Month,Day,Hour,Minute]
1128,11,DX_HEATING_COIL,Heating Coil Electricity Energy [J] !RunPeriod [Value,Min,Month,Day,Hour,Minute,Max,Month,Day,Hour,Minute]
1153,11,DX_HEATING_COIL,Heating Coil Defrost Electricity Energy [J] !RunPeriod [Value,Min,Month,Day,Hour,Minute,Max,Month,Day,Hour,Minute]
1154,11,DX_HEATING_COIL,Heating Coil Crankcase Heater Electricity Energy [J] !RunPeriod [Value,Min,Month,Day,Hour,Minute,Max,Month,Day,Hour,Minute]
1155,11,HEATING_RESISTANCE_BACKUP,Heating Coil Heating Energy [J] !RunPeriod [Value,Min,Month,Day,Hour,Minute,Max,Month,Day,Hour,Minute]
1156,11,HEATING_RESISTANCE_BACKUP,Heating Coil Electricity Energy [J] !RunPeriod [Value,Min,Month,Day,Hour,Minute,Max,Month,Day,Hour,Minute]
1292,11,WATER HEATER,Water Heater Heat Loss Energy [J] !RunPeriod [Value,Min,Month,Day,Hour,Minute,Max,Month,Day,Hour,Minute]
1306,11,WATER HEATER,Water Heater Heating Energy [J] !RunPeriod [Value,Min,Month,Day,Hour,Minute,Max,Month,Day,Hour,Minute]
1307,11,WATER HEATER,Water Heater Unmet Demand Heat Transfer Energy [J] !RunPeriod [Value,Min,Month,Day,Hour,Minute,Max,Month,Day,Hour,Minute]
1308,11,WATER HEATER,Water Heater Electricity Energy [J] !RunPeriod [Value,Min,Month,Day,Hour,Minute,Max,Month,Day,Hour,Minute]
13,11,Electricity:Facility [J] !RunPeriod [Value,Min,Month,Day,Hour,Minute,Max,Month,Day,Hour,Minute]
1134,11,Heating:Electricity [J] !RunPeriod [Value,Min,Month,Day,Hour,Minute,Max,Month,Day,Hour,Minute]
1096,11,Cooling:Electricity [J] !RunPeriod [Value,Min,Month,Day,Hour,Minute,Max,Month,Day,Hour,Minute]
562,11,Fans:Electricity [J] !RunPeriod [Value,Min,Month,Day,Hour,Minute,Max,Month,Day,Hour,Minute]
1379,11,Pumps:Electricity [J] !RunPeriod [Value,Min,Month,Day,Hour,Minute,Max,Month,Day,Hour,Minute]
1326,11,WaterSystems:Electricity [J] !RunPeriod [Value,Min,Month,Day,Hour,Minute,Max,Month,Day,Hour,Minute]
61,11,InteriorLights:Electricity [J] !RunPeriod [Value,Min,Month,Day,Hour,Minute,Max,Month,Day,Hour,Minute]
1046,11,ExteriorLights:Electricity [J] !RunPeriod [Value,Min,Month,Day,Hour,Minute,Max,Month,Day,Hour,Minute]
134,11,InteriorEquipment:Electricity [J] !RunPeriod [Value,Min,Month,Day,Hour,Minute,Max,Month,Day,Hour,Minute]
170,11,gas_dryer:InteriorEquipment:Electricity [J] !RunPeriod [Value,Min,Month,Day,Hour,Minute,Max,Month,Day,Hour,Minute]
207,11,clotheswasher:InteriorEquipment:Electricity [J] !RunPeriod [Value,Min,Month,Day,Hour,Minute,Max,Month,Day,Hour,Minute]
244,11,dishwasher:InteriorEquipment:Electricity [J] !RunPeriod [Value,Min,Month,Day,Hour,Minute,Max,Month,Day,Hour,Minute]
281,11,refrigerator:InteriorEquipment:Electricity [J] !RunPeriod [Value,Min,Month,Day,Hour,Minute,Max,Month,Day,Hour,Minute]
318,11,electric_mels:InteriorEquipment:Electricity [J] !RunPeriod [Value,Min,Month,Day,Hour,Minute,Max,Month,Day,Hour,Minute]
355,11,NaturalGas:Facility [J] !RunPeriod [Value,Min,Month,Day,Hour,Minute,Max,Month,Day,Hour,Minute]
403,11,InteriorEquipment:NaturalGas [J] !RunPeriod [Value,Min,Month,Day,Hour,Minute,Max,Month,Day,Hour,Minute]
476,11,gas_dryer:InteriorEquipment:NaturalGas [J] !RunPeriod [Value,Min,Month,Day,Hour,Minute,Max,Month,Day,Hour,Minute]
513,11,gas_mels:InteriorEquipment:NaturalGas [J] !RunPeriod [Value,Min,Month,Day,Hour,Minute,Max,Month,Day,Hour,Minute]
End of Data Dictionary
1,EXTREME_WINTER,  33.65,-101.82,  -6.00, 991.80
5,15
1038,0.25,0.0,12,22, 1,15,0.25,12,22, 6,15
1039,0.0,0.0,12,22, 1,15,0.0,12,22, 1,15
581,0.388257503004944,0.19402318530153,12,30,18,60,1.3246614760456963,12,22,11,60
582,5.764227835624847,0.0, 1, 3,22,60,21.561949926860077,12,22,11,60
583,0.035398831329357394,0.0002883110492379028,12,24,13,48,0.1288511564008647,12,22,11,60
1115,2343966331.2513914,0.0,12,22,16,60,5723947.242474999,12,22,12,60
1128,764316621.5681013,0.0,12,22,16,60,1802678.191513612,12,22,12,60
1153,28003539.450979803,0.0,12,22,16,60,102371.19073787885, 1, 5,11,45
1154,158756132.29184476,0.0,12,22, 6, 5,180000.0,12,22,16,60
1155,30686626.373736612,0.0,12,22, 1, 7,1497299.512768868,12,28, 6, 5
1156,30686626.373736612,0.0,12,22, 1, 7,1497299.512768868,12,28, 6, 5
1292,-53173777.63670455,-39782.48575115271,12,30, 2,30,-3787.183495472521,12,28,14,45
1306,444101232.45100933,0.0,12,22, 1, 7,4050000.0,12,27, 9,45
1307,62330752.07143993,0.0,12,22, 1, 7,2733038.327381748, 1, 4,19,52
1308,444101232.45100933,0.0,12,22, 1, 7,4050000.0,12,27, 9,45
13,2321695053.7182727,272017.0388981225,12,29,15,15,6732674.335143294,12,22, 7,60
61,646981127.1939323,88139.10953165221,12,22, 1,15,1282023.4113694867,12,22,20,15
134,151290040.75163814,63564.01800854099,12,22, 4,15,156554.22484006523,12,27,20,15
170,11185820.069951689,348.4159749238097,12,22, 4,15,17476.39704006126,12,27,12,15
207,13893028.5742839,815.2532113832032,12,22, 3,15,22990.642799023623,12,27,10,15
244,27284301.07562584,1521.856143006317,12,22, 4,15,53038.631142310165,12,27,20,15
281,98926891.03177746,59938.60262432081,12,22, 5,15,81951.81706819107,12,22,19,15
318,0.0,0.0,12,22, 1,15,0.0,12,22, 1,15
355,422701517.16107386,18561.32405820678,12,22, 4,15,724774.895203776,12,27,18,15
403,422701517.16107386,18561.32405820678,12,22, 4,15,724774.895203776,12,27,18,15
476,227882097.80545202,7098.072629279515,12,22, 4,15,356036.3026282215,12,27,12,15
513,0.0,0.0,12,22, 1,15,0.0,12,22, 1,15
562,84108690.30142002,0.0,12,22,16,60,185216.60045421802,12,22, 7,60
1046,0.0,0.0,12,22, 1,15,0.0,12,22, 1,15
1096,13451043.335610155,0.0,12,22, 1,15,301229.2406226274,12,25,17,15
1134,981762919.6846627,0.0,12,23,11,30,3624377.6657778346,12,28, 6,15
1326,444101232.4510095,0.0,12,22, 1,15,4050000.0,12,23,20,30
1379,0.0,0.0,12,22, 1,15,0.0,12,22, 1,15
1,EXTREME_SUMMER,  33.65,-101.82,  -6.00, 991.80
5,7
1038,0.0,0.0, 7, 6, 1,15,0.0, 7, 6, 1,15
1039,8.25,0.0, 7, 6, 1,15,0.25, 7, 9,16,45
581,0.2804418013513549,0.024205780473260666, 7, 6, 7,55,0.603868263629061, 7, 9,14,52
582,5.601500382349798,0.02740217734794301, 7, 6, 4,52,11.72137289454398, 7,10, 1,60
583,0.05473058990165993,0.0005505347408359173, 7,12, 6,11,0.106211484755613, 7, 9, 6, 3
1115,0.0,0.0, 7, 6, 1,15,0.0, 7, 6, 1,15
1128,0.0,0.0, 7, 6, 1,15,0.0, 7, 6, 1,15
1153,0.0,0.0, 7, 6, 1,15,0.0, 7, 6, 1,15
1154,0.0,0.0, 7, 6, 1,15,0.0, 7, 6, 1,15
1155,0.0,0.0, 7, 6, 1,15,0.0, 7, 6, 1,15
1156,0.0,0.0, 7, 6, 1,15,0.0, 7, 6, 1,15
1292,-22090725.171595193,-34316.74782031734, 7,10,15,60,-4021.6845082683362, 7,11,11,41
1306,151943317.19993064,0.0, 7, 6, 1,15,4050000.0, 7,10, 6,60
1307,11116087.418790631,0.0, 7, 6, 1,15,1611761.315004008, 7,12,19,52
1308,151943317.19993064,0.0, 7, 6, 1,15,4050000.0, 7,10, 6,60
13,1274390773.7823038,209556.53091589914, 7, 6, 4,60,7366525.582438991, 7,12,20,15
61,301924526.02383536,88139.10953165221, 7, 6, 1,15,1282023.4113694867, 7, 6,20,15
134,70666020.44019976,63564.01800854099, 7, 6, 4,15,156554.22484006523, 7,11,20,15
170,5241013.419656067,348.4159749238097, 7, 6, 4,15,17476.39704006126, 7,11,12,15
207,6509451.13922267,815.2532113832032, 7, 6, 3,15,22990.642799023623, 7,11,10,15
244,12749673.399825225,1521.856143006317, 7, 6, 4,15,53038.631142310165, 7,11,20,15
281,46165882.481495745,59938.60262432081, 7, 6, 5,15,81951.81706819107, 7, 6,19,15
318,0.0,0.0, 7, 6, 1,15,0.0, 7, 6, 1,15
355,197687796.27748066,18561.32405820678, 7, 6, 4,15,724774.895203776, 7,11,18,15
403,197687796.27748066,18561.32405820678, 7, 6, 4,15,724774.895203776, 7,11,18,15
476,106772067.24485716,7098.072629279515, 7, 6, 4,15,356036.3026282215, 7,11,12,15
513,0.0,0.0, 7, 6, 1,15,0.0, 7, 6, 1,15
562,66631344.96264028,0.0, 7, 6, 6,30,185216.60045421802, 7, 7,18,30
1046,0.0,0.0, 7, 6, 1,15,0.0, 7, 6, 1,15
1096,683225565.1556984,0.0, 7, 6, 6,30,2279396.4357832326, 7, 9,14,60
1134,0.0,0.0, 7, 6, 1,15,0.0, 7, 6, 1,15
1326,151943317.1999306,0.0, 7, 6, 1,15,4050000.0, 7,10, 6,60
1379,0.0,0.0, 7, 6, 1,15,0.0, 7, 6, 1,15
1,ANNUAL,  33.65,-101.82,  -6.00, 991.80
5,365
1038,0.0,0.0, 1, 1, 1,15,0.0, 1, 1, 1,15
1039,155.0,0.0, 1, 1, 1,15,0.25, 1,23,14,60
581,0.33110143048578167,0.0, 6, 5, 6, 7,1.5433324986765957, 2,24,12,52
582,6.438257185169522,0.0, 1, 3,22,60,46.36598354881595, 2,24,10,60
583,0.03376212288180505,0.0, 8, 3, 6, 7,0.12812145222568097,12,22,11,60
1115,11735771921.758167,0.0, 1, 1,16,52,5725785.518130109,12,22,12,60
1128,3806467551.629309,0.0, 1, 1,16,52,1803487.6361763338, 3,28, 6,45
1153,181217718.2040766,0.0, 1, 1,16,52,129171.87679277542, 2,11, 6,45
1154,1409631294.2851596,0.0, 1, 1, 6, 5,180000.0, 1, 2,16,30
1155,153551913.0423232,0.0, 1, 1, 1,15,2368408.8046906777, 2,15, 6,45
1156,153551913.0423232,0.0, 1, 1, 1,15,2368408.8046906777, 2,15, 6,45
1292,-1201235881.1499064,-39784.42967289743, 2, 4, 5,15,-1514.9366549466056, 4,30,19,59
1306,9502675954.314718,0.0, 1, 1, 1,15,4050000.0, 1, 1, 9,60
1307,1072472255.4892672,0.0, 1, 1, 1,15,10361210.541694641, 1, 8,19,60
1308,9502675954.314718,0.0, 1, 1, 1,15,4050000.0, 1, 1, 9,60
13,50521149237.305695,151703.1275401932, 1,31, 4,15,7707044.734147639, 2,15, 7,60
61,15743207428.383959,88139.10953165221, 1, 1, 1,15,1282023.4113694867, 1, 1,20,15
134,3685071073.4325233,63564.01800854099, 1, 2, 4,15,156554.22484006523, 1, 1,20,15
170,273393721.45532674,348.4159749238097, 1, 2, 4,15,17476.39704006126, 1, 1,12,15
207,339560869.0695816,815.2532113832032, 1, 2, 3,15,22990.642799023623, 1, 1,10,15
244,664895467.8009144,1521.856143006317, 1, 2, 4,15,53038.631142310165, 1, 1,20,15
281,2407221015.106824,59938.60262432081, 1, 1, 5,15,81951.81706819107, 1, 1,19,15
318,0.0,0.0, 1, 1, 1,15,0.0, 1, 1, 1,15
355,10310294493.051695,18561.32405820678, 1, 2, 4,15,724774.895203776, 1, 1,18,15
403,10310294493.051695,18561.32405820678, 1, 2, 4,15,724774.895203776, 1, 1,18,15
476,5569688622.066177,7098.072629279515, 1, 2, 4,15,356036.3026282215, 1, 1,12,15
513,0.0,0.0, 1, 1, 1,15,0.0, 1, 1, 1,15
562,1963164685.5366871,0.0, 1, 1,16,60,185216.60045421802, 1, 3, 6,45
1046,0.0,0.0, 1, 1, 1,15,0.0, 1, 1, 1,15
1096,14076161618.474876,0.0, 1, 1, 1,15,2276324.693419862, 7, 9,14,30
1134,5550868477.160864,0.0, 1, 3,13,60,4665391.927782947, 2,15, 6,15
1326,9502675954.314716,0.0, 1, 1, 1,15,4050000.0, 1, 1, 9,60
1379,0.0,0.0, 1, 1, 1,15,0.0, 1, 1, 1,15
End of Data
 Number of Records Written=          99
