Program Version,EnergyPlus, Version 22.2.0-c249759bad, YMD=2023.09.01 20:35
1,5,Environment Title[],Latitude[deg],Longitude[deg],Time Zone[],Elevation[m]
2,8,Day of Simulation[],Month[],Day of Month[],DST Indicator[1=yes 0=no],Hour[],StartMinute[],EndMinute[],DayType
3,5,Cumulative Day of Simulation[],Month[],Day of Month[],DST Indicator[1=yes 0=no],DayType  ! When Daily Report Variables Requested
4,2,Cumulative Days of Simulation[],Month[]  ! When Monthly Report Variables Requested
5,1,Cumulative Days of Simulation[] ! When Run Period Report Variables Requested
6,1,Calendar Year of Simulation[] ! When Annual Report Variables Requested
581,11,LIVING,AFN Zone Infiltration Air Change Rate [ach] !RunPeriod [Value,Min,Month,Day,Hour,Minute,Max,Month,Day,Hour,Minute]
582,11,ATTIC,AFN Zone Infiltration Air Change Rate [ach] !RunPeriod [Value,Min,Month,Day,Hour,Minute,Max,Month,Day,Hour,Minute]
583,11,CRAWLSPACE,AFN Zone Infiltration Air Change Rate [ach] !RunPeriod [Value,Min,Month,Day,Hour,Minute,Max,Month,Day,Hour,Minute]
1038,11,Facility,Facility Heating Setpoint Not Met Time [hr] !RunPeriod [Value,Min,Month,Day,Hour,Minute,Max,Month,Day,Hour,Minute]
1039,11,Facility,Facility Cooling Setpoint Not Met Time [hr] !RunPeriod [Value,Min,Month,Day,Hour,Minute,Max,Month,Day,Hour,Minute]
1115,11,DX_HEATING_COIL,Heating Coil Heating Energy [J] !RunPeriod [Value,Min,Month,Day,Hour,Minute,Max,Month,Day,Hour,Minute]
1128,11,DX_HEATING_COIL,Heating Coil Electricity Energy [J] !RunPeriod [Value,Min,Month,Day,Hour,Minute,Max,Month,Day,Hour,Minute]
1153,11,DX_HEATING_COIL,Heating Coil Defrost Electricity Energy [J] !RunPeriod [Value,Min,Month,Day,Hour,Minute,Max,Month,Day,Hour,Minute]
1154,11,DX_HEATING_COIL,Heating Coil Crankcase Heater Electricity Energy [J] !RunPeriod [Value,Min,Month,Day,Hour,Minute,Max,Month,Day,Hour,Minute]
1155,11,HEATING_RESISTANCE_BACKUP,Heating Coil Heating Energy [J] !RunPeriod [Value,Min,Month,Day,Hour,Minute,Max,Month,Day,Hour,Minute]
1156,11,HEATING_RESISTANCE_BACKUP,Heating Coil Electricity Energy [J] !RunPeriod [Value,Min,Month,Day,Hour,Minute,Max,Month,Day,Hour,Minute]
1292,11,WATER HEATER,Water Heater Heat Loss Energy [J] !RunPeriod [Value,Min,Month,Day,Hour,Minute,Max,Month,Day,Hour,Minute]
1306,11,WATER HEATER,Water Heater Heating Energy [J] !RunPeriod [Value,Min,Month,Day,Hour,Minute,Max,Month,Day,Hour,Minute]
1307,11,WATER HEATER,Water Heater Unmet Demand Heat Transfer Energy [J] !RunPeriod [Value,Min,Month,Day,Hour,Minute,Max,Month,Day,Hour,Minute]
1308,11,WATER HEATER,Water Heater Electricity Energy [J] !RunPeriod [Value,Min,Month,Day,Hour,Minute,Max,Month,Day,Hour,Minute]
13,11,Electricity:Facility [J] !RunPeriod [Value,Min,Month,Day,Hour,Minute,Max,Month,Day,Hour,Minute]
1134,11,Heating:Electricity [J] !RunPeriod [Value,Min,Month,Day,Hour,Minute,Max,Month,Day,Hour,Minute]
1096,11,Cooling:Electricity [J] !RunPeriod [Value,Min,Month,Day,Hour,Minute,Max,Month,Day,Hour,Minute]
562,11,Fans:Electricity [J] !RunPeriod [Value,Min,Month,Day,Hour,Minute,Max,Month,Day,Hour,Minute]
1379,11,Pumps:Electricity [J] !RunPeriod [Value,Min,Month,Day,Hour,Minute,Max,Month,Day,Hour,Minute]
1326,11,WaterSystems:Electricity [J] !RunPeriod [Value,Min,Month,Day,Hour,Minute,Max,Month,Day,Hour,Minute]
61,11,InteriorLights:Electricity [J] !RunPeriod [Value,Min,Month,Day,Hour,Minute,Max,Month,Day,Hour,Minute]
1046,11,ExteriorLights:Electricity [J] !RunPeriod [Value,Min,Month,Day,Hour,Minute,Max,Month,Day,Hour,Minute]
134,11,InteriorEquipment:Electricity [J] !RunPeriod [Value,Min,Month,Day,Hour,Minute,Max,Month,Day,Hour,Minute]
170,11,gas_dryer:InteriorEquipment:Electricity [J] !RunPeriod [Value,Min,Month,Day,Hour,Minute,Max,Month,Day,Hour,Minute]
207,11,clotheswasher:InteriorEquipment:Electricity [J] !RunPeriod [Value,Min,Month,Day,Hour,Minute,Max,Month,Day,Hour,Minute]
244,11,dishwasher:InteriorEquipment:Electricity [J] !RunPeriod [Value,Min,Month,Day,Hour,Minute,Max,Month,Day,Hour,Minute]
281,11,refrigerator:InteriorEquipment:Electricity [J] !RunPeriod [Value,Min,Month,Day,Hour,Minute,Max,Month,Day,Hour,Minute]
318,11,electric_mels:InteriorEquipment:Electricity [J] !RunPeriod [Value,Min,Month,Day,Hour,Minute,Max,Month,Day,Hour,Minute]
355,11,NaturalGas:Facility [J] !RunPeriod [Value,Min,Month,Day,Hour,Minute,Max,Month,Day,Hour,Minute]
403,11,InteriorEquipment:NaturalGas [J] !RunPeriod [Value,Min,Month,Day,Hour,Minute,Max,Month,Day,Hour,Minute]
476,11,gas_dryer:InteriorEquipment:NaturalGas [J] !RunPeriod [Value,Min,Month,Day,Hour,Minute,Max,Month,Day,Hour,Minute]
513,11,gas_mels:InteriorEquipment:NaturalGas [J] !RunPeriod [Value,Min,Month,Day,Hour,Minute,Max,Month,Day,Hour,Minute]
End of Data Dictionary
1,EXTREME_WINTER,  35.87, -78.78,  -5.00, 126.80
5,7
1038,0.25,0.0, 1,20, 1,15,0.25, 1,23, 6,15
1039,0.0,0.0, 1,20, 1,15,0.0, 1,20, 1,15
581,0.2529984960623436,0.16462429768042844, 1,22,23,45,0.4892622196759227, 1,25,22,60
582,2.1245665926452157,0.0, 1,20,20,52,8.378509907567928, 1,25,22,60
583,0.021172279061948546,0.0002953917172381627, 1,24,24,15,0.07012951252955515, 1,26, 6,60
1115,759553665.178007,0.0, 1,20, 1,15,3810532.3063942604, 1,26, 5,45
1128,239559190.6860907,0.0, 1,20, 1,15,1241279.9854137425, 1,26, 7,60
1153,10966615.407381307,0.0, 1,20, 1,15,94097.58430844916, 1,22, 6,45
1154,85579655.79797612,0.0, 1,20, 6, 5,180000.0, 1,20, 1,15
1155,15100033.887192318,0.0, 1,20, 1,15,1198119.6246791212, 1,26, 6,45
1156,15100033.887192318,0.0, 1,20, 1,15,1198119.6246791212, 1,26, 6,45
1292,-24797615.505131178,-39754.477215778534, 1,21, 2,45,-5314.66872264894, 1,25,10,60
1306,206596246.48208147,0.0, 1,20, 1,15,4050000.0, 1,21,20,30
1307,29176135.149149887,0.0, 1,20, 1,15,5346217.915923452, 1,26,19,60
1308,206596246.48208147,0.0, 1,20, 1,15,4050000.0, 1,21,20,30
13,958353595.2216182,344334.63869159983, 1,20, 1,15,6244076.301673712, 1,21,20,30
61,301924526.02383536,88139.10953165221, 1,20, 1,15,1282023.4113694867, 1,20,20,15
134,70666020.44019976,63564.01800854099, 1,20, 4,15,156554.22484006523, 1,25,20,15
170,5241013.419656067,348.4159749238097, 1,20, 4,15,17476.39704006126, 1,25,12,15
207,6509451.13922267,815.2532113832032, 1,20, 3,15,22990.642799023623, 1,25,10,15
244,12749673.399825225,1521.856143006317, 1,20, 4,15,53038.631142310165, 1,25,20,15
281,46165882.481495745,59938.60262432081, 1,20, 5,15,81951.81706819107, 1,20,19,15
318,0.0,0.0, 1,20, 1,15,0.0, 1,20, 1,15
355,197687796.27748066,18561.32405820678, 1,20, 4,15,724774.895203776, 1,25,18,15
403,197687796.27748066,18561.32405820678, 1,20, 4,15,724774.895203776, 1,25,18,15
476,106772067.24485716,7098.072629279515, 1,20, 4,15,356036.3026282215, 1,25,12,15
513,0.0,0.0, 1,20, 1,15,0.0, 1,20, 1,15
562,25865901.449955355,0.0, 1,20, 1,15,132262.27944319285, 1,26, 5,45
1046,0.0,0.0, 1,20, 1,15,0.0, 1,20, 1,15
1096,2095405.0469071828,0.0, 1,20, 1,15,168067.3879856036, 1,20,17,30
1134,351205495.77864003,143578.54301056586, 1,20,17,30,3045466.0497216387, 1,26, 6,15
1326,206596246.48208147,0.0, 1,20, 1,15,4050000.0, 1,21,20,30
1379,0.0,0.0, 1,20, 1,15,0.0, 1,20, 1,15
1,EXTREME_SUMMER,  35.87, -78.78,  -5.00, 126.80
5,7
1038,0.0,0.0, 8,17, 1,15,0.0, 8,17, 1,15
1039,63.25,0.0, 8,17, 1,15,0.25, 8,17,12,30
581,0.0917302553278927,0.0, 8,17, 7,15,0.38194272987171896, 8,22,22,60
582,2.4787369726157795,0.08598261985243992, 8,20, 8,50,8.175378362196152, 8,22,22,60
583,0.044392056454565745,0.0, 8,19,23, 3,0.07011618468836107, 8,22,22,60
1115,0.0,0.0, 8,17, 1,15,0.0, 8,17, 1,15
1128,0.0,0.0, 8,17, 1,15,0.0, 8,17, 1,15
1153,0.0,0.0, 8,17, 1,15,0.0, 8,17, 1,15
1154,0.0,0.0, 8,17, 1,15,0.0, 8,17, 1,15
1155,0.0,0.0, 8,17, 1,15,0.0, 8,17, 1,15
1156,0.0,0.0, 8,17, 1,15,0.0, 8,17, 1,15
1292,-21626670.44678829,-34034.98493087807, 8,19, 6,60,-2759.148449616552, 8,23,15,46
1306,152365859.0660215,0.0, 8,17, 1,15,4043074.020799178, 8,21, 6,60
1307,11473084.862325154,0.0, 8,17, 1,15,1654180.9407092917, 8,23,19,52
1308,152365859.0660215,0.0, 8,17, 1,15,4043074.020799178, 8,21, 6,60
13,1167587745.0368505,274706.9264131626, 8,17, 4,60,6775828.529304319, 8,23,20,15
61,301924526.02383536,88139.10953165221, 8,17, 1,15,1282023.4113694867, 8,17,20,15
134,70666020.44019976,63564.01800854099, 8,17, 4,15,156554.22484006523, 8,22,20,15
170,5241013.419656067,348.4159749238097, 8,17, 4,15,17476.39704006126, 8,22,12,15
207,6509451.13922267,815.2532113832032, 8,17, 3,15,22990.642799023623, 8,22,10,15
244,12749673.399825225,1521.856143006317, 8,17, 4,15,53038.631142310165, 8,22,20,15
281,46165882.481495745,59938.60262432081, 8,17, 5,15,81951.81706819107, 8,17,19,15
318,0.0,0.0, 8,17, 1,15,0.0, 8,17, 1,15
355,197687796.27748066,18561.32405820678, 8,17, 4,15,724774.895203776, 8,22,18,15
403,197687796.27748066,18561.32405820678, 8,17, 4,15,724774.895203776, 8,22,18,15
476,106772067.24485716,7098.072629279515, 8,17, 4,15,356036.3026282215, 8,22,12,15
513,0.0,0.0, 8,17, 1,15,0.0, 8,17, 1,15
562,60238382.799272195,12628.41446695874, 8,20, 5,60,132262.27944319288, 8,17,13,15
1046,0.0,0.0, 8,17, 1,15,0.0, 8,17, 1,15
1096,582392956.7075206,105848.53995621526, 8,20, 5,60,1459771.049523255, 8,18,15,60
1134,0.0,0.0, 8,17, 1,15,0.0, 8,17, 1,15
1326,152365859.06602153,0.0, 8,17, 1,15,4050000.0, 8,22, 9,60
1379,0.0,0.0, 8,17, 1,15,0.0, 8,17, 1,15
1,ANNUAL,  35.87, -78.78,  -5.00, 126.80
5,365
1038,2.5,0.0, 1, 1, 1,15,0.25, 1,19, 6,15
1039,907.0,0.0, 1, 1, 1,15,0.25, 2,17,13,30
581,0.18752239279590885,0.0, 5,29,23, 3,1.1345857197515883,11,16,11,60
582,2.9336744772777212,0.0, 1, 2, 7,52,26.976992505752058,11,16,11,60
583,0.025687457644562945,0.0, 5,29,23, 3,0.07556507703830244, 9, 6,12,52
1115,6520248949.968694,0.0, 1, 1, 1, 7,4049306.771014696, 1,31, 6,45
1128,2021766909.1635025,0.0, 1, 1, 1, 7,1288698.6860690797, 1,31, 6,45
1153,82378628.17476386,0.0, 1, 1, 1, 7,111875.5357594191, 1,19, 6,60
1154,1301478834.6258683,0.0, 1, 1, 1, 7,180000.0, 1, 1,24,45
1155,143488916.85317758,0.0, 1, 1, 1, 7,1942523.7138275867, 1,29, 6,45
1156,143488916.85317758,0.0, 1, 1, 1, 7,1942523.7138275867, 1,29, 6,45
1292,-1188581959.832464,-39791.18431066802, 2,21, 2,45,-2262.778857807339, 7,19,13,50
1306,9392789541.724407,0.0, 1, 1, 1, 7,4050000.0, 1, 1, 9,60
1307,1031453311.837918,0.0, 1, 1, 1, 7,10053487.322718024, 2, 5,19,60
1308,9392789541.724407,0.0, 1, 1, 1, 7,4050000.0, 1, 1, 9,60
13,46975246875.98704,151703.1275401932, 1, 5, 4,15,7073861.881143235, 1,26, 7,15
61,15743207428.383959,88139.10953165221, 1, 1, 1,15,1282023.4113694867, 1, 1,20,15
134,3685071073.4325233,63564.01800854099, 1, 2, 4,15,156554.22484006523, 1, 1,20,15
170,273393721.45532674,348.4159749238097, 1, 2, 4,15,17476.39704006126, 1, 1,12,15
207,339560869.0695816,815.2532113832032, 1, 2, 3,15,22990.642799023623, 1, 1,10,15
244,664895467.8009144,1521.856143006317, 1, 2, 4,15,53038.631142310165, 1, 1,20,15
281,2407221015.106824,59938.60262432081, 1, 1, 5,15,81951.81706819107, 1, 1,19,15
318,0.0,0.0, 1, 1, 1,15,0.0, 1, 1, 1,15
355,10310294493.051695,18561.32405820678, 1, 2, 4,15,724774.895203776, 1, 1,18,15
403,10310294493.051695,18561.32405820678, 1, 2, 4,15,724774.895203776, 1, 1,18,15
476,5569688622.066177,7098.072629279515, 1, 2, 4,15,356036.3026282215, 1, 1,12,15
513,0.0,0.0, 1, 1, 1,15,0.0, 1, 1, 1,15
562,1678611719.579878,0.0, 1, 1, 1,15,132262.27944319288, 4,24,17,60
1046,0.0,0.0, 1, 1, 1,15,0.0, 1, 1, 1,15
1096,12926453824.046362,0.0, 1, 1, 1,15,1462605.0788314743, 8,18,15,60
1134,3549113288.81731,0.0, 1, 1, 1,15,3904624.412179386, 1,29, 6,15
1326,9392789541.724386,0.0, 1, 1, 1,15,4050000.0000000014, 4,23, 9,60
1379,0.0,0.0, 1, 1, 1,15,0.0, 1, 1, 1,15
End of Data
 Number of Records Written=          99
