Program Version,EnergyPlus, Version 22.2.0-c249759bad, YMD=2023.09.01 17:56
1,5,Environment Title[],Latitude[deg],Longitude[deg],Time Zone[],Elevation[m]
2,8,Day of Simulation[],Month[],Day of Month[],DST Indicator[1=yes 0=no],Hour[],StartMinute[],EndMinute[],DayType
3,5,Cumulative Day of Simulation[],Month[],Day of Month[],DST Indicator[1=yes 0=no],DayType  ! When Daily Report Variables Requested
4,2,Cumulative Days of Simulation[],Month[]  ! When Monthly Report Variables Requested
5,1,Cumulative Days of Simulation[] ! When Run Period Report Variables Requested
6,1,Calendar Year of Simulation[] ! When Annual Report Variables Requested
581,11,LIVING,AFN Zone Infiltration Air Change Rate [ach] !RunPeriod [Value,Min,Month,Day,Hour,Minute,Max,Month,Day,Hour,Minute]
582,11,ATTIC,AFN Zone Infiltration Air Change Rate [ach] !RunPeriod [Value,Min,Month,Day,Hour,Minute,Max,Month,Day,Hour,Minute]
583,11,CRAWLSPACE,AFN Zone Infiltration Air Change Rate [ach] !RunPeriod [Value,Min,Month,Day,Hour,Minute,Max,Month,Day,Hour,Minute]
1038,11,Facility,Facility Heating Setpoint Not Met Time [hr] !RunPeriod [Value,Min,Month,Day,Hour,Minute,Max,Month,Day,Hour,Minute]
1039,11,Facility,Facility Cooling Setpoint Not Met Time [hr] !RunPeriod [Value,Min,Month,Day,Hour,Minute,Max,Month,Day,Hour,Minute]
1115,11,DX_HEATING_COIL,Heating Coil Heating Energy [J] !RunPeriod [Value,Min,Month,Day,Hour,Minute,Max,Month,Day,Hour,Minute]
1128,11,DX_HEATING_COIL,Heating Coil Electricity Energy [J] !RunPeriod [Value,Min,Month,Day,Hour,Minute,Max,Month,Day,Hour,Minute]
1153,11,DX_HEATING_COIL,Heating Coil Defrost Electricity Energy [J] !RunPeriod [Value,Min,Month,Day,Hour,Minute,Max,Month,Day,Hour,Minute]
1154,11,DX_HEATING_COIL,Heating Coil Crankcase Heater Electricity Energy [J] !RunPeriod [Value,Min,Month,Day,Hour,Minute,Max,Month,Day,Hour,Minute]
1155,11,HEATING_RESISTANCE_BACKUP,Heating Coil Heating Energy [J] !RunPeriod [Value,Min,Month,Day,Hour,Minute,Max,Month,Day,Hour,Minute]
1156,11,HEATING_RESISTANCE_BACKUP,Heating Coil Electricity Energy [J] !RunPeriod [Value,Min,Month,Day,Hour,Minute,Max,Month,Day,Hour,Minute]
1292,11,WATER HEATER,Water Heater Heat Loss Energy [J] !RunPeriod [Value,Min,Month,Day,Hour,Minute,Max,Month,Day,Hour,Minute]
1306,11,WATER HEATER,Water Heater Heating Energy [J] !RunPeriod [Value,Min,Month,Day,Hour,Minute,Max,Month,Day,Hour,Minute]
1307,11,WATER HEATER,Water Heater Unmet Demand Heat Transfer Energy [J] !RunPeriod [Value,Min,Month,Day,Hour,Minute,Max,Month,Day,Hour,Minute]
1308,11,WATER HEATER,Water Heater Electricity Energy [J] !RunPeriod [Value,Min,Month,Day,Hour,Minute,Max,Month,Day,Hour,Minute]
13,11,Electricity:Facility [J] !RunPeriod [Value,Min,Month,Day,Hour,Minute,Max,Month,Day,Hour,Minute]
1134,11,Heating:Electricity [J] !RunPeriod [Value,Min,Month,Day,Hour,Minute,Max,Month,Day,Hour,Minute]
1096,11,Cooling:Electricity [J] !RunPeriod [Value,Min,Month,Day,Hour,Minute,Max,Month,Day,Hour,Minute]
562,11,Fans:Electricity [J] !RunPeriod [Value,Min,Month,Day,Hour,Minute,Max,Month,Day,Hour,Minute]
1379,11,Pumps:Electricity [J] !RunPeriod [Value,Min,Month,Day,Hour,Minute,Max,Month,Day,Hour,Minute]
1326,11,WaterSystems:Electricity [J] !RunPeriod [Value,Min,Month,Day,Hour,Minute,Max,Month,Day,Hour,Minute]
61,11,InteriorLights:Electricity [J] !RunPeriod [Value,Min,Month,Day,Hour,Minute,Max,Month,Day,Hour,Minute]
1046,11,ExteriorLights:Electricity [J] !RunPeriod [Value,Min,Month,Day,Hour,Minute,Max,Month,Day,Hour,Minute]
134,11,InteriorEquipment:Electricity [J] !RunPeriod [Value,Min,Month,Day,Hour,Minute,Max,Month,Day,Hour,Minute]
170,11,gas_dryer:InteriorEquipment:Electricity [J] !RunPeriod [Value,Min,Month,Day,Hour,Minute,Max,Month,Day,Hour,Minute]
207,11,clotheswasher:InteriorEquipment:Electricity [J] !RunPeriod [Value,Min,Month,Day,Hour,Minute,Max,Month,Day,Hour,Minute]
244,11,dishwasher:InteriorEquipment:Electricity [J] !RunPeriod [Value,Min,Month,Day,Hour,Minute,Max,Month,Day,Hour,Minute]
281,11,refrigerator:InteriorEquipment:Electricity [J] !RunPeriod [Value,Min,Month,Day,Hour,Minute,Max,Month,Day,Hour,Minute]
318,11,electric_mels:InteriorEquipment:Electricity [J] !RunPeriod [Value,Min,Month,Day,Hour,Minute,Max,Month,Day,Hour,Minute]
355,11,NaturalGas:Facility [J] !RunPeriod [Value,Min,Month,Day,Hour,Minute,Max,Month,Day,Hour,Minute]
403,11,InteriorEquipment:NaturalGas [J] !RunPeriod [Value,Min,Month,Day,Hour,Minute,Max,Month,Day,Hour,Minute]
476,11,gas_dryer:InteriorEquipment:NaturalGas [J] !RunPeriod [Value,Min,Month,Day,Hour,Minute,Max,Month,Day,Hour,Minute]
513,11,gas_mels:InteriorEquipment:NaturalGas [J] !RunPeriod [Value,Min,Month,Day,Hour,Minute,Max,Month,Day,Hour,Minute]
End of Data Dictionary
1,EXTREME_WINTER,  33.93,-118.40,  -8.00,  32.00
5,7
1038,0.0,0.0, 2,15, 1,15,0.0, 2,15, 1,15
1039,0.0,0.0, 2,15, 1,15,0.0, 2,15, 1,15
581,0.19581491766720935,0.0923122393752106, 2,17, 7, 7,0.6545325656090827, 2,16,16,48
582,3.4321549676960617,0.0, 2,17, 4,35,13.072812414501064, 2,15,12,50
583,0.009927953881276989,0.00018015957945737544, 2,21, 9,51,0.04846741874255925, 2,16,17, 5
1115,17506099.200328335,0.0, 2,15, 1, 7,1447487.0205420293, 2,16, 6, 5
1128,4665151.08487031,0.0, 2,15, 1, 7,364103.51688332635, 2,16, 6,60
1153,0.0,0.0, 2,15, 1, 7,0.0, 2,15, 1, 7
1154,15527673.832783937,0.0, 2,15, 1, 7,180000.0, 2,15, 1,45
1155,0.0,0.0, 2,15, 1, 7,0.0, 2,15, 1, 7
1156,0.0,0.0, 2,15, 1, 7,0.0, 2,15, 1, 7
1292,-23214898.144371938,-39045.45372528756, 2,16, 4,60,-3014.555091136528, 2,21,10,34
1306,185785344.187663,0.0, 2,15, 1, 7,4050000.0, 2,21,20,15
1307,21312230.57393197,0.0, 2,15, 1, 7,8414228.568212006, 2,21,19,60
1308,185785344.187663,0.0, 2,15, 1, 7,4050000.0, 2,21,20,15
13,676468106.4220632,151703.1275401932, 2,17, 4,15,5782055.402401339, 2,21,20,15
61,301924526.02383536,88139.10953165221, 2,15, 1,15,1282023.4113694867, 2,15,20,15
134,70666020.44019976,63564.01800854099, 2,15, 4,15,156554.22484006523, 2,20,20,15
170,5241013.419656067,348.4159749238097, 2,15, 4,15,17476.39704006126, 2,20,12,15
207,6509451.13922267,815.2532113832032, 2,15, 3,15,22990.642799023623, 2,20,10,15
244,12749673.399825225,1521.856143006317, 2,15, 4,15,53038.631142310165, 2,20,20,15
281,46165882.481495745,59938.60262432081, 2,15, 5,15,81951.81706819107, 2,15,19,15
318,0.0,0.0, 2,15, 1,15,0.0, 2,15, 1,15
355,197687796.27748066,18561.32405820678, 2,15, 4,15,724774.895203776, 2,20,18,15
403,197687796.27748066,18561.32405820678, 2,15, 4,15,724774.895203776, 2,20,18,15
476,106772067.24485716,7098.072629279515, 2,15, 4,15,356036.3026282215, 2,20,12,15
513,0.0,0.0, 2,15, 1,15,0.0, 2,15, 1,15
562,12122193.445199288,0.0, 2,15, 1,15,80491.12660909665, 2,16,17,15
1046,0.0,0.0, 2,15, 1,15,0.0, 2,15, 1,15
1096,85777197.40751211,0.0, 2,15, 1,15,615543.4522015085, 2,16,16,15
1134,20192824.917654246,0.0, 2,15, 1,15,566953.8553324493, 2,16, 6,15
1326,185785344.18766308,0.0, 2,15, 1,15,4050000.0, 2,16,20,30
1379,0.0,0.0, 2,15, 1,15,0.0, 2,15, 1,15
1,EXTREME_SUMMER,  33.93,-118.40,  -8.00,  32.00
5,7
1038,0.0,0.0, 8,29, 1,15,0.0, 8,29, 1,15
1039,43.5,0.0, 8,29, 1,15,0.25, 8,30,13,45
581,0.1201898203717666,0.0, 8,29, 3,45,0.4814096954077321, 8,29,14,55
582,3.5482016091557838,0.03382284818942257, 8,30, 8,31,14.469441614705707, 8,31,14,48
583,0.026853488931990695,0.0, 9, 3, 6,11,0.05094839102173484, 8,31,14,48
1115,0.0,0.0, 8,29, 1,15,0.0, 8,29, 1,15
1128,0.0,0.0, 8,29, 1,15,0.0, 8,29, 1,15
1153,0.0,0.0, 8,29, 1,15,0.0, 8,29, 1,15
1154,0.0,0.0, 8,29, 1,15,0.0, 8,29, 1,15
1155,0.0,0.0, 8,29, 1,15,0.0, 8,29, 1,15
1156,0.0,0.0, 8,29, 1,15,0.0, 8,29, 1,15
1292,-21935968.34807385,-34182.651830732444, 9, 2,22,30,-3053.906119888085, 9, 1,10,60
1306,165848037.39318413,0.0, 8,29, 1,15,4050000.0, 9, 2, 6,60
1307,15206571.719773028,0.0, 8,29, 1,15,2543772.7239748035, 9, 4,19,55
1308,165848037.39318413,0.0, 8,29, 1,15,4050000.0, 9, 2, 6,60
13,901571153.9124427,151703.1275401932, 8,29, 4,15,6400055.37140389, 9, 4,20,15
61,301924526.02383536,88139.10953165221, 8,29, 1,15,1282023.4113694867, 8,29,20,15
134,70666020.44019976,63564.01800854099, 8,29, 4,15,156554.22484006523, 9, 3,20,15
170,5241013.419656067,348.4159749238097, 8,29, 4,15,17476.39704006126, 9, 3,12,15
207,6509451.13922267,815.2532113832032, 8,29, 3,15,22990.642799023623, 9, 3,10,15
244,12749673.399825225,1521.856143006317, 8,29, 4,15,53038.631142310165, 9, 3,20,15
281,46165882.481495745,59938.60262432081, 8,29, 5,15,81951.81706819107, 8,29,19,15
318,0.0,0.0, 8,29, 1,15,0.0, 8,29, 1,15
355,197687796.27748066,18561.32405820678, 8,29, 4,15,724774.895203776, 9, 3,18,15
403,197687796.27748066,18561.32405820678, 8,29, 4,15,724774.895203776, 9, 3,18,15
476,106772067.24485716,7098.072629279515, 8,29, 4,15,356036.3026282215, 9, 3,12,15
513,0.0,0.0, 8,29, 1,15,0.0, 8,29, 1,15
562,38119626.66421063,0.0, 8,29, 3,45,98250.9471503495, 8,31,13,60
1046,0.0,0.0, 8,29, 1,15,0.0, 8,29, 1,15
1096,325012943.39101493,0.0, 8,29, 3,45,920683.2888934757, 9, 3,12,60
1134,0.0,0.0, 8,29, 1,15,0.0, 8,29, 1,15
1326,165848037.3931841,0.0, 8,29, 1,15,4050000.0, 8,30,20,30
1379,0.0,0.0, 8,29, 1,15,0.0, 8,29, 1,15
1,ANNUAL,  33.93,-118.40,  -8.00,  32.00
5,365
1038,0.0,0.0, 1, 1, 1,15,0.0, 1, 1, 1,15
1039,808.5,0.0, 1, 1, 1,15,0.25, 1, 5,14,45
581,0.18258059426331885,0.0, 5,18,23, 3,0.9571849309061301, 3,27,12,60
582,4.118762679667414,0.0, 1, 1, 1,60,32.33399083503916,11,10,12,52
583,0.02024739958808986,0.0, 5,18,23, 3,0.05630868759561847,10, 4,14,50
1115,67264821.57351087,0.0, 1, 1, 1,15,1447264.6488440996, 2,16, 6, 5
1128,18091341.14934433,0.0, 1, 1, 1,15,356394.91315547633, 2,16, 6, 5
1153,4958.418221573357,0.0, 1, 1, 1,15,4958.418221573357,12,19, 7,60
1154,119031828.62745684,0.0, 1, 1, 1,15,180000.0, 1, 4, 3,15
1155,0.0,0.0, 1, 1, 1,15,0.0, 1, 1, 1,15
1156,0.0,0.0, 1, 1, 1,15,0.0, 1, 1, 1,15
1292,-1164528736.6116707,-39098.99176278685, 2,28, 4,45,-2225.310088993713, 4,14,12,59
1306,9197729155.572916,0.0, 1, 1, 1,15,4050000.0, 1, 1, 9,60
1307,939130104.1600573,0.0, 1, 1, 1,15,8470342.716300255, 1,29,19,60
1308,9197729155.572916,0.0, 1, 1, 1,15,4050000.0, 1, 1, 9,60
13,41041705596.747574,151703.1275401932, 1, 2, 4,15,6405292.293095382, 8,13,20,15
61,15743207428.383959,88139.10953165221, 1, 1, 1,15,1282023.4113694867, 1, 1,20,15
134,3685071073.4325233,63564.01800854099, 1, 2, 4,15,156554.22484006523, 1, 1,20,15
170,273393721.45532674,348.4159749238097, 1, 2, 4,15,17476.39704006126, 1, 1,12,15
207,339560869.0695816,815.2532113832032, 1, 2, 3,15,22990.642799023623, 1, 1,10,15
244,664895467.8009144,1521.856143006317, 1, 2, 4,15,53038.631142310165, 1, 1,20,15
281,2407221015.106824,59938.60262432081, 1, 1, 5,15,81951.81706819107, 1, 1,19,15
318,0.0,0.0, 1, 1, 1,15,0.0, 1, 1, 1,15
355,10310294493.051695,18561.32405820678, 1, 2, 4,15,724774.895203776, 1, 1,18,15
403,10310294493.051695,18561.32405820678, 1, 2, 4,15,724774.895203776, 1, 1,18,15
476,5569688622.066177,7098.072629279515, 1, 2, 4,15,356036.3026282215, 1, 1,12,15
513,0.0,0.0, 1, 1, 1,15,0.0, 1, 1, 1,15
562,1372308676.539619,0.0, 1, 1, 1,15,98250.94715034952, 2, 3,16,45
1046,0.0,0.0, 1, 1, 1,15,0.0, 1, 1, 1,15
1096,10906261134.621096,0.0, 1, 1, 1,15,1052944.6106499387,10,21,13,60
1134,137128128.1950228,0.0, 1, 1, 1,15,565020.4924635986, 2,28, 6,15
1326,9197729155.572918,0.0, 1, 1, 1,15,4050000.0000000014,10, 7, 9,60
1379,0.0,0.0, 1, 1, 1,15,0.0, 1, 1, 1,15
End of Data
 Number of Records Written=          99
