Program Version,EnergyPlus, Version 22.2.0-c249759bad, YMD=2023.09.01 20:46
1,5,Environment Title[],Latitude[deg],Longitude[deg],Time Zone[],Elevation[m]
2,8,Day of Simulation[],Month[],Day of Month[],DST Indicator[1=yes 0=no],Hour[],StartMinute[],EndMinute[],DayType
3,5,Cumulative Day of Simulation[],Month[],Day of Month[],DST Indicator[1=yes 0=no],DayType  ! When Daily Report Variables Requested
4,2,Cumulative Days of Simulation[],Month[]  ! When Monthly Report Variables Requested
5,1,Cumulative Days of Simulation[] ! When Run Period Report Variables Requested
6,1,Calendar Year of Simulation[] ! When Annual Report Variables Requested
581,11,LIVING,AFN Zone Infiltration Air Change Rate [ach] !RunPeriod [Value,Min,Month,Day,Hour,Minute,Max,Month,Day,Hour,Minute]
582,11,ATTIC,AFN Zone Infiltration Air Change Rate [ach] !RunPeriod [Value,Min,Month,Day,Hour,Minute,Max,Month,Day,Hour,Minute]
583,11,CRAWLSPACE,AFN Zone Infiltration Air Change Rate [ach] !RunPeriod [Value,Min,Month,Day,Hour,Minute,Max,Month,Day,Hour,Minute]
1038,11,Facility,Facility Heating Setpoint Not Met Time [hr] !RunPeriod [Value,Min,Month,Day,Hour,Minute,Max,Month,Day,Hour,Minute]
1039,11,Facility,Facility Cooling Setpoint Not Met Time [hr] !RunPeriod [Value,Min,Month,Day,Hour,Minute,Max,Month,Day,Hour,Minute]
1115,11,DX_HEATING_COIL,Heating Coil Heating Energy [J] !RunPeriod [Value,Min,Month,Day,Hour,Minute,Max,Month,Day,Hour,Minute]
1128,11,DX_HEATING_COIL,Heating Coil Electricity Energy [J] !RunPeriod [Value,Min,Month,Day,Hour,Minute,Max,Month,Day,Hour,Minute]
1153,11,DX_HEATING_COIL,Heating Coil Defrost Electricity Energy [J] !RunPeriod [Value,Min,Month,Day,Hour,Minute,Max,Month,Day,Hour,Minute]
1154,11,DX_HEATING_COIL,Heating Coil Crankcase Heater Electricity Energy [J] !RunPeriod [Value,Min,Month,Day,Hour,Minute,Max,Month,Day,Hour,Minute]
1155,11,HEATING_RESISTANCE_BACKUP,Heating Coil Heating Energy [J] !RunPeriod [Value,Min,Month,Day,Hour,Minute,Max,Month,Day,Hour,Minute]
1156,11,HEATING_RESISTANCE_BACKUP,Heating Coil Electricity Energy [J] !RunPeriod [Value,Min,Month,Day,Hour,Minute,Max,Month,Day,Hour,Minute]
1292,11,WATER HEATER,Water Heater Heat Loss Energy [J] !RunPeriod [Value,Min,Month,Day,Hour,Minute,Max,Month,Day,Hour,Minute]
1306,11,WATER HEATER,Water Heater Heating Energy [J] !RunPeriod [Value,Min,Month,Day,Hour,Minute,Max,Month,Day,Hour,Minute]
1307,11,WATER HEATER,Water Heater Unmet Demand Heat Transfer Energy [J] !RunPeriod [Value,Min,Month,Day,Hour,Minute,Max,Month,Day,Hour,Minute]
1308,11,WATER HEATER,Water Heater Electricity Energy [J] !RunPeriod [Value,Min,Month,Day,Hour,Minute,Max,Month,Day,Hour,Minute]
13,11,Electricity:Facility [J] !RunPeriod [Value,Min,Month,Day,Hour,Minute,Max,Month,Day,Hour,Minute]
1134,11,Heating:Electricity [J] !RunPeriod [Value,Min,Month,Day,Hour,Minute,Max,Month,Day,Hour,Minute]
1096,11,Cooling:Electricity [J] !RunPeriod [Value,Min,Month,Day,Hour,Minute,Max,Month,Day,Hour,Minute]
562,11,Fans:Electricity [J] !RunPeriod [Value,Min,Month,Day,Hour,Minute,Max,Month,Day,Hour,Minute]
1379,11,Pumps:Electricity [J] !RunPeriod [Value,Min,Month,Day,Hour,Minute,Max,Month,Day,Hour,Minute]
1326,11,WaterSystems:Electricity [J] !RunPeriod [Value,Min,Month,Day,Hour,Minute,Max,Month,Day,Hour,Minute]
61,11,InteriorLights:Electricity [J] !RunPeriod [Value,Min,Month,Day,Hour,Minute,Max,Month,Day,Hour,Minute]
1046,11,ExteriorLights:Electricity [J] !RunPeriod [Value,Min,Month,Day,Hour,Minute,Max,Month,Day,Hour,Minute]
134,11,InteriorEquipment:Electricity [J] !RunPeriod [Value,Min,Month,Day,Hour,Minute,Max,Month,Day,Hour,Minute]
170,11,gas_dryer:InteriorEquipment:Electricity [J] !RunPeriod [Value,Min,Month,Day,Hour,Minute,Max,Month,Day,Hour,Minute]
207,11,clotheswasher:InteriorEquipment:Electricity [J] !RunPeriod [Value,Min,Month,Day,Hour,Minute,Max,Month,Day,Hour,Minute]
244,11,dishwasher:InteriorEquipment:Electricity [J] !RunPeriod [Value,Min,Month,Day,Hour,Minute,Max,Month,Day,Hour,Minute]
281,11,refrigerator:InteriorEquipment:Electricity [J] !RunPeriod [Value,Min,Month,Day,Hour,Minute,Max,Month,Day,Hour,Minute]
318,11,electric_mels:InteriorEquipment:Electricity [J] !RunPeriod [Value,Min,Month,Day,Hour,Minute,Max,Month,Day,Hour,Minute]
355,11,NaturalGas:Facility [J] !RunPeriod [Value,Min,Month,Day,Hour,Minute,Max,Month,Day,Hour,Minute]
403,11,InteriorEquipment:NaturalGas [J] !RunPeriod [Value,Min,Month,Day,Hour,Minute,Max,Month,Day,Hour,Minute]
476,11,gas_dryer:InteriorEquipment:NaturalGas [J] !RunPeriod [Value,Min,Month,Day,Hour,Minute,Max,Month,Day,Hour,Minute]
513,11,gas_mels:InteriorEquipment:NaturalGas [J] !RunPeriod [Value,Min,Month,Day,Hour,Minute,Max,Month,Day,Hour,Minute]
End of Data Dictionary
1,EXTREME_WINTER,  33.94, -81.12,  -5.00,  69.00
5,7
1038,0.0,0.0, 1,20, 1,15,0.0, 1,20, 1,15
1039,0.0,0.0, 1,20, 1,15,0.0, 1,20, 1,15
581,0.2581032384864407,0.10493357025774838, 1,26,10,16,0.4940590678276219, 1,23,15,60
582,2.775367188212158,0.0, 1,20, 4,60,12.40835994440218, 1,22, 9,60
583,0.020252206046286306,0.000042915352064513154, 1,26,10,40,0.0747508596942827, 1,23, 6,10
1115,663585916.1695186,0.0, 1,20, 1,15,4116062.4553420413, 1,24, 6,45
1128,211263751.18152678,0.0, 1,20, 1,15,1315562.8026088567, 1,24, 6,45
1153,9880255.691166587,0.0, 1,20, 1,15,60696.08306785752, 1,25, 6,45
1154,68024838.14523496,0.0, 1,20, 6, 5,180000.0, 1,20, 1,15
1155,5071909.977902756,0.0, 1,20, 1,15,898753.5012733779, 1,20, 6, 5
1156,5071909.977902756,0.0, 1,20, 1,15,898753.5012733779, 1,20, 6, 5
1292,-24390194.503065035,-39786.74471543395, 1,25, 2,60,-2340.2242596700507, 1,26,10,31
1306,235057227.38106444,0.0, 1,20, 1,15,4050000.0, 1,20, 8,45
1307,69287134.2658861,0.0, 1,20, 1,15,11762659.26865217, 1,20, 8,30
1308,235057227.38106444,0.0, 1,20, 1,15,4050000.0, 1,20, 8,45
13,941685483.1973509,272017.0388981225, 1,21,15,15,6103286.385762011, 1,24, 8,45
61,301924526.02383536,88139.10953165221, 1,20, 1,15,1282023.4113694867, 1,20,20,15
134,70666020.44019976,63564.01800854099, 1,20, 4,15,156554.22484006523, 1,25,20,15
170,5241013.419656067,348.4159749238097, 1,20, 4,15,17476.39704006126, 1,25,12,15
207,6509451.13922267,815.2532113832032, 1,20, 3,15,22990.642799023623, 1,25,10,15
244,12749673.399825225,1521.856143006317, 1,20, 4,15,53038.631142310165, 1,25,20,15
281,46165882.481495745,59938.60262432081, 1,20, 5,15,81951.81706819107, 1,20,19,15
318,0.0,0.0, 1,20, 1,15,0.0, 1,20, 1,15
355,197687796.27748066,18561.32405820678, 1,20, 4,15,724774.895203776, 1,25,18,15
403,197687796.27748066,18561.32405820678, 1,20, 4,15,724774.895203776, 1,25,18,15
476,106772067.24485716,7098.072629279515, 1,20, 4,15,356036.3026282215, 1,25,12,15
513,0.0,0.0, 1,20, 1,15,0.0, 1,20, 1,15
562,24150188.26014167,0.0, 1,20, 1,15,137439.05398454276, 1,24, 6,45
1046,0.0,0.0, 1,20, 1,15,0.0, 1,20, 1,15
1096,15646766.096278852,0.0, 1,20, 1,15,350135.57727026526, 1,26,18,15
1134,294240754.99583113,0.0, 1,21,14,60,2261511.0773648294, 1,23, 6,15
1326,235057227.38106444,0.0, 1,20, 1,15,4050000.0, 1,20, 8,45
1379,0.0,0.0, 1,20, 1,15,0.0, 1,20, 1,15
1,EXTREME_SUMMER,  33.94, -81.12,  -5.00,  69.00
5,7
1038,0.0,0.0, 6,22, 1,15,0.0, 6,22, 1,15
1039,53.0,0.0, 6,22, 1,15,0.25, 6,22,15,60
581,0.07746308670985777,0.0, 6,22,23, 3,0.290691736752884, 6,22,17,52
582,2.4155527330956827,0.017974704260696726, 6,25,20,47,10.070489027319214, 6,27,10,55
583,0.04485760393348292,0.0, 6,25, 6, 7,0.07035546522865445, 6,24, 6, 3
1115,0.0,0.0, 6,22, 1,15,0.0, 6,22, 1,15
1128,0.0,0.0, 6,22, 1,15,0.0, 6,22, 1,15
1153,0.0,0.0, 6,22, 1,15,0.0, 6,22, 1,15
1154,0.0,0.0, 6,22, 1,15,0.0, 6,22, 1,15
1155,0.0,0.0, 6,22, 1,15,0.0, 6,22, 1,15
1156,0.0,0.0, 6,22, 1,15,0.0, 6,22, 1,15
1292,-21769390.010809727,-34321.071862214725, 6,24,13,15,-3368.5537915331956, 6,28,10,31
1306,168090518.5458921,0.0, 6,22, 1,15,3672885.9183108676, 6,25, 6,45
1307,30665221.00188295,0.0, 6,22, 1,15,2569238.3298519105, 6,22, 8,25
1308,168090518.5458921,0.0, 6,22, 1,15,3672885.9183108676, 6,25, 6,45
13,1213199784.7644396,250757.3304289385, 6,24, 4,60,6034314.124993028, 6,24,17,15
61,301924526.02383536,88139.10953165221, 6,22, 1,15,1282023.4113694867, 6,22,20,15
134,70666020.44019976,63564.01800854099, 6,22, 4,15,156554.22484006523, 6,27,20,15
170,5241013.419656067,348.4159749238097, 6,22, 4,15,17476.39704006126, 6,27,12,15
207,6509451.13922267,815.2532113832032, 6,22, 3,15,22990.642799023623, 6,27,10,15
244,12749673.399825225,1521.856143006317, 6,22, 4,15,53038.631142310165, 6,27,20,15
281,46165882.481495745,59938.60262432081, 6,22, 5,15,81951.81706819107, 6,22,19,15
318,0.0,0.0, 6,22, 1,15,0.0, 6,22, 1,15
355,197687796.27748066,18561.32405820678, 6,22, 4,15,724774.895203776, 6,27,18,15
403,197687796.27748066,18561.32405820678, 6,22, 4,15,724774.895203776, 6,27,18,15
476,106772067.24485716,7098.072629279515, 6,22, 4,15,356036.3026282215, 6,27,12,15
513,0.0,0.0, 6,22, 1,15,0.0, 6,22, 1,15
562,60477905.51895984,10573.637450601676, 6,24, 4,60,137439.05398454278, 6,23,19,30
1046,0.0,0.0, 6,22, 1,15,0.0, 6,22, 1,15
1096,612040814.2355522,88480.56543814362, 6,24, 4,60,1593473.8416986456, 6,27,17,60
1134,0.0,0.0, 6,22, 1,15,0.0, 6,22, 1,15
1326,168090518.54589203,0.0, 6,22, 1,15,4050000.0, 6,22, 8,45
1379,0.0,0.0, 6,22, 1,15,0.0, 6,22, 1,15
1,ANNUAL,  33.94, -81.12,  -5.00,  69.00
5,365
1038,1.0,0.0, 1, 1, 1,15,0.25, 1,19, 6,15
1039,956.5,0.0, 1, 1, 1,15,0.25, 1, 2,15,30
581,0.15942904777239486,0.0, 4,28,23, 3,0.837300406533258, 3, 9,16,60
582,2.7494529439135764,0.0, 1, 1,21,60,28.163243432146274,11,16,24,52
583,0.027790099294626912,0.0, 5, 5,23, 3,0.0839356970777341, 5,29,15,47
1115,4391256877.838912,0.0, 1, 1, 1,15,4271024.382455168, 1, 6, 6,60
1128,1365303330.2352445,0.0, 1, 1, 1,15,1370706.5825068566, 1, 6, 6,45
1153,64302110.88821829,0.0, 1, 1, 1,15,99698.79905407122, 2,13, 6,60
1154,1119985833.8697166,0.0, 1, 1, 1,15,180000.0, 1, 2, 5,60
1155,46705460.92763675,0.0, 1, 1, 1,15,1288438.5920110145, 1,19, 6,60
1156,46705460.92763675,0.0, 1, 1, 1,15,1288438.5920110145, 1,19, 6,60
1292,-1177680834.8173566,-39798.03326145048, 1,25, 3,60,-1923.6026557811317, 3,12,10,31
1306,10371395954.197844,0.0, 1, 1, 1,15,4050000.0, 1, 1,10,30
1307,2503813255.306903,0.0, 1, 1, 1,15,12521971.451119598, 2,20, 8,30
1308,10371395954.197844,0.0, 1, 1, 1,15,4050000.0, 1, 1,10,30
13,49853839409.14889,151703.1275401932, 1,10, 4,15,7412939.430712582, 1,19, 6,60
61,15743207428.383959,88139.10953165221, 1, 1, 1,15,1282023.4113694867, 1, 1,20,15
134,3685071073.4325233,63564.01800854099, 1, 2, 4,15,156554.22484006523, 1, 1,20,15
170,273393721.45532674,348.4159749238097, 1, 2, 4,15,17476.39704006126, 1, 1,12,15
207,339560869.0695816,815.2532113832032, 1, 2, 3,15,22990.642799023623, 1, 1,10,15
244,664895467.8009144,1521.856143006317, 1, 2, 4,15,53038.631142310165, 1, 1,20,15
281,2407221015.106824,59938.60262432081, 1, 1, 5,15,81951.81706819107, 1, 1,19,15
318,0.0,0.0, 1, 1, 1,15,0.0, 1, 1, 1,15
355,10310294493.051695,18561.32405820678, 1, 2, 4,15,724774.895203776, 1, 1,18,15
403,10310294493.051695,18561.32405820678, 1, 2, 4,15,724774.895203776, 1, 1,18,15
476,5569688622.066177,7098.072629279515, 1, 2, 4,15,356036.3026282215, 1, 1,12,15
513,0.0,0.0, 1, 1, 1,15,0.0, 1, 1, 1,15
562,1826003035.9361446,0.0, 1, 1, 1,15,137439.0539845428, 5,16,17,30
1046,0.0,0.0, 1, 1, 1,15,0.0, 1, 1, 1,15
1096,15631865181.276356,0.0, 1, 1, 1,15,1596257.6649076603, 6,27,17,60
1134,2596296735.9208145,0.0, 1, 1, 1,15,2904985.501637797, 1,19, 6,15
1326,10371395954.197863,0.0, 1, 1, 1,15,4050000.0000000014,10, 1,10,30
1379,0.0,0.0, 1, 1, 1,15,0.0, 1, 1, 1,15
End of Data
 Number of Records Written=          99
