Program Version,EnergyPlus, Version 22.2.0-c249759bad, YMD=2023.07.07 15:19
1,5,Environment Title[],Latitude[deg],Longitude[deg],Time Zone[],Elevation[m]
2,8,Day of Simulation[],Month[],Day of Month[],DST Indicator[1=yes 0=no],Hour[],StartMinute[],EndMinute[],DayType
3,5,Cumulative Day of Simulation[],Month[],Day of Month[],DST Indicator[1=yes 0=no],DayType  ! When Daily Report Variables Requested
4,2,Cumulative Days of Simulation[],Month[]  ! When Monthly Report Variables Requested
5,1,Cumulative Days of Simulation[] ! When Run Period Report Variables Requested
6,1,Calendar Year of Simulation[] ! When Annual Report Variables Requested
581,11,LIVING,AFN Zone Infiltration Air Change Rate [ach] !RunPeriod [Value,Min,Month,Day,Hour,Minute,Max,Month,Day,Hour,Minute]
582,11,ATTIC,AFN Zone Infiltration Air Change Rate [ach] !RunPeriod [Value,Min,Month,Day,Hour,Minute,Max,Month,Day,Hour,Minute]
583,11,CRAWLSPACE,AFN Zone Infiltration Air Change Rate [ach] !RunPeriod [Value,Min,Month,Day,Hour,Minute,Max,Month,Day,Hour,Minute]
1038,11,Facility,Facility Heating Setpoint Not Met Time [hr] !RunPeriod [Value,Min,Month,Day,Hour,Minute,Max,Month,Day,Hour,Minute]
1039,11,Facility,Facility Cooling Setpoint Not Met Time [hr] !RunPeriod [Value,Min,Month,Day,Hour,Minute,Max,Month,Day,Hour,Minute]
1115,11,DX_HEATING_COIL,Heating Coil Heating Energy [J] !RunPeriod [Value,Min,Month,Day,Hour,Minute,Max,Month,Day,Hour,Minute]
1128,11,DX_HEATING_COIL,Heating Coil Electricity Energy [J] !RunPeriod [Value,Min,Month,Day,Hour,Minute,Max,Month,Day,Hour,Minute]
1153,11,DX_HEATING_COIL,Heating Coil Defrost Electricity Energy [J] !RunPeriod [Value,Min,Month,Day,Hour,Minute,Max,Month,Day,Hour,Minute]
1154,11,DX_HEATING_COIL,Heating Coil Crankcase Heater Electricity Energy [J] !RunPeriod [Value,Min,Month,Day,Hour,Minute,Max,Month,Day,Hour,Minute]
1156,11,HEATING_RESISTANCE_BACKUP,Heating Coil Electricity Energy [J] !RunPeriod [Value,Min,Month,Day,Hour,Minute,Max,Month,Day,Hour,Minute]
13,11,Electricity:Facility [J] !RunPeriod [Value,Min,Month,Day,Hour,Minute,Max,Month,Day,Hour,Minute]
1134,11,Heating:Electricity [J] !RunPeriod [Value,Min,Month,Day,Hour,Minute,Max,Month,Day,Hour,Minute]
1096,11,Cooling:Electricity [J] !RunPeriod [Value,Min,Month,Day,Hour,Minute,Max,Month,Day,Hour,Minute]
562,11,Fans:Electricity [J] !RunPeriod [Value,Min,Month,Day,Hour,Minute,Max,Month,Day,Hour,Minute]
1388,11,Pumps:Electricity [J] !RunPeriod [Value,Min,Month,Day,Hour,Minute,Max,Month,Day,Hour,Minute]
1360,11,WaterSystems:Electricity [J] !RunPeriod [Value,Min,Month,Day,Hour,Minute,Max,Month,Day,Hour,Minute]
61,11,InteriorLights:Electricity [J] !RunPeriod [Value,Min,Month,Day,Hour,Minute,Max,Month,Day,Hour,Minute]
1046,11,ExteriorLights:Electricity [J] !RunPeriod [Value,Min,Month,Day,Hour,Minute,Max,Month,Day,Hour,Minute]
134,11,InteriorEquipment:Electricity [J] !RunPeriod [Value,Min,Month,Day,Hour,Minute,Max,Month,Day,Hour,Minute]
170,11,gas_dryer:InteriorEquipment:Electricity [J] !RunPeriod [Value,Min,Month,Day,Hour,Minute,Max,Month,Day,Hour,Minute]
207,11,clotheswasher:InteriorEquipment:Electricity [J] !RunPeriod [Value,Min,Month,Day,Hour,Minute,Max,Month,Day,Hour,Minute]
244,11,dishwasher:InteriorEquipment:Electricity [J] !RunPeriod [Value,Min,Month,Day,Hour,Minute,Max,Month,Day,Hour,Minute]
281,11,refrigerator:InteriorEquipment:Electricity [J] !RunPeriod [Value,Min,Month,Day,Hour,Minute,Max,Month,Day,Hour,Minute]
318,11,electric_mels:InteriorEquipment:Electricity [J] !RunPeriod [Value,Min,Month,Day,Hour,Minute,Max,Month,Day,Hour,Minute]
355,11,NaturalGas:Facility [J] !RunPeriod [Value,Min,Month,Day,Hour,Minute,Max,Month,Day,Hour,Minute]
1323,11,WaterSystems:NaturalGas [J] !RunPeriod [Value,Min,Month,Day,Hour,Minute,Max,Month,Day,Hour,Minute]
403,11,InteriorEquipment:NaturalGas [J] !RunPeriod [Value,Min,Month,Day,Hour,Minute,Max,Month,Day,Hour,Minute]
476,11,gas_dryer:InteriorEquipment:NaturalGas [J] !RunPeriod [Value,Min,Month,Day,Hour,Minute,Max,Month,Day,Hour,Minute]
513,11,gas_mels:InteriorEquipment:NaturalGas [J] !RunPeriod [Value,Min,Month,Day,Hour,Minute,Max,Month,Day,Hour,Minute]
End of Data Dictionary
1,EXTREME_WINTER,  40.65, -73.78,  -5.00,   3.40
5,7
1038,4.333333333333334,0.0, 1, 6, 1,10,0.16666666666666666, 1, 7,24,60
1039,0.0,0.0, 1, 6, 1,10,0.0, 1, 6, 1,10
581,0.42784271258305673,0.1883381094346891, 1,12,19,30,1.2244265687615619, 1, 7,19,55
582,9.175325895840453,0.2334362333010049, 1,12,12,60,26.27560803328732, 1, 7,19,55
583,9.773587658621366,0.25696094777809625, 1,12,17,30,33.76231904744238, 1, 7,19,55
1115,2034813366.988659,0.0, 1, 6,23, 2,2707703.7627496803, 1, 9,21,50
1128,653477852.0659455,0.0, 1, 6,23, 2,811593.5884950764, 1, 9,21,50
1153,5429172.232145469,0.0, 1, 6,23, 2,47148.9282201715, 1,12,11,60
1154,20292718.978141192,0.0, 1, 6, 1, 1,107500.41181702187, 1,10,16,30
1156,965126170.2849498,0.0, 1, 6,12, 3,4378749.092540346, 1, 7,20,20
13,2091635895.7045588,422009.40777443344, 1,10,15,60,6165108.691595385, 1, 7,20,20
61,301924526.0238348,58759.40635443481, 1, 6, 1,10,854682.2742463244, 1, 6,20,10
134,70666020.44019979,42376.01200569399, 1, 6, 4,10,104369.48322671017, 1,11,20,10
170,5241013.419656074,232.27731661587313, 1, 6, 4,10,11650.931360040839, 1,11,12,10
207,6509451.13922266,543.5021409221355, 1, 6, 3,10,15327.095199349082, 1,11,10,10
244,12749673.39982522,1014.5707620042115, 1, 6, 4,10,35359.08742820678, 1,11,20,10
281,46165882.48149605,39959.06841621388, 1, 6, 5,10,54634.54471212738, 1, 6,19,10
318,0.0,0.0, 1, 6, 1,10,0.0, 1, 6, 1,10
355,738978845.7175866,12374.216038804521, 1, 6, 4,10,3829218.1540669827, 1, 7,18,60
403,197687796.27748126,12374.216038804521, 1, 6, 4,10,483183.26346918393, 1,11,18,10
476,106772067.24485692,4732.048419519677, 1, 6, 4,10,237357.535085481, 1,11,12,10
513,0.0,0.0, 1, 6, 1,10,0.0, 1, 6, 1,10
562,69699595.67934197,0.0, 1,11,23,10,83146.79105321846, 1, 6, 1,10
1046,0.0,0.0, 1, 6, 1,10,0.0, 1, 6, 1,10
1096,0.0,0.0, 1, 6, 1,10,0.0, 1, 6, 1,10
1134,1644325913.5611825,120000.0, 1,11,23,10,5123197.6207786165, 1, 7,20,20
1323,541291049.4401023,0.0, 1, 6, 1,10,3375000.000000001, 1, 6,16,50
1360,5019840.0,4980.0, 1, 6, 1,20,4980.000000000001, 1, 6, 1,10
1388,0.0,0.0, 1, 6, 1,10,0.0, 1, 6, 1,10
1,EXTREME_SUMMER,  40.65, -73.78,  -5.00,   3.40
5,7
1038,0.0,0.0, 6,29, 1,10,0.0, 6,29, 1,10
1039,47.83333333333333,0.0, 6,29, 1,10,0.16666666666666666, 6,29,15,50
581,0.21664166321869152,0.0, 7, 3, 6,50,0.5742448349012846, 7, 1,16,53
582,5.694705916473488,0.0, 7, 5,20, 5,13.87503047610046, 7, 2,18,25
583,6.7995988049962035,0.33629891744367646, 7, 3, 6,55,15.535508405258666, 7, 2,18,53
1115,0.0,0.0, 6,29, 1,10,0.0, 6,29, 1,10
1128,0.0,0.0, 6,29, 1,10,0.0, 6,29, 1,10
1153,0.0,0.0, 6,29, 1,10,0.0, 6,29, 1,10
1154,0.0,0.0, 6,29, 1,10,0.0, 6,29, 1,10
1156,0.0,0.0, 6,29, 1,10,0.0, 6,29, 1,10
13,973416960.6402299,122388.61339351167, 6,30, 4,60,1907524.6967967064, 7, 2,20,10
61,301924526.0238348,58759.40635443481, 6,29, 1,10,854682.2742463244, 6,29,20,10
134,70666020.44019979,42376.01200569399, 6,29, 4,10,104369.48322671017, 7, 4,20,10
170,5241013.419656074,232.27731661587313, 6,29, 4,10,11650.931360040839, 7, 4,12,10
207,6509451.13922266,543.5021409221355, 6,29, 3,10,15327.095199349082, 7, 4,10,10
244,12749673.39982522,1014.5707620042115, 6,29, 4,10,35359.08742820678, 7, 4,20,10
281,46165882.48149605,39959.06841621388, 6,29, 5,10,54634.54471212738, 6,29,19,10
318,0.0,0.0, 6,29, 1,10,0.0, 6,29, 1,10
355,655110136.8862828,12374.216038804521, 6,29, 4,10,3829218.154066982, 6,30,18,60
403,197687796.27748126,12374.216038804521, 6,29, 4,10,483183.26346918393, 7, 4,18,10
476,106772067.24485692,4732.048419519677, 6,29, 4,10,237357.535085481, 7, 4,12,10
513,0.0,0.0, 6,29, 1,10,0.0, 6,29, 1,10
562,56473365.930390045,1733.341673596461, 6,30, 4,60,83146.79105321846, 6,29,14,60
1046,0.0,0.0, 6,29, 1,10,0.0, 6,29, 1,10
1096,539333208.2458044,14539.853359786413, 6,30, 4,60,891046.5129217715, 7, 2,18,60
1134,0.0,0.0, 6,29, 1,10,0.0, 6,29, 1,10
1323,457422340.60880065,0.0, 6,29, 1,10,3375000.0000000005, 6,29,21,40
1360,5019840.0,4980.0, 6,29, 1,10,4980.000000000001, 6,29, 7,60
1388,0.0,0.0, 6,29, 1,10,0.0, 6,29, 1,10
1,ANNUAL,  40.65, -73.78,  -5.00,   3.40
5,365
1038,33.00000000000002,0.0, 1, 1, 1,10,0.16666666666666666, 1, 2, 6,10
1039,545.5000000000002,0.0, 1, 1, 1,10,0.16666666666666666, 4,28,11,50
581,0.30109019487288496,0.0, 5,30,22,30,1.2949900766892353, 3, 2,14,60
582,6.2855957880536115,0.0, 1, 4, 3,60,34.07195334197632, 2,12,15,60
583,7.255985085056008,0.0, 5,30,23, 2,35.18742773168122, 1,30,24,60
1115,24813181657.381435,0.0, 1, 1,15,20,3056032.1439283406, 3,12, 6,10
1128,7372985765.503083,0.0, 1, 1,15,20,851391.8967846916,11,26, 6,30
1153,112006323.30485843,0.0, 1, 1,15,20,74387.24642618456, 2,18,17,60
1154,1468081503.5906749,0.0, 1, 1, 6, 2,120000.0, 1, 1,15,20
1156,4513416977.333995,0.0, 1, 1, 1, 1,4378749.092540346, 1, 7,20,10
13,43838720914.09672,106115.4183601288, 4,13, 4,10,6168514.749078671, 1, 7,20,10
61,15743207428.39043,58759.40635443481, 1, 1, 1,10,854682.2742463244, 1, 1,20,10
134,3685071073.433083,42376.01200569399, 1, 2, 4,10,104369.48322671017, 1, 1,20,10
170,273393721.45534325,232.27731661587313, 1, 2, 4,10,11650.931360040839, 1, 1,12,10
207,339560869.06955314,543.5021409221355, 1, 2, 3,10,15327.095199349082, 1, 1,10,10
244,664895467.8009839,1014.5707620042115, 1, 2, 4,10,35359.08742820678, 1, 1,20,10
281,2407221015.1057043,39959.06841621388, 1, 1, 5,10,54634.54471212738, 1, 1,19,10
318,0.0,0.0, 1, 1, 1,10,0.0, 1, 1, 1,10
355,35737132743.03817,12374.216038804521, 1, 2, 4,10,3829218.154066983, 4,28,18,30
403,10310294493.052883,12374.216038804521, 1, 2, 4,10,483183.26346918393, 1, 1,18,10
476,5569688622.065564,4732.048419519677, 1, 2, 4,10,237357.535085481, 1, 1,12,10
513,0.0,0.0, 1, 1, 1,10,0.0, 1, 1, 1,10
562,1751468241.6436508,0.0, 1, 1,15,20,83146.79105321846, 1, 1, 6,10
1046,0.0,0.0, 1, 1, 1,10,0.0, 1, 1, 1,10
1096,8930734800.903496,0.0, 1, 1, 1,10,975138.2573661902, 7, 8,14,60
1134,13466490569.732616,0.0, 1, 4,18,10,5121795.914997575, 1, 7,19,60
1323,25426838249.98911,0.0, 1, 1, 1,10,3375000.000000002, 9,12, 9,60
1360,261748800.0,4979.999999999999, 1, 8, 9,40,4980.000000000002, 1,25,22,30
1388,0.0,0.0, 1, 1, 1,10,0.0, 1, 1, 1,10
End of Data
 Number of Records Written=          87
