Program Version,EnergyPlus, Version 22.2.0-c249759bad, YMD=2023.09.01 14:30
1,5,Environment Title[],Latitude[deg],Longitude[deg],Time Zone[],Elevation[m]
2,8,Day of Simulation[],Month[],Day of Month[],DST Indicator[1=yes 0=no],Hour[],StartMinute[],EndMinute[],DayType
3,5,Cumulative Day of Simulation[],Month[],Day of Month[],DST Indicator[1=yes 0=no],DayType  ! When Daily Report Variables Requested
4,2,Cumulative Days of Simulation[],Month[]  ! When Monthly Report Variables Requested
5,1,Cumulative Days of Simulation[] ! When Run Period Report Variables Requested
6,1,Calendar Year of Simulation[] ! When Annual Report Variables Requested
7,1,Environment,Site Outdoor Air Drybulb Temperature [C] !Hourly
619,1,DX_HEATING_COIL,Heating Coil Heating Rate [W] !Hourly
633,1,DX_HEATING_COIL,Heating Coil Electricity Rate [W] !Hourly
659,1,DX_HEATING_COIL,Heating Coil Defrost Electricity Rate [W] !Hourly
661,1,DX_HEATING_COIL,Heating Coil Crankcase Heater Electricity Rate [W] !Hourly
690,1,FAN,Fan Electricity Rate [W] !Hourly
716,1,HEAT PUMP WATER HEATER FAN,Fan Electricity Rate [W] !Hourly
718,1,LIVING,Zone Mean Air Temperature [C] !Hourly
719,1,ATTIC,Zone Mean Air Temperature [C] !Hourly
720,1,CRAWLSPACE,Zone Mean Air Temperature [C] !Hourly
843,1,LIVING,Zone Predicted Sensible Load to Heating Setpoint Heat Transfer Rate [W] !Hourly
844,1,LIVING,Zone System Predicted Sensible Load to Heating Setpoint Heat Transfer Rate [W] !Hourly
907,1,ATTIC,Zone Predicted Sensible Load to Heating Setpoint Heat Transfer Rate [W] !Hourly
908,1,ATTIC,Zone System Predicted Sensible Load to Heating Setpoint Heat Transfer Rate [W] !Hourly
971,1,CRAWLSPACE,Zone Predicted Sensible Load to Heating Setpoint Heat Transfer Rate [W] !Hourly
972,1,CRAWLSPACE,Zone System Predicted Sensible Load to Heating Setpoint Heat Transfer Rate [W] !Hourly
1195,1,HEATING_RESISTANCE_BACKUP,Heating Coil Heating Rate [W] !Hourly
1197,1,HEATING_RESISTANCE_BACKUP,Heating Coil Electricity Rate [W] !Hourly
End of Data Dictionary
1,EXTREME_WINTER,  45.60,-122.61,  -8.00,  12.00
2,1,12,22, 0, 1, 0.00,60.00,Monday
7,5.0
718,18.971802320852017
719,5.681597785320139
720,19.293362103370562
619,1708.69845491881
633,502.11043521967383
659,28.370193390672107
661,135.62471912131122
690,50.78047327026716
716,0.0
843,1328.9788946188319
844,1328.9788946188319
907,0.0
908,0.0
971,0.0
972,0.0
1195,0.0
1197,0.0
2,1,12,22, 0, 2, 0.00,60.00,Monday
7,5.0
718,18.611690223867907
719,5.795795327656499
720,19.03055197570376
619,1526.6167656969508
633,458.3458824964726
659,25.51349675454284
661,142.08001171835872
690,45.688122113446425
716,0.0
843,1190.0097128759244
844,1190.0097128759244
907,0.0
908,0.0
971,0.0
972,0.0
1195,0.0
1197,0.0
2,1,12,22, 0, 3, 0.00,60.00,Monday
7,5.0
718,18.61792841799748
719,5.905352868755715
720,18.850522470399348
619,1780.672851913772
633,527.130672974426
659,33.58221109949199
661,132.2134349845391
690,53.45503120444092
716,0.0
843,1384.697069300395
844,1384.697069300395
907,0.0
908,0.0
971,0.0
972,0.0
1195,0.0
1197,0.0
2,1,12,22, 0, 4, 0.00,60.00,Monday
7,3.9
718,18.453517149319776
719,5.290398766556859
720,18.672237855058306
619,2119.301967979468
633,633.6895942188642
659,57.50229102095229
661,114.71024088687436
690,67.06038404489868
716,0.0
843,1651.8039912904733
844,1651.8039912904733
907,0.0
908,0.0
971,0.0
972,0.0
1195,0.0
1197,0.0
2,1,12,22, 0, 5, 0.00,60.00,Monday
7,3.9
718,18.582022754065914
719,5.259361599409224
720,18.518305564747454
619,2415.669597067778
633,714.658177709036
659,65.06738690675691
661,103.48938004268868
690,75.88328505558789
716,0.0
843,1863.155519455986
844,1863.155519455986
907,0.0
908,0.0
971,0.0
972,0.0
1195,0.0
1197,0.0
2,1,12,22, 0, 6, 0.00,60.00,Monday
7,3.9
718,19.484669655111844
719,5.772969883585834
720,18.36286710137709
619,3484.2026319167744
633,1009.8873267227972
659,91.74104164656221
661,63.925920099923395
690,106.99048946736245
716,0.0
843,2693.241112419233
844,2693.241112419233
907,0.0
908,0.0
971,0.0
972,0.0
1195,0.0
1197,0.0
2,1,12,22, 0, 7, 0.00,60.00,Monday
7,4.4
718,19.609111295337257
719,6.352420900132298
720,18.25829739581189
619,4499.4600097636685
633,1293.8111585532793
659,109.632982077709
661,30.40255138402619
690,133.49207704167657
716,85.44000000000004
843,2358.043327176434
844,2358.043327176434
907,0.0
908,0.0
971,0.0
972,0.0
1195,0.0
1197,0.0
2,1,12,22, 0, 8, 0.00,60.00,Monday
7,3.9
718,19.65996654339676
719,5.65007708806317
720,18.139472674766512
619,4083.640490021398
633,1196.766964508105
659,106.52561516029951
661,41.884736970505074
690,124.31813128003012
716,56.97134513617632
843,2361.657757390145
844,2361.657757390145
907,0.0
908,0.0
971,0.0
972,0.0
1195,0.0
1197,0.0
2,1,12,22, 0, 9, 0.00,60.00,Monday
7,4.4
718,19.807272197596273
719,5.929809847782013
720,18.051892121147937
619,2491.1880850846082
633,750.4919562657905
659,68.764511281044
661,101.02722959130293
690,77.87329695640744
716,0.0
843,1893.4160904741802
844,1893.4160904741802
907,0.0
908,0.0
971,0.0
972,0.0
1195,0.0
1197,0.0
2,1,12,22, 0,10, 0.00,60.00,Monday
7,4.4
718,19.75282769560366
719,6.78399807968644
720,17.956076197377534
619,1502.0140810190458
633,464.14419607104793
659,42.378982771660894
661,138.97163271536044
690,48.018037669972394
716,0.0
843,1141.3552415016293
844,1141.3552415016293
907,0.0
908,0.0
971,0.0
972,0.0
1195,0.0
1197,0.0
2,1,12,22, 0,11, 0.00,60.00,Monday
7,4.4
718,19.73092574711434
719,7.111405250420736
720,17.868958736242078
619,1285.490414850274
633,398.6224728165783
659,36.436818692147085
661,147.52871804853322
690,41.28524576300217
716,0.0
843,988.9515685222304
844,988.9515685222304
907,0.0
908,0.0
971,0.0
972,0.0
1195,0.0
1197,0.0
2,1,12,22, 0,12, 0.00,60.00,Monday
7,5.0
718,19.822488224639198
719,8.031756006405919
720,17.801639632564505
619,832.8288496338552
633,258.1329811377905
659,25.05324451668061
661,165.93325843843698
690,26.82622207065631
716,0.0
843,632.2374431474091
844,632.2374431474091
907,0.0
908,0.0
971,0.0
972,0.0
1195,0.0
1197,0.0
2,1,12,22, 0,13, 0.00,60.00,Monday
7,6.0
718,19.868718490194375
719,8.79621296596745
720,17.747591181614165
619,647.7612007513328
633,182.47123123085663
659,0.0
661,180.19056898146044
690,15.660797861088925
716,0.0
843,516.0365748100412
844,516.0365748100412
907,0.0
908,0.0
971,0.0
972,0.0
1195,0.0
1197,0.0
2,1,12,22, 0,14, 0.00,60.00,Monday
7,5.6
718,19.78583188919903
719,8.42599266033431
720,17.699710744931096
619,2061.0369224585334
633,570.8207490293607
659,0.0
661,137.81740360409054
690,49.15987095856575
716,69.96265787498609
843,708.8013622248964
844,708.8013622248964
907,0.0
908,0.0
971,0.0
972,0.0
1195,0.0
1197,0.0
2,1,12,22, 0,15, 0.00,60.00,Monday
7,6.1
718,19.782711856162745
719,8.248883246624764
720,17.65328695602416
619,432.0382625954271
633,121.85151986862807
659,0.0
661,186.77519414135122
690,10.455172140512696
716,0.0
843,342.9931140689605
844,342.9931140689605
907,0.0
908,0.0
971,0.0
972,0.0
1195,0.0
1197,0.0
2,1,12,22, 0,16, 0.00,60.00,Monday
7,5.6
718,19.785107220062105
719,8.094777635113191
720,17.610484133648132
619,0.0
633,0.0
659,0.0
661,200.0
690,0.0
716,0.0
843,-51.03988880418365
844,-51.03988880418365
907,0.0
908,0.0
971,0.0
972,0.0
1195,0.0
1197,0.0
2,1,12,22, 0,17, 0.00,60.00,Monday
7,5.6
718,19.730423623722228
719,7.131640179937822
720,17.575915675831197
619,396.6183926039303
633,112.75212690561149
659,0.0
661,187.698345092982
690,9.725354083889526
716,0.0
843,304.38591754897607
844,304.38591754897607
907,0.0
908,0.0
971,0.0
972,0.0
1195,0.0
1197,0.0
2,1,12,22, 0,18, 0.00,60.00,Monday
7,5.0
718,19.131643518431716
719,6.105888362311333
720,17.535628016171607
619,468.81912646939423
633,146.45747396878278
659,13.87126292297978
661,180.726975231141
690,15.178210382413502
716,0.0
843,362.8095630478101
844,362.8095630478101
907,0.0
908,0.0
971,0.0
972,0.0
1195,0.0
1197,0.0
2,1,12,22, 0,19, 0.00,60.00,Monday
7,4.4
718,19.63290583315239
719,5.9728139702149905
720,17.474051754563156
619,2577.333384419551
633,764.8797137443042
659,70.66845873659025
661,98.07148794784
690,80.20079824248143
716,85.44000000000004
843,814.5014368549237
844,814.5014368549237
907,0.0
908,0.0
971,0.0
972,0.0
1195,0.0
1197,0.0
2,1,12,22, 0,20, 0.00,60.00,Monday
7,3.9
718,19.586584148389758
719,5.4182628273266165
720,17.431562237597454
619,2254.601009317156
633,687.4739417797182
659,65.85605538395845
661,108.36278696566075
690,72.01976116510845
716,79.65626555746853
843,625.4216026995509
844,625.4216026995509
907,0.0
908,0.0
971,0.0
972,0.0
1195,0.0
1197,0.0
2,1,12,22, 0,21, 0.00,60.00,Monday
7,3.9
718,19.97533762107539
719,4.972186988894109
720,17.371484888589926
619,837.2341723301989
633,263.407501869838
659,25.24614188795259
661,164.86440955463726
690,27.613916797151976
716,0.0
843,629.8118489468079
844,629.8118489468079
907,0.0
908,0.0
971,0.0
972,0.0
1195,0.0
1197,0.0
2,1,12,22, 0,22, 0.00,60.00,Monday
7,3.9
718,19.507243789411834
719,4.889252361067117
720,17.3058943969557
619,852.1554328740385
633,270.42572622847416
659,23.816650799041412
661,164.52723844533293
690,27.890808781864802
716,0.0
843,638.3092829758662
844,638.3092829758662
907,0.0
908,0.0
971,0.0
972,0.0
1195,0.0
1197,0.0
2,1,12,22, 0,23, 0.00,60.00,Monday
7,3.9
718,18.74189852536301
719,4.7414508587428985
720,17.230168159603632
619,635.888816592787
633,200.53357284906272
659,17.822380533717244
661,173.45516544943683
690,20.871384727318556
716,0.0
843,462.70416639909763
844,462.70416639909763
907,0.0
908,0.0
971,0.0
972,0.0
1195,0.0
1197,0.0
2,1,12,22, 0,24, 0.00,60.00,Monday
7,4.4
718,18.20681524832149
719,5.15887501126549
720,17.143310411463165
619,1128.7834113459792
633,342.65130525507783
659,29.33069017775137
661,154.43698691710134
690,35.86444598789475
716,0.0
843,863.1137842034577
844,863.1137842034577
907,0.0
908,0.0
971,0.0
972,0.0
1195,0.0
1197,0.0
2,2,12,23, 0, 1, 0.00,60.00,Tuesday
7,4.0
718,18.795231599702447
719,5.101272661397002
720,17.050780485104436
619,1880.0320486472401
633,557.8528857082101
659,52.454698041710486
661,124.0506422632067
690,59.71893415396555
716,0.0
843,1441.377323366276
844,1441.377323366276
907,0.0
908,0.0
971,0.0
972,0.0
1195,0.0
1197,0.0
2,2,12,23, 0, 2, 0.00,60.00,Tuesday
7,4.4
718,18.65218185173021
719,5.460958475086182
720,16.98212384547495
619,1974.0824474489077
633,588.7502574977455
659,50.29355932990645
661,121.78258313436943
690,61.56831604350335
716,0.0
843,1511.0381720871283
844,1511.0381720871283
907,0.0
908,0.0
971,0.0
972,0.0
1195,0.0
1197,0.0
2,2,12,23, 0, 3, 0.00,60.00,Tuesday
7,4.4
718,18.396147884879824
719,5.466599460304317
720,16.889037793222776
619,2361.600499190682
633,695.9890912651089
659,59.61249752003868
661,107.27316609152145
690,72.98958187793825
716,0.0
843,1806.4085672613037
844,1806.4085672613037
907,0.0
908,0.0
971,0.0
972,0.0
1195,0.0
1197,0.0
2,2,12,23, 0, 4, 0.00,60.00,Tuesday
7,5.0
718,18.68670570903715
719,5.935757874260399
720,16.807808819327477
619,2677.640423197745
633,772.2190511468569
659,55.041309628192025
661,99.1424849535537
690,79.51188117879697
716,0.0
843,2074.5154981935884
844,2074.5154981935884
907,0.0
908,0.0
971,0.0
972,0.0
1195,0.0
1197,0.0
2,2,12,23, 0, 5, 0.00,60.00,Tuesday
7,5.0
718,18.634225151288042
719,5.978384902518289
720,16.73709799433139
619,2504.4122550973893
633,729.7039156835554
659,51.728288928940735
661,105.21325320527382
690,74.72567325705256
716,0.0
843,1931.425882789621
844,1931.425882789621
907,0.0
908,0.0
971,0.0
972,0.0
1195,0.0
1197,0.0
2,2,12,23, 0, 6, 0.00,60.00,Tuesday
7,5.0
718,19.420615778398567
719,6.249426904628537
720,16.657766893148924
619,3649.5164040528343
633,1037.0751941560313
659,73.61340512553495
661,65.1232161282189
690,106.33093684961236
716,0.0
843,2830.278005102773
844,2830.278005102773
907,0.0
908,0.0
971,0.0
972,0.0
1195,0.0
1197,0.0
2,2,12,23, 0, 7, 0.00,60.00,Tuesday
7,5.6
718,19.657150506916924
719,6.923835047153304
720,16.620385662590213
619,4540.837025099629
633,1193.625115779835
659,0.0
661,68.69415997361519
690,103.8068290153896
716,85.44000000000004
843,2435.8004804845095
844,2435.8004804845095
907,0.0
908,0.0
971,0.0
972,0.0
1195,0.0
1197,0.0
2,2,12,23, 0, 8, 0.00,60.00,Tuesday
7,5.0
718,19.560362396719835
719,6.596937421369326
720,16.561909261675588
619,4748.492454097027
633,1351.0073796769375
659,93.96051485474226
661,27.65763101258303
690,135.8658951540267
716,85.44000000000004
843,2487.4029560675517
844,2487.4029560675517
907,0.0
908,0.0
971,0.0
972,0.0
1195,0.0
1197,0.0
2,2,12,23, 0, 9, 0.00,60.00,Tuesday
7,6.0
718,19.73732926110573
719,7.195981436347151
720,16.489697664638996
619,3850.0113038011214
633,1021.0556667695115
659,0.0
661,88.43617122741918
690,88.19933138823359
716,56.28262318974535
843,2261.2527927753963
844,2261.2527927753963
907,0.0
908,0.0
971,0.0
972,0.0
1195,0.0
1197,0.0
2,2,12,23, 0,10, 0.00,60.00,Tuesday
7,6.0
718,19.663110084573677
719,7.0586833601327825
720,16.426637315792586
619,2807.6931585692328
633,760.3243910024369
659,0.0
661,117.20360875534541
690,65.45657700600445
716,0.0
843,2207.976519915679
844,2207.976519915679
907,0.0
908,0.0
971,0.0
972,0.0
1195,0.0
1197,0.0
2,2,12,23, 0,11, 0.00,60.00,Tuesday
7,5.6
718,19.69175848888952
719,6.956627283189893
720,16.367843968159193
619,2780.097314447341
633,756.0299405139475
659,0.0
661,117.20899473308582
690,65.45231899836165
716,0.0
843,2185.6453449319743
844,2185.6453449319743
907,0.0
908,0.0
971,0.0
972,0.0
1195,0.0
1197,0.0
2,2,12,23, 0,12, 0.00,60.00,Tuesday
7,6.1
718,19.83759761700455
719,7.433593000762397
720,16.31753620237805
619,2607.5858340659747
633,706.6387013595341
659,0.0
661,123.0572056890101
690,60.828882336096115
716,0.0
843,2041.2447480478113
844,2041.2447480478113
907,0.0
908,0.0
971,0.0
972,0.0
1195,0.0
1197,0.0
2,2,12,23, 0,13, 0.00,60.00,Tuesday
7,6.1
718,19.728756459147387
719,7.605979161984918
720,16.267628553059648
619,2283.6296690968597
633,624.2139299448506
659,0.0
661,132.2183849609894
690,53.58630294987391
716,0.0
843,1798.7390085010265
844,1798.7390085010265
907,0.0
908,0.0
971,0.0
972,0.0
1195,0.0
1197,0.0
2,2,12,23, 0,14, 0.00,60.00,Tuesday
7,6.1
718,19.83348442923511
719,7.913897047695956
720,16.219277167792384
619,1971.3038960981585
633,540.2351376448779
659,0.0
661,141.2162122086959
690,46.47286523510815
716,0.0
843,1548.520451300048
844,1548.520451300048
907,0.0
908,0.0
971,0.0
972,0.0
1195,0.0
1197,0.0
2,2,12,23, 0,15, 0.00,60.00,Tuesday
7,6.7
718,19.67292722010917
719,8.196278953999723
720,16.180898689119946
619,1739.0544474999904
633,475.5587068274315
659,0.0
661,148.68040464202008
690,40.571877529547216
716,0.0
843,1376.5234536430708
844,1376.5234536430708
907,0.0
908,0.0
971,0.0
972,0.0
1195,0.0
1197,0.0
2,2,12,23, 0,16, 0.00,60.00,Tuesday
7,6.1
718,19.80391538295259
719,7.6568656103068475
720,16.147615877957328
619,1883.3465862319133
633,516.1608751088957
659,0.0
661,143.77228877830848
690,44.45210055808619
716,0.0
843,1487.0035963489336
844,1487.0035963489336
907,0.0
908,0.0
971,0.0
972,0.0
1195,0.0
1197,0.0
2,2,12,23, 0,17, 0.00,60.00,Tuesday
7,6.1
718,19.736430069746348
719,7.288300960202162
720,16.11569110656082
619,1677.6246707181256
633,462.7343455009972
659,0.0
661,149.7163233773227
690,39.75290832750874
716,0.0
843,1324.4216289409142
844,1324.4216289409142
907,0.0
908,0.0
971,0.0
972,0.0
1195,0.0
1197,0.0
2,2,12,23, 0,18, 0.00,60.00,Tuesday
7,5.6
718,19.49171464853523
719,6.899014141028503
720,16.09253120641208
619,2668.626636833277
633,728.0352000173883
659,0.0
661,120.36337359218376
690,62.958552789559796
716,64.43030731854776
843,1252.1551522386017
844,1252.1551522386017
907,0.0
908,0.0
971,0.0
972,0.0
1195,0.0
1197,0.0
2,2,12,23, 0,19, 0.00,60.00,Tuesday
7,5.6
718,19.71353211398949
719,6.611695459989812
720,16.041521277645668
619,1783.8121567400547
633,491.056567479068
659,0.0
661,146.039367483141
690,42.65980973972126
716,0.0
843,1400.786370829117
844,1400.786370829117
907,0.0
908,0.0
971,0.0
972,0.0
1195,0.0
1197,0.0
2,2,12,23, 0,20, 0.00,60.00,Tuesday
7,5.6
718,19.804532642799575
719,6.817320140695591
720,16.03072363315968
619,3115.984135660801
633,843.3219201764899
659,0.0
661,107.7023705105934
690,72.96799777532641
716,85.44000000000004
843,1231.38835048066
844,1231.38835048066
907,0.0
908,0.0
971,0.0
972,0.0
1195,0.0
1197,0.0
2,2,12,23, 0,21, 0.00,60.00,Tuesday
7,5.0
718,19.669107696200033
719,6.461494154520278
720,15.997395157538993
619,3042.618998435679
633,899.5415070278974
659,49.037930167162216
661,87.84976784487755
690,88.466697020083
716,85.44000000000004
843,1171.2976050126672
844,1171.2976050126672
907,0.0
908,0.0
971,0.0
972,0.0
1195,0.0
1197,0.0
2,2,12,23, 0,22, 0.00,60.00,Tuesday
7,5.0
718,19.687128891556753
719,6.135768670123396
720,15.938233006539475
619,2168.6281791418446
633,650.7068132331001
659,35.558576644649776
661,118.66968872690941
690,64.15532872993822
716,14.829698297406045
843,1478.3400360413689
844,1478.3400360413689
907,0.0
908,0.0
971,0.0
972,0.0
1195,0.0
1197,0.0
2,2,12,23, 0,23, 0.00,60.00,Tuesday
7,5.0
718,18.77939973153576
719,5.844969662372758
720,15.879393198349737
619,1133.678870763844
633,347.7681558664301
659,18.996059299053805
661,156.5518206425006
690,34.27297359075954
716,0.0
843,850.9561288943005
844,850.9561288943005
907,0.0
908,0.0
971,0.0
972,0.0
1195,0.0
1197,0.0
2,2,12,23, 0,24, 0.00,60.00,Tuesday
7,5.0
718,18.732836815916492
719,5.890797545172778
720,15.826618478780842
619,1545.529325866516
633,460.0911788799007
659,29.091177757272163
661,140.9017710398829
690,46.604400729575914
716,0.0
843,1191.5541800510164
844,1191.5541800510164
907,0.0
908,0.0
971,0.0
972,0.0
1195,0.0
1197,0.0
2,3,12,24, 0, 1, 0.00,60.00,Wednesday
7,5.0
718,18.645853688087293
719,5.915169960192142
720,15.777620188691298
619,1975.1643409458002
633,582.0973330118651
659,32.40118716535006
661,125.92547887641751
690,58.43226265790863
716,0.0
843,1513.916836976723
844,1513.916836976723
907,0.0
908,0.0
971,0.0
972,0.0
1195,0.0
1197,0.0
2,3,12,24, 0, 2, 0.00,60.00,Wednesday
7,6.0
718,18.673522785548165
719,6.661285860664284
720,15.72092686125576
619,2120.8265839398773
633,565.9865876035852
659,0.0
661,137.0525988173489
690,49.76450484013178
716,0.0
843,1671.3461618374822
844,1671.3461618374822
907,0.0
908,0.0
971,0.0
972,0.0
1195,0.0
1197,0.0
2,3,12,24, 0, 3, 0.00,60.00,Wednesday
7,5.6
718,18.54091095766932
719,6.509822380621704
720,15.666497709669697
619,2303.2170754952404
633,616.5471641178303
659,0.0
661,131.16871484651585
690,54.41614361860443
716,0.0
843,1814.1515647272026
844,1814.1515647272026
907,0.0
908,0.0
971,0.0
972,0.0
1195,0.0
1197,0.0
2,3,12,24, 0, 4, 0.00,60.00,Wednesday
7,5.6
718,18.796737087610055
719,6.55245351812634
720,15.61387472214241
619,2408.201814467507
633,641.5464001302145
659,0.0
661,128.19585638598517
690,56.766404732940636
716,0.0
843,1908.3946456290814
844,1908.3946456290814
907,0.0
908,0.0
971,0.0
972,0.0
1195,0.0
1197,0.0
2,3,12,24, 0, 5, 0.00,60.00,Wednesday
7,5.6
718,18.647823516387607
719,6.4858876124511715
720,15.564226099459088
619,2101.947409755702
633,566.0920871493636
659,0.0
661,136.94336781312174
690,49.85085990382665
716,0.0
843,1651.2214681426449
844,1651.2214681426449
907,0.0
908,0.0
971,0.0
972,0.0
1195,0.0
1197,0.0
2,3,12,24, 0, 6, 0.00,60.00,Wednesday
7,5.6
718,19.149045434779286
719,6.8762848009770785
720,15.532312333940887
619,4326.42149473862
633,1119.7367806085906
659,0.0
661,74.88920794834225
690,98.90919243101983
716,65.81665351892325
843,2647.6301625467604
844,2647.6301625467604
907,0.0
908,0.0
971,0.0
972,0.0
1195,0.0
1197,0.0
2,3,12,24, 0, 7, 0.00,60.00,Wednesday
7,5.6
718,19.483959293269677
719,6.904871321048692
720,15.50973382078291
619,4969.633110252597
633,1287.682924573244
659,0.0
661,57.459658198328434
690,112.68852083218877
716,85.44000000000004
843,2811.972043258731
844,2811.972043258731
907,0.0
908,0.0
971,0.0
972,0.0
1195,0.0
1197,0.0
2,3,12,24, 0, 8, 0.00,60.00,Wednesday
7,5.3
718,19.586963409105493
719,7.042440723812931
720,15.465417989326475
619,4466.249563894261
633,1180.2359467847295
659,0.0
661,69.7754396996843
690,102.95199864669229
716,41.21734906658101
843,2941.2717586597264
844,2941.2717586597264
907,0.0
908,0.0
971,0.0
972,0.0
1195,0.0
1197,0.0
2,3,12,24, 0, 9, 0.00,60.00,Wednesday
7,5.0
718,19.67182319957637
719,6.4005947475712555
720,15.43851507829871
619,3927.1748917791633
633,1132.6918222829597
659,79.11966101884617
661,55.13919297826848
690,114.20037978278263
716,0.0
843,3004.1616189737415
844,3004.1616189737415
907,0.0
908,0.0
971,0.0
972,0.0
1195,0.0
1197,0.0
2,3,12,24, 0,10, 0.00,60.00,Wednesday
7,5.6
718,19.883576632056656
719,6.835641528737034
720,15.374029779886168
619,3206.034014065074
633,864.9765328889788
659,0.0
661,105.20288169238779
690,74.94402571380355
716,0.0
843,2490.184165601213
844,2490.184165601213
907,0.0
908,0.0
971,0.0
972,0.0
1195,0.0
1197,0.0
2,3,12,24, 0,11, 0.00,60.00,Wednesday
7,5.6
718,19.75373695456119
719,6.8875976083061135
720,15.33489991872045
619,2770.9880960792866
633,756.6241863363048
659,0.0
661,117.40885681173614
690,65.29431347003978
716,0.0
843,2160.2080881298516
844,2160.2080881298516
907,0.0
908,0.0
971,0.0
972,0.0
1195,0.0
1197,0.0
2,3,12,24, 0,12, 0.00,60.00,Wednesday
7,6.1
718,19.802417212381574
719,7.326786942583989
720,15.29117327911507
619,2581.8831132835935
633,700.1433177496514
659,0.0
661,123.78029610625505
690,60.25722670150643
716,0.0
843,2011.1335299942348
844,2011.1335299942348
907,0.0
908,0.0
971,0.0
972,0.0
1195,0.0
1197,0.0
2,3,12,24, 0,13, 0.00,60.00,Wednesday
7,5.6
718,19.683438582246794
719,7.116913596336102
720,15.251474228894473
619,2347.239247766748
633,644.1512552193358
659,0.0
661,129.5746934807699
690,55.67633359437107
716,0.0
843,1839.0981021651205
844,1839.0981021651205
907,0.0
908,0.0
971,0.0
972,0.0
1195,0.0
1197,0.0
2,3,12,24, 0,14, 0.00,60.00,Wednesday
7,6.1
718,19.78663348786495
719,7.691289497085757
720,15.218913424257797
619,2304.1697648309905
633,626.6073074875488
659,0.0
661,131.69165323098832
690,54.00272274218636
716,0.0
843,1798.2728614071311
844,1798.2728614071311
907,0.0
908,0.0
971,0.0
972,0.0
1195,0.0
1197,0.0
2,3,12,24, 0,15, 0.00,60.00,Wednesday
7,6.1
718,19.72427135224682
719,8.039714901771438
720,15.210931238925577
619,3072.9649085077162
633,827.1853635889165
659,0.0
661,109.99152063777298
690,71.15825789022354
716,62.72726941286294
843,1603.9530384416612
844,1603.9530384416612
907,0.0
908,0.0
971,0.0
972,0.0
1195,0.0
1197,0.0
2,3,12,24, 0,16, 0.00,60.00,Wednesday
7,6.1
718,19.695635937748964
719,7.782416144482073
720,15.185480598406066
619,3133.458011319074
633,841.4141718393546
659,0.0
661,108.33334264721482
690,72.46916835017234
716,67.43455478274763
843,1592.1397927639446
844,1592.1397927639446
907,0.0
908,0.0
971,0.0
972,0.0
1195,0.0
1197,0.0
2,3,12,24, 0,17, 0.00,60.00,Wednesday
7,6.1
718,19.741256609921614
719,7.310992669206675
720,15.14081258036016
619,1975.786488850212
633,540.3236732421143
659,0.0
661,141.1089149394153
690,46.557691540501665
716,0.0
843,1555.6985419617777
844,1555.6985419617777
907,0.0
908,0.0
971,0.0
972,0.0
1195,0.0
1197,0.0
2,3,12,24, 0,18, 0.00,60.00,Wednesday
7,5.6
718,19.798905295325593
719,6.766453342544963
720,15.118434463447144
619,1702.7761926800767
633,471.6039817442891
659,0.0
661,148.37605581442133
690,40.812487442261165
716,0.0
843,1335.2532934312458
844,1335.2532934312458
907,0.0
908,0.0
971,0.0
972,0.0
1195,0.0
1197,0.0
2,3,12,24, 0,19, 0.00,60.00,Wednesday
7,5.6
718,20.08432802992265
719,6.731938461034128
720,15.087394706284224
619,1189.7276855332977
633,332.8240550892626
659,0.0
661,163.60955005547197
690,28.769300850789595
716,0.0
843,917.2545859618876
844,917.2545859618876
907,0.0
908,0.0
971,0.0
972,0.0
1195,0.0
1197,0.0
2,3,12,24, 0,20, 0.00,60.00,Wednesday
7,6.1
718,19.873789821862015
719,7.131607667474038
720,15.092886763261344
619,2069.2655121160687
633,570.0843391893197
659,0.0
661,138.3159014275808
690,48.76577212551157
716,85.44000000000004
843,395.9302795239946
844,395.9302795239946
907,0.0
908,0.0
971,0.0
972,0.0
1195,0.0
1197,0.0
2,3,12,24, 0,21, 0.00,60.00,Wednesday
7,5.6
718,19.768240458190757
719,6.9461369884372814
720,15.052256586523333
619,1659.2833336454303
633,461.3074850742227
659,0.0
661,149.62943884146364
690,39.82159688055552
716,66.72481181384919
843,370.79980067295037
844,370.79980067295037
907,0.0
908,0.0
971,0.0
972,0.0
1195,0.0
1197,0.0
2,3,12,24, 0,22, 0.00,60.00,Wednesday
7,5.6
718,19.710698303978333
719,6.325543531520779
720,15.005271151557944
619,659.311892383945
633,185.96670957182673
659,0.0
661,179.6546981679666
690,16.084442764465
716,0.0
843,514.0610646302739
844,514.0610646302739
907,0.0
908,0.0
971,0.0
972,0.0
1195,0.0
1197,0.0
2,3,12,24, 0,23, 0.00,60.00,Wednesday
7,5.6
718,18.66465048944078
719,6.024430235369101
720,14.964120732282057
619,0.0
633,0.0
659,0.0
661,200.0
690,0.0
716,0.0
843,-25.899252332617834
844,-25.899252332617834
907,0.0
908,0.0
971,0.0
972,0.0
1195,0.0
1197,0.0
2,3,12,24, 0,24, 0.00,60.00,Wednesday
7,6.1
718,18.621673382624778
719,6.228384273286011
720,14.941338639780723
619,353.6546819775687
633,97.02169623570038
659,0.0
661,189.21903492795337
690,8.523138023639685
716,0.0
843,264.84630221892075
844,264.84630221892075
907,0.0
908,0.0
971,0.0
972,0.0
1195,0.0
1197,0.0
2,4,12,25, 0, 1, 0.00,60.00,Thursday
7,5.6
718,18.5691118175696
719,6.143580268827264
720,14.912374317031361
619,753.2267516107346
633,206.52050588225742
659,0.0
661,176.90941018226724
690,18.25479284540758
716,0.0
843,595.0456526644575
844,595.0456526644575
907,0.0
908,0.0
971,0.0
972,0.0
1195,0.0
1197,0.0
2,4,12,25, 0, 2, 0.00,60.00,Thursday
7,5.6
718,18.576156609340924
719,6.184072282452936
720,14.880920513621273
619,1142.5927930509752
633,310.8307634878398
659,0.0
661,165.20998778548886
690,27.50403827178885
716,0.0
843,889.9142023653458
844,889.9142023653458
907,0.0
908,0.0
971,0.0
972,0.0
1195,0.0
1197,0.0
2,4,12,25, 0, 3, 0.00,60.00,Thursday
7,5.6
718,18.56608701195361
719,6.25212342618918
720,14.847225534530525
619,1394.5893684438693
633,377.82395392631713
659,0.0
661,157.71485231232526
690,33.42948870379961
716,0.0
843,1100.4425970638604
844,1100.4425970638604
907,0.0
908,0.0
971,0.0
972,0.0
1195,0.0
1197,0.0
2,4,12,25, 0, 4, 0.00,60.00,Thursday
7,6.1
718,18.69605640292132
719,6.535169899611536
720,14.814122722746243
619,1545.668198699139
633,414.67915425159975
659,0.0
661,153.82593411987577
690,36.503961749151756
716,0.0
843,1210.6904127510934
844,1210.6904127510934
907,0.0
908,0.0
971,0.0
972,0.0
1195,0.0
1197,0.0
2,4,12,25, 0, 5, 0.00,60.00,Thursday
7,6.1
718,18.619614134575023
719,6.527516963543323
720,14.777148274035243
619,1384.2581479516725
633,373.46268600789665
659,0.0
661,158.51525956437155
690,32.796708480626336
716,0.0
843,1093.9724804967245
844,1093.9724804967245
907,0.0
908,0.0
971,0.0
972,0.0
1195,0.0
1197,0.0
2,4,12,25, 0, 6, 0.00,60.00,Thursday
7,5.0
718,19.424397853973684
719,6.835856878739582
720,14.774584571615174
619,2544.1691508879458
633,737.0101590604185
659,77.68427939646372
661,99.58566996965273
690,79.05553606017583
716,0.0
843,1953.4029470982496
844,1953.4029470982496
907,0.0
908,0.0
971,0.0
972,0.0
1195,0.0
1197,0.0
2,4,12,25, 0, 7, 0.00,60.00,Thursday
7,5.0
718,19.55731175904137
719,7.134698243370412
720,14.80397229119836
619,3973.7928185868714
633,1137.1356633070877
659,118.10216323243306
661,47.381688669487
690,120.15347353724066
716,85.44000000000004
843,1840.7745487644333
844,1840.7745487644333
907,0.0
908,0.0
971,0.0
972,0.0
1195,0.0
1197,0.0
2,4,12,25, 0, 8, 0.00,60.00,Thursday
7,4.4
718,19.6439332479096
719,6.949947319415597
720,14.76892354095214
619,3829.6400165218083
633,1113.2298383775892
659,111.29758307698064
661,50.89670331798808
690,117.26992037222567
716,85.44000000000004
843,1724.3898164139027
844,1724.3898164139027
907,0.0
908,0.0
971,0.0
972,0.0
1195,0.0
1197,0.0
2,4,12,25, 0, 9, 0.00,60.00,Thursday
7,6.7
718,19.735163860760032
719,7.201047016959046
720,14.692636980916834
619,2428.0165045685562
633,652.6563636910865
659,0.0
661,129.21960256737046
690,55.95705882125181
716,33.136754965136284
843,1464.2935179774468
844,1464.2935179774468
907,0.0
908,0.0
971,0.0
972,0.0
1195,0.0
1197,0.0
2,4,12,25, 0,10, 0.00,60.00,Thursday
7,7.2
718,19.63848797921248
719,7.74947310777693
720,14.661092295764705
619,1783.121155836634
633,482.0553585988378
659,0.0
661,148.09125374737047
690,41.03764421725026
716,0.0
843,1390.4306172297474
844,1390.4306172297474
907,0.0
908,0.0
971,0.0
972,0.0
1195,0.0
1197,0.0
2,4,12,25, 0,11, 0.00,60.00,Thursday
7,7.2
718,19.722023974201264
719,8.74179710079247
720,14.627020390433458
619,1298.8124409423451
633,353.09978680953566
659,0.0
661,161.9098804504407
690,30.11301345364625
716,0.0
843,1025.1340995725222
844,1025.1340995725222
907,0.0
908,0.0
971,0.0
972,0.0
1195,0.0
1197,0.0
2,4,12,25, 0,12, 0.00,60.00,Thursday
7,8.3
718,19.93041514414529
719,10.316807861986803
720,14.614244180230392
619,1096.9433876069825
633,295.44713674423514
659,0.0
661,168.56779288762803
690,24.849448803150445
716,0.0
843,864.1511780877336
844,864.1511780877336
907,0.0
908,0.0
971,0.0
972,0.0
1195,0.0
1197,0.0
2,4,12,25, 0,13, 0.00,60.00,Thursday
7,7.8
718,19.478287695986786
719,9.957451609295353
720,14.607270542595463
619,953.2646604644872
633,260.2285588428371
659,0.0
661,172.26341849664615
690,21.927787621719734
716,0.0
843,764.9815928130865
844,764.9815928130865
907,0.0
908,0.0
971,0.0
972,0.0
1195,0.0
1197,0.0
2,4,12,25, 0,14, 0.00,60.00,Thursday
7,7.8
718,19.739467816632526
719,9.57370518241187
720,14.616456108382216
619,1338.4810211533768
633,359.4506013980298
659,0.0
661,161.36649757406002
690,30.54259718980763
716,0.0
843,1070.1198032406046
844,1070.1198032406046
907,0.0
908,0.0
971,0.0
972,0.0
1195,0.0
1197,0.0
2,4,12,25, 0,15, 0.00,60.00,Thursday
7,7.2
718,19.641426019445237
719,8.920497096651097
720,14.61545925019637
619,1208.3810776068128
633,329.7340725806664
659,0.0
661,164.49545722488887
690,28.068926716320888
716,0.0
843,966.4408158130955
844,966.4408158130955
907,0.0
908,0.0
971,0.0
972,0.0
1195,0.0
1197,0.0
2,4,12,25, 0,16, 0.00,60.00,Thursday
7,7.2
718,19.916583857987515
719,9.496819429040979
720,14.603845032048532
619,674.1085027190434
633,185.14852137310453
659,0.0
661,180.0289154587988
690,15.788596743326764
716,0.0