Program Version,EnergyPlus, Version 22.2.0-c249759bad, YMD=2023.09.01 20:18
1,5,Environment Title[],Latitude[deg],Longitude[deg],Time Zone[],Elevation[m]
2,8,Day of Simulation[],Month[],Day of Month[],DST Indicator[1=yes 0=no],Hour[],StartMinute[],EndMinute[],DayType
3,5,Cumulative Day of Simulation[],Month[],Day of Month[],DST Indicator[1=yes 0=no],DayType  ! When Daily Report Variables Requested
4,2,Cumulative Days of Simulation[],Month[]  ! When Monthly Report Variables Requested
5,1,Cumulative Days of Simulation[] ! When Run Period Report Variables Requested
6,1,Calendar Year of Simulation[] ! When Annual Report Variables Requested
581,11,LIVING,AFN Zone Infiltration Air Change Rate [ach] !RunPeriod [Value,Min,Month,Day,Hour,Minute,Max,Month,Day,Hour,Minute]
582,11,ATTIC,AFN Zone Infiltration Air Change Rate [ach] !RunPeriod [Value,Min,Month,Day,Hour,Minute,Max,Month,Day,Hour,Minute]
583,11,CRAWLSPACE,AFN Zone Infiltration Air Change Rate [ach] !RunPeriod [Value,Min,Month,Day,Hour,Minute,Max,Month,Day,Hour,Minute]
1038,11,Facility,Facility Heating Setpoint Not Met Time [hr] !RunPeriod [Value,Min,Month,Day,Hour,Minute,Max,Month,Day,Hour,Minute]
1039,11,Facility,Facility Cooling Setpoint Not Met Time [hr] !RunPeriod [Value,Min,Month,Day,Hour,Minute,Max,Month,Day,Hour,Minute]
1115,11,DX_HEATING_COIL,Heating Coil Heating Energy [J] !RunPeriod [Value,Min,Month,Day,Hour,Minute,Max,Month,Day,Hour,Minute]
1128,11,DX_HEATING_COIL,Heating Coil Electricity Energy [J] !RunPeriod [Value,Min,Month,Day,Hour,Minute,Max,Month,Day,Hour,Minute]
1153,11,DX_HEATING_COIL,Heating Coil Defrost Electricity Energy [J] !RunPeriod [Value,Min,Month,Day,Hour,Minute,Max,Month,Day,Hour,Minute]
1154,11,DX_HEATING_COIL,Heating Coil Crankcase Heater Electricity Energy [J] !RunPeriod [Value,Min,Month,Day,Hour,Minute,Max,Month,Day,Hour,Minute]
1155,11,HEATING_RESISTANCE_BACKUP,Heating Coil Heating Energy [J] !RunPeriod [Value,Min,Month,Day,Hour,Minute,Max,Month,Day,Hour,Minute]
1156,11,HEATING_RESISTANCE_BACKUP,Heating Coil Electricity Energy [J] !RunPeriod [Value,Min,Month,Day,Hour,Minute,Max,Month,Day,Hour,Minute]
1292,11,WATER HEATER,Water Heater Heat Loss Energy [J] !RunPeriod [Value,Min,Month,Day,Hour,Minute,Max,Month,Day,Hour,Minute]
1306,11,WATER HEATER,Water Heater Heating Energy [J] !RunPeriod [Value,Min,Month,Day,Hour,Minute,Max,Month,Day,Hour,Minute]
1307,11,WATER HEATER,Water Heater Unmet Demand Heat Transfer Energy [J] !RunPeriod [Value,Min,Month,Day,Hour,Minute,Max,Month,Day,Hour,Minute]
1308,11,WATER HEATER,Water Heater Electricity Energy [J] !RunPeriod [Value,Min,Month,Day,Hour,Minute,Max,Month,Day,Hour,Minute]
13,11,Electricity:Facility [J] !RunPeriod [Value,Min,Month,Day,Hour,Minute,Max,Month,Day,Hour,Minute]
1134,11,Heating:Electricity [J] !RunPeriod [Value,Min,Month,Day,Hour,Minute,Max,Month,Day,Hour,Minute]
1096,11,Cooling:Electricity [J] !RunPeriod [Value,Min,Month,Day,Hour,Minute,Max,Month,Day,Hour,Minute]
562,11,Fans:Electricity [J] !RunPeriod [Value,Min,Month,Day,Hour,Minute,Max,Month,Day,Hour,Minute]
1379,11,Pumps:Electricity [J] !RunPeriod [Value,Min,Month,Day,Hour,Minute,Max,Month,Day,Hour,Minute]
1326,11,WaterSystems:Electricity [J] !RunPeriod [Value,Min,Month,Day,Hour,Minute,Max,Month,Day,Hour,Minute]
61,11,InteriorLights:Electricity [J] !RunPeriod [Value,Min,Month,Day,Hour,Minute,Max,Month,Day,Hour,Minute]
1046,11,ExteriorLights:Electricity [J] !RunPeriod [Value,Min,Month,Day,Hour,Minute,Max,Month,Day,Hour,Minute]
134,11,InteriorEquipment:Electricity [J] !RunPeriod [Value,Min,Month,Day,Hour,Minute,Max,Month,Day,Hour,Minute]
170,11,gas_dryer:InteriorEquipment:Electricity [J] !RunPeriod [Value,Min,Month,Day,Hour,Minute,Max,Month,Day,Hour,Minute]
207,11,clotheswasher:InteriorEquipment:Electricity [J] !RunPeriod [Value,Min,Month,Day,Hour,Minute,Max,Month,Day,Hour,Minute]
244,11,dishwasher:InteriorEquipment:Electricity [J] !RunPeriod [Value,Min,Month,Day,Hour,Minute,Max,Month,Day,Hour,Minute]
281,11,refrigerator:InteriorEquipment:Electricity [J] !RunPeriod [Value,Min,Month,Day,Hour,Minute,Max,Month,Day,Hour,Minute]
318,11,electric_mels:InteriorEquipment:Electricity [J] !RunPeriod [Value,Min,Month,Day,Hour,Minute,Max,Month,Day,Hour,Minute]
355,11,NaturalGas:Facility [J] !RunPeriod [Value,Min,Month,Day,Hour,Minute,Max,Month,Day,Hour,Minute]
403,11,InteriorEquipment:NaturalGas [J] !RunPeriod [Value,Min,Month,Day,Hour,Minute,Max,Month,Day,Hour,Minute]
476,11,gas_dryer:InteriorEquipment:NaturalGas [J] !RunPeriod [Value,Min,Month,Day,Hour,Minute,Max,Month,Day,Hour,Minute]
513,11,gas_mels:InteriorEquipment:NaturalGas [J] !RunPeriod [Value,Min,Month,Day,Hour,Minute,Max,Month,Day,Hour,Minute]
End of Data Dictionary
1,EXTREME_WINTER,  35.87, -78.78,  -5.00, 126.80
5,7
1038,0.5,0.0, 1,20, 1,15,0.25, 1,23, 6,15
1039,0.0,0.0, 1,20, 1,15,0.0, 1,20, 1,15
581,0.2537728358374684,0.1609297713039488, 1,22,23,22,0.4923213143210444, 1,25,22,60
582,2.1242351294677446,0.0, 1,20,20,37,8.38066504031454, 1,25,22,60
583,0.02370421322610683,0.00030076250721331594, 1,23,16,60,0.06801342178899657, 1,26, 6,60
1115,875239237.1990423,0.0, 1,20,12,18,3816103.92195148, 1,26, 4,45
1128,273638639.39656705,0.0, 1,20,12,18,1209739.21187677, 1,26, 4,45
1153,12547552.718186032,0.0, 1,20,12, 5,99397.4017728655, 1,22, 6,45
1154,79792881.30357766,0.0, 1,20, 6, 5,180000.0, 1,20,15,15
1155,20118795.529431306,0.0, 1,20, 1,15,1461610.192109483, 1,26, 6,45
1156,20118795.529431306,0.0, 1,20, 1,15,1461610.192109483, 1,26, 6,45
1292,-24894098.128692415,-39719.035990587596, 1,25, 5,30,-5431.314731687627, 1,23,18,17
1306,116192821.58360447,0.0, 1,20, 1,15,4050000.0, 1,20, 7,15
1307,19570287.04551022,0.0, 1,20, 1,15,6128450.02692737, 1,20, 6,60
1308,116192821.58360447,0.0, 1,20, 1,15,4050000.0, 1,20, 7,15
13,905356985.5022126,361657.4530517878, 1,24, 1,15,5794109.049807926, 1,20, 7,15
61,301924526.02383536,88139.10953165221, 1,20, 1,15,1282023.4113694867, 1,20,20,15
134,70666020.44019976,63564.01800854099, 1,20, 4,15,156554.22484006523, 1,25,20,15
170,5241013.419656067,348.4159749238097, 1,20, 4,15,17476.39704006126, 1,25,12,15
207,6509451.13922267,815.2532113832032, 1,20, 3,15,22990.642799023623, 1,25,10,15
244,12749673.399825225,1521.856143006317, 1,20, 4,15,53038.631142310165, 1,25,20,15
281,46165882.481495745,59938.60262432081, 1,20, 5,15,81951.81706819107, 1,20,19,15
318,0.0,0.0, 1,20, 1,15,0.0, 1,20, 1,15
355,197687796.27748066,18561.32405820678, 1,20, 4,15,724774.895203776, 1,25,18,15
403,197687796.27748066,18561.32405820678, 1,20, 4,15,724774.895203776, 1,25,18,15
476,106772067.24485716,7098.072629279515, 1,20, 4,15,356036.3026282215, 1,25,12,15
513,0.0,0.0, 1,20, 1,15,0.0, 1,20, 1,15
562,29328365.42659038,0.0, 1,20,12,30,128885.75499912331, 1,23, 6,15
1046,0.0,0.0, 1,20, 1,15,0.0, 1,20, 1,15
1096,1147383.0802214085,0.0, 1,20, 1,15,138462.90209195, 1,20,17,30
1134,386097868.9477624,148631.72106649505, 1,20,17,30,3281152.7014863594, 1,26, 6,15
1326,116192821.58360444,0.0, 1,20, 1,15,4050000.0, 1,20, 7,15
1379,0.0,0.0, 1,20, 1,15,0.0, 1,20, 1,15
1,EXTREME_SUMMER,  35.87, -78.78,  -5.00, 126.80
5,7
1038,0.0,0.0, 8,17, 1,15,0.0, 8,17, 1,15
1039,61.75,0.0, 8,17, 1,15,0.25, 8,17,12,30
581,0.08937848798612166,0.0, 8,17, 6,60,0.37894128164063184, 8,22,22,60
582,2.486806518394325,0.09311749762206854, 8,20, 8,48,8.176829606308088, 8,22,22,60
583,0.041758754532538786,0.0, 8,19,23, 3,0.0679428591721322, 8,22,22,60
1115,0.0,0.0, 8,17, 1,15,0.0, 8,17, 1,15
1128,0.0,0.0, 8,17, 1,15,0.0, 8,17, 1,15
1153,0.0,0.0, 8,17, 1,15,0.0, 8,17, 1,15
1154,0.0,0.0, 8,17, 1,15,0.0, 8,17, 1,15
1155,0.0,0.0, 8,17, 1,15,0.0, 8,17, 1,15
1156,0.0,0.0, 8,17, 1,15,0.0, 8,17, 1,15
1292,-21658505.989553373,-34313.07396748014, 8,22, 6,60,-2764.5512198220135, 8,23,15,49
1306,86981967.56090197,0.0, 8,17, 1,15,4050000.0, 8,17, 7,15
1307,7614715.858396756,0.0, 8,17, 1,15,3841009.183768404, 8,17, 6,60
1308,86981967.56090197,0.0, 8,17, 1,15,4050000.0, 8,17, 7,15
13,1069630223.7392255,229759.42972556036, 8,17, 4,60,6441241.675916058, 8,17,19,30
61,301924526.02383536,88139.10953165221, 8,17, 1,15,1282023.4113694867, 8,17,20,15
134,70666020.44019976,63564.01800854099, 8,17, 4,15,156554.22484006523, 8,22,20,15
170,5241013.419656067,348.4159749238097, 8,17, 4,15,17476.39704006126, 8,22,12,15
207,6509451.13922267,815.2532113832032, 8,17, 3,15,22990.642799023623, 8,22,10,15
244,12749673.399825225,1521.856143006317, 8,17, 4,15,53038.631142310165, 8,22,20,15
281,46165882.481495745,59938.60262432081, 8,17, 5,15,81951.81706819107, 8,17,19,15
318,0.0,0.0, 8,17, 1,15,0.0, 8,17, 1,15
355,197687796.27748066,18561.32405820678, 8,17, 4,15,724774.895203776, 8,22,18,15
403,197687796.27748066,18561.32405820678, 8,17, 4,15,724774.895203776, 8,22,18,15
476,106772067.24485716,7098.072629279515, 8,17, 4,15,356036.3026282215, 8,22,12,15
513,0.0,0.0, 8,17, 1,15,0.0, 8,17, 1,15
562,57124478.84092854,8030.115120285926, 8,17, 4,60,128885.75499912335, 8,23,15,60
1046,0.0,0.0, 8,17, 1,15,0.0, 8,17, 1,15
1096,552933230.8733605,68913.36990493025, 8,20, 5,60,1421773.5359441696, 8,18,15,60
1134,0.0,0.0, 8,17, 1,15,0.0, 8,17, 1,15
1326,86981967.56090197,0.0, 8,17, 1,15,4050000.0, 8,17, 7,15
1379,0.0,0.0, 8,17, 1,15,0.0, 8,17, 1,15
1,ANNUAL,  35.87, -78.78,  -5.00, 126.80
5,365
1038,5.0,0.0, 1, 1, 1,15,0.25, 1,11, 6,15
1039,847.25,0.0, 1, 1, 1,15,0.25, 2,28,13,15
581,0.1846425525781014,0.0, 5,29,23, 3,1.1330714194419287,11,16,11,60
582,2.939060056619504,0.0, 1, 2, 7,52,26.97732373461931,11,16,11,60
583,0.024518804069672502,0.0, 5,29,23, 3,0.0735208040607934,11,22, 6, 5
1115,7848482359.467686,0.0, 1, 1, 1, 7,4052630.282585794, 1,18, 6,60
1128,2402668068.3422456,0.0, 1, 1, 1, 7,1260141.9625194585, 3,10, 6,45
1153,95805483.7463469,0.0, 1, 1, 1, 7,121521.87287408508, 1,19, 6,45
1154,1244890059.616567,0.0, 1, 1, 1, 7,180000.0, 1, 1,24,45
1155,206380220.09919184,0.0, 1, 1, 1, 7,2255636.7074743556, 1,29, 6,45
1156,206380220.09919184,0.0, 1, 1, 1, 7,2255636.7074743556, 1,29, 6,45
1292,-1193668078.1584446,-39796.595128658846, 2,26, 4,15,-2266.1366895294614, 7,19,13,50
1306,5332503668.886121,0.0, 1, 1, 1, 7,4050000.0, 1, 2, 7,15
1307,687713318.1493921,0.0, 1, 1, 1, 7,6158472.541707119, 1,30, 6,60
1308,5332503668.886121,0.0, 1, 1, 1, 7,4050000.0, 1, 2, 7,15
13,42316157111.2343,151703.1275401932, 1, 5, 4,15,7206636.093263366, 2,13, 7,15
61,15743207428.383959,88139.10953165221, 1, 1, 1,15,1282023.4113694867, 1, 1,20,15
134,3685071073.4325233,63564.01800854099, 1, 2, 4,15,156554.22484006523, 1, 1,20,15
170,273393721.45532674,348.4159749238097, 1, 2, 4,15,17476.39704006126, 1, 1,12,15
207,339560869.0695816,815.2532113832032, 1, 2, 3,15,22990.642799023623, 1, 1,10,15
244,664895467.8009144,1521.856143006317, 1, 2, 4,15,53038.631142310165, 1, 1,20,15
281,2407221015.106824,59938.60262432081, 1, 1, 5,15,81951.81706819107, 1, 1,19,15
318,0.0,0.0, 1, 1, 1,15,0.0, 1, 1, 1,15
355,10310294493.051695,18561.32405820678, 1, 2, 4,15,724774.895203776, 1, 1,18,15
403,10310294493.051695,18561.32405820678, 1, 2, 4,15,724774.895203776, 1, 1,18,15
476,5569688622.066177,7098.072629279515, 1, 2, 4,15,356036.3026282215, 1, 1,12,15
513,0.0,0.0, 1, 1, 1,15,0.0, 1, 1, 1,15
562,1609338025.4903395,0.0, 1, 1, 1,15,128885.75499912335, 8,23,15,60
1046,0.0,0.0, 1, 1, 1,15,0.0, 1, 1, 1,15
1096,11996293083.235218,0.0, 1, 1, 1,15,1424618.3553983553, 8,18,15,60
1134,3949743831.804344,0.0, 1, 1, 1,15,4165595.2105596717, 1,29, 6,15
1326,5332503668.886123,0.0, 1, 1, 1,15,4050000.0, 1, 2, 7,15
1379,0.0,0.0, 1, 1, 1,15,0.0, 1, 1, 1,15
End of Data
 Number of Records Written=          99
