Program Version,EnergyPlus, Version 22.2.0-c249759bad, YMD=2023.09.01 20:39
1,5,Environment Title[],Latitude[deg],Longitude[deg],Time Zone[],Elevation[m]
2,8,Day of Simulation[],Month[],Day of Month[],DST Indicator[1=yes 0=no],Hour[],StartMinute[],EndMinute[],DayType
3,5,Cumulative Day of Simulation[],Month[],Day of Month[],DST Indicator[1=yes 0=no],DayType  ! When Daily Report Variables Requested
4,2,Cumulative Days of Simulation[],Month[]  ! When Monthly Report Variables Requested
5,1,Cumulative Days of Simulation[] ! When Run Period Report Variables Requested
6,1,Calendar Year of Simulation[] ! When Annual Report Variables Requested
581,11,LIVING,AFN Zone Infiltration Air Change Rate [ach] !RunPeriod [Value,Min,Month,Day,Hour,Minute,Max,Month,Day,Hour,Minute]
582,11,ATTIC,AFN Zone Infiltration Air Change Rate [ach] !RunPeriod [Value,Min,Month,Day,Hour,Minute,Max,Month,Day,Hour,Minute]
583,11,CRAWLSPACE,AFN Zone Infiltration Air Change Rate [ach] !RunPeriod [Value,Min,Month,Day,Hour,Minute,Max,Month,Day,Hour,Minute]
1038,11,Facility,Facility Heating Setpoint Not Met Time [hr] !RunPeriod [Value,Min,Month,Day,Hour,Minute,Max,Month,Day,Hour,Minute]
1039,11,Facility,Facility Cooling Setpoint Not Met Time [hr] !RunPeriod [Value,Min,Month,Day,Hour,Minute,Max,Month,Day,Hour,Minute]
1115,11,DX_HEATING_COIL,Heating Coil Heating Energy [J] !RunPeriod [Value,Min,Month,Day,Hour,Minute,Max,Month,Day,Hour,Minute]
1128,11,DX_HEATING_COIL,Heating Coil Electricity Energy [J] !RunPeriod [Value,Min,Month,Day,Hour,Minute,Max,Month,Day,Hour,Minute]
1153,11,DX_HEATING_COIL,Heating Coil Defrost Electricity Energy [J] !RunPeriod [Value,Min,Month,Day,Hour,Minute,Max,Month,Day,Hour,Minute]
1154,11,DX_HEATING_COIL,Heating Coil Crankcase Heater Electricity Energy [J] !RunPeriod [Value,Min,Month,Day,Hour,Minute,Max,Month,Day,Hour,Minute]
1155,11,HEATING_RESISTANCE_BACKUP,Heating Coil Heating Energy [J] !RunPeriod [Value,Min,Month,Day,Hour,Minute,Max,Month,Day,Hour,Minute]
1156,11,HEATING_RESISTANCE_BACKUP,Heating Coil Electricity Energy [J] !RunPeriod [Value,Min,Month,Day,Hour,Minute,Max,Month,Day,Hour,Minute]
1292,11,WATER HEATER,Water Heater Heat Loss Energy [J] !RunPeriod [Value,Min,Month,Day,Hour,Minute,Max,Month,Day,Hour,Minute]
1306,11,WATER HEATER,Water Heater Heating Energy [J] !RunPeriod [Value,Min,Month,Day,Hour,Minute,Max,Month,Day,Hour,Minute]
1307,11,WATER HEATER,Water Heater Unmet Demand Heat Transfer Energy [J] !RunPeriod [Value,Min,Month,Day,Hour,Minute,Max,Month,Day,Hour,Minute]
1308,11,WATER HEATER,Water Heater Electricity Energy [J] !RunPeriod [Value,Min,Month,Day,Hour,Minute,Max,Month,Day,Hour,Minute]
13,11,Electricity:Facility [J] !RunPeriod [Value,Min,Month,Day,Hour,Minute,Max,Month,Day,Hour,Minute]
1134,11,Heating:Electricity [J] !RunPeriod [Value,Min,Month,Day,Hour,Minute,Max,Month,Day,Hour,Minute]
1096,11,Cooling:Electricity [J] !RunPeriod [Value,Min,Month,Day,Hour,Minute,Max,Month,Day,Hour,Minute]
562,11,Fans:Electricity [J] !RunPeriod [Value,Min,Month,Day,Hour,Minute,Max,Month,Day,Hour,Minute]
1379,11,Pumps:Electricity [J] !RunPeriod [Value,Min,Month,Day,Hour,Minute,Max,Month,Day,Hour,Minute]
1326,11,WaterSystems:Electricity [J] !RunPeriod [Value,Min,Month,Day,Hour,Minute,Max,Month,Day,Hour,Minute]
61,11,InteriorLights:Electricity [J] !RunPeriod [Value,Min,Month,Day,Hour,Minute,Max,Month,Day,Hour,Minute]
1046,11,ExteriorLights:Electricity [J] !RunPeriod [Value,Min,Month,Day,Hour,Minute,Max,Month,Day,Hour,Minute]
134,11,InteriorEquipment:Electricity [J] !RunPeriod [Value,Min,Month,Day,Hour,Minute,Max,Month,Day,Hour,Minute]
170,11,gas_dryer:InteriorEquipment:Electricity [J] !RunPeriod [Value,Min,Month,Day,Hour,Minute,Max,Month,Day,Hour,Minute]
207,11,clotheswasher:InteriorEquipment:Electricity [J] !RunPeriod [Value,Min,Month,Day,Hour,Minute,Max,Month,Day,Hour,Minute]
244,11,dishwasher:InteriorEquipment:Electricity [J] !RunPeriod [Value,Min,Month,Day,Hour,Minute,Max,Month,Day,Hour,Minute]
281,11,refrigerator:InteriorEquipment:Electricity [J] !RunPeriod [Value,Min,Month,Day,Hour,Minute,Max,Month,Day,Hour,Minute]
318,11,electric_mels:InteriorEquipment:Electricity [J] !RunPeriod [Value,Min,Month,Day,Hour,Minute,Max,Month,Day,Hour,Minute]
355,11,NaturalGas:Facility [J] !RunPeriod [Value,Min,Month,Day,Hour,Minute,Max,Month,Day,Hour,Minute]
403,11,InteriorEquipment:NaturalGas [J] !RunPeriod [Value,Min,Month,Day,Hour,Minute,Max,Month,Day,Hour,Minute]
476,11,gas_dryer:InteriorEquipment:NaturalGas [J] !RunPeriod [Value,Min,Month,Day,Hour,Minute,Max,Month,Day,Hour,Minute]
513,11,gas_mels:InteriorEquipment:NaturalGas [J] !RunPeriod [Value,Min,Month,Day,Hour,Minute,Max,Month,Day,Hour,Minute]
End of Data Dictionary
1,EXTREME_WINTER,  39.64, -79.92,  -5.00, 378.00
5,7
1038,4.25,0.0, 1, 6, 1,15,0.25, 1, 8, 6,15
1039,0.0,0.0, 1, 6, 1,15,0.0, 1, 6, 1,15
581,0.3728440542264303,0.18181632968979983, 1,11,23,15,0.5619439975371556, 1, 7,20,60
582,2.782713049885937,0.0, 1,10,23,10,8.932687695275636, 1, 9,15,60
583,0.05978656469844924,0.00030480453341865906, 1,11,23,15,0.0773278372157972, 1, 7,20,52
1115,1859059840.6046095,0.0, 1, 6,23, 5,3996468.6359242196, 1, 9, 2,15
1128,670123973.2635019,0.0, 1, 6,23, 5,1251671.4647868907, 1, 9, 8,60
1153,8636553.270445073,0.0, 1, 6,23, 5,86630.82662953487, 1,12, 6,45
1154,18911056.856694933,0.0, 1, 6, 1,15,160987.25914152333, 1,11,15,15
1155,919323514.4283742,0.0, 1, 6,14,30,5847334.92445386, 1, 8, 6,15
1156,919323514.4283742,0.0, 1, 6,14,30,5847334.92445386, 1, 8, 6,15
1292,-25392062.87292594,-39766.51985546793, 1, 8, 6,15,-5187.081792888082, 1,11,11,12
1306,228963937.29374635,0.0, 1, 6, 1,15,4050000.0, 1, 6, 7,60
1307,39090923.73182062,0.0, 1, 6, 1,15,11884049.957473317, 1,12,19,60
1308,228963937.29374635,0.0, 1, 6, 1,15,4050000.0, 1, 6, 7,60
13,2293118369.3473945,580538.0788233881, 1,11,14,60,11509577.68570018, 1, 8, 8,15
61,301924526.02383536,88139.10953165221, 1, 6, 1,15,1282023.4113694867, 1, 6,20,15
134,70666020.44019976,63564.01800854099, 1, 6, 4,15,156554.22484006523, 1,11,20,15
170,5241013.419656067,348.4159749238097, 1, 6, 4,15,17476.39704006126, 1,11,12,15
207,6509451.13922267,815.2532113832032, 1, 6, 3,15,22990.642799023623, 1,11,10,15
244,12749673.399825225,1521.856143006317, 1, 6, 4,15,53038.631142310165, 1,11,20,15
281,46165882.481495745,59938.60262432081, 1, 6, 5,15,81951.81706819107, 1, 6,19,15
318,0.0,0.0, 1, 6, 1,15,0.0, 1, 6, 1,15
355,197687796.27748066,18561.32405820678, 1, 6, 4,15,724774.895203776, 1,11,18,15
403,197687796.27748066,18561.32405820678, 1, 6, 4,15,724774.895203776, 1,11,18,15
476,106772067.24485716,7098.072629279515, 1, 6, 4,15,356036.3026282215, 1,11,12,15
513,0.0,0.0, 1, 6, 1,15,0.0, 1, 6, 1,15
562,74568787.77059725,0.0, 1,11,23,15,131680.45246400667, 1, 6, 1,15
1046,0.0,0.0, 1, 6, 1,15,0.0, 1, 6, 1,15
1096,0.0,0.0, 1, 6, 1,15,0.0, 1, 6, 1,15
1134,1616995097.8190145,180000.0, 1,11,23,15,6955372.265743297, 1,10, 6,15
1326,228963937.2937463,0.0, 1, 6, 1,15,4050000.0, 1, 6, 7,60
1379,0.0,0.0, 1, 6, 1,15,0.0, 1, 6, 1,15
1,EXTREME_SUMMER,  39.64, -79.92,  -5.00, 378.00
5,7
1038,0.0,0.0, 7,27, 1,15,0.0, 7,27, 1,15
1039,27.0,0.0, 7,27, 1,15,0.25, 7,27,14,60
581,0.08073359397243648,0.0, 7,27, 6, 7,0.40082182038779524, 8, 2,18,46
582,1.6191968230662876,0.0, 7,30,20,60,8.808587909219039, 8, 2,18,46
583,0.03497395385968044,0.0, 7,28, 6, 7,0.06692947256767937, 7,31, 6, 3
1115,0.0,0.0, 7,27, 1, 7,0.0, 7,27, 1, 7
1128,0.0,0.0, 7,27, 1, 7,0.0, 7,27, 1, 7
1153,0.0,0.0, 7,27, 1, 7,0.0, 7,27, 1, 7
1154,0.0,0.0, 7,27, 1, 7,0.0, 7,27, 1, 7
1155,0.0,0.0, 7,27, 1, 7,0.0, 7,27, 1, 7
1156,0.0,0.0, 7,27, 1, 7,0.0, 7,27, 1, 7
1292,-22005889.698797703,-34274.39735578704, 7,31,16,15,-2972.548218672032, 8, 2,18,14
1306,170360485.45612845,0.0, 7,27, 1, 7,4050000.0, 7,31, 6,60
1307,16689470.651244614,0.0, 7,27, 1, 7,3980553.0924178767, 8, 2,19,60
1308,170360485.45612845,0.0, 7,27, 1, 7,4050000.0, 7,31, 6,60
13,1034021555.3289796,152071.80019841267, 8, 1, 4,30,6417449.031539698, 7,28,20,30
61,301924526.02383536,88139.10953165221, 7,27, 1,15,1282023.4113694867, 7,27,20,15
134,70666020.44019976,63564.01800854099, 7,27, 4,15,156554.22484006523, 8, 1,20,15
170,5241013.419656067,348.4159749238097, 7,27, 4,15,17476.39704006126, 8, 1,12,15
207,6509451.13922267,815.2532113832032, 7,27, 3,15,22990.642799023623, 8, 1,10,15
244,12749673.399825225,1521.856143006317, 7,27, 4,15,53038.631142310165, 8, 1,20,15
281,46165882.481495745,59938.60262432081, 7,27, 5,15,81951.81706819107, 7,27,19,15
318,0.0,0.0, 7,27, 1,15,0.0, 7,27, 1,15
355,197687796.27748066,18561.32405820678, 7,27, 4,15,724774.895203776, 8, 1,18,15
403,197687796.27748066,18561.32405820678, 7,27, 4,15,724774.895203776, 8, 1,18,15
476,106772067.24485716,7098.072629279515, 7,27, 4,15,356036.3026282215, 8, 1,12,15
513,0.0,0.0, 7,27, 1,15,0.0, 7,27, 1,15
562,48517430.012691095,0.0, 7,28, 6,30,131680.45246400667, 7,27,13,45
1046,0.0,0.0, 7,27, 1,15,0.0, 7,27, 1,15
1096,442553093.39612556,0.0, 7,28, 6,30,1376660.3125940915, 7,29,15,60
1134,0.0,0.0, 7,27, 1,15,0.0, 7,27, 1,15
1326,170360485.45612848,0.0, 7,27, 1,15,4050000.0, 7,28,20,30
1379,0.0,0.0, 7,27, 1,15,0.0, 7,27, 1,15
1,ANNUAL,  39.64, -79.92,  -5.00, 378.00
5,365
1038,11.0,0.0, 1, 1, 1,15,0.25, 1, 8, 6,15
1039,326.0,0.0, 1, 1, 1,15,0.25, 3,13,17,30
581,0.19203612318085334,0.0, 5,21, 6, 7,0.7697662685988652,11,17, 2,60
582,2.103415575590514,0.0, 1, 2,18,57,17.21892370811185, 2,12,15,50
583,0.025819125793103463,0.0, 5,29,23, 3,0.0771578818764369, 1, 7,20,52
1115,21245104822.556664,0.0, 1, 1,14,45,4194217.9341877396,11,27, 6,45
1128,6894921045.341398,0.0, 1, 1,14,45,1291413.5507915455, 1, 5, 6,30
1153,212226651.4544884,0.0, 1, 1,14,45,100054.25800536302, 1,26, 6,45
1154,1523295266.196191,0.0, 1, 1, 2,60,180000.0, 1, 1,14,45
1155,3044933700.0043364,0.0, 1, 1, 1,15,5847334.92445386, 1, 8, 6,15
1156,3044933700.0043364,0.0, 1, 1, 1,15,5847334.92445386, 1, 8, 6,15
1292,-1221342371.7699976,-39815.0019986243, 1, 1, 1,15,-2312.302704515378, 9,17, 9,44
1306,10566506065.274246,0.0, 1, 1, 1,15,4050000.0, 1, 1,20,15
1307,1472672013.464637,0.0, 1, 1, 1,15,12160018.272150232, 2,12,19,60
1308,10566506065.274246,0.0, 1, 1, 1,15,4050000.0, 1, 1,20,15
13,51649998476.59518,151703.1275401932, 1, 4, 4,15,11512066.442339253, 3, 6, 7,60
61,15743207428.383959,88139.10953165221, 1, 1, 1,15,1282023.4113694867, 1, 1,20,15
134,3685071073.4325233,63564.01800854099, 1, 2, 4,15,156554.22484006523, 1, 1,20,15
170,273393721.45532674,348.4159749238097, 1, 2, 4,15,17476.39704006126, 1, 1,12,15
207,339560869.0695816,815.2532113832032, 1, 2, 3,15,22990.642799023623, 1, 1,10,15
244,664895467.8009144,1521.856143006317, 1, 2, 4,15,53038.631142310165, 1, 1,20,15
281,2407221015.106824,59938.60262432081, 1, 1, 5,15,81951.81706819107, 1, 1,19,15
318,0.0,0.0, 1, 1, 1,15,0.0, 1, 1, 1,15
355,10310294493.051695,18561.32405820678, 1, 2, 4,15,724774.895203776, 1, 1,18,15
403,10310294493.051695,18561.32405820678, 1, 2, 4,15,724774.895203776, 1, 1,18,15
476,5569688622.066177,7098.072629279515, 1, 2, 4,15,356036.3026282215, 1, 1,12,15
513,0.0,0.0, 1, 1, 1,15,0.0, 1, 1, 1,15
562,1719675351.319236,0.0, 1, 1,14,45,131680.45246400667, 1, 1, 2,60
1046,0.0,0.0, 1, 1, 1,15,0.0, 1, 1, 1,15
1096,8260161895.187395,0.0, 1, 1, 1,15,1380610.1209722636, 7,29,15,60
1134,11675376662.996403,0.0, 1, 3,18,60,6956177.3588816235, 1,10, 6,15
1326,10566506065.274267,0.0, 1, 1, 1,15,4050000.0000000014,10,21, 9,60
1379,0.0,0.0, 1, 1, 1,15,0.0, 1, 1, 1,15
End of Data
 Number of Records Written=          99
