Program Version,EnergyPlus, Version 22.2.0-c249759bad, YMD=2023.09.01 15:47
1,5,Environment Title[],Latitude[deg],Longitude[deg],Time Zone[],Elevation[m]
2,8,Day of Simulation[],Month[],Day of Month[],DST Indicator[1=yes 0=no],Hour[],StartMinute[],EndMinute[],DayType
3,5,Cumulative Day of Simulation[],Month[],Day of Month[],DST Indicator[1=yes 0=no],DayType  ! When Daily Report Variables Requested
4,2,Cumulative Days of Simulation[],Month[]  ! When Monthly Report Variables Requested
5,1,Cumulative Days of Simulation[] ! When Run Period Report Variables Requested
6,1,Calendar Year of Simulation[] ! When Annual Report Variables Requested
581,11,LIVING,AFN Zone Infiltration Air Change Rate [ach] !RunPeriod [Value,Min,Month,Day,Hour,Minute,Max,Month,Day,Hour,Minute]
582,11,ATTIC,AFN Zone Infiltration Air Change Rate [ach] !RunPeriod [Value,Min,Month,Day,Hour,Minute,Max,Month,Day,Hour,Minute]
583,11,CRAWLSPACE,AFN Zone Infiltration Air Change Rate [ach] !RunPeriod [Value,Min,Month,Day,Hour,Minute,Max,Month,Day,Hour,Minute]
1038,11,Facility,Facility Heating Setpoint Not Met Time [hr] !RunPeriod [Value,Min,Month,Day,Hour,Minute,Max,Month,Day,Hour,Minute]
1039,11,Facility,Facility Cooling Setpoint Not Met Time [hr] !RunPeriod [Value,Min,Month,Day,Hour,Minute,Max,Month,Day,Hour,Minute]
1115,11,DX_HEATING_COIL,Heating Coil Heating Energy [J] !RunPeriod [Value,Min,Month,Day,Hour,Minute,Max,Month,Day,Hour,Minute]
1128,11,DX_HEATING_COIL,Heating Coil Electricity Energy [J] !RunPeriod [Value,Min,Month,Day,Hour,Minute,Max,Month,Day,Hour,Minute]
1153,11,DX_HEATING_COIL,Heating Coil Defrost Electricity Energy [J] !RunPeriod [Value,Min,Month,Day,Hour,Minute,Max,Month,Day,Hour,Minute]
1154,11,DX_HEATING_COIL,Heating Coil Crankcase Heater Electricity Energy [J] !RunPeriod [Value,Min,Month,Day,Hour,Minute,Max,Month,Day,Hour,Minute]
1155,11,HEATING_RESISTANCE_BACKUP,Heating Coil Heating Energy [J] !RunPeriod [Value,Min,Month,Day,Hour,Minute,Max,Month,Day,Hour,Minute]
1156,11,HEATING_RESISTANCE_BACKUP,Heating Coil Electricity Energy [J] !RunPeriod [Value,Min,Month,Day,Hour,Minute,Max,Month,Day,Hour,Minute]
1292,11,WATER HEATER,Water Heater Heat Loss Energy [J] !RunPeriod [Value,Min,Month,Day,Hour,Minute,Max,Month,Day,Hour,Minute]
1306,11,WATER HEATER,Water Heater Heating Energy [J] !RunPeriod [Value,Min,Month,Day,Hour,Minute,Max,Month,Day,Hour,Minute]
1307,11,WATER HEATER,Water Heater Unmet Demand Heat Transfer Energy [J] !RunPeriod [Value,Min,Month,Day,Hour,Minute,Max,Month,Day,Hour,Minute]
1308,11,WATER HEATER,Water Heater Electricity Energy [J] !RunPeriod [Value,Min,Month,Day,Hour,Minute,Max,Month,Day,Hour,Minute]
13,11,Electricity:Facility [J] !RunPeriod [Value,Min,Month,Day,Hour,Minute,Max,Month,Day,Hour,Minute]
1134,11,Heating:Electricity [J] !RunPeriod [Value,Min,Month,Day,Hour,Minute,Max,Month,Day,Hour,Minute]
1096,11,Cooling:Electricity [J] !RunPeriod [Value,Min,Month,Day,Hour,Minute,Max,Month,Day,Hour,Minute]
562,11,Fans:Electricity [J] !RunPeriod [Value,Min,Month,Day,Hour,Minute,Max,Month,Day,Hour,Minute]
1379,11,Pumps:Electricity [J] !RunPeriod [Value,Min,Month,Day,Hour,Minute,Max,Month,Day,Hour,Minute]
1326,11,WaterSystems:Electricity [J] !RunPeriod [Value,Min,Month,Day,Hour,Minute,Max,Month,Day,Hour,Minute]
61,11,InteriorLights:Electricity [J] !RunPeriod [Value,Min,Month,Day,Hour,Minute,Max,Month,Day,Hour,Minute]
1046,11,ExteriorLights:Electricity [J] !RunPeriod [Value,Min,Month,Day,Hour,Minute,Max,Month,Day,Hour,Minute]
134,11,InteriorEquipment:Electricity [J] !RunPeriod [Value,Min,Month,Day,Hour,Minute,Max,Month,Day,Hour,Minute]
170,11,gas_dryer:InteriorEquipment:Electricity [J] !RunPeriod [Value,Min,Month,Day,Hour,Minute,Max,Month,Day,Hour,Minute]
207,11,clotheswasher:InteriorEquipment:Electricity [J] !RunPeriod [Value,Min,Month,Day,Hour,Minute,Max,Month,Day,Hour,Minute]
244,11,dishwasher:InteriorEquipment:Electricity [J] !RunPeriod [Value,Min,Month,Day,Hour,Minute,Max,Month,Day,Hour,Minute]
281,11,refrigerator:InteriorEquipment:Electricity [J] !RunPeriod [Value,Min,Month,Day,Hour,Minute,Max,Month,Day,Hour,Minute]
318,11,electric_mels:InteriorEquipment:Electricity [J] !RunPeriod [Value,Min,Month,Day,Hour,Minute,Max,Month,Day,Hour,Minute]
355,11,NaturalGas:Facility [J] !RunPeriod [Value,Min,Month,Day,Hour,Minute,Max,Month,Day,Hour,Minute]
403,11,InteriorEquipment:NaturalGas [J] !RunPeriod [Value,Min,Month,Day,Hour,Minute,Max,Month,Day,Hour,Minute]
476,11,gas_dryer:InteriorEquipment:NaturalGas [J] !RunPeriod [Value,Min,Month,Day,Hour,Minute,Max,Month,Day,Hour,Minute]
513,11,gas_mels:InteriorEquipment:NaturalGas [J] !RunPeriod [Value,Min,Month,Day,Hour,Minute,Max,Month,Day,Hour,Minute]
End of Data Dictionary
1,EXTREME_WINTER,  42.93, -71.43,  -5.00,  81.00
5,7
1038,1.0,0.0, 1,20, 1,15,0.25, 1,21, 6,15
1039,0.0,0.0, 1,20, 1,15,0.0, 1,20, 1,15
581,0.36483539580342694,0.2250376749672741, 1,23,23,22,0.7173674199755978, 1,20,15,60
582,3.707410935226239,0.0, 1,26, 8,45,14.668506905719383, 1,20,15,60
583,0.0507243966244833,0.00047008290361110394, 1,21,23, 3,0.07595247094493218, 1,20,13,52
1115,1680109552.850578,0.0, 1,20,23, 5,3979224.135716852, 1,23, 6,30
1128,582537555.568044,0.0, 1,20,23, 5,1241727.6951415977, 1,23, 6,30
1153,3467716.306029747,0.0, 1,20,23, 5,51509.85554487206, 1,23, 2,60
1154,31501312.60029967,0.0, 1,20, 1, 7,180000.0, 1,23,13,30
1155,536441364.655302,0.0, 1,20, 1,50,4233350.940198742, 1,22, 6,60
1156,536441364.655302,0.0, 1,20, 1,50,4233350.940198742, 1,22, 6,60
1292,-25399714.433017142,-39762.09148228332, 1,26, 5,60,-5271.833407960407, 1,26,11,60
1306,244630459.33980024,0.0, 1,20, 1, 7,9768361.073470807, 1,26,19,60
1307,7100421.412828822,0.0, 1,20, 1, 7,6173696.574637771, 1,26,19,60
1308,244630459.33980024,0.0, 1,20, 1, 7,9768361.073470807, 1,26,19,60
13,1834132973.4172776,452017.0388981225, 1,23,15,15,13752703.92759202, 1,26, 9,45
61,301924526.02383536,88139.10953165221, 1,20, 1,15,1282023.4113694867, 1,20,20,15
134,70666020.44019976,63564.01800854099, 1,20, 4,15,156554.22484006523, 1,25,20,15
170,5241013.419656067,348.4159749238097, 1,20, 4,15,17476.39704006126, 1,25,12,15
207,6509451.13922267,815.2532113832032, 1,20, 3,15,22990.642799023623, 1,25,10,15
244,12749673.399825225,1521.856143006317, 1,20, 4,15,53038.631142310165, 1,25,20,15
281,46165882.481495745,59938.60262432081, 1,20, 5,15,81951.81706819107, 1,20,19,15
318,0.0,0.0, 1,20, 1,15,0.0, 1,20, 1,15
355,197687796.27748066,18561.32405820678, 1,20, 4,15,724774.895203776, 1,25,18,15
403,197687796.27748066,18561.32405820678, 1,20, 4,15,724774.895203776, 1,25,18,15
476,106772067.24485716,7098.072629279515, 1,20, 4,15,356036.3026282215, 1,25,12,15
513,0.0,0.0, 1,20, 1,15,0.0, 1,20, 1,15
562,62964018.48376865,0.0, 1,23,13,30,126767.25308831256, 1,20, 1,45
1046,0.0,0.0, 1,20, 1,15,0.0, 1,20, 1,15
1096,0.0,0.0, 1,20, 1,15,0.0, 1,20, 1,15
1134,1153947949.129676,180000.0, 1,23,13,30,5801030.820030784, 1,22, 6,15
1326,244630459.33980036,0.0, 1,20, 1,15,10409776.966294495, 1,26, 9,45
1379,0.0,0.0, 1,20, 1,15,0.0, 1,20, 1,15
1,EXTREME_SUMMER,  42.93, -71.43,  -5.00,  81.00
5,7
1038,0.0,0.0, 7,27, 1,15,0.0, 7,27, 1,15
1039,27.0,0.0, 7,27, 1,15,0.25, 7,28,14,15
581,0.11526859322104191,0.0025848629602375638, 7,29, 4,60,0.460592844862836, 7,30,13,52
582,2.34267013471461,0.0, 7,27, 5,60,9.310683254324156, 7,31,15,48
583,0.034171124820587095,0.00013413292678181977, 7,27, 6,11,0.06749251962742756, 7,30,13,52
1115,0.0,0.0, 7,27, 1,15,0.0, 7,27, 1,15
1128,0.0,0.0, 7,27, 1,15,0.0, 7,27, 1,15
1153,0.0,0.0, 7,27, 1,15,0.0, 7,27, 1,15
1154,0.0,0.0, 7,27, 1,15,0.0, 7,27, 1,15
1155,0.0,0.0, 7,27, 1,15,0.0, 7,27, 1,15
1156,0.0,0.0, 7,27, 1,15,0.0, 7,27, 1,15
1292,-21951745.4412322,-34294.69063704086, 8, 2,15,15,-3213.9097053492096, 8, 1, 8,34
1306,184551381.5547105,0.0, 7,27, 1,15,3513600.0, 8, 2,19,55
1307,2214807.7962099724,0.0, 7,27, 1,15,767608.0066138147, 8, 2,19,55
1308,184551381.5547105,0.0, 7,27, 1,15,3513600.0, 8, 2,19,55
13,1026642587.9416145,151703.1275401932, 7,27, 4,60,12168356.466902489, 8, 2,19,60
61,301924526.02383536,88139.10953165221, 7,27, 1,15,1282023.4113694867, 7,27,20,15
134,70666020.44019976,63564.01800854099, 7,27, 4,15,156554.22484006523, 8, 1,20,15
170,5241013.419656067,348.4159749238097, 7,27, 4,15,17476.39704006126, 8, 1,12,15
207,6509451.13922267,815.2532113832032, 7,27, 3,15,22990.642799023623, 8, 1,10,15
244,12749673.399825225,1521.856143006317, 7,27, 4,15,53038.631142310165, 8, 1,20,15
281,46165882.481495745,59938.60262432081, 7,27, 5,15,81951.81706819107, 7,27,19,15
318,0.0,0.0, 7,27, 1,15,0.0, 7,27, 1,15
355,197687796.27748066,18561.32405820678, 7,27, 4,15,724774.895203776, 8, 1,18,15
403,197687796.27748066,18561.32405820678, 7,27, 4,15,724774.895203776, 8, 1,18,15
476,106772067.24485716,7098.072629279515, 7,27, 4,15,356036.3026282215, 8, 1,12,15
513,0.0,0.0, 7,27, 1,15,0.0, 7,27, 1,15
562,46717688.59027462,0.0, 7,27, 4,60,126767.25308831256, 7,28,16,60
1046,0.0,0.0, 7,27, 1,15,0.0, 7,27, 1,15
1096,422782971.3325941,0.0, 7,27, 4,60,1345554.8630308877, 7,29,17,60
1134,0.0,0.0, 7,27, 1,15,0.0, 7,27, 1,15
1326,184551381.55471033,0.0, 7,27, 1,15,10136892.109488832, 8, 2,19,60
1379,0.0,0.0, 7,27, 1,15,0.0, 7,27, 1,15
1,ANNUAL,  42.93, -71.43,  -5.00,  81.00
5,365
1038,47.75,0.0, 1, 1, 1,15,0.25, 1, 3, 2,45
1039,233.0,0.0, 1, 1, 1,15,0.25, 4,30,11,30
581,0.2356436883020846,0.0, 6,18,23, 3,0.9038332681690371, 3,23,19,60
582,2.988613926870816,0.0, 1, 1, 4,30,17.96502832530334,11,12,15,50
583,0.02588677914763676,0.0, 6,26,23, 5,0.07974383781344425, 3,23,19,52
1115,27382025561.653194,0.0, 1, 1,23, 3,4232037.597436035, 4,13, 6,45
1128,8764532384.482113,0.0, 1, 1,23, 3,1265978.5079831516, 4,13, 6,45
1153,246670209.43131647,0.0, 1, 1,23, 3,116161.85319729359, 3,11, 8,45
1154,1682196951.0049062,0.0, 1, 1, 1,52,180000.0, 1, 8,21,30
1155,5642985234.211705,0.0, 1, 1, 1,15,4684618.768820315, 1, 3, 2,15
1156,5642985234.211705,0.0, 1, 1, 1,15,4684618.768820315, 1, 3, 2,15
1292,-1235993073.7431862,-40956.96081465261, 1, 4, 8,15,-2764.3174005995584, 6, 6, 9,60
1306,11262970762.63646,0.0, 1, 1, 1,15,10540800.0,11,26,19,60
1307,241234081.18024337,0.0, 1, 1, 1,15,6272837.910234075, 2,12,19,60
1308,11262970762.63646,0.0, 1, 1, 1,15,10540800.0,11,26,19,60
13,55259910282.38078,151703.1275401932, 4,25, 4,15,16701311.39145481, 2, 5, 9,45
61,15743207428.383959,88139.10953165221, 1, 1, 1,15,1282023.4113694867, 1, 1,20,15
134,3685071073.4325233,63564.01800854099, 1, 2, 4,15,156554.22484006523, 1, 1,20,15
170,273393721.45532674,348.4159749238097, 1, 2, 4,15,17476.39704006126, 1, 1,12,15
207,339560869.0695816,815.2532113832032, 1, 2, 3,15,22990.642799023623, 1, 1,10,15
244,664895467.8009144,1521.856143006317, 1, 2, 4,15,53038.631142310165, 1, 1,20,15
281,2407221015.106824,59938.60262432081, 1, 1, 5,15,81951.81706819107, 1, 1,19,15
318,0.0,0.0, 1, 1, 1,15,0.0, 1, 1, 1,15
355,10310294493.051695,18561.32405820678, 1, 2, 4,15,724774.895203776, 1, 1,18,15
403,10310294493.051695,18561.32405820678, 1, 2, 4,15,724774.895203776, 1, 1,18,15
476,5569688622.066177,7098.072629279515, 1, 2, 4,15,356036.3026282215, 1, 1,12,15
513,0.0,0.0, 1, 1, 1,15,0.0, 1, 1, 1,15
562,1709735179.3029518,0.0, 1, 7,23,15,126767.25308831257, 2, 2,11,30
1046,0.0,0.0, 1, 1, 1,15,0.0, 1, 1, 1,15
1096,6522541059.493104,0.0, 1, 1, 1,15,1364925.6753565483, 8,31,16,60
1134,16336384779.130056,0.0, 1, 8,12,60,5816511.348881012, 3, 3, 6,45
1326,11262970762.636429,0.0, 1, 1, 1,15,10540800.0, 4,23,19,60
1379,0.0,0.0, 1, 1, 1,15,0.0, 1, 1, 1,15
End of Data
 Number of Records Written=          99
