Program Version,EnergyPlus, Version 22.2.0-c249759bad, YMD=2023.09.01 20:27
1,5,Environment Title[],Latitude[deg],Longitude[deg],Time Zone[],Elevation[m]
2,8,Day of Simulation[],Month[],Day of Month[],DST Indicator[1=yes 0=no],Hour[],StartMinute[],EndMinute[],DayType
3,5,Cumulative Day of Simulation[],Month[],Day of Month[],DST Indicator[1=yes 0=no],DayType  ! When Daily Report Variables Requested
4,2,Cumulative Days of Simulation[],Month[]  ! When Monthly Report Variables Requested
5,1,Cumulative Days of Simulation[] ! When Run Period Report Variables Requested
6,1,Calendar Year of Simulation[] ! When Annual Report Variables Requested
581,11,LIVING,AFN Zone Infiltration Air Change Rate [ach] !RunPeriod [Value,Min,Month,Day,Hour,Minute,Max,Month,Day,Hour,Minute]
582,11,ATTIC,AFN Zone Infiltration Air Change Rate [ach] !RunPeriod [Value,Min,Month,Day,Hour,Minute,Max,Month,Day,Hour,Minute]
583,11,CRAWLSPACE,AFN Zone Infiltration Air Change Rate [ach] !RunPeriod [Value,Min,Month,Day,Hour,Minute,Max,Month,Day,Hour,Minute]
1038,11,Facility,Facility Heating Setpoint Not Met Time [hr] !RunPeriod [Value,Min,Month,Day,Hour,Minute,Max,Month,Day,Hour,Minute]
1039,11,Facility,Facility Cooling Setpoint Not Met Time [hr] !RunPeriod [Value,Min,Month,Day,Hour,Minute,Max,Month,Day,Hour,Minute]
1115,11,DX_HEATING_COIL,Heating Coil Heating Energy [J] !RunPeriod [Value,Min,Month,Day,Hour,Minute,Max,Month,Day,Hour,Minute]
1128,11,DX_HEATING_COIL,Heating Coil Electricity Energy [J] !RunPeriod [Value,Min,Month,Day,Hour,Minute,Max,Month,Day,Hour,Minute]
1153,11,DX_HEATING_COIL,Heating Coil Defrost Electricity Energy [J] !RunPeriod [Value,Min,Month,Day,Hour,Minute,Max,Month,Day,Hour,Minute]
1154,11,DX_HEATING_COIL,Heating Coil Crankcase Heater Electricity Energy [J] !RunPeriod [Value,Min,Month,Day,Hour,Minute,Max,Month,Day,Hour,Minute]
1155,11,HEATING_RESISTANCE_BACKUP,Heating Coil Heating Energy [J] !RunPeriod [Value,Min,Month,Day,Hour,Minute,Max,Month,Day,Hour,Minute]
1156,11,HEATING_RESISTANCE_BACKUP,Heating Coil Electricity Energy [J] !RunPeriod [Value,Min,Month,Day,Hour,Minute,Max,Month,Day,Hour,Minute]
1292,11,WATER HEATER,Water Heater Heat Loss Energy [J] !RunPeriod [Value,Min,Month,Day,Hour,Minute,Max,Month,Day,Hour,Minute]
1306,11,WATER HEATER,Water Heater Heating Energy [J] !RunPeriod [Value,Min,Month,Day,Hour,Minute,Max,Month,Day,Hour,Minute]
1307,11,WATER HEATER,Water Heater Unmet Demand Heat Transfer Energy [J] !RunPeriod [Value,Min,Month,Day,Hour,Minute,Max,Month,Day,Hour,Minute]
1308,11,WATER HEATER,Water Heater Electricity Energy [J] !RunPeriod [Value,Min,Month,Day,Hour,Minute,Max,Month,Day,Hour,Minute]
13,11,Electricity:Facility [J] !RunPeriod [Value,Min,Month,Day,Hour,Minute,Max,Month,Day,Hour,Minute]
1134,11,Heating:Electricity [J] !RunPeriod [Value,Min,Month,Day,Hour,Minute,Max,Month,Day,Hour,Minute]
1096,11,Cooling:Electricity [J] !RunPeriod [Value,Min,Month,Day,Hour,Minute,Max,Month,Day,Hour,Minute]
562,11,Fans:Electricity [J] !RunPeriod [Value,Min,Month,Day,Hour,Minute,Max,Month,Day,Hour,Minute]
1379,11,Pumps:Electricity [J] !RunPeriod [Value,Min,Month,Day,Hour,Minute,Max,Month,Day,Hour,Minute]
1326,11,WaterSystems:Electricity [J] !RunPeriod [Value,Min,Month,Day,Hour,Minute,Max,Month,Day,Hour,Minute]
61,11,InteriorLights:Electricity [J] !RunPeriod [Value,Min,Month,Day,Hour,Minute,Max,Month,Day,Hour,Minute]
1046,11,ExteriorLights:Electricity [J] !RunPeriod [Value,Min,Month,Day,Hour,Minute,Max,Month,Day,Hour,Minute]
134,11,InteriorEquipment:Electricity [J] !RunPeriod [Value,Min,Month,Day,Hour,Minute,Max,Month,Day,Hour,Minute]
170,11,gas_dryer:InteriorEquipment:Electricity [J] !RunPeriod [Value,Min,Month,Day,Hour,Minute,Max,Month,Day,Hour,Minute]
207,11,clotheswasher:InteriorEquipment:Electricity [J] !RunPeriod [Value,Min,Month,Day,Hour,Minute,Max,Month,Day,Hour,Minute]
244,11,dishwasher:InteriorEquipment:Electricity [J] !RunPeriod [Value,Min,Month,Day,Hour,Minute,Max,Month,Day,Hour,Minute]
281,11,refrigerator:InteriorEquipment:Electricity [J] !RunPeriod [Value,Min,Month,Day,Hour,Minute,Max,Month,Day,Hour,Minute]
318,11,electric_mels:InteriorEquipment:Electricity [J] !RunPeriod [Value,Min,Month,Day,Hour,Minute,Max,Month,Day,Hour,Minute]
355,11,NaturalGas:Facility [J] !RunPeriod [Value,Min,Month,Day,Hour,Minute,Max,Month,Day,Hour,Minute]
403,11,InteriorEquipment:NaturalGas [J] !RunPeriod [Value,Min,Month,Day,Hour,Minute,Max,Month,Day,Hour,Minute]
476,11,gas_dryer:InteriorEquipment:NaturalGas [J] !RunPeriod [Value,Min,Month,Day,Hour,Minute,Max,Month,Day,Hour,Minute]
513,11,gas_mels:InteriorEquipment:NaturalGas [J] !RunPeriod [Value,Min,Month,Day,Hour,Minute,Max,Month,Day,Hour,Minute]
End of Data Dictionary
1,EXTREME_WINTER,  44.88, -93.22,  -6.00, 255.00
5,7
1038,9.5,0.0, 2, 5, 1,15,0.25, 2, 8, 6,15
1039,0.0,0.0, 2, 5, 1,15,0.0, 2, 5, 1,15
581,0.4416952310355934,0.23015946217265473, 2, 5,23, 7,0.737136279201943, 2, 7,20,60
582,3.6893296499483714,0.03342115090254979, 2, 5,23,15,11.525241335387785, 2, 9,16,48
583,0.07380908792574344,0.0003866677858768803, 2, 5,23, 7,0.0860476400185496, 2, 7,20,60
1115,1966983574.2712421,0.0, 2, 5,23, 3,4155054.174233226, 2, 6, 8,45
1128,764433056.6500003,0.0, 2, 5,23, 3,1314888.5958705386, 2, 6, 8,45
1153,11395681.941466391,0.0, 2, 5,23, 3,74609.17748275225, 2, 6, 4,30
1154,8089325.545042892,0.0, 2, 5, 1,60,91760.76311428992, 2, 5,23,60
1155,1600618809.0480416,0.0, 2, 5, 1,15,6876034.637173707, 2, 8, 6,15
1156,1600618809.0480416,0.0, 2, 5, 1,15,6876034.637173707, 2, 8, 6,15
1292,-25441879.269509733,-40161.400691550574, 2,10, 7,45,-3919.820827697853, 2,10,10,32
1306,204276210.61305907,0.0, 2, 5, 1,15,4050000.0, 2, 5, 8,45
1307,47278800.19600255,0.0, 2, 5, 1,15,5005782.830592909, 2, 7, 9,30
1308,204276210.61305907,0.0, 2, 5, 1,15,4050000.0, 2, 5, 8,45
13,3050030460.4510546,1118586.2042936315, 2, 5,23,15,12834680.26400591, 2, 9, 8,30
61,301924526.02383536,88139.10953165221, 2, 5, 1,15,1282023.4113694867, 2, 5,20,15
134,70666020.44019976,63564.01800854099, 2, 5, 4,15,156554.22484006523, 2,10,20,15
170,5241013.419656067,348.4159749238097, 2, 5, 4,15,17476.39704006126, 2,10,12,15
207,6509451.13922267,815.2532113832032, 2, 5, 3,15,22990.642799023623, 2,10,10,15
244,12749673.399825225,1521.856143006317, 2, 5, 4,15,53038.631142310165, 2,10,20,15
281,46165882.481495745,59938.60262432081, 2, 5, 5,15,81951.81706819107, 2, 5,19,15
318,0.0,0.0, 2, 5, 1,15,0.0, 2, 5, 1,15
355,197687796.27748066,18561.32405820678, 2, 5, 4,15,724774.895203776, 2,10,18,15
403,197687796.27748066,18561.32405820678, 2, 5, 4,15,724774.895203776, 2,10,18,15
476,106772067.24485716,7098.072629279515, 2, 5, 4,15,356036.3026282215, 2,10,12,15
513,0.0,0.0, 2, 5, 1,15,0.0, 2, 5, 1,15
562,88626830.18940827,31837.56633858104, 2, 5,23,15,141575.13990911012, 2, 5, 6,15
1046,0.0,0.0, 2, 5, 1,15,0.0, 2, 5, 1,15
1096,0.0,0.0, 2, 5, 1,15,0.0, 2, 5, 1,15
1134,2384536873.184552,439904.1677628561, 2, 5,23,15,8038046.336169534, 2,11, 6,60
1326,204276210.61305913,0.0, 2, 5, 1,15,4050000.0, 2, 5, 8,45
1379,0.0,0.0, 2, 5, 1,15,0.0, 2, 5, 1,15
1,EXTREME_SUMMER,  44.88, -93.22,  -6.00, 255.00
5,7
1038,0.0,0.0, 7,22, 1,15,0.0, 7,22, 1,15
1039,26.5,0.0, 7,22, 1,15,0.25, 7,22,14,30
581,0.1599896209075474,0.0, 7,22,21,45,0.9233439410496498, 7,22, 4,52
582,4.196109400412938,0.07599185270925497, 7,26, 6, 3,17.918952501078962, 7,22, 4,52
583,0.04037849533251855,0.000154849059299638, 7,26, 6,11,0.0745997646094125, 7,22, 6, 3
1115,0.0,0.0, 7,22, 1,15,0.0, 7,22, 1,15
1128,0.0,0.0, 7,22, 1,15,0.0, 7,22, 1,15
1153,0.0,0.0, 7,22, 1,15,0.0, 7,22, 1,15
1154,0.0,0.0, 7,22, 1,15,0.0, 7,22, 1,15
1155,0.0,0.0, 7,22, 1,15,0.0, 7,22, 1,15
1156,0.0,0.0, 7,22, 1,15,0.0, 7,22, 1,15
1292,-21948451.30234142,-34339.03253510586, 7,28, 6,60,-3800.022405702702, 7,22,20,20
1306,151400617.789846,0.0, 7,22, 1,15,4050000.0, 7,24, 9,45
1307,23710846.41978122,0.0, 7,22, 1,15,3487237.7570777526, 7,25,10,22
1308,151400617.789846,0.0, 7,22, 1,15,4050000.0, 7,24, 9,45
13,1067841431.8211068,182579.63519159035, 7,26, 4,60,6296628.867385511, 7,27,19,30
61,301924526.02383536,88139.10953165221, 7,22, 1,15,1282023.4113694867, 7,22,20,15
134,70666020.44019976,63564.01800854099, 7,22, 4,15,156554.22484006523, 7,27,20,15
170,5241013.419656067,348.4159749238097, 7,22, 4,15,17476.39704006126, 7,27,12,15
207,6509451.13922267,815.2532113832032, 7,22, 3,15,22990.642799023623, 7,27,10,15
244,12749673.399825225,1521.856143006317, 7,22, 4,15,53038.631142310165, 7,27,20,15
281,46165882.481495745,59938.60262432081, 7,22, 5,15,81951.81706819107, 7,22,19,15
318,0.0,0.0, 7,22, 1,15,0.0, 7,22, 1,15
355,197687796.27748066,18561.32405820678, 7,22, 4,15,724774.895203776, 7,27,18,15
403,197687796.27748066,18561.32405820678, 7,22, 4,15,724774.895203776, 7,27,18,15
476,106772067.24485716,7098.072629279515, 7,22, 4,15,356036.3026282215, 7,27,12,15
513,0.0,0.0, 7,22, 1,15,0.0, 7,22, 1,15
562,52644939.10771646,3406.7234822892187, 7,26, 4,60,141575.13990911012, 7,22,14,15
1046,0.0,0.0, 7,22, 1,15,0.0, 7,22, 1,15
1096,491205328.4595104,27469.784169107952, 7,26, 4,60,1538645.1711345557, 7,23,17,60
1134,0.0,0.0, 7,22, 1,15,0.0, 7,22, 1,15
1326,151400617.789846,0.0, 7,22, 1,15,4050000.0, 7,22, 8,45
1379,0.0,0.0, 7,22, 1,15,0.0, 7,22, 1,15
1,ANNUAL,  44.88, -93.22,  -6.00, 255.00
5,365
1038,81.75,0.0, 1, 1, 1,15,0.25, 1, 1, 6,15
1039,174.0,0.0, 1, 1, 1,15,0.25, 4, 4,15,45
581,0.3057378038959785,0.0, 6,22,23, 5,1.8001158078902566, 6,14,13,52
582,4.972249725177186,0.0, 1, 7,23,60,34.65248189081947, 6,14,13,52
583,0.03609626193104004,0.0, 6,22,23, 5,0.0909423214725893, 1,19,17,50
1115,38849237740.48845,0.0, 1, 1,23, 5,4758408.953817869,10,28, 5,60
1128,13282136723.9443,0.0, 1, 1,23, 5,1405696.5291393134,10,28, 6,30
1153,338693713.3923034,0.0, 1, 1,23, 5,137290.42166962527, 1,11, 6,45
1154,1309618046.6291554,0.0, 1, 1, 1, 7,180000.0, 1, 7,15,45
1155,18095864319.53492,0.0, 1, 1,23, 5,6876034.637173707, 1,21, 3,15
1156,18095864319.53492,0.0, 1, 1,23, 5,6876034.637173707, 1,21, 3,15
1292,-1241817568.4807396,-44153.622382618785,12,19, 8,60,-2494.2766289514793, 7, 8,10,31
1306,9268923597.236017,0.0, 1, 1, 1, 7,4050000.0, 1, 2, 8,45
1307,1795965652.3443599,0.0, 1, 1, 1, 7,11107037.574274208, 3, 9,10,30
1308,9268923597.236017,0.0, 1, 1, 1, 7,4050000.0, 1, 2, 8,45
13,71010675300.78603,151703.1275401932, 4, 3, 4,15,12779411.018244468, 2,10, 8,45
61,15743207428.383959,88139.10953165221, 1, 1, 1,15,1282023.4113694867, 1, 1,20,15
134,3685071073.4325233,63564.01800854099, 1, 2, 4,15,156554.22484006523, 1, 1,20,15
170,273393721.45532674,348.4159749238097, 1, 2, 4,15,17476.39704006126, 1, 1,12,15
207,339560869.0695816,815.2532113832032, 1, 2, 3,15,22990.642799023623, 1, 1,10,15
244,664895467.8009144,1521.856143006317, 1, 2, 4,15,53038.631142310165, 1, 1,20,15
281,2407221015.106824,59938.60262432081, 1, 1, 5,15,81951.81706819107, 1, 1,19,15
318,0.0,0.0, 1, 1, 1,15,0.0, 1, 1, 1,15
355,10310294493.051695,18561.32405820678, 1, 2, 4,15,724774.895203776, 1, 1,18,15
403,10310294493.051695,18561.32405820678, 1, 2, 4,15,724774.895203776, 1, 1,18,15
476,5569688622.066177,7098.072629279515, 1, 2, 4,15,356036.3026282215, 1, 1,12,15
513,0.0,0.0, 1, 1, 1,15,0.0, 1, 1, 1,15
562,2291273847.5232882,0.0, 1, 4,15,30,141575.13990911012, 1, 1, 1,45
1046,0.0,0.0, 1, 1, 1,15,0.0, 1, 1, 1,15
1096,6995886550.707937,0.0, 1, 1, 1,15,1541468.2684456566, 7,23,17,60
1134,33026312803.500614,0.0, 2,16,14,45,8101240.252591649,12,15, 6,15
1326,9268923597.236015,0.0, 1, 1, 1,15,4050000.0, 1, 1, 9,45
1379,0.0,0.0, 1, 1, 1,15,0.0, 1, 1, 1,15
End of Data
 Number of Records Written=          99
