Program Version,EnergyPlus, Version 22.2.0-c249759bad, YMD=2023.09.01 14:30
1,5,Environment Title[],Latitude[deg],Longitude[deg],Time Zone[],Elevation[m]
2,8,Day of Simulation[],Month[],Day of Month[],DST Indicator[1=yes 0=no],Hour[],StartMinute[],EndMinute[],DayType
3,5,Cumulative Day of Simulation[],Month[],Day of Month[],DST Indicator[1=yes 0=no],DayType  ! When Daily Report Variables Requested
4,2,Cumulative Days of Simulation[],Month[]  ! When Monthly Report Variables Requested
5,1,Cumulative Days of Simulation[] ! When Run Period Report Variables Requested
6,1,Calendar Year of Simulation[] ! When Annual Report Variables Requested
7,1,Environment,Site Outdoor Air Drybulb Temperature [C] !Hourly
619,1,DX_HEATING_COIL,Heating Coil Heating Rate [W] !Hourly
633,1,DX_HEATING_COIL,Heating Coil Electricity Rate [W] !Hourly
659,1,DX_HEATING_COIL,Heating Coil Defrost Electricity Rate [W] !Hourly
661,1,DX_HEATING_COIL,Heating Coil Crankcase Heater Electricity Rate [W] !Hourly
690,1,FAN,Fan Electricity Rate [W] !Hourly
716,1,HEAT PUMP WATER HEATER FAN,Fan Electricity Rate [W] !Hourly
718,1,LIVING,Zone Mean Air Temperature [C] !Hourly
719,1,ATTIC,Zone Mean Air Temperature [C] !Hourly
720,1,CRAWLSPACE,Zone Mean Air Temperature [C] !Hourly
843,1,LIVING,Zone Predicted Sensible Load to Heating Setpoint Heat Transfer Rate [W] !Hourly
844,1,LIVING,Zone System Predicted Sensible Load to Heating Setpoint Heat Transfer Rate [W] !Hourly
907,1,ATTIC,Zone Predicted Sensible Load to Heating Setpoint Heat Transfer Rate [W] !Hourly
908,1,ATTIC,Zone System Predicted Sensible Load to Heating Setpoint Heat Transfer Rate [W] !Hourly
971,1,CRAWLSPACE,Zone Predicted Sensible Load to Heating Setpoint Heat Transfer Rate [W] !Hourly
972,1,CRAWLSPACE,Zone System Predicted Sensible Load to Heating Setpoint Heat Transfer Rate [W] !Hourly
1195,1,HEATING_RESISTANCE_BACKUP,Heating Coil Heating Rate [W] !Hourly
1197,1,HEATING_RESISTANCE_BACKUP,Heating Coil Electricity Rate [W] !Hourly
End of Data Dictionary
1,EXTREME_WINTER,  42.94, -78.72,  -5.00, 218.20
2,1, 2, 3, 0, 1, 0.00,60.00,Monday
7,-9.0
718,18.64404863378766
719,-2.412920639104929
720,17.269608981256603
619,3572.9312744999906
633,1272.450275980698
659,37.44021874783805
661,0.0
690,145.6627886837107
716,0.0
843,2970.311390765153
844,2970.311390765153
907,0.0
908,0.0
971,0.0
972,0.0
1195,1015.8936910734426
1197,1015.8936910734426
2,1, 2, 3, 0, 2, 0.00,60.00,Monday
7,-9.4
718,18.62056308279438
719,-2.8125704429863236
720,16.767110076718584
619,3528.7438296059263
633,1265.5581216739608
659,38.095209795390446
661,0.0
690,145.6627886837107
716,0.0
843,3258.2540409813573
844,3258.2540409813573
907,0.0
908,0.0
971,0.0
972,0.0
1195,1289.1297088258825
1197,1289.1297088258825
2,1, 2, 3, 0, 3, 0.00,60.00,Monday
7,-9.0
718,18.610362533229193
719,-2.9487374846191856
720,16.51189888654427
619,3575.4179253904194
633,1269.664867600679
659,37.44021874783805
661,0.0
690,145.6627886837107
716,0.0
843,3427.344606458073
844,3427.344606458073
907,0.0
908,0.0
971,0.0
972,0.0
1195,1469.842545075628
1197,1469.842545075628
2,1, 2, 3, 0, 4, 0.00,60.00,Monday
7,-11.0
718,18.60633182310812
719,-3.4546458508036877
720,16.22253532622243
619,3363.6346658994858
633,1247.0803572371578
659,37.15836777659368
661,0.0
690,145.6627886837107
716,0.0
843,3860.2305624936853
844,3860.2305624936853
907,0.0
908,0.0
971,0.0
972,0.0
1195,2218.490666744793
1197,2218.490666744793
2,1, 2, 3, 0, 5, 0.00,60.00,Monday
7,-11.0
718,18.604706948828536
719,-3.8655763219902224
720,15.991802879462005
619,3364.1606557985456
633,1246.6774444516416
659,37.124477886067865
661,0.0
690,145.6627886837107
716,0.0
843,3886.44394043405
844,3886.44394043405
907,0.0
908,0.0
971,0.0
972,0.0
1195,2275.6730314059632
1197,2275.6730314059632
2,1, 2, 3, 0, 6, 0.00,60.00,Monday
7,-12.0
718,19.37698495987111
719,-4.032241251970943
720,15.763747718891453
619,3272.826285713698
633,1239.5708238896807
659,33.456854878836765
661,0.0
690,145.6627886837107
716,0.0
843,5104.649426507822
844,5104.649426507822
907,0.0
908,0.0
971,0.0
972,0.0
1195,3862.808447663187
1197,3862.808447663187
2,1, 2, 3, 0, 7, 0.00,60.00,Monday
7,-11.7
718,19.575335620424994
719,-4.078637593923731
720,15.594699382677046
619,3296.476523823738
633,1263.8962215878014
659,30.821754745671832
661,0.0
690,145.6627886837107
716,85.44000000000007
843,4999.35772446058
844,4999.35772446058
907,0.0
908,0.0
971,0.0
972,0.0
1195,4919.1457631751155
1197,4919.1457631751155
2,1, 2, 3, 0, 8, 0.00,60.00,Monday
7,-11.7
718,19.64910428652876
719,-4.0287591456461875
720,15.404517690867412
619,3292.391595752204
633,1268.2749865426442
659,30.821754745671832
661,0.0
690,145.6627886837107
716,85.44000000000007
843,4769.633260689094
844,4769.633260689094
907,0.0
908,0.0
971,0.0
972,0.0
1195,4765.478389509981
1197,4765.478389509981
2,1, 2, 3, 0, 9, 0.00,60.00,Monday
7,-11.1
718,19.694606054469904
719,-4.145884827734578
720,15.231712030899901
619,3333.436389433983
633,1269.195889111647
659,36.78913726639873
661,0.0
690,145.6627886837107
716,16.696399000621575
843,4621.473536759695
844,4621.473536759695
907,0.0
908,0.0
971,0.0
972,0.0
1195,3535.864167059072
1197,3535.864167059072
2,1, 2, 3, 0,10, 0.00,60.00,Monday
7,-10.6
718,19.715136995725572
719,-1.3043647341179176
720,15.063681756490304
619,3347.0172204850974
633,1261.5803418655585
659,47.80517000731117
661,0.0
690,145.6627886837107
716,0.0
843,4150.218565475159
844,4150.218565475159
907,0.0
908,0.0
971,0.0
972,0.0
1195,2769.649455734705
1197,2769.649455734705
2,1, 2, 3, 0,11, 0.00,60.00,Monday
7,-10.6
718,19.717291481254318
719,2.3099346729268766
720,14.903059690845511
619,3346.777363746766
633,1261.8418839903543
659,47.80517000731117
661,0.0
690,145.6627886837107
716,0.0
843,3699.3491233731147
844,3699.3491233731147
907,0.0
908,0.0
971,0.0
972,0.0
1195,2069.76026983845
1197,2069.76026983845
2,1, 2, 3, 0,12, 0.00,60.00,Monday
7,-6.1
718,19.727860849026474
719,6.5611008493584135
720,14.793099348682684
619,3877.8150767734987
633,1327.5151665060132
659,36.97263835214626
661,0.0
690,145.6627886837107
716,0.0
843,2840.1193560631473
844,2840.1193560631473
907,0.0
908,0.0
971,0.0
972,0.0
1195,324.89684559400666
1197,324.89684559400666
2,1, 2, 3, 0,13, 0.00,60.00,Monday
7,-6.1
718,19.739320446929757
719,9.490367466811088
720,14.662851366648862
619,3674.6837449336545
633,1272.769576693167
659,18.891035156134123
661,11.535026054158791
690,136.65617930983865
716,0.0
843,2620.709705540263
844,2620.709705540263
907,0.0
908,0.0
971,0.0
972,0.0
1195,0.0
1197,0.0
2,1, 2, 3, 0,14, 0.00,60.00,Monday
7,-6.1
718,19.700921585188212
719,11.14949961977428
720,14.570234258711908
619,3944.7491018527508
633,1350.7196221077922
659,20.04726370170279
661,0.0
690,145.6627886837107
716,79.72127055173004
843,2419.456936855224
844,2419.456936855224
907,0.0
908,0.0
971,0.0
972,0.0
1195,419.35710375535655
1197,419.35710375535655
2,1, 2, 3, 0,15, 0.00,60.00,Monday
7,-5.6
718,19.76809793730368
719,6.884373033686061
720,14.472337832428137
619,3212.792434049774
633,1114.2442551201236
659,2.513509884204071
661,38.353018252082464
690,117.65434803024509
716,0.0
843,2465.173289278837
844,2465.173289278837
907,0.0
908,0.0
971,0.0
972,0.0
1195,0.0
1197,0.0
2,1, 2, 3, 0,16, 0.00,60.00,Monday
7,-5.6
718,19.748742238347358
719,7.134290891936233
720,14.404978343130871
619,3139.3189289456377
633,1092.3210162674582
659,0.05536300472038034
661,42.20006758086101
690,114.92623356916407
716,0.0
843,2262.0381990521746
844,2262.0381990521746
907,0.0
908,0.0
971,0.0
972,0.0
1195,0.0
1197,0.0
2,1, 2, 3, 0,17, 0.00,60.00,Monday
7,-5.6
718,19.743576953518414
719,5.370393684744292
720,14.33257141748175
619,2906.586518817465
633,1017.3673764404324
659,0.051585004907153134
661,52.96841583467806
690,107.08360867887764
716,0.0
843,2099.746244882239
844,2099.746244882239
907,0.0
908,0.0
971,0.0
972,0.0
1195,0.0
1197,0.0
2,1, 2, 3, 0,18, 0.00,60.00,Monday
7,-7.0
718,19.667938209216015
719,1.5104189469395288
720,14.275062608270995
619,3298.093293298178
633,1176.2450285874731
659,32.37875758522819
661,21.537513822548316
690,128.8253092054537
716,0.0
843,2273.8448712289082
844,2273.8448712289082
907,0.0
908,0.0
971,0.0
972,0.0
1195,0.0
1197,0.0
2,1, 2, 3, 0,19, 0.00,60.00,Monday
7,-7.0
718,19.648153147217503
719,-0.5412194561834764
720,14.214620932258075
619,3743.118624189113
633,1303.0389539328676
659,45.993123218214386
661,0.0
690,145.6627886837107
716,85.44000000000007
843,2303.9030804135655
844,2303.9030804135655
907,0.0
908,0.0
971,0.0
972,0.0
1195,1080.8622083737537
1197,1080.8622083737537
2,1, 2, 3, 0,20, 0.00,60.00,Monday
7,-7.2
718,19.68516183606186
719,-1.939694873083254
720,14.136246881243123
619,3777.3976271798697
633,1319.7618339778967
659,31.4266477433169
661,0.0
690,145.6627886837107
716,85.44000000000007
843,2414.025414243544
844,2414.025414243544
907,0.0
908,0.0
971,0.0
972,0.0
1195,1324.7035576352464
1197,1324.7035576352464
2,1, 2, 3, 0,21, 0.00,60.00,Monday
7,-8.0
718,19.695364621387256
719,-2.8846633491217406
720,14.048187323340793
619,3649.413979290407
633,1297.9634882373769
659,41.53695887607283
661,0.0
690,145.6627886837107
716,61.9840461970366
843,2585.3035573320885
844,2585.3035573320885
907,0.0
908,0.0
971,0.0
972,0.0
1195,1375.3689215843046
1197,1375.3689215843046
2,1, 2, 3, 0,22, 0.00,60.00,Monday
7,-8.0
718,19.71125135632059
719,-3.9577430541454803
720,13.954741215173343
619,3682.9536151897078
633,1310.0309834738905
659,32.56824380502996
661,0.0
690,145.6627886837107
716,0.0
843,3088.3251304606
844,3088.3251304606
907,0.0
908,0.0
971,0.0
972,0.0
1195,1121.375549992082
1197,1121.375549992082
2,1, 2, 3, 0,23, 0.00,60.00,Monday
7,-8.3
718,18.966490949249362
719,-4.311090128894213
720,13.855387171594947
619,3700.8652238845866
633,1325.2445403091547
659,18.759405586297508
661,0.0
690,145.6627886837107
716,0.0
843,2212.2756286297554
844,2212.2756286297554
907,0.0
908,0.0
971,0.0
972,0.0
1195,125.34431367123216
1197,125.34431367123216
2,1, 2, 3, 0,24, 0.00,60.00,Monday
7,-7.8
718,18.72655090528831
719,-4.325102136786698
720,13.71818952802272
619,3763.8625549446856
633,1308.705643175078
659,21.349811476687364
661,0.0
690,145.6627886837107
716,0.0
843,2878.842947505953
844,2878.842947505953
907,0.0
908,0.0
971,0.0
972,0.0
1195,815.1566020758846
1197,815.1566020758846
2,2, 2, 4, 0, 1, 0.00,60.00,Tuesday
7,-8.3
718,18.645436427741366
719,-4.498579326191312
720,13.598828993742693
619,3703.69707582774
633,1293.6137094229887
659,23.90637130612956
661,0.0
690,145.6627886837107
716,0.0
843,3216.338216012424
844,3216.338216012424
907,0.0
908,0.0
971,0.0
972,0.0
1195,1266.2138456079238
1197,1266.2138456079238
2,2, 2, 4, 0, 2, 0.00,60.00,Tuesday
7,-8.3
718,18.617010002902454
719,-4.530776093676141
720,13.48065957567089
619,3705.611772819221
633,1291.4500862125049
659,23.90637130612956
661,0.0
690,145.6627886837107
716,0.0
843,3555.0047847120204
844,3555.0047847120204
907,0.0
908,0.0
971,0.0
972,0.0
1195,1668.650779724613
1197,1668.650779724613
2,2, 2, 4, 0, 3, 0.00,60.00,Tuesday
7,-8.9
718,18.608643733304334
719,-5.640667214689973
720,13.35288883057296
619,3664.1118911937883
633,1292.4043726431992
659,17.327815527682862
661,0.0
690,145.6627886837107
716,0.0
843,4143.196003276327
844,4143.196003276327
907,0.0
908,0.0
971,0.0
972,0.0
1195,2423.52083589576
1197,2423.52083589576
2,2, 2, 4, 0, 4, 0.00,60.00,Tuesday
7,-8.9
718,18.60483568704918
719,-5.010949060633404
720,13.239283512860993
619,3664.4426377300138
633,1292.0698268920141
659,17.321052202768456
661,0.0
690,145.6627886837107
716,0.0
843,4163.989983335829
844,4163.989983335829
907,0.0
908,0.0
971,0.0
972,0.0
1195,2502.397970080429
1197,2502.397970080429
2,2, 2, 4, 0, 5, 0.00,60.00,Tuesday
7,-8.9
718,18.60748318834015
719,-5.332309929807773
720,13.118370341684463
619,3664.664714928669
633,1291.8205832004219
659,17.321052202768456
661,0.0
690,145.6627886837107
716,0.0
843,4185.943051926655
844,4185.943051926655
907,0.0
908,0.0
971,0.0
972,0.0
1195,2505.995897279534
1197,2505.995897279534
2,2, 2, 4, 0, 6, 0.00,60.00,Tuesday
7,-8.9
718,19.385048515980717
719,-5.641661062202546
720,12.998257055801034
619,3678.441528629857
633,1296.5051523204752
659,13.603223117137503
661,0.0
690,145.6627886837107
716,0.0
843,5290.007624763508
844,5290.007624763508
907,0.0
908,0.0
971,0.0
972,0.0
1195,3821.535062253844
1197,3821.535062253844
2,2, 2, 4, 0, 7, 0.00,60.00,Tuesday
7,-10.0
718,19.57191723633934
719,-5.419560134108316
720,12.913467520418191
619,3535.502121507132
633,1301.048911705689
659,14.926810796587448
661,0.0
690,145.6627886837107
716,85.44000000000007
843,5094.926677109559
844,5094.926677109559
907,0.0
908,0.0
971,0.0
972,0.0
1195,4957.922468438022
1197,4957.922468438022
2,2, 2, 4, 0, 8, 0.00,60.00,Tuesday
7,-10.0
718,19.65457612340075
719,-5.583117143139236
720,12.804973924065735
619,3531.4870881887973
633,1305.4755195524183
659,14.926810796587448
661,0.0
690,145.6627886837107
716,85.44000000000007
843,4833.817968783504
844,4833.817968783504
907,0.0
908,0.0
971,0.0
972,0.0
1195,4739.230588856535
1197,4739.230588856535
2,2, 2, 4, 0, 9, 0.00,60.00,Tuesday
7,-9.4
718,19.680736799413086
719,-4.626152410925114
720,12.707436699766514
619,3603.7564221672314
633,1317.4528291271643
659,12.634370200718715
661,0.0
690,145.6627886837107
716,85.44000000000007
843,4603.250538106648
844,4603.250538106648
907,0.0
908,0.0
971,0.0
972,0.0
1195,4426.537175499807
1197,4426.537175499807
2,2, 2, 4, 0,10, 0.00,60.00,Tuesday
7,-8.3
718,19.705976981116102
719,-3.699221144360356
720,12.610410587048477
619,3747.074243429865
633,1338.3907499015334
659,6.940092258809511
661,0.0
690,145.6627886837107
716,27.37394639544652
843,3873.3885621330883
844,3873.3885621330883
907,0.0
908,0.0
971,0.0
972,0.0
1195,2478.939126700796
1197,2478.939126700796
2,2, 2, 4, 0,11, 0.00,60.00,Tuesday
7,-8.3
718,19.718018982494957
719,-3.079761502645354
720,12.521172634845971
619,3746.6312059893808
633,1338.8902701786453
659,6.940092258809511
661,0.0
690,145.6627886837107
716,0.0
843,3790.8778652197907
844,3790.8778652197907
907,0.0
908,0.0
971,0.0
972,0.0
1195,1986.9068433982352
1197,1986.9068433982352
2,2, 2, 4, 0,12, 0.00,60.00,Tuesday
7,-7.8
718,19.72068984303552
719,-1.8598052533084994
720,12.451212088762713
619,3816.1651064484167
633,1349.5014339718741
659,3.5218324346584913
661,0.0
690,145.6627886837107
716,0.0
843,3153.147230134542
844,3153.147230134542
907,0.0
908,0.0
971,0.0
972,0.0
1195,1118.1327556236768
1197,1118.1327556236768
2,2, 2, 4, 0,13, 0.00,60.00,Tuesday
7,-7.2
718,19.72329362909183
719,-0.4584703950518932
720,12.393086274044729
619,3882.4481681931093
633,1355.5227665878579
659,4.245705157594208
661,0.0
690,145.6627886837107
716,0.0
843,2912.9428488761714
844,2912.9428488761714
907,0.0
908,0.0
971,0.0
972,0.0
1195,703.1171894867093
1197,703.1171894867093
2,2, 2, 4, 0,14, 0.00,60.00,Tuesday
7,-7.2
718,19.722137421445073
719,0.018403597081349546
720,12.346136903736959
619,3882.4651562401536
633,1355.5033633417024
659,4.245705157594208
661,0.0
690,145.6627886837107
716,0.0
843,2713.0560894260307
844,2713.0560894260307
907,0.0
908,0.0
971,0.0
972,0.0
1195,387.19402148907693
1197,387.19402148907693
2,2, 2, 4, 0,15, 0.00,60.00,Tuesday
7,-7.2
718,19.72296977440529
719,0.5443115158218552
720,12.314030843480852
619,3849.0555408032133
633,1343.7430196810894
659,12.957729958407011
661,0.0
690,145.6627886837107
716,0.0
843,2617.7292303897593
844,2617.7292303897593
907,0.0
908,0.0
971,0.0
972,0.0
1195,282.69730413345405
1197,282.69730413345405
2,2, 2, 4, 0,16, 0.00,60.00,Tuesday
7,-7.8
718,19.72154728412158
719,2.874209006631134
720,12.285717923034746
619,3734.0210176015357
633,1320.282242281158
659,25.318329871974388
661,0.0
690,145.6627886837107
716,0.0
843,2637.367665242089
844,2637.367665242089
907,0.0
908,0.0
971,0.0
972,0.0
1195,390.7974140251945
1197,390.7974140251945
2,2, 2, 4, 0,17, 0.00,60.00,Tuesday
7,-7.8
718,19.724900283089156
719,1.9204194497491833
720,12.26265691042984
619,3734.0899485773402
633,1320.2040498107528
659,25.318329871974388
661,0.0
690,145.6627886837107
716,0.0
843,2474.2904240980843
844,2474.2904240980843
907,0.0
908,0.0
971,0.0
972,0.0
1195,72.03890728560918
1197,72.03890728560918
2,2, 2, 4, 0,18, 0.00,60.00,Tuesday
7,-7.8
718,19.717508158496486
719,0.0017439994402044124
720,12.237562482777735
619,3713.946846110623
633,1313.1441538677107
659,30.644472512490488
661,0.0
690,145.6627886837107
716,67.46587492762175
843,2703.0323324557485
844,2703.0323324557485
907,0.0
908,0.0
971,0.0
972,0.0
1195,1280.6186702184104
1197,1280.6186702184104
2,2, 2, 4, 0,19, 0.00,60.00,Tuesday
7,-7.2
718,19.72465764026833
719,-0.44146291893491313
720,12.212720774522815
619,3778.5917015531722
633,1318.8300336164725
659,31.35125069052366
661,0.0
690,145.6627886837107
716,0.0
843,2425.2081140175596
844,2425.2081140175596
907,0.0
908,0.0
971,0.0
972,0.0
1195,124.58893156280465
1197,124.58893156280465
2,2, 2, 4, 0,20, 0.00,60.00,Tuesday
7,-7.2
718,19.717117649103482
719,-0.7677333003568853
720,12.173102385944256
619,3778.4648512671893
633,1318.9749203544181
659,31.35125069052366
661,0.0
690,145.6627886837107
716,85.44000000000007
843,2411.796308181316
844,2411.796308181316
907,0.0
908,0.0
971,0.0
972,0.0
1195,1416.9544444766457
1197,1416.9544444766457
2,2, 2, 4, 0,21, 0.00,60.00,Tuesday
7,-7.2
718,19.705022939957047
719,-0.6276667971862662
720,12.12696745122137
619,3757.485350485457
633,1311.335017016662
659,36.86645446776595
661,0.0
690,145.6627886837107
716,85.44000000000007
843,2432.8860877294464
844,2432.8860877294464
907,0.0
908,0.0
971,0.0
972,0.0
1195,1475.1232852406872
1197,1475.1232852406872
2,2, 2, 4, 0,22, 0.00,60.00,Tuesday
7,-7.2
718,19.711534866880992
719,-1.0012208799298041
720,12.074272988986472
619,3757.787855167783
633,1310.950086365061
659,36.87333154209593
661,0.0
690,145.6627886837107
716,69.87592737435796
843,2769.905204576633
844,2769.905204576633
907,0.0
908,0.0
971,0.0
972,0.0
1195,1489.1450267445541
1197,1489.1450267445541
2,2, 2, 4, 0,23, 0.00,60.00,Tuesday
7,-7.2
718,18.969436912644774
719,-1.4409044125082877
720,12.002326052942802
619,3416.2766297715243
633,1214.0499403886497
659,34.14358128707134
661,14.806095033253008
690,133.6415327796813
716,0.0
843,2035.435263867881
844,2035.435263867881
907,0.0
908,0.0
971,0.0
972,0.0
1195,0.0
1197,0.0
2,2, 2, 4, 0,24, 0.00,60.00,Tuesday
7,-7.2
718,18.71587900612232
719,-1.3758926409487922
720,11.924122976038586
619,3795.3455455044045
633,1299.7365128835872
659,31.342276845102262
661,0.0
690,145.6627886837107
716,0.0
843,2405.8564467909273
844,2405.8564467909273
907,0.0
908,0.0
971,0.0
972,0.0
1195,107.51876525694115
1197,107.51876525694115
2,3, 2, 5, 0, 1, 0.00,60.00,Wednesday
7,-7.2
718,18.642249909977636
719,-1.574546145765194
720,11.848564718452412
619,3800.920442372382
633,1293.2938108781862
659,31.35434631159483
661,0.0
690,145.6627886837107
716,0.0
843,2891.7825382164883
844,2891.7825382164883
907,0.0
908,0.0
971,0.0
972,0.0
1195,656.6905837593245
1197,656.6905837593245
2,3, 2, 5, 0, 2, 0.00,60.00,Wednesday
7,-7.2
718,18.618235483762955
719,-1.6092362847510624
720,11.777042553384062
619,3802.6133020379457
633,1291.3582667538515
659,31.35434631159483
661,0.0
690,145.6627886837107
716,0.0
843,3204.254061350306
844,3204.254061350306
907,0.0
908,0.0
971,0.0
972,0.0
1195,1036.7714078403387
1197,1036.7714078403387
2,3, 2, 5, 0, 3, 0.00,60.00,Wednesday
7,-7.8
718,18.60868517167366
719,-2.12346958529055
720,11.700319562517468
619,3774.184057593294
633,1297.2108821146123
659,21.308523013615595
661,0.0
690,145.6627886837107
716,0.0
843,3639.8283181873503
844,3639.8283181873503
907,0.0
908,0.0
971,0.0
972,0.0
1195,1583.3766371000147
1197,1583.3766371000147
2,3, 2, 5, 0, 4, 0.00,60.00,Wednesday
7,-8.3
718,18.607537024825987
719,-1.8924943208614604
720,11.626299848158046
619,3675.5291053505935
633,1276.4435885476714
659,32.76753109335815
661,0.0
690,145.6627886837107
716,0.0
843,3797.2082872246137
844,3797.2082872246137
907,0.0
908,0.0
971,0.0
972,0.0
1195,1905.3361834371735
1197,1905.3361834371735
2,3, 2, 5, 0, 5, 0.00,60.00,Wednesday
7,-8.3
718,18.606032620722164
719,-2.064775214663826
720,11.55522223009968
619,3675.6441064415435
633,1276.313591548727
659,32.76753109335815
661,0.0
690,145.6627886837107
716,0.0
843,3805.6945889467115
844,3805.6945889467115
907,0.0
908,0.0
971,0.0
972,0.0
1195,1897.2310876337112
1197,1897.2310876337112
2,3, 2, 5, 0, 6, 0.00,60.00,Wednesday
7,-9.4
718,19.263332776939745
719,-2.0165938557946004
720,11.475052855028999
619,3536.106191715579
633,1257.1934372430323
659,38.1243234156264
661,0.0
690,145.6627886837107
716,75.05744776407506
843,5002.670500964468
844,5002.670500964468
907,0.0
908,0.0
971,0.0
972,0.0
1195,4399.110685105856
1197,4399.110685105856
2,3, 2, 5, 0, 7, 0.00,60.00,Wednesday
7,-9.4
718,19.5337782233826
719,-2.232065419430281
720,11.4379632630864
619,3522.1120573484295
633,1272.7522678559776
659,38.13142193611823
661,0.0
690,145.6627886837107
716,85.44000000000007
843,4783.493752811397
844,4783.493752811397
907,0.0
908,0.0
971,0.0
972,0.0
1195,4473.470904984857
1197,4473.470904984857
2,3, 2, 5, 0, 8, 0.00,60.00,Wednesday
7,-9.4
718,19.636787465759436
719,-2.459670698876586
720,11.375724379127972
619,3516.3297638439644
633,1279.1861503355094
659,38.13142193611823
661,0.0
690,145.6627886837107
716,77.32121307877803
843,4532.2181671902035
844,4532.2181671902035
907,0.0
908,0.0
971,0.0
972,0.0
1195,4131.839792442548
1197,4131.839792442548
2,3, 2, 5, 0, 9, 0.00,60.00,Wednesday
7,-9.0
718,19.694383651644873
719,-2.4919858497368415
720,11.315672385857614
619,3559.88197596067
633,1287.0509583806247
659,37.44021874783805
661,0.0
690,145.6627886837107
716,0.0
843,4375.71795276788
844,4375.71795276788
907,0.0
908,0.0
971,0.0
972,0.0
1195,2814.9628845627817
1197,2814.9628845627817
2,3, 2, 5, 0,10, 0.00,60.00,Wednesday
7,-6.7
718,19.719629306159533
719,2.663547550407677
720,11.272224098978915
619,3846.8337970211746
633,1326.0780901163228
659,28.75967241731036
661,0.0
690,145.6627886837107
716,0.0
843,3094.4030501786383
844,3094.4030501786383
907,0.0
908,0.0
971,0.0
972,0.0
1195,1013.7775749856587
1197,1013.7775749856587
2,3, 2, 5, 0,11, 0.00,60.00,Wednesday
7,-6.7
718,19.721834934035304
719,6.158359295387546
720,11.220151897077432
619,3846.3334467667273
633,1326.6526790099392
659,28.75967241731036
661,0.0
690,145.6627886837107
716,0.0
843,2772.619322238299
844,2772.619322238299
907,0.0
908,0.0
971,0.0
972,0.0
1195,348.47256643735636
1197,348.47256643735636
2,3, 2, 5, 0,12, 0.00,60.00,Wednesday
7,-3.3
718,19.80911957872081
719,10.63889622422916
720,11.115555612074699
619,2748.1892878006597
633,922.252592375579
659,1.5131795804955392
661,68.47562275430886
690,95.75621788543971
716,0.0
843,1928.40211556145
844,1928.40211556145
907,0.0
908,0.0
971,0.0
972,0.0
1195,0.0
1197,0.0
2,3, 2, 5, 0,13, 0.00,60.00,Wednesday
7,-4.4
718,19.723540996308127
719,10.717753078738417
720,11.077843308375389
619,2106.1351396096165
633,735.9110646699597
659,5.473939521498547
661,93.40849230320096
690,77.48753027781241
716,0.0
843,1568.3683634881218
844,1568.3683634881218
907,0.0
908,0.0
971,0.0
972,0.0
1195,0.0
1197,0.0
2,3, 2, 5, 0,14, 0.00,60.00,Wednesday
7,-4.4
718,19.756405610048468
719,11.370013907438091
720,11.059629963962967
619,1705.4688195843025
633,601.3882634408457
659,4.48062222877578
661,112.75090327372568
690,63.42646748739687
716,0.0
843,1275.5108357972858
844,1275.5108357972858
907,0.0
908,0.0
971,0.0
972,0.0
1195,0.0
1197,0.0
2,3, 2, 5, 0,15, 0.00,60.00,Wednesday
7,-3.9
718,19.637748972668533
719,11.123686375431065
720,11.148158713885818
619,2540.6343060216
633,867.8969287889188
659,7.065786680605407
661,74.55034561285198
690,91.19060421938373
716,73.28361423081367
843,1107.4403851464158
844,1107.4403851464158
907,0.0
908,0.0
971,0.0
972,0.0
1195,0.0
1197,0.0
2,3, 2, 5, 0,16, 0.00,60.00,Wednesday
7,-3.9
718,19.667985007249843
719,7.753664391710592
720,11.188641571592335
619,2792.8928576132685
633,944.8863757492451
659,7.70851930740683
661,63.11265863137074
690,99.50493029783513
716,85.24447997912314
843,1148.4954145474003
844,1148.4954145474003
907,0.0
908,0.0
971,0.0
972,0.0
1195,0.0
1197,0.0
2,3, 2, 5, 0,17, 0.00,60.00,Wednesday
7,-3.9
718,19.823651286517105
719,5.138168173060552
720,11.157317942110396
619,1733.0283002900353
633,604.189802517355
659,4.924995781596311
661,112.54227278815416
690,63.573966234892254
716,0.0
843,1244.437232575243
844,1244.437232575243
907,0.0
908,0.0
971,0.0
972,0.0
1195,0.0
1197,0.0
2,3, 2, 5, 0,18, 0.00,60.00,Wednesday
7,-4.4
718,19.69061399875613
719,1.7762196019756527
720,11.22016548178334
619,1910.1079761015203
633,673.152966863181
659,15.925943231550546
661,100.37949442347553
690,72.1268554982062
716,0.0
843,1307.6142276216524
844,1307.6142276216524
907,0.0
908,0.0
971,0.0
972,0.0
1195,0.0
1197,0.0
2,3, 2, 5, 0,19, 0.00,60.00,Wednesday
7,-3.9
718,19.82029666481894
719,0.9657604380599966
720,11.241847429595804
619,2081.027919676174
633,721.142894696628
659,21.101215944289784
661,92.65576142597884
690,77.64203088862355
716,0.0
843,1356.32153278254
844,1356.32153278254
907,0.0
908,0.0
971,0.0
972,0.0
1195,0.0
1197,0.0
2,3, 2, 5, 0,20, 0.00,60.00,Wednesday
7,-3.9
718,19.658183154178023
719,1.0191379514275587
720,11.361789184189732
619,3684.26499664991
633,1224.6383236541915
659,35.752803816068415
661,18.121500075886043
690,131.55205359680357
716,85.44000000000007
843,1308.5759813967761
844,1308.5759813967761
907,0.0
908,0.0
971,0.0
972,0.0
1195,0.0
1197,0.0
2,3, 2, 5, 0,21, 0.00,60.00,Wednesday
7,-3.9
718,19.532969051574014
719,0.09145545733265613
720,11.353361700472957
619,4128.722116841126
633,1342.4642087329428
659,39.31118082152609
661,0.0
690,145.6627886837107
716,85.44000000000007
843,1786.5679450288844
844,1786.5679450288844
907,0.0
908,0.0
971,0.0
972,0.0
1195,235.56906162950554
1197,235.56906162950554
2,3, 2, 5, 0,22, 0.00,60.00,Wednesday
7,-3.0
718,19.648036202790617
719,0.6854461775016968
720,11.332924436725698
619,4141.986440366842
633,1329.5211115779064
659,42.729546160268605
661,2.1545527370678386
690,143.1139421814683
716,36.584715591327175
843,2219.290377640222
844,2219.290377640222
907,0.0
908,0.0
971,0.0
972,0.0
1195,0.0
1197,0.0
2,3, 2, 5, 0,23, 0.00,60.00,Wednesday
7,-3.3
718,18.924329269143776
719,-0.03829852874545493
720,11.219761363121806
619,2851.549985956042
633,956.5688326319188
659,41.08796124609961
661,55.59814205707454
690,104.17993433158503
716,0.0
843,1802.9335829815645
844,1802.9335829815645
907,0.0
908,0.0
971,0.0
972,0.0
1195,0.0
1197,0.0
2,3, 2, 5, 0,24, 0.00,60.00,Wednesday
7,-3.0
718,18.68268473653068
719,-0.42902051527224966
720,11.206644772936922
619,3530.540405758264
633,1135.4278676469032
659,47.357793109445325
661,26.94962897067836
690,124.94176293859411
716,0.0
843,2275.8273454366445
844,2275.8273454366445
907,0.0
908,0.0
971,0.0
972,0.0
1195,0.0
1197,0.0
2,4, 2, 6, 0, 1, 0.00,60.00,Thursday
7,-2.0
718,18.65632270172075
719,0.3603118436317976
720,11.157415594843124
619,3836.7097140297333
633,1195.1999962542739
659,43.186679106708496
661,19.794083578265532
690,130.37726404475433
716,0.0
843,2496.2112923686345
844,2496.2112923686345
907,0.0
908,0.0
971,0.0
972,0.0
1195,0.0
1197,0.0
2,4, 2, 6, 0, 2, 0.00,60.00,Thursday
7,-2.2
718,18.632001919598
719,0.5827885413383775
720,11.115759858065395
619,3986.8763005025144
633,1240.78912548532
659,52.149683788701914
661,11.069926597184532
690,136.51542728675403
716,0.0
843,2617.9592584652437
844,2617.9592584652437
907,0.0
908,0.0
971,0.0
972,0.0
1195,0.0
1197,0.0
2,4, 2, 6, 0, 3, 0.00,60.00,Thursday
7,-3.0
718,18.611101632419768
719,-0.23681115742597836
720,11.067858123406623
619,4191.1987530291635
633,1304.4991929585728
659,54.732957609690445
661,0.0
690,145.6627886837107
716,0.0
843,2849.269825920568
844,2849.269825920568
907,0.0
908,0.0
971,0.0
972,0.0
1195,124.87476807077155
1197,124.87476807077155
2,4, 2, 6, 0, 4, 0.00,60.00,Thursday
7,-2.8
718,18.609045483257326
719,0.09266905315434187
720,11.015835959168042
619,4193.719583293829
633,1299.4370094392073
659,59.63904458367317
661,0.0
690,145.6627886837107
716,0.0
843,3113.97596120478
844,3113.97596120478
907,0.0
908,0.0
971,0.0
972,0.0
1195,482.2953931584666
1197,482.2953931584666
2,4, 2, 6, 0, 5, 0.00,60.00,Thursday
7,-2.8
718,18.609494963443964
719,-0.0005635722913336041
720,10.963645744324284
619,4193.827968060257
633,1299.3094082021014
659,59.63904458367317
661,0.0
690,145.6627886837107
716,0.0
843,3116.358171098029
844,3116.358171098029
907,0.0
908,0.0
971,0.0
972,0.0
1195,466.73848965310845
1197,466.73848965310845
2,4, 2, 6, 0, 6, 0.00,60.00,Thursday
7,-3.0
718,19.378313298919217
719,-0.1796912726259083
720,10.910253188616995
619,4242.256898526111
633,1319.3740384508742
659,43.19487433388547
661,0.0
690,145.6627886837107
716,0.0
843,4021.4109988834516
844,4021.4109988834516
907,0.0
908,0.0
971,0.0
972,0.0
1195,1505.6336035961258
1197,1505.6336035961258
2,4, 2, 6, 0, 7, 0.00,60.00,Thursday
7,-3.9
718,19.578718216969463
719,-0.4337210357575306
720,10.894917928430196
619,4159.650154386579
633,1342.2236185179408
659,33.62605433155256
661,0.0
690,145.6627886837107
716,85.44000000000007
843,4164.509771807143
844,4164.509771807143
907,0.0
908,0.0
971,0.0
972,0.0
1195,3109.3235616197344
1197,3109.3235616197344
2,4, 2, 6, 0, 8, 0.00,60.00,Thursday
7,-3.9
718,19.65042549382468
719,-0.6236263478433789
720,10.851724136445982
619,4155.198957436729
633,1347.4532267518325
659,33.62605433155256
661,0.0
690,145.6627886837107
716,85.44000000000007
843,3905.7314984186432
844,3905.7314984186432
907,0.0
908,0.0
971,0.0
972,0.0
1195,2890.599923088667
1197,2890.599923088667
2,4, 2, 6, 0, 9, 0.00,60.00,Thursday
7,-4.4
718,19.690987621859712
719,-0.4581783940216764
720,10.806507037823152
619,4124.886185631044
633,1353.4966814975223
659,26.39102273279064
661,0.0
690,145.6627886837107
716,76.28024498237262
843,3326.516515296402
844,3326.516515296402
907,0.0
908,0.0
971,0.0
972,0.0
1195,1982.0627049831419
1197,1982.0627049831419
2,4, 2, 6, 0,10, 0.00,60.00,Thursday
7,-4.4
718,19.728309123271494
719,1.5841512283074883
720,10.759966870767746
619,3885.261265334819
633,1290.3592050168752