Program Version,EnergyPlus, Version 22.2.0-c249759bad, YMD=2023.09.01 14:31
1,5,Environment Title[],Latitude[deg],Longitude[deg],Time Zone[],Elevation[m]
2,8,Day of Simulation[],Month[],Day of Month[],DST Indicator[1=yes 0=no],Hour[],StartMinute[],EndMinute[],DayType
3,5,Cumulative Day of Simulation[],Month[],Day of Month[],DST Indicator[1=yes 0=no],DayType  ! When Daily Report Variables Requested
4,2,Cumulative Days of Simulation[],Month[]  ! When Monthly Report Variables Requested
5,1,Cumulative Days of Simulation[] ! When Run Period Report Variables Requested
6,1,Calendar Year of Simulation[] ! When Annual Report Variables Requested
7,1,Environment,Site Outdoor Air Drybulb Temperature [C] !Hourly
545,1,LIVING,Zone Mean Air Temperature [C] !Hourly
546,1,ATTIC,Zone Mean Air Temperature [C] !Hourly
547,1,CRAWLSPACE,Zone Mean Air Temperature [C] !Hourly
548,1,FAN,Fan Electricity Rate [W] !Hourly
720,1,LIVING,Zone Predicted Sensible Load to Heating Setpoint Heat Transfer Rate [W] !Hourly
721,1,LIVING,Zone System Predicted Sensible Load to Heating Setpoint Heat Transfer Rate [W] !Hourly
784,1,ATTIC,Zone Predicted Sensible Load to Heating Setpoint Heat Transfer Rate [W] !Hourly
785,1,ATTIC,Zone System Predicted Sensible Load to Heating Setpoint Heat Transfer Rate [W] !Hourly
848,1,CRAWLSPACE,Zone Predicted Sensible Load to Heating Setpoint Heat Transfer Rate [W] !Hourly
849,1,CRAWLSPACE,Zone System Predicted Sensible Load to Heating Setpoint Heat Transfer Rate [W] !Hourly
1121,1,DX_HEATING_COIL,Heating Coil Heating Rate [W] !Hourly
1135,1,DX_HEATING_COIL,Heating Coil Electricity Rate [W] !Hourly
1161,1,DX_HEATING_COIL,Heating Coil Defrost Electricity Rate [W] !Hourly
1163,1,DX_HEATING_COIL,Heating Coil Crankcase Heater Electricity Rate [W] !Hourly
1166,1,HEATING_RESISTANCE_BACKUP,Heating Coil Heating Rate [W] !Hourly
1168,1,HEATING_RESISTANCE_BACKUP,Heating Coil Electricity Rate [W] !Hourly
End of Data Dictionary
1,EXTREME_WINTER,  41.17, -73.13,  -5.00,   5.00
2,1, 1, 8, 0, 1, 0.00,60.00,Monday
7,-1.1
545,18.797946282431013
546,-0.9846792838736287
547,18.473972184163642
548,90.86952304914007
720,1744.2112817343295
721,1744.2112817343295
784,0.0
785,0.0
848,0.0
849,0.0
1121,2822.066304131836
1135,892.8007951483107
1161,35.693262873253566
1163,56.842330586088785
1166,0.0
1168,0.0
2,1, 1, 8, 0, 2, 0.00,60.00,Monday
7,-1.1
545,18.664089273277245
546,-0.1955721890506094
547,18.081394273944607
548,93.91601542565071
720,1909.7049698717874
721,1909.7049698717874
784,0.0
785,0.0
848,0.0
849,0.0
1121,2923.8024474435483
1135,924.2873732556905
1161,36.89001978073043
1163,52.04240712888735
1166,0.0
1168,0.0
2,1, 1, 8, 0, 3, 0.00,60.00,Monday
7,-1.1
545,18.603750318301188
546,0.4849362115937915
547,17.876322605705916
548,100.17002648599329
720,2132.895114654548
721,2132.895114654548
784,0.0
785,0.0
848,0.0
849,0.0
1121,3167.75618638555
1135,990.6731500874422
1161,32.870251695081855
1163,42.36788205799578
1166,0.0
1168,0.0
2,1, 1, 8, 0, 4, 0.00,60.00,Monday
7,-1.1
545,18.5995271434273
546,0.9804929285113201
547,17.663468454872685
548,104.61440695150574
720,2261.331069936852
721,2261.331069936852
784,0.0
785,0.0
848,0.0
849,0.0
1121,3323.413742710802
1135,1033.1347960711453
1161,34.34836151260808
1163,35.3737900567624
1166,0.0
1168,0.0
2,1, 1, 8, 0, 5, 0.00,60.00,Monday
7,-2.0
545,18.559421013377673
546,1.0207213113430387
547,17.471869140743113
548,116.60014156175863
720,2413.631035961287
721,2413.631035961287
784,0.0
785,0.0
848,0.0
849,0.0
1121,3545.365515833341
1135,1112.9441432161711
1161,63.99910745372082
1163,15.56382312324125
1166,0.0
1168,0.0
2,1, 1, 8, 0, 6, 0.00,60.00,Monday
7,-2.0
545,19.33506587394911
546,1.669698785751368
547,17.302225663755024
548,127.7895385604455
720,3402.234899002964
721,3402.234899002964
784,0.0
785,0.0
848,0.0
849,0.0
1121,3924.031352367955
1135,1205.5993425633753
1161,69.39973332507903
1163,0.0
1166,854.9812868377712
1168,854.9812868377712
2,1, 1, 8, 0, 7, 0.00,60.00,Monday
7,-2.0
545,19.60694859504474
546,1.8873298797635445
547,17.18196452575552
548,127.7895385604455
720,3278.8408330851507
721,3278.8408330851507
784,0.0
785,0.0
848,0.0
849,0.0
1121,3908.636465799866
1135,1223.8391712995162
1161,69.39973332507903
1163,0.0
1166,795.9948205754108
1168,795.9948205754108
2,1, 1, 8, 0, 8, 0.00,60.00,Monday
7,-2.2
545,19.689141062363827
546,1.859912195190652
547,17.044470461375674
548,127.7895385604455
720,3076.47417251524
721,3076.47417251524
784,0.0
785,0.0
848,0.0
849,0.0
1121,3869.757670625839
1135,1224.3801674050046
1161,72.05948705177491
1163,0.0
1166,616.3634081104756
1168,616.3634081104756
2,1, 1, 8, 0, 9, 0.00,60.00,Monday
7,-2.0
545,19.714091060523767
546,2.441549843389438
547,16.918313770119667
548,127.7895385604455
720,2884.0764716741505
721,2884.0764716741505
784,0.0
785,0.0
848,0.0
849,0.0
1121,3901.7720166117183
1135,1231.9952404613737
1161,69.39973332507903
1163,0.0
1166,367.12414017480205
1168,367.12414017480205
2,1, 1, 8, 0,10, 0.00,60.00,Monday
7,-2.0
545,19.785129817276637
546,4.806605659299435
547,16.795334049681774
548,114.17030666368358
720,2233.587124494892
721,2233.587124494892
784,0.0
785,0.0
848,0.0
849,0.0
1121,3444.265809915332
1135,1112.977604870499
1161,62.66909720438026
1163,19.396720414389577
1166,0.0
1168,0.0
2,1, 1, 8, 0,11, 0.00,60.00,Monday
7,-1.0
545,19.869057599631248
546,7.22873392360128
547,16.690518596328065
548,85.21439861129036
720,1702.8032022074694
721,1702.8032022074694
784,0.0
785,0.0
848,0.0
849,0.0
1121,2590.485913918996
1135,843.8203125776159
1161,41.87771916384015
1163,65.52741360667483
1166,0.0
1168,0.0
2,1, 1, 8, 0,12, 0.00,60.00,Monday
7,-1.0
545,19.871806223816577
546,10.382906614285618
547,16.59874699896626
548,68.46924481624471
720,1408.8927042352152
721,1408.8927042352152
784,0.0
785,0.0
848,0.0
849,0.0
1121,2048.411337615213
1135,679.1097485015022
1161,33.648606659366685
1163,91.95172859548396
1166,0.0
1168,0.0
2,1, 1, 8, 0,13, 0.00,60.00,Monday
7,-1.0
545,19.75855610637174
546,10.222933308295335
547,16.52199464638241
548,61.93558640538936
720,1356.2466767777569
721,1356.2466767777569
784,0.0
785,0.0
848,0.0
849,0.0
1121,1841.8453070200608
1135,614.2961695032401
1161,30.437696811977474
1163,102.262207782876
1166,0.0
1168,0.0
2,1, 1, 8, 0,14, 0.00,60.00,Monday
7,-0.6
545,19.796406426144163
546,9.816573467551109
547,16.45552016741162
548,55.12601536115325
720,1269.2416244369633
721,1269.2416244369633
784,0.0
785,0.0
848,0.0
849,0.0
1121,1689.858405819293
1135,559.4560028401576
1161,17.249235548332674
1163,113.30445918348869
1166,0.0
1168,0.0
2,1, 1, 8, 0,15, 0.00,60.00,Monday
7,-1.0
545,19.628446863595162
546,6.021425596509219
547,16.396187813962992
548,54.217566784380274
720,1199.9862112151422
721,1199.9862112151422
784,0.0
785,0.0
848,0.0
849,0.0
1121,1601.6597725825861
1135,536.8836881018715
1161,26.644652877558755
1163,114.44196442552568
1166,0.0
1168,0.0
2,1, 1, 8, 0,16, 0.00,60.00,Monday
7,-1.0
545,19.766505705025235
546,6.76324634935631
547,16.343679884828028
548,56.42328585007281
720,1250.6201852671493
721,1250.6201852671493
784,0.0
785,0.0
848,0.0
849,0.0
1121,1717.7288420696511
1135,570.3801821980327
1161,16.769206460997967
1163,111.2614958263062
1166,0.0
1168,0.0
2,1, 1, 8, 0,17, 0.00,60.00,Monday
7,-0.6
545,19.67599052134569
546,4.601401143935842
547,16.294561597528936
548,52.856324611431305
720,1173.70226214787
721,1173.70226214787
784,0.0
785,0.0
848,0.0
849,0.0
1121,1628.706109674166
1135,539.8635201310474
1161,13.782328278335767
1163,116.9431177990022
1166,0.0
1168,0.0
2,1, 1, 8, 0,18, 0.00,60.00,Monday
7,-1.0
545,19.343158822674024
546,3.1546521223970294
547,16.24102066458912
548,68.5192167796219
720,1514.5023798628408
721,1514.5023798628408
784,0.0
785,0.0
848,0.0
849,0.0
1121,2108.7864262641306
1135,693.1483973494223
1161,20.364179465237648
1163,92.23778545080317
1166,0.0
1168,0.0
2,1, 1, 8, 0,19, 0.00,60.00,Monday
7,-2.0
545,19.341994543752982
546,1.9814046656297768
547,16.17123379333475
548,90.42376505823471
720,2024.9086776031254
721,2024.9086776031254
784,0.0
785,0.0
848,0.0
849,0.0
1121,2845.4691537480294
1135,923.6067654808505
1161,8.491088424315333
1163,58.234580169198495
1166,0.0
1168,0.0
2,1, 1, 8, 0,20, 0.00,60.00,Monday
7,-3.9
545,19.606284253637337
546,0.7493900368673978
547,16.10067949692633
548,103.27980652749869
720,2136.8973444234725
721,2136.8973444234725
784,0.0
785,0.0
848,0.0
849,0.0
1121,3124.1504140983498
1135,1040.036637490175
1161,8.288681313420792
1163,38.05512380608123
1166,0.0
1168,0.0
2,1, 1, 8, 0,21, 0.00,60.00,Monday
7,-5.0
545,19.618095681228326
546,-0.512979028770316
547,16.0282071527626
548,113.91952042548152
720,2234.793363001847
721,2234.793363001847
784,0.0
785,0.0
848,0.0
849,0.0
1121,3391.8545683377574
1135,1149.1575559622363
1161,3.139864475822783
1163,21.57741219232896
1166,0.0
1168,0.0
2,1, 1, 8, 0,22, 0.00,60.00,Monday
7,-5.6
545,19.615717827333842
546,-1.749709927788406
547,15.936550141471496
548,127.7895385604455
720,2568.2424313696465
721,2568.2424313696465
784,0.0
785,0.0
848,0.0
849,0.0
1121,3791.7031189469
1135,1282.631535775308
1161,2.815742947188143
1163,0.0
1166,180.57179848737906
1168,180.57179848737906
2,1, 1, 8, 0,23, 0.00,60.00,Monday
7,-6.1
545,18.91015624213857
546,-2.553546229074737
547,15.834335638450575
548,124.68475701532465
720,2205.9215019926833
721,2205.9215019926833
784,0.0
785,0.0
848,0.0
849,0.0
1121,3637.4292938742965
1135,1247.3670155479526
1161,2.215016756390311
1163,4.7559650427483335
1166,0.0
1168,0.0
2,1, 1, 8, 0,24, 0.00,60.00,Monday
7,-5.6
545,18.712517810016067
546,-1.7058898017157347
547,15.704707236672464
548,124.4607638198003
720,2262.929621406831
721,2262.929621406831
784,0.0
785,0.0
848,0.0
849,0.0
1121,3696.1475799468863
1135,1232.7854486117296
1161,2.741133278208003
1163,5.08900979629654
1166,0.0
1168,0.0
2,2, 1, 9, 0, 1, 0.00,60.00,Tuesday
7,-6.1
545,18.59573010422375
546,-2.0342974842681225
547,15.577050277245359
548,127.7895385604455
720,3330.176414493473
721,3330.176414493473
784,0.0
785,0.0
848,0.0
849,0.0
1121,3758.3631132004116
1135,1255.3490036157953
1161,2.2676239033684773
1163,0.0
1166,1170.2191953720367
1168,1170.2191953720367
2,2, 1, 9, 0, 2, 0.00,60.00,Tuesday
7,-6.1
545,18.58354157311642
546,-2.153060106591941
547,15.45609024275525
548,127.7895385604455
720,3714.288897185841
721,3714.288897185841
784,0.0
785,0.0
848,0.0
849,0.0
1121,3760.967393408146
1135,1252.3413698747324
1161,2.2676239033684773
1163,0.0
1166,1652.0996202174774
1168,1652.0996202174774
2,2, 1, 9, 0, 3, 0.00,60.00,Tuesday
7,-6.7
545,18.585435290159964
546,-2.8295587615370947
547,15.331842875689272
548,127.7895385604455
720,3876.713195410861
721,3876.713195410861
784,0.0
785,0.0
848,0.0
849,0.0
1121,3681.837739245909
1135,1240.8718502615786
1161,5.821594601890711
1163,0.0
1166,1938.6830092088826
1168,1938.6830092088826
2,2, 1, 9, 0, 4, 0.00,60.00,Tuesday
7,-7.2
545,18.59076696755395
546,-2.8475141215887474
547,15.213385905856164
548,127.7895385604455
720,3746.1247806921183
721,3746.1247806921183
784,0.0
785,0.0
848,0.0
849,0.0
1121,3635.583310518449
1135,1238.1270716951599
1161,3.8505231448663255
1163,0.0
1166,1867.409588355264
1168,1867.409588355264
2,2, 1, 9, 0, 5, 0.00,60.00,Tuesday
7,-7.2
545,18.592191267861057
546,-3.178928855007425
547,15.092726773027533
548,127.7895385604455
720,3770.7370283501805
721,3770.7370283501805
784,0.0
785,0.0
848,0.0
849,0.0
1121,3645.9083193453303
1135,1241.593014495645
1161,1.1875273442952103
1163,0.0
1166,1891.639712826084
1168,1891.639712826084
2,2, 1, 9, 0, 6, 0.00,60.00,Tuesday
7,-7.8
545,19.359166061966874
546,-3.362547184704252
547,14.968873174854453
548,127.7895385604455
720,5012.173326829059
721,5012.173326829059
784,0.0
785,0.0
848,0.0
849,0.0
1121,3573.9421787739448
1135,1232.5067280528087
1161,3.1925220758819415
1163,0.0
1166,3427.5079984391673
1168,3427.5079984391673
2,2, 1, 9, 0, 7, 0.00,60.00,Tuesday
7,-7.2
545,19.606257180582745
546,-3.278866848981802
547,14.893300700285694
548,127.7895385604455
720,4550.374625547049
721,4550.374625547049
784,0.0
785,0.0
848,0.0
849,0.0
1121,3619.903636696145
1135,1256.096466315957
1161,3.8421815125768313
1163,0.0
1166,2942.8923616177353
1168,2942.8923616177353
2,2, 1, 9, 0, 8, 0.00,60.00,Tuesday
7,-7.2
545,19.684067326875205
546,-3.174006886113578
547,14.785635105930979
548,127.7895385604455
720,4043.7498211532857
721,4043.7498211532857
784,0.0
785,0.0
848,0.0
849,0.0
1121,3614.801786718004
1135,1261.924661239593
1161,3.8421815125768313
1163,0.0
1166,2375.1935125655327
1168,2375.1935125655327
2,2, 1, 9, 0, 9, 0.00,60.00,Tuesday
7,-6.7
545,19.71511671426777
546,-1.7068142981935366
547,14.688986722921927
548,127.7895385604455
720,3401.849786252549
721,3401.849786252549
784,0.0
785,0.0
848,0.0
849,0.0
1121,3675.8629602180886
1135,1272.0286456623874
1161,1.6519174129884107
1163,0.0
1166,1565.0952521404656
1168,1565.0952521404656
2,2, 1, 9, 0,10, 0.00,60.00,Tuesday
7,-5.6
545,19.734062921418015
546,0.022744481880399816
547,14.60674211425336
548,127.7895385604455
720,2895.643266074725
721,2895.643266074725
784,0.0
785,0.0
848,0.0
849,0.0
1121,3802.4492986569517
1135,1286.75682984185
1161,0.06532185833060936
1163,0.0
1166,779.3715215338561
1168,779.3715215338561
2,2, 1, 9, 0,11, 0.00,60.00,Tuesday
7,-5.0
545,19.753455464395174
546,1.5784834691194904
547,14.548703062349011
548,127.28997705912082
720,2353.5647672390587
721,2353.5647672390587
784,0.0
785,0.0
848,0.0
849,0.0
1121,3852.045667021316
1135,1288.615476347188
1161,0.06506737741450636
1163,0.7791600625169481
1166,0.0
1168,0.0
2,2, 1, 9, 0,12, 0.00,60.00,Tuesday
7,-3.9
545,19.856620147181165
546,3.5496530457281312
547,14.500511719080164
548,103.70977459135742
720,1939.6934538895257
721,1939.6934538895257
784,0.0
785,0.0
848,0.0
849,0.0
1121,3166.691575776695
1135,1060.1684594006867
1161,0.05301369697844006
1163,37.68466380694433
1166,0.0
1168,0.0
2,2, 1, 9, 0,13, 0.00,60.00,Tuesday
7,-3.3
545,19.864012529169297
546,3.9289296469649337
547,14.47404753411251
548,82.49350856898572
720,1574.783510074516
721,1574.783510074516
784,0.0
785,0.0
848,0.0
849,0.0
1121,2510.425529604402
1135,849.3204200002816
1161,0.04216846741547661
1163,70.89017828595128
1166,0.0
1168,0.0
2,2, 1, 9, 0,14, 0.00,60.00,Tuesday
7,-3.3
545,19.833799382589973
546,3.7608265807431547
547,14.46436901291016
548,70.01102592133422
720,1352.3315889770256
721,1352.3315889770256
784,0.0
785,0.0
848,0.0
849,0.0
1121,2106.0931597442386
1135,720.9394259035297
1161,0.03578775734194996
1163,90.4263955234719
1166,0.0
1168,0.0
2,2, 1, 9, 0,15, 0.00,60.00,Tuesday
7,-2.8
545,20.10378789498694
546,3.7289349124578677
547,14.456077657103066
548,43.71247814960843
720,798.5149264697156
721,798.5149264697156
784,0.0
785,0.0
848,0.0
849,0.0
1121,1302.4452354141122
1135,451.86380315451504
1161,0.022344630479515803
1163,131.58605388590036
1166,0.0
1168,0.0
2,2, 1, 9, 0,16, 0.00,60.00,Tuesday
7,-3.3
545,19.75408990504578
546,2.4912323690250577
547,14.474612056413646
548,41.64857614879051
720,788.8064236575774
721,788.8064236575774
784,0.0
785,0.0
848,0.0
849,0.0
1121,1219.5285881108546
1135,430.96434142978717
1161,0.02128963458717701
1163,134.81620048399375
1166,0.0
1168,0.0
2,2, 1, 9, 0,17, 0.00,60.00,Tuesday
7,-4.4
545,19.701245104555763
546,0.9753632559764635
547,14.498568903586191
548,63.10296224642164
720,1250.621331156508
721,1250.621331156508
784,0.0
785,0.0
848,0.0
849,0.0
1121,1829.0892640233128
1135,642.4871847774574
1161,0.03225659033425792
1163,101.23798936950111
1166,0.0
1168,0.0
2,2, 1, 9, 0,18, 0.00,60.00,Tuesday
7,-5.6
545,19.563199564091217
546,-0.45559150734483317
547,14.51013326792437
548,86.90664640351326
720,1662.8569172448333
721,1662.8569172448333
784,0.0
785,0.0
848,0.0
849,0.0
1121,2487.753948423425
1135,874.9156966922577
1161,0.044424493101120295
1163,63.98276400442424
1166,0.0
1168,0.0
2,2, 1, 9, 0,19, 0.00,60.00,Tuesday
7,-6.7
545,19.62263131076265
546,-2.0348564100958626
547,14.488381098105513
548,97.39823016738256
720,1733.5026816694917
721,1733.5026816694917
784,0.0
785,0.0
848,0.0
849,0.0
1121,2728.2470216909405
1135,968.7865369572634
1161,0.04978761350498061
1163,47.562164404467076
1166,0.0
1168,0.0
2,2, 1, 9, 0,20, 0.00,60.00,Tuesday
7,-6.7
545,19.603088780822393
546,-2.6901413752341785
547,14.461238897840591
548,107.15501685425217
720,1857.47363646534
721,1857.47363646534
784,0.0
785,0.0
848,0.0
849,0.0
1121,3028.355372569973
1135,1066.9608204329018
1161,0.05477504655338262
1163,32.29183016761965
1166,0.0
1168,0.0
2,2, 1, 9, 0,21, 0.00,60.00,Tuesday
7,-7.8
545,19.54970048378895
546,-3.387443548900401
547,14.41020416834901
548,127.7895385604455
720,2355.181478568251
721,2355.181478568251
784,0.0
785,0.0
848,0.0
849,0.0
1121,3565.4590624536536
1135,1259.7128736489472
1161,0.06532185833060936
1163,0.0
1166,299.1757117896468
1168,299.1757117896468
2,2, 1, 9, 0,22, 0.00,60.00,Tuesday
7,-8.3
545,19.637912805693936
546,-3.6965987865877548
547,14.336951331539076
548,127.7895385604455
720,2807.6307560071127
721,2807.6307560071127
784,0.0
785,0.0
848,0.0
849,0.0
1121,3513.39691969688
1135,1252.8992505486895
1161,0.06532185833060936
1163,0.0
1166,970.4940330873135
1168,970.4940330873135
2,2, 1, 9, 0,23, 0.00,60.00,Tuesday
7,-8.9
545,18.911970716782246
546,-4.542518871269827
547,14.255127452093797
548,127.7895385604455
720,2607.882222025737
721,2607.882222025737
784,0.0
785,0.0
848,0.0
849,0.0
1121,3448.3700582742176
1135,1248.23744591117
1161,0.06532185833060936
1163,0.0
1166,856.7223056174187
1168,856.7223056174187
2,2, 1, 9, 0,24, 0.00,60.00,Tuesday
7,-9.4
545,18.689279812092998
546,-4.265626243751144
547,14.130289558251611
548,127.7895385604455
720,2958.4468841308517
721,2958.4468841308517
784,0.0
785,0.0
848,0.0
849,0.0
1121,3411.281038443838
1135,1225.826051325332
1161,0.06532185833060936
1163,0.0
1166,1288.5569816086258
1168,1288.5569816086258
2,3, 1,10, 0, 1, 0.00,60.00,Wednesday
7,-10.0
545,18.60837868513388
546,-4.902323781842928
547,14.021601807050546
548,127.7895385604455
720,3586.3514296829744
721,3586.3514296829744
784,0.0
785,0.0
848,0.0
849,0.0
1121,3353.8638074210676
1135,1214.090584932041
1161,0.06532185833060936
1163,0.0
1166,2060.091891391691
1168,2060.091891391691
2,3, 1,10, 0, 2, 0.00,60.00,Wednesday
7,-10.0
545,18.580953744315877
546,-5.032920779068995
547,13.912463967078533
548,127.7895385604455
720,3961.910934694888
721,3961.910934694888
784,0.0
785,0.0
848,0.0
849,0.0
1121,3355.6564689931142
1135,1212.1073533665099
1161,0.06532185833060936
1163,0.0
1166,2535.3796957240284
1168,2535.3796957240284
2,3, 1,10, 0, 3, 0.00,60.00,Wednesday
7,-10.6
545,18.578761145771587
546,-5.307411837880176
547,13.799837605822704
548,127.7895385604455
720,4104.457178369155
721,4104.457178369155
784,0.0
785,0.0
848,0.0
849,0.0
1121,3294.821817032003
1135,1204.8870331430608
1161,0.06532185833060936
1163,0.0
1166,2781.168761395814
1168,2781.168761395814
2,3, 1,10, 0, 4, 0.00,60.00,Wednesday
7,-11.1
545,18.57423950850724
546,-5.765328823828995
547,13.687325455537653
548,127.7895385604455
720,4326.968597014198
721,4326.968597014198
784,0.0
785,0.0
848,0.0
849,0.0
1121,3244.2320783428163
1135,1199.2653102081913
1161,0.06532185833060936
1163,0.0
1166,3111.442939472331
1168,3111.442939472331
2,3, 1,10, 0, 5, 0.00,60.00,Wednesday
7,-11.7
545,18.57288712551416
546,-5.959407574124739
547,13.574319390427547
548,127.7895385604455
720,4427.901676039979
721,4427.901676039979
784,0.0
785,0.0
848,0.0
849,0.0
1121,3184.130057709842
1135,1192.458189170328
1161,0.06532185833060936
1163,0.0
1166,3320.9172125606615
1168,3320.9172125606615
2,3, 1,10, 0, 6, 0.00,60.00,Wednesday
7,-11.1
545,19.357791267099483
546,-6.172107247999582
547,13.47190433651787
548,127.7895385604455
720,5350.533604972514
721,5350.533604972514
784,0.0
785,0.0
848,0.0
849,0.0
1121,3244.6235075337527
1135,1198.8389064032426
1161,0.06532185833060936
1163,0.0
1166,4348.842551388844
1168,4348.842551388844
2,3, 1,10, 0, 7, 0.00,60.00,Wednesday
7,-11.7
545,19.58975430579692
546,-6.643780915025226
547,13.397050850058202
548,127.7895385604455
720,5222.6993297844365
721,5222.6993297844365
784,0.0
785,0.0
848,0.0
849,0.0
1121,3168.415066521793
1135,1209.3771863082557
1161,0.06532185833060936
1163,0.0
1166,4372.472055323742
1168,4372.472055323742
2,3, 1,10, 0, 8, 0.00,60.00,Wednesday
7,-11.7
545,19.659180377470754
546,-6.8838389938255675
547,13.301866836742072
548,127.7895385604455
720,4923.245370106049
721,4923.245370106049
784,0.0
785,0.0
848,0.0
849,0.0
1121,3163.7428019481945
1135,1214.3911096662566
1161,0.06532185833060936
1163,0.0
1166,4078.4358432628273
1168,4078.4358432628273
2,3, 1,10, 0, 9, 0.00,60.00,Wednesday
7,-9.4
545,19.690182120432375
546,-5.450158109222096
547,13.224498339804768
548,127.7895385604455
720,4434.3903729351205
721,4434.3903729351205
784,0.0
785,0.0
848,0.0
849,0.0
1121,3396.96855480836
1135,1241.7520211716815
1161,0.06532185833060936
1163,0.0
1166,3300.5351663620872
1168,3300.5351663620872
2,3, 1,10, 0,10, 0.00,60.00,Wednesday
7,-7.2
545,19.7379084694768
546,-1.732315483849208
547,13.153423586403942
548,127.7895385604455
720,3100.437546630532
721,3100.437546630532
784,0.0
785,0.0
848,0.0
849,0.0
1121,3629.6825647868945
1135,1266.569637967866
1161,0.06532185833060936
1163,0.0
1166,1444.42300054699
1168,1444.42300054699
2,3, 1,10, 0,11, 0.00,60.00,Wednesday
7,-5.6
545,19.75932559420879
546,0.29569333712998896
547,13.098237245975302
548,127.7895385604455
720,2511.2481768035177
721,2511.2481768035177
784,0.0
785,0.0
848,0.0
849,0.0
1121,3803.941550207256
1135,1285.024998803402
1161,0.06532185833060936
1163,0.0
1166,376.3121028130113
1168,376.3121028130113
2,3, 1,10, 0,12, 0.00,60.00,Wednesday
7,-3.9
545,19.8726233862997
546,4.29582554346672
547,13.046946671300018
548,107.54653680011616
720,1942.6149089152077
721,1942.6149089152077
784,0.0
785,0.0
848,0.0
849,0.0
1121,3297.2419848803625
1135,1097.6554197795008
1161,0.05497494817331589
1163,31.679778933799785
1166,0.0
1168,0.0
2,3, 1,10, 0,13, 0.00,60.00,Wednesday
7,-3.3
545,19.881225535727793
546,4.646710261829978
547,13.004349120193051
548,77.60814435630854
720,1436.1524468155112
721,1436.1524468155112
784,0.0
785,0.0
848,0.0
849,0.0
1121,2351.98098028302
1135,797.9467512291727
1161,0.039671200193070154
1163,78.53621679810504
1166,0.0
1168,0.0
2,3, 1,10, 0,14, 0.00,60.00,Wednesday
7,-3.3
545,19.860765726368204
546,4.773623227641639
547,12.990836877641756
548,55.94441686845827
720,1031.2417762095702
721,1031.2417762095702
784,0.0
785,0.0
848,0.0
849,0.0
1121,1662.1160831468799
1135,575.3457700579977
1161,0.028597284232454126
1163,112.44191465675542
1166,0.0
1168,0.0
2,3, 1,10, 0,15, 0.00,60.00,Wednesday
7,-2.8
545,20.07732975643091
546,5.544343238661525
547,12.988938246229688
548,31.893872902670022
720,561.4134973843393
721,561.4134973843393
784,0.0
785,0.0
848,0.0
849,0.0
1121,940.6504293214196
1135,329.3174880315556
1161,0.016303280721032216
1163,150.08323052134415
1166,0.0
1168,0.0
2,3, 1,10, 0,16, 0.00,60.00,Wednesday
7,-2.8
545,19.56929997084752
546,3.0841397384280937
547,13.0265473160346
548,28.05866686765746
720,534.9951622801036
721,534.9951622801036
784,0.0
785,0.0
848,0.0
849,0.0
1121,823.8001196038546
1135,290.93646505215605
1161,0.014342827834621373
1163,156.08567116376594
1166,0.0
1168,0.0
2,3, 1,10, 0,17, 0.00,60.00,Wednesday
7,-3.9
545,19.766479368709362
546,1.9253107648033696
547,13.106360213772032
548,59.15419768146781
720,1221.865462571468
721,1221.865462571468
784,0.0
785,0.0
848,0.0
849,0.0
1121,1735.6612572479935
1135,601.6554356415334
1161,0.03023806262224436
1163,107.4182413206851
1166,0.0
1168,0.0
2,3, 1,10, 0,18, 0.00,60.00,Wednesday
7,-5.0
545,19.695096618882438
546,-0.01706075004806142
547,13.148028102317758
548,72.20185138996239
720,1386.641456759031
721,1386.641456759031
784,0.0
785,0.0
848,0.0
849,0.0
1121,2074.9403325229564
1135,730.3826875157816
1161,0.036907737822525676
1163,86.99728156621971
1166,0.0
1168,0.0
2,3, 1,10, 0,19, 0.00,60.00,Wednesday
7,-5.6
545,19.734519312988102
546,-1.8718426191479067
547,13.15258400766508
548,74.42118577117722
720,1329.1899154151452
721,1329.1899154151452
784,0.0
785,0.0
848,0.0
849,0.0
1121,2106.868564063348
1135,748.0229723058286
1161,0.038042239212861824
1163,83.52370803561324
1166,0.0
1168,0.0
2,3, 1,10, 0,20, 0.00,60.00,Wednesday
7,-5.6
545,19.673154466899113
546,-3.4100484979930363
547,13.154226766612055
548,80.86788544695243
720,1408.243681625212
721,1408.243681625212
784,0.0
785,0.0
848,0.0
849,0.0
1121,2302.542096506023
1135,813.412168008944
1161,0.04133763014290538
1163,73.43400448381038
1166,0.0
1168,0.0
2,3, 1,10, 0,21, 0.00,60.00,Wednesday
7,-6.7
545,19.540741554282047
546,-3.940190468794372
547,13.148444177525286
548,100.99605287224486
720,1704.9324560652476
721,1704.9324560652476
784,0.0
785,0.0
848,0.0
849,0.0
1121,2838.1812492520785
1135,1005.0925174942407
1161,0.051626733359663404
1163,41.93121665838619
1166,0.0
1168,0.0
2,3, 1,10, 0,22, 0.00,60.00,Wednesday
7,-6.1
545,19.54356957226749
546,-3.700406432040829
547,13.134981478033778
548,119.86497696911343
720,2089.1581336136132
721,2089.1581336136132
784,0.0
785,0.0
848,0.0
849,0.0
1121,3493.3118068690565
1135,1195.8145092543325
1161,0.0612720098641592
1163,12.399673156733893
1166,0.0
1168,0.0
2,3, 1,10, 0,23, 0.00,60.00,Wednesday
7,-6.1
545,18.913142826274946
546,-3.9453885254083296
547,13.061677074203647
548,104.10638064724728
720,1666.036836677029
721,1666.036836677029
784,0.0
785,0.0
848,0.0
849,0.0
1121,2988.7269296643085
1135,1038.7340269777378
1161,0.053216605441152046
1163,37.06340633541001
1166,0.0
1168,0.0
2,3, 1,10, 0,24, 0.00,60.00,Wednesday
7,-5.6
545,18.626522084127433
546,-3.492097329100473
547,13.007535971987146
548,122.58661902406945
720,2170.9475529524098
721,2170.9475529524098
784,0.0
785,0.0
848,0.0
849,0.0
1121,3637.277189592979
1135,1210.462394689626
1161,2.6720454468950616
1163,8.025335604708062
1166,0.0
1168,0.0
2,4, 1,11, 0, 1, 0.00,60.00,Thursday
7,-5.6
545,18.58420299268636
546,-3.1694936390936057
547,12.932354135690115
548,127.7895385604455
720,2736.964762783813
721,2736.964762783813
784,0.0
785,0.0
848,0.0
849,0.0
1121,3816.562932055795
1135,1253.9827222541592
1161,2.78429395320915
1163,0.0
1166,546.4653121499414
1168,546.4653121499414
2,4, 1,11, 0, 2, 0.00,60.00,Thursday
7,-5.6
545,18.58815971240564
546,-2.9750328496586707
547,12.859331221244647
548,127.7895385604455
720,3120.924753039202
721,3120.924753039202
784,0.0
785,0.0
848,0.0
849,0.0
1121,3817.5431398235687
1135,1252.8464287982288
1161,2.78429395320915
1163,0.0
1166,1002.1047447972769
1168,1002.1047447972769
2,4, 1,11, 0, 3, 0.00,60.00,Thursday
7,-8.3
545,18.581100812030936
546,-3.450757218503471
547,12.76503498620427
548,127.7895385604455
720,3658.086753847885
721,3658.086753847885
784,0.0
785,0.0
848,0.0
849,0.0
1121,3512.201168488078
1135,1220.0616612008153
1161,6.25156245465244
1163,0.0
1166,1934.3432141566109
1168,1934.3432141566109
2,4, 1,11, 0, 4, 0.00,60.00,Thursday
7,-9.4
545,18.57874474718077
546,-4.0370730892031075
547,12.683194013605826
548,127.7895385604455
720,3879.388289226503
721,3879.388289226503
784,0.0
785,0.0
848,0.0
849,0.0
1121,3378.944477346808
1135,1201.6032633940927
1161,11.386048425471163
1163,0.0
1166,2360.358812628305
1168,2360.358812628305
2,4, 1,11, 0, 5, 0.00,60.00,Thursday
7,-9.4
545,18.581435520970018
546,-4.953482009936065
547,12.604484231285872
548,127.7895385604455
720,3894.48008797086
721,3894.48008797086
784,0.0
785,0.0
848,0.0
849,0.0
1121,3379.0847865610435
1135,1201.43493687366
1161,11.388260737477804
1163,0.0
1166,2417.5962887864093
1168,2417.5962887864093
2,4, 1,11, 0, 6, 0.00,60.00,Thursday
7,-10.0
545,19.351729855706207
546,-5.18143156792119
547,12.520325400122807
548,127.7895385604455
720,5110.261100660133
721,5110.261100660133
784,0.0
785,0.0
848,0.0
849,0.0
1121,3310.3790802659214
1135,1192.4311325121644
1161,13.446941859613771
1163,0.0
1166,3950.036183531015
1168,3950.036183531015
2,4, 1,11, 0, 7, 0.00,60.00,Thursday
7,-9.4
545,19.593005636478313
546,-5.174991559837612
547,12.482102904781668
548,127.7895385604455
720,4904.839600118034
721,4904.839600118034
784,0.0
785,0.0
848,0.0
849,0.0
1121,3352.0280702442733
1135,1214.577680034163
1161,14.583700862151547
1163,0.0
1166,3779.3503317018076
1168,3779.3503317018076
2,4, 1,11, 0, 8, 0.00,60.00,Thursday
7,-9.4
545,19.66682779649819
546,-4.974929028346381
547,12.40858635666042
548,127.7895385604455
720,4628.278219331858
721,4628.278219331858
784,0.0
785,0.0
848,0.0
849,0.0
1121,3347.139618264678
1135,1220.0150493622202
1161,14.583700862151547
1163,0.0
1166,3489.988956063924
1168,3489.988956063924
2,4, 1,11, 0, 9, 0.00,60.00,Thursday
7,-6.1
545,19.718282316074227
546,-3.099396519777578
547,12.361116098456918
548,127.7895385604455
720,3482.73440198541
721,3482.73440198541
784,0.0
785,0.0
848,0.0
849,0.0
1121,3713.8319047649115
1135,1264.0490790926708
1161,9.463801180399459
1163,0.0
1166,1787.846721535605
1168,1787.846721535605
2,4, 1,11, 0,10, 0.00,60.00,Thursday
7,-4.4
545,19.74951840633526
546,0.43396551453988097
547,12.309495675971105
548,127.7895385604455
720,2535.963448302451
721,2535.963448302451
784,0.0
785,0.0
848,0.0
849,0.0
1121,3922.3742097554054
1135,1290.7766561925057
1161,4.227901723797607
1163,0.0
1166,365.9448284236996
1168,365.9448284236996
2,4, 1,11, 0,11, 0.00,60.00,Thursday
7,-3.3
545,19.869480367005416
546,3.518942191793449
547,12.235787728021748
548,106.35527070161606
720,1943.2237794226185
721,1943.2237794226185
784,0.0
785,0.0
848,0.0
849,0.0
1121,3314.037966616363
1135,1089.8375247233084
1161,0.05436595897923932
1163,33.54435905947331
1166,0.0
1168,0.0
2,4, 1,11, 0,12, 0.00,60.00,Thursday
7,-2.2
545,19.91389980677532
546,5.81511726196725
547,12.16960373144029
548,74.31837327164905
720,1389.2187393417826
721,1389.2187393417826
784,0.0
785,0.0
848,0.0
849,0.0
1121,2308.3854262553755
1135,768.1579610296124
1161,2.0158749903024953
1163,83.62677015598547
1166,0.0
1168,0.0
2,4, 1,11, 0,13, 0.00,60.00,Thursday
7,-1.1
545,19.921042279434843
546,7.4516464880355935
547,12.131105666468581
548,47.44921956293478
720,926.9534312907981
721,926.9534312907981
784,0.0
785,0.0
848,0.0
849,0.0
1121,1486.9185710561067
1135,496.8286041018625