Program Version,EnergyPlus, Version 22.2.0-c249759bad, YMD=2023.09.01 20:25
1,5,Environment Title[],Latitude[deg],Longitude[deg],Time Zone[],Elevation[m]
2,8,Day of Simulation[],Month[],Day of Month[],DST Indicator[1=yes 0=no],Hour[],StartMinute[],EndMinute[],DayType
3,5,Cumulative Day of Simulation[],Month[],Day of Month[],DST Indicator[1=yes 0=no],DayType  ! When Daily Report Variables Requested
4,2,Cumulative Days of Simulation[],Month[]  ! When Monthly Report Variables Requested
5,1,Cumulative Days of Simulation[] ! When Run Period Report Variables Requested
6,1,Calendar Year of Simulation[] ! When Annual Report Variables Requested
581,11,LIVING,AFN Zone Infiltration Air Change Rate [ach] !RunPeriod [Value,Min,Month,Day,Hour,Minute,Max,Month,Day,Hour,Minute]
582,11,ATTIC,AFN Zone Infiltration Air Change Rate [ach] !RunPeriod [Value,Min,Month,Day,Hour,Minute,Max,Month,Day,Hour,Minute]
583,11,CRAWLSPACE,AFN Zone Infiltration Air Change Rate [ach] !RunPeriod [Value,Min,Month,Day,Hour,Minute,Max,Month,Day,Hour,Minute]
1038,11,Facility,Facility Heating Setpoint Not Met Time [hr] !RunPeriod [Value,Min,Month,Day,Hour,Minute,Max,Month,Day,Hour,Minute]
1039,11,Facility,Facility Cooling Setpoint Not Met Time [hr] !RunPeriod [Value,Min,Month,Day,Hour,Minute,Max,Month,Day,Hour,Minute]
1115,11,DX_HEATING_COIL,Heating Coil Heating Energy [J] !RunPeriod [Value,Min,Month,Day,Hour,Minute,Max,Month,Day,Hour,Minute]
1128,11,DX_HEATING_COIL,Heating Coil Electricity Energy [J] !RunPeriod [Value,Min,Month,Day,Hour,Minute,Max,Month,Day,Hour,Minute]
1153,11,DX_HEATING_COIL,Heating Coil Defrost Electricity Energy [J] !RunPeriod [Value,Min,Month,Day,Hour,Minute,Max,Month,Day,Hour,Minute]
1154,11,DX_HEATING_COIL,Heating Coil Crankcase Heater Electricity Energy [J] !RunPeriod [Value,Min,Month,Day,Hour,Minute,Max,Month,Day,Hour,Minute]
1155,11,HEATING_RESISTANCE_BACKUP,Heating Coil Heating Energy [J] !RunPeriod [Value,Min,Month,Day,Hour,Minute,Max,Month,Day,Hour,Minute]
1156,11,HEATING_RESISTANCE_BACKUP,Heating Coil Electricity Energy [J] !RunPeriod [Value,Min,Month,Day,Hour,Minute,Max,Month,Day,Hour,Minute]
1292,11,WATER HEATER,Water Heater Heat Loss Energy [J] !RunPeriod [Value,Min,Month,Day,Hour,Minute,Max,Month,Day,Hour,Minute]
1306,11,WATER HEATER,Water Heater Heating Energy [J] !RunPeriod [Value,Min,Month,Day,Hour,Minute,Max,Month,Day,Hour,Minute]
1307,11,WATER HEATER,Water Heater Unmet Demand Heat Transfer Energy [J] !RunPeriod [Value,Min,Month,Day,Hour,Minute,Max,Month,Day,Hour,Minute]
1308,11,WATER HEATER,Water Heater Electricity Energy [J] !RunPeriod [Value,Min,Month,Day,Hour,Minute,Max,Month,Day,Hour,Minute]
13,11,Electricity:Facility [J] !RunPeriod [Value,Min,Month,Day,Hour,Minute,Max,Month,Day,Hour,Minute]
1134,11,Heating:Electricity [J] !RunPeriod [Value,Min,Month,Day,Hour,Minute,Max,Month,Day,Hour,Minute]
1096,11,Cooling:Electricity [J] !RunPeriod [Value,Min,Month,Day,Hour,Minute,Max,Month,Day,Hour,Minute]
562,11,Fans:Electricity [J] !RunPeriod [Value,Min,Month,Day,Hour,Minute,Max,Month,Day,Hour,Minute]
1379,11,Pumps:Electricity [J] !RunPeriod [Value,Min,Month,Day,Hour,Minute,Max,Month,Day,Hour,Minute]
1326,11,WaterSystems:Electricity [J] !RunPeriod [Value,Min,Month,Day,Hour,Minute,Max,Month,Day,Hour,Minute]
61,11,InteriorLights:Electricity [J] !RunPeriod [Value,Min,Month,Day,Hour,Minute,Max,Month,Day,Hour,Minute]
1046,11,ExteriorLights:Electricity [J] !RunPeriod [Value,Min,Month,Day,Hour,Minute,Max,Month,Day,Hour,Minute]
134,11,InteriorEquipment:Electricity [J] !RunPeriod [Value,Min,Month,Day,Hour,Minute,Max,Month,Day,Hour,Minute]
170,11,gas_dryer:InteriorEquipment:Electricity [J] !RunPeriod [Value,Min,Month,Day,Hour,Minute,Max,Month,Day,Hour,Minute]
207,11,clotheswasher:InteriorEquipment:Electricity [J] !RunPeriod [Value,Min,Month,Day,Hour,Minute,Max,Month,Day,Hour,Minute]
244,11,dishwasher:InteriorEquipment:Electricity [J] !RunPeriod [Value,Min,Month,Day,Hour,Minute,Max,Month,Day,Hour,Minute]
281,11,refrigerator:InteriorEquipment:Electricity [J] !RunPeriod [Value,Min,Month,Day,Hour,Minute,Max,Month,Day,Hour,Minute]
318,11,electric_mels:InteriorEquipment:Electricity [J] !RunPeriod [Value,Min,Month,Day,Hour,Minute,Max,Month,Day,Hour,Minute]
355,11,NaturalGas:Facility [J] !RunPeriod [Value,Min,Month,Day,Hour,Minute,Max,Month,Day,Hour,Minute]
403,11,InteriorEquipment:NaturalGas [J] !RunPeriod [Value,Min,Month,Day,Hour,Minute,Max,Month,Day,Hour,Minute]
476,11,gas_dryer:InteriorEquipment:NaturalGas [J] !RunPeriod [Value,Min,Month,Day,Hour,Minute,Max,Month,Day,Hour,Minute]
513,11,gas_mels:InteriorEquipment:NaturalGas [J] !RunPeriod [Value,Min,Month,Day,Hour,Minute,Max,Month,Day,Hour,Minute]
End of Data Dictionary
1,EXTREME_WINTER,  38.54, -89.85,  -6.00, 140.00
5,7
1038,1.5,0.0, 1, 6, 1,15,0.25, 1, 7, 6,15
1039,0.0,0.0, 1, 6, 1,15,0.0, 1, 6, 1,15
581,0.4285274464745711,0.21596054493923603, 1,11,23,10,0.8257697663259831, 1, 7,12,52
582,4.3151484341814506,0.03670613440337057, 1,12, 2,60,12.472936804918326, 1, 7,10,60
583,0.05898616024426867,0.0007359624169113941, 1, 8,23, 5,0.08689791677807199, 1, 7,10,60
1115,1876100202.302839,0.0, 1, 6,23, 3,4497539.464692493, 1,11, 6,45
1128,653769813.1350482,0.0, 1, 6,23, 3,1358990.1130483083, 1,11, 6,45
1153,11653989.218917876,0.0, 1, 6,23, 3,123889.993370005, 1,12, 6,45
1154,26631391.764023334,0.0, 1, 6, 6, 5,160384.31498358204, 1, 6,16,15
1155,755023683.8837798,0.0, 1, 6, 1,15,5549068.625971074, 1, 8, 6,45
1156,755023683.8837798,0.0, 1, 6, 1,15,5549068.625971074, 1, 8, 6,45
1292,-25434890.98446811,-39794.229663867256, 1, 6, 1,15,-5208.157031023728, 1, 9,10,33
1306,184045162.4227995,0.0, 1, 6, 1,15,4050000.0, 1, 6, 8,45
1307,35737334.00339995,0.0, 1, 6, 1,15,5011358.079782249, 1,12, 9,30
1308,184045162.4227995,0.0, 1, 6, 1,15,4050000.0, 1, 6, 8,45
13,2075604185.045819,485142.1818956587, 1,10,15,60,10114912.569666544, 1,10, 8,30
61,301924526.02383536,88139.10953165221, 1, 6, 1,15,1282023.4113694867, 1, 6,20,15
134,70666020.44019976,63564.01800854099, 1, 6, 4,15,156554.22484006523, 1,11,20,15
170,5241013.419656067,348.4159749238097, 1, 6, 4,15,17476.39704006126, 1,11,12,15
207,6509451.13922267,815.2532113832032, 1, 6, 3,15,22990.642799023623, 1,11,10,15
244,12749673.399825225,1521.856143006317, 1, 6, 4,15,53038.631142310165, 1,11,20,15
281,46165882.481495745,59938.60262432081, 1, 6, 5,15,81951.81706819107, 1, 6,19,15
318,0.0,0.0, 1, 6, 1,15,0.0, 1, 6, 1,15
355,197687796.27748066,18561.32405820678, 1, 6, 4,15,724774.895203776, 1,11,18,15
403,197687796.27748066,18561.32405820678, 1, 6, 4,15,724774.895203776, 1,11,18,15
476,106772067.24485716,7098.072629279515, 1, 6, 4,15,356036.3026282215, 1,11,12,15
513,0.0,0.0, 1, 6, 1,15,0.0, 1, 6, 1,15
562,71889598.15721534,0.0, 1,10,16,15,137422.1035751628, 1, 9,10,45
1046,0.0,0.0, 1, 6, 1,15,0.0, 1, 6, 1,15
1096,0.0,0.0, 1, 6, 1,15,0.0, 1, 6, 1,15
1134,1447078878.0017679,180000.0, 1,10,16,15,6725013.96965553, 1,10, 6,15
1326,184045162.4227995,0.0, 1, 6, 1,15,4050000.0, 1, 6, 8,45
1379,0.0,0.0, 1, 6, 1,15,0.0, 1, 6, 1,15
1,EXTREME_SUMMER,  38.54, -89.85,  -6.00, 140.00
5,7
1038,0.0,0.0, 7,13, 1,15,0.0, 7,13, 1,15
1039,50.75,0.0, 7,13, 1,15,0.25, 7,13,13,60
581,0.06918782876510898,0.0, 7,13, 6, 7,1.0138439583205805, 7,19,20,48
582,1.9078916068020262,0.01174625411802119, 7,15,20,50,23.371175682611515, 7,19,20,48
583,0.04294573513997851,0.0, 7,14,23, 3,0.08631645819644793, 7,19,20,48
1115,0.0,0.0, 7,13, 1,15,0.0, 7,13, 1,15
1128,0.0,0.0, 7,13, 1,15,0.0, 7,13, 1,15
1153,0.0,0.0, 7,13, 1,15,0.0, 7,13, 1,15
1154,0.0,0.0, 7,13, 1,15,0.0, 7,13, 1,15
1155,0.0,0.0, 7,13, 1,15,0.0, 7,13, 1,15
1156,0.0,0.0, 7,13, 1,15,0.0, 7,13, 1,15
1292,-21693865.55510697,-34314.38930654295, 7,14, 7,45,-3371.011299061131, 7,16, 8,60
1306,133201987.00135978,0.0, 7,13, 1,15,3607228.8544496526, 7,14, 7,15
1307,16025379.368709378,0.0, 7,13, 1,15,910999.769564095, 7,16,10,17
1308,133201987.00135978,0.0, 7,13, 1,15,3607228.8544496526, 7,14, 7,15
13,1128014322.4427335,175681.3252376201, 7,15, 4,60,6690184.255296065, 7,19,20,60
61,301924526.02383536,88139.10953165221, 7,13, 1,15,1282023.4113694867, 7,13,20,15
134,70666020.44019976,63564.01800854099, 7,13, 4,15,156554.22484006523, 7,18,20,15
170,5241013.419656067,348.4159749238097, 7,13, 4,15,17476.39704006126, 7,18,12,15
207,6509451.13922267,815.2532113832032, 7,13, 3,15,22990.642799023623, 7,18,10,15
244,12749673.399825225,1521.856143006317, 7,13, 4,15,53038.631142310165, 7,18,20,15
281,46165882.481495745,59938.60262432081, 7,13, 5,15,81951.81706819107, 7,13,19,15
318,0.0,0.0, 7,13, 1,15,0.0, 7,13, 1,15
355,197687796.27748066,18561.32405820678, 7,13, 4,15,724774.895203776, 7,18,18,15
403,197687796.27748066,18561.32405820678, 7,13, 4,15,724774.895203776, 7,18,18,15
476,106772067.24485716,7098.072629279515, 7,13, 4,15,356036.3026282215, 7,18,12,15
513,0.0,0.0, 7,13, 1,15,0.0, 7,13, 1,15
562,58255538.05933736,2423.477016150876, 7,15, 5,30,137422.1035751628, 7,13,15,30
1046,0.0,0.0, 7,13, 1,15,0.0, 7,13, 1,15
1096,563966250.918,19758.757450476212, 7,15, 5,30,1479604.3786920018, 7,19,16,60
1134,0.0,0.0, 7,13, 1,15,0.0, 7,13, 1,15
1326,133201987.00135979,0.0, 7,13, 1,15,4050000.0, 7,15, 9,45
1379,0.0,0.0, 7,13, 1,15,0.0, 7,13, 1,15
1,ANNUAL,  38.54, -89.85,  -6.00, 140.00
5,365
1038,10.5,0.0, 1, 1, 1,15,0.25, 1, 3, 6,15
1039,570.75,0.0, 1, 1, 1,15,0.25, 1,15,17,30
581,0.22335855848632394,0.0, 5,23, 6, 7,1.0673042901969518, 4,13,21,52
582,3.3648942690135137,0.0, 1, 3,23,45,26.81999377867456, 4, 3, 6,60
583,0.029050629332759578,0.0, 5,23, 6, 7,0.08918841954057885, 7,19,20,48
1115,21031380842.872677,0.0, 1, 1,14,37,4456730.471046917, 1,11, 6,45
1128,6653421770.216692,0.0, 1, 1,14,37,1348813.2112473026, 1,11, 6,45
1153,330546566.0969417,0.0, 1, 1,14,37,135300.4256489178, 2,26, 7,15
1154,1500556052.3564143,0.0, 1, 1, 4,60,180000.0, 1, 1,14,60
1155,2242781003.3385205,0.0, 1, 1, 1,15,5549068.625971074, 1, 8, 6,30
1156,2242781003.3385205,0.0, 1, 1, 1,15,5549068.625971074, 1, 8, 6,30
1292,-1217374373.872368,-39786.81118903579, 1, 1, 1,15,-2108.932202573367,10,14,10,30
1306,8324204897.029082,0.0, 1, 1, 1,15,4050000.0, 1, 2, 8,45
1307,1369203964.9801183,0.0, 1, 1, 1,15,9746566.577007988, 2, 9,10,30
1308,8324204897.029082,0.0, 1, 1, 1,15,4050000.0, 1, 2, 8,45
13,50559576683.53697,151703.1275401932, 3,31, 4,15,10537573.489130355, 1, 7,10,30
61,15743207428.383959,88139.10953165221, 1, 1, 1,15,1282023.4113694867, 1, 1,20,15
134,3685071073.4325233,63564.01800854099, 1, 2, 4,15,156554.22484006523, 1, 1,20,15
170,273393721.45532674,348.4159749238097, 1, 2, 4,15,17476.39704006126, 1, 1,12,15
207,339560869.0695816,815.2532113832032, 1, 2, 3,15,22990.642799023623, 1, 1,10,15
244,664895467.8009144,1521.856143006317, 1, 2, 4,15,53038.631142310165, 1, 1,20,15
281,2407221015.106824,59938.60262432081, 1, 1, 5,15,81951.81706819107, 1, 1,19,15
318,0.0,0.0, 1, 1, 1,15,0.0, 1, 1, 1,15
355,10310294493.051695,18561.32405820678, 1, 2, 4,15,724774.895203776, 1, 1,18,15
403,10310294493.051695,18561.32405820678, 1, 2, 4,15,724774.895203776, 1, 1,18,15
476,5569688622.066177,7098.072629279515, 1, 2, 4,15,356036.3026282215, 1, 1,12,15
513,0.0,0.0, 1, 1, 1,15,0.0, 1, 1, 1,15
562,1873072402.905621,0.0, 1, 1,14,45,137422.1035751628, 1, 9,10,45
1046,0.0,0.0, 1, 1, 1,15,0.0, 1, 1, 1,15
1096,10206715489.775469,0.0, 1, 1, 1,15,1580258.564954962, 7,31,15,60
1134,10727305392.008575,0.0, 1,17,12,45,6725187.241581096, 1,10, 6,15
1326,8324204897.029084,0.0, 1, 1, 1,15,4050000.0000000014,10,14,10,45
1379,0.0,0.0, 1, 1, 1,15,0.0, 1, 1, 1,15
End of Data
 Number of Records Written=          99
