Program Version,EnergyPlus, Version 22.2.0-c249759bad, YMD=2023.09.01 14:31
1,5,Environment Title[],Latitude[deg],Longitude[deg],Time Zone[],Elevation[m]
2,8,Day of Simulation[],Month[],Day of Month[],DST Indicator[1=yes 0=no],Hour[],StartMinute[],EndMinute[],DayType
3,5,Cumulative Day of Simulation[],Month[],Day of Month[],DST Indicator[1=yes 0=no],DayType  ! When Daily Report Variables Requested
4,2,Cumulative Days of Simulation[],Month[]  ! When Monthly Report Variables Requested
5,1,Cumulative Days of Simulation[] ! When Run Period Report Variables Requested
6,1,Calendar Year of Simulation[] ! When Annual Report Variables Requested
7,1,Environment,Site Outdoor Air Drybulb Temperature [C] !Hourly
545,1,LIVING,Zone Mean Air Temperature [C] !Hourly
546,1,ATTIC,Zone Mean Air Temperature [C] !Hourly
547,1,CRAWLSPACE,Zone Mean Air Temperature [C] !Hourly
548,1,FAN,Fan Electricity Rate [W] !Hourly
720,1,LIVING,Zone Predicted Sensible Load to Heating Setpoint Heat Transfer Rate [W] !Hourly
721,1,LIVING,Zone System Predicted Sensible Load to Heating Setpoint Heat Transfer Rate [W] !Hourly
784,1,ATTIC,Zone Predicted Sensible Load to Heating Setpoint Heat Transfer Rate [W] !Hourly
785,1,ATTIC,Zone System Predicted Sensible Load to Heating Setpoint Heat Transfer Rate [W] !Hourly
848,1,CRAWLSPACE,Zone Predicted Sensible Load to Heating Setpoint Heat Transfer Rate [W] !Hourly
849,1,CRAWLSPACE,Zone System Predicted Sensible Load to Heating Setpoint Heat Transfer Rate [W] !Hourly
1121,1,DX_HEATING_COIL,Heating Coil Heating Rate [W] !Hourly
1135,1,DX_HEATING_COIL,Heating Coil Electricity Rate [W] !Hourly
1161,1,DX_HEATING_COIL,Heating Coil Defrost Electricity Rate [W] !Hourly
1163,1,DX_HEATING_COIL,Heating Coil Crankcase Heater Electricity Rate [W] !Hourly
1166,1,HEATING_RESISTANCE_BACKUP,Heating Coil Heating Rate [W] !Hourly
1168,1,HEATING_RESISTANCE_BACKUP,Heating Coil Electricity Rate [W] !Hourly
End of Data Dictionary
1,EXTREME_WINTER,  34.92, -92.15,  -6.00,  95.00
2,1, 1,29, 0, 1, 0.00,60.00,Monday
7,-2.0
545,18.436098853072014
546,3.4929897527652685
547,19.30821958875449
548,42.97895750488089
720,925.9617615581892
721,925.9617615581892
784,0.0
785,0.0
848,0.0
849,0.0
1121,1133.3775347377484
1135,386.07729407966826
1161,26.469190303951184
1163,142.19013870888938
1166,0.0
1168,0.0
2,1, 1,29, 0, 2, 0.00,60.00,Monday
7,0.0
545,18.672163347712097
546,1.599174587549727
547,19.034031311107434
548,52.660630034414325
720,1161.4615864607285
721,1161.4615864607285
784,0.0
785,0.0
848,0.0
849,0.0
1121,1502.6044272116478
1135,483.8426087124154
1161,26.983615099047025
1163,129.51691850457533
1166,0.0
1168,0.0
2,1, 1,29, 0, 3, 0.00,60.00,Monday
7,-1.0
545,18.51850148688993
546,0.30233035383826434
547,18.847439435712072
548,66.58807702801494
720,1424.2881819112972
721,1424.2881819112972
784,0.0
785,0.0
848,0.0
849,0.0
1121,1909.7589644442262
1135,622.2713773548057
1161,24.002949070331592
1163,111.00928154959466
1166,0.0
1168,0.0
2,1, 1,29, 0, 4, 0.00,60.00,Monday
7,-2.0
545,18.467466366788482
546,-0.3786247257177575
547,18.63871687348198
548,87.51967259330675
720,1765.9815066958472
721,1765.9815066958472
784,0.0
785,0.0
848,0.0
849,0.0
1121,2425.764977855431
1135,792.4813038435735
1161,45.67100740589386
1163,82.52319023576355
1166,0.0
1168,0.0
2,1, 1,29, 0, 5, 0.00,60.00,Monday
7,-4.0
545,18.4217857504448
546,-0.9664958810680687
547,18.435889329300373
548,112.10322180517407
720,2134.7083256137794
721,2134.7083256137794
784,0.0
785,0.0
848,0.0
849,0.0
1121,3000.6074468003194
1135,1000.7325580583014
1161,57.841418770288605
1163,49.099234965231275
1166,0.0
1168,0.0
2,1, 1,29, 0, 6, 0.00,60.00,Monday
7,-4.0
545,19.165037851995635
546,-0.8659458184311108
547,18.23568935802172
548,150.5929380953505
720,3313.7879512690615
721,3313.7879512690615
784,0.0
785,0.0
848,0.0
849,0.0
1121,4154.3740827625
1135,1324.64162077758
1161,76.70334960774154
1163,0.0
1166,494.13251284906755
1168,494.13251284906755
2,1, 1,29, 0, 7, 0.00,60.00,Monday
7,-4.0
545,19.530147908669797
546,-0.9010649692993048
547,18.115657519672812
548,150.5929380953505
720,3385.0368977987055
721,3385.0368977987055
784,0.0
785,0.0
848,0.0
849,0.0
1121,4137.77199847455
1135,1343.9837200237212
1161,76.72463054719078
1163,0.0
1166,720.9184441340649
1168,720.9184441340649
2,1, 1,29, 0, 8, 0.00,60.00,Monday
7,-4.0
545,19.658995812832593
546,-0.5297304306013998
547,17.973215915926744
548,150.5929380953505
720,3167.971712185803
721,3167.971712185803
784,0.0
785,0.0
848,0.0
849,0.0
1121,4129.663691094929
1135,1353.5104947032555
1161,76.72463054719078
1163,0.0
1166,527.4396698317983
1168,527.4396698317983
2,1, 1,29, 0, 9, 0.00,60.00,Monday
7,-2.0
545,19.821276548649415
546,2.203662458382249
547,17.867590396998597
548,120.32424160385165
720,2136.5696491105427
721,2136.5696491105427
784,0.0
785,0.0
848,0.0
849,0.0
1121,3355.9877625193235
1135,1099.7474868948573
1161,74.31115130116885
1163,38.13951322273201
1166,0.0
1168,0.0
2,1, 1,29, 0,10, 0.00,60.00,Monday
7,3.0
545,20.06812912206225
546,7.183924452801542
547,17.787008296895774
548,47.92891220764063
720,869.7331000808936
721,869.7331000808936
784,0.0
785,0.0
848,0.0
849,0.0
1121,1484.8074462808165
1135,468.22925612289583
1161,20.54922862169254
1163,136.12266233146474
1166,0.0
1168,0.0
2,1, 1,29, 0,11, 0.00,60.00,Monday
7,6.0
545,19.88031744969819
546,10.567947012383975
547,17.690391250758502
548,15.100106969357565
720,371.30075837848744
721,371.30075837848744
784,0.0
785,0.0
848,0.0
849,0.0
1121,599.4267682534103
1135,169.80283631255492
1161,0.0
1163,179.94579671485437
1166,0.0
1168,0.0
2,1, 1,29, 0,12, 0.00,60.00,Monday
7,8.0
545,19.740808725811213
546,11.907976220495021
547,17.62168455557595
548,9.953400718484966
720,307.8660060382572
721,307.8660060382572
784,0.0
785,0.0
848,0.0
849,0.0
1121,414.19945024772716
1135,113.94935412839371
1161,0.0
1163,186.78105249240465
1166,0.0
1168,0.0
2,1, 1,29, 0,13, 0.00,60.00,Monday
7,10.0
545,19.957370766583594
546,13.069387256139319
547,17.575088016465266
548,10.326814119187091
720,365.4579259896036
721,365.4579259896036
784,0.0
785,0.0
848,0.0
849,0.0
1121,451.69576111594125
1135,120.71883531604803
1161,0.0
1163,0.0
1166,0.0
1168,0.0
2,1, 1,29, 0,14, 0.00,60.00,Monday
7,10.0
545,19.737386890970285
546,12.631831625566512
547,17.53765853216247
548,7.840608214789829
720,276.9789792025622
721,276.9789792025622
784,0.0
785,0.0
848,0.0
849,0.0
1121,342.02188158967994
1135,92.00635117492048
1161,0.0
1163,0.0
1166,0.0
1168,0.0
2,1, 1,29, 0,15, 0.00,60.00,Monday
7,9.0
545,19.54024724805407
546,11.751708502061021
547,17.505344649680588
548,8.708746095188562
720,305.43852750678525
721,305.43852750678525
784,0.0
785,0.0
848,0.0
849,0.0
1121,371.3317947104571
1135,100.57517911229426
1161,0.0
1163,188.434057791376
1166,0.0
1168,0.0
2,1, 1,29, 0,16, 0.00,60.00,Monday
7,8.0
545,19.96856996373773
546,11.323319335699269
547,17.477904957575394
548,13.397933195381858
720,464.3589718164876
721,464.3589718164876
784,0.0
785,0.0
848,0.0
849,0.0
1121,559.7853787795897
1135,152.400579256638
1161,0.0
1163,182.20642566001504
1166,0.0
1168,0.0
2,1, 1,29, 0,17, 0.00,60.00,Monday
7,7.0
545,19.77677881668849
546,10.169734460080615
547,17.44911932658488
548,6.9799613691780396
720,221.11996394736707
721,221.11996394736707
784,0.0
785,0.0
848,0.0
849,0.0
1121,282.6018961453731
1135,79.15284000795684
1161,0.0
1163,190.73002830350708
1166,0.0
1168,0.0
2,1, 1,29, 0,18, 0.00,60.00,Monday
7,7.0
545,19.77511927363279
546,8.758219705373667
547,17.416658239701736
548,3.2553179347016696
720,99.26243319633431
721,99.26243319633431
784,0.0
785,0.0
848,0.0
849,0.0
1121,131.55033728266062
1135,36.78272009610603
1161,0.0
1163,195.6766658837076
1166,0.0
1168,0.0
2,1, 1,29, 0,19, 0.00,60.00,Monday
7,7.0
545,19.83314030253643
546,7.960888739605488
547,17.381390595163325
548,0.0
720,-46.67906455791399
721,-46.67906455791399
784,0.0
785,0.0
848,0.0
849,0.0
1121,0.0
1135,0.0
1161,0.0
1163,200.0
1166,0.0
1168,0.0
2,1, 1,29, 0,20, 0.00,60.00,Monday
7,6.0
545,19.739331127565336
546,7.048249395698757
547,17.342339879057068
548,0.0
720,-9.686562590873109
721,-9.686562590873109
784,0.0
785,0.0
848,0.0
849,0.0
1121,0.0
1135,0.0
1161,0.0
1163,200.0
1166,0.0
1168,0.0
2,1, 1,29, 0,21, 0.00,60.00,Monday
7,6.0
545,19.809006224199315
546,6.721585789103939
547,17.299491515899327
548,0.0
720,-48.71621459468315
721,-48.71621459468315
784,0.0
785,0.0
848,0.0
849,0.0
1121,0.0
1135,0.0
1161,0.0
1163,200.0
1166,0.0
1168,0.0
2,1, 1,29, 0,22, 0.00,60.00,Monday
7,6.0
545,19.720972107882783
546,6.486350782302267
547,17.251210223317273
548,2.6791933804997634
720,80.41341343057593
721,80.41341343057593
784,0.0
785,0.0
848,0.0
849,0.0
1121,105.51983733391629
1135,29.968110843429727
1161,0.0
1163,196.44180741223948
1166,0.0
1168,0.0
2,1, 1,29, 0,23, 0.00,60.00,Monday
7,6.0
545,19.14557505403553
546,6.207718966741213
547,17.19795570969929
548,0.0
720,-255.6911634516582
721,-255.6911634516582
784,0.0
785,0.0
848,0.0
849,0.0
1121,0.0
1135,0.0
1161,0.0
1163,200.0
1166,0.0
1168,0.0
2,1, 1,29, 0,24, 0.00,60.00,Monday
7,6.0
545,18.61339131178179
546,6.231248526338889
547,17.140481349944466
548,2.899303645180233
720,89.57418786964172
721,89.57418786964172
784,0.0
785,0.0
848,0.0
849,0.0
1121,114.54338652610657
1135,32.0235778854956
1161,0.0
1163,196.14948259613013
1166,0.0
1168,0.0
2,2, 1,30, 0, 1, 0.00,60.00,Tuesday
7,6.0
545,18.569770447083986
546,6.3061114227744755
547,17.077440234197116
548,11.881782900096027
720,388.36656917534583
721,388.36656917534583
784,0.0
785,0.0
848,0.0
849,0.0
1121,473.62829111865324
1135,129.92219112862745
1161,0.0
1163,184.21999988794576
1166,0.0
1168,0.0
2,2, 1,30, 0, 2, 0.00,60.00,Tuesday
7,5.0
545,18.384192719086677
546,6.2222499023687154
547,17.00818546840915
548,28.326910164416738
720,693.7255857303335
721,693.7255857303335
784,0.0
785,0.0
848,0.0
849,0.0
1121,867.8108678140532
1135,260.7929774109005
1161,21.98473693197776
1163,162.2539534099725
1166,0.0
1168,0.0
2,2, 1,30, 0, 3, 0.00,60.00,Tuesday
7,3.0
545,18.233281067126168
546,5.466260683742583
547,16.926338423124
548,51.27967593571571
720,1201.1770068819442
721,1201.1770068819442
784,0.0
785,0.0
848,0.0
849,0.0
1121,1515.3094915883783
1135,461.4343629910382
1161,40.83938184559977
1163,131.43043362823565
1166,0.0
1168,0.0
2,2, 1,30, 0, 4, 0.00,60.00,Tuesday
7,2.0
545,18.397943032764637
546,4.920784869861705
547,16.84235186601003
548,74.74850614142113
720,1763.040593560485
721,1763.040593560485
784,0.0
785,0.0
848,0.0
849,0.0
1121,2252.9423245060057
1135,682.3876453452333
1161,46.60100796649955
1163,100.07119614455205
1166,0.0
1168,0.0
2,2, 1,30, 0, 5, 0.00,60.00,Tuesday
7,-1.0
545,18.397748434656233
546,3.5177448111933436
547,16.747784822576136
548,98.55221206656257
720,2147.9186542654825
721,2147.9186542654825
784,0.0
785,0.0
848,0.0
849,0.0
1121,2813.842700825254
1135,889.0353637578239
1161,56.354791841072576
1163,67.77434079364033
1166,0.0
1168,0.0
2,2, 1,30, 0, 6, 0.00,60.00,Tuesday
7,-1.0
545,19.2011737023514
546,3.6457594780622795
547,16.654109374808897
548,139.98283952032958
720,3121.9295120232982
721,3121.9295120232982
784,0.0
785,0.0
848,0.0
849,0.0
1121,4133.5063582195335
1135,1262.4452129913084
1161,80.00875309218321
1163,12.188736931653965
1166,0.0
1168,0.0
2,2, 1,30, 0, 7, 0.00,60.00,Tuesday
7,-2.0
545,19.510971437793653
546,2.888488287894557
547,16.60048382401426
548,150.5929380953505
720,3329.545147250574
721,3329.545147250574
784,0.0
785,0.0
848,0.0
849,0.0
1121,4373.95130523457
1135,1364.310958968787
1161,77.76758603069135
1163,0.0
1166,199.63119021295051
1168,199.63119021295051
2,2, 1,30, 0, 8, 0.00,60.00,Tuesday
7,-3.0
545,19.642416813984642
546,1.8999829707616953
547,16.51692026988694
548,150.5929380953505
720,3465.4533960883255
721,3465.4533960883255
784,0.0
785,0.0
848,0.0
849,0.0
1121,4284.260003307565
1135,1373.1417131424334
1161,69.01417292016949
1163,0.0
1166,543.4434743416577
1168,543.4434743416577
2,2, 1,30, 0, 9, 0.00,60.00,Tuesday
7,-3.0
545,19.697587389041413
546,2.4822926037602255
547,16.443072107048373
548,150.5929380953505
720,3022.5938501947003
721,3022.5938501947003
784,0.0
785,0.0
848,0.0
849,0.0
1121,4339.558593339526
1135,1395.3019451675723
1161,55.58937942505951
1163,0.0
1166,49.43724992887019
1168,49.43724992887019
2,2, 1,30, 0,10, 0.00,60.00,Tuesday
7,-3.0
545,19.863587208605537
546,4.661447193646822
547,16.363680767428452
548,109.89384668019781
720,2015.56139697029
721,2015.56139697029
784,0.0
785,0.0
848,0.0
849,0.0
1121,3065.697297137978
1135,1028.18354214999
1161,40.909708861780786
1163,52.8007934148707
1166,0.0
1168,0.0
2,2, 1,30, 0,11, 0.00,60.00,Tuesday
7,-2.0
545,20.008538170287355
546,8.08335129427356
547,16.305650529160566
548,60.42157723353723
720,1067.9404910681242
721,1067.9404910681242
784,0.0
785,0.0
848,0.0
849,0.0
1121,1677.26593228055
1135,574.9026815823528
1161,19.647875927880918
1163,119.23013958908632
1166,0.0
1168,0.0
2,2, 1,30, 0,12, 0.00,60.00,Tuesday
7,0.0
545,20.112866800895866
546,11.428986446534624
547,16.26179625479954
548,14.98218235498488
720,225.87367211094534
721,225.87367211094534
784,0.0
785,0.0
848,0.0
849,0.0
1121,436.9459017284615
1135,149.1144213608476
1161,1.8470282095351256
1163,180.06670131529194
1166,0.0
1168,0.0
2,2, 1,30, 0,13, 0.00,60.00,Tuesday
7,0.0
545,20.020354341856955
546,14.701981082402186
547,16.2475940168471
548,0.0
720,-236.49412990262317
721,-236.49412990262317
784,0.0
785,0.0
848,0.0
849,0.0
1121,0.0
1135,0.0
1161,0.0
1163,200.0
1166,0.0
1168,0.0
2,2, 1,30, 0,14, 0.00,60.00,Tuesday
7,2.0
545,20.952904269745193
546,19.539502406988618
547,16.261019083940923
548,0.0
720,-1008.7021207328362
721,-1008.7021207328362
784,0.0
785,0.0
848,0.0
849,0.0
1121,0.0
1135,0.0
1161,0.0
1163,200.0
1166,0.0
1168,0.0
2,2, 1,30, 0,15, 0.00,60.00,Tuesday
7,3.0
545,21.60015873806201
546,19.149108536450758
547,16.290168800077986
548,0.0
720,-1474.2310567037694
721,-1474.2310567037694
784,0.0
785,0.0
848,0.0
849,0.0
1121,0.0
1135,0.0
1161,0.0
1163,200.0
1166,0.0
1168,0.0
2,2, 1,30, 0,16, 0.00,60.00,Tuesday
7,3.0
545,22.396110147919405
546,15.392195156288777
547,16.339270053471733
548,0.0
720,-2208.4726104067577
721,-2208.4726104067577
784,0.0
785,0.0
848,0.0
849,0.0
1121,0.0
1135,0.0
1161,0.0
1163,200.0
1166,0.0
1168,0.0
2,2, 1,30, 0,17, 0.00,60.00,Tuesday
7,3.0
545,23.02046407094353
546,12.695872410989596
547,16.39810052421706
548,0.0
720,-2648.277827795655
721,-2648.277827795655
784,0.0
785,0.0
848,0.0
849,0.0
1121,0.0
1135,0.0
1161,0.0
1163,200.0
1166,0.0
1168,0.0
2,2, 1,30, 0,18, 0.00,60.00,Tuesday
7,3.0
545,22.350166849762502
546,8.850088599161527
547,16.463775759106138
548,0.0
720,-2076.1626252941696
721,-2076.1626252941696
784,0.0
785,0.0
848,0.0
849,0.0
1121,0.0
1135,0.0
1161,0.0
1163,200.0
1166,0.0
1168,0.0
2,2, 1,30, 0,19, 0.00,60.00,Tuesday
7,0.0
545,21.746822445325865
546,5.004233835257212
547,16.514100835834423
548,0.0
720,-1606.0343509226168
721,-1606.0343509226168
784,0.0
785,0.0
848,0.0
849,0.0
1121,0.0
1135,0.0
1161,0.0
1163,200.0
1166,0.0
1168,0.0
2,2, 1,30, 0,20, 0.00,60.00,Tuesday
7,-1.0
545,21.095887197395495
546,2.255644741698327
547,16.530502311635157
548,0.0
720,-1179.2120450788261
721,-1179.2120450788261
784,0.0
785,0.0
848,0.0
849,0.0
1121,0.0
1135,0.0
1161,0.0
1163,200.0
1166,0.0
1168,0.0
2,2, 1,30, 0,21, 0.00,60.00,Tuesday
7,-2.0
545,20.673160947879573
546,0.47306448908569887
547,16.52033841861775
548,0.0
720,-840.6876062675638
721,-840.6876062675638
784,0.0
785,0.0
848,0.0
849,0.0
1121,0.0
1135,0.0
1161,0.0
1163,200.0
1166,0.0
1168,0.0
2,2, 1,30, 0,22, 0.00,60.00,Tuesday
7,-3.0
545,19.79359101187101
546,-0.9432250356563128
547,16.48028310683967
548,0.0
720,-61.11752082959174
721,-61.11752082959174
784,0.0
785,0.0
848,0.0
849,0.0
1121,0.0
1135,0.0
1161,0.0
1163,200.0
1166,0.0
1168,0.0
2,2, 1,30, 0,23, 0.00,60.00,Tuesday
7,-4.0
545,18.936276950899693
546,-2.13849015664626
547,16.422011937918494
548,0.0
720,-285.7416451342433
721,-285.7416451342433
784,0.0
785,0.0
848,0.0
849,0.0
1121,0.0
1135,0.0
1161,0.0
1163,200.0
1166,0.0
1168,0.0
2,2, 1,30, 0,24, 0.00,60.00,Tuesday
7,-2.9
545,18.571019005290754
546,-2.2089781577939474
547,16.337736194798975
548,27.045509022095718
720,478.72491228438594
721,478.72491228438594
784,0.0
785,0.0
848,0.0
849,0.0
1121,710.3873001717069
1135,249.00605797960677
1161,10.554566658863203
1163,163.7630969305847
1166,0.0
1168,0.0
2,3, 1,31, 0, 1, 0.00,60.00,Wednesday
7,-2.1
545,18.53022286699144
546,-1.6956238651807212
547,16.240157960661396
548,53.58712637650237
720,1061.0049072957463
721,1061.0049072957463
784,0.0
785,0.0
848,0.0
849,0.0
1121,1479.8918755679913
1135,495.05164058924663
1161,18.82135108920268
1163,128.32382377773814
1166,0.0
1168,0.0
2,3, 1,31, 0, 2, 0.00,60.00,Wednesday
7,-1.7
545,18.50754074001672
546,-1.2383061796255515
547,16.14463431402459
548,70.1759955908148
720,1378.8557538691366
721,1378.8557538691366
784,0.0
785,0.0
848,0.0
849,0.0
1121,1960.0344433109353
1135,642.4262078307253
1161,30.731041814548494
1163,106.00640860326523
1166,0.0
1168,0.0
2,3, 1,31, 0, 3, 0.00,60.00,Wednesday
7,-2.4
545,18.40281751098379
546,-1.0123017319381193
547,16.028612198921792
548,99.2493102084035
720,1939.0235060044633
721,1939.0235060044633
784,0.0
785,0.0
848,0.0
849,0.0
1121,2755.4888703031434
1135,895.8459352800629
1161,49.98282576422231
1163,66.75817778037951
1166,0.0
1168,0.0
2,3, 1,31, 0, 4, 0.00,60.00,Wednesday
7,-2.0
545,18.47513655078082
546,-0.5700126291638112
547,15.922345290656832
548,117.4452286240469
720,2358.161114803388
721,2358.161114803388
784,0.0
785,0.0
848,0.0
849,0.0
1121,3372.399729391347
1135,1067.5561280522406
1161,53.208629758778635
1163,42.58892837665991
1166,0.0
1168,0.0
2,3, 1,31, 0, 5, 0.00,60.00,Wednesday
7,-3.2
545,18.484092401748317
546,-0.8129198537847862
547,15.808534947788072
548,137.07882258613256
720,2660.4276232923385
721,2660.4276232923385
784,0.0
785,0.0
848,0.0
849,0.0
1121,3852.41099161171
1135,1232.8378843797113
1161,65.76811790713502
1163,15.8722738671208
1166,0.0
1168,0.0
2,3, 1,31, 0, 6, 0.00,60.00,Wednesday
7,-2.1
545,19.28351775438899
546,0.0054028994112234295
547,15.717313827122684
548,150.5929380953505
720,3585.6254687366927
721,3585.6254687366927
784,0.0
785,0.0
848,0.0
849,0.0
1121,4391.145880968601
1135,1346.7138690318777
1161,75.02260664421611
1163,0.0
1166,675.1792306232683
1168,675.1792306232683
2,3, 1,31, 0, 7, 0.00,60.00,Wednesday
7,-2.0
545,19.57975739954497
546,0.24539077669547224
547,15.656498280156589
548,150.5929380953505
720,3570.164227538313
721,3570.164227538313
784,0.0
785,0.0
848,0.0
849,0.0
1121,4382.476809607356
1135,1368.152126853092
1161,75.6835817402206
1163,0.0
1166,733.9489025103285
1168,733.9489025103285
2,3, 1,31, 0, 8, 0.00,60.00,Wednesday
7,-6.0
545,19.676175041227488
546,-0.4137929672037515
547,15.536433159666698
548,150.5929380953505
720,3365.3786139211606
721,3365.3786139211606
784,0.0
785,0.0
848,0.0
849,0.0
1121,3998.377321274593
1135,1362.6813164752057
1161,51.76775785663077
1163,0.0
1166,897.7111555214433
1168,897.7111555214433
2,3, 1,31, 0, 9, 0.00,60.00,Wednesday
7,-5.0
545,19.74803435296231
546,0.1115687083199801
547,15.46728245886614
548,142.55175264936653
720,2482.883284380312
721,2482.883284380312
784,0.0
785,0.0
848,0.0
849,0.0
1121,3897.1448480529075
1135,1322.8373738450684
1161,43.493150840131655
1163,9.013370309014013
1166,0.0
1168,0.0
2,3, 1,31, 0,10, 0.00,60.00,Wednesday
7,-3.0
545,19.993530673872932
546,3.1171788114647168
547,15.390158418182047
548,83.89897090938994
720,1400.072310821768
721,1400.072310821768
784,0.0
785,0.0
848,0.0
849,0.0
1121,2346.278769871025
1135,800.6427315308903
1161,17.871989000154677
1163,88.03924384879065
1166,0.0
1168,0.0
2,3, 1,31, 0,11, 0.00,60.00,Wednesday
7,-2.0
545,20.04058004634154
546,7.949622118799988
547,15.327405348345339
548,31.465342252652896
720,447.31198302983285
721,447.31198302983285
784,0.0
785,0.0
848,0.0
849,0.0
1121,874.2288277355736
1135,306.0149654926275
1161,5.185902941095746
1163,158.07554389694386
1166,0.0
1168,0.0
2,3, 1,31, 0,12, 0.00,60.00,Wednesday
7,-1.0
545,19.848125130890846
546,9.925212871700902
547,15.291534703405393
548,0.0
720,-45.127318932816706
721,-45.127318932816706
784,0.0
785,0.0
848,0.0
849,0.0
1121,0.0
1135,0.0
1161,0.0
1163,200.0
1166,0.0
1168,0.0
2,3, 1,31, 0,13, 0.00,60.00,Wednesday
7,1.0
545,20.270776468182014
546,11.10773502461975
547,15.29872107398067
548,0.0
720,-433.5906166902387
721,-433.5906166902387
784,0.0
785,0.0
848,0.0
849,0.0
1121,0.0
1135,0.0
1161,0.0
1163,200.0
1166,0.0
1168,0.0
2,3, 1,31, 0,14, 0.00,60.00,Wednesday
7,3.0
545,21.059980307519236
546,15.435407880315454
547,15.325477202761112
548,0.0
720,-1064.153975807094
721,-1064.153975807094
784,0.0
785,0.0
848,0.0
849,0.0
1121,0.0
1135,0.0
1161,0.0
1163,200.0
1166,0.0
1168,0.0
2,3, 1,31, 0,15, 0.00,60.00,Wednesday
7,3.0
545,21.498873848528763
546,15.670185369005745
547,15.368179097814574
548,0.0
720,-1408.4651134141095
721,-1408.4651134141095
784,0.0
785,0.0
848,0.0
849,0.0
1121,0.0
1135,0.0
1161,0.0
1163,200.0
1166,0.0
1168,0.0
2,3, 1,31, 0,16, 0.00,60.00,Wednesday
7,5.0
545,22.374798085360393
546,14.978919204519055
547,15.427286703336396
548,0.0
720,-2203.1800241107285
721,-2203.1800241107285
784,0.0
785,0.0
848,0.0
849,0.0
1121,0.0
1135,0.0
1161,0.0
1163,200.0
1166,0.0
1168,0.0
2,3, 1,31, 0,17, 0.00,60.00,Wednesday
7,4.0
545,22.57804163522027
546,11.716453681496102
547,15.498277668212722
548,0.0
720,-2296.1239199580523
721,-2296.1239199580523
784,0.0
785,0.0
848,0.0
849,0.0
1121,0.0
1135,0.0
1161,0.0
1163,200.0
1166,0.0
1168,0.0
2,3, 1,31, 0,18, 0.00,60.00,Wednesday
7,3.0
545,22.615378395935192
546,9.052226007043837
547,15.589263939723498
548,0.0
720,-2425.738606872261
721,-2425.738606872261
784,0.0
785,0.0
848,0.0
849,0.0
1121,0.0
1135,0.0
1161,0.0
1163,200.0
1166,0.0
1168,0.0
2,3, 1,31, 0,19, 0.00,60.00,Wednesday
7,2.0
545,22.02329751137393
546,6.287344564271138
547,15.661436184456537
548,0.0
720,-1805.4369447782556
721,-1805.4369447782556
784,0.0
785,0.0
848,0.0
849,0.0
1121,0.0
1135,0.0
1161,0.0
1163,200.0
1166,0.0
1168,0.0
2,3, 1,31, 0,20, 0.00,60.00,Wednesday
7,2.0
545,21.720163592110403
546,4.696504204086909
547,15.706937181784815
548,0.0
720,-1656.553825999139
721,-1656.553825999139
784,0.0
785,0.0
848,0.0
849,0.0
1121,0.0
1135,0.0
1161,0.0
1163,200.0
1166,0.0
1168,0.0
2,3, 1,31, 0,21, 0.00,60.00,Wednesday
7,2.0
545,21.381075519601545
546,3.831970365651635
547,15.723070296239277
548,0.0
720,-1339.581622008087
721,-1339.581622008087
784,0.0
785,0.0
848,0.0
849,0.0
1121,0.0
1135,0.0
1161,0.0
1163,200.0
1166,0.0
1168,0.0
2,3, 1,31, 0,22, 0.00,60.00,Wednesday
7,1.5
545,20.559342062307483
546,3.1372051265733885
547,15.71369367427854
548,0.0
720,-670.6767341667455
721,-670.6767341667455
784,0.0
785,0.0
848,0.0
849,0.0
1121,0.0
1135,0.0
1161,0.0
1163,200.0
1166,0.0
1168,0.0
2,3, 1,31, 0,23, 0.00,60.00,Wednesday
7,0.7
545,19.5731161977271
546,2.7372453970531296
547,15.68671000780487
548,0.0
720,-824.1191176018128
721,-824.1191176018128
784,0.0
785,0.0
848,0.0
849,0.0
1121,0.0
1135,0.0
1161,0.0
1163,200.0
1166,0.0
1168,0.0
2,3, 1,31, 0,24, 0.00,60.00,Wednesday
7,-0.4
545,18.776416262965697
546,1.0343518760464083
547,15.6447189871439
548,0.0
720,-143.64218922085456
721,-143.64218922085456
784,0.0
785,0.0
848,0.0
849,0.0
1121,0.0
1135,0.0
1161,0.0
1163,200.0
1166,0.0
1168,0.0
2,4, 2, 1, 0, 1, 0.00,60.00,Thursday
7,-1.7
545,18.54586913757197
546,0.818932337554083
547,15.590034612675224
548,47.16164068475544
720,967.3621660485005
721,967.3621660485005
784,0.0
785,0.0
848,0.0
849,0.0
1121,1377.4264260585803
1135,458.302446331254
1161,0.022878018915904588
1163,137.36484211036804
1166,0.0
1168,0.0
2,4, 2, 1, 0, 2, 0.00,60.00,Thursday
7,-2.7
545,18.536893630920392
546,0.013516863422478518
547,15.513495564260593
548,68.62134343213437
720,1436.8371355008685
721,1436.8371355008685
784,0.0
785,0.0
848,0.0
849,0.0
1121,1983.7861785777993
1135,658.109111162958
1161,0.033288120683047345
1163,108.86419394546812
1166,0.0
1168,0.0
2,4, 2, 1, 0, 3, 0.00,60.00,Thursday
7,-3.3
545,18.500131104468817
546,-0.504946473188202
547,15.433567072193156
548,89.10906168437837
720,1838.962677731597
721,1838.962677731597
784,0.0
785,0.0
848,0.0
849,0.0
1121,2573.8071475278666
1135,849.9861492202746
1161,0.0432267196316545
1163,81.65442037914855
1166,0.0
1168,0.0
2,4, 2, 1, 0, 4, 0.00,60.00,Thursday
7,-3.9
545,18.52349593477066
546,-1.269971229262186
547,15.345831134932487
548,109.85410640929868
720,2233.0812974337296
721,2233.0812974337296
784,0.0
785,0.0
848,0.0
849,0.0
1121,3171.756329912785
1135,1041.66410969964
1161,0.05329016468177412
1163,54.10284469661948
1166,0.0
1168,0.0
2,4, 2, 1, 0, 5, 0.00,60.00,Thursday
7,-4.4
545,18.460026607495976
546,-1.1320671405721106
547,15.252114458700428
548,129.85975569942985
720,2592.1201749878583
721,2592.1201749878583
784,0.0
785,0.0
848,0.0
849,0.0
1121,3755.744822942211
1135,1226.543136764372
1161,0.06299493854479224
1163,27.533234564391872
1166,0.0
1168,0.0
2,4, 2, 1, 0, 6, 0.00,60.00,Thursday
7,-4.6
545,19.24244665777903
546,-1.5088265364186455
547,15.154793961341813
548,150.5929380953505
720,3702.4062978458587
721,3702.4062978458587
784,0.0
785,0.0
848,0.0
849,0.0
1121,4405.96067514951
1135,1417.9299025613884
1161,0.0730516843470482
1163,0.0
1166,816.89463493412
1168,816.89463493412
2,4, 2, 1, 0, 7, 0.00,60.00,Thursday
7,-4.5
545,19.556536307870193
546,-1.1618239710174407
547,15.104212727341256
548,150.5929380953505
720,3788.92189621316
721,3788.92189621316
784,0.0
785,0.0
848,0.0
849,0.0
1121,4399.997299741901
1135,1440.8545800926559
1161,0.0730516843470482
1163,0.0
1166,1055.7558380600221
1168,1055.7558380600221
2,4, 2, 1, 0, 8, 0.00,60.00,Thursday
7,-5.0
545,19.672104954592466
546,-0.9090481156850306
547,15.016715525110628
548,150.5929380953505
720,3395.5427208292185
721,3395.5427208292185
784,0.0
785,0.0
848,0.0
849,0.0
1121,4329.625121308103
1135,1443.5189152706969
1161,0.0730516843470482
1163,0.0
1166,702.5405226407861
1168,702.5405226407861
2,4, 2, 1, 0, 9, 0.00,60.00,Thursday
7,-5.0
545,19.716504876786853
546,0.45972271319070024
547,14.93799053505512
548,150.5929380953505
720,2827.6874474898523
721,2827.6874474898523
784,0.0
785,0.0
848,0.0
849,0.0
1121,4326.963224017138
1135,1446.6240247030025
1161,0.0730516843470482
1163,0.0
1166,47.04192249987
1168,47.04192249987
2,4, 2, 1, 0,10, 0.00,60.00,Thursday
7,-2.7
545,20.032221947520256
546,4.137331846515475
547,14.849866051469892
548,78.55244360675492
720,1331.722069208885
721,1331.722069208885
784,0.0
785,0.0
848,0.0
849,0.0
1121,2274.8131171105165
1135,770.3161428885103
1161,0.038105686233286286
1163,95.67472242732478
1166,0.0
1168,0.0
2,4, 2, 1, 0,11, 0.00,60.00,Thursday
7,-1.6
545,19.9529080731745
546,8.659283612490333
547,14.784372023448462
548,31.25431002112435
720,481.29199428795073
721,481.29199428795073
784,0.0
785,0.0
848,0.0
849,0.0
1121,898.829355773213
1135,311.34517393549766
1161,0.015161403122522671
1163,158.49129761198915
1166,0.0
1168,0.0
2,4, 2, 1, 0,12, 0.00,60.00,Thursday
7,0.0
545,20.145329079039623
546,16.356317093147673
547,14.753611153055807
548,5.057227548560271
720,37.13589723341829
721,37.13589723341829
784,0.0
785,0.0
848,0.0
849,0.0
1121,149.11787574943656
1135,51.004334760429735
1161,0.0024532462237224855
1163,193.28353275999004
1166,0.0
1168,0.0
2,4, 2, 1, 0,13, 0.00,60.00,Thursday
7,1.3
545,20.1880643483592
546,17.41268981435043
547,14.761420183128502
548,0.0
720,-481.90794613793696
721,-481.90794613793696
784,0.0
785,0.0
848,0.0
849,0.0
1121,0.0
1135,0.0
1161,0.0
1163,200.0
1166,0.0
1168,0.0
2,4, 2, 1, 0,14, 0.00,60.00,Thursday
7,2.0
545,21.022969085018325
546,21.54912051831578
547,14.796189931486134
548,0.0
720,-1069.4692881881274
721,-1069.4692881881274
784,0.0
785,0.0
848,0.0
849,0.0
1121,0.0
1135,0.0
1161,0.0
1163,200.0
1166,0.0
1168,0.0
2,4, 2, 1, 0,15, 0.00,60.00,Thursday
7,2.8
545,21.58875665281924
546,17.53050820235684
547,14.843701736087127
548,0.0
720,-1503.1853899214457
721,-1503.1853899214457
784,0.0
785,0.0
848,0.0
849,0.0
1121,0.0
1135,0.0
1161,0.0
1163,200.0
1166,0.0
1168,0.0
2,4, 2, 1, 0,16, 0.00,60.00,Thursday
7,3.1
545,22.605267954648212
546,18.479106174551053
547,14.90688193521923
548,0.0
720,-2415.9434032898625
721,-2415.9434032898625
784,0.0
785,0.0
848,0.0
849,0.0
1121,0.0
1135,0.0
1161,0.0
1163,200.0
1166,0.0
1168,0.0
2,4, 2, 1, 0,17, 0.00,60.00,Thursday
7,2.7
545,23.13861797426618
546,13.501139695099106
547,14.999097673321335
548,0.0
720,-2720.107539231498
721,-2720.107539231498
784,0.0
785,0.0
848,0.0
849,0.0
1121,0.0
1135,0.0
1161,0.0
1163,200.0
1166,0.0
1168,0.0
2,4, 2, 1, 0,18, 0.00,60.00,Thursday
7,0.9
545,22.822684789408683
546,9.86728235963911
547,15.098741208591473
548,0.0
720,-2510.3360382413157
721,-2510.3360382413157
784,0.0
785,0.0
848,0.0
849,0.0
1121,0.0
1135,0.0
1161,0.0
1163,200.0
1166,0.0
1168,0.0
2,4, 2, 1, 0,19, 0.00,60.00,Thursday
7,-0.1
545,22.298666803967212
546,6.462085098506264
547,15.182272716473477
548,0.0
720,-2134.0031178926856
721,-2134.0031178926856
784,0.0
785,0.0
848,0.0
849,0.0
1121,0.0
1135,0.0
1161,0.0
1163,200.0
1166,0.0
1168,0.0
2,4, 2, 1, 0,20, 0.00,60.00,Thursday
7,-1.6
545,21.791444343943127
546,2.9222259256199346
547,15.233198678337796
548,0.0
720,-1723.7019066564117
721,-1723.7019066564117
784,0.0
785,0.0
848,0.0
849,0.0
1121,0.0
1135,0.0
1161,0.0
1163,200.0
1166,0.0
1168,0.0
2,4, 2, 1, 0,21, 0.00,60.00,Thursday
7,-3.1
545,21.119555324674423
546,0.4656073514428393
547,15.248335534493078
548,0.0
720,-1184.0046045991185
721,-1184.0046045991185
784,0.0
785,0.0
848,0.0
849,0.0
1121,0.0
1135,0.0
1161,0.0
1163,200.0
1166,0.0
1168,0.0
2,4, 2, 1, 0,22, 0.00,60.00,Thursday
7,-1.9
545,20.593485045683646
546,-0.9303465485549713
547,15.23575639800154
548,0.0
720,-749.8928694087954
721,-749.8928694087954
784,0.0
785,0.0
848,0.0
849,0.0
1121,0.0
1135,0.0
1161,0.0
1163,200.0
1166,0.0
1168,0.0
2,4, 2, 1, 0,23, 0.00,60.00,Thursday
7,-3.3
545,19.579800468215183
546,-2.6518882446598995
547,15.198214206488936
548,0.0
720,-793.6743086030583
721,-793.6743086030583
784,0.0
785,0.0
848,0.0
849,0.0
1121,0.0
1135,0.0
1161,0.0
1163,200.0
1166,0.0
1168,0.0
2,4, 2, 1, 0,24, 0.00,60.00,Thursday