Program Version,EnergyPlus, Version 22.2.0-c249759bad, YMD=2023.07.07 15:16
1,5,Environment Title[],Latitude[deg],Longitude[deg],Time Zone[],Elevation[m]
2,8,Day of Simulation[],Month[],Day of Month[],DST Indicator[1=yes 0=no],Hour[],StartMinute[],EndMinute[],DayType
3,5,Cumulative Day of Simulation[],Month[],Day of Month[],DST Indicator[1=yes 0=no],DayType  ! When Daily Report Variables Requested
4,2,Cumulative Days of Simulation[],Month[]  ! When Monthly Report Variables Requested
5,1,Cumulative Days of Simulation[] ! When Run Period Report Variables Requested
6,1,Calendar Year of Simulation[] ! When Annual Report Variables Requested
581,11,LIVING,AFN Zone Infiltration Air Change Rate [ach] !RunPeriod [Value,Min,Month,Day,Hour,Minute,Max,Month,Day,Hour,Minute]
582,11,ATTIC,AFN Zone Infiltration Air Change Rate [ach] !RunPeriod [Value,Min,Month,Day,Hour,Minute,Max,Month,Day,Hour,Minute]
583,11,CRAWLSPACE,AFN Zone Infiltration Air Change Rate [ach] !RunPeriod [Value,Min,Month,Day,Hour,Minute,Max,Month,Day,Hour,Minute]
1038,11,Facility,Facility Heating Setpoint Not Met Time [hr] !RunPeriod [Value,Min,Month,Day,Hour,Minute,Max,Month,Day,Hour,Minute]
1039,11,Facility,Facility Cooling Setpoint Not Met Time [hr] !RunPeriod [Value,Min,Month,Day,Hour,Minute,Max,Month,Day,Hour,Minute]
1115,11,DX_HEATING_COIL,Heating Coil Heating Energy [J] !RunPeriod [Value,Min,Month,Day,Hour,Minute,Max,Month,Day,Hour,Minute]
1128,11,DX_HEATING_COIL,Heating Coil Electricity Energy [J] !RunPeriod [Value,Min,Month,Day,Hour,Minute,Max,Month,Day,Hour,Minute]
1153,11,DX_HEATING_COIL,Heating Coil Defrost Electricity Energy [J] !RunPeriod [Value,Min,Month,Day,Hour,Minute,Max,Month,Day,Hour,Minute]
1154,11,DX_HEATING_COIL,Heating Coil Crankcase Heater Electricity Energy [J] !RunPeriod [Value,Min,Month,Day,Hour,Minute,Max,Month,Day,Hour,Minute]
1156,11,HEATING_RESISTANCE_BACKUP,Heating Coil Electricity Energy [J] !RunPeriod [Value,Min,Month,Day,Hour,Minute,Max,Month,Day,Hour,Minute]
13,11,Electricity:Facility [J] !RunPeriod [Value,Min,Month,Day,Hour,Minute,Max,Month,Day,Hour,Minute]
1134,11,Heating:Electricity [J] !RunPeriod [Value,Min,Month,Day,Hour,Minute,Max,Month,Day,Hour,Minute]
1096,11,Cooling:Electricity [J] !RunPeriod [Value,Min,Month,Day,Hour,Minute,Max,Month,Day,Hour,Minute]
562,11,Fans:Electricity [J] !RunPeriod [Value,Min,Month,Day,Hour,Minute,Max,Month,Day,Hour,Minute]
1388,11,Pumps:Electricity [J] !RunPeriod [Value,Min,Month,Day,Hour,Minute,Max,Month,Day,Hour,Minute]
1360,11,WaterSystems:Electricity [J] !RunPeriod [Value,Min,Month,Day,Hour,Minute,Max,Month,Day,Hour,Minute]
61,11,InteriorLights:Electricity [J] !RunPeriod [Value,Min,Month,Day,Hour,Minute,Max,Month,Day,Hour,Minute]
1046,11,ExteriorLights:Electricity [J] !RunPeriod [Value,Min,Month,Day,Hour,Minute,Max,Month,Day,Hour,Minute]
134,11,InteriorEquipment:Electricity [J] !RunPeriod [Value,Min,Month,Day,Hour,Minute,Max,Month,Day,Hour,Minute]
170,11,gas_dryer:InteriorEquipment:Electricity [J] !RunPeriod [Value,Min,Month,Day,Hour,Minute,Max,Month,Day,Hour,Minute]
207,11,clotheswasher:InteriorEquipment:Electricity [J] !RunPeriod [Value,Min,Month,Day,Hour,Minute,Max,Month,Day,Hour,Minute]
244,11,dishwasher:InteriorEquipment:Electricity [J] !RunPeriod [Value,Min,Month,Day,Hour,Minute,Max,Month,Day,Hour,Minute]
281,11,refrigerator:InteriorEquipment:Electricity [J] !RunPeriod [Value,Min,Month,Day,Hour,Minute,Max,Month,Day,Hour,Minute]
318,11,electric_mels:InteriorEquipment:Electricity [J] !RunPeriod [Value,Min,Month,Day,Hour,Minute,Max,Month,Day,Hour,Minute]
355,11,NaturalGas:Facility [J] !RunPeriod [Value,Min,Month,Day,Hour,Minute,Max,Month,Day,Hour,Minute]
1323,11,WaterSystems:NaturalGas [J] !RunPeriod [Value,Min,Month,Day,Hour,Minute,Max,Month,Day,Hour,Minute]
403,11,InteriorEquipment:NaturalGas [J] !RunPeriod [Value,Min,Month,Day,Hour,Minute,Max,Month,Day,Hour,Minute]
476,11,gas_dryer:InteriorEquipment:NaturalGas [J] !RunPeriod [Value,Min,Month,Day,Hour,Minute,Max,Month,Day,Hour,Minute]
513,11,gas_mels:InteriorEquipment:NaturalGas [J] !RunPeriod [Value,Min,Month,Day,Hour,Minute,Max,Month,Day,Hour,Minute]
End of Data Dictionary
1,EXTREME_WINTER,  43.65, -70.32,  -5.00,  13.70
5,15
1038,6.333333333333334,0.0,12,22, 1,10,0.16666666666666666,12,22, 6,10
1039,0.0,0.0,12,22, 1,10,0.0,12,22, 1,10
581,0.38134058553095984,0.16146555974503185,12,31,23,29,1.2322543781073823,12,27, 9,60
582,5.005906632993469,0.0,12,25, 7,60,21.269219151055104,12,27, 9,60
583,6.780731653168953,0.00025090835869852714,12,31,23,13,27.982630287485687,12,27,15,55
1115,3808781406.2121005,0.0,12,22,23, 2,2599667.6341016893,12,22, 6,10
1128,1224897590.9470766,0.0,12,22,23, 2,753950.3606504565,12,24, 9,60
1153,33397854.571914285,0.0,12,22,23, 2,57051.57373585928, 1, 1,15,60
1154,48602299.72063308,0.0,12,22, 6,10,120000.0,12,24,15,10
1156,2180723960.700225,0.0,12,22, 1, 1,4370928.2563273525,12,28, 7,60
13,4433350887.527544,306324.6925987483,12,24,15,10,5620203.082730245,12,28, 7,60
61,646981127.1939279,58759.40635443481,12,22, 1,10,854682.2742463244,12,22,20,10
134,151290040.75163832,42376.01200569399,12,22, 4,10,104369.48322671017,12,27,20,10
170,11185820.069951665,232.27731661587313,12,22, 4,10,11650.931360040839,12,27,12,10
207,13893028.574283868,543.5021409221355,12,22, 3,10,15327.095199349082,12,27,10,10
244,27284301.07562606,1014.5707620042115,12,22, 4,10,35359.08742820678,12,27,20,10
281,98926891.03177528,39959.06841621388,12,22, 5,10,54634.54471212738,12,22,19,10
318,0.0,0.0,12,22, 1,10,0.0,12,22, 1,10
355,1574444058.4124818,12374.216038804521,12,22, 4,10,3829218.1540669827,12,23,18,60
403,422701517.161075,12374.216038804521,12,22, 4,10,483183.26346918393,12,27,18,10
476,227882097.80545104,4732.048419519677,12,22, 4,10,237357.535085481,12,27,12,10
513,0.0,0.0,12,22, 1,10,0.0,12,22, 1,10
562,136701213.64212137,0.0,12,24,15,10,78005.99452005974, 1, 4,12,50
1046,0.0,0.0,12,22, 1,10,0.0,12,22, 1,10
1096,0.0,0.0,12,22, 1,10,0.0,12,22, 1,10
1134,3487621705.939845,120000.0,12,24,15,10,5071585.739915258,12,28, 7,60
1323,1151742541.251407,0.0,12,22, 1,10,3375000.000000001,12,26,19,60
1360,10756800.0,4979.999999999999, 1, 5,22,30,4980.000000000002,12,25,10,30
1388,0.0,0.0,12,22, 1,10,0.0,12,22, 1,10
1,EXTREME_SUMMER,  43.65, -70.32,  -5.00,  13.70
5,7
1038,0.0,0.0, 8,17, 1,10,0.0, 8,17, 1,10
1039,26.16666666666666,0.0, 8,17, 1,10,0.16666666666666666, 8,17,12,10
581,0.09541530724389306,0.0, 8,17, 1, 5,0.3567237503794483, 8,19,16,53
582,2.3198735457302364,0.0261394382463289, 8,23,20,30,7.106935710499333, 8,19,16,53
583,2.7160493025020656,0.0, 8,17,23, 2,9.099454180506909, 8,19,13,53
1115,0.0,0.0, 8,17, 1, 5,0.0, 8,17, 1, 5
1128,0.0,0.0, 8,17, 1, 5,0.0, 8,17, 1, 5
1153,0.0,0.0, 8,17, 1, 5,0.0, 8,17, 1, 5
1154,0.0,0.0, 8,17, 1, 5,0.0, 8,17, 1, 5
1156,0.0,0.0, 8,17, 1, 5,0.0, 8,17, 1, 5
13,746352770.0881125,106115.4183601288, 8,21, 4,60,1724676.507239414, 8,17,20,10
61,301924526.0238348,58759.40635443481, 8,17, 1,10,854682.2742463244, 8,17,20,10
134,70666020.44019979,42376.01200569399, 8,17, 4,10,104369.48322671017, 8,22,20,10
170,5241013.419656074,232.27731661587313, 8,17, 4,10,11650.931360040839, 8,22,12,10
207,6509451.13922266,543.5021409221355, 8,17, 3,10,15327.095199349082, 8,22,10,10
244,12749673.39982522,1014.5707620042115, 8,17, 4,10,35359.08742820678, 8,22,20,10
281,46165882.48149605,39959.06841621388, 8,17, 5,10,54634.54471212738, 8,17,19,10
318,0.0,0.0, 8,17, 1,10,0.0, 8,17, 1,10
355,622073120.311104,12374.216038804521, 8,17, 4,10,3829218.154066982, 8,21,18,20
403,197687796.27748126,12374.216038804521, 8,17, 4,10,483183.26346918393, 8,22,18,10
476,106772067.24485692,4732.048419519677, 8,17, 4,10,237357.535085481, 8,22,12,10
513,0.0,0.0, 8,17, 1,10,0.0, 8,17, 1,10
562,37682651.581647165,0.0, 8,20,23,10,78005.99452005974, 8,17,11,10
1046,0.0,0.0, 8,17, 1,10,0.0, 8,17, 1,10
1096,331059732.0424295,0.0, 8,20,23,10,779851.8561446349, 8,17,12,60
1134,0.0,0.0, 8,17, 1,10,0.0, 8,17, 1,10
1323,424385324.033622,0.0, 8,17, 1,10,3375000.000000001, 8,17,21,50
1360,5019840.0,4979.999999999999, 8,21,19,30,4980.000000000001, 8,17, 7,20
1388,0.0,0.0, 8,17, 1,10,0.0, 8,17, 1,10
1,ANNUAL,  43.65, -70.32,  -5.00,  13.70
5,365
1038,44.99999999999997,0.0, 1, 1, 1,10,0.16666666666666666, 1, 3, 6,10
1039,249.49999999999997,0.0, 1, 1, 1,10,0.16666666666666666, 5,29,13,50
581,0.24095070760881646,0.0, 6, 9,19,55,1.2807951393814967,11, 7,24,55
582,3.8036313196663007,0.0, 1, 1, 3,40,28.21341706726293, 3, 2,16,55
583,4.392946641488421,0.0, 7,23,23, 2,28.988356624961906, 2,15, 1,55
1115,32663349621.712986,0.0, 1, 1,23, 3,3510480.0499325013,11, 8, 6,60
1128,10111872832.790611,0.0, 1, 1,23, 3,849855.1772915137,11, 8, 7,10
1153,275550254.5888716,0.0, 1, 1,23, 3,84948.66195123736, 3,11, 7,60
1154,1676436959.4184828,0.0, 1, 1, 1,42,120000.0, 1, 8,20,30
1156,9828684954.145226,0.0, 1, 1, 1, 1,4370928.2563273525, 1, 3, 6,10
13,48946444979.4461,106115.41836012878, 9, 8, 4,20,5617212.317055929,12,28, 7,50
61,15743207428.39043,58759.40635443481, 1, 1, 1,10,854682.2742463244, 1, 1,20,10
134,3685071073.433083,42376.01200569399, 1, 2, 4,10,104369.48322671017, 1, 1,20,10
170,273393721.45534325,232.27731661587313, 1, 2, 4,10,11650.931360040839, 1, 1,12,10
207,339560869.06955314,543.5021409221355, 1, 2, 3,10,15327.095199349082, 1, 1,10,10
244,664895467.8009839,1014.5707620042115, 1, 2, 4,10,35359.08742820678, 1, 1,20,10
281,2407221015.1057043,39959.06841621388, 1, 1, 5,10,54634.54471212738, 1, 1,19,10
318,0.0,0.0, 1, 1, 1,10,0.0, 1, 1, 1,10
355,35774915672.502144,12374.216038804521, 1, 2, 4,10,3829218.154066983,10,31,18,60
403,10310294493.052883,12374.216038804521, 1, 2, 4,10,483183.26346918393, 1, 1,18,10
476,5569688622.065564,4732.048419519677, 1, 2, 4,10,237357.535085481, 1, 1,12,10
513,0.0,0.0, 1, 1, 1,10,0.0, 1, 1, 1,10
562,1770285388.8481703,0.0, 1, 6,23,10,78005.99452005974, 1, 4,12,50
1046,0.0,0.0, 1, 1, 1,10,0.0, 1, 1, 1,10
1096,5593587287.837806,0.0, 1, 1, 1,10,814256.592097479, 6, 9,15,60
1134,21892545000.943325,0.0, 1, 8,10,50,5070174.962974336,12,28, 7,50
1323,25464621179.453037,0.0, 1, 1, 1,10,3375000.0000000023, 2, 7,20,20
1360,261748800.0,4979.999999999998, 3,20,15,40,4980.000000000002, 3,20, 8,40
1388,0.0,0.0, 1, 1, 1,10,0.0, 1, 1, 1,10
End of Data
 Number of Records Written=          87
