Program Version,EnergyPlus, Version 22.2.0-c249759bad, YMD=2023.07.07 15:04
1,5,Environment Title[],Latitude[deg],Longitude[deg],Time Zone[],Elevation[m]
2,8,Day of Simulation[],Month[],Day of Month[],DST Indicator[1=yes 0=no],Hour[],StartMinute[],EndMinute[],DayType
3,5,Cumulative Day of Simulation[],Month[],Day of Month[],DST Indicator[1=yes 0=no],DayType  ! When Daily Report Variables Requested
4,2,Cumulative Days of Simulation[],Month[]  ! When Monthly Report Variables Requested
5,1,Cumulative Days of Simulation[] ! When Run Period Report Variables Requested
6,1,Calendar Year of Simulation[] ! When Annual Report Variables Requested
581,11,LIVING,AFN Zone Infiltration Air Change Rate [ach] !RunPeriod [Value,Min,Month,Day,Hour,Minute,Max,Month,Day,Hour,Minute]
582,11,ATTIC,AFN Zone Infiltration Air Change Rate [ach] !RunPeriod [Value,Min,Month,Day,Hour,Minute,Max,Month,Day,Hour,Minute]
583,11,CRAWLSPACE,AFN Zone Infiltration Air Change Rate [ach] !RunPeriod [Value,Min,Month,Day,Hour,Minute,Max,Month,Day,Hour,Minute]
1038,11,Facility,Facility Heating Setpoint Not Met Time [hr] !RunPeriod [Value,Min,Month,Day,Hour,Minute,Max,Month,Day,Hour,Minute]
1039,11,Facility,Facility Cooling Setpoint Not Met Time [hr] !RunPeriod [Value,Min,Month,Day,Hour,Minute,Max,Month,Day,Hour,Minute]
1115,11,DX_HEATING_COIL,Heating Coil Heating Energy [J] !RunPeriod [Value,Min,Month,Day,Hour,Minute,Max,Month,Day,Hour,Minute]
1128,11,DX_HEATING_COIL,Heating Coil Electricity Energy [J] !RunPeriod [Value,Min,Month,Day,Hour,Minute,Max,Month,Day,Hour,Minute]
1153,11,DX_HEATING_COIL,Heating Coil Defrost Electricity Energy [J] !RunPeriod [Value,Min,Month,Day,Hour,Minute,Max,Month,Day,Hour,Minute]
1154,11,DX_HEATING_COIL,Heating Coil Crankcase Heater Electricity Energy [J] !RunPeriod [Value,Min,Month,Day,Hour,Minute,Max,Month,Day,Hour,Minute]
1156,11,HEATING_RESISTANCE_BACKUP,Heating Coil Electricity Energy [J] !RunPeriod [Value,Min,Month,Day,Hour,Minute,Max,Month,Day,Hour,Minute]
13,11,Electricity:Facility [J] !RunPeriod [Value,Min,Month,Day,Hour,Minute,Max,Month,Day,Hour,Minute]
1134,11,Heating:Electricity [J] !RunPeriod [Value,Min,Month,Day,Hour,Minute,Max,Month,Day,Hour,Minute]
1096,11,Cooling:Electricity [J] !RunPeriod [Value,Min,Month,Day,Hour,Minute,Max,Month,Day,Hour,Minute]
562,11,Fans:Electricity [J] !RunPeriod [Value,Min,Month,Day,Hour,Minute,Max,Month,Day,Hour,Minute]
1388,11,Pumps:Electricity [J] !RunPeriod [Value,Min,Month,Day,Hour,Minute,Max,Month,Day,Hour,Minute]
1360,11,WaterSystems:Electricity [J] !RunPeriod [Value,Min,Month,Day,Hour,Minute,Max,Month,Day,Hour,Minute]
61,11,InteriorLights:Electricity [J] !RunPeriod [Value,Min,Month,Day,Hour,Minute,Max,Month,Day,Hour,Minute]
1046,11,ExteriorLights:Electricity [J] !RunPeriod [Value,Min,Month,Day,Hour,Minute,Max,Month,Day,Hour,Minute]
134,11,InteriorEquipment:Electricity [J] !RunPeriod [Value,Min,Month,Day,Hour,Minute,Max,Month,Day,Hour,Minute]
170,11,gas_dryer:InteriorEquipment:Electricity [J] !RunPeriod [Value,Min,Month,Day,Hour,Minute,Max,Month,Day,Hour,Minute]
207,11,clotheswasher:InteriorEquipment:Electricity [J] !RunPeriod [Value,Min,Month,Day,Hour,Minute,Max,Month,Day,Hour,Minute]
244,11,dishwasher:InteriorEquipment:Electricity [J] !RunPeriod [Value,Min,Month,Day,Hour,Minute,Max,Month,Day,Hour,Minute]
281,11,refrigerator:InteriorEquipment:Electricity [J] !RunPeriod [Value,Min,Month,Day,Hour,Minute,Max,Month,Day,Hour,Minute]
318,11,electric_mels:InteriorEquipment:Electricity [J] !RunPeriod [Value,Min,Month,Day,Hour,Minute,Max,Month,Day,Hour,Minute]
355,11,NaturalGas:Facility [J] !RunPeriod [Value,Min,Month,Day,Hour,Minute,Max,Month,Day,Hour,Minute]
1323,11,WaterSystems:NaturalGas [J] !RunPeriod [Value,Min,Month,Day,Hour,Minute,Max,Month,Day,Hour,Minute]
403,11,InteriorEquipment:NaturalGas [J] !RunPeriod [Value,Min,Month,Day,Hour,Minute,Max,Month,Day,Hour,Minute]
476,11,gas_dryer:InteriorEquipment:NaturalGas [J] !RunPeriod [Value,Min,Month,Day,Hour,Minute,Max,Month,Day,Hour,Minute]
513,11,gas_mels:InteriorEquipment:NaturalGas [J] !RunPeriod [Value,Min,Month,Day,Hour,Minute,Max,Month,Day,Hour,Minute]
End of Data Dictionary
1,EXTREME_WINTER,  34.92, -92.15,  -6.00,  95.00
5,7
1038,0.3333333333333333,0.0, 1,29, 1,10,0.16666666666666666, 1,31, 6,10
1039,0.0,0.0, 1,29, 1,10,0.0, 1,29, 1,10
581,0.23387110854241686,0.12040695621834585, 2, 4, 6, 2,0.37207284807364394, 2, 3,12,55
582,2.616292656481696,0.0, 2, 1,20,55,8.74216568427413, 2, 3,14,60
583,3.044244275541615,0.0002505690541274648, 2, 3,24,60,9.706403751654419, 2, 3,14,60
1115,648895996.5910891,0.0, 1,29, 1, 5,2836045.0262161833, 2, 2, 6,40
1128,205885110.78745714,0.0, 1,29, 1, 5,913482.0501160135, 2, 1, 6,20
1153,8072544.878117158,0.0, 1,29, 1, 5,48611.85573033987, 1,30, 6,30
1154,77528288.09524228,0.0, 1,29, 6, 2,120000.0, 1,29, 1,20
1156,10865364.232079607,0.0, 1,29, 1, 5,682732.9495016986, 2, 3, 6, 3
13,712294389.8184773,191357.63440335175, 2, 2,14,10,2572920.321472181, 1,31, 6,10
61,301924526.0238348,58759.40635443481, 1,29, 1,10,854682.2742463244, 1,29,20,10
134,70666020.44019979,42376.01200569399, 1,29, 4,10,104369.48322671017, 2, 3,20,10
170,5241013.419656074,232.27731661587313, 1,29, 4,10,11650.931360040839, 2, 3,12,10
207,6509451.13922266,543.5021409221355, 1,29, 3,10,15327.095199349082, 2, 3,10,10
244,12749673.39982522,1014.5707620042115, 1,29, 4,10,35359.08742820678, 2, 3,20,10
281,46165882.48149605,39959.06841621388, 1,29, 5,10,54634.54471212738, 1,29,19,10
318,0.0,0.0, 1,29, 1,10,0.0, 1,29, 1,10
355,742797251.6481892,12374.216038804521, 1,29, 4,10,3829218.154066982, 2, 2,18,20
403,197687796.27748126,12374.216038804521, 1,29, 4,10,483183.26346918393, 2, 3,18,10
476,106772067.24485692,4732.048419519677, 1,29, 4,10,237357.535085481, 2, 3,12,10
513,0.0,0.0, 1,29, 1,10,0.0, 1,29, 1,10
562,23152046.07241977,0.0, 1,29, 1,10,94512.75885722315, 1,31, 6,10
1046,0.0,0.0, 1,29, 1,10,0.0, 1,29, 1,10
1096,9180649.289125798,0.0, 1,29, 1,10,212717.32741471851, 2, 2,17,30
1134,302351307.9928957,0.0, 2, 2,12,60,2060848.239604305, 1,31, 6,10
1323,545109455.3707051,0.0, 1,29, 1,10,3375000.000000001, 2, 1,10,30
1360,5019840.0,4980.0, 1,29, 1,10,4980.000000000002, 1,29, 9,40
1388,0.0,0.0, 1,29, 1,10,0.0, 1,29, 1,10
1,EXTREME_SUMMER,  34.92, -92.15,  -6.00,  95.00
5,7
1038,0.0,0.0, 9, 2, 1,10,0.0, 9, 2, 1,10
1039,68.16666666666667,0.0, 9, 2, 1,10,0.16666666666666666, 9, 2, 6,10
581,0.0794791875114402,0.0, 9, 3,22,15,0.5636722836303208, 9, 7,22,55
582,2.893304027000746,0.0, 9, 5,19,42,13.347826106846988, 9, 7,22,55
583,3.428845893118222,0.0, 9, 5, 6, 7,18.261355439928725, 9, 7,22,55
1115,0.0,0.0, 9, 2, 1, 5,0.0, 9, 2, 1, 5
1128,0.0,0.0, 9, 2, 1, 5,0.0, 9, 2, 1, 5
1153,0.0,0.0, 9, 2, 1, 5,0.0, 9, 2, 1, 5
1154,0.0,0.0, 9, 2, 1, 5,0.0, 9, 2, 1, 5
1156,0.0,0.0, 9, 2, 1, 5,0.0, 9, 2, 1, 5
13,1118460500.9788191,246575.7210375698, 9, 4, 4,60,2044600.8228215636, 9, 8,20,10
61,301924526.0238348,58759.40635443481, 9, 2, 1,10,854682.2742463244, 9, 2,20,10
134,70666020.44019979,42376.01200569399, 9, 2, 4,10,104369.48322671017, 9, 7,20,10
170,5241013.419656074,232.27731661587313, 9, 2, 4,10,11650.931360040839, 9, 7,12,10
207,6509451.13922266,543.5021409221355, 9, 2, 3,10,15327.095199349082, 9, 7,10,10
244,12749673.39982522,1014.5707620042115, 9, 2, 4,10,35359.08742820678, 9, 7,20,10
281,46165882.48149605,39959.06841621388, 9, 2, 5,10,54634.54471212738, 9, 2,19,10
318,0.0,0.0, 9, 2, 1,10,0.0, 9, 2, 1,10
355,616374112.9748284,12374.216038804521, 9, 2, 4,10,3829218.154066982, 9, 3,18,60
403,197687796.27748126,12374.216038804521, 9, 2, 4,10,483183.26346918393, 9, 7,18,10
476,106772067.24485692,4732.048419519677, 9, 2, 4,10,237357.535085481, 9, 7,12,10
513,0.0,0.0, 9, 2, 1,10,0.0, 9, 2, 1,10
562,65482964.13030399,13343.249786427989, 9, 4, 5,60,94512.75885722318, 9, 5,14,60
1046,0.0,0.0, 9, 2, 1,10,0.0, 9, 2, 1,10
1096,675367150.3844795,117342.55745522509, 9, 4, 5,60,1125307.4834856102, 9, 4,15,60
1134,0.0,0.0, 9, 2, 1,10,0.0, 9, 2, 1,10
1323,418686316.6973464,0.0, 9, 2, 1,10,3375000.000000002, 9, 2, 9,50
1360,5019840.0,4980.0, 9, 2, 1,10,4980.000000000002, 9, 4, 4,10
1388,0.0,0.0, 9, 2, 1,10,0.0, 9, 2, 1,10
1,ANNUAL,  34.92, -92.15,  -6.00,  95.00
5,365
1038,5.833333333333334,0.0, 1, 1, 1,10,0.16666666666666666, 1, 2, 6,10
1039,898.1666666666667,0.0, 1, 1, 1,10,0.16666666666666666, 4, 1,15,60
581,0.1449937411133149,0.0, 4, 1,20,13,0.6448783974900625, 3, 6,13,60
582,2.6013630629320335,0.0, 1,11, 5,60,24.300950569782454, 3, 6,14,60
583,2.9923803475915727,0.0, 5,23,23, 2,20.282867569967706,12,18,17,60
1115,7918286734.436214,0.0, 1, 1, 1, 1,3067333.326935616,12,17, 6,30
1128,2453527314.4082704,0.0, 1, 1, 1, 1,920940.6040143225,12,17, 6,30
1153,99848677.64052197,0.0, 1, 1, 1, 1,76583.85551050577, 1,11, 6,30
1154,1364394323.9642417,0.0, 1, 1, 6, 2,120000.0, 1, 1, 2,50
1156,269780342.9780696,0.0, 1, 1, 1, 1,2048198.8485050958,12,20, 6,30
13,40606672825.32824,106115.4183601288, 1, 4, 4,10,3425410.572485731,12,20, 6,30
61,15743207428.39043,58759.40635443481, 1, 1, 1,10,854682.2742463244, 1, 1,20,10
134,3685071073.433083,42376.01200569399, 1, 2, 4,10,104369.48322671017, 1, 1,20,10
170,273393721.45534325,232.27731661587313, 1, 2, 4,10,11650.931360040839, 1, 1,12,10
207,339560869.06955314,543.5021409221355, 1, 2, 3,10,15327.095199349082, 1, 1,10,10
244,664895467.8009839,1014.5707620042115, 1, 2, 4,10,35359.08742820678, 1, 1,20,10
281,2407221015.1057043,39959.06841621388, 1, 1, 5,10,54634.54471212738, 1, 1,19,10
318,0.0,0.0, 1, 1, 1,10,0.0, 1, 1, 1,10
355,35662619615.5642,12374.216038804521, 1, 2, 4,10,3829218.1540669827, 1,24,18,60
403,10310294493.052883,12374.216038804521, 1, 2, 4,10,483183.26346918393, 1, 1,18,10
476,5569688622.065564,4732.048419519677, 1, 2, 4,10,237357.535085481, 1, 1,12,10
513,0.0,0.0, 1, 1, 1,10,0.0, 1, 1, 1,10
562,1858860899.1680212,0.0, 1, 1, 1,30,94512.75885722318, 5,24,17,30
1046,0.0,0.0, 1, 1, 1,10,0.0, 1, 1, 1,10
1096,14870233965.352348,0.0, 1, 1, 1,10,1129013.4429937694, 7,30,15,60
1134,4187550658.9910984,0.0, 1, 1,13,40,2913338.4906178545,12,20, 6,30
1323,25352325122.5153,0.0, 1, 1, 1,10,3375000.000000002, 1, 3,20,30
1360,261748800.0,4979.999999999998, 1,25,13,10,4980.000000000002, 1,12,10,30
1388,0.0,0.0, 1, 1, 1,10,0.0, 1, 1, 1,10
End of Data
 Number of Records Written=          87
