Program Version,EnergyPlus, Version 22.2.0-c249759bad, YMD=2023.09.01 20:19
1,5,Environment Title[],Latitude[deg],Longitude[deg],Time Zone[],Elevation[m]
2,8,Day of Simulation[],Month[],Day of Month[],DST Indicator[1=yes 0=no],Hour[],StartMinute[],EndMinute[],DayType
3,5,Cumulative Day of Simulation[],Month[],Day of Month[],DST Indicator[1=yes 0=no],DayType  ! When Daily Report Variables Requested
4,2,Cumulative Days of Simulation[],Month[]  ! When Monthly Report Variables Requested
5,1,Cumulative Days of Simulation[] ! When Run Period Report Variables Requested
6,1,Calendar Year of Simulation[] ! When Annual Report Variables Requested
581,11,LIVING,AFN Zone Infiltration Air Change Rate [ach] !RunPeriod [Value,Min,Month,Day,Hour,Minute,Max,Month,Day,Hour,Minute]
582,11,ATTIC,AFN Zone Infiltration Air Change Rate [ach] !RunPeriod [Value,Min,Month,Day,Hour,Minute,Max,Month,Day,Hour,Minute]
583,11,CRAWLSPACE,AFN Zone Infiltration Air Change Rate [ach] !RunPeriod [Value,Min,Month,Day,Hour,Minute,Max,Month,Day,Hour,Minute]
1038,11,Facility,Facility Heating Setpoint Not Met Time [hr] !RunPeriod [Value,Min,Month,Day,Hour,Minute,Max,Month,Day,Hour,Minute]
1039,11,Facility,Facility Cooling Setpoint Not Met Time [hr] !RunPeriod [Value,Min,Month,Day,Hour,Minute,Max,Month,Day,Hour,Minute]
1115,11,DX_HEATING_COIL,Heating Coil Heating Energy [J] !RunPeriod [Value,Min,Month,Day,Hour,Minute,Max,Month,Day,Hour,Minute]
1128,11,DX_HEATING_COIL,Heating Coil Electricity Energy [J] !RunPeriod [Value,Min,Month,Day,Hour,Minute,Max,Month,Day,Hour,Minute]
1153,11,DX_HEATING_COIL,Heating Coil Defrost Electricity Energy [J] !RunPeriod [Value,Min,Month,Day,Hour,Minute,Max,Month,Day,Hour,Minute]
1154,11,DX_HEATING_COIL,Heating Coil Crankcase Heater Electricity Energy [J] !RunPeriod [Value,Min,Month,Day,Hour,Minute,Max,Month,Day,Hour,Minute]
1155,11,HEATING_RESISTANCE_BACKUP,Heating Coil Heating Energy [J] !RunPeriod [Value,Min,Month,Day,Hour,Minute,Max,Month,Day,Hour,Minute]
1156,11,HEATING_RESISTANCE_BACKUP,Heating Coil Electricity Energy [J] !RunPeriod [Value,Min,Month,Day,Hour,Minute,Max,Month,Day,Hour,Minute]
1292,11,WATER HEATER,Water Heater Heat Loss Energy [J] !RunPeriod [Value,Min,Month,Day,Hour,Minute,Max,Month,Day,Hour,Minute]
1306,11,WATER HEATER,Water Heater Heating Energy [J] !RunPeriod [Value,Min,Month,Day,Hour,Minute,Max,Month,Day,Hour,Minute]
1307,11,WATER HEATER,Water Heater Unmet Demand Heat Transfer Energy [J] !RunPeriod [Value,Min,Month,Day,Hour,Minute,Max,Month,Day,Hour,Minute]
1308,11,WATER HEATER,Water Heater Electricity Energy [J] !RunPeriod [Value,Min,Month,Day,Hour,Minute,Max,Month,Day,Hour,Minute]
13,11,Electricity:Facility [J] !RunPeriod [Value,Min,Month,Day,Hour,Minute,Max,Month,Day,Hour,Minute]
1134,11,Heating:Electricity [J] !RunPeriod [Value,Min,Month,Day,Hour,Minute,Max,Month,Day,Hour,Minute]
1096,11,Cooling:Electricity [J] !RunPeriod [Value,Min,Month,Day,Hour,Minute,Max,Month,Day,Hour,Minute]
562,11,Fans:Electricity [J] !RunPeriod [Value,Min,Month,Day,Hour,Minute,Max,Month,Day,Hour,Minute]
1379,11,Pumps:Electricity [J] !RunPeriod [Value,Min,Month,Day,Hour,Minute,Max,Month,Day,Hour,Minute]
1326,11,WaterSystems:Electricity [J] !RunPeriod [Value,Min,Month,Day,Hour,Minute,Max,Month,Day,Hour,Minute]
61,11,InteriorLights:Electricity [J] !RunPeriod [Value,Min,Month,Day,Hour,Minute,Max,Month,Day,Hour,Minute]
1046,11,ExteriorLights:Electricity [J] !RunPeriod [Value,Min,Month,Day,Hour,Minute,Max,Month,Day,Hour,Minute]
134,11,InteriorEquipment:Electricity [J] !RunPeriod [Value,Min,Month,Day,Hour,Minute,Max,Month,Day,Hour,Minute]
170,11,gas_dryer:InteriorEquipment:Electricity [J] !RunPeriod [Value,Min,Month,Day,Hour,Minute,Max,Month,Day,Hour,Minute]
207,11,clotheswasher:InteriorEquipment:Electricity [J] !RunPeriod [Value,Min,Month,Day,Hour,Minute,Max,Month,Day,Hour,Minute]
244,11,dishwasher:InteriorEquipment:Electricity [J] !RunPeriod [Value,Min,Month,Day,Hour,Minute,Max,Month,Day,Hour,Minute]
281,11,refrigerator:InteriorEquipment:Electricity [J] !RunPeriod [Value,Min,Month,Day,Hour,Minute,Max,Month,Day,Hour,Minute]
318,11,electric_mels:InteriorEquipment:Electricity [J] !RunPeriod [Value,Min,Month,Day,Hour,Minute,Max,Month,Day,Hour,Minute]
355,11,NaturalGas:Facility [J] !RunPeriod [Value,Min,Month,Day,Hour,Minute,Max,Month,Day,Hour,Minute]
403,11,InteriorEquipment:NaturalGas [J] !RunPeriod [Value,Min,Month,Day,Hour,Minute,Max,Month,Day,Hour,Minute]
476,11,gas_dryer:InteriorEquipment:NaturalGas [J] !RunPeriod [Value,Min,Month,Day,Hour,Minute,Max,Month,Day,Hour,Minute]
513,11,gas_mels:InteriorEquipment:NaturalGas [J] !RunPeriod [Value,Min,Month,Day,Hour,Minute,Max,Month,Day,Hour,Minute]
End of Data Dictionary
1,EXTREME_WINTER,  32.28,-106.92,  -7.00,1358.00
5,7
1038,0.0,0.0, 1,13, 1,15,0.0, 1,13, 1,15
1039,0.0,0.0, 1,13, 1,15,0.0, 1,13, 1,15
581,0.27589646236128007,0.16489459919956384, 1,13,17,60,0.6835563140963995, 1,17, 2,60
582,3.1039909895235884,0.0, 1,13, 4,37,10.80344186246372, 1,17, 2,60
583,0.017201236174478555,0.0002701606115788079, 1,14,23,37,0.09527268419641843, 1,17, 6, 5
1115,509347584.5992414,0.0, 1,13, 1, 7,4907252.604585058, 1,18, 6,45
1128,165022034.68043944,0.0, 1,13, 1, 7,1610151.592080884, 1,18, 6,45
1153,22502.84116431059,0.0, 1,13, 1, 7,6386.215810338719, 1,18, 4,60
1154,83528719.87263153,0.0, 1,13,13,30,180000.0, 1,13,21,30
1155,3170228.4386669095,0.0, 1,13, 1, 7,1060431.2256841953, 1,18, 6, 5
1156,3170228.4386669095,0.0, 1,13, 1, 7,1060431.2256841953, 1,18, 6, 5
1292,-24203050.69046144,-39765.95342466497, 1,19, 3,60,-3966.0970619886493, 1,19,13,44
1306,115264410.14233133,0.0, 1,13, 1, 7,3982849.920476573, 1,16, 8,30
1307,19327886.19553068,0.0, 1,13, 1, 7,2661446.279355421, 1,16, 8,30
1308,115264410.14233133,0.0, 1,13, 1, 7,3982849.920476573, 1,16, 8,30
13,774559090.3805962,272017.0388981225, 1,13,15,15,5582319.604980602, 1,13, 7,15
61,301924526.02383536,88139.10953165221, 1,13, 1,15,1282023.4113694867, 1,13,20,15
134,70666020.44019976,63564.01800854099, 1,13, 4,15,156554.22484006523, 1,18,20,15
170,5241013.419656067,348.4159749238097, 1,13, 4,15,17476.39704006126, 1,18,12,15
207,6509451.13922267,815.2532113832032, 1,13, 3,15,22990.642799023623, 1,18,10,15
244,12749673.399825225,1521.856143006317, 1,13, 4,15,53038.631142310165, 1,18,20,15
281,46165882.481495745,59938.60262432081, 1,13, 5,15,81951.81706819107, 1,13,19,15
318,0.0,0.0, 1,13, 1,15,0.0, 1,13, 1,15
355,197687796.27748066,18561.32405820678, 1,13, 4,15,724774.895203776, 1,18,18,15
403,197687796.27748066,18561.32405820678, 1,13, 4,15,724774.895203776, 1,18,18,15
476,106772067.24485716,7098.072629279515, 1,13, 4,15,356036.3026282215, 1,18,12,15
513,0.0,0.0, 1,13, 1,15,0.0, 1,13, 1,15
562,19522555.146653432,0.0, 1,13, 1,15,166563.14287939674, 1,18, 6,45
1046,0.0,0.0, 1,13, 1,15,0.0, 1,13, 1,15
1096,15438092.79467419,0.0, 1,13, 1,15,281991.9494027557, 1,14,17,30
1134,251743485.832902,0.0, 1,13,13,30,2551388.2618851396, 1,18, 6,15
1326,115264410.14233132,0.0, 1,13, 1,15,4050000.0, 1,13, 7,15
1379,0.0,0.0, 1,13, 1,15,0.0, 1,13, 1,15
1,EXTREME_SUMMER,  32.28,-106.92,  -7.00,1358.00
5,7
1038,0.0,0.0, 7,20, 1,15,0.0, 7,20, 1,15
1039,5.75,0.0, 7,20, 1,15,0.25, 7,25,18,15
581,0.12385302241769307,0.0, 7,22, 6, 7,0.39953548024094165, 7,23,15,51
582,3.487158796853534,0.1047093809511525, 7,22, 8,49,16.265124382636614, 7,22,17,46
583,0.04209835504214643,0.0, 7,22, 6, 7,0.08709856668359225, 7,26,18,46
1115,0.0,0.0, 7,20, 1, 7,0.0, 7,20, 1, 7
1128,0.0,0.0, 7,20, 1, 7,0.0, 7,20, 1, 7
1153,0.0,0.0, 7,20, 1, 7,0.0, 7,20, 1, 7
1154,0.0,0.0, 7,20, 1, 7,0.0, 7,20, 1, 7
1155,0.0,0.0, 7,20, 1, 7,0.0, 7,20, 1, 7
1156,0.0,0.0, 7,20, 1, 7,0.0, 7,20, 1, 7
1292,-22104905.973834552,-34347.17903695704, 7,20, 7,30,-3131.9887952460113, 7,22, 8,60
1306,84397095.66549802,0.0, 7,20, 1, 7,4050000.0, 7,20, 7,15
1307,6052637.729497695,0.0, 7,20, 1, 7,3323746.031890351, 7,20, 6,60
1308,84397095.66549802,0.0, 7,20, 1, 7,4050000.0, 7,20, 7,15
13,1065780630.7843355,208336.1482829775, 7,24, 4,60,6602772.744247073, 7,20,19,30
61,301924526.02383536,88139.10953165221, 7,20, 1,15,1282023.4113694867, 7,20,20,15
134,70666020.44019976,63564.01800854099, 7,20, 4,15,156554.22484006523, 7,25,20,15
170,5241013.419656067,348.4159749238097, 7,20, 4,15,17476.39704006126, 7,25,12,15
207,6509451.13922267,815.2532113832032, 7,20, 3,15,22990.642799023623, 7,25,10,15
244,12749673.399825225,1521.856143006317, 7,20, 4,15,53038.631142310165, 7,25,20,15
281,46165882.481495745,59938.60262432081, 7,20, 5,15,81951.81706819107, 7,20,19,15
318,0.0,0.0, 7,20, 1,15,0.0, 7,20, 1,15
355,197687796.27748066,18561.32405820678, 7,20, 4,15,724774.895203776, 7,25,18,15
403,197687796.27748066,18561.32405820678, 7,20, 4,15,724774.895203776, 7,25,18,15
476,106772067.24485716,7098.072629279515, 7,20, 4,15,356036.3026282215, 7,25,12,15
513,0.0,0.0, 7,20, 1,15,0.0, 7,20, 1,15
562,55048416.24814117,5821.163863148153, 7,24, 6,30,170867.03830595894, 7,26,18,30
1046,0.0,0.0, 7,20, 1,15,0.0, 7,20, 1,15
1096,553744572.4066625,46083.72237002221, 7,24, 6,30,1984835.0120502159, 7,26,16,60
1134,0.0,0.0, 7,20, 1,15,0.0, 7,20, 1,15
1326,84397095.66549803,0.0, 7,20, 1,15,4050000.0, 7,20, 7,15
1379,0.0,0.0, 7,20, 1,15,0.0, 7,20, 1,15
1,ANNUAL,  32.28,-106.92,  -7.00,1358.00
5,365
1038,0.0,0.0, 1, 1, 1,15,0.0, 1, 1, 1,15
1039,120.75,0.0, 1, 1, 1,15,0.25, 1, 3,17,30
581,0.20988977916428533,0.0, 6,23, 6, 7,1.3313899147083568,12,20,13,52
582,4.2653477726204025,0.0, 1, 2, 4,45,49.0180282935117,12,20,12,60
583,0.026132811710390183,0.0, 3, 3, 9,52,0.09733382972695818, 1, 1, 6, 5
1115,5366780026.85516,0.0, 1, 1, 1, 7,4988402.720911043, 1,18, 6,45
1128,1698197290.1106021,0.0, 1, 1, 1, 7,1632335.605692691, 1,18, 6,45
1153,37052445.834671564,0.0, 1, 1, 1, 7,118129.30505468205, 2, 2, 6,45
1154,1427907860.6728902,0.0, 1, 1, 6, 5,180000.0, 1, 1,20,60
1155,31436263.70577957,0.0, 1, 1, 1, 7,1238335.5848930227, 1,20, 6,45
1156,31436263.70577957,0.0, 1, 1, 1, 7,1238335.5848930227, 1,20, 6,45
1292,-1193000071.0318234,-39784.611608672516, 1,29, 4,30,-2192.0626643183373, 7,29,17,30
1306,5261844550.834625,0.0, 1, 1, 1, 7,4050000.0, 1, 2, 7,15
1307,656966624.9153355,0.0, 1, 1, 1, 7,6165481.786237541, 1,30, 6,60
1308,5261844550.834625,0.0, 1, 1, 1, 7,4050000.0, 1, 2, 7,15
13,42360595883.57618,151703.1275401932, 1, 6, 4,30,7339159.728083106, 6,19,19,30
61,15743207428.383959,88139.10953165221, 1, 1, 1,15,1282023.4113694867, 1, 1,20,15
134,3685071073.4325233,63564.01800854099, 1, 2, 4,15,156554.22484006523, 1, 1,20,15
170,273393721.45532674,348.4159749238097, 1, 2, 4,15,17476.39704006126, 1, 1,12,15
207,339560869.0695816,815.2532113832032, 1, 2, 3,15,22990.642799023623, 1, 1,10,15
244,664895467.8009144,1521.856143006317, 1, 2, 4,15,53038.631142310165, 1, 1,20,15
281,2407221015.106824,59938.60262432081, 1, 1, 5,15,81951.81706819107, 1, 1,19,15
318,0.0,0.0, 1, 1, 1,15,0.0, 1, 1, 1,15
355,10310294493.051695,18561.32405820678, 1, 2, 4,15,724774.895203776, 1, 1,18,15
403,10310294493.051695,18561.32405820678, 1, 2, 4,15,724774.895203776, 1, 1,18,15
476,5569688622.066177,7098.072629279515, 1, 2, 4,15,356036.3026282215, 1, 1,12,15
513,0.0,0.0, 1, 1, 1,15,0.0, 1, 1, 1,15
562,1637818770.296819,0.0, 1, 1, 1,15,170867.03830595897, 6, 6,16,45
1046,0.0,0.0, 1, 1, 1,15,0.0, 1, 1, 1,15
1096,12838060200.302156,0.0, 1, 1, 1,15,2063717.270884829, 6, 5,16,60
1134,3194593860.3239517,0.0, 1, 3,15,60,3515778.307805571, 1,20, 6,15
1326,5261844550.834628,0.0, 1, 1, 1,15,4050000.0000000014, 2,25,10,30
1379,0.0,0.0, 1, 1, 1,15,0.0, 1, 1, 1,15
End of Data
 Number of Records Written=          99
