Program Version,EnergyPlus, Version 22.2.0-c249759bad, YMD=2023.09.01 14:31
1,5,Environment Title[],Latitude[deg],Longitude[deg],Time Zone[],Elevation[m]
2,8,Day of Simulation[],Month[],Day of Month[],DST Indicator[1=yes 0=no],Hour[],StartMinute[],EndMinute[],DayType
3,5,Cumulative Day of Simulation[],Month[],Day of Month[],DST Indicator[1=yes 0=no],DayType  ! When Daily Report Variables Requested
4,2,Cumulative Days of Simulation[],Month[]  ! When Monthly Report Variables Requested
5,1,Cumulative Days of Simulation[] ! When Run Period Report Variables Requested
6,1,Calendar Year of Simulation[] ! When Annual Report Variables Requested
7,1,Environment,Site Outdoor Air Drybulb Temperature [C] !Hourly
619,1,DX_HEATING_COIL,Heating Coil Heating Rate [W] !Hourly
633,1,DX_HEATING_COIL,Heating Coil Electricity Rate [W] !Hourly
659,1,DX_HEATING_COIL,Heating Coil Defrost Electricity Rate [W] !Hourly
661,1,DX_HEATING_COIL,Heating Coil Crankcase Heater Electricity Rate [W] !Hourly
690,1,FAN,Fan Electricity Rate [W] !Hourly
716,1,HEAT PUMP WATER HEATER FAN,Fan Electricity Rate [W] !Hourly
718,1,LIVING,Zone Mean Air Temperature [C] !Hourly
719,1,ATTIC,Zone Mean Air Temperature [C] !Hourly
720,1,CRAWLSPACE,Zone Mean Air Temperature [C] !Hourly
843,1,LIVING,Zone Predicted Sensible Load to Heating Setpoint Heat Transfer Rate [W] !Hourly
844,1,LIVING,Zone System Predicted Sensible Load to Heating Setpoint Heat Transfer Rate [W] !Hourly
907,1,ATTIC,Zone Predicted Sensible Load to Heating Setpoint Heat Transfer Rate [W] !Hourly
908,1,ATTIC,Zone System Predicted Sensible Load to Heating Setpoint Heat Transfer Rate [W] !Hourly
971,1,CRAWLSPACE,Zone Predicted Sensible Load to Heating Setpoint Heat Transfer Rate [W] !Hourly
972,1,CRAWLSPACE,Zone System Predicted Sensible Load to Heating Setpoint Heat Transfer Rate [W] !Hourly
1195,1,HEATING_RESISTANCE_BACKUP,Heating Coil Heating Rate [W] !Hourly
1197,1,HEATING_RESISTANCE_BACKUP,Heating Coil Electricity Rate [W] !Hourly
End of Data Dictionary
1,EXTREME_WINTER,  29.54, -98.48,  -6.00, 240.50
2,1, 1,29, 0, 1, 0.00,60.00,Monday
7,21.7
718,24.08007640366387
719,19.294094863367864
720,19.837881032104338
619,0.0
633,0.0
659,0.0
661,0.0
690,0.0
716,0.0
843,-3578.7281170011356
844,-3578.7281170011356
907,0.0
908,0.0
971,0.0
972,0.0
1195,0.0
1197,0.0
2,1, 1,29, 0, 2, 0.00,60.00,Monday
7,21.7
718,24.224156404782406
719,20.118698719871745
720,19.628041177654733
619,0.0
633,0.0
659,0.0
661,0.0
690,0.0
716,0.0
843,-2982.964885179902
844,-2982.964885179902
907,0.0
908,0.0
971,0.0
972,0.0
1195,0.0
1197,0.0
2,1, 1,29, 0, 3, 0.00,60.00,Monday
7,21.7
718,24.088325925150315
719,20.861441872000178
720,19.506556586847637
619,0.0
633,0.0
659,0.0
661,0.0
690,0.0
716,0.0
843,-3663.238315016426
844,-3663.238315016426
907,0.0
908,0.0
971,0.0
972,0.0
1195,0.0
1197,0.0
2,1, 1,29, 0, 4, 0.00,60.00,Monday
7,21.7
718,24.00106401332421
719,21.18105514036073
720,19.399478024362487
619,0.0
633,0.0
659,0.0
661,0.0
690,0.0
716,0.0
843,-3516.038690045443
844,-3516.038690045443
907,0.0
908,0.0
971,0.0
972,0.0
1195,0.0
1197,0.0
2,1, 1,29, 0, 5, 0.00,60.00,Monday
7,21.0
718,23.89039530930995
719,21.02753541643585
720,19.31545167435404
619,0.0
633,0.0
659,0.0
661,0.0
690,0.0
716,0.0
843,-3583.3423411921976
844,-3583.3423411921976
907,0.0
908,0.0
971,0.0
972,0.0
1195,0.0
1197,0.0
2,1, 1,29, 0, 6, 0.00,60.00,Monday
7,21.1
718,23.371001767967126
719,21.063154736382927
720,19.272635873282933
619,0.0
633,0.0
659,0.0
661,0.0
690,17.568253931832608
716,0.0
843,-2790.7387153586205
844,-2790.7387153586205
907,0.0
908,0.0
971,0.0
972,0.0
1195,0.0
1197,0.0
2,1, 1,29, 0, 7, 0.00,60.00,Monday
7,21.1
718,22.93058350642992
719,21.021164673774262
720,19.186310175728984
619,0.0
633,0.0
659,0.0
661,0.0
690,0.0
716,82.66155399289102
843,-2653.089539151606
844,-2653.089539151606
907,0.0
908,0.0
971,0.0
972,0.0
1195,0.0
1197,0.0
2,1, 1,29, 0, 8, 0.00,60.00,Monday
7,21.1
718,23.30905528158691
719,20.926057562274565
720,19.16181370780974
619,0.0
633,0.0
659,0.0
661,0.0
690,15.020778723130476
716,0.0
843,-3031.860222397856
844,-3031.860222397856
907,0.0
908,0.0
971,0.0
972,0.0
1195,0.0
1197,0.0
2,1, 1,29, 0, 9, 0.00,60.00,Monday
7,21.1
718,23.331323031442178
719,21.022655828076342
720,19.115904780081458
619,0.0
633,0.0
659,0.0
661,0.0
690,12.249781115645268
716,0.0
843,-2382.315021380223
844,-2382.315021380223
907,0.0
908,0.0
971,0.0
972,0.0
1195,0.0
1197,0.0
2,1, 1,29, 0,10, 0.00,60.00,Monday
7,22.0
718,23.41274402996978
719,22.295981307745325
720,19.091821504484198
619,0.0
633,0.0
659,0.0
661,0.0
690,18.11913062750448
716,0.0
843,-2508.643115290647
844,-2508.643115290647
907,0.0
908,0.0
971,0.0
972,0.0
1195,0.0
1197,0.0
2,1, 1,29, 0,11, 0.00,60.00,Monday
7,25.0
718,23.49686536724411
719,24.81056613587372
720,19.099616549893184
619,0.0
633,0.0
659,0.0
661,0.0
690,34.51532979007455
716,0.0
843,-3224.67946576145
844,-3224.67946576145
907,0.0
908,0.0
971,0.0
972,0.0
1195,0.0
1197,0.0
2,1, 1,29, 0,12, 0.00,60.00,Monday
7,25.0
718,23.37278963249768
719,26.67881636083961
720,19.144556809985286
619,0.0
633,0.0
659,0.0
661,0.0
690,65.08302165725895
716,0.0
843,-4393.994657893727
844,-4393.994657893727
907,0.0
908,0.0
971,0.0
972,0.0
1195,0.0
1197,0.0
2,1, 1,29, 0,13, 0.00,60.00,Monday
7,26.1
718,23.37498044650254
719,29.2303140675786
720,19.198161222727414
619,0.0
633,0.0
659,0.0
661,0.0
690,88.63066116569806
716,0.0
843,-5631.303611622019
844,-5631.303611622019
907,0.0
908,0.0
971,0.0
972,0.0
1195,0.0
1197,0.0
2,1, 1,29, 0,14, 0.00,60.00,Monday
7,27.2
718,23.33448675249459
719,32.01502538149185
720,19.204536291087276
619,0.0
633,0.0
659,0.0
661,0.0
690,72.13051080433736
716,62.12231194047648
843,-6177.670136844683
844,-6177.670136844683
907,0.0
908,0.0
971,0.0
972,0.0
1195,0.0
1197,0.0
2,1, 1,29, 0,15, 0.00,60.00,Monday
7,27.2
718,23.342631530416536
719,31.81771769230704
720,19.314419611278343
619,0.0
633,0.0
659,0.0
661,0.0
690,96.22765885362486
716,0.0
843,-6223.81600044591
844,-6223.81600044591
907,0.0
908,0.0
971,0.0
972,0.0
1195,0.0
1197,0.0
2,1, 1,29, 0,16, 0.00,60.00,Monday
7,30.0
718,23.454704406940643
719,31.691160802768728
720,19.467386499492335
619,0.0
633,0.0
659,0.0
661,0.0
690,122.62509489133828
716,0.0
843,-7147.115772927929
844,-7147.115772927929
907,0.0
908,0.0
971,0.0
972,0.0
1195,0.0
1197,0.0
2,1, 1,29, 0,17, 0.00,60.00,Monday
7,27.0
718,23.351635126686702
719,29.043746798187776
720,19.57570395025105
619,0.0
633,0.0
659,0.0
661,0.0
690,139.43257462351173
716,0.0
843,-8308.103412388518
844,-8308.103412388518
907,0.0
908,0.0
971,0.0
972,0.0
1195,0.0
1197,0.0
2,1, 1,29, 0,18, 0.00,60.00,Monday
7,20.0
718,23.234378748117155
719,23.274313317842406
720,19.52911391823216
619,0.0
633,0.0
659,0.0
661,0.0
690,102.28833446839045
716,0.0
843,-7753.314977159065
844,-7753.314977159065
907,0.0
908,0.0
971,0.0
972,0.0
1195,0.0
1197,0.0
2,1, 1,29, 0,19, 0.00,60.00,Monday
7,17.8
718,23.39039651120194
719,21.384003574733228
720,19.502731543009812
619,0.0
633,0.0
659,0.0
661,0.0
690,36.25482198538069
716,70.6607737421675
843,-6476.062323485199
844,-6476.062323485199
907,0.0
908,0.0
971,0.0
972,0.0
1195,0.0
1197,0.0
2,1, 1,29, 0,20, 0.00,60.00,Monday
7,16.1
718,23.317506771069677
719,18.79032117119455
720,19.571036381486504
619,0.0
633,0.0
659,0.0
661,0.0
690,28.59854867424787
716,63.517824466802665
843,-5623.069879782188
844,-5623.069879782188
907,0.0
908,0.0
971,0.0
972,0.0
1195,0.0
1197,0.0
2,1, 1,29, 0,21, 0.00,60.00,Monday
7,16.1
718,23.329714010847695
719,17.37494297244151
720,19.620860697158278
619,0.0
633,0.0
659,0.0
661,0.0
690,44.42931834665866
716,0.0
843,-5211.9340624427
844,-5211.9340624427
907,0.0
908,0.0
971,0.0
972,0.0
1195,0.0
1197,0.0
2,1, 1,29, 0,22, 0.00,60.00,Monday
7,15.0
718,23.115552265557852
719,15.973871851045706
720,19.58490581708201
619,0.0
633,0.0
659,0.0
661,0.0
690,29.10563266178676
716,0.0
843,-4587.374259570688
844,-4587.374259570688
907,0.0
908,0.0
971,0.0
972,0.0
1195,0.0
1197,0.0
2,1, 1,29, 0,23, 0.00,60.00,Monday
7,13.9
718,23.950304628376678
719,14.954074962341842
720,19.521496820710862
619,0.0
633,0.0
659,0.0
661,0.0
690,0.0
716,0.0
843,-4862.670567176983
844,-4862.670567176983
907,0.0
908,0.0
971,0.0
972,0.0
1195,0.0
1197,0.0
2,1, 1,29, 0,24, 0.00,60.00,Monday
7,13.9
718,23.67656752068519
719,14.370826466570831
720,19.479344287159527
619,0.0
633,0.0
659,0.0
661,0.0
690,0.0
716,0.0
843,-3222.338970805543
844,-3222.338970805543
907,0.0
908,0.0
971,0.0
972,0.0
1195,0.0
1197,0.0
2,2, 1,30, 0, 1, 0.00,60.00,Tuesday
7,11.7
718,23.05275472722241
719,12.828033874305712
720,19.42975402954482
619,0.0
633,0.0
659,0.0
661,0.0
690,0.0
716,0.0
843,-2931.380791846226
844,-2931.380791846226
907,0.0
908,0.0
971,0.0
972,0.0
1195,0.0
1197,0.0
2,2, 1,30, 0, 2, 0.00,60.00,Tuesday
7,12.2
718,22.562257854477956
719,12.428912225845838
720,19.372190587905322
619,0.0
633,0.0
659,0.0
661,0.0
690,0.0
716,0.0
843,-2845.4927435680565
844,-2845.4927435680565
907,0.0
908,0.0
971,0.0
972,0.0
1195,0.0
1197,0.0
2,2, 1,30, 0, 3, 0.00,60.00,Tuesday
7,12.2
718,22.123871074322214
719,12.149662658813815
720,19.30860708456254
619,0.0
633,0.0
659,0.0
661,0.0
690,0.0
716,0.0
843,-2516.4641340984617
844,-2516.4641340984617
907,0.0
908,0.0
971,0.0
972,0.0
1195,0.0
1197,0.0
2,2, 1,30, 0, 4, 0.00,60.00,Tuesday
7,11.1
718,21.59151467570464
719,11.226360639288819
720,19.238659511793852
619,0.0
633,0.0
659,0.0
661,0.0
690,0.0
716,0.0
843,-2078.082496943218
844,-2078.082496943218
907,0.0
908,0.0
971,0.0
972,0.0
1195,0.0
1197,0.0
2,2, 1,30, 0, 5, 0.00,60.00,Tuesday
7,10.6
718,21.149536777863503
719,10.50137903386521
720,19.16340053173072
619,0.0
633,0.0
659,0.0
661,0.0
690,0.0
716,0.0
843,-1792.3671148453614
844,-1792.3671148453614
907,0.0
908,0.0
971,0.0
972,0.0
1195,0.0
1197,0.0
2,2, 1,30, 0, 6, 0.00,60.00,Tuesday
7,10.6
718,20.942454722548238
719,10.19940401695066
720,19.085043555776416
619,0.0
633,0.0
659,0.0
661,0.0
690,0.0
716,0.0
843,-861.4515073063303
844,-861.4515073063303
907,0.0
908,0.0
971,0.0
972,0.0
1195,0.0
1197,0.0
2,2, 1,30, 0, 7, 0.00,60.00,Tuesday
7,10.0
718,19.263467640533072
719,10.00763618454555
720,19.002164723752326
619,0.0
633,0.0
659,0.0
661,0.0
690,0.0
716,85.44000000000004
843,-271.0201314950955
844,-271.0201314950955
907,0.0
908,0.0
971,0.0
972,0.0
1195,0.0
1197,0.0
2,2, 1,30, 0, 8, 0.00,60.00,Tuesday
7,10.0
718,19.585104611343123
719,10.338629753923382
720,18.903641551279343
619,1580.9562870261323
633,412.46991598542195
659,0.0
661,0.0
690,35.20816529444543
716,85.44000000000004
843,284.2160013911998
844,284.2160013911998
907,0.0
908,0.0
971,0.0
972,0.0
1195,0.0
1197,0.0
2,2, 1,30, 0, 9, 0.00,60.00,Tuesday
7,10.0
718,19.24807699684051
719,10.726578634496665
720,18.842705139241712
619,0.0
633,0.0
659,0.0
661,0.0
690,0.0
716,42.46260754211088
843,-61.973675186776745
844,-61.973675186776745
907,0.0
908,0.0
971,0.0
972,0.0
1195,0.0
1197,0.0
2,2, 1,30, 0,10, 0.00,60.00,Tuesday
7,13.3
718,20.705332833665395
719,13.910614097031763
720,18.7674381621315
619,0.0
633,0.0
659,0.0
661,0.0
690,0.0
716,0.0
843,-987.4176398644595
844,-987.4176398644595
907,0.0
908,0.0
971,0.0
972,0.0
1195,0.0
1197,0.0
2,2, 1,30, 0,11, 0.00,60.00,Tuesday
7,13.9
718,21.807349191911623
719,15.967968923219534
720,18.71776262307377
619,0.0
633,0.0
659,0.0
661,0.0
690,0.0
716,0.0
843,-1699.863692375624
844,-1699.863692375624
907,0.0
908,0.0
971,0.0
972,0.0
1195,0.0
1197,0.0
2,2, 1,30, 0,12, 0.00,60.00,Tuesday
7,13.9
718,22.561566962483255
719,17.47209187205629
720,18.689048238311628
619,0.0
633,0.0
659,0.0
661,0.0
690,0.0
716,0.0
843,-2298.6919031861926
844,-2298.6919031861926
907,0.0
908,0.0
971,0.0
972,0.0
1195,0.0
1197,0.0
2,2, 1,30, 0,13, 0.00,60.00,Tuesday
7,15.6
718,23.306675565332682
719,20.632844634158296
720,18.700381692046577
619,0.0
633,0.0
659,0.0
661,0.0
690,8.274356607447631
716,0.0
843,-3214.4988034869893
844,-3214.4988034869893
907,0.0
908,0.0
971,0.0
972,0.0
1195,0.0
1197,0.0
2,2, 1,30, 0,14, 0.00,60.00,Tuesday
7,15.6
718,23.3161020416919
719,21.97305531989802
720,18.748884304799724
619,0.0
633,0.0
659,0.0
661,0.0
690,22.900624239575077
716,0.0
843,-3904.9853714702167
844,-3904.9853714702167
907,0.0
908,0.0
971,0.0
972,0.0
1195,0.0
1197,0.0
2,2, 1,30, 0,15, 0.00,60.00,Tuesday
7,15.6
718,23.323746427976523
719,22.20360825174308
720,18.82335221691996
619,0.0
633,0.0
659,0.0
661,0.0
690,40.90370271684065
716,0.0
843,-5172.971561561531
844,-5172.971561561531
907,0.0
908,0.0
971,0.0
972,0.0
1195,0.0
1197,0.0
2,2, 1,30, 0,16, 0.00,60.00,Tuesday
7,15.6
718,23.487097291719042
719,23.33009711406146
720,18.917242107504634
619,0.0
633,0.0
659,0.0
661,0.0
690,57.608776640399924
716,0.0
843,-6130.528701191437
844,-6130.528701191437
907,0.0
908,0.0
971,0.0
972,0.0
1195,0.0
1197,0.0
2,2, 1,30, 0,17, 0.00,60.00,Tuesday
7,13.3
718,23.30042748783796
719,21.46116873392811
720,19.002782924428566
619,0.0
633,0.0
659,0.0
661,0.0
690,71.42575916571718
716,0.0
843,-6780.410645300613
844,-6780.410645300613
907,0.0
908,0.0
971,0.0
972,0.0
1195,0.0
1197,0.0
2,2, 1,30, 0,18, 0.00,60.00,Tuesday
7,13.3
718,23.333979082350787
719,18.685531196316717
720,19.06860762107356
619,0.0
633,0.0
659,0.0
661,0.0
690,68.68598475934132
716,0.0
843,-6869.7456884410785
844,-6869.7456884410785
907,0.0
908,0.0
971,0.0
972,0.0
1195,0.0
1197,0.0
2,2, 1,30, 0,19, 0.00,60.00,Tuesday
7,9.4
718,23.394225211161583
719,15.428642971556906
720,19.05469145564334
619,0.0
633,0.0
659,0.0
661,184.60924183668533
690,13.273928977133798
716,85.44000000000004
843,-5558.252196191555
844,-5558.252196191555
907,0.0
908,0.0
971,0.0
972,0.0
1195,0.0
1197,0.0
2,2, 1,30, 0,20, 0.00,60.00,Tuesday
7,7.8
718,23.305293569095976
719,11.332576855322454
720,19.10390930669877
619,0.0
633,0.0
659,0.0
661,198.18124469929063
690,1.568605550956323
716,85.44000000000004
843,-4609.705529199429
844,-4609.705529199429
907,0.0
908,0.0
971,0.0
972,0.0
1195,0.0
1197,0.0
2,2, 1,30, 0,21, 0.00,60.00,Tuesday
7,7.8
718,23.359137540902655
719,9.037831893261012
720,19.120023870080523
619,0.0
633,0.0
659,0.0
661,195.21576030379745
690,4.126220246144108
716,44.98109278662771
843,-4083.322852566953
844,-4083.322852566953
907,0.0
908,0.0
971,0.0
972,0.0
1195,0.0
1197,0.0
2,2, 1,30, 0,22, 0.00,60.00,Tuesday
7,5.0
718,23.155143964887905
719,6.822557076329863
720,19.090454390124222
619,0.0
633,0.0
659,0.0
661,192.71257768992194
690,6.28511767541953
716,0.0
843,-3383.3143595997026
844,-3383.3143595997026
907,0.0
908,0.0
971,0.0
972,0.0
1195,0.0
1197,0.0
2,2, 1,30, 0,23, 0.00,60.00,Tuesday
7,3.9
718,22.737460934053335
719,5.202722130404683
720,19.03972949708629
619,0.0
633,0.0
659,0.0
661,200.0
690,0.0
716,0.0
843,-3404.5428158525538
844,-3404.5428158525538
907,0.0
908,0.0
971,0.0
972,0.0
1195,0.0
1197,0.0
2,2, 1,30, 0,24, 0.00,60.00,Tuesday
7,3.9
718,21.997672594954857
719,4.086443382140037
720,18.981316293799583
619,0.0
633,0.0
659,0.0
661,200.0
690,0.0
716,0.0
843,-2598.4108749264524
844,-2598.4108749264524
907,0.0
908,0.0
971,0.0
972,0.0
1195,0.0
1197,0.0
2,3, 1,31, 0, 1, 0.00,60.00,Wednesday
7,0.6
718,20.74441126541833
719,2.3018208946656067
720,18.90375819072679
619,0.0
633,0.0
659,0.0
661,200.0
690,0.0
716,0.0
843,-1653.5749797438366
844,-1653.5749797438366
907,0.0
908,0.0
971,0.0
972,0.0
1195,0.0
1197,0.0
2,3, 1,31, 0, 2, 0.00,60.00,Wednesday
7,1.1
718,19.993081626686646
719,1.460451586069405
720,18.81565884924663
619,0.0
633,0.0
659,0.0
661,200.0
690,0.0
716,0.0
843,-1170.6840588019495
844,-1170.6840588019495
907,0.0
908,0.0
971,0.0
972,0.0
1195,0.0
1197,0.0
2,3, 1,31, 0, 3, 0.00,60.00,Wednesday
7,1.1
718,19.187947935236515
719,0.9390555547867979
720,18.711846937561344
619,0.0
633,0.0
659,0.0
661,200.0
690,0.0
716,0.0
843,-465.1855194336458
844,-465.1855194336458
907,0.0
908,0.0
971,0.0
972,0.0
1195,0.0
1197,0.0
2,3, 1,31, 0, 4, 0.00,60.00,Wednesday
7,0.6
718,18.611039554424995
719,0.11200119324638626
720,18.595233285133066
619,131.30104137100878
633,44.044791701185936
659,1.532055211618712
661,194.70474385733888
690,4.546522359517349
716,0.0
843,97.79217120632165
844,97.79217120632165
907,0.0
908,0.0
971,0.0
972,0.0
1195,0.0
1197,0.0
2,3, 1,31, 0, 5, 0.00,60.00,Wednesday
7,0.6
718,18.551233801780683
719,0.0667377211743025
720,18.450919029891995
619,764.4813971730412
633,249.25584407335188
659,8.771548541492978
661,169.68281825436566
690,26.030756709442922
716,0.0
843,541.3722498697116
844,541.3722498697116
907,0.0
908,0.0
971,0.0
972,0.0
1195,0.0
1197,0.0
2,3, 1,31, 0, 6, 0.00,60.00,Wednesday
7,0.6
718,19.035963792179146
719,0.9802475292541748
720,18.249592583357625
619,2965.801463381623
633,920.8677310727019
659,32.458059953723335
661,87.8149168219462
690,96.32385288397163
716,76.35423092895688
843,1341.3813974236036
844,1341.3813974236036
907,0.0
908,0.0
971,0.0
972,0.0
1195,0.0
1197,0.0
2,3, 1,31, 0, 7, 0.00,60.00,Wednesday
7,1.7
718,19.430817829185894
719,1.3241409650293645
720,18.153968684954446
619,3768.7087260956896
633,1143.4383661026964
659,30.826724504832438
661,64.78130277401293
690,116.29126206221174
716,85.44000000000004
843,1795.6354939183366
844,1795.6354939183366
907,0.0
908,0.0
971,0.0
972,0.0
1195,0.0
1197,0.0
2,3, 1,31, 0, 8, 0.00,60.00,Wednesday
7,9.4
718,19.86162936872379
719,3.1498286435429033
720,18.12702040720513
619,2212.3921568701358
633,577.5800541460573
659,0.0
661,142.5468817807306
690,49.55107491554582
716,30.944955296695063
843,1332.3628298754466
844,1332.3628298754466
907,0.0
908,0.0
971,0.0
972,0.0
1195,0.0
1197,0.0
2,3, 1,31, 0, 9, 0.00,60.00,Wednesday
7,9.4
718,19.76820613690933
719,5.944513519626462
720,18.009071532602167
619,853.7619505612845
633,229.50462344124924
659,0.0
661,177.34966346539213
690,19.535032340720722
716,0.0
843,650.193306616251
844,650.193306616251
907,0.0
908,0.0
971,0.0
972,0.0
1195,0.0
1197,0.0
2,3, 1,31, 0,10, 0.00,60.00,Wednesday
7,14.4
718,19.73244598408155
719,12.277070670787891
720,17.91813469325336
619,0.0
633,0.0
659,0.0
661,0.0
690,0.0
716,0.0
843,-76.48491294474661
844,-76.48491294474661
907,0.0
908,0.0
971,0.0
972,0.0
1195,0.0
1197,0.0
2,3, 1,31, 0,11, 0.00,60.00,Wednesday
7,15.6
718,20.9230593616679
719,17.131902014599458
720,17.859416787838228
619,0.0
633,0.0
659,0.0
661,0.0
690,0.0
716,0.0
843,-964.8070911475315
844,-964.8070911475315
907,0.0
908,0.0
971,0.0
972,0.0
1195,0.0
1197,0.0
2,3, 1,31, 0,12, 0.00,60.00,Wednesday
7,15.6
718,21.76517697571521
719,20.94765320933795
720,17.836824287668108
619,0.0
633,0.0
659,0.0
661,0.0
690,0.0
716,0.0
843,-1740.405406447202
844,-1740.405406447202
907,0.0
908,0.0
971,0.0
972,0.0
1195,0.0
1197,0.0
2,3, 1,31, 0,13, 0.00,60.00,Wednesday
7,18.9
718,22.863333958620785
719,24.500015755667718
720,17.85344597824451
619,0.0
633,0.0
659,0.0
661,0.0
690,0.0
716,0.0
843,-2605.228093917356
844,-2605.228093917356
907,0.0
908,0.0
971,0.0
972,0.0
1195,0.0
1197,0.0
2,3, 1,31, 0,14, 0.00,60.00,Wednesday
7,18.9
718,23.302884992732334
719,28.50618311861802
720,17.929289374451184
619,0.0
633,0.0
659,0.0
661,0.0
690,15.225203539097643
716,0.0
843,-3535.344521118255
844,-3535.344521118255
907,0.0
908,0.0
971,0.0
972,0.0
1195,0.0
1197,0.0
2,3, 1,31, 0,15, 0.00,60.00,Wednesday
7,18.9
718,23.303344626100177
719,30.145966806300457
720,18.043656319560085
619,0.0
633,0.0
659,0.0
661,0.0
690,36.7266108377763
716,0.0
843,-4063.700389639929
844,-4063.700389639929
907,0.0
908,0.0
971,0.0
972,0.0
1195,0.0
1197,0.0
2,3, 1,31, 0,16, 0.00,60.00,Wednesday
7,18.3
718,23.343879759358906
719,31.432873809673566
720,18.134181067074998
619,0.0
633,0.0
659,0.0
661,0.0
690,31.36876253863285
716,85.44000000000004
843,-5753.575548386123
844,-5753.575548386123
907,0.0
908,0.0
971,0.0
972,0.0
1195,0.0
1197,0.0
2,3, 1,31, 0,17, 0.00,60.00,Wednesday
7,17.8
718,23.29395509748267
719,28.331741065330352
720,18.30016573657912
619,0.0
633,0.0
659,0.0
661,0.0
690,50.04818017895358
716,50.692888995008715
843,-6230.8625115791
844,-6230.8625115791
907,0.0
908,0.0
971,0.0
972,0.0
1195,0.0
1197,0.0
2,3, 1,31, 0,18, 0.00,60.00,Wednesday
7,17.8
718,23.324731964617182
719,24.936788727514188
720,18.46688858111425
619,0.0
633,0.0
659,0.0
661,0.0
690,71.2966222813807
716,0.0
843,-6524.658316244626
844,-6524.658316244626
907,0.0
908,0.0
971,0.0
972,0.0
1195,0.0
1197,0.0
2,3, 1,31, 0,19, 0.00,60.00,Wednesday
7,9.5
718,23.220265311750097
719,20.195479268896133
720,18.481908312832374
619,0.0
633,0.0
659,0.0
661,151.19312087759542
690,42.09403072881659
716,0.0
843,-5539.7784630381975
844,-5539.7784630381975
907,0.0
908,0.0
971,0.0
972,0.0
1195,0.0
1197,0.0
2,3, 1,31, 0,20, 0.00,60.00,Wednesday
7,8.3
718,23.32480506733483
719,16.11149943019149
720,18.510826558976053
619,0.0
633,0.0
659,0.0
661,199.00529164449648
690,0.8578971824395045
716,85.44000000000004
843,-4648.3670060019995
844,-4648.3670060019995
907,0.0
908,0.0
971,0.0
972,0.0
1195,0.0
1197,0.0
2,3, 1,31, 0,21, 0.00,60.00,Wednesday
7,7.8
718,23.322702058842513
719,13.27141265331802
720,18.58839149002979
619,0.0
633,0.0
659,0.0
661,185.54379885238194
690,12.467909980551285
716,25.74082734096143
843,-4189.87759535063
844,-4189.87759535063
907,0.0
908,0.0
971,0.0
972,0.0
1195,0.0
1197,0.0
2,3, 1,31, 0,22, 0.00,60.00,Wednesday
7,10.1
718,23.465806750241875
719,11.72513466449461
720,18.60432940319875
619,0.0
633,0.0
659,0.0
661,0.0
690,12.426808680865179
716,0.0
843,-3712.950956961311
844,-3712.950956961311
907,0.0
908,0.0
971,0.0
972,0.0
1195,0.0
1197,0.0
2,3, 1,31, 0,23, 0.00,60.00,Wednesday
7,13.1
718,23.77943462113339
719,11.934252308328423
720,18.56851258237649
619,0.0
633,0.0
659,0.0
661,0.0
690,0.0
716,0.0
843,-4010.7857209823833
844,-4010.7857209823833
907,0.0
908,0.0
971,0.0
972,0.0
1195,0.0
1197,0.0
2,3, 1,31, 0,24, 0.00,60.00,Wednesday
7,16.0
718,23.570291393272715
719,13.370946470062455
720,18.540192238893663
619,0.0
633,0.0
659,0.0
661,0.0
690,0.0
716,0.0
843,-2735.411387948633
844,-2735.411387948633
907,0.0
908,0.0
971,0.0
972,0.0
1195,0.0
1197,0.0
2,4, 2, 1, 0, 1, 0.00,60.00,Thursday
7,15.6
718,22.868117569925456
719,14.875542402322356
720,18.498116039285552
619,0.0
633,0.0
659,0.0
661,0.0
690,0.0
716,0.0
843,-1994.297554285934
844,-1994.297554285934
907,0.0
908,0.0
971,0.0
972,0.0
1195,0.0
1197,0.0
2,4, 2, 1, 0, 2, 0.00,60.00,Thursday
7,12.2
718,22.131906058088784
719,13.43209879113098
720,18.462879800465792
619,0.0
633,0.0
659,0.0
661,0.0
690,0.0
716,0.0
843,-2215.1481873971306
844,-2215.1481873971306
907,0.0
908,0.0
971,0.0
972,0.0
1195,0.0
1197,0.0
2,4, 2, 1, 0, 3, 0.00,60.00,Thursday
7,8.9
718,20.988571742727945
719,11.015609877585389
720,18.422603657440373
619,0.0
633,0.0
659,0.0
661,200.0
690,0.0
716,0.0
843,-1759.8925367578286
844,-1759.8925367578286
907,0.0
908,0.0
971,0.0
972,0.0
1195,0.0
1197,0.0
2,4, 2, 1, 0, 4, 0.00,60.00,Thursday
7,4.8
718,19.50148690575955
719,8.230130489381825
720,18.374401343750613
619,0.0
633,0.0
659,0.0
661,200.0
690,0.0
716,0.0
843,-800.2217805511536
844,-800.2217805511536
907,0.0
908,0.0
971,0.0
972,0.0
1195,0.0
1197,0.0
2,4, 2, 1, 0, 5, 0.00,60.00,Thursday
7,3.5
718,18.62204983496635
719,6.26843713309947
720,18.318712992982725
619,32.37268147424457
633,10.438280445570374
659,0.8568974684170217
661,198.7024261801363
690,1.1127531011396323
716,0.0
843,16.04908419457388
844,16.04908419457388
907,0.0
908,0.0
971,0.0
972,0.0
1195,0.0
1197,0.0
2,4, 2, 1, 0, 6, 0.00,60.00,Thursday
7,2.3
718,19.254984386907047
719,5.328040291684308
720,18.154451298846677
619,2258.2965443958497
633,693.1551487194026
659,47.48143298860326
661,113.12732578642533
690,74.45592454478451
716,0.0
843,1776.4375647734341
844,1776.4375647734341
907,0.0
908,0.0
971,0.0
972,0.0
1195,0.0
1197,0.0
2,4, 2, 1, 0, 7, 0.00,60.00,Thursday
7,2.2
718,19.442509291184777
719,5.32307299380298
720,18.056060659368995
619,4258.957173212758
633,1274.2502262487849
659,102.41424385412066
661,39.420978835526
690,137.44079600443482
716,85.44000000000004
843,2086.061812103162
844,2086.061812103162
907,0.0
908,0.0
971,0.0
972,0.0
1195,0.0
1197,0.0
2,4, 2, 1, 0, 8, 0.00,60.00,Thursday
7,0.6
718,19.46644122442212
719,4.111181290567538
720,17.94279481715648
619,4887.713745050803
633,1489.574166399085
659,72.4134916761298
661,18.182605198157418
690,155.82722310974825
716,85.44000000000004
843,2578.283076935738
844,2578.283076935738
907,0.0
908,0.0
971,0.0
972,0.0
1195,0.0
1197,0.0
2,4, 2, 1, 0, 9, 0.00,60.00,Thursday
7,0.6
718,19.641694359890554
719,3.949346293733394
720,17.865993221558885
619,4301.788234550206
633,1327.647259969508
659,64.51268942536733
661,38.020114049449184
690,138.82532009742815
716,22.672371245742568
843,2947.1389461670024
844,2947.1389461670024
907,0.0
908,0.0
971,0.0
972,0.0
1195,0.0
1197,0.0
2,4, 2, 1, 0,10, 0.00,60.00,Thursday
7,1.0
718,19.904223400552294
719,5.0366646559580674
720,17.818267152702603
619,2878.1484135376995
633,912.6659236140704
659,34.48028691250622
661,91.00917482338167
690,93.57016197557617
716,0.0
843,2158.438978419281
844,2158.438978419281
907,0.0
908,0.0
971,0.0
972,0.0
1195,0.0
1197,0.0
2,4, 2, 1, 0,11, 0.00,60.00,Thursday
7,2.8
718,20.120034718299603
719,7.194420777648041
720,17.759296092888814
619,1319.2496326170954
633,421.0766968620199
659,0.8325174006656059
661,153.20946112515935
690,40.3482856752664
716,0.0
843,1007.8747717968872
844,1007.8747717968872
907,0.0
908,0.0
971,0.0
972,0.0
1195,0.0
1197,0.0
2,4, 2, 1, 0,12, 0.00,60.00,Thursday
7,2.8
718,19.874385827808556
719,10.124701026040762
720,17.693528031808906
619,0.0
633,0.0
659,0.0
661,200.0
690,0.0
716,0.0
843,-55.26977759437432
844,-55.26977759437432
907,0.0
908,0.0
971,0.0
972,0.0
1195,0.0
1197,0.0
2,4, 2, 1, 0,13, 0.00,60.00,Thursday
7,3.9
718,19.95565160353148
719,11.18773447331617
720,17.649017633667203
619,0.0
633,0.0
659,0.0
661,200.0
690,0.0
716,0.0
843,-212.22094232786185
844,-212.22094232786185
907,0.0
908,0.0
971,0.0
972,0.0
1195,0.0
1197,0.0
2,4, 2, 1, 0,14, 0.00,60.00,Thursday
7,3.9
718,19.71946806176781
719,10.652582960759444
720,17.626086947326627
619,187.4240692889771
633,60.12870663498893
659,0.002782049278121261
661,193.41277216485514
690,5.6812108581648815
716,0.0
843,152.12712013129385
844,152.12712013129385
907,0.0
908,0.0
971,0.0
972,0.0
1195,0.0
1197,0.0
2,4, 2, 1, 0,15, 0.00,60.00,Thursday
7,3.9
718,19.93383879986695
719,10.205115432509166
720,17.62411101594066
619,0.0
633,0.0
659,0.0
661,200.0
690,0.0
716,0.0
843,-215.9746629394649
844,-215.9746629394649
907,0.0
908,0.0
971,0.0
972,0.0
1195,0.0
1197,0.0
2,4, 2, 1, 0,16, 0.00,60.00,Thursday
7,0.6
718,20.353821352752224
719,8.639380889387411
720,17.633762355337794
619,0.0
633,0.0
659,0.0
661,200.0
690,0.0
716,0.0
843,-662.8143812188864
844,-662.8143812188864
907,0.0
908,0.0
971,0.0
972,0.0
1195,0.0
1197,0.0
2,4, 2, 1, 0,17, 0.00,60.00,Thursday
7,-1.7
718,19.857097626414273
719,6.546717401372904
720,17.657307446737178
619,0.0
633,0.0
659,0.0
661,200.0
690,0.0
716,74.56209312923502
843,-832.3866973699332
844,-832.3866973699332
907,0.0
908,0.0
971,0.0
972,0.0
1195,0.0
1197,0.0
2,4, 2, 1, 0,18, 0.00,60.00,Thursday
7,-1.7
718,20.330832368539827
719,4.24275570941353
720,17.68028972608213
619,0.0
633,0.0
659,0.0
661,200.0
690,0.0
716,0.0
843,-681.9173540056363
844,-681.9173540056363
907,0.0
908,0.0
971,0.0
972,0.0
1195,0.0
1197,0.0
2,4, 2, 1, 0,19, 0.00,60.00,Thursday
7,-3.9
718,19.776462860932856
719,1.5950016995946237
720,17.618628267969065
619,3001.561936835864
633,1050.4938311030696
659,4.005271992293011
661,76.90756889409852
690,106.06417069571849
716,85.44000000000004
843,1165.2708529408592
844,1165.2708529408592
907,0.0
908,0.0
971,0.0
972,0.0
1195,0.0
1197,0.0
2,4, 2, 1, 0,20, 0.00,60.00,Thursday
7,-3.9
718,19.96590208215307
719,0.7213745551297623
720,17.599839967925288
619,2955.334242603545
633,1021.2245464589544
659,3.9336831950447704
661,79.02492424216084
690,104.24008630201185
716,60.67805576639383
843,1462.2102887126784
844,1462.2102887126784
907,0.0
908,0.0
971,0.0
972,0.0
1195,0.0
1197,0.0
2,4, 2, 1, 0,21, 0.00,60.00,Thursday
7,-3.9
718,19.843004533569957
719,-0.2613093249713467
720,17.571107468001067
619,2071.695688120165
633,733.9744814343474
659,2.816380971523371
661,113.38603428406016
690,74.63221857303162
716,0.0
843,1463.6064090880664
844,1463.6064090880664
907,0.0
908,0.0
971,0.0
972,0.0
1195,0.0
1197,0.0
2,4, 2, 1, 0,22, 0.00,60.00,Thursday
7,-5.0
718,20.027720778989732
719,-0.9334000612053946
720,17.478408124158126
619,2260.184295014494
633,811.8986718045818
659,5.309547460108383
661,102.70027532232562
690,83.76946915815955
716,0.0
843,1578.8019805057957
844,1578.8019805057957
907,0.0
908,0.0
971,0.0
972,0.0
1195,0.0
1197,0.0
2,4, 2, 1, 0,23, 0.00,60.00,Thursday
7,-5.6
718,18.641456271981898
719,-2.00418804505584
720,17.386289571285012
619,1988.2841680714942
633,731.0002082117692
659,6.87823748365906
661,111.91522360459328
690,75.76453226619932
716,0.0
843,1356.5665962290313
844,1356.5665962290313
907,0.0
908,0.0
971,0.0
972,0.0
1195,0.0
1197,0.0
2,4, 2, 1, 0,24, 0.00,60.00,Thursday
7,-5.6
718,18.53335661696753
719,-1.9959324159817047
720,17.191363417113863
619,3254.4266611917833
633,1121.0813972893634
659,10.841317603722732
661,61.162828526314584
690,119.4208424411415
716,0.0
843,2263.5200056854737
844,2263.5200056854737
907,0.0
908,0.0
971,0.0
972,0.0
1195,0.0
1197,0.0
2,5, 2, 2, 0, 1, 0.00,60.00,Friday
7,-6.7
718,18.339514010811314
719,-2.453077976541292
720,17.01631969326833
619,4659.511279773202
633,1578.8136332790543
659,7.503462102066161
661,3.461787551804152
690,169.25909617415752
716,0.0
843,3212.115544178262
844,3212.115544178262
907,0.0
908,0.0
971,0.0
972,0.0
1195,0.0
1197,0.0
2,5, 2, 2, 0, 2, 0.00,60.00,Friday
7,-6.7
718,18.494593155887397
719,-2.4083166766344446
720,16.878585598010183
619,4785.623291189014
633,1607.4859891669198
659,2.1745238936577396
661,0.0
690,172.4922039094014
716,0.0
843,4381.287080173064
844,4381.287080173064
907,0.0
908,0.0
971,0.0
972,0.0
1195,1312.8771290860268
1197,1312.8771290860268
2,5, 2, 2, 0, 3, 0.00,60.00,Friday
7,-6.7
718,18.566931928427834
719,-2.30725928833721
720,16.749872998902116
619,4781.558368263623
633,1612.155572186358
659,2.1745238936577396
661,0.0
690,172.4922039094014
716,0.0
843,4746.4052831215595
844,4746.4052831215595
907,0.0
908,0.0
971,0.0
972,0.0
1195,1757.9172492431658
1197,1757.9172492431658