Program Version,EnergyPlus, Version 22.2.0-c249759bad, YMD=2023.09.01 20:16
1,5,Environment Title[],Latitude[deg],Longitude[deg],Time Zone[],Elevation[m]
2,8,Day of Simulation[],Month[],Day of Month[],DST Indicator[1=yes 0=no],Hour[],StartMinute[],EndMinute[],DayType
3,5,Cumulative Day of Simulation[],Month[],Day of Month[],DST Indicator[1=yes 0=no],DayType  ! When Daily Report Variables Requested
4,2,Cumulative Days of Simulation[],Month[]  ! When Monthly Report Variables Requested
5,1,Cumulative Days of Simulation[] ! When Run Period Report Variables Requested
6,1,Calendar Year of Simulation[] ! When Annual Report Variables Requested
581,11,LIVING,AFN Zone Infiltration Air Change Rate [ach] !RunPeriod [Value,Min,Month,Day,Hour,Minute,Max,Month,Day,Hour,Minute]
582,11,ATTIC,AFN Zone Infiltration Air Change Rate [ach] !RunPeriod [Value,Min,Month,Day,Hour,Minute,Max,Month,Day,Hour,Minute]
583,11,CRAWLSPACE,AFN Zone Infiltration Air Change Rate [ach] !RunPeriod [Value,Min,Month,Day,Hour,Minute,Max,Month,Day,Hour,Minute]
1038,11,Facility,Facility Heating Setpoint Not Met Time [hr] !RunPeriod [Value,Min,Month,Day,Hour,Minute,Max,Month,Day,Hour,Minute]
1039,11,Facility,Facility Cooling Setpoint Not Met Time [hr] !RunPeriod [Value,Min,Month,Day,Hour,Minute,Max,Month,Day,Hour,Minute]
1115,11,DX_HEATING_COIL,Heating Coil Heating Energy [J] !RunPeriod [Value,Min,Month,Day,Hour,Minute,Max,Month,Day,Hour,Minute]
1128,11,DX_HEATING_COIL,Heating Coil Electricity Energy [J] !RunPeriod [Value,Min,Month,Day,Hour,Minute,Max,Month,Day,Hour,Minute]
1153,11,DX_HEATING_COIL,Heating Coil Defrost Electricity Energy [J] !RunPeriod [Value,Min,Month,Day,Hour,Minute,Max,Month,Day,Hour,Minute]
1154,11,DX_HEATING_COIL,Heating Coil Crankcase Heater Electricity Energy [J] !RunPeriod [Value,Min,Month,Day,Hour,Minute,Max,Month,Day,Hour,Minute]
1155,11,HEATING_RESISTANCE_BACKUP,Heating Coil Heating Energy [J] !RunPeriod [Value,Min,Month,Day,Hour,Minute,Max,Month,Day,Hour,Minute]
1156,11,HEATING_RESISTANCE_BACKUP,Heating Coil Electricity Energy [J] !RunPeriod [Value,Min,Month,Day,Hour,Minute,Max,Month,Day,Hour,Minute]
1292,11,WATER HEATER,Water Heater Heat Loss Energy [J] !RunPeriod [Value,Min,Month,Day,Hour,Minute,Max,Month,Day,Hour,Minute]
1306,11,WATER HEATER,Water Heater Heating Energy [J] !RunPeriod [Value,Min,Month,Day,Hour,Minute,Max,Month,Day,Hour,Minute]
1307,11,WATER HEATER,Water Heater Unmet Demand Heat Transfer Energy [J] !RunPeriod [Value,Min,Month,Day,Hour,Minute,Max,Month,Day,Hour,Minute]
1308,11,WATER HEATER,Water Heater Electricity Energy [J] !RunPeriod [Value,Min,Month,Day,Hour,Minute,Max,Month,Day,Hour,Minute]
13,11,Electricity:Facility [J] !RunPeriod [Value,Min,Month,Day,Hour,Minute,Max,Month,Day,Hour,Minute]
1134,11,Heating:Electricity [J] !RunPeriod [Value,Min,Month,Day,Hour,Minute,Max,Month,Day,Hour,Minute]
1096,11,Cooling:Electricity [J] !RunPeriod [Value,Min,Month,Day,Hour,Minute,Max,Month,Day,Hour,Minute]
562,11,Fans:Electricity [J] !RunPeriod [Value,Min,Month,Day,Hour,Minute,Max,Month,Day,Hour,Minute]
1379,11,Pumps:Electricity [J] !RunPeriod [Value,Min,Month,Day,Hour,Minute,Max,Month,Day,Hour,Minute]
1326,11,WaterSystems:Electricity [J] !RunPeriod [Value,Min,Month,Day,Hour,Minute,Max,Month,Day,Hour,Minute]
61,11,InteriorLights:Electricity [J] !RunPeriod [Value,Min,Month,Day,Hour,Minute,Max,Month,Day,Hour,Minute]
1046,11,ExteriorLights:Electricity [J] !RunPeriod [Value,Min,Month,Day,Hour,Minute,Max,Month,Day,Hour,Minute]
134,11,InteriorEquipment:Electricity [J] !RunPeriod [Value,Min,Month,Day,Hour,Minute,Max,Month,Day,Hour,Minute]
170,11,gas_dryer:InteriorEquipment:Electricity [J] !RunPeriod [Value,Min,Month,Day,Hour,Minute,Max,Month,Day,Hour,Minute]
207,11,clotheswasher:InteriorEquipment:Electricity [J] !RunPeriod [Value,Min,Month,Day,Hour,Minute,Max,Month,Day,Hour,Minute]
244,11,dishwasher:InteriorEquipment:Electricity [J] !RunPeriod [Value,Min,Month,Day,Hour,Minute,Max,Month,Day,Hour,Minute]
281,11,refrigerator:InteriorEquipment:Electricity [J] !RunPeriod [Value,Min,Month,Day,Hour,Minute,Max,Month,Day,Hour,Minute]
318,11,electric_mels:InteriorEquipment:Electricity [J] !RunPeriod [Value,Min,Month,Day,Hour,Minute,Max,Month,Day,Hour,Minute]
355,11,NaturalGas:Facility [J] !RunPeriod [Value,Min,Month,Day,Hour,Minute,Max,Month,Day,Hour,Minute]
403,11,InteriorEquipment:NaturalGas [J] !RunPeriod [Value,Min,Month,Day,Hour,Minute,Max,Month,Day,Hour,Minute]
476,11,gas_dryer:InteriorEquipment:NaturalGas [J] !RunPeriod [Value,Min,Month,Day,Hour,Minute,Max,Month,Day,Hour,Minute]
513,11,gas_mels:InteriorEquipment:NaturalGas [J] !RunPeriod [Value,Min,Month,Day,Hour,Minute,Max,Month,Day,Hour,Minute]
End of Data Dictionary
1,EXTREME_WINTER,  33.95,-117.43,  -8.00, 249.00
5,7
1038,0.0,0.0, 2,15, 1,15,0.0, 2,15, 1,15
1039,2.0,0.0, 2,15, 1,15,0.25, 2,19,15,45
581,0.1696167655388999,0.07560347408807461, 2,17, 7,60,0.5676427219575748, 2,16,11,60
582,1.950707738006839,0.0, 2,15, 1,15,10.657668707052007, 2,16,11,60
583,0.010372619669285429,0.00009302844491330199, 2,17, 9,46,0.0777757335996407, 2,21, 6, 3
1115,110491117.42084205,0.0, 2,15, 6, 7,2043933.6619974407, 2,16, 6,45
1128,29385905.44617074,0.0, 2,15, 6, 7,526010.2981034509, 2,16, 6,45
1153,82296.10150136167,0.0, 2,15, 1,15,21296.194585565572, 2,18, 6,60
1154,36063596.14673047,0.0, 2,15, 6, 3,180000.0, 2,15,20,15
1155,0.0,0.0, 2,15, 1,15,0.0, 2,15, 1,15
1156,0.0,0.0, 2,15, 1,15,0.0, 2,15, 1,15
1292,-23631660.084732417,-39767.852635314244, 2,15, 1,15,-3298.026167747894, 2,18,10,14
1306,106333966.02100831,0.0, 2,15, 1,15,4050000.0, 2,15, 7,15
1307,15449762.532464752,0.0, 2,15, 1,15,5180616.1146688145, 2,15, 6,60
1308,106333966.02100831,0.0, 2,15, 1,15,4050000.0, 2,15, 7,15
13,630044399.0968953,151703.1275401932, 2,17, 4,15,5284816.147282437, 2,15, 7,15
61,301924526.02383536,88139.10953165221, 2,15, 1,15,1282023.4113694867, 2,15,20,15
134,70666020.44019976,63564.01800854099, 2,15, 4,15,156554.22484006523, 2,20,20,15
170,5241013.419656067,348.4159749238097, 2,15, 4,15,17476.39704006126, 2,20,12,15
207,6509451.13922267,815.2532113832032, 2,15, 3,15,22990.642799023623, 2,20,10,15
244,12749673.399825225,1521.856143006317, 2,15, 4,15,53038.631142310165, 2,20,20,15
281,46165882.481495745,59938.60262432081, 2,15, 5,15,81951.81706819107, 2,15,19,15
318,0.0,0.0, 2,15, 1,15,0.0, 2,15, 1,15
355,197687796.27748066,18561.32405820678, 2,15, 4,15,724774.895203776, 2,20,18,15
403,197687796.27748066,18561.32405820678, 2,15, 4,15,724774.895203776, 2,20,18,15
476,106772067.24485716,7098.072629279515, 2,15, 4,15,356036.3026282215, 2,20,12,15
513,0.0,0.0, 2,15, 1,15,0.0, 2,15, 1,15
562,12556446.369234795,0.0, 2,15,20,15,95544.81172650612, 2,17,16,30
1046,0.0,0.0, 2,15, 1,15,0.0, 2,15, 1,15
1096,73031642.54821457,0.0, 2,15, 1,15,731704.6033449231, 2,17,16,30
1134,65531797.694402575,0.0, 2,16, 8,60,729959.8004302608, 2,15, 6,15
1326,106333966.02100833,0.0, 2,15, 1,15,4050000.0, 2,15, 7,15
1379,0.0,0.0, 2,15, 1,15,0.0, 2,15, 1,15
1,EXTREME_SUMMER,  33.95,-117.43,  -8.00, 249.00
5,7
1038,0.0,0.0, 9,26, 1,15,0.0, 9,26, 1,15
1039,30.0,0.0, 9,26, 1,15,0.25, 9,26,14,30
581,0.06890769126646504,0.0, 9,26,23, 3,0.3617838786897629, 9,30,16,50
582,2.5100030749583366,0.04825238107322919, 9,26, 8,55,11.955468927624093, 9,30,16,47
583,0.03509311169223464,0.0, 9,26,23, 3,0.07622191647090547, 9,30,16,50
1115,0.0,0.0, 9,26, 1, 7,0.0, 9,26, 1, 7
1128,0.0,0.0, 9,26, 1, 7,0.0, 9,26, 1, 7
1153,0.0,0.0, 9,26, 1, 7,0.0, 9,26, 1, 7
1154,0.0,0.0, 9,26, 1, 7,0.0, 9,26, 1, 7
1155,0.0,0.0, 9,26, 1, 7,0.0, 9,26, 1, 7
1156,0.0,0.0, 9,26, 1, 7,0.0, 9,26, 1, 7
1292,-21941969.236261785,-34347.8011767337, 9,28, 7,15,-2802.3944556900447, 9,29,11,60
1306,90184647.19389652,0.0, 9,26, 1, 7,4050000.0, 9,26, 7,15
1307,8227647.476185291,0.0, 9,26, 1, 7,3492950.1489338507, 9,26, 6,60
1308,90184647.19389652,0.0, 9,26, 1, 7,4050000.0, 9,26, 7,15
13,986189102.0733341,151703.1275401932, 9,26, 4,30,6270117.224301077, 9,26,19,30
61,301924526.02383536,88139.10953165221, 9,26, 1,15,1282023.4113694867, 9,26,20,15
134,70666020.44019976,63564.01800854099, 9,26, 4,15,156554.22484006523,10, 1,20,15
170,5241013.419656067,348.4159749238097, 9,26, 4,15,17476.39704006126,10, 1,12,15
207,6509451.13922267,815.2532113832032, 9,26, 3,15,22990.642799023623,10, 1,10,15
244,12749673.399825225,1521.856143006317, 9,26, 4,15,53038.631142310165,10, 1,20,15
281,46165882.481495745,59938.60262432081, 9,26, 5,15,81951.81706819107, 9,26,19,15
318,0.0,0.0, 9,26, 1,15,0.0, 9,26, 1,15
355,197687796.27748066,18561.32405820678, 9,26, 4,15,724774.895203776,10, 1,18,15
403,197687796.27748066,18561.32405820678, 9,26, 4,15,724774.895203776,10, 1,18,15
476,106772067.24485716,7098.072629279515, 9,26, 4,15,356036.3026282215,10, 1,12,15
513,0.0,0.0, 9,26, 1,15,0.0, 9,26, 1,15
562,47087737.65790675,0.0, 9,26, 4,30,148247.79095639597, 9,26,13,60
1046,0.0,0.0, 9,26, 1,15,0.0, 9,26, 1,15
1096,476326170.75749576,0.0, 9,26, 4,30,1818921.3888530484,10, 2,13,60
1134,0.0,0.0, 9,26, 1,15,0.0, 9,26, 1,15
1326,90184647.19389649,0.0, 9,26, 1,15,4050000.0, 9,26, 7,15
1379,0.0,0.0, 9,26, 1,15,0.0, 9,26, 1,15
1,ANNUAL,  33.95,-117.43,  -8.00, 249.00
5,365
1038,0.0,0.0, 1, 1, 1,15,0.0, 1, 1, 1,15
1039,439.0,0.0, 1, 1, 1,15,0.25, 2, 2,11,60
581,0.1349245198460384,0.0, 2, 6,10,46,0.7343501687668843,12,23, 9,60
582,2.5959466507699536,0.0, 1, 1, 6,52,16.70795569343202, 5, 4,16,48
583,0.024625149919739357,0.0, 7, 4, 6, 7,0.0816399913868909,12,22,14,18
1115,890698157.590791,0.0, 1, 1, 1, 7,2720508.676297519,12, 8, 6,60
1128,253847653.8564348,0.0, 1, 1, 1, 7,844042.8185660545,12, 8, 6,60
1153,6044825.367552433,0.0, 1, 1, 1, 7,75748.78504722324,12,31, 6,60
1154,572057508.2610741,0.0, 1, 1, 6, 5,180000.0, 1, 1, 1,30
1155,0.0,0.0, 1, 1, 1, 7,0.0, 1, 1, 1, 7
1156,0.0,0.0, 1, 1, 1, 7,0.0, 1, 1, 1, 7
1292,-1176642073.7539659,-39759.883492475696,12,23, 5,45,-2167.9939257627257, 4, 2,14,45
1306,5054115855.925269,0.0, 1, 1, 1, 7,4050000.0, 1, 2, 7,15
1307,562427943.0935522,0.0, 1, 1, 1, 7,5874813.231117897, 2,20, 6,60
1308,5054115855.925269,0.0, 1, 1, 1, 7,4050000.0, 1, 2, 7,15
13,40833110518.33044,151703.1275401932, 1, 6, 4,15,6971561.734819986,10, 2,19,30
61,15743207428.383959,88139.10953165221, 1, 1, 1,15,1282023.4113694867, 1, 1,20,15
134,3685071073.4325233,63564.01800854099, 1, 2, 4,15,156554.22484006523, 1, 1,20,15
170,273393721.45532674,348.4159749238097, 1, 2, 4,15,17476.39704006126, 1, 1,12,15
207,339560869.0695816,815.2532113832032, 1, 2, 3,15,22990.642799023623, 1, 1,10,15
244,664895467.8009144,1521.856143006317, 1, 2, 4,15,53038.631142310165, 1, 1,20,15
281,2407221015.106824,59938.60262432081, 1, 1, 5,15,81951.81706819107, 1, 1,19,15
318,0.0,0.0, 1, 1, 1,15,0.0, 1, 1, 1,15
355,10310294493.051695,18561.32405820678, 1, 2, 4,15,724774.895203776, 1, 1,18,15
403,10310294493.051695,18561.32405820678, 1, 2, 4,15,724774.895203776, 1, 1,18,15
476,5569688622.066177,7098.072629279515, 1, 2, 4,15,356036.3026282215, 1, 1,12,15
513,0.0,0.0, 1, 1, 1,15,0.0, 1, 1, 1,15
562,1607012190.6601563,0.0, 1, 1, 1,15,148247.790956396, 5,20,15,60
1046,0.0,0.0, 1, 1, 1,15,0.0, 1, 1, 1,15
1096,13911753982.441378,0.0, 1, 1, 1,15,1816309.4264617502,10, 2,13,60
1134,831949987.4850584,0.0, 1, 1,11,30,1176360.4856487936,12, 8, 6,15
1326,5054115855.925268,0.0, 1, 1, 1,15,4050000.0000000014, 2,18,10,30
1379,0.0,0.0, 1, 1, 1,15,0.0, 1, 1, 1,15
End of Data
 Number of Records Written=          99
