Program Version,EnergyPlus, Version 22.2.0-c249759bad, YMD=2023.09.01 14:32
1,5,Environment Title[],Latitude[deg],Longitude[deg],Time Zone[],Elevation[m]
2,8,Day of Simulation[],Month[],Day of Month[],DST Indicator[1=yes 0=no],Hour[],StartMinute[],EndMinute[],DayType
3,5,Cumulative Day of Simulation[],Month[],Day of Month[],DST Indicator[1=yes 0=no],DayType  ! When Daily Report Variables Requested
4,2,Cumulative Days of Simulation[],Month[]  ! When Monthly Report Variables Requested
5,1,Cumulative Days of Simulation[] ! When Run Period Report Variables Requested
6,1,Calendar Year of Simulation[] ! When Annual Report Variables Requested
7,1,Environment,Site Outdoor Air Drybulb Temperature [C] !Hourly
545,1,LIVING,Zone Mean Air Temperature [C] !Hourly
546,1,ATTIC,Zone Mean Air Temperature [C] !Hourly
547,1,CRAWLSPACE,Zone Mean Air Temperature [C] !Hourly
548,1,FAN,Fan Electricity Rate [W] !Hourly
720,1,LIVING,Zone Predicted Sensible Load to Heating Setpoint Heat Transfer Rate [W] !Hourly
721,1,LIVING,Zone System Predicted Sensible Load to Heating Setpoint Heat Transfer Rate [W] !Hourly
784,1,ATTIC,Zone Predicted Sensible Load to Heating Setpoint Heat Transfer Rate [W] !Hourly
785,1,ATTIC,Zone System Predicted Sensible Load to Heating Setpoint Heat Transfer Rate [W] !Hourly
848,1,CRAWLSPACE,Zone Predicted Sensible Load to Heating Setpoint Heat Transfer Rate [W] !Hourly
849,1,CRAWLSPACE,Zone System Predicted Sensible Load to Heating Setpoint Heat Transfer Rate [W] !Hourly
1121,1,DX_HEATING_COIL,Heating Coil Heating Rate [W] !Hourly
1135,1,DX_HEATING_COIL,Heating Coil Electricity Rate [W] !Hourly
1161,1,DX_HEATING_COIL,Heating Coil Defrost Electricity Rate [W] !Hourly
1163,1,DX_HEATING_COIL,Heating Coil Crankcase Heater Electricity Rate [W] !Hourly
1166,1,HEATING_RESISTANCE_BACKUP,Heating Coil Heating Rate [W] !Hourly
1168,1,HEATING_RESISTANCE_BACKUP,Heating Coil Electricity Rate [W] !Hourly
End of Data Dictionary
1,EXTREME_WINTER,  47.45,-122.30,  -8.00, 137.00
2,1, 1, 1, 0, 1, 0.00,60.00,Monday
7,-2.2
545,18.21044306503018
546,-1.1077106452920498
547,18.911225184706026
548,45.77264262653846
720,930.5973268956614
721,930.5973268956614
784,0.0
785,0.0
848,0.0
849,0.0
1121,1317.7396161312165
1135,439.7123162825849
1161,0.022049784970626256
1163,126.20096968551017
1166,0.0
1168,0.0
2,1, 1, 1, 0, 2, 0.00,60.00,Monday
7,-2.2
545,18.336871827090636
546,-0.9926529303577184
547,18.553045949992836
548,75.6919571170655
720,1587.2341374363496
721,1587.2341374363496
784,0.0
785,0.0
848,0.0
849,0.0
1121,2245.714619171917
1135,721.3608787423309
1161,0.03646263902448867
1163,77.96219299647382
1166,0.0
1168,0.0
2,1, 1, 1, 0, 3, 0.00,60.00,Monday
7,-2.2
545,18.333237565463214
546,-0.7348208427031181
547,18.331578521806723
548,103.30502630287063
720,2176.5231626189907
721,2176.5231626189907
784,0.0
785,0.0
848,0.0
849,0.0
1121,3145.988729731449
1135,986.4463080402991
1161,0.049764519841454594
1163,33.44176311660287
1166,0.0
1168,0.0
2,1, 1, 1, 0, 4, 0.00,60.00,Monday
7,-1.7
545,18.49258373071445
546,-0.3136187885640641
547,18.116560455733875
548,114.64666744302093
720,2423.975492897078
721,2423.975492897078
784,0.0
785,0.0
848,0.0
849,0.0
1121,3580.038731377371
1135,1099.0552651927912
1161,0.05522802667693474
1163,15.155802182645983
1166,0.0
1168,0.0
2,1, 1, 1, 0, 5, 0.00,60.00,Monday
7,-1.7
545,18.552317655934157
546,-0.002357356476558459
547,17.930006171906722
548,118.29318802611623
720,2467.9434836726523
721,2467.9434836726523
784,0.0
785,0.0
848,0.0
849,0.0
1121,3704.456249163511
1135,1137.3374681375578
1161,0.05698464276122409
1163,9.276535612559854
1166,0.0
1168,0.0
2,1, 1, 1, 0, 6, 0.00,60.00,Monday
7,-2.2
545,19.33650444037917
546,0.6584115821194036
547,17.744777777042916
548,124.04791916684411
720,3628.83399783033
721,3628.83399783033
784,0.0
785,0.0
848,0.0
849,0.0
1121,3646.207494643684
1135,1125.1503457788974
1161,46.26310355391973
1163,0.0
1166,1466.0837798364846
1168,1466.0837798364846
2,1, 1, 1, 0, 7, 0.00,60.00,Monday
7,-3.3
545,19.605416241077922
546,0.5103011298710262
547,17.60324002936171
548,124.04791916684411
720,3524.959522347339
721,3524.959522347339
784,0.0
785,0.0
848,0.0
849,0.0
1121,3515.1454043840463
1135,1129.8197763754638
1161,47.65414067102604
1163,0.0
1166,1542.2919086320542
1168,1542.2919086320542
2,1, 1, 1, 0, 8, 0.00,60.00,Monday
7,-1.7
545,19.693111172434
546,0.6604649578288412
547,17.46143630655288
548,124.04791916684411
720,3033.500209385733
721,3033.500209385733
784,0.0
785,0.0
848,0.0
849,0.0
1121,3841.9773720920666
1135,1204.6067102899235
1161,9.716404638005622
1163,0.0
1166,677.8645410367376
1168,677.8645410367376
2,1, 1, 1, 0, 9, 0.00,60.00,Monday
7,-1.7
545,19.72507878362624
546,0.9480432284959228
547,17.313399712407886
548,124.04791916684411
720,2542.5867075955666
721,2542.5867075955666
784,0.0
785,0.0
848,0.0
849,0.0
1121,3883.8111312485294
1135,1220.1120649527484
1161,0.05975629998568414
1163,0.0
1166,57.79090025283904
1168,57.79090025283904
2,1, 1, 1, 0,10, 0.00,60.00,Monday
7,0.0
545,19.896408231823482
546,2.7102633101942493
547,17.19236864117835
548,82.95838796683897
720,1580.2330617652005
721,1580.2330617652005
784,0.0
785,0.0
848,0.0
849,0.0
1121,2614.082577325543
1135,828.632996089761
1161,0.03996294948949092
1163,66.24690786054398
1166,0.0
1168,0.0
2,1, 1, 1, 0,11, 0.00,60.00,Monday
7,0.0
545,19.95502732292832
546,4.0844869668165975
547,17.075228918821974
548,46.22144835099393
720,796.7541397031218
721,796.7541397031218
784,0.0
785,0.0
848,0.0
849,0.0
1121,1405.768946646019
1135,463.2710416276582
1161,0.022265927078185078
1163,125.4775577352703
1166,0.0
1168,0.0
2,1, 1, 1, 0,12, 0.00,60.00,Monday
7,2.8
545,20.0098942892425
546,7.70249193954405
547,16.983303074724247
548,7.509779956555404
720,32.902114779853946
721,32.902114779853946
784,0.0
785,0.0
848,0.0
849,0.0
1121,237.59668193216348
1135,77.28649362603885
1161,0.0036176216302492756
1163,187.89208290635148
1166,0.0
1168,0.0
2,1, 1, 1, 0,13, 0.00,60.00,Monday
7,3.9
545,20.41969917069898
546,10.808207388925064
547,16.92028770253726
548,0.0
720,-405.9603082737576
721,-405.9603082737576
784,0.0
785,0.0
848,0.0
849,0.0
1121,0.0
1135,0.0
1161,0.0
1163,200.0
1166,0.0
1168,0.0
2,1, 1, 1, 0,14, 0.00,60.00,Monday
7,3.9
545,20.87244405291014
546,11.970970915668149
547,16.882538106285445
548,0.0
720,-846.4465197152331
721,-846.4465197152331
784,0.0
785,0.0
848,0.0
849,0.0
1121,0.0
1135,0.0
1161,0.0
1163,200.0
1166,0.0
1168,0.0
2,1, 1, 1, 0,15, 0.00,60.00,Monday
7,4.4
545,21.55111210424089
546,12.4741732028901
547,16.864334200010873
548,0.0
720,-1403.6974687997445
721,-1403.6974687997445
784,0.0
785,0.0
848,0.0
849,0.0
1121,0.0
1135,0.0
1161,0.0
1163,200.0
1166,0.0
1168,0.0
2,1, 1, 1, 0,16, 0.00,60.00,Monday
7,3.3
545,21.723951103865204
546,10.916696798677057
547,16.857925784293677
548,0.0
720,-1538.1184818689926
721,-1538.1184818689926
784,0.0
785,0.0
848,0.0
849,0.0
1121,0.0
1135,0.0
1161,0.0
1163,200.0
1166,0.0
1168,0.0
2,1, 1, 1, 0,17, 0.00,60.00,Monday
7,3.3
545,21.008198738215988
546,8.095937793867416
547,16.85692460983291
548,0.0
720,-1013.3368334325551
721,-1013.3368334325551
784,0.0
785,0.0
848,0.0
849,0.0
1121,0.0
1135,0.0
1161,0.0
1163,200.0
1166,0.0
1168,0.0
2,1, 1, 1, 0,18, 0.00,60.00,Monday
7,0.6
545,20.542484166845675
546,4.8646243643234675
547,16.856881851780432
548,0.0
720,-610.9786249075732
721,-610.9786249075732
784,0.0
785,0.0
848,0.0
849,0.0
1121,0.0
1135,0.0
1161,0.0
1163,200.0
1166,0.0
1168,0.0
2,1, 1, 1, 0,19, 0.00,60.00,Monday
7,-0.6
545,20.279305884326785
546,1.6049118894532877
547,16.830016175770933
548,0.0
720,-441.0029735190874
721,-441.0029735190874
784,0.0
785,0.0
848,0.0
849,0.0
1121,0.0
1135,0.0
1161,0.0
1163,200.0
1166,0.0
1168,0.0
2,1, 1, 1, 0,20, 0.00,60.00,Monday
7,0.6
545,20.10859755531166
546,0.5184139250071833
547,16.77964753924422
548,0.0
720,-303.0442849318533
721,-303.0442849318533
784,0.0
785,0.0
848,0.0
849,0.0
1121,0.0
1135,0.0
1161,0.0
1163,200.0
1166,0.0
1168,0.0
2,1, 1, 1, 0,21, 0.00,60.00,Monday
7,0.0
545,19.772428984227858
546,0.021116596575461985
547,16.715386370547602
548,5.019485376521186
720,53.57481732483029
721,53.57481732483029
784,0.0
785,0.0
848,0.0
849,0.0
1121,146.9121052788503
1135,50.50650765836623
1161,0.0024180007361688906
1163,191.9071269916371
1166,0.0
1168,0.0
2,1, 1, 1, 0,22, 0.00,60.00,Monday
7,0.0
545,19.739940389792444
546,-0.4478800548890646
547,16.642084755092988
548,21.911289164085176
720,460.3219130436046
721,460.3219130436046
784,0.0
785,0.0
848,0.0
849,0.0
1121,652.2241946739001
1135,218.9940129841345
1161,0.010555168253734828
1163,164.67261776159657
1166,0.0
1168,0.0
2,1, 1, 1, 0,23, 0.00,60.00,Monday
7,0.0
545,18.75073103317498
546,-0.6366543453424681
547,16.549300361268298
548,7.310072120726345
720,104.6563606124082
721,104.6563606124082
784,0.0
785,0.0
848,0.0
849,0.0
1121,214.79447963921223
1135,73.01511879169635
1161,0.0035214286351500264
1163,188.21403388096766
1166,0.0
1168,0.0
2,1, 1, 1, 0,24, 0.00,60.00,Monday
7,0.0
545,18.567360263531054
546,-0.5818943369233386
547,16.452199266570904
548,27.02106190234644
720,580.4611438261363
721,580.4611438261363
784,0.0
785,0.0
848,0.0
849,0.0
1121,812.174455919903
1135,264.6808618810583
1161,0.013016661986606212
1163,156.4341768492205
1166,0.0
1168,0.0
2,2, 1, 2, 0, 1, 0.00,60.00,Tuesday
7,-1.1
545,18.33087824771811
546,-0.15070015907436352
547,16.346567438310267
548,49.316150051965266
720,981.340962787026
721,981.340962787026
784,0.0
785,0.0
848,0.0
849,0.0
1121,1405.0894178091378
1135,458.07745899624103
1161,15.281272788198478
1163,120.05250219523063
1166,0.0
1168,0.0
2,2, 1, 2, 0, 2, 0.00,60.00,Tuesday
7,-0.6
545,18.41464089309602
546,0.7140605078794502
547,16.24021181996408
548,75.97605336718945
720,1577.637650792165
721,1577.637650792165
784,0.0
785,0.0
848,0.0
849,0.0
1121,2258.2953059799615
1135,706.4706446294605
1161,22.35486487543998
1163,76.91559043669956
1166,0.0
1168,0.0
2,2, 1, 2, 0, 3, 0.00,60.00,Tuesday
7,-1.1
545,18.465997983305595
546,1.1127488694814858
547,16.14022279674335
548,95.48929658585642
720,1965.9300728291528
721,1965.9300728291528
784,0.0
785,0.0
848,0.0
849,0.0
1121,2858.5883376833203
1135,887.4340536301318
1161,26.620231279423457
1163,45.288634522772476
1166,0.0
1168,0.0
2,2, 1, 2, 0, 4, 0.00,60.00,Tuesday
7,-2.2
545,18.439008842807098
546,1.0839892858961233
547,16.03003379799054
548,119.92657970038995
720,2409.815313895795
721,2409.815313895795
784,0.0
785,0.0
848,0.0
849,0.0
1121,3539.7700003996233
1135,1098.3572041447935
1161,39.8494073089739
1163,5.316062996081938
1166,0.0
1168,0.0
2,2, 1, 2, 0, 5, 0.00,60.00,Tuesday
7,-2.2
545,18.540594043646433
546,0.8835701729498171
547,15.929217644390766
548,124.04791916684411
720,2554.492333570064
721,2554.492333570064
784,0.0
785,0.0
848,0.0
849,0.0
1121,3674.087914744619
1135,1127.5896990254582
1161,40.937540017152955
1163,0.0
1166,148.10025587777
1168,148.10025587777
2,2, 1, 2, 0, 6, 0.00,60.00,Tuesday
7,-2.2
545,19.3565831443938
546,0.7103496541988877
547,15.834598479500606
548,124.04791916684411
720,3407.053497032706
721,3407.053497032706
784,0.0
785,0.0
848,0.0
849,0.0
1121,3672.3176701894295
1135,1129.705431842036
1161,40.93363995866281
1163,0.0
1166,1179.9452824973323
1168,1179.9452824973323
2,2, 1, 2, 0, 7, 0.00,60.00,Tuesday
7,-2.8
545,19.610143977426027
546,0.11586456111171459
547,15.769699285724494
548,124.04791916684411
720,3283.3255974442036
721,3283.3255974442036
784,0.0
785,0.0
848,0.0
849,0.0
1121,3606.8946746155175
1135,1145.279630958886
1161,38.479307651890714
1163,0.0
1166,1196.0815693335894
1168,1196.0815693335894
2,2, 1, 2, 0, 8, 0.00,60.00,Tuesday
7,-2.8
545,19.683102257349415
546,-0.08323120376571061
547,15.680970728522118
548,124.04791916684411
720,3106.3337549415446
721,3106.3337549415446
784,0.0
785,0.0
848,0.0
849,0.0
1121,3573.726231121951
1135,1141.7666415247795
1161,45.001326995096775
1163,0.0
1166,1079.1942057503793
1168,1079.1942057503793
2,2, 1, 2, 0, 9, 0.00,60.00,Tuesday
7,-0.6
545,19.720704751820133
546,1.2376907889582984
547,15.608939387645908
548,124.04791916684411
720,2500.6890943269336
721,2500.6890943269336
784,0.0
785,0.0
848,0.0
849,0.0
1121,3837.787610619845
1135,1177.3613211049083
1161,36.30739395822811
1163,0.0
1166,131.48931108637316
1168,131.48931108637316
2,2, 1, 2, 0,10, 0.00,60.00,Tuesday
7,1.1
545,19.886644904482587
546,3.3266170700586724
547,15.506849095654333
548,85.56672497757295
720,1610.0120243182591
721,1610.0120243182591
784,0.0
785,0.0
848,0.0
849,0.0
1121,2688.416893651356
1135,833.3621608880649
1161,21.129655986209844
1163,61.62524379440355
1166,0.0
1168,0.0
2,2, 1, 2, 0,11, 0.00,60.00,Tuesday
7,1.1
545,19.944240039341373
546,5.42549017706222
547,15.416589173762393
548,48.36266120147637
720,832.955638083944
721,832.955638083944
784,0.0
785,0.0
848,0.0
849,0.0
1121,1465.7475475025306
1135,472.59123588480514
1161,11.942597415149967
1163,121.78982909795155
1166,0.0
1168,0.0
2,2, 1, 2, 0,12, 0.00,60.00,Tuesday
7,2.2
545,20.030989438787255
546,9.585477234265653
547,15.345029979169313
548,11.934695422282658
720,124.5081381177406
721,124.5081381177406
784,0.0
785,0.0
848,0.0
849,0.0
1121,358.02910599564586
1135,117.2117148752891
1161,3.4247547439062815
1163,180.7036625913598
1166,0.0
1168,0.0
2,2, 1, 2, 0,13, 0.00,60.00,Tuesday
7,2.8
545,19.886566403525336
546,10.018651770021695
547,15.314616415986197
548,0.0
720,-320.9137552853899
721,-320.9137552853899
784,0.0
785,0.0
848,0.0
849,0.0
1121,0.0
1135,0.0
1161,0.0
1163,200.0
1166,0.0
1168,0.0
2,2, 1, 2, 0,14, 0.00,60.00,Tuesday
7,3.9
545,20.388711259185857
546,10.366696366488403
547,15.312820782180756
548,0.0
720,-518.9771267959222
721,-518.9771267959222
784,0.0
785,0.0
848,0.0
849,0.0
1121,0.0
1135,0.0
1161,0.0
1163,200.0
1166,0.0
1168,0.0
2,2, 1, 2, 0,15, 0.00,60.00,Tuesday
7,3.9
545,20.713388836447965
546,9.951215880540696
547,15.323992004114249
548,0.0
720,-787.9737392071311
721,-787.9737392071311
784,0.0
785,0.0
848,0.0
849,0.0
1121,0.0
1135,0.0
1161,0.0
1163,200.0
1166,0.0
1168,0.0
2,2, 1, 2, 0,16, 0.00,60.00,Tuesday
7,2.8
545,20.95643845949217
546,8.612398405436483
547,15.338894843871733
548,0.0
720,-1018.7500141390647
721,-1018.7500141390647
784,0.0
785,0.0
848,0.0
849,0.0
1121,0.0
1135,0.0
1161,0.0
1163,200.0
1166,0.0
1168,0.0
2,2, 1, 2, 0,17, 0.00,60.00,Tuesday
7,2.8
545,20.165389442449243
546,6.294241059561042
547,15.371259895985817
548,0.0
720,-359.49183110502054
721,-359.49183110502054
784,0.0
785,0.0
848,0.0
849,0.0
1121,0.0
1135,0.0
1161,0.0
1163,200.0
1166,0.0
1168,0.0
2,2, 1, 2, 0,18, 0.00,60.00,Tuesday
7,1.7
545,19.759451372706664
546,4.275054929322127
547,15.395635649682127
548,9.36655798846176
720,156.7475603804305
721,156.7475603804305
784,0.0
785,0.0
848,0.0
849,0.0
1121,275.17566207585105
1135,91.62574022716332
1161,2.957021357282619
1163,184.8460329065401
1166,0.0
1168,0.0
2,2, 1, 2, 0,19, 0.00,60.00,Tuesday
7,1.1
545,19.717075624208025
546,2.823377055535291
547,15.390320748519347
548,17.549460698842243
720,358.422095629041
721,358.422095629041
784,0.0
785,0.0
848,0.0
849,0.0
1121,508.9653682485557
1135,168.52240926933624
1161,6.270042313091996
1163,171.5796443979228
1166,0.0
1168,0.0
2,2, 1, 2, 0,20, 0.00,60.00,Tuesday
7,0.6
545,19.325042494339524
546,2.472017820580538
547,15.36686963197437
548,30.14537921225107
720,605.1353813737769
721,605.1353813737769
784,0.0
785,0.0
848,0.0
849,0.0
1121,860.88047891544
1135,284.4912578796333
1161,13.52129554782691
1163,151.0964880534017
1166,0.0
1168,0.0
2,2, 1, 2, 0,21, 0.00,60.00,Tuesday
7,0.0
545,19.75741943238621
546,2.06206040622126
547,15.332773427995333
548,55.08841167002538
720,1117.8504209409693
721,1117.8504209409693
784,0.0
785,0.0
848,0.0
849,0.0
1121,1579.9921173008902
1135,511.37132783135763
1161,26.396526885162825
1163,110.53033342783947
1166,0.0
1168,0.0
2,2, 1, 2, 0,22, 0.00,60.00,Tuesday
7,0.6
545,19.739081686600564
546,1.9794283137244948
547,15.281323844396983
548,53.449141641184234
720,1049.3067610339876
721,1049.3067610339876
784,0.0
785,0.0
848,0.0
849,0.0
1121,1575.6256085669188
1135,509.4717357500387
1161,20.303412950017336
1163,113.37760060965718
1166,0.0
1168,0.0
2,2, 1, 2, 0,23, 0.00,60.00,Tuesday
7,0.6
545,18.845282678239133
546,1.60407901600644
547,15.194147171991307
548,35.59763300987698
720,628.4705679586186
721,628.4705679586186
784,0.0
785,0.0
848,0.0
849,0.0
1121,1032.2162858618146
1135,339.2083785746424
1161,13.522259333571338
1163,142.30868713866124
1166,0.0
1168,0.0
2,2, 1, 2, 0,24, 0.00,60.00,Tuesday
7,-1.7
545,18.418151942266615
546,0.7985230110188364
547,15.115688897391278
548,58.919064677632825
720,1095.5459928475102
721,1095.5459928475102
784,0.0
785,0.0
848,0.0
849,0.0
1121,1616.3735022839703
1135,533.0694380057588
1161,29.8755486545192
1163,104.05227276779922
1166,0.0
1168,0.0
2,3, 1, 3, 0, 1, 0.00,60.00,Wednesday
7,-1.7
545,18.390708383255042
546,0.7735856541600405
547,15.036931730807982
548,93.05354594208902
720,1836.6409962407397
721,1836.6409962407397
784,0.0
785,0.0
848,0.0
849,0.0
1121,2660.5912774236563
1135,839.2758024216135
1161,43.24288317716587
1163,48.601836814473344
1166,0.0
1168,0.0
2,3, 1, 3, 0, 2, 0.00,60.00,Wednesday
7,-1.7
545,18.40927777535988
546,0.7593111402500357
547,14.959734052703183
548,117.26572947371999
720,2373.4687856246856
721,2373.4687856246856
784,0.0
785,0.0
848,0.0
849,0.0
1121,3493.508981809687
1135,1072.695503396284
1161,41.00541228767536
1163,9.655358186860807
1166,0.0
1168,0.0
2,3, 1, 3, 0, 3, 0.00,60.00,Wednesday
7,-2.2
545,18.522202394755627
546,0.538113676932328
547,14.871680676421258
548,124.04791916684411
720,2632.081020340631
721,2632.081020340631
784,0.0
785,0.0
848,0.0
849,0.0
1121,3652.906089828279
1135,1118.498491165908
1161,46.07380646615439
1163,0.0
1166,293.18381798779956
1168,293.18381798779956
2,3, 1, 3, 0, 4, 0.00,60.00,Wednesday
7,-1.7
545,18.56835218684658
546,0.8028583486080255
547,14.787649246251503
548,124.04791916684411
720,2980.741723099196
721,2980.741723099196
784,0.0
785,0.0
848,0.0
849,0.0
1121,3683.4856352839083
1135,1120.028464891849
1161,50.13623270535142
1163,0.0
1166,724.8958823152634
1168,724.8958823152634
2,3, 1, 3, 0, 5, 0.00,60.00,Wednesday
7,-1.7
545,18.593233176046894
546,0.8695892256458851
547,14.696748891480164
548,124.04791916684411
720,2991.875025425703
721,2991.875025425703
784,0.0
785,0.0
848,0.0
849,0.0
1121,3682.7285320894025
1135,1120.9233828634806
1161,50.13623270535142
1163,0.0
1166,749.8839148754591
1168,749.8839148754591
2,3, 1, 3, 0, 6, 0.00,60.00,Wednesday
7,-1.7
545,19.379765741455238
546,0.9701473008186334
547,14.60843213656308
548,124.04791916684411
720,3829.421092519786
721,3829.421092519786
784,0.0
785,0.0
848,0.0
849,0.0
1121,3682.427794180615
1135,1121.3742269458223
1161,50.122064292315045
1163,0.0
1166,1723.9619859382242
1168,1723.9619859382242
2,3, 1, 3, 0, 7, 0.00,60.00,Wednesday
7,-0.6
545,19.62784727891403
546,1.3051062746782702
547,14.567171175019919
548,124.04791916684411
720,3336.6386417943268
721,3336.6386417943268
784,0.0
785,0.0
848,0.0
849,0.0
1121,3817.3893571632057
1135,1160.5580232456714
1161,42.2243663091905
1163,0.0
1166,1087.3040878634592
1168,1087.3040878634592
2,3, 1, 3, 0, 8, 0.00,60.00,Wednesday
7,-0.6
545,19.693997940016605
546,1.6217148474595886
547,14.487804165373536
548,124.04791916684411
720,3196.1235914595436
721,3196.1235914595436
784,0.0
785,0.0
848,0.0
849,0.0
1121,3776.7454749624962
1135,1155.1060518679658
1161,49.98174025303096
1163,0.0
1166,965.572449455949
1168,965.572449455949
2,3, 1, 3, 0, 9, 0.00,60.00,Wednesday
7,0.0
545,19.72672681630612
546,2.4280071405910406
547,14.41937269415934
548,124.04791916684411
720,2591.6926463444906
721,2591.6926463444906
784,0.0
785,0.0
848,0.0
849,0.0
1121,3767.928914587929
1135,1141.3627151071337
1161,64.8237437531993
1163,0.0
1166,256.18811379202407
1168,256.18811379202407
2,3, 1, 3, 0,10, 0.00,60.00,Wednesday
7,0.6
545,19.88970424862058
546,4.957071669193783
547,14.308334129879956
548,85.08351468043384
720,1510.7046873264499
721,1510.7046873264499
784,0.0
785,0.0
848,0.0
849,0.0
1121,2540.186893398046
1135,796.4469831472145
1161,42.43407195148341
1163,61.871571003978
1166,0.0
1168,0.0
2,3, 1, 3, 0,11, 0.00,60.00,Wednesday
7,0.6
545,19.95035571991137
546,7.192664102828457
547,14.21553251785047
548,44.481774524293364
720,712.9721712335631
721,712.9721712335631
784,0.0
785,0.0
848,0.0
849,0.0
1121,1276.8253000778031
1135,417.75436331717526
1161,22.184714933363995
1163,127.7858645059154
1166,0.0
1168,0.0
2,3, 1, 3, 0,12, 0.00,60.00,Wednesday
7,3.3
545,19.93287406136701
546,9.512619195628401
547,14.144999468999709
548,7.837332724932463
720,66.53145852156376
721,66.53145852156376
784,0.0
785,0.0
848,0.0
849,0.0
1121,245.8830245727122
1135,79.03758986835732
1161,1.2286045727310733
1163,187.34951610814397
1166,0.0
1168,0.0
2,3, 1, 3, 0,13, 0.00,60.00,Wednesday
7,3.9
545,19.953662696704598
546,10.548420303485797
547,14.135547292718105
548,0.0
720,-260.30296749596346
721,-260.30296749596346
784,0.0
785,0.0
848,0.0
849,0.0
1121,0.0
1135,0.0
1161,0.0
1163,200.0
1166,0.0
1168,0.0
2,3, 1, 3, 0,14, 0.00,60.00,Wednesday
7,4.4
545,20.90563362516304
546,13.49542081520056
547,14.155832562133584
548,0.0
720,-903.7554792256487
721,-903.7554792256487
784,0.0
785,0.0
848,0.0
849,0.0
1121,0.0
1135,0.0
1161,0.0
1163,200.0
1166,0.0
1168,0.0
2,3, 1, 3, 0,15, 0.00,60.00,Wednesday
7,5.0
545,21.54077949884266
546,14.173507582458715
547,14.188523992847902
548,0.0
720,-1299.513682740113
721,-1299.513682740113
784,0.0
785,0.0
848,0.0
849,0.0
1121,0.0
1135,0.0
1161,0.0
1163,200.0
1166,0.0
1168,0.0
2,3, 1, 3, 0,16, 0.00,60.00,Wednesday
7,3.9
545,21.83043036247728
546,13.302436313681778
547,14.227280375828041
548,0.0
720,-1576.339025826579
721,-1576.339025826579
784,0.0
785,0.0
848,0.0
849,0.0
1121,0.0
1135,0.0
1161,0.0
1163,200.0
1166,0.0
1168,0.0
2,3, 1, 3, 0,17, 0.00,60.00,Wednesday
7,3.9
545,21.155452076780175
546,9.963730441543403
547,14.29041072426312
548,0.0
720,-1084.010587923909
721,-1084.010587923909
784,0.0
785,0.0
848,0.0
849,0.0
1121,0.0
1135,0.0
1161,0.0
1163,200.0
1166,0.0
1168,0.0
2,3, 1, 3, 0,18, 0.00,60.00,Wednesday
7,1.1
545,20.576692689600517
546,6.454386268193817
547,14.338862558871899
548,0.0
720,-611.328913465215
721,-611.328913465215
784,0.0
785,0.0
848,0.0
849,0.0
1121,0.0
1135,0.0
1161,0.0
1163,200.0
1166,0.0
1168,0.0
2,3, 1, 3, 0,19, 0.00,60.00,Wednesday
7,2.2
545,20.471541822907685
546,3.9616889141811042
547,14.360926435460323
548,0.0
720,-591.5386935208371
721,-591.5386935208371
784,0.0
785,0.0
848,0.0
849,0.0
1121,0.0
1135,0.0
1161,0.0
1163,200.0
1166,0.0
1168,0.0
2,3, 1, 3, 0,20, 0.00,60.00,Wednesday
7,2.2
545,20.226210832305366
546,2.829950887286351
547,14.35889703044242
548,0.0
720,-376.7135317861539
721,-376.7135317861539
784,0.0
785,0.0
848,0.0
849,0.0
1121,0.0
1135,0.0
1161,0.0
1163,200.0
1166,0.0
1168,0.0
2,3, 1, 3, 0,21, 0.00,60.00,Wednesday
7,-0.6
545,19.772941006423586
546,1.148385125125546
547,14.34505655258905
548,3.300836114952762
720,18.043065507443316
721,18.043065507443316
784,0.0
785,0.0
848,0.0
849,0.0
1121,88.79851367089883
1135,31.12993336964442
1161,1.4932959848996783
1163,194.63754174624052
1166,0.0
1168,0.0
2,3, 1, 3, 0,22, 0.00,60.00,Wednesday
7,0.0
545,19.707502639376028
546,0.5306072662947934
547,14.335133311232594
548,23.161124670563325
720,462.2593806553923
721,462.2593806553923
784,0.0
785,0.0
848,0.0
849,0.0
1121,654.9681997867422
1135,220.06426865105482
1161,8.421873279231773
1163,162.4526635301376
1166,0.0
1168,0.0
2,3, 1, 3, 0,23, 0.00,60.00,Wednesday
7,0.0
545,18.738760081859805
546,-0.09845530685778615
547,14.26495281925364
548,10.059732265133889
720,153.0223970842635
721,153.0223970842635
784,0.0
785,0.0
848,0.0
849,0.0
1121,281.20956538161727
1135,95.4669154697875
1161,3.657924657023407
1163,183.6918315765501
1166,0.0
1168,0.0
2,3, 1, 3, 0,24, 0.00,60.00,Wednesday
7,0.6
545,18.58147477944236
546,-0.15593250063690367
547,14.228722164996308
548,31.34297636374393
720,657.7337127834671
721,657.7337127834671
784,0.0
785,0.0
848,0.0
849,0.0
1121,931.7694993458318
1135,298.94605311165606
1161,6.898921987190065
1163,149.31832197198344
1166,0.0
1168,0.0
2,4, 1, 4, 0, 1, 0.00,60.00,Thursday
7,0.0
545,18.409018193557625
546,0.42053161328778504
547,14.171393470161574
548,48.25297641163844
720,984.9237473165149
721,984.9237473165149
784,0.0
785,0.0
848,0.0
849,0.0
1121,1429.5241466921973
1135,454.9622746735574
1161,11.830717943423778
1163,121.92071519615632
1166,0.0
1168,0.0
2,4, 1, 4, 0, 2, 0.00,60.00,Thursday
7,-0.6
545,18.36826238639322
546,1.1128425228438765
547,14.120900011660085
548,78.50971768819758
720,1619.386521347822
721,1619.386521347822
784,0.0
785,0.0
848,0.0
849,0.0
1121,2339.944335992034
1135,729.2935734549917
1161,23.084986961601594
1163,72.81152591618793
1166,0.0
1168,0.0
2,4, 1, 4, 0, 3, 0.00,60.00,Thursday
7,0.0
545,18.528062786104172
546,1.4257482611625891
547,14.06336560211582
548,92.79881166603329
720,1903.2617649318308
721,1903.2617649318308
784,0.0
785,0.0
848,0.0
849,0.0
1121,2800.790937356165
1135,851.6585728192596
1161,38.35922406244352
1163,49.44835010268977
1166,0.0
1168,0.0
2,4, 1, 4, 0, 4, 0.00,60.00,Thursday
7,-1.0
545,18.472821078450608
546,1.5776802288405571
547,14.01498616098301
548,115.02301494018751
720,2256.924427907168
721,2256.924427907168
784,0.0
785,0.0
848,0.0
849,0.0
1121,3368.8226365936366
1135,1028.345008906203
1161,66.12545435097059
1163,12.627083771022974
1166,0.0
1168,0.0
2,4, 1, 4, 0, 5, 0.00,60.00,Thursday
7,-1.1
545,18.54042176123914
546,1.8503849888352155
547,13.947709011521379
548,120.57768818173864
720,2353.6151058996365
721,2353.6151058996365
784,0.0
785,0.0
848,0.0
849,0.0
1121,3564.0442876232873
1135,1081.7411726588202
1161,64.4897679582038
1163,3.7019497293277137
1166,0.0
1168,0.0
2,4, 1, 4, 0, 6, 0.00,60.00,Thursday
7,0.0
545,19.35537903573809
546,1.9625696784902542
547,13.896039937682268
548,124.04791916684411
720,3170.3316838465544
721,3170.3316838465544
784,0.0
785,0.0
848,0.0
849,0.0
1121,3731.4265935332523
1135,1098.2106813937253
1161,77.12885503079316
1163,0.0
1166,829.0086459225113
1168,829.0086459225113
2,4, 1, 4, 0, 7, 0.00,60.00,Thursday
7,-1.1
545,19.6118837758661
546,1.878441367699613
547,13.865263212822727
548,124.04791916684411
720,3077.3012203542694
721,3077.3012203542694
784,0.0
785,0.0
848,0.0
849,0.0
1121,3595.331381882398
1135,1101.5342358742914
1161,79.61104098754822
1163,0.0
1166,939.9064436190738
1168,939.9064436190738
2,4, 1, 4, 0, 8, 0.00,60.00,Thursday
7,-1.1
545,19.68750231974765
546,2.1357886617373585
547,13.812991974153897
548,124.04791916684411
720,2937.9825012874135
721,2937.9825012874135
784,0.0
785,0.0
848,0.0
849,0.0
1121,3687.158569966003
1135,1136.7213783490338
1161,58.54545544663496
1163,0.0
1166,719.3378946095927
1168,719.3378946095927
2,4, 1, 4, 0, 9, 0.00,60.00,Thursday
7,0.0
545,19.718563743749673
546,2.879306049936029
547,13.768828430967066
548,124.04791916684411
720,2615.5962405561604
721,2615.5962405561604
784,0.0
785,0.0
848,0.0
849,0.0
1121,3834.325067276839
1135,1160.125251721396
1161,50.92993961852152
1163,0.0
1166,191.48211489524692
1168,191.48211489524692
2,4, 1, 4, 0,10, 0.00,60.00,Thursday
7,0.6
545,19.72724845013175
546,3.91864441293857
547,13.719340000338741
548,124.04791916684411
720,2523.427431201637
721,2523.427431201637
784,0.0
785,0.0
848,0.0
849,0.0
1121,3846.385808820282
1135,1151.8786967730066
1161,61.40779211270493
1163,0.0
1166,32.97531574560344
1168,32.97531574560344
2,4, 1, 4, 0,11, 0.00,60.00,Thursday
7,0.6
545,19.754384606982473
546,5.352258401708453
547,13.66064526658805
548,117.82519761024062
720,2375.682012343639
721,2375.682012343639
784,0.0
785,0.0
848,0.0
849,0.0
1121,3633.7296845310775
1135,1101.8214847752854
1161,58.730915401055896
1163,8.718361691741094
1166,0.0
1168,0.0
2,4, 1, 4, 0,12, 0.00,60.00,Thursday
7,1.0
545,19.80122561026102
546,7.293271259622911
547,13.595066522613362
548,102.33790797595664
720,1998.096994936921
721,1998.096994936921
784,0.0
785,0.0
848,0.0
849,0.0
1121,3051.5763744619726
1135,935.3388696786647
1161,70.34655980530118
1163,33.49891251089561
1166,0.0
1168,0.0
2,4, 1, 4, 0,13, 0.00,60.00,Thursday
7,2.2
545,19.838863893115054
546,8.692151232451929
547,13.519836144750078
548,74.55262890184893
720,1533.2172998819606
721,1533.2172998819606
784,0.0
785,0.0
848,0.0
849,0.0
1121,2292.024914987778
1135,705.0232596175697
1161,38.60776910993864
1163,79.16918155522745
1166,0.0
1168,0.0
2,4, 1, 4, 0,14, 0.00,60.00,Thursday
7,2.8
545,19.791154566185014
546,8.827380284355248
547,13.46926316707505
548,55.69634565480406
720,1194.3603787018274
721,1194.3603787018274
784,0.0
785,0.0
848,0.0
849,0.0
1121,1733.8084680057516
1135,537.0559308464221
1161,23.43676355785003
1163,109.87413366271814
1166,0.0
1168,0.0
2,4, 1, 4, 0,15, 0.00,60.00,Thursday
7,2.8
545,19.896562643466744
546,9.731427573200286
547,13.437532058214915
548,42.73201118694625
720,906.8616811014417
721,906.8616811014417
784,0.0
785,0.0
848,0.0
849,0.0
1121,1302.7404255133163
1135,408.1993267544162
1161,20.522624702589596
1163,130.81463665490162
1166,0.0
1168,0.0
2,4, 1, 4, 0,16, 0.00,60.00,Thursday
7,2.8
545,19.74127474587374
546,8.746443430002833
547,13.423821249339293
548,32.797116324800896
720,706.6751218129994
721,706.6751218129994
784,0.0
785,0.0
848,0.0
849,0.0
1121,999.2490725334918
1135,316.61685691393893
1161,13.800888339533227
1163,146.92880632795763
1166,0.0
1168,0.0
2,4, 1, 4, 0,17, 0.00,60.00,Thursday
7,2.8
545,19.708716742389942
546,7.257814461500079
547,13.444829006498953
548,40.34802337746321
720,909.5256616174684
721,909.5256616174684
784,0.0
785,0.0
848,0.0
849,0.0
1121,1238.787699908818
1135,388.32620182967196
1161,16.97823274526053
1163,134.71035660424678
1166,0.0
1168,0.0
2,4, 1, 4, 0,18, 0.00,60.00,Thursday
7,3.0
545,19.74077656349349
546,5.989677550433077
547,13.448144345612983
548,41.064475142123385
720,909.4397840312213
721,909.4397840312213
784,0.0
785,0.0
848,0.0
849,0.0
1121,1266.4700771290911
1135,395.0814918727063
1161,17.695857652492112
1163,133.5572753696624
1166,0.0
1168,0.0
2,4, 1, 4, 0,19, 0.00,60.00,Thursday
7,2.8
545,19.696864043743506
546,5.0386988774823385
547,13.436354136274815
548,37.57480923146785