Program Version,EnergyPlus, Version 22.2.0-c249759bad, YMD=2023.09.01 20:54
1,5,Environment Title[],Latitude[deg],Longitude[deg],Time Zone[],Elevation[m]
2,8,Day of Simulation[],Month[],Day of Month[],DST Indicator[1=yes 0=no],Hour[],StartMinute[],EndMinute[],DayType
3,5,Cumulative Day of Simulation[],Month[],Day of Month[],DST Indicator[1=yes 0=no],DayType  ! When Daily Report Variables Requested
4,2,Cumulative Days of Simulation[],Month[]  ! When Monthly Report Variables Requested
5,1,Cumulative Days of Simulation[] ! When Run Period Report Variables Requested
6,1,Calendar Year of Simulation[] ! When Annual Report Variables Requested
581,11,LIVING,AFN Zone Infiltration Air Change Rate [ach] !RunPeriod [Value,Min,Month,Day,Hour,Minute,Max,Month,Day,Hour,Minute]
582,11,ATTIC,AFN Zone Infiltration Air Change Rate [ach] !RunPeriod [Value,Min,Month,Day,Hour,Minute,Max,Month,Day,Hour,Minute]
583,11,CRAWLSPACE,AFN Zone Infiltration Air Change Rate [ach] !RunPeriod [Value,Min,Month,Day,Hour,Minute,Max,Month,Day,Hour,Minute]
1038,11,Facility,Facility Heating Setpoint Not Met Time [hr] !RunPeriod [Value,Min,Month,Day,Hour,Minute,Max,Month,Day,Hour,Minute]
1039,11,Facility,Facility Cooling Setpoint Not Met Time [hr] !RunPeriod [Value,Min,Month,Day,Hour,Minute,Max,Month,Day,Hour,Minute]
1115,11,DX_HEATING_COIL,Heating Coil Heating Energy [J] !RunPeriod [Value,Min,Month,Day,Hour,Minute,Max,Month,Day,Hour,Minute]
1128,11,DX_HEATING_COIL,Heating Coil Electricity Energy [J] !RunPeriod [Value,Min,Month,Day,Hour,Minute,Max,Month,Day,Hour,Minute]
1153,11,DX_HEATING_COIL,Heating Coil Defrost Electricity Energy [J] !RunPeriod [Value,Min,Month,Day,Hour,Minute,Max,Month,Day,Hour,Minute]
1154,11,DX_HEATING_COIL,Heating Coil Crankcase Heater Electricity Energy [J] !RunPeriod [Value,Min,Month,Day,Hour,Minute,Max,Month,Day,Hour,Minute]
1155,11,HEATING_RESISTANCE_BACKUP,Heating Coil Heating Energy [J] !RunPeriod [Value,Min,Month,Day,Hour,Minute,Max,Month,Day,Hour,Minute]
1156,11,HEATING_RESISTANCE_BACKUP,Heating Coil Electricity Energy [J] !RunPeriod [Value,Min,Month,Day,Hour,Minute,Max,Month,Day,Hour,Minute]
1292,11,WATER HEATER,Water Heater Heat Loss Energy [J] !RunPeriod [Value,Min,Month,Day,Hour,Minute,Max,Month,Day,Hour,Minute]
1306,11,WATER HEATER,Water Heater Heating Energy [J] !RunPeriod [Value,Min,Month,Day,Hour,Minute,Max,Month,Day,Hour,Minute]
1307,11,WATER HEATER,Water Heater Unmet Demand Heat Transfer Energy [J] !RunPeriod [Value,Min,Month,Day,Hour,Minute,Max,Month,Day,Hour,Minute]
1308,11,WATER HEATER,Water Heater Electricity Energy [J] !RunPeriod [Value,Min,Month,Day,Hour,Minute,Max,Month,Day,Hour,Minute]
13,11,Electricity:Facility [J] !RunPeriod [Value,Min,Month,Day,Hour,Minute,Max,Month,Day,Hour,Minute]
1134,11,Heating:Electricity [J] !RunPeriod [Value,Min,Month,Day,Hour,Minute,Max,Month,Day,Hour,Minute]
1096,11,Cooling:Electricity [J] !RunPeriod [Value,Min,Month,Day,Hour,Minute,Max,Month,Day,Hour,Minute]
562,11,Fans:Electricity [J] !RunPeriod [Value,Min,Month,Day,Hour,Minute,Max,Month,Day,Hour,Minute]
1379,11,Pumps:Electricity [J] !RunPeriod [Value,Min,Month,Day,Hour,Minute,Max,Month,Day,Hour,Minute]
1326,11,WaterSystems:Electricity [J] !RunPeriod [Value,Min,Month,Day,Hour,Minute,Max,Month,Day,Hour,Minute]
61,11,InteriorLights:Electricity [J] !RunPeriod [Value,Min,Month,Day,Hour,Minute,Max,Month,Day,Hour,Minute]
1046,11,ExteriorLights:Electricity [J] !RunPeriod [Value,Min,Month,Day,Hour,Minute,Max,Month,Day,Hour,Minute]
134,11,InteriorEquipment:Electricity [J] !RunPeriod [Value,Min,Month,Day,Hour,Minute,Max,Month,Day,Hour,Minute]
170,11,gas_dryer:InteriorEquipment:Electricity [J] !RunPeriod [Value,Min,Month,Day,Hour,Minute,Max,Month,Day,Hour,Minute]
207,11,clotheswasher:InteriorEquipment:Electricity [J] !RunPeriod [Value,Min,Month,Day,Hour,Minute,Max,Month,Day,Hour,Minute]
244,11,dishwasher:InteriorEquipment:Electricity [J] !RunPeriod [Value,Min,Month,Day,Hour,Minute,Max,Month,Day,Hour,Minute]
281,11,refrigerator:InteriorEquipment:Electricity [J] !RunPeriod [Value,Min,Month,Day,Hour,Minute,Max,Month,Day,Hour,Minute]
318,11,electric_mels:InteriorEquipment:Electricity [J] !RunPeriod [Value,Min,Month,Day,Hour,Minute,Max,Month,Day,Hour,Minute]
355,11,NaturalGas:Facility [J] !RunPeriod [Value,Min,Month,Day,Hour,Minute,Max,Month,Day,Hour,Minute]
403,11,InteriorEquipment:NaturalGas [J] !RunPeriod [Value,Min,Month,Day,Hour,Minute,Max,Month,Day,Hour,Minute]
476,11,gas_dryer:InteriorEquipment:NaturalGas [J] !RunPeriod [Value,Min,Month,Day,Hour,Minute,Max,Month,Day,Hour,Minute]
513,11,gas_mels:InteriorEquipment:NaturalGas [J] !RunPeriod [Value,Min,Month,Day,Hour,Minute,Max,Month,Day,Hour,Minute]
End of Data Dictionary
1,EXTREME_WINTER,  33.94, -81.12,  -5.00,  69.00
5,7
1038,0.0,0.0, 1,20, 1,15,0.0, 1,20, 1,15
1039,0.0,0.0, 1,20, 1,15,0.0, 1,20, 1,15
581,0.25798824872778947,0.10550368369738729, 1,26,10,16,0.49290279792430697, 1,23,15,60
582,2.7747088401625684,0.0, 1,20, 4,30,12.410497608777634, 1,22, 9,60
583,0.019225877179274525,0.00004679974393599434, 1,26,10,40,0.07569658386374578, 1,23, 6, 5
1115,614964532.6297147,0.0, 1,20, 1,15,4186751.343609423, 1,24, 6,45
1128,196698432.6068962,0.0, 1,20, 1,15,1338288.4205299194, 1,24, 6,45
1153,9186475.566153862,0.0, 1,20, 1,15,58243.27614131935, 1,25, 6,60
1154,70425406.78699748,0.0, 1,20, 6, 5,180000.0, 1,20, 1,15
1155,4240134.963870532,0.0, 1,20, 1,15,874287.6165543234, 1,20, 6, 5
1156,4240134.963870532,0.0, 1,20, 1,15,874287.6165543234, 1,20, 6, 5
1292,-24184369.775339074,-39726.83670533024, 1,23, 4,45,-3172.2911905303085, 1,26,10,60
1306,318169086.73668087,0.0, 1,20, 1,15,4050000.0, 1,20, 9,60
1307,129458749.94456205,0.0, 1,20, 1,15,12362302.613799652, 1,23, 9,45
1308,318169086.73668087,0.0, 1,20, 1,15,4050000.0, 1,20, 9,60
13,1011673722.1967474,272017.0388981225, 1,21,15,15,5823639.371884792, 1,23,21,30
61,301924526.02383536,88139.10953165221, 1,20, 1,15,1282023.4113694867, 1,20,20,15
134,70666020.44019976,63564.01800854099, 1,20, 4,15,156554.22484006523, 1,25,20,15
170,5241013.419656067,348.4159749238097, 1,20, 4,15,17476.39704006126, 1,25,12,15
207,6509451.13922267,815.2532113832032, 1,20, 3,15,22990.642799023623, 1,25,10,15
244,12749673.399825225,1521.856143006317, 1,20, 4,15,53038.631142310165, 1,25,20,15
281,46165882.481495745,59938.60262432081, 1,20, 5,15,81951.81706819107, 1,20,19,15
318,0.0,0.0, 1,20, 1,15,0.0, 1,20, 1,15
355,197687796.27748066,18561.32405820678, 1,20, 4,15,724774.895203776, 1,25,18,15
403,197687796.27748066,18561.32405820678, 1,20, 4,15,724774.895203776, 1,25,18,15
476,106772067.24485716,7098.072629279515, 1,20, 4,15,356036.3026282215, 1,25,12,15
513,0.0,0.0, 1,20, 1,15,0.0, 1,20, 1,15
562,22778213.207379874,0.0, 1,20, 1,15,139114.67393473885, 1,24, 6,45
1046,0.0,0.0, 1,20, 1,15,0.0, 1,20, 1,15
1096,17585425.86473492,0.0, 1,20, 1,15,371433.7623048669, 1,26,18,15
1134,280550449.923918,0.0, 1,21,14,60,2205194.380039952, 1,23, 6,15
1326,318169086.73668087,0.0, 1,20, 1,15,4050000.0, 1,20, 9,60
1379,0.0,0.0, 1,20, 1,15,0.0, 1,20, 1,15
1,EXTREME_SUMMER,  33.94, -81.12,  -5.00,  69.00
5,7
1038,0.0,0.0, 6,22, 1,15,0.0, 6,22, 1,15
1039,53.5,0.0, 6,22, 1,15,0.25, 6,22,15,60
581,0.07848816308814802,0.0, 6,22,23, 3,0.2913076393186039, 6,22,17,52
582,2.4122494254086737,0.025605920139586884, 6,25,20,47,10.067091999571723, 6,27,10,55
583,0.04601935142633255,0.0, 6,25, 6, 7,0.07149355261362209, 6,24, 6, 3
1115,0.0,0.0, 6,22, 1,15,0.0, 6,22, 1,15
1128,0.0,0.0, 6,22, 1,15,0.0, 6,22, 1,15
1153,0.0,0.0, 6,22, 1,15,0.0, 6,22, 1,15
1154,0.0,0.0, 6,22, 1,15,0.0, 6,22, 1,15
1155,0.0,0.0, 6,22, 1,15,0.0, 6,22, 1,15
1156,0.0,0.0, 6,22, 1,15,0.0, 6,22, 1,15
1292,-21760264.825436056,-34207.99251196845, 6,28, 6,45,-2782.0342321536355, 6,25, 9,46
1306,228539765.63604337,0.0, 6,22, 1,15,2852119.7870300934, 6,24,16,45
1307,61716154.49367995,0.0, 6,22, 1,15,2512579.826511995, 6,28, 9,40
1308,228539765.63604337,0.0, 6,22, 1,15,2852119.7870300934, 6,24,16,45
13,1291157053.8126564,281497.6428441299, 6,24, 4,45,7063599.396698574, 6,28,21,15
61,301924526.02383536,88139.10953165221, 6,22, 1,15,1282023.4113694867, 6,22,20,15
134,70666020.44019976,63564.01800854099, 6,22, 4,15,156554.22484006523, 6,27,20,15
170,5241013.419656067,348.4159749238097, 6,22, 4,15,17476.39704006126, 6,27,12,15
207,6509451.13922267,815.2532113832032, 6,22, 3,15,22990.642799023623, 6,27,10,15
244,12749673.399825225,1521.856143006317, 6,22, 4,15,53038.631142310165, 6,27,20,15
281,46165882.481495745,59938.60262432081, 6,22, 5,15,81951.81706819107, 6,22,19,15
318,0.0,0.0, 6,22, 1,15,0.0, 6,22, 1,15
355,197687796.27748066,18561.32405820678, 6,22, 4,15,724774.895203776, 6,27,18,15
403,197687796.27748066,18561.32405820678, 6,22, 4,15,724774.895203776, 6,27,18,15
476,106772067.24485716,7098.072629279515, 6,22, 4,15,356036.3026282215, 6,27,12,15
513,0.0,0.0, 6,22, 1,15,0.0, 6,22, 1,15
562,61803641.1918908,12508.954258950966, 6,24, 4,60,139114.67393473885, 6,22,15,15
1046,0.0,0.0, 6,22, 1,15,0.0, 6,22, 1,15
1096,628223100.5206866,105389.14209437768, 6,24, 4,60,1621166.6133123394, 6,27,17,60
1134,0.0,0.0, 6,22, 1,15,0.0, 6,22, 1,15
1326,228539765.63604337,0.0, 6,22, 1,15,4050000.0, 6,22, 9,60
1379,0.0,0.0, 6,22, 1,15,0.0, 6,22, 1,15
1,ANNUAL,  33.94, -81.12,  -5.00,  69.00
5,365
1038,0.5,0.0, 1, 1, 1,15,0.25, 1,29, 6,15
1039,968.75,0.0, 1, 1, 1,15,0.25, 1,18,15,45
581,0.16069726820651853,0.0, 4,28,23, 3,0.8388210652610273, 3, 9,16,60
582,2.746910163791032,0.0, 1, 1,21,60,28.162394675373385,11,16,24,52
583,0.02842369673917501,0.0, 5, 5,23, 3,0.08496031199447747, 5,29,15,47
1115,3905738693.750279,0.0, 1, 1, 1,15,4305756.84998809, 1, 6, 6,60
1128,1223195604.169292,0.0, 1, 1, 1,15,1382426.4811201761, 1, 6, 6,60
1153,58236608.2757765,0.0, 1, 1, 1,15,97055.48658035486, 2,13, 6,60
1154,1139855132.1343837,0.0, 1, 1, 1,15,180000.0, 1, 2, 5,60
1155,39422995.79830027,0.0, 1, 1, 1,15,1090571.8649996722, 1,19, 6,60
1156,39422995.79830027,0.0, 1, 1, 1,15,1090571.8649996722, 1,19, 6,60
1292,-1172025758.8520482,-39771.794539696166, 1, 5, 4,60,-1685.8514255776272, 4, 2, 9,46
1306,14026605209.877562,0.0, 1, 1, 1,15,4050000.0, 1, 1, 9,60
1307,4771113040.315085,0.0, 1, 1, 1,15,14147715.558495542, 2, 3, 9,60
1308,14026605209.877562,0.0, 1, 1, 1,15,4050000.0, 1, 1, 9,60
13,53954277222.4746,151703.1275401932, 1,10, 4,15,7105374.49516496, 7,27,21,15
61,15743207428.383959,88139.10953165221, 1, 1, 1,15,1282023.4113694867, 1, 1,20,15
134,3685071073.4325233,63564.01800854099, 1, 2, 4,15,156554.22484006523, 1, 1,20,15
170,273393721.45532674,348.4159749238097, 1, 2, 4,15,17476.39704006126, 1, 1,12,15
207,339560869.0695816,815.2532113832032, 1, 2, 3,15,22990.642799023623, 1, 1,10,15
244,664895467.8009144,1521.856143006317, 1, 2, 4,15,53038.631142310165, 1, 1,20,15
281,2407221015.106824,59938.60262432081, 1, 1, 5,15,81951.81706819107, 1, 1,19,15
318,0.0,0.0, 1, 1, 1,15,0.0, 1, 1, 1,15
355,10310294493.051695,18561.32405820678, 1, 2, 4,15,724774.895203776, 1, 1,18,15
403,10310294493.051695,18561.32405820678, 1, 2, 4,15,724774.895203776, 1, 1,18,15
476,5569688622.066177,7098.072629279515, 1, 2, 4,15,356036.3026282215, 1, 1,12,15
513,0.0,0.0, 1, 1, 1,15,0.0, 1, 1, 1,15
562,1862995492.8917053,0.0, 1, 1, 1,15,139114.67393473888, 5,16,17,15
1046,0.0,0.0, 1, 1, 1,15,0.0, 1, 1, 1,15
1096,16175687677.509058,0.0, 1, 1, 1,15,1623967.2590702209, 6,27,17,60
1134,2460710340.377755,0.0, 1, 1, 1,15,2726961.2897330113, 1,19, 6,15
1326,14026605209.877531,0.0, 1, 1, 1,15,4050000.0000000014, 1,31,10,60
1379,0.0,0.0, 1, 1, 1,15,0.0, 1, 1, 1,15
End of Data
 Number of Records Written=          99
