Program Version,EnergyPlus, Version 22.2.0-c249759bad, YMD=2023.07.07 15:20
1,5,Environment Title[],Latitude[deg],Longitude[deg],Time Zone[],Elevation[m]
2,8,Day of Simulation[],Month[],Day of Month[],DST Indicator[1=yes 0=no],Hour[],StartMinute[],EndMinute[],DayType
3,5,Cumulative Day of Simulation[],Month[],Day of Month[],DST Indicator[1=yes 0=no],DayType  ! When Daily Report Variables Requested
4,2,Cumulative Days of Simulation[],Month[]  ! When Monthly Report Variables Requested
5,1,Cumulative Days of Simulation[] ! When Run Period Report Variables Requested
6,1,Calendar Year of Simulation[] ! When Annual Report Variables Requested
581,11,LIVING,AFN Zone Infiltration Air Change Rate [ach] !RunPeriod [Value,Min,Month,Day,Hour,Minute,Max,Month,Day,Hour,Minute]
582,11,ATTIC,AFN Zone Infiltration Air Change Rate [ach] !RunPeriod [Value,Min,Month,Day,Hour,Minute,Max,Month,Day,Hour,Minute]
583,11,CRAWLSPACE,AFN Zone Infiltration Air Change Rate [ach] !RunPeriod [Value,Min,Month,Day,Hour,Minute,Max,Month,Day,Hour,Minute]
1038,11,Facility,Facility Heating Setpoint Not Met Time [hr] !RunPeriod [Value,Min,Month,Day,Hour,Minute,Max,Month,Day,Hour,Minute]
1039,11,Facility,Facility Cooling Setpoint Not Met Time [hr] !RunPeriod [Value,Min,Month,Day,Hour,Minute,Max,Month,Day,Hour,Minute]
1115,11,DX_HEATING_COIL,Heating Coil Heating Energy [J] !RunPeriod [Value,Min,Month,Day,Hour,Minute,Max,Month,Day,Hour,Minute]
1128,11,DX_HEATING_COIL,Heating Coil Electricity Energy [J] !RunPeriod [Value,Min,Month,Day,Hour,Minute,Max,Month,Day,Hour,Minute]
1153,11,DX_HEATING_COIL,Heating Coil Defrost Electricity Energy [J] !RunPeriod [Value,Min,Month,Day,Hour,Minute,Max,Month,Day,Hour,Minute]
1154,11,DX_HEATING_COIL,Heating Coil Crankcase Heater Electricity Energy [J] !RunPeriod [Value,Min,Month,Day,Hour,Minute,Max,Month,Day,Hour,Minute]
1156,11,HEATING_RESISTANCE_BACKUP,Heating Coil Electricity Energy [J] !RunPeriod [Value,Min,Month,Day,Hour,Minute,Max,Month,Day,Hour,Minute]
13,11,Electricity:Facility [J] !RunPeriod [Value,Min,Month,Day,Hour,Minute,Max,Month,Day,Hour,Minute]
1134,11,Heating:Electricity [J] !RunPeriod [Value,Min,Month,Day,Hour,Minute,Max,Month,Day,Hour,Minute]
1096,11,Cooling:Electricity [J] !RunPeriod [Value,Min,Month,Day,Hour,Minute,Max,Month,Day,Hour,Minute]
562,11,Fans:Electricity [J] !RunPeriod [Value,Min,Month,Day,Hour,Minute,Max,Month,Day,Hour,Minute]
1388,11,Pumps:Electricity [J] !RunPeriod [Value,Min,Month,Day,Hour,Minute,Max,Month,Day,Hour,Minute]
1360,11,WaterSystems:Electricity [J] !RunPeriod [Value,Min,Month,Day,Hour,Minute,Max,Month,Day,Hour,Minute]
61,11,InteriorLights:Electricity [J] !RunPeriod [Value,Min,Month,Day,Hour,Minute,Max,Month,Day,Hour,Minute]
1046,11,ExteriorLights:Electricity [J] !RunPeriod [Value,Min,Month,Day,Hour,Minute,Max,Month,Day,Hour,Minute]
134,11,InteriorEquipment:Electricity [J] !RunPeriod [Value,Min,Month,Day,Hour,Minute,Max,Month,Day,Hour,Minute]
170,11,gas_dryer:InteriorEquipment:Electricity [J] !RunPeriod [Value,Min,Month,Day,Hour,Minute,Max,Month,Day,Hour,Minute]
207,11,clotheswasher:InteriorEquipment:Electricity [J] !RunPeriod [Value,Min,Month,Day,Hour,Minute,Max,Month,Day,Hour,Minute]
244,11,dishwasher:InteriorEquipment:Electricity [J] !RunPeriod [Value,Min,Month,Day,Hour,Minute,Max,Month,Day,Hour,Minute]
281,11,refrigerator:InteriorEquipment:Electricity [J] !RunPeriod [Value,Min,Month,Day,Hour,Minute,Max,Month,Day,Hour,Minute]
318,11,electric_mels:InteriorEquipment:Electricity [J] !RunPeriod [Value,Min,Month,Day,Hour,Minute,Max,Month,Day,Hour,Minute]
355,11,NaturalGas:Facility [J] !RunPeriod [Value,Min,Month,Day,Hour,Minute,Max,Month,Day,Hour,Minute]
1323,11,WaterSystems:NaturalGas [J] !RunPeriod [Value,Min,Month,Day,Hour,Minute,Max,Month,Day,Hour,Minute]
403,11,InteriorEquipment:NaturalGas [J] !RunPeriod [Value,Min,Month,Day,Hour,Minute,Max,Month,Day,Hour,Minute]
476,11,gas_dryer:InteriorEquipment:NaturalGas [J] !RunPeriod [Value,Min,Month,Day,Hour,Minute,Max,Month,Day,Hour,Minute]
513,11,gas_mels:InteriorEquipment:NaturalGas [J] !RunPeriod [Value,Min,Month,Day,Hour,Minute,Max,Month,Day,Hour,Minute]
End of Data Dictionary
1,EXTREME_WINTER,  35.53, -97.65,  -6.00, 396.00
5,7
1038,2.666666666666666,0.0, 1,29, 1,10,0.16666666666666666, 1,30, 6,10
1039,0.0,0.0, 1,29, 1,10,0.0, 1,29, 1,10
581,0.44460441655617555,0.16505408759379944, 1,30, 6, 3,1.3241765608053633, 2, 1,13,60
582,6.253572343601573,0.0, 2, 4, 1,50,22.615742095415253, 2, 1,13,60
583,8.26640801562634,0.00035972144436486773, 2, 3,23,15,31.910340287263868, 2, 1,13,60
1115,1507133896.9355876,0.0, 1,29, 1, 1,2835130.507990208, 2, 4, 8,60
1128,524530552.0279704,0.0, 1,29, 1, 1,947157.3731848461, 2, 4, 8,60
1153,6781548.672595181,0.0, 1,29, 1, 1,48462.40361069081, 1,31,10,60
1154,45855937.10245644,0.0, 1,29, 1,32,120000.0, 1,29, 6,20
1156,1090262155.5088158,0.0, 1,29, 1, 1,5270959.009917697, 2, 1, 7,40
13,2105433887.860163,106115.4183601288, 1,29, 4,10,6718763.77305098, 2, 1, 7,40
61,301924526.0238348,58759.40635443481, 1,29, 1,10,854682.2742463244, 1,29,20,10
134,70666020.44019979,42376.01200569399, 1,29, 4,10,104369.48322671017, 2, 3,20,10
170,5241013.419656074,232.27731661587313, 1,29, 4,10,11650.931360040839, 2, 3,12,10
207,6509451.13922266,543.5021409221355, 1,29, 3,10,15327.095199349082, 2, 3,10,10
244,12749673.39982522,1014.5707620042115, 1,29, 4,10,35359.08742820678, 2, 3,20,10
281,46165882.48149605,39959.06841621388, 1,29, 5,10,54634.54471212738, 1,29,19,10
318,0.0,0.0, 1,29, 1,10,0.0, 1,29, 1,10
355,743913147.411208,12374.216038804521, 1,29, 4,10,3829218.154066982, 1,30,18,60
403,197687796.27748126,12374.216038804521, 1,29, 4,10,483183.26346918393, 2, 3,18,10
476,106772067.24485692,4732.048419519677, 1,29, 4,10,237357.535085481, 2, 3,12,10
513,0.0,0.0, 1,29, 1,10,0.0, 1,29, 1,10
562,60393308.084290504,0.0, 1,29, 1,10,104234.38093138872, 2, 1, 1,10
1046,0.0,0.0, 1,29, 1,10,0.0, 1,29, 1,10
1096,0.0,0.0, 1,29, 1,10,0.0, 1,29, 1,10
1134,1667430193.3118353,0.0, 1,29, 1,40,6145498.0325580565, 2, 1, 7,40
1323,546225351.133724,0.0, 1,29, 1,10,3375000.0000000023, 1,30,20,20
1360,5019840.0,4979.999999999999, 2, 1, 9,40,4980.000000000001, 1,29, 1,10
1388,0.0,0.0, 1,29, 1,10,0.0, 1,29, 1,10
1,EXTREME_SUMMER,  35.53, -97.65,  -6.00, 396.00
5,7
1038,0.0,0.0, 7,22, 1,10,0.0, 7,22, 1,10
1039,70.33333333333331,0.0, 7,22, 1,10,0.16666666666666666, 7,22,13,60
581,0.23046449585177134,0.05287295934972687, 7,23,14,59,0.5062161624010192, 7,26, 8,55
582,5.424836071759735,2.397667613884726, 7,27,19,60,10.972553997168616, 7,26, 8,55
583,7.2426590217450535,2.8071700245567555, 7,23,14,59,15.556864243247594, 7,26, 8,55
1115,0.0,0.0, 7,22, 1,10,0.0, 7,22, 1,10
1128,0.0,0.0, 7,22, 1,10,0.0, 7,22, 1,10
1153,0.0,0.0, 7,22, 1,10,0.0, 7,22, 1,10
1154,0.0,0.0, 7,22, 1,10,0.0, 7,22, 1,10
1156,0.0,0.0, 7,22, 1,10,0.0, 7,22, 1,10
13,1250689177.3578742,296543.017470636, 7,25, 4,60,2147819.5692588203, 7,28,20,10
61,301924526.0238348,58759.40635443481, 7,22, 1,10,854682.2742463244, 7,22,20,10
134,70666020.44019979,42376.01200569399, 7,22, 4,10,104369.48322671017, 7,27,20,10
170,5241013.419656074,232.27731661587313, 7,22, 4,10,11650.931360040839, 7,27,12,10
207,6509451.13922266,543.5021409221355, 7,22, 3,10,15327.095199349082, 7,27,10,10
244,12749673.39982522,1014.5707620042115, 7,22, 4,10,35359.08742820678, 7,27,20,10
281,46165882.48149605,39959.06841621388, 7,22, 5,10,54634.54471212738, 7,22,19,10
318,0.0,0.0, 7,22, 1,10,0.0, 7,22, 1,10
355,634973050.840531,12374.216038804521, 7,22, 4,10,3829218.154066982, 7,26,18,20
403,197687796.27748126,12374.216038804521, 7,22, 4,10,483183.26346918393, 7,27,18,10
476,106772067.24485692,4732.048419519677, 7,22, 4,10,237357.535085481, 7,27,12,10
513,0.0,0.0, 7,22, 1,10,0.0, 7,22, 1,10
562,77608446.85630357,18627.88466990846, 7,22, 5,60,104234.38093138872, 7,22,12,40
1046,0.0,0.0, 7,22, 1,10,0.0, 7,22, 1,10
1096,795470344.0375363,162195.65622210762, 7,22, 5,60,1190658.9097819508, 7,28,12,60
1134,0.0,0.0, 7,22, 1,10,0.0, 7,22, 1,10
1323,437285254.56304795,0.0, 7,22, 1,10,3375000.0000000005, 7,22,17,10
1360,5019840.0,4980.0, 7,22, 1,10,4980.000000000001, 7,22, 8,40
1388,0.0,0.0, 7,22, 1,10,0.0, 7,22, 1,10
1,ANNUAL,  35.53, -97.65,  -6.00, 396.00
5,365
1038,8.333333333333337,0.0, 1, 1, 1,10,0.16666666666666666, 1, 3, 6,10
1039,768.1666666666666,0.0, 1, 1, 1,10,0.16666666666666666, 4,16,13,10
581,0.31503610938617493,0.0, 5,21, 6,45,1.3240435845239813, 2, 1,13,60
582,5.849205413984298,0.0, 1, 1,23,30,29.31210785173984,11,11,15,55
583,7.3122485765526495,0.0, 5,26,23, 3,31.84543783460763, 2, 1,13,60
1115,15112719244.997505,0.0, 1, 1,23, 3,3437583.462337308,11,21, 6,60
1128,4718800839.4841585,0.0, 1, 1,23, 3,1002053.9097817099, 1,10,11,10
1153,165085827.44460815,0.0, 1, 1,23, 3,87836.73099442873, 1,12, 6,30
1154,1226535601.8897123,0.0, 1, 1, 6, 3,120000.0, 1, 4,16,30
1156,2630044662.7344112,0.0, 1, 1, 1, 5,5270959.009917697, 2, 1, 6,30
13,45012288354.90702,106115.4183601288, 1,25, 4,10,6717563.271142122, 2, 1, 7,30
61,15743207428.39043,58759.40635443481, 1, 1, 1,10,854682.2742463244, 1, 1,20,10
134,3685071073.433083,42376.01200569399, 1, 2, 4,10,104369.48322671017, 1, 1,20,10
170,273393721.45534325,232.27731661587313, 1, 2, 4,10,11650.931360040839, 1, 1,12,10
207,339560869.06955314,543.5021409221355, 1, 2, 3,10,15327.095199349082, 1, 1,10,10
244,664895467.8009839,1014.5707620042115, 1, 2, 4,10,35359.08742820678, 1, 1,20,10
281,2407221015.1057043,39959.06841621388, 1, 1, 5,10,54634.54471212738, 1, 1,19,10
318,0.0,0.0, 1, 1, 1,10,0.0, 1, 1, 1,10
355,35684252424.081924,12374.216038804521, 1, 2, 4,10,3829218.154066983,11,24,18,30
403,10310294493.052883,12374.216038804521, 1, 2, 4,10,483183.26346918393, 1, 1,18,10
476,5569688622.065564,4732.048419519677, 1, 2, 4,10,237357.535085481, 1, 1,12,10
513,0.0,0.0, 1, 1, 1,10,0.0, 1, 1, 1,10
562,2098474027.2486892,0.0, 1, 1,23,10,104234.38093138872, 1, 3,24,60
1046,0.0,0.0, 1, 1, 1,10,0.0, 1, 1, 1,10
1096,14483320094.287785,0.0, 1, 1, 1,10,1247907.9250964778, 7,29,13,60
1134,8740466931.552921,0.0, 1,15,11,50,6145043.974852183, 2, 1, 6,30
1323,25373957931.033077,0.0, 1, 1, 1,10,3375000.000000002, 5, 9, 9,60
1360,261748800.0,4979.999999999998, 3,10,11,30,4980.000000000002, 1, 5,11,10
1388,0.0,0.0, 1, 1, 1,10,0.0, 1, 1, 1,10
End of Data
 Number of Records Written=          87
