Program Version,EnergyPlus, Version 22.2.0-c249759bad, YMD=2023.09.01 20:49
1,5,Environment Title[],Latitude[deg],Longitude[deg],Time Zone[],Elevation[m]
2,8,Day of Simulation[],Month[],Day of Month[],DST Indicator[1=yes 0=no],Hour[],StartMinute[],EndMinute[],DayType
3,5,Cumulative Day of Simulation[],Month[],Day of Month[],DST Indicator[1=yes 0=no],DayType  ! When Daily Report Variables Requested
4,2,Cumulative Days of Simulation[],Month[]  ! When Monthly Report Variables Requested
5,1,Cumulative Days of Simulation[] ! When Run Period Report Variables Requested
6,1,Calendar Year of Simulation[] ! When Annual Report Variables Requested
581,11,LIVING,AFN Zone Infiltration Air Change Rate [ach] !RunPeriod [Value,Min,Month,Day,Hour,Minute,Max,Month,Day,Hour,Minute]
582,11,ATTIC,AFN Zone Infiltration Air Change Rate [ach] !RunPeriod [Value,Min,Month,Day,Hour,Minute,Max,Month,Day,Hour,Minute]
583,11,CRAWLSPACE,AFN Zone Infiltration Air Change Rate [ach] !RunPeriod [Value,Min,Month,Day,Hour,Minute,Max,Month,Day,Hour,Minute]
1038,11,Facility,Facility Heating Setpoint Not Met Time [hr] !RunPeriod [Value,Min,Month,Day,Hour,Minute,Max,Month,Day,Hour,Minute]
1039,11,Facility,Facility Cooling Setpoint Not Met Time [hr] !RunPeriod [Value,Min,Month,Day,Hour,Minute,Max,Month,Day,Hour,Minute]
1115,11,DX_HEATING_COIL,Heating Coil Heating Energy [J] !RunPeriod [Value,Min,Month,Day,Hour,Minute,Max,Month,Day,Hour,Minute]
1128,11,DX_HEATING_COIL,Heating Coil Electricity Energy [J] !RunPeriod [Value,Min,Month,Day,Hour,Minute,Max,Month,Day,Hour,Minute]
1153,11,DX_HEATING_COIL,Heating Coil Defrost Electricity Energy [J] !RunPeriod [Value,Min,Month,Day,Hour,Minute,Max,Month,Day,Hour,Minute]
1154,11,DX_HEATING_COIL,Heating Coil Crankcase Heater Electricity Energy [J] !RunPeriod [Value,Min,Month,Day,Hour,Minute,Max,Month,Day,Hour,Minute]
1155,11,HEATING_RESISTANCE_BACKUP,Heating Coil Heating Energy [J] !RunPeriod [Value,Min,Month,Day,Hour,Minute,Max,Month,Day,Hour,Minute]
1156,11,HEATING_RESISTANCE_BACKUP,Heating Coil Electricity Energy [J] !RunPeriod [Value,Min,Month,Day,Hour,Minute,Max,Month,Day,Hour,Minute]
1292,11,WATER HEATER,Water Heater Heat Loss Energy [J] !RunPeriod [Value,Min,Month,Day,Hour,Minute,Max,Month,Day,Hour,Minute]
1306,11,WATER HEATER,Water Heater Heating Energy [J] !RunPeriod [Value,Min,Month,Day,Hour,Minute,Max,Month,Day,Hour,Minute]
1307,11,WATER HEATER,Water Heater Unmet Demand Heat Transfer Energy [J] !RunPeriod [Value,Min,Month,Day,Hour,Minute,Max,Month,Day,Hour,Minute]
1308,11,WATER HEATER,Water Heater Electricity Energy [J] !RunPeriod [Value,Min,Month,Day,Hour,Minute,Max,Month,Day,Hour,Minute]
13,11,Electricity:Facility [J] !RunPeriod [Value,Min,Month,Day,Hour,Minute,Max,Month,Day,Hour,Minute]
1134,11,Heating:Electricity [J] !RunPeriod [Value,Min,Month,Day,Hour,Minute,Max,Month,Day,Hour,Minute]
1096,11,Cooling:Electricity [J] !RunPeriod [Value,Min,Month,Day,Hour,Minute,Max,Month,Day,Hour,Minute]
562,11,Fans:Electricity [J] !RunPeriod [Value,Min,Month,Day,Hour,Minute,Max,Month,Day,Hour,Minute]
1379,11,Pumps:Electricity [J] !RunPeriod [Value,Min,Month,Day,Hour,Minute,Max,Month,Day,Hour,Minute]
1326,11,WaterSystems:Electricity [J] !RunPeriod [Value,Min,Month,Day,Hour,Minute,Max,Month,Day,Hour,Minute]
61,11,InteriorLights:Electricity [J] !RunPeriod [Value,Min,Month,Day,Hour,Minute,Max,Month,Day,Hour,Minute]
1046,11,ExteriorLights:Electricity [J] !RunPeriod [Value,Min,Month,Day,Hour,Minute,Max,Month,Day,Hour,Minute]
134,11,InteriorEquipment:Electricity [J] !RunPeriod [Value,Min,Month,Day,Hour,Minute,Max,Month,Day,Hour,Minute]
170,11,gas_dryer:InteriorEquipment:Electricity [J] !RunPeriod [Value,Min,Month,Day,Hour,Minute,Max,Month,Day,Hour,Minute]
207,11,clotheswasher:InteriorEquipment:Electricity [J] !RunPeriod [Value,Min,Month,Day,Hour,Minute,Max,Month,Day,Hour,Minute]
244,11,dishwasher:InteriorEquipment:Electricity [J] !RunPeriod [Value,Min,Month,Day,Hour,Minute,Max,Month,Day,Hour,Minute]
281,11,refrigerator:InteriorEquipment:Electricity [J] !RunPeriod [Value,Min,Month,Day,Hour,Minute,Max,Month,Day,Hour,Minute]
318,11,electric_mels:InteriorEquipment:Electricity [J] !RunPeriod [Value,Min,Month,Day,Hour,Minute,Max,Month,Day,Hour,Minute]
355,11,NaturalGas:Facility [J] !RunPeriod [Value,Min,Month,Day,Hour,Minute,Max,Month,Day,Hour,Minute]
403,11,InteriorEquipment:NaturalGas [J] !RunPeriod [Value,Min,Month,Day,Hour,Minute,Max,Month,Day,Hour,Minute]
476,11,gas_dryer:InteriorEquipment:NaturalGas [J] !RunPeriod [Value,Min,Month,Day,Hour,Minute,Max,Month,Day,Hour,Minute]
513,11,gas_mels:InteriorEquipment:NaturalGas [J] !RunPeriod [Value,Min,Month,Day,Hour,Minute,Max,Month,Day,Hour,Minute]
End of Data Dictionary
1,EXTREME_WINTER,  26.59, -81.86,  -5.00,   4.60
5,7
1038,0.0,0.0, 1,20, 1,15,0.0, 1,20, 1,15
1039,1.5,0.0, 1,20, 1,15,0.25, 1,24,13,45
581,0.21599626629311527,0.032386668422309, 1,26, 9,46,0.47136653528277433, 1,23,12,60
582,3.4780461442327066,0.0, 1,20, 3,50,9.423262143505841, 1,23, 3,45
583,0.01589535405510815,0.00012849776387963718, 1,26, 9,46,0.07143019845771396, 1,24, 6, 5
1115,42831813.986899205,0.0, 1,20, 1, 7,2390725.9115176406, 1,24, 6,60
1128,13027053.046559522,0.0, 1,20, 1, 7,732640.5106177002, 1,24, 6,60
1153,99660.51570356816,0.0, 1,20, 1, 7,10131.578909491765, 1,24, 8,30
1154,28222464.676381085,0.0, 1,20, 1, 7,180000.0, 1,20, 5,60
1155,0.0,0.0, 1,20, 1, 7,0.0, 1,20, 1, 7
1156,0.0,0.0, 1,20, 1, 7,0.0, 1,20, 1, 7
1292,-22826575.662620097,-38469.01272632538, 1,24, 7,30,-2756.706261522535, 1,26,10,45
1306,256009046.24472934,0.0, 1,20, 1, 7,4050000.0, 1,20, 8,30
1307,81709089.81344911,0.0, 1,20, 1, 7,4616645.676678374, 1,23, 9,45
1308,256009046.24472934,0.0, 1,20, 1, 7,4050000.0, 1,20, 8,30
13,829397905.624226,151703.1275401932, 1,21, 4,15,5963112.782029149, 1,21,20,15
61,301924526.02383536,88139.10953165221, 1,20, 1,15,1282023.4113694867, 1,20,20,15
134,70666020.44019976,63564.01800854099, 1,20, 4,15,156554.22484006523, 1,25,20,15
170,5241013.419656067,348.4159749238097, 1,20, 4,15,17476.39704006126, 1,25,12,15
207,6509451.13922267,815.2532113832032, 1,20, 3,15,22990.642799023623, 1,25,10,15
244,12749673.399825225,1521.856143006317, 1,20, 4,15,53038.631142310165, 1,25,20,15
281,46165882.481495745,59938.60262432081, 1,20, 5,15,81951.81706819107, 1,20,19,15
318,0.0,0.0, 1,20, 1,15,0.0, 1,20, 1,15
355,197687796.27748066,18561.32405820678, 1,20, 4,15,724774.895203776, 1,25,18,15
403,197687796.27748066,18561.32405820678, 1,20, 4,15,724774.895203776, 1,25,18,15
476,106772067.24485716,7098.072629279515, 1,20, 4,15,356036.3026282215, 1,25,12,15
513,0.0,0.0, 1,20, 1,15,0.0, 1,20, 1,15
562,19299252.211395275,0.0, 1,20, 1,15,108396.1877856314, 1,21,17,15
1046,0.0,0.0, 1,20, 1,15,0.0, 1,20, 1,15
1096,140149882.46542332,0.0, 1,20, 1,15,882024.682455552, 1,21,17,15
1134,41349178.238644175,0.0, 1,20, 1,15,897804.0446757937, 1,24, 6,15
1326,256009046.24472934,0.0, 1,20, 1,15,4050000.0, 1,20, 8,30
1379,0.0,0.0, 1,20, 1,15,0.0, 1,20, 1,15
1,EXTREME_SUMMER,  26.59, -81.86,  -5.00,   4.60
5,7
1038,0.0,0.0, 6,29, 1,15,0.0, 6,29, 1,15
1039,62.75,0.0, 6,29, 1,15,0.25, 6,29,14,60
581,0.10815603685053049,0.0, 6,29, 1,60,0.5287858641021382, 7, 5,17,46
582,3.6439975897343877,0.2516117957549206, 7, 5,24,45,15.141590349971173, 7, 5,11,46
583,0.045325096607887715,0.0005649067614596711, 6,30,23, 3,0.07242583559665462, 7, 5,17,46
1115,0.0,0.0, 6,29, 1,15,0.0, 6,29, 1,15
1128,0.0,0.0, 6,29, 1,15,0.0, 6,29, 1,15
1153,0.0,0.0, 6,29, 1,15,0.0, 6,29, 1,15
1154,0.0,0.0, 6,29, 1,15,0.0, 6,29, 1,15
1155,0.0,0.0, 6,29, 1,15,0.0, 6,29, 1,15
1156,0.0,0.0, 6,29, 1,15,0.0, 6,29, 1,15
1292,-21702200.907795165,-34336.70264803467, 7, 5, 6,30,-2672.0666549187617, 7, 5,17,30
1306,202569402.73849642,0.0, 6,29, 1,15,3643787.044182359, 6,29,16,45
1307,44808842.3701314,0.0, 6,29, 1,15,2148285.5910702096, 7, 2,20,60
1308,202569402.73849642,0.0, 6,29, 1,15,3643787.044182359, 6,29,16,45
13,1232558677.9388726,300072.64659060875, 6,30, 4,60,6850938.143566345, 7, 4,21,45
61,301924526.02383536,88139.10953165221, 6,29, 1,15,1282023.4113694867, 6,29,20,15
134,70666020.44019976,63564.01800854099, 6,29, 4,15,156554.22484006523, 7, 4,20,15
170,5241013.419656067,348.4159749238097, 6,29, 4,15,17476.39704006126, 7, 4,12,15
207,6509451.13922267,815.2532113832032, 6,29, 3,15,22990.642799023623, 7, 4,10,15
244,12749673.399825225,1521.856143006317, 6,29, 4,15,53038.631142310165, 7, 4,20,15
281,46165882.481495745,59938.60262432081, 6,29, 5,15,81951.81706819107, 6,29,19,15
318,0.0,0.0, 6,29, 1,15,0.0, 6,29, 1,15
355,197687796.27748066,18561.32405820678, 6,29, 4,15,724774.895203776, 7, 4,18,15
403,197687796.27748066,18561.32405820678, 6,29, 4,15,724774.895203776, 7, 4,18,15
476,106772067.24485716,7098.072629279515, 6,29, 4,15,356036.3026282215, 7, 4,12,15
513,0.0,0.0, 6,29, 1,15,0.0, 6,29, 1,15
562,61438720.36278633,14609.079291889551, 6,30, 5,60,129800.58747152348, 6,29,20,45
1046,0.0,0.0, 6,29, 1,15,0.0, 6,29, 1,15
1096,595960008.373554,125439.87331282637, 6,30, 5,60,1381914.257392414, 7, 1,14,60
1134,0.0,0.0, 6,29, 1,15,0.0, 6,29, 1,15
1326,202569402.73849645,0.0, 6,29, 1,15,4050000.0, 6,29, 9,60
1379,0.0,0.0, 6,29, 1,15,0.0, 6,29, 1,15
1,ANNUAL,  26.59, -81.86,  -5.00,   4.60
5,365
1038,0.0,0.0, 1, 1, 1,15,0.0, 1, 1, 1,15
1039,2010.5,0.0, 1, 1, 1,15,0.25, 1, 6,16,15
581,0.14734739064673466,0.0, 1, 6,23, 3,0.7343726662511493, 2,16,16,50
582,3.512493387068084,0.0, 1, 7, 2,50,25.541723553372737,10, 7,14,52
583,0.03831705431971252,0.0, 1, 6,23, 3,0.08133417416591326, 7,20,19,47
1115,67955048.79128918,0.0, 1, 1, 1,15,2289263.4967518444, 1,24, 6,60
1128,20091504.515305188,0.0, 1, 1, 1,15,704189.0006370432, 1,24, 6,60
1153,117495.59931500466,0.0, 1, 1, 1,15,9745.647676378709, 1,24, 8,30
1154,108494110.3104029,0.0, 1, 1, 1,15,180000.0, 1,17, 1,15
1155,0.0,0.0, 1, 1, 1,15,0.0, 1, 1, 1,15
1156,0.0,0.0, 1, 1, 1,15,0.0, 1, 1, 1,15
1292,-1139579809.7482522,-39514.43758801311, 1,18, 4,60,-1816.699653035084, 3, 9, 9,46
1306,11934145630.046589,0.0, 1, 1, 1,15,4050000.0, 1, 5,21,15
1307,3258190495.2234974,0.0, 1, 1, 1,15,8626940.945663458, 1,15, 9,45
1308,11934145630.046589,0.0, 1, 1, 1,15,4050000.0, 1, 5,21,15
13,57356751386.92589,151703.1275401932, 1, 2, 4,15,6875625.783782139, 7,30,21,15
61,15743207428.383959,88139.10953165221, 1, 1, 1,15,1282023.4113694867, 1, 1,20,15
134,3685071073.4325233,63564.01800854099, 1, 2, 4,15,156554.22484006523, 1, 1,20,15
170,273393721.45532674,348.4159749238097, 1, 2, 4,15,17476.39704006126, 1, 1,12,15
207,339560869.0695816,815.2532113832032, 1, 2, 3,15,22990.642799023623, 1, 1,10,15
244,664895467.8009144,1521.856143006317, 1, 2, 4,15,53038.631142310165, 1, 1,20,15
281,2407221015.106824,59938.60262432081, 1, 1, 5,15,81951.81706819107, 1, 1,19,15
318,0.0,0.0, 1, 1, 1,15,0.0, 1, 1, 1,15
355,10310294493.051695,18561.32405820678, 1, 2, 4,15,724774.895203776, 1, 1,18,15
403,10310294493.051695,18561.32405820678, 1, 2, 4,15,724774.895203776, 1, 1,18,15
476,5569688622.066177,7098.072629279515, 1, 2, 4,15,356036.3026282215, 1, 1,12,15
513,0.0,0.0, 1, 1, 1,15,0.0, 1, 1, 1,15
562,2569059838.3735538,0.0, 1, 1, 3,60,129800.58747152351, 6,20,16,30
1046,0.0,0.0, 1, 1, 1,15,0.0, 1, 1, 1,15
1096,23296564306.262768,0.0, 1, 1, 3,60,1433737.7745794428, 6,18,10,60
1134,128703110.4250231,0.0, 1, 1, 1,15,863251.9528562373, 1,24, 6,15
1326,11934145630.04653,0.0, 1, 1, 1,15,4050000.0000000014, 3,10,10,30
1379,0.0,0.0, 1, 1, 1,15,0.0, 1, 1, 1,15
End of Data
 Number of Records Written=          99
