Program Version,EnergyPlus, Version 22.2.0-c249759bad, YMD=2023.09.01 20:27
1,5,Environment Title[],Latitude[deg],Longitude[deg],Time Zone[],Elevation[m]
2,8,Day of Simulation[],Month[],Day of Month[],DST Indicator[1=yes 0=no],Hour[],StartMinute[],EndMinute[],DayType
3,5,Cumulative Day of Simulation[],Month[],Day of Month[],DST Indicator[1=yes 0=no],DayType  ! When Daily Report Variables Requested
4,2,Cumulative Days of Simulation[],Month[]  ! When Monthly Report Variables Requested
5,1,Cumulative Days of Simulation[] ! When Run Period Report Variables Requested
6,1,Calendar Year of Simulation[] ! When Annual Report Variables Requested
581,11,LIVING,AFN Zone Infiltration Air Change Rate [ach] !RunPeriod [Value,Min,Month,Day,Hour,Minute,Max,Month,Day,Hour,Minute]
582,11,ATTIC,AFN Zone Infiltration Air Change Rate [ach] !RunPeriod [Value,Min,Month,Day,Hour,Minute,Max,Month,Day,Hour,Minute]
583,11,CRAWLSPACE,AFN Zone Infiltration Air Change Rate [ach] !RunPeriod [Value,Min,Month,Day,Hour,Minute,Max,Month,Day,Hour,Minute]
1038,11,Facility,Facility Heating Setpoint Not Met Time [hr] !RunPeriod [Value,Min,Month,Day,Hour,Minute,Max,Month,Day,Hour,Minute]
1039,11,Facility,Facility Cooling Setpoint Not Met Time [hr] !RunPeriod [Value,Min,Month,Day,Hour,Minute,Max,Month,Day,Hour,Minute]
1115,11,DX_HEATING_COIL,Heating Coil Heating Energy [J] !RunPeriod [Value,Min,Month,Day,Hour,Minute,Max,Month,Day,Hour,Minute]
1128,11,DX_HEATING_COIL,Heating Coil Electricity Energy [J] !RunPeriod [Value,Min,Month,Day,Hour,Minute,Max,Month,Day,Hour,Minute]
1153,11,DX_HEATING_COIL,Heating Coil Defrost Electricity Energy [J] !RunPeriod [Value,Min,Month,Day,Hour,Minute,Max,Month,Day,Hour,Minute]
1154,11,DX_HEATING_COIL,Heating Coil Crankcase Heater Electricity Energy [J] !RunPeriod [Value,Min,Month,Day,Hour,Minute,Max,Month,Day,Hour,Minute]
1155,11,HEATING_RESISTANCE_BACKUP,Heating Coil Heating Energy [J] !RunPeriod [Value,Min,Month,Day,Hour,Minute,Max,Month,Day,Hour,Minute]
1156,11,HEATING_RESISTANCE_BACKUP,Heating Coil Electricity Energy [J] !RunPeriod [Value,Min,Month,Day,Hour,Minute,Max,Month,Day,Hour,Minute]
1292,11,WATER HEATER,Water Heater Heat Loss Energy [J] !RunPeriod [Value,Min,Month,Day,Hour,Minute,Max,Month,Day,Hour,Minute]
1306,11,WATER HEATER,Water Heater Heating Energy [J] !RunPeriod [Value,Min,Month,Day,Hour,Minute,Max,Month,Day,Hour,Minute]
1307,11,WATER HEATER,Water Heater Unmet Demand Heat Transfer Energy [J] !RunPeriod [Value,Min,Month,Day,Hour,Minute,Max,Month,Day,Hour,Minute]
1308,11,WATER HEATER,Water Heater Electricity Energy [J] !RunPeriod [Value,Min,Month,Day,Hour,Minute,Max,Month,Day,Hour,Minute]
13,11,Electricity:Facility [J] !RunPeriod [Value,Min,Month,Day,Hour,Minute,Max,Month,Day,Hour,Minute]
1134,11,Heating:Electricity [J] !RunPeriod [Value,Min,Month,Day,Hour,Minute,Max,Month,Day,Hour,Minute]
1096,11,Cooling:Electricity [J] !RunPeriod [Value,Min,Month,Day,Hour,Minute,Max,Month,Day,Hour,Minute]
562,11,Fans:Electricity [J] !RunPeriod [Value,Min,Month,Day,Hour,Minute,Max,Month,Day,Hour,Minute]
1379,11,Pumps:Electricity [J] !RunPeriod [Value,Min,Month,Day,Hour,Minute,Max,Month,Day,Hour,Minute]
1326,11,WaterSystems:Electricity [J] !RunPeriod [Value,Min,Month,Day,Hour,Minute,Max,Month,Day,Hour,Minute]
61,11,InteriorLights:Electricity [J] !RunPeriod [Value,Min,Month,Day,Hour,Minute,Max,Month,Day,Hour,Minute]
1046,11,ExteriorLights:Electricity [J] !RunPeriod [Value,Min,Month,Day,Hour,Minute,Max,Month,Day,Hour,Minute]
134,11,InteriorEquipment:Electricity [J] !RunPeriod [Value,Min,Month,Day,Hour,Minute,Max,Month,Day,Hour,Minute]
170,11,gas_dryer:InteriorEquipment:Electricity [J] !RunPeriod [Value,Min,Month,Day,Hour,Minute,Max,Month,Day,Hour,Minute]
207,11,clotheswasher:InteriorEquipment:Electricity [J] !RunPeriod [Value,Min,Month,Day,Hour,Minute,Max,Month,Day,Hour,Minute]
244,11,dishwasher:InteriorEquipment:Electricity [J] !RunPeriod [Value,Min,Month,Day,Hour,Minute,Max,Month,Day,Hour,Minute]
281,11,refrigerator:InteriorEquipment:Electricity [J] !RunPeriod [Value,Min,Month,Day,Hour,Minute,Max,Month,Day,Hour,Minute]
318,11,electric_mels:InteriorEquipment:Electricity [J] !RunPeriod [Value,Min,Month,Day,Hour,Minute,Max,Month,Day,Hour,Minute]
355,11,NaturalGas:Facility [J] !RunPeriod [Value,Min,Month,Day,Hour,Minute,Max,Month,Day,Hour,Minute]
403,11,InteriorEquipment:NaturalGas [J] !RunPeriod [Value,Min,Month,Day,Hour,Minute,Max,Month,Day,Hour,Minute]
476,11,gas_dryer:InteriorEquipment:NaturalGas [J] !RunPeriod [Value,Min,Month,Day,Hour,Minute,Max,Month,Day,Hour,Minute]
513,11,gas_mels:InteriorEquipment:NaturalGas [J] !RunPeriod [Value,Min,Month,Day,Hour,Minute,Max,Month,Day,Hour,Minute]
End of Data Dictionary
1,EXTREME_WINTER,  45.81,-108.54,  -7.00,1088.00
5,7
1038,3.5,0.0, 3, 5, 1,15,0.25, 3, 9, 6,15
1039,0.0,0.0, 3, 5, 1,15,0.0, 3, 5, 1,15
581,0.4606636310918236,0.19124253591965407, 3, 5,21,60,0.790271131269496, 3, 5,22,48
582,5.569392487234666,0.0, 3, 8, 6, 5,18.47287246388639, 3, 5,14,60
583,0.06503291578984788,0.0007590191900469017, 3, 7,22,60,0.08953094836173695, 3, 6, 2,60
1115,1800477794.0718882,0.0, 3, 5,17,30,4383894.638890119, 3, 8, 6,45
1128,678383892.8746867,0.0, 3, 5,17,30,1379689.3811960965, 3, 8, 6,45
1153,13372671.411267923,0.0, 3, 5,13,22,92419.66852147876, 3, 8,11,60
1154,26606853.259262282,0.0, 3, 5, 6, 5,180000.0, 3, 5,17,30
1155,1224287851.3006046,0.0, 3, 5, 1, 3,6320606.95625706, 3,11, 4,60
1156,1224287851.3006046,0.0, 3, 5, 1, 3,6320606.95625706, 3,11, 4,60
1292,-25326992.49440266,-39767.21294941364, 3, 9, 2,30,-4109.640937114918, 3,11, 9,32
1306,197322861.58162677,0.0, 3, 5, 1, 3,4050000.0, 3, 5, 8,45
1307,43606534.23741518,0.0, 3, 5, 1, 3,10650174.015376147, 3, 8,10,30
1308,197322861.58162677,0.0, 3, 5, 1, 3,4050000.0, 3, 5, 8,45
13,2590456135.470888,452017.0388981225, 3, 7,15,15,11253331.986866433, 3,10,10,30
61,301924526.02383536,88139.10953165221, 3, 5, 1,15,1282023.4113694867, 3, 5,20,15
134,70666020.44019976,63564.01800854099, 3, 5, 4,15,156554.22484006523, 3,10,20,15
170,5241013.419656067,348.4159749238097, 3, 5, 4,15,17476.39704006126, 3,10,12,15
207,6509451.13922267,815.2532113832032, 3, 5, 3,15,22990.642799023623, 3,10,10,15
244,12749673.399825225,1521.856143006317, 3, 5, 4,15,53038.631142310165, 3,10,20,15
281,46165882.481495745,59938.60262432081, 3, 5, 5,15,81951.81706819107, 3, 5,19,15
318,0.0,0.0, 3, 5, 1,15,0.0, 3, 5, 1,15
355,197687796.27748066,18561.32405820678, 3, 5, 4,15,724774.895203776, 3,10,18,15
403,197687796.27748066,18561.32405820678, 3, 5, 4,15,724774.895203776, 3,10,18,15
476,106772067.24485716,7098.072629279515, 3, 5, 4,15,356036.3026282215, 3,10,12,15
513,0.0,0.0, 3, 5, 1,15,0.0, 3, 5, 1,15
562,77891458.57940342,0.0, 3, 5,17,30,148796.10966975562, 3,10,12,15
1046,0.0,0.0, 3, 5, 1,15,0.0, 3, 5, 1,15
1096,0.0,0.0, 3, 5, 1,15,0.0, 3, 5, 1,15
1134,1942651268.8458219,180000.0, 3, 5,17,30,7557142.644616457, 3,10, 6,30
1326,197322861.5816268,0.0, 3, 5, 1,15,4050000.0, 3, 5, 8,45
1379,0.0,0.0, 3, 5, 1,15,0.0, 3, 5, 1,15
1,EXTREME_SUMMER,  45.81,-108.54,  -7.00,1088.00
5,7
1038,0.0,0.0, 7, 8, 1,15,0.0, 7, 8, 1,15
1039,3.0,0.0, 7, 8, 1,15,0.25, 7,10,17,45
581,0.19152658376588483,0.0, 7,11, 6, 7,0.5525955494085006, 7,11, 7,52
582,4.274155176563089,0.06271384632548511, 7,13, 4,40,12.855431524893167, 7,13,16,47
583,0.032691434383804965,0.00003264828956754421, 7,11, 6,11,0.07398758913220811, 7,13,18,20
1115,0.0,0.0, 7, 8, 1, 7,0.0, 7, 8, 1, 7
1128,0.0,0.0, 7, 8, 1, 7,0.0, 7, 8, 1, 7
1153,0.0,0.0, 7, 8, 1, 7,0.0, 7, 8, 1, 7
1154,0.0,0.0, 7, 8, 1, 7,0.0, 7, 8, 1, 7
1155,0.0,0.0, 7, 8, 1, 7,0.0, 7, 8, 1, 7
1156,0.0,0.0, 7, 8, 1, 7,0.0, 7, 8, 1, 7
1292,-22112844.742377155,-34356.09306212651, 7,12, 6,60,-3102.4613901439648, 7,13,10,31
1306,157792462.30805916,0.0, 7, 8, 1, 7,2478575.6873982293, 7,14,13,60
1307,26185634.66338655,0.0, 7, 8, 1, 7,3746486.1317903847, 7,11,10,22
1308,157792462.30805916,0.0, 7, 8, 1, 7,2478575.6873982293, 7,14,13,60
13,956733347.762792,151703.1275401932, 7, 8, 4,15,6902390.2157694865, 7,13,19,30
61,301924526.02383536,88139.10953165221, 7, 8, 1,15,1282023.4113694867, 7, 8,20,15
134,70666020.44019976,63564.01800854099, 7, 8, 4,15,156554.22484006523, 7,13,20,15
170,5241013.419656067,348.4159749238097, 7, 8, 4,15,17476.39704006126, 7,13,12,15
207,6509451.13922267,815.2532113832032, 7, 8, 3,15,22990.642799023623, 7,13,10,15
244,12749673.399825225,1521.856143006317, 7, 8, 4,15,53038.631142310165, 7,13,20,15
281,46165882.481495745,59938.60262432081, 7, 8, 5,15,81951.81706819107, 7, 8,19,15
318,0.0,0.0, 7, 8, 1,15,0.0, 7, 8, 1,15
355,197687796.27748066,18561.32405820678, 7, 8, 4,15,724774.895203776, 7,13,18,15
403,197687796.27748066,18561.32405820678, 7, 8, 4,15,724774.895203776, 7,13,18,15
476,106772067.24485716,7098.072629279515, 7, 8, 4,15,356036.3026282215, 7,13,12,15
513,0.0,0.0, 7, 8, 1,15,0.0, 7, 8, 1,15
562,43129423.1818199,0.0, 7, 8, 3,15,148796.10966975562, 7,10,17,30
1046,0.0,0.0, 7, 8, 1,15,0.0, 7, 8, 1,15
1096,383220915.80887777,0.0, 7, 8, 3,15,1520052.2876958947, 7,10,18,60
1134,0.0,0.0, 7, 8, 1,15,0.0, 7, 8, 1,15
1326,157792462.3080592,0.0, 7, 8, 1,15,4050000.0, 7, 8, 8,45
1379,0.0,0.0, 7, 8, 1,15,0.0, 7, 8, 1,15
1,ANNUAL,  45.81,-108.54,  -7.00,1088.00
5,365
1038,14.0,0.0, 1, 1, 1,15,0.25, 1,10, 6,15
1039,87.0,0.0, 1, 1, 1,15,0.25, 4,24,13,45
581,0.3294448229635426,0.0, 7,11, 6, 7,1.3104213051073204, 2,25,17,60
582,5.873322256046722,0.0, 1,18, 5,60,33.14754454580138, 6,11,16,46
583,0.032083253029281535,0.000027836954057342872, 5, 1, 8,16,0.09699405823522794, 2,22,19,55
1115,37376122760.12456,0.0, 1, 1,23, 5,5142128.753680314, 1,13, 7,15
1128,12198140927.534306,0.0, 1, 1,23, 5,1491653.066816719, 1,13, 7,15
1153,322352201.71869886,0.0, 1, 1,23, 5,124536.66427965634, 3,17, 6,60
1154,1815161756.4897718,0.0, 1, 1, 1,15,180000.0, 1, 5,16,30
1155,8452090669.5078335,0.0, 1, 1,12,45,6320606.95625706, 3,10, 6,45
1156,8452090669.5078335,0.0, 1, 1,12,45,6320606.95625706, 3,10, 6,45
1292,-1248665444.6138985,-39879.941026467095, 1,29, 3,15,-2030.2656846650066, 7, 1,10,31
1306,9232860362.701561,0.0, 1, 1, 1,15,4050000.0, 1, 1, 9,45
1307,1761924511.2695403,0.0, 1, 1, 1,15,10760601.117204392, 2, 9,10,30
1308,9232860362.701561,0.0, 1, 1, 1,15,4050000.0, 1, 1, 9,45
13,59233261656.47511,151703.1275401932, 4,20, 4,15,11996737.89214271, 3,10, 8,30
61,15743207428.383959,88139.10953165221, 1, 1, 1,15,1282023.4113694867, 1, 1,20,15
134,3685071073.4325233,63564.01800854099, 1, 2, 4,15,156554.22484006523, 1, 1,20,15
170,273393721.45532674,348.4159749238097, 1, 2, 4,15,17476.39704006126, 1, 1,12,15
207,339560869.0695816,815.2532113832032, 1, 2, 3,15,22990.642799023623, 1, 1,10,15
244,664895467.8009144,1521.856143006317, 1, 2, 4,15,53038.631142310165, 1, 1,20,15
281,2407221015.106824,59938.60262432081, 1, 1, 5,15,81951.81706819107, 1, 1,19,15
318,0.0,0.0, 1, 1, 1,15,0.0, 1, 1, 1,15
355,10310294493.051695,18561.32405820678, 1, 2, 4,15,724774.895203776, 1, 1,18,15
403,10310294493.051695,18561.32405820678, 1, 2, 4,15,724774.895203776, 1, 1,18,15
476,5569688622.066177,7098.072629279515, 1, 2, 4,15,356036.3026282215, 1, 1,12,15
513,0.0,0.0, 1, 1, 1,15,0.0, 1, 1, 1,15
562,2003948615.431555,0.0, 1, 5,16,30,148796.10966975565, 7,24,14,30
1046,0.0,0.0, 1, 1, 1,15,0.0, 1, 1, 1,15
1096,5780428621.273774,0.0, 1, 1, 1,15,1699328.6370019247, 8,21,14,60
1134,22787745555.250607,0.0, 1,27,14,30,7581653.1510818, 3,12, 7,30
1326,9232860362.701546,0.0, 1, 1, 1,15,4050000.0, 1, 1, 9,45
1379,0.0,0.0, 1, 1, 1,15,0.0, 1, 1, 1,15
End of Data
 Number of Records Written=          99
