Program Version,EnergyPlus, Version 22.2.0-c249759bad, YMD=2023.09.01 20:30
1,5,Environment Title[],Latitude[deg],Longitude[deg],Time Zone[],Elevation[m]
2,8,Day of Simulation[],Month[],Day of Month[],DST Indicator[1=yes 0=no],Hour[],StartMinute[],EndMinute[],DayType
3,5,Cumulative Day of Simulation[],Month[],Day of Month[],DST Indicator[1=yes 0=no],DayType  ! When Daily Report Variables Requested
4,2,Cumulative Days of Simulation[],Month[]  ! When Monthly Report Variables Requested
5,1,Cumulative Days of Simulation[] ! When Run Period Report Variables Requested
6,1,Calendar Year of Simulation[] ! When Annual Report Variables Requested
581,11,LIVING,AFN Zone Infiltration Air Change Rate [ach] !RunPeriod [Value,Min,Month,Day,Hour,Minute,Max,Month,Day,Hour,Minute]
582,11,ATTIC,AFN Zone Infiltration Air Change Rate [ach] !RunPeriod [Value,Min,Month,Day,Hour,Minute,Max,Month,Day,Hour,Minute]
583,11,CRAWLSPACE,AFN Zone Infiltration Air Change Rate [ach] !RunPeriod [Value,Min,Month,Day,Hour,Minute,Max,Month,Day,Hour,Minute]
1038,11,Facility,Facility Heating Setpoint Not Met Time [hr] !RunPeriod [Value,Min,Month,Day,Hour,Minute,Max,Month,Day,Hour,Minute]
1039,11,Facility,Facility Cooling Setpoint Not Met Time [hr] !RunPeriod [Value,Min,Month,Day,Hour,Minute,Max,Month,Day,Hour,Minute]
1115,11,DX_HEATING_COIL,Heating Coil Heating Energy [J] !RunPeriod [Value,Min,Month,Day,Hour,Minute,Max,Month,Day,Hour,Minute]
1128,11,DX_HEATING_COIL,Heating Coil Electricity Energy [J] !RunPeriod [Value,Min,Month,Day,Hour,Minute,Max,Month,Day,Hour,Minute]
1153,11,DX_HEATING_COIL,Heating Coil Defrost Electricity Energy [J] !RunPeriod [Value,Min,Month,Day,Hour,Minute,Max,Month,Day,Hour,Minute]
1154,11,DX_HEATING_COIL,Heating Coil Crankcase Heater Electricity Energy [J] !RunPeriod [Value,Min,Month,Day,Hour,Minute,Max,Month,Day,Hour,Minute]
1155,11,HEATING_RESISTANCE_BACKUP,Heating Coil Heating Energy [J] !RunPeriod [Value,Min,Month,Day,Hour,Minute,Max,Month,Day,Hour,Minute]
1156,11,HEATING_RESISTANCE_BACKUP,Heating Coil Electricity Energy [J] !RunPeriod [Value,Min,Month,Day,Hour,Minute,Max,Month,Day,Hour,Minute]
1292,11,WATER HEATER,Water Heater Heat Loss Energy [J] !RunPeriod [Value,Min,Month,Day,Hour,Minute,Max,Month,Day,Hour,Minute]
1306,11,WATER HEATER,Water Heater Heating Energy [J] !RunPeriod [Value,Min,Month,Day,Hour,Minute,Max,Month,Day,Hour,Minute]
1307,11,WATER HEATER,Water Heater Unmet Demand Heat Transfer Energy [J] !RunPeriod [Value,Min,Month,Day,Hour,Minute,Max,Month,Day,Hour,Minute]
1308,11,WATER HEATER,Water Heater Electricity Energy [J] !RunPeriod [Value,Min,Month,Day,Hour,Minute,Max,Month,Day,Hour,Minute]
13,11,Electricity:Facility [J] !RunPeriod [Value,Min,Month,Day,Hour,Minute,Max,Month,Day,Hour,Minute]
1134,11,Heating:Electricity [J] !RunPeriod [Value,Min,Month,Day,Hour,Minute,Max,Month,Day,Hour,Minute]
1096,11,Cooling:Electricity [J] !RunPeriod [Value,Min,Month,Day,Hour,Minute,Max,Month,Day,Hour,Minute]
562,11,Fans:Electricity [J] !RunPeriod [Value,Min,Month,Day,Hour,Minute,Max,Month,Day,Hour,Minute]
1379,11,Pumps:Electricity [J] !RunPeriod [Value,Min,Month,Day,Hour,Minute,Max,Month,Day,Hour,Minute]
1326,11,WaterSystems:Electricity [J] !RunPeriod [Value,Min,Month,Day,Hour,Minute,Max,Month,Day,Hour,Minute]
61,11,InteriorLights:Electricity [J] !RunPeriod [Value,Min,Month,Day,Hour,Minute,Max,Month,Day,Hour,Minute]
1046,11,ExteriorLights:Electricity [J] !RunPeriod [Value,Min,Month,Day,Hour,Minute,Max,Month,Day,Hour,Minute]
134,11,InteriorEquipment:Electricity [J] !RunPeriod [Value,Min,Month,Day,Hour,Minute,Max,Month,Day,Hour,Minute]
170,11,gas_dryer:InteriorEquipment:Electricity [J] !RunPeriod [Value,Min,Month,Day,Hour,Minute,Max,Month,Day,Hour,Minute]
207,11,clotheswasher:InteriorEquipment:Electricity [J] !RunPeriod [Value,Min,Month,Day,Hour,Minute,Max,Month,Day,Hour,Minute]
244,11,dishwasher:InteriorEquipment:Electricity [J] !RunPeriod [Value,Min,Month,Day,Hour,Minute,Max,Month,Day,Hour,Minute]
281,11,refrigerator:InteriorEquipment:Electricity [J] !RunPeriod [Value,Min,Month,Day,Hour,Minute,Max,Month,Day,Hour,Minute]
318,11,electric_mels:InteriorEquipment:Electricity [J] !RunPeriod [Value,Min,Month,Day,Hour,Minute,Max,Month,Day,Hour,Minute]
355,11,NaturalGas:Facility [J] !RunPeriod [Value,Min,Month,Day,Hour,Minute,Max,Month,Day,Hour,Minute]
403,11,InteriorEquipment:NaturalGas [J] !RunPeriod [Value,Min,Month,Day,Hour,Minute,Max,Month,Day,Hour,Minute]
476,11,gas_dryer:InteriorEquipment:NaturalGas [J] !RunPeriod [Value,Min,Month,Day,Hour,Minute,Max,Month,Day,Hour,Minute]
513,11,gas_mels:InteriorEquipment:NaturalGas [J] !RunPeriod [Value,Min,Month,Day,Hour,Minute,Max,Month,Day,Hour,Minute]
End of Data Dictionary
1,EXTREME_WINTER,  33.65,-101.82,  -6.00, 991.80
5,15
1038,0.25,0.0,12,22, 1,15,0.25,12,22, 6,15
1039,0.0,0.0,12,22, 1,15,0.0,12,22, 1,15
581,0.38905443280875257,0.19255400962699484,12,30,18,60,1.3231036450229983,12,22,11,60
582,5.764210656756081,0.0, 1, 3,22,60,21.565305902734128,12,22,11,60
583,0.036673841983526974,0.0002849789183342686,12,24,13,48,0.12768780432536636,12,22,11,60
1115,2460763899.140787,0.0,12,22,16,60,5666091.297896027,12,22,12,60
1128,800041344.269171,0.0,12,22,16,60,1784404.3382330767,12,22,12,60
1153,29267082.064856526,0.0,12,22,16,60,105803.8214319117, 1, 5,11,45
1154,154316281.109502,0.0,12,22, 6, 5,180000.0,12,22,16,60
1155,38329217.78904777,0.0,12,22, 1, 7,1523257.8640690378,12,28, 6, 5
1156,38329217.78904777,0.0,12,22, 1, 7,1523257.8640690378,12,28, 6, 5
1292,-53266159.723789535,-39754.96611048707, 1, 4, 5,45,-4114.088201210182,12,28,14,59
1306,361624801.60267985,0.0,12,22, 1, 7,4050000.0,12,22, 8,45
1307,62754844.95263282,0.0,12,22, 1, 7,4197828.749806626, 1, 1,10,22
1308,361624801.60267985,0.0,12,22, 1, 7,4050000.0,12,22, 8,45
13,2281272404.2171626,272017.0388981225,12,29,15,15,6659728.9892367795,12,22, 8,45
61,646981127.1939323,88139.10953165221,12,22, 1,15,1282023.4113694867,12,22,20,15
134,151290040.75163814,63564.01800854099,12,22, 4,15,156554.22484006523,12,27,20,15
170,11185820.069951689,348.4159749238097,12,22, 4,15,17476.39704006126,12,27,12,15
207,13893028.5742839,815.2532113832032,12,22, 3,15,22990.642799023623,12,27,10,15
244,27284301.07562584,1521.856143006317,12,22, 4,15,53038.631142310165,12,27,20,15
281,98926891.03177746,59938.60262432081,12,22, 5,15,81951.81706819107,12,22,19,15
318,0.0,0.0,12,22, 1,15,0.0,12,22, 1,15
355,422701517.16107386,18561.32405820678,12,22, 4,15,724774.895203776,12,27,18,15
403,422701517.16107386,18561.32405820678,12,22, 4,15,724774.895203776,12,27,18,15
476,227882097.80545202,7098.072629279515,12,22, 4,15,356036.3026282215,12,27,12,15
513,0.0,0.0,12,22, 1,15,0.0,12,22, 1,15
562,87662863.02763359,0.0,12,22,16,60,183343.3496532607,12,22, 8,15
1046,0.0,0.0,12,22, 1,15,0.0,12,22, 1,15
1096,11759646.40869792,0.0,12,22, 1,15,286340.4820480744,12,25,17,15
1134,1021953925.2325765,0.0,12,23,11,30,3721259.48754145,12,28, 6,15
1326,361624801.60268,0.0,12,22, 1,15,4050000.0,12,22, 8,45
1379,0.0,0.0,12,22, 1,15,0.0,12,22, 1,15
1,EXTREME_SUMMER,  33.65,-101.82,  -6.00, 991.80
5,7
1038,0.0,0.0, 7, 6, 1,15,0.0, 7, 6, 1,15
1039,7.5,0.0, 7, 6, 1,15,0.25, 7, 9,17,15
581,0.279078588096995,0.02236796204000659, 7, 6, 7,55,0.6029330342129894, 7, 9,14,52
582,5.60509527768085,0.03263222664320438, 7, 6, 4,52,11.723019087682285, 7,10, 1,60
583,0.053210737961784445,0.0005476278267159775, 7,12, 6,11,0.10424144775601828, 7, 9, 6, 3
1115,0.0,0.0, 7, 6, 1,15,0.0, 7, 6, 1,15
1128,0.0,0.0, 7, 6, 1,15,0.0, 7, 6, 1,15
1153,0.0,0.0, 7, 6, 1,15,0.0, 7, 6, 1,15
1154,0.0,0.0, 7, 6, 1,15,0.0, 7, 6, 1,15
1155,0.0,0.0, 7, 6, 1,15,0.0, 7, 6, 1,15
1156,0.0,0.0, 7, 6, 1,15,0.0, 7, 6, 1,15
1292,-22082853.939785555,-34352.670420922324, 7, 9, 6,45,-4018.384440714322, 7, 7,11,15
1306,125087499.67263108,0.0, 7, 6, 1,15,3466447.964146576, 7, 7, 7,15
1307,12293533.98349265,0.0, 7, 6, 1,15,949141.6734065212, 7, 9,10,21
1308,125087499.67263108,0.0, 7, 6, 1,15,3466447.964146576, 7, 7, 7,15
13,1228675669.566663,190277.22128820972, 7, 6, 4,60,6445545.996130912, 7,12,20,60
61,301924526.02383536,88139.10953165221, 7, 6, 1,15,1282023.4113694867, 7, 6,20,15
134,70666020.44019976,63564.01800854099, 7, 6, 4,15,156554.22484006523, 7,11,20,15
170,5241013.419656067,348.4159749238097, 7, 6, 4,15,17476.39704006126, 7,11,12,15
207,6509451.13922267,815.2532113832032, 7, 6, 3,15,22990.642799023623, 7,11,10,15
244,12749673.399825225,1521.856143006317, 7, 6, 4,15,53038.631142310165, 7,11,20,15
281,46165882.481495745,59938.60262432081, 7, 6, 5,15,81951.81706819107, 7, 6,19,15
318,0.0,0.0, 7, 6, 1,15,0.0, 7, 6, 1,15
355,197687796.27748066,18561.32405820678, 7, 6, 4,15,724774.895203776, 7,11,18,15
403,197687796.27748066,18561.32405820678, 7, 6, 4,15,724774.895203776, 7,11,18,15
476,106772067.24485716,7098.072629279515, 7, 6, 4,15,356036.3026282215, 7,11,12,15
513,0.0,0.0, 7, 6, 1,15,0.0, 7, 6, 1,15
562,64893051.427752435,0.0, 7, 6, 6,30,183343.3496532607, 7, 7,18,45
1046,0.0,0.0, 7, 6, 1,15,0.0, 7, 6, 1,15
1096,666104572.002244,0.0, 7, 6, 6,30,2256966.1891560704, 7, 9,14,60
1134,0.0,0.0, 7, 6, 1,15,0.0, 7, 6, 1,15
1326,125087499.67263106,0.0, 7, 6, 1,15,4050000.0, 7, 8, 9,45
1379,0.0,0.0, 7, 6, 1,15,0.0, 7, 6, 1,15
1,ANNUAL,  33.65,-101.82,  -6.00, 991.80
5,365
1038,0.0,0.0, 1, 1, 1,15,0.0, 1, 1, 1,15
1039,150.75,0.0, 1, 1, 1,15,0.25, 4,13,14,15
581,0.3302091684127956,0.0, 6, 5, 6, 7,1.5445526217038765, 2,24,12,52
582,6.440511884112889,0.0, 1, 3,22,60,46.36472449278205, 2,24,10,60
583,0.0332507025367246,0.0, 8, 3, 6, 7,0.12696131541397088,12,22,11,60
1115,12537048534.54054,0.0, 1, 1,17, 7,5667932.366437115,12,22,12,60
1128,4047812393.0343757,0.0, 1, 1,17, 7,1785165.700352509, 3,28, 6,45
1153,191700851.72616696,0.0, 1, 1,17, 7,132660.10525388716, 2,11, 6,45
1154,1382186868.4059236,0.0, 1, 1, 6, 5,180000.0, 1, 2,16,15
1155,182055218.54667178,0.0, 1, 1, 1,15,2495614.565057799, 2,15, 6,45
1156,182055218.54667178,0.0, 1, 1, 1,15,2495614.565057799, 2,15, 6,45
1292,-1202518289.8769355,-39775.25212542763, 4, 6, 3,15,-2088.256677612071, 3, 4,10,31
1306,7762583818.514486,0.0, 1, 1, 1,15,4050000.0, 1, 1, 9,45
1307,1140767960.2100265,0.0, 1, 1, 1,15,8691199.487548359, 2, 2,10,30
1308,7762583818.514486,0.0, 1, 1, 1,15,4050000.0, 1, 1, 9,45
13,48542048008.88717,151703.1275401932, 1,31, 4,15,7220541.805868935,12,15, 8,30
61,15743207428.383959,88139.10953165221, 1, 1, 1,15,1282023.4113694867, 1, 1,20,15
134,3685071073.4325233,63564.01800854099, 1, 2, 4,15,156554.22484006523, 1, 1,20,15
170,273393721.45532674,348.4159749238097, 1, 2, 4,15,17476.39704006126, 1, 1,12,15
207,339560869.0695816,815.2532113832032, 1, 2, 3,15,22990.642799023623, 1, 1,10,15
244,664895467.8009144,1521.856143006317, 1, 2, 4,15,53038.631142310165, 1, 1,20,15
281,2407221015.106824,59938.60262432081, 1, 1, 5,15,81951.81706819107, 1, 1,19,15
318,0.0,0.0, 1, 1, 1,15,0.0, 1, 1, 1,15
355,10310294493.051695,18561.32405820678, 1, 2, 4,15,724774.895203776, 1, 1,18,15
403,10310294493.051695,18561.32405820678, 1, 2, 4,15,724774.895203776, 1, 1,18,15
476,5569688622.066177,7098.072629279515, 1, 2, 4,15,356036.3026282215, 1, 1,12,15
513,0.0,0.0, 1, 1, 1,15,0.0, 1, 1, 1,15
562,1935397360.1401606,0.0, 1, 1,17,15,183343.34965326072, 7,16,20,30
1046,0.0,0.0, 1, 1, 1,15,0.0, 1, 1, 1,15
1096,13612032996.701012,0.0, 1, 1, 1,15,2253954.8375135013, 7, 9,14,30
1134,5803755331.713136,0.0, 1, 3,13,60,4778777.867080305, 2,15, 6,15
1326,7762583818.514489,0.0, 1, 1, 1,15,4050000.0, 1, 1, 9,45
1379,0.0,0.0, 1, 1, 1,15,0.0, 1, 1, 1,15
End of Data
 Number of Records Written=          99
