Program Version,EnergyPlus, Version 22.2.0-c249759bad, YMD=2023.09.01 20:26
1,5,Environment Title[],Latitude[deg],Longitude[deg],Time Zone[],Elevation[m]
2,8,Day of Simulation[],Month[],Day of Month[],DST Indicator[1=yes 0=no],Hour[],StartMinute[],EndMinute[],DayType
3,5,Cumulative Day of Simulation[],Month[],Day of Month[],DST Indicator[1=yes 0=no],DayType  ! When Daily Report Variables Requested
4,2,Cumulative Days of Simulation[],Month[]  ! When Monthly Report Variables Requested
5,1,Cumulative Days of Simulation[] ! When Run Period Report Variables Requested
6,1,Calendar Year of Simulation[] ! When Annual Report Variables Requested
581,11,LIVING,AFN Zone Infiltration Air Change Rate [ach] !RunPeriod [Value,Min,Month,Day,Hour,Minute,Max,Month,Day,Hour,Minute]
582,11,ATTIC,AFN Zone Infiltration Air Change Rate [ach] !RunPeriod [Value,Min,Month,Day,Hour,Minute,Max,Month,Day,Hour,Minute]
583,11,CRAWLSPACE,AFN Zone Infiltration Air Change Rate [ach] !RunPeriod [Value,Min,Month,Day,Hour,Minute,Max,Month,Day,Hour,Minute]
1038,11,Facility,Facility Heating Setpoint Not Met Time [hr] !RunPeriod [Value,Min,Month,Day,Hour,Minute,Max,Month,Day,Hour,Minute]
1039,11,Facility,Facility Cooling Setpoint Not Met Time [hr] !RunPeriod [Value,Min,Month,Day,Hour,Minute,Max,Month,Day,Hour,Minute]
1115,11,DX_HEATING_COIL,Heating Coil Heating Energy [J] !RunPeriod [Value,Min,Month,Day,Hour,Minute,Max,Month,Day,Hour,Minute]
1128,11,DX_HEATING_COIL,Heating Coil Electricity Energy [J] !RunPeriod [Value,Min,Month,Day,Hour,Minute,Max,Month,Day,Hour,Minute]
1153,11,DX_HEATING_COIL,Heating Coil Defrost Electricity Energy [J] !RunPeriod [Value,Min,Month,Day,Hour,Minute,Max,Month,Day,Hour,Minute]
1154,11,DX_HEATING_COIL,Heating Coil Crankcase Heater Electricity Energy [J] !RunPeriod [Value,Min,Month,Day,Hour,Minute,Max,Month,Day,Hour,Minute]
1155,11,HEATING_RESISTANCE_BACKUP,Heating Coil Heating Energy [J] !RunPeriod [Value,Min,Month,Day,Hour,Minute,Max,Month,Day,Hour,Minute]
1156,11,HEATING_RESISTANCE_BACKUP,Heating Coil Electricity Energy [J] !RunPeriod [Value,Min,Month,Day,Hour,Minute,Max,Month,Day,Hour,Minute]
1292,11,WATER HEATER,Water Heater Heat Loss Energy [J] !RunPeriod [Value,Min,Month,Day,Hour,Minute,Max,Month,Day,Hour,Minute]
1306,11,WATER HEATER,Water Heater Heating Energy [J] !RunPeriod [Value,Min,Month,Day,Hour,Minute,Max,Month,Day,Hour,Minute]
1307,11,WATER HEATER,Water Heater Unmet Demand Heat Transfer Energy [J] !RunPeriod [Value,Min,Month,Day,Hour,Minute,Max,Month,Day,Hour,Minute]
1308,11,WATER HEATER,Water Heater Electricity Energy [J] !RunPeriod [Value,Min,Month,Day,Hour,Minute,Max,Month,Day,Hour,Minute]
13,11,Electricity:Facility [J] !RunPeriod [Value,Min,Month,Day,Hour,Minute,Max,Month,Day,Hour,Minute]
1134,11,Heating:Electricity [J] !RunPeriod [Value,Min,Month,Day,Hour,Minute,Max,Month,Day,Hour,Minute]
1096,11,Cooling:Electricity [J] !RunPeriod [Value,Min,Month,Day,Hour,Minute,Max,Month,Day,Hour,Minute]
562,11,Fans:Electricity [J] !RunPeriod [Value,Min,Month,Day,Hour,Minute,Max,Month,Day,Hour,Minute]
1379,11,Pumps:Electricity [J] !RunPeriod [Value,Min,Month,Day,Hour,Minute,Max,Month,Day,Hour,Minute]
1326,11,WaterSystems:Electricity [J] !RunPeriod [Value,Min,Month,Day,Hour,Minute,Max,Month,Day,Hour,Minute]
61,11,InteriorLights:Electricity [J] !RunPeriod [Value,Min,Month,Day,Hour,Minute,Max,Month,Day,Hour,Minute]
1046,11,ExteriorLights:Electricity [J] !RunPeriod [Value,Min,Month,Day,Hour,Minute,Max,Month,Day,Hour,Minute]
134,11,InteriorEquipment:Electricity [J] !RunPeriod [Value,Min,Month,Day,Hour,Minute,Max,Month,Day,Hour,Minute]
170,11,gas_dryer:InteriorEquipment:Electricity [J] !RunPeriod [Value,Min,Month,Day,Hour,Minute,Max,Month,Day,Hour,Minute]
207,11,clotheswasher:InteriorEquipment:Electricity [J] !RunPeriod [Value,Min,Month,Day,Hour,Minute,Max,Month,Day,Hour,Minute]
244,11,dishwasher:InteriorEquipment:Electricity [J] !RunPeriod [Value,Min,Month,Day,Hour,Minute,Max,Month,Day,Hour,Minute]
281,11,refrigerator:InteriorEquipment:Electricity [J] !RunPeriod [Value,Min,Month,Day,Hour,Minute,Max,Month,Day,Hour,Minute]
318,11,electric_mels:InteriorEquipment:Electricity [J] !RunPeriod [Value,Min,Month,Day,Hour,Minute,Max,Month,Day,Hour,Minute]
355,11,NaturalGas:Facility [J] !RunPeriod [Value,Min,Month,Day,Hour,Minute,Max,Month,Day,Hour,Minute]
403,11,InteriorEquipment:NaturalGas [J] !RunPeriod [Value,Min,Month,Day,Hour,Minute,Max,Month,Day,Hour,Minute]
476,11,gas_dryer:InteriorEquipment:NaturalGas [J] !RunPeriod [Value,Min,Month,Day,Hour,Minute,Max,Month,Day,Hour,Minute]
513,11,gas_mels:InteriorEquipment:NaturalGas [J] !RunPeriod [Value,Min,Month,Day,Hour,Minute,Max,Month,Day,Hour,Minute]
End of Data Dictionary
1,EXTREME_WINTER,  37.65, -97.43,  -6.00, 409.00
5,7
1038,0.5,0.0, 2,17, 1,15,0.25, 2,22, 6,15
1039,0.0,0.0, 2,17, 1,15,0.0, 2,17, 1,15
581,0.4363168664466786,0.20917037288445253, 2,19,19,60,1.153831909666578, 2,18,11,52
582,6.661374126335253,0.0, 2,19, 5,60,21.41396161712095, 2,18,11,52
583,0.041122329269199884,0.0006633337975300404, 2,19,15,52,0.09509019557642721, 2,22, 4,60
1115,1268630343.3953779,0.0, 2,17, 1, 3,4818171.734035007, 2,21, 3,45
1128,440334446.4054665,0.0, 2,17, 1, 3,1563077.6432628362, 2,21,22,60
1153,17030004.020199485,0.0, 2,17, 1, 3,108685.86444641097, 2,21, 6,60
1154,53027792.44642186,0.0, 2,17, 6, 5,180000.0, 2,18,13,15
1155,193109798.95382392,0.0, 2,17, 1, 3,4216090.578436999, 2,23, 6,60
1156,193109798.95382392,0.0, 2,17, 1, 3,4216090.578436999, 2,23, 6,60
1292,-24901253.037110854,-39730.56032210991, 2,23, 5,30,-3822.286073537401, 2,22,12,60
1306,181880735.50271127,0.0, 2,17, 1, 3,4050000.0, 2,17, 8,45
1307,34742712.551337145,0.0, 2,17, 1, 3,9346367.565077115, 2,20,10,30
1308,181880735.50271127,0.0, 2,17, 1, 3,4050000.0, 2,17, 8,45
13,1312366697.3795073,151703.1275401932, 2,18, 4,15,8289442.207618032, 2,23, 9,30
61,301924526.02383536,88139.10953165221, 2,17, 1,15,1282023.4113694867, 2,17,20,15
134,70666020.44019976,63564.01800854099, 2,17, 4,15,156554.22484006523, 2,22,20,15
170,5241013.419656067,348.4159749238097, 2,17, 4,15,17476.39704006126, 2,22,12,15
207,6509451.13922267,815.2532113832032, 2,17, 3,15,22990.642799023623, 2,22,10,15
244,12749673.399825225,1521.856143006317, 2,17, 4,15,53038.631142310165, 2,22,20,15
281,46165882.481495745,59938.60262432081, 2,17, 5,15,81951.81706819107, 2,17,19,15
318,0.0,0.0, 2,17, 1,15,0.0, 2,17, 1,15
355,197687796.27748066,18561.32405820678, 2,17, 4,15,724774.895203776, 2,22,18,15
403,197687796.27748066,18561.32405820678, 2,17, 4,15,724774.895203776, 2,22,18,15
476,106772067.24485716,7098.072629279515, 2,17, 4,15,356036.3026282215, 2,22,12,15
513,0.0,0.0, 2,17, 1,15,0.0, 2,17, 1,15
562,46496471.03744847,0.0, 2,17, 1,15,162100.59485586442, 2,21, 3,45
1046,0.0,0.0, 2,17, 1,15,0.0, 2,17, 1,15
1096,7896902.549403018,0.0, 2,17, 1,15,396277.66370669496, 2,17,17,60
1134,703502041.8259114,0.0, 2,17,11,45,5720178.500745526, 2,23, 6,60
1326,181880735.5027113,0.0, 2,17, 1,15,4050000.0, 2,17, 8,45
1379,0.0,0.0, 2,17, 1,15,0.0, 2,17, 1,15
1,EXTREME_SUMMER,  37.65, -97.43,  -6.00, 409.00
5,7
1038,0.0,0.0, 7,20, 1,15,0.0, 7,20, 1,15
1039,29.75,0.0, 7,20, 1,15,0.25, 7,20,14,45
581,0.3174479852115035,0.0, 7,26, 6, 7,0.8855955552073022, 7,22,16,52
582,6.381573567169532,0.10749071917278284, 7,24,21,60,16.920337429714756, 7,22,16,52
583,0.05441473981979582,0.0, 7,26, 6, 7,0.09952843200213538, 7,22,16,52
1115,0.0,0.0, 7,20, 1,15,0.0, 7,20, 1,15
1128,0.0,0.0, 7,20, 1,15,0.0, 7,20, 1,15
1153,0.0,0.0, 7,20, 1,15,0.0, 7,20, 1,15
1154,0.0,0.0, 7,20, 1,15,0.0, 7,20, 1,15
1155,0.0,0.0, 7,20, 1,15,0.0, 7,20, 1,15
1156,0.0,0.0, 7,20, 1,15,0.0, 7,20, 1,15
1292,-21935879.115865834,-34331.99303474715, 7,23, 6,45,-2557.6107168359513, 7,24,17,29
1306,128075262.93199149,0.0, 7,20, 1,15,3506651.06205388, 7,21, 7,15
1307,13505731.97771165,0.0, 7,20, 1,15,1670177.3208314816, 7,23,10,25
1308,128075262.93199149,0.0, 7,20, 1,15,3506651.06205388, 7,21, 7,15
13,1283818208.0978181,239001.68034086959, 7,26, 4,60,6562877.582324087, 7,26,20,60
61,301924526.02383536,88139.10953165221, 7,20, 1,15,1282023.4113694867, 7,20,20,15
134,70666020.44019976,63564.01800854099, 7,20, 4,15,156554.22484006523, 7,25,20,15
170,5241013.419656067,348.4159749238097, 7,20, 4,15,17476.39704006126, 7,25,12,15
207,6509451.13922267,815.2532113832032, 7,20, 3,15,22990.642799023623, 7,25,10,15
244,12749673.399825225,1521.856143006317, 7,20, 4,15,53038.631142310165, 7,25,20,15
281,46165882.481495745,59938.60262432081, 7,20, 5,15,81951.81706819107, 7,20,19,15
318,0.0,0.0, 7,20, 1,15,0.0, 7,20, 1,15
355,197687796.27748066,18561.32405820678, 7,20, 4,15,724774.895203776, 7,25,18,15
403,197687796.27748066,18561.32405820678, 7,20, 4,15,724774.895203776, 7,25,18,15
476,106772067.24485716,7098.072629279515, 7,20, 4,15,356036.3026282215, 7,25,12,15
513,0.0,0.0, 7,20, 1,15,0.0, 7,20, 1,15
562,65933010.95396036,4845.774486142515, 7,26, 6,30,162100.59485586444, 7,24,17,15
1046,0.0,0.0, 7,20, 1,15,0.0, 7,20, 1,15
1096,717219387.7478324,43520.49488965839, 7,26, 6,30,2015899.4915429638, 7,24,16,60
1134,0.0,0.0, 7,20, 1,15,0.0, 7,20, 1,15
1326,128075262.93199147,0.0, 7,20, 1,15,4050000.0, 7,22, 9,45
1379,0.0,0.0, 7,20, 1,15,0.0, 7,20, 1,15
1,ANNUAL,  37.65, -97.43,  -6.00, 409.00
5,365
1038,2.75,0.0, 1, 1, 1,15,0.25, 1, 5, 6,15
1039,270.75,0.0, 1, 1, 1,15,0.25, 6, 6,17,15
581,0.3482036006514627,0.0, 6,25, 6, 7,1.6443754830579118, 3, 6,14,60
582,5.954289609344786,0.0, 1, 3,20, 5,35.1957552643947, 5, 3,15,60
583,0.03170277691778948,0.0, 6,26, 6, 7,0.10820949467458212, 2,25,18,60
1115,20099681937.836857,0.0, 1, 1,23, 3,5404753.314468107,11,27, 6,45
1128,6446281197.792953,0.0, 1, 1,23, 3,1683055.021458829, 1,12, 6,45
1153,269738277.5555663,0.0, 1, 1,23, 3,156212.6071059186, 2,25,15,60
1154,1571384656.7057729,0.0, 1, 1, 4,45,180000.0, 1, 2,16,15
1155,856750392.9054736,0.0, 1, 1, 1, 7,4268214.386570588, 2,23, 6,60
1156,856750392.9054736,0.0, 1, 1, 1, 7,4268214.386570588, 2,23, 6,60
1292,-1217428953.0942376,-39788.524904353486, 1,27, 5,45,-2236.212527586547, 5,28,13,30
1306,8119509786.38541,0.0, 1, 1, 1, 7,4050000.0, 1, 1, 9,45
1307,1280112778.5617685,0.0, 1, 1, 1, 7,9288238.20627675, 2,25,10,30
1308,8119509786.38541,0.0, 1, 1, 1, 7,4050000.0, 1, 1, 9,45
13,50601073950.02273,151703.1275401932, 3,16, 4,15,9105790.608320497, 1,13, 8,30
61,15743207428.383959,88139.10953165221, 1, 1, 1,15,1282023.4113694867, 1, 1,20,15
134,3685071073.4325233,63564.01800854099, 1, 2, 4,15,156554.22484006523, 1, 1,20,15
170,273393721.45532674,348.4159749238097, 1, 2, 4,15,17476.39704006126, 1, 1,12,15
207,339560869.0695816,815.2532113832032, 1, 2, 3,15,22990.642799023623, 1, 1,10,15
244,664895467.8009144,1521.856143006317, 1, 2, 4,15,53038.631142310165, 1, 1,20,15
281,2407221015.106824,59938.60262432081, 1, 1, 5,15,81951.81706819107, 1, 1,19,15
318,0.0,0.0, 1, 1, 1,15,0.0, 1, 1, 1,15
355,10310294493.051695,18561.32405820678, 1, 2, 4,15,724774.895203776, 1, 1,18,15
403,10310294493.051695,18561.32405820678, 1, 2, 4,15,724774.895203776, 1, 1,18,15
476,5569688622.066177,7098.072629279515, 1, 2, 4,15,356036.3026282215, 1, 1,12,15
513,0.0,0.0, 1, 1, 1,15,0.0, 1, 1, 1,15
562,1861017897.3253388,0.0, 1, 2,14,30,162100.59485586444, 7,24,17,15
1046,0.0,0.0, 1, 1, 1,15,0.0, 1, 1, 1,15
1096,12048113239.533747,0.0, 1, 1, 1,15,2043863.1134677455, 8,31,16,60
1134,9144154524.959745,0.0, 1, 6,15,60,5771513.964744119, 2,23, 6,60
1326,8119509786.385416,0.0, 1, 1, 1,15,4050000.0, 1, 1, 9,45
1379,0.0,0.0, 1, 1, 1,15,0.0, 1, 1, 1,15
End of Data
 Number of Records Written=          99
