Program Version,EnergyPlus, Version 22.2.0-c249759bad, YMD=2023.09.01 20:16
1,5,Environment Title[],Latitude[deg],Longitude[deg],Time Zone[],Elevation[m]
2,8,Day of Simulation[],Month[],Day of Month[],DST Indicator[1=yes 0=no],Hour[],StartMinute[],EndMinute[],DayType
3,5,Cumulative Day of Simulation[],Month[],Day of Month[],DST Indicator[1=yes 0=no],DayType  ! When Daily Report Variables Requested
4,2,Cumulative Days of Simulation[],Month[]  ! When Monthly Report Variables Requested
5,1,Cumulative Days of Simulation[] ! When Run Period Report Variables Requested
6,1,Calendar Year of Simulation[] ! When Annual Report Variables Requested
581,11,LIVING,AFN Zone Infiltration Air Change Rate [ach] !RunPeriod [Value,Min,Month,Day,Hour,Minute,Max,Month,Day,Hour,Minute]
582,11,ATTIC,AFN Zone Infiltration Air Change Rate [ach] !RunPeriod [Value,Min,Month,Day,Hour,Minute,Max,Month,Day,Hour,Minute]
583,11,CRAWLSPACE,AFN Zone Infiltration Air Change Rate [ach] !RunPeriod [Value,Min,Month,Day,Hour,Minute,Max,Month,Day,Hour,Minute]
1038,11,Facility,Facility Heating Setpoint Not Met Time [hr] !RunPeriod [Value,Min,Month,Day,Hour,Minute,Max,Month,Day,Hour,Minute]
1039,11,Facility,Facility Cooling Setpoint Not Met Time [hr] !RunPeriod [Value,Min,Month,Day,Hour,Minute,Max,Month,Day,Hour,Minute]
1115,11,DX_HEATING_COIL,Heating Coil Heating Energy [J] !RunPeriod [Value,Min,Month,Day,Hour,Minute,Max,Month,Day,Hour,Minute]
1128,11,DX_HEATING_COIL,Heating Coil Electricity Energy [J] !RunPeriod [Value,Min,Month,Day,Hour,Minute,Max,Month,Day,Hour,Minute]
1153,11,DX_HEATING_COIL,Heating Coil Defrost Electricity Energy [J] !RunPeriod [Value,Min,Month,Day,Hour,Minute,Max,Month,Day,Hour,Minute]
1154,11,DX_HEATING_COIL,Heating Coil Crankcase Heater Electricity Energy [J] !RunPeriod [Value,Min,Month,Day,Hour,Minute,Max,Month,Day,Hour,Minute]
1155,11,HEATING_RESISTANCE_BACKUP,Heating Coil Heating Energy [J] !RunPeriod [Value,Min,Month,Day,Hour,Minute,Max,Month,Day,Hour,Minute]
1156,11,HEATING_RESISTANCE_BACKUP,Heating Coil Electricity Energy [J] !RunPeriod [Value,Min,Month,Day,Hour,Minute,Max,Month,Day,Hour,Minute]
1292,11,WATER HEATER,Water Heater Heat Loss Energy [J] !RunPeriod [Value,Min,Month,Day,Hour,Minute,Max,Month,Day,Hour,Minute]
1306,11,WATER HEATER,Water Heater Heating Energy [J] !RunPeriod [Value,Min,Month,Day,Hour,Minute,Max,Month,Day,Hour,Minute]
1307,11,WATER HEATER,Water Heater Unmet Demand Heat Transfer Energy [J] !RunPeriod [Value,Min,Month,Day,Hour,Minute,Max,Month,Day,Hour,Minute]
1308,11,WATER HEATER,Water Heater Electricity Energy [J] !RunPeriod [Value,Min,Month,Day,Hour,Minute,Max,Month,Day,Hour,Minute]
13,11,Electricity:Facility [J] !RunPeriod [Value,Min,Month,Day,Hour,Minute,Max,Month,Day,Hour,Minute]
1134,11,Heating:Electricity [J] !RunPeriod [Value,Min,Month,Day,Hour,Minute,Max,Month,Day,Hour,Minute]
1096,11,Cooling:Electricity [J] !RunPeriod [Value,Min,Month,Day,Hour,Minute,Max,Month,Day,Hour,Minute]
562,11,Fans:Electricity [J] !RunPeriod [Value,Min,Month,Day,Hour,Minute,Max,Month,Day,Hour,Minute]
1379,11,Pumps:Electricity [J] !RunPeriod [Value,Min,Month,Day,Hour,Minute,Max,Month,Day,Hour,Minute]
1326,11,WaterSystems:Electricity [J] !RunPeriod [Value,Min,Month,Day,Hour,Minute,Max,Month,Day,Hour,Minute]
61,11,InteriorLights:Electricity [J] !RunPeriod [Value,Min,Month,Day,Hour,Minute,Max,Month,Day,Hour,Minute]
1046,11,ExteriorLights:Electricity [J] !RunPeriod [Value,Min,Month,Day,Hour,Minute,Max,Month,Day,Hour,Minute]
134,11,InteriorEquipment:Electricity [J] !RunPeriod [Value,Min,Month,Day,Hour,Minute,Max,Month,Day,Hour,Minute]
170,11,gas_dryer:InteriorEquipment:Electricity [J] !RunPeriod [Value,Min,Month,Day,Hour,Minute,Max,Month,Day,Hour,Minute]
207,11,clotheswasher:InteriorEquipment:Electricity [J] !RunPeriod [Value,Min,Month,Day,Hour,Minute,Max,Month,Day,Hour,Minute]
244,11,dishwasher:InteriorEquipment:Electricity [J] !RunPeriod [Value,Min,Month,Day,Hour,Minute,Max,Month,Day,Hour,Minute]
281,11,refrigerator:InteriorEquipment:Electricity [J] !RunPeriod [Value,Min,Month,Day,Hour,Minute,Max,Month,Day,Hour,Minute]
318,11,electric_mels:InteriorEquipment:Electricity [J] !RunPeriod [Value,Min,Month,Day,Hour,Minute,Max,Month,Day,Hour,Minute]
355,11,NaturalGas:Facility [J] !RunPeriod [Value,Min,Month,Day,Hour,Minute,Max,Month,Day,Hour,Minute]
403,11,InteriorEquipment:NaturalGas [J] !RunPeriod [Value,Min,Month,Day,Hour,Minute,Max,Month,Day,Hour,Minute]
476,11,gas_dryer:InteriorEquipment:NaturalGas [J] !RunPeriod [Value,Min,Month,Day,Hour,Minute,Max,Month,Day,Hour,Minute]
513,11,gas_mels:InteriorEquipment:NaturalGas [J] !RunPeriod [Value,Min,Month,Day,Hour,Minute,Max,Month,Day,Hour,Minute]
End of Data Dictionary
1,EXTREME_WINTER,  41.17, -73.13,  -5.00,   5.00
5,7
1038,1.25,0.0, 1, 8, 1,15,0.25, 1, 9, 6,15
1039,0.0,0.0, 1, 8, 1,15,0.0, 1, 8, 1,15
581,0.35995240841156717,0.19600100925914804, 1,14,23,22,0.6481420664679771, 1,12,19,60
582,3.3462512415302967,0.0, 1, 8, 1,52,11.016103388548883, 1,12,19,52
583,0.0471147609526397,0.0003344350510671487, 1,14,17,60,0.0648965301681128, 1,12,19,37
1115,1708852731.913948,0.0, 1, 8,23, 5,3521199.7385434355, 1,12, 1,60
1128,566317655.7586352,0.0, 1, 8,23, 5,1096780.777959005, 1,12,20,15
1153,5431664.6841016,0.0, 1, 8,23, 5,60167.10459838924, 1, 8, 8,60
1154,24782230.685331587,0.0, 1, 8, 1, 7,180000.0, 1,14,13,60
1155,568998564.2803696,0.0, 1, 8, 1,37,4385614.454745208, 1,10, 6,45
1156,568998564.2803696,0.0, 1, 8, 1,37,4385614.454745208, 1,10, 6,45
1292,-25387893.523547422,-39769.665148983695, 1,11, 4,30,-5336.243289282654, 1,14,11,29
1306,127636888.33428623,0.0, 1, 8, 1, 7,4050000.0, 1, 8, 7,15
1307,24847866.6053934,0.0, 1, 8, 1, 7,7390760.22344879, 1, 8, 6,60
1308,127636888.33428623,0.0, 1, 8, 1, 7,4050000.0, 1, 8, 7,15
13,1725290389.6417592,458150.8545527997, 1,14,15,45,9323903.87480826, 1,10, 8,60
61,301924526.02383536,88139.10953165221, 1, 8, 1,15,1282023.4113694867, 1, 8,20,15
134,70666020.44019976,63564.01800854099, 1, 8, 4,15,156554.22484006523, 1,13,20,15
170,5241013.419656067,348.4159749238097, 1, 8, 4,15,17476.39704006126, 1,13,12,15
207,6509451.13922267,815.2532113832032, 1, 8, 3,15,22990.642799023623, 1,13,10,15
244,12749673.399825225,1521.856143006317, 1, 8, 4,15,53038.631142310165, 1,13,20,15
281,46165882.481495745,59938.60262432081, 1, 8, 5,15,81951.81706819107, 1, 8,19,15
318,0.0,0.0, 1, 8, 1,15,0.0, 1, 8, 1,15
355,197687796.27748066,18561.32405820678, 1, 8, 4,15,724774.895203776, 1,13,18,15
403,197687796.27748066,18561.32405820678, 1, 8, 4,15,724774.895203776, 1,13,18,15
476,106772067.24485716,7098.072629279515, 1, 8, 4,15,356036.3026282215, 1,13,12,15
513,0.0,0.0, 1, 8, 1,15,0.0, 1, 8, 1,15
562,59532839.43500161,0.0, 1,14,13,60,111490.42393260148, 1, 8, 1,15
1046,0.0,0.0, 1, 8, 1,15,0.0, 1, 8, 1,15
1096,0.0,0.0, 1, 8, 1,15,0.0, 1, 8, 1,15
1134,1165530115.408437,180000.0, 1,14,13,60,5530837.896787067, 1,10, 6,30
1326,127636888.3342862,0.0, 1, 8, 1,15,4050000.0, 1, 8, 7,15
1379,0.0,0.0, 1, 8, 1,15,0.0, 1, 8, 1,15
1,EXTREME_SUMMER,  41.17, -73.13,  -5.00,   5.00
5,7
1038,0.0,0.0, 8, 5, 1,15,0.0, 8, 5, 1,15
1039,39.75,0.0, 8, 5, 1,15,0.25, 8, 5,13,30
581,0.1393748827522645,0.0, 8, 5, 3,52,0.43598012035974354, 8, 6,18,52
582,3.172613434408614,0.013755250016045825, 8,10,20, 9,12.126900662676283, 8, 5,16,50
583,0.031778773657786794,0.0, 8,10,23, 3,0.05859990105879885, 8, 6,18,48
1115,0.0,0.0, 8, 5, 1,15,0.0, 8, 5, 1,15
1128,0.0,0.0, 8, 5, 1,15,0.0, 8, 5, 1,15
1153,0.0,0.0, 8, 5, 1,15,0.0, 8, 5, 1,15
1154,0.0,0.0, 8, 5, 1,15,0.0, 8, 5, 1,15
1155,0.0,0.0, 8, 5, 1,15,0.0, 8, 5, 1,15
1156,0.0,0.0, 8, 5, 1,15,0.0, 8, 5, 1,15
1292,-21930324.97248771,-34347.397070648214, 8,10, 6,45,-3298.936283299953, 8, 5, 9,60
1306,96078988.33414106,0.0, 8, 5, 1,15,4050000.0, 8, 5, 7,15
1307,10979852.416094825,0.0, 8, 5, 1,15,4205477.332876981, 8, 5, 6,60
1308,96078988.33414106,0.0, 8, 5, 1,15,4050000.0, 8, 5, 7,15
13,920208335.6992729,151703.1275401932, 8, 7, 4,15,5474924.34254391, 8,11,13,60
61,301924526.02383536,88139.10953165221, 8, 5, 1,15,1282023.4113694867, 8, 5,20,15
134,70666020.44019976,63564.01800854099, 8, 5, 4,15,156554.22484006523, 8,10,20,15
170,5241013.419656067,348.4159749238097, 8, 5, 4,15,17476.39704006126, 8,10,12,15
207,6509451.13922267,815.2532113832032, 8, 5, 3,15,22990.642799023623, 8,10,10,15
244,12749673.399825225,1521.856143006317, 8, 5, 4,15,53038.631142310165, 8,10,20,15
281,46165882.481495745,59938.60262432081, 8, 5, 5,15,81951.81706819107, 8, 5,19,15
318,0.0,0.0, 8, 5, 1,15,0.0, 8, 5, 1,15
355,197687796.27748066,18561.32405820678, 8, 5, 4,15,724774.895203776, 8,10,18,15
403,197687796.27748066,18561.32405820678, 8, 5, 4,15,724774.895203776, 8,10,18,15
476,106772067.24485716,7098.072629279515, 8, 5, 4,15,356036.3026282215, 8,10,12,15
513,0.0,0.0, 8, 5, 1,15,0.0, 8, 5, 1,15
562,44100809.89869774,0.0, 8, 7, 2,60,111490.42393260148, 8, 5,12,60
1046,0.0,0.0, 8, 5, 1,15,0.0, 8, 5, 1,15
1096,407437991.0023998,0.0, 8, 7, 2,60,1190580.5793723408, 8, 5,15,60
1134,0.0,0.0, 8, 5, 1,15,0.0, 8, 5, 1,15
1326,96078988.33414105,0.0, 8, 5, 1,15,4050000.0, 8, 5, 7,15
1379,0.0,0.0, 8, 5, 1,15,0.0, 8, 5, 1,15
1,ANNUAL,  41.17, -73.13,  -5.00,   5.00
5,365
1038,67.0,0.0, 1, 1, 1,15,0.25, 1, 3, 6,15
1039,413.75,0.0, 1, 1, 1,15,0.25, 4,20,11,60
581,0.26146557492943645,0.0, 6, 8,21,50,1.1565825883825414, 2,12,10,60
582,4.549432078986484,0.0, 1, 8, 1,60,29.91766144531759, 2,12,10,60
583,0.02406867286848653,0.0, 6,25,23, 5,0.07185651407865307,10,29,20,60
1115,25011305920.673794,0.0, 1, 1,23, 5,3965698.0653883107, 2,13, 6,45
1128,7635204021.020352,0.0, 1, 1,23, 5,1152154.7863422069,11,25, 6,60
1153,188298146.84747437,0.0, 1, 1,23, 5,121158.44425740506, 2,19, 6,60
1154,1468731560.6904538,0.0, 1, 1, 6, 5,180000.0, 1, 6,15,60
1155,4329791793.496551,0.0, 1, 1, 1,15,4520446.745846875, 1, 3, 6,15
1156,4329791793.496551,0.0, 1, 1, 1,15,4520446.745846875, 1, 3, 6,15
1292,-1232476931.351656,-40903.41728538347, 1,18, 6,15,-2729.7608479711134, 4,18,12,45
1306,5947463094.932825,0.0, 1, 1, 1,15,4050000.0, 1, 2, 7,15
1307,965282222.636086,0.0, 1, 1, 1,15,7648826.307035621, 2, 6, 6,60
1308,5947463094.932825,0.0, 1, 1, 1,15,4050000.0, 1, 2, 7,15
13,47257528771.7722,151703.1275401932, 4,12, 4,15,10354311.933693584, 1,30, 7,15
61,15743207428.383959,88139.10953165221, 1, 1, 1,15,1282023.4113694867, 1, 1,20,15
134,3685071073.4325233,63564.01800854099, 1, 2, 4,15,156554.22484006523, 1, 1,20,15
170,273393721.45532674,348.4159749238097, 1, 2, 4,15,17476.39704006126, 1, 1,12,15
207,339560869.0695816,815.2532113832032, 1, 2, 3,15,22990.642799023623, 1, 1,10,15
244,664895467.8009144,1521.856143006317, 1, 2, 4,15,53038.631142310165, 1, 1,20,15
281,2407221015.106824,59938.60262432081, 1, 1, 5,15,81951.81706819107, 1, 1,19,15
318,0.0,0.0, 1, 1, 1,15,0.0, 1, 1, 1,15
355,10310294493.051695,18561.32405820678, 1, 2, 4,15,724774.895203776, 1, 1,18,15
403,10310294493.051695,18561.32405820678, 1, 2, 4,15,724774.895203776, 1, 1,18,15
476,5569688622.066177,7098.072629279515, 1, 2, 4,15,356036.3026282215, 1, 1,12,15
513,0.0,0.0, 1, 1, 1,15,0.0, 1, 1, 1,15
562,1561774891.9664166,0.0, 1, 1,23,15,111490.42393260148, 1, 1, 6,45
1046,0.0,0.0, 1, 1, 1,15,0.0, 1, 1, 1,15
1096,6697986760.999513,0.0, 1, 1, 1,15,1205304.973211266, 8,31,15,60
1134,13622025522.054794,0.0, 2, 8,13,30,5577060.533154743, 1, 3, 9,60
1326,5947463094.932818,0.0, 1, 1, 1,15,4050000.0, 1, 2, 7,15
1379,0.0,0.0, 1, 1, 1,15,0.0, 1, 1, 1,15
End of Data
 Number of Records Written=          99
