Program Version,EnergyPlus, Version 22.2.0-c249759bad, YMD=2023.09.01 20:18
1,5,Environment Title[],Latitude[deg],Longitude[deg],Time Zone[],Elevation[m]
2,8,Day of Simulation[],Month[],Day of Month[],DST Indicator[1=yes 0=no],Hour[],StartMinute[],EndMinute[],DayType
3,5,Cumulative Day of Simulation[],Month[],Day of Month[],DST Indicator[1=yes 0=no],DayType  ! When Daily Report Variables Requested
4,2,Cumulative Days of Simulation[],Month[]  ! When Monthly Report Variables Requested
5,1,Cumulative Days of Simulation[] ! When Run Period Report Variables Requested
6,1,Calendar Year of Simulation[] ! When Annual Report Variables Requested
581,11,LIVING,AFN Zone Infiltration Air Change Rate [ach] !RunPeriod [Value,Min,Month,Day,Hour,Minute,Max,Month,Day,Hour,Minute]
582,11,ATTIC,AFN Zone Infiltration Air Change Rate [ach] !RunPeriod [Value,Min,Month,Day,Hour,Minute,Max,Month,Day,Hour,Minute]
583,11,CRAWLSPACE,AFN Zone Infiltration Air Change Rate [ach] !RunPeriod [Value,Min,Month,Day,Hour,Minute,Max,Month,Day,Hour,Minute]
1038,11,Facility,Facility Heating Setpoint Not Met Time [hr] !RunPeriod [Value,Min,Month,Day,Hour,Minute,Max,Month,Day,Hour,Minute]
1039,11,Facility,Facility Cooling Setpoint Not Met Time [hr] !RunPeriod [Value,Min,Month,Day,Hour,Minute,Max,Month,Day,Hour,Minute]
1115,11,DX_HEATING_COIL,Heating Coil Heating Energy [J] !RunPeriod [Value,Min,Month,Day,Hour,Minute,Max,Month,Day,Hour,Minute]
1128,11,DX_HEATING_COIL,Heating Coil Electricity Energy [J] !RunPeriod [Value,Min,Month,Day,Hour,Minute,Max,Month,Day,Hour,Minute]
1153,11,DX_HEATING_COIL,Heating Coil Defrost Electricity Energy [J] !RunPeriod [Value,Min,Month,Day,Hour,Minute,Max,Month,Day,Hour,Minute]
1154,11,DX_HEATING_COIL,Heating Coil Crankcase Heater Electricity Energy [J] !RunPeriod [Value,Min,Month,Day,Hour,Minute,Max,Month,Day,Hour,Minute]
1155,11,HEATING_RESISTANCE_BACKUP,Heating Coil Heating Energy [J] !RunPeriod [Value,Min,Month,Day,Hour,Minute,Max,Month,Day,Hour,Minute]
1156,11,HEATING_RESISTANCE_BACKUP,Heating Coil Electricity Energy [J] !RunPeriod [Value,Min,Month,Day,Hour,Minute,Max,Month,Day,Hour,Minute]
1292,11,WATER HEATER,Water Heater Heat Loss Energy [J] !RunPeriod [Value,Min,Month,Day,Hour,Minute,Max,Month,Day,Hour,Minute]
1306,11,WATER HEATER,Water Heater Heating Energy [J] !RunPeriod [Value,Min,Month,Day,Hour,Minute,Max,Month,Day,Hour,Minute]
1307,11,WATER HEATER,Water Heater Unmet Demand Heat Transfer Energy [J] !RunPeriod [Value,Min,Month,Day,Hour,Minute,Max,Month,Day,Hour,Minute]
1308,11,WATER HEATER,Water Heater Electricity Energy [J] !RunPeriod [Value,Min,Month,Day,Hour,Minute,Max,Month,Day,Hour,Minute]
13,11,Electricity:Facility [J] !RunPeriod [Value,Min,Month,Day,Hour,Minute,Max,Month,Day,Hour,Minute]
1134,11,Heating:Electricity [J] !RunPeriod [Value,Min,Month,Day,Hour,Minute,Max,Month,Day,Hour,Minute]
1096,11,Cooling:Electricity [J] !RunPeriod [Value,Min,Month,Day,Hour,Minute,Max,Month,Day,Hour,Minute]
562,11,Fans:Electricity [J] !RunPeriod [Value,Min,Month,Day,Hour,Minute,Max,Month,Day,Hour,Minute]
1379,11,Pumps:Electricity [J] !RunPeriod [Value,Min,Month,Day,Hour,Minute,Max,Month,Day,Hour,Minute]
1326,11,WaterSystems:Electricity [J] !RunPeriod [Value,Min,Month,Day,Hour,Minute,Max,Month,Day,Hour,Minute]
61,11,InteriorLights:Electricity [J] !RunPeriod [Value,Min,Month,Day,Hour,Minute,Max,Month,Day,Hour,Minute]
1046,11,ExteriorLights:Electricity [J] !RunPeriod [Value,Min,Month,Day,Hour,Minute,Max,Month,Day,Hour,Minute]
134,11,InteriorEquipment:Electricity [J] !RunPeriod [Value,Min,Month,Day,Hour,Minute,Max,Month,Day,Hour,Minute]
170,11,gas_dryer:InteriorEquipment:Electricity [J] !RunPeriod [Value,Min,Month,Day,Hour,Minute,Max,Month,Day,Hour,Minute]
207,11,clotheswasher:InteriorEquipment:Electricity [J] !RunPeriod [Value,Min,Month,Day,Hour,Minute,Max,Month,Day,Hour,Minute]
244,11,dishwasher:InteriorEquipment:Electricity [J] !RunPeriod [Value,Min,Month,Day,Hour,Minute,Max,Month,Day,Hour,Minute]
281,11,refrigerator:InteriorEquipment:Electricity [J] !RunPeriod [Value,Min,Month,Day,Hour,Minute,Max,Month,Day,Hour,Minute]
318,11,electric_mels:InteriorEquipment:Electricity [J] !RunPeriod [Value,Min,Month,Day,Hour,Minute,Max,Month,Day,Hour,Minute]
355,11,NaturalGas:Facility [J] !RunPeriod [Value,Min,Month,Day,Hour,Minute,Max,Month,Day,Hour,Minute]
403,11,InteriorEquipment:NaturalGas [J] !RunPeriod [Value,Min,Month,Day,Hour,Minute,Max,Month,Day,Hour,Minute]
476,11,gas_dryer:InteriorEquipment:NaturalGas [J] !RunPeriod [Value,Min,Month,Day,Hour,Minute,Max,Month,Day,Hour,Minute]
513,11,gas_mels:InteriorEquipment:NaturalGas [J] !RunPeriod [Value,Min,Month,Day,Hour,Minute,Max,Month,Day,Hour,Minute]
End of Data Dictionary
1,EXTREME_WINTER,  38.05, -87.53,  -6.00, 121.90
5,7
1038,1.0,0.0, 1, 8, 1,15,0.25, 1, 8, 6,15
1039,0.0,0.0, 1, 8, 1,15,0.0, 1, 8, 1,15
581,0.3931310895157238,0.17413946417436568, 1,11,23,15,0.8125855428952901, 1, 8,21,60
582,3.551145181042019,0.0, 1,10,24,60,15.577478173521104, 1, 8,23,60
583,0.05500557271040466,0.000291915550131084, 1,11,23, 5,0.07954370684841415, 1, 8,21,60
1115,1889224852.721566,0.0, 1, 8,23, 5,4189113.749383617, 1,11, 6,60
1128,632145159.0147754,0.0, 1, 8,23, 5,1296853.0787669595, 1,11, 6,45
1153,11669736.648201305,0.0, 1, 8,23, 5,98085.29825902823, 1,12, 6,45
1154,27552156.110258482,0.0, 1, 8, 1, 3,180000.0, 1,10,15,45
1155,488026082.85592073,0.0, 1, 8,23, 5,4904749.972066221, 1, 8, 6,45
1156,488026082.85592073,0.0, 1, 8,23, 5,4904749.972066221, 1, 8, 6,45
1292,-25405800.23995193,-39762.875319776256, 1, 9, 5,60,-7398.490650489691, 1,14,12,60
1306,123472615.20146307,0.0, 1, 8, 1, 3,4050000.0, 1, 8, 7,15
1307,22535906.034344353,0.0, 1, 8, 1, 3,6915403.474701774, 1, 8, 6,60
1308,123472615.20146307,0.0, 1, 8, 1, 3,4050000.0, 1, 8, 7,15
13,1723590637.2462761,452017.0388981225, 1,10,15,45,10805708.595423292, 1, 8, 7,15
61,301924526.02383536,88139.10953165221, 1, 8, 1,15,1282023.4113694867, 1, 8,20,15
134,70666020.44019976,63564.01800854099, 1, 8, 4,15,156554.22484006523, 1,13,20,15
170,5241013.419656067,348.4159749238097, 1, 8, 4,15,17476.39704006126, 1,13,12,15
207,6509451.13922267,815.2532113832032, 1, 8, 3,15,22990.642799023623, 1,13,10,15
244,12749673.399825225,1521.856143006317, 1, 8, 4,15,53038.631142310165, 1,13,20,15
281,46165882.481495745,59938.60262432081, 1, 8, 5,15,81951.81706819107, 1, 8,19,15
318,0.0,0.0, 1, 8, 1,15,0.0, 1, 8, 1,15
355,197687796.27748066,18561.32405820678, 1, 8, 4,15,724774.895203776, 1,13,18,15
403,197687796.27748066,18561.32405820678, 1, 8, 4,15,724774.895203776, 1,13,18,15
476,106772067.24485716,7098.072629279515, 1, 8, 4,15,356036.3026282215, 1,13,12,15
513,0.0,0.0, 1, 8, 1,15,0.0, 1, 8, 1,15
562,68134340.95162214,0.0, 1,10,15,45,131498.30090760655, 1, 8, 1,15
1046,0.0,0.0, 1, 8, 1,15,0.0, 1, 8, 1,15
1096,0.0,0.0, 1, 8, 1,15,0.0, 1, 8, 1,15
1134,1159393134.6291542,180000.0, 1,10,15,45,6046796.1989144515, 1,10, 6,15
1326,123472615.20146307,0.0, 1, 8, 1,15,4050000.0, 1, 8, 7,15
1379,0.0,0.0, 1, 8, 1,15,0.0, 1, 8, 1,15
1,EXTREME_SUMMER,  38.05, -87.53,  -6.00, 121.90
5,7
1038,0.0,0.0, 7,15, 1,15,0.0, 7,15, 1,15
1039,46.0,0.0, 7,15, 1,15,0.25, 7,15,14,30
581,0.05876552413269354,0.0, 7,15, 6,50,0.33065390690505037, 7,21,15,50
582,1.8509564913586753,0.0, 7,15,20,52,7.722478963011565, 7,21, 9,52
583,0.03948338995991264,0.0, 7,16, 6, 7,0.0664474632624197, 7,21, 6, 3
1115,0.0,0.0, 7,15, 1, 7,0.0, 7,15, 1, 7
1128,0.0,0.0, 7,15, 1, 7,0.0, 7,15, 1, 7
1153,0.0,0.0, 7,15, 1, 7,0.0, 7,15, 1, 7
1154,0.0,0.0, 7,15, 1, 7,0.0, 7,15, 1, 7
1155,0.0,0.0, 7,15, 1, 7,0.0, 7,15, 1, 7
1156,0.0,0.0, 7,15, 1, 7,0.0, 7,15, 1, 7
1292,-21757717.21116472,-34322.73158465207, 7,15, 6,45,-2924.002330004145, 7,16, 8,34
1306,90514221.30992045,0.0, 7,15, 1, 7,4014869.7999253273, 7,20,10,30
1307,8319284.523392341,0.0, 7,15, 1, 7,1447279.8919268504, 7,15, 6,55
1308,90514221.30992045,0.0, 7,15, 1, 7,4014869.7999253273, 7,20,10,30
13,1039024477.2545664,174728.0482643399, 7,15, 4,60,6539304.377660664, 7,15,19,30
61,301924526.02383536,88139.10953165221, 7,15, 1,15,1282023.4113694867, 7,15,20,15
134,70666020.44019976,63564.01800854099, 7,15, 4,15,156554.22484006523, 7,20,20,15
170,5241013.419656067,348.4159749238097, 7,15, 4,15,17476.39704006126, 7,20,12,15
207,6509451.13922267,815.2532113832032, 7,15, 3,15,22990.642799023623, 7,20,10,15
244,12749673.399825225,1521.856143006317, 7,15, 4,15,53038.631142310165, 7,20,20,15
281,46165882.481495745,59938.60262432081, 7,15, 5,15,81951.81706819107, 7,15,19,15
318,0.0,0.0, 7,15, 1,15,0.0, 7,15, 1,15
355,197687796.27748066,18561.32405820678, 7,15, 4,15,724774.895203776, 7,20,18,15
403,197687796.27748066,18561.32405820678, 7,15, 4,15,724774.895203776, 7,20,18,15
476,106772067.24485716,7098.072629279515, 7,15, 4,15,356036.3026282215, 7,20,12,15
513,0.0,0.0, 7,15, 1,15,0.0, 7,15, 1,15
562,54319176.63542351,1411.0160609761588, 7,21,23,15,131498.30090760655, 7,15,13,45
1046,0.0,0.0, 7,15, 1,15,0.0, 7,15, 1,15
1096,521600532.8451867,11816.347545443763, 7,21,23,15,1394357.820873679, 7,19,14,60
1134,0.0,0.0, 7,15, 1,15,0.0, 7,15, 1,15
1326,90514221.30992045,0.0, 7,15, 1,15,4050000.0, 7,15, 7,15
1379,0.0,0.0, 7,15, 1,15,0.0, 7,15, 1,15
1,ANNUAL,  38.05, -87.53,  -6.00, 121.90
5,365
1038,12.25,0.0, 1, 1, 1,15,0.25, 1, 2, 6,15
1039,517.5,0.0, 1, 1, 1,15,0.25, 3, 4,15,15
581,0.21292381831079205,0.0, 5, 7,23, 3,1.216863612716059, 2,11,15,60
582,3.2810015531971644,0.0, 1, 3, 2,60,27.096873871358653, 2,11,15,60
583,0.02663468164888202,0.0, 5, 8,23, 5,0.08146087223339131, 2, 3,12,60
1115,18916091446.596436,0.0, 1, 1,23, 5,4352786.478118934, 1,30, 6,45
1128,5900854835.975611,0.0, 1, 1,23, 5,1303818.528551658, 3, 4, 6,60
1153,201670395.89974517,0.0, 1, 1,23, 5,108660.00122772354, 1,12, 6,45
1154,1350175632.037873,0.0, 1, 1, 4,45,180000.0, 1,10,16,15
1155,2026265036.032165,0.0, 1, 1, 1,15,4904749.972066221, 1, 8, 6,15
1156,2026265036.032165,0.0, 1, 1, 1,15,4904749.972066221, 1, 8, 6,15
1292,-1216945024.9986875,-39801.4063185437,11, 5, 4,45,-2160.3900510874664, 8,20,14,60
1306,5648022993.020394,0.0, 1, 1, 1,15,4050000.0, 1, 2, 7,15
1307,828656496.8134935,0.0, 1, 1, 1,15,7124531.94924688, 2, 6, 6,60
1308,5648022993.020394,0.0, 1, 1, 1,15,4050000.0, 1, 2, 7,15
13,46130146985.174934,151703.1275401932, 2, 8, 4,15,9965100.13135042, 1,10, 7,30
61,15743207428.383959,88139.10953165221, 1, 1, 1,15,1282023.4113694867, 1, 1,20,15
134,3685071073.4325233,63564.01800854099, 1, 2, 4,15,156554.22484006523, 1, 1,20,15
170,273393721.45532674,348.4159749238097, 1, 2, 4,15,17476.39704006126, 1, 1,12,15
207,339560869.0695816,815.2532113832032, 1, 2, 3,15,22990.642799023623, 1, 1,10,15
244,664895467.8009144,1521.856143006317, 1, 2, 4,15,53038.631142310165, 1, 1,20,15
281,2407221015.106824,59938.60262432081, 1, 1, 5,15,81951.81706819107, 1, 1,19,15
318,0.0,0.0, 1, 1, 1,15,0.0, 1, 1, 1,15
355,10310294493.051695,18561.32405820678, 1, 2, 4,15,724774.895203776, 1, 1,18,15
403,10310294493.051695,18561.32405820678, 1, 2, 4,15,724774.895203776, 1, 1,18,15
476,5569688622.066177,7098.072629279515, 1, 2, 4,15,356036.3026282215, 1, 1,12,15
513,0.0,0.0, 1, 1, 1,15,0.0, 1, 1, 1,15
562,1738982014.7763722,0.0, 1, 1,23,15,131498.30090760655, 1, 1, 4,60
1046,0.0,0.0, 1, 1, 1,15,0.0, 1, 1, 1,15
1096,9835897575.61437,0.0, 1, 1, 1,15,1437921.9566905235, 8,31,15,60
1134,9478965899.945393,0.0, 1, 3,19,30,6068805.196640788, 2, 4, 6,30
1326,5648022993.020395,0.0, 1, 1, 1,15,4050000.0000000014, 9, 6, 9,15
1379,0.0,0.0, 1, 1, 1,15,0.0, 1, 1, 1,15
End of Data
 Number of Records Written=          99
