Program Version,EnergyPlus, Version 22.2.0-c249759bad, YMD=2023.09.01 14:30
1,5,Environment Title[],Latitude[deg],Longitude[deg],Time Zone[],Elevation[m]
2,8,Day of Simulation[],Month[],Day of Month[],DST Indicator[1=yes 0=no],Hour[],StartMinute[],EndMinute[],DayType
3,5,Cumulative Day of Simulation[],Month[],Day of Month[],DST Indicator[1=yes 0=no],DayType  ! When Daily Report Variables Requested
4,2,Cumulative Days of Simulation[],Month[]  ! When Monthly Report Variables Requested
5,1,Cumulative Days of Simulation[] ! When Run Period Report Variables Requested
6,1,Calendar Year of Simulation[] ! When Annual Report Variables Requested
7,1,Environment,Site Outdoor Air Drybulb Temperature [C] !Hourly
619,1,DX_HEATING_COIL,Heating Coil Heating Rate [W] !Hourly
633,1,DX_HEATING_COIL,Heating Coil Electricity Rate [W] !Hourly
659,1,DX_HEATING_COIL,Heating Coil Defrost Electricity Rate [W] !Hourly
661,1,DX_HEATING_COIL,Heating Coil Crankcase Heater Electricity Rate [W] !Hourly
690,1,FAN,Fan Electricity Rate [W] !Hourly
716,1,HEAT PUMP WATER HEATER FAN,Fan Electricity Rate [W] !Hourly
718,1,LIVING,Zone Mean Air Temperature [C] !Hourly
719,1,ATTIC,Zone Mean Air Temperature [C] !Hourly
720,1,CRAWLSPACE,Zone Mean Air Temperature [C] !Hourly
843,1,LIVING,Zone Predicted Sensible Load to Heating Setpoint Heat Transfer Rate [W] !Hourly
844,1,LIVING,Zone System Predicted Sensible Load to Heating Setpoint Heat Transfer Rate [W] !Hourly
907,1,ATTIC,Zone Predicted Sensible Load to Heating Setpoint Heat Transfer Rate [W] !Hourly
908,1,ATTIC,Zone System Predicted Sensible Load to Heating Setpoint Heat Transfer Rate [W] !Hourly
971,1,CRAWLSPACE,Zone Predicted Sensible Load to Heating Setpoint Heat Transfer Rate [W] !Hourly
972,1,CRAWLSPACE,Zone System Predicted Sensible Load to Heating Setpoint Heat Transfer Rate [W] !Hourly
1195,1,HEATING_RESISTANCE_BACKUP,Heating Coil Heating Rate [W] !Hourly
1197,1,HEATING_RESISTANCE_BACKUP,Heating Coil Electricity Rate [W] !Hourly
End of Data Dictionary
1,EXTREME_WINTER,  32.54, -93.75,  -6.00,  55.00
2,1, 1,29, 0, 1, 0.00,60.00,Monday
7,-2.8
718,18.718715867409973
719,-1.6911888489265938
720,19.321442377004217
619,0.0
633,0.0
659,0.0
661,200.0
690,0.0
716,0.0
843,-85.39684408174617
844,-85.39684408174617
907,0.0
908,0.0
971,0.0
972,0.0
1195,0.0
1197,0.0
2,1, 1,29, 0, 2, 0.00,60.00,Monday
7,-3.3
718,18.543912651622314
719,-2.804036267182958
720,18.971167560096468
619,895.020110506055
633,315.5670544286783
659,20.572235436366533
661,154.61557620051622
690,33.81972671295714
716,0.0
843,618.3132553370287
844,618.3132553370287
907,0.0
908,0.0
971,0.0
972,0.0
1195,0.0
1197,0.0
2,1, 1,29, 0, 3, 0.00,60.00,Monday
7,-3.9
718,18.49789359949774
719,-3.461760637766158
720,18.781465239710982
619,1627.7692217311198
633,566.3227324771356
659,35.929580792766984
661,118.05991361036656
690,61.02961979561067
716,0.0
843,1095.0096445614718
844,1095.0096445614718
907,0.0
908,0.0
971,0.0
972,0.0
1195,0.0
1197,0.0
2,1, 1,29, 0, 4, 0.00,60.00,Monday
7,-3.9
718,18.53102143951343
719,-3.7101501837026456
720,18.568913175976572
619,2305.0009336223884
633,786.0015430110915
659,49.91627472217348
661,86.14143788493122
690,84.80339482310907
716,0.0
843,1528.956072697316
844,1528.956072697316
907,0.0
908,0.0
971,0.0
972,0.0
1195,0.0
1197,0.0
2,1, 1,29, 0, 5, 0.00,60.00,Monday
7,-4.0
718,18.52484162865029
719,-2.405875249897986
720,18.37738875733692
619,2908.905120549629
633,978.9147435451349
659,67.61455025759432
661,57.15171012733704
690,106.24071536513813
716,0.0
843,1908.6558603622962
844,1908.6558603622962
907,0.0
908,0.0
971,0.0
972,0.0
1195,0.0
1197,0.0
2,1, 1,29, 0, 6, 0.00,60.00,Monday
7,-5.0
718,19.19613804887517
719,-1.4955667590770003
720,18.161728770271413
619,4201.109369789631
633,1370.4194931914594
659,85.79050107935798
661,0.0
690,151.15967594630104
716,0.0
843,3296.832383218134
844,3296.832383218134
907,0.0
908,0.0
971,0.0
972,0.0
1195,611.0081923776174
1197,611.0081923776174
2,1, 1,29, 0, 7, 0.00,60.00,Monday
7,-4.4
718,19.492645729564757
719,-1.0147160003631976
720,18.047460922533016
619,4274.468168197538
633,1400.5758145461682
659,82.00281018336652
661,0.0
690,151.15967594630104
716,85.44000000000005
843,3317.3210358891447
844,3317.3210358891447
907,0.0
908,0.0
971,0.0
972,0.0
1195,1804.348221571986
1197,1804.348221571986
2,1, 1,29, 0, 8, 0.00,60.00,Monday
7,-3.9
718,19.626110687959983
719,-0.04988295047260521
720,17.908001286906444
619,4276.144360703178
633,1397.237591648621
659,94.538161185784
661,0.0
690,151.15967594630104
716,54.44605445243947
843,3135.222824742894
844,3135.222824742894
907,0.0
908,0.0
971,0.0
972,0.0
1195,1185.5739642310841
1197,1185.5739642310841
2,1, 1,29, 0, 9, 0.00,60.00,Monday
7,-3.0
718,19.69336334125352
719,0.8713853129233504
720,17.78240473760634
619,4345.764702636724
633,1399.1847932023684
659,103.30792456300303
661,0.0
690,151.15967594630104
716,0.0
843,2942.6425558048522
844,2942.6425558048522
907,0.0
908,0.0
971,0.0
972,0.0
1195,11.519978692287623
1197,11.519978692287623
2,1, 1,29, 0,10, 0.00,60.00,Monday
7,-3.0
718,19.731177644801676
719,4.033016966947814
720,17.660457551384088
619,3956.358564633105
633,1306.893607144228
659,96.372782715415
661,13.426156564317736
690,138.80404961080677
716,0.0
843,2698.5209177535544
844,2698.5209177535544
907,0.0
908,0.0
971,0.0
972,0.0
1195,0.0
1197,0.0
2,1, 1,29, 0,11, 0.00,60.00,Monday
7,-2.0
718,19.760734696923347
719,5.957062385235052
720,17.55945332448631
619,3309.697607423392
633,1092.619173642201
659,87.78322376887697
661,44.01207970004746
690,116.11329481100506
716,0.0
843,2372.6537629277536
844,2372.6537629277536
907,0.0
908,0.0
971,0.0
972,0.0
1195,0.0
1197,0.0
2,1, 1,29, 0,12, 0.00,60.00,Monday
7,0.0
718,19.82909751738785
719,10.723214063983209
720,17.47929250077499
619,2010.843142665843
633,661.4377994403479
659,51.361103987846896
661,107.40213468701441
690,69.21046570724049
716,0.0
843,1490.7571761604413
844,1490.7571761604413
907,0.0
908,0.0
971,0.0
972,0.0
1195,0.0
1197,0.0
2,1, 1,29, 0,13, 0.00,60.00,Monday
7,1.0
718,19.822674617402264
719,16.060781930126243
720,17.407262590278275
619,862.7203297332076
633,287.1221410196133
659,21.23023259557327
661,160.36745790060428
690,29.68598694835469
716,0.0
843,680.625239759258
844,680.625239759258
907,0.0
908,0.0
971,0.0
972,0.0
1195,0.0
1197,0.0
2,1, 1,29, 0,14, 0.00,60.00,Monday
7,5.0
718,19.236271087554115
719,18.88875522615939
720,17.36181571245865
619,0.0
633,0.0
659,0.0
661,200.0
690,0.0
716,70.3560002244082
843,-235.0597691384446
844,-235.0597691384446
907,0.0
908,0.0
971,0.0
972,0.0
1195,0.0
1197,0.0
2,1, 1,29, 0,15, 0.00,60.00,Monday
7,7.2
718,20.9078557484515
719,21.276060055825237
720,17.349423434438123
619,0.0
633,0.0
659,0.0
661,200.0
690,0.0
716,0.0
843,-1022.6741003054867
844,-1022.6741003054867
907,0.0
908,0.0
971,0.0
972,0.0
1195,0.0
1197,0.0
2,1, 1,29, 0,16, 0.00,60.00,Monday
7,8.9
718,22.12267584529957
719,22.08028576006189
720,17.368704792196354
619,0.0
633,0.0
659,0.0
661,200.0
690,0.0
716,0.0
843,-1758.224436001252
844,-1758.224436001252
907,0.0
908,0.0
971,0.0
972,0.0
1195,0.0
1197,0.0
2,1, 1,29, 0,17, 0.00,60.00,Monday
7,8.3
718,23.0394113897496
719,19.688714310693566
720,17.414465504739585
619,0.0
633,0.0
659,0.0
661,200.0
690,0.0
716,0.0
843,-2422.1664621596938
844,-2422.1664621596938
907,0.0
908,0.0
971,0.0
972,0.0
1195,0.0
1197,0.0
2,1, 1,29, 0,18, 0.00,60.00,Monday
7,7.2
718,23.30719411539367
719,16.54829552777552
720,17.478798522819993
619,0.0
633,0.0
659,0.0
661,200.0
690,0.0
716,0.0
843,-2664.831488518712
844,-2664.831488518712
907,0.0
908,0.0
971,0.0
972,0.0
1195,0.0
1197,0.0
2,1, 1,29, 0,19, 0.00,60.00,Monday
7,2.8
718,21.621437091922218
719,11.54379036545769
720,17.541202044714975
619,0.0
633,0.0
659,0.0
661,200.0
690,0.0
716,78.0382544195897
843,-2106.544861973178
844,-2106.544861973178
907,0.0
908,0.0
971,0.0
972,0.0
1195,0.0
1197,0.0
2,1, 1,29, 0,20, 0.00,60.00,Monday
7,2.8
718,21.203792820284335
719,7.503380652371863
720,17.585981282490156
619,0.0
633,0.0
659,0.0
661,200.0
690,0.0
716,72.75693095649173
843,-2322.9454574955307
844,-2322.9454574955307
907,0.0
908,0.0
971,0.0
972,0.0
1195,0.0
1197,0.0
2,1, 1,29, 0,21, 0.00,60.00,Monday
7,2.2
718,21.626575490571607
719,4.946590882365613
720,17.60182365549901
619,0.0
633,0.0
659,0.0
661,200.0
690,0.0
716,0.0
843,-1761.0202716753647
844,-1761.0202716753647
907,0.0
908,0.0
971,0.0
972,0.0
1195,0.0
1197,0.0
2,1, 1,29, 0,22, 0.00,60.00,Monday
7,1.7
718,21.22239395438324
719,2.937317233341073
720,17.59357066131802
619,0.0
633,0.0
659,0.0
661,200.0
690,0.0
716,0.0
843,-1125.5220741507073
844,-1125.5220741507073
907,0.0
908,0.0
971,0.0
972,0.0
1195,0.0
1197,0.0
2,1, 1,29, 0,23, 0.00,60.00,Monday
7,1.1
718,20.51917403613959
719,1.0197136396324307
720,17.565263221610838
619,0.0
633,0.0
659,0.0
661,200.0
690,0.0
716,0.0
843,-1457.736528086787
844,-1457.736528086787
907,0.0
908,0.0
971,0.0
972,0.0
1195,0.0
1197,0.0
2,1, 1,29, 0,24, 0.00,60.00,Monday
7,0.6
718,19.653799531029982
719,0.09965822008873804
720,17.52107841691472
619,0.0
633,0.0
659,0.0
661,200.0
690,0.0
716,0.0
843,-807.8542016936972
844,-807.8542016936972
907,0.0
908,0.0
971,0.0
972,0.0
1195,0.0
1197,0.0
2,2, 1,30, 0, 1, 0.00,60.00,Tuesday
7,0.6
718,18.845639199557443
719,-0.443354894683451
720,17.46488503151484
619,0.0
633,0.0
659,0.0
661,200.0
690,0.0
716,0.0
843,-183.009310335583
844,-183.009310335583
907,0.0
908,0.0
971,0.0
972,0.0
1195,0.0
1197,0.0
2,2, 1,30, 0, 2, 0.00,60.00,Tuesday
7,0.0
718,18.582333097082643
719,-1.3374584644720096
720,17.387039950597607
619,595.352706189975
633,198.44530127297782
659,14.181123430021216
661,171.99020845450576
690,20.958595146455696
716,0.0
843,419.75184538246504
844,419.75184538246504
907,0.0
908,0.0
971,0.0
972,0.0
1195,0.0
1197,0.0
2,2, 1,30, 0, 3, 0.00,60.00,Tuesday
7,0.6
718,18.6411573667194
719,-1.9024846077624322
720,17.29979977808528
619,1090.6947350582964
633,352.64356637551197
659,26.34175376182764
661,150.01858232566616
690,37.420803807578935
716,0.0
843,760.8085310350325
844,760.8085310350325
907,0.0
908,0.0
971,0.0
972,0.0
1195,0.0
1197,0.0
2,2, 1,30, 0, 4, 0.00,60.00,Tuesday
7,-1.7
718,18.436560643794152
719,-2.2343065969726648
720,17.196501247015348
619,1781.764921087085
633,590.8589863030352
659,32.65141805647152
661,116.87170725403058
690,62.2134504164871
716,0.0
843,1219.2785623126128
844,1219.2785623126128
907,0.0
908,0.0
971,0.0
972,0.0
1195,0.0
1197,0.0
2,2, 1,30, 0, 5, 0.00,60.00,Tuesday
7,-2.2
718,18.508681921144895
719,-2.5380676233200403
720,17.088295430005793
619,2479.5641293934846
633,811.8599848878148
659,53.296404101094545
661,83.34628043254477
690,87.08254521716854
716,0.0
843,1680.690084120306
844,1680.690084120306
907,0.0
908,0.0
971,0.0
972,0.0
1195,0.0
1197,0.0
2,2, 1,30, 0, 6, 0.00,60.00,Tuesday
7,-1.7
718,19.25378071400442
719,-1.9001678627561813
720,16.97559747732138
619,4143.010700743433
633,1291.0994454023066
659,98.98925913493912
661,12.814117062574027
690,139.5689579707179
716,0.0
843,2787.323318602319
844,2787.323318602319
907,0.0
908,0.0
971,0.0
972,0.0
1195,0.0
1197,0.0
2,2, 1,30, 0, 7, 0.00,60.00,Tuesday
7,-1.1
718,19.489182290249943
719,-0.7896171948713846
720,16.923793161065156
619,4604.656526100819
633,1414.1891041755077
659,100.57476789230358
661,0.0
690,151.15967594630104
716,85.44000000000005
843,2862.3396253674255
844,2862.3396253674255
907,0.0
908,0.0
971,0.0
972,0.0
1195,1057.6267870326465
1197,1057.6267870326465
2,2, 1,30, 0, 8, 0.00,60.00,Tuesday
7,-1.1
718,19.622651024876934
719,-0.09690435300112725
720,16.84003146328638
619,4559.771011507835
633,1408.5102240975132
659,109.19261211422764
661,0.0
690,151.15967594630104
716,85.44000000000005
843,2393.8587415092916
844,2393.8587415092916
907,0.0
908,0.0
971,0.0
972,0.0
1195,537.2682183102993
1197,537.2682183102993
2,2, 1,30, 0, 9, 0.00,60.00,Tuesday
7,2.2
718,19.7575618539627
719,2.797717583362999
720,16.78982557522326
619,2828.21112516333
633,872.862965563801
659,67.06345625817549
661,79.69689796059598
690,90.25938649503682
716,46.38288615784598
843,1339.1969067075825
844,1339.1969067075825
907,0.0
908,0.0
971,0.0
972,0.0
1195,0.0
1197,0.0
2,2, 1,30, 0,10, 0.00,60.00,Tuesday
7,6.1
718,19.93752992548245
719,7.9342618659561905
720,16.71724711646686
619,247.19558194786828
633,69.80340630769105
659,0.0
661,192.07905594657083
690,5.986636681525654
716,0.0
843,175.8324248799363
844,175.8324248799363
907,0.0
908,0.0
971,0.0
972,0.0
1195,0.0
1197,0.0
2,2, 1,30, 0,11, 0.00,60.00,Tuesday
7,9.4
718,20.74955247793609
719,13.829597144847193
720,16.68699948682694
619,0.0
633,0.0
659,0.0
661,200.0
690,0.0
716,0.0
843,-879.4077968889669
844,-879.4077968889669
907,0.0
908,0.0
971,0.0
972,0.0
1195,0.0
1197,0.0
2,2, 1,30, 0,12, 0.00,60.00,Tuesday
7,11.7
718,21.57289835098685
719,18.130850320927625
720,16.692674422053976
619,0.0
633,0.0
659,0.0
661,0.0
690,0.0
716,0.0
843,-1591.7823101582653
844,-1591.7823101582653
907,0.0
908,0.0
971,0.0
972,0.0
1195,0.0
1197,0.0
2,2, 1,30, 0,13, 0.00,60.00,Tuesday
7,13.3
718,22.34267188136191
719,20.544574162960362
720,16.730957604438334
619,0.0
633,0.0
659,0.0
661,0.0
690,0.0
716,0.0
843,-2205.260758212584
844,-2205.260758212584
907,0.0
908,0.0
971,0.0
972,0.0
1195,0.0
1197,0.0
2,2, 1,30, 0,14, 0.00,60.00,Tuesday
7,15.0
718,23.318378167366202
719,23.154396651109312
720,16.803065861760913
619,0.0
633,0.0
659,0.0
661,0.0
690,3.0343200863975035
716,0.0
843,-3007.170593244986
844,-3007.170593244986
907,0.0
908,0.0
971,0.0
972,0.0
1195,0.0
1197,0.0
2,2, 1,30, 0,15, 0.00,60.00,Tuesday
7,15.0
718,23.129394184976963
719,21.347788962466872
720,16.927963926466084
619,0.0
633,0.0
659,0.0
661,0.0
690,22.504991063980867
716,0.0
843,-3661.798329227684
844,-3661.798329227684
907,0.0
908,0.0
971,0.0
972,0.0
1195,0.0
1197,0.0
2,2, 1,30, 0,16, 0.00,60.00,Tuesday
7,15.6
718,23.36675522861942
719,20.638984307754484
720,17.056524603968878
619,0.0
633,0.0
659,0.0
661,0.0
690,36.073981002248516
716,0.0
843,-4805.56904058428
844,-4805.56904058428
907,0.0
908,0.0
971,0.0
972,0.0
1195,0.0
1197,0.0
2,2, 1,30, 0,17, 0.00,60.00,Tuesday
7,15.0
718,23.41202095586334
719,19.823088067452744
720,17.21628932156395
619,0.0
633,0.0
659,0.0
661,0.0
690,49.75318666747663
716,0.0
843,-5642.8384456355
844,-5642.8384456355
907,0.0
908,0.0
971,0.0
972,0.0
1195,0.0
1197,0.0
2,2, 1,30, 0,18, 0.00,60.00,Tuesday
7,12.8
718,23.340406469301392
719,17.582003584296107
720,17.3388886191044
619,0.0
633,0.0
659,0.0
661,0.0
690,45.41302990661989
716,0.0
843,-5608.925821656041
844,-5608.925821656041
907,0.0
908,0.0
971,0.0
972,0.0
1195,0.0
1197,0.0
2,2, 1,30, 0,19, 0.00,60.00,Tuesday
7,11.1
718,23.317469192666845
719,14.397795783520195
720,17.370058062102512
619,0.0
633,0.0
659,0.0
661,0.0
690,0.9550079200584979
716,83.701145907223
843,-4783.465811560482
844,-4783.465811560482
907,0.0
908,0.0
971,0.0
972,0.0
1195,0.0
1197,0.0
2,2, 1,30, 0,20, 0.00,60.00,Tuesday
7,10.0
718,22.999467812156304
719,11.76244028283172
720,17.463153941395763
619,0.0
633,0.0
659,0.0
661,0.0
690,0.0
716,85.44000000000005
843,-4116.845085947247
844,-4116.845085947247
907,0.0
908,0.0
971,0.0
972,0.0
1195,0.0
1197,0.0
2,2, 1,30, 0,21, 0.00,60.00,Tuesday
7,10.0
718,23.291722684618037
719,10.130225743539713
720,17.511366466513405
619,0.0
633,0.0
659,0.0
661,0.0
690,0.0
716,39.17722480369699
843,-3825.0538865757335
844,-3825.0538865757335
907,0.0
908,0.0
971,0.0
972,0.0
1195,0.0
1197,0.0
2,2, 1,30, 0,22, 0.00,60.00,Tuesday
7,9.4
718,23.326552703888584
719,8.910688919159874
720,17.54766703099382
619,0.0
633,0.0
659,0.0
661,193.8918218946294
690,4.616551115150555
716,0.0
843,-3070.810202505856
844,-3070.810202505856
907,0.0
908,0.0
971,0.0
972,0.0
1195,0.0
1197,0.0
2,2, 1,30, 0,23, 0.00,60.00,Tuesday
7,7.8
718,22.929823134595136
719,7.632649368159262
720,17.54418431749112
619,0.0
633,0.0
659,0.0
661,200.0
690,0.0
716,0.0
843,-3127.8506624077418
844,-3127.8506624077418
907,0.0
908,0.0
971,0.0
972,0.0
1195,0.0
1197,0.0
2,2, 1,30, 0,24, 0.00,60.00,Tuesday
7,7.2
718,22.11798917305487
719,6.8388699753681825
720,17.53365314217471
619,0.0
633,0.0
659,0.0
661,200.0
690,0.0
716,0.0
843,-2384.4257127570236
844,-2384.4257127570236
907,0.0
908,0.0
971,0.0
972,0.0
1195,0.0
1197,0.0
2,3, 1,31, 0, 1, 0.00,60.00,Wednesday
7,6.7
718,21.460482034854
719,6.097815573543692
720,17.507986798326556
619,0.0
633,0.0
659,0.0
661,200.0
690,0.0
716,0.0
843,-2061.0421004405343
844,-2061.0421004405343
907,0.0
908,0.0
971,0.0
972,0.0
1195,0.0
1197,0.0
2,3, 1,31, 0, 2, 0.00,60.00,Wednesday
7,5.6
718,20.713206920490816
719,5.049048680454379
720,17.469807568345814
619,0.0
633,0.0
659,0.0
661,200.0
690,0.0
716,0.0
843,-1465.3146872284979
844,-1465.3146872284979
907,0.0
908,0.0
971,0.0
972,0.0
1195,0.0
1197,0.0
2,3, 1,31, 0, 3, 0.00,60.00,Wednesday
7,4.4
718,20.004343071269744
719,3.0572658795868546
720,17.42257910021085
619,0.0
633,0.0
659,0.0
661,200.0
690,0.0
716,0.0
843,-981.3644053844855
844,-981.3644053844855
907,0.0
908,0.0
971,0.0
972,0.0
1195,0.0
1197,0.0
2,3, 1,31, 0, 4, 0.00,60.00,Wednesday
7,4.4
718,19.39919725955726
719,1.4084920921974173
720,17.36418846664556
619,0.0
633,0.0
659,0.0
661,200.0
690,0.0
716,0.0
843,-549.047210176519
844,-549.047210176519
907,0.0
908,0.0
971,0.0
972,0.0
1195,0.0
1197,0.0
2,3, 1,31, 0, 5, 0.00,60.00,Wednesday
7,1.7
718,18.654283083933205
719,-0.06225581323630344
720,17.298866125748063
619,52.985805450242786
633,17.53548230524353
659,0.9222076225732951
661,197.6426078803533
690,1.7718365952765687
716,0.0
843,10.341489963759159
844,10.341489963759159
907,0.0
908,0.0
971,0.0
972,0.0
1195,0.0
1197,0.0
2,3, 1,31, 0, 6, 0.00,60.00,Wednesday
7,1.1
718,19.128800555263442
719,0.4429703573975934
720,17.18130287970574
619,2825.828872035985
633,868.541145928753
659,49.802507590237404
661,80.242301260238
690,89.91180466604905
716,74.67800498753942
843,1100.5694363925904
844,1100.5694363925904
907,0.0
908,0.0
971,0.0
972,0.0
1195,0.0
1197,0.0
2,3, 1,31, 0, 7, 0.00,60.00,Wednesday
7,0.0
718,19.362382896146784
719,0.09003035848504397
720,17.114444880224365
619,3590.5784843604633
633,1117.3513371535678
659,79.62785291508924
661,43.01820774239562
690,117.45928666924638
716,85.44000000000005
843,1418.7522451715777
844,1418.7522451715777
907,0.0
908,0.0
971,0.0
972,0.0
1195,0.0
1197,0.0
2,3, 1,31, 0, 8, 0.00,60.00,Wednesday
7,0.6
718,19.661119410173278
719,-0.036525154450120494
720,17.058517638756314
619,2609.3765970314817
633,827.3274923379639
659,54.73155977739121
661,85.57791189011463
690,85.74602547917212
716,32.16415842982192
843,1389.3215368779875
844,1389.3215368779875
907,0.0
908,0.0
971,0.0
972,0.0
1195,0.0
1197,0.0
2,3, 1,31, 0, 9, 0.00,60.00,Wednesday
7,6.1
718,19.97940046015503
719,3.102739153523488
720,17.00576715828532
619,578.8582527707217
633,162.1890757410686
659,0.0
661,181.56611120758873
690,13.93230328145519
716,0.0
843,416.69274214428515
844,416.69274214428515
907,0.0
908,0.0
971,0.0
972,0.0
1195,0.0
1197,0.0
2,3, 1,31, 0,10, 0.00,60.00,Wednesday
7,10.6
718,20.831636809744953
719,11.256554812010245
720,16.944730904037577
619,0.0
633,0.0
659,0.0
661,0.0
690,0.0
716,0.0
843,-739.6832692237422
844,-739.6832692237422
907,0.0
908,0.0
971,0.0
972,0.0
1195,0.0
1197,0.0
2,3, 1,31, 0,11, 0.00,60.00,Wednesday
7,13.9
718,21.95542739697312
719,20.222683771671715
720,16.92403726918614
619,0.0
633,0.0
659,0.0
661,0.0
690,0.0
716,0.0
843,-1940.2183446765885
844,-1940.2183446765885
907,0.0
908,0.0
971,0.0
972,0.0
1195,0.0
1197,0.0
2,3, 1,31, 0,12, 0.00,60.00,Wednesday
7,16.7
718,22.947389626754134
719,25.9798164555966
720,16.939480386501007
619,0.0
633,0.0
659,0.0
661,0.0
690,0.0
716,0.0
843,-2798.8850619512796
844,-2798.8850619512796
907,0.0
908,0.0
971,0.0
972,0.0
1195,0.0
1197,0.0
2,3, 1,31, 0,13, 0.00,60.00,Wednesday
7,17.8
718,23.305827841257
719,30.308015703148254
720,17.016255863125657
619,0.0
633,0.0
659,0.0
661,0.0
690,13.04839579356313
716,0.0
843,-3514.3220904703376
844,-3514.3220904703376
907,0.0
908,0.0
971,0.0
972,0.0
1195,0.0
1197,0.0
2,3, 1,31, 0,14, 0.00,60.00,Wednesday
7,19.4
718,23.39559853924385
719,32.46988478091118
720,17.142242223819736
619,0.0
633,0.0
659,0.0
661,0.0
690,31.73833164348705
716,0.0
843,-3801.163724957003
844,-3801.163724957003
907,0.0
908,0.0
971,0.0
972,0.0
1195,0.0
1197,0.0
2,3, 1,31, 0,15, 0.00,60.00,Wednesday
7,20.0
718,23.317032499730267
719,30.769625205727223
720,17.322966228146147
619,0.0
633,0.0
659,0.0
661,0.0
690,56.88823895550743
716,0.0
843,-5325.230841845567
844,-5325.230841845567
907,0.0
908,0.0
971,0.0
972,0.0
1195,0.0
1197,0.0
2,3, 1,31, 0,16, 0.00,60.00,Wednesday
7,20.0
718,23.32799444418547
719,29.530827893715696
720,17.408866530891036
619,0.0
633,0.0
659,0.0
661,0.0
690,40.111135167579505
716,85.44000000000005
843,-6534.257627577252
844,-6534.257627577252
907,0.0
908,0.0
971,0.0
972,0.0
1195,0.0
1197,0.0
2,3, 1,31, 0,17, 0.00,60.00,Wednesday
7,18.9
718,23.30789081235703
719,25.67252531687546
720,17.62596346038523
619,0.0
633,0.0
659,0.0
661,0.0
690,65.14453480501317
716,45.53694056232514
843,-7079.987166985851
844,-7079.987166985851
907,0.0
908,0.0
971,0.0
972,0.0
1195,0.0
1197,0.0
2,3, 1,31, 0,18, 0.00,60.00,Wednesday
7,16.1
718,23.279755947016923
719,21.822548378793748
720,17.761647560770523
619,0.0
633,0.0
659,0.0
661,0.0
690,66.1583364854203
716,0.0
843,-6609.384695138269
844,-6609.384695138269
907,0.0
908,0.0
971,0.0
972,0.0
1195,0.0
1197,0.0
2,3, 1,31, 0,19, 0.00,60.00,Wednesday
7,13.1
718,23.26044294427518
719,17.484217294671783
720,17.808663969626224
619,0.0
633,0.0
659,0.0
661,0.0
690,40.98918930170994
716,0.0
843,-5546.516288529958
844,-5546.516288529958
907,0.0
908,0.0
971,0.0
972,0.0
1195,0.0
1197,0.0
2,3, 1,31, 0,20, 0.00,60.00,Wednesday
7,12.9
718,23.333044620120937
719,15.1613645363934
720,17.814083983966253
619,0.0
633,0.0
659,0.0
661,0.0
690,1.215260244996569
716,85.44000000000005
843,-4810.998151547496
844,-4810.998151547496
907,0.0
908,0.0
971,0.0
972,0.0
1195,0.0
1197,0.0
2,3, 1,31, 0,21, 0.00,60.00,Wednesday
7,12.2
718,23.249655463030518
719,13.458932598027005
720,17.91222639331817
619,0.0
633,0.0
659,0.0
661,0.0
690,13.73316034735684
716,26.266616491246744
843,-4371.7177247782565
844,-4371.7177247782565
907,0.0
908,0.0
971,0.0
972,0.0
1195,0.0
1197,0.0
2,3, 1,31, 0,22, 0.00,60.00,Wednesday
7,12.6
718,23.387632966946008
719,12.743995305176572
720,17.929904888077075
619,0.0
633,0.0
659,0.0
661,0.0
690,11.097016994869081
716,0.0
843,-3805.3567002268737
844,-3805.3567002268737
907,0.0
908,0.0
971,0.0
972,0.0
1195,0.0
1197,0.0
2,3, 1,31, 0,23, 0.00,60.00,Wednesday
7,12.9
718,23.565838208374196
719,12.290612551499352
720,17.904840501596322
619,0.0
633,0.0
659,0.0
661,0.0
690,0.0
716,0.0
843,-4002.4126777520687
844,-4002.4126777520687
907,0.0
908,0.0
971,0.0
972,0.0
1195,0.0
1197,0.0
2,3, 1,31, 0,24, 0.00,60.00,Wednesday
7,13.4
718,23.19433291528679
719,12.01537925309139
720,17.895240831264086
619,0.0
633,0.0
659,0.0
661,0.0
690,0.0
716,0.0
843,-2978.036845998142
844,-2978.036845998142
907,0.0
908,0.0
971,0.0
972,0.0
1195,0.0
1197,0.0
2,4, 2, 1, 0, 1, 0.00,60.00,Thursday
7,14.4
718,22.924111825203997
719,12.87819405569509
720,17.87492606554433
619,0.0
633,0.0
659,0.0
661,0.0
690,0.0
716,0.0
843,-2625.7019502913463
844,-2625.7019502913463
907,0.0
908,0.0
971,0.0
972,0.0
1195,0.0
1197,0.0
2,4, 2, 1, 0, 2, 0.00,60.00,Thursday
7,14.5
718,22.46668906216911
719,13.771758165238518
720,17.84866191176417
619,0.0
633,0.0
659,0.0
661,0.0
690,0.0
716,0.0
843,-1918.6362934734025
844,-1918.6362934734025
907,0.0
908,0.0
971,0.0
972,0.0
1195,0.0
1197,0.0
2,4, 2, 1, 0, 3, 0.00,60.00,Thursday
7,15.0
718,22.006401625869263
719,14.527142700790034
720,17.81977579203357
619,0.0
633,0.0
659,0.0
661,0.0
690,0.0
716,0.0
843,-1760.8251434040658
844,-1760.8251434040658
907,0.0
908,0.0
971,0.0
972,0.0
1195,0.0
1197,0.0
2,4, 2, 1, 0, 4, 0.00,60.00,Thursday
7,15.5
718,21.592926426824384
719,15.19819794898412
720,17.790531084564115
619,0.0
633,0.0
659,0.0
661,0.0
690,0.0
716,0.0
843,-1634.306828527715
844,-1634.306828527715
907,0.0
908,0.0
971,0.0
972,0.0
1195,0.0
1197,0.0
2,4, 2, 1, 0, 5, 0.00,60.00,Thursday
7,15.8
718,21.428953630964905
719,15.581829757228183
720,17.762288196304162
619,0.0
633,0.0
659,0.0
661,0.0
690,0.0
716,0.0
843,-1554.2369855838488
844,-1554.2369855838488
907,0.0
908,0.0
971,0.0
972,0.0
1195,0.0
1197,0.0
2,4, 2, 1, 0, 6, 0.00,60.00,Thursday
7,13.5
718,20.697469509276587
719,14.581143392720275
720,17.73365598426115
619,0.0
633,0.0
659,0.0
661,0.0
690,0.0
716,0.0
843,-509.9760757500426
844,-509.9760757500426
907,0.0
908,0.0
971,0.0
972,0.0
1195,0.0
1197,0.0
2,4, 2, 1, 0, 7, 0.00,60.00,Thursday
7,16.0
718,20.045233317010073
719,15.790853403224824
720,17.7105351003522
619,0.0
633,0.0
659,0.0
661,0.0
690,0.0
716,85.44000000000005
843,-1020.3222515850302
844,-1020.3222515850302
907,0.0
908,0.0
971,0.0
972,0.0
1195,0.0
1197,0.0
2,4, 2, 1, 0, 8, 0.00,60.00,Thursday
7,16.0
718,19.855137159111102
719,15.837442046280126
720,17.687205335988338
619,0.0
633,0.0
659,0.0
661,0.0
690,0.0
716,79.5087351302065
843,-913.5167405567208
844,-913.5167405567208
907,0.0
908,0.0
971,0.0
972,0.0
1195,0.0
1197,0.0
2,4, 2, 1, 0, 9, 0.00,60.00,Thursday
7,6.0
718,19.710573946472312
719,8.142483959471223
720,17.650135346394055
619,1389.1704611723458
633,386.2621443801506
659,0.0
661,156.23201023108862
690,33.07977575144831
716,0.0
843,1162.058514962875
844,1162.058514962875
907,0.0
908,0.0
971,0.0
972,0.0
1195,0.0
1197,0.0
2,4, 2, 1, 0,10, 0.00,60.00,Thursday
7,3.9
718,20.477741832011727
719,8.16026032097123
720,17.622741636140386
619,1585.2529964599403
633,491.1027316453112
659,60.325678003828195
661,129.35170012236347
690,52.99295842759272
716,0.0
843,1224.4135717447061
844,1224.4135717447061
907,0.0
908,0.0
971,0.0
972,0.0
1195,0.0
1197,0.0
2,4, 2, 1, 0,11, 0.00,60.00,Thursday
7,2.8
718,19.455251192614096
719,5.233377846651773
720,17.588218295927643
619,877.7382336839212
633,287.2785195868281
659,26.72011853112136
661,160.38311203081085
690,29.70615096412797
716,0.0
843,665.5493126650599
844,665.5493126650599
907,0.0
908,0.0
971,0.0
972,0.0
1195,0.0
1197,0.0
2,4, 2, 1, 0,12, 0.00,60.00,Thursday
7,-0.6
718,19.45239668938257
719,2.6562826167170512
720,17.494017874073045
619,1795.623226275837
633,596.7155302053352
659,52.2453120384447
661,114.54456533064044
690,63.71283612846717
716,0.0
843,1332.0480003057382
844,1332.0480003057382
907,0.0
908,0.0
971,0.0
972,0.0
1195,0.0
1197,0.0
2,4, 2, 1, 0,13, 0.00,60.00,Thursday
7,-1.7
718,19.481609250507162
719,2.5936706216569068
720,17.432731202038642
619,2368.567409731872
633,790.0912947664892
659,50.053687315052386
661,89.32937451350101
690,82.68878947391676
716,0.0
843,1691.485433257194
844,1691.485433257194
907,0.0
908,0.0
971,0.0
972,0.0
1195,0.0
1197,0.0
2,4, 2, 1, 0,14, 0.00,60.00,Thursday
7,-2.2
718,19.433969353514282
719,1.3910685390765254
720,17.353886574321205
619,3036.0238731580157
633,1003.666879709501
659,40.29792725237047
661,63.12632805159575
690,102.64659268775654
716,0.0
843,2164.699618332186
844,2164.699618332186
907,0.0
908,0.0
971,0.0
972,0.0
1195,0.0
1197,0.0
2,4, 2, 1, 0,15, 0.00,60.00,Thursday
7,-2.8
718,19.76033668438791
719,1.4159674351439435
720,17.288982695007086
619,3100.645859350637
633,1032.7693446209512
659,34.48441897287135
661,59.60373285623943
690,105.37505268699744
716,0.0
843,2170.56541675694
844,2170.56541675694
907,0.0
908,0.0
971,0.0
972,0.0
1195,0.0
1197,0.0
2,4, 2, 1, 0,16, 0.00,60.00,Thursday
7,-3.3
718,19.564403819721797
719,0.6006693003606458
720,17.20956713287818
619,3839.5997220501963
633,1276.2702160050112
659,32.95367049768728
661,28.579383042648065
690,128.81562221228327
716,0.0
843,2651.0860945126788
844,2651.0860945126788
907,0.0
908,0.0
971,0.0
972,0.0
1195,0.0
1197,0.0
2,4, 2, 1, 0,17, 0.00,60.00,Thursday
7,-4.4
718,19.591876295091986
719,-0.20149793677215372
720,17.099823875189507
619,4443.817393645343
633,1467.8079068022444
659,39.56369535348334
661,0.0
690,151.15967594630104
716,79.71215163678356
843,3011.959699188019
844,3011.959699188019
907,0.0
908,0.0
971,0.0
972,0.0
1195,1170.1603426126298
1197,1170.1603426126298
2,4, 2, 1, 0,18, 0.00,60.00,Thursday
7,-5.0
718,19.67718104453033
719,-1.0336166645812976
720,17.018890100560508
619,4390.46209167361
633,1471.8516977125832
659,31.65239260938837
661,0.0
690,150.85045261769667
716,0.0
843,2942.5033235973515
844,2942.5033235973515
907,0.0
908,0.0
971,0.0
972,0.0
1195,0.0
1197,0.0
2,4, 2, 1, 0,19, 0.00,60.00,Thursday
7,-5.0
718,19.6980017561042
719,-0.9177167702118587
720,16.934383150745397
619,4419.715507973825
633,1481.646711198232
659,26.216173434439447
661,0.0
690,151.15967594630104
716,85.44000000000005
843,2780.9985082283565
844,2780.9985082283565
907,0.0
908,0.0
971,0.0
972,0.0
1195,1200.0946428319712
1197,1200.0946428319712
2,4, 2, 1, 0,20, 0.00,60.00,Thursday
7,-5.6
718,19.702697411551327
719,-1.287023294297666
720,16.838771390359025
619,4350.602074333319
633,1477.2321461533809
659,24.29547888103038
661,0.0
690,151.15967594630104
716,56.362015287278446
843,2504.673483036915
844,2504.673483036915
907,0.0
908,0.0
971,0.0
972,0.0
1195,418.013023195379
1197,418.013023195379
2,4, 2, 1, 0,21, 0.00,60.00,Thursday
7,-6.1
718,19.716116198934472
719,-1.9767222618282532
720,16.733013884687356
619,4299.964799927772
633,1475.2540296906602
659,21.122512622805257
661,0.0
690,151.15967594630104
716,0.0
843,2821.359798500158
844,2821.359798500158
907,0.0
908,0.0
971,0.0
972,0.0
1195,24.427767400579796
1197,24.427767400579796
2,4, 2, 1, 0,22, 0.00,60.00,Thursday
7,-6.7
718,19.710898883915043
719,-2.685342543984567
720,16.608222990708395
619,4230.737962251301
633,1470.0589102335248
659,19.49731896346724
661,0.0
690,151.15967594630104
716,0.0
843,4249.175191538092
844,4249.175191538092
907,0.0
908,0.0
971,0.0
972,0.0
1195,1858.4951734346555
1197,1858.4951734346555
2,4, 2, 1, 0,23, 0.00,60.00,Thursday
7,-7.0
718,18.97708555139349
719,-2.693113266838314
720,16.51179419897042
619,4005.8449357853474
633,1411.6119572583443
659,10.640044712674836
661,8.896925781840936
690,144.0820063023631
716,0.0
843,2523.574451617702
844,2523.574451617702
907,0.0
908,0.0
971,0.0
972,0.0
1195,0.0
1197,0.0
2,4, 2, 1, 0,24, 0.00,60.00,Thursday