Program Version,EnergyPlus, Version 22.2.0-c249759bad, YMD=2023.09.01 15:50
1,5,Environment Title[],Latitude[deg],Longitude[deg],Time Zone[],Elevation[m]
2,8,Day of Simulation[],Month[],Day of Month[],DST Indicator[1=yes 0=no],Hour[],StartMinute[],EndMinute[],DayType
3,5,Cumulative Day of Simulation[],Month[],Day of Month[],DST Indicator[1=yes 0=no],DayType  ! When Daily Report Variables Requested
4,2,Cumulative Days of Simulation[],Month[]  ! When Monthly Report Variables Requested
5,1,Cumulative Days of Simulation[] ! When Run Period Report Variables Requested
6,1,Calendar Year of Simulation[] ! When Annual Report Variables Requested
581,11,LIVING,AFN Zone Infiltration Air Change Rate [ach] !RunPeriod [Value,Min,Month,Day,Hour,Minute,Max,Month,Day,Hour,Minute]
582,11,ATTIC,AFN Zone Infiltration Air Change Rate [ach] !RunPeriod [Value,Min,Month,Day,Hour,Minute,Max,Month,Day,Hour,Minute]
583,11,CRAWLSPACE,AFN Zone Infiltration Air Change Rate [ach] !RunPeriod [Value,Min,Month,Day,Hour,Minute,Max,Month,Day,Hour,Minute]
1038,11,Facility,Facility Heating Setpoint Not Met Time [hr] !RunPeriod [Value,Min,Month,Day,Hour,Minute,Max,Month,Day,Hour,Minute]
1039,11,Facility,Facility Cooling Setpoint Not Met Time [hr] !RunPeriod [Value,Min,Month,Day,Hour,Minute,Max,Month,Day,Hour,Minute]
1115,11,DX_HEATING_COIL,Heating Coil Heating Energy [J] !RunPeriod [Value,Min,Month,Day,Hour,Minute,Max,Month,Day,Hour,Minute]
1128,11,DX_HEATING_COIL,Heating Coil Electricity Energy [J] !RunPeriod [Value,Min,Month,Day,Hour,Minute,Max,Month,Day,Hour,Minute]
1153,11,DX_HEATING_COIL,Heating Coil Defrost Electricity Energy [J] !RunPeriod [Value,Min,Month,Day,Hour,Minute,Max,Month,Day,Hour,Minute]
1154,11,DX_HEATING_COIL,Heating Coil Crankcase Heater Electricity Energy [J] !RunPeriod [Value,Min,Month,Day,Hour,Minute,Max,Month,Day,Hour,Minute]
1155,11,HEATING_RESISTANCE_BACKUP,Heating Coil Heating Energy [J] !RunPeriod [Value,Min,Month,Day,Hour,Minute,Max,Month,Day,Hour,Minute]
1156,11,HEATING_RESISTANCE_BACKUP,Heating Coil Electricity Energy [J] !RunPeriod [Value,Min,Month,Day,Hour,Minute,Max,Month,Day,Hour,Minute]
1292,11,WATER HEATER,Water Heater Heat Loss Energy [J] !RunPeriod [Value,Min,Month,Day,Hour,Minute,Max,Month,Day,Hour,Minute]
1306,11,WATER HEATER,Water Heater Heating Energy [J] !RunPeriod [Value,Min,Month,Day,Hour,Minute,Max,Month,Day,Hour,Minute]
1307,11,WATER HEATER,Water Heater Unmet Demand Heat Transfer Energy [J] !RunPeriod [Value,Min,Month,Day,Hour,Minute,Max,Month,Day,Hour,Minute]
1308,11,WATER HEATER,Water Heater Electricity Energy [J] !RunPeriod [Value,Min,Month,Day,Hour,Minute,Max,Month,Day,Hour,Minute]
13,11,Electricity:Facility [J] !RunPeriod [Value,Min,Month,Day,Hour,Minute,Max,Month,Day,Hour,Minute]
1134,11,Heating:Electricity [J] !RunPeriod [Value,Min,Month,Day,Hour,Minute,Max,Month,Day,Hour,Minute]
1096,11,Cooling:Electricity [J] !RunPeriod [Value,Min,Month,Day,Hour,Minute,Max,Month,Day,Hour,Minute]
562,11,Fans:Electricity [J] !RunPeriod [Value,Min,Month,Day,Hour,Minute,Max,Month,Day,Hour,Minute]
1379,11,Pumps:Electricity [J] !RunPeriod [Value,Min,Month,Day,Hour,Minute,Max,Month,Day,Hour,Minute]
1326,11,WaterSystems:Electricity [J] !RunPeriod [Value,Min,Month,Day,Hour,Minute,Max,Month,Day,Hour,Minute]
61,11,InteriorLights:Electricity [J] !RunPeriod [Value,Min,Month,Day,Hour,Minute,Max,Month,Day,Hour,Minute]
1046,11,ExteriorLights:Electricity [J] !RunPeriod [Value,Min,Month,Day,Hour,Minute,Max,Month,Day,Hour,Minute]
134,11,InteriorEquipment:Electricity [J] !RunPeriod [Value,Min,Month,Day,Hour,Minute,Max,Month,Day,Hour,Minute]
170,11,gas_dryer:InteriorEquipment:Electricity [J] !RunPeriod [Value,Min,Month,Day,Hour,Minute,Max,Month,Day,Hour,Minute]
207,11,clotheswasher:InteriorEquipment:Electricity [J] !RunPeriod [Value,Min,Month,Day,Hour,Minute,Max,Month,Day,Hour,Minute]
244,11,dishwasher:InteriorEquipment:Electricity [J] !RunPeriod [Value,Min,Month,Day,Hour,Minute,Max,Month,Day,Hour,Minute]
281,11,refrigerator:InteriorEquipment:Electricity [J] !RunPeriod [Value,Min,Month,Day,Hour,Minute,Max,Month,Day,Hour,Minute]
318,11,electric_mels:InteriorEquipment:Electricity [J] !RunPeriod [Value,Min,Month,Day,Hour,Minute,Max,Month,Day,Hour,Minute]
355,11,NaturalGas:Facility [J] !RunPeriod [Value,Min,Month,Day,Hour,Minute,Max,Month,Day,Hour,Minute]
403,11,InteriorEquipment:NaturalGas [J] !RunPeriod [Value,Min,Month,Day,Hour,Minute,Max,Month,Day,Hour,Minute]
476,11,gas_dryer:InteriorEquipment:NaturalGas [J] !RunPeriod [Value,Min,Month,Day,Hour,Minute,Max,Month,Day,Hour,Minute]
513,11,gas_mels:InteriorEquipment:NaturalGas [J] !RunPeriod [Value,Min,Month,Day,Hour,Minute,Max,Month,Day,Hour,Minute]
End of Data Dictionary
1,EXTREME_WINTER,  45.60,-122.61,  -8.00,  12.00
5,15
1038,0.75,0.0,12,22, 1,15,0.25,12,22, 6,15
1039,0.0,0.0,12,22, 1,15,0.0,12,22, 1,15
581,0.3504136963160648,0.16886656187774246,12,28,10,30,0.8031847224044684,12,26,11,60
582,6.029936993442584,0.0,12,29,24,60,19.363339286255645, 1, 1, 2,60
583,0.03521136710921078,0.0002885967716441018, 1, 5,23,15,0.08402287745402431, 1, 1, 2,60
1115,2942959467.908659,0.0,12,22,23, 5,4810265.454512921, 1, 1, 6,45
1128,890544277.6315124,0.0,12,22,23, 5,1474464.15560496, 1, 1, 6,45
1153,34581005.21813436,0.0,12,22,13,15,113487.07242579083,12,30, 6,60
1154,147189274.51111504,0.0,12,22, 6, 5,180000.0, 1, 2,14,15
1155,24436170.573076993,0.0,12,22, 1,15,1152782.8219632914,12,30, 6, 5
1156,24436170.573076993,0.0,12,22, 1,15,1152782.8219632914,12,30, 6, 5
1292,-54381555.7417335,-39808.721958732116,12,22, 1,15,-6021.381450692337, 1, 2,14,50
1306,468496841.923282,0.0,12,22, 1,15,10520621.742512502, 1, 4,19,60
1307,9561785.781314272,0.0,12,22, 1,15,4840234.79116843, 1, 4,19,60
1308,468496841.923282,0.0,12,22, 1,15,10520621.742512502, 1, 4,19,60
13,2453529964.776456,452017.0388981225, 1, 2,15,15,12499421.941096712, 1, 4,19,60
61,646981127.1939323,88139.10953165221,12,22, 1,15,1282023.4113694867,12,22,20,15
134,151290040.75163814,63564.01800854099,12,22, 4,15,156554.22484006523,12,27,20,15
170,11185820.069951689,348.4159749238097,12,22, 4,15,17476.39704006126,12,27,12,15
207,13893028.5742839,815.2532113832032,12,22, 3,15,22990.642799023623,12,27,10,15
244,27284301.07562584,1521.856143006317,12,22, 4,15,53038.631142310165,12,27,20,15
281,98926891.03177746,59938.60262432081,12,22, 5,15,81951.81706819107,12,22,19,15
318,0.0,0.0,12,22, 1,15,0.0,12,22, 1,15
355,422701517.16107386,18561.32405820678,12,22, 4,15,724774.895203776,12,27,18,15
403,422701517.16107386,18561.32405820678,12,22, 4,15,724774.895203776,12,27,18,15
476,227882097.80545202,7098.072629279515,12,22, 4,15,356036.3026282215,12,27,12,15
513,0.0,0.0,12,22, 1,15,0.0,12,22, 1,15
562,90011226.97376376,0.0,12,22,23,15,145236.15734053336,12,30, 6,45
1046,0.0,0.0,12,22, 1,15,0.0,12,22, 1,15
1096,0.0,0.0,12,22, 1,15,0.0,12,22, 1,15
1134,1096750727.9338396,180000.0,12,22,23,15,3054855.8344388204,12,31, 6,15
1326,468496841.92328215,0.0,12,22, 1,15,10520621.742512502, 1, 4,19,60
1379,0.0,0.0,12,22, 1,15,0.0,12,22, 1,15
1,EXTREME_SUMMER,  45.60,-122.61,  -8.00,  12.00
5,7
1038,0.0,0.0, 7,20, 1,15,0.0, 7,20, 1,15
1039,23.5,0.0, 7,20, 1,15,0.25, 7,20,17,60
581,0.1576288751344639,0.0, 7,21, 6, 7,0.4282122705397684, 7,25,21,52
582,4.017699721117548,0.0708572370855634, 7,23, 8,15,10.33529240860354, 7,26,18,47
583,0.03869356847450926,0.00006506018472846654, 7,21, 6,11,0.07697048126751942, 7,26, 6, 3
1115,0.0,0.0, 7,20, 1, 7,0.0, 7,20, 1, 7
1128,0.0,0.0, 7,20, 1, 7,0.0, 7,20, 1, 7
1153,0.0,0.0, 7,20, 1, 7,0.0, 7,20, 1, 7
1154,0.0,0.0, 7,20, 1, 7,0.0, 7,20, 1, 7
1155,0.0,0.0, 7,20, 1, 7,0.0, 7,20, 1, 7
1156,0.0,0.0, 7,20, 1, 7,0.0, 7,20, 1, 7
1292,-21929299.29825363,-34315.56593587233, 7,22,16,60,-3593.1557301810776, 7,23, 8,59
1306,182535061.9705313,0.0, 7,20, 1, 7,6093234.285873728, 7,22, 7,60
1307,1992903.809519236,0.0, 7,20, 1, 7,716619.2293410025, 7,26,19,55
1308,182535061.9705313,0.0, 7,20, 1, 7,6093234.285873728, 7,22, 7,60
13,1105150687.735754,151703.1275401932, 7,20, 4,15,12521370.710127536, 7,26,19,60
61,301924526.02383536,88139.10953165221, 7,20, 1,15,1282023.4113694867, 7,20,20,15
134,70666020.44019976,63564.01800854099, 7,20, 4,15,156554.22484006523, 7,25,20,15
170,5241013.419656067,348.4159749238097, 7,20, 4,15,17476.39704006126, 7,25,12,15
207,6509451.13922267,815.2532113832032, 7,20, 3,15,22990.642799023623, 7,25,10,15
244,12749673.399825225,1521.856143006317, 7,20, 4,15,53038.631142310165, 7,25,20,15
281,46165882.481495745,59938.60262432081, 7,20, 5,15,81951.81706819107, 7,20,19,15
318,0.0,0.0, 7,20, 1,15,0.0, 7,20, 1,15
355,197687796.27748066,18561.32405820678, 7,20, 4,15,724774.895203776, 7,25,18,15
403,197687796.27748066,18561.32405820678, 7,20, 4,15,724774.895203776, 7,25,18,15
476,106772067.24485716,7098.072629279515, 7,20, 4,15,356036.3026282215, 7,25,12,15
513,0.0,0.0, 7,20, 1,15,0.0, 7,20, 1,15
562,50442647.84517888,0.0, 7,20, 4,15,145236.15734053336, 7,20,17,15
1046,0.0,0.0, 7,20, 1,15,0.0, 7,20, 1,15
1096,499582431.4560077,0.0, 7,20, 4,15,1786481.3433328983, 7,21,15,60
1134,0.0,0.0, 7,20, 1,15,0.0, 7,20, 1,15
1326,182535061.97053134,0.0, 7,20, 1,15,9769587.523662413, 7,26,19,60
1379,0.0,0.0, 7,20, 1,15,0.0, 7,20, 1,15
1,ANNUAL,  45.60,-122.61,  -8.00,  12.00
5,365
1038,7.75,0.0, 1, 1, 1,15,0.25, 1, 6, 6,15
1039,119.5,0.0, 1, 1, 1,15,0.25, 2,11,17,45
581,0.230858808368956,0.0, 7,21, 6, 7,0.9717776610176386,12,18, 4,60
582,3.8664231686527697,0.0, 1, 2, 2,60,33.82727187418242,12,18, 4,52
583,0.018449650266680852,0.0, 8, 5,23, 3,0.09061957216887205, 4, 7, 6, 3
1115,13881030582.752497,0.0, 1, 1,23, 3,4905846.159415314, 1,11, 6,60
1128,4013557312.7096605,0.0, 1, 1,23, 3,1484467.7846351152, 1,11, 6,60
1153,174585893.28737146,0.0, 1, 1,23, 3,140510.73585825847,12,18, 6,60
1154,1926599565.186995,0.0, 1, 1, 6, 5,180000.0, 1, 2,14,15
1155,28774075.095720943,0.0, 1, 1, 1,15,1152782.8219632914, 1, 1, 6, 5
1156,28774075.095720943,0.0, 1, 1, 1,15,1152782.8219632914, 1, 1, 6, 5
1292,-1230040826.9527206,-39786.77861117095, 4,13, 4,15,-2759.5817610130885, 7,18,10,60
1306,10648797153.205414,0.0, 1, 1, 1,15,10540800.0, 2, 5,19,60
1307,185516062.24292618,0.0, 1, 1, 1,15,5110609.173249286, 2, 5,19,60
1308,10648797153.205414,0.0, 1, 1, 1,15,10540800.0, 2, 5,19,60
13,43754775820.78566,151703.1275401932, 3,14, 4,15,13141676.665798666, 6,25,19,60
61,15743207428.383959,88139.10953165221, 1, 1, 1,15,1282023.4113694867, 1, 1,20,15
134,3685071073.4325233,63564.01800854099, 1, 2, 4,15,156554.22484006523, 1, 1,20,15
170,273393721.45532674,348.4159749238097, 1, 2, 4,15,17476.39704006126, 1, 1,12,15
207,339560869.0695816,815.2532113832032, 1, 2, 3,15,22990.642799023623, 1, 1,10,15
244,664895467.8009144,1521.856143006317, 1, 2, 4,15,53038.631142310165, 1, 1,20,15
281,2407221015.106824,59938.60262432081, 1, 1, 5,15,81951.81706819107, 1, 1,19,15
318,0.0,0.0, 1, 1, 1,15,0.0, 1, 1, 1,15
355,10310294493.051695,18561.32405820678, 1, 2, 4,15,724774.895203776, 1, 1,18,15
403,10310294493.051695,18561.32405820678, 1, 2, 4,15,724774.895203776, 1, 1,18,15
476,5569688622.066177,7098.072629279515, 1, 2, 4,15,356036.3026282215, 1, 1,12,15
513,0.0,0.0, 1, 1, 1,15,0.0, 1, 1, 1,15
562,1132530221.9020114,0.0, 1, 2,13,60,145236.15734053336, 1, 2, 6,45
1046,0.0,0.0, 1, 1, 1,15,0.0, 1, 1, 1,15
1096,6401653097.579414,0.0, 1, 1, 1,15,1786625.7287701755, 7,21,15,60
1134,6143516846.279764,0.0, 1,12,23,15,3080196.585520665,12,31, 6,15
1326,10648797153.205421,0.0, 1, 1, 1,15,10540800.0, 1,29,19,60
1379,0.0,0.0, 1, 1, 1,15,0.0, 1, 1, 1,15
End of Data
 Number of Records Written=          99
