Program Version,EnergyPlus, Version 22.2.0-c249759bad, YMD=2023.09.01 20:28
1,5,Environment Title[],Latitude[deg],Longitude[deg],Time Zone[],Elevation[m]
2,8,Day of Simulation[],Month[],Day of Month[],DST Indicator[1=yes 0=no],Hour[],StartMinute[],EndMinute[],DayType
3,5,Cumulative Day of Simulation[],Month[],Day of Month[],DST Indicator[1=yes 0=no],DayType  ! When Daily Report Variables Requested
4,2,Cumulative Days of Simulation[],Month[]  ! When Monthly Report Variables Requested
5,1,Cumulative Days of Simulation[] ! When Run Period Report Variables Requested
6,1,Calendar Year of Simulation[] ! When Annual Report Variables Requested
581,11,LIVING,AFN Zone Infiltration Air Change Rate [ach] !RunPeriod [Value,Min,Month,Day,Hour,Minute,Max,Month,Day,Hour,Minute]
582,11,ATTIC,AFN Zone Infiltration Air Change Rate [ach] !RunPeriod [Value,Min,Month,Day,Hour,Minute,Max,Month,Day,Hour,Minute]
583,11,CRAWLSPACE,AFN Zone Infiltration Air Change Rate [ach] !RunPeriod [Value,Min,Month,Day,Hour,Minute,Max,Month,Day,Hour,Minute]
1038,11,Facility,Facility Heating Setpoint Not Met Time [hr] !RunPeriod [Value,Min,Month,Day,Hour,Minute,Max,Month,Day,Hour,Minute]
1039,11,Facility,Facility Cooling Setpoint Not Met Time [hr] !RunPeriod [Value,Min,Month,Day,Hour,Minute,Max,Month,Day,Hour,Minute]
1115,11,DX_HEATING_COIL,Heating Coil Heating Energy [J] !RunPeriod [Value,Min,Month,Day,Hour,Minute,Max,Month,Day,Hour,Minute]
1128,11,DX_HEATING_COIL,Heating Coil Electricity Energy [J] !RunPeriod [Value,Min,Month,Day,Hour,Minute,Max,Month,Day,Hour,Minute]
1153,11,DX_HEATING_COIL,Heating Coil Defrost Electricity Energy [J] !RunPeriod [Value,Min,Month,Day,Hour,Minute,Max,Month,Day,Hour,Minute]
1154,11,DX_HEATING_COIL,Heating Coil Crankcase Heater Electricity Energy [J] !RunPeriod [Value,Min,Month,Day,Hour,Minute,Max,Month,Day,Hour,Minute]
1155,11,HEATING_RESISTANCE_BACKUP,Heating Coil Heating Energy [J] !RunPeriod [Value,Min,Month,Day,Hour,Minute,Max,Month,Day,Hour,Minute]
1156,11,HEATING_RESISTANCE_BACKUP,Heating Coil Electricity Energy [J] !RunPeriod [Value,Min,Month,Day,Hour,Minute,Max,Month,Day,Hour,Minute]
1292,11,WATER HEATER,Water Heater Heat Loss Energy [J] !RunPeriod [Value,Min,Month,Day,Hour,Minute,Max,Month,Day,Hour,Minute]
1306,11,WATER HEATER,Water Heater Heating Energy [J] !RunPeriod [Value,Min,Month,Day,Hour,Minute,Max,Month,Day,Hour,Minute]
1307,11,WATER HEATER,Water Heater Unmet Demand Heat Transfer Energy [J] !RunPeriod [Value,Min,Month,Day,Hour,Minute,Max,Month,Day,Hour,Minute]
1308,11,WATER HEATER,Water Heater Electricity Energy [J] !RunPeriod [Value,Min,Month,Day,Hour,Minute,Max,Month,Day,Hour,Minute]
13,11,Electricity:Facility [J] !RunPeriod [Value,Min,Month,Day,Hour,Minute,Max,Month,Day,Hour,Minute]
1134,11,Heating:Electricity [J] !RunPeriod [Value,Min,Month,Day,Hour,Minute,Max,Month,Day,Hour,Minute]
1096,11,Cooling:Electricity [J] !RunPeriod [Value,Min,Month,Day,Hour,Minute,Max,Month,Day,Hour,Minute]
562,11,Fans:Electricity [J] !RunPeriod [Value,Min,Month,Day,Hour,Minute,Max,Month,Day,Hour,Minute]
1379,11,Pumps:Electricity [J] !RunPeriod [Value,Min,Month,Day,Hour,Minute,Max,Month,Day,Hour,Minute]
1326,11,WaterSystems:Electricity [J] !RunPeriod [Value,Min,Month,Day,Hour,Minute,Max,Month,Day,Hour,Minute]
61,11,InteriorLights:Electricity [J] !RunPeriod [Value,Min,Month,Day,Hour,Minute,Max,Month,Day,Hour,Minute]
1046,11,ExteriorLights:Electricity [J] !RunPeriod [Value,Min,Month,Day,Hour,Minute,Max,Month,Day,Hour,Minute]
134,11,InteriorEquipment:Electricity [J] !RunPeriod [Value,Min,Month,Day,Hour,Minute,Max,Month,Day,Hour,Minute]
170,11,gas_dryer:InteriorEquipment:Electricity [J] !RunPeriod [Value,Min,Month,Day,Hour,Minute,Max,Month,Day,Hour,Minute]
207,11,clotheswasher:InteriorEquipment:Electricity [J] !RunPeriod [Value,Min,Month,Day,Hour,Minute,Max,Month,Day,Hour,Minute]
244,11,dishwasher:InteriorEquipment:Electricity [J] !RunPeriod [Value,Min,Month,Day,Hour,Minute,Max,Month,Day,Hour,Minute]
281,11,refrigerator:InteriorEquipment:Electricity [J] !RunPeriod [Value,Min,Month,Day,Hour,Minute,Max,Month,Day,Hour,Minute]
318,11,electric_mels:InteriorEquipment:Electricity [J] !RunPeriod [Value,Min,Month,Day,Hour,Minute,Max,Month,Day,Hour,Minute]
355,11,NaturalGas:Facility [J] !RunPeriod [Value,Min,Month,Day,Hour,Minute,Max,Month,Day,Hour,Minute]
403,11,InteriorEquipment:NaturalGas [J] !RunPeriod [Value,Min,Month,Day,Hour,Minute,Max,Month,Day,Hour,Minute]
476,11,gas_dryer:InteriorEquipment:NaturalGas [J] !RunPeriod [Value,Min,Month,Day,Hour,Minute,Max,Month,Day,Hour,Minute]
513,11,gas_mels:InteriorEquipment:NaturalGas [J] !RunPeriod [Value,Min,Month,Day,Hour,Minute,Max,Month,Day,Hour,Minute]
End of Data Dictionary
1,EXTREME_WINTER,  35.62,-106.09,  -7.00,1935.00
5,15
1038,0.0,0.0,12,22, 1,15,0.0,12,22, 1,15
1039,0.0,0.0,12,22, 1,15,0.0,12,22, 1,15
581,0.40576779234606664,0.18705764712388445, 1, 3,20,60,1.6040949488568326,12,26,23,60
582,4.704676752542457,0.0,12,22, 8,52,24.47168271542687,12,26,23,60
583,0.05005999202166942,0.0002733494931806433, 1, 2,19,60,0.12341920605748585,12,26,23,60
1115,3429011053.839223,0.0,12,22,23, 5,5139553.712383328,12,27,11,15
1128,1153507421.05004,0.0,12,22,23, 5,1636994.6567127367,12,27,11,15
1153,47695501.35078984,0.0,12,22,23, 5,126338.69466835343,12,23, 6,45
1154,122067069.96606055,0.0,12,22, 6, 5,180000.0,12,23,14,45
1155,354409636.19234735,0.0,12,22, 1,15,3469265.028736036, 1, 2, 6,45
1156,354409636.19234735,0.0,12,22, 1,15,3469265.028736036, 1, 2, 6,45
1292,-54287187.98273742,-39752.18223279599,12,22, 1,15,-5224.156403704863,12,25,10,33
1306,391067475.17958224,0.0,12,22, 1,15,4050000.0,12,22, 8,45
1307,75010016.71712632,0.0,12,22, 1,15,4971753.268769264,12,28, 9,30
1308,391067475.17958224,0.0,12,22, 1,15,4050000.0,12,22, 8,45
13,2994354602.2454033,279566.45160502766,12,25,14,60,8052270.429982932, 1, 2, 8,30
61,646981127.1939323,88139.10953165221,12,22, 1,15,1282023.4113694867,12,22,20,15
134,151290040.75163814,63564.01800854099,12,22, 4,15,156554.22484006523,12,27,20,15
170,11185820.069951689,348.4159749238097,12,22, 4,15,17476.39704006126,12,27,12,15
207,13893028.5742839,815.2532113832032,12,22, 3,15,22990.642799023623,12,27,10,15
244,27284301.07562584,1521.856143006317,12,22, 4,15,53038.631142310165,12,27,20,15
281,98926891.03177746,59938.60262432081,12,22, 5,15,81951.81706819107,12,22,19,15
318,0.0,0.0,12,22, 1,15,0.0,12,22, 1,15
355,422701517.16107386,18561.32405820678,12,22, 4,15,724774.895203776,12,27,18,15
403,422701517.16107386,18561.32405820678,12,22, 4,15,724774.895203776,12,27,18,15
476,227882097.80545202,7098.072629279515,12,22, 4,15,356036.3026282215,12,27,12,15
513,0.0,0.0,12,22, 1,15,0.0,12,22, 1,15
562,127336330.56100787,0.0,12,23,14,45,168404.519073031,12,26, 6,30
1046,0.0,0.0,12,22, 1,15,0.0,12,22, 1,15
1096,0.0,0.0,12,22, 1,15,0.0,12,22, 1,15
1134,1677679628.5592382,0.0,12,25,14,60,5553791.154561489, 1, 2, 6,15
1326,391067475.1795824,0.0,12,22, 1,15,4050000.0,12,22, 8,45
1379,0.0,0.0,12,22, 1,15,0.0,12,22, 1,15
1,EXTREME_SUMMER,  35.62,-106.09,  -7.00,1935.00
5,7
1038,0.0,0.0, 7,13, 1,15,0.0, 7,13, 1,15
1039,0.75,0.0, 7,13, 1,15,0.25, 7,19,18,15
581,0.16985576244430278,0.0, 7,13,23, 3,0.6806370647434676, 7,14,19,52
582,3.672931017736412,0.1059451328991502, 7,14, 8,29,14.79612297653483, 7,14,19,48
583,0.037169103305768586,0.0003052766470690722, 7,15,23, 3,0.08455776048131898, 7,18,18,33
1115,0.0,0.0, 7,13, 1, 7,0.0, 7,13, 1, 7
1128,0.0,0.0, 7,13, 1, 7,0.0, 7,13, 1, 7
1153,0.0,0.0, 7,13, 1, 7,0.0, 7,13, 1, 7
1154,0.0,0.0, 7,13, 1, 7,0.0, 7,13, 1, 7
1155,0.0,0.0, 7,13, 1, 7,0.0, 7,13, 1, 7
1156,0.0,0.0, 7,13, 1, 7,0.0, 7,13, 1, 7
1292,-22112879.201609846,-34343.199279919805, 7,13,15,60,-2438.5802154471658, 7,15,17,44
1306,145804542.9405664,0.0, 7,13, 1, 7,4050000.0, 7,16,10,45
1307,21229135.18020547,0.0, 7,13, 1, 7,2162740.0226051365, 7,16,10,20
1308,145804542.9405664,0.0, 7,13, 1, 7,4050000.0, 7,16,10,45
13,1039639647.4703557,151703.1275401932, 7,13, 4,15,6486040.9082081355, 7,19,20,60
61,301924526.02383536,88139.10953165221, 7,13, 1,15,1282023.4113694867, 7,13,20,15
134,70666020.44019976,63564.01800854099, 7,13, 4,15,156554.22484006523, 7,18,20,15
170,5241013.419656067,348.4159749238097, 7,13, 4,15,17476.39704006126, 7,18,12,15
207,6509451.13922267,815.2532113832032, 7,13, 3,15,22990.642799023623, 7,18,10,15
244,12749673.399825225,1521.856143006317, 7,13, 4,15,53038.631142310165, 7,18,20,15
281,46165882.481495745,59938.60262432081, 7,13, 5,15,81951.81706819107, 7,13,19,15
318,0.0,0.0, 7,13, 1,15,0.0, 7,13, 1,15
355,197687796.27748066,18561.32405820678, 7,13, 4,15,724774.895203776, 7,18,18,15
403,197687796.27748066,18561.32405820678, 7,13, 4,15,724774.895203776, 7,18,18,15
476,106772067.24485716,7098.072629279515, 7,13, 4,15,356036.3026282215, 7,18,12,15
513,0.0,0.0, 7,13, 1,15,0.0, 7,13, 1,15
562,49037625.75766568,0.0, 7,13, 3,30,168404.519073031, 7,19,16,45
1046,0.0,0.0, 7,13, 1,15,0.0, 7,13, 1,15
1096,472206932.3080886,0.0, 7,13, 3,30,1880701.6717265884, 7,19,16,30
1134,0.0,0.0, 7,13, 1,15,0.0, 7,13, 1,15
1326,145804542.94056645,0.0, 7,13, 1,15,4050000.0, 7,13, 8,45
1379,0.0,0.0, 7,13, 1,15,0.0, 7,13, 1,15
1,ANNUAL,  35.62,-106.09,  -7.00,1935.00
5,365
1038,1.0,0.0, 1, 1, 1,15,0.25, 1,11, 6,15
1039,27.75,0.0, 1, 1, 1,15,0.25, 1,20,17,15
581,0.2759027897692794,0.0, 7,13,23, 3,1.604171127589148,12,26,23,60
582,4.384234069711664,0.0, 1, 2,19,30,25.77224455436757, 5,17,23,60
583,0.026330124009123646,0.0, 8, 3,23, 3,0.12292245510684291,12,26,23,60
1115,19423592814.778175,0.0, 1, 1,23, 3,5207187.489117145, 2, 9, 6,60
1128,6424940909.025986,0.0, 1, 1,23, 3,1640359.175165487, 2, 9, 6,60
1153,204579753.68168598,0.0, 1, 1,23, 3,151740.6166238564, 2,21, 6,60
1154,2065843456.2912138,0.0, 1, 1, 5,30,180000.0, 1, 2,14,45
1155,1184210482.8196034,0.0, 1, 1, 1,15,4700818.889146667, 1,11, 6,45
1156,1184210482.8196034,0.0, 1, 1, 1,15,4700818.889146667, 1,11, 6,45
1292,-1221442783.542105,-39800.37542684642,11, 3, 5,60,-1819.195288136285, 4,27,10,31
1306,8709824406.375107,0.0, 1, 1, 1,15,4050000.0, 1, 1, 9,45
1307,1526856520.8683865,0.0, 1, 1, 1,15,6297780.980612871, 8,12,10,30
1308,8709824406.375107,0.0, 1, 1, 1,15,4050000.0, 1, 1, 9,45
13,47324634768.92727,151703.1275401932, 4, 6, 4,15,9366580.795369223, 1,11, 9,30
61,15743207428.383959,88139.10953165221, 1, 1, 1,15,1282023.4113694867, 1, 1,20,15
134,3685071073.4325233,63564.01800854099, 1, 2, 4,15,156554.22484006523, 1, 1,20,15
170,273393721.45532674,348.4159749238097, 1, 2, 4,15,17476.39704006126, 1, 1,12,15
207,339560869.0695816,815.2532113832032, 1, 2, 3,15,22990.642799023623, 1, 1,10,15
244,664895467.8009144,1521.856143006317, 1, 2, 4,15,53038.631142310165, 1, 1,20,15
281,2407221015.106824,59938.60262432081, 1, 1, 5,15,81951.81706819107, 1, 1,19,15
318,0.0,0.0, 1, 1, 1,15,0.0, 1, 1, 1,15
355,10310294493.051695,18561.32405820678, 1, 2, 4,15,724774.895203776, 1, 1,18,15
403,10310294493.051695,18561.32405820678, 1, 2, 4,15,724774.895203776, 1, 1,18,15
476,5569688622.066177,7098.072629279515, 1, 2, 4,15,356036.3026282215, 1, 1,12,15
513,0.0,0.0, 1, 1, 1,15,0.0, 1, 1, 1,15
562,1632824923.5770764,0.0, 1, 2,14,15,168404.519073031, 1, 1, 5,30
1046,0.0,0.0, 1, 1, 1,15,0.0, 1, 1, 1,15
1096,7674132335.337509,0.0, 1, 1, 1,15,1898682.0424581608, 6, 5,16,60
1134,9879574601.818466,0.0, 1,23,15,60,6525556.816713838, 1,11, 6,15
1326,8709824406.375118,0.0, 1, 1, 1,15,4050000.0000000014, 3, 8, 9,60
1379,0.0,0.0, 1, 1, 1,15,0.0, 1, 1, 1,15
End of Data
 Number of Records Written=          99
