Program Version,EnergyPlus, Version 22.2.0-c249759bad, YMD=2023.09.01 15:45
1,5,Environment Title[],Latitude[deg],Longitude[deg],Time Zone[],Elevation[m]
2,8,Day of Simulation[],Month[],Day of Month[],DST Indicator[1=yes 0=no],Hour[],StartMinute[],EndMinute[],DayType
3,5,Cumulative Day of Simulation[],Month[],Day of Month[],DST Indicator[1=yes 0=no],DayType  ! When Daily Report Variables Requested
4,2,Cumulative Days of Simulation[],Month[]  ! When Monthly Report Variables Requested
5,1,Cumulative Days of Simulation[] ! When Run Period Report Variables Requested
6,1,Calendar Year of Simulation[] ! When Annual Report Variables Requested
581,11,LIVING,AFN Zone Infiltration Air Change Rate [ach] !RunPeriod [Value,Min,Month,Day,Hour,Minute,Max,Month,Day,Hour,Minute]
582,11,ATTIC,AFN Zone Infiltration Air Change Rate [ach] !RunPeriod [Value,Min,Month,Day,Hour,Minute,Max,Month,Day,Hour,Minute]
583,11,CRAWLSPACE,AFN Zone Infiltration Air Change Rate [ach] !RunPeriod [Value,Min,Month,Day,Hour,Minute,Max,Month,Day,Hour,Minute]
1038,11,Facility,Facility Heating Setpoint Not Met Time [hr] !RunPeriod [Value,Min,Month,Day,Hour,Minute,Max,Month,Day,Hour,Minute]
1039,11,Facility,Facility Cooling Setpoint Not Met Time [hr] !RunPeriod [Value,Min,Month,Day,Hour,Minute,Max,Month,Day,Hour,Minute]
1115,11,DX_HEATING_COIL,Heating Coil Heating Energy [J] !RunPeriod [Value,Min,Month,Day,Hour,Minute,Max,Month,Day,Hour,Minute]
1128,11,DX_HEATING_COIL,Heating Coil Electricity Energy [J] !RunPeriod [Value,Min,Month,Day,Hour,Minute,Max,Month,Day,Hour,Minute]
1153,11,DX_HEATING_COIL,Heating Coil Defrost Electricity Energy [J] !RunPeriod [Value,Min,Month,Day,Hour,Minute,Max,Month,Day,Hour,Minute]
1154,11,DX_HEATING_COIL,Heating Coil Crankcase Heater Electricity Energy [J] !RunPeriod [Value,Min,Month,Day,Hour,Minute,Max,Month,Day,Hour,Minute]
1155,11,HEATING_RESISTANCE_BACKUP,Heating Coil Heating Energy [J] !RunPeriod [Value,Min,Month,Day,Hour,Minute,Max,Month,Day,Hour,Minute]
1156,11,HEATING_RESISTANCE_BACKUP,Heating Coil Electricity Energy [J] !RunPeriod [Value,Min,Month,Day,Hour,Minute,Max,Month,Day,Hour,Minute]
1292,11,WATER HEATER,Water Heater Heat Loss Energy [J] !RunPeriod [Value,Min,Month,Day,Hour,Minute,Max,Month,Day,Hour,Minute]
1306,11,WATER HEATER,Water Heater Heating Energy [J] !RunPeriod [Value,Min,Month,Day,Hour,Minute,Max,Month,Day,Hour,Minute]
1307,11,WATER HEATER,Water Heater Unmet Demand Heat Transfer Energy [J] !RunPeriod [Value,Min,Month,Day,Hour,Minute,Max,Month,Day,Hour,Minute]
1308,11,WATER HEATER,Water Heater Electricity Energy [J] !RunPeriod [Value,Min,Month,Day,Hour,Minute,Max,Month,Day,Hour,Minute]
13,11,Electricity:Facility [J] !RunPeriod [Value,Min,Month,Day,Hour,Minute,Max,Month,Day,Hour,Minute]
1134,11,Heating:Electricity [J] !RunPeriod [Value,Min,Month,Day,Hour,Minute,Max,Month,Day,Hour,Minute]
1096,11,Cooling:Electricity [J] !RunPeriod [Value,Min,Month,Day,Hour,Minute,Max,Month,Day,Hour,Minute]
562,11,Fans:Electricity [J] !RunPeriod [Value,Min,Month,Day,Hour,Minute,Max,Month,Day,Hour,Minute]
1379,11,Pumps:Electricity [J] !RunPeriod [Value,Min,Month,Day,Hour,Minute,Max,Month,Day,Hour,Minute]
1326,11,WaterSystems:Electricity [J] !RunPeriod [Value,Min,Month,Day,Hour,Minute,Max,Month,Day,Hour,Minute]
61,11,InteriorLights:Electricity [J] !RunPeriod [Value,Min,Month,Day,Hour,Minute,Max,Month,Day,Hour,Minute]
1046,11,ExteriorLights:Electricity [J] !RunPeriod [Value,Min,Month,Day,Hour,Minute,Max,Month,Day,Hour,Minute]
134,11,InteriorEquipment:Electricity [J] !RunPeriod [Value,Min,Month,Day,Hour,Minute,Max,Month,Day,Hour,Minute]
170,11,gas_dryer:InteriorEquipment:Electricity [J] !RunPeriod [Value,Min,Month,Day,Hour,Minute,Max,Month,Day,Hour,Minute]
207,11,clotheswasher:InteriorEquipment:Electricity [J] !RunPeriod [Value,Min,Month,Day,Hour,Minute,Max,Month,Day,Hour,Minute]
244,11,dishwasher:InteriorEquipment:Electricity [J] !RunPeriod [Value,Min,Month,Day,Hour,Minute,Max,Month,Day,Hour,Minute]
281,11,refrigerator:InteriorEquipment:Electricity [J] !RunPeriod [Value,Min,Month,Day,Hour,Minute,Max,Month,Day,Hour,Minute]
318,11,electric_mels:InteriorEquipment:Electricity [J] !RunPeriod [Value,Min,Month,Day,Hour,Minute,Max,Month,Day,Hour,Minute]
355,11,NaturalGas:Facility [J] !RunPeriod [Value,Min,Month,Day,Hour,Minute,Max,Month,Day,Hour,Minute]
403,11,InteriorEquipment:NaturalGas [J] !RunPeriod [Value,Min,Month,Day,Hour,Minute,Max,Month,Day,Hour,Minute]
476,11,gas_dryer:InteriorEquipment:NaturalGas [J] !RunPeriod [Value,Min,Month,Day,Hour,Minute,Max,Month,Day,Hour,Minute]
513,11,gas_mels:InteriorEquipment:NaturalGas [J] !RunPeriod [Value,Min,Month,Day,Hour,Minute,Max,Month,Day,Hour,Minute]
End of Data Dictionary
1,EXTREME_WINTER,  39.77, -94.92,  -6.00, 249.00
5,7
1038,3.25,0.0,12,22, 1,15,0.25,12,26, 6,15
1039,0.0,0.0,12,22, 1,15,0.0,12,22, 1,15
581,0.4536926603495249,0.2980102021870014,12,28,23, 5,0.7157399467704515,12,25,22,60
582,4.016810152321514,0.0,12,25, 3,45,12.55801872004704,12,24,14,52
583,0.07252412890823637,0.0008718299062225516,12,28,23, 5,0.0839099204387193,12,26, 6,60
1115,2212712592.902419,0.0,12,22,23, 3,4102088.876600149,12,28,15,45
1128,799812522.9088343,0.0,12,22,23, 3,1347083.7540927674,12,23,22,60
1153,18505860.065841004,0.0,12,22,23, 3,103522.04789280756,12,22, 2,45
1154,8541778.8893666,0.0,12,22, 1,37,153897.36259096523,12,24,15,60
1155,1099491770.6044502,0.0,12,22, 1,15,6527180.75660955,12,27, 6,15
1156,1099491770.6044502,0.0,12,22, 1,15,6527180.75660955,12,27, 6,15
1292,-25420357.03810878,-39787.162515874326,12,22, 1,15,-4672.062891818807,12,27,11,45
1306,230406188.69180018,0.0,12,22, 1,15,10346662.16469919,12,28, 9,45
1307,5763073.315196924,0.0,12,22, 1,15,2857660.02209134,12,28,19,60
1308,230406188.69180018,0.0,12,22, 1,15,10346662.16469919,12,28, 9,45
13,2617638148.6926136,646856.6226840583,12,24,15,60,14749256.998355575,12,28, 9,45
61,301924526.02383536,88139.10953165221,12,22, 1,15,1282023.4113694867,12,22,20,15
134,70666020.44019976,63564.01800854099,12,22, 4,15,156554.22484006523,12,27,20,15
170,5241013.419656067,348.4159749238097,12,22, 4,15,17476.39704006126,12,27,12,15
207,6509451.13922267,815.2532113832032,12,22, 3,15,22990.642799023623,12,27,10,15
244,12749673.399825225,1521.856143006317,12,22, 4,15,53038.631142310165,12,27,20,15
281,46165882.481495745,59938.60262432081,12,22, 5,15,81951.81706819107,12,22,19,15
318,0.0,0.0,12,22, 1,15,0.0,12,22, 1,15
355,197687796.27748066,18561.32405820678,12,22, 4,15,724774.895203776,12,27,18,15
403,197687796.27748066,18561.32405820678,12,22, 4,15,724774.895203776,12,27,18,15
476,106772067.24485716,7098.072629279515,12,22, 4,15,356036.3026282215,12,27,12,15
513,0.0,0.0,12,22, 1,15,0.0,12,22, 1,15
562,88289481.0682861,18465.25923553508,12,24,16,15,141566.0842762511,12,22, 1,45
1046,0.0,0.0,12,22, 1,15,0.0,12,22, 1,15
1096,0.0,0.0,12,22, 1,15,0.0,12,22, 1,15
1134,1926351932.4684937,336791.75522683375,12,24,16,15,7685919.686431946,12,27, 8,60
1326,230406188.69180012,0.0,12,22, 1,15,10346662.16469919,12,28, 9,45
1379,0.0,0.0,12,22, 1,15,0.0,12,22, 1,15
1,EXTREME_SUMMER,  39.77, -94.92,  -6.00, 249.00
5,7
1038,0.0,0.0, 6, 1, 1,15,0.0, 6, 1, 1,15
1039,30.25,0.0, 6, 1, 1,15,0.25, 6, 3,14,45
581,0.25244001879925326,0.0, 6, 4,23, 3,0.7142832159236784, 6, 7,16,50
582,4.8809802392364325,0.0, 6, 1, 8,22,13.582448083839294, 6, 7,16,50
583,0.04185080864406454,0.0, 6, 5, 6, 7,0.08287349494018059, 6, 7,16,50
1115,0.0,0.0, 6, 1, 1, 5,0.0, 6, 1, 1, 5
1128,0.0,0.0, 6, 1, 1, 5,0.0, 6, 1, 1, 5
1153,0.0,0.0, 6, 1, 1, 5,0.0, 6, 1, 1, 5
1154,0.0,0.0, 6, 1, 1, 5,0.0, 6, 1, 1, 5
1155,0.0,0.0, 6, 1, 1, 5,0.0, 6, 1, 1, 5
1156,0.0,0.0, 6, 1, 1, 5,0.0, 6, 1, 1, 5
1292,-21946051.397717413,-34345.43625883502, 6, 1,21,60,-3015.4867350110317, 6, 1, 9,14
1306,189438432.53413698,0.0, 6, 1, 1, 5,4407569.932182578, 6, 1,20,30
1307,2544366.5281320973,0.0, 6, 1, 1, 5,863762.5743018573, 6, 7,19,55
1308,189438432.53413698,0.0, 6, 1, 1, 5,4407569.932182578, 6, 1,20,30
13,1145378464.0624192,151703.1275401932, 6, 1, 4,15,13249540.574771639, 6, 7,19,60
61,301924526.02383536,88139.10953165221, 6, 1, 1,15,1282023.4113694867, 6, 1,20,15
134,70666020.44019976,63564.01800854099, 6, 1, 4,15,156554.22484006523, 6, 6,20,15
170,5241013.419656067,348.4159749238097, 6, 1, 4,15,17476.39704006126, 6, 6,12,15
207,6509451.13922267,815.2532113832032, 6, 1, 3,15,22990.642799023623, 6, 6,10,15
244,12749673.399825225,1521.856143006317, 6, 1, 4,15,53038.631142310165, 6, 6,20,15
281,46165882.481495745,59938.60262432081, 6, 1, 5,15,81951.81706819107, 6, 1,19,15
318,0.0,0.0, 6, 1, 1,15,0.0, 6, 1, 1,15
355,197687796.27748066,18561.32405820678, 6, 1, 4,15,724774.895203776, 6, 6,18,15
403,197687796.27748066,18561.32405820678, 6, 1, 4,15,724774.895203776, 6, 6,18,15
476,106772067.24485716,7098.072629279515, 6, 1, 4,15,356036.3026282215, 6, 6,12,15
513,0.0,0.0, 6, 1, 1,15,0.0, 6, 1, 1,15
562,53472717.68606817,0.0, 6, 1, 1,45,141566.0842762511, 6, 3,14,15
1046,0.0,0.0, 6, 1, 1,15,0.0, 6, 1, 1,15
1096,529876767.37817895,0.0, 6, 1, 1,45,1610328.0263244289, 6, 6,14,60
1134,0.0,0.0, 6, 1, 1,15,0.0, 6, 1, 1,15
1326,189438432.5341369,0.0, 6, 1, 1,15,10349152.538693678, 6, 7,19,60
1379,0.0,0.0, 6, 1, 1,15,0.0, 6, 1, 1,15
1,ANNUAL,  39.77, -94.92,  -6.00, 249.00
5,365
1038,26.0,0.0, 1, 1, 1,15,0.25, 1, 7, 6,15
1039,366.5,0.0, 1, 1, 1,15,0.25, 4,11,12,45
581,0.28408202194344234,0.0, 6, 4,23, 3,1.393417764831381, 3,23,17,60
582,4.306442104607444,0.0, 1, 1,20,52,33.525128610563755, 6,18, 6,50
583,0.0315210563742612,0.0, 6, 5, 6, 7,0.0940770491311921, 2,26,22,52
1115,26879740559.65327,0.0, 1, 1,14,30,4678123.816065339, 2,18, 6,45
1128,8856937942.02709,0.0, 1, 1,14,30,1405140.8417458779, 2,18,21,60
1153,279633139.6318619,0.0, 1, 1,14,30,126652.19826929612, 1, 8, 6,60
1154,1367083213.469379,0.0, 1, 1, 3,45,180000.0, 1, 1,14,30
1155,7056756583.004805,0.0, 1, 1, 1,15,6527180.75660955, 1,10, 6,30
1156,7056756583.004805,0.0, 1, 1, 1,15,6527180.75660955, 1,10, 6,30
1292,-1224802268.3763173,-39784.24284667642,11,20, 1,45,-2215.163055268984, 8,12,15,45
1306,10753592791.16455,0.0, 1, 1, 1,15,10508896.60458413,10,15,19,60
1307,201812991.51820496,0.0, 1, 1, 1,15,6137760.039551564, 1,22,19,60
1308,10753592791.16455,0.0, 1, 1, 1,15,10508896.60458413,10,15,19,60
13,59207256378.692955,151703.1275401932, 2, 7, 4,15,18583265.155840836,12,31, 9,45
61,15743207428.383959,88139.10953165221, 1, 1, 1,15,1282023.4113694867, 1, 1,20,15
134,3685071073.4325233,63564.01800854099, 1, 2, 4,15,156554.22484006523, 1, 1,20,15
170,273393721.45532674,348.4159749238097, 1, 2, 4,15,17476.39704006126, 1, 1,12,15
207,339560869.0695816,815.2532113832032, 1, 2, 3,15,22990.642799023623, 1, 1,10,15
244,664895467.8009144,1521.856143006317, 1, 2, 4,15,53038.631142310165, 1, 1,20,15
281,2407221015.106824,59938.60262432081, 1, 1, 5,15,81951.81706819107, 1, 1,19,15
318,0.0,0.0, 1, 1, 1,15,0.0, 1, 1, 1,15
355,10310294493.051695,18561.32405820678, 1, 2, 4,15,724774.895203776, 1, 1,18,15
403,10310294493.051695,18561.32405820678, 1, 2, 4,15,724774.895203776, 1, 1,18,15
476,5569688622.066177,7098.072629279515, 1, 2, 4,15,356036.3026282215, 1, 1,12,15
513,0.0,0.0, 1, 1, 1,15,0.0, 1, 1, 1,15
562,1992593536.6148772,0.0, 1, 1,14,30,141566.08427625112, 7, 3,17,30
1046,0.0,0.0, 1, 1, 1,15,0.0, 1, 1, 1,15
1096,9472380670.962,0.0, 1, 1, 1,15,1632654.4702484235, 7, 9,16,60
1134,17560410878.13304,0.0, 1,14,12,45,7772210.690424806, 3, 1, 6,30
1326,10753592791.164562,0.0, 1, 1, 1,15,10540800.0, 4, 9,19,60
1379,0.0,0.0, 1, 1, 1,15,0.0, 1, 1, 1,15
End of Data
 Number of Records Written=          99
