Program Version,EnergyPlus, Version 22.2.0-c249759bad, YMD=2023.09.01 20:33
1,5,Environment Title[],Latitude[deg],Longitude[deg],Time Zone[],Elevation[m]
2,8,Day of Simulation[],Month[],Day of Month[],DST Indicator[1=yes 0=no],Hour[],StartMinute[],EndMinute[],DayType
3,5,Cumulative Day of Simulation[],Month[],Day of Month[],DST Indicator[1=yes 0=no],DayType  ! When Daily Report Variables Requested
4,2,Cumulative Days of Simulation[],Month[]  ! When Monthly Report Variables Requested
5,1,Cumulative Days of Simulation[] ! When Run Period Report Variables Requested
6,1,Calendar Year of Simulation[] ! When Annual Report Variables Requested
581,11,LIVING,AFN Zone Infiltration Air Change Rate [ach] !RunPeriod [Value,Min,Month,Day,Hour,Minute,Max,Month,Day,Hour,Minute]
582,11,ATTIC,AFN Zone Infiltration Air Change Rate [ach] !RunPeriod [Value,Min,Month,Day,Hour,Minute,Max,Month,Day,Hour,Minute]
583,11,CRAWLSPACE,AFN Zone Infiltration Air Change Rate [ach] !RunPeriod [Value,Min,Month,Day,Hour,Minute,Max,Month,Day,Hour,Minute]
1038,11,Facility,Facility Heating Setpoint Not Met Time [hr] !RunPeriod [Value,Min,Month,Day,Hour,Minute,Max,Month,Day,Hour,Minute]
1039,11,Facility,Facility Cooling Setpoint Not Met Time [hr] !RunPeriod [Value,Min,Month,Day,Hour,Minute,Max,Month,Day,Hour,Minute]
1115,11,DX_HEATING_COIL,Heating Coil Heating Energy [J] !RunPeriod [Value,Min,Month,Day,Hour,Minute,Max,Month,Day,Hour,Minute]
1128,11,DX_HEATING_COIL,Heating Coil Electricity Energy [J] !RunPeriod [Value,Min,Month,Day,Hour,Minute,Max,Month,Day,Hour,Minute]
1153,11,DX_HEATING_COIL,Heating Coil Defrost Electricity Energy [J] !RunPeriod [Value,Min,Month,Day,Hour,Minute,Max,Month,Day,Hour,Minute]
1154,11,DX_HEATING_COIL,Heating Coil Crankcase Heater Electricity Energy [J] !RunPeriod [Value,Min,Month,Day,Hour,Minute,Max,Month,Day,Hour,Minute]
1155,11,HEATING_RESISTANCE_BACKUP,Heating Coil Heating Energy [J] !RunPeriod [Value,Min,Month,Day,Hour,Minute,Max,Month,Day,Hour,Minute]
1156,11,HEATING_RESISTANCE_BACKUP,Heating Coil Electricity Energy [J] !RunPeriod [Value,Min,Month,Day,Hour,Minute,Max,Month,Day,Hour,Minute]
1292,11,WATER HEATER,Water Heater Heat Loss Energy [J] !RunPeriod [Value,Min,Month,Day,Hour,Minute,Max,Month,Day,Hour,Minute]
1306,11,WATER HEATER,Water Heater Heating Energy [J] !RunPeriod [Value,Min,Month,Day,Hour,Minute,Max,Month,Day,Hour,Minute]
1307,11,WATER HEATER,Water Heater Unmet Demand Heat Transfer Energy [J] !RunPeriod [Value,Min,Month,Day,Hour,Minute,Max,Month,Day,Hour,Minute]
1308,11,WATER HEATER,Water Heater Electricity Energy [J] !RunPeriod [Value,Min,Month,Day,Hour,Minute,Max,Month,Day,Hour,Minute]
13,11,Electricity:Facility [J] !RunPeriod [Value,Min,Month,Day,Hour,Minute,Max,Month,Day,Hour,Minute]
1134,11,Heating:Electricity [J] !RunPeriod [Value,Min,Month,Day,Hour,Minute,Max,Month,Day,Hour,Minute]
1096,11,Cooling:Electricity [J] !RunPeriod [Value,Min,Month,Day,Hour,Minute,Max,Month,Day,Hour,Minute]
562,11,Fans:Electricity [J] !RunPeriod [Value,Min,Month,Day,Hour,Minute,Max,Month,Day,Hour,Minute]
1379,11,Pumps:Electricity [J] !RunPeriod [Value,Min,Month,Day,Hour,Minute,Max,Month,Day,Hour,Minute]
1326,11,WaterSystems:Electricity [J] !RunPeriod [Value,Min,Month,Day,Hour,Minute,Max,Month,Day,Hour,Minute]
61,11,InteriorLights:Electricity [J] !RunPeriod [Value,Min,Month,Day,Hour,Minute,Max,Month,Day,Hour,Minute]
1046,11,ExteriorLights:Electricity [J] !RunPeriod [Value,Min,Month,Day,Hour,Minute,Max,Month,Day,Hour,Minute]
134,11,InteriorEquipment:Electricity [J] !RunPeriod [Value,Min,Month,Day,Hour,Minute,Max,Month,Day,Hour,Minute]
170,11,gas_dryer:InteriorEquipment:Electricity [J] !RunPeriod [Value,Min,Month,Day,Hour,Minute,Max,Month,Day,Hour,Minute]
207,11,clotheswasher:InteriorEquipment:Electricity [J] !RunPeriod [Value,Min,Month,Day,Hour,Minute,Max,Month,Day,Hour,Minute]
244,11,dishwasher:InteriorEquipment:Electricity [J] !RunPeriod [Value,Min,Month,Day,Hour,Minute,Max,Month,Day,Hour,Minute]
281,11,refrigerator:InteriorEquipment:Electricity [J] !RunPeriod [Value,Min,Month,Day,Hour,Minute,Max,Month,Day,Hour,Minute]
318,11,electric_mels:InteriorEquipment:Electricity [J] !RunPeriod [Value,Min,Month,Day,Hour,Minute,Max,Month,Day,Hour,Minute]
355,11,NaturalGas:Facility [J] !RunPeriod [Value,Min,Month,Day,Hour,Minute,Max,Month,Day,Hour,Minute]
403,11,InteriorEquipment:NaturalGas [J] !RunPeriod [Value,Min,Month,Day,Hour,Minute,Max,Month,Day,Hour,Minute]
476,11,gas_dryer:InteriorEquipment:NaturalGas [J] !RunPeriod [Value,Min,Month,Day,Hour,Minute,Max,Month,Day,Hour,Minute]
513,11,gas_mels:InteriorEquipment:NaturalGas [J] !RunPeriod [Value,Min,Month,Day,Hour,Minute,Max,Month,Day,Hour,Minute]
End of Data Dictionary
1,EXTREME_WINTER,  39.67, -75.60,  -5.00,  23.00
5,7
1038,0.75,0.0, 1, 8, 1,15,0.25, 1, 8, 6,15
1039,0.0,0.0, 1, 8, 1,15,0.0, 1, 8, 1,15
581,0.39313886070142334,0.18878179656028565, 1,11,23,22,0.8235319226317617, 1, 8, 1,50
582,4.643245108329871,0.0, 1, 9,23,60,16.77091918680359, 1, 8, 1,50
583,0.04841022006953978,0.00045711862141442205, 1,10,23, 3,0.0809213524179066, 1, 8, 1,50
1115,1681530497.6184793,0.0, 1, 8,23, 5,4480740.567325475, 1,13, 6,45
1128,569089319.3505361,0.0, 1, 8,23, 5,1340008.601043896, 1,13, 6,60
1153,8547254.641625699,0.0, 1, 8,23, 5,92222.23711582021, 1,12, 9,60
1154,39843954.05041955,0.0, 1, 8, 1, 7,180000.0, 1, 9,15,30
1155,438003409.5941218,0.0, 1, 8,11,50,4285725.812406076, 1, 8, 6,45
1156,438003409.5941218,0.0, 1, 8,11,50,4285725.812406076, 1, 8, 6,45
1292,-25367856.235726107,-39758.13548956302, 1,13, 3,60,-5415.775838362409, 1,11,11,14
1306,226100187.09705058,0.0, 1, 8, 1, 7,4050000.0, 1, 8, 7,60
1307,37467444.54916244,0.0, 1, 8, 1, 7,11647228.788138451, 1,14,19,60
1308,226100187.09705058,0.0, 1, 8, 1, 7,4050000.0, 1, 8, 7,60
13,1713265399.849358,452017.0388981225, 1, 9,15,30,9728590.800079385, 1, 8, 7,60
61,301924526.02383536,88139.10953165221, 1, 8, 1,15,1282023.4113694867, 1, 8,20,15
134,70666020.44019976,63564.01800854099, 1, 8, 4,15,156554.22484006523, 1,13,20,15
170,5241013.419656067,348.4159749238097, 1, 8, 4,15,17476.39704006126, 1,13,12,15
207,6509451.13922267,815.2532113832032, 1, 8, 3,15,22990.642799023623, 1,13,10,15
244,12749673.399825225,1521.856143006317, 1, 8, 4,15,53038.631142310165, 1,13,20,15
281,46165882.481495745,59938.60262432081, 1, 8, 5,15,81951.81706819107, 1, 8,19,15
318,0.0,0.0, 1, 8, 1,15,0.0, 1, 8, 1,15
355,197687796.27748066,18561.32405820678, 1, 8, 4,15,724774.895203776, 1,13,18,15
403,197687796.27748066,18561.32405820678, 1, 8, 4,15,724774.895203776, 1,13,18,15
476,106772067.24485716,7098.072629279515, 1, 8, 4,15,356036.3026282215, 1,13,12,15
513,0.0,0.0, 1, 8, 1,15,0.0, 1, 8, 1,15
562,59090728.65156832,0.0, 1, 9,15,30,131317.96914308664, 1, 8, 1,45
1046,0.0,0.0, 1, 8, 1,15,0.0, 1, 8, 1,15
1096,0.0,0.0, 1, 8, 1,15,0.0, 1, 8, 1,15
1134,1055483937.6367034,180000.0, 1, 9,15,30,5914912.367046251, 1, 8, 6,15
1326,226100187.09705058,0.0, 1, 8, 1,15,4050000.0, 1, 8, 7,60
1379,0.0,0.0, 1, 8, 1,15,0.0, 1, 8, 1,15
1,EXTREME_SUMMER,  39.67, -75.60,  -5.00,  23.00
5,7
1038,0.0,0.0, 7,15, 1,15,0.0, 7,15, 1,15
1039,37.25,0.0, 7,15, 1,15,0.25, 7,17,14,60
581,0.13197881011964957,0.0, 7,15,23, 3,0.45013239952500067, 7,21,22,33
582,3.334243185995774,0.06981570230586306, 7,17, 8,26,17.802017623030455, 7,21,22,48
583,0.03819475485304958,0.00006573678820869244, 7,16, 5,60,0.07110145942041238, 7,21,22,33
1115,0.0,0.0, 7,15, 1,15,0.0, 7,15, 1,15
1128,0.0,0.0, 7,15, 1,15,0.0, 7,15, 1,15
1153,0.0,0.0, 7,15, 1,15,0.0, 7,15, 1,15
1154,0.0,0.0, 7,15, 1,15,0.0, 7,15, 1,15
1155,0.0,0.0, 7,15, 1,15,0.0, 7,15, 1,15
1156,0.0,0.0, 7,15, 1,15,0.0, 7,15, 1,15
1292,-21902072.0769318,-34340.82231201062, 7,20,11,60,-3102.4516234737825, 7,17, 9,14
1306,163428699.05296236,0.0, 7,15, 1,15,3517993.566216868, 7,15,14,30
1307,14435470.816793945,0.0, 7,15, 1,15,2462336.9350843434, 7,21,19,55
1308,163428699.05296236,0.0, 7,15, 1,15,3517993.566216868, 7,15,14,30
13,1104289740.3749242,151703.1275401932, 7,16, 4,45,6975932.237961417, 7,21,20,15
61,301924526.02383536,88139.10953165221, 7,15, 1,15,1282023.4113694867, 7,15,20,15
134,70666020.44019976,63564.01800854099, 7,15, 4,15,156554.22484006523, 7,20,20,15
170,5241013.419656067,348.4159749238097, 7,15, 4,15,17476.39704006126, 7,20,12,15
207,6509451.13922267,815.2532113832032, 7,15, 3,15,22990.642799023623, 7,20,10,15
244,12749673.399825225,1521.856143006317, 7,15, 4,15,53038.631142310165, 7,20,20,15
281,46165882.481495745,59938.60262432081, 7,15, 5,15,81951.81706819107, 7,15,19,15
318,0.0,0.0, 7,15, 1,15,0.0, 7,15, 1,15
355,197687796.27748066,18561.32405820678, 7,15, 4,15,724774.895203776, 7,20,18,15
403,197687796.27748066,18561.32405820678, 7,15, 4,15,724774.895203776, 7,20,18,15
476,106772067.24485716,7098.072629279515, 7,15, 4,15,356036.3026282215, 7,20,12,15
513,0.0,0.0, 7,15, 1,15,0.0, 7,15, 1,15
562,51671611.244921945,0.0, 7,16, 4,45,131317.96914308664, 7,17,16,45
1046,0.0,0.0, 7,15, 1,15,0.0, 7,15, 1,15
1096,516598883.613004,0.0, 7,16, 4,45,1462513.7891294404, 7,20,15,60
1134,0.0,0.0, 7,15, 1,15,0.0, 7,15, 1,15
1326,163428699.05296236,0.0, 7,15, 1,15,4050000.0, 7,16,20,30
1379,0.0,0.0, 7,15, 1,15,0.0, 7,15, 1,15
1,ANNUAL,  39.67, -75.60,  -5.00,  23.00
5,365
1038,12.25,0.0, 1, 1, 1,15,0.25, 1, 7, 6,15
1039,341.0,0.0, 1, 1, 1,15,0.25, 3,16,18,15
581,0.25210785050075424,0.0, 5,15,23, 5,1.2295876893929232, 3,10,22,60
582,4.42190702307833,0.0, 1, 2,20,52,33.94049016997211, 2,12,14,60
583,0.025804156433506992,0.0, 5,20,23, 5,0.08390652869842,12,16,12,60
1115,20749108849.795624,0.0, 1, 1,13,37,4530290.886250228, 3, 1, 6,60
1128,6489127766.809653,0.0, 1, 1,13,37,1351778.5738521034, 3, 1, 6,60
1153,192525962.71103463,0.0, 1, 1,13,37,129236.93204353408, 2,18,16,60
1154,1549159979.5088005,0.0, 1, 1, 6, 5,180000.0, 1, 1,14,15
1155,2120371243.1984766,0.0, 1, 1, 1,15,4715817.281688009, 1, 8, 1,30
1156,2120371243.1984766,0.0, 1, 1, 1,15,4715817.281688009, 1, 8, 1,30
1292,-1222232100.6941402,-39774.82822717529, 1,21, 3,60,-2690.4454724489046, 5,27, 8,60
1306,10253196850.792578,0.0, 1, 1, 1,15,4050000.0, 1, 1,20,15
1307,1350022966.3449512,0.0, 1, 1, 1,15,11862709.599928113, 2, 5,19,60
1308,10253196850.792578,0.0, 1, 1, 1,15,4050000.0, 1, 1,20,15
13,50623456377.93128,151703.1275401932, 4, 3, 4,30,10375829.098673211, 1,31, 9,15
61,15743207428.383959,88139.10953165221, 1, 1, 1,15,1282023.4113694867, 1, 1,20,15
134,3685071073.4325233,63564.01800854099, 1, 2, 4,15,156554.22484006523, 1, 1,20,15
170,273393721.45532674,348.4159749238097, 1, 2, 4,15,17476.39704006126, 1, 1,12,15
207,339560869.0695816,815.2532113832032, 1, 2, 3,15,22990.642799023623, 1, 1,10,15
244,664895467.8009144,1521.856143006317, 1, 2, 4,15,53038.631142310165, 1, 1,20,15
281,2407221015.106824,59938.60262432081, 1, 1, 5,15,81951.81706819107, 1, 1,19,15
318,0.0,0.0, 1, 1, 1,15,0.0, 1, 1, 1,15
355,10310294493.051695,18561.32405820678, 1, 2, 4,15,724774.895203776, 1, 1,18,15
403,10310294493.051695,18561.32405820678, 1, 2, 4,15,724774.895203776, 1, 1,18,15
476,5569688622.066177,7098.072629279515, 1, 2, 4,15,356036.3026282215, 1, 1,12,15
513,0.0,0.0, 1, 1, 1,15,0.0, 1, 1, 1,15
562,1645985794.7746606,0.0, 1, 1,13,45,131317.96914308664, 1,11, 9,60
1046,0.0,0.0, 1, 1, 1,15,0.0, 1, 1, 1,15
1096,8944810278.317152,0.0, 1, 1, 1,15,1464887.117694448, 7,20,15,60
1134,10351184952.227957,0.0, 1, 4,18,15,5958567.603255644, 1,31, 9,15
1326,10253196850.792585,0.0, 1, 1, 1,15,4050000.0000000014,10,21, 9,45
1379,0.0,0.0, 1, 1, 1,15,0.0, 1, 1, 1,15
End of Data
 Number of Records Written=          99
