Program Version,EnergyPlus, Version 22.2.0-c249759bad, YMD=2023.09.01 14:31
1,5,Environment Title[],Latitude[deg],Longitude[deg],Time Zone[],Elevation[m]
2,8,Day of Simulation[],Month[],Day of Month[],DST Indicator[1=yes 0=no],Hour[],StartMinute[],EndMinute[],DayType
3,5,Cumulative Day of Simulation[],Month[],Day of Month[],DST Indicator[1=yes 0=no],DayType  ! When Daily Report Variables Requested
4,2,Cumulative Days of Simulation[],Month[]  ! When Monthly Report Variables Requested
5,1,Cumulative Days of Simulation[] ! When Run Period Report Variables Requested
6,1,Calendar Year of Simulation[] ! When Annual Report Variables Requested
7,1,Environment,Site Outdoor Air Drybulb Temperature [C] !Hourly
545,1,LIVING,Zone Mean Air Temperature [C] !Hourly
546,1,ATTIC,Zone Mean Air Temperature [C] !Hourly
547,1,CRAWLSPACE,Zone Mean Air Temperature [C] !Hourly
548,1,FAN,Fan Electricity Rate [W] !Hourly
720,1,LIVING,Zone Predicted Sensible Load to Heating Setpoint Heat Transfer Rate [W] !Hourly
721,1,LIVING,Zone System Predicted Sensible Load to Heating Setpoint Heat Transfer Rate [W] !Hourly
784,1,ATTIC,Zone Predicted Sensible Load to Heating Setpoint Heat Transfer Rate [W] !Hourly
785,1,ATTIC,Zone System Predicted Sensible Load to Heating Setpoint Heat Transfer Rate [W] !Hourly
848,1,CRAWLSPACE,Zone Predicted Sensible Load to Heating Setpoint Heat Transfer Rate [W] !Hourly
849,1,CRAWLSPACE,Zone System Predicted Sensible Load to Heating Setpoint Heat Transfer Rate [W] !Hourly
1121,1,DX_HEATING_COIL,Heating Coil Heating Rate [W] !Hourly
1135,1,DX_HEATING_COIL,Heating Coil Electricity Rate [W] !Hourly
1161,1,DX_HEATING_COIL,Heating Coil Defrost Electricity Rate [W] !Hourly
1163,1,DX_HEATING_COIL,Heating Coil Crankcase Heater Electricity Rate [W] !Hourly
1166,1,HEATING_RESISTANCE_BACKUP,Heating Coil Heating Rate [W] !Hourly
1168,1,HEATING_RESISTANCE_BACKUP,Heating Coil Electricity Rate [W] !Hourly
End of Data Dictionary
1,EXTREME_WINTER,  39.87,-104.67,  -7.00,1650.20
2,1,12,22, 0, 1, 0.00,60.00,Monday
7,-0.6
545,18.53646270785133
546,0.4836714517516009
547,18.953753128445015
548,34.88997559520576
720,804.9405649963683
721,804.9405649963683
784,0.0
785,0.0
848,0.0
849,0.0
1121,1014.4359880122514
1135,338.38655787389985
1161,2.6306028585154646
1163,165.04593980071402
1166,0.0
1168,0.0
2,1,12,22, 0, 2, 0.00,60.00,Monday
7,1.7
545,18.542886275922342
546,2.057461182833536
547,18.619058515457052
548,44.5768413564079
720,1104.7936998137657
721,1104.7936998137657
784,0.0
785,0.0
848,0.0
849,0.0
1121,1403.331357617985
1135,443.15286115013475
1161,0.02147364149281674
1163,155.3947235308342
1166,0.0
1168,0.0
2,1,12,22, 0, 3, 0.00,60.00,Monday
7,1.7
545,18.53864815863311
546,2.540446478453879
547,18.407095303034854
548,60.428556948980635
720,1522.1555823410217
721,1522.1555823410217
784,0.0
785,0.0
848,0.0
849,0.0
1121,1919.617315928215
1135,600.6263089620771
1161,0.029109760316460773
1163,139.5328963044654
1166,0.0
1168,0.0
2,1,12,22, 0, 4, 0.00,60.00,Monday
7,2.2
545,18.583670322846665
546,3.0228015905596917
547,18.196894694004687
548,70.47654334801439
720,1805.6312203929992
721,1805.6312203929992
784,0.0
785,0.0
848,0.0
849,0.0
1121,2281.82291963526
1135,703.5577864133369
1161,0.03395007802391535
1163,129.4785368884421
1166,0.0
1168,0.0
2,1,12,22, 0, 5, 0.00,60.00,Monday
7,2.8
545,18.324150610594497
546,3.635249132467327
547,18.008038765267173
548,77.08732201982082
720,2010.6934699958565
721,2010.6934699958565
784,0.0
785,0.0
848,0.0
849,0.0
1121,2544.751905887986
1135,774.4374664575448
1161,0.037134610972689004
1163,122.86359118150489
1166,0.0
1168,0.0
2,1,12,22, 0, 6, 0.00,60.00,Monday
7,2.8
545,19.281269153326196
546,4.110908865429334
547,17.808034506244663
548,118.95741857601419
720,3248.2612238472248
721,3248.2612238472248
784,0.0
785,0.0
848,0.0
849,0.0
1121,4028.9499532489967
1135,1188.6470931950123
1161,0.057304331284095934
1163,80.96683365684332
1166,0.0
1168,0.0
2,1,12,22, 0, 7, 0.00,60.00,Monday
7,1.1
545,19.663818766555064
546,3.492309687982419
547,17.67061355398602
548,125.12291430014565
720,3156.4797264733443
721,3156.4797264733443
784,0.0
785,0.0
848,0.0
849,0.0
1121,4021.5995989782177
1135,1246.438185027731
1161,5.707112047602575
1163,74.72989533746966
1166,0.0
1168,0.0
2,1,12,22, 0, 8, 0.00,60.00,Monday
7,1.7
545,19.88926131603003
546,3.8088263963861113
547,17.542756203245194
548,96.28749831635699
720,2367.109311117545
721,2367.109311117545
784,0.0
785,0.0
848,0.0
849,0.0
1121,3106.3555267609104
1135,977.5063537569089
1161,0.04638379952101701
1163,103.65107836891923
1166,0.0
1168,0.0
2,1,12,22, 0, 9, 0.00,60.00,Monday
7,1.7
545,19.859156524848444
546,4.240283345629419
547,17.416891725930956
548,58.31672875742003
720,1353.8789067464877
721,1353.8789067464877
784,0.0
785,0.0
848,0.0
849,0.0
1121,1838.7078451263878
1135,594.6963855717459
1161,0.028092447284971435
1163,141.64606975203583
1166,0.0
1168,0.0
2,1,12,22, 0,10, 0.00,60.00,Monday
7,5.0
545,19.932819808763288
546,6.4632618867517335
547,17.311121865137633
548,34.191408854485665
720,860.1642730857056
721,860.1642730857056
784,0.0
785,0.0
848,0.0
849,0.0
1121,1159.4892341126158
1135,359.5299667507636
1161,0.016470698794986253
1163,165.78688930629303
1166,0.0
1168,0.0
2,1,12,22, 0,11, 0.00,60.00,Monday
7,6.1
545,19.835150066607017
546,8.695617438164993
547,17.218953359780663
548,9.207717776197187
720,247.56212632824645
721,247.56212632824645
784,0.0
785,0.0
848,0.0
849,0.0
1121,361.833799362057
1135,102.78417598851294
1161,0.0
1163,190.78645520029772
1166,0.0
1168,0.0
2,1,12,22, 0,12, 0.00,60.00,Monday
7,6.1
545,19.9483863200358
546,10.51741922520222
547,17.151264776860145
548,0.0
720,-151.85175988074116
721,-151.85175988074116
784,0.0
785,0.0
848,0.0
849,0.0
1121,0.0
1135,0.0
1161,0.0
1163,200.0
1166,0.0
1168,0.0
2,1,12,22, 0,13, 0.00,60.00,Monday
7,7.8
545,20.788104651547062
546,13.72699983198174
547,17.10976205710742
548,0.0
720,-720.0894338524085
721,-720.0894338524085
784,0.0
785,0.0
848,0.0
849,0.0
1121,0.0
1135,0.0
1161,0.0
1163,200.0
1166,0.0
1168,0.0
2,1,12,22, 0,14, 0.00,60.00,Monday
7,7.8
545,21.59119903949055
546,14.877902399306306
547,17.084160276691737
548,0.0
720,-1183.599929560607
721,-1183.599929560607
784,0.0
785,0.0
848,0.0
849,0.0
1121,0.0
1135,0.0
1161,0.0
1163,200.0
1166,0.0
1168,0.0
2,1,12,22, 0,15, 0.00,60.00,Monday
7,7.8
545,22.488526600004217
546,15.279022970435076
547,17.08085510664162
548,0.0
720,-1735.1473734142
721,-1735.1473734142
784,0.0
785,0.0
848,0.0
849,0.0
1121,0.0
1135,0.0
1161,0.0
1163,200.0
1166,0.0
1168,0.0
2,1,12,22, 0,16, 0.00,60.00,Monday
7,1.7
545,21.988536347779217
546,8.702055695343667
547,17.08951829380626
548,0.0
720,-1496.2732673490937
721,-1496.2732673490937
784,0.0
785,0.0
848,0.0
849,0.0
1121,0.0
1135,0.0
1161,0.0
1163,200.0
1166,0.0
1168,0.0
2,1,12,22, 0,17, 0.00,60.00,Monday
7,0.6
545,22.228949426495493
546,7.143409987852464
547,17.107090032155362
548,0.0
720,-2148.783964328277
721,-2148.783964328277
784,0.0
785,0.0
848,0.0
849,0.0
1121,0.0
1135,0.0
1161,0.0
1163,200.0
1166,0.0
1168,0.0
2,1,12,22, 0,18, 0.00,60.00,Monday
7,0.6
545,21.707317661399404
546,4.807798554043461
547,17.118681231312838
548,0.0
720,-1417.9579551737206
721,-1417.9579551737206
784,0.0
785,0.0
848,0.0
849,0.0
1121,0.0
1135,0.0
1161,0.0
1163,200.0
1166,0.0
1168,0.0
2,1,12,22, 0,19, 0.00,60.00,Monday
7,-0.6
545,21.430504882311876
546,3.5791618015372024
547,17.10724072913731
548,0.0
720,-1268.4294596286018
721,-1268.4294596286018
784,0.0
785,0.0
848,0.0
849,0.0
1121,0.0
1135,0.0
1161,0.0
1163,200.0
1166,0.0
1168,0.0
2,1,12,22, 0,20, 0.00,60.00,Monday
7,0.0
545,21.26698216565376
546,2.40803852899676
547,17.07000104161592
548,0.0
720,-1131.5876381959788
721,-1131.5876381959788
784,0.0
785,0.0
848,0.0
849,0.0
1121,0.0
1135,0.0
1161,0.0
1163,200.0
1166,0.0
1168,0.0
2,1,12,22, 0,21, 0.00,60.00,Monday
7,0.0
545,20.928571807485365
546,1.64506844537786
547,17.015042341941076
548,0.0
720,-826.8273178035179
721,-826.8273178035179
784,0.0
785,0.0
848,0.0
849,0.0
1121,0.0
1135,0.0
1161,0.0
1163,200.0
1166,0.0
1168,0.0
2,1,12,22, 0,22, 0.00,60.00,Monday
7,-1.1
545,20.197591692460005
546,0.9617597598513756
547,16.94719841765078
548,0.0
720,-321.6054364613483
721,-321.6054364613483
784,0.0
785,0.0
848,0.0
849,0.0
1121,0.0
1135,0.0
1161,0.0
1163,200.0
1166,0.0
1168,0.0
2,1,12,22, 0,23, 0.00,60.00,Monday
7,-2.2
545,19.126439325426436
546,0.1626281726600453
547,16.867615289998586
548,0.0
720,-376.22629894171405
721,-376.22629894171405
784,0.0
785,0.0
848,0.0
849,0.0
1121,0.0
1135,0.0
1161,0.0
1163,200.0
1166,0.0
1168,0.0
2,1,12,22, 0,24, 0.00,60.00,Monday
7,-1.1
545,18.632213218818226
546,-0.06123195565463204
547,16.77888646054299
548,5.449249501115765
720,87.94421405473258
721,87.94421405473258
784,0.0
785,0.0
848,0.0
849,0.0
1121,142.36541061322822
1135,49.489304957320876
1161,3.1802942669205305
1163,194.48870906449497
1166,0.0
1168,0.0
2,2,12,23, 0, 1, 0.00,60.00,Tuesday
7,-3.3
545,18.213721798623606
546,-0.8668345621343196
547,16.66319168677775
548,38.00567230879138
720,751.724461437956
721,751.724461437956
784,0.0
785,0.0
848,0.0
849,0.0
1121,952.0786439513304
1135,336.12090862370053
1161,22.6978644172632
1163,161.41080909250235
1166,0.0
1168,0.0
2,2,12,23, 0, 2, 0.00,60.00,Tuesday
7,-4.4
545,17.879992398870527
546,-1.4935001829016699
547,16.530241657410535
548,72.54548815928639
720,1404.7497951158448
721,1404.7497951158448
784,0.0
785,0.0
848,0.0
849,0.0
1121,1820.782261422724
1135,637.134385963732
1161,38.16852410938839
1163,126.35043721559126
1166,0.0
1168,0.0
2,2,12,23, 0, 3, 0.00,60.00,Tuesday
7,-4.4
545,18.21287895481568
546,-1.1166174157926743
547,16.383762885453365
548,118.93583144910573
720,2346.52771283567
721,2346.52771283567
784,0.0
785,0.0
848,0.0
849,0.0
1121,3073.7166079626127
1135,1037.3372805131382
1161,62.57428855540829
1163,79.2573435524149
1166,0.0
1168,0.0
2,2,12,23, 0, 4, 0.00,60.00,Tuesday
7,-2.8
545,18.51246336944551
546,-0.23672722753629116
547,16.28502530262708
548,134.01374944996547
720,2685.6323848689626
721,2685.6323848689626
784,0.0
785,0.0
848,0.0
849,0.0
1121,3595.793427087861
1135,1174.3156339556745
1161,83.57857493624552
1163,63.962851223470096
1166,0.0
1168,0.0
2,2,12,23, 0, 5, 0.00,60.00,Tuesday
7,-3.3
545,18.592627929202305
546,-0.29476286642245075
547,16.167387337095505
548,135.67620649145934
720,2657.506214091911
721,2657.506214091911
784,0.0
785,0.0
848,0.0
849,0.0
1121,3608.4789988390085
1135,1197.6522082112451
1161,79.5384412564976
1163,62.28182920557161
1166,0.0
1168,0.0
2,2,12,23, 0, 6, 0.00,60.00,Tuesday
7,-2.8
545,19.18557310590411
546,0.27608458153230137
547,16.03939722790103
548,180.45143023683013
720,3768.4065213493523
721,3768.4065213493523
784,0.0
785,0.0
848,0.0
849,0.0
1121,5018.987897648769
1135,1605.3587869609812
1161,101.21378035190435
1163,17.10119277455895
1166,0.0
1168,0.0
2,2,12,23, 0, 7, 0.00,60.00,Tuesday
7,-4.4
545,19.534826658041496
546,-0.5739433352966666
547,15.94103439496421
548,184.95085918191862
720,3667.8740754122136
721,3667.8740754122136
784,0.0
785,0.0
848,0.0
849,0.0
1121,5015.202324964638
1135,1674.2137100215452
1161,78.80061501371681
1163,12.76310667590501
1166,0.0
1168,0.0
2,2,12,23, 0, 8, 0.00,60.00,Tuesday
7,-2.2
545,19.728645793025994
546,-0.1694385348145356
547,15.860259516182351
548,148.72349521470233
720,3116.9120354305796
721,3116.9120354305796
784,0.0
785,0.0
848,0.0
849,0.0
1121,4341.648647331239
1135,1420.8669230914895
1161,26.67742981585005
1163,50.6376398306555
1166,0.0
1168,0.0
2,2,12,23, 0, 9, 0.00,60.00,Tuesday
7,-2.2
545,19.827669105848354
546,0.4950300075799651
547,15.754478916839293
548,109.06403375205511
720,2173.948258157865
721,2173.948258157865
784,0.0
785,0.0
848,0.0
849,0.0
1121,3106.3997752059377
1135,1046.0816359705786
1161,19.56354808199282
1163,90.46704517701336
1166,0.0
1168,0.0
2,2,12,23, 0,10, 0.00,60.00,Tuesday
7,-1.7
545,20.070374568145354
546,3.6141753037555815
547,15.669661266262613
548,60.02172994431068
720,1106.1543023697905
721,1106.1543023697905
784,0.0
785,0.0
848,0.0
849,0.0
1121,1662.8988692653572
1135,572.8938793354308
1161,15.94550038613274
1163,139.63230232532104
1166,0.0
1168,0.0
2,2,12,23, 0,11, 0.00,60.00,Tuesday
7,2.2
545,20.23379704818139
546,8.684727446078462
547,15.600778044726976
548,0.0
720,-132.97489921172928
721,-132.97489921172928
784,0.0
785,0.0
848,0.0
849,0.0
1121,0.0
1135,0.0
1161,0.0
1163,200.0
1166,0.0
1168,0.0
2,2,12,23, 0,12, 0.00,60.00,Tuesday
7,2.2
545,20.73892842087331
546,13.01852991757093
547,15.577515935922904
548,0.0
720,-767.7057140886809
721,-767.7057140886809
784,0.0
785,0.0
848,0.0
849,0.0
1121,0.0
1135,0.0
1161,0.0
1163,200.0
1166,0.0
1168,0.0
2,2,12,23, 0,13, 0.00,60.00,Tuesday
7,1.7
545,20.92324135662485
546,12.057703477143567
547,15.578194398569199
548,0.0
720,-844.9096269006604
721,-844.9096269006604
784,0.0
785,0.0
848,0.0
849,0.0
1121,0.0
1135,0.0
1161,0.0
1163,200.0
1166,0.0
1168,0.0
2,2,12,23, 0,14, 0.00,60.00,Tuesday
7,1.1
545,20.908926311347496
546,9.43355774090102
547,15.600176204327761
548,0.0
720,-903.8666398399946
721,-903.8666398399946
784,0.0
785,0.0
848,0.0
849,0.0
1121,0.0
1135,0.0
1161,0.0
1163,200.0
1166,0.0
1168,0.0
2,2,12,23, 0,15, 0.00,60.00,Tuesday
7,1.1
545,21.370838002954265
546,7.766028959893994
547,15.629911914380392
548,0.0
720,-1286.1308735636267
721,-1286.1308735636267
784,0.0
785,0.0
848,0.0
849,0.0
1121,0.0
1135,0.0
1161,0.0
1163,200.0
1166,0.0
1168,0.0
2,2,12,23, 0,16, 0.00,60.00,Tuesday
7,-1.1
545,21.24196366847962
546,5.559096269118173
547,15.655496432808508
548,0.0
720,-1187.2075096833505
721,-1187.2075096833505
784,0.0
785,0.0
848,0.0
849,0.0
1121,0.0
1135,0.0
1161,0.0
1163,200.0
1166,0.0
1168,0.0
2,2,12,23, 0,17, 0.00,60.00,Tuesday
7,-1.7
545,20.9686989708091
546,3.7836257220070317
547,15.689425493518085
548,0.0
720,-1007.1413085078038
721,-1007.1413085078038
784,0.0
785,0.0
848,0.0
849,0.0
1121,0.0
1135,0.0
1161,0.0
1163,200.0
1166,0.0
1168,0.0
2,2,12,23, 0,18, 0.00,60.00,Tuesday
7,-1.7
545,20.445788455222488
546,1.8933447326541475
547,15.702848316845595
548,0.0
720,-541.7661775438992
721,-541.7661775438992
784,0.0
785,0.0
848,0.0
849,0.0
1121,0.0
1135,0.0
1161,0.0
1163,200.0
1166,0.0
1168,0.0
2,2,12,23, 0,19, 0.00,60.00,Tuesday
7,-2.2
545,19.799444196316035
546,0.9956222966325197
547,15.698407410332585
548,33.265847202179884
720,571.8597674983394
721,571.8597674983394
784,0.0
785,0.0
848,0.0
849,0.0
1121,883.325982935147
1135,317.4304367417905
1161,11.099155833689423
1163,166.4808731909292
1166,0.0
1168,0.0
2,2,12,23, 0,20, 0.00,60.00,Tuesday
7,-3.3
545,19.89860802110093
546,0.25134762401774813
547,15.660309818764667
548,49.18406702121828
720,952.2892940496404
721,952.2892940496404
784,0.0
785,0.0
848,0.0
849,0.0
1121,1289.235065251676
1135,461.65631278409927
1161,14.576542015387702
1163,150.43668761179376
1166,0.0
1168,0.0
2,2,12,23, 0,21, 0.00,60.00,Tuesday
7,-3.9
545,19.404142098809405
546,-0.4976910344567457
547,15.605044190542442
548,62.18879243316677
720,1170.9565175777916
721,1170.9565175777916
784,0.0
785,0.0
848,0.0
849,0.0
1121,1592.5710604101503
1135,575.8548114215358
1161,23.999975694312138
1163,137.14883433489274
1166,0.0
1168,0.0
2,2,12,23, 0,22, 0.00,60.00,Tuesday
7,-4.4
545,20.003783350104037
546,-1.7106730100844783
547,15.527810923711678
548,83.28909283527535
720,1640.2447927574667
721,1640.2447927574667
784,0.0
785,0.0
848,0.0
849,0.0
1121,2205.641652541758
1135,781.6481900868407
1161,13.402725962810669
1163,116.30036950225795
1166,0.0
1168,0.0
2,2,12,23, 0,23, 0.00,60.00,Tuesday
7,-4.4
545,18.82733560089389
546,-2.4640573754954294
547,15.452911488583435
548,49.160103592113465
720,873.4388206166004
721,873.4388206166004
784,0.0
785,0.0
848,0.0
849,0.0
1121,1302.0417557448761
1135,475.7728075534667
1161,0.023681679557391228
1163,150.8081633818379
1166,0.0
1168,0.0
2,2,12,23, 0,24, 0.00,60.00,Tuesday
7,-4.4
545,18.616947678135226
546,-2.674687671918772
547,15.342669598421395
548,68.08032458581492
720,1339.933828445735
721,1339.933828445735
784,0.0
785,0.0
848,0.0
849,0.0
1121,1834.608054888388
1135,643.7480733717694
1161,0.03279603134209479
1163,131.87573492856723
1166,0.0
1168,0.0
2,3,12,24, 0, 1, 0.00,60.00,Wednesday
7,-5.0
545,18.29866308397728
546,-3.0976280638369267
547,15.23492919838482
548,110.56713581312044
720,2236.0452428978297
721,2236.0452428978297
784,0.0
785,0.0
848,0.0
849,0.0
1121,3005.2474143614268
1135,1035.6388318333936
1161,0.053263059485581715
1163,89.3614064134049
1166,0.0
1168,0.0
2,3,12,24, 0, 2, 0.00,60.00,Wednesday
7,-3.9
545,18.29161060505543
546,-2.349433181661265
547,15.115400986183367
548,144.44078989266467
720,3066.5941800799883
721,3066.5941800799883
784,0.0
785,0.0
848,0.0
849,0.0
1121,4140.902229254536
1135,1356.5511590355845
1161,0.06958076601347954
1163,55.46609288388207
1166,0.0
1168,0.0
2,3,12,24, 0, 3, 0.00,60.00,Wednesday
7,-3.9
545,18.44182879241232
546,-2.1492045032336504
547,15.00193802361315
548,168.69876433990274
720,3608.743555223851
721,3608.743555223851
784,0.0
785,0.0
848,0.0
849,0.0
1121,4907.994959689752
1135,1583.8062891034322
1161,0.08126644311161127
1163,31.192480144937495
1166,0.0
1168,0.0
2,3,12,24, 0, 4, 0.00,60.00,Wednesday
7,-3.9
545,18.489925817708343
546,-1.8384263086819521
547,14.893924119833898
548,186.01415062159583
720,3990.641690271419
721,3990.641690271419
784,0.0
785,0.0
848,0.0
849,0.0
1121,5465.101730106684
1135,1751.224472559079
1161,0.08960770153201163
1163,13.86592944941729
1166,0.0
1168,0.0
2,3,12,24, 0, 5, 0.00,60.00,Wednesday
7,-5.0
545,18.658609130434495
546,-2.2990847998651827
547,14.777470971422384
548,166.85365588927036
720,3335.731857447043
721,3335.731857447043
784,0.0
785,0.0
848,0.0
849,0.0
1121,4693.961518011292
1135,1557.9355391700326
1161,0.08037773637195103
1163,33.038511235463815
1166,0.0
1168,0.0
2,3,12,24, 0, 6, 0.00,60.00,Wednesday
7,-5.0
545,19.29760415408212
546,-2.147947879118206
547,14.675011809286229
548,199.87351179960046
720,4239.516119458503
721,4239.516119458503
784,0.0
785,0.0
848,0.0
849,0.0
1121,5732.791474848024
1135,1871.9215974831397
1161,0.09628296557094888
1163,0.0
1166,109.59519792208539
1168,109.59519792208539
2,3,12,24, 0, 7, 0.00,60.00,Wednesday
7,-5.6
545,19.584567512545885
546,-1.8843134981740677
547,14.59520483592285
548,197.03938090617336
720,3887.708537794848
721,3887.708537794848
784,0.0
785,0.0
848,0.0
849,0.0
1121,5524.808835689758
1135,1859.0739880419076
1161,0.09491907548855665
1163,2.8330869833609773
1166,0.0
1168,0.0
2,3,12,24, 0, 8, 0.00,60.00,Wednesday
7,-5.0
545,19.71737347247093
546,-2.409610488333181
547,14.50007555902235
548,178.9956445112206
720,3509.10598428957
721,3509.10598428957
784,0.0
785,0.0
848,0.0
849,0.0
1121,5042.68406742611
1135,1706.9465674856988
1161,0.08622685433836923
1163,20.888661193489156
1166,0.0
1168,0.0
2,3,12,24, 0, 9, 0.00,60.00,Wednesday
7,-5.0
545,19.824374608607332
546,-1.8891782285418683
547,14.3985414389237
548,139.50427264480498
720,2583.3775896683583
721,2583.3775896683583
784,0.0
785,0.0
848,0.0
849,0.0
1121,3834.65175285141
1135,1333.9234089944769
1161,0.06720283476695463
1163,60.40555695714571
1166,0.0
1168,0.0
2,3,12,24, 0,10, 0.00,60.00,Wednesday
7,-1.1
545,20.033981925553242
546,0.839662316404032
547,14.309605843569216
548,65.06669788840308
720,1202.941445293969
721,1202.941445293969
784,0.0
785,0.0
848,0.0
849,0.0
1121,1910.8700750167147
1135,644.6281529340091
1161,0.03134415479598182
1163,134.8915883300562
1166,0.0
1168,0.0
2,3,12,24, 0,11, 0.00,60.00,Wednesday
7,0.0
545,20.073388441330984
546,3.5391188032131775
547,14.23820590806472
548,18.612381298933524
720,280.63196496389173
721,280.63196496389173
784,0.0
785,0.0
848,0.0
849,0.0
1121,548.1810151623229
1135,186.96042817497988
1161,0.00896600909660354
1163,181.37571055599304
1166,0.0
1168,0.0
2,3,12,24, 0,12, 0.00,60.00,Wednesday
7,0.0
545,20.109091314418535
546,5.777375391313577
547,14.211531537932787
548,0.0
720,-296.9884375202
721,-296.9884375202
784,0.0
785,0.0
848,0.0
849,0.0
1121,0.0
1135,0.0
1161,0.0
1163,200.0
1166,0.0
1168,0.0
2,3,12,24, 0,13, 0.00,60.00,Wednesday
7,0.0
545,20.553401188186033
546,9.910406652482735
547,14.223507198594222
548,0.0
720,-617.0971509028368
721,-617.0971509028368
784,0.0
785,0.0
848,0.0
849,0.0
1121,0.0
1135,0.0
1161,0.0
1163,200.0
1166,0.0
1168,0.0
2,3,12,24, 0,14, 0.00,60.00,Wednesday
7,1.1
545,21.478752563052456
546,15.372059390608145
547,14.255216138106556
548,0.0
720,-1269.544073512814
721,-1269.544073512814
784,0.0
785,0.0
848,0.0
849,0.0
1121,0.0
1135,0.0
1161,0.0
1163,200.0
1166,0.0
1168,0.0
2,3,12,24, 0,15, 0.00,60.00,Wednesday
7,1.1
545,22.127611517629862
546,16.01390400377891
547,14.30385189459443
548,0.0
720,-1724.6851476886168
721,-1724.6851476886168
784,0.0
785,0.0
848,0.0
849,0.0
1121,0.0
1135,0.0
1161,0.0
1163,200.0
1166,0.0
1168,0.0
2,3,12,24, 0,16, 0.00,60.00,Wednesday
7,-2.2
545,21.942459424049268
546,10.726807522825238
547,14.362139647420188
548,0.0
720,-1696.6496853867902
721,-1696.6496853867902
784,0.0
785,0.0
848,0.0
849,0.0
1121,0.0
1135,0.0
1161,0.0
1163,200.0
1166,0.0
1168,0.0
2,3,12,24, 0,17, 0.00,60.00,Wednesday
7,-2.8
545,21.61614183699994
546,7.714480694112342
547,14.435697535127028
548,0.0
720,-1551.4297526715454
721,-1551.4297526715454
784,0.0
785,0.0
848,0.0
849,0.0
1121,0.0
1135,0.0
1161,0.0
1163,200.0
1166,0.0
1168,0.0
2,3,12,24, 0,18, 0.00,60.00,Wednesday
7,-2.8
545,20.93247433311602
546,4.246657058330228
547,14.501203705185652
548,0.0
720,-964.5958278941052
721,-964.5958278941052
784,0.0
785,0.0
848,0.0
849,0.0
1121,0.0
1135,0.0
1161,0.0
1163,200.0
1166,0.0
1168,0.0
2,3,12,24, 0,19, 0.00,60.00,Wednesday
7,-6.7
545,19.952879462292927
546,-0.023661333076863206
547,14.529562308057823
548,0.0
720,-187.6363117928995
721,-187.6363117928995
784,0.0
785,0.0
848,0.0
849,0.0
1121,0.0
1135,0.0
1161,0.0
1163,200.0
1166,0.0
1168,0.0
2,3,12,24, 0,20, 0.00,60.00,Wednesday
7,-7.2
545,19.724646349767692
546,-2.770907404217252
547,14.534360032684853
548,25.337388282742527
720,411.52476840863346
721,411.52476840863346
784,0.0
785,0.0
848,0.0
849,0.0
1121,610.3249987034719
1135,238.96828282377768
1161,0.012205721627531967
1163,174.64614523419965
1166,0.0
1168,0.0
2,3,12,24, 0,21, 0.00,60.00,Wednesday
7,-7.2
545,19.650246698796366
546,-3.7701015626667167
547,14.505615630323462
548,52.181540010195555
720,929.7289441526791
721,929.7289441526791
784,0.0
785,0.0
848,0.0
849,0.0
1121,1277.839423192913
1135,489.9355412233703
1161,0.025137292339505263
1163,147.7845490311947
1166,0.0
1168,0.0
2,3,12,24, 0,22, 0.00,60.00,Wednesday
7,-6.7
545,19.58916892076594
546,-3.1848054884965338
547,14.456515173630828
548,77.14987477337463
720,1394.633978071386
721,1394.633978071386
784,0.0
785,0.0
848,0.0
849,0.0
1121,1945.9850858526506
1135,726.3505691615861
1161,0.03716519917653997
1163,122.80005303917707
1166,0.0
1168,0.0
2,3,12,24, 0,23, 0.00,60.00,Wednesday
7,-6.1
545,18.584586817347116
546,-3.0556269081709346
547,14.379765215365866
548,73.97581201661494
720,1314.3133716216525
721,1314.3133716216525
784,0.0
785,0.0
848,0.0
849,0.0
1121,1896.4564556279904
1135,699.1899975164829
1161,0.035636131858095096
1163,125.97624793383501
1166,0.0
1168,0.0
2,3,12,24, 0,24, 0.00,60.00,Wednesday
7,-6.1
545,18.45486658974527
546,-2.7116512765836864
547,14.27812721631887
548,105.26394099321165
720,2002.7491107415435
721,2002.7491107415435
784,0.0
785,0.0
848,0.0
849,0.0
1121,2763.8135988328145
1135,975.4430297649542
1161,0.05070845794573412
1163,94.66785189874915
1166,0.0
1168,0.0
2,4,12,25, 0, 1, 0.00,60.00,Thursday
7,-4.4
545,18.775051723817985
546,-2.457489923242533
547,14.199411249742694
548,114.30640062456366
720,2299.431329047615
721,2299.431329047615
784,0.0
785,0.0
848,0.0
849,0.0
1121,3171.4519703984442
1135,1071.573569742124
1161,0.055064311287684256
1163,85.61982701476197
1166,0.0
1168,0.0
2,4,12,25, 0, 2, 0.00,60.00,Thursday
7,-3.9
545,18.71688292353933
546,-1.8198562441477966
547,14.119280000419696
548,116.52527057537195
720,2353.983788801468
721,2353.983788801468
784,0.0
785,0.0
848,0.0
849,0.0
1121,3278.120899086881
1135,1103.8018577196156
1161,0.056133158896341365
1163,83.39960539545694
1166,0.0
1168,0.0
2,4,12,25, 0, 3, 0.00,60.00,Thursday
7,-3.9
545,18.621988402052427
546,-1.662269537526088
547,14.019961519577002
548,121.071014526354
720,2465.1539285826893
721,2465.1539285826893
784,0.0
785,0.0
848,0.0
849,0.0
1121,3416.288524213239
1135,1145.439403323185
1161,0.0583229580616345
1163,78.85093128200846
1166,0.0
1168,0.0
2,4,12,25, 0, 4, 0.00,60.00,Thursday
7,-3.9
545,18.61810225855689
546,-1.5309414212758279
547,13.927806044382987
548,125.25049795912963
720,2560.09988518695
721,2560.09988518695
784,0.0
785,0.0
848,0.0
849,0.0
1121,3538.7089559089036
1135,1180.9198734878103
1161,1.5939584344144697
1163,74.63097131446457
1166,0.0
1168,0.0
2,4,12,25, 0, 5, 0.00,60.00,Thursday
7,-7.2
545,18.46901219427689
546,-2.4913176615486368
547,13.824605557833637
548,157.6380812728695
720,2894.0919452077032
721,2894.0919452077032
784,0.0
785,0.0
848,0.0
849,0.0
1121,4031.2908784945002
1135,1419.5828604687445
1161,28.0737328020238
1163,41.257536662896264
1166,0.0
1168,0.0
2,4,12,25, 0, 6, 0.00,60.00,Thursday
7,-7.2
545,19.185663941683956
546,-2.5886709442115983
547,13.743791320170985
548,199.87351179960046
720,4071.474715351502
721,4071.474715351502
784,0.0
785,0.0
848,0.0
849,0.0
1121,5246.653812750683
1135,1782.8739962617888
1161,35.37016147016282
1163,0.0
1166,395.85886808009855
1168,395.85886808009855
2,4,12,25, 0, 7, 0.00,60.00,Thursday
7,-8.9
545,19.525094620953094
546,-3.878783048541542
547,13.67835171800041
548,199.87351179960046
720,4383.624170899988
721,4383.624170899988
784,0.0
785,0.0
848,0.0
849,0.0
1121,4990.06144904213
1135,1790.2090485080196
1161,28.479039920776138
1163,0.0
1166,1143.2655941547318
1168,1143.2655941547318
2,4,12,25, 0, 8, 0.00,60.00,Thursday
7,-7.8
545,19.650692570178485
546,-3.3754012241037956
547,13.61980281667911
548,199.87351179960046
720,4008.0821573280646
721,4008.0821573280646
784,0.0
785,0.0
848,0.0
849,0.0
1121,5123.431583466766
1135,1810.4435008691516
1161,35.00860693693879
1163,0.0
1166,690.501864445509
1168,690.501864445509
2,4,12,25, 0, 9, 0.00,60.00,Thursday
7,-7.8
545,19.697642314706417
546,-3.0170963991017614
547,13.538724301857155
548,199.87351179960046
720,3928.152262410411
721,3928.152262410411
784,0.0
785,0.0
848,0.0
849,0.0
1121,5119.6723883463565
1135,1814.7074110945769
1161,35.00860693693879
1163,0.0
1166,596.5677172477854
1168,596.5677172477854
2,4,12,25, 0,10, 0.00,60.00,Thursday
7,-5.6
545,19.715130680073855
546,-1.7003615519221709
547,13.479524757710498
548,199.87351179960046
720,3900.5661078976846
721,3900.5661078976846
784,0.0
785,0.0
848,0.0
849,0.0
1121,5603.176889444284
1135,1898.4483867194376
1161,0.09628296557094888
1163,0.0
1166,73.03522720752926
1168,73.03522720752926
2,4,12,25, 0,11, 0.00,60.00,Thursday
7,-5.0
545,19.769751161995643
546,-0.6607632553928875
547,13.393284504869575
548,185.7183957270744
720,3602.5950640277097
721,3602.5950640277097
784,0.0
785,0.0
848,0.0
849,0.0
1121,5228.253814413645
1135,1767.2155916250106
1161,5.933939460467275
1163,13.996963305261435
1166,0.0
1168,0.0
2,4,12,25, 0,12, 0.00,60.00,Thursday
7,-5.0
545,19.797995964066136
546,0.9343614244124364
547,13.311311585705141
548,169.00610880643572
720,3265.20573904332
721,3265.20573904332
784,0.0
785,0.0
848,0.0
849,0.0
1121,4708.05013151032
1135,1609.8933308782468
1161,5.399962067657293
1163,30.73481802229874
1166,0.0
1168,0.0
2,4,12,25, 0,13, 0.00,60.00,Thursday
7,-6.1
545,19.814140162427126
546,2.511645318740537
547,13.232063134607404
548,155.70926116168746
720,2831.3829625807066
721,2831.3829625807066
784,0.0
785,0.0
848,0.0
849,0.0
1121,4066.516001683805
1135,1442.3051452661496
1161,31.617101524719534
1163,43.17017572346327
1166,0.0
1168,0.0
2,4,12,25, 0,14, 0.00,60.00,Thursday
7,-5.6
545,19.779816992006026
546,2.9081056057854795
547,13.178758807588691
548,147.698581604795
720,2733.200852162274
721,2733.200852162274
784,0.0
785,0.0
848,0.0
849,0.0
1121,3829.4808709840254
1135,1355.3694636841258
1161,47.35693345027612
1163,50.73558719605915
1166,0.0
1168,0.0
2,4,12,25, 0,15, 0.00,60.00,Thursday
7,-5.6
545,19.765836433826387
546,4.321922733621036
547,13.13557295456223
548,149.61955948635057
720,2742.9817082018144
721,2742.9817082018144
784,0.0
785,0.0
848,0.0
849,0.0
1121,3797.1879663961495
1135,1347.3275697884512
1161,71.3994861669792
1163,48.02569636328835
1166,0.0
1168,0.0
2,4,12,25, 0,16, 0.00,60.00,Thursday
7,-3.9
545,19.782603875723247
546,3.059886928273117
547,13.092802200142206
548,135.04680616032155
720,2665.749109283164
721,2665.749109283164
784,0.0
785,0.0
848,0.0
849,0.0
1121,3615.949576163029
1135,1244.0956545312404
1161,51.912388752621666
1163,63.52235820434278
1166,0.0
1168,0.0
2,4,12,25, 0,17, 0.00,60.00,Thursday
7,-5.6
545,19.55937140630587
546,1.0025506928264458
547,13.059401031363619
548,157.63229724491742
720,2975.8783691985536
721,2975.8783691985536
784,0.0
785,0.0
848,0.0
849,0.0
1121,4050.5851919980228
1135,1427.8692913655505
1161,67.10688901703003
1163,40.156496254029015
1166,0.0
1168,0.0
2,4,12,25, 0,18, 0.00,60.00,Thursday
7,-5.6
545,19.642886212652602
546,0.12191298437605272
547,13.012360244968663
548,163.3323742916734
720,3031.8639427740745
721,3031.8639427740745
784,0.0
785,0.0
848,0.0
849,0.0
1121,4217.141418295342
1135,1472.9765291072447
1161,69.53233502963766
1163,34.37926839440475
1166,0.0
1168,0.0
2,4,12,25, 0,19, 0.00,60.00,Thursday
7,-6.1
545,19.568299309476576
546,-1.018782920729336
547,12.979755649334184
548,182.35587788018836
720,3377.2051612885825
721,3377.2051612885825
784,0.0
785,0.0
848,0.0
849,0.0
1121,4750.6357118397455
1135,1657.011562202895
1161,62.280408050893016
1163,15.485719236516605
1166,0.0
1168,0.0
2,4,12,25, 0,20, 0.00,60.00,Thursday
7,-6.7
545,19.686016995787835
546,-1.5683831670785313
547,12.919669648651594
548,179.50048165231837
720,3149.564377155657
721,3149.564377155657
784,0.0
785,0.0
848,0.0
849,0.0
1121,4563.531383789585
1135,1614.6478696155814
1161,68.18390127578816
1163,17.99941475006268
1166,0.0
1168,0.0
2,4,12,25, 0,21, 0.00,60.00,Thursday
7,-6.1
545,19.75667482651919
546,-1.3183257669914537