Program Version,EnergyPlus, Version 22.2.0-c249759bad, YMD=2023.09.01 15:36
1,5,Environment Title[],Latitude[deg],Longitude[deg],Time Zone[],Elevation[m]
2,8,Day of Simulation[],Month[],Day of Month[],DST Indicator[1=yes 0=no],Hour[],StartMinute[],EndMinute[],DayType
3,5,Cumulative Day of Simulation[],Month[],Day of Month[],DST Indicator[1=yes 0=no],DayType  ! When Daily Report Variables Requested
4,2,Cumulative Days of Simulation[],Month[]  ! When Monthly Report Variables Requested
5,1,Cumulative Days of Simulation[] ! When Run Period Report Variables Requested
6,1,Calendar Year of Simulation[] ! When Annual Report Variables Requested
581,11,LIVING,AFN Zone Infiltration Air Change Rate [ach] !RunPeriod [Value,Min,Month,Day,Hour,Minute,Max,Month,Day,Hour,Minute]
582,11,ATTIC,AFN Zone Infiltration Air Change Rate [ach] !RunPeriod [Value,Min,Month,Day,Hour,Minute,Max,Month,Day,Hour,Minute]
583,11,CRAWLSPACE,AFN Zone Infiltration Air Change Rate [ach] !RunPeriod [Value,Min,Month,Day,Hour,Minute,Max,Month,Day,Hour,Minute]
1038,11,Facility,Facility Heating Setpoint Not Met Time [hr] !RunPeriod [Value,Min,Month,Day,Hour,Minute,Max,Month,Day,Hour,Minute]
1039,11,Facility,Facility Cooling Setpoint Not Met Time [hr] !RunPeriod [Value,Min,Month,Day,Hour,Minute,Max,Month,Day,Hour,Minute]
1115,11,DX_HEATING_COIL,Heating Coil Heating Energy [J] !RunPeriod [Value,Min,Month,Day,Hour,Minute,Max,Month,Day,Hour,Minute]
1128,11,DX_HEATING_COIL,Heating Coil Electricity Energy [J] !RunPeriod [Value,Min,Month,Day,Hour,Minute,Max,Month,Day,Hour,Minute]
1153,11,DX_HEATING_COIL,Heating Coil Defrost Electricity Energy [J] !RunPeriod [Value,Min,Month,Day,Hour,Minute,Max,Month,Day,Hour,Minute]
1154,11,DX_HEATING_COIL,Heating Coil Crankcase Heater Electricity Energy [J] !RunPeriod [Value,Min,Month,Day,Hour,Minute,Max,Month,Day,Hour,Minute]
1155,11,HEATING_RESISTANCE_BACKUP,Heating Coil Heating Energy [J] !RunPeriod [Value,Min,Month,Day,Hour,Minute,Max,Month,Day,Hour,Minute]
1156,11,HEATING_RESISTANCE_BACKUP,Heating Coil Electricity Energy [J] !RunPeriod [Value,Min,Month,Day,Hour,Minute,Max,Month,Day,Hour,Minute]
1292,11,WATER HEATER,Water Heater Heat Loss Energy [J] !RunPeriod [Value,Min,Month,Day,Hour,Minute,Max,Month,Day,Hour,Minute]
1306,11,WATER HEATER,Water Heater Heating Energy [J] !RunPeriod [Value,Min,Month,Day,Hour,Minute,Max,Month,Day,Hour,Minute]
1307,11,WATER HEATER,Water Heater Unmet Demand Heat Transfer Energy [J] !RunPeriod [Value,Min,Month,Day,Hour,Minute,Max,Month,Day,Hour,Minute]
1308,11,WATER HEATER,Water Heater Electricity Energy [J] !RunPeriod [Value,Min,Month,Day,Hour,Minute,Max,Month,Day,Hour,Minute]
13,11,Electricity:Facility [J] !RunPeriod [Value,Min,Month,Day,Hour,Minute,Max,Month,Day,Hour,Minute]
1134,11,Heating:Electricity [J] !RunPeriod [Value,Min,Month,Day,Hour,Minute,Max,Month,Day,Hour,Minute]
1096,11,Cooling:Electricity [J] !RunPeriod [Value,Min,Month,Day,Hour,Minute,Max,Month,Day,Hour,Minute]
562,11,Fans:Electricity [J] !RunPeriod [Value,Min,Month,Day,Hour,Minute,Max,Month,Day,Hour,Minute]
1379,11,Pumps:Electricity [J] !RunPeriod [Value,Min,Month,Day,Hour,Minute,Max,Month,Day,Hour,Minute]
1326,11,WaterSystems:Electricity [J] !RunPeriod [Value,Min,Month,Day,Hour,Minute,Max,Month,Day,Hour,Minute]
61,11,InteriorLights:Electricity [J] !RunPeriod [Value,Min,Month,Day,Hour,Minute,Max,Month,Day,Hour,Minute]
1046,11,ExteriorLights:Electricity [J] !RunPeriod [Value,Min,Month,Day,Hour,Minute,Max,Month,Day,Hour,Minute]
134,11,InteriorEquipment:Electricity [J] !RunPeriod [Value,Min,Month,Day,Hour,Minute,Max,Month,Day,Hour,Minute]
170,11,gas_dryer:InteriorEquipment:Electricity [J] !RunPeriod [Value,Min,Month,Day,Hour,Minute,Max,Month,Day,Hour,Minute]
207,11,clotheswasher:InteriorEquipment:Electricity [J] !RunPeriod [Value,Min,Month,Day,Hour,Minute,Max,Month,Day,Hour,Minute]
244,11,dishwasher:InteriorEquipment:Electricity [J] !RunPeriod [Value,Min,Month,Day,Hour,Minute,Max,Month,Day,Hour,Minute]
281,11,refrigerator:InteriorEquipment:Electricity [J] !RunPeriod [Value,Min,Month,Day,Hour,Minute,Max,Month,Day,Hour,Minute]
318,11,electric_mels:InteriorEquipment:Electricity [J] !RunPeriod [Value,Min,Month,Day,Hour,Minute,Max,Month,Day,Hour,Minute]
355,11,NaturalGas:Facility [J] !RunPeriod [Value,Min,Month,Day,Hour,Minute,Max,Month,Day,Hour,Minute]
403,11,InteriorEquipment:NaturalGas [J] !RunPeriod [Value,Min,Month,Day,Hour,Minute,Max,Month,Day,Hour,Minute]
476,11,gas_dryer:InteriorEquipment:NaturalGas [J] !RunPeriod [Value,Min,Month,Day,Hour,Minute,Max,Month,Day,Hour,Minute]
513,11,gas_mels:InteriorEquipment:NaturalGas [J] !RunPeriod [Value,Min,Month,Day,Hour,Minute,Max,Month,Day,Hour,Minute]
End of Data Dictionary
1,EXTREME_WINTER,  37.36,-121.92,  -8.00,  15.50
5,7
1038,0.25,0.0, 1,15, 1,15,0.25, 1,20, 6,15
1039,0.0,0.0, 1,15, 1,15,0.0, 1,15, 1,15
581,0.20725940057243641,0.12018408394940412, 1,18,10,51,0.650938295893209, 1,18,14,50
582,2.2871676999558654,0.0, 1,15, 4,50,12.961535926174962, 1,18,14,50
583,0.006082871447303122,0.00011048438330005663, 1,18, 2,60,0.0638451904416553, 1,20, 6, 7
1115,140747668.05430555,0.0, 1,15, 1,15,2382106.6992790555, 1,20, 6,60
1128,39967411.92601344,0.0, 1,15, 1,15,724961.9003195608, 1,20, 6,60
1153,1501592.1074273693,0.0, 1,15, 1,15,57778.60232436252, 1,20, 6,60
1154,62346835.50961511,0.0, 1,15,11,52,180000.0, 1,15, 1,15
1155,0.0,0.0, 1,15, 1,15,0.0, 1,15, 1,15
1156,0.0,0.0, 1,15, 1,15,0.0, 1,15, 1,15
1292,-23877420.90555467,-39624.47639406868, 1,21, 4,60,-3834.9163490934898, 1,20,12,14
1306,202955220.70907214,0.0, 1,15, 1,15,10463212.473345172, 1,21, 9,45
1307,3390408.6738450117,0.0, 1,15, 1,15,1805910.8917070278, 1,21,19,60
1308,202955220.70907214,0.0, 1,15, 1,15,10463212.473345172, 1,21, 9,45
13,703886575.1269153,151703.1275401932, 1,18, 4,15,11374458.92928511, 1,21,19,60
61,301924526.02383536,88139.10953165221, 1,15, 1,15,1282023.4113694867, 1,15,20,15
134,70666020.44019976,63564.01800854099, 1,15, 4,15,156554.22484006523, 1,20,20,15
170,5241013.419656067,348.4159749238097, 1,15, 4,15,17476.39704006126, 1,20,12,15
207,6509451.13922267,815.2532113832032, 1,15, 3,15,22990.642799023623, 1,20,10,15
244,12749673.399825225,1521.856143006317, 1,15, 4,15,53038.631142310165, 1,20,20,15
281,46165882.481495745,59938.60262432081, 1,15, 5,15,81951.81706819107, 1,15,19,15
318,0.0,0.0, 1,15, 1,15,0.0, 1,15, 1,15
355,197687796.27748066,18561.32405820678, 1,15, 4,15,724774.895203776, 1,20,18,15
403,197687796.27748066,18561.32405820678, 1,15, 4,15,724774.895203776, 1,20,18,15
476,106772067.24485716,7098.072629279515, 1,15, 4,15,356036.3026282215, 1,20,12,15
513,0.0,0.0, 1,15, 1,15,0.0, 1,15, 1,15
562,6487551.678992525,0.0, 1,15, 1,15,94835.67445504494, 1,20, 6,15
1046,0.0,0.0, 1,15, 1,15,0.0, 1,15, 1,15
1096,18037416.731760256,0.0, 1,15, 1,15,275336.1200552097, 1,19,17,15
1134,103815839.54305597,0.0, 1,15,11,60,972706.6034095038, 1,20, 6,15
1326,202955220.70907214,0.0, 1,15, 1,15,10463212.473345172, 1,21, 9,45
1379,0.0,0.0, 1,15, 1,15,0.0, 1,15, 1,15
1,EXTREME_SUMMER,  37.36,-121.92,  -8.00,  15.50
5,7
1038,0.0,0.0, 9, 2, 1,15,0.0, 9, 2, 1,15
1039,13.25,0.0, 9, 2, 1,15,0.25, 9, 6,15,15
581,0.19067009537660412,0.0, 9, 6,23, 3,0.5689134573791381, 9, 4,14,52
582,3.705695204235569,0.0, 9, 6, 8,52,12.570384901852165, 9, 5,15,52
583,0.027572335369875245,0.0, 9, 6,23, 3,0.06426589942666648, 9, 6,19,18
1115,0.0,0.0, 9, 2, 1,15,0.0, 9, 2, 1,15
1128,0.0,0.0, 9, 2, 1,15,0.0, 9, 2, 1,15
1153,0.0,0.0, 9, 2, 1,15,0.0, 9, 2, 1,15
1154,0.0,0.0, 9, 2, 1,15,0.0, 9, 2, 1,15
1155,0.0,0.0, 9, 2, 1,15,0.0, 9, 2, 1,15
1156,0.0,0.0, 9, 2, 1,15,0.0, 9, 2, 1,15
1292,-22080175.5158486,-34256.23126707079, 9, 5,22,45,-2685.5712705015303, 9, 7, 9,38
1306,176371174.44816372,0.0, 9, 2, 1,15,5255797.469619634, 9, 2, 7,45
1307,1707066.0427997715,0.0, 9, 2, 1,15,428436.4448902785, 9, 8,19,52
1308,176371174.44816372,0.0, 9, 2, 1,15,5255797.469619634, 9, 2, 7,45
13,897342991.2509984,151703.1275401932, 9, 2, 4,15,12619250.861989887, 9, 8,19,60
61,301924526.02383536,88139.10953165221, 9, 2, 1,15,1282023.4113694867, 9, 2,20,15
134,70666020.44019976,63564.01800854099, 9, 2, 4,15,156554.22484006523, 9, 7,20,15
170,5241013.419656067,348.4159749238097, 9, 2, 4,15,17476.39704006126, 9, 7,12,15
207,6509451.13922267,815.2532113832032, 9, 2, 3,15,22990.642799023623, 9, 7,10,15
244,12749673.399825225,1521.856143006317, 9, 2, 4,15,53038.631142310165, 9, 7,20,15
281,46165882.481495745,59938.60262432081, 9, 2, 5,15,81951.81706819107, 9, 2,19,15
318,0.0,0.0, 9, 2, 1,15,0.0, 9, 2, 1,15
355,197687796.27748066,18561.32405820678, 9, 2, 4,15,724774.895203776, 9, 7,18,15
403,197687796.27748066,18561.32405820678, 9, 2, 4,15,724774.895203776, 9, 7,18,15
476,106772067.24485716,7098.072629279515, 9, 2, 4,15,356036.3026282215, 9, 7,12,15
513,0.0,0.0, 9, 2, 1,15,0.0, 9, 2, 1,15
562,36038235.83900581,0.0, 9, 2, 2,30,125838.89554123329, 9, 6,15,15
1046,0.0,0.0, 9, 2, 1,15,0.0, 9, 2, 1,15
1096,312343034.49979484,0.0, 9, 2, 2,30,1327595.4204799212, 9, 7,15,60
1134,0.0,0.0, 9, 2, 1,15,0.0, 9, 2, 1,15
1326,176371174.4481637,0.0, 9, 2, 1,15,10500479.61769248, 9, 8,19,60
1379,0.0,0.0, 9, 2, 1,15,0.0, 9, 2, 1,15
1,ANNUAL,  37.36,-121.92,  -8.00,  15.50
5,365
1038,2.0,0.0, 1, 1, 1,15,0.25, 1,20, 6,15
1039,232.0,0.0, 1, 1, 1,15,0.25, 1,15,14,30
581,0.2089263068360233,0.0, 4,22,23, 3,1.3160211191012725, 1, 1, 9,60
582,3.3053015119708897,0.0, 1, 2, 4,60,26.297849034330042, 1, 1, 9,60
583,0.018821898760361496,0.0, 4,22,23, 3,0.08741225251995759, 2,27, 6, 3
1115,1713673176.956822,0.0, 1, 1, 1,15,3353182.344177533,12,25, 6,45
1128,489705693.303752,0.0, 1, 1, 1,15,1030607.5320705707,12,27, 6,60
1153,19500487.794777174,0.0, 1, 1, 1,15,95187.53273653396,12,25, 6,45
1154,865950968.7391328,0.0, 1, 1, 1,15,180000.0, 1, 2,23,45
1155,1642971.2621600877,0.0, 1, 1, 1,15,499568.92751055234,12,27, 6, 5
1156,1642971.2621600877,0.0, 1, 1, 1,15,499568.92751055234,12,27, 6, 5
1292,-1188121900.866215,-39769.126284616825, 2,16, 5,45,-2291.9694691531004, 6, 2,11,49
1306,9918710802.165209,0.0, 1, 1, 1,15,9887439.882533964, 2,26,19,60
1307,130105285.73233478,0.0, 1, 1, 1,15,3375517.585894384, 2,19,19,60
1308,9918710802.165209,0.0, 1, 1, 1,15,9887439.882533964, 2,26,19,60
13,41301862600.179504,151703.1275401932, 1, 2, 4,15,13060733.261810133, 6,25,19,60
61,15743207428.383959,88139.10953165221, 1, 1, 1,15,1282023.4113694867, 1, 1,20,15
134,3685071073.4325233,63564.01800854099, 1, 2, 4,15,156554.22484006523, 1, 1,20,15
170,273393721.45532674,348.4159749238097, 1, 2, 4,15,17476.39704006126, 1, 1,12,15
207,339560869.0695816,815.2532113832032, 1, 2, 3,15,22990.642799023623, 1, 1,10,15
244,664895467.8009144,1521.856143006317, 1, 2, 4,15,53038.631142310165, 1, 1,20,15
281,2407221015.106824,59938.60262432081, 1, 1, 5,15,81951.81706819107, 1, 1,19,15
318,0.0,0.0, 1, 1, 1,15,0.0, 1, 1, 1,15
355,10310294493.051695,18561.32405820678, 1, 2, 4,15,724774.895203776, 1, 1,18,15
403,10310294493.051695,18561.32405820678, 1, 2, 4,15,724774.895203776, 1, 1,18,15
476,5569688622.066177,7098.072629279515, 1, 2, 4,15,356036.3026282215, 1, 1,12,15
513,0.0,0.0, 1, 1, 1,15,0.0, 1, 1, 1,15
562,1203016595.923353,0.0, 1, 1, 1,15,125838.8955412333, 6, 9,16,30
1046,0.0,0.0, 1, 1, 1,15,0.0, 1, 1, 1,15
1096,9375056579.171825,0.0, 1, 1, 1,15,1329874.7936662424, 9, 7,15,60
1134,1376800121.099819,0.0, 1, 1, 1,15,1753119.6741576581,12,27, 6,15
1326,9918710802.165186,0.0, 1, 1, 1,15,10528693.14838037, 6,25,19,60
1379,0.0,0.0, 1, 1, 1,15,0.0, 1, 1, 1,15
End of Data
 Number of Records Written=          99
