Program Version,EnergyPlus, Version 22.2.0-c249759bad, YMD=2023.09.01 20:16
1,5,Environment Title[],Latitude[deg],Longitude[deg],Time Zone[],Elevation[m]
2,8,Day of Simulation[],Month[],Day of Month[],DST Indicator[1=yes 0=no],Hour[],StartMinute[],EndMinute[],DayType
3,5,Cumulative Day of Simulation[],Month[],Day of Month[],DST Indicator[1=yes 0=no],DayType  ! When Daily Report Variables Requested
4,2,Cumulative Days of Simulation[],Month[]  ! When Monthly Report Variables Requested
5,1,Cumulative Days of Simulation[] ! When Run Period Report Variables Requested
6,1,Calendar Year of Simulation[] ! When Annual Report Variables Requested
581,11,LIVING,AFN Zone Infiltration Air Change Rate [ach] !RunPeriod [Value,Min,Month,Day,Hour,Minute,Max,Month,Day,Hour,Minute]
582,11,ATTIC,AFN Zone Infiltration Air Change Rate [ach] !RunPeriod [Value,Min,Month,Day,Hour,Minute,Max,Month,Day,Hour,Minute]
583,11,CRAWLSPACE,AFN Zone Infiltration Air Change Rate [ach] !RunPeriod [Value,Min,Month,Day,Hour,Minute,Max,Month,Day,Hour,Minute]
1038,11,Facility,Facility Heating Setpoint Not Met Time [hr] !RunPeriod [Value,Min,Month,Day,Hour,Minute,Max,Month,Day,Hour,Minute]
1039,11,Facility,Facility Cooling Setpoint Not Met Time [hr] !RunPeriod [Value,Min,Month,Day,Hour,Minute,Max,Month,Day,Hour,Minute]
1115,11,DX_HEATING_COIL,Heating Coil Heating Energy [J] !RunPeriod [Value,Min,Month,Day,Hour,Minute,Max,Month,Day,Hour,Minute]
1128,11,DX_HEATING_COIL,Heating Coil Electricity Energy [J] !RunPeriod [Value,Min,Month,Day,Hour,Minute,Max,Month,Day,Hour,Minute]
1153,11,DX_HEATING_COIL,Heating Coil Defrost Electricity Energy [J] !RunPeriod [Value,Min,Month,Day,Hour,Minute,Max,Month,Day,Hour,Minute]
1154,11,DX_HEATING_COIL,Heating Coil Crankcase Heater Electricity Energy [J] !RunPeriod [Value,Min,Month,Day,Hour,Minute,Max,Month,Day,Hour,Minute]
1155,11,HEATING_RESISTANCE_BACKUP,Heating Coil Heating Energy [J] !RunPeriod [Value,Min,Month,Day,Hour,Minute,Max,Month,Day,Hour,Minute]
1156,11,HEATING_RESISTANCE_BACKUP,Heating Coil Electricity Energy [J] !RunPeriod [Value,Min,Month,Day,Hour,Minute,Max,Month,Day,Hour,Minute]
1292,11,WATER HEATER,Water Heater Heat Loss Energy [J] !RunPeriod [Value,Min,Month,Day,Hour,Minute,Max,Month,Day,Hour,Minute]
1306,11,WATER HEATER,Water Heater Heating Energy [J] !RunPeriod [Value,Min,Month,Day,Hour,Minute,Max,Month,Day,Hour,Minute]
1307,11,WATER HEATER,Water Heater Unmet Demand Heat Transfer Energy [J] !RunPeriod [Value,Min,Month,Day,Hour,Minute,Max,Month,Day,Hour,Minute]
1308,11,WATER HEATER,Water Heater Electricity Energy [J] !RunPeriod [Value,Min,Month,Day,Hour,Minute,Max,Month,Day,Hour,Minute]
13,11,Electricity:Facility [J] !RunPeriod [Value,Min,Month,Day,Hour,Minute,Max,Month,Day,Hour,Minute]
1134,11,Heating:Electricity [J] !RunPeriod [Value,Min,Month,Day,Hour,Minute,Max,Month,Day,Hour,Minute]
1096,11,Cooling:Electricity [J] !RunPeriod [Value,Min,Month,Day,Hour,Minute,Max,Month,Day,Hour,Minute]
562,11,Fans:Electricity [J] !RunPeriod [Value,Min,Month,Day,Hour,Minute,Max,Month,Day,Hour,Minute]
1379,11,Pumps:Electricity [J] !RunPeriod [Value,Min,Month,Day,Hour,Minute,Max,Month,Day,Hour,Minute]
1326,11,WaterSystems:Electricity [J] !RunPeriod [Value,Min,Month,Day,Hour,Minute,Max,Month,Day,Hour,Minute]
61,11,InteriorLights:Electricity [J] !RunPeriod [Value,Min,Month,Day,Hour,Minute,Max,Month,Day,Hour,Minute]
1046,11,ExteriorLights:Electricity [J] !RunPeriod [Value,Min,Month,Day,Hour,Minute,Max,Month,Day,Hour,Minute]
134,11,InteriorEquipment:Electricity [J] !RunPeriod [Value,Min,Month,Day,Hour,Minute,Max,Month,Day,Hour,Minute]
170,11,gas_dryer:InteriorEquipment:Electricity [J] !RunPeriod [Value,Min,Month,Day,Hour,Minute,Max,Month,Day,Hour,Minute]
207,11,clotheswasher:InteriorEquipment:Electricity [J] !RunPeriod [Value,Min,Month,Day,Hour,Minute,Max,Month,Day,Hour,Minute]
244,11,dishwasher:InteriorEquipment:Electricity [J] !RunPeriod [Value,Min,Month,Day,Hour,Minute,Max,Month,Day,Hour,Minute]
281,11,refrigerator:InteriorEquipment:Electricity [J] !RunPeriod [Value,Min,Month,Day,Hour,Minute,Max,Month,Day,Hour,Minute]
318,11,electric_mels:InteriorEquipment:Electricity [J] !RunPeriod [Value,Min,Month,Day,Hour,Minute,Max,Month,Day,Hour,Minute]
355,11,NaturalGas:Facility [J] !RunPeriod [Value,Min,Month,Day,Hour,Minute,Max,Month,Day,Hour,Minute]
403,11,InteriorEquipment:NaturalGas [J] !RunPeriod [Value,Min,Month,Day,Hour,Minute,Max,Month,Day,Hour,Minute]
476,11,gas_dryer:InteriorEquipment:NaturalGas [J] !RunPeriod [Value,Min,Month,Day,Hour,Minute,Max,Month,Day,Hour,Minute]
513,11,gas_mels:InteriorEquipment:NaturalGas [J] !RunPeriod [Value,Min,Month,Day,Hour,Minute,Max,Month,Day,Hour,Minute]
End of Data Dictionary
1,EXTREME_WINTER,  39.22,-106.87,  -7.00,2384.00
5,15
1038,5.75,0.0,12,22, 1,15,0.25,12,24, 6,15
1039,0.0,0.0,12,22, 1,15,0.0,12,22, 1,15
581,0.4017540007589079,0.2140344609205712, 1, 5,23, 7,0.7370212978648494,12,23,17,55
582,1.8933371278627371,0.0,12,25, 7,45,10.162654566308309,12,23,17,50
583,0.06815323143899495,0.0003304882496116124, 1, 5,16,60,0.09564808430089841,12,23,18,50
1115,4028951771.9704547,0.0,12,22,23, 3,4531190.78363143,12,23, 4,60
1128,1557135731.9788463,0.0,12,22,23, 3,1467953.651532245,12,29,22,30
1153,32379085.1403732,0.0,12,22,23, 3,89503.97286083747,12,22,24,60
1154,59470951.46931437,0.0,12,22, 6, 5,180000.0, 1, 3,15,60
1155,2014501315.9908497,0.0,12,22, 1,15,6509804.119254981,12,27, 6,45
1156,2014501315.9908497,0.0,12,22, 1,15,6509804.119254981,12,27, 6,45
1292,-54417956.911488086,-39811.69566030361,12,22, 1,15,-3728.9338439268467,12,28,11,45
1306,308333442.0106544,0.0,12,22, 1,15,4050000.0,12,22, 7,15
1307,70046545.70438568,0.0,12,22, 1,15,8627337.427110158, 1, 5, 6,60
1308,308333442.0106544,0.0,12,22, 1,15,4050000.0,12,22, 7,15
13,4950499511.426715,458150.8545527997, 1, 3,15,60,12636801.758496374, 1, 1, 8,30
61,646981127.1939323,88139.10953165221,12,22, 1,15,1282023.4113694867,12,22,20,15
134,151290040.75163814,63564.01800854099,12,22, 4,15,156554.22484006523,12,27,20,15
170,11185820.069951689,348.4159749238097,12,22, 4,15,17476.39704006126,12,27,12,15
207,13893028.5742839,815.2532113832032,12,22, 3,15,22990.642799023623,12,27,10,15
244,27284301.07562584,1521.856143006317,12,22, 4,15,53038.631142310165,12,27,20,15
281,98926891.03177746,59938.60262432081,12,22, 5,15,81951.81706819107,12,22,19,15
318,0.0,0.0,12,22, 1,15,0.0,12,22, 1,15
355,422701517.16107386,18561.32405820678,12,22, 4,15,724774.895203776,12,27,18,15
403,422701517.16107386,18561.32405820678,12,22, 4,15,724774.895203776,12,27,18,15
476,227882097.80545202,7098.072629279515,12,22, 4,15,356036.3026282215,12,27,12,15
513,0.0,0.0,12,22, 1,15,0.0,12,22, 1,15
562,180407816.89111093,0.0,12,27,16,15,162944.81333845868,12,23, 4,60
1046,0.0,0.0,12,22, 1,15,0.0,12,22, 1,15
1096,0.0,0.0,12,22, 1,15,0.0,12,22, 1,15
1134,3663487084.5793815,180000.0,12,27,16,15,7826400.901764141, 1, 2, 7,30
1326,308333442.0106543,0.0,12,22, 1,15,4050000.0,12,22, 7,15
1379,0.0,0.0,12,22, 1,15,0.0,12,22, 1,15
1,EXTREME_SUMMER,  39.22,-106.87,  -7.00,2384.00
5,7
1038,0.0,0.0, 6,29, 1,15,0.0, 6,29, 1,15
1039,0.0,0.0, 6,29, 1,15,0.0, 6,29, 1,15
581,0.19667391727814826,0.0669077023465757, 7, 1, 6,50,0.46889926828243955, 7, 5,16,50
582,3.083283135155363,0.0, 6,29, 7,53,10.005678224894817, 7, 5,17,52
583,0.02322846122152823,0.00017120558074950498, 6,29, 7,32,0.06494931988954122, 7, 2,18,33
1115,0.0,0.0, 6,29, 1,15,0.0, 6,29, 1,15
1128,0.0,0.0, 6,29, 1,15,0.0, 6,29, 1,15
1153,0.0,0.0, 6,29, 1,15,0.0, 6,29, 1,15
1154,2340000.0,0.0, 6,29, 1,15,180000.0, 7, 3, 4,60
1155,0.0,0.0, 6,29, 1,15,0.0, 6,29, 1,15
1156,0.0,0.0, 6,29, 1,15,0.0, 6,29, 1,15
1292,-22349078.528636225,-35642.16234012095, 6,29, 6,30,-2355.333519099066, 7, 2, 8,31
1306,120044628.40652339,0.0, 6,29, 1,15,3889598.742242943, 7, 5,13,60
1307,23552377.151744172,0.0, 6,29, 1,15,3923949.355395105, 6,29, 6,60
1308,120044628.40652339,0.0, 6,29, 1,15,3889598.742242943, 7, 5,13,60
13,771281498.3042716,151703.1275401932, 6,29, 4,15,5295041.156087608, 6,29,19,30
61,301924526.02383536,88139.10953165221, 6,29, 1,15,1282023.4113694867, 6,29,20,15
134,70666020.44019976,63564.01800854099, 6,29, 4,15,156554.22484006523, 7, 4,20,15
170,5241013.419656067,348.4159749238097, 6,29, 4,15,17476.39704006126, 7, 4,12,15
207,6509451.13922267,815.2532113832032, 6,29, 3,15,22990.642799023623, 7, 4,10,15
244,12749673.399825225,1521.856143006317, 6,29, 4,15,53038.631142310165, 7, 4,20,15
281,46165882.481495745,59938.60262432081, 6,29, 5,15,81951.81706819107, 6,29,19,15
318,0.0,0.0, 6,29, 1,15,0.0, 6,29, 1,15
355,197687796.27748066,18561.32405820678, 6,29, 4,15,724774.895203776, 7, 4,18,15
403,197687796.27748066,18561.32405820678, 6,29, 4,15,724774.895203776, 7, 4,18,15
476,106772067.24485716,7098.072629279515, 6,29, 4,15,356036.3026282215, 7, 4,12,15
513,0.0,0.0, 6,29, 1,15,0.0, 6,29, 1,15
562,30498967.575273305,0.0, 6,29, 1,15,132243.6786161648, 7, 2,18,30
1046,0.0,0.0, 6,29, 1,15,0.0, 6,29, 1,15
1096,245807355.85844123,0.0, 6,29, 1,15,1176787.5564221002, 7, 2,18,30
1134,2340000.0,0.0, 6,29, 1,15,180000.0, 7, 2, 5,45
1326,120044628.40652344,0.0, 6,29, 1,15,4050000.0000000014, 7, 1, 9,15
1379,0.0,0.0, 6,29, 1,15,0.0, 6,29, 1,15
1,ANNUAL,  39.22,-106.87,  -7.00,2384.00
5,365
1038,6.5,0.0, 1, 1, 1,15,0.25, 1, 1, 6,15
1039,30.5,0.0, 1, 1, 1,15,0.25, 4,11,13,30
581,0.2713424618205781,0.043826639693201754, 9, 2, 8,31,1.026718104181918, 4,28,13,48
582,2.515219604723012,0.0, 1, 3,20,52,19.480728907662858, 4,28,13,46
583,0.029274301838612904,0.00006978550537586802, 5,19, 8, 4,0.09486131149381273, 1, 1, 6,60
1115,36759389687.74595,0.0, 1, 2,23, 5,4941132.354483624, 3,17, 6,45
1128,12790690802.633757,0.0, 1, 2,23, 5,1566292.2846448142, 3,21, 6,45
1153,453620052.03879255,0.0, 1, 2,23, 5,145925.83422284562,11,21, 6,45
1154,2454174979.5792627,0.0, 1, 1, 1, 7,180000.0, 1, 3,15,60
1155,6732666721.911046,0.0, 1, 1,12,22,6509804.119254981, 1, 1, 6,30
1156,6732666721.911046,0.0, 1, 1,12,22,6509804.119254981, 1, 1, 6,30
1292,-1254988616.7774913,-39794.155328084125, 3,20, 1,60,-1960.1878661396277, 7,16,15,60
1306,6787821732.05137,0.0, 1, 1, 1, 7,4050000.0, 1, 2, 7,15
1307,1408026808.4166934,0.0, 1, 1, 1, 7,9035408.921233494, 2,20, 6,60
1308,6787821732.05137,0.0, 1, 1, 1, 7,4050000.0, 1, 2, 7,15
13,53910295278.03512,151703.1275401932, 5,29, 4,15,12431959.850847308,12,27, 8,60
61,15743207428.383959,88139.10953165221, 1, 1, 1,15,1282023.4113694867, 1, 1,20,15
134,3685071073.4325233,63564.01800854099, 1, 2, 4,15,156554.22484006523, 1, 1,20,15
170,273393721.45532674,348.4159749238097, 1, 2, 4,15,17476.39704006126, 1, 1,12,15
207,339560869.0695816,815.2532113832032, 1, 2, 3,15,22990.642799023623, 1, 1,10,15
244,664895467.8009144,1521.856143006317, 1, 2, 4,15,53038.631142310165, 1, 1,20,15
281,2407221015.106824,59938.60262432081, 1, 1, 5,15,81951.81706819107, 1, 1,19,15
318,0.0,0.0, 1, 1, 1,15,0.0, 1, 1, 1,15
355,10310294493.051695,18561.32405820678, 1, 2, 4,15,724774.895203776, 1, 1,18,15
403,10310294493.051695,18561.32405820678, 1, 2, 4,15,724774.895203776, 1, 1,18,15
476,5569688622.066177,7098.072629279515, 1, 2, 4,15,356036.3026282215, 1, 1,12,15
513,0.0,0.0, 1, 1, 1,15,0.0, 1, 1, 1,15
562,1892501729.9475904,0.0, 1, 3,15,30,162944.81333845868, 1, 1, 1,15
1046,0.0,0.0, 1, 1, 1,15,0.0, 1, 1, 1,15
1096,3370540758.0553155,0.0, 1, 1, 1,15,1276958.8064691315, 7, 2,18,30
1134,22431152556.162804,0.0, 3, 2,13,60,7847419.582834105, 1,12, 6,30
1326,6787821732.0513735,0.0, 1, 1, 1,15,4050000.0000000014, 5,24, 9,15
1379,0.0,0.0, 1, 1, 1,15,0.0, 1, 1, 1,15
End of Data
 Number of Records Written=          99
