Program Version,EnergyPlus, Version 22.2.0-c249759bad, YMD=2023.09.01 15:56
1,5,Environment Title[],Latitude[deg],Longitude[deg],Time Zone[],Elevation[m]
2,8,Day of Simulation[],Month[],Day of Month[],DST Indicator[1=yes 0=no],Hour[],StartMinute[],EndMinute[],DayType
3,5,Cumulative Day of Simulation[],Month[],Day of Month[],DST Indicator[1=yes 0=no],DayType  ! When Daily Report Variables Requested
4,2,Cumulative Days of Simulation[],Month[]  ! When Monthly Report Variables Requested
5,1,Cumulative Days of Simulation[] ! When Run Period Report Variables Requested
6,1,Calendar Year of Simulation[] ! When Annual Report Variables Requested
581,11,LIVING,AFN Zone Infiltration Air Change Rate [ach] !RunPeriod [Value,Min,Month,Day,Hour,Minute,Max,Month,Day,Hour,Minute]
582,11,ATTIC,AFN Zone Infiltration Air Change Rate [ach] !RunPeriod [Value,Min,Month,Day,Hour,Minute,Max,Month,Day,Hour,Minute]
583,11,CRAWLSPACE,AFN Zone Infiltration Air Change Rate [ach] !RunPeriod [Value,Min,Month,Day,Hour,Minute,Max,Month,Day,Hour,Minute]
1038,11,Facility,Facility Heating Setpoint Not Met Time [hr] !RunPeriod [Value,Min,Month,Day,Hour,Minute,Max,Month,Day,Hour,Minute]
1039,11,Facility,Facility Cooling Setpoint Not Met Time [hr] !RunPeriod [Value,Min,Month,Day,Hour,Minute,Max,Month,Day,Hour,Minute]
1115,11,DX_HEATING_COIL,Heating Coil Heating Energy [J] !RunPeriod [Value,Min,Month,Day,Hour,Minute,Max,Month,Day,Hour,Minute]
1128,11,DX_HEATING_COIL,Heating Coil Electricity Energy [J] !RunPeriod [Value,Min,Month,Day,Hour,Minute,Max,Month,Day,Hour,Minute]
1153,11,DX_HEATING_COIL,Heating Coil Defrost Electricity Energy [J] !RunPeriod [Value,Min,Month,Day,Hour,Minute,Max,Month,Day,Hour,Minute]
1154,11,DX_HEATING_COIL,Heating Coil Crankcase Heater Electricity Energy [J] !RunPeriod [Value,Min,Month,Day,Hour,Minute,Max,Month,Day,Hour,Minute]
1155,11,HEATING_RESISTANCE_BACKUP,Heating Coil Heating Energy [J] !RunPeriod [Value,Min,Month,Day,Hour,Minute,Max,Month,Day,Hour,Minute]
1156,11,HEATING_RESISTANCE_BACKUP,Heating Coil Electricity Energy [J] !RunPeriod [Value,Min,Month,Day,Hour,Minute,Max,Month,Day,Hour,Minute]
1292,11,WATER HEATER,Water Heater Heat Loss Energy [J] !RunPeriod [Value,Min,Month,Day,Hour,Minute,Max,Month,Day,Hour,Minute]
1306,11,WATER HEATER,Water Heater Heating Energy [J] !RunPeriod [Value,Min,Month,Day,Hour,Minute,Max,Month,Day,Hour,Minute]
1307,11,WATER HEATER,Water Heater Unmet Demand Heat Transfer Energy [J] !RunPeriod [Value,Min,Month,Day,Hour,Minute,Max,Month,Day,Hour,Minute]
1308,11,WATER HEATER,Water Heater Electricity Energy [J] !RunPeriod [Value,Min,Month,Day,Hour,Minute,Max,Month,Day,Hour,Minute]
13,11,Electricity:Facility [J] !RunPeriod [Value,Min,Month,Day,Hour,Minute,Max,Month,Day,Hour,Minute]
1134,11,Heating:Electricity [J] !RunPeriod [Value,Min,Month,Day,Hour,Minute,Max,Month,Day,Hour,Minute]
1096,11,Cooling:Electricity [J] !RunPeriod [Value,Min,Month,Day,Hour,Minute,Max,Month,Day,Hour,Minute]
562,11,Fans:Electricity [J] !RunPeriod [Value,Min,Month,Day,Hour,Minute,Max,Month,Day,Hour,Minute]
1379,11,Pumps:Electricity [J] !RunPeriod [Value,Min,Month,Day,Hour,Minute,Max,Month,Day,Hour,Minute]
1326,11,WaterSystems:Electricity [J] !RunPeriod [Value,Min,Month,Day,Hour,Minute,Max,Month,Day,Hour,Minute]
61,11,InteriorLights:Electricity [J] !RunPeriod [Value,Min,Month,Day,Hour,Minute,Max,Month,Day,Hour,Minute]
1046,11,ExteriorLights:Electricity [J] !RunPeriod [Value,Min,Month,Day,Hour,Minute,Max,Month,Day,Hour,Minute]
134,11,InteriorEquipment:Electricity [J] !RunPeriod [Value,Min,Month,Day,Hour,Minute,Max,Month,Day,Hour,Minute]
170,11,gas_dryer:InteriorEquipment:Electricity [J] !RunPeriod [Value,Min,Month,Day,Hour,Minute,Max,Month,Day,Hour,Minute]
207,11,clotheswasher:InteriorEquipment:Electricity [J] !RunPeriod [Value,Min,Month,Day,Hour,Minute,Max,Month,Day,Hour,Minute]
244,11,dishwasher:InteriorEquipment:Electricity [J] !RunPeriod [Value,Min,Month,Day,Hour,Minute,Max,Month,Day,Hour,Minute]
281,11,refrigerator:InteriorEquipment:Electricity [J] !RunPeriod [Value,Min,Month,Day,Hour,Minute,Max,Month,Day,Hour,Minute]
318,11,electric_mels:InteriorEquipment:Electricity [J] !RunPeriod [Value,Min,Month,Day,Hour,Minute,Max,Month,Day,Hour,Minute]
355,11,NaturalGas:Facility [J] !RunPeriod [Value,Min,Month,Day,Hour,Minute,Max,Month,Day,Hour,Minute]
403,11,InteriorEquipment:NaturalGas [J] !RunPeriod [Value,Min,Month,Day,Hour,Minute,Max,Month,Day,Hour,Minute]
476,11,gas_dryer:InteriorEquipment:NaturalGas [J] !RunPeriod [Value,Min,Month,Day,Hour,Minute,Max,Month,Day,Hour,Minute]
513,11,gas_mels:InteriorEquipment:NaturalGas [J] !RunPeriod [Value,Min,Month,Day,Hour,Minute,Max,Month,Day,Hour,Minute]
End of Data Dictionary
1,EXTREME_WINTER,  38.38, -81.59,  -5.00, 277.40
5,7
1038,0.5,0.0, 1,15, 1,15,0.25, 1,20, 6,15
1039,0.0,0.0, 1,15, 1,15,0.0, 1,15, 1,15
581,0.31539442503928405,0.17402002686321402, 1,17,20,60,0.7008264255432349, 1,19,21,60
582,2.8712847267233994,0.0, 1,15,21,52,11.831264963754458, 1,18, 6,60
583,0.03759848947358936,0.0002937770618273717, 1,17,20,60,0.08002823773975931, 1,19,21,60
1115,1253025115.5364225,0.0, 1,15,16,30,4243052.990904048, 1,19, 6,60
1128,427642124.71307826,0.0, 1,15,16,30,1312186.1717624413, 1,19, 6,60
1153,7446175.956463551,0.0, 1,15,16,30,67707.80321976224, 1,18, 8,15
1154,59921086.02960666,0.0, 1,15, 6, 5,180000.0, 1,16,15,15
1155,297662325.6699473,0.0, 1,15, 1,15,4378081.309490406, 1,21, 6,60
1156,297662325.6699473,0.0, 1,15, 1,15,4378081.309490406, 1,21, 6,60
1292,-25262077.427919913,-39809.637614733285, 1,15, 1,15,-5023.999228202237, 1,21,18,27
1306,228305253.38827908,0.0, 1,15, 1,15,7355988.989249572, 1,15, 7,45
1307,5416198.835325984,0.0, 1,15, 1,15,1377714.812218237, 1,21,19,52
1308,228305253.38827908,0.0, 1,15, 1,15,7355988.989249572, 1,15, 7,45
13,1439887795.3115733,344334.63869159983, 1,18, 1,15,14646009.351472605, 1,21, 9,45
61,301924526.02383536,88139.10953165221, 1,15, 1,15,1282023.4113694867, 1,15,20,15
134,70666020.44019976,63564.01800854099, 1,15, 4,15,156554.22484006523, 1,20,20,15
170,5241013.419656067,348.4159749238097, 1,15, 4,15,17476.39704006126, 1,20,12,15
207,6509451.13922267,815.2532113832032, 1,15, 3,15,22990.642799023623, 1,20,10,15
244,12749673.399825225,1521.856143006317, 1,15, 4,15,53038.631142310165, 1,20,20,15
281,46165882.481495745,59938.60262432081, 1,15, 5,15,81951.81706819107, 1,15,19,15
318,0.0,0.0, 1,15, 1,15,0.0, 1,15, 1,15
355,197687796.27748066,18561.32405820678, 1,15, 4,15,724774.895203776, 1,20,18,15
403,197687796.27748066,18561.32405820678, 1,15, 4,15,724774.895203776, 1,20,18,15
476,106772067.24485716,7098.072629279515, 1,15, 4,15,356036.3026282215, 1,20,12,15
513,0.0,0.0, 1,15, 1,15,0.0, 1,15, 1,15
562,46320283.090162925,0.0, 1,15,16,45,136837.65631474473, 1,15, 6,30
1046,0.0,0.0, 1,15, 1,15,0.0, 1,15, 1,15
1096,0.0,0.0, 1,15, 1,15,0.0, 1,15, 1,15
1134,792671712.3690958,179999.99999999997, 1,16,16,60,5912559.171161064, 1,21, 6,30
1326,228305253.38827917,0.0, 1,15, 1,15,10320624.892188288, 1,21, 9,45
1379,0.0,0.0, 1,15, 1,15,0.0, 1,15, 1,15
1,EXTREME_SUMMER,  38.38, -81.59,  -5.00, 277.40
5,7
1038,0.0,0.0, 7,15, 1,15,0.0, 7,15, 1,15
1039,35.75,0.0, 7,15, 1,15,0.25, 7,15,14,60
581,0.051150300540962146,0.0, 7,15, 6, 7,0.2786234490985245, 7,20,12,60
582,1.2686650497390393,0.0, 7,15, 8,12,9.22346304847758, 7,20,12,60
583,0.0383940146840689,0.0, 7,15, 6,11,0.069717004645402, 7,20,18,46
1115,0.0,0.0, 7,15, 1, 7,0.0, 7,15, 1, 7
1128,0.0,0.0, 7,15, 1, 7,0.0, 7,15, 1, 7
1153,0.0,0.0, 7,15, 1, 7,0.0, 7,15, 1, 7
1154,0.0,0.0, 7,15, 1, 7,0.0, 7,15, 1, 7
1155,0.0,0.0, 7,15, 1, 7,0.0, 7,15, 1, 7
1156,0.0,0.0, 7,15, 1, 7,0.0, 7,15, 1, 7
1292,-21838210.28230017,-34276.18457524523, 7,20,22,15,-3311.6159893948293, 7,15, 9,60
1306,171539425.6583826,0.0, 7,15, 1, 7,5637271.774390986, 7,19, 6,60
1307,1252119.81026783,0.0, 7,15, 1, 7,432642.52037035424, 7,21,19,55
1308,171539425.6583826,0.0, 7,15, 1, 7,5637271.774390986, 7,19, 6,60
13,1091047060.4645915,196268.33593676376, 7,20, 4,60,12333763.676921198, 7,21,19,60
61,301924526.02383536,88139.10953165221, 7,15, 1,15,1282023.4113694867, 7,15,20,15
134,70666020.44019976,63564.01800854099, 7,15, 4,15,156554.22484006523, 7,20,20,15
170,5241013.419656067,348.4159749238097, 7,15, 4,15,17476.39704006126, 7,20,12,15
207,6509451.13922267,815.2532113832032, 7,15, 3,15,22990.642799023623, 7,20,10,15
244,12749673.399825225,1521.856143006317, 7,15, 4,15,53038.631142310165, 7,20,20,15
281,46165882.481495745,59938.60262432081, 7,15, 5,15,81951.81706819107, 7,15,19,15
318,0.0,0.0, 7,15, 1,15,0.0, 7,15, 1,15
355,197687796.27748066,18561.32405820678, 7,15, 4,15,724774.895203776, 7,20,18,15
403,197687796.27748066,18561.32405820678, 7,15, 4,15,724774.895203776, 7,20,18,15
476,106772067.24485716,7098.072629279515, 7,15, 4,15,356036.3026282215, 7,20,12,15
513,0.0,0.0, 7,15, 1,15,0.0, 7,15, 1,15
562,53046949.402804896,0.0, 7,20, 6,30,136837.65631474473, 7,15,14,15
1046,0.0,0.0, 7,15, 1,15,0.0, 7,15, 1,15
1096,493870138.9393691,0.0, 7,20, 6,30,1437574.1189357238, 7,18,17,60
1134,0.0,0.0, 7,15, 1,15,0.0, 7,15, 1,15
1326,171539425.6583826,0.0, 7,15, 1,15,10167276.3594349, 7,21,19,60
1379,0.0,0.0, 7,15, 1,15,0.0, 7,15, 1,15
1,ANNUAL,  38.38, -81.59,  -5.00, 277.40
5,365
1038,6.25,0.0, 1, 1, 1,15,0.25, 1, 1, 6,15
1039,402.75,0.0, 1, 1, 1,15,0.25, 2, 8,14,60
581,0.18433364568912855,0.0, 4, 9,23, 3,1.4036348554311469, 4,16,21,50
582,2.291929980201511,0.0, 1, 3,23,11,32.35043247513986, 1,30, 3,47
583,0.02556760274792817,0.0, 4, 9,23, 3,0.08082362614640078, 1,30, 6,52
1115,16688542466.64501,0.0, 1, 1,23, 3,4440376.624299302, 1,22, 6,45
1128,5372315893.086769,0.0, 1, 1,23, 3,1353376.3042717562, 1,22, 6,45
1153,217140402.6231872,0.0, 1, 1, 1,31,111856.20299095986,12,14, 6,45
1154,1537202700.765325,0.0, 1, 1, 1,46,180000.0, 1, 4,16,30
1155,1822490310.0741086,0.0, 1, 1, 1, 3,4417197.6530853445, 1,21, 6,45
1156,1822490310.0741086,0.0, 1, 1, 1, 3,4417197.6530853445, 1,21, 6,45
1292,-1213816462.8697987,-39786.316670023305, 1,30, 1,30,-2390.0192552598646, 7, 4,16,16
1306,10489508164.650755,0.0, 1, 1, 1, 3,10540800.0, 1, 1,19,60
1307,175384625.26290232,0.0, 1, 1, 1, 3,5316450.406355136, 1,29,19,60
1308,10489508164.650755,0.0, 1, 1, 1, 3,10540800.0, 1, 1,19,60
13,50056854093.70411,151703.1275401932, 1, 9, 4,15,14739061.306766339, 2, 5, 9,45
61,15743207428.383959,88139.10953165221, 1, 1, 1,15,1282023.4113694867, 1, 1,20,15
134,3685071073.4325233,63564.01800854099, 1, 2, 4,15,156554.22484006523, 1, 1,20,15
170,273393721.45532674,348.4159749238097, 1, 2, 4,15,17476.39704006126, 1, 1,12,15
207,339560869.0695816,815.2532113832032, 1, 2, 3,15,22990.642799023623, 1, 1,10,15
244,664895467.8009144,1521.856143006317, 1, 2, 4,15,53038.631142310165, 1, 1,20,15
281,2407221015.106824,59938.60262432081, 1, 1, 5,15,81951.81706819107, 1, 1,19,15
318,0.0,0.0, 1, 1, 1,15,0.0, 1, 1, 1,15
355,10310294493.051695,18561.32405820678, 1, 2, 4,15,724774.895203776, 1, 1,18,15
403,10310294493.051695,18561.32405820678, 1, 2, 4,15,724774.895203776, 1, 1,18,15
476,5569688622.066177,7098.072629279515, 1, 2, 4,15,356036.3026282215, 1, 1,12,15
513,0.0,0.0, 1, 1, 1,15,0.0, 1, 1, 1,15
562,1685275082.9974058,0.0, 1, 4,15,30,136837.65631474473, 1, 1,24,60
1046,0.0,0.0, 1, 1, 1,15,0.0, 1, 1, 1,15
1096,9504643037.688309,0.0, 1, 1, 1,15,1470756.6981443553, 9, 1,17,60
1134,8949149306.54939,0.0, 1, 6,14,45,5930622.48640641, 1,20, 6,15
1326,10489508164.65073,0.0, 1, 1, 1,15,10540800.0, 1, 1,19,60
1379,0.0,0.0, 1, 1, 1,15,0.0, 1, 1, 1,15
End of Data
 Number of Records Written=          99
