Program Version,EnergyPlus, Version 22.2.0-c249759bad, YMD=2023.09.01 14:31
1,5,Environment Title[],Latitude[deg],Longitude[deg],Time Zone[],Elevation[m]
2,8,Day of Simulation[],Month[],Day of Month[],DST Indicator[1=yes 0=no],Hour[],StartMinute[],EndMinute[],DayType
3,5,Cumulative Day of Simulation[],Month[],Day of Month[],DST Indicator[1=yes 0=no],DayType  ! When Daily Report Variables Requested
4,2,Cumulative Days of Simulation[],Month[]  ! When Monthly Report Variables Requested
5,1,Cumulative Days of Simulation[] ! When Run Period Report Variables Requested
6,1,Calendar Year of Simulation[] ! When Annual Report Variables Requested
7,1,Environment,Site Outdoor Air Drybulb Temperature [C] !Hourly
545,1,LIVING,Zone Mean Air Temperature [C] !Hourly
546,1,ATTIC,Zone Mean Air Temperature [C] !Hourly
547,1,CRAWLSPACE,Zone Mean Air Temperature [C] !Hourly
548,1,FAN,Fan Electricity Rate [W] !Hourly
720,1,LIVING,Zone Predicted Sensible Load to Heating Setpoint Heat Transfer Rate [W] !Hourly
721,1,LIVING,Zone System Predicted Sensible Load to Heating Setpoint Heat Transfer Rate [W] !Hourly
784,1,ATTIC,Zone Predicted Sensible Load to Heating Setpoint Heat Transfer Rate [W] !Hourly
785,1,ATTIC,Zone System Predicted Sensible Load to Heating Setpoint Heat Transfer Rate [W] !Hourly
848,1,CRAWLSPACE,Zone Predicted Sensible Load to Heating Setpoint Heat Transfer Rate [W] !Hourly
849,1,CRAWLSPACE,Zone System Predicted Sensible Load to Heating Setpoint Heat Transfer Rate [W] !Hourly
1121,1,DX_HEATING_COIL,Heating Coil Heating Rate [W] !Hourly
1135,1,DX_HEATING_COIL,Heating Coil Electricity Rate [W] !Hourly
1161,1,DX_HEATING_COIL,Heating Coil Defrost Electricity Rate [W] !Hourly
1163,1,DX_HEATING_COIL,Heating Coil Crankcase Heater Electricity Rate [W] !Hourly
1166,1,HEATING_RESISTANCE_BACKUP,Heating Coil Heating Rate [W] !Hourly
1168,1,HEATING_RESISTANCE_BACKUP,Heating Coil Electricity Rate [W] !Hourly
End of Data Dictionary
1,EXTREME_WINTER,  38.54, -89.85,  -6.00, 140.00
2,1, 1, 6, 0, 1, 0.00,60.00,Monday
7,-3.8
545,18.624868107377907
546,-0.9533055541114339
547,18.39143416709844
548,106.32026533923616
720,2086.218356567155
721,2086.218356567155
784,0.0
785,0.0
848,0.0
849,0.0
1121,2966.059252010563
1135,983.2872134974988
1161,24.71963630590934
1163,60.652542777496585
1166,0.0
1168,0.0
2,1, 1, 6, 0, 2, 0.00,60.00,Monday
7,-3.5
545,18.56428103575376
546,-0.6276649844848337
547,18.00798319215306
548,116.73809164138945
720,2314.5569111895165
721,2314.5569111895165
784,0.0
785,0.0
848,0.0
849,0.0
1121,3304.0270990122003
1135,1085.3529197298858
1161,28.074183173510235
1163,46.99860996945979
1166,0.0
1168,0.0
2,1, 1, 6, 0, 3, 0.00,60.00,Monday
7,-4.0
545,18.54982795611399
546,-0.404049047346529
547,17.777751567248064
548,130.07230028924454
720,2560.096049565327
721,2560.096049565327
784,0.0
785,0.0
848,0.0
849,0.0
1121,3663.530466738366
1135,1201.0483524566396
1161,32.841773715265965
1163,29.409723142872046
1166,0.0
1168,0.0
2,1, 1, 6, 0, 4, 0.00,60.00,Monday
7,-3.5
545,18.58185228944859
546,-0.16070585086756822
547,17.561232346239777
548,133.4076812333542
720,2655.3695558884338
721,2655.3695558884338
784,0.0
785,0.0
848,0.0
849,0.0
1121,3813.91203625247
1135,1233.813887768033
1161,35.560844827897334
1163,25.039355140694664
1166,0.0
1168,0.0
2,1, 1, 6, 0, 5, 0.00,60.00,Monday
7,-3.2
545,18.61053913817523
546,0.01350736982027592
547,17.374143718023902
548,131.09612550452974
720,2623.511480981342
721,2623.511480981342
784,0.0
785,0.0
848,0.0
849,0.0
1121,3781.846803275459
1135,1218.4091843936862
1161,32.60468941040867
1163,28.182847247491203
1166,0.0
1168,0.0
2,1, 1, 6, 0, 6, 0.00,60.00,Monday
7,-2.9
545,19.30622881674481
546,0.6417447763086431
547,17.185120890444775
548,153.47651852770554
720,3583.7493204046823
721,3583.7493204046823
784,0.0
785,0.0
848,0.0
849,0.0
1121,4546.0291379460095
1135,1423.3892745510645
1161,37.12375564320296
1163,0.0
1166,445.3277206087605
1168,445.3277206087605
2,1, 1, 6, 0, 7, 0.00,60.00,Monday
7,-2.0
545,19.58951155528108
546,0.6220300761580843
547,17.059635580226818
548,153.47651852770554
720,3469.9214085131007
721,3469.9214085131007
784,0.0
785,0.0
848,0.0
849,0.0
1121,4698.399727698368
1135,1470.4702890319045
1161,25.21135634090053
1163,0.0
1166,228.73164321268177
1168,228.73164321268177
2,1, 1, 6, 0, 8, 0.00,60.00,Monday
7,-2.2
545,19.6813925955932
546,0.5998224538888772
547,16.91128415184356
548,153.47651852770554
720,3298.6422224711387
721,3298.6422224711387
784,0.0
785,0.0
848,0.0
849,0.0
1121,4708.6198287218385
1135,1489.6254112787008
1161,15.49409614752231
1163,0.0
1166,51.34457129495377
1168,51.34457129495377
2,1, 1, 6, 0, 9, 0.00,60.00,Monday
7,-2.9
545,19.71968575862064
546,0.6003313035957925
547,16.768332756221483
548,150.8033788958743
720,3082.6142204024072
721,3082.6142204024072
784,0.0
785,0.0
848,0.0
849,0.0
1121,4515.24801272624
1135,1457.667942617149
1161,17.80694014353253
1163,2.9723288078360444
1166,0.0
1168,0.0
2,1, 1, 6, 0,10, 0.00,60.00,Monday
7,-3.5
545,19.80778226514508
546,-0.0003655573447223798
547,16.641376235664872
548,118.83115796331622
720,2227.0430632157204
721,2227.0430632157204
784,0.0
785,0.0
848,0.0
849,0.0
1121,3401.6259668687144
1135,1141.6624206285612
1161,15.976212143929098
1163,44.652389935825475
1166,0.0
1168,0.0
2,1, 1, 6, 0,11, 0.00,60.00,Monday
7,-3.0
545,19.8716194833819
546,1.5616745871566282
547,16.539319782790997
548,90.10411738573337
720,1658.7747569355543
721,1658.7747569355543
784,0.0
785,0.0
848,0.0
849,0.0
1121,2578.4439282968033
1135,876.9200262133243
1161,6.837984374830179
1163,82.38464938494265
1166,0.0
1168,0.0
2,1, 1, 6, 0,12, 0.00,60.00,Monday
7,-3.0
545,19.948140310967062
546,2.51157771864834
547,16.446986870282018
548,61.14806038516717
720,1087.1373538135558
721,1087.1373538135558
784,0.0
785,0.0
848,0.0
849,0.0
1121,1711.1779103652318
1135,595.8824342094381
1161,4.640517463798058
1163,120.18172920240696
1166,0.0
1168,0.0
2,1, 1, 6, 0,13, 0.00,60.00,Monday
7,-3.1
545,19.865165277799655
546,6.61352062840662
547,16.3781177489941
548,37.971606361661244
720,654.6780264952304
721,654.6780264952304
784,0.0
785,0.0
848,0.0
849,0.0
1121,1043.519157825897
1135,371.0331018831412
1161,2.250284915711222
1163,150.45216266535473
1166,0.0
1168,0.0
2,1, 1, 6, 0,14, 0.00,60.00,Monday
7,-2.5
545,19.561855567453257
546,4.335470104922868
547,16.320522554510223
548,23.76804168703659
720,445.1420257055197
721,445.1420257055197
784,0.0
785,0.0
848,0.0
849,0.0
1121,661.1486813277627
1135,234.06322972700562
1161,0.5444176859994905
1163,169.01244371000982
1166,0.0
1168,0.0
2,1, 1, 6, 0,15, 0.00,60.00,Monday
7,-3.0
545,19.973476367485226
546,5.873559065693305
547,16.281739023029235
548,30.182510744654085
720,607.7991657923831
721,607.7991657923831
784,0.0
785,0.0
848,0.0
849,0.0
1121,831.9797823620108
1135,293.86690415628095
1161,0.9759760398085306
1163,160.64017768023558
1166,0.0
1168,0.0
2,1, 1, 6, 0,16, 0.00,60.00,Monday
7,-3.6
545,19.749060591647677
546,4.381575015102537
547,16.25200710013505
548,12.438865565106767
720,211.2307354034965
721,211.2307354034965
784,0.0
785,0.0
848,0.0
849,0.0
1121,331.67061739297185
1135,121.37693385231103
1161,0.4949113147383929
1163,183.77516044393073
1166,0.0
1168,0.0
2,1, 1, 6, 0,17, 0.00,60.00,Monday
7,-4.5
545,19.525496195932405
546,1.5920973144235326
547,16.222284911034496
548,23.455691348477707
720,453.93527873648054
721,453.93527873648054
784,0.0
785,0.0
848,0.0
849,0.0
1121,613.8101525675979
1135,225.7347894181081
1161,1.3019804456998259
1163,169.38920447378126
1166,0.0
1168,0.0
2,1, 1, 6, 0,18, 0.00,60.00,Monday
7,-5.1
545,19.463174335192917
546,-0.04137078153030635
547,16.18397281483487
548,63.28974780623041
720,1239.1039774388737
721,1239.1039774388737
784,0.0
785,0.0
848,0.0
849,0.0
1121,1666.4226349156206
1135,599.7137788009626
1161,6.792015279230342
1163,117.2731822447341
1166,0.0
1168,0.0
2,1, 1, 6, 0,19, 0.00,60.00,Monday
7,-5.0
545,19.60956862436579
546,-1.2433903006093487
547,16.132522824116126
548,77.34470714866777
720,1450.9310812592175
721,1450.9310812592175
784,0.0
785,0.0
848,0.0
849,0.0
1121,2064.5560408847414
1135,732.3874778243921
1161,8.42296231886005
1163,98.90070195678172
1166,0.0
1168,0.0
2,1, 1, 6, 0,20, 0.00,60.00,Monday
7,-4.6
545,19.800226752300016
546,-1.6835576675662114
547,16.070003604962995
548,74.73441718513702
720,1346.8979811780573
721,1346.8979811780573
784,0.0
785,0.0
848,0.0
849,0.0
1121,2017.5145682064654
1135,713.4622593150428
1161,6.805973353299106
1163,102.37279157628092
1166,0.0
1168,0.0
2,1, 1, 6, 0,21, 0.00,60.00,Monday
7,-4.5
545,19.727272487829275
546,-1.7133709591720854
547,15.991024480596618
548,76.57941765048744
720,1369.140051508546
721,1369.140051508546
784,0.0
785,0.0
848,0.0
849,0.0
1121,2080.858962458882
1135,736.3378903308552
1161,5.202522209700108
1163,100.02705512899021
1166,0.0
1168,0.0
2,1, 1, 6, 0,22, 0.00,60.00,Monday
7,-4.2
545,19.672103951908163
546,-1.630544233052034
547,15.899152283981628
548,89.25715851659277
720,1660.389993606168
721,1660.389993606168
784,0.0
785,0.0
848,0.0
849,0.0
1121,2478.748514154076
1135,861.1942979643817
1161,4.142588832623286
1163,83.54822491839582
1166,0.0
1168,0.0
2,1, 1, 6, 0,23, 0.00,60.00,Monday
7,-4.1
545,18.905848841976212
546,-1.9072191428487593
547,15.796130275613427
548,66.61933531993543
720,1144.0929590816359
721,1144.0929590816359
784,0.0
785,0.0
848,0.0
849,0.0
1121,1823.9909265709778
1135,642.5440451648809
1161,3.1644199744325685
1163,113.08209846686132
1166,0.0
1168,0.0
2,1, 1, 6, 0,24, 0.00,60.00,Monday
7,-4.0
545,18.45819890384418
546,-1.7870776391059884
547,15.671719868134083
548,91.0270635623632
720,1751.1127898113082
721,1751.1127898113082
784,0.0
785,0.0
848,0.0
849,0.0
1121,2556.273339185825
1135,865.194202799251
1161,4.50351800239261
1163,81.23385368889096
1166,0.0
1168,0.0
2,2, 1, 7, 0, 1, 0.00,60.00,Tuesday
7,-5.0
545,18.18693814344076
546,-1.811603753840992
547,15.529856214012556
548,147.01581514465366
720,2898.263210242245
721,2898.263210242245
784,0.0
785,0.0
848,0.0
849,0.0
1121,4132.303305769067
1135,1354.2003806093715
1161,25.01529690442863
1163,7.500179504163396
1166,0.0
1168,0.0
2,2, 1, 7, 0, 2, 0.00,60.00,Tuesday
7,-6.0
545,18.455496920130688
546,-1.6460399209497691
547,15.40700579150078
548,153.47651852770554
720,2987.484867068868
721,2987.484867068868
784,0.0
785,0.0
848,0.0
849,0.0
1121,4106.51142324183
1135,1351.4337293720982
1161,53.44898928739627
1163,0.0
1166,303.2348913383089
1168,303.2348913383089
2,2, 1, 7, 0, 3, 0.00,60.00,Tuesday
7,-6.0
545,18.537700026976932
546,-2.00179075112703
547,15.294791922309681
548,153.47651852770554
720,3808.787882424049
721,3808.787882424049
784,0.0
785,0.0
848,0.0
849,0.0
1121,4100.542802096867
1135,1358.3303648287967
1161,53.44898928739627
1163,0.0
1166,1304.7694168957883
1168,1304.7694168957883
2,2, 1, 7, 0, 4, 0.00,60.00,Tuesday
7,-7.0
545,18.543458471707304
546,-2.6158002302674936
547,15.157539910521047
548,153.47651852770554
720,5086.5166155350635
721,5086.5166155350635
784,0.0
785,0.0
848,0.0
849,0.0
1121,4000.0624026152336
1135,1355.5942990289132
1161,48.35858418640558
1163,0.0
1166,2951.4348242445612
1168,2951.4348242445612
2,2, 1, 7, 0, 5, 0.00,60.00,Tuesday
7,-8.0
545,18.55684830076553
546,-2.9373796337906186
547,15.031381433741027
548,153.47651852770554
720,5458.214248125803
721,5458.214248125803
784,0.0
785,0.0
848,0.0
849,0.0
1121,3972.4389237837463
1135,1375.0643962490167
1161,24.636087020543407
1163,0.0
1166,3487.738778899553
1168,3487.738778899553
2,2, 1, 7, 0, 6, 0.00,60.00,Tuesday
7,-9.0
545,19.321523673297005
546,-3.794702209240688
547,14.905007845713069
548,153.47651852770554
720,6433.071635287362
721,6433.071635287362
784,0.0
785,0.0
848,0.0
849,0.0
1121,3864.73257505364
1135,1367.1092014290916
1161,21.811234854560595
1163,0.0
1166,4751.283588064448
1168,4751.283588064448
2,2, 1, 7, 0, 7, 0.00,60.00,Tuesday
7,-11.0
545,19.551646254729572
546,-4.877289822916896
547,14.797126163381218
548,153.47651852770554
720,6963.560661576166
721,6963.560661576166
784,0.0
785,0.0
848,0.0
849,0.0
1121,3675.1601976024276
1135,1383.98379414838
1161,4.825937921585551
1163,0.0
1166,5697.926612462381
1168,5697.926612462381
2,2, 1, 7, 0, 8, 0.00,60.00,Tuesday
7,-12.2
545,19.64355213446092
546,-5.981154697127783
547,14.676213853492188
548,153.47651852770554
720,6348.358196269317
721,6348.358196269317
784,0.0
785,0.0
848,0.0
849,0.0
1121,3544.0803650409607
1135,1378.2344594514398
1161,1.6137283893068017
1163,0.0
1166,5203.61903010597
1168,5203.61903010597
2,2, 1, 7, 0, 9, 0.00,60.00,Tuesday
7,-13.2
545,19.65772737634138
546,-6.838661178980945
547,14.537366115619792
548,153.47651852770554
720,6422.41702208553
721,6422.41702208553
784,0.0
785,0.0
848,0.0
849,0.0
1121,3435.3465935769486
1135,1368.8699183861918
1161,0.07448841111077435
1163,0.0
1166,5474.835520368533
1168,5474.835520368533
2,2, 1, 7, 0,10, 0.00,60.00,Tuesday
7,-12.0
545,19.67093859950454
546,-6.019837125734206
547,14.426890447970235
548,153.47651852770554
720,6130.047725029184
721,6130.047725029184
784,0.0
785,0.0
848,0.0
849,0.0
1121,3569.6198458442295
1135,1385.1412224778599
1161,0.07448841111077435
1163,0.0
1166,5058.469216306521
1168,5058.469216306521
2,2, 1, 7, 0,11, 0.00,60.00,Tuesday
7,-13.0
545,19.68602288520965
546,-5.854597459689109
547,14.30111953924748
548,153.47651852770554
720,5822.3132838657075
721,5822.3132838657075
784,0.0
785,0.0
848,0.0
849,0.0
1121,3454.1347413602093
1135,1370.7381742632165
1161,1.026852774855579
1163,0.0
1166,4779.005648806136
1168,4779.005648806136
2,2, 1, 7, 0,12, 0.00,60.00,Tuesday
7,-12.0
545,19.69063485495168
546,-4.435629383202215
547,14.202225459557406
548,153.47651852770554
720,5531.9013626637425
721,5531.9013626637425
784,0.0
785,0.0
848,0.0
849,0.0
1121,3563.443019091894
1135,1383.275131682879
1161,1.8280987428479152
1163,0.0
1166,4322.848518786426
1168,4322.848518786426
2,2, 1, 7, 0,13, 0.00,60.00,Tuesday
7,-11.1
545,19.72063313361746
546,-3.7469116214204083
547,14.11772085361483
548,153.47651852770554
720,4517.407669365994
721,4517.407669365994
784,0.0
785,0.0
848,0.0
849,0.0
1121,3672.0599769539863
1135,1397.340641144274
1161,0.07448841111077435
1163,0.0
1166,2956.277863977525
1168,2956.277863977525
2,2, 1, 7, 0,14, 0.00,60.00,Tuesday
7,-10.8
545,19.730659715486045
546,-1.4970250341818063
547,14.0468847222909
548,153.47651852770554
720,3781.7623214792984
721,3781.7623214792984
784,0.0
785,0.0
848,0.0
849,0.0
1121,3706.0788759123257
1135,1401.911038377742
1161,0.07448841111077435
1163,0.0
1166,2013.0295511905974
1168,2013.0295511905974
2,2, 1, 7, 0,15, 0.00,60.00,Tuesday
7,-11.0
545,19.765079186434626
546,-1.798221462384843
547,14.003520966128102
548,153.47651852770554
720,2330.9420560432336
721,2330.9420560432336
784,0.0
785,0.0
848,0.0
849,0.0
1121,3682.7250901629086
1135,1399.5741296235014
1161,0.07448841111077435
1163,0.0
1166,207.0686650824573
1168,207.0686650824573
2,2, 1, 7, 0,16, 0.00,60.00,Tuesday
7,-12.2
545,19.727034136168545
546,-3.6124018537697924
547,13.960582869698362
548,153.47651852770554
720,2823.67383175298
721,2823.67383175298
784,0.0
785,0.0
848,0.0
849,0.0
1121,3545.124331578967
1135,1384.4826158004641
1161,0.07448841111077435
1163,0.0
1166,884.2790978095795
1168,884.2790978095795
2,2, 1, 7, 0,17, 0.00,60.00,Tuesday
7,-13.1
545,19.717479359711174
546,-4.4960374946170285
547,13.941106810074107
548,153.47651852770554
720,2507.9595527047695
721,2507.9595527047695
784,0.0
785,0.0
848,0.0
849,0.0
1121,3445.294509799353
1135,1371.4176433953096
1161,0.07448841111077435
1163,0.0
1166,704.495949324255
1168,704.495949324255
2,2, 1, 7, 0,18, 0.00,60.00,Tuesday
7,-13.9
545,19.684776947681346
546,-6.221194559289162
547,13.909064379935945
548,153.47651852770554
720,3414.103009257622
721,3414.103009257622
784,0.0
785,0.0
848,0.0
849,0.0
1121,3357.4013046304303
1135,1360.2110803513501
1161,0.07448841111077435
1163,0.0
1166,1883.302958306508
1168,1883.302958306508
2,2, 1, 7, 0,19, 0.00,60.00,Tuesday
7,-14.3
545,19.67900448808558
546,-7.114943254577835
547,13.862903524386232
548,153.47651852770554
720,3584.093516077053
721,3584.093516077053
784,0.0
785,0.0
848,0.0
849,0.0
1121,3314.6166753048683
1135,1353.859023567135
1161,0.07448841111077435
1163,0.0
1166,2228.5186126661592
1168,2228.5186126661592
2,2, 1, 7, 0,20, 0.00,60.00,Tuesday
7,-15.0
545,19.680582482061432
546,-7.772588216837725
547,13.789752741006724
548,153.47651852770554
720,3813.899274922296
721,3813.899274922296
784,0.0
785,0.0
848,0.0
849,0.0
1121,3239.3332737796386
1135,1343.860406794593
1161,0.07448841111077435
1163,0.0
1166,2630.075820807372
1168,2630.075820807372
2,2, 1, 7, 0,21, 0.00,60.00,Tuesday
7,-15.6
545,19.686298085060887
546,-8.17098071819623
547,13.701435758878603
548,153.47651852770554
720,3871.6423054065854
721,3871.6423054065854
784,0.0
785,0.0
848,0.0
849,0.0
1121,3169.0576437132454
1135,1332.5758357592451
1161,2.256731118670326
1163,0.0
1166,2810.8066738122175
1168,2810.8066738122175
2,2, 1, 7, 0,22, 0.00,60.00,Tuesday
7,-15.8
545,19.680400613008302
546,-8.566537622539224
547,13.601376683109208
548,153.47651852770554
720,4288.95716271763
721,4288.95716271763
784,0.0
785,0.0
848,0.0
849,0.0
1121,3146.3504847537492
1135,1329.0559477458175
1161,2.8022355112480017
1163,0.0
1166,3343.3201388052075
1168,3343.3201388052075
2,2, 1, 7, 0,23, 0.00,60.00,Tuesday
7,-16.2
545,18.94335638829918
546,-8.810594487063995
547,13.490110835577063
548,153.47651852770554
720,3657.419085369016
721,3657.419085369016
784,0.0
785,0.0
848,0.0
849,0.0
1121,3105.5793948265
1135,1323.405556794737
1161,2.4984784987005706
1163,0.0
1166,2690.6789757961856
1168,2690.6789757961856
2,2, 1, 7, 0,24, 0.00,60.00,Tuesday
7,-16.9
545,18.695175630558897
546,-9.06166237471824
547,13.335686869057424
548,153.47651852770554
720,4185.90869784003
721,4185.90869784003
784,0.0
785,0.0
848,0.0
849,0.0
1121,3035.5182785014063
1135,1290.717375112343
1161,7.588389536393694
1163,0.0
1166,3316.3430850277246
1168,3316.3430850277246
2,3, 1, 8, 0, 1, 0.00,60.00,Wednesday
7,-16.9
545,18.603805655407864
546,-9.401228926282357
547,13.210134508999701
548,153.47651852770554
720,4731.87538845396
721,4731.87538845396
784,0.0
785,0.0
848,0.0
849,0.0
1121,3035.9986429945916
1135,1282.884306635586
1161,9.450983587272232
1163,0.0
1166,3946.983235150912
1168,3946.983235150912
2,3, 1, 8, 0, 2, 0.00,60.00,Wednesday
7,-16.9
545,18.571583479902607
546,-9.63431717318274
547,13.080526537630435
548,153.47651852770554
720,5190.820074745154
721,5190.820074745154
784,0.0
785,0.0
848,0.0
849,0.0
1121,3032.915701242447
1135,1278.5198940472774
1161,11.307950278168844
1163,0.0
1166,4505.272934112125
1168,4505.272934112125
2,3, 1, 8, 0, 3, 0.00,60.00,Wednesday
7,-17.2
545,18.560680181676812
546,-9.819974428066239
547,12.949973854988306
548,153.47651852770554
720,5549.102465088306
721,5549.102465088306
784,0.0
785,0.0
848,0.0
849,0.0
1121,2996.0149430340293
1135,1270.44165756208
1161,13.861194275143733
1163,0.0
1166,4981.120154035261
1168,4981.120154035261
2,3, 1, 8, 0, 4, 0.00,60.00,Wednesday
7,-16.6
545,18.56129463390754
546,-9.538706944025272
547,12.827701174633589
548,153.47651852770554
720,5669.515509181114
721,5669.515509181114
784,0.0
785,0.0
848,0.0
849,0.0
1121,3063.5280047435535
1135,1280.822453067035
1161,11.805715251272423
1163,0.0
1166,5075.869382473116
1168,5075.869382473116
2,3, 1, 8, 0, 5, 0.00,60.00,Wednesday
7,-16.3
545,18.56693069293902
546,-9.543543743502296
547,12.704259107054236
548,153.47651852770554
720,5648.497577132515
721,5648.497577132515
784,0.0
785,0.0
848,0.0
849,0.0
1121,3096.956351093338
1135,1285.7806521587054
1161,10.993362288711163
1163,0.0
1166,5013.547358387547
1168,5013.547358387547
2,3, 1, 8, 0, 6, 0.00,60.00,Wednesday
7,-16.1
545,19.31857778973508
546,-9.182808011640592
547,12.583626900671241
548,153.47651852770554
720,6778.960361324016
721,6778.960361324016
784,0.0
785,0.0
848,0.0
849,0.0
1121,3120.6866366190593
1135,1289.7088178334584
1161,9.978979099638826
1163,0.0
1166,6283.699734104988
1168,6283.699734104988
2,3, 1, 8, 0, 7, 0.00,60.00,Wednesday
7,-15.8
545,19.567155172979707
546,-9.361154275147703
547,12.500550018000371
548,153.47651852770554
720,6594.620316226965
721,6594.620316226965
784,0.0
785,0.0
848,0.0
849,0.0
1121,3145.9530560723306
1135,1315.057887178425
1161,6.290225765686996
1163,0.0
1166,6125.868753792431
1168,6125.868753792431
2,3, 1, 8, 0, 8, 0.00,60.00,Wednesday
7,-15.1
545,19.63923980244635
546,-8.646975219098627
547,12.395836855675697
548,153.47651852770554
720,6505.913818030456
721,6505.913818030456
784,0.0
785,0.0
848,0.0
849,0.0
1121,3211.81401515629
1135,1329.3925739378742
1161,7.112613056788009
1163,0.0
1166,5997.19686788085
1168,5997.19686788085
2,3, 1, 8, 0, 9, 0.00,60.00,Wednesday
7,-14.3
545,19.690019619480168
546,-7.403859720968138
547,12.298551619190203
548,153.47651852770554
720,5447.824235539785
721,5447.824235539785
784,0.0
785,0.0
848,0.0
849,0.0
1121,3302.564887260189
1135,1344.7290024387503
1161,4.948834896620899
1163,0.0
1166,4663.4587885736
1168,4663.4587885736
2,3, 1, 8, 0,10, 0.00,60.00,Wednesday
7,-12.3
545,19.69299326752171
546,-5.617331449530136
547,12.215285034394675
548,153.47651852770554
720,5420.210230114315
721,5420.210230114315
784,0.0
785,0.0
848,0.0
849,0.0
1121,3526.6430806247804
1135,1374.6027024468026
1161,3.473158760141752
1163,0.0
1166,4347.692567903449
1168,4347.692567903449
2,3, 1, 8, 0,11, 0.00,60.00,Wednesday
7,-11.5
545,19.73908166314506
546,-3.418566835331536
547,12.154869985775608
548,153.47651852770554
720,3717.867069149366
721,3717.867069149366
784,0.0
785,0.0
848,0.0
849,0.0
1121,3628.5477000515943
1135,1389.551197614627
1161,0.07448841111077435
1163,0.0
1166,2164.745399725841
1168,2164.745399725841
2,3, 1, 8, 0,12, 0.00,60.00,Wednesday
7,-10.1
545,19.7359708928208
546,-1.1936615855804489
547,12.11245503420598
548,153.47651852770554
720,3567.500581217104
721,3567.500581217104
784,0.0
785,0.0
848,0.0
849,0.0
1121,3789.5725401350646
1135,1408.79608690369
1161,0.07448841111077435
1163,0.0
1166,1674.7326639633495
1168,1674.7326639633495
2,3, 1, 8, 0,13, 0.00,60.00,Wednesday
7,-8.9
545,19.73437431901035
546,-1.0082160093618449
547,12.077947599537913
548,153.47651852770554
720,3440.7315834165056
721,3440.7315834165056
784,0.0
785,0.0
848,0.0
849,0.0
1121,3931.8333253761575
1135,1423.8971347003612
1161,0.07448841111077435
1163,0.0
1166,1255.9752359449863
1168,1255.9752359449863
2,3, 1, 8, 0,14, 0.00,60.00,Wednesday
7,-7.3
545,19.712448933168503
546,1.1724767844949375
547,12.056689491857535
548,153.47651852770554
720,3878.691062813661
721,3878.691062813661
784,0.0
785,0.0
848,0.0
849,0.0
1121,4126.044135035773
1135,1443.838031280756
1161,0.07448841111077435
1163,0.0
1166,1543.6653988925718
1168,1543.6653988925718
2,3, 1, 8, 0,15, 0.00,60.00,Wednesday
7,-6.3
545,19.726473596130077
546,1.1211781310675693
547,12.037037094307747
548,153.47651852770554
720,3644.8389932973587
721,3644.8389932973587
784,0.0
785,0.0
848,0.0
849,0.0
1121,4250.595984071729
1135,1455.6408566461384
1161,0.07448841111077435
1163,0.0
1166,1052.4025902997455
1168,1052.4025902997455
2,3, 1, 8, 0,16, 0.00,60.00,Wednesday
7,-5.6
545,19.72727664776108
546,1.7409805906734253
547,12.02354612038471
548,153.47651852770554
720,3345.528891842485
721,3345.528891842485
784,0.0
785,0.0
848,0.0
849,0.0
1121,4338.284393605365
1135,1464.725283914697
1161,0.07448841111077435
1163,0.0
1166,601.0683931371141
1168,601.0683931371141
2,3, 1, 8, 0,17, 0.00,60.00,Wednesday
7,-5.0
545,19.795501055913892
546,1.524190035534899
547,11.991068959285746
548,138.8067199861917
720,2560.2933776342506
721,2560.2933776342506
784,0.0
785,0.0
848,0.0
849,0.0
1121,3945.875537132417
1135,1331.6020715959487
1161,0.0673694691095902
1163,19.114227018743435
1166,0.0
1168,0.0
2,3, 1, 8, 0,18, 0.00,60.00,Wednesday
7,-5.2
545,19.761933906867164
546,0.42152730874909033
547,11.984955425895429
548,139.1636133392315
720,2587.2608819783927
721,2587.2608819783927
784,0.0
785,0.0
848,0.0
849,0.0
1121,3932.820207629493
1135,1334.4962326537936
1161,0.06754270698893325
1163,18.649086531089786
1166,0.0
1168,0.0
2,3, 1, 8, 0,19, 0.00,60.00,Wednesday
7,-5.0
545,19.75987014363121
546,-0.4394404842020238
547,11.96148451034349
548,132.34347866732156
720,2428.3517121193927
721,2428.3517121193927
784,0.0
785,0.0
848,0.0
849,0.0
1121,3742.1678477218343
1135,1270.4556148371955
1161,0.06423255244446574
1163,27.53678998752371
1166,0.0
1168,0.0
2,3, 1, 8, 0,20, 0.00,60.00,Wednesday
7,-4.7
545,19.77015404416396
546,-0.6178168129194732
547,11.934431155200114
548,123.65515123451955
720,2242.6179495448796
721,2242.6179495448796
784,0.0
785,0.0
848,0.0
849,0.0
1121,3502.836792938053
1135,1190.0451639923565
1161,0.06001566931867165
1163,38.85904283977752
1166,0.0
1168,0.0
2,3, 1, 8, 0,21, 0.00,60.00,Wednesday
7,-4.4
545,19.762619437782355
546,-0.6234224076671389
547,11.906376348689156
548,118.53876113677931
720,2159.436681925574
721,2159.436681925574
784,0.0
785,0.0
848,0.0
849,0.0
1121,3373.24406014635
1135,1143.9294396953455
1161,0.05753241906161473
1163,45.526523646594555
1166,0.0
1168,0.0
2,3, 1, 8, 0,22, 0.00,60.00,Wednesday
7,-3.9
545,19.733475812449154
546,-0.5341083304965889
547,11.885441279520425
548,120.91738896318982
720,2269.4141789432506
721,2269.4141789432506
784,0.0
785,0.0
848,0.0
849,0.0
1121,3497.2297090187035
1135,1171.6008424100598
1161,0.05868683671802306
1163,42.426933685703716
1166,0.0
1168,0.0
2,3, 1, 8, 0,23, 0.00,60.00,Wednesday
7,-3.0
545,18.995826565898764
546,-0.8318144700190533
547,11.792759774485503
548,81.3339277143836
720,1429.1560689790367
721,1429.1560689790367
784,0.0
785,0.0
848,0.0
849,0.0
1121,2340.7625896659447
1135,793.7690214208469
1161,0.03947509169131302
1163,94.01011217004425
1166,0.0
1168,0.0
2,3, 1, 8, 0,24, 0.00,60.00,Wednesday
7,-1.7
545,18.72235038255699
546,-0.31154446347882286
547,11.763829955226397
548,88.27962126338487
720,1773.4426181880626
721,1773.4426181880626
784,0.0
785,0.0
848,0.0
849,0.0
1121,2658.882031070188
1135,858.4933889286548
1161,0.04284608206077126
1163,84.9590656537073
1166,0.0
1168,0.0
2,4, 1, 9, 0, 1, 0.00,60.00,Thursday
7,-0.9
545,18.209103899199892
546,1.167704955974837
547,11.771028175739092
548,126.46742588269383
720,2762.857517762861
721,2762.857517762861
784,0.0
785,0.0
848,0.0
849,0.0
1121,3956.233169837483
1135,1214.6752514256955
1161,13.641638519237969
1163,34.90123174112825
1166,0.0
1168,0.0
2,4, 1, 9, 0, 2, 0.00,60.00,Thursday
7,-4.5
545,18.310547654163802
546,-0.6198113948318185
547,11.707433831356473
548,153.47651852770554
720,4396.930186801566
721,4396.930186801566
784,0.0
785,0.0
848,0.0
849,0.0
1121,4504.586889722193
1135,1431.0400403992433
1161,2.8119228832914502
1163,0.0
1166,1499.9474762448308
1168,1499.9474762448308
2,4, 1, 9, 0, 3, 0.00,60.00,Thursday
7,-6.4
545,18.48578643796145
546,-2.1671574468393477
547,11.66456011194901
548,153.47651852770554
720,4759.596316314779
721,4759.596316314779
784,0.0
785,0.0
848,0.0
849,0.0
1121,4238.03208198238
1135,1403.5076110874438
1161,8.739731801523622
1163,0.0
1166,2323.49751461977
1168,2323.49751461977
2,4, 1, 9, 0, 4, 0.00,60.00,Thursday
7,-7.0
545,18.540730810500975
546,-2.934269915226167
547,11.618871779890842
548,153.47651852770554
720,5115.682524794818
721,5115.682524794818
784,0.0
785,0.0
848,0.0
849,0.0
1121,4151.256234191628
1135,1398.2137372066857
1161,10.964808241029864
1163,0.0
1166,2936.732938292811
1168,2936.732938292811
2,4, 1, 9, 0, 5, 0.00,60.00,Thursday
7,-9.0
545,18.591805909400886
546,-3.5047756314384495
547,11.560906875924676
548,153.47651852770554
720,4044.9644678620116
721,4044.9644678620116
784,0.0
785,0.0
848,0.0
849,0.0
1121,3931.2245411283125
1135,1383.858204457224
1161,4.9077156209136685
1163,0.0
1166,1971.3157880395847
1168,1971.3157880395847
2,4, 1, 9, 0, 6, 0.00,60.00,Thursday
7,-9.0
545,19.337946773550545
546,-3.9926970270766096
547,11.506051294402468
548,153.47651852770554
720,5106.180112953107
721,5106.180112953107
784,0.0
785,0.0
848,0.0
849,0.0
1121,3924.9760798386324
1135,1383.332271539955
1161,6.302191731935532
1163,0.0
1166,3209.5291742235827
1168,3209.5291742235827
2,4, 1, 9, 0, 7, 0.00,60.00,Thursday
7,-9.3
545,19.572652177786225
546,-5.129970856692768
547,11.477754146448477
548,153.47651852770554
720,5550.074985011344
721,5550.074985011344
784,0.0
785,0.0
848,0.0
849,0.0
1121,3882.9142435042268
1135,1403.130040760993
1161,3.2738027254725948
1163,0.0
1166,3876.1622437591504
1168,3876.1622437591504
2,4, 1, 9, 0, 8, 0.00,60.00,Thursday
7,-9.2
545,19.653310420810797
546,-4.720890284129625
547,11.42454593345283
548,153.47651852770554
720,5266.475500536948
721,5266.475500536948
784,0.0
785,0.0
848,0.0
849,0.0
1121,3893.4642687265846
1135,1412.0675942309965
1161,2.1101539814311665
1163,0.0
1166,3641.6525046102074
1168,3641.6525046102074
2,4, 1, 9, 0, 9, 0.00,60.00,Thursday
7,-8.4
545,19.702707668378686
546,-4.31858719489651
547,11.38064346868143
548,153.47651852770554
720,4350.79387150953
721,4350.79387150953
784,0.0
785,0.0
848,0.0
849,0.0
1121,3994.8829158671574
1135,1426.862842504767
1161,0.07448841111077435
1163,0.0
1166,2478.4425877011086
1168,2478.4425877011086
2,4, 1, 9, 0,10, 0.00,60.00,Thursday
7,-8.0
545,19.728192478728758
546,-1.0499486309361452
547,11.341311189984468
548,153.47651852770554
720,3410.3787538448214
721,3410.3787538448214
784,0.0
785,0.0
848,0.0
849,0.0
1121,4042.188187325313
1135,1433.1526634220031
1161,0.07448841111077435
1163,0.0
1166,1319.1306845579302
1168,1319.1306845579302
2,4, 1, 9, 0,11, 0.00,60.00,Thursday
7,-6.7
545,19.96377497669201
546,0.9551280008325916
547,11.28520423192127
548,121.18776672314168
720,1819.788712689333
721,1819.788712689333
784,0.0
785,0.0
848,0.0
849,0.0
1121,3233.1993798363815
1135,1145.1736582041965
1161,0.05881831375448942
1163,42.073920285348485
1166,0.0
1168,0.0
2,4, 1, 9, 0,12, 0.00,60.00,Thursday
7,-6.0
545,19.86760843617933
546,1.412170832069729
547,11.254137937432656
548,90.3514398950422
720,1405.2652234404086
721,1405.2652234404086
784,0.0
785,0.0
848,0.0
849,0.0
1121,2399.271163143847
1135,862.8647572915528
1161,0.04385189704451098
1163,82.25847110821772
1166,0.0
1168,0.0
2,4, 1, 9, 0,13, 0.00,60.00,Thursday
7,-5.4