Program Version,EnergyPlus, Version 22.2.0-c249759bad, YMD=2023.09.01 20:21
1,5,Environment Title[],Latitude[deg],Longitude[deg],Time Zone[],Elevation[m]
2,8,Day of Simulation[],Month[],Day of Month[],DST Indicator[1=yes 0=no],Hour[],StartMinute[],EndMinute[],DayType
3,5,Cumulative Day of Simulation[],Month[],Day of Month[],DST Indicator[1=yes 0=no],DayType  ! When Daily Report Variables Requested
4,2,Cumulative Days of Simulation[],Month[]  ! When Monthly Report Variables Requested
5,1,Cumulative Days of Simulation[] ! When Run Period Report Variables Requested
6,1,Calendar Year of Simulation[] ! When Annual Report Variables Requested
581,11,LIVING,AFN Zone Infiltration Air Change Rate [ach] !RunPeriod [Value,Min,Month,Day,Hour,Minute,Max,Month,Day,Hour,Minute]
582,11,ATTIC,AFN Zone Infiltration Air Change Rate [ach] !RunPeriod [Value,Min,Month,Day,Hour,Minute,Max,Month,Day,Hour,Minute]
583,11,CRAWLSPACE,AFN Zone Infiltration Air Change Rate [ach] !RunPeriod [Value,Min,Month,Day,Hour,Minute,Max,Month,Day,Hour,Minute]
1038,11,Facility,Facility Heating Setpoint Not Met Time [hr] !RunPeriod [Value,Min,Month,Day,Hour,Minute,Max,Month,Day,Hour,Minute]
1039,11,Facility,Facility Cooling Setpoint Not Met Time [hr] !RunPeriod [Value,Min,Month,Day,Hour,Minute,Max,Month,Day,Hour,Minute]
1115,11,DX_HEATING_COIL,Heating Coil Heating Energy [J] !RunPeriod [Value,Min,Month,Day,Hour,Minute,Max,Month,Day,Hour,Minute]
1128,11,DX_HEATING_COIL,Heating Coil Electricity Energy [J] !RunPeriod [Value,Min,Month,Day,Hour,Minute,Max,Month,Day,Hour,Minute]
1153,11,DX_HEATING_COIL,Heating Coil Defrost Electricity Energy [J] !RunPeriod [Value,Min,Month,Day,Hour,Minute,Max,Month,Day,Hour,Minute]
1154,11,DX_HEATING_COIL,Heating Coil Crankcase Heater Electricity Energy [J] !RunPeriod [Value,Min,Month,Day,Hour,Minute,Max,Month,Day,Hour,Minute]
1155,11,HEATING_RESISTANCE_BACKUP,Heating Coil Heating Energy [J] !RunPeriod [Value,Min,Month,Day,Hour,Minute,Max,Month,Day,Hour,Minute]
1156,11,HEATING_RESISTANCE_BACKUP,Heating Coil Electricity Energy [J] !RunPeriod [Value,Min,Month,Day,Hour,Minute,Max,Month,Day,Hour,Minute]
1292,11,WATER HEATER,Water Heater Heat Loss Energy [J] !RunPeriod [Value,Min,Month,Day,Hour,Minute,Max,Month,Day,Hour,Minute]
1306,11,WATER HEATER,Water Heater Heating Energy [J] !RunPeriod [Value,Min,Month,Day,Hour,Minute,Max,Month,Day,Hour,Minute]
1307,11,WATER HEATER,Water Heater Unmet Demand Heat Transfer Energy [J] !RunPeriod [Value,Min,Month,Day,Hour,Minute,Max,Month,Day,Hour,Minute]
1308,11,WATER HEATER,Water Heater Electricity Energy [J] !RunPeriod [Value,Min,Month,Day,Hour,Minute,Max,Month,Day,Hour,Minute]
13,11,Electricity:Facility [J] !RunPeriod [Value,Min,Month,Day,Hour,Minute,Max,Month,Day,Hour,Minute]
1134,11,Heating:Electricity [J] !RunPeriod [Value,Min,Month,Day,Hour,Minute,Max,Month,Day,Hour,Minute]
1096,11,Cooling:Electricity [J] !RunPeriod [Value,Min,Month,Day,Hour,Minute,Max,Month,Day,Hour,Minute]
562,11,Fans:Electricity [J] !RunPeriod [Value,Min,Month,Day,Hour,Minute,Max,Month,Day,Hour,Minute]
1379,11,Pumps:Electricity [J] !RunPeriod [Value,Min,Month,Day,Hour,Minute,Max,Month,Day,Hour,Minute]
1326,11,WaterSystems:Electricity [J] !RunPeriod [Value,Min,Month,Day,Hour,Minute,Max,Month,Day,Hour,Minute]
61,11,InteriorLights:Electricity [J] !RunPeriod [Value,Min,Month,Day,Hour,Minute,Max,Month,Day,Hour,Minute]
1046,11,ExteriorLights:Electricity [J] !RunPeriod [Value,Min,Month,Day,Hour,Minute,Max,Month,Day,Hour,Minute]
134,11,InteriorEquipment:Electricity [J] !RunPeriod [Value,Min,Month,Day,Hour,Minute,Max,Month,Day,Hour,Minute]
170,11,gas_dryer:InteriorEquipment:Electricity [J] !RunPeriod [Value,Min,Month,Day,Hour,Minute,Max,Month,Day,Hour,Minute]
207,11,clotheswasher:InteriorEquipment:Electricity [J] !RunPeriod [Value,Min,Month,Day,Hour,Minute,Max,Month,Day,Hour,Minute]
244,11,dishwasher:InteriorEquipment:Electricity [J] !RunPeriod [Value,Min,Month,Day,Hour,Minute,Max,Month,Day,Hour,Minute]
281,11,refrigerator:InteriorEquipment:Electricity [J] !RunPeriod [Value,Min,Month,Day,Hour,Minute,Max,Month,Day,Hour,Minute]
318,11,electric_mels:InteriorEquipment:Electricity [J] !RunPeriod [Value,Min,Month,Day,Hour,Minute,Max,Month,Day,Hour,Minute]
355,11,NaturalGas:Facility [J] !RunPeriod [Value,Min,Month,Day,Hour,Minute,Max,Month,Day,Hour,Minute]
403,11,InteriorEquipment:NaturalGas [J] !RunPeriod [Value,Min,Month,Day,Hour,Minute,Max,Month,Day,Hour,Minute]
476,11,gas_dryer:InteriorEquipment:NaturalGas [J] !RunPeriod [Value,Min,Month,Day,Hour,Minute,Max,Month,Day,Hour,Minute]
513,11,gas_mels:InteriorEquipment:NaturalGas [J] !RunPeriod [Value,Min,Month,Day,Hour,Minute,Max,Month,Day,Hour,Minute]
End of Data Dictionary
1,EXTREME_WINTER,  42.92, -97.38,  -6.00, 398.00
5,7
1038,1.25,0.0, 1,20, 1,15,0.25, 1,21, 6,15
1039,0.0,0.0, 1,20, 1,15,0.0, 1,20, 1,15
581,0.4728216007356429,0.23266596991228797, 1,26,23, 7,0.8186771915284469, 1,21, 2,60
582,5.3824965360792,0.07010553767910316, 1,25, 4,60,15.722066358950883, 1,21, 2,60
583,0.06889999489877327,0.000801126841762484, 1,21,23, 5,0.08449839799818835, 1,21, 4,60
1115,2242089026.012207,0.0, 1,21,23, 5,4676722.987567402, 1,26,13,45
1128,852545617.7700167,0.0, 1,21,23, 5,1473182.13047612, 1,26,13,45
1153,11408435.174393542,0.0, 1,21,23, 5,59233.71754166555, 1,25,10,15
1154,9785493.953213975,0.0, 1,20, 1, 7,174463.9691375609, 1,25,16,45
1155,1706975802.8973825,0.0, 1,20,23, 5,6901814.69838554, 1,21, 4,60
1156,1706975802.8973825,0.0, 1,20,23, 5,6901814.69838554, 1,21, 4,60
1292,-25405894.67870623,-39768.622786266744, 1,21, 5,45,-9212.88513312229, 1,26,23, 3
1306,135896977.3743623,0.0, 1,20, 1, 7,4050000.0, 1,20, 7,15
1307,29733232.939250473,0.0, 1,20, 1, 7,8349491.165983942, 1,20, 6,60
1308,135896977.3743623,0.0, 1,20, 1, 7,4050000.0, 1,20, 7,15
13,3172155473.1534257,604261.7104504008, 1,25,15,60,12914333.136209585, 1,21, 7,30
61,301924526.02383536,88139.10953165221, 1,20, 1,15,1282023.4113694867, 1,20,20,15
134,70666020.44019976,63564.01800854099, 1,20, 4,15,156554.22484006523, 1,25,20,15
170,5241013.419656067,348.4159749238097, 1,20, 4,15,17476.39704006126, 1,25,12,15
207,6509451.13922267,815.2532113832032, 1,20, 3,15,22990.642799023623, 1,25,10,15
244,12749673.399825225,1521.856143006317, 1,20, 4,15,53038.631142310165, 1,25,20,15
281,46165882.481495745,59938.60262432081, 1,20, 5,15,81951.81706819107, 1,20,19,15
318,0.0,0.0, 1,20, 1,15,0.0, 1,20, 1,15
355,197687796.27748066,18561.32405820678, 1,20, 4,15,724774.895203776, 1,25,18,15
403,197687796.27748066,18561.32405820678, 1,20, 4,15,724774.895203776, 1,25,18,15
476,106772067.24485716,7098.072629279515, 1,20, 4,15,356036.3026282215, 1,25,12,15
513,0.0,0.0, 1,20, 1,15,0.0, 1,20, 1,15
562,82952599.52002244,283.13399838634655, 1,25,17,15,134357.22603064316, 1,20, 1,15
1046,0.0,0.0, 1,20, 1,15,0.0, 1,20, 1,15
1096,0.0,0.0, 1,20, 1,15,0.0, 1,20, 1,15
1134,2580715349.7950077,182903.5585769088, 1,25,17,15,8222877.558130046, 1,21, 7,15
1326,135896977.37436232,0.0, 1,20, 1,15,4050000.0, 1,20, 7,15
1379,0.0,0.0, 1,20, 1,15,0.0, 1,20, 1,15
1,EXTREME_SUMMER,  42.92, -97.38,  -6.00, 398.00
5,7
1038,0.0,0.0, 7,13, 1,15,0.0, 7,13, 1,15
1039,12.0,0.0, 7,13, 1,15,0.25, 7,13,17,30
581,0.19107219438820072,0.0, 7,16,20,42,0.7372579106154512, 7,13,13,60
582,4.327443932612281,0.0, 7,15, 8,15,16.2839465374628, 7,13,13,60
583,0.031818088616379935,0.0, 7,18,23, 3,0.07549390965640633, 7,17,17,48
1115,0.0,0.0, 7,13, 1, 7,0.0, 7,13, 1, 7
1128,0.0,0.0, 7,13, 1, 7,0.0, 7,13, 1, 7
1153,0.0,0.0, 7,13, 1, 7,0.0, 7,13, 1, 7
1154,0.0,0.0, 7,13, 1, 7,0.0, 7,13, 1, 7
1155,0.0,0.0, 7,13, 1, 7,0.0, 7,13, 1, 7
1156,0.0,0.0, 7,13, 1, 7,0.0, 7,13, 1, 7
1292,-22080688.34763886,-34633.46284986989, 7,19, 6,30,-2927.2298949450615, 7,15, 8,59
1306,104602852.73086911,0.0, 7,13, 1, 7,4050000.0, 7,13, 7,15
1307,15221878.151392298,0.0, 7,13, 1, 7,5183586.792785314, 7,13, 6,60
1308,104602852.73086911,0.0, 7,13, 1, 7,4050000.0, 7,13, 7,15
13,966634337.4616345,151703.1275401932, 7,13, 4,45,5773267.18786701, 7,13,19,30
61,301924526.02383536,88139.10953165221, 7,13, 1,15,1282023.4113694867, 7,13,20,15
134,70666020.44019976,63564.01800854099, 7,13, 4,15,156554.22484006523, 7,18,20,15
170,5241013.419656067,348.4159749238097, 7,13, 4,15,17476.39704006126, 7,18,12,15
207,6509451.13922267,815.2532113832032, 7,13, 3,15,22990.642799023623, 7,18,10,15
244,12749673.399825225,1521.856143006317, 7,13, 4,15,53038.631142310165, 7,18,20,15
281,46165882.481495745,59938.60262432081, 7,13, 5,15,81951.81706819107, 7,13,19,15
318,0.0,0.0, 7,13, 1,15,0.0, 7,13, 1,15
355,197687796.27748066,18561.32405820678, 7,13, 4,15,724774.895203776, 7,18,18,15
403,197687796.27748066,18561.32405820678, 7,13, 4,15,724774.895203776, 7,18,18,15
476,106772067.24485716,7098.072629279515, 7,13, 4,15,356036.3026282215, 7,18,12,15
513,0.0,0.0, 7,13, 1,15,0.0, 7,13, 1,15
562,41203296.015242726,0.0, 7,13, 4,45,134357.22603064319, 7,16,18,60
1046,0.0,0.0, 7,13, 1,15,0.0, 7,13, 1,15
1096,448237642.25148904,0.0, 7,13, 4,45,1699394.4925190154, 7,17,16,60
1134,0.0,0.0, 7,13, 1,15,0.0, 7,13, 1,15
1326,104602852.73086911,0.0, 7,13, 1,15,4050000.0, 7,13, 7,15
1379,0.0,0.0, 7,13, 1,15,0.0, 7,13, 1,15
1,ANNUAL,  42.92, -97.38,  -6.00, 398.00
5,365
1038,80.5,0.0, 1, 1, 1,15,0.25, 1,11, 6,15
1039,101.25,0.0, 1, 1, 1,15,0.25, 4,26,12,45
581,0.3311750228086895,0.0, 5,30, 6,15,1.4481271190606624, 3,31,15,60
582,5.62367452135983,0.0, 1, 4, 1,60,31.676026484348203,10,27,13,52
583,0.031675128256589725,0.0, 7, 4,23, 3,0.09427830604595792, 3,31,15,60
1115,40186101369.123566,0.0, 1, 1,23, 5,5178437.938315904,12,13, 6,45
1128,13615371787.729492,0.0, 1, 1,23, 5,1565580.9077351887,10,28, 6,45
1153,470436015.19731414,0.0, 1, 1,23, 5,146594.4017881175, 4, 3, 6,45
1154,1398082264.1367579,0.0, 1, 1, 1,15,180000.0, 1, 4,16,15
1155,14444465530.537199,0.0, 1, 1,15,15,6901814.69838554, 1,21, 2,60
1156,14444465530.537199,0.0, 1, 1,15,15,6901814.69838554, 1,21, 2,60
1292,-1243952945.878857,-46492.81125505588, 2, 2, 7,45,-2162.3911108513375, 7,22,17,15
1306,6315727487.8855915,0.0, 1, 1, 1,15,4050000.0, 1, 1,14,15
1307,1153915715.678685,0.0, 1, 1, 1,15,8520095.02913207, 2,13, 6,60
1308,6315727487.8855915,0.0, 1, 1, 1,15,4050000.0, 1, 1,14,15
13,64499367260.598976,151703.1275401932, 3,17, 4,15,13076223.675217178, 1,31, 7,30
61,15743207428.383959,88139.10953165221, 1, 1, 1,15,1282023.4113694867, 1, 1,20,15
134,3685071073.4325233,63564.01800854099, 1, 2, 4,15,156554.22484006523, 1, 1,20,15
170,273393721.45532674,348.4159749238097, 1, 2, 4,15,17476.39704006126, 1, 1,12,15
207,339560869.0695816,815.2532113832032, 1, 2, 3,15,22990.642799023623, 1, 1,10,15
244,664895467.8009144,1521.856143006317, 1, 2, 4,15,53038.631142310165, 1, 1,20,15
281,2407221015.106824,59938.60262432081, 1, 1, 5,15,81951.81706819107, 1, 1,19,15
318,0.0,0.0, 1, 1, 1,15,0.0, 1, 1, 1,15
355,10310294493.051695,18561.32405820678, 1, 2, 4,15,724774.895203776, 1, 1,18,15
403,10310294493.051695,18561.32405820678, 1, 2, 4,15,724774.895203776, 1, 1,18,15
476,5569688622.066177,7098.072629279515, 1, 2, 4,15,356036.3026282215, 1, 1,12,15
513,0.0,0.0, 1, 1, 1,15,0.0, 1, 1, 1,15
562,1963655770.06694,0.0, 1, 4,15,30,134357.22603064319, 1, 5,10,60
1046,0.0,0.0, 1, 1, 1,15,0.0, 1, 1, 1,15
1096,6863349903.227403,0.0, 1, 1, 1,15,1701296.2146092635, 7,17,16,60
1134,29928355597.600662,0.0, 1,18,13,60,8308369.767395872,12,10,18,45
1326,6315727487.885585,0.0, 1, 1, 1,15,4050000.0, 1, 1,14,15
1379,0.0,0.0, 1, 1, 1,15,0.0, 1, 1, 1,15
End of Data
 Number of Records Written=          99
