Program Version,EnergyPlus, Version 22.2.0-c249759bad, YMD=2023.09.01 20:40
1,5,Environment Title[],Latitude[deg],Longitude[deg],Time Zone[],Elevation[m]
2,8,Day of Simulation[],Month[],Day of Month[],DST Indicator[1=yes 0=no],Hour[],StartMinute[],EndMinute[],DayType
3,5,Cumulative Day of Simulation[],Month[],Day of Month[],DST Indicator[1=yes 0=no],DayType  ! When Daily Report Variables Requested
4,2,Cumulative Days of Simulation[],Month[]  ! When Monthly Report Variables Requested
5,1,Cumulative Days of Simulation[] ! When Run Period Report Variables Requested
6,1,Calendar Year of Simulation[] ! When Annual Report Variables Requested
581,11,LIVING,AFN Zone Infiltration Air Change Rate [ach] !RunPeriod [Value,Min,Month,Day,Hour,Minute,Max,Month,Day,Hour,Minute]
582,11,ATTIC,AFN Zone Infiltration Air Change Rate [ach] !RunPeriod [Value,Min,Month,Day,Hour,Minute,Max,Month,Day,Hour,Minute]
583,11,CRAWLSPACE,AFN Zone Infiltration Air Change Rate [ach] !RunPeriod [Value,Min,Month,Day,Hour,Minute,Max,Month,Day,Hour,Minute]
1038,11,Facility,Facility Heating Setpoint Not Met Time [hr] !RunPeriod [Value,Min,Month,Day,Hour,Minute,Max,Month,Day,Hour,Minute]
1039,11,Facility,Facility Cooling Setpoint Not Met Time [hr] !RunPeriod [Value,Min,Month,Day,Hour,Minute,Max,Month,Day,Hour,Minute]
1115,11,DX_HEATING_COIL,Heating Coil Heating Energy [J] !RunPeriod [Value,Min,Month,Day,Hour,Minute,Max,Month,Day,Hour,Minute]
1128,11,DX_HEATING_COIL,Heating Coil Electricity Energy [J] !RunPeriod [Value,Min,Month,Day,Hour,Minute,Max,Month,Day,Hour,Minute]
1153,11,DX_HEATING_COIL,Heating Coil Defrost Electricity Energy [J] !RunPeriod [Value,Min,Month,Day,Hour,Minute,Max,Month,Day,Hour,Minute]
1154,11,DX_HEATING_COIL,Heating Coil Crankcase Heater Electricity Energy [J] !RunPeriod [Value,Min,Month,Day,Hour,Minute,Max,Month,Day,Hour,Minute]
1155,11,HEATING_RESISTANCE_BACKUP,Heating Coil Heating Energy [J] !RunPeriod [Value,Min,Month,Day,Hour,Minute,Max,Month,Day,Hour,Minute]
1156,11,HEATING_RESISTANCE_BACKUP,Heating Coil Electricity Energy [J] !RunPeriod [Value,Min,Month,Day,Hour,Minute,Max,Month,Day,Hour,Minute]
1292,11,WATER HEATER,Water Heater Heat Loss Energy [J] !RunPeriod [Value,Min,Month,Day,Hour,Minute,Max,Month,Day,Hour,Minute]
1306,11,WATER HEATER,Water Heater Heating Energy [J] !RunPeriod [Value,Min,Month,Day,Hour,Minute,Max,Month,Day,Hour,Minute]
1307,11,WATER HEATER,Water Heater Unmet Demand Heat Transfer Energy [J] !RunPeriod [Value,Min,Month,Day,Hour,Minute,Max,Month,Day,Hour,Minute]
1308,11,WATER HEATER,Water Heater Electricity Energy [J] !RunPeriod [Value,Min,Month,Day,Hour,Minute,Max,Month,Day,Hour,Minute]
13,11,Electricity:Facility [J] !RunPeriod [Value,Min,Month,Day,Hour,Minute,Max,Month,Day,Hour,Minute]
1134,11,Heating:Electricity [J] !RunPeriod [Value,Min,Month,Day,Hour,Minute,Max,Month,Day,Hour,Minute]
1096,11,Cooling:Electricity [J] !RunPeriod [Value,Min,Month,Day,Hour,Minute,Max,Month,Day,Hour,Minute]
562,11,Fans:Electricity [J] !RunPeriod [Value,Min,Month,Day,Hour,Minute,Max,Month,Day,Hour,Minute]
1379,11,Pumps:Electricity [J] !RunPeriod [Value,Min,Month,Day,Hour,Minute,Max,Month,Day,Hour,Minute]
1326,11,WaterSystems:Electricity [J] !RunPeriod [Value,Min,Month,Day,Hour,Minute,Max,Month,Day,Hour,Minute]
61,11,InteriorLights:Electricity [J] !RunPeriod [Value,Min,Month,Day,Hour,Minute,Max,Month,Day,Hour,Minute]
1046,11,ExteriorLights:Electricity [J] !RunPeriod [Value,Min,Month,Day,Hour,Minute,Max,Month,Day,Hour,Minute]
134,11,InteriorEquipment:Electricity [J] !RunPeriod [Value,Min,Month,Day,Hour,Minute,Max,Month,Day,Hour,Minute]
170,11,gas_dryer:InteriorEquipment:Electricity [J] !RunPeriod [Value,Min,Month,Day,Hour,Minute,Max,Month,Day,Hour,Minute]
207,11,clotheswasher:InteriorEquipment:Electricity [J] !RunPeriod [Value,Min,Month,Day,Hour,Minute,Max,Month,Day,Hour,Minute]
244,11,dishwasher:InteriorEquipment:Electricity [J] !RunPeriod [Value,Min,Month,Day,Hour,Minute,Max,Month,Day,Hour,Minute]
281,11,refrigerator:InteriorEquipment:Electricity [J] !RunPeriod [Value,Min,Month,Day,Hour,Minute,Max,Month,Day,Hour,Minute]
318,11,electric_mels:InteriorEquipment:Electricity [J] !RunPeriod [Value,Min,Month,Day,Hour,Minute,Max,Month,Day,Hour,Minute]
355,11,NaturalGas:Facility [J] !RunPeriod [Value,Min,Month,Day,Hour,Minute,Max,Month,Day,Hour,Minute]
403,11,InteriorEquipment:NaturalGas [J] !RunPeriod [Value,Min,Month,Day,Hour,Minute,Max,Month,Day,Hour,Minute]
476,11,gas_dryer:InteriorEquipment:NaturalGas [J] !RunPeriod [Value,Min,Month,Day,Hour,Minute,Max,Month,Day,Hour,Minute]
513,11,gas_mels:InteriorEquipment:NaturalGas [J] !RunPeriod [Value,Min,Month,Day,Hour,Minute,Max,Month,Day,Hour,Minute]
End of Data Dictionary
1,EXTREME_WINTER,  32.83,-115.58,  -8.00, -16.00
5,7
1038,0.0,0.0, 1,13, 1,15,0.0, 1,13, 1,15
1039,0.0,0.0, 1,13, 1,15,0.0, 1,13, 1,15
581,0.1947810301200568,0.06608396190475696, 1,14,13,18,0.6318710056252164, 1,16,13,60
582,2.938908537188265,0.0, 1,13, 5,52,24.455594214853598, 1,16,13,60
583,0.010323958263906748,0.00009875588141671723, 1,14,13, 7,0.09120677793322617, 1,19, 6, 5
1115,82408815.88201006,0.0, 1,13, 1, 7,1959107.5759994558, 1,18, 6, 5
1128,25268177.049976632,0.0, 1,13, 1, 7,566233.695584722, 1,18, 6,45
1153,588648.4266489898,0.0, 1,13, 1, 7,24535.028953044526, 1,17, 6, 5
1154,47943714.17676924,0.0, 1,13,10, 1,180000.0, 1,13, 2,30
1155,0.0,0.0, 1,13, 1, 7,0.0, 1,13, 1, 7
1156,0.0,0.0, 1,13, 1, 7,0.0, 1,13, 1, 7
1292,-23464694.962493386,-39290.54375257919, 1,18, 5,15,-2094.5115513755522, 1,19,10,31
1306,210336080.13014093,0.0, 1,13, 1, 7,4050000.0, 1,14, 7,30
1307,54031116.87898657,0.0, 1,13, 1, 7,5441207.228167326, 1,13, 8,30
1308,210336080.13014093,0.0, 1,13, 1, 7,4050000.0, 1,14, 7,30
13,739493181.5784835,151703.1275401932, 1,16, 4,15,5393021.061528167, 1,14, 7,15
61,301924526.02383536,88139.10953165221, 1,13, 1,15,1282023.4113694867, 1,13,20,15
134,70666020.44019976,63564.01800854099, 1,13, 4,15,156554.22484006523, 1,18,20,15
170,5241013.419656067,348.4159749238097, 1,13, 4,15,17476.39704006126, 1,18,12,15
207,6509451.13922267,815.2532113832032, 1,13, 3,15,22990.642799023623, 1,18,10,15
244,12749673.399825225,1521.856143006317, 1,13, 4,15,53038.631142310165, 1,18,20,15
281,46165882.481495745,59938.60262432081, 1,13, 5,15,81951.81706819107, 1,13,19,15
318,0.0,0.0, 1,13, 1,15,0.0, 1,13, 1,15
355,197687796.27748066,18561.32405820678, 1,13, 4,15,724774.895203776, 1,18,18,15
403,197687796.27748066,18561.32405820678, 1,13, 4,15,724774.895203776, 1,18,18,15
476,106772067.24485716,7098.072629279515, 1,13, 4,15,356036.3026282215, 1,18,12,15
513,0.0,0.0, 1,13, 1,15,0.0, 1,13, 1,15
562,11583960.30485736,0.0, 1,13, 1,15,80648.79317215417, 1,19,16,30
1046,0.0,0.0, 1,13, 1,15,0.0, 1,13, 1,15
1096,71182055.02605666,0.0, 1,13, 1,15,655197.8945251484, 1,19,16,30
1134,73800539.65339486,0.0, 1,13,10,15,795193.3298014234, 1,18, 6,15
1326,210336080.13014102,0.0, 1,13, 1,15,4050000.0, 1,13, 8,45
1379,0.0,0.0, 1,13, 1,15,0.0, 1,13, 1,15
1,EXTREME_SUMMER,  32.83,-115.58,  -8.00, -16.00
5,7
1038,0.0,0.0, 8,17, 1,15,0.0, 8,17, 1,15
1039,67.0,0.0, 8,17, 1,15,0.25, 8,17,12,45
581,0.11008361421839935,0.0, 8,17, 6,60,0.653264464455149, 8,21,17,50
582,3.6583364003556356,0.02323494680645179, 8,23,19, 8,15.238128994954291, 8,21,17,47
583,0.06479746392126323,0.0004974357870407954, 8,20,23, 3,0.09754578051595253, 8,21,17,47
1115,0.0,0.0, 8,17, 1, 7,0.0, 8,17, 1, 7
1128,0.0,0.0, 8,17, 1, 7,0.0, 8,17, 1, 7
1153,0.0,0.0, 8,17, 1, 7,0.0, 8,17, 1, 7
1154,0.0,0.0, 8,17, 1, 7,0.0, 8,17, 1, 7
1155,0.0,0.0, 8,17, 1, 7,0.0, 8,17, 1, 7
1156,0.0,0.0, 8,17, 1, 7,0.0, 8,17, 1, 7
1292,-21515456.34286773,-34048.77133616306, 8,22,16,15,-2830.551158421625, 8,21,16,45
1306,131544126.02431278,0.0, 8,17, 1, 7,3954426.056088687, 8,22,15,60
1307,13216326.89859014,0.0, 8,17, 1, 7,1688681.4940046198, 8,22, 9,30
1308,131544126.02431278,0.0, 8,17, 1, 7,3954426.056088687, 8,22,15,60
13,1558533956.629667,518894.05872537754, 8,23, 4,60,6588494.448911419, 8,20,20,30
61,301924526.02383536,88139.10953165221, 8,17, 1,15,1282023.4113694867, 8,17,20,15
134,70666020.44019976,63564.01800854099, 8,17, 4,15,156554.22484006523, 8,22,20,15
170,5241013.419656067,348.4159749238097, 8,17, 4,15,17476.39704006126, 8,22,12,15
207,6509451.13922267,815.2532113832032, 8,17, 3,15,22990.642799023623, 8,22,10,15
244,12749673.399825225,1521.856143006317, 8,17, 4,15,53038.631142310165, 8,22,20,15
281,46165882.481495745,59938.60262432081, 8,17, 5,15,81951.81706819107, 8,17,19,15
318,0.0,0.0, 8,17, 1,15,0.0, 8,17, 1,15
355,197687796.27748066,18561.32405820678, 8,17, 4,15,724774.895203776, 8,22,18,15
403,197687796.27748066,18561.32405820678, 8,17, 4,15,724774.895203776, 8,22,18,15
476,106772067.24485716,7098.072629279515, 8,17, 4,15,356036.3026282215, 8,22,12,15
513,0.0,0.0, 8,17, 1,15,0.0, 8,17, 1,15
562,82011749.45279993,32947.83675775052, 8,17, 5,60,167551.13084912987, 8,21,16,30
1046,0.0,0.0, 8,17, 1,15,0.0, 8,17, 1,15
1096,972387534.6885201,324284.1736380846, 8,17, 5,60,2304062.5840560137, 8,19,16,60
1134,0.0,0.0, 8,17, 1,15,0.0, 8,17, 1,15
1326,131544126.02431276,0.0, 8,17, 1,15,4050000.0, 8,23,10,30
1379,0.0,0.0, 8,17, 1,15,0.0, 8,17, 1,15
1,ANNUAL,  32.83,-115.58,  -8.00, -16.00
5,365
1038,0.0,0.0, 1, 1, 1,15,0.0, 1, 1, 1,15
1039,1278.0,0.0, 1, 1, 1,15,0.25, 4, 1,14,30
581,0.16223613227364747,0.0, 1, 3, 9,48,1.3370014951161269, 2, 3,16,60
582,3.719222101088073,0.0, 1, 2,22,50,40.484931187124246, 5, 6,21,60
583,0.04068385075425627,0.0, 6,25,23, 3,0.11848510183240753, 8,27,16,48
1115,329176984.6514927,0.0, 1, 1, 1, 5,2222301.633698416,12,22, 6,45
1128,101122126.51874632,0.0, 1, 1, 1, 5,715239.5653492053,12,21, 6,45
1153,2228603.50357424,0.0, 1, 1, 1, 5,23994.81842036334, 1,18, 6, 5
1154,499367660.8926117,0.0, 1, 1, 9, 3,180000.0, 1, 1, 2,30
1155,713577.0269744426,0.0, 1, 1, 1, 5,258754.31401980048,12,21, 6, 5
1156,713577.0269744426,0.0, 1, 1, 1, 5,258754.31401980048,12,21, 6, 5
1292,-1153635239.983277,-39674.85770962036, 2, 6, 5,60,-1748.0514093151883, 2,12,10,31
1306,8792841958.181515,0.0, 1, 1, 1, 5,4050000.0, 1, 3, 7,30
1307,1653824283.5520387,0.0, 1, 1, 1, 5,10376271.221408034, 1,16, 8,30
1308,8792841958.181515,0.0, 1, 1, 1, 5,4050000.0, 1, 3, 7,30
13,57964046646.16523,151703.1275401932, 1,12, 4,15,6822009.575878685, 9, 5,19,15
61,15743207428.383959,88139.10953165221, 1, 1, 1,15,1282023.4113694867, 1, 1,20,15
134,3685071073.4325233,63564.01800854099, 1, 2, 4,15,156554.22484006523, 1, 1,20,15
170,273393721.45532674,348.4159749238097, 1, 2, 4,15,17476.39704006126, 1, 1,12,15
207,339560869.0695816,815.2532113832032, 1, 2, 3,15,22990.642799023623, 1, 1,10,15
244,664895467.8009144,1521.856143006317, 1, 2, 4,15,53038.631142310165, 1, 1,20,15
281,2407221015.106824,59938.60262432081, 1, 1, 5,15,81951.81706819107, 1, 1,19,15
318,0.0,0.0, 1, 1, 1,15,0.0, 1, 1, 1,15
355,10310294493.051695,18561.32405820678, 1, 2, 4,15,724774.895203776, 1, 1,18,15
403,10310294493.051695,18561.32405820678, 1, 2, 4,15,724774.895203776, 1, 1,18,15
476,5569688622.066177,7098.072629279515, 1, 2, 4,15,356036.3026282215, 1, 1,12,15
513,0.0,0.0, 1, 1, 1,15,0.0, 1, 1, 1,15
562,2541478917.353273,0.0, 1, 1, 1,15,167551.13084912987, 6,10,16,30
1046,0.0,0.0, 1, 1, 1,15,0.0, 1, 1, 1,15
1096,26598015300.870514,0.0, 1, 1, 1,15,2507341.7133260793, 6,29,14,60
1134,603431967.941906,0.0, 1, 1, 9,15,1146071.9301037723,12,22, 6,15
1326,8792841958.181509,0.0, 1, 1, 1,15,4050000.0000000014, 1, 1,10,30
1379,0.0,0.0, 1, 1, 1,15,0.0, 1, 1, 1,15
End of Data
 Number of Records Written=          99
