Program Version,EnergyPlus, Version 22.2.0-c249759bad, YMD=2023.09.01 14:32
1,5,Environment Title[],Latitude[deg],Longitude[deg],Time Zone[],Elevation[m]
2,8,Day of Simulation[],Month[],Day of Month[],DST Indicator[1=yes 0=no],Hour[],StartMinute[],EndMinute[],DayType
3,5,Cumulative Day of Simulation[],Month[],Day of Month[],DST Indicator[1=yes 0=no],DayType  ! When Daily Report Variables Requested
4,2,Cumulative Days of Simulation[],Month[]  ! When Monthly Report Variables Requested
5,1,Cumulative Days of Simulation[] ! When Run Period Report Variables Requested
6,1,Calendar Year of Simulation[] ! When Annual Report Variables Requested
7,1,Environment,Site Outdoor Air Drybulb Temperature [C] !Hourly
545,1,LIVING,Zone Mean Air Temperature [C] !Hourly
546,1,ATTIC,Zone Mean Air Temperature [C] !Hourly
547,1,CRAWLSPACE,Zone Mean Air Temperature [C] !Hourly
548,1,FAN,Fan Electricity Rate [W] !Hourly
720,1,LIVING,Zone Predicted Sensible Load to Heating Setpoint Heat Transfer Rate [W] !Hourly
721,1,LIVING,Zone System Predicted Sensible Load to Heating Setpoint Heat Transfer Rate [W] !Hourly
784,1,ATTIC,Zone Predicted Sensible Load to Heating Setpoint Heat Transfer Rate [W] !Hourly
785,1,ATTIC,Zone System Predicted Sensible Load to Heating Setpoint Heat Transfer Rate [W] !Hourly
848,1,CRAWLSPACE,Zone Predicted Sensible Load to Heating Setpoint Heat Transfer Rate [W] !Hourly
849,1,CRAWLSPACE,Zone System Predicted Sensible Load to Heating Setpoint Heat Transfer Rate [W] !Hourly
1121,1,DX_HEATING_COIL,Heating Coil Heating Rate [W] !Hourly
1135,1,DX_HEATING_COIL,Heating Coil Electricity Rate [W] !Hourly
1161,1,DX_HEATING_COIL,Heating Coil Defrost Electricity Rate [W] !Hourly
1163,1,DX_HEATING_COIL,Heating Coil Crankcase Heater Electricity Rate [W] !Hourly
1166,1,HEATING_RESISTANCE_BACKUP,Heating Coil Heating Rate [W] !Hourly
1168,1,HEATING_RESISTANCE_BACKUP,Heating Coil Electricity Rate [W] !Hourly
End of Data Dictionary
1,EXTREME_WINTER,  45.63, -89.48,  -6.00, 495.00
2,1, 1,18, 0, 1, 0.00,60.00,Monday
7,-19.4
545,18.56091912584518
546,-14.564665510629043
547,16.619040070232455
548,135.8094680579532
720,5576.287958145065
721,5576.287958145065
784,0.0
785,0.0
848,0.0
849,0.0
1121,2458.879550288462
1135,1101.8835349446401
1161,3.3725398029161027
1163,0.0
1166,5911.694863423073
1168,5911.694863423073
2,1, 1,18, 0, 2, 0.00,60.00,Monday
7,-19.4
545,18.552285710680074
546,-13.493418570250684
547,15.988185020875344
548,135.8094680579532
720,5788.555657231447
721,5788.555657231447
784,0.0
785,0.0
848,0.0
849,0.0
1121,2459.276123133681
1135,1101.5300818097846
1161,3.370861918698498
1163,0.0
1166,6075.28850361743
1168,6075.28850361743
2,1, 1,18, 0, 3, 0.00,60.00,Monday
7,-20.0
545,18.543923641867018
546,-12.971821289014189
547,15.700098288682508
548,135.8094680579532
720,6094.221327350184
721,6094.221327350184
784,0.0
785,0.0
848,0.0
849,0.0
1121,2409.9863287179605
1135,1093.2713856000548
1161,2.954669385466709
1163,0.0
1166,6437.785221042443
1168,6437.785221042443
2,1, 1,18, 0, 4, 0.00,60.00,Monday
7,-18.9
545,18.544368731875174
546,-12.021943445224998
547,15.373052289005658
548,135.8094680579532
720,6147.634417043882
721,6147.634417043882
784,0.0
785,0.0
848,0.0
849,0.0
1121,2501.527719758741
1135,1105.8181362198056
1161,4.231333093414777
1163,0.0
1166,6390.667100803388
1168,6390.667100803388
2,1, 1,18, 0, 5, 0.00,60.00,Monday
7,-20.0
545,18.542917362718757
546,-12.354982785973725
547,15.082466649593668
548,135.8094680579532
720,6290.515499099436
721,6290.515499099436
784,0.0
785,0.0
848,0.0
849,0.0
1121,2405.193768549014
1135,1089.9586533677355
1161,5.161488657553051
1163,0.0
1166,6613.019470227611
1168,6613.019470227611
2,1, 1,18, 0, 6, 0.00,60.00,Monday
7,-18.3
545,19.334684075349408
546,-11.445063462073561
547,14.831167149139509
548,135.8094680579532
720,7153.6107663858475
721,7153.6107663858475
784,0.0
785,0.0
848,0.0
849,0.0
1121,2549.0539655727334
1135,1110.4299554545387
1161,6.283092497163515
1163,0.0
1166,7490.776171167115
1168,7490.776171167115
2,1, 1,18, 0, 7, 0.00,60.00,Monday
7,-17.8
545,19.57424750183963
546,-10.390685005833586
547,14.619170085258698
548,135.8094680579532
720,6716.954403073831
721,6716.954403073831
784,0.0
785,0.0
848,0.0
849,0.0
1121,2574.918888576385
1135,1129.8865833865102
1161,7.340697710345705
1163,0.0
1166,7001.359472669967
1168,7001.359472669967
2,1, 1,18, 0, 8, 0.00,60.00,Monday
7,-17.2
545,19.642951467245176
546,-10.686336355582757
547,14.399879962760025
548,135.8094680579532
720,6402.063121857467
721,6402.063121857467
784,0.0
785,0.0
848,0.0
849,0.0
1121,2623.419970983786
1135,1141.761663385147
1161,7.460151300566017
1163,0.0
1166,6554.215333657362
1168,6554.215333657362
2,1, 1,18, 0, 9, 0.00,60.00,Monday
7,-16.7
545,19.665501386200788
546,-10.008799269675555
547,14.198080379891657
548,135.8094680579532
720,5911.012949692677
721,5911.012949692677
784,0.0
785,0.0
848,0.0
849,0.0
1121,2663.869232537926
1135,1147.8120322905552
1161,8.641991737017966
1163,0.0
1166,5951.355480570146
1168,5951.355480570146
2,1, 1,18, 0,10, 0.00,60.00,Monday
7,-16.0
545,19.700565401571716
546,-8.420048780642844
547,14.011930979934856
548,135.8094680579532
720,4797.640459858943
721,4797.640459858943
784,0.0
785,0.0
848,0.0
849,0.0
1121,2731.985000728241
1135,1158.9132762250383
1161,7.003790415816213
1163,0.0
1166,4552.407165132442
1168,4552.407165132442
2,1, 1,18, 0,11, 0.00,60.00,Monday
7,-14.0
545,19.723341850479887
546,-8.161526402004027
547,13.85714634598834
548,135.8094680579532
720,3913.675011532043
721,3913.675011532043
784,0.0
785,0.0
848,0.0
849,0.0
1121,2910.3581836612566
1135,1180.7917558549887
1161,9.550154354738684
1163,0.0
1166,3245.429534555309
1168,3245.429534555309
2,1, 1,18, 0,12, 0.00,60.00,Monday
7,-13.0
545,19.711587580438476
546,-5.84440713622147
547,13.730121049016091
548,135.8094680579532
720,3735.2104482239683
721,3735.2104482239683
784,0.0
785,0.0
848,0.0
849,0.0
1121,3017.182946928055
1135,1197.4761499933957
1161,6.022829392106644
1163,0.0
1166,2882.902468748544
1168,2882.902468748544
2,1, 1,18, 0,13, 0.00,60.00,Monday
7,-13.3
545,19.70974217613871
546,-5.272829175593239
547,13.610356224351976
548,135.8094680579532
720,3820.2794534373024
721,3820.2794534373024
784,0.0
785,0.0
848,0.0
849,0.0
1121,2989.610228002706
1135,1193.9334566665718
1161,5.687876951569755
1163,0.0
1166,2891.7640884704983
1168,2891.7640884704983
2,1, 1,18, 0,14, 0.00,60.00,Monday
7,-13.0
545,19.707987901161555
546,-3.110117573787309
547,13.511546709460918
548,135.8094680579532
720,3672.873540432236
721,3672.873540432236
784,0.0
785,0.0
848,0.0
849,0.0
1121,3017.7525712217794
1135,1196.8805826248717
1161,6.022829392106644
1163,0.0
1166,2650.107373156599
1168,2650.107373156599
2,1, 1,18, 0,15, 0.00,60.00,Monday
7,-14.0
545,19.70112993376864
546,-5.067099482604501
547,13.40763814224001
548,135.8094680579532
720,4004.5639821900477
721,4004.5639821900477
784,0.0
785,0.0
848,0.0
849,0.0
1121,2939.5275033846424
1135,1191.9933215304238
1161,0.30623030433011694
1163,0.0
1166,3007.0428790265187
1168,3007.0428790265187
2,1, 1,18, 0,16, 0.00,60.00,Monday
7,-15.0
545,19.700475326115736
546,-6.5108613637936426
547,13.31272945281035
548,135.8094680579532
720,3479.069593410033
721,3479.069593410033
784,0.0
785,0.0
848,0.0
849,0.0
1121,2845.5909563387418
1135,1179.7587790362422
1161,0.06542206728394975
1163,0.0
1166,2572.5422904579646
1168,2572.5422904579646
2,1, 1,18, 0,17, 0.00,60.00,Monday
7,-16.7
545,19.689374278704403
546,-6.34881250420312
547,13.225994414360363
548,135.8094680579532
720,3404.513549303143
721,3404.513549303143
784,0.0
785,0.0
848,0.0
849,0.0
1121,2682.8450789569324
1135,1155.7482352718082
1161,2.0249741441874445
1163,0.0
1166,2715.4079870944356
1168,2715.4079870944356
2,1, 1,18, 0,18, 0.00,60.00,Monday
7,-17.8
545,19.66678368655086
546,-9.308047310631054
547,13.14197161275081
548,135.8094680579532
720,4123.2763578107115
721,4123.2763578107115
784,0.0
785,0.0
848,0.0
849,0.0
1121,2580.3173111333513
1135,1139.2545468139522
1161,3.517211400577178
1163,0.0
1166,3656.8426687542437
1168,3656.8426687542437
2,1, 1,18, 0,19, 0.00,60.00,Monday
7,-18.0
545,19.658228533972366
546,-9.725391839185905
547,13.055691329806992
548,135.8094680579532
720,4224.770728991745
721,4224.770728991745
784,0.0
785,0.0
848,0.0
849,0.0
1121,2569.340206935253
1135,1138.8478481959187
1161,1.2427598521473227
1163,0.0
1166,3939.864936464401
1168,3939.864936464401
2,1, 1,18, 0,20, 0.00,60.00,Monday
7,-19.4
545,19.65692441772437
546,-10.94811400512434
547,12.94329870641957
548,135.8094680579532
720,4574.988713730545
721,4574.988713730545
784,0.0
785,0.0
848,0.0
849,0.0
1121,2450.509588404255
1135,1121.0324406883667
1161,0.06542206728394975
1163,0.0
1166,4515.512896555387
1168,4515.512896555387
2,1, 1,18, 0,21, 0.00,60.00,Monday
7,-21.1
545,19.64423362316857
546,-12.461528371849809
547,12.817301334735957
548,135.8094680579532
720,5059.847832199508
721,5059.847832199508
784,0.0
785,0.0
848,0.0
849,0.0
1121,2306.919073488068
1135,1096.9236846580593
1161,0.06542206728394975
1163,0.0
1166,5300.499964611177
1168,5300.499964611177
2,1, 1,18, 0,22, 0.00,60.00,Monday
7,-22.2
545,19.626275445747513
546,-14.550787463869913
547,12.680957340100411
548,135.8094680579532
720,5707.156728047652
721,5707.156728047652
784,0.0
785,0.0
848,0.0
849,0.0
1121,2217.10293589979
1135,1080.524780092626
1161,0.06542206728394975
1163,0.0
1166,6244.153853011525
1168,6244.153853011525
2,1, 1,18, 0,23, 0.00,60.00,Monday
7,-23.3
545,18.84402929493487
546,-14.947507846947776
547,12.537664508182404
548,135.8094680579532
720,5065.7402485395505
721,5065.7402485395505
784,0.0
785,0.0
848,0.0
849,0.0
1121,2129.554348095113
1135,1063.651203758588
1161,0.06542206728394975
1163,0.0
1166,5717.001915011468
1168,5717.001915011468
2,1, 1,18, 0,24, 0.00,60.00,Monday
7,-23.9
545,18.607501316796615
546,-16.07183536409256
547,12.352384480848329
548,135.8094680579532
720,5844.757312759131
721,5844.757312759131
784,0.0
785,0.0
848,0.0
849,0.0
1121,2097.5622279872277
1135,1042.8875038593385
1161,0.06542206728394975
1163,0.0
1166,6625.2297243240055
1168,6625.2297243240055
2,2, 1,19, 0, 1, 0.00,60.00,Tuesday
7,-24.4
545,18.526315023373954
546,-16.508704499893618
547,12.187381788697223
548,135.8094680579532
720,6555.527014355492
721,6555.527014355492
784,0.0
785,0.0
848,0.0
849,0.0
1121,2063.44104188219
1135,1031.8544238340457
1161,0.06542206728394975
1163,0.0
1166,7545.312782741341
1168,7545.312782741341
2,2, 1,19, 0, 2, 0.00,60.00,Tuesday
7,-25.6
545,18.49596248615983
546,-18.11888512207045
547,12.006441463205713
548,135.8094680579532
720,7289.674560705655
721,7289.674560705655
784,0.0
785,0.0
848,0.0
849,0.0
1121,1973.2624237408652
1135,1012.2207482210424
1161,0.3499190112036889
1163,0.0
1166,8540.346809198385
1168,8540.346809198385
2,2, 1,19, 0, 3, 0.00,60.00,Tuesday
7,-26.1
545,18.488914832078663
546,-17.78170376129111
547,11.83573406199971
548,135.8094680579532
720,7561.461068806981
721,7561.461068806981
784,0.0
785,0.0
848,0.0
849,0.0
1121,1935.5576253488634
1135,1003.4178791517242
1161,0.9323746385466605
1163,0.0
1166,8998.231343214384
1168,8998.231343214384
2,2, 1,19, 0, 4, 0.00,60.00,Tuesday
7,-26.7
545,18.488360801666904
546,-18.717294795266753
547,11.655506790267683
548,135.8094680579532
720,7945.670938551499
721,7945.670938551499
784,0.0
785,0.0
848,0.0
849,0.0
1121,1892.1849140371455
1135,994.131553917993
1161,0.7347480289254302
1163,0.0
1166,9502.146007969597
1168,9502.146007969597
2,2, 1,19, 0, 5, 0.00,60.00,Tuesday
7,-28.3
545,18.31215219322631
546,-18.40494733568664
547,11.473167654101577
548,135.8094680579532
720,8131.567108554056
721,8131.567108554056
784,0.0
785,0.0
848,0.0
849,0.0
1121,1777.3225164095932
1135,968.403813639013
1161,1.0609306120829372
1163,0.0
1166,9551.531578689037
1168,9551.531578689037
2,2, 1,19, 0, 6, 0.00,60.00,Tuesday
7,-31.1
545,17.852125557097803
546,-19.766473143261727
547,11.271072997454269
548,135.8094680579532
720,9994.07986164769
721,9994.07986164769
784,0.0
785,0.0
848,0.0
849,0.0
1121,1593.0998054929744
1135,921.3668763871657
1161,0.17867926720439567
1163,0.0
1166,9551.531578689037
1168,9551.531578689037
2,2, 1,19, 0, 7, 0.00,60.00,Tuesday
7,-31.7
545,17.50272451212257
546,-21.178655117412347
547,11.07617495942345
548,135.8094680579532
720,10239.196250651185
721,10239.196250651185
784,0.0
785,0.0
848,0.0
849,0.0
1121,1562.7513722990022
1135,906.7918098766266
1161,0.20333037826205624
1163,0.0
1166,9551.531578689037
1168,9551.531578689037
2,2, 1,19, 0, 8, 0.00,60.00,Tuesday
7,-31.7
545,17.291662151905896
546,-20.820706489904445
547,10.888473685858038
548,135.8094680579532
720,10366.723554285512
721,10366.723554285512
784,0.0
785,0.0
848,0.0
849,0.0
1121,1569.1264324192703
1135,903.3357023417833
1161,0.20327073326720885
1163,0.0
1166,9551.531578689037
1168,9551.531578689037
2,2, 1,19, 0, 9, 0.00,60.00,Tuesday
7,-28.3
545,18.011287226362708
546,-19.74727152015183
547,10.726649735107973
548,135.8094680579532
720,9374.901721195589
721,9374.901721195589
784,0.0
785,0.0
848,0.0
849,0.0
1121,1801.7481601435259
1135,954.6554259953507
1161,0.06542206728394975
1163,0.0
1166,9551.531578689037
1168,9551.531578689037
2,2, 1,19, 0,10, 0.00,60.00,Tuesday
7,-26.1
545,19.000906889262247
546,-18.08485112101455
547,10.599334250087479
548,135.8094680579532
720,8248.2543258853
721,8248.2543258853
784,0.0
785,0.0
848,0.0
849,0.0
1121,1947.7832286032908
1135,996.8215017962272
1161,0.06542206728394975
1163,0.0
1166,9551.531578689037
1168,9551.531578689037
2,2, 1,19, 0,11, 0.00,60.00,Tuesday
7,-23.9
545,19.49583131710361
546,-15.109814569486884
547,10.51177797938587
548,135.8094680579532
720,6766.858839418257
721,6766.858839418257
784,0.0
785,0.0
848,0.0
849,0.0
1121,2096.8996388220667
1135,1043.4009929854697
1161,0.06542206728394975
1163,0.0
1166,8036.22905495764
1168,8036.22905495764
2,2, 1,19, 0,12, 0.00,60.00,Tuesday
7,-22.8
545,19.643632236812675
546,-12.97270781109962
547,10.43063581908391
548,135.8094680579532
720,5789.358467656944
721,5789.358467656944
784,0.0
785,0.0
848,0.0
849,0.0
1121,2174.470078429202
1135,1067.0778274574413
1161,0.06542206728394975
1163,0.0
1166,6682.359116251824
1168,6682.359116251824
2,2, 1,19, 0,13, 0.00,60.00,Tuesday
7,-22.2
545,19.68637378474529
546,-10.981285945754781
547,10.370794682955973
548,135.8094680579532
720,5073.529443002772
721,5073.529443002772
784,0.0
785,0.0
848,0.0
849,0.0
1121,2220.0129524865115
1135,1078.1587139051844
1161,0.06542206728394975
1163,0.0
1166,5664.033713143909
1168,5664.033713143909
2,2, 1,19, 0,14, 0.00,60.00,Tuesday
7,-21.1
545,19.69563352366747
546,-11.673836223936249
547,10.330809807273885
548,135.8094680579532
720,4672.550758373534
721,4672.550758373534
784,0.0
785,0.0
848,0.0
849,0.0
1121,2309.548704940747
1135,1094.7009165161824
1161,0.06542206728394975
1163,0.0
1166,4978.25761531651
1168,4978.25761531651
2,2, 1,19, 0,15, 0.00,60.00,Tuesday
7,-20.6
545,19.70216488084307
546,-10.902327432341057
547,10.31124122519936
548,135.8094680579532
720,3881.2842250846425
721,3881.2842250846425
784,0.0
785,0.0
848,0.0
849,0.0
1121,2351.1325884481266
1135,1101.950966813812
1161,0.06542206728394975
1163,0.0
1166,4016.3733139353326
1168,4016.3733139353326
2,2, 1,19, 0,16, 0.00,60.00,Tuesday
7,-20.6
545,19.680223311287893
546,-12.396069242010146
547,10.296739204950763
548,135.8094680579532
720,4295.455785457443
721,4295.455785457443
784,0.0
785,0.0
848,0.0
849,0.0
1121,2351.060001863929
1135,1102.0134468886986
1161,0.06542206728394975
1163,0.0
1166,4443.732683249268
1168,4443.732683249268
2,2, 1,19, 0,17, 0.00,60.00,Tuesday
7,-22.2
545,19.66539624959968
546,-13.704627405894193
547,10.281258595877178
548,135.8094680579532
720,4303.866075439268
721,4303.866075439268
784,0.0
785,0.0
848,0.0
849,0.0
1121,2219.4841540410716
1135,1078.589278689544
1161,0.06542206728394975
1163,0.0
1166,4654.483337901784
1168,4654.483337901784
2,2, 1,19, 0,18, 0.00,60.00,Tuesday
7,-22.8
545,19.630278635458676
546,-15.291210790106247
547,10.260353121054024
548,135.8094680579532
720,5041.996094326651
721,5041.996094326651
784,0.0
785,0.0
848,0.0
849,0.0
1121,2171.484551347588
1135,1069.458729599352
1161,0.06542206728394975
1163,0.0
1166,5633.922258398075
1168,5633.922258398075
2,2, 1,19, 0,19, 0.00,60.00,Tuesday
7,-25.6
545,19.613918766882144
546,-15.543519735657949
547,10.200876745728385
548,135.8094680579532
720,5741.172595381733
721,5741.172595381733
784,0.0
785,0.0
848,0.0
849,0.0
1121,1955.3392025572325
1135,1025.8181965539763
1161,0.06542206728394975
1163,0.0
1166,6765.2445943078055
1168,6765.2445943078055
2,2, 1,19, 0,20, 0.00,60.00,Tuesday
7,-27.2
545,19.609824308528484
546,-17.366205414829423
547,10.122808919834254
548,135.8094680579532
720,6323.278191783746
721,6323.278191783746
784,0.0
785,0.0
848,0.0
849,0.0
1121,1838.2045531284805
1135,999.6896604161451
1161,0.06542206728394975
1163,0.0
1166,7609.666537119125
1168,7609.666537119125
2,2, 1,19, 0,21, 0.00,60.00,Tuesday
7,-28.3
545,19.60131031272426
546,-17.74627894449908
547,10.028376599018078
548,135.8094680579532
720,6718.278018825324
721,6718.278018825324
784,0.0
785,0.0
848,0.0
849,0.0
1121,1760.2559618357943
1135,981.3184803503852
1161,0.06542206728394975
1163,0.0
1166,8258.471604442626
1168,8258.471604442626
2,2, 1,19, 0,22, 0.00,60.00,Tuesday
7,-27.8
545,19.603796817800276
546,-18.0730346601403
547,9.928253943688505
548,135.8094680579532
720,7035.1564754313895
721,7035.1564754313895
784,0.0
785,0.0
848,0.0
849,0.0
1121,1795.759730910835
1135,989.498423709591
1161,0.06542206728394975
1163,0.0
1166,8639.926224964482
1168,8639.926224964482
2,2, 1,19, 0,23, 0.00,60.00,Tuesday
7,-28.3
545,18.818463346314328
546,-18.167925018864096
547,9.80817150778207
548,135.8094680579532
720,6316.054203590898
721,6316.054203590898
784,0.0
785,0.0
848,0.0
849,0.0
1121,1760.591076268374
1135,981.1120440622034
1161,0.06542206728394975
1163,0.0
1166,7871.16197679361
1168,7871.16197679361
2,2, 1,19, 0,24, 0.00,60.00,Tuesday
7,-28.3
545,18.57823252971047
546,-19.514504507391823
547,9.648213912266446
548,135.8094680579532
720,7141.579250106151
721,7141.579250106151
784,0.0
785,0.0
848,0.0
849,0.0
1121,1775.280880914736
1135,971.920112719191
1161,0.06542206728394975
1163,0.0
1166,8755.493959962907
1168,8755.493959962907
2,3, 1,20, 0, 1, 0.00,60.00,Wednesday
7,-26.7
545,18.505213003030498
546,-19.973528799720093
547,9.517774605088153
548,135.8094680579532
720,7651.705328738013
721,7651.705328738013
784,0.0
785,0.0
848,0.0
849,0.0
1121,1894.4383055837056
1135,994.200952766584
1161,0.06542206728394975
1163,0.0
1166,9295.40440566978
1168,9295.40440566978
2,3, 1,20, 0, 2, 0.00,60.00,Wednesday
7,-27.2
545,18.37685223391409
546,-19.095509214159573
547,9.37302712007066
548,135.8094680579532
720,7989.4294142228355
721,7989.4294142228355
784,0.0
785,0.0
848,0.0
849,0.0
1121,1859.6081215697757
1135,985.413978164797
1161,0.06542206728394975
1163,0.0
1166,9551.531578689037
1168,9551.531578689037
2,3, 1,20, 0, 3, 0.00,60.00,Wednesday
7,-28.9
545,17.959101187336294
546,-19.602473784415523
547,9.213947293821446
548,135.8094680579532
720,8562.185898759471
721,8562.185898759471
784,0.0
785,0.0
848,0.0
849,0.0
1121,1741.9334867103848
1135,956.7595484550183
1161,0.14884814160551746
1163,0.0
1166,9551.531578689037
1168,9551.531578689037
2,3, 1,20, 0, 4, 0.00,60.00,Wednesday
7,-30.0
545,17.495794008278878
546,-20.30892517182236
547,9.047738145263235
548,135.8094680579532
720,9068.741360852415
721,9068.741360852415
784,0.0
785,0.0
848,0.0
849,0.0
1121,1674.269623592312
1135,934.1023814593069
1161,0.4122123141395672
1163,0.0
1166,9551.531578689037
1168,9551.531578689037
2,3, 1,20, 0, 5, 0.00,60.00,Wednesday
7,-30.0
545,17.24421065640449
546,-20.289488319926477
547,8.888271856612286
548,135.8094680579532
720,9270.561921243541
721,9270.561921243541
784,0.0
785,0.0
848,0.0
849,0.0
1121,1681.2651929485319
1135,928.2193192680579
1161,1.2183623823469354
1163,0.0
1166,9551.531578689037
1168,9551.531578689037
2,3, 1,20, 0, 6, 0.00,60.00,Wednesday
7,-31.7
545,16.817946760989923
546,-21.06478353202616
547,8.72106124140601
548,135.8094680579532
720,11104.394149864682
721,11104.394149864682
784,0.0
785,0.0
848,0.0
849,0.0
1121,1576.0691824666706
1135,899.5051474800381
1161,0.20246048643000183
1163,0.0
1166,9551.531578689037
1168,9551.531578689037
2,3, 1,20, 0, 7, 0.00,60.00,Wednesday
7,-31.7
545,16.609889592657535
546,-21.033180903387784
547,8.56153651690931
548,135.8094680579532
720,11198.639625992406
721,11198.639625992406
784,0.0
785,0.0
848,0.0
849,0.0
1121,1583.6587593325262
1135,895.2351397906776
1161,0.20226209565036427
1163,0.0
1166,9551.531578689037
1168,9551.531578689037
2,3, 1,20, 0, 8, 0.00,60.00,Wednesday
7,-31.7
545,16.30952581993411
546,-22.150783839987902
547,8.404327491347996
548,135.8094680579532
720,11627.529478681085
721,11627.529478681085
784,0.0
785,0.0
848,0.0
849,0.0
1121,1587.4385741969147
1135,893.076891983211
1161,0.20214409010117074
1163,0.0
1166,9551.531578689037
1168,9551.531578689037
2,3, 1,20, 0, 9, 0.00,60.00,Wednesday
7,-27.2
545,17.12606723879999
546,-19.604136747748136
547,8.277657112257435
548,135.8094680579532
720,10402.294967471538
721,10402.294967471538
784,0.0
785,0.0
848,0.0
849,0.0
1121,1900.4489214176372
1135,956.611957155841
1161,0.06542206728394975
1163,0.0
1166,9551.531578689037
1168,9551.531578689037
2,3, 1,20, 0,10, 0.00,60.00,Wednesday
7,-25.0
545,18.32353640569166
546,-16.57874065627514
547,8.186832192532327
548,135.8094680579532
720,9088.849387265622
721,9088.849387265622
784,0.0
785,0.0
848,0.0
849,0.0
1121,2049.5180099533213
1135,998.4032343197795
1161,0.06542206728394975
1163,0.0
1166,9551.531578689037
1168,9551.531578689037
2,3, 1,20, 0,11, 0.00,60.00,Wednesday
7,-22.8
545,19.308901207834555
546,-13.572035967671662
547,8.140620728437215
548,135.8094680579532
720,7522.319102123938
721,7522.319102123938
784,0.0
785,0.0
848,0.0
849,0.0
1121,2199.5596022761947
1135,1046.7188958086062
1161,0.06542206728394975
1163,0.0
1166,8745.323972355449
1168,8745.323972355449
2,3, 1,20, 0,12, 0.00,60.00,Wednesday
7,-21.1
545,19.59935601337349
546,-10.375994049261458
547,8.124968760911456
548,135.8094680579532
720,6121.302169314349
721,6121.302169314349
784,0.0
785,0.0
848,0.0
849,0.0
1121,2319.573414798359
1135,1086.169724831085
1161,0.06542206728394975
1163,0.0
1166,6898.661995801092
1168,6898.661995801092
2,3, 1,20, 0,13, 0.00,60.00,Wednesday
7,-19.4
545,19.691057686544376
546,-8.100054189700847
547,8.121104034120451
548,135.8094680579532
720,5004.379936700641
721,5004.379936700641
784,0.0
785,0.0
848,0.0
849,0.0
1121,2457.7931969431634
1135,1114.5113827479674
1161,0.06542206728394975
1163,0.0
1166,5275.764374837122
1168,5275.764374837122
2,3, 1,20, 0,14, 0.00,60.00,Wednesday
7,-18.9
545,19.714370420241192
546,-8.680713645620017
547,8.1315776093353
548,135.8094680579532
720,4283.629750780752
721,4283.629750780752
784,0.0
785,0.0
848,0.0
849,0.0
1121,2499.3208886548914
1135,1122.859683584218
1161,0.06542206728394975
1163,0.0
1166,4238.21748939399
1168,4238.21748939399
2,3, 1,20, 0,15, 0.00,60.00,Wednesday
7,-18.3
545,19.709976175115308
546,-8.917318764307607
547,8.163224286993
548,135.8094680579532
720,3678.4864517216647
721,3678.4864517216647
784,0.0
785,0.0
848,0.0
849,0.0
1121,2551.392902011119
1135,1131.3042552744732
1161,0.06542206728394975
1163,0.0
1166,3465.5486517162667
1168,3465.5486517162667
2,3, 1,20, 0,16, 0.00,60.00,Wednesday
7,-18.9
545,19.698837947361575
546,-10.206465964359566
547,8.199476191266639
548,135.8094680579532
720,3523.274936550646
721,3523.274936550646
784,0.0
785,0.0
848,0.0
849,0.0
1121,2498.8961753324174
1135,1123.246257466969
1161,0.06542206728394975
1163,0.0
1166,3328.712936172464
1168,3328.712936172464
2,3, 1,20, 0,17, 0.00,60.00,Wednesday
7,-20.6
545,19.673988215848457
546,-9.738485235865989
547,8.236790640360423
548,135.8094680579532
720,3804.1435699137164
721,3804.1435699137164
784,0.0
785,0.0
848,0.0
849,0.0
1121,2353.6770504957776
1135,1099.7578480675982
1161,0.06542206728394975
1163,0.0
1166,3849.3390153900577
1168,3849.3390153900577
2,3, 1,20, 0,18, 0.00,60.00,Wednesday
7,-22.8
545,19.638802732982516
546,-11.95258810801206
547,8.255866469092027
548,135.8094680579532
720,4827.188829940433
721,4827.188829940433
784,0.0
785,0.0
848,0.0
849,0.0
1121,2173.79417771385
1135,1067.6176275711466
1161,0.06542206728394975
1163,0.0
1166,5210.767364848138
1168,5210.767364848138
2,3, 1,20, 0,19, 0.00,60.00,Wednesday
7,-23.9
545,19.6232273801258
546,-13.642138517474809
547,8.257116864510891
548,135.8094680579532
720,5394.154037807883
721,5394.154037807883
784,0.0
785,0.0
848,0.0
849,0.0
1121,2087.5654363461063
1135,1050.5854379767923
1161,0.06542206728394975
1163,0.0
1166,6082.906892634057
1168,6082.906892634057
2,3, 1,20, 0,20, 0.00,60.00,Wednesday
7,-25.6
545,19.612885302021375
546,-15.456864857403968
547,8.224659542629949
548,135.8094680579532
720,5944.102842222144
721,5944.102842222144
784,0.0
785,0.0
848,0.0
849,0.0
1121,1957.9036270152571
1135,1024.0007687569575
1161,0.06542206728394975
1163,0.0
1166,6968.200424202704
1168,6968.200424202704
2,3, 1,20, 0,21, 0.00,60.00,Wednesday
7,-25.0
545,19.616314695284508
546,-16.279339501330952
547,8.187000347919948
548,135.8094680579532
720,6126.203094839877
721,6126.203094839877
784,0.0
785,0.0
848,0.0
849,0.0
1121,2003.4182656830958
1135,1033.2422558898306
1161,0.06542206728394975
1163,0.0
1166,7254.374303786244
1168,7254.374303786244
2,3, 1,20, 0,22, 0.00,60.00,Wednesday
7,-24.4
545,19.61822019555339
546,-16.330719450569926
547,8.129267548009764
548,135.8094680579532
720,6409.17295764445
721,6409.17295764445
784,0.0
785,0.0
848,0.0
849,0.0
1121,2049.323815396702
1135,1042.5423071218033
1161,0.06542206728394975
1163,0.0
1166,7601.990576085451
1168,7601.990576085451
2,3, 1,20, 0,23, 0.00,60.00,Wednesday
7,-26.1
545,18.82522252244472
546,-17.146310035411734
547,8.041503101648829
548,135.8094680579532
720,5977.02392380363
721,5977.02392380363
784,0.0
785,0.0
848,0.0
849,0.0
1121,1920.9314085691353
1135,1015.8776907593123
1161,0.06542206728394975
1163,0.0
1166,7250.53918609641
1168,7250.53918609641
2,3, 1,20, 0,24, 0.00,60.00,Wednesday
7,-25.6
545,18.59663561052909
546,-16.051042618742816
547,7.928264866010738
548,135.8094680579532
720,6445.637032854549
721,6445.637032854549
784,0.0
785,0.0
848,0.0
849,0.0
1121,1973.1250427110404
1135,1013.0574806907836
1161,0.06542206728394975
1163,0.0
1166,7714.894779996648
1168,7714.894779996648
2,4, 1,21, 0, 1, 0.00,60.00,Thursday
7,-25.6
545,18.53139470283809
546,-15.961201221095722
547,7.827087581741709
548,135.8094680579532
720,6986.633219968942
721,6986.633219968942
784,0.0
785,0.0
848,0.0
849,0.0
1121,1977.5048043533263
1135,1009.8594544730183
1161,0.06542206728394975
1163,0.0
1166,8282.588441892669
1168,8282.588441892669
2,4, 1,21, 0, 2, 0.00,60.00,Thursday
7,-26.7
545,18.504057682591977
546,-15.271403871302965
547,7.715172732763146
548,135.8094680579532
720,7454.814007099616
721,7454.814007099616
784,0.0
785,0.0
848,0.0
849,0.0
1121,1897.379959534938
1135,992.1513484803394
1161,0.06542206728394975
1163,0.0
1166,8903.41589483878
1168,8903.41589483878
2,4, 1,21, 0, 3, 0.00,60.00,Thursday
7,-26.7
545,18.494253920151312
546,-16.149730467069478
547,7.610976657603811
548,135.8094680579532
720,7915.358064452024
721,7915.358064452024
784,0.0
785,0.0
848,0.0
849,0.0
1121,1896.7012776263816
1135,991.0092673556853
1161,0.7250304627769223
1163,0.0
1166,9424.698944017355
1168,9424.698944017355
2,4, 1,21, 0, 4, 0.00,60.00,Thursday
7,-25.6
545,18.500374575464935
546,-15.539605754947695
547,7.5153554279489745
548,135.8094680579532
720,7781.011895687676
721,7781.011895687676
784,0.0
785,0.0
848,0.0
849,0.0
1121,1979.187715006561
1135,1007.8961512555487
1161,0.3452559373585568
1163,0.0
1166,9235.587035075065
1168,9235.587035075065
2,4, 1,21, 0, 5, 0.00,60.00,Thursday
7,-25.6
545,18.507562965133864
546,-15.211552783910655
547,7.412620046567084
548,135.8094680579532
720,7719.716692971353
721,7719.716692971353
784,0.0
785,0.0
848,0.0
849,0.0
1121,1977.6113922054244
1135,1007.0979849846581
1161,1.0967212212395143
1163,0.0
1166,9141.149596291223
1168,9141.149596291223
2,4, 1,21, 0, 6, 0.00,60.00,Thursday
7,-25.0
545,18.892438840437084
546,-15.112704829662617
547,7.3186067420833325
548,135.8094680579532
720,8828.759161422353
721,8828.759161422353
784,0.0
785,0.0
848,0.0
849,0.0
1121,2021.844432966439
1135,1015.5010659534796
1161,1.5913244307400307
1163,0.0
1166,9551.531578689037
1168,9551.531578689037
2,4, 1,21, 0, 7, 0.00,60.00,Thursday
7,-23.9
545,19.25335504368819
546,-14.786314000228167
547,7.247096941083743
548,135.8094680579532
720,8454.141343941052
721,8454.141343941052
784,0.0
785,0.0
848,0.0
849,0.0
1121,2100.957313742282
1135,1037.8543339152234
1161,0.9111466555658675
1163,0.0
1166,9551.531578689037
1168,9551.531578689037
2,4, 1,21, 0, 8, 0.00,60.00,Thursday
7,-22.8
545,19.525195533922847
546,-14.242826597299509
547,7.176889201470112
548,135.8094680579532
720,8125.193009387376
721,8125.193009387376
784,0.0
785,0.0
848,0.0
849,0.0
1121,2183.0479419717394
1135,1060.1875746223748
1161,0.06542206728394975
1163,0.0
1166,9444.179336058804
1168,9444.179336058804
2,4, 1,21, 0, 9, 0.00,60.00,Thursday
7,-21.7
545,19.60658533581969
546,-13.09064785879082
547,7.111021979643669
548,135.8094680579532
720,7742.0922475533225
721,7742.0922475533225
784,0.0
785,0.0
848,0.0
849,0.0
1121,2267.0288780582528
1135,1080.2426129319963
1161,0.06542206728394975
1163,0.0
1166,8909.954173464428
1168,8909.954173464428
2,4, 1,21, 0,10, 0.00,60.00,Thursday
7,-20.0
545,19.64318308412513
546,-11.214697467114126
547,7.047385264940966
548,135.8094680579532
720,7190.972576848542
721,7190.972576848542
784,0.0
785,0.0
848,0.0
849,0.0
1121,2407.541599593428
1135,1105.335744560028
1161,0.06542206728394975
1163,0.0
1166,8074.913184147434
1168,8074.913184147434
2,4, 1,21, 0,11, 0.00,60.00,Thursday
7,-18.0
545,19.68855655586961
546,-5.500687419195008
547,6.996844866785255
548,135.8094680579532
720,5899.834340240288
721,5899.834340240288
784,0.0
785,0.0
848,0.0
849,0.0
1121,2580.5658240605603
1135,1132.7828568761502
1161,0.06542206728394975
1163,0.0