Program Version,EnergyPlus, Version 22.2.0-c249759bad, YMD=2023.09.01 18:17
1,5,Environment Title[],Latitude[deg],Longitude[deg],Time Zone[],Elevation[m]
2,8,Day of Simulation[],Month[],Day of Month[],DST Indicator[1=yes 0=no],Hour[],StartMinute[],EndMinute[],DayType
3,5,Cumulative Day of Simulation[],Month[],Day of Month[],DST Indicator[1=yes 0=no],DayType  ! When Daily Report Variables Requested
4,2,Cumulative Days of Simulation[],Month[]  ! When Monthly Report Variables Requested
5,1,Cumulative Days of Simulation[] ! When Run Period Report Variables Requested
6,1,Calendar Year of Simulation[] ! When Annual Report Variables Requested
581,11,LIVING,AFN Zone Infiltration Air Change Rate [ach] !RunPeriod [Value,Min,Month,Day,Hour,Minute,Max,Month,Day,Hour,Minute]
582,11,ATTIC,AFN Zone Infiltration Air Change Rate [ach] !RunPeriod [Value,Min,Month,Day,Hour,Minute,Max,Month,Day,Hour,Minute]
583,11,CRAWLSPACE,AFN Zone Infiltration Air Change Rate [ach] !RunPeriod [Value,Min,Month,Day,Hour,Minute,Max,Month,Day,Hour,Minute]
1038,11,Facility,Facility Heating Setpoint Not Met Time [hr] !RunPeriod [Value,Min,Month,Day,Hour,Minute,Max,Month,Day,Hour,Minute]
1039,11,Facility,Facility Cooling Setpoint Not Met Time [hr] !RunPeriod [Value,Min,Month,Day,Hour,Minute,Max,Month,Day,Hour,Minute]
1115,11,DX_HEATING_COIL,Heating Coil Heating Energy [J] !RunPeriod [Value,Min,Month,Day,Hour,Minute,Max,Month,Day,Hour,Minute]
1128,11,DX_HEATING_COIL,Heating Coil Electricity Energy [J] !RunPeriod [Value,Min,Month,Day,Hour,Minute,Max,Month,Day,Hour,Minute]
1153,11,DX_HEATING_COIL,Heating Coil Defrost Electricity Energy [J] !RunPeriod [Value,Min,Month,Day,Hour,Minute,Max,Month,Day,Hour,Minute]
1154,11,DX_HEATING_COIL,Heating Coil Crankcase Heater Electricity Energy [J] !RunPeriod [Value,Min,Month,Day,Hour,Minute,Max,Month,Day,Hour,Minute]
1155,11,HEATING_RESISTANCE_BACKUP,Heating Coil Heating Energy [J] !RunPeriod [Value,Min,Month,Day,Hour,Minute,Max,Month,Day,Hour,Minute]
1156,11,HEATING_RESISTANCE_BACKUP,Heating Coil Electricity Energy [J] !RunPeriod [Value,Min,Month,Day,Hour,Minute,Max,Month,Day,Hour,Minute]
1292,11,WATER HEATER,Water Heater Heat Loss Energy [J] !RunPeriod [Value,Min,Month,Day,Hour,Minute,Max,Month,Day,Hour,Minute]
1306,11,WATER HEATER,Water Heater Heating Energy [J] !RunPeriod [Value,Min,Month,Day,Hour,Minute,Max,Month,Day,Hour,Minute]
1307,11,WATER HEATER,Water Heater Unmet Demand Heat Transfer Energy [J] !RunPeriod [Value,Min,Month,Day,Hour,Minute,Max,Month,Day,Hour,Minute]
1308,11,WATER HEATER,Water Heater Electricity Energy [J] !RunPeriod [Value,Min,Month,Day,Hour,Minute,Max,Month,Day,Hour,Minute]
13,11,Electricity:Facility [J] !RunPeriod [Value,Min,Month,Day,Hour,Minute,Max,Month,Day,Hour,Minute]
1134,11,Heating:Electricity [J] !RunPeriod [Value,Min,Month,Day,Hour,Minute,Max,Month,Day,Hour,Minute]
1096,11,Cooling:Electricity [J] !RunPeriod [Value,Min,Month,Day,Hour,Minute,Max,Month,Day,Hour,Minute]
562,11,Fans:Electricity [J] !RunPeriod [Value,Min,Month,Day,Hour,Minute,Max,Month,Day,Hour,Minute]
1379,11,Pumps:Electricity [J] !RunPeriod [Value,Min,Month,Day,Hour,Minute,Max,Month,Day,Hour,Minute]
1326,11,WaterSystems:Electricity [J] !RunPeriod [Value,Min,Month,Day,Hour,Minute,Max,Month,Day,Hour,Minute]
61,11,InteriorLights:Electricity [J] !RunPeriod [Value,Min,Month,Day,Hour,Minute,Max,Month,Day,Hour,Minute]
1046,11,ExteriorLights:Electricity [J] !RunPeriod [Value,Min,Month,Day,Hour,Minute,Max,Month,Day,Hour,Minute]
134,11,InteriorEquipment:Electricity [J] !RunPeriod [Value,Min,Month,Day,Hour,Minute,Max,Month,Day,Hour,Minute]
170,11,gas_dryer:InteriorEquipment:Electricity [J] !RunPeriod [Value,Min,Month,Day,Hour,Minute,Max,Month,Day,Hour,Minute]
207,11,clotheswasher:InteriorEquipment:Electricity [J] !RunPeriod [Value,Min,Month,Day,Hour,Minute,Max,Month,Day,Hour,Minute]
244,11,dishwasher:InteriorEquipment:Electricity [J] !RunPeriod [Value,Min,Month,Day,Hour,Minute,Max,Month,Day,Hour,Minute]
281,11,refrigerator:InteriorEquipment:Electricity [J] !RunPeriod [Value,Min,Month,Day,Hour,Minute,Max,Month,Day,Hour,Minute]
318,11,electric_mels:InteriorEquipment:Electricity [J] !RunPeriod [Value,Min,Month,Day,Hour,Minute,Max,Month,Day,Hour,Minute]
355,11,NaturalGas:Facility [J] !RunPeriod [Value,Min,Month,Day,Hour,Minute,Max,Month,Day,Hour,Minute]
403,11,InteriorEquipment:NaturalGas [J] !RunPeriod [Value,Min,Month,Day,Hour,Minute,Max,Month,Day,Hour,Minute]
476,11,gas_dryer:InteriorEquipment:NaturalGas [J] !RunPeriod [Value,Min,Month,Day,Hour,Minute,Max,Month,Day,Hour,Minute]
513,11,gas_mels:InteriorEquipment:NaturalGas [J] !RunPeriod [Value,Min,Month,Day,Hour,Minute,Max,Month,Day,Hour,Minute]
End of Data Dictionary
1,EXTREME_WINTER,  32.90, -97.03,  -6.00, 170.70
5,7
1038,0.25,0.0,12,22, 1,15,0.25,12,25, 6,15
1039,0.0,0.0,12,22, 1,15,0.0,12,22, 1,15
581,0.34453315706558907,0.13155159330131597,12,28,24,15,0.7492912350591183,12,25,10,15
582,5.02955112553672,0.0,12,26,20, 5,11.689949294488907,12,25,10,60
583,0.02075870082941833,0.00023690670445329935,12,28,23,60,0.09794349062042189,12,25, 6, 5
1115,752033762.904376,0.0,12,22, 1,15,4760228.636010394,12,26, 6,45
1128,227918529.64056236,0.0,12,22, 1,15,1561312.084266692,12,26, 6,45
1153,7634392.123673942,0.0,12,22, 1,15,71761.13743778506,12,26, 6,45
1154,78292228.04318146,0.0,12,22, 1,50,180000.0,12,22, 1,15
1155,2051189.737052503,0.0,12,22, 1,15,1025594.8685262515,12,26, 6, 5
1156,2051189.737052503,0.0,12,22, 1,15,1025594.8685262515,12,26, 6, 5
1292,-25013866.816184267,-39738.05636250554,12,26, 5,30,-5364.921136001327,12,26,18,15
1306,195333903.80424348,0.0,12,22, 1,15,4050000.0,12,23,20,30
1307,24392476.567955177,0.0,12,22, 1,15,9149524.782178042,12,28,19,60
1308,195333903.80424348,0.0,12,22, 1,15,4050000.0,12,23,20,30
13,906368190.1072773,158004.1357532369,12,22, 2,15,5799363.498111116,12,25, 7,15
61,301924526.02383536,88139.10953165221,12,22, 1,15,1282023.4113694867,12,22,20,15
134,70666020.44019976,63564.01800854099,12,22, 4,15,156554.22484006523,12,27,20,15
170,5241013.419656067,348.4159749238097,12,22, 4,15,17476.39704006126,12,27,12,15
207,6509451.13922267,815.2532113832032,12,22, 3,15,22990.642799023623,12,27,10,15
244,12749673.399825225,1521.856143006317,12,22, 4,15,53038.631142310165,12,27,20,15
281,46165882.481495745,59938.60262432081,12,22, 5,15,81951.81706819107,12,22,19,15
318,0.0,0.0,12,22, 1,15,0.0,12,22, 1,15
355,197687796.27748066,18561.32405820678,12,22, 4,15,724774.895203776,12,27,18,15
403,197687796.27748066,18561.32405820678,12,22, 4,15,724774.895203776,12,27,18,15
476,106772067.24485716,7098.072629279515,12,22, 4,15,356036.3026282215,12,27,12,15
513,0.0,0.0,12,22, 1,15,0.0,12,22, 1,15
562,22258991.09796584,0.0,12,22, 1,15,162407.7244407904,12,26, 6,45
1046,0.0,0.0,12,22, 1,15,0.0,12,22, 1,15
1096,288409.19656302803,0.0,12,22, 1,15,75203.26438479658,12,26,17,30
1134,315896339.54447037,0.0,12,22, 1,60,2540282.193929504,12,26, 6,15
1326,195333903.80424353,0.0,12,22, 1,15,4050000.0,12,23,20,30
1379,0.0,0.0,12,22, 1,15,0.0,12,22, 1,15
1,EXTREME_SUMMER,  32.90, -97.03,  -6.00, 170.70
5,7
1038,0.0,0.0, 8, 3, 1,15,0.0, 8, 3, 1,15
1039,43.0,0.0, 8, 3, 1,15,0.25, 8, 3,14,60
581,0.2058003326546113,0.0, 8, 8,21,60,0.6772928027044353, 8, 4,18,52
582,4.452750036442266,0.20845326394228125, 8, 9, 9,47,11.514888963388934, 8, 4,18,48
583,0.061301243591165525,0.0, 8, 8,23, 3,0.09681750085873879, 8, 4,19,20
1115,0.0,0.0, 8, 3, 1,15,0.0, 8, 3, 1,15
1128,0.0,0.0, 8, 3, 1,15,0.0, 8, 3, 1,15
1153,0.0,0.0, 8, 3, 1,15,0.0, 8, 3, 1,15
1154,0.0,0.0, 8, 3, 1,15,0.0, 8, 3, 1,15
1155,0.0,0.0, 8, 3, 1,15,0.0, 8, 3, 1,15
1156,0.0,0.0, 8, 3, 1,15,0.0, 8, 3, 1,15
1292,-21866794.340294264,-34344.05273954377, 8, 6, 7,30,-2617.3663533336958, 8, 7,11,60
1306,131319302.42694204,0.0, 8, 3, 1,15,4018790.600745659, 8, 5, 7,60
1307,6365593.873571932,0.0, 8, 3, 1,15,2456382.7599114156, 8, 9,19,60
1308,131319302.42694204,0.0, 8, 3, 1,15,4018790.600745659, 8, 5, 7,60
13,1429068174.7137752,628660.3875937937, 8, 9, 4,60,7188120.1088546505, 8, 9,20,15
61,301924526.02383536,88139.10953165221, 8, 3, 1,15,1282023.4113694867, 8, 3,20,15
134,70666020.44019976,63564.01800854099, 8, 3, 4,15,156554.22484006523, 8, 8,20,15
170,5241013.419656067,348.4159749238097, 8, 3, 4,15,17476.39704006126, 8, 8,12,15
207,6509451.13922267,815.2532113832032, 8, 3, 3,15,22990.642799023623, 8, 8,10,15
244,12749673.399825225,1521.856143006317, 8, 3, 4,15,53038.631142310165, 8, 8,20,15
281,46165882.481495745,59938.60262432081, 8, 3, 5,15,81951.81706819107, 8, 3,19,15
318,0.0,0.0, 8, 3, 1,15,0.0, 8, 3, 1,15
355,197687796.27748066,18561.32405820678, 8, 3, 4,15,724774.895203776, 8, 8,18,15
403,197687796.27748066,18561.32405820678, 8, 3, 4,15,724774.895203776, 8, 8,18,15
476,106772067.24485716,7098.072629279515, 8, 3, 4,15,356036.3026282215, 8, 8,12,15
513,0.0,0.0, 8, 3, 1,15,0.0, 8, 3, 1,15
562,76325119.75797787,38904.59137940616, 8, 9, 5,60,166265.0861825164, 8, 3,14,30
1046,0.0,0.0, 8, 3, 1,15,0.0, 8, 3, 1,15
1096,848833206.0648205,375159.85440471006, 8, 4, 5,60,2124585.8076129565, 8, 3,15,60
1134,0.0,0.0, 8, 3, 1,15,0.0, 8, 3, 1,15
1326,131319302.42694202,0.0, 8, 3, 1,15,4050000.0, 8, 7, 6,60
1379,0.0,0.0, 8, 3, 1,15,0.0, 8, 3, 1,15
1,ANNUAL,  32.90, -97.03,  -6.00, 170.70
5,365
1038,0.75,0.0, 1, 1, 1,15,0.25, 1,22, 6,15
1039,530.5,0.0, 1, 1, 1,15,0.25, 1,23,16,30
581,0.294736782313814,0.0, 5,12,23, 3,1.1597557285709343, 3, 4, 2,48
582,5.255784857833231,0.0, 1, 3, 9,52,31.404441079428985, 3, 4, 2,33
583,0.03314113909697621,0.0, 8, 8,23, 3,0.10795539713190001, 5,28,12, 5
1115,4920185703.351241,0.0, 1, 1, 1,15,5006369.005163621, 1,10, 6,60
1128,1497770248.8492913,0.0, 1, 1, 1,15,1568980.6314497585, 1,10, 6,60
1153,49631124.38309559,0.0, 1, 1, 1,15,86814.31494314107, 1,17, 6,45
1154,1016606461.018533,0.0, 1, 1, 6, 5,180000.0, 1, 1, 1,15
1155,16880462.320062306,0.0, 1, 1, 1,15,1025594.8685262515, 1,10, 6, 5
1156,16880462.320062306,0.0, 1, 1, 1,15,1025594.8685262515, 1,10, 6, 5
1292,-1184274167.7794142,-39775.052471635536, 2,11, 5,60,-2351.156147434079, 6,14,14,44
1306,8674948759.75113,0.0, 1, 1, 1,15,4050000.0, 1, 1, 9,60
1307,808049638.9023285,0.0, 1, 1, 1,15,9481290.720418336, 1,29,19,60
1308,8674948759.75113,0.0, 1, 1, 1,15,4050000.0, 1, 1, 9,60
13,50445057788.20683,151703.1275401932, 1,25, 4,15,7619529.998568703, 8, 6,20,15
61,15743207428.383959,88139.10953165221, 1, 1, 1,15,1282023.4113694867, 1, 1,20,15
134,3685071073.4325233,63564.01800854099, 1, 2, 4,15,156554.22484006523, 1, 1,20,15
170,273393721.45532674,348.4159749238097, 1, 2, 4,15,17476.39704006126, 1, 1,12,15
207,339560869.0695816,815.2532113832032, 1, 2, 3,15,22990.642799023623, 1, 1,10,15
244,664895467.8009144,1521.856143006317, 1, 2, 4,15,53038.631142310165, 1, 1,20,15
281,2407221015.106824,59938.60262432081, 1, 1, 5,15,81951.81706819107, 1, 1,19,15
318,0.0,0.0, 1, 1, 1,15,0.0, 1, 1, 1,15
355,10310294493.051695,18561.32405820678, 1, 2, 4,15,724774.895203776, 1, 1,18,15
403,10310294493.051695,18561.32405820678, 1, 2, 4,15,724774.895203776, 1, 1,18,15
476,5569688622.066177,7098.072629279515, 1, 2, 4,15,356036.3026282215, 1, 1,12,15
513,0.0,0.0, 1, 1, 1,15,0.0, 1, 1, 1,15
562,1965913705.1404734,0.0, 1, 1, 1,15,166265.08618251642, 9,17,17,15
1046,0.0,0.0, 1, 1, 1,15,0.0, 1, 1, 1,15
1096,17795028524.926155,0.0, 1, 1, 1,15,2127254.3348229732, 8,10,17,60
1134,2580888296.570986,0.0, 1, 2,14,45,2490940.2931658993,12,26, 6,15
1326,8674948759.751116,0.0, 1, 1, 1,15,4050000.0, 1, 1, 9,60
1379,0.0,0.0, 1, 1, 1,15,0.0, 1, 1, 1,15
End of Data
 Number of Records Written=          99
