Program Version,EnergyPlus, Version 22.2.0-c249759bad, YMD=2023.09.01 15:39
1,5,Environment Title[],Latitude[deg],Longitude[deg],Time Zone[],Elevation[m]
2,8,Day of Simulation[],Month[],Day of Month[],DST Indicator[1=yes 0=no],Hour[],StartMinute[],EndMinute[],DayType
3,5,Cumulative Day of Simulation[],Month[],Day of Month[],DST Indicator[1=yes 0=no],DayType  ! When Daily Report Variables Requested
4,2,Cumulative Days of Simulation[],Month[]  ! When Monthly Report Variables Requested
5,1,Cumulative Days of Simulation[] ! When Run Period Report Variables Requested
6,1,Calendar Year of Simulation[] ! When Annual Report Variables Requested
581,11,LIVING,AFN Zone Infiltration Air Change Rate [ach] !RunPeriod [Value,Min,Month,Day,Hour,Minute,Max,Month,Day,Hour,Minute]
582,11,ATTIC,AFN Zone Infiltration Air Change Rate [ach] !RunPeriod [Value,Min,Month,Day,Hour,Minute,Max,Month,Day,Hour,Minute]
583,11,CRAWLSPACE,AFN Zone Infiltration Air Change Rate [ach] !RunPeriod [Value,Min,Month,Day,Hour,Minute,Max,Month,Day,Hour,Minute]
1038,11,Facility,Facility Heating Setpoint Not Met Time [hr] !RunPeriod [Value,Min,Month,Day,Hour,Minute,Max,Month,Day,Hour,Minute]
1039,11,Facility,Facility Cooling Setpoint Not Met Time [hr] !RunPeriod [Value,Min,Month,Day,Hour,Minute,Max,Month,Day,Hour,Minute]
1115,11,DX_HEATING_COIL,Heating Coil Heating Energy [J] !RunPeriod [Value,Min,Month,Day,Hour,Minute,Max,Month,Day,Hour,Minute]
1128,11,DX_HEATING_COIL,Heating Coil Electricity Energy [J] !RunPeriod [Value,Min,Month,Day,Hour,Minute,Max,Month,Day,Hour,Minute]
1153,11,DX_HEATING_COIL,Heating Coil Defrost Electricity Energy [J] !RunPeriod [Value,Min,Month,Day,Hour,Minute,Max,Month,Day,Hour,Minute]
1154,11,DX_HEATING_COIL,Heating Coil Crankcase Heater Electricity Energy [J] !RunPeriod [Value,Min,Month,Day,Hour,Minute,Max,Month,Day,Hour,Minute]
1155,11,HEATING_RESISTANCE_BACKUP,Heating Coil Heating Energy [J] !RunPeriod [Value,Min,Month,Day,Hour,Minute,Max,Month,Day,Hour,Minute]
1156,11,HEATING_RESISTANCE_BACKUP,Heating Coil Electricity Energy [J] !RunPeriod [Value,Min,Month,Day,Hour,Minute,Max,Month,Day,Hour,Minute]
1292,11,WATER HEATER,Water Heater Heat Loss Energy [J] !RunPeriod [Value,Min,Month,Day,Hour,Minute,Max,Month,Day,Hour,Minute]
1306,11,WATER HEATER,Water Heater Heating Energy [J] !RunPeriod [Value,Min,Month,Day,Hour,Minute,Max,Month,Day,Hour,Minute]
1307,11,WATER HEATER,Water Heater Unmet Demand Heat Transfer Energy [J] !RunPeriod [Value,Min,Month,Day,Hour,Minute,Max,Month,Day,Hour,Minute]
1308,11,WATER HEATER,Water Heater Electricity Energy [J] !RunPeriod [Value,Min,Month,Day,Hour,Minute,Max,Month,Day,Hour,Minute]
13,11,Electricity:Facility [J] !RunPeriod [Value,Min,Month,Day,Hour,Minute,Max,Month,Day,Hour,Minute]
1134,11,Heating:Electricity [J] !RunPeriod [Value,Min,Month,Day,Hour,Minute,Max,Month,Day,Hour,Minute]
1096,11,Cooling:Electricity [J] !RunPeriod [Value,Min,Month,Day,Hour,Minute,Max,Month,Day,Hour,Minute]
562,11,Fans:Electricity [J] !RunPeriod [Value,Min,Month,Day,Hour,Minute,Max,Month,Day,Hour,Minute]
1379,11,Pumps:Electricity [J] !RunPeriod [Value,Min,Month,Day,Hour,Minute,Max,Month,Day,Hour,Minute]
1326,11,WaterSystems:Electricity [J] !RunPeriod [Value,Min,Month,Day,Hour,Minute,Max,Month,Day,Hour,Minute]
61,11,InteriorLights:Electricity [J] !RunPeriod [Value,Min,Month,Day,Hour,Minute,Max,Month,Day,Hour,Minute]
1046,11,ExteriorLights:Electricity [J] !RunPeriod [Value,Min,Month,Day,Hour,Minute,Max,Month,Day,Hour,Minute]
134,11,InteriorEquipment:Electricity [J] !RunPeriod [Value,Min,Month,Day,Hour,Minute,Max,Month,Day,Hour,Minute]
170,11,gas_dryer:InteriorEquipment:Electricity [J] !RunPeriod [Value,Min,Month,Day,Hour,Minute,Max,Month,Day,Hour,Minute]
207,11,clotheswasher:InteriorEquipment:Electricity [J] !RunPeriod [Value,Min,Month,Day,Hour,Minute,Max,Month,Day,Hour,Minute]
244,11,dishwasher:InteriorEquipment:Electricity [J] !RunPeriod [Value,Min,Month,Day,Hour,Minute,Max,Month,Day,Hour,Minute]
281,11,refrigerator:InteriorEquipment:Electricity [J] !RunPeriod [Value,Min,Month,Day,Hour,Minute,Max,Month,Day,Hour,Minute]
318,11,electric_mels:InteriorEquipment:Electricity [J] !RunPeriod [Value,Min,Month,Day,Hour,Minute,Max,Month,Day,Hour,Minute]
355,11,NaturalGas:Facility [J] !RunPeriod [Value,Min,Month,Day,Hour,Minute,Max,Month,Day,Hour,Minute]
403,11,InteriorEquipment:NaturalGas [J] !RunPeriod [Value,Min,Month,Day,Hour,Minute,Max,Month,Day,Hour,Minute]
476,11,gas_dryer:InteriorEquipment:NaturalGas [J] !RunPeriod [Value,Min,Month,Day,Hour,Minute,Max,Month,Day,Hour,Minute]
513,11,gas_mels:InteriorEquipment:NaturalGas [J] !RunPeriod [Value,Min,Month,Day,Hour,Minute,Max,Month,Day,Hour,Minute]
End of Data Dictionary
1,EXTREME_WINTER,  41.53, -93.65,  -6.00, 294.00
5,7
1038,9.25,0.0,12,15, 1,15,0.25,12,16, 6,15
1039,0.0,0.0,12,15, 1,15,0.0,12,15, 1,15
581,0.5259464752184568,0.22355630959046335,12,21,14,55,0.9080984664209297,12,15,14,60
582,6.014961076205606,0.5099761017958322,12,16,10,51,17.54429071995915,12,15,14,52
583,0.07518021203123111,0.0016188231001737624,12,21,15, 7,0.09145688961619595,12,18,24,52
1115,2170117032.0555305,0.0,12,15,23, 5,4399950.2395070465,12,21, 4,60
1128,809669253.9674644,0.0,12,15,23, 5,1411348.0492664617,12,21, 6,30
1153,6747119.663359003,0.0,12,15,23, 5,65208.53314552837,12,17,21,60
1154,10115225.818273991,0.0,12,15, 1,15,180000.0,12,21,15,45
1155,1530950899.3464208,0.0,12,15,11,22,7489025.275383493,12,19, 1,15
1156,1530950899.3464208,0.0,12,15,11,22,7489025.275383493,12,19, 1,15
1292,-25445384.646732554,-40715.424218322565,12,19, 5,15,-4579.544848535932,12,19,11,45
1306,232604998.17907068,0.0,12,15, 1,15,10369899.106665792,12,21, 9,45
1307,6086803.658579579,0.0,12,15, 1,15,5659971.394205903,12,21,19,60
1308,232604998.17907068,0.0,12,15, 1,15,10369899.106665792,12,21, 9,45
13,3051335084.3962555,458150.8545527997,12,21,15,15,16650036.043121163,12,19, 6,60
61,301924526.02383536,88139.10953165221,12,15, 1,15,1282023.4113694867,12,15,20,15
134,70666020.44019976,63564.01800854099,12,15, 4,15,156554.22484006523,12,20,20,15
170,5241013.419656067,348.4159749238097,12,15, 4,15,17476.39704006126,12,20,12,15
207,6509451.13922267,815.2532113832032,12,15, 3,15,22990.642799023623,12,20,10,15
244,12749673.399825225,1521.856143006317,12,15, 4,15,53038.631142310165,12,20,20,15
281,46165882.481495745,59938.60262432081,12,15, 5,15,81951.81706819107,12,15,19,15
318,0.0,0.0,12,15, 1,15,0.0,12,15, 1,15
355,197687796.27748066,18561.32405820678,12,15, 4,15,724774.895203776,12,20,18,15
403,197687796.27748066,18561.32405820678,12,15, 4,15,724774.895203776,12,20,18,15
476,106772067.24485716,7098.072629279515,12,15, 4,15,356036.3026282215,12,20,12,15
513,0.0,0.0,12,15, 1,15,0.0,12,15, 1,15
562,88657040.95763454,0.0,12,21,14,60,144020.77318804062,12,15, 1,15
1046,0.0,0.0,12,15, 1,15,0.0,12,15, 1,15
1096,0.0,0.0,12,15, 1,15,0.0,12,15, 1,15
1134,2357482498.7955174,180000.0,12,21,14,60,8681873.556860168,12,18,24,60
1326,232604998.17907062,0.0,12,15, 1,15,10369899.106665792,12,21, 9,45
1379,0.0,0.0,12,15, 1,15,0.0,12,15, 1,15
1,EXTREME_SUMMER,  41.53, -93.65,  -6.00, 294.00
5,7
1038,0.0,0.0, 7,13, 1,15,0.0, 7,13, 1,15
1039,34.75,0.0, 7,13, 1,15,0.25, 7,13,12,45
581,0.1504761055840657,0.0014471727951539833, 7,17, 1,60,0.567890119065988, 7,18, 2,52
582,3.9683151687318445,0.11402492953401515, 7,18, 6, 3,13.561329781789933, 7,18, 2,30
583,0.04363914897363613,0.0006172931786719336, 7,18,23, 3,0.07698803558239736, 7,16, 6, 3
1115,0.0,0.0, 7,13, 1,15,0.0, 7,13, 1,15
1128,0.0,0.0, 7,13, 1,15,0.0, 7,13, 1,15
1153,0.0,0.0, 7,13, 1,15,0.0, 7,13, 1,15
1154,0.0,0.0, 7,13, 1,15,0.0, 7,13, 1,15
1155,0.0,0.0, 7,13, 1,15,0.0, 7,13, 1,15
1156,0.0,0.0, 7,13, 1,15,0.0, 7,13, 1,15
1292,-21897185.603182834,-34337.829032204245, 7,19, 7,30,-4626.041498121032, 7,17,10,60
1306,178658484.86992568,0.0, 7,13, 1,15,7886936.1234994335, 7,19, 9,45
1307,1800981.7088997972,0.0, 7,13, 1,15,450440.36045697914, 7,19,19,48
1308,178658484.86992568,0.0, 7,13, 1,15,7886936.1234994335, 7,19, 9,45
13,1164581625.219854,207407.50199965373, 7,16, 4,60,13375025.924446419, 7,19,19,60
61,301924526.02383536,88139.10953165221, 7,13, 1,15,1282023.4113694867, 7,13,20,15
134,70666020.44019976,63564.01800854099, 7,13, 4,15,156554.22484006523, 7,18,20,15
170,5241013.419656067,348.4159749238097, 7,13, 4,15,17476.39704006126, 7,18,12,15
207,6509451.13922267,815.2532113832032, 7,13, 3,15,22990.642799023623, 7,18,10,15
244,12749673.399825225,1521.856143006317, 7,13, 4,15,53038.631142310165, 7,18,20,15
281,46165882.481495745,59938.60262432081, 7,13, 5,15,81951.81706819107, 7,13,19,15
318,0.0,0.0, 7,13, 1,15,0.0, 7,13, 1,15
355,197687796.27748066,18561.32405820678, 7,13, 4,15,724774.895203776, 7,18,18,15
403,197687796.27748066,18561.32405820678, 7,13, 4,15,724774.895203776, 7,18,18,15
476,106772067.24485716,7098.072629279515, 7,13, 4,15,356036.3026282215, 7,18,12,15
513,0.0,0.0, 7,13, 1,15,0.0, 7,13, 1,15
562,56752536.29231956,5786.700609546189, 7,16, 4,60,144020.77318804062, 7,13,11,45
1046,0.0,0.0, 7,13, 1,15,0.0, 7,13, 1,15
1096,556580057.5935739,49917.67384991433, 7,16, 4,60,1613121.930550621, 7,13,14,60
1134,0.0,0.0, 7,13, 1,15,0.0, 7,13, 1,15
1326,178658484.8699256,0.0, 7,13, 1,15,10540800.0, 7,19,19,60
1379,0.0,0.0, 7,13, 1,15,0.0, 7,13, 1,15
1,ANNUAL,  41.53, -93.65,  -6.00, 294.00
5,365
1038,27.25,0.0, 1, 1, 1,15,0.25, 1, 8, 6,15
1039,261.75,0.0, 1, 1, 1,15,0.25, 2,17,14,60
581,0.3004778584494667,0.0, 6, 9,23, 3,1.3926196726394904,10,27,10,60
582,4.868804130342069,0.0, 1,28,24,15,37.02191414306354,10,27,10,60
583,0.033638531069778835,0.0, 6,18,23, 3,0.09610443714993737, 1, 9,18,60
1115,31487077460.194633,0.0, 1, 1,15,30,4881845.019556293,12,30, 6,60
1128,10486657820.624714,0.0, 1, 1,15,30,1444994.3531162322,11,24, 6,45
1153,311122413.2949104,0.0, 1, 1,15,30,139831.14450195758,12,26, 9,60
1154,1527477256.874678,0.0, 1, 1, 3,45,180000.0, 1, 1,15,30
1155,9056212984.531136,0.0, 1, 1, 1,15,7489025.275383493, 1,10, 6,15
1156,9056212984.531136,0.0, 1, 1, 1,15,7489025.275383493, 1,10, 6,15
1292,-1231987536.7681594,-41082.261333227325,12,19, 5,30,-2486.2356739316933, 5,22,12,59
1306,11072876968.913864,0.0, 1, 1, 1,15,10540800.0, 4,23,19,60
1307,228217598.7670564,0.0, 1, 1, 1,15,6381119.209569974, 2,19,19,60
1308,11072876968.913864,0.0, 1, 1, 1,15,10540800.0, 4,23,19,60
13,62928297718.868195,151703.1275401932, 3,31, 4,15,17549631.19299459, 2, 8, 7,60
61,15743207428.383959,88139.10953165221, 1, 1, 1,15,1282023.4113694867, 1, 1,20,15
134,3685071073.4325233,63564.01800854099, 1, 2, 4,15,156554.22484006523, 1, 1,20,15
170,273393721.45532674,348.4159749238097, 1, 2, 4,15,17476.39704006126, 1, 1,12,15
207,339560869.0695816,815.2532113832032, 1, 2, 3,15,22990.642799023623, 1, 1,10,15
244,664895467.8009144,1521.856143006317, 1, 2, 4,15,53038.631142310165, 1, 1,20,15
281,2407221015.106824,59938.60262432081, 1, 1, 5,15,81951.81706819107, 1, 1,19,15
318,0.0,0.0, 1, 1, 1,15,0.0, 1, 1, 1,15
355,10310294493.051695,18561.32405820678, 1, 2, 4,15,724774.895203776, 1, 1,18,15
403,10310294493.051695,18561.32405820678, 1, 2, 4,15,724774.895203776, 1, 1,18,15
476,5569688622.066177,7098.072629279515, 1, 2, 4,15,356036.3026282215, 1, 1,12,15
513,0.0,0.0, 1, 1, 1,15,0.0, 1, 1, 1,15
562,2108755572.452527,0.0, 1, 1,15,30,144020.77318804062, 1, 1, 3,45
1046,0.0,0.0, 1, 1, 1,15,0.0, 1, 1, 1,15
1096,8936916200.358696,0.0, 1, 1, 1,15,1617250.8687264035, 8, 9,15,60
1134,21381470475.32549,0.0, 2,13,14,60,8761512.021190338, 1,12, 6,15
1326,11072876968.913864,0.0, 1, 1, 1,15,10540800.0, 4,23,19,60
1379,0.0,0.0, 1, 1, 1,15,0.0, 1, 1, 1,15
End of Data
 Number of Records Written=          99
