Program Version,EnergyPlus, Version 22.2.0-c249759bad, YMD=2023.09.01 14:32
1,5,Environment Title[],Latitude[deg],Longitude[deg],Time Zone[],Elevation[m]
2,8,Day of Simulation[],Month[],Day of Month[],DST Indicator[1=yes 0=no],Hour[],StartMinute[],EndMinute[],DayType
3,5,Cumulative Day of Simulation[],Month[],Day of Month[],DST Indicator[1=yes 0=no],DayType  ! When Daily Report Variables Requested
4,2,Cumulative Days of Simulation[],Month[]  ! When Monthly Report Variables Requested
5,1,Cumulative Days of Simulation[] ! When Run Period Report Variables Requested
6,1,Calendar Year of Simulation[] ! When Annual Report Variables Requested
7,1,Environment,Site Outdoor Air Drybulb Temperature [C] !Hourly
545,1,LIVING,Zone Mean Air Temperature [C] !Hourly
546,1,ATTIC,Zone Mean Air Temperature [C] !Hourly
547,1,CRAWLSPACE,Zone Mean Air Temperature [C] !Hourly
548,1,FAN,Fan Electricity Rate [W] !Hourly
720,1,LIVING,Zone Predicted Sensible Load to Heating Setpoint Heat Transfer Rate [W] !Hourly
721,1,LIVING,Zone System Predicted Sensible Load to Heating Setpoint Heat Transfer Rate [W] !Hourly
784,1,ATTIC,Zone Predicted Sensible Load to Heating Setpoint Heat Transfer Rate [W] !Hourly
785,1,ATTIC,Zone System Predicted Sensible Load to Heating Setpoint Heat Transfer Rate [W] !Hourly
848,1,CRAWLSPACE,Zone Predicted Sensible Load to Heating Setpoint Heat Transfer Rate [W] !Hourly
849,1,CRAWLSPACE,Zone System Predicted Sensible Load to Heating Setpoint Heat Transfer Rate [W] !Hourly
1121,1,DX_HEATING_COIL,Heating Coil Heating Rate [W] !Hourly
1135,1,DX_HEATING_COIL,Heating Coil Electricity Rate [W] !Hourly
1161,1,DX_HEATING_COIL,Heating Coil Defrost Electricity Rate [W] !Hourly
1163,1,DX_HEATING_COIL,Heating Coil Crankcase Heater Electricity Rate [W] !Hourly
1166,1,HEATING_RESISTANCE_BACKUP,Heating Coil Heating Rate [W] !Hourly
1168,1,HEATING_RESISTANCE_BACKUP,Heating Coil Electricity Rate [W] !Hourly
End of Data Dictionary
1,EXTREME_WINTER,  45.60,-122.61,  -8.00,  12.00
2,1,12,22, 0, 1, 0.00,60.00,Monday
7,5.0
545,18.911625325544378
546,5.66537626696813
547,19.294128956522318
548,49.93377455326375
720,1351.528974168361
721,1351.528974168361
784,0.0
785,0.0
848,0.0
849,0.0
1121,1678.4748489649835
1135,493.295319107413
1161,27.88666671720728
1163,136.98913659256127
1166,0.0
1168,0.0
2,1,12,22, 0, 2, 0.00,60.00,Monday
7,5.0
545,18.600361311466774
546,5.799196199111863
547,19.0289632363462
548,47.024935197226725
720,1230.145680274707
721,1230.145680274707
784,0.0
785,0.0
848,0.0
849,0.0
1121,1572.3890682631709
1135,471.0337040160607
1161,26.250126224539997
1163,140.65941000094912
1166,0.0
1168,0.0
2,1,12,22, 0, 3, 0.00,60.00,Monday
7,5.0
545,18.59501271308944
546,5.9073017296186805
547,18.850234255945548
548,54.154340496536875
720,1425.2889019131508
721,1425.2889019131508
784,0.0
785,0.0
848,0.0
849,0.0
1121,1803.9713840051195
1135,533.7083433269727
1161,34.008751581514204
1163,131.64236743742822
1166,0.0
1168,0.0
2,1,12,22, 0, 4, 0.00,60.00,Monday
7,3.9
545,18.43175864590153
546,5.293889090098727
547,18.671130274189995
548,67.77205479162508
720,1691.212232788046
721,1691.212232788046
784,0.0
785,0.0
848,0.0
849,0.0
1121,2141.8418654372344
1135,639.888435891582
1161,58.09065745232345
1163,114.20143686220581
1166,0.0
1168,0.0
2,1,12,22, 0, 5, 0.00,60.00,Monday
7,3.9
545,18.551635358397508
546,5.258500016787171
547,18.51760910914479
548,76.20447222373868
720,1901.8837118700449
721,1901.8837118700449
784,0.0
785,0.0
848,0.0
849,0.0
1121,2425.170897867076
1135,717.1109400417821
1161,65.31820514377597
1163,103.5265153837314
1166,0.0
1168,0.0
2,1,12,22, 0, 6, 0.00,60.00,Monday
7,3.9
545,19.434531755661943
546,5.76027075499556
547,18.36240801730003
548,106.32254735453894
720,2731.7397804781704
721,2731.7397804781704
784,0.0
785,0.0
848,0.0
849,0.0
1121,3458.6021222830022
1135,1002.6177273281725
1161,91.13397520674431
1163,65.39721757855092
1166,0.0
1168,0.0
2,1,12,22, 0, 7, 0.00,60.00,Monday
7,4.4
545,19.675325334712728
546,5.977432269330594
547,18.271602470974983
548,95.92914783445592
720,2406.238567800836
721,2406.238567800836
784,0.0
785,0.0
848,0.0
849,0.0
1121,3140.772790499293
1135,928.6674023928165
1161,78.75402225116734
1163,78.68547144729143
1166,0.0
1168,0.0
2,1,12,22, 0, 8, 0.00,60.00,Monday
7,3.9
545,19.646792619276724
546,5.3935145866306735
547,18.149961443258213
548,93.5577412155077
720,2285.3186310068377
721,2285.3186310068377
784,0.0
785,0.0
848,0.0
849,0.0
1121,2999.3278100452167
1135,901.6118083028836
1161,80.13770454264004
1163,81.55448352735044
1166,0.0
1168,0.0
2,1,12,22, 0, 9, 0.00,60.00,Monday
7,4.4
545,19.8507554170625
546,5.9186289881981855
547,18.04957679340677
548,80.54761907168933
720,1940.6648930682186
721,1940.6648930682186
784,0.0
785,0.0
848,0.0
849,0.0
1121,2580.32061942127
1135,775.7782736345589
1161,71.09927270198177
1163,98.09898542029654
1166,0.0
1168,0.0
2,1,12,22, 0,10, 0.00,60.00,Monday
7,4.4
545,19.810151262033813
546,6.789030192860186
547,17.95719846656677
548,50.54331387998634
720,1147.236344196468
721,1147.236344196468
784,0.0
785,0.0
848,0.0
849,0.0
1121,1582.7240004400394
1135,488.7767478444441
1161,44.59097986937669
1163,136.05741010961893
1166,0.0
1168,0.0
2,1,12,22, 0,11, 0.00,60.00,Monday
7,4.4
545,19.770400254348584
546,7.120141413510762
547,17.8697052572748
548,42.489026757780444
720,991.3175175930119
721,991.3175175930119
784,0.0
785,0.0
848,0.0
849,0.0
1121,1323.0879912350638
1135,410.54615432014356
1161,37.48518671009169
1163,146.24697802584393
1166,0.0
1168,0.0
2,1,12,22, 0,12, 0.00,60.00,Monday
7,5.0
545,19.84677827586037
546,8.03291210431686
547,17.802334713498947
548,27.391293221405007
720,628.7630222982862
721,628.7630222982862
784,0.0
785,0.0
848,0.0
849,0.0
1121,850.1654413714135
1135,263.6720236878076
1161,25.57137495296538
1163,165.37556600770932
1166,0.0
1168,0.0
2,1,12,22, 0,13, 0.00,60.00,Monday
7,6.0
545,19.889884858041334
546,8.801335683429256
547,17.74827373998631
548,16.180731697795967
720,517.0726690401625
721,517.0726690401625
784,0.0
785,0.0
848,0.0
849,0.0
1121,669.1521777387577
1135,188.54607591721398
1161,0.0
1163,179.62699776642162
1166,0.0
1168,0.0
2,1,12,22, 0,14, 0.00,60.00,Monday
7,5.6
545,19.765532143838055
546,8.06787095020595
547,17.700517624162174
548,21.46404337442545
720,711.6502027198476
721,711.6502027198476
784,0.0
785,0.0
848,0.0
849,0.0
1121,881.7782277107691
1135,249.27037423943372
1161,0.0
1163,172.9748313131997
1166,0.0
1168,0.0
2,1,12,22, 0,15, 0.00,60.00,Monday
7,6.1
545,19.777791947807156
546,8.319570774230742
547,17.653906739091955
548,10.761511884233089
720,339.5428678438566
721,339.5428678438566
784,0.0
785,0.0
848,0.0
849,0.0
1121,444.64950596915634
1135,125.32699604838528
1161,0.0
1163,186.45028483575777
1166,0.0
1168,0.0
2,1,12,22, 0,16, 0.00,60.00,Monday
7,5.6
545,19.764108522304316
546,8.046650035918711
547,17.611213541920012
548,0.0
720,-37.88941649308072
721,-37.88941649308072
784,0.0
785,0.0
848,0.0
849,0.0
1121,0.0
1135,0.0
1161,0.0
1163,200.0
1166,0.0
1168,0.0
2,1,12,22, 0,17, 0.00,60.00,Monday
7,5.6
545,19.71940932322523
546,7.124178000065519
547,17.57647437342632
548,9.93563399760466
720,319.0030598096091
721,319.0030598096091
784,0.0
785,0.0
848,0.0
849,0.0
1121,405.1259502330303
1135,115.10127167458388
1161,0.0
1163,187.49013966699732
1166,0.0
1168,0.0
2,1,12,22, 0,18, 0.00,60.00,Monday
7,5.0
545,19.12875923484302
546,6.103438384474637
547,17.536095564747793
548,15.61608715738148
720,378.6730008836166
721,378.6730008836166
784,0.0
785,0.0
848,0.0
849,0.0
1121,482.31098031396357
1135,150.59483650620814
1161,14.266070090319277
1163,180.26213324292718
1166,0.0
1168,0.0
2,1,12,22, 0,19, 0.00,60.00,Monday
7,4.4
545,19.883864274687905
546,5.491370291086185
547,17.485254551563983
548,33.28298052109413
720,826.9331963522709
721,826.9331963522709
784,0.0
785,0.0
848,0.0
849,0.0
1121,1033.1267940597238
1135,317.3552578463167
1161,29.316086536103636
1163,157.89457615282538
1166,0.0
1168,0.0
2,1,12,22, 0,20, 0.00,60.00,Monday
7,3.9
545,19.555838299409046
546,4.925617498561737
547,17.4363713944443
548,22.45665227386122
720,500.67271751339104
721,500.67271751339104
784,0.0
785,0.0
848,0.0
849,0.0
1121,677.1086985182676
1135,215.38095485529314
1161,20.527163545337572
1163,171.55754467705856
1166,0.0
1168,0.0
2,1,12,22, 0,21, 0.00,60.00,Monday
7,3.9
545,19.979340293989136
546,4.924255953980436
547,17.371860511367075
548,28.850273024521815
720,669.5471482740513
721,669.5471482740513
784,0.0
785,0.0
848,0.0
849,0.0
1121,875.202971268218
1135,274.9353303186174
1161,26.366552651052572
1163,163.460081713166
1166,0.0
1168,0.0
2,1,12,22, 0,22, 0.00,60.00,Monday
7,3.9
545,19.504904288543358
546,4.8469196389365
547,17.307317665117314
548,27.876696941670716
720,638.9322603772089
721,638.9322603772089
784,0.0
785,0.0
848,0.0
849,0.0
1121,851.3002871132276
1135,270.2106015522447
1161,23.795657995227767
1163,164.70818349499172
1166,0.0
1168,0.0
2,1,12,22, 0,23, 0.00,60.00,Monday
7,3.9
545,18.72905001660862
546,4.721875365673203
547,17.231324504509942
548,20.458172177956083
720,456.9739902600877
721,456.9739902600877
784,0.0
785,0.0
848,0.0
849,0.0
1121,622.8462207601639
1135,196.4825634041286
1161,17.462966989231038
1163,174.10032423812117
1166,0.0
1168,0.0
2,1,12,22, 0,24, 0.00,60.00,Monday
7,4.4
545,18.18168574201229
546,5.147562768609084
547,17.144415055052278
548,35.430699203957786
720,874.0625566723684
721,874.0625566723684
784,0.0
785,0.0
848,0.0
849,0.0
1121,1114.2985627657538
1135,338.2995215579007
1161,28.96506774517462
1163,155.19497892009966
1166,0.0
1168,0.0
2,2,12,23, 0, 1, 0.00,60.00,Tuesday
7,4.0
545,18.728633228884696
546,5.083631446640261
547,17.051923606028197
548,58.5577373963218
720,1462.9980896849665
721,1462.9980896849665
784,0.0
785,0.0
848,0.0
849,0.0
1121,1841.0641197947461
1135,546.5429222223115
1161,51.41539151931486
1163,125.86985577026857
1166,0.0
1168,0.0
2,2,12,23, 0, 2, 0.00,60.00,Tuesday
7,4.4
545,18.626209775610032
546,5.452631422238825
547,16.98177734494914
548,61.64043927884529
720,1531.0803799326332
721,1531.0803799326332
784,0.0
785,0.0
848,0.0
849,0.0
1121,1975.934979904556
1135,588.4720419358018
1161,50.33348911641408
1163,122.05107730000555
1166,0.0
1168,0.0
2,2,12,23, 0, 3, 0.00,60.00,Tuesday
7,4.4
545,18.36362854031423
546,5.459352531732585
547,16.88943118241715
548,72.70753825386933
720,1830.4882071202592
721,1830.4882071202592
784,0.0
785,0.0
848,0.0
849,0.0
1121,2350.7936868923684
1135,692.7002172806207
1161,59.359801677506866
1163,108.0561809770386
1166,0.0
1168,0.0
2,2,12,23, 0, 4, 0.00,60.00,Tuesday
7,5.0
545,18.665147154971248
546,5.932977801679674
547,16.807457903649723
548,79.74960046443906
720,2099.6504487660222
721,2099.6504487660222
784,0.0
785,0.0
848,0.0
849,0.0
1121,2684.7621539006186
1135,773.76441613501
1161,55.18510185207323
1163,99.3060594222476
1166,0.0
1168,0.0
2,2,12,23, 0, 5, 0.00,60.00,Tuesday
7,5.0
545,18.62670084957743
546,5.980322533867858
547,16.736923127717823
548,75.52611859104903
720,1958.2498404426133
721,1958.2498404426133
784,0.0
785,0.0
848,0.0
849,0.0
1121,2531.3719152974118
1135,736.9437629571948
1161,52.262731252840005
1163,104.6383864741058
1166,0.0
1168,0.0
2,2,12,23, 0, 6, 0.00,60.00,Tuesday
7,5.0
545,19.38448785548845
546,6.239970093950867
547,16.657668577784566
548,105.50388267053276
720,2854.977550265734
721,2854.977550265734
784,0.0
785,0.0
848,0.0
849,0.0
1121,3616.304834644515
1135,1028.4865961753696
1161,73.01337889602505
1163,66.78757782955664
1166,0.0
1168,0.0
2,2,12,23, 0, 7, 0.00,60.00,Tuesday
7,5.6
545,19.768618532077728
546,6.623023945744369
547,16.611516991401796
548,73.94077697831354
720,2463.1406383290214
721,2463.1406383290214
784,0.0
785,0.0
848,0.0
849,0.0
1121,3161.975297488659
1135,849.431665219118
1161,0.0
1163,106.90188536177929
1166,0.0
1168,0.0
2,2,12,23, 0, 8, 0.00,60.00,Tuesday
7,5.0
545,19.487129761064814
546,6.286708973991071
547,16.55106925735807
548,90.76287655848695
720,2348.7860453565245
721,2348.7860453565245
784,0.0
785,0.0
848,0.0
849,0.0
1121,3061.7919083557235
1135,904.2947904991092
1161,62.745218166461285
1163,85.39876763675065
1166,0.0
1168,0.0
2,2,12,23, 0, 9, 0.00,60.00,Tuesday
7,6.0
545,19.870687726973838
546,6.992367648693957
547,16.482055861714777
548,70.16239663753616
720,2358.926138455461
721,2358.926138455461
784,0.0
785,0.0
848,0.0
849,0.0
1121,3021.340053337808
1135,810.8871221976309
1161,0.0
1163,111.65920737660828
1166,0.0
1168,0.0
2,2,12,23, 0,10, 0.00,60.00,Tuesday
7,6.0
545,19.66203729120846
546,7.027229117136473
547,16.429343057496393
548,64.54957872653719
720,2155.7936975230477
721,2155.7936975230477
784,0.0
785,0.0
848,0.0
849,0.0
1121,2763.6878066304275
1135,751.4073254836164
1161,0.0
1163,118.72625193139974
1166,0.0
1168,0.0
2,2,12,23, 0,11, 0.00,60.00,Tuesday
7,5.6
545,19.69286750765853
546,6.9415433968006575
547,16.36670408112617
548,65.26562278554982
720,2176.2988006032574
721,2176.2988006032574
784,0.0
785,0.0
848,0.0
849,0.0
1121,2770.146868139157
1135,753.5854989244585
1161,0.0
1163,117.82468780648495
1166,0.0
1168,0.0
2,2,12,23, 0,12, 0.00,60.00,Tuesday
7,6.1
545,19.836836467014216
546,7.4248784829226215
547,16.317667747040954
548,60.87828731823418
720,2044.7645431107558
721,2044.7645431107558
784,0.0
785,0.0
848,0.0
849,0.0
1121,2608.267880435064
1135,706.9683741968119
1161,0.0
1163,123.34873931073514
1166,0.0
1168,0.0
2,2,12,23, 0,13, 0.00,60.00,Tuesday
7,6.1
545,19.740757409092595
546,7.60601532094885
547,16.267897508968122
548,54.18526079702027
720,1806.0828615110368
721,1806.0828615110368
784,0.0
785,0.0
848,0.0
849,0.0
1121,2308.8739081294257
1135,630.9502340837867
1161,0.0
1163,131.7758640423481
1166,0.0
1168,0.0
2,2,12,23, 0,14, 0.00,60.00,Tuesday
7,6.1
545,19.84078653946382
546,7.917643617015506
547,16.219733650449108
548,46.87525014816954
720,1555.9418566190361
721,1555.9418566190361
784,0.0
785,0.0
848,0.0
849,0.0
1121,1987.7830195456659
1135,544.8365162140781
1161,0.0
1163,140.97982750073754
1166,0.0
1168,0.0
2,2,12,23, 0,15, 0.00,60.00,Tuesday
7,6.7
545,19.68579107773475
546,8.199696829942166
547,16.181374946772795
548,41.13281204934723
720,1384.3886305095766
721,1384.3886305095766
784,0.0
785,0.0
848,0.0
849,0.0
1121,1762.845054735489
1135,482.0228646423607
1161,0.0
1163,148.2100755759484
1166,0.0
1168,0.0
2,2,12,23, 0,16, 0.00,60.00,Tuesday
7,6.1
545,19.794604510441737
546,7.655197915590787
547,16.14780531000016
548,44.35060262716652
720,1494.2990633300797
721,1494.2990633300797
784,0.0
785,0.0
848,0.0
849,0.0
1121,1877.817141122612
1135,514.9198585733527
1161,0.0
1163,144.15858669068186
1166,0.0
1168,0.0
2,2,12,23, 0,17, 0.00,60.00,Tuesday
7,6.1
545,19.74036013357147
546,7.290209779431191
547,16.1159214851629
548,40.17919158888143
720,1334.3353664972292
721,1334.3353664972292
784,0.0
785,0.0
848,0.0
849,0.0
1121,1695.3360315729835
1135,467.44283370293937
1161,0.0
1163,149.41076984206134
1166,0.0
1168,0.0
2,2,12,23, 0,18, 0.00,60.00,Tuesday
7,5.6
545,19.438298773538044
546,6.686227380688427
547,16.078158252302305
548,38.636500175840325
720,1262.3485423508264
721,1262.3485423508264
784,0.0
785,0.0
848,0.0
849,0.0
1121,1608.3272512079245
1135,446.701938882293
1161,0.0
1163,151.35315762715078
1166,0.0
1168,0.0
2,2,12,23, 0,19, 0.00,60.00,Tuesday
7,5.6
545,19.67586918202633
546,6.601085117493763
547,16.04234504665983
548,42.36236128986338
720,1398.2751762583976
721,1398.2751762583976
784,0.0
785,0.0
848,0.0
849,0.0
1121,1770.5030639200193
1135,486.95573153589913
1161,0.0
1163,146.6619620609865
1166,0.0
1168,0.0
2,2,12,23, 0,20, 0.00,60.00,Tuesday
7,5.6
545,19.890171092141458
546,6.4917957920335905
547,16.008338817117387
548,38.67775698804869
720,1256.752753984285
721,1256.752753984285
784,0.0
785,0.0
848,0.0
849,0.0
1121,1610.577478694025
1135,446.60314864683806
1161,0.0
1163,151.30121157533003
1166,0.0
1168,0.0
2,2,12,23, 0,21, 0.00,60.00,Tuesday
7,5.0
545,19.610819386078777
546,6.091392147976225
547,15.972419591428068
548,43.479631740477046
720,1101.8802305385907
721,1101.8802305385907
784,0.0
785,0.0
848,0.0
849,0.0
1121,1445.6374737857395
1135,442.7537076721893
1161,24.09213934174596
1163,145.13373509730386
1166,0.0
1168,0.0
2,2,12,23, 0,22, 0.00,60.00,Tuesday
7,5.0
545,19.590552535095956
546,6.0328107969850375
547,15.93254671326748
548,54.47863116722656
720,1414.5881145325438
721,1414.5881145325438
784,0.0
785,0.0
848,0.0
849,0.0
1121,1828.059021815686
1135,551.7549913447949
1161,30.183830391687593
1163,131.25448000084376
1166,0.0
1168,0.0
2,2,12,23, 0,23, 0.00,60.00,Tuesday
7,5.0
545,18.784048608520546
546,5.829663700779181
547,15.877723689917056
548,36.60502947853835
720,899.0366556953886
721,899.0366556953886
784,0.0
785,0.0
848,0.0
849,0.0
1121,1212.764245952059
1135,370.6059430891462
1161,20.280975885881066
1163,153.80883687481887
1166,0.0
1168,0.0
2,2,12,23, 0,24, 0.00,60.00,Tuesday
7,5.0
545,18.713332493292256
546,5.885743368040135
547,15.825033474613463
548,47.58768039842378
720,1228.13771424298
721,1228.13771424298
784,0.0
785,0.0
848,0.0
849,0.0
1121,1578.3807130733505
1135,469.6648467831135
1161,29.693795316615887
1163,139.93232029166614
1166,0.0
1168,0.0
2,3,12,24, 0, 1, 0.00,60.00,Wednesday
7,5.0
545,18.61174286662992
546,5.90812186893936
547,15.775290872783884
548,58.42633677950193
720,1545.2389137486916
721,1545.2389137486916
784,0.0
785,0.0
848,0.0
849,0.0
1121,1973.9942827847149
1135,581.6094963925192
1161,32.38572108306956
1163,126.27352252907818
1166,0.0
1168,0.0
2,3,12,24, 0, 2, 0.00,60.00,Wednesday
7,6.0
545,18.663667935944996
546,6.6619810366567025
547,15.718867163521669
548,50.56068509520152
720,1704.3444570740758
721,1704.3444570740758
784,0.0
785,0.0
848,0.0
849,0.0
1121,2155.1391883476635
1135,574.4618589662919
1161,0.0
1163,136.33953212906297
1166,0.0
1168,0.0
2,3,12,24, 0, 3, 0.00,60.00,Wednesday
7,5.6
545,18.526326984725593
546,6.51054678457034
547,15.664714741604362
548,54.935361949197905
720,1847.9683100641068
721,1847.9683100641068
784,0.0
785,0.0
848,0.0
849,0.0
1121,2324.865020710613
1135,622.0843166549394
1161,0.0
1163,130.83141896198094
1166,0.0
1168,0.0
2,3,12,24, 0, 4, 0.00,60.00,Wednesday
7,5.6
545,18.788716207800505
546,6.555480633794775
547,15.612070611608946
548,57.44563666047957
720,1938.1038308210627
721,1938.1038308210627
784,0.0
785,0.0
848,0.0
849,0.0
1121,2436.9857687728772
1135,648.8043738984345
1161,0.0
1163,127.67075643725698
1166,0.0
1168,0.0
2,3,12,24, 0, 5, 0.00,60.00,Wednesday
7,5.6
545,18.647691363121115
546,6.491334108999943
547,15.562795396987337
548,50.69004275170053
720,1679.8496640893918
721,1679.8496640893918
784,0.0
785,0.0
848,0.0
849,0.0
1121,2137.5345369777465
1135,575.3211608818225
1161,0.0
1163,136.17665915928598
1166,0.0
1168,0.0
2,3,12,24, 0, 6, 0.00,60.00,Wednesday
7,5.6
545,19.25562149128716
546,6.696303885144546
547,15.520944400685892
548,77.32499964075419
720,2675.5641191275863
721,2675.5641191275863
784,0.0
785,0.0
848,0.0
849,0.0
1121,3326.4228951931764
1135,875.1472069299289
1161,0.0
1163,102.64084345412432
1166,0.0
1168,0.0
2,3,12,24, 0, 7, 0.00,60.00,Wednesday
7,5.6
545,19.598452106179796
546,6.684744476873789
547,15.49316549766973
548,82.01975304437035
720,2791.779639853188
721,2791.779639853188
784,0.0
785,0.0
848,0.0
849,0.0
1121,3531.193260906944
1135,938.8995407357105
1161,0.0
1163,96.72972501001837
1166,0.0
1168,0.0
2,3,12,24, 0, 8, 0.00,60.00,Wednesday
7,5.3
545,19.557248075538073
546,6.89164371269632
547,15.455029347994383
548,84.04347277450567
720,2803.3035235396183
721,2803.3035235396183
784,0.0
785,0.0
848,0.0
849,0.0
1121,3590.7457912314726
1135,965.2855570241426
1161,0.0
1163,94.1816791396453
1166,0.0
1168,0.0
2,3,12,24, 0, 9, 0.00,60.00,Wednesday
7,5.0
545,19.63152719219841
546,6.365217857634354
547,15.434481285697718
548,111.95522135781928
720,2962.8250296758015
721,2962.8250296758015
784,0.0
785,0.0
848,0.0
849,0.0
1121,3840.983410204152
1135,1109.3936471784634
1161,77.53500855353278
1163,58.64007530168187
1166,0.0
1168,0.0
2,3,12,24, 0,10, 0.00,60.00,Wednesday
7,5.6
545,19.90258848375159
546,6.826339401006176
547,15.37243625516985
548,76.18373705084036
720,2511.087413506066
721,2511.087413506066
784,0.0
785,0.0
848,0.0
849,0.0
1121,3260.550460176229
1135,878.2868840197273
1161,0.0
1163,104.07779610420631
1166,0.0
1168,0.0
2,3,12,24, 0,11, 0.00,60.00,Wednesday
7,5.6
545,19.77721151933119
546,6.89051835502674
547,15.33457992091658
548,66.3938620806019
720,2173.497103511898
721,2173.497103511898
784,0.0
785,0.0
848,0.0
849,0.0
1121,2817.979946799497
1135,769.3607071304789
1161,0.0
1163,116.40413266056173
1166,0.0
1168,0.0
2,3,12,24, 0,12, 0.00,60.00,Wednesday
7,6.1
545,19.81074012140627
546,7.327290768030824
547,15.29028166075266
548,60.61112979538102
720,2017.4544534872184
721,2017.4544534872184
784,0.0
785,0.0
848,0.0
849,0.0
1121,2595.937650360627
1135,704.3112352173499
1161,0.0
1163,123.68511475477928
1166,0.0
1168,0.0
2,3,12,24, 0,13, 0.00,60.00,Wednesday
7,5.6
545,19.695528408974003
546,7.119552101281782
547,15.250616026008625
548,56.20899180209022
720,1845.3978438751456
721,1845.3978438751456
784,0.0
785,0.0
848,0.0
849,0.0
1121,2369.1813473103753
1135,650.1794958029803
1161,0.0
1163,129.2278039758143
1166,0.0
1168,0.0
2,3,12,24, 0,14, 0.00,60.00,Wednesday
7,6.1
545,19.784389557606918
546,7.69068682395933
547,15.217836816984814
548,54.05929766546008
720,1804.6804207421756
721,1804.6804207421756
784,0.0
785,0.0
848,0.0
849,0.0
1121,2305.267764733308
1135,627.1790417024996
1161,0.0
1163,131.93446299872127
1166,0.0
1168,0.0
2,3,12,24, 0,15, 0.00,60.00,Wednesday
7,6.1
545,19.74329978875269
546,7.785246864444307
547,15.187043709465023
548,48.50800118087858
720,1610.6311690180628
721,1610.6311690180628
784,0.0
785,0.0
848,0.0
849,0.0
1121,2059.5121654121303
1135,563.7151291327611
1161,0.0
1163,138.9240465226258
1166,0.0
1168,0.0
2,3,12,24, 0,16, 0.00,60.00,Wednesday
7,6.1
545,19.69688888305493
546,7.543121008186467
547,15.162375563894654
548,47.196975253336646
720,1574.248003038785
721,1574.248003038785
784,0.0
785,0.0
848,0.0
849,0.0
1121,2002.3462062114563
1135,548.0363677573462
1161,0.0
1163,140.57474654342454
1166,0.0
1168,0.0
2,3,12,24, 0,17, 0.00,60.00,Wednesday
7,6.1
545,19.722218093454227
546,7.326192682700649
547,15.140725274733393
548,46.2918349385207
720,1543.7220691870407
721,1543.7220691870407
784,0.0
785,0.0
848,0.0
849,0.0
1121,1963.0827375404913
1135,537.0454126471558
1161,0.0
1163,141.7143999286889
1166,0.0
1168,0.0
2,3,12,24, 0,18, 0.00,60.00,Wednesday
7,5.6
545,19.80456872144426
546,6.755473358149216
547,15.115590255079152
548,41.398953572150525
720,1347.277745987907
721,1347.277745987907
784,0.0
785,0.0
848,0.0
849,0.0
1121,1727.2269349293217
1135,478.03376931592567
1161,0.0
1163,147.87497936770595
1166,0.0
1168,0.0
2,3,12,24, 0,19, 0.00,60.00,Wednesday
7,5.6
545,20.09297973267957
546,6.739790673566747
547,15.086084580982769
548,29.395541214327768
720,928.2726185222364
721,928.2726185222364
784,0.0
785,0.0
848,0.0
849,0.0
1121,1215.55928184004
1135,339.98047969451574
1161,0.0
1163,162.98835936459417
1166,0.0
1168,0.0
2,3,12,24, 0,20, 0.00,60.00,Wednesday
7,6.1
545,19.861383846884156
546,6.562616844531808
547,15.050308299863095
548,13.531117423964817
720,405.00986428610486
721,405.00986428610486
784,0.0
785,0.0
848,0.0
849,0.0
1121,559.6754149137118
1135,158.1761702382487
1161,0.0
1163,182.96310138194823
1166,0.0
1168,0.0
2,3,12,24, 0,21, 0.00,60.00,Wednesday
7,5.6
545,19.743733295541293
546,6.398919128798699
547,15.024118389235557
548,10.863100546333321
720,335.01450990651756
721,335.01450990651756
784,0.0
785,0.0
848,0.0
849,0.0
1121,443.28570653206026
1135,125.77830431448982
1161,0.0
1163,186.3223755373077
1166,0.0
1168,0.0
2,3,12,24, 0,22, 0.00,60.00,Wednesday
7,5.6
545,19.657499772563344
546,6.192148496714832
547,15.003070065159548
548,15.320347355827032
720,495.14744284390144
721,495.14744284390144
784,0.0
785,0.0
848,0.0
849,0.0
1121,627.4565789339573
1135,176.9815924849711
1161,0.0
1163,180.7102993406673
1166,0.0
1168,0.0
2,3,12,24, 0,23, 0.00,60.00,Wednesday
7,5.6
545,18.662584924459868
546,5.9691697181663885
547,14.960823414492571
548,1.0601732295263748
720,9.829222163023587
721,9.829222163023587
784,0.0
785,0.0
848,0.0
849,0.0
1121,43.00712484087176
1135,12.22770356564973
1161,0.0
1163,198.66514617654389
1166,0.0
1168,0.0
2,3,12,24, 0,24, 0.00,60.00,Wednesday
7,6.1
545,18.808227565932288
546,6.258148894880199
547,14.94081000126512
548,12.627136541839233
720,429.3421114723633
721,429.3421114723633
784,0.0
785,0.0
848,0.0
849,0.0
1121,525.2403199365784
1135,143.67764027520388
1161,0.0
1163,184.10129493676538
1166,0.0
1168,0.0
2,4,12,25, 0, 1, 0.00,60.00,Thursday
7,5.6
545,18.57237856697023
546,6.143359774316316
547,14.910223603608973
548,18.431751996009446
720,610.9133884360581
721,610.9133884360581
784,0.0
785,0.0
848,0.0
849,0.0
1121,759.6725147048197
1135,209.17722137084633
1161,0.0
1163,176.79275995691762
1166,0.0
1168,0.0
2,4,12,25, 0, 2, 0.00,60.00,Thursday
7,5.6
545,18.54932363942808
546,6.161698259462915
547,14.877395561358293
548,26.352855658644543
720,878.6048095604201
721,878.6048095604201
784,0.0
785,0.0
848,0.0
849,0.0
1121,1093.3525748276377
1135,297.73117918150155
1161,0.0
1163,166.81937521602535
1166,0.0
1168,0.0
2,4,12,25, 0, 3, 0.00,60.00,Thursday
7,5.6
545,18.547225475887224
546,6.240822371974182
547,14.844488372193563
548,33.09033933960134
720,1103.4322515977656
721,1103.4322515977656
784,0.0
785,0.0
848,0.0
849,0.0
1121,1379.5976171614525
1135,373.66567058051737
1161,0.0
1163,158.33627490607287
1166,0.0
1168,0.0
2,4,12,25, 0, 4, 0.00,60.00,Thursday
7,6.1
545,18.674654532921515
546,6.524423558535975
547,14.811601535841591
548,36.37927541392709
720,1225.9789319149913
721,1225.9789319149913
784,0.0
785,0.0
848,0.0
849,0.0
1121,1539.6109068997473
1135,412.9660284663524
1161,0.0
1163,154.1952074166798
1166,0.0
1168,0.0
2,4,12,25, 0, 5, 0.00,60.00,Thursday
7,6.1
545,18.620245359249978
546,6.530624817396182
547,14.775206855741889
548,33.47769450161741
720,1114.4420199539527
721,1114.4420199539527
784,0.0
785,0.0
848,0.0
849,0.0
1121,1413.1284857565995
1135,380.9241737673614
1161,0.0
1163,157.84855978117426
1166,0.0
1168,0.0
2,4,12,25, 0, 6, 0.00,60.00,Thursday
7,5.0
545,19.374320272752996
546,6.799662015124618
547,14.770980866944331
548,77.43291005299959
720,1974.8333745617347
721,1974.8333745617347
784,0.0
785,0.0
848,0.0
849,0.0
1121,2487.3570677280654
1135,721.6329567058033
1161,76.0612086187541
1163,102.09885770658589
1166,0.0
1168,0.0
2,4,12,25, 0, 7, 0.00,60.00,Thursday
7,5.0
545,19.642638804884516
546,6.4528714282493596
547,14.755866240548961
548,75.93784249511678
720,1865.0902685762649
721,1865.0902685762649
784,0.0
785,0.0
848,0.0
849,0.0
1121,2428.4240533397424
1135,717.8763222256267
1161,74.61329814184913
1163,103.98766923692877
1166,0.0
1168,0.0
2,4,12,25, 0, 8, 0.00,60.00,Thursday
7,4.4
545,19.704199155702266
546,6.138994069469375
547,14.725285409741922
548,69.70085914414719
720,1653.0966342771826
721,1653.0966342771826
784,0.0
785,0.0
848,0.0
849,0.0
1121,2194.3071519102455
1135,662.6242941401972
1161,66.12641461441723
1163,111.78580569775312
1166,0.0
1168,0.0
2,4,12,25, 0, 9, 0.00,60.00,Thursday
7,6.7
545,19.753272810690788
546,6.838355899377387
547,14.67781433253236
548,42.770060323159896
720,1404.9634391601958
721,1404.9634391601958
784,0.0
785,0.0
848,0.0
849,0.0
1121,1836.831630869998
1135,499.240794349157
1161,0.0
1163,146.14863216521243
1166,0.0
1168,0.0
2,4,12,25, 0,10, 0.00,60.00,Thursday
7,7.2
545,19.616611208524695
546,7.6208012789086474
547,14.655817630555992
548,40.21837773731836
720,1357.9241821327341
721,1357.9241821327341
784,0.0
785,0.0
848,0.0
849,0.0
1121,1745.4736331094869
1135,472.41529963994697
1161,0.0
1163,149.3614309428977
1166,0.0
1168,0.0
2,4,12,25, 0,11, 0.00,60.00,Thursday
7,7.2
545,19.736872318813926
546,8.68952860482656
547,14.62317904526683
548,30.963914472411624
720,1035.9339197012923
721,1035.9339197012923
784,0.0
785,0.0
848,0.0
849,0.0
1121,1335.8071053902336
1135,362.79562319350345
1161,0.0
1163,161.01363581767453
1166,0.0
1168,0.0
2,4,12,25, 0,12, 0.00,60.00,Thursday
7,8.3
545,19.932800522869208
546,10.28124993398041
547,14.611040211234563
548,25.31502069553461
720,877.407004663617
721,877.407004663617
784,0.0
785,0.0
848,0.0
849,0.0
1121,1117.2796802508647
1135,300.9536799700113
1161,0.0
1163,168.12610314504752
1166,0.0
1168,0.0
2,4,12,25, 0,13, 0.00,60.00,Thursday
7,7.8
545,19.488274880272122
546,9.921999344660632
547,14.604511080069857
548,22.59390718687015
720,780.7544554782216
721,780.7544554782216
784,0.0
785,0.0
848,0.0
849,0.0
1121,982.2317611217358
1135,268.04732711786016
1161,0.0
1163,171.55223075319472
1166,0.0
1168,0.0
2,4,12,25, 0,14, 0.00,60.00,Thursday
7,7.8
545,19.71898187991352
546,9.560986523137027
547,14.612983727411955
548,30.481107205209813
720,1086.0648374400844
721,1086.0648374400844
784,0.0
785,0.0
848,0.0
849,0.0
1121,1335.0330760383579
1135,358.66204594930144
1161,0.0
1163,161.62153376177247
1166,0.0
1168,0.0
2,4,12,25, 0,15, 0.00,60.00,Thursday
7,7.2
545,19.638769035267412
546,8.914307771027945
547,14.612683319631545
548,28.61261855350269
720,985.3173969661857
721,985.3173969661857
784,0.0
785,0.0
848,0.0
849,0.0
1121,1231.7903245054542
1135,335.86999962260666
1161,0.0
1163,163.97412968794
1166,0.0
1168,0.0
2,4,12,25, 0,16, 0.00,60.00,Thursday
7,7.2
545,19.92464528410219
546,9.500254494888193
547,14.601567655644077
548,16.507370567767857
720,543.8309486110556
721,543.8309486110556
784,0.0
785,0.0
848,0.0
849,0.0
1121,704.8577431854973
1135,193.4967674413456
1161,0.0
1163,179.21572993553502
1166,0.0
1168,0.0
2,4,12,25, 0,17, 0.00,60.00,Thursday
7,7.2
545,19.735803524535953
546,8.863607243190918
547,14.613328966721227
548,15.403520284514752
720,519.0839579525818
721,519.0839579525818
784,0.0
785,0.0
848,0.0
849,0.0
1121,656.408926855643
1135,181.51879086798303
1161,0.0
1163,180.6055771134173
1166,0.0
1168,0.0
2,4,12,25, 0,18, 0.00,60.00,Thursday
7,6.7
545,19.390611352750867
546,7.78717386792343
547,14.619956531022774
548,15.23216030235954
720,509.34019926262044
721,509.34019926262044
784,0.0
785,0.0
848,0.0
849,0.0
1121,641.4751366849273
1135,177.90444501781178
1161,0.0