Program Version,EnergyPlus, Version 22.2.0-c249759bad, YMD=2023.09.01 20:19
1,5,Environment Title[],Latitude[deg],Longitude[deg],Time Zone[],Elevation[m]
2,8,Day of Simulation[],Month[],Day of Month[],DST Indicator[1=yes 0=no],Hour[],StartMinute[],EndMinute[],DayType
3,5,Cumulative Day of Simulation[],Month[],Day of Month[],DST Indicator[1=yes 0=no],DayType  ! When Daily Report Variables Requested
4,2,Cumulative Days of Simulation[],Month[]  ! When Monthly Report Variables Requested
5,1,Cumulative Days of Simulation[] ! When Run Period Report Variables Requested
6,1,Calendar Year of Simulation[] ! When Annual Report Variables Requested
581,11,LIVING,AFN Zone Infiltration Air Change Rate [ach] !RunPeriod [Value,Min,Month,Day,Hour,Minute,Max,Month,Day,Hour,Minute]
582,11,ATTIC,AFN Zone Infiltration Air Change Rate [ach] !RunPeriod [Value,Min,Month,Day,Hour,Minute,Max,Month,Day,Hour,Minute]
583,11,CRAWLSPACE,AFN Zone Infiltration Air Change Rate [ach] !RunPeriod [Value,Min,Month,Day,Hour,Minute,Max,Month,Day,Hour,Minute]
1038,11,Facility,Facility Heating Setpoint Not Met Time [hr] !RunPeriod [Value,Min,Month,Day,Hour,Minute,Max,Month,Day,Hour,Minute]
1039,11,Facility,Facility Cooling Setpoint Not Met Time [hr] !RunPeriod [Value,Min,Month,Day,Hour,Minute,Max,Month,Day,Hour,Minute]
1115,11,DX_HEATING_COIL,Heating Coil Heating Energy [J] !RunPeriod [Value,Min,Month,Day,Hour,Minute,Max,Month,Day,Hour,Minute]
1128,11,DX_HEATING_COIL,Heating Coil Electricity Energy [J] !RunPeriod [Value,Min,Month,Day,Hour,Minute,Max,Month,Day,Hour,Minute]
1153,11,DX_HEATING_COIL,Heating Coil Defrost Electricity Energy [J] !RunPeriod [Value,Min,Month,Day,Hour,Minute,Max,Month,Day,Hour,Minute]
1154,11,DX_HEATING_COIL,Heating Coil Crankcase Heater Electricity Energy [J] !RunPeriod [Value,Min,Month,Day,Hour,Minute,Max,Month,Day,Hour,Minute]
1155,11,HEATING_RESISTANCE_BACKUP,Heating Coil Heating Energy [J] !RunPeriod [Value,Min,Month,Day,Hour,Minute,Max,Month,Day,Hour,Minute]
1156,11,HEATING_RESISTANCE_BACKUP,Heating Coil Electricity Energy [J] !RunPeriod [Value,Min,Month,Day,Hour,Minute,Max,Month,Day,Hour,Minute]
1292,11,WATER HEATER,Water Heater Heat Loss Energy [J] !RunPeriod [Value,Min,Month,Day,Hour,Minute,Max,Month,Day,Hour,Minute]
1306,11,WATER HEATER,Water Heater Heating Energy [J] !RunPeriod [Value,Min,Month,Day,Hour,Minute,Max,Month,Day,Hour,Minute]
1307,11,WATER HEATER,Water Heater Unmet Demand Heat Transfer Energy [J] !RunPeriod [Value,Min,Month,Day,Hour,Minute,Max,Month,Day,Hour,Minute]
1308,11,WATER HEATER,Water Heater Electricity Energy [J] !RunPeriod [Value,Min,Month,Day,Hour,Minute,Max,Month,Day,Hour,Minute]
13,11,Electricity:Facility [J] !RunPeriod [Value,Min,Month,Day,Hour,Minute,Max,Month,Day,Hour,Minute]
1134,11,Heating:Electricity [J] !RunPeriod [Value,Min,Month,Day,Hour,Minute,Max,Month,Day,Hour,Minute]
1096,11,Cooling:Electricity [J] !RunPeriod [Value,Min,Month,Day,Hour,Minute,Max,Month,Day,Hour,Minute]
562,11,Fans:Electricity [J] !RunPeriod [Value,Min,Month,Day,Hour,Minute,Max,Month,Day,Hour,Minute]
1379,11,Pumps:Electricity [J] !RunPeriod [Value,Min,Month,Day,Hour,Minute,Max,Month,Day,Hour,Minute]
1326,11,WaterSystems:Electricity [J] !RunPeriod [Value,Min,Month,Day,Hour,Minute,Max,Month,Day,Hour,Minute]
61,11,InteriorLights:Electricity [J] !RunPeriod [Value,Min,Month,Day,Hour,Minute,Max,Month,Day,Hour,Minute]
1046,11,ExteriorLights:Electricity [J] !RunPeriod [Value,Min,Month,Day,Hour,Minute,Max,Month,Day,Hour,Minute]
134,11,InteriorEquipment:Electricity [J] !RunPeriod [Value,Min,Month,Day,Hour,Minute,Max,Month,Day,Hour,Minute]
170,11,gas_dryer:InteriorEquipment:Electricity [J] !RunPeriod [Value,Min,Month,Day,Hour,Minute,Max,Month,Day,Hour,Minute]
207,11,clotheswasher:InteriorEquipment:Electricity [J] !RunPeriod [Value,Min,Month,Day,Hour,Minute,Max,Month,Day,Hour,Minute]
244,11,dishwasher:InteriorEquipment:Electricity [J] !RunPeriod [Value,Min,Month,Day,Hour,Minute,Max,Month,Day,Hour,Minute]
281,11,refrigerator:InteriorEquipment:Electricity [J] !RunPeriod [Value,Min,Month,Day,Hour,Minute,Max,Month,Day,Hour,Minute]
318,11,electric_mels:InteriorEquipment:Electricity [J] !RunPeriod [Value,Min,Month,Day,Hour,Minute,Max,Month,Day,Hour,Minute]
355,11,NaturalGas:Facility [J] !RunPeriod [Value,Min,Month,Day,Hour,Minute,Max,Month,Day,Hour,Minute]
403,11,InteriorEquipment:NaturalGas [J] !RunPeriod [Value,Min,Month,Day,Hour,Minute,Max,Month,Day,Hour,Minute]
476,11,gas_dryer:InteriorEquipment:NaturalGas [J] !RunPeriod [Value,Min,Month,Day,Hour,Minute,Max,Month,Day,Hour,Minute]
513,11,gas_mels:InteriorEquipment:NaturalGas [J] !RunPeriod [Value,Min,Month,Day,Hour,Minute,Max,Month,Day,Hour,Minute]
End of Data Dictionary
1,EXTREME_WINTER,  46.77,-100.76,  -6.00, 503.20
5,7
1038,11.0,0.0, 1,29, 1,15,0.25, 1,31, 2,30
1039,0.0,0.0, 1,29, 1,15,0.0, 1,29, 1,15
581,0.49758978299144685,0.24947963970492426, 2, 4,18,22,1.0129829301290068, 2, 2,14,52
582,5.4254479385267524,0.1290474146941499, 1,29, 4,60,20.626988991455008, 2, 2,14,52
583,0.06960227180583328,0.0010665798039761372, 2, 2,23, 5,0.08428552764019948, 1,31, 2,52
1115,1902964126.9766388,0.0, 2, 1,23, 5,3996757.533914401, 2, 4,16,30
1128,721384507.2533997,0.0, 2, 1,23, 5,1178243.0777014697, 2, 1,13,60
1153,15358585.19209694,0.0, 2, 1,23, 5,76153.25497401478, 2, 4,15,60
1154,2669078.4349621483,0.0, 1,29, 1, 7,111426.55337245725, 2, 4,18,15
1155,2490961678.5434966,0.0, 1,29,23, 5,9206924.821248798, 1,31, 2,30
1156,2490961678.5434966,0.0, 1,29,23, 5,9206924.821248798, 1,31, 2,30
1292,-25478481.418070007,-41989.73009129072, 1,31, 8,15,-7518.763983510162, 2, 2,13,48
1306,142320596.66794288,0.0, 1,29, 1, 7,4050000.0, 1,29, 7,15
1307,33674158.45612366,0.0, 1,29, 1, 7,9094028.429834068, 1,29, 6,60
1308,142320596.66794288,0.0, 1,29, 1, 7,4050000.0, 1,29, 7,15
13,3829971489.877581,1236962.7548156057, 2, 4,23,15,14933200.522336153, 1,31, 8,60
61,301924526.02383536,88139.10953165221, 1,29, 1,15,1282023.4113694867, 1,29,20,15
134,70666020.44019976,63564.01800854099, 1,29, 4,15,156554.22484006523, 2, 3,20,15
170,5241013.419656067,348.4159749238097, 1,29, 4,15,17476.39704006126, 2, 3,12,15
207,6509451.13922267,815.2532113832032, 1,29, 3,15,22990.642799023623, 2, 3,10,15
244,12749673.399825225,1521.856143006317, 1,29, 4,15,53038.631142310165, 2, 3,20,15
281,46165882.481495745,59938.60262432081, 1,29, 5,15,81951.81706819107, 1,29,19,15
318,0.0,0.0, 1,29, 1,15,0.0, 1,29, 1,15
355,197687796.27748066,18561.32405820678, 1,29, 4,15,724774.895203776, 2, 3,18,15
403,197687796.27748066,18561.32405820678, 1,29, 4,15,724774.895203776, 2, 3,18,15
476,106772067.24485716,7098.072629279515, 1,29, 4,15,356036.3026282215, 2, 3,12,15
513,0.0,0.0, 1,29, 1,15,0.0, 1,29, 1,15
562,84686497.32164595,43800.02128948632, 2, 4,23,15,128891.59035597781, 1,29,23,60
1046,0.0,0.0, 1,29, 1,15,0.0, 1,29, 1,15
1096,0.0,0.0, 1,29, 1,15,0.0, 1,29, 1,15
1134,3230373849.4239583,541640.43973342, 2, 4,23,15,10207495.368527576, 1,31,12,30
1326,142320596.6679429,0.0, 1,29, 1,15,4050000.0, 1,29, 7,15
1379,0.0,0.0, 1,29, 1,15,0.0, 1,29, 1,15
1,EXTREME_SUMMER,  46.77,-100.76,  -6.00, 503.20
5,7
1038,0.0,0.0, 7,22, 1,15,0.0, 7,22, 1,15
1039,37.75,0.0, 7,22, 1,15,0.25, 7,22,14,60
581,0.3026071327670248,0.010607690395839418, 7,24,24,52,1.0870390572885156, 7,27,21,60
582,7.4556779477167465,0.19568495075458137, 7,24,23,45,43.52268932879478, 7,28,16,60
583,0.03473565324249262,0.00008338634544687886, 7,25, 4,52,0.08793505566756311, 7,27,21,60
1115,0.0,0.0, 7,22, 1, 7,0.0, 7,22, 1, 7
1128,0.0,0.0, 7,22, 1, 7,0.0, 7,22, 1, 7
1153,0.0,0.0, 7,22, 1, 7,0.0, 7,22, 1, 7
1154,0.0,0.0, 7,22, 1, 7,0.0, 7,22, 1, 7
1155,0.0,0.0, 7,22, 1, 7,0.0, 7,22, 1, 7
1156,0.0,0.0, 7,22, 1, 7,0.0, 7,22, 1, 7
1292,-21926819.521218643,-34401.34862037412, 7,22, 6,45,-3386.76479893612, 7,25,10,60
1306,110849859.55613679,0.0, 7,22, 1, 7,3532293.4308800953, 7,22, 6,60
1307,18562923.66178446,0.0, 7,22, 1, 7,5907972.051436766, 7,22, 6,60
1308,110849859.55613679,0.0, 7,22, 1, 7,3532293.4308800953, 7,22, 6,60
13,924540212.149926,151703.1275401932, 7,22, 4,15,5603709.940820536, 7,22,19,30
61,301924526.02383536,88139.10953165221, 7,22, 1,15,1282023.4113694867, 7,22,20,15
134,70666020.44019976,63564.01800854099, 7,22, 4,15,156554.22484006523, 7,27,20,15
170,5241013.419656067,348.4159749238097, 7,22, 4,15,17476.39704006126, 7,27,12,15
207,6509451.13922267,815.2532113832032, 7,22, 3,15,22990.642799023623, 7,27,10,15
244,12749673.399825225,1521.856143006317, 7,22, 4,15,53038.631142310165, 7,27,20,15
281,46165882.481495745,59938.60262432081, 7,22, 5,15,81951.81706819107, 7,22,19,15
318,0.0,0.0, 7,22, 1,15,0.0, 7,22, 1,15
355,197687796.27748066,18561.32405820678, 7,22, 4,15,724774.895203776, 7,27,18,15
403,197687796.27748066,18561.32405820678, 7,22, 4,15,724774.895203776, 7,27,18,15
476,106772067.24485716,7098.072629279515, 7,22, 4,15,356036.3026282215, 7,27,12,15
513,0.0,0.0, 7,22, 1,15,0.0, 7,22, 1,15
562,43327999.05907756,0.0, 7,22, 3,30,128891.59035597781, 7,23,20,45
1046,0.0,0.0, 7,22, 1,15,0.0, 7,22, 1,15
1096,397771807.07067645,0.0, 7,22, 3,30,1367177.4574345876, 7,23,15,60
1134,0.0,0.0, 7,22, 1,15,0.0, 7,22, 1,15
1326,110849859.55613679,0.0, 7,22, 1,15,4050000.0, 7,22, 7,15
1379,0.0,0.0, 7,22, 1,15,0.0, 7,22, 1,15
1,ANNUAL,  46.77,-100.76,  -6.00, 503.20
5,365
1038,40.5,0.0, 1, 1, 1,15,0.25, 1,10, 6,15
1039,237.25,0.0, 1, 1, 1,15,0.25, 4,24,14,60
581,0.327677035612519,0.0, 7,13,23, 3,1.3690635977719259,10,27, 8,60
582,4.924098341778773,0.0, 1, 6,21,60,43.504546702160596, 7,28,16,60
583,0.036175201598807015,0.0, 7,13,23, 3,0.09419123287498057,10,27, 8,60
1115,45092975913.40539,0.0, 1, 1,23, 5,4436901.31273564, 4,18, 7,15
1128,15193117525.311779,0.0, 1, 1,23, 5,1300395.0258658472,10,27,10,15
1153,501279680.8835776,0.0, 1, 1,23, 5,119412.79783631752, 4,28, 6,45
1154,1257077530.4408154,0.0, 1, 1, 1, 7,180000.0, 1,18,16,30
1155,25181065494.330605,0.0, 1, 1,14,60,9206924.821248798, 1,21, 6,15
1156,25181065494.330605,0.0, 1, 1,14,60,9206924.821248798, 1,21, 6,15
1292,-1254111430.486014,-43548.3638374504, 1,31, 8,15,-2258.3304408192284, 7, 1,19,16
1306,6663039704.151337,0.0, 1, 1, 1, 7,4050000.0, 1, 1,16,15
1307,1337962360.6892672,0.0, 1, 1, 1, 7,9211221.081882551, 2,20, 6,60
1308,6663039704.151337,0.0, 1, 1, 1, 7,4050000.0, 1, 1,16,15
13,75987405399.56184,151703.1275401932, 5, 5, 4,15,15131398.616426783, 1,24, 7,30
61,15743207428.383959,88139.10953165221, 1, 1, 1,15,1282023.4113694867, 1, 1,20,15
134,3685071073.4325233,63564.01800854099, 1, 2, 4,15,156554.22484006523, 1, 1,20,15
170,273393721.45532674,348.4159749238097, 1, 2, 4,15,17476.39704006126, 1, 1,12,15
207,339560869.0695816,815.2532113832032, 1, 2, 3,15,22990.642799023623, 1, 1,10,15
244,664895467.8009144,1521.856143006317, 1, 2, 4,15,53038.631142310165, 1, 1,20,15
281,2407221015.106824,59938.60262432081, 1, 1, 5,15,81951.81706819107, 1, 1,19,15
318,0.0,0.0, 1, 1, 1,15,0.0, 1, 1, 1,15
355,10310294493.051695,18561.32405820678, 1, 2, 4,15,724774.895203776, 1, 1,18,15
403,10310294493.051695,18561.32405820678, 1, 2, 4,15,724774.895203776, 1, 1,18,15
476,5569688622.066177,7098.072629279515, 1, 2, 4,15,356036.3026282215, 1, 1,12,15
513,0.0,0.0, 1, 1, 1,15,0.0, 1, 1, 1,15
562,2343377372.3445377,0.0, 1,18,16,30,128891.59035597782, 7,31,19,60
1046,0.0,0.0, 1, 1, 1,15,0.0, 1, 1, 1,15
1096,5420169590.280853,0.0, 1, 1, 1,15,1399399.5709433244, 9, 1,16,60
1134,42132540230.967,0.0, 3, 2,14,60,10277353.672652569, 1,24,10,45
1326,6663039704.151346,0.0, 1, 1, 1,15,4050000.0, 1, 1,14,15
1379,0.0,0.0, 1, 1, 1,15,0.0, 1, 1, 1,15
End of Data
 Number of Records Written=          99
