Program Version,EnergyPlus, Version 22.2.0-c249759bad, YMD=2023.08.02 11:38
1,5,Environment Title[],Latitude[deg],Longitude[deg],Time Zone[],Elevation[m]
2,8,Day of Simulation[],Month[],Day of Month[],DST Indicator[1=yes 0=no],Hour[],StartMinute[],EndMinute[],DayType
3,5,Cumulative Day of Simulation[],Month[],Day of Month[],DST Indicator[1=yes 0=no],DayType  ! When Daily Report Variables Requested
4,2,Cumulative Days of Simulation[],Month[]  ! When Monthly Report Variables Requested
5,1,Cumulative Days of Simulation[] ! When Run Period Report Variables Requested
6,1,Calendar Year of Simulation[] ! When Annual Report Variables Requested
618,11,DX_HEATING_COIL,Heating Coil Heating Energy [J] !RunPeriod [Value,Min,Month,Day,Hour,Minute,Max,Month,Day,Hour,Minute]
631,11,DX_HEATING_COIL,Heating Coil Electricity Energy [J] !RunPeriod [Value,Min,Month,Day,Hour,Minute,Max,Month,Day,Hour,Minute]
656,11,DX_HEATING_COIL,Heating Coil Defrost Electricity Energy [J] !RunPeriod [Value,Min,Month,Day,Hour,Minute,Max,Month,Day,Hour,Minute]
657,11,DX_HEATING_COIL,Heating Coil Crankcase Heater Electricity Energy [J] !RunPeriod [Value,Min,Month,Day,Hour,Minute,Max,Month,Day,Hour,Minute]
711,11,LIVING,AFN Zone Infiltration Air Change Rate [ach] !RunPeriod [Value,Min,Month,Day,Hour,Minute,Max,Month,Day,Hour,Minute]
712,11,ATTIC,AFN Zone Infiltration Air Change Rate [ach] !RunPeriod [Value,Min,Month,Day,Hour,Minute,Max,Month,Day,Hour,Minute]
713,11,CRAWLSPACE,AFN Zone Infiltration Air Change Rate [ach] !RunPeriod [Value,Min,Month,Day,Hour,Minute,Max,Month,Day,Hour,Minute]
1156,11,Facility,Facility Heating Setpoint Not Met Time [hr] !RunPeriod [Value,Min,Month,Day,Hour,Minute,Max,Month,Day,Hour,Minute]
1157,11,Facility,Facility Cooling Setpoint Not Met Time [hr] !RunPeriod [Value,Min,Month,Day,Hour,Minute,Max,Month,Day,Hour,Minute]
1183,11,HEATING_RESISTANCE_BACKUP,Heating Coil Heating Energy [J] !RunPeriod [Value,Min,Month,Day,Hour,Minute,Max,Month,Day,Hour,Minute]
1184,11,HEATING_RESISTANCE_BACKUP,Heating Coil Electricity Energy [J] !RunPeriod [Value,Min,Month,Day,Hour,Minute,Max,Month,Day,Hour,Minute]
13,11,Electricity:Facility [J] !RunPeriod [Value,Min,Month,Day,Hour,Minute,Max,Month,Day,Hour,Minute]
637,11,Heating:Electricity [J] !RunPeriod [Value,Min,Month,Day,Hour,Minute,Max,Month,Day,Hour,Minute]
599,11,Cooling:Electricity [J] !RunPeriod [Value,Min,Month,Day,Hour,Minute,Max,Month,Day,Hour,Minute]
691,11,Fans:Electricity [J] !RunPeriod [Value,Min,Month,Day,Hour,Minute,Max,Month,Day,Hour,Minute]
1370,11,Pumps:Electricity [J] !RunPeriod [Value,Min,Month,Day,Hour,Minute,Max,Month,Day,Hour,Minute]
677,11,WaterSystems:Electricity [J] !RunPeriod [Value,Min,Month,Day,Hour,Minute,Max,Month,Day,Hour,Minute]
61,11,InteriorLights:Electricity [J] !RunPeriod [Value,Min,Month,Day,Hour,Minute,Max,Month,Day,Hour,Minute]
1164,11,ExteriorLights:Electricity [J] !RunPeriod [Value,Min,Month,Day,Hour,Minute,Max,Month,Day,Hour,Minute]
134,11,InteriorEquipment:Electricity [J] !RunPeriod [Value,Min,Month,Day,Hour,Minute,Max,Month,Day,Hour,Minute]
170,11,gas_dryer:InteriorEquipment:Electricity [J] !RunPeriod [Value,Min,Month,Day,Hour,Minute,Max,Month,Day,Hour,Minute]
207,11,clotheswasher:InteriorEquipment:Electricity [J] !RunPeriod [Value,Min,Month,Day,Hour,Minute,Max,Month,Day,Hour,Minute]
244,11,dishwasher:InteriorEquipment:Electricity [J] !RunPeriod [Value,Min,Month,Day,Hour,Minute,Max,Month,Day,Hour,Minute]
281,11,refrigerator:InteriorEquipment:Electricity [J] !RunPeriod [Value,Min,Month,Day,Hour,Minute,Max,Month,Day,Hour,Minute]
318,11,electric_mels:InteriorEquipment:Electricity [J] !RunPeriod [Value,Min,Month,Day,Hour,Minute,Max,Month,Day,Hour,Minute]
355,11,NaturalGas:Facility [J] !RunPeriod [Value,Min,Month,Day,Hour,Minute,Max,Month,Day,Hour,Minute]
403,11,InteriorEquipment:NaturalGas [J] !RunPeriod [Value,Min,Month,Day,Hour,Minute,Max,Month,Day,Hour,Minute]
476,11,gas_dryer:InteriorEquipment:NaturalGas [J] !RunPeriod [Value,Min,Month,Day,Hour,Minute,Max,Month,Day,Hour,Minute]
513,11,gas_mels:InteriorEquipment:NaturalGas [J] !RunPeriod [Value,Min,Month,Day,Hour,Minute,Max,Month,Day,Hour,Minute]
End of Data Dictionary
1,EXTREME_WINTER,  39.10, -84.42,  -5.00, 149.40
5,7
1156,0.9999999999999999,0.0, 1,15, 1,10,0.16666666666666666, 1,16, 6,10
1157,0.0,0.0, 1,15, 1,10,0.0, 1,15, 1,10
618,1589531048.535205,0.0, 1,15,16,30,2668938.296465952, 1,19, 5,60
631,530525055.4335658,0.0, 1,15,16,30,804357.0015120724, 1,19, 6,20
656,9507600.645449352,0.0, 1,15,16,30,46419.81771358433, 1,17, 7,60
657,38080756.425238095,0.0, 1,15, 1,10,120000.0, 1,15,16,30
711,0.27539623415305453,0.17691493954430318, 1,17, 4,60,0.42966877655286945, 1,17,24,20
712,3.0465348904243776,0.0, 1,15, 3,60,12.30335097876087, 1,17,24,60
713,3.55791300360113,0.0002180524179560644, 1,18,23, 8,11.2555384746674, 1,17,24,20
1183,601360591.8083656,0.0, 1,15, 2, 5,3660162.6671716115, 1,20, 6,30
1184,601360591.8083656,0.0, 1,15, 2, 5,3660162.6671716115, 1,20, 6,30
13,1667209716.368346,306444.6925987483, 1,16,15,50,5568650.210088354, 1,20,10,30
61,301924526.0238348,58759.40635443481, 1,15, 1,10,854682.2742463244, 1,15,20,10
134,70666020.44019979,42376.01200569399, 1,15, 4,10,104369.48322671017, 1,20,20,10
170,5241013.419656074,232.27731661587313, 1,15, 4,10,11650.931360040839, 1,20,12,10
207,6509451.13922266,543.5021409221355, 1,15, 3,10,15327.095199349082, 1,20,10,10
244,12749673.39982522,1014.5707620042115, 1,15, 4,10,35359.08742820678, 1,20,20,10
281,46165882.48149605,39959.06841621388, 1,15, 5,10,54634.54471212738, 1,15,19,10
318,0.0,0.0, 1,15, 1,10,0.0, 1,15, 1,10
355,197687796.27748126,12374.216038804521, 1,15, 4,10,483183.26346918393, 1,20,18,10
403,197687796.27748126,12374.216038804521, 1,15, 4,10,483183.26346918393, 1,20,18,10
476,106772067.24485692,4732.048419519677, 1,15, 4,10,237357.535085481, 1,20,12,10
513,0.0,0.0, 1,15, 1,10,0.0, 1,15, 1,10
599,0.0,0.0, 1,15, 1,10,0.0, 1,15, 1,10
637,1179474004.3126178,120000.0, 1,15,16,30,4392076.883481838, 1,21, 6,10
677,55815013.06027591,5100.0, 1,15, 1,10,2705100.0000000005, 1,19, 9,20
691,59330152.53141665,0.0, 1,15,16,30,86015.16990882404, 1,15, 1,10
1164,0.0,0.0, 1,15, 1,10,0.0, 1,15, 1,10
1370,0.0,0.0, 1,15, 1,10,0.0, 1,15, 1,10
1,EXTREME_SUMMER,  39.10, -84.42,  -5.00, 149.40
5,7
1156,0.0,0.0, 7,15, 1,10,0.0, 7,15, 1,10
1157,32.83333333333333,0.0, 7,15, 1,10,0.16666666666666666, 7,15,14,40
618,0.0,0.0, 7,15, 1,10,0.0, 7,15, 1,10
631,0.0,0.0, 7,15, 1,10,0.0, 7,15, 1,10
656,0.0,0.0, 7,15, 1,10,0.0, 7,15, 1,10
657,0.0,0.0, 7,15, 1,10,0.0, 7,15, 1,10
711,0.03882713286302328,0.0, 7,15, 1,10,0.4057766889298242, 7,20,16,52
712,1.6885994507766344,0.0, 7,16,21,32,8.738894539538297, 7,20,16,52
713,1.759777356532181,0.0, 7,15, 6, 7,10.122001380485864, 7,20,16,52
1183,0.0,0.0, 7,15, 1,10,0.0, 7,15, 1,10
1184,0.0,0.0, 7,15, 1,10,0.0, 7,15, 1,10
13,894868984.0698018,106235.4183601288, 7,19, 4,10,4462954.660980895, 7,19,19,30
61,301924526.0238348,58759.40635443481, 7,15, 1,10,854682.2742463244, 7,15,20,10
134,70666020.44019979,42376.01200569399, 7,15, 4,10,104369.48322671017, 7,20,20,10
170,5241013.419656074,232.27731661587313, 7,15, 4,10,11650.931360040839, 7,20,12,10
207,6509451.13922266,543.5021409221355, 7,15, 3,10,15327.095199349082, 7,20,10,10
244,12749673.39982522,1014.5707620042115, 7,15, 4,10,35359.08742820678, 7,20,20,10
281,46165882.48149605,39959.06841621388, 7,15, 5,10,54634.54471212738, 7,15,19,10
318,0.0,0.0, 7,15, 1,10,0.0, 7,15, 1,10
355,197687796.27748126,12374.216038804521, 7,15, 4,10,483183.26346918393, 7,20,18,10
403,197687796.27748126,12374.216038804521, 7,15, 4,10,483183.26346918393, 7,20,18,10
476,106772067.24485692,4732.048419519677, 7,15, 4,10,237357.535085481, 7,20,12,10
513,0.0,0.0, 7,15, 1,10,0.0, 7,15, 1,10
599,449254174.84225357,0.0, 7,15, 6,20,910495.4771220393, 7,16,15,60
637,0.0,0.0, 7,15, 1,10,0.0, 7,15, 1,10
677,25317079.17769557,5100.0, 7,15, 1,10,2705100.0, 7,18, 8,40
691,47707183.585818045,0.0, 7,15, 6,20,86015.16990882404, 7,15,13,50
1164,0.0,0.0, 7,15, 1,10,0.0, 7,15, 1,10
1370,0.0,0.0, 7,15, 1,10,0.0, 7,15, 1,10
1,ANNUAL,  39.10, -84.42,  -5.00, 149.40
5,365
1156,15.833333333333314,0.0, 1, 1, 1,10,0.16666666666666666, 1, 1, 2,50
1157,468.1666666666669,0.0, 1, 1, 1,10,0.16666666666666666, 5,12,16,50
618,25451631008.734055,0.0, 1, 1,23, 2,3087289.835075085, 1,22, 4,60
631,7759729879.942781,0.0, 1, 1,23, 2,835118.6969371396, 1,22, 4,20
656,276723950.17020625,0.0, 1, 1,23, 2,82822.81969973883, 2,19, 6,30
657,1314017727.1241922,0.0, 1, 1, 1, 1,120000.0, 1, 9, 2,10
711,0.18533242248150447,0.0, 4,21, 9,21,1.236589015893429, 2,18,22,60
712,3.073403074085728,0.0, 1, 3,22,60,28.041190396701534, 1,29,21,60
713,3.543091544991612,0.0, 4,21,10,31,33.797655862002905, 2,18,22,55
1183,4546199039.460102,0.0, 1, 1, 1,52,3660162.6671716115, 1,20, 6,30
1184,4546199039.460102,0.0, 1, 1, 1,52,3660162.6671716115, 1,20, 6,30
13,46895755851.39236,106235.4183601288, 3, 6, 4,10,7469248.659265615, 1,20, 8,30
61,15743207428.39043,58759.40635443481, 1, 1, 1,10,854682.2742463244, 1, 1,20,10
134,3685071073.433083,42376.01200569399, 1, 2, 4,10,104369.48322671017, 1, 1,20,10
170,273393721.45534325,232.27731661587313, 1, 2, 4,10,11650.931360040839, 1, 1,12,10
207,339560869.06955314,543.5021409221355, 1, 2, 3,10,15327.095199349082, 1, 1,10,10
244,664895467.8009839,1014.5707620042115, 1, 2, 4,10,35359.08742820678, 1, 1,20,10
281,2407221015.1057043,39959.06841621388, 1, 1, 5,10,54634.54471212738, 1, 1,19,10
318,0.0,0.0, 1, 1, 1,10,0.0, 1, 1, 1,10
355,10310294493.052883,12374.216038804521, 1, 2, 4,10,483183.26346918393, 1, 1,18,10
403,10310294493.052883,12374.216038804521, 1, 2, 4,10,483183.26346918393, 1, 1,18,10
476,5569688622.065564,4732.048419519677, 1, 2, 4,10,237357.535085481, 1, 1,12,10
513,0.0,0.0, 1, 1, 1,10,0.0, 1, 1, 1,10
599,8397605534.319658,0.0, 1, 1, 1,10,945915.0833826263, 8, 9,14,60
637,13896670596.697163,0.0, 1, 6,19,10,4400868.219711535, 1, 2, 6,20
677,3369785595.818966,5100.0, 1, 1, 1,10,2705100.0000000005, 1, 3,19,60
691,1803415622.7392385,0.0, 1, 5,23,10,86015.16990882404, 1, 1, 1,30
1164,0.0,0.0, 1, 1, 1,10,0.0, 1, 1, 1,10
1370,0.0,0.0, 1, 1, 1,10,0.0, 1, 1, 1,10
End of Data
 Number of Records Written=          87
