Program Version,EnergyPlus, Version 22.2.0-c249759bad, YMD=2023.09.01 14:30
1,5,Environment Title[],Latitude[deg],Longitude[deg],Time Zone[],Elevation[m]
2,8,Day of Simulation[],Month[],Day of Month[],DST Indicator[1=yes 0=no],Hour[],StartMinute[],EndMinute[],DayType
3,5,Cumulative Day of Simulation[],Month[],Day of Month[],DST Indicator[1=yes 0=no],DayType  ! When Daily Report Variables Requested
4,2,Cumulative Days of Simulation[],Month[]  ! When Monthly Report Variables Requested
5,1,Cumulative Days of Simulation[] ! When Run Period Report Variables Requested
6,1,Calendar Year of Simulation[] ! When Annual Report Variables Requested
7,1,Environment,Site Outdoor Air Drybulb Temperature [C] !Hourly
619,1,DX_HEATING_COIL,Heating Coil Heating Rate [W] !Hourly
633,1,DX_HEATING_COIL,Heating Coil Electricity Rate [W] !Hourly
659,1,DX_HEATING_COIL,Heating Coil Defrost Electricity Rate [W] !Hourly
661,1,DX_HEATING_COIL,Heating Coil Crankcase Heater Electricity Rate [W] !Hourly
690,1,FAN,Fan Electricity Rate [W] !Hourly
716,1,HEAT PUMP WATER HEATER FAN,Fan Electricity Rate [W] !Hourly
718,1,LIVING,Zone Mean Air Temperature [C] !Hourly
719,1,ATTIC,Zone Mean Air Temperature [C] !Hourly
720,1,CRAWLSPACE,Zone Mean Air Temperature [C] !Hourly
843,1,LIVING,Zone Predicted Sensible Load to Heating Setpoint Heat Transfer Rate [W] !Hourly
844,1,LIVING,Zone System Predicted Sensible Load to Heating Setpoint Heat Transfer Rate [W] !Hourly
907,1,ATTIC,Zone Predicted Sensible Load to Heating Setpoint Heat Transfer Rate [W] !Hourly
908,1,ATTIC,Zone System Predicted Sensible Load to Heating Setpoint Heat Transfer Rate [W] !Hourly
971,1,CRAWLSPACE,Zone Predicted Sensible Load to Heating Setpoint Heat Transfer Rate [W] !Hourly
972,1,CRAWLSPACE,Zone System Predicted Sensible Load to Heating Setpoint Heat Transfer Rate [W] !Hourly
1195,1,HEATING_RESISTANCE_BACKUP,Heating Coil Heating Rate [W] !Hourly
1197,1,HEATING_RESISTANCE_BACKUP,Heating Coil Electricity Rate [W] !Hourly
End of Data Dictionary
1,EXTREME_WINTER,  32.13, -81.20,  -5.00,  15.00
2,1, 1, 6, 0, 1, 0.00,60.00,Monday
7,3.9
718,21.513921733356042
719,4.926285852521174
720,20.767144756770993
619,0.0
633,0.0
659,0.0
661,200.0
690,0.0
716,0.0
843,-2117.31852728808
844,-2117.31852728808
907,0.0
908,0.0
971,0.0
972,0.0
1195,0.0
1197,0.0
2,1, 1, 6, 0, 2, 0.00,60.00,Monday
7,3.9
718,20.906434326672667
719,2.8813708777652933
720,20.627332466075337
619,0.0
633,0.0
659,0.0
661,200.0
690,0.0
716,0.0
843,-1773.6241173934213
844,-1773.6241173934213
907,0.0
908,0.0
971,0.0
972,0.0
1195,0.0
1197,0.0
2,1, 1, 6, 0, 3, 0.00,60.00,Monday
7,5.0
718,20.426884079201965
719,1.6448813194523537
720,20.5059063802043
619,0.0
633,0.0
659,0.0
661,200.0
690,0.0
716,0.0
843,-1329.3830831843225
844,-1329.3830831843225
907,0.0
908,0.0
971,0.0
972,0.0
1195,0.0
1197,0.0
2,1, 1, 6, 0, 4, 0.00,60.00,Monday
7,3.3
718,19.655908240432748
719,0.5741947829060886
720,20.38190530766849
619,0.0
633,0.0
659,0.0
661,200.0
690,0.0
716,0.0
843,-700.7652124269844
844,-700.7652124269844
907,0.0
908,0.0
971,0.0
972,0.0
1195,0.0
1197,0.0
2,1, 1, 6, 0, 5, 0.00,60.00,Monday
7,3.9
718,19.251682269506123
719,-0.21474091691039018
720,20.25890996514635
619,0.0
633,0.0
659,0.0
661,200.0
690,0.0
716,0.0
843,-446.24949587063566
844,-446.24949587063566
907,0.0
908,0.0
971,0.0
972,0.0
1195,0.0
1197,0.0
2,1, 1, 6, 0, 6, 0.00,60.00,Monday
7,2.8
718,19.61437299165848
719,0.06360383482778292
720,20.098150062594325
619,740.135761438411
633,236.77944517815118
659,22.501328258538926
661,167.67008772501032
690,24.94434218146454
716,0.0
843,535.1544485124159
844,535.1544485124159
907,0.0
908,0.0
971,0.0
972,0.0
1195,0.0
1197,0.0
2,1, 1, 6, 0, 7, 0.00,60.00,Monday
7,3.3
718,19.601712597594624
719,1.267193415406261
720,19.919360876864573
619,2532.3850895551695
633,776.441383608575
659,70.41855720172093
661,95.62854639224496
690,80.62564368953997
716,85.44000000000005
843,711.960880875542
844,711.960880875542
907,0.0
908,0.0
971,0.0
972,0.0
1195,0.0
1197,0.0
2,1, 1, 6, 0, 8, 0.00,60.00,Monday
7,3.3
718,19.69383024205013
719,1.1230324133493337
720,19.832504442859268
619,1999.1735902245741
633,620.2129559269673
659,56.26745280971185
661,116.60272414084814
690,64.4233862037098
716,37.47159057834238
843,945.0728201865622
844,945.0728201865622
907,0.0
908,0.0
971,0.0
972,0.0
1195,0.0
1197,0.0
2,1, 1, 6, 0, 9, 0.00,60.00,Monday
7,6.1
718,19.7785355902011
719,4.191886763675226
720,19.767158658971123
619,511.8229699634463
633,144.14631554378872
659,0.0
661,184.1728126096901
690,12.308151666131165
716,0.0
843,381.3841272642112
844,381.3841272642112
907,0.0
908,0.0
971,0.0
972,0.0
1195,0.0
1197,0.0
2,1, 1, 6, 0,10, 0.00,60.00,Monday
7,9.4
718,20.647438400454785
719,8.89819136532656
720,19.67369863760691
619,0.0
633,0.0
659,0.0
661,200.0
690,0.0
716,0.0
843,-549.5689629752942
844,-549.5689629752942
907,0.0
908,0.0
971,0.0
972,0.0
1195,0.0
1197,0.0
2,1, 1, 6, 0,11, 0.00,60.00,Monday
7,12.2
718,21.5572176420519
719,14.390026531609537
720,19.603739821605
619,0.0
633,0.0
659,0.0
661,0.0
690,0.0
716,0.0
843,-1612.936003686411
844,-1612.936003686411
907,0.0
908,0.0
971,0.0
972,0.0
1195,0.0
1197,0.0
2,1, 1, 6, 0,12, 0.00,60.00,Monday
7,14.4
718,22.59451884506463
719,18.249626281228785
720,19.572184244964404
619,0.0
633,0.0
659,0.0
661,0.0
690,0.0
716,0.0
843,-2470.7745089685777
844,-2470.7745089685777
907,0.0
908,0.0
971,0.0
972,0.0
1195,0.0
1197,0.0
2,1, 1, 6, 0,13, 0.00,60.00,Monday
7,16.1
718,23.32268049673637
719,21.194627970013936
720,19.575228994790695
619,0.0
633,0.0
659,0.0
661,0.0
690,3.1963241007416623
716,0.0
843,-3215.787446481854
844,-3215.787446481854
907,0.0
908,0.0
971,0.0
972,0.0
1195,0.0
1197,0.0
2,1, 1, 6, 0,14, 0.00,60.00,Monday
7,16.1
718,23.276262847961387
719,22.33463727783385
720,19.594998921502288
619,0.0
633,0.0
659,0.0
661,0.0
690,0.0
716,62.066755169589484
843,-3665.737053133187
844,-3665.737053133187
907,0.0
908,0.0
971,0.0
972,0.0
1195,0.0
1197,0.0
2,1, 1, 6, 0,15, 0.00,60.00,Monday
7,17.2
718,23.315700171286988
719,22.64820049022226
720,19.70507973320042
619,0.0
633,0.0
659,0.0
661,0.0
690,42.22556263715273
716,0.0
843,-4826.789131495325
844,-4826.789131495325
907,0.0
908,0.0
971,0.0
972,0.0
1195,0.0
1197,0.0
2,1, 1, 6, 0,16, 0.00,60.00,Monday
7,17.2
718,23.353561993443968
719,21.808072284969544
720,19.802609266306913
619,0.0
633,0.0
659,0.0
661,0.0
690,57.238045018071354
716,0.0
843,-5909.088245237192
844,-5909.088245237192
907,0.0
908,0.0
971,0.0
972,0.0
1195,0.0
1197,0.0
2,1, 1, 6, 0,17, 0.00,60.00,Monday
7,16.1
718,23.386710920375243
719,20.802921977445962
720,19.90865613685369
619,0.0
633,0.0
659,0.0
661,0.0
690,64.95375469463973
716,0.0
843,-6445.843369037011
844,-6445.843369037011
907,0.0
908,0.0
971,0.0
972,0.0
1195,0.0
1197,0.0
2,1, 1, 6, 0,18, 0.00,60.00,Monday
7,12.2
718,23.28829833651353
719,17.297071671813338
720,19.963652627762674
619,0.0
633,0.0
659,0.0
661,0.0
690,37.79765578105986
716,0.0
843,-5352.8850537502185
844,-5352.8850537502185
907,0.0
908,0.0
971,0.0
972,0.0
1195,0.0
1197,0.0
2,1, 1, 6, 0,19, 0.00,60.00,Monday
7,11.7
718,23.351796128235044
719,14.533191902900386
720,20.005852770628504
619,0.0
633,0.0
659,0.0
661,0.0
690,1.9150642468965664
716,74.4326133085668
843,-4569.4825201798085
844,-4569.4825201798085
907,0.0
908,0.0
971,0.0
972,0.0
1195,0.0
1197,0.0
2,1, 1, 6, 0,20, 0.00,60.00,Monday
7,11.7
718,23.356253761731296
719,12.40253343307175
720,20.043544158728803
619,0.0
633,0.0
659,0.0
661,0.0
690,0.9057780366855844
716,67.56545727330365
843,-4267.7520303920755
844,-4267.7520303920755
907,0.0
908,0.0
971,0.0
972,0.0
1195,0.0
1197,0.0
2,1, 1, 6, 0,21, 0.00,60.00,Monday
7,9.4
718,23.201945910575578
719,10.336711032340224
720,20.060614515177694
619,0.0
633,0.0
659,0.0
661,176.60170654022366
690,18.195888980747913
716,0.0
843,-3932.626942791463
844,-3932.626942791463
907,0.0
908,0.0
971,0.0
972,0.0
1195,0.0
1197,0.0
2,1, 1, 6, 0,22, 0.00,60.00,Monday
7,9.4
718,23.322763930133384
719,9.200433033042568
720,20.030070457284868
619,0.0
633,0.0
659,0.0
661,191.7653786152219
690,6.403725843232815
716,0.0
843,-3376.80488914542
844,-3376.80488914542
907,0.0
908,0.0
971,0.0
972,0.0
1195,0.0
1197,0.0
2,1, 1, 6, 0,23, 0.00,60.00,Monday
7,8.3
718,23.095535960566156
719,8.152561326999464
720,19.98976152679862
619,0.0
633,0.0
659,0.0
661,200.0
690,0.0
716,0.0
843,-3389.1026422434443
844,-3389.1026422434443
907,0.0
908,0.0
971,0.0
972,0.0
1195,0.0
1197,0.0
2,1, 1, 6, 0,24, 0.00,60.00,Monday
7,7.2
718,22.358524093070287
719,7.213434634117496
720,19.935185129561937
619,0.0
633,0.0
659,0.0
661,200.0
690,0.0
716,0.0
843,-2557.2299819957007
844,-2557.2299819957007
907,0.0
908,0.0
971,0.0
972,0.0
1195,0.0
1197,0.0
2,2, 1, 7, 0, 1, 0.00,60.00,Tuesday
7,8.3
718,21.70228795093258
719,7.415207935115036
720,19.870244334679985
619,0.0
633,0.0
659,0.0
661,200.0
690,0.0
716,0.0
843,-2239.222090029718
844,-2239.222090029718
907,0.0
908,0.0
971,0.0
972,0.0
1195,0.0
1197,0.0
2,2, 1, 7, 0, 2, 0.00,60.00,Tuesday
7,8.3
718,21.108505948975566
719,7.370861079121659
720,19.794182678404294
619,0.0
633,0.0
659,0.0
661,200.0
690,0.0
716,0.0
843,-1789.515147058244
844,-1789.515147058244
907,0.0
908,0.0
971,0.0
972,0.0
1195,0.0
1197,0.0
2,2, 1, 7, 0, 3, 0.00,60.00,Tuesday
7,7.2
718,20.295920762949258
719,6.7775395826506815
720,19.708746683078544
619,0.0
633,0.0
659,0.0
661,200.0
690,0.0
716,0.0
843,-1188.3528097325434
844,-1188.3528097325434
907,0.0
908,0.0
971,0.0
972,0.0
1195,0.0
1197,0.0
2,2, 1, 7, 0, 4, 0.00,60.00,Tuesday
7,6.7
718,19.84222691052451
719,6.024606191935275
720,19.621387079427112
619,0.0
633,0.0
659,0.0
661,200.0
690,0.0
716,0.0
843,-912.6175896461409
844,-912.6175896461409
907,0.0
908,0.0
971,0.0
972,0.0
1195,0.0
1197,0.0
2,2, 1, 7, 0, 5, 0.00,60.00,Tuesday
7,5.0
718,19.221296690337113
719,4.958850255903403
720,19.526986515570115
619,0.0
633,0.0
659,0.0
661,200.0
690,0.0
716,0.0
843,-413.91802559963435
844,-413.91802559963435
907,0.0
908,0.0
971,0.0
972,0.0
1195,0.0
1197,0.0
2,2, 1, 7, 0, 6, 0.00,60.00,Tuesday
7,5.0
718,19.650981230719
719,4.551455887278517
720,19.409732356019237
619,647.9195335603865
633,199.34333810931255
659,9.381837172647067
661,174.93529591866118
690,19.454889095616373
716,0.0
843,501.67500732655753
844,501.67500732655753
907,0.0
908,0.0
971,0.0
972,0.0
1195,0.0
1197,0.0
2,2, 1, 7, 0, 7, 0.00,60.00,Tuesday
7,3.9
718,19.580818171748245
719,4.3817724050686815
720,19.271184568576473
619,2205.6050151566637
633,674.7812364423812
659,37.27353477216894
661,113.96577700421008
690,66.67719196282671
716,83.47658078625425
843,581.6489010491096
844,581.6489010491096
907,0.0
908,0.0
971,0.0
972,0.0
1195,0.0
1197,0.0
2,2, 1, 7, 0, 8, 0.00,60.00,Tuesday
7,3.9
718,19.638110692420348
719,4.090663510250614
720,19.169748226008096
619,2598.726542933951
633,786.9252342843663
659,43.53471097497668
661,99.5138224755908
690,77.8776660185048
716,85.44000000000005
843,837.8332435839693
844,837.8332435839693
907,0.0
908,0.0
971,0.0
972,0.0
1195,0.0
1197,0.0
2,2, 1, 7, 0, 9, 0.00,60.00,Tuesday
7,6.1
718,19.698156991644616
719,5.688949457308899
720,19.121455780864476
619,1108.203309208528
633,308.3632907717584
659,0.0
661,166.08742472070293
690,26.372412838318333
716,32.98449747612741
843,410.29395785937777
844,410.29395785937777
907,0.0
908,0.0
971,0.0
972,0.0
1195,0.0
1197,0.0
2,2, 1, 7, 0,10, 0.00,60.00,Tuesday
7,7.8
718,20.165506167559368
719,8.74160429878183
720,19.047220263043986
619,0.0
633,0.0
659,0.0
661,200.0
690,0.0
716,0.0
843,-325.9228767773857
844,-325.9228767773857
907,0.0
908,0.0
971,0.0
972,0.0
1195,0.0
1197,0.0
2,2, 1, 7, 0,11, 0.00,60.00,Tuesday
7,10.0
718,21.41978739344719
719,12.693802966822982
720,18.989864198937212
619,0.0
633,0.0
659,0.0
661,0.0
690,0.0
716,0.0
843,-1270.4954977306988
844,-1270.4954977306988
907,0.0
908,0.0
971,0.0
972,0.0
1195,0.0
1197,0.0
2,2, 1, 7, 0,12, 0.00,60.00,Tuesday
7,12.2
718,22.18000952807887
719,16.37538928046843
720,18.963359189764553
619,0.0
633,0.0
659,0.0
661,0.0
690,0.0
716,0.0
843,-2048.882583157485
844,-2048.882583157485
907,0.0
908,0.0
971,0.0
972,0.0
1195,0.0
1197,0.0
2,2, 1, 7, 0,13, 0.00,60.00,Tuesday
7,13.9
718,23.044369392116185
719,18.421104582098472
720,18.96755785116118
619,0.0
633,0.0
659,0.0
661,0.0
690,0.0
716,0.0
843,-2531.7860956767818
844,-2531.7860956767818
907,0.0
908,0.0
971,0.0
972,0.0
1195,0.0
1197,0.0
2,2, 1, 7, 0,14, 0.00,60.00,Tuesday
7,13.9
718,23.313570482544655
719,19.18078766820977
720,19.005557337810977
619,0.0
633,0.0
659,0.0
661,0.0
690,9.990118190463576
716,0.0
843,-2997.9119033810875
844,-2997.9119033810875
907,0.0
908,0.0
971,0.0
972,0.0
1195,0.0
1197,0.0
2,2, 1, 7, 0,15, 0.00,60.00,Tuesday
7,15.0
718,23.243857771546192
719,19.50320729613231
720,19.084929883774343
619,0.0
633,0.0
659,0.0
661,0.0
690,27.363092708549754
716,0.0
843,-4140.669506777707
844,-4140.669506777707
907,0.0
908,0.0
971,0.0
972,0.0
1195,0.0
1197,0.0
2,2, 1, 7, 0,16, 0.00,60.00,Tuesday
7,14.4
718,23.257473904241483
719,19.26645128912199
720,19.176190773170564
619,0.0
633,0.0
659,0.0
661,0.0
690,38.88414970765796
716,0.0
843,-5204.392725524662
844,-5204.392725524662
907,0.0
908,0.0
971,0.0
972,0.0
1195,0.0
1197,0.0
2,2, 1, 7, 0,17, 0.00,60.00,Tuesday
7,12.2
718,23.07110738814631
719,15.91892306947193
720,19.249065769892198
619,0.0
633,0.0
659,0.0
661,0.0
690,30.330250737027903
716,0.0
843,-5092.794790563796
844,-5092.794790563796
907,0.0
908,0.0
971,0.0
972,0.0
1195,0.0
1197,0.0
2,2, 1, 7, 0,18, 0.00,60.00,Tuesday
7,9.4
718,23.375622678415844
719,13.104903024992241
720,19.310969018569327
619,0.0
633,0.0
659,0.0
661,186.22838772233962
690,10.709615576067263
716,0.0
843,-4259.513759872712
844,-4259.513759872712
907,0.0
908,0.0
971,0.0
972,0.0
1195,0.0
1197,0.0
2,2, 1, 7, 0,19, 0.00,60.00,Tuesday
7,8.9
718,22.37192208564324
719,11.142028648389054
720,19.360320171308473
619,0.0
633,0.0
659,0.0
661,200.0
690,0.0
716,85.44000000000005
843,-3562.16957461972
844,-3562.16957461972
907,0.0
908,0.0
971,0.0
972,0.0
1195,0.0
1197,0.0
2,2, 1, 7, 0,20, 0.00,60.00,Tuesday
7,8.9
718,21.87907410614087
719,10.249867112846115
720,19.386581677873348
619,0.0
633,0.0
659,0.0
661,200.0
690,0.0
716,85.44000000000005
843,-3249.5290159077267
844,-3249.5290159077267
907,0.0
908,0.0
971,0.0
972,0.0
1195,0.0
1197,0.0
2,2, 1, 7, 0,21, 0.00,60.00,Tuesday
7,6.1
718,21.363970025040473
719,7.67740779668665
720,19.374646696235683
619,0.0
633,0.0
659,0.0
661,200.0
690,0.0
716,41.06693995111025
843,-2189.2037052517153
844,-2189.2037052517153
907,0.0
908,0.0
971,0.0
972,0.0
1195,0.0
1197,0.0
2,2, 1, 7, 0,22, 0.00,60.00,Tuesday
7,5.0
718,20.850034160485475
719,6.60176465370554
720,19.337586284881557
619,0.0
633,0.0
659,0.0
661,200.0
690,0.0
716,0.0
843,-1169.8849923646012
844,-1169.8849923646012
907,0.0
908,0.0
971,0.0
972,0.0
1195,0.0
1197,0.0
2,2, 1, 7, 0,23, 0.00,60.00,Tuesday
7,3.9
718,19.984377784596962
719,5.656303122018875
720,19.280405930550458
619,0.0
633,0.0
659,0.0
661,200.0
690,0.0
716,0.0
843,-1380.7524077893122
844,-1380.7524077893122
907,0.0
908,0.0
971,0.0
972,0.0
1195,0.0
1197,0.0
2,2, 1, 7, 0,24, 0.00,60.00,Tuesday
7,2.2
718,19.224988550749927
719,4.26950962609384
720,19.210334080495404
619,0.0
633,0.0
659,0.0
661,200.0
690,0.0
716,0.0
843,-606.5605552276556
844,-606.5605552276556
907,0.0
908,0.0
971,0.0
972,0.0
1195,0.0
1197,0.0
2,3, 1, 8, 0, 1, 0.00,60.00,Wednesday
7,0.6
718,18.61790558204579
719,3.078588355834941
720,19.03712023504438
619,1546.3458813469376
633,500.8892519093993
659,0.024212117740135233
661,138.64132018154072
690,47.71581952482981
716,0.0
843,1149.240612382302
844,1149.240612382302
907,0.0
908,0.0
971,0.0
972,0.0
1195,0.0
1197,0.0
2,3, 1, 8, 0, 2, 0.00,60.00,Wednesday
7,0.6
718,18.566749824438308
719,2.9018692527232344
720,18.89344289195563
619,2565.3419872733357
633,800.633612282283
659,0.03917999496066087
661,100.70952108022371
690,77.2136342739844
716,0.0
843,1924.649020408433
844,1924.649020408433
907,0.0
908,0.0
971,0.0
972,0.0
1195,0.0
1197,0.0
2,3, 1, 8, 0, 3, 0.00,60.00,Wednesday
7,-2.2
718,18.872688304614215
719,1.338356157886849
720,18.75759724273818
619,2838.3338592453006
633,922.2166708352863
659,0.04629574188042181
661,82.67669794575465
690,91.2366261091623
716,0.0
843,2113.626580380147
844,2113.626580380147
907,0.0
908,0.0
971,0.0
972,0.0
1195,0.0
1197,0.0
2,3, 1, 8, 0, 4, 0.00,60.00,Wednesday
7,-2.8
718,18.42109510021846
719,0.5287877298072927
720,18.60303763463908
619,3474.612696270737
633,1132.722965195765
659,0.056817377199431085
661,56.012625862728484
690,111.97188888156812
716,0.0
843,2507.4775272750376
844,2507.4775272750376
907,0.0
908,0.0
971,0.0
972,0.0
1195,0.0
1197,0.0
2,3, 1, 8, 0, 5, 0.00,60.00,Wednesday
7,-3.9
718,18.41469548079571
719,-0.0038680412491489094
720,18.40465124279106
619,4626.411791431952
633,1480.0334012102655
659,0.07562764286602128
661,8.343393426143653
690,149.0416837767655
716,0.0
843,3305.7894433248384
844,3305.7894433248384
907,0.0
908,0.0
971,0.0
972,0.0
1195,0.0
1197,0.0
2,3, 1, 8, 0, 6, 0.00,60.00,Wednesday
7,-5.0
718,19.106286988550412
719,-0.4581989491003967
720,18.272395689490416
619,4702.845922582213
633,1529.8474341700926
659,0.07891994355736189
661,0.0
690,155.53176142549194
716,85.44000000000005
843,4197.056287758376
844,4197.056287758376
907,0.0
908,0.0
971,0.0
972,0.0
1195,2080.5755078892316
1197,2080.5755078892316
2,3, 1, 8, 0, 7, 0.00,60.00,Wednesday
7,-5.6
718,19.454104957647214
719,-0.7906697054834939
720,18.164079328537888
619,4604.163629327192
633,1542.8355684417184
659,0.07891994355736189
661,0.0
690,155.53176142549194
716,85.44000000000005
843,3998.1634653483416
844,3998.1634653483416
907,0.0
908,0.0
971,0.0
972,0.0
1195,2082.922763226763
1197,2082.922763226763
2,3, 1, 8, 0, 8, 0.00,60.00,Wednesday
7,-5.6
718,19.612535681614332
719,-1.050594606584454
720,18.039141491224026
619,4595.232659616381
633,1553.199394492554
659,0.07891994355736189
661,0.0
690,155.53176142549194
716,51.03815380340098
843,3910.4454808298833
844,3910.4454808298833
907,0.0
908,0.0
971,0.0
972,0.0
1195,1605.095398777864
1197,1605.095398777864
2,3, 1, 8, 0, 9, 0.00,60.00,Wednesday
7,-5.0
718,19.690278512149344
719,-0.18303388187212796
720,17.917152575942193
619,4672.032807201164
633,1565.7674011534057
659,0.07891994355736189
661,0.0
690,155.53176142549194
716,0.0
843,3213.2026605133433
844,3213.2026605133433
907,0.0
908,0.0
971,0.0
972,0.0
1195,66.02937963406202
1197,66.02937963406202
2,3, 1, 8, 0,10, 0.00,60.00,Wednesday
7,-3.3
718,19.789021315968093
719,1.438987589171836
720,17.854351886678156
619,3034.0146805185223
633,1027.7096217547828
659,0.05097503320908966
661,70.81837388279644
690,100.45811576295236
716,0.0
843,2085.377528398096
844,2085.377528398096
907,0.0
908,0.0
971,0.0
972,0.0
1195,0.0
1197,0.0
2,3, 1, 8, 0,11, 0.00,60.00,Wednesday
7,-2.2
718,19.94127546974298
719,4.817510626018533
720,17.79432127364318
619,1542.1142659857899
633,531.7118260913903
659,0.02607267178654005
661,133.926278678622
690,51.38231657935403
716,0.0
843,1086.0601291515322
844,1086.0601291515322
907,0.0
908,0.0
971,0.0
972,0.0
1195,0.0
1197,0.0
2,3, 1, 8, 0,12, 0.00,60.00,Wednesday
7,-0.6
718,20.03108497406141
719,9.013593307814187
720,17.75525935286433
619,529.0919357295278
633,182.07151104816333
659,0.008778798932397459
661,177.75264771694444
690,17.300717035733133
716,0.0
843,389.64641586289326
844,389.64641586289326
907,0.0
908,0.0
971,0.0
972,0.0
1195,0.0
1197,0.0
2,3, 1, 8, 0,13, 0.00,60.00,Wednesday
7,0.0
718,20.45980760454324
719,15.531195558358302
720,17.734035562236446
619,0.0
633,0.0
659,0.0
661,200.0
690,0.0
716,0.0
843,-243.29263902983985
844,-243.29263902983985
907,0.0
908,0.0
971,0.0
972,0.0
1195,0.0
1197,0.0
2,3, 1, 8, 0,14, 0.00,60.00,Wednesday
7,0.0
718,20.92408388421283
719,18.572011941534186
720,17.730839599024133
619,0.0
633,0.0
659,0.0
661,200.0
690,0.0
716,0.0
843,-944.6199535523465
844,-944.6199535523465
907,0.0
908,0.0
971,0.0
972,0.0
1195,0.0
1197,0.0
2,3, 1, 8, 0,15, 0.00,60.00,Wednesday
7,2.2
718,21.769173153240345
719,16.857210198138368
720,17.748635751347166
619,0.0
633,0.0
659,0.0
661,200.0
690,0.0
716,0.0
843,-1713.9216820871916
844,-1713.9216820871916
907,0.0
908,0.0
971,0.0
972,0.0
1195,0.0
1197,0.0
2,3, 1, 8, 0,16, 0.00,60.00,Wednesday
7,1.7
718,21.33341733703424
719,14.812177184548426
720,17.786352469558384
619,0.0
633,0.0
659,0.0
661,200.0
690,0.0
716,85.44000000000005
843,-2271.2666081693533
844,-2271.2666081693533
907,0.0
908,0.0
971,0.0
972,0.0
1195,0.0
1197,0.0
2,3, 1, 8, 0,17, 0.00,60.00,Wednesday
7,1.1
718,21.675480060427642
719,12.325968235064684
720,17.833490753663153
619,0.0
633,0.0
659,0.0
661,200.0
690,0.0
716,65.14623255765596
843,-2765.5645803994757
844,-2765.5645803994757
907,0.0
908,0.0
971,0.0
972,0.0
1195,0.0
1197,0.0
2,3, 1, 8, 0,18, 0.00,60.00,Wednesday
7,0.0
718,22.005415223646036
719,8.77617736806754
720,17.89825497388745
619,0.0
633,0.0
659,0.0
661,200.0
690,0.0
716,0.0
843,-2216.640447982616
844,-2216.640447982616
907,0.0
908,0.0
971,0.0
972,0.0
1195,0.0
1197,0.0
2,3, 1, 8, 0,19, 0.00,60.00,Wednesday
7,0.0
718,21.467463067976375
719,5.833328245911652
720,17.947811235950073
619,0.0
633,0.0
659,0.0
661,200.0
690,0.0
716,0.0
843,-1504.5537940891918
844,-1504.5537940891918
907,0.0
908,0.0
971,0.0
972,0.0
1195,0.0
1197,0.0
2,3, 1, 8, 0,20, 0.00,60.00,Wednesday
7,0.0
718,20.36824721883193
719,3.842721482386674
720,17.9697351100261
619,0.0
633,0.0
659,0.0
661,200.0
690,0.0
716,85.44000000000005
843,-1261.903917547379
844,-1261.903917547379
907,0.0
908,0.0
971,0.0
972,0.0
1195,0.0
1197,0.0
2,3, 1, 8, 0,21, 0.00,60.00,Wednesday
7,-1.1
718,20.033600670819286
719,2.0155342432193155
720,17.961315506956133
619,0.0
633,0.0
659,0.0
661,200.0
690,0.0
716,43.28622452937152
843,-761.4138186859818
844,-761.4138186859818
907,0.0
908,0.0
971,0.0
972,0.0
1195,0.0
1197,0.0
2,3, 1, 8, 0,22, 0.00,60.00,Wednesday
7,-0.6
718,19.79933207979394
719,1.115957205965442
720,17.925041127923492
619,0.0
633,0.0
659,0.0
661,200.0
690,0.0
716,0.0
843,-70.77966421070778
844,-70.77966421070778
907,0.0
908,0.0
971,0.0
972,0.0
1195,0.0
1197,0.0
2,3, 1, 8, 0,23, 0.00,60.00,Wednesday
7,-1.7
718,18.926782835495015
719,-0.08316220953694205
720,17.871109147592627
619,0.0
633,0.0
659,0.0
661,200.0
690,0.0
716,0.0
843,-265.0973453951701
844,-265.0973453951701
907,0.0
908,0.0
971,0.0
972,0.0
1195,0.0
1197,0.0
2,3, 1, 8, 0,24, 0.00,60.00,Wednesday
7,-1.7
718,18.632844753943097
719,-1.492274995697803
720,17.79105378773487
619,420.20957450225376
633,144.31677503753835
659,0.0071660413293501935
661,181.83972008509699
690,14.122375198659299
716,0.0
843,268.7712654598381
844,268.7712654598381
907,0.0
908,0.0
971,0.0
972,0.0
1195,0.0
1197,0.0
2,4, 1, 9, 0, 1, 0.00,60.00,Thursday
7,-1.0
718,18.639074962139425
719,-1.1044737363762231
720,17.69158225425031
619,1081.3680191668295
633,358.2981360392361
659,0.0177907199076441
661,154.9145143655275
690,35.06084171551596
716,0.0
843,769.3345723890052
844,769.3345723890052
907,0.0
908,0.0
971,0.0
972,0.0
1195,0.0
1197,0.0
2,4, 1, 9, 0, 2, 0.00,60.00,Thursday
7,-0.6
718,18.622072115048336
719,-0.7736465981136867
720,17.60178320302049
619,1418.3311007958177
633,463.02215940475884
659,0.022911457245592744
661,141.93747179015693
690,45.15249315857173
716,0.0
843,1011.728912053657
844,1011.728912053657
907,0.0
908,0.0
971,0.0
972,0.0
1195,0.0
1197,0.0
2,4, 1, 9, 0, 3, 0.00,60.00,Thursday
7,0.0
718,18.525034274780268
719,0.32583121861327985
720,17.50638985833921
619,1977.5386357179202
633,630.5969674659171
659,0.031055473920138063
661,121.29879338404285
690,61.20226386615441
716,0.0
843,1419.590207698966
844,1419.590207698966
907,0.0
908,0.0
971,0.0
972,0.0
1195,0.0
1197,0.0
2,4, 1, 9, 0, 4, 0.00,60.00,Thursday
7,0.0
718,18.542626037819346
719,1.143290500416085
720,17.403462982085063
619,2482.152789990373
633,780.8634888030648
659,0.038535322840862925
661,102.34325798052795
690,75.94310140427869
716,0.0
843,1805.9594052710981
844,1805.9594052710981
907,0.0
908,0.0
971,0.0
972,0.0
1195,0.0
1197,0.0
2,4, 1, 9, 0, 5, 0.00,60.00,Thursday
7,0.6
718,18.578036751216718
719,1.8698237156720192
720,17.317532896642955
619,2694.228164204442
633,835.5995374200477
659,0.041008467516978564
661,96.0757809281196
690,80.81708101649674
716,0.0
843,1979.081367253697
844,1979.081367253697
907,0.0
908,0.0
971,0.0
972,0.0
1195,0.0
1197,0.0
2,4, 1, 9, 0, 6, 0.00,60.00,Thursday
7,1.0
718,19.40852186021045
719,2.8267728268411956
720,17.217564489058667
619,3944.313555183842
633,1184.9209890213945
659,0.057917099358229744
661,53.225694931893884
690,114.13967027069175
716,0.0
843,2914.8969418167508
844,2914.8969418167508
907,0.0
908,0.0
971,0.0
972,0.0
1195,0.0
1197,0.0
2,4, 1, 9, 0, 7, 0.00,60.00,Thursday
7,1.0
718,19.54861473249352
719,3.379930895850722
720,17.162761358846886
619,5105.358755869767
633,1527.7710906553068
659,0.07348629223225539
661,13.7700334799584
690,144.82253194834186
716,85.44000000000005
843,2757.6068910204267
844,2757.6068910204267
907,0.0
908,0.0
971,0.0
972,0.0
1195,0.0
1197,0.0
2,4, 1, 9, 0, 8, 0.00,60.00,Thursday
7,0.6
718,19.63984605076166
719,3.6121989717410137
720,17.085633004665855
619,5051.802342156962
633,1527.6691513499272
659,0.07354516318408974
661,13.620841908903692
690,144.93848694877255
716,85.44000000000005
843,2715.2082408795977
844,2715.2082408795977
907,0.0
908,0.0
971,0.0
972,0.0
1195,0.0
1197,0.0
2,4, 1, 9, 0, 9, 0.00,60.00,Thursday
7,1.7
718,19.74719553934926
719,4.776436903751971
720,17.033271821787565
619,3481.3177044401973
633,1071.0242120662763
659,10.474812151735083
661,69.03731584640967
690,101.7382950265635
716,54.99015145166896
843,1987.671725558026
844,1987.671725558026
907,0.0
908,0.0
971,0.0
972,0.0
1195,0.0
1197,0.0
2,4, 1, 9, 0,10, 0.00,60.00,Thursday
7,2.0
718,19.794225766999208
719,5.478811443712201
720,16.97150718621581
619,2324.9332261023246
633,731.1659084911139
659,5.874432050231801
661,111.25308365461879
690,68.95914953529126
716,0.0
843,1743.5565130138802
844,1743.5565130138802
907,0.0
908,0.0
971,0.0
972,0.0
1195,0.0
1197,0.0
2,4, 1, 9, 0,11, 0.00,60.00,Thursday
7,5.0
718,19.70767462572295
719,7.720012924515054
720,16.922448818731954
619,1051.7365891408124
633,324.2487955130332
659,8.79679243036666
661,160.69493376651042
690,30.532186831659036
716,0.0
843,797.0846226837657
844,797.0846226837657
907,0.0
908,0.0
971,0.0
972,0.0
1195,0.0
1197,0.0
2,4, 1, 9, 0,12, 0.00,60.00,Thursday
7,7.8
718,19.997682683465516
719,11.733543236855112
720,16.884287370004245
619,57.662974643721434
633,15.932741955820587
659,0.0
661,198.27870750030158
690,1.338578272032921
716,0.0
843,43.73167858443594
844,43.73167858443594
907,0.0
908,0.0
971,0.0
972,0.0
1195,0.0
1197,0.0
2,4, 1, 9, 0,13, 0.00,60.00,Thursday
7,8.9
718,20.655648697903782
719,15.357882242289163
720,16.881666511043043
619,0.0
633,0.0
659,0.0
661,200.0
690,0.0
716,0.0
843,-694.2297854007975
844,-694.2297854007975
907,0.0
908,0.0
971,0.0
972,0.0
1195,0.0
1197,0.0
2,4, 1, 9, 0,14, 0.00,60.00,Thursday
7,8.9
718,21.28251009852873
719,16.754368245170895
720,16.908527005710706
619,0.0
633,0.0
659,0.0
661,200.0
690,0.0
716,0.0
843,-1131.8854277374267
844,-1131.8854277374267
907,0.0
908,0.0
971,0.0
972,0.0
1195,0.0
1197,0.0
2,4, 1, 9, 0,15, 0.00,60.00,Thursday
7,11.1
718,22.421844128593452
719,17.295478340819415
720,16.961333473945363
619,0.0
633,0.0
659,0.0
661,0.0
690,0.0
716,0.0
843,-1963.1922663823116
844,-1963.1922663823116
907,0.0
908,0.0
971,0.0
972,0.0
1195,0.0
1197,0.0
2,4, 1, 9, 0,16, 0.00,60.00,Thursday
7,11.1
718,22.810337716885208
719,16.262013406071308
720,17.032532816817277
619,0.0
633,0.0
659,0.0
661,0.0
690,0.0
716,0.0
843,-2170.4939197772674
844,-2170.4939197772674
907,0.0
908,0.0
971,0.0
972,0.0
1195,0.0
1197,0.0
2,4, 1, 9, 0,17, 0.00,60.00,Thursday
7,10.0
718,22.498395602401573
719,14.934742789578516
720,17.116525427524007
619,0.0
633,0.0
659,0.0
661,0.0
690,0.0
716,65.9797809675379
843,-2820.367601183223
844,-2820.367601183223
907,0.0
908,0.0
971,0.0
972,0.0
1195,0.0
1197,0.0
2,4, 1, 9, 0,18, 0.00,60.00,Thursday
7,9.4
718,23.268159446283786
719,12.981852538127601
720,17.206549666358868
619,0.0
633,0.0
659,0.0
661,200.0
690,0.0
716,0.0
843,-2991.1523887180792
844,-2991.1523887180792
907,0.0
908,0.0
971,0.0
972,0.0
1195,0.0
1197,0.0
2,4, 1, 9, 0,19, 0.00,60.00,Thursday
7,8.9
718,22.015036611383117
719,11.440296740130309
720,17.28700106295454
619,0.0
633,0.0
659,0.0
661,200.0
690,0.0
716,85.44000000000005
843,-2317.7240597996843
844,-2317.7240597996843
907,0.0
908,0.0
971,0.0
972,0.0
1195,0.0
1197,0.0
2,4, 1, 9, 0,20, 0.00,60.00,Thursday
7,8.9
718,22.157879768891906
719,10.118975615105526
720,17.347776046488036
619,0.0
633,0.0
659,0.0
661,200.0
690,0.0
716,47.362239864895834
843,-2832.394693138058
844,-2832.394693138058
907,0.0
908,0.0
971,0.0
972,0.0
1195,0.0
1197,0.0
2,4, 1, 9, 0,21, 0.00,60.00,Thursday
7,8.3
718,22.06284242472104
719,9.142747347419732
720,17.38086165419434
619,0.0
633,0.0
659,0.0
661,200.0
690,0.0
716,0.0
843,-1963.3769973036415
844,-1963.3769973036415
907,0.0
908,0.0
971,0.0
972,0.0
1195,0.0
1197,0.0
2,4, 1, 9, 0,22, 0.00,60.00,Thursday
7,7.2
718,22.04920621579316
719,8.478077700893857
720,17.399471841917464
619,0.0
633,0.0
659,0.0
661,200.0
690,0.0
716,0.0
843,-1826.4213957116845
844,-1826.4213957116845
907,0.0
908,0.0
971,0.0
972,0.0
1195,0.0
1197,0.0
2,4, 1, 9, 0,23, 0.00,60.00,Thursday
7,7.8
718,21.518875158848406
719,8.064377972360253
720,17.39787290494111
619,0.0
633,0.0
659,0.0
661,200.0
690,0.0
716,0.0
843,-1993.3362871871159
844,-1993.3362871871159
907,0.0
908,0.0
971,0.0
972,0.0
1195,0.0
1197,0.0
2,4, 1, 9, 0,24, 0.00,60.00,Thursday
7,6.7
718,20.775616254970533
719,7.560193045711972
720,17.38356518525017
619,0.0
633,0.0
659,0.0
661,200.0
690,0.0
716,0.0
843,-1527.3401252353942
844,-1527.3401252353942
907,0.0
908,0.0
971,0.0
972,0.0
1195,0.0
1197,0.0
2,5, 1,10, 0, 1, 0.00,60.00,Friday
7,6.7
718,19.96247518258917
719,6.976225168537251
720,17.356464088363897
619,0.0
633,0.0
659,0.0
661,200.0
690,0.0
716,0.0
843,-1000.9099391741256
844,-1000.9099391741256
907,0.0
908,0.0
971,0.0
972,0.0
1195,0.0
1197,0.0
2,5, 1,10, 0, 2, 0.00,60.00,Friday
7,6.7
718,19.38452592026766
719,6.820512482658899
720,17.320783885661555