Program Version,EnergyPlus, Version 22.2.0-c249759bad, YMD=2023.09.01 20:35
1,5,Environment Title[],Latitude[deg],Longitude[deg],Time Zone[],Elevation[m]
2,8,Day of Simulation[],Month[],Day of Month[],DST Indicator[1=yes 0=no],Hour[],StartMinute[],EndMinute[],DayType
3,5,Cumulative Day of Simulation[],Month[],Day of Month[],DST Indicator[1=yes 0=no],DayType  ! When Daily Report Variables Requested
4,2,Cumulative Days of Simulation[],Month[]  ! When Monthly Report Variables Requested
5,1,Cumulative Days of Simulation[] ! When Run Period Report Variables Requested
6,1,Calendar Year of Simulation[] ! When Annual Report Variables Requested
581,11,LIVING,AFN Zone Infiltration Air Change Rate [ach] !RunPeriod [Value,Min,Month,Day,Hour,Minute,Max,Month,Day,Hour,Minute]
582,11,ATTIC,AFN Zone Infiltration Air Change Rate [ach] !RunPeriod [Value,Min,Month,Day,Hour,Minute,Max,Month,Day,Hour,Minute]
583,11,CRAWLSPACE,AFN Zone Infiltration Air Change Rate [ach] !RunPeriod [Value,Min,Month,Day,Hour,Minute,Max,Month,Day,Hour,Minute]
1038,11,Facility,Facility Heating Setpoint Not Met Time [hr] !RunPeriod [Value,Min,Month,Day,Hour,Minute,Max,Month,Day,Hour,Minute]
1039,11,Facility,Facility Cooling Setpoint Not Met Time [hr] !RunPeriod [Value,Min,Month,Day,Hour,Minute,Max,Month,Day,Hour,Minute]
1115,11,DX_HEATING_COIL,Heating Coil Heating Energy [J] !RunPeriod [Value,Min,Month,Day,Hour,Minute,Max,Month,Day,Hour,Minute]
1128,11,DX_HEATING_COIL,Heating Coil Electricity Energy [J] !RunPeriod [Value,Min,Month,Day,Hour,Minute,Max,Month,Day,Hour,Minute]
1153,11,DX_HEATING_COIL,Heating Coil Defrost Electricity Energy [J] !RunPeriod [Value,Min,Month,Day,Hour,Minute,Max,Month,Day,Hour,Minute]
1154,11,DX_HEATING_COIL,Heating Coil Crankcase Heater Electricity Energy [J] !RunPeriod [Value,Min,Month,Day,Hour,Minute,Max,Month,Day,Hour,Minute]
1155,11,HEATING_RESISTANCE_BACKUP,Heating Coil Heating Energy [J] !RunPeriod [Value,Min,Month,Day,Hour,Minute,Max,Month,Day,Hour,Minute]
1156,11,HEATING_RESISTANCE_BACKUP,Heating Coil Electricity Energy [J] !RunPeriod [Value,Min,Month,Day,Hour,Minute,Max,Month,Day,Hour,Minute]
1292,11,WATER HEATER,Water Heater Heat Loss Energy [J] !RunPeriod [Value,Min,Month,Day,Hour,Minute,Max,Month,Day,Hour,Minute]
1306,11,WATER HEATER,Water Heater Heating Energy [J] !RunPeriod [Value,Min,Month,Day,Hour,Minute,Max,Month,Day,Hour,Minute]
1307,11,WATER HEATER,Water Heater Unmet Demand Heat Transfer Energy [J] !RunPeriod [Value,Min,Month,Day,Hour,Minute,Max,Month,Day,Hour,Minute]
1308,11,WATER HEATER,Water Heater Electricity Energy [J] !RunPeriod [Value,Min,Month,Day,Hour,Minute,Max,Month,Day,Hour,Minute]
13,11,Electricity:Facility [J] !RunPeriod [Value,Min,Month,Day,Hour,Minute,Max,Month,Day,Hour,Minute]
1134,11,Heating:Electricity [J] !RunPeriod [Value,Min,Month,Day,Hour,Minute,Max,Month,Day,Hour,Minute]
1096,11,Cooling:Electricity [J] !RunPeriod [Value,Min,Month,Day,Hour,Minute,Max,Month,Day,Hour,Minute]
562,11,Fans:Electricity [J] !RunPeriod [Value,Min,Month,Day,Hour,Minute,Max,Month,Day,Hour,Minute]
1379,11,Pumps:Electricity [J] !RunPeriod [Value,Min,Month,Day,Hour,Minute,Max,Month,Day,Hour,Minute]
1326,11,WaterSystems:Electricity [J] !RunPeriod [Value,Min,Month,Day,Hour,Minute,Max,Month,Day,Hour,Minute]
61,11,InteriorLights:Electricity [J] !RunPeriod [Value,Min,Month,Day,Hour,Minute,Max,Month,Day,Hour,Minute]
1046,11,ExteriorLights:Electricity [J] !RunPeriod [Value,Min,Month,Day,Hour,Minute,Max,Month,Day,Hour,Minute]
134,11,InteriorEquipment:Electricity [J] !RunPeriod [Value,Min,Month,Day,Hour,Minute,Max,Month,Day,Hour,Minute]
170,11,gas_dryer:InteriorEquipment:Electricity [J] !RunPeriod [Value,Min,Month,Day,Hour,Minute,Max,Month,Day,Hour,Minute]
207,11,clotheswasher:InteriorEquipment:Electricity [J] !RunPeriod [Value,Min,Month,Day,Hour,Minute,Max,Month,Day,Hour,Minute]
244,11,dishwasher:InteriorEquipment:Electricity [J] !RunPeriod [Value,Min,Month,Day,Hour,Minute,Max,Month,Day,Hour,Minute]
281,11,refrigerator:InteriorEquipment:Electricity [J] !RunPeriod [Value,Min,Month,Day,Hour,Minute,Max,Month,Day,Hour,Minute]
318,11,electric_mels:InteriorEquipment:Electricity [J] !RunPeriod [Value,Min,Month,Day,Hour,Minute,Max,Month,Day,Hour,Minute]
355,11,NaturalGas:Facility [J] !RunPeriod [Value,Min,Month,Day,Hour,Minute,Max,Month,Day,Hour,Minute]
403,11,InteriorEquipment:NaturalGas [J] !RunPeriod [Value,Min,Month,Day,Hour,Minute,Max,Month,Day,Hour,Minute]
476,11,gas_dryer:InteriorEquipment:NaturalGas [J] !RunPeriod [Value,Min,Month,Day,Hour,Minute,Max,Month,Day,Hour,Minute]
513,11,gas_mels:InteriorEquipment:NaturalGas [J] !RunPeriod [Value,Min,Month,Day,Hour,Minute,Max,Month,Day,Hour,Minute]
End of Data Dictionary
1,EXTREME_WINTER,  30.41, -89.07,  -6.00,  16.00
5,7
1038,0.5,0.0, 1, 6, 1,15,0.25, 1, 8, 6,15
1039,5.25,0.0, 1, 6, 1,15,0.25, 1, 6,13,45
581,0.27767801562063926,0.08775477061096865, 1,12, 8, 7,0.6747473037270496, 1, 7,20,52
582,3.6680061746041317,0.0, 1, 6, 6, 3,12.880933371266282, 1,11,24,52
583,0.01673034411017263,0.0001483937532706912, 1,12, 7,52,0.07218284869805534, 1, 8, 4,60
1115,515033853.09653413,0.0, 1, 6, 1,15,4242194.787303297, 1,10, 6,60
1128,159040209.2302736,0.0, 1, 6, 1,15,1288137.4020943476, 1,10, 6,60
1153,2743257.910308779,0.0, 1, 6, 1,15,62391.49016647089, 1, 6, 7,30
1154,57932017.552783996,0.0, 1, 6, 6, 3,180000.0, 1, 6, 1,15
1155,28563780.640611067,0.0, 1, 6, 1,15,1928492.8097286562, 1, 8, 6,45
1156,28563780.640611067,0.0, 1, 6, 1,15,1928492.8097286562, 1, 8, 6,45
1292,-24318628.832328636,-39724.786696522635, 1,10, 5,30,-3415.0428148011642, 1, 8,11,60
1306,191107007.02449736,0.0, 1, 6, 1,15,3825112.768098366, 1, 9,19,45
1307,22881516.273871265,0.0, 1, 6, 1,15,4736337.705365363, 1,12,19,60
1308,191107007.02449736,0.0, 1, 6, 1,15,3825112.768098366, 1, 9,19,45
13,864542529.3288653,152071.80019841267, 1,12, 4,15,6823413.235953502, 1, 8, 7,60
61,301924526.02383536,88139.10953165221, 1, 6, 1,15,1282023.4113694867, 1, 6,20,15
134,70666020.44019976,63564.01800854099, 1, 6, 4,15,156554.22484006523, 1,11,20,15
170,5241013.419656067,348.4159749238097, 1, 6, 4,15,17476.39704006126, 1,11,12,15
207,6509451.13922267,815.2532113832032, 1, 6, 3,15,22990.642799023623, 1,11,10,15
244,12749673.399825225,1521.856143006317, 1, 6, 4,15,53038.631142310165, 1,11,20,15
281,46165882.481495745,59938.60262432081, 1, 6, 5,15,81951.81706819107, 1, 6,19,15
318,0.0,0.0, 1, 6, 1,15,0.0, 1, 6, 1,15
355,197687796.27748066,18561.32405820678, 1, 6, 4,15,724774.895203776, 1,11,18,15
403,197687796.27748066,18561.32405820678, 1, 6, 4,15,724774.895203776, 1,11,18,15
476,106772067.24485716,7098.072629279515, 1, 6, 4,15,356036.3026282215, 1,11,12,15
513,0.0,0.0, 1, 6, 1,15,0.0, 1, 6, 1,15
562,19659628.949820608,0.0, 1, 6, 1,15,127431.16016955992, 1, 8, 4,30
1046,0.0,0.0, 1, 6, 1,15,0.0, 1, 6, 1,15
1096,32906081.556536093,0.0, 1, 6, 1,15,840602.8012315799, 1,12,15,30
1134,248279265.33397758,0.0, 1, 6,10,60,3674064.9436759185, 1, 8, 6,15
1326,191107007.0244973,0.0, 1, 6, 1,15,4050000.0, 1, 7,20,30
1379,0.0,0.0, 1, 6, 1,15,0.0, 1, 6, 1,15
1,EXTREME_SUMMER,  30.41, -89.07,  -6.00,  16.00
5,7
1038,0.0,0.0, 7, 6, 1,15,0.0, 7, 6, 1,15
1039,56.0,0.0, 7, 6, 1,15,0.25, 7, 6,12,45
581,0.08938341630163421,0.0, 7, 8, 5,37,0.3135722994943452, 7,10,15,52
582,2.5778602001213997,0.03417776267490322, 7,10,19,57,9.285231201168079, 7, 9,12,46
583,0.044000453010227106,0.0, 7, 9,23, 3,0.06535801324805503, 7,12,15,48
1115,0.0,0.0, 7, 6, 1,15,0.0, 7, 6, 1,15
1128,0.0,0.0, 7, 6, 1,15,0.0, 7, 6, 1,15
1153,0.0,0.0, 7, 6, 1,15,0.0, 7, 6, 1,15
1154,0.0,0.0, 7, 6, 1,15,0.0, 7, 6, 1,15
1155,0.0,0.0, 7, 6, 1,15,0.0, 7, 6, 1,15
1156,0.0,0.0, 7, 6, 1,15,0.0, 7, 6, 1,15
1292,-21835709.989340402,-33864.09388818069, 7, 9,22,15,-3357.87743459206, 7, 9,10,59
1306,133454476.91295387,0.0, 7, 6, 1,15,2217784.9463223214, 7, 8, 6,45
1307,6251326.833590178,0.0, 7, 6, 1,15,1001750.4242258465, 7,12,19,51
1308,133454476.91295387,0.0, 7, 6, 1,15,2217784.9463223214, 7, 8, 6,45
13,1180579976.9133584,240518.90038163745, 7,12, 4,60,6850529.8887947425, 7,12,20,15
61,301924526.02383536,88139.10953165221, 7, 6, 1,15,1282023.4113694867, 7, 6,20,15
134,70666020.44019976,63564.01800854099, 7, 6, 4,15,156554.22484006523, 7,11,20,15
170,5241013.419656067,348.4159749238097, 7, 6, 4,15,17476.39704006126, 7,11,12,15
207,6509451.13922267,815.2532113832032, 7, 6, 3,15,22990.642799023623, 7,11,10,15
244,12749673.399825225,1521.856143006317, 7, 6, 4,15,53038.631142310165, 7,11,20,15
281,46165882.481495745,59938.60262432081, 7, 6, 5,15,81951.81706819107, 7, 6,19,15
318,0.0,0.0, 7, 6, 1,15,0.0, 7, 6, 1,15
355,197687796.27748066,18561.32405820678, 7, 6, 4,15,724774.895203776, 7,11,18,15
403,197687796.27748066,18561.32405820678, 7, 6, 4,15,724774.895203776, 7,11,18,15
476,106772067.24485716,7098.072629279515, 7, 6, 4,15,356036.3026282215, 7,11,12,15
513,0.0,0.0, 7, 6, 1,15,0.0, 7, 6, 1,15
562,60590241.28113127,8867.29202423669, 7,12, 4,60,127431.16016955994, 7, 6,10,60
1046,0.0,0.0, 7, 6, 1,15,0.0, 7, 6, 1,15
1096,613944712.2552397,79579.80815898809, 7,12, 4,60,1390878.79244434, 7,10,15,60
1134,0.0,0.0, 7, 6, 1,15,0.0, 7, 6, 1,15
1326,133454476.91295393,0.0, 7, 6, 1,15,4050000.0, 7,10, 6,60
1379,0.0,0.0, 7, 6, 1,15,0.0, 7, 6, 1,15
1,ANNUAL,  30.41, -89.07,  -6.00,  16.00
5,365
1038,2.25,0.0, 1, 1, 1,15,0.25, 1, 5, 6,15
1039,1214.0,0.0, 1, 1, 1,15,0.25, 1, 2,17,45
581,0.17753128420778008,0.0, 3,26, 7,50,1.082413847155673, 8,29,14,49
582,3.311147817893527,0.0, 1, 5,21,52,23.62010793565493, 8,29,14,47
583,0.028554899301038966,0.0, 4,28,23, 7,0.0769338681393316, 8,29,14,60
1115,2265035592.312088,0.0, 1, 1, 1, 7,4243210.840490756, 1,10, 6,60
1128,682466709.3829563,0.0, 1, 1, 1, 7,1286922.505802223, 1,10, 6,60
1153,28729426.086966403,0.0, 1, 1, 1, 7,98146.30339456962, 1,16, 6,45
1154,669244215.6316975,0.0, 1, 1, 1, 7,180000.0, 1, 1, 3,45
1155,45300347.12582408,0.0, 1, 1, 1, 7,2049551.510616389, 1, 8, 6,45
1156,45300347.12582408,0.0, 1, 1, 1, 7,2049551.510616389, 1, 8, 6,45
1292,-1168154064.1281276,-39770.23607422646, 2, 6, 2,60,-2302.0687342931087, 7,30,13,32
1306,8484420504.1253395,0.0, 1, 1, 1, 7,4050000.0, 1, 1,20,15
1307,743544863.7249322,0.0, 1, 1, 1, 7,8832047.144148381, 1,15,19,60
1308,8484420504.1253395,0.0, 1, 1, 1, 7,4050000.0, 1, 1,20,15
13,48211056756.89844,151703.1275401932, 1, 2, 4,15,6926052.749968452, 6,25,20,15
61,15743207428.383959,88139.10953165221, 1, 1, 1,15,1282023.4113694867, 1, 1,20,15
134,3685071073.4325233,63564.01800854099, 1, 2, 4,15,156554.22484006523, 1, 1,20,15
170,273393721.45532674,348.4159749238097, 1, 2, 4,15,17476.39704006126, 1, 1,12,15
207,339560869.0695816,815.2532113832032, 1, 2, 3,15,22990.642799023623, 1, 1,10,15
244,664895467.8009144,1521.856143006317, 1, 2, 4,15,53038.631142310165, 1, 1,20,15
281,2407221015.106824,59938.60262432081, 1, 1, 5,15,81951.81706819107, 1, 1,19,15
318,0.0,0.0, 1, 1, 1,15,0.0, 1, 1, 1,15
355,10310294493.051695,18561.32405820678, 1, 2, 4,15,724774.895203776, 1, 1,18,15
403,10310294493.051695,18561.32405820678, 1, 2, 4,15,724774.895203776, 1, 1,18,15
476,5569688622.066177,7098.072629279515, 1, 2, 4,15,356036.3026282215, 1, 1,12,15
513,0.0,0.0, 1, 1, 1,15,0.0, 1, 1, 1,15
562,1888110170.605453,0.0, 1, 1, 1,15,127431.16016955995, 7,30,13,30
1046,0.0,0.0, 1, 1, 1,15,0.0, 1, 1, 1,15
1096,16984506882.12241,0.0, 1, 1, 1,15,1511582.0544050578, 6,27,15,60
1134,1425740698.2274456,0.0, 1, 1, 1,15,3800996.6842995062, 1, 8, 6,15
1326,8484420504.125371,0.0, 1, 1, 1,15,4050000.0000000014, 1,29,10,15
1379,0.0,0.0, 1, 1, 1,15,0.0, 1, 1, 1,15
End of Data
 Number of Records Written=          99
