Program Version,EnergyPlus, Version 22.2.0-c249759bad, YMD=2023.07.07 15:20
1,5,Environment Title[],Latitude[deg],Longitude[deg],Time Zone[],Elevation[m]
2,8,Day of Simulation[],Month[],Day of Month[],DST Indicator[1=yes 0=no],Hour[],StartMinute[],EndMinute[],DayType
3,5,Cumulative Day of Simulation[],Month[],Day of Month[],DST Indicator[1=yes 0=no],DayType  ! When Daily Report Variables Requested
4,2,Cumulative Days of Simulation[],Month[]  ! When Monthly Report Variables Requested
5,1,Cumulative Days of Simulation[] ! When Run Period Report Variables Requested
6,1,Calendar Year of Simulation[] ! When Annual Report Variables Requested
581,11,LIVING,AFN Zone Infiltration Air Change Rate [ach] !RunPeriod [Value,Min,Month,Day,Hour,Minute,Max,Month,Day,Hour,Minute]
582,11,ATTIC,AFN Zone Infiltration Air Change Rate [ach] !RunPeriod [Value,Min,Month,Day,Hour,Minute,Max,Month,Day,Hour,Minute]
583,11,CRAWLSPACE,AFN Zone Infiltration Air Change Rate [ach] !RunPeriod [Value,Min,Month,Day,Hour,Minute,Max,Month,Day,Hour,Minute]
1038,11,Facility,Facility Heating Setpoint Not Met Time [hr] !RunPeriod [Value,Min,Month,Day,Hour,Minute,Max,Month,Day,Hour,Minute]
1039,11,Facility,Facility Cooling Setpoint Not Met Time [hr] !RunPeriod [Value,Min,Month,Day,Hour,Minute,Max,Month,Day,Hour,Minute]
1115,11,DX_HEATING_COIL,Heating Coil Heating Energy [J] !RunPeriod [Value,Min,Month,Day,Hour,Minute,Max,Month,Day,Hour,Minute]
1128,11,DX_HEATING_COIL,Heating Coil Electricity Energy [J] !RunPeriod [Value,Min,Month,Day,Hour,Minute,Max,Month,Day,Hour,Minute]
1153,11,DX_HEATING_COIL,Heating Coil Defrost Electricity Energy [J] !RunPeriod [Value,Min,Month,Day,Hour,Minute,Max,Month,Day,Hour,Minute]
1154,11,DX_HEATING_COIL,Heating Coil Crankcase Heater Electricity Energy [J] !RunPeriod [Value,Min,Month,Day,Hour,Minute,Max,Month,Day,Hour,Minute]
1156,11,HEATING_RESISTANCE_BACKUP,Heating Coil Electricity Energy [J] !RunPeriod [Value,Min,Month,Day,Hour,Minute,Max,Month,Day,Hour,Minute]
13,11,Electricity:Facility [J] !RunPeriod [Value,Min,Month,Day,Hour,Minute,Max,Month,Day,Hour,Minute]
1134,11,Heating:Electricity [J] !RunPeriod [Value,Min,Month,Day,Hour,Minute,Max,Month,Day,Hour,Minute]
1096,11,Cooling:Electricity [J] !RunPeriod [Value,Min,Month,Day,Hour,Minute,Max,Month,Day,Hour,Minute]
562,11,Fans:Electricity [J] !RunPeriod [Value,Min,Month,Day,Hour,Minute,Max,Month,Day,Hour,Minute]
1388,11,Pumps:Electricity [J] !RunPeriod [Value,Min,Month,Day,Hour,Minute,Max,Month,Day,Hour,Minute]
1360,11,WaterSystems:Electricity [J] !RunPeriod [Value,Min,Month,Day,Hour,Minute,Max,Month,Day,Hour,Minute]
61,11,InteriorLights:Electricity [J] !RunPeriod [Value,Min,Month,Day,Hour,Minute,Max,Month,Day,Hour,Minute]
1046,11,ExteriorLights:Electricity [J] !RunPeriod [Value,Min,Month,Day,Hour,Minute,Max,Month,Day,Hour,Minute]
134,11,InteriorEquipment:Electricity [J] !RunPeriod [Value,Min,Month,Day,Hour,Minute,Max,Month,Day,Hour,Minute]
170,11,gas_dryer:InteriorEquipment:Electricity [J] !RunPeriod [Value,Min,Month,Day,Hour,Minute,Max,Month,Day,Hour,Minute]
207,11,clotheswasher:InteriorEquipment:Electricity [J] !RunPeriod [Value,Min,Month,Day,Hour,Minute,Max,Month,Day,Hour,Minute]
244,11,dishwasher:InteriorEquipment:Electricity [J] !RunPeriod [Value,Min,Month,Day,Hour,Minute,Max,Month,Day,Hour,Minute]
281,11,refrigerator:InteriorEquipment:Electricity [J] !RunPeriod [Value,Min,Month,Day,Hour,Minute,Max,Month,Day,Hour,Minute]
318,11,electric_mels:InteriorEquipment:Electricity [J] !RunPeriod [Value,Min,Month,Day,Hour,Minute,Max,Month,Day,Hour,Minute]
355,11,NaturalGas:Facility [J] !RunPeriod [Value,Min,Month,Day,Hour,Minute,Max,Month,Day,Hour,Minute]
1323,11,WaterSystems:NaturalGas [J] !RunPeriod [Value,Min,Month,Day,Hour,Minute,Max,Month,Day,Hour,Minute]
403,11,InteriorEquipment:NaturalGas [J] !RunPeriod [Value,Min,Month,Day,Hour,Minute,Max,Month,Day,Hour,Minute]
476,11,gas_dryer:InteriorEquipment:NaturalGas [J] !RunPeriod [Value,Min,Month,Day,Hour,Minute,Max,Month,Day,Hour,Minute]
513,11,gas_mels:InteriorEquipment:NaturalGas [J] !RunPeriod [Value,Min,Month,Day,Hour,Minute,Max,Month,Day,Hour,Minute]
End of Data Dictionary
1,EXTREME_WINTER,  41.80, -78.63,  -5.00, 652.90
5,7
1038,5.5,0.0,12,15, 1,10,0.16666666666666666,12,16, 6,10
1039,0.0,0.0,12,15, 1,10,0.0,12,15, 1,10
581,0.34066393371239667,0.14357187352019368,12,19, 3,60,0.7245769014392492,12,16, 9,55
582,4.730394795696789,0.0,12,20,23, 7,15.461083203230928,12,16, 9,55
583,5.637658680571733,0.000382364077358412,12,20,23, 2,18.68169414804721,12,16, 9,55
1115,1786761935.5497305,0.0,12,15,23, 2,2404564.90378784,12,21,22,20
1128,617703304.6021314,0.0,12,15,23, 2,737520.6587532205,12,21,22,20
1153,16035607.56367925,0.0,12,15,23, 2,79687.28604259041,12,18,15,50
1154,10298046.36683695,0.0,12,15, 1, 1,116810.58774304348,12,15,16,10
1156,1315371821.6430783,0.0,12,15,12,15,3803787.9300120794,12,16, 7,10
13,2408915604.447002,251529.99536930368,12,19, 3,60,5032407.325874716,12,16, 7,10
61,301924526.0238348,58759.40635443481,12,15, 1,10,854682.2742463244,12,15,20,10
134,70666020.44019979,42376.01200569399,12,15, 4,10,104369.48322671017,12,20,20,10
170,5241013.419656074,232.27731661587313,12,15, 4,10,11650.931360040839,12,20,12,10
207,6509451.13922266,543.5021409221355,12,15, 3,10,15327.095199349082,12,20,10,10
244,12749673.39982522,1014.5707620042115,12,15, 4,10,35359.08742820678,12,20,20,10
281,46165882.48149605,39959.06841621388,12,15, 5,10,54634.54471212738,12,15,19,10
318,0.0,0.0,12,15, 1,10,0.0,12,15, 1,10
355,723226106.2052665,12374.216038804521,12,15, 4,10,3829218.154066982,12,19,18,20
403,197687796.27748126,12374.216038804521,12,15, 4,10,483183.26346918393,12,20,18,10
476,106772067.24485692,4732.048419519677,12,15, 4,10,237357.535085481,12,20,12,10
513,0.0,0.0,12,15, 1,10,0.0,12,15, 1,10
562,71896437.80724081,0.0,12,18,23,10,80539.06556594984,12,15, 1,10
1046,0.0,0.0,12,15, 1,10,0.0,12,15, 1,10
1096,0.0,0.0,12,15, 1,10,0.0,12,15, 1,10
1134,1959408780.1757257,0.0,12,18,23,10,4495230.668920133,12,18, 6,20
1323,525538309.9277832,0.0,12,15, 1,10,3375000.0000000005,12,15,17,20
1360,5019840.0,4980.0,12,15, 1,20,4980.000000000001,12,15, 1,10
1388,0.0,0.0,12,15, 1,10,0.0,12,15, 1,10
1,EXTREME_SUMMER,  41.80, -78.63,  -5.00, 652.90
5,7
1038,0.0,0.0, 6,29, 1,10,0.0, 6,29, 1,10
1039,17.999999999999996,0.0, 6,29, 1,10,0.16666666666666666, 7, 1,13,60
581,0.07572586051200557,0.0, 7, 1, 5,30,0.39104898133072796, 6,30,17,53
582,1.7198946892020606,0.0, 6,29, 3,50,10.380398444883133, 6,30,17,51
583,1.938507973750197,0.0, 7, 2,23, 3,11.812562651649715, 6,30,17,51
1115,0.0,0.0, 6,29, 1,10,0.0, 6,29, 1,10
1128,0.0,0.0, 6,29, 1,10,0.0, 6,29, 1,10
1153,0.0,0.0, 6,29, 1,10,0.0, 6,29, 1,10
1154,0.0,0.0, 6,29, 1,10,0.0, 6,29, 1,10
1156,0.0,0.0, 6,29, 1,10,0.0, 6,29, 1,10
13,740056513.893738,106115.4183601288, 6,29, 4,10,1767664.8519338567, 7, 1,20,10
61,301924526.0238348,58759.40635443481, 6,29, 1,10,854682.2742463244, 6,29,20,10
134,70666020.44019979,42376.01200569399, 6,29, 4,10,104369.48322671017, 7, 4,20,10
170,5241013.419656074,232.27731661587313, 6,29, 4,10,11650.931360040839, 7, 4,12,10
207,6509451.13922266,543.5021409221355, 6,29, 3,10,15327.095199349082, 7, 4,10,10
244,12749673.39982522,1014.5707620042115, 6,29, 4,10,35359.08742820678, 7, 4,20,10
281,46165882.48149605,39959.06841621388, 6,29, 5,10,54634.54471212738, 6,29,19,10
318,0.0,0.0, 6,29, 1,10,0.0, 6,29, 1,10
355,655455851.8573347,12374.216038804521, 6,29, 4,10,3829218.154066982, 6,30,18,60
403,197687796.27748126,12374.216038804521, 6,29, 4,10,483183.26346918393, 7, 4,18,10
476,106772067.24485692,4732.048419519677, 6,29, 4,10,237357.535085481, 7, 4,12,10
513,0.0,0.0, 6,29, 1,10,0.0, 6,29, 1,10
562,37545899.40696895,0.0, 6,29, 2,10,80539.06556594983, 7, 1,12,60
1046,0.0,0.0, 6,29, 1,10,0.0, 6,29, 1,10
1096,324900228.0227348,0.0, 6,29, 2,10,783876.867335729, 7, 1,16,60
1134,0.0,0.0, 6,29, 1,10,0.0, 6,29, 1,10
1323,457768055.57985234,0.0, 6,29, 1,10,3375000.0000000005, 6,29,21,50
1360,5019840.0,4980.0, 6,29, 1,10,4980.000000000001, 6,29, 8,10
1388,0.0,0.0, 6,29, 1,10,0.0, 6,29, 1,10
1,ANNUAL,  41.80, -78.63,  -5.00, 652.90
5,365
1038,64.49999999999996,0.0, 1, 1, 1,10,0.16666666666666666, 1, 4, 6,10
1039,216.66666666666663,0.0, 1, 1, 1,10,0.16666666666666666, 5,25,16,40
581,0.2310175345214398,0.0, 6,21,19,53,1.035270860643754,10,30,23,60
582,3.6080318970190475,0.0, 1, 5,24,30,21.75821400946846, 5, 8,16,55
583,4.176631926285167,0.0, 7, 3,23, 3,26.87156807081468,10,30,23,60
1115,35863861670.81663,0.0, 1, 1,23, 2,2822689.8438034873,11,21, 6,60
1128,11369548820.855936,0.0, 1, 1,23, 2,796419.1636353362,11,21, 6,60
1153,457426742.9482598,0.0, 1, 1,23, 2,89749.54789720835, 3, 2, 7,30
1154,1499818565.386291,0.0, 1, 1, 1, 1,120000.0, 1, 6,14,30
1156,13463646347.081444,0.0, 1, 1, 1, 4,3803787.9300120794, 1, 5, 6,49
13,53750266934.7317,106115.4183601288, 3,14, 4,10,5296588.059995303, 3, 5,22,40
61,15743207428.39043,58759.40635443481, 1, 1, 1,10,854682.2742463244, 1, 1,20,10
134,3685071073.433083,42376.01200569399, 1, 2, 4,10,104369.48322671017, 1, 1,20,10
170,273393721.45534325,232.27731661587313, 1, 2, 4,10,11650.931360040839, 1, 1,12,10
207,339560869.06955314,543.5021409221355, 1, 2, 3,10,15327.095199349082, 1, 1,10,10
244,664895467.8009839,1014.5707620042115, 1, 2, 4,10,35359.08742820678, 1, 1,20,10
281,2407221015.1057043,39959.06841621388, 1, 1, 5,10,54634.54471212738, 1, 1,19,10
318,0.0,0.0, 1, 1, 1,10,0.0, 1, 1, 1,10
355,35777632524.565025,12374.216038804521, 1, 2, 4,10,3829218.154066983, 1,17,18,60
403,10310294493.052883,12374.216038804521, 1, 2, 4,10,483183.26346918393, 1, 1,18,10
476,5569688622.065564,4732.048419519677, 1, 2, 4,10,237357.535085481, 1, 1,12,10
513,0.0,0.0, 1, 1, 1,10,0.0, 1, 1, 1,10
562,1949804861.0821605,0.0, 1, 5,15,50,80539.06556594983, 1, 1, 2,40
1046,0.0,0.0, 1, 1, 1,10,0.0, 1, 1, 1,10
1096,5319994295.561162,0.0, 1, 1, 1,10,786946.2575994834, 7, 1,16,60
1134,26790440476.272003,0.0, 1,31,18,10,4495282.662881162,12,18, 6,40
1323,25467338031.5162,0.0, 1, 1, 1,10,3375000.000000002, 5, 1,17,10
1360,261748800.0,4979.999999999998, 3,25,11,40,4980.000000000002, 1, 8,10,50
1388,0.0,0.0, 1, 1, 1,10,0.0, 1, 1, 1,10
End of Data
 Number of Records Written=          87
