Program Version,EnergyPlus, Version 22.2.0-c249759bad, YMD=2023.07.07 15:18
1,5,Environment Title[],Latitude[deg],Longitude[deg],Time Zone[],Elevation[m]
2,8,Day of Simulation[],Month[],Day of Month[],DST Indicator[1=yes 0=no],Hour[],StartMinute[],EndMinute[],DayType
3,5,Cumulative Day of Simulation[],Month[],Day of Month[],DST Indicator[1=yes 0=no],DayType  ! When Daily Report Variables Requested
4,2,Cumulative Days of Simulation[],Month[]  ! When Monthly Report Variables Requested
5,1,Cumulative Days of Simulation[] ! When Run Period Report Variables Requested
6,1,Calendar Year of Simulation[] ! When Annual Report Variables Requested
581,11,LIVING,AFN Zone Infiltration Air Change Rate [ach] !RunPeriod [Value,Min,Month,Day,Hour,Minute,Max,Month,Day,Hour,Minute]
582,11,ATTIC,AFN Zone Infiltration Air Change Rate [ach] !RunPeriod [Value,Min,Month,Day,Hour,Minute,Max,Month,Day,Hour,Minute]
583,11,CRAWLSPACE,AFN Zone Infiltration Air Change Rate [ach] !RunPeriod [Value,Min,Month,Day,Hour,Minute,Max,Month,Day,Hour,Minute]
1038,11,Facility,Facility Heating Setpoint Not Met Time [hr] !RunPeriod [Value,Min,Month,Day,Hour,Minute,Max,Month,Day,Hour,Minute]
1039,11,Facility,Facility Cooling Setpoint Not Met Time [hr] !RunPeriod [Value,Min,Month,Day,Hour,Minute,Max,Month,Day,Hour,Minute]
1115,11,DX_HEATING_COIL,Heating Coil Heating Energy [J] !RunPeriod [Value,Min,Month,Day,Hour,Minute,Max,Month,Day,Hour,Minute]
1128,11,DX_HEATING_COIL,Heating Coil Electricity Energy [J] !RunPeriod [Value,Min,Month,Day,Hour,Minute,Max,Month,Day,Hour,Minute]
1153,11,DX_HEATING_COIL,Heating Coil Defrost Electricity Energy [J] !RunPeriod [Value,Min,Month,Day,Hour,Minute,Max,Month,Day,Hour,Minute]
1154,11,DX_HEATING_COIL,Heating Coil Crankcase Heater Electricity Energy [J] !RunPeriod [Value,Min,Month,Day,Hour,Minute,Max,Month,Day,Hour,Minute]
1156,11,HEATING_RESISTANCE_BACKUP,Heating Coil Electricity Energy [J] !RunPeriod [Value,Min,Month,Day,Hour,Minute,Max,Month,Day,Hour,Minute]
13,11,Electricity:Facility [J] !RunPeriod [Value,Min,Month,Day,Hour,Minute,Max,Month,Day,Hour,Minute]
1134,11,Heating:Electricity [J] !RunPeriod [Value,Min,Month,Day,Hour,Minute,Max,Month,Day,Hour,Minute]
1096,11,Cooling:Electricity [J] !RunPeriod [Value,Min,Month,Day,Hour,Minute,Max,Month,Day,Hour,Minute]
562,11,Fans:Electricity [J] !RunPeriod [Value,Min,Month,Day,Hour,Minute,Max,Month,Day,Hour,Minute]
1388,11,Pumps:Electricity [J] !RunPeriod [Value,Min,Month,Day,Hour,Minute,Max,Month,Day,Hour,Minute]
1360,11,WaterSystems:Electricity [J] !RunPeriod [Value,Min,Month,Day,Hour,Minute,Max,Month,Day,Hour,Minute]
61,11,InteriorLights:Electricity [J] !RunPeriod [Value,Min,Month,Day,Hour,Minute,Max,Month,Day,Hour,Minute]
1046,11,ExteriorLights:Electricity [J] !RunPeriod [Value,Min,Month,Day,Hour,Minute,Max,Month,Day,Hour,Minute]
134,11,InteriorEquipment:Electricity [J] !RunPeriod [Value,Min,Month,Day,Hour,Minute,Max,Month,Day,Hour,Minute]
170,11,gas_dryer:InteriorEquipment:Electricity [J] !RunPeriod [Value,Min,Month,Day,Hour,Minute,Max,Month,Day,Hour,Minute]
207,11,clotheswasher:InteriorEquipment:Electricity [J] !RunPeriod [Value,Min,Month,Day,Hour,Minute,Max,Month,Day,Hour,Minute]
244,11,dishwasher:InteriorEquipment:Electricity [J] !RunPeriod [Value,Min,Month,Day,Hour,Minute,Max,Month,Day,Hour,Minute]
281,11,refrigerator:InteriorEquipment:Electricity [J] !RunPeriod [Value,Min,Month,Day,Hour,Minute,Max,Month,Day,Hour,Minute]
318,11,electric_mels:InteriorEquipment:Electricity [J] !RunPeriod [Value,Min,Month,Day,Hour,Minute,Max,Month,Day,Hour,Minute]
355,11,NaturalGas:Facility [J] !RunPeriod [Value,Min,Month,Day,Hour,Minute,Max,Month,Day,Hour,Minute]
1323,11,WaterSystems:NaturalGas [J] !RunPeriod [Value,Min,Month,Day,Hour,Minute,Max,Month,Day,Hour,Minute]
403,11,InteriorEquipment:NaturalGas [J] !RunPeriod [Value,Min,Month,Day,Hour,Minute,Max,Month,Day,Hour,Minute]
476,11,gas_dryer:InteriorEquipment:NaturalGas [J] !RunPeriod [Value,Min,Month,Day,Hour,Minute,Max,Month,Day,Hour,Minute]
513,11,gas_mels:InteriorEquipment:NaturalGas [J] !RunPeriod [Value,Min,Month,Day,Hour,Minute,Max,Month,Day,Hour,Minute]
End of Data Dictionary
1,EXTREME_WINTER,  35.22, -80.93,  -5.00, 221.90
5,7
1038,0.6666666666666666,0.0, 1,20, 1,10,0.16666666666666666, 1,21, 6,10
1039,0.0,0.0, 1,20, 1,10,0.0, 1,20, 1,10
581,0.2536604715438705,0.1286746006024304, 1,20, 1,53,0.6986883709492557, 1,24,18,55
582,2.142914365714948,0.0, 1,20, 4,55,13.829819562399068, 1,24,18,52
583,2.79766414759133,0.00012841806890364623, 1,26,20,10,18.27478554925797, 1,24,18,52
1115,832027103.3578588,0.0, 1,20,12,52,2814780.73256819, 1,25, 3,10
1128,267520163.1764104,0.0, 1,20,12,52,881809.9076942718, 1,21, 6,20
1153,6698339.1289374605,0.0, 1,20,12,52,69363.78096364821, 1,24, 6,30
1154,84405256.95025514,0.0, 1,20, 6, 3,120000.0, 1,20,13,40
1156,42552827.611183904,0.0, 1,20, 1,10,1240429.1458961277, 1,25, 7,10
13,808027105.1445688,234536.4257943999, 1,24, 1,10,3097357.476182596, 1,25, 6,10
61,301924526.0238348,58759.40635443481, 1,20, 1,10,854682.2742463244, 1,20,20,10
134,70666020.44019979,42376.01200569399, 1,20, 4,10,104369.48322671017, 1,25,20,10
170,5241013.419656074,232.27731661587313, 1,20, 4,10,11650.931360040839, 1,25,12,10
207,6509451.13922266,543.5021409221355, 1,20, 3,10,15327.095199349082, 1,25,10,10
244,12749673.39982522,1014.5707620042115, 1,20, 4,10,35359.08742820678, 1,25,20,10
281,46165882.48149605,39959.06841621388, 1,20, 5,10,54634.54471212738, 1,20,19,10
318,0.0,0.0, 1,20, 1,10,0.0, 1,20, 1,10
355,745242815.9932435,12374.216038804521, 1,20, 4,10,3829218.154066982, 1,21,18,60
403,197687796.27748126,12374.216038804521, 1,20, 4,10,483183.26346918393, 1,25,18,10
476,106772067.24485692,4732.048419519677, 1,20, 4,10,237357.535085481, 1,25,12,10
513,0.0,0.0, 1,20, 1,10,0.0, 1,20, 1,10
562,28837137.733779177,0.0, 1,20,12,60,94881.84639270062, 1,21, 4,20
1046,0.0,0.0, 1,20, 1,10,0.0, 1,20, 1,10
1096,402994.079969578,0.0, 1,20, 1,10,44563.035107840544, 1,21,17,40
1134,401176586.8667873,110664.84757446029, 1,21,17,40,2584178.3104135212, 1,25, 6,10
1323,547555019.7157592,0.0, 1,20, 1,10,3375000.0000000005, 1,20,17,10
1360,5019840.0,4980.0, 1,20, 1,10,4980.000000000001, 1,20, 1,60
1388,0.0,0.0, 1,20, 1,10,0.0, 1,20, 1,10
1,EXTREME_SUMMER,  35.22, -80.93,  -5.00, 221.90
5,7
1038,0.0,0.0, 7,13, 1,10,0.0, 7,13, 1,10
1039,46.166666666666664,0.0, 7,13, 1,10,0.16666666666666666, 7,13,14,20
581,0.07060720350523683,0.0, 7,13, 1,10,0.2934640186771379, 7,17,17,53
582,2.2137229713936706,0.0, 7,18,21,43,6.586436292567104, 7,19,18,51
583,2.772770879510863,0.0, 7,13,23, 2,9.048009112355963, 7,17,17,53
1115,0.0,0.0, 7,13, 1,10,0.0, 7,13, 1,10
1128,0.0,0.0, 7,13, 1,10,0.0, 7,13, 1,10
1153,0.0,0.0, 7,13, 1,10,0.0, 7,13, 1,10
1154,0.0,0.0, 7,13, 1,10,0.0, 7,13, 1,10
1156,0.0,0.0, 7,13, 1,10,0.0, 7,13, 1,10
13,1012520326.212753,195371.67613877062, 7,17, 4,60,2005743.5418696392, 7,17,20,10
61,301924526.0238348,58759.40635443481, 7,13, 1,10,854682.2742463244, 7,13,20,10
134,70666020.44019979,42376.01200569399, 7,13, 4,10,104369.48322671017, 7,18,20,10
170,5241013.419656074,232.27731661587313, 7,13, 4,10,11650.931360040839, 7,18,12,10
207,6509451.13922266,543.5021409221355, 7,13, 3,10,15327.095199349082, 7,18,10,10
244,12749673.39982522,1014.5707620042115, 7,13, 4,10,35359.08742820678, 7,18,20,10
281,46165882.48149605,39959.06841621388, 7,13, 5,10,54634.54471212738, 7,13,19,10
318,0.0,0.0, 7,13, 1,10,0.0, 7,13, 1,10
355,642862162.2812454,12374.216038804521, 7,13, 4,10,3829218.1540669827, 7,14,18,60
403,197687796.27748126,12374.216038804521, 7,13, 4,10,483183.26346918393, 7,18,18,10
476,106772067.24485692,4732.048419519677, 7,13, 4,10,237357.535085481, 7,18,12,10
513,0.0,0.0, 7,13, 1,10,0.0, 7,13, 1,10
562,60632240.56241658,9295.866557349671, 7,17, 5,60,94881.84639270062, 7,13,13,40
1046,0.0,0.0, 7,13, 1,10,0.0, 7,13, 1,10
1096,574277699.1863017,75813.6907687216, 7,18, 6,20,997372.0938064184, 7,15,17,60
1134,0.0,0.0, 7,13, 1,10,0.0, 7,13, 1,10
1323,445174366.0037626,0.0, 7,13, 1,10,3375000.000000001, 7,14, 9,40
1360,5019840.0,4980.0, 7,13, 1,10,4980.000000000001, 7,13, 7,40
1388,0.0,0.0, 7,13, 1,10,0.0, 7,13, 1,10
1,ANNUAL,  35.22, -80.93,  -5.00, 221.90
5,365
1038,3.9999999999999982,0.0, 1, 1, 1,10,0.16666666666666666, 1, 1, 6,10
1039,640.1666666666665,0.0, 1, 1, 1,10,0.16666666666666666, 2,23,13,40
581,0.17051614512268443,0.0, 4, 4,22,60,1.0072277341771547, 3,20,12,55
582,2.874326986239013,0.0, 1, 1, 4,20,19.47751140725331, 3,20,12,55
583,3.5277503671049533,0.0, 5,15,23, 2,26.257144858931202, 3,20,12,55
1115,6907978765.994683,0.0, 1, 1, 1, 1,2952206.2634093026, 1,20, 6,30
1128,2114910663.1609657,0.0, 1, 1, 1, 1,911685.7110414456, 1,20, 6,40
1153,83922097.93524694,0.0, 1, 1, 1, 1,77442.13130523205,11,22, 6,40
1154,1295488014.1289046,0.0, 1, 1, 6, 2,120000.0, 1, 1, 2,10
1156,220841824.3572715,0.0, 1, 1, 1, 1,1401503.0153363207, 1,25, 7,10
13,38089200323.8324,106115.4183601288, 1, 9, 4,10,3258200.3685832685, 1,21, 6,10
61,15743207428.39043,58759.40635443481, 1, 1, 1,10,854682.2742463244, 1, 1,20,10
134,3685071073.433083,42376.01200569399, 1, 2, 4,10,104369.48322671017, 1, 1,20,10
170,273393721.45534325,232.27731661587313, 1, 2, 4,10,11650.931360040839, 1, 1,12,10
207,339560869.06955314,543.5021409221355, 1, 2, 3,10,15327.095199349082, 1, 1,10,10
244,664895467.8009839,1014.5707620042115, 1, 2, 4,10,35359.08742820678, 1, 1,20,10
281,2407221015.1057043,39959.06841621388, 1, 1, 5,10,54634.54471212738, 1, 1,19,10
318,0.0,0.0, 1, 1, 1,10,0.0, 1, 1, 1,10
355,35663990599.37208,12374.216038804521, 1, 2, 4,10,3829218.1540669827, 4,11,18,60
403,10310294493.052883,12374.216038804521, 1, 2, 4,10,483183.26346918393, 1, 1,18,10
476,5569688622.065564,4732.048419519677, 1, 2, 4,10,237357.535085481, 1, 1,12,10
513,0.0,0.0, 1, 1, 1,10,0.0, 1, 1, 1,10
562,1714548509.426747,0.0, 1, 1, 1,10,94881.84639270064, 8,27,15,60
1046,0.0,0.0, 1, 1, 1,10,0.0, 1, 1, 1,10
1096,12969461913.005613,0.0, 1, 1, 1,10,1024770.6566955595, 8,11,17,60
1134,3715162599.582386,0.0, 1, 1,12,60,2745021.2028141944, 1,21, 6,10
1323,25353696106.32349,0.0, 1, 1, 1,10,3375000.0000000023,11,14,20,30
1360,261748800.0,4979.999999999998, 2,14,10,60,4980.000000000002, 1, 3,10,20
1388,0.0,0.0, 1, 1, 1,10,0.0, 1, 1, 1,10
End of Data
 Number of Records Written=          87
