Program Version,EnergyPlus, Version 22.2.0-c249759bad, YMD=2023.09.01 20:24
1,5,Environment Title[],Latitude[deg],Longitude[deg],Time Zone[],Elevation[m]
2,8,Day of Simulation[],Month[],Day of Month[],DST Indicator[1=yes 0=no],Hour[],StartMinute[],EndMinute[],DayType
3,5,Cumulative Day of Simulation[],Month[],Day of Month[],DST Indicator[1=yes 0=no],DayType  ! When Daily Report Variables Requested
4,2,Cumulative Days of Simulation[],Month[]  ! When Monthly Report Variables Requested
5,1,Cumulative Days of Simulation[] ! When Run Period Report Variables Requested
6,1,Calendar Year of Simulation[] ! When Annual Report Variables Requested
581,11,LIVING,AFN Zone Infiltration Air Change Rate [ach] !RunPeriod [Value,Min,Month,Day,Hour,Minute,Max,Month,Day,Hour,Minute]
582,11,ATTIC,AFN Zone Infiltration Air Change Rate [ach] !RunPeriod [Value,Min,Month,Day,Hour,Minute,Max,Month,Day,Hour,Minute]
583,11,CRAWLSPACE,AFN Zone Infiltration Air Change Rate [ach] !RunPeriod [Value,Min,Month,Day,Hour,Minute,Max,Month,Day,Hour,Minute]
1038,11,Facility,Facility Heating Setpoint Not Met Time [hr] !RunPeriod [Value,Min,Month,Day,Hour,Minute,Max,Month,Day,Hour,Minute]
1039,11,Facility,Facility Cooling Setpoint Not Met Time [hr] !RunPeriod [Value,Min,Month,Day,Hour,Minute,Max,Month,Day,Hour,Minute]
1115,11,DX_HEATING_COIL,Heating Coil Heating Energy [J] !RunPeriod [Value,Min,Month,Day,Hour,Minute,Max,Month,Day,Hour,Minute]
1128,11,DX_HEATING_COIL,Heating Coil Electricity Energy [J] !RunPeriod [Value,Min,Month,Day,Hour,Minute,Max,Month,Day,Hour,Minute]
1153,11,DX_HEATING_COIL,Heating Coil Defrost Electricity Energy [J] !RunPeriod [Value,Min,Month,Day,Hour,Minute,Max,Month,Day,Hour,Minute]
1154,11,DX_HEATING_COIL,Heating Coil Crankcase Heater Electricity Energy [J] !RunPeriod [Value,Min,Month,Day,Hour,Minute,Max,Month,Day,Hour,Minute]
1155,11,HEATING_RESISTANCE_BACKUP,Heating Coil Heating Energy [J] !RunPeriod [Value,Min,Month,Day,Hour,Minute,Max,Month,Day,Hour,Minute]
1156,11,HEATING_RESISTANCE_BACKUP,Heating Coil Electricity Energy [J] !RunPeriod [Value,Min,Month,Day,Hour,Minute,Max,Month,Day,Hour,Minute]
1292,11,WATER HEATER,Water Heater Heat Loss Energy [J] !RunPeriod [Value,Min,Month,Day,Hour,Minute,Max,Month,Day,Hour,Minute]
1306,11,WATER HEATER,Water Heater Heating Energy [J] !RunPeriod [Value,Min,Month,Day,Hour,Minute,Max,Month,Day,Hour,Minute]
1307,11,WATER HEATER,Water Heater Unmet Demand Heat Transfer Energy [J] !RunPeriod [Value,Min,Month,Day,Hour,Minute,Max,Month,Day,Hour,Minute]
1308,11,WATER HEATER,Water Heater Electricity Energy [J] !RunPeriod [Value,Min,Month,Day,Hour,Minute,Max,Month,Day,Hour,Minute]
13,11,Electricity:Facility [J] !RunPeriod [Value,Min,Month,Day,Hour,Minute,Max,Month,Day,Hour,Minute]
1134,11,Heating:Electricity [J] !RunPeriod [Value,Min,Month,Day,Hour,Minute,Max,Month,Day,Hour,Minute]
1096,11,Cooling:Electricity [J] !RunPeriod [Value,Min,Month,Day,Hour,Minute,Max,Month,Day,Hour,Minute]
562,11,Fans:Electricity [J] !RunPeriod [Value,Min,Month,Day,Hour,Minute,Max,Month,Day,Hour,Minute]
1379,11,Pumps:Electricity [J] !RunPeriod [Value,Min,Month,Day,Hour,Minute,Max,Month,Day,Hour,Minute]
1326,11,WaterSystems:Electricity [J] !RunPeriod [Value,Min,Month,Day,Hour,Minute,Max,Month,Day,Hour,Minute]
61,11,InteriorLights:Electricity [J] !RunPeriod [Value,Min,Month,Day,Hour,Minute,Max,Month,Day,Hour,Minute]
1046,11,ExteriorLights:Electricity [J] !RunPeriod [Value,Min,Month,Day,Hour,Minute,Max,Month,Day,Hour,Minute]
134,11,InteriorEquipment:Electricity [J] !RunPeriod [Value,Min,Month,Day,Hour,Minute,Max,Month,Day,Hour,Minute]
170,11,gas_dryer:InteriorEquipment:Electricity [J] !RunPeriod [Value,Min,Month,Day,Hour,Minute,Max,Month,Day,Hour,Minute]
207,11,clotheswasher:InteriorEquipment:Electricity [J] !RunPeriod [Value,Min,Month,Day,Hour,Minute,Max,Month,Day,Hour,Minute]
244,11,dishwasher:InteriorEquipment:Electricity [J] !RunPeriod [Value,Min,Month,Day,Hour,Minute,Max,Month,Day,Hour,Minute]
281,11,refrigerator:InteriorEquipment:Electricity [J] !RunPeriod [Value,Min,Month,Day,Hour,Minute,Max,Month,Day,Hour,Minute]
318,11,electric_mels:InteriorEquipment:Electricity [J] !RunPeriod [Value,Min,Month,Day,Hour,Minute,Max,Month,Day,Hour,Minute]
355,11,NaturalGas:Facility [J] !RunPeriod [Value,Min,Month,Day,Hour,Minute,Max,Month,Day,Hour,Minute]
403,11,InteriorEquipment:NaturalGas [J] !RunPeriod [Value,Min,Month,Day,Hour,Minute,Max,Month,Day,Hour,Minute]
476,11,gas_dryer:InteriorEquipment:NaturalGas [J] !RunPeriod [Value,Min,Month,Day,Hour,Minute,Max,Month,Day,Hour,Minute]
513,11,gas_mels:InteriorEquipment:NaturalGas [J] !RunPeriod [Value,Min,Month,Day,Hour,Minute,Max,Month,Day,Hour,Minute]
End of Data Dictionary
1,EXTREME_WINTER,  37.26,-104.34,  -7.00,1749.90
5,7
1038,0.25,0.0, 1, 6, 1,15,0.25, 1,10, 6,15
1039,0.0,0.0, 1, 6, 1,15,0.0, 1, 6, 1,15
581,0.33844193865856004,0.173579142803336, 1, 6,11,18,0.6673503236614547, 1,11,23,52
582,4.24106739466744,0.0, 1, 6,24,60,14.108464518795294, 1,11,23,60
583,0.04408614680346374,0.00031944434528831704, 1,12,23,45,0.08781784880997635, 1,10, 6,52
1115,1349063630.4063663,0.0, 1, 6,11,48,4255077.303317152, 1,12, 5,60
1128,474978656.8344046,0.0, 1, 6,11,48,1409473.3855993787, 1,12, 7,60
1153,15595476.538779775,0.0, 1, 6,10,47,100131.79831056186, 1, 8,12,45
1154,57083701.578803934,0.0, 1, 6, 6, 5,180000.0, 1, 6,13,15
1155,305737215.0562241,0.0, 1, 6, 1,15,5178385.171453625, 1,10, 7,30
1156,305737215.0562241,0.0, 1, 6, 1,15,5178385.171453625, 1,10, 7,30
1292,-25162890.89215981,-39756.58500431985, 1, 6, 1,15,-3768.6734625001036, 1,11,17,46
1306,184957671.75009927,0.0, 1, 6, 1,15,4050000.0, 1, 6, 8,45
1307,36391959.756538,0.0, 1, 6, 1,15,3440140.9742809664, 1, 6, 8,45
1308,184957671.75009927,0.0, 1, 6, 1,15,4050000.0, 1, 6, 8,45
13,1464707039.4613447,452017.0388981225, 1, 6,15,15,10145379.439455736, 1,10, 8,30
61,301924526.02383536,88139.10953165221, 1, 6, 1,15,1282023.4113694867, 1, 6,20,15
134,70666020.44019976,63564.01800854099, 1, 6, 4,15,156554.22484006523, 1,11,20,15
170,5241013.419656067,348.4159749238097, 1, 6, 4,15,17476.39704006126, 1,11,12,15
207,6509451.13922267,815.2532113832032, 1, 6, 3,15,22990.642799023623, 1,11,10,15
244,12749673.399825225,1521.856143006317, 1, 6, 4,15,53038.631142310165, 1,11,20,15
281,46165882.481495745,59938.60262432081, 1, 6, 5,15,81951.81706819107, 1, 6,19,15
318,0.0,0.0, 1, 6, 1,15,0.0, 1, 6, 1,15
355,197687796.27748066,18561.32405820678, 1, 6, 4,15,724774.895203776, 1,11,18,15
403,197687796.27748066,18561.32405820678, 1, 6, 4,15,724774.895203776, 1,11,18,15
476,106772067.24485716,7098.072629279515, 1, 6, 4,15,356036.3026282215, 1,11,12,15
513,0.0,0.0, 1, 6, 1,15,0.0, 1, 6, 1,15
562,53255394.325126976,0.0, 1, 6,11,60,150765.67871924452, 1, 8, 2,60
1046,0.0,0.0, 1, 6, 1,15,0.0, 1, 6, 1,15
1096,508376.9138735022,0.0, 1, 6, 1,15,72706.94690564256, 1,12,17,15
1134,853395050.0082127,163363.5617564377, 1,12,17,15,6864895.36418957, 1,10, 6,60
1326,184957671.75009924,0.0, 1, 6, 1,15,4050000.0, 1, 6, 8,45
1379,0.0,0.0, 1, 6, 1,15,0.0, 1, 6, 1,15
1,EXTREME_SUMMER,  37.26,-104.34,  -7.00,1749.90
5,7
1038,0.0,0.0, 7,20, 1,15,0.0, 7,20, 1,15
1039,0.0,0.0, 7,20, 1,15,0.0, 7,20, 1,15
581,0.22849765390911128,0.0, 7,22,23, 3,0.6605935415403312, 7,21,17,48
582,5.648162153938851,0.053965626475848454, 7,26, 8,46,17.573870833440814, 7,25,18,48
583,0.03504492231881289,0.00007948087501201948, 7,22,23, 7,0.08119004213387264, 7,21,17,18
1115,0.0,0.0, 7,20, 1, 7,0.0, 7,20, 1, 7
1128,0.0,0.0, 7,20, 1, 7,0.0, 7,20, 1, 7
1153,0.0,0.0, 7,20, 1, 7,0.0, 7,20, 1, 7
1154,0.0,0.0, 7,20, 1, 7,0.0, 7,20, 1, 7
1155,0.0,0.0, 7,20, 1, 7,0.0, 7,20, 1, 7
1156,0.0,0.0, 7,20, 1, 7,0.0, 7,20, 1, 7
1292,-22123223.259658433,-34425.94826227703, 7,26, 6,30,-2855.476480599633, 7,21,10,60
1306,143931057.26859766,0.0, 7,20, 1, 7,4044772.3298914214, 7,26,20,60
1307,20944400.582293235,0.0, 7,20, 1, 7,900035.5398684788, 7,25,10,17
1308,143931057.26859766,0.0, 7,20, 1, 7,4044772.3298914214, 7,26,20,60
13,983515053.2799898,151703.1275401932, 7,20, 4,15,5869664.3024167195, 7,26,20,60
61,301924526.02383536,88139.10953165221, 7,20, 1,15,1282023.4113694867, 7,20,20,15
134,70666020.44019976,63564.01800854099, 7,20, 4,15,156554.22484006523, 7,25,20,15
170,5241013.419656067,348.4159749238097, 7,20, 4,15,17476.39704006126, 7,25,12,15
207,6509451.13922267,815.2532113832032, 7,20, 3,15,22990.642799023623, 7,25,10,15
244,12749673.399825225,1521.856143006317, 7,20, 4,15,53038.631142310165, 7,25,20,15
281,46165882.481495745,59938.60262432081, 7,20, 5,15,81951.81706819107, 7,20,19,15
318,0.0,0.0, 7,20, 1,15,0.0, 7,20, 1,15
355,197687796.27748066,18561.32405820678, 7,20, 4,15,724774.895203776, 7,25,18,15
403,197687796.27748066,18561.32405820678, 7,20, 4,15,724774.895203776, 7,25,18,15
476,106772067.24485716,7098.072629279515, 7,20, 4,15,356036.3026282215, 7,25,12,15
513,0.0,0.0, 7,20, 1,15,0.0, 7,20, 1,15
562,45677982.261096895,0.0, 7,20, 2,15,150765.67871924458, 7,22,17,15
1046,0.0,0.0, 7,20, 1,15,0.0, 7,20, 1,15
1096,421315467.2862599,0.0, 7,20, 2,15,1629537.4514063986, 7,24,15,60
1134,0.0,0.0, 7,20, 1,15,0.0, 7,20, 1,15
1326,143931057.26859766,0.0, 7,20, 1,15,4050000.0, 7,20, 8,45
1379,0.0,0.0, 7,20, 1,15,0.0, 7,20, 1,15
1,ANNUAL,  37.26,-104.34,  -7.00,1749.90
5,365
1038,2.25,0.0, 1, 1, 1,15,0.25, 1,10, 6,15
1039,53.25,0.0, 1, 1, 1,15,0.25, 1,13,16,30
581,0.2836359976759922,0.0, 7,22,23, 3,1.443319493715707, 6,16,23,60
582,5.591886042582675,0.0, 1, 4, 1,60,44.23508578717584, 4,28,24,60
583,0.026157529165901944,0.0, 8,14,23, 3,0.0938072601890292,11,15, 7,52
1115,19179639187.767017,0.0, 1, 1,13,18,4805133.771262555,12,23, 7,15
1128,6346486321.85623,0.0, 1, 1,13,18,1483811.489693698,12,23, 7,45
1153,170381718.1158024,0.0, 1, 1,13,18,120495.19758002851, 4, 7, 7,60
1154,1877433666.1687503,0.0, 1, 1, 2,45,180000.0, 1, 1,15,30
1155,2212038615.2998114,0.0, 1, 1, 1,15,5429222.233627762, 1,10, 7,30
1156,2212038615.2998114,0.0, 1, 1, 1,15,5429222.233627762, 1,10, 7,30
1292,-1222095403.307178,-39800.415830222875, 1, 1, 1,15,-1968.3848087881206,10,21,10,31
1306,8645560067.061207,0.0, 1, 1, 1,15,4050000.0, 1, 2, 8,45
1307,1500232579.8193486,0.0, 1, 1, 1,15,9783185.623081114, 2,25,10,30
1308,8645560067.061207,0.0, 1, 1, 1,15,4050000.0, 1, 2, 8,45
13,48256147450.944496,151703.1275401932, 3,17, 4,15,10979597.4033886, 1,10, 7,15
61,15743207428.383959,88139.10953165221, 1, 1, 1,15,1282023.4113694867, 1, 1,20,15
134,3685071073.4325233,63564.01800854099, 1, 2, 4,15,156554.22484006523, 1, 1,20,15
170,273393721.45532674,348.4159749238097, 1, 2, 4,15,17476.39704006126, 1, 1,12,15
207,339560869.0695816,815.2532113832032, 1, 2, 3,15,22990.642799023623, 1, 1,10,15
244,664895467.8009144,1521.856143006317, 1, 2, 4,15,53038.631142310165, 1, 1,20,15
281,2407221015.106824,59938.60262432081, 1, 1, 5,15,81951.81706819107, 1, 1,19,15
318,0.0,0.0, 1, 1, 1,15,0.0, 1, 1, 1,15
355,10310294493.051695,18561.32405820678, 1, 2, 4,15,724774.895203776, 1, 1,18,15
403,10310294493.051695,18561.32405820678, 1, 2, 4,15,724774.895203776, 1, 1,18,15
476,5569688622.066177,7098.072629279515, 1, 2, 4,15,356036.3026282215, 1, 1,12,15
513,0.0,0.0, 1, 1, 1,15,0.0, 1, 1, 1,15
562,1639935818.305476,0.0, 1, 1,13,30,150765.67871924458, 7,22,17,15
1046,0.0,0.0, 1, 1, 1,15,0.0, 1, 1, 1,15
1096,7936032742.31793,0.0, 1, 1, 1,15,1651081.4393550348, 7, 6,15,60
1134,10606340321.44053,0.0, 1, 4,14,60,6919053.901722438,12,21, 6,15
1326,8645560067.061214,0.0, 1, 1, 1,15,4050000.0000000014, 3,25,10,30
1379,0.0,0.0, 1, 1, 1,15,0.0, 1, 1, 1,15
End of Data
 Number of Records Written=          99
