Program Version,EnergyPlus, Version 22.2.0-c249759bad, YMD=2023.09.01 20:28
1,5,Environment Title[],Latitude[deg],Longitude[deg],Time Zone[],Elevation[m]
2,8,Day of Simulation[],Month[],Day of Month[],DST Indicator[1=yes 0=no],Hour[],StartMinute[],EndMinute[],DayType
3,5,Cumulative Day of Simulation[],Month[],Day of Month[],DST Indicator[1=yes 0=no],DayType  ! When Daily Report Variables Requested
4,2,Cumulative Days of Simulation[],Month[]  ! When Monthly Report Variables Requested
5,1,Cumulative Days of Simulation[] ! When Run Period Report Variables Requested
6,1,Calendar Year of Simulation[] ! When Annual Report Variables Requested
581,11,LIVING,AFN Zone Infiltration Air Change Rate [ach] !RunPeriod [Value,Min,Month,Day,Hour,Minute,Max,Month,Day,Hour,Minute]
582,11,ATTIC,AFN Zone Infiltration Air Change Rate [ach] !RunPeriod [Value,Min,Month,Day,Hour,Minute,Max,Month,Day,Hour,Minute]
583,11,CRAWLSPACE,AFN Zone Infiltration Air Change Rate [ach] !RunPeriod [Value,Min,Month,Day,Hour,Minute,Max,Month,Day,Hour,Minute]
1038,11,Facility,Facility Heating Setpoint Not Met Time [hr] !RunPeriod [Value,Min,Month,Day,Hour,Minute,Max,Month,Day,Hour,Minute]
1039,11,Facility,Facility Cooling Setpoint Not Met Time [hr] !RunPeriod [Value,Min,Month,Day,Hour,Minute,Max,Month,Day,Hour,Minute]
1115,11,DX_HEATING_COIL,Heating Coil Heating Energy [J] !RunPeriod [Value,Min,Month,Day,Hour,Minute,Max,Month,Day,Hour,Minute]
1128,11,DX_HEATING_COIL,Heating Coil Electricity Energy [J] !RunPeriod [Value,Min,Month,Day,Hour,Minute,Max,Month,Day,Hour,Minute]
1153,11,DX_HEATING_COIL,Heating Coil Defrost Electricity Energy [J] !RunPeriod [Value,Min,Month,Day,Hour,Minute,Max,Month,Day,Hour,Minute]
1154,11,DX_HEATING_COIL,Heating Coil Crankcase Heater Electricity Energy [J] !RunPeriod [Value,Min,Month,Day,Hour,Minute,Max,Month,Day,Hour,Minute]
1155,11,HEATING_RESISTANCE_BACKUP,Heating Coil Heating Energy [J] !RunPeriod [Value,Min,Month,Day,Hour,Minute,Max,Month,Day,Hour,Minute]
1156,11,HEATING_RESISTANCE_BACKUP,Heating Coil Electricity Energy [J] !RunPeriod [Value,Min,Month,Day,Hour,Minute,Max,Month,Day,Hour,Minute]
1292,11,WATER HEATER,Water Heater Heat Loss Energy [J] !RunPeriod [Value,Min,Month,Day,Hour,Minute,Max,Month,Day,Hour,Minute]
1306,11,WATER HEATER,Water Heater Heating Energy [J] !RunPeriod [Value,Min,Month,Day,Hour,Minute,Max,Month,Day,Hour,Minute]
1307,11,WATER HEATER,Water Heater Unmet Demand Heat Transfer Energy [J] !RunPeriod [Value,Min,Month,Day,Hour,Minute,Max,Month,Day,Hour,Minute]
1308,11,WATER HEATER,Water Heater Electricity Energy [J] !RunPeriod [Value,Min,Month,Day,Hour,Minute,Max,Month,Day,Hour,Minute]
13,11,Electricity:Facility [J] !RunPeriod [Value,Min,Month,Day,Hour,Minute,Max,Month,Day,Hour,Minute]
1134,11,Heating:Electricity [J] !RunPeriod [Value,Min,Month,Day,Hour,Minute,Max,Month,Day,Hour,Minute]
1096,11,Cooling:Electricity [J] !RunPeriod [Value,Min,Month,Day,Hour,Minute,Max,Month,Day,Hour,Minute]
562,11,Fans:Electricity [J] !RunPeriod [Value,Min,Month,Day,Hour,Minute,Max,Month,Day,Hour,Minute]
1379,11,Pumps:Electricity [J] !RunPeriod [Value,Min,Month,Day,Hour,Minute,Max,Month,Day,Hour,Minute]
1326,11,WaterSystems:Electricity [J] !RunPeriod [Value,Min,Month,Day,Hour,Minute,Max,Month,Day,Hour,Minute]
61,11,InteriorLights:Electricity [J] !RunPeriod [Value,Min,Month,Day,Hour,Minute,Max,Month,Day,Hour,Minute]
1046,11,ExteriorLights:Electricity [J] !RunPeriod [Value,Min,Month,Day,Hour,Minute,Max,Month,Day,Hour,Minute]
134,11,InteriorEquipment:Electricity [J] !RunPeriod [Value,Min,Month,Day,Hour,Minute,Max,Month,Day,Hour,Minute]
170,11,gas_dryer:InteriorEquipment:Electricity [J] !RunPeriod [Value,Min,Month,Day,Hour,Minute,Max,Month,Day,Hour,Minute]
207,11,clotheswasher:InteriorEquipment:Electricity [J] !RunPeriod [Value,Min,Month,Day,Hour,Minute,Max,Month,Day,Hour,Minute]
244,11,dishwasher:InteriorEquipment:Electricity [J] !RunPeriod [Value,Min,Month,Day,Hour,Minute,Max,Month,Day,Hour,Minute]
281,11,refrigerator:InteriorEquipment:Electricity [J] !RunPeriod [Value,Min,Month,Day,Hour,Minute,Max,Month,Day,Hour,Minute]
318,11,electric_mels:InteriorEquipment:Electricity [J] !RunPeriod [Value,Min,Month,Day,Hour,Minute,Max,Month,Day,Hour,Minute]
355,11,NaturalGas:Facility [J] !RunPeriod [Value,Min,Month,Day,Hour,Minute,Max,Month,Day,Hour,Minute]
403,11,InteriorEquipment:NaturalGas [J] !RunPeriod [Value,Min,Month,Day,Hour,Minute,Max,Month,Day,Hour,Minute]
476,11,gas_dryer:InteriorEquipment:NaturalGas [J] !RunPeriod [Value,Min,Month,Day,Hour,Minute,Max,Month,Day,Hour,Minute]
513,11,gas_mels:InteriorEquipment:NaturalGas [J] !RunPeriod [Value,Min,Month,Day,Hour,Minute,Max,Month,Day,Hour,Minute]
End of Data Dictionary
1,EXTREME_WINTER,  43.20, -71.50,  -5.00, 105.50
5,7
1038,3.0,0.0, 1,18, 1,15,0.25, 1,21, 6,15
1039,0.0,0.0, 1,18, 1,15,0.0, 1,18, 1,15
581,0.3603831151125786,0.19591351818500818, 1,18,17,60,0.5669858769359516, 1,20, 9,52
582,3.8150909232437025,0.0, 1,18, 1,60,13.480292460260657, 1,21, 1,60
583,0.048226461970839705,0.0004909321478828242, 1,21,23, 5,0.06618374473147974, 1,20, 9,52
1115,1636018828.9731562,0.0, 1,18,14,45,3695414.2085618316, 1,23, 5,60
1128,560059627.9698429,0.0, 1,18,14,45,1117659.0420539675, 1,23, 6,30
1153,6528337.033859312,0.0, 1,18,14,45,90091.90082108583, 1,18, 9,45
1154,25416042.11765914,0.0, 1,18, 3,45,180000.0, 1,18,14,45
1155,704671427.1060016,0.0, 1,18, 1,15,5405056.3461159, 1,22, 6,15
1156,704671427.1060016,0.0, 1,18, 1,15,5405056.3461159, 1,22, 6,15
1292,-25379205.935293563,-39777.3141757526, 1,18, 1,15,-6078.308529656218, 1,24,15,60
1306,197008296.83787394,0.0, 1,18, 1,15,4050000.0, 1,18, 8,45
1307,43425164.91175857,0.0, 1,18, 1,15,10614572.108949963, 1,21,10,30
1308,197008296.83787394,0.0, 1,18, 1,15,4050000.0, 1,18, 8,45
13,1927373963.7017334,452017.0388981225, 1,18,15,15,11193562.075971004, 1,22, 8,45
61,301924526.02383536,88139.10953165221, 1,18, 1,15,1282023.4113694867, 1,18,20,15
134,70666020.44019976,63564.01800854099, 1,18, 4,15,156554.22484006523, 1,23,20,15
170,5241013.419656067,348.4159749238097, 1,18, 4,15,17476.39704006126, 1,23,12,15
207,6509451.13922267,815.2532113832032, 1,18, 3,15,22990.642799023623, 1,23,10,15
244,12749673.399825225,1521.856143006317, 1,18, 4,15,53038.631142310165, 1,23,20,15
281,46165882.481495745,59938.60262432081, 1,18, 5,15,81951.81706819107, 1,18,19,15
318,0.0,0.0, 1,18, 1,15,0.0, 1,18, 1,15
355,197687796.27748066,18561.32405820678, 1,18, 4,15,724774.895203776, 1,23,18,15
403,197687796.27748066,18561.32405820678, 1,18, 4,15,724774.895203776, 1,23,18,15
476,106772067.24485716,7098.072629279515, 1,18, 4,15,356036.3026282215, 1,23,12,15
513,0.0,0.0, 1,18, 1,15,0.0, 1,18, 1,15
562,61099686.17246079,0.0, 1,18,14,45,115173.96535062167, 1,21, 9,45
1046,0.0,0.0, 1,18, 1,15,0.0, 1,18, 1,15
1096,0.0,0.0, 1,18, 1,15,0.0, 1,18, 1,15
1134,1296675434.2273636,180000.0, 1,18,14,45,6424325.474475217, 1,21, 6,15
1326,197008296.83787394,0.0, 1,18, 1,15,4050000.0, 1,18, 8,45
1379,0.0,0.0, 1,18, 1,15,0.0, 1,18, 1,15
1,EXTREME_SUMMER,  43.20, -71.50,  -5.00, 105.50
5,7
1038,0.0,0.0, 7,17, 1,15,0.0, 7,17, 1,15
1039,21.75,0.0, 7,17, 1,15,0.25, 7,19,13,45
581,0.1377707675224467,0.0, 7,20,23, 3,0.39366355396495484, 7,23,12,48
582,2.5408929301581447,0.0, 7,17, 2,56,8.889881217902655, 7,23,12,48
583,0.026699366158709017,0.0, 7,20,23, 3,0.057615886400979956, 7,21,19,47
1115,0.0,0.0, 7,17, 1, 7,0.0, 7,17, 1, 7
1128,0.0,0.0, 7,17, 1, 7,0.0, 7,17, 1, 7
1153,0.0,0.0, 7,17, 1, 7,0.0, 7,17, 1, 7
1154,1800000.0,0.0, 7,17, 1, 7,180000.0, 7,17, 5,45
1155,0.0,0.0, 7,17, 1, 7,0.0, 7,17, 1, 7
1156,0.0,0.0, 7,17, 1, 7,0.0, 7,17, 1, 7
1292,-22034934.09185147,-34666.448264728824, 7,17, 5,45,-3015.236755588127, 7,21,11,45
1306,156430612.7074467,0.0, 7,17, 1, 7,3952575.2495619957, 7,18, 7,15
1307,25669260.79776813,0.0, 7,17, 1, 7,2460845.409075881, 7,20,10,20
1308,156430612.7074467,0.0, 7,17, 1, 7,3952575.2495619957, 7,18, 7,15
13,894746009.1485724,151703.1275401932, 7,18, 4,15,6551546.386435939, 7,20,19,30
61,301924526.02383536,88139.10953165221, 7,17, 1,15,1282023.4113694867, 7,17,20,15
134,70666020.44019976,63564.01800854099, 7,17, 4,15,156554.22484006523, 7,22,20,15
170,5241013.419656067,348.4159749238097, 7,17, 4,15,17476.39704006126, 7,22,12,15
207,6509451.13922267,815.2532113832032, 7,17, 3,15,22990.642799023623, 7,22,10,15
244,12749673.399825225,1521.856143006317, 7,17, 4,15,53038.631142310165, 7,22,20,15
281,46165882.481495745,59938.60262432081, 7,17, 5,15,81951.81706819107, 7,17,19,15
318,0.0,0.0, 7,17, 1,15,0.0, 7,17, 1,15
355,197687796.27748066,18561.32405820678, 7,17, 4,15,724774.895203776, 7,22,18,15
403,197687796.27748066,18561.32405820678, 7,17, 4,15,724774.895203776, 7,22,18,15
476,106772067.24485716,7098.072629279515, 7,17, 4,15,356036.3026282215, 7,22,12,15
513,0.0,0.0, 7,17, 1,15,0.0, 7,17, 1,15
562,37004677.450163655,0.0, 7,17, 1,45,115173.96535062167, 7,19,18,15
1046,0.0,0.0, 7,17, 1,15,0.0, 7,17, 1,15
1096,326920172.52692574,0.0, 7,17, 1,45,1179064.2635877663, 7,19,15,60
1134,1800000.0,0.0, 7,17, 1,15,180000.0, 7,17, 3,45
1326,156430612.70744666,0.0, 7,17, 1,15,4050000.0, 7,17, 8,45
1379,0.0,0.0, 7,17, 1,15,0.0, 7,17, 1,15
1,ANNUAL,  43.20, -71.50,  -5.00, 105.50
5,365
1038,85.75,0.0, 1, 1, 1,15,0.25, 1, 3, 3,45
1039,322.0,0.0, 1, 1, 1,15,0.25, 4,25,16,60
581,0.2344903611915233,0.0, 4,26, 6,33,0.9767715445320773, 3, 2,24,55
582,2.7579200628837444,0.0, 1, 2, 4,30,21.712898237694148, 3,18,12,52
583,0.02673730062808677,0.0, 4,26, 6,47,0.07463895797769377, 3, 7,20,15
1115,32097534763.130623,0.0, 1, 1,23, 5,3906332.6020040414, 4,12, 4,15
1128,10329986515.211884,0.0, 1, 1,23, 5,1136377.29438721, 4,13, 6,45
1153,333596093.8501602,0.0, 1, 1,23, 5,117220.2835905313, 4, 2, 6,60
1154,1589926366.2935133,0.0, 1, 1, 1,30,180000.0, 1,10,13,45
1155,10070543837.6837,0.0, 1, 1, 1,15,5405056.3461159, 1, 3, 3,15
1156,10070543837.6837,0.0, 1, 1, 1,15,5405056.3461159, 1, 3, 3,15
1292,-1243951351.2919183,-42436.79893904034, 1, 4, 7,15,-2141.548363383648,10,19,10,31
1306,9240864247.481636,0.0, 1, 1, 1,15,4050000.0, 1, 2, 8,45
1307,1766953636.4795249,0.0, 1, 1, 1,15,10767229.175443247, 2, 9,10,30
1308,9240864247.481636,0.0, 1, 1, 1,15,4050000.0, 1, 2, 8,45
13,58574293312.81227,151703.1275401932, 4,26, 4,15,11045912.258048557, 3, 3, 8,30
61,15743207428.383959,88139.10953165221, 1, 1, 1,15,1282023.4113694867, 1, 1,20,15
134,3685071073.4325233,63564.01800854099, 1, 2, 4,15,156554.22484006523, 1, 1,20,15
170,273393721.45532674,348.4159749238097, 1, 2, 4,15,17476.39704006126, 1, 1,12,15
207,339560869.0695816,815.2532113832032, 1, 2, 3,15,22990.642799023623, 1, 1,10,15
244,664895467.8009144,1521.856143006317, 1, 2, 4,15,53038.631142310165, 1, 1,20,15
281,2407221015.106824,59938.60262432081, 1, 1, 5,15,81951.81706819107, 1, 1,19,15
318,0.0,0.0, 1, 1, 1,15,0.0, 1, 1, 1,15
355,10310294493.051695,18561.32405820678, 1, 2, 4,15,724774.895203776, 1, 1,18,15
403,10310294493.051695,18561.32405820678, 1, 2, 4,15,724774.895203776, 1, 1,18,15
476,5569688622.066177,7098.072629279515, 1, 2, 4,15,356036.3026282215, 1, 1,12,15
513,0.0,0.0, 1, 1, 1,15,0.0, 1, 1, 1,15
562,1808767768.1377711,0.0, 1, 8,13,30,115173.96535062171, 8,15,16,45
1046,0.0,0.0, 1, 1, 1,15,0.0, 1, 1, 1,15
1096,5772329982.33589,0.0, 1, 1, 1,15,1223984.8247741375, 6,27,15,60
1134,22324052813.039204,0.0, 1, 8,13,45,6451811.434446706, 2,24, 6,60
1326,9240864247.481644,0.0, 1, 1, 1,15,4050000.0000000014, 5,12, 8,45
1379,0.0,0.0, 1, 1, 1,15,0.0, 1, 1, 1,15
End of Data
 Number of Records Written=          99
