Program Version,EnergyPlus, Version 22.2.0-c249759bad, YMD=2023.09.01 20:21
1,5,Environment Title[],Latitude[deg],Longitude[deg],Time Zone[],Elevation[m]
2,8,Day of Simulation[],Month[],Day of Month[],DST Indicator[1=yes 0=no],Hour[],StartMinute[],EndMinute[],DayType
3,5,Cumulative Day of Simulation[],Month[],Day of Month[],DST Indicator[1=yes 0=no],DayType  ! When Daily Report Variables Requested
4,2,Cumulative Days of Simulation[],Month[]  ! When Monthly Report Variables Requested
5,1,Cumulative Days of Simulation[] ! When Run Period Report Variables Requested
6,1,Calendar Year of Simulation[] ! When Annual Report Variables Requested
581,11,LIVING,AFN Zone Infiltration Air Change Rate [ach] !RunPeriod [Value,Min,Month,Day,Hour,Minute,Max,Month,Day,Hour,Minute]
582,11,ATTIC,AFN Zone Infiltration Air Change Rate [ach] !RunPeriod [Value,Min,Month,Day,Hour,Minute,Max,Month,Day,Hour,Minute]
583,11,CRAWLSPACE,AFN Zone Infiltration Air Change Rate [ach] !RunPeriod [Value,Min,Month,Day,Hour,Minute,Max,Month,Day,Hour,Minute]
1038,11,Facility,Facility Heating Setpoint Not Met Time [hr] !RunPeriod [Value,Min,Month,Day,Hour,Minute,Max,Month,Day,Hour,Minute]
1039,11,Facility,Facility Cooling Setpoint Not Met Time [hr] !RunPeriod [Value,Min,Month,Day,Hour,Minute,Max,Month,Day,Hour,Minute]
1115,11,DX_HEATING_COIL,Heating Coil Heating Energy [J] !RunPeriod [Value,Min,Month,Day,Hour,Minute,Max,Month,Day,Hour,Minute]
1128,11,DX_HEATING_COIL,Heating Coil Electricity Energy [J] !RunPeriod [Value,Min,Month,Day,Hour,Minute,Max,Month,Day,Hour,Minute]
1153,11,DX_HEATING_COIL,Heating Coil Defrost Electricity Energy [J] !RunPeriod [Value,Min,Month,Day,Hour,Minute,Max,Month,Day,Hour,Minute]
1154,11,DX_HEATING_COIL,Heating Coil Crankcase Heater Electricity Energy [J] !RunPeriod [Value,Min,Month,Day,Hour,Minute,Max,Month,Day,Hour,Minute]
1155,11,HEATING_RESISTANCE_BACKUP,Heating Coil Heating Energy [J] !RunPeriod [Value,Min,Month,Day,Hour,Minute,Max,Month,Day,Hour,Minute]
1156,11,HEATING_RESISTANCE_BACKUP,Heating Coil Electricity Energy [J] !RunPeriod [Value,Min,Month,Day,Hour,Minute,Max,Month,Day,Hour,Minute]
1292,11,WATER HEATER,Water Heater Heat Loss Energy [J] !RunPeriod [Value,Min,Month,Day,Hour,Minute,Max,Month,Day,Hour,Minute]
1306,11,WATER HEATER,Water Heater Heating Energy [J] !RunPeriod [Value,Min,Month,Day,Hour,Minute,Max,Month,Day,Hour,Minute]
1307,11,WATER HEATER,Water Heater Unmet Demand Heat Transfer Energy [J] !RunPeriod [Value,Min,Month,Day,Hour,Minute,Max,Month,Day,Hour,Minute]
1308,11,WATER HEATER,Water Heater Electricity Energy [J] !RunPeriod [Value,Min,Month,Day,Hour,Minute,Max,Month,Day,Hour,Minute]
13,11,Electricity:Facility [J] !RunPeriod [Value,Min,Month,Day,Hour,Minute,Max,Month,Day,Hour,Minute]
1134,11,Heating:Electricity [J] !RunPeriod [Value,Min,Month,Day,Hour,Minute,Max,Month,Day,Hour,Minute]
1096,11,Cooling:Electricity [J] !RunPeriod [Value,Min,Month,Day,Hour,Minute,Max,Month,Day,Hour,Minute]
562,11,Fans:Electricity [J] !RunPeriod [Value,Min,Month,Day,Hour,Minute,Max,Month,Day,Hour,Minute]
1379,11,Pumps:Electricity [J] !RunPeriod [Value,Min,Month,Day,Hour,Minute,Max,Month,Day,Hour,Minute]
1326,11,WaterSystems:Electricity [J] !RunPeriod [Value,Min,Month,Day,Hour,Minute,Max,Month,Day,Hour,Minute]
61,11,InteriorLights:Electricity [J] !RunPeriod [Value,Min,Month,Day,Hour,Minute,Max,Month,Day,Hour,Minute]
1046,11,ExteriorLights:Electricity [J] !RunPeriod [Value,Min,Month,Day,Hour,Minute,Max,Month,Day,Hour,Minute]
134,11,InteriorEquipment:Electricity [J] !RunPeriod [Value,Min,Month,Day,Hour,Minute,Max,Month,Day,Hour,Minute]
170,11,gas_dryer:InteriorEquipment:Electricity [J] !RunPeriod [Value,Min,Month,Day,Hour,Minute,Max,Month,Day,Hour,Minute]
207,11,clotheswasher:InteriorEquipment:Electricity [J] !RunPeriod [Value,Min,Month,Day,Hour,Minute,Max,Month,Day,Hour,Minute]
244,11,dishwasher:InteriorEquipment:Electricity [J] !RunPeriod [Value,Min,Month,Day,Hour,Minute,Max,Month,Day,Hour,Minute]
281,11,refrigerator:InteriorEquipment:Electricity [J] !RunPeriod [Value,Min,Month,Day,Hour,Minute,Max,Month,Day,Hour,Minute]
318,11,electric_mels:InteriorEquipment:Electricity [J] !RunPeriod [Value,Min,Month,Day,Hour,Minute,Max,Month,Day,Hour,Minute]
355,11,NaturalGas:Facility [J] !RunPeriod [Value,Min,Month,Day,Hour,Minute,Max,Month,Day,Hour,Minute]
403,11,InteriorEquipment:NaturalGas [J] !RunPeriod [Value,Min,Month,Day,Hour,Minute,Max,Month,Day,Hour,Minute]
476,11,gas_dryer:InteriorEquipment:NaturalGas [J] !RunPeriod [Value,Min,Month,Day,Hour,Minute,Max,Month,Day,Hour,Minute]
513,11,gas_mels:InteriorEquipment:NaturalGas [J] !RunPeriod [Value,Min,Month,Day,Hour,Minute,Max,Month,Day,Hour,Minute]
End of Data Dictionary
1,EXTREME_WINTER,  32.90, -80.03,  -5.00,  14.30
5,7
1038,0.0,0.0, 1, 6, 1,15,0.0, 1, 6, 1,15
1039,0.0,0.0, 1, 6, 1,15,0.0, 1, 6, 1,15
581,0.2823762811151883,0.08558173347777427, 1,12, 6,60,0.7927816746162313, 1, 8, 2,60
582,4.185783145312062,0.0, 1, 6, 1,52,12.6165388381224, 1, 7,23, 5
583,0.015931523661183694,0.00012983598452890376, 1, 6, 2, 7,0.08263064545100296, 1, 8, 4,52
1115,564658762.4179287,0.0, 1, 6, 1,15,4484056.990745599, 1, 8, 4,15
1128,178843818.64092562,0.0, 1, 6, 1,15,1451725.7886228305, 1, 8, 6,30
1153,1721688.1090889524,0.0, 1, 6, 1,15,61750.420507849354, 1, 6, 6,45
1154,59298272.441702545,0.0, 1, 6, 6, 5,180000.0, 1, 6, 1,15
1155,43552584.75135842,0.0, 1, 6, 1,15,2721388.3361973152, 1, 8, 8,15
1156,43552584.75135842,0.0, 1, 6, 1,15,2721388.3361973152, 1, 8, 8,15
1292,-24472085.34689478,-39752.52976762512, 1,11, 5,30,-4552.589403569141, 1, 6,10,30
1306,110442604.34860663,0.0, 1, 6, 1,15,4050000.0, 1, 6, 7,15
1307,17291650.02774847,0.0, 1, 6, 1,15,3179207.290280264, 1, 6, 6,60
1308,110442604.34860663,0.0, 1, 6, 1,15,4050000.0, 1, 6, 7,15
13,792963877.3607625,152071.80019841267, 1,12, 4,15,8501404.552532129, 1, 8, 8,60
61,301924526.02383536,88139.10953165221, 1, 6, 1,15,1282023.4113694867, 1, 6,20,15
134,70666020.44019976,63564.01800854099, 1, 6, 4,15,156554.22484006523, 1,11,20,15
170,5241013.419656067,348.4159749238097, 1, 6, 4,15,17476.39704006126, 1,11,12,15
207,6509451.13922267,815.2532113832032, 1, 6, 3,15,22990.642799023623, 1,11,10,15
244,12749673.399825225,1521.856143006317, 1, 6, 4,15,53038.631142310165, 1,11,20,15
281,46165882.481495745,59938.60262432081, 1, 6, 5,15,81951.81706819107, 1, 6,19,15
318,0.0,0.0, 1, 6, 1,15,0.0, 1, 6, 1,15
355,197687796.27748066,18561.32405820678, 1, 6, 4,15,724774.895203776, 1,11,18,15
403,197687796.27748066,18561.32405820678, 1, 6, 4,15,724774.895203776, 1,11,18,15
476,106772067.24485716,7098.072629279515, 1, 6, 4,15,356036.3026282215, 1,11,12,15
513,0.0,0.0, 1, 6, 1,15,0.0, 1, 6, 1,15
562,17515279.749134667,0.0, 1, 6, 1,15,136258.4496483516, 1, 8, 3,45
1046,0.0,0.0, 1, 6, 1,15,0.0, 1, 6, 1,15
1096,8999082.855910813,0.0, 1, 6, 1,15,364849.7694644015, 1, 6,17,30
1134,283416363.9430756,0.0, 1, 6,10,45,4456562.5383301675, 1, 8, 6,15
1326,110442604.34860662,0.0, 1, 6, 1,15,4050000.0, 1, 6, 7,15
1379,0.0,0.0, 1, 6, 1,15,0.0, 1, 6, 1,15
1,EXTREME_SUMMER,  32.90, -80.03,  -5.00,  14.30
5,7
1038,0.0,0.0, 7,20, 1,15,0.0, 7,20, 1,15
1039,29.0,0.0, 7,20, 1,15,0.25, 7,20,14,30
581,0.16029454330801085,0.007849311223177984, 7,20,10,46,0.5412975063883674, 7,25,19,50
582,4.09233858935606,0.1357977695779597, 7,26, 6,60,10.153606111818005, 7,25,19,50
583,0.041444557423168556,0.001165673842587057, 7,26,23, 5,0.07268441724584199, 7,22,19,48
1115,0.0,0.0, 7,20, 1,15,0.0, 7,20, 1,15
1128,0.0,0.0, 7,20, 1,15,0.0, 7,20, 1,15
1153,0.0,0.0, 7,20, 1,15,0.0, 7,20, 1,15
1154,0.0,0.0, 7,20, 1,15,0.0, 7,20, 1,15
1155,0.0,0.0, 7,20, 1,15,0.0, 7,20, 1,15
1156,0.0,0.0, 7,20, 1,15,0.0, 7,20, 1,15
1292,-21962173.250490535,-34355.08061764319, 7,25, 6,45,-3290.7093375354543, 7,20,10,45
1306,80399257.3984406,0.0, 7,20, 1,15,3632063.3330499944, 7,21, 7,15
1307,4210646.235305395,0.0, 7,20, 1,15,2699809.836052591, 7,20, 6,60
1308,80399257.3984406,0.0, 7,20, 1,15,3632063.3330499944, 7,21, 7,15
13,1110618809.8161552,340906.3341482853, 7,21, 4,60,6257740.674358243, 7,20,19,30
61,301924526.02383536,88139.10953165221, 7,20, 1,15,1282023.4113694867, 7,20,20,15
134,70666020.44019976,63564.01800854099, 7,20, 4,15,156554.22484006523, 7,25,20,15
170,5241013.419656067,348.4159749238097, 7,20, 4,15,17476.39704006126, 7,25,12,15
207,6509451.13922267,815.2532113832032, 7,20, 3,15,22990.642799023623, 7,25,10,15
244,12749673.399825225,1521.856143006317, 7,20, 4,15,53038.631142310165, 7,25,20,15
281,46165882.481495745,59938.60262432081, 7,20, 5,15,81951.81706819107, 7,20,19,15
318,0.0,0.0, 7,20, 1,15,0.0, 7,20, 1,15
355,197687796.27748066,18561.32405820678, 7,20, 4,15,724774.895203776, 7,25,18,15
403,197687796.27748066,18561.32405820678, 7,20, 4,15,724774.895203776, 7,25,18,15
476,106772067.24485716,7098.072629279515, 7,20, 4,15,356036.3026282215, 7,25,12,15
513,0.0,0.0, 7,20, 1,15,0.0, 7,20, 1,15
562,54413041.31943741,7067.014047633665, 7,26,23,15,136258.4496483516, 7,20,12,60
1046,0.0,0.0, 7,20, 1,15,0.0, 7,20, 1,15
1096,603215964.6342419,67374.47672723513, 7,26,23,15,1700962.1153539699, 7,22,14,60
1134,0.0,0.0, 7,20, 1,15,0.0, 7,20, 1,15
1326,80399257.3984406,0.0, 7,20, 1,15,3905254.192203197, 7,25,10,30
1379,0.0,0.0, 7,20, 1,15,0.0, 7,20, 1,15
1,ANNUAL,  32.90, -80.03,  -5.00,  14.30
5,365
1038,1.75,0.0, 1, 1, 1,15,0.25, 1,14, 6,15
1039,400.75,0.0, 1, 1, 1,15,0.25, 1, 6,14,15
581,0.18643668281882855,0.0, 4, 5,23, 3,0.8319566678077854, 3,28,14,60
582,3.535818817474106,0.0, 1, 1, 2,48,19.824835851096864, 3,29,16,50
583,0.024707346681202603,0.0, 4, 5,23, 3,0.08241202525532754, 1, 8, 4,52
1115,4208773337.821433,0.0, 1, 1, 1,15,4708641.8569159955, 3, 3, 6,30
1128,1274224777.812082,0.0, 1, 1, 1,15,1494873.7275908885, 3, 3, 6,30
1153,58000169.45933323,0.0, 1, 1, 1,15,109399.68600209478, 2,13, 6,45
1154,831043386.2628245,0.0, 1, 1, 6, 5,180000.0, 1, 1, 1,15
1155,67933724.84982376,0.0, 1, 1, 1,15,2769583.861245288, 1, 8, 8,15
1156,67933724.84982376,0.0, 1, 1, 1,15,2769583.861245288, 1, 8, 8,15
1292,-1184735687.960795,-39778.652929779266,12,21, 4,30,-2178.925038505447, 7,10,11,45
1306,5032947721.678225,0.0, 1, 1, 1,15,4050000.0, 1, 2, 7,15
1307,551395860.9947779,0.0, 1, 1, 1,15,5742432.830043342, 3,13, 6,60
1308,5032947721.678225,0.0, 1, 1, 1,15,4050000.0, 1, 2, 7,15
13,43020740030.606926,151703.1275401932, 1, 2, 4,15,6823070.226278877, 5,22,19,30
61,15743207428.383959,88139.10953165221, 1, 1, 1,15,1282023.4113694867, 1, 1,20,15
134,3685071073.4325233,63564.01800854099, 1, 2, 4,15,156554.22484006523, 1, 1,20,15
170,273393721.45532674,348.4159749238097, 1, 2, 4,15,17476.39704006126, 1, 1,12,15
207,339560869.0695816,815.2532113832032, 1, 2, 3,15,22990.642799023623, 1, 1,10,15
244,664895467.8009144,1521.856143006317, 1, 2, 4,15,53038.631142310165, 1, 1,20,15
281,2407221015.106824,59938.60262432081, 1, 1, 5,15,81951.81706819107, 1, 1,19,15
318,0.0,0.0, 1, 1, 1,15,0.0, 1, 1, 1,15
355,10310294493.051695,18561.32405820678, 1, 2, 4,15,724774.895203776, 1, 1,18,15
403,10310294493.051695,18561.32405820678, 1, 2, 4,15,724774.895203776, 1, 1,18,15
476,5569688622.066177,7098.072629279515, 1, 2, 4,15,356036.3026282215, 1, 1,12,15
513,0.0,0.0, 1, 1, 1,15,0.0, 1, 1, 1,15
562,1581864072.199013,0.0, 1, 1, 1,15,136258.4496483516, 1, 8, 3,45
1046,0.0,0.0, 1, 1, 1,15,0.0, 1, 1, 1,15
1096,14746447676.52723,0.0, 1, 1, 1,15,1718055.7685639472, 7,13,15,60
1134,2231202058.384062,0.0, 1, 1,12,30,4508549.451055532, 1, 8, 6,15
1326,5032947721.678209,0.0, 1, 1, 1,15,4050000.0, 1, 2, 7,15
1379,0.0,0.0, 1, 1, 1,15,0.0, 1, 1, 1,15
End of Data
 Number of Records Written=          99
