Program Version,EnergyPlus, Version 22.2.0-c249759bad, YMD=2023.09.01 20:24
1,5,Environment Title[],Latitude[deg],Longitude[deg],Time Zone[],Elevation[m]
2,8,Day of Simulation[],Month[],Day of Month[],DST Indicator[1=yes 0=no],Hour[],StartMinute[],EndMinute[],DayType
3,5,Cumulative Day of Simulation[],Month[],Day of Month[],DST Indicator[1=yes 0=no],DayType  ! When Daily Report Variables Requested
4,2,Cumulative Days of Simulation[],Month[]  ! When Monthly Report Variables Requested
5,1,Cumulative Days of Simulation[] ! When Run Period Report Variables Requested
6,1,Calendar Year of Simulation[] ! When Annual Report Variables Requested
581,11,LIVING,AFN Zone Infiltration Air Change Rate [ach] !RunPeriod [Value,Min,Month,Day,Hour,Minute,Max,Month,Day,Hour,Minute]
582,11,ATTIC,AFN Zone Infiltration Air Change Rate [ach] !RunPeriod [Value,Min,Month,Day,Hour,Minute,Max,Month,Day,Hour,Minute]
583,11,CRAWLSPACE,AFN Zone Infiltration Air Change Rate [ach] !RunPeriod [Value,Min,Month,Day,Hour,Minute,Max,Month,Day,Hour,Minute]
1038,11,Facility,Facility Heating Setpoint Not Met Time [hr] !RunPeriod [Value,Min,Month,Day,Hour,Minute,Max,Month,Day,Hour,Minute]
1039,11,Facility,Facility Cooling Setpoint Not Met Time [hr] !RunPeriod [Value,Min,Month,Day,Hour,Minute,Max,Month,Day,Hour,Minute]
1115,11,DX_HEATING_COIL,Heating Coil Heating Energy [J] !RunPeriod [Value,Min,Month,Day,Hour,Minute,Max,Month,Day,Hour,Minute]
1128,11,DX_HEATING_COIL,Heating Coil Electricity Energy [J] !RunPeriod [Value,Min,Month,Day,Hour,Minute,Max,Month,Day,Hour,Minute]
1153,11,DX_HEATING_COIL,Heating Coil Defrost Electricity Energy [J] !RunPeriod [Value,Min,Month,Day,Hour,Minute,Max,Month,Day,Hour,Minute]
1154,11,DX_HEATING_COIL,Heating Coil Crankcase Heater Electricity Energy [J] !RunPeriod [Value,Min,Month,Day,Hour,Minute,Max,Month,Day,Hour,Minute]
1155,11,HEATING_RESISTANCE_BACKUP,Heating Coil Heating Energy [J] !RunPeriod [Value,Min,Month,Day,Hour,Minute,Max,Month,Day,Hour,Minute]
1156,11,HEATING_RESISTANCE_BACKUP,Heating Coil Electricity Energy [J] !RunPeriod [Value,Min,Month,Day,Hour,Minute,Max,Month,Day,Hour,Minute]
1292,11,WATER HEATER,Water Heater Heat Loss Energy [J] !RunPeriod [Value,Min,Month,Day,Hour,Minute,Max,Month,Day,Hour,Minute]
1306,11,WATER HEATER,Water Heater Heating Energy [J] !RunPeriod [Value,Min,Month,Day,Hour,Minute,Max,Month,Day,Hour,Minute]
1307,11,WATER HEATER,Water Heater Unmet Demand Heat Transfer Energy [J] !RunPeriod [Value,Min,Month,Day,Hour,Minute,Max,Month,Day,Hour,Minute]
1308,11,WATER HEATER,Water Heater Electricity Energy [J] !RunPeriod [Value,Min,Month,Day,Hour,Minute,Max,Month,Day,Hour,Minute]
13,11,Electricity:Facility [J] !RunPeriod [Value,Min,Month,Day,Hour,Minute,Max,Month,Day,Hour,Minute]
1134,11,Heating:Electricity [J] !RunPeriod [Value,Min,Month,Day,Hour,Minute,Max,Month,Day,Hour,Minute]
1096,11,Cooling:Electricity [J] !RunPeriod [Value,Min,Month,Day,Hour,Minute,Max,Month,Day,Hour,Minute]
562,11,Fans:Electricity [J] !RunPeriod [Value,Min,Month,Day,Hour,Minute,Max,Month,Day,Hour,Minute]
1379,11,Pumps:Electricity [J] !RunPeriod [Value,Min,Month,Day,Hour,Minute,Max,Month,Day,Hour,Minute]
1326,11,WaterSystems:Electricity [J] !RunPeriod [Value,Min,Month,Day,Hour,Minute,Max,Month,Day,Hour,Minute]
61,11,InteriorLights:Electricity [J] !RunPeriod [Value,Min,Month,Day,Hour,Minute,Max,Month,Day,Hour,Minute]
1046,11,ExteriorLights:Electricity [J] !RunPeriod [Value,Min,Month,Day,Hour,Minute,Max,Month,Day,Hour,Minute]
134,11,InteriorEquipment:Electricity [J] !RunPeriod [Value,Min,Month,Day,Hour,Minute,Max,Month,Day,Hour,Minute]
170,11,gas_dryer:InteriorEquipment:Electricity [J] !RunPeriod [Value,Min,Month,Day,Hour,Minute,Max,Month,Day,Hour,Minute]
207,11,clotheswasher:InteriorEquipment:Electricity [J] !RunPeriod [Value,Min,Month,Day,Hour,Minute,Max,Month,Day,Hour,Minute]
244,11,dishwasher:InteriorEquipment:Electricity [J] !RunPeriod [Value,Min,Month,Day,Hour,Minute,Max,Month,Day,Hour,Minute]
281,11,refrigerator:InteriorEquipment:Electricity [J] !RunPeriod [Value,Min,Month,Day,Hour,Minute,Max,Month,Day,Hour,Minute]
318,11,electric_mels:InteriorEquipment:Electricity [J] !RunPeriod [Value,Min,Month,Day,Hour,Minute,Max,Month,Day,Hour,Minute]
355,11,NaturalGas:Facility [J] !RunPeriod [Value,Min,Month,Day,Hour,Minute,Max,Month,Day,Hour,Minute]
403,11,InteriorEquipment:NaturalGas [J] !RunPeriod [Value,Min,Month,Day,Hour,Minute,Max,Month,Day,Hour,Minute]
476,11,gas_dryer:InteriorEquipment:NaturalGas [J] !RunPeriod [Value,Min,Month,Day,Hour,Minute,Max,Month,Day,Hour,Minute]
513,11,gas_mels:InteriorEquipment:NaturalGas [J] !RunPeriod [Value,Min,Month,Day,Hour,Minute,Max,Month,Day,Hour,Minute]
End of Data Dictionary
1,EXTREME_WINTER,  39.87,-104.67,  -7.00,1650.20
5,15
1038,0.25,0.0,12,22, 1,15,0.25,12,28, 6,15
1039,0.0,0.0,12,22, 1,15,0.0,12,22, 1,15
581,0.4296603415400655,0.1580494387761584, 1, 3,16,52,1.0378222154667156,12,26, 2,60
582,4.585896722075666,0.0,12,28, 1,60,22.737826560974135, 1, 3,13,52
583,0.06591459069170388,0.0003077809328895807, 1, 2,18,60,0.11251347721293253,12,26, 2,60
1115,4105941751.3181853,0.0,12,22,12,22,5192717.071244875,12,24, 4,60
1128,1492081113.4206464,0.0,12,22,12,22,1695867.9505240605,12,24, 6,45
1153,31507935.52952273,0.0,12,22,11, 5,126736.42370760677, 1, 1, 9,60
1154,81987368.2650903,0.0,12,22, 6, 5,180000.0,12,22,12,60
1155,1024568214.0461845,0.0,12,22, 1,15,5544148.19742089, 1, 5,24,60
1156,1024568214.0461845,0.0,12,22, 1,15,5544148.19742089, 1, 5,24,60
1292,-54142090.692697175,-39747.02155304837,12,22, 1,30,-3933.062036102119,12,24,16,46
1306,396854864.8621261,0.0,12,22, 1,15,4050000.0,12,22, 8,45
1307,78171682.93053934,0.0,12,22, 1,15,9807835.927113917, 1, 1,10,30
1308,396854864.8621261,0.0,12,22, 1,15,4050000.0,12,22, 8,45
13,3992824945.8207984,278150.8545527997, 1, 3,15,15,10599720.784297153, 1, 5, 8,45
61,646981127.1939323,88139.10953165221,12,22, 1,15,1282023.4113694867,12,22,20,15
134,151290040.75163814,63564.01800854099,12,22, 4,15,156554.22484006523,12,27,20,15
170,11185820.069951689,348.4159749238097,12,22, 4,15,17476.39704006126,12,27,12,15
207,13893028.5742839,815.2532113832032,12,22, 3,15,22990.642799023623,12,27,10,15
244,27284301.07562584,1521.856143006317,12,22, 4,15,53038.631142310165,12,27,20,15
281,98926891.03177746,59938.60262432081,12,22, 5,15,81951.81706819107,12,22,19,15
318,0.0,0.0,12,22, 1,15,0.0,12,22, 1,15
355,422701517.16107386,18561.32405820678,12,22, 4,15,724774.895203776,12,27,18,15
403,422701517.16107386,18561.32405820678,12,22, 4,15,724774.895203776,12,27,18,15
476,227882097.80545202,7098.072629279515,12,22, 4,15,356036.3026282215,12,27,12,15
513,0.0,0.0,12,22, 1,15,0.0,12,22, 1,15
562,167407985.5184178,0.0,12,22,12,30,177326.12362351795,12,27,10,30
1046,0.0,0.0,12,22, 1,15,0.0,12,22, 1,15
1096,146296.23323588565,0.0,12,22, 1,15,23846.01991123041, 1, 3,16,15
1134,2630144631.261448,0.0, 1, 3,11,45,7245640.2757519735, 1, 5, 7,60
1326,396854864.86212605,0.0,12,22, 1,15,4050000.0,12,22, 8,45
1379,0.0,0.0,12,22, 1,15,0.0,12,22, 1,15
1,EXTREME_SUMMER,  39.87,-104.67,  -7.00,1650.20
5,7
1038,0.0,0.0, 7,27, 1,15,0.0, 7,27, 1,15
1039,0.0,0.0, 7,27, 1,15,0.0, 7,27, 1,15
581,0.24604284777454724,0.03274620430049303, 8, 2, 7,47,0.9205711822380995, 8, 2,17,50
582,5.2250899392403305,0.02329707730407621, 8, 2, 7,52,18.81656880646437, 8, 2,17,50
583,0.03949998715990267,0.0012141811056913243, 8, 2, 6,11,0.09651154558338375, 7,31,18,20
1115,0.0,0.0, 7,27, 1,15,0.0, 7,27, 1,15
1128,0.0,0.0, 7,27, 1,15,0.0, 7,27, 1,15
1153,0.0,0.0, 7,27, 1,15,0.0, 7,27, 1,15
1154,0.0,0.0, 7,27, 1,15,0.0, 7,27, 1,15
1155,0.0,0.0, 7,27, 1,15,0.0, 7,27, 1,15
1156,0.0,0.0, 7,27, 1,15,0.0, 7,27, 1,15
1292,-22104951.58058939,-34361.4013722778, 7,31, 6,60,-2679.0648426125035, 7,31,16,57
1306,146122587.03109068,0.0, 7,27, 1,15,2025000.0, 7,28, 7,15
1307,21398359.895385385,0.0, 7,27, 1,15,1086876.6092172104, 7,30,10,17
1308,146122587.03109068,0.0, 7,27, 1,15,2025000.0, 7,28, 7,15
13,1025128723.058893,151703.1275401932, 7,27, 4,15,5999476.162378705, 7,30,19,30
61,301924526.02383536,88139.10953165221, 7,27, 1,15,1282023.4113694867, 7,27,20,15
134,70666020.44019976,63564.01800854099, 7,27, 4,15,156554.22484006523, 8, 1,20,15
170,5241013.419656067,348.4159749238097, 7,27, 4,15,17476.39704006126, 8, 1,12,15
207,6509451.13922267,815.2532113832032, 7,27, 3,15,22990.642799023623, 8, 1,10,15
244,12749673.399825225,1521.856143006317, 7,27, 4,15,53038.631142310165, 8, 1,20,15
281,46165882.481495745,59938.60262432081, 7,27, 5,15,81951.81706819107, 7,27,19,15
318,0.0,0.0, 7,27, 1,15,0.0, 7,27, 1,15
355,197687796.27748066,18561.32405820678, 7,27, 4,15,724774.895203776, 8, 1,18,15
403,197687796.27748066,18561.32405820678, 7,27, 4,15,724774.895203776, 8, 1,18,15
476,106772067.24485716,7098.072629279515, 7,27, 4,15,356036.3026282215, 8, 1,12,15
513,0.0,0.0, 7,27, 1,15,0.0, 7,27, 1,15
562,49305239.663812526,0.0, 7,27, 3,45,176647.28866462177, 7,31,18,30
1046,0.0,0.0, 7,27, 1,15,0.0, 7,27, 1,15
1096,457110349.89995414,0.0, 7,27, 3,45,1850757.0824966426, 7,31,18,30
1134,0.0,0.0, 7,27, 1,15,0.0, 7,27, 1,15
1326,146122587.03109068,0.0, 7,27, 1,15,4050000.0, 7,27, 8,45
1379,0.0,0.0, 7,27, 1,15,0.0, 7,27, 1,15
1,ANNUAL,  39.87,-104.67,  -7.00,1650.20
5,365
1038,6.25,0.0, 1, 1, 1,15,0.25, 1, 6, 3,45
1039,12.5,0.0, 1, 1, 1,15,0.25, 3,14,13,60
581,0.3101538101740758,0.015002722429310321, 7, 5, 6,11,1.3784213438357071, 7,14,16,46
582,5.119614028272985,0.0, 1,19,18,32,43.301682842547244, 7,14,16,46
583,0.030871504420711415,0.0, 5, 6, 7,58,0.1222785086188442, 3,26,13,52
1115,25461758498.06885,0.0, 1, 1,23, 3,5391101.674927561, 1,29, 6,45
1128,8579170877.466779,0.0, 1, 1,23, 3,1719110.4483948667, 1,29, 6,45
1153,232604650.52581885,0.0, 1, 1,23, 3,133264.33184036697, 4,17, 6,45
1154,1977870597.3541691,0.0, 1, 1, 6, 5,180000.0, 1, 2,14,45
1155,2637329551.569825,0.0, 1, 1, 1, 7,5790321.4197583925, 1, 6, 2,60
1156,2637329551.569825,0.0, 1, 1, 1, 7,5790321.4197583925, 1, 6, 2,60
1292,-1230281879.1087432,-40897.521017810126, 1, 6, 6,30,-1996.3191228629903, 4,13,10,30
1306,8857809735.103952,0.0, 1, 1, 1, 7,4050000.0, 1, 1, 9,45
1307,1587170727.839035,0.0, 1, 1, 1, 7,9889844.18507563, 1, 5,10,30
1308,8857809735.103952,0.0, 1, 1, 1, 7,4050000.0, 1, 1, 9,45
13,51424822584.054085,151703.1275401932, 3, 3, 4,30,12121085.982970763, 1, 6, 8,45
61,15743207428.383959,88139.10953165221, 1, 1, 1,15,1282023.4113694867, 1, 1,20,15
134,3685071073.4325233,63564.01800854099, 1, 2, 4,15,156554.22484006523, 1, 1,20,15
170,273393721.45532674,348.4159749238097, 1, 2, 4,15,17476.39704006126, 1, 1,12,15
207,339560869.0695816,815.2532113832032, 1, 2, 3,15,22990.642799023623, 1, 1,10,15
244,664895467.8009144,1521.856143006317, 1, 2, 4,15,53038.631142310165, 1, 1,20,15
281,2407221015.106824,59938.60262432081, 1, 1, 5,15,81951.81706819107, 1, 1,19,15
318,0.0,0.0, 1, 1, 1,15,0.0, 1, 1, 1,15
355,10310294493.051695,18561.32405820678, 1, 2, 4,15,724774.895203776, 1, 1,18,15
403,10310294493.051695,18561.32405820678, 1, 2, 4,15,724774.895203776, 1, 1,18,15
476,5569688622.066177,7098.072629279515, 1, 2, 4,15,356036.3026282215, 1, 1,12,15
513,0.0,0.0, 1, 1, 1,15,0.0, 1, 1, 1,15
562,1864513966.7687929,0.0, 1, 2,13,15,177326.12362351795, 1, 6,10,30
1046,0.0,0.0, 1, 1, 1,15,0.0, 1, 1, 1,15
1096,7847244703.446528,0.0, 1, 1, 1,15,1941637.3292296939, 7, 4,16,45
1134,13426975676.916561,0.0, 1, 3,11,45,7284690.194064214, 1, 6, 9,15
1326,8857809735.103935,0.0, 1, 1, 1,15,4050000.0000000014, 4,13,10,45
1379,0.0,0.0, 1, 1, 1,15,0.0, 1, 1, 1,15
End of Data
 Number of Records Written=          99
