Program Version,EnergyPlus, Version 22.2.0-c249759bad, YMD=2023.09.01 14:30
1,5,Environment Title[],Latitude[deg],Longitude[deg],Time Zone[],Elevation[m]
2,8,Day of Simulation[],Month[],Day of Month[],DST Indicator[1=yes 0=no],Hour[],StartMinute[],EndMinute[],DayType
3,5,Cumulative Day of Simulation[],Month[],Day of Month[],DST Indicator[1=yes 0=no],DayType  ! When Daily Report Variables Requested
4,2,Cumulative Days of Simulation[],Month[]  ! When Monthly Report Variables Requested
5,1,Cumulative Days of Simulation[] ! When Run Period Report Variables Requested
6,1,Calendar Year of Simulation[] ! When Annual Report Variables Requested
7,1,Environment,Site Outdoor Air Drybulb Temperature [C] !Hourly
619,1,DX_HEATING_COIL,Heating Coil Heating Rate [W] !Hourly
633,1,DX_HEATING_COIL,Heating Coil Electricity Rate [W] !Hourly
659,1,DX_HEATING_COIL,Heating Coil Defrost Electricity Rate [W] !Hourly
661,1,DX_HEATING_COIL,Heating Coil Crankcase Heater Electricity Rate [W] !Hourly
690,1,FAN,Fan Electricity Rate [W] !Hourly
716,1,HEAT PUMP WATER HEATER FAN,Fan Electricity Rate [W] !Hourly
718,1,LIVING,Zone Mean Air Temperature [C] !Hourly
719,1,ATTIC,Zone Mean Air Temperature [C] !Hourly
720,1,CRAWLSPACE,Zone Mean Air Temperature [C] !Hourly
843,1,LIVING,Zone Predicted Sensible Load to Heating Setpoint Heat Transfer Rate [W] !Hourly
844,1,LIVING,Zone System Predicted Sensible Load to Heating Setpoint Heat Transfer Rate [W] !Hourly
907,1,ATTIC,Zone Predicted Sensible Load to Heating Setpoint Heat Transfer Rate [W] !Hourly
908,1,ATTIC,Zone System Predicted Sensible Load to Heating Setpoint Heat Transfer Rate [W] !Hourly
971,1,CRAWLSPACE,Zone Predicted Sensible Load to Heating Setpoint Heat Transfer Rate [W] !Hourly
972,1,CRAWLSPACE,Zone System Predicted Sensible Load to Heating Setpoint Heat Transfer Rate [W] !Hourly
1195,1,HEATING_RESISTANCE_BACKUP,Heating Coil Heating Rate [W] !Hourly
1197,1,HEATING_RESISTANCE_BACKUP,Heating Coil Electricity Rate [W] !Hourly
End of Data Dictionary
1,EXTREME_WINTER,  39.22,-106.87,  -7.00,2384.00
2,1,12,22, 0, 1, 0.00,60.00,Monday
7,-2.8
718,18.94320550544202
719,0.09890278280311529
720,18.323590455487395
619,2654.9755041959697
633,883.437783460386
659,67.32206937330332
661,88.42015645274437
690,101.10696909250896
716,0.0
843,1929.3020717551863
844,1929.3020717551863
907,0.0
908,0.0
971,0.0
972,0.0
1195,0.0
1197,0.0
2,1,12,22, 0, 2, 0.00,60.00,Monday
7,-3.3
718,18.682045584758345
719,-0.1895761796351829
720,17.927921289742855
619,2514.9462538622774
633,864.0017402839321
659,69.62175158430414
661,91.28609638317138
690,98.29687631017617
716,0.0
843,1810.8726026969362
844,1810.8726026969362
907,0.0
908,0.0
971,0.0
972,0.0
1195,0.0
1197,0.0
2,1,12,22, 0, 3, 0.00,60.00,Monday
7,-2.8
718,18.636105073635797
719,-0.3001120266034494
720,17.71045381814687
619,2698.8307126673562
633,906.3960308647347
659,61.95149720676381
661,87.54596970012275
690,102.04417881150911
716,0.0
843,1936.9685302824055
844,1936.9685302824055
907,0.0
908,0.0
971,0.0
972,0.0
1195,0.0
1197,0.0
2,1,12,22, 0, 4, 0.00,60.00,Monday
7,-1.7
718,18.578468351178785
719,0.42012990183801513
720,17.487843006003843
619,2916.3347520497414
633,953.0055846248786
659,65.77099541450382
661,82.54773547681941
690,106.75960650849458
716,0.0
843,2114.963041617868
844,2114.963041617868
907,0.0
908,0.0
971,0.0
972,0.0
1195,0.0
1197,0.0
2,1,12,22, 0, 5, 0.00,60.00,Monday
7,-1.1
718,18.609473778838176
719,0.8035741589714102
720,17.296455052812558
619,2984.291082577876
633,960.9019303927513
659,61.22671747446158
661,82.77877344797761
690,106.7453758070263
716,0.0
843,2175.9436154362647
844,2175.9436154362647
907,0.0
908,0.0
971,0.0
972,0.0
1195,0.0
1197,0.0
2,1,12,22, 0, 6, 0.00,60.00,Monday
7,-1.7
718,19.44709701055162
719,1.470165159936904
720,17.103854640415097
619,4025.008521847422
633,1281.418445270219
659,77.15434347205702
661,43.67258395732363
690,142.31970211274754
716,0.0
843,2959.886202716738
844,2959.886202716738
907,0.0
908,0.0
971,0.0
972,0.0
1195,0.0
1197,0.0
2,1,12,22, 0, 7, 0.00,60.00,Monday
7,-2.8
718,19.437639331845457
719,1.659798090305228
720,16.95687732764264
619,5058.106567828573
633,1617.2932797782616
659,122.4996167474925
661,0.0
690,184.0422257329285
716,85.44000000000005
843,2826.8040334625694
844,2826.8040334625694
907,0.0
908,0.0
971,0.0
972,0.0
1195,164.6000968732519
1197,164.6000968732519
2,1,12,22, 0, 8, 0.00,60.00,Monday
7,-2.2
718,19.608136149745995
719,1.7486186936227153
720,16.80942700275048
619,5123.390394522107
633,1618.3618196290233
659,127.23310120572695
661,0.0
690,184.0422257329285
716,85.44000000000005
843,2702.835205202591
844,2702.835205202591
907,0.0
908,0.0
971,0.0
972,0.0
1195,44.9199636315725
1197,44.9199636315725
2,1,12,22, 0, 9, 0.00,60.00,Monday
7,-1.7
718,19.742069399805914
719,2.307881177842756
720,16.685960326239165
619,3706.62604949594
633,1218.677307539978
659,101.63971941513985
661,49.528087892940185
690,136.379116755295
716,16.543485937012957
843,2498.2566453719483
844,2498.2566453719483
907,0.0
908,0.0
971,0.0
972,0.0
1195,0.0
1197,0.0
2,1,12,22, 0,10, 0.00,60.00,Monday
7,-1.1
718,19.742504646631012
719,3.3167612843443286
720,16.55997201642543
619,3126.4987730876023
633,1032.6475855151705
659,80.9964235538515
661,74.18078607347975
690,114.25901964347831
716,0.0
843,2277.8385832550684
844,2277.8385832550684
907,0.0
908,0.0
971,0.0
972,0.0
1195,0.0
1197,0.0
2,1,12,22, 0,11, 0.00,60.00,Monday
7,-0.6
718,19.801435003877863
719,7.605956953792194
720,16.441774550915113
619,2161.413375254966
633,722.6573261248377
659,58.22595709890567
661,112.05569834656184
690,79.90967517934949
716,0.0
843,1592.803023216111
844,1592.803023216111
907,0.0
908,0.0
971,0.0
972,0.0
1195,0.0
1197,0.0
2,1,12,22, 0,12, 0.00,60.00,Monday
7,1.1
718,19.806832014403916
719,11.21105778668447
720,16.339364090386614
619,1326.7590987952847
633,437.62442823650343
659,28.97967783108854
661,148.48863965994474
690,47.02734254403762
716,0.0
843,1030.212807606189
844,1030.212807606189
907,0.0
908,0.0
971,0.0
972,0.0
1195,0.0
1197,0.0
2,1,12,22, 0,13, 0.00,60.00,Monday
7,2.8
718,19.758745386271936
719,10.009949205828367
720,16.255824401888496
619,1073.8901903957565
633,344.5670128206179
659,9.074170206693294
661,162.15721063166757
690,34.74629866581251
716,0.0
843,868.5450341054584
844,868.5450341054584
907,0.0
908,0.0
971,0.0
972,0.0
1195,0.0
1197,0.0
2,1,12,22, 0,14, 0.00,60.00,Monday
7,1.7
718,19.599934303186195
719,11.018270080527973
720,16.196480875793252
619,1904.4700192274727
633,612.5438182789776
659,32.075818865095435
661,129.50351662176521
690,64.51012089125541
716,78.86559721546247
843,612.6952053877558
844,612.6952053877558
907,0.0
908,0.0
971,0.0
972,0.0
1195,0.0
1197,0.0
2,1,12,22, 0,15, 0.00,60.00,Monday
7,2.2
718,19.82921253941601
719,10.551955619558022
720,16.134514475776243
619,885.0611024087891
633,286.603624860554
659,8.951260525444575
661,168.00898822320755
690,29.350364886052166
716,0.0
843,714.3494231311124
844,714.3494231311124
907,0.0
908,0.0
971,0.0
972,0.0
1195,0.0
1197,0.0
2,1,12,22, 0,16, 0.00,60.00,Monday
7,1.0
718,19.69777058744995
719,9.415966627041769
720,16.094339952911575
619,804.9523624953488
633,269.00023403051057
659,16.636687088989586
661,168.50354631883565
690,28.76577383657808
716,0.0
843,643.8300850255237
844,643.8300850255237
907,0.0
908,0.0
971,0.0
972,0.0
1195,0.0
1197,0.0
2,1,12,22, 0,17, 0.00,60.00,Monday
7,0.6
718,19.621228469027283
719,6.6837449510010645
720,16.053809009589948
619,919.7686449786912
633,307.94776106825384
659,19.395038045491766
661,163.68306813219377
690,33.14640573312233
716,0.0
843,718.5635480679812
844,718.5635480679812
907,0.0
908,0.0
971,0.0
972,0.0
1195,0.0
1197,0.0
2,1,12,22, 0,18, 0.00,60.00,Monday
7,-1.0
718,19.800166657779393
719,5.150885705010585
720,16.01188138107194
619,1033.5543080480206
633,356.9712684641275
659,35.15616586380538
661,155.32017319011746
690,40.450271499294836
716,0.0
843,791.4760143996118
844,791.4760143996118
907,0.0
908,0.0
971,0.0
972,0.0
1195,0.0
1197,0.0
2,1,12,22, 0,19, 0.00,60.00,Monday
7,-1.1
718,19.644372364981628
719,3.541608187639928
720,15.972011883339878
619,2338.051480275672
633,787.1996807177026
659,69.1693675953978
661,102.9784454556067
690,87.96733673510829
716,85.44000000000005
843,680.3493040432331
844,680.3493040432331
907,0.0
908,0.0
971,0.0
972,0.0
1195,0.0
1197,0.0
2,1,12,22, 0,20, 0.00,60.00,Monday
7,-1.1
718,19.53897023495585
719,2.7573741721860716
720,15.909099222994328
619,2758.234817949556
633,916.6821011267907
659,87.43129392631982
661,85.62269526704785
690,103.57990389758284
716,85.44000000000005
843,953.2687766617619
844,953.2687766617619
907,0.0
908,0.0
971,0.0
972,0.0
1195,0.0
1197,0.0
2,1,12,22, 0,21, 0.00,60.00,Monday
7,-2.2
718,19.746887893228763
719,1.9438131630087865
720,15.83493372935308
619,2428.516918435843
633,828.1917494272312
659,71.93840341437394
661,96.71329326402072
690,93.46154776258568
716,56.508819272701025
843,1079.2756456541138
844,1079.2756456541138
907,0.0
908,0.0
971,0.0
972,0.0
1195,0.0
1197,0.0
2,1,12,22, 0,22, 0.00,60.00,Monday
7,-2.8
718,19.705255851335487
719,1.0477350959334282
720,15.758503075674243
619,1825.7804152269996
633,641.5167801340223
659,47.543872423357705
661,121.20061228045648
690,71.39511769584233
716,0.0
843,1309.2888373736241
844,1309.2888373736241
907,0.0
908,0.0
971,0.0
972,0.0
1195,0.0
1197,0.0
2,1,12,22, 0,23, 0.00,60.00,Monday
7,-2.2
718,18.53295100793789
719,0.4487160644668133
720,15.66767202941306
619,1374.7402641616704
633,479.9124731461812
659,22.59037022827872
661,143.30369256679916
690,51.69577062974537
716,0.0
843,981.6292187088056
844,981.6292187088056
907,0.0
908,0.0
971,0.0
972,0.0
1195,0.0
1197,0.0
2,1,12,22, 0,24, 0.00,60.00,Monday
7,-3.9
718,18.2566988725736
719,-0.37379247921072617
720,15.55352389418207
619,2427.4111439489893
633,833.9415635836999
659,63.579751668515634
661,94.13572656540958
690,95.72286194736661
716,0.0
843,1741.502795617479
844,1741.502795617479
907,0.0
908,0.0
971,0.0
972,0.0
1195,0.0
1197,0.0
2,2,12,23, 0, 1, 0.00,60.00,Tuesday
7,-4.4
718,18.820897876858087
719,-0.3061970292602311
720,15.45388103090602
619,3032.577424081414
633,1029.1923494970808
659,73.57863140175446
661,68.94480173361764
690,118.53622057156112
716,0.0
843,2163.175791620739
844,2163.175791620739
907,0.0
908,0.0
971,0.0
972,0.0
1195,0.0
1197,0.0
2,2,12,23, 0, 2, 0.00,60.00,Tuesday
7,-4.4
718,18.64813115684204
719,-0.3845946391207598
720,15.36692216012473
619,3098.485301454078
633,1064.4600423538382
659,75.27328966746197
661,65.92634690814822
690,121.26008960437548
716,0.0
843,2182.6886344451923
844,2182.6886344451923
907,0.0
908,0.0
971,0.0
972,0.0
1195,0.0
1197,0.0
2,2,12,23, 0, 3, 0.00,60.00,Tuesday
7,-3.9
718,18.613524429254632
719,-1.0183969374700443
720,15.254169536936457
619,3366.554066800243
633,1132.449061715698
659,75.5965187696209
661,58.15089074797668
690,128.5341842424119
716,0.0
843,2371.9148666309065
844,2371.9148666309065
907,0.0
908,0.0
971,0.0
972,0.0
1195,0.0
1197,0.0
2,2,12,23, 0, 4, 0.00,60.00,Tuesday
7,-4.4
718,18.40923440209558
719,-0.9380876294956899
720,15.143147538096223
619,4414.210589888714
633,1457.513576390913
659,53.68972188519772
661,23.36585146533141
690,161.08485884282726
716,0.0
843,3107.3702121760034
844,3107.3702121760034
907,0.0
908,0.0
971,0.0
972,0.0
1195,0.0
1197,0.0
2,2,12,23, 0, 5, 0.00,60.00,Tuesday
7,-5.0
718,18.603884499313814
719,-0.3517750518833185
720,15.033296894767998
619,4278.807633743557
633,1428.4076813443758
659,79.21160690588054
661,21.23526280351946
690,162.16479581365044
716,0.0
843,3000.2786461575615
844,3000.2786461575615
907,0.0
908,0.0
971,0.0
972,0.0
1195,0.0
1197,0.0
2,2,12,23, 0, 6, 0.00,60.00,Tuesday
7,-5.6
718,19.367055405046212
719,-0.13396595740028197
720,14.93592961818708
619,4890.529966090585
633,1615.6913332769886
659,73.73439258860205
661,0.0
690,184.0422257329285
716,0.0
843,3675.1198923042903
844,3675.1198923042903
907,0.0
908,0.0
971,0.0
972,0.0
1195,278.36595265756705
1197,278.36595265756705
2,2,12,23, 0, 7, 0.00,60.00,Tuesday
7,-6.7
718,19.56724583109315
719,-0.6816420371317817
720,14.85813007106092
619,4705.22015938063
633,1620.9715959959235
659,76.28405561717591
661,0.0
690,184.0422257329285
716,85.44000000000005
843,3806.4549957914824
844,3806.4549957914824
907,0.0
908,0.0
971,0.0
972,0.0
1195,1793.8829115464187
1197,1793.8829115464187
2,2,12,23, 0, 8, 0.00,60.00,Tuesday
7,-9.4
718,19.65652618360321
719,-1.84420927576303
720,14.743470918464066
619,4412.433713595619
633,1618.2668203963594
659,54.151871747082275
661,0.0
690,184.0422257329285
716,85.44000000000005
843,3893.6959751519225
844,3893.6959751519225
907,0.0
908,0.0
971,0.0
972,0.0
1195,2333.647279706239
1197,2333.647279706239
2,2,12,23, 0, 9, 0.00,60.00,Tuesday
7,-8.9
718,19.686474613938568
719,-1.0280123144172852
720,14.661371814409396
619,4460.213357578484
633,1621.5650680391875
659,59.04699228087032
661,0.0
690,184.0422257329285
716,85.44000000000005
843,2878.8346905642047
844,2878.8346905642047
907,0.0
908,0.0
971,0.0
972,0.0
1195,1149.5524714387957
1197,1149.5524714387957
2,2,12,23, 0,10, 0.00,60.00,Tuesday
7,-6.7
718,19.784753780561914
719,1.4712525888982695
720,14.575843629669578
619,3466.099145981022
633,1252.0736364120248
659,35.98532132788423
661,49.97868422917466
690,136.80725681104477
716,35.18924056609703
843,1964.8971844072894
844,1964.8971844072894
907,0.0
908,0.0
971,0.0
972,0.0
1195,0.0
1197,0.0
2,2,12,23, 0,11, 0.00,60.00,Tuesday
7,-3.9
718,19.959905326082808
719,6.688591054623966
720,14.491494293746257
619,1614.6381981548543
633,576.3578927373642
659,6.179912583207735
661,134.27150233013404
690,60.32929791215302
716,0.0
843,1144.4994254542653
844,1144.4994254542653
907,0.0
908,0.0
971,0.0
972,0.0
1195,0.0
1197,0.0
2,2,12,23, 0,12, 0.00,60.00,Tuesday
7,-3.9
718,19.739005122177563
719,9.852348317749268
720,14.444501441080645
619,1205.6501711360206
633,435.32508414094144
659,0.021611654099470835
661,151.2464424617701
690,44.86303090031987
716,0.0
843,912.7525440305653
844,912.7525440305653
907,0.0
908,0.0
971,0.0
972,0.0
1195,0.0
1197,0.0
2,2,12,23, 0,13, 0.00,60.00,Tuesday
7,-1.7
718,19.511237945719483
719,7.8371472858978954
720,14.410627731158932
619,1055.5468247178335
633,364.6978966748242
659,0.01784763263176831
661,159.73766836961306
690,37.04951271539746
716,0.0
843,832.6237959372356
844,832.6237959372356
907,0.0
908,0.0
971,0.0
972,0.0
1195,0.0
1197,0.0
2,2,12,23, 0,14, 0.00,60.00,Tuesday
7,-1.7
718,19.422586162090525
719,5.89039139735444
720,14.394118172594297
619,1211.0211445266189
633,414.6669888204188
659,0.020385957974330567
661,154.01148054198234
690,42.318767588518995
716,0.0
843,927.2443439702147
844,927.2443439702147
907,0.0
908,0.0
971,0.0
972,0.0
1195,0.0
1197,0.0
2,2,12,23, 0,15, 0.00,60.00,Tuesday
7,-2.2
718,20.068008624916246
719,5.216491929763382
720,14.392302858755396
619,1502.3404972008052
633,515.1485187416283
659,1.8304368149356804
661,142.2396352262615
690,53.11507531290081
716,0.0
843,1144.8609644075077
844,1144.8609644075077
907,0.0
908,0.0
971,0.0
972,0.0
1195,0.0
1197,0.0
2,2,12,23, 0,16, 0.00,60.00,Tuesday
7,-2.8
718,19.920733013889556
719,4.88951226410674
720,14.381771496503738
619,1014.2030547212715
633,361.9008244877469
659,5.262291343018309
661,159.10927761497268
690,37.51222455915589
716,0.0
843,740.1462417028488
844,740.1462417028488
907,0.0
908,0.0
971,0.0
972,0.0
1195,0.0
1197,0.0
2,2,12,23, 0,17, 0.00,60.00,Tuesday
7,-5.0
718,18.356646800980897
719,0.8974218452315975
720,14.373065738411071
619,1404.3041342597528
633,520.2602873517783
659,24.53319018242402
661,137.3036183629275
690,56.96931548929779
716,0.0
843,1026.4714154967287
844,1026.4714154967287
907,0.0
908,0.0
971,0.0
972,0.0
1195,0.0
1197,0.0
2,2,12,23, 0,18, 0.00,60.00,Tuesday
7,-8.3
718,18.773297563325464
719,-1.0132454729141227
720,14.324857317570599
619,4597.670506789324
633,1596.4186738432616
659,53.81680474390795
661,0.0
690,184.0422257329285
716,70.90825436597771
843,2835.119798965079
844,2835.119798965079
907,0.0
908,0.0
971,0.0
972,0.0
1195,349.4403253641922
1197,349.4403253641922
2,2,12,23, 0,19, 0.00,60.00,Tuesday
7,-7.8
718,19.57834001174239
719,-2.1660713540476606
720,14.308953925075661
619,2989.6031772284614
633,1084.1353688436998
659,0.05696137139274987
661,71.5012981018926
690,118.24381439171366
716,0.0
843,2054.4020487355046
844,2054.4020487355046
907,0.0
908,0.0
971,0.0
972,0.0
1195,0.0
1197,0.0
2,2,12,23, 0,20, 0.00,60.00,Tuesday
7,-8.9
718,19.36219252888155
719,-2.4749336759804197
720,14.289462312563941
619,4678.1644959127125
633,1696.4525699663077
659,0.08865672656820642
661,0.0
690,184.0422257329285
716,85.44000000000005
843,2307.3777556797813
844,2307.3777556797813
907,0.0
908,0.0
971,0.0
972,0.0
1195,253.0803752115644
1197,253.0803752115644
2,2,12,23, 0,21, 0.00,60.00,Tuesday
7,-16.1
718,19.55427603844441
719,-4.520358457273851
720,14.139367721987282
619,3700.56010321603
633,1566.2137383866536
659,7.550872846123986
661,0.0
690,184.0422257329285
716,85.44000000000005
843,2955.9338055619155
844,2955.9338055619155
907,0.0
908,0.0
971,0.0
972,0.0
1195,1997.6532437238752
1197,1997.6532437238752
2,2,12,23, 0,22, 0.00,60.00,Tuesday
7,-13.9
718,19.63388353373649
719,-6.2198082651381865
720,14.097335398141578
619,3997.622999762208
633,1617.2754734488526
659,0.08865672656820642
661,0.0
690,184.0422257329285
716,85.44000000000005
843,3421.519616184969
844,3421.519616184969
907,0.0
908,0.0
971,0.0
972,0.0
1195,2221.4429543781907
1197,2221.4429543781907
2,2,12,23, 0,23, 0.00,60.00,Tuesday
7,-12.8
718,18.95310262708163
719,-6.099491256667215
720,14.002511591635693
619,4119.860057308569
633,1629.3443675323654
659,6.362503206021789
661,0.0
690,184.0422257329285
716,10.168501180319115
843,2649.804988314101
844,2649.804988314101
907,0.0
908,0.0
971,0.0
972,0.0
1195,357.99764779986936
1197,357.99764779986936
2,2,12,23, 0,24, 0.00,60.00,Tuesday
7,-14.4
718,18.722052981912565
719,-6.552622019105279
720,13.849534121687082
619,3913.758806953428
633,1577.453629273631
659,11.736503368932473
661,0.0
690,184.0422257329285
716,0.0
843,3199.390363117651
844,3199.390363117651
907,0.0
908,0.0
971,0.0
972,0.0
1195,1052.6702048994102
1197,1052.6702048994102
2,3,12,24, 0, 1, 0.00,60.00,Wednesday
7,-15.6
718,18.640444964847457
719,-6.915896389579446
720,13.722530055397662
619,3761.5719883337265
633,1548.73050032972
659,14.082817858754915
661,0.0
690,184.0422257329285
716,0.0
843,3732.001229897156
844,3732.001229897156
907,0.0
908,0.0
971,0.0
972,0.0
1195,1843.4379134633828
1197,1843.4379134633828
2,3,12,24, 0, 2, 0.00,60.00,Wednesday
7,-17.2
718,18.611358636688596
719,-8.536695093654451
720,13.581044355975267
619,3579.105008325058
633,1524.9922251113994
659,9.938873622016617
661,0.0
690,184.0422257329285
716,0.0
843,4590.003854828514
844,4590.003854828514
907,0.0
908,0.0
971,0.0
972,0.0
1195,3081.245832205594
1197,3081.245832205594
2,3,12,24, 0, 3, 0.00,60.00,Wednesday
7,-17.2
718,18.600844435567154
719,-9.634782577693867
720,13.453769136045123
619,3580.1431654373155
633,1524.0575640580716
659,9.922348351803777
661,0.0
690,184.0422257329285
716,0.0
843,5059.744161183753
844,5059.744161183753
907,0.0
908,0.0
971,0.0
972,0.0
1195,3722.8748946015075
1197,3722.8748946015075
2,3,12,24, 0, 4, 0.00,60.00,Wednesday
7,-18.3
718,18.600342870376057
719,-10.14906977447526
720,13.310546265378642
619,3453.445054196999
633,1506.965345784065
659,8.160311814972514
661,0.0
690,184.0422257329285
716,0.0
843,5424.977092016559
844,5424.977092016559
907,0.0
908,0.0
971,0.0
972,0.0
1195,4367.684284569854
1197,4367.684284569854
2,3,12,24, 0, 5, 0.00,60.00,Wednesday
7,-17.2
718,18.59882343890448
719,-10.45939662519
720,13.185330098566592
619,3580.8946508312033
633,1523.4179969178222
659,9.900841500080617
661,0.0
690,184.0422257329285
716,0.0
843,5337.8293666772115
844,5337.8293666772115
907,0.0
908,0.0
971,0.0
972,0.0
1195,4149.860686170915
1197,4149.860686170915
2,3,12,24, 0, 6, 0.00,60.00,Wednesday
7,-17.2
718,19.286122589444954
719,-9.915071429772112
720,13.044002568452534
619,3592.272036757542
633,1527.94348162608
659,5.939401189253454
661,0.0
690,184.0422257329285
716,77.99607214203998
843,6474.004520236165
844,6474.004520236165
907,0.0
908,0.0
971,0.0
972,0.0
1195,6356.512357460685
1197,6356.512357460685
2,3,12,24, 0, 7, 0.00,60.00,Wednesday
7,-17.8
718,19.549768607335476
719,-10.047289696098662
720,12.933563951626722
619,3493.3607545807063
633,1531.3682194489097
659,8.91073313026282
661,0.0
690,184.0422257329285
716,85.44000000000005
843,6420.396066696812
844,6420.396066696812
907,0.0
908,0.0
971,0.0
972,0.0
1195,6636.88617005249
1197,6636.88617005249
2,3,12,24, 0, 8, 0.00,60.00,Wednesday
7,-17.8
718,19.642902207777315
719,-10.343198389226515
720,12.804985619855916
619,3494.1443480268576
633,1541.2627040519214
659,6.0943396088206105
661,0.0
690,184.0422257329285
716,85.44000000000005
843,6180.748731525953
844,6180.748731525953
907,0.0
908,0.0
971,0.0
972,0.0
1195,6427.0863985945025
1197,6427.0863985945025
2,3,12,24, 0, 9, 0.00,60.00,Wednesday
7,-16.7
718,19.695489195528985
719,-8.316792006872573
720,12.689433035447456
619,3632.6917139902616
633,1566.0948167178049
659,3.4948120824380076
661,0.0
690,184.0422257329285
716,23.92695300480821
843,4809.661452530816
844,4809.661452530816
907,0.0
908,0.0
971,0.0
972,0.0
1195,3838.004826767058
1197,3838.004826767058
2,3,12,24, 0,10, 0.00,60.00,Wednesday
7,-13.3
718,19.72478239880518
719,-2.807703592979144
720,12.597771810387222
619,4074.4534972329643
633,1628.8176525146098
659,0.08865672656820642
661,0.0
690,184.0422257329285
716,0.0
843,3291.189517210769
844,3291.189517210769
907,0.0
908,0.0
971,0.0
972,0.0
1195,1215.517651464293
1197,1215.517651464293
2,3,12,24, 0,11, 0.00,60.00,Wednesday
7,-9.4
718,19.81266763335372
719,2.5779043378577855
720,12.495669785774677
619,3270.040446948564
633,1240.2737078944883
659,0.06502581907159272
661,53.30877511800236
690,134.98407085060435
716,0.0
843,2095.4891568629846
844,2095.4891568629846
907,0.0
908,0.0
971,0.0
972,0.0
1195,0.0
1197,0.0
2,3,12,24, 0,12, 0.00,60.00,Wednesday
7,-8.3
718,19.794644379051103
719,5.528884286811626
720,12.422508475432178
619,2369.1620635312997
633,901.2932280092053
659,0.04671244840203213
661,94.62176146082999
690,96.96839295864459
716,0.0
843,1651.5247086085928
844,1651.5247086085928
907,0.0
908,0.0
971,0.0
972,0.0
1195,0.0
1197,0.0
2,3,12,24, 0,13, 0.00,60.00,Wednesday
7,-6.1
718,19.916853508881285
719,10.398234051120234
720,12.3771403420037
619,1412.3220623452498
633,526.2132948210691
659,0.026763258157331694
661,139.6249800927584
690,55.55692024635078
716,0.0
843,1035.3779420629799
844,1035.3779420629799
907,0.0
908,0.0
971,0.0
972,0.0
1195,0.0
1197,0.0
2,3,12,24, 0,14, 0.00,60.00,Wednesday
7,-6.7
718,19.623739988260276
719,9.0049416282232
720,12.3809535684004
619,1199.6419839504872
633,456.0316199893554
659,0.023259215996005226
661,147.529720763802
690,48.28295322060369
716,0.0
843,929.259181227635
844,929.259181227635
907,0.0
908,0.0
971,0.0
972,0.0
1195,0.0
1197,0.0
2,3,12,24, 0,15, 0.00,60.00,Wednesday
7,-6.7
718,19.732275940459434
719,7.54578857783805
720,12.414888306095987
619,1650.4722235256875
633,616.120155334078
659,0.031604317275360366
661,128.7040735684141
690,65.60624465851744
716,0.0
843,1257.8017178633727
844,1257.8017178633727
907,0.0
908,0.0
971,0.0
972,0.0
1195,0.0
1197,0.0
2,3,12,24, 0,16, 0.00,60.00,Wednesday
7,-7.2
718,19.581262938040556
719,5.3541342997915855
720,12.492410853639457
619,3202.24020067528
633,1166.5108255809039
659,0.05998701306381452
661,64.67577726848594
690,124.52473867295492
716,85.44000000000005
843,1481.4749150493772
844,1481.4749150493772
907,0.0
908,0.0
971,0.0
972,0.0
1195,0.0
1197,0.0
2,3,12,24, 0,17, 0.00,60.00,Wednesday
7,-7.2
718,19.622830481281735
719,2.697805952997386
720,12.506516046576653
619,3585.128290808693
633,1292.779747103989
659,16.354642211835323
661,47.05213917635878
690,140.1603276495363
716,85.44000000000005
843,1753.5534907715628
844,1753.5534907715628
907,0.0
908,0.0
971,0.0
972,0.0
1195,0.0
1197,0.0
2,3,12,24, 0,18, 0.00,60.00,Wednesday
7,-7.2
718,19.74270189232425
719,0.3771144137398197
720,12.49267332766401
619,3005.7029835037843
633,1102.0507476703342
659,23.325325091034312
661,68.27127699147167
690,120.3780736944257
716,33.44809732611992
843,1815.3829917505063
844,1815.3829917505063
907,0.0
908,0.0
971,0.0
972,0.0
1195,0.0
1197,0.0
2,3,12,24, 0,19, 0.00,60.00,Wednesday
7,-7.0
718,19.728907166449027
719,-1.3862401148569936
720,12.474648487222884
619,2634.0646904116657
633,974.6378226917558
659,25.31676135932438
661,83.2301964626581
690,106.55387757565533
716,0.0
843,1795.094336972208
844,1795.094336972208
907,0.0
908,0.0
971,0.0
972,0.0
1195,0.0
1197,0.0
2,3,12,24, 0,20, 0.00,60.00,Wednesday
7,-7.2
718,19.62299317461554
719,-1.4065318716439759
720,12.510980027261413
619,4208.6014869059145
633,1504.3809125016373
659,40.331658407358994
661,19.16042849598487
690,164.94902562152785
716,85.44000000000005
843,1904.0003506705962
844,1904.0003506705962
907,0.0
908,0.0
971,0.0
972,0.0
1195,0.0
1197,0.0
2,3,12,24, 0,21, 0.00,60.00,Wednesday
7,-7.2
718,19.634338087775863
719,-1.7485819114711152
720,12.480507737132308
619,4728.004719460758
633,1651.093035990713
659,51.472940274827884
661,0.0
690,184.0422257329285
716,85.44000000000005
843,2260.855925248121
844,2260.855925248121
907,0.0
908,0.0
971,0.0
972,0.0
1195,8.8425545252353
1197,8.8425545252353
2,3,12,24, 0,22, 0.00,60.00,Wednesday
7,-7.2
718,19.74133900398324
719,-2.1177093307562207
720,12.412089887937835
619,3775.754278992271
633,1363.0577593123824
659,50.249134108353886
661,33.73831917766685
690,151.15825581782113
716,18.086589768808004
843,2306.725884652151
844,2306.725884652151
907,0.0
908,0.0
971,0.0
972,0.0
1195,0.0
1197,0.0
2,3,12,24, 0,23, 0.00,60.00,Wednesday
7,-7.2
718,18.939124697479187
719,-2.839908412598846
720,12.313837089620785
619,2312.7078581782143
633,866.1228785118892
659,23.30634082057352
661,95.92822403182122
690,94.92317867550264
716,0.0
843,1507.2879806928813
844,1507.2879806928813
907,0.0
908,0.0
971,0.0
972,0.0
1195,0.0
1197,0.0
2,3,12,24, 0,24, 0.00,60.00,Wednesday
7,-7.2
718,18.661107053047537
719,-3.2966517974816756
720,12.265782034451307
619,2861.029176847637
633,1038.315149448357
659,38.79069762788568
661,71.65138857963018
690,116.69490551447738
716,0.0
843,1892.4131561877548
844,1892.4131561877548
907,0.0
908,0.0
971,0.0
972,0.0
1195,0.0
1197,0.0
2,4,12,25, 0, 1, 0.00,60.00,Thursday
7,-7.2
718,18.521759199211143
719,-3.1780281220477136
720,12.225904429853033
619,3884.016844504549
633,1367.7576570222798
659,67.28933339669622
661,27.494060090324226
690,156.26844598546313
716,0.0
843,2554.4756113643107
844,2554.4756113643107
907,0.0
908,0.0
971,0.0
972,0.0
1195,0.0
1197,0.0
2,4,12,25, 0, 2, 0.00,60.00,Thursday
7,-7.2
718,18.49293255104134
719,-2.6501448182664795
720,12.173098053122345
619,4723.953005329867
633,1604.2847406495378
659,60.445839185338194
661,0.0
690,184.0422257329285
716,0.0
843,3144.1464117490086
844,3144.1464117490086
907,0.0
908,0.0
971,0.0
972,0.0
1195,25.214424493619845
1197,25.214424493619845
2,4,12,25, 0, 3, 0.00,60.00,Thursday
7,-6.1
718,18.58343580194792
719,-2.2874010698293863
720,12.110984841598455
619,4628.716204129093
633,1559.4995210905493
659,65.63776970142145
661,6.113213625184466
690,176.27175768975903
716,0.0
843,3102.07626489653
844,3102.07626489653
907,0.0
908,0.0
971,0.0
972,0.0
1195,0.0
1197,0.0
2,4,12,25, 0, 4, 0.00,60.00,Thursday
7,-7.2
718,18.58721253234352
719,-2.0787352820298155
720,12.045974801479591
619,4654.548013582797
633,1582.8941281481125
659,78.0139320790101
661,0.0
690,184.0422257329285
716,0.0
843,3587.7604155275276
844,3587.7604155275276
907,0.0
908,0.0
971,0.0
972,0.0
1195,586.8200380784401
1197,586.8200380784401
2,4,12,25, 0, 5, 0.00,60.00,Thursday
7,-7.8
718,18.605235949439315
719,-1.9319241974426917
720,11.979580648390701
619,4579.406610192287
633,1577.3577867229553
659,76.12108161248803
661,0.0
690,184.0422257329285
716,0.0
843,3303.7208544864116
844,3303.7208544864116
907,0.0
908,0.0
971,0.0
972,0.0
1195,310.4696324959177
1197,310.4696324959177
2,4,12,25, 0, 6, 0.00,60.00,Thursday
7,-7.8
718,19.37791812977808
719,-2.3685940485755976
720,11.919254762401817
619,4580.967978272403
633,1578.444957720475
659,75.61221425872628
661,0.0
690,184.0422257329285
716,0.0
843,4299.212149744135
844,4299.212149744135
907,0.0
908,0.0
971,0.0
972,0.0
1195,1488.581903122959
1197,1488.581903122959
2,4,12,25, 0, 7, 0.00,60.00,Thursday
7,-7.2
718,19.574520041462435
719,-2.3891228093581582
720,11.900828081253731
619,4633.521919813796
633,1606.9273367594958
659,78.0139320790101
661,0.0
690,184.0422257329285
716,85.44000000000005
843,4012.9336158135266
844,4012.9336158135266
907,0.0
908,0.0
971,0.0
972,0.0
1195,2340.960657673685
1197,2340.960657673685
2,4,12,25, 0, 8, 0.00,60.00,Thursday
7,-6.7
718,19.661947648240304
719,-2.123491813596224
720,11.850498440331153
619,4673.470684534178
633,1611.6499915939776
659,84.14287978066879
661,0.0
690,184.0422257329285
716,85.44000000000005
843,3662.566421972262
844,3662.566421972262
907,0.0
908,0.0
971,0.0
972,0.0
1195,1943.9858257981773
1197,1943.9858257981773
2,4,12,25, 0, 9, 0.00,60.00,Thursday
7,-5.0
718,19.687324357524357
719,-1.0887856063995884
720,11.81611110878523
619,4954.948865945759
633,1652.9844395961093
659,73.01386544200038
661,0.0
690,184.0422257329285
716,85.44000000000005
843,3532.283214315934
844,3532.283214315934
907,0.0
908,0.0
971,0.0
972,0.0
1195,1393.7464689170138
1197,1393.7464689170138
2,4,12,25, 0,10, 0.00,60.00,Thursday
7,-5.0
718,19.70995444828071
719,0.13326923795099727
720,11.766833402886162
619,4932.802395139453
633,1646.564524343495
659,78.26030639036907
661,0.0
690,184.0422257329285
716,43.06160868404423
843,3386.146051717282
844,3386.146051717282
907,0.0
908,0.0
971,0.0
972,0.0
1195,581.0804735912448
1197,581.0804735912448
2,4,12,25, 0,11, 0.00,60.00,Thursday
7,-5.0
718,19.721542474002792
719,0.9130175860965098
720,11.724599730001373
619,4785.61046315671
633,1621.266689171809
659,97.23074588671405
661,0.0
690,181.4301158103992
716,0.0
843,3244.4767742313015
844,3244.4767742313015
907,0.0