Program Version,EnergyPlus, Version 22.2.0-c249759bad, YMD=2023.09.01 15:51
1,5,Environment Title[],Latitude[deg],Longitude[deg],Time Zone[],Elevation[m]
2,8,Day of Simulation[],Month[],Day of Month[],DST Indicator[1=yes 0=no],Hour[],StartMinute[],EndMinute[],DayType
3,5,Cumulative Day of Simulation[],Month[],Day of Month[],DST Indicator[1=yes 0=no],DayType  ! When Daily Report Variables Requested
4,2,Cumulative Days of Simulation[],Month[]  ! When Monthly Report Variables Requested
5,1,Cumulative Days of Simulation[] ! When Run Period Report Variables Requested
6,1,Calendar Year of Simulation[] ! When Annual Report Variables Requested
581,11,LIVING,AFN Zone Infiltration Air Change Rate [ach] !RunPeriod [Value,Min,Month,Day,Hour,Minute,Max,Month,Day,Hour,Minute]
582,11,ATTIC,AFN Zone Infiltration Air Change Rate [ach] !RunPeriod [Value,Min,Month,Day,Hour,Minute,Max,Month,Day,Hour,Minute]
583,11,CRAWLSPACE,AFN Zone Infiltration Air Change Rate [ach] !RunPeriod [Value,Min,Month,Day,Hour,Minute,Max,Month,Day,Hour,Minute]
1038,11,Facility,Facility Heating Setpoint Not Met Time [hr] !RunPeriod [Value,Min,Month,Day,Hour,Minute,Max,Month,Day,Hour,Minute]
1039,11,Facility,Facility Cooling Setpoint Not Met Time [hr] !RunPeriod [Value,Min,Month,Day,Hour,Minute,Max,Month,Day,Hour,Minute]
1115,11,DX_HEATING_COIL,Heating Coil Heating Energy [J] !RunPeriod [Value,Min,Month,Day,Hour,Minute,Max,Month,Day,Hour,Minute]
1128,11,DX_HEATING_COIL,Heating Coil Electricity Energy [J] !RunPeriod [Value,Min,Month,Day,Hour,Minute,Max,Month,Day,Hour,Minute]
1153,11,DX_HEATING_COIL,Heating Coil Defrost Electricity Energy [J] !RunPeriod [Value,Min,Month,Day,Hour,Minute,Max,Month,Day,Hour,Minute]
1154,11,DX_HEATING_COIL,Heating Coil Crankcase Heater Electricity Energy [J] !RunPeriod [Value,Min,Month,Day,Hour,Minute,Max,Month,Day,Hour,Minute]
1155,11,HEATING_RESISTANCE_BACKUP,Heating Coil Heating Energy [J] !RunPeriod [Value,Min,Month,Day,Hour,Minute,Max,Month,Day,Hour,Minute]
1156,11,HEATING_RESISTANCE_BACKUP,Heating Coil Electricity Energy [J] !RunPeriod [Value,Min,Month,Day,Hour,Minute,Max,Month,Day,Hour,Minute]
1292,11,WATER HEATER,Water Heater Heat Loss Energy [J] !RunPeriod [Value,Min,Month,Day,Hour,Minute,Max,Month,Day,Hour,Minute]
1306,11,WATER HEATER,Water Heater Heating Energy [J] !RunPeriod [Value,Min,Month,Day,Hour,Minute,Max,Month,Day,Hour,Minute]
1307,11,WATER HEATER,Water Heater Unmet Demand Heat Transfer Energy [J] !RunPeriod [Value,Min,Month,Day,Hour,Minute,Max,Month,Day,Hour,Minute]
1308,11,WATER HEATER,Water Heater Electricity Energy [J] !RunPeriod [Value,Min,Month,Day,Hour,Minute,Max,Month,Day,Hour,Minute]
13,11,Electricity:Facility [J] !RunPeriod [Value,Min,Month,Day,Hour,Minute,Max,Month,Day,Hour,Minute]
1134,11,Heating:Electricity [J] !RunPeriod [Value,Min,Month,Day,Hour,Minute,Max,Month,Day,Hour,Minute]
1096,11,Cooling:Electricity [J] !RunPeriod [Value,Min,Month,Day,Hour,Minute,Max,Month,Day,Hour,Minute]
562,11,Fans:Electricity [J] !RunPeriod [Value,Min,Month,Day,Hour,Minute,Max,Month,Day,Hour,Minute]
1379,11,Pumps:Electricity [J] !RunPeriod [Value,Min,Month,Day,Hour,Minute,Max,Month,Day,Hour,Minute]
1326,11,WaterSystems:Electricity [J] !RunPeriod [Value,Min,Month,Day,Hour,Minute,Max,Month,Day,Hour,Minute]
61,11,InteriorLights:Electricity [J] !RunPeriod [Value,Min,Month,Day,Hour,Minute,Max,Month,Day,Hour,Minute]
1046,11,ExteriorLights:Electricity [J] !RunPeriod [Value,Min,Month,Day,Hour,Minute,Max,Month,Day,Hour,Minute]
134,11,InteriorEquipment:Electricity [J] !RunPeriod [Value,Min,Month,Day,Hour,Minute,Max,Month,Day,Hour,Minute]
170,11,gas_dryer:InteriorEquipment:Electricity [J] !RunPeriod [Value,Min,Month,Day,Hour,Minute,Max,Month,Day,Hour,Minute]
207,11,clotheswasher:InteriorEquipment:Electricity [J] !RunPeriod [Value,Min,Month,Day,Hour,Minute,Max,Month,Day,Hour,Minute]
244,11,dishwasher:InteriorEquipment:Electricity [J] !RunPeriod [Value,Min,Month,Day,Hour,Minute,Max,Month,Day,Hour,Minute]
281,11,refrigerator:InteriorEquipment:Electricity [J] !RunPeriod [Value,Min,Month,Day,Hour,Minute,Max,Month,Day,Hour,Minute]
318,11,electric_mels:InteriorEquipment:Electricity [J] !RunPeriod [Value,Min,Month,Day,Hour,Minute,Max,Month,Day,Hour,Minute]
355,11,NaturalGas:Facility [J] !RunPeriod [Value,Min,Month,Day,Hour,Minute,Max,Month,Day,Hour,Minute]
403,11,InteriorEquipment:NaturalGas [J] !RunPeriod [Value,Min,Month,Day,Hour,Minute,Max,Month,Day,Hour,Minute]
476,11,gas_dryer:InteriorEquipment:NaturalGas [J] !RunPeriod [Value,Min,Month,Day,Hour,Minute,Max,Month,Day,Hour,Minute]
513,11,gas_mels:InteriorEquipment:NaturalGas [J] !RunPeriod [Value,Min,Month,Day,Hour,Minute,Max,Month,Day,Hour,Minute]
End of Data Dictionary
1,EXTREME_WINTER,  32.90, -80.03,  -5.00,  14.30
5,7
1038,0.0,0.0, 1, 6, 1,15,0.0, 1, 6, 1,15
1039,0.0,0.0, 1, 6, 1,15,0.0, 1, 6, 1,15
581,0.283534246542296,0.08467781401096657, 1,12, 6,52,0.785496057880485, 1, 8, 2,60
582,4.183954636698504,0.0, 1, 6, 1,52,12.610035878910745, 1, 7,23, 7
583,0.014619983071260315,0.00007885296276648177, 1,12, 3,60,0.0845786882864284, 1, 8, 4,52
1115,489672797.40775585,0.0, 1, 6, 1,15,4621439.004635624, 1, 8, 4,15
1128,157012737.42985314,0.0, 1, 6, 1,15,1496254.9716325114, 1, 8, 6,30
1153,1388729.6523305466,0.0, 1, 6, 1,15,49902.16415071122, 1, 6, 6,45
1154,62077700.528795116,0.0, 1, 6, 6, 5,180000.0, 1, 6, 1,15
1155,34785779.07676198,0.0, 1, 6, 1,15,2398252.6611443907, 1, 8, 8,15
1156,34785779.07676198,0.0, 1, 6, 1,15,2398252.6611443907, 1, 8, 8,15
1292,-24316616.525590856,-39724.9900318067, 1, 9, 5,30,-4525.076840544179, 1, 6,10,30
1306,200374560.5370699,0.0, 1, 6, 1,15,10058196.493104465, 1,12, 9,45
1307,3177198.9562242837,0.0, 1, 6, 1,15,1697734.1129896776, 1,12,19,60
1308,200374560.5370699,0.0, 1, 6, 1,15,10058196.493104465, 1,12, 9,45
13,855070134.3622772,152071.80019841267, 1,12, 4,15,11539408.144510739, 1, 8, 7,60
61,301924526.02383536,88139.10953165221, 1, 6, 1,15,1282023.4113694867, 1, 6,20,15
134,70666020.44019976,63564.01800854099, 1, 6, 4,15,156554.22484006523, 1,11,20,15
170,5241013.419656067,348.4159749238097, 1, 6, 4,15,17476.39704006126, 1,11,12,15
207,6509451.13922267,815.2532113832032, 1, 6, 3,15,22990.642799023623, 1,11,10,15
244,12749673.399825225,1521.856143006317, 1, 6, 4,15,53038.631142310165, 1,11,20,15
281,46165882.481495745,59938.60262432081, 1, 6, 5,15,81951.81706819107, 1, 6,19,15
318,0.0,0.0, 1, 6, 1,15,0.0, 1, 6, 1,15
355,197687796.27748066,18561.32405820678, 1, 6, 4,15,724774.895203776, 1,11,18,15
403,197687796.27748066,18561.32405820678, 1, 6, 4,15,724774.895203776, 1,11,18,15
476,106772067.24485716,7098.072629279515, 1, 6, 4,15,356036.3026282215, 1,11,12,15
513,0.0,0.0, 1, 6, 1,15,0.0, 1, 6, 1,15
562,15751861.579449842,0.0, 1, 6, 1,15,139588.18565103295, 1, 8, 4,15
1046,0.0,0.0, 1, 6, 1,15,0.0, 1, 6, 1,15
1096,11088219.093982449,0.0, 1, 6, 1,15,394190.306158728, 1, 6,17,30
1134,255264946.68774065,0.0, 1, 6,10,45,4161624.884313845, 1, 8, 6,15
1326,200374560.5370699,0.0, 1, 6, 1,15,10058196.493104465, 1,12, 9,45
1379,0.0,0.0, 1, 6, 1,15,0.0, 1, 6, 1,15
1,EXTREME_SUMMER,  32.90, -80.03,  -5.00,  14.30
5,7
1038,0.0,0.0, 7,20, 1,15,0.0, 7,20, 1,15
1039,29.5,0.0, 7,20, 1,15,0.25, 7,20,14,15
581,0.16178182177642406,0.010625313688788522, 7,20,10,31,0.5431429851478135, 7,25,19,50
582,4.085798045633124,0.12063848107619689, 7,26, 6,60,10.146171719421645, 7,25,19,50
583,0.04376980511465077,0.0011669864456381478, 7,26,23, 5,0.07480927537929336, 7,22,19,48
1115,0.0,0.0, 7,20, 1,15,0.0, 7,20, 1,15
1128,0.0,0.0, 7,20, 1,15,0.0, 7,20, 1,15
1153,0.0,0.0, 7,20, 1,15,0.0, 7,20, 1,15
1154,0.0,0.0, 7,20, 1,15,0.0, 7,20, 1,15
1155,0.0,0.0, 7,20, 1,15,0.0, 7,20, 1,15
1156,0.0,0.0, 7,20, 1,15,0.0, 7,20, 1,15
1292,-21927039.262922663,-34334.28601647141, 7,24, 7,15,-3210.3827194896503, 7,20,10,45
1306,141127852.92223984,0.0, 7,20, 1,15,5270400.0, 7,26,19,60
1307,0.0,0.0, 7,20, 1,15,0.0, 7,20, 1,15
1308,141127852.92223984,0.0, 7,20, 1,15,5270400.0, 7,26,19,60
13,1207400941.0926168,388110.9499893115, 7,21, 4,60,12473197.792756353, 7,26,19,60
61,301924526.02383536,88139.10953165221, 7,20, 1,15,1282023.4113694867, 7,20,20,15
134,70666020.44019976,63564.01800854099, 7,20, 4,15,156554.22484006523, 7,25,20,15
170,5241013.419656067,348.4159749238097, 7,20, 4,15,17476.39704006126, 7,25,12,15
207,6509451.13922267,815.2532113832032, 7,20, 3,15,22990.642799023623, 7,25,10,15
244,12749673.399825225,1521.856143006317, 7,20, 4,15,53038.631142310165, 7,25,20,15
281,46165882.481495745,59938.60262432081, 7,20, 5,15,81951.81706819107, 7,20,19,15
318,0.0,0.0, 7,20, 1,15,0.0, 7,20, 1,15
355,197687796.27748066,18561.32405820678, 7,20, 4,15,724774.895203776, 7,25,18,15
403,197687796.27748066,18561.32405820678, 7,20, 4,15,724774.895203776, 7,25,18,15
476,106772067.24485716,7098.072629279515, 7,20, 4,15,356036.3026282215, 7,25,12,15
513,0.0,0.0, 7,20, 1,15,0.0, 7,20, 1,15
562,57144548.05475113,11411.366832228603, 7,26,23,15,139588.18565103295, 7,20,13,15
1046,0.0,0.0, 7,20, 1,15,0.0, 7,20, 1,15
1096,636537993.6515908,109588.79141968436, 7,26,23,15,1753609.4622051346, 7,22,14,60
1134,0.0,0.0, 7,20, 1,15,0.0, 7,20, 1,15
1326,141127852.92223984,0.0, 7,20, 1,15,10358886.103857351, 7,26,19,60
1379,0.0,0.0, 7,20, 1,15,0.0, 7,20, 1,15
1,ANNUAL,  32.90, -80.03,  -5.00,  14.30
5,365
1038,1.0,0.0, 1, 1, 1,15,0.25, 1,14, 6,15
1039,431.25,0.0, 1, 1, 1,15,0.25, 1,10,15,15
581,0.18904275042147115,0.0, 4, 5,23, 3,0.8341841606402216, 3,28,14,60
582,3.5302309995311827,0.0, 1, 1, 2,48,19.819016763748113, 3,29,16,50
583,0.02606887583079829,0.0, 4, 5,23, 3,0.08436521022199282, 1, 8, 4,52
1115,3386070915.195843,0.0, 1, 1, 1,15,4815018.975238059, 3, 3, 6,45
1128,1039945616.2027982,0.0, 1, 1, 1,15,1537856.4879491392, 3, 3, 6,45
1153,49174808.00140495,0.0, 1, 1, 1,15,103878.1075420867, 2,13, 6,45
1154,859036389.9039856,0.0, 1, 1, 6, 5,180000.0, 1, 1, 1,15
1155,51864024.00468166,0.0, 1, 1, 1,15,2444860.3697768673, 1, 8, 8,15
1156,51864024.00468166,0.0, 1, 1, 1,15,2444860.3697768673, 1, 8, 8,15
1292,-1179920418.213936,-39766.261758564026, 1,29, 4,60,-2161.812076504734, 7,10,11,45
1306,8984810647.866693,0.0, 1, 1, 1,15,10064627.297466943, 2,12, 9,45
1307,72931386.0965287,0.0, 1, 1, 1,15,3184441.4292492075, 2,12,19,60
1308,8984810647.866693,0.0, 1, 1, 1,15,10064627.297466943, 2,12, 9,45
13,47933370090.65365,151703.1275401932, 1, 2, 4,15,13378225.487997647, 8,13,19,60
61,15743207428.383959,88139.10953165221, 1, 1, 1,15,1282023.4113694867, 1, 1,20,15
134,3685071073.4325233,63564.01800854099, 1, 2, 4,15,156554.22484006523, 1, 1,20,15
170,273393721.45532674,348.4159749238097, 1, 2, 4,15,17476.39704006126, 1, 1,12,15
207,339560869.0695816,815.2532113832032, 1, 2, 3,15,22990.642799023623, 1, 1,10,15
244,664895467.8009144,1521.856143006317, 1, 2, 4,15,53038.631142310165, 1, 1,20,15
281,2407221015.106824,59938.60262432081, 1, 1, 5,15,81951.81706819107, 1, 1,19,15
318,0.0,0.0, 1, 1, 1,15,0.0, 1, 1, 1,15
355,10310294493.051695,18561.32405820678, 1, 2, 4,15,724774.895203776, 1, 1,18,15
403,10310294493.051695,18561.32405820678, 1, 2, 4,15,724774.895203776, 1, 1,18,15
476,5569688622.066177,7098.072629279515, 1, 2, 4,15,356036.3026282215, 1, 1,12,15
513,0.0,0.0, 1, 1, 1,15,0.0, 1, 1, 1,15
562,1663989284.8156252,0.0, 1, 1, 1,15,139588.18565103295, 1, 8, 4,15
1046,0.0,0.0, 1, 1, 1,15,0.0, 1, 1, 1,15
1096,15856270818.040262,0.0, 1, 1, 1,15,1771548.9612143035, 7,13,15,60
1134,2000020838.1128702,0.0, 1, 1,12,30,4215145.990930865, 1, 8, 6,15
1326,8984810647.866674,0.0, 1, 1, 1,15,10506045.651657682, 4,16,19,60
1379,0.0,0.0, 1, 1, 1,15,0.0, 1, 1, 1,15
End of Data
 Number of Records Written=          99
