Program Version,EnergyPlus, Version 22.2.0-c249759bad, YMD=2023.09.01 14:32
1,5,Environment Title[],Latitude[deg],Longitude[deg],Time Zone[],Elevation[m]
2,8,Day of Simulation[],Month[],Day of Month[],DST Indicator[1=yes 0=no],Hour[],StartMinute[],EndMinute[],DayType
3,5,Cumulative Day of Simulation[],Month[],Day of Month[],DST Indicator[1=yes 0=no],DayType  ! When Daily Report Variables Requested
4,2,Cumulative Days of Simulation[],Month[]  ! When Monthly Report Variables Requested
5,1,Cumulative Days of Simulation[] ! When Run Period Report Variables Requested
6,1,Calendar Year of Simulation[] ! When Annual Report Variables Requested
7,1,Environment,Site Outdoor Air Drybulb Temperature [C] !Hourly
545,1,LIVING,Zone Mean Air Temperature [C] !Hourly
546,1,ATTIC,Zone Mean Air Temperature [C] !Hourly
547,1,CRAWLSPACE,Zone Mean Air Temperature [C] !Hourly
548,1,FAN,Fan Electricity Rate [W] !Hourly
720,1,LIVING,Zone Predicted Sensible Load to Heating Setpoint Heat Transfer Rate [W] !Hourly
721,1,LIVING,Zone System Predicted Sensible Load to Heating Setpoint Heat Transfer Rate [W] !Hourly
784,1,ATTIC,Zone Predicted Sensible Load to Heating Setpoint Heat Transfer Rate [W] !Hourly
785,1,ATTIC,Zone System Predicted Sensible Load to Heating Setpoint Heat Transfer Rate [W] !Hourly
848,1,CRAWLSPACE,Zone Predicted Sensible Load to Heating Setpoint Heat Transfer Rate [W] !Hourly
849,1,CRAWLSPACE,Zone System Predicted Sensible Load to Heating Setpoint Heat Transfer Rate [W] !Hourly
1121,1,DX_HEATING_COIL,Heating Coil Heating Rate [W] !Hourly
1135,1,DX_HEATING_COIL,Heating Coil Electricity Rate [W] !Hourly
1161,1,DX_HEATING_COIL,Heating Coil Defrost Electricity Rate [W] !Hourly
1163,1,DX_HEATING_COIL,Heating Coil Crankcase Heater Electricity Rate [W] !Hourly
1166,1,HEATING_RESISTANCE_BACKUP,Heating Coil Heating Rate [W] !Hourly
1168,1,HEATING_RESISTANCE_BACKUP,Heating Coil Electricity Rate [W] !Hourly
End of Data Dictionary
1,EXTREME_WINTER,  42.95, -87.90,  -6.00, 211.00
2,1, 1, 8, 0, 1, 0.00,60.00,Monday
7,-20.0
545,18.591377953922787
546,-12.48514199865006
547,18.00749162712879
548,153.1844754155642
720,5574.68727485783
721,5574.68727485783
784,0.0
785,0.0
848,0.0
849,0.0
1121,2852.6002798433424
1135,1300.0759438029572
1161,0.07732210519021146
1163,0.0
1166,5009.3990115572215
1168,5009.3990115572215
2,1, 1, 8, 0, 2, 0.00,60.00,Monday
7,-21.1
545,18.54354067368364
546,-13.13942086830929
547,17.50449588304992
548,153.1844754155642
720,5982.746009225772
721,5982.746009225772
784,0.0
785,0.0
848,0.0
849,0.0
1121,2744.4446194275147
1135,1281.2136243283999
1161,0.07732210519021146
1163,0.0
1166,5759.418953516326
1168,5759.418953516326
2,1, 1, 8, 0, 3, 0.00,60.00,Monday
7,-21.1
545,18.542684053930238
546,-13.42588631610635
547,17.323160499057924
548,153.1844754155642
720,6157.96579441466
721,6157.96579441466
784,0.0
785,0.0
848,0.0
849,0.0
1121,2746.1019342683485
1135,1279.7909604618267
1161,0.07732210519021146
1163,0.0
1166,6036.792253324997
1168,6036.792253324997
2,1, 1, 8, 0, 4, 0.00,60.00,Monday
7,-21.7
545,18.53791783150226
546,-14.632532965337765
547,17.05941549357317
548,153.1844754155642
720,6556.898246975814
721,6556.898246975814
784,0.0
785,0.0
848,0.0
849,0.0
1121,2687.7630355683204
1135,1269.715438214677
1161,0.07732210519021146
1163,0.0
1166,6589.013312448441
1168,6589.013312448441
2,1, 1, 8, 0, 5, 0.00,60.00,Monday
7,-21.1
545,18.544555373793457
546,-13.697895709257912
547,16.84548950907062
548,153.1844754155642
720,6397.219901477451
721,6397.219901477451
784,0.0
785,0.0
848,0.0
849,0.0
1121,2746.734248711876
1135,1279.2476231525857
1161,0.07732210519021146
1163,0.0
1166,6422.078178421515
1168,6422.078178421515
2,1, 1, 8, 0, 6, 0.00,60.00,Monday
7,-20.6
545,18.987867053313835
546,-14.389219085585525
547,16.62123404796188
548,153.1844754155642
720,8267.2904925545
721,8267.2904925545
784,0.0
785,0.0
848,0.0
849,0.0
1121,2796.229709806594
1135,1287.2714827711518
1161,0.07732210519021146
1163,0.0
1166,7888.072502561936
1168,7888.072502561936
2,1, 1, 8, 0, 7, 0.00,60.00,Monday
7,-20.6
545,19.156478993159034
546,-14.227670743602975
547,16.429534543224438
548,153.1844754155642
720,8146.343885582533
721,8146.343885582533
784,0.0
785,0.0
848,0.0
849,0.0
1121,2786.2285034032075
1135,1295.9726720521012
1161,0.07732210519021146
1163,0.0
1166,7888.072502561936
1168,7888.072502561936
2,1, 1, 8, 0, 8, 0.00,60.00,Monday
7,-20.0
545,19.189732450913077
546,-13.367944160523608
547,16.230468643940576
548,153.1844754155642
720,8190.99359575557
721,8190.99359575557
784,0.0
785,0.0
848,0.0
849,0.0
1121,2842.4796378448154
1135,1309.0239831743866
1161,0.07732210519021146
1163,0.0
1166,7888.072502561936
1168,7888.072502561936
2,1, 1, 8, 0, 9, 0.00,60.00,Monday
7,-19.4
545,19.51666600863572
546,-12.442757012644277
547,16.046081092453193
548,153.1844754155642
720,7738.231378964258
721,7738.231378964258
784,0.0
785,0.0
848,0.0
849,0.0
1121,2902.6246193397706
1135,1319.2241706738603
1161,0.08196280766726642
1163,0.0
1166,7883.326530854209
1168,7883.326530854209
2,1, 1, 8, 0,10, 0.00,60.00,Monday
7,-18.3
545,19.192460937575706
546,-12.18490553289077
547,15.868002715805526
548,153.1844754155642
720,8541.060780399497
721,8541.060780399497
784,0.0
785,0.0
848,0.0
849,0.0
1121,3008.464152116935
1135,1343.5666890024447
1161,0.07732210519021146
1163,0.0
1166,7888.072502561936
1168,7888.072502561936
2,1, 1, 8, 0,11, 0.00,60.00,Monday
7,-17.2
545,19.069108166147952
546,-11.260361249490542
547,15.688410961431725
548,153.1844754155642
720,8685.145830839994
721,8685.145830839994
784,0.0
785,0.0
848,0.0
849,0.0
1121,3132.2369597153215
1135,1353.2189685973538
1161,0.07732210519021146
1163,0.0
1166,7888.072502561936
1168,7888.072502561936
2,1, 1, 8, 0,12, 0.00,60.00,Monday
7,-17.2
545,19.009116629145538
546,-9.895192172166615
547,15.524066260602172
548,153.1844754155642
720,8748.513452302803
721,8748.513452302803
784,0.0
785,0.0
848,0.0
849,0.0
1121,3135.3906721196245
1135,1350.2056667681932
1161,0.07732210519021146
1163,0.0
1166,7888.072502561936
1168,7888.072502561936
2,1, 1, 8, 0,13, 0.00,60.00,Monday
7,-17.2
545,19.31639712332354
546,-9.421830151391024
547,15.381395972550223
548,153.1844754155642
720,8283.147111541752
721,8283.147111541752
784,0.0
785,0.0
848,0.0
849,0.0
1121,3118.98145424669
1135,1340.9338852246442
1161,6.4956547386218375
1163,0.0
1166,7888.072502561936
1168,7888.072502561936
2,1, 1, 8, 0,14, 0.00,60.00,Monday
7,-16.1
545,19.414983717965157
546,-8.74302014444733
547,15.25614461709121
548,153.1844754155642
720,8357.216728640811
721,8357.216728640811
784,0.0
785,0.0
848,0.0
849,0.0
1121,3225.7754958469923
1135,1362.4789072225728
1161,7.8466186931788675
1163,0.0
1166,7888.072502561936
1168,7888.072502561936
2,1, 1, 8, 0,15, 0.00,60.00,Monday
7,-15.0
545,19.604327375808513
546,-8.216853633694054
547,15.139697668512632
548,153.1844754155642
720,7392.428400207333
721,7392.428400207333
784,0.0
785,0.0
848,0.0
849,0.0
1121,3329.673247161558
1135,1374.9210973688187
1161,12.518347716646693
1163,0.0
1166,6887.388483161205
1168,6887.388483161205
2,1, 1, 8, 0,16, 0.00,60.00,Monday
7,-13.9
545,19.65385077177184
546,-7.685940248334218
547,15.029387782695524
548,153.1844754155642
720,7121.349020665428
721,7121.349020665428
784,0.0
785,0.0
848,0.0
849,0.0
1121,3438.493535540717
1135,1391.3960219567002
1161,15.410885016788425
1163,0.0
1166,6430.596213103714
1168,6430.596213103714
2,1, 1, 8, 0,17, 0.00,60.00,Monday
7,-13.3
545,19.66872626552088
546,-8.122095327752678
547,14.916157890000827
548,153.1844754155642
720,6969.750355995588
721,6969.750355995588
784,0.0
785,0.0
848,0.0
849,0.0
1121,3503.9548005625697
1135,1400.4577270645545
1161,15.743631736369704
1163,0.0
1166,6148.291294361182
1168,6148.291294361182
2,1, 1, 8, 0,18, 0.00,60.00,Monday
7,-12.2
545,19.667377550029855
546,-7.669791151526778
547,14.810143121342847
548,153.1844754155642
720,6904.641074965755
721,6904.641074965755
784,0.0
785,0.0
848,0.0
849,0.0
1121,3621.628929129057
1135,1412.7237261197329
1161,18.150928236385386
1163,0.0
1166,5979.018798813629
1168,5979.018798813629
2,1, 1, 8, 0,19, 0.00,60.00,Monday
7,-11.7
545,19.71384089360447
546,-7.209888758251987
547,14.71914110220954
548,153.1844754155642
720,5193.382926788201
721,5193.382926788201
784,0.0
785,0.0
848,0.0
849,0.0
1121,3671.8190327057514
1135,1416.3975282206545
1161,20.479220640407746
1163,0.0
1166,3903.199314125232
1168,3903.199314125232
2,1, 1, 8, 0,20, 0.00,60.00,Monday
7,-10.6
545,19.709974088390734
546,-6.904949262393675
547,14.626077695587442
548,153.1844754155642
720,4937.603197126486
721,4937.603197126486
784,0.0
785,0.0
848,0.0
849,0.0
1121,3801.9790614249623
1135,1432.9921064246298
1161,19.83517863033719
1163,0.0
1166,3411.161435549647
1168,3411.161435549647
2,1, 1, 8, 0,21, 0.00,60.00,Monday
7,-10.0
545,19.721411587413716
546,-5.9178746903989214
547,14.536631219756584
548,153.1844754155642
720,4108.909627044777
721,4108.909627044777
784,0.0
785,0.0
848,0.0
849,0.0
1121,3855.230789267994
1135,1433.8495315550779
1161,25.046506983931476
1163,0.0
1166,2369.585692120529
1168,2369.585692120529
2,1, 1, 8, 0,22, 0.00,60.00,Monday
7,-10.6
545,19.660994458654958
546,-6.670604721753639
547,14.426679212257119
548,153.1844754155642
720,6288.652094720877
721,6288.652094720877
784,0.0
785,0.0
848,0.0
849,0.0
1121,3842.7384449517035
1135,1448.1518780970139
1161,8.10047355135077
1163,0.0
1166,4855.462330206037
1168,4855.462330206037
2,1, 1, 8, 0,23, 0.00,60.00,Monday
7,-12.0
545,18.914615636709186
546,-8.03888155305334
547,14.33428543043251
548,153.1844754155642
720,5071.4013025095865
721,5071.4013025095865
784,0.0
785,0.0
848,0.0
849,0.0
1121,3678.358006794315
1135,1427.3605543634817
1161,8.236532089153199
1163,0.0
1166,3677.0312898959087
1168,3677.0312898959087
2,1, 1, 8, 0,24, 0.00,60.00,Monday
7,-12.8
545,18.67707531699382
546,-8.603992854752137
547,14.210072182906835
548,153.1844754155642
720,5289.230808709866
721,5289.230808709866
784,0.0
785,0.0
848,0.0
849,0.0
1121,3616.9182817828587
1135,1402.3814876089023
1161,4.186281725920643
1163,0.0
1166,3977.755418963948
1168,3977.755418963948
2,2, 1, 9, 0, 1, 0.00,60.00,Tuesday
7,-12.8
545,18.59342391604103
546,-8.820342406256916
547,14.1118581822651
548,153.1844754155642
720,5752.267557769079
721,5752.267557769079
784,0.0
785,0.0
848,0.0
849,0.0
1121,3622.7861763277147
1135,1396.178926389425
1161,4.186281725920643
1163,0.0
1166,4523.952953686828
1168,4523.952953686828
2,2, 1, 9, 0, 2, 0.00,60.00,Tuesday
7,-13.3
545,18.57967414847291
546,-9.176855524196958
547,14.007933310137194
548,153.1844754155642
720,5584.4482067765675
721,5584.4482067765675
784,0.0
785,0.0
848,0.0
849,0.0
1121,3578.081274827912
1135,1391.4355745627274
1161,0.8435700909874477
1163,0.0
1166,4392.472057953694
1168,4392.472057953694
2,2, 1, 9, 0, 3, 0.00,60.00,Tuesday
7,-13.3
545,18.576433732221016
546,-9.057875911039106
547,13.909872243995894
548,153.1844754155642
720,5462.838404187514
721,5462.838404187514
784,0.0
785,0.0
848,0.0
849,0.0
1121,3578.53405491579
1135,1390.9635711082155
1161,0.842904311737875
1163,0.0
1166,4266.870753282621
1168,4266.870753282621
2,2, 1, 9, 0, 4, 0.00,60.00,Tuesday
7,-13.3
545,18.576236509414418
546,-9.011449360528399
547,13.809847839082172
548,153.1844754155642
720,5436.925601381225
721,5436.925601381225
784,0.0
785,0.0
848,0.0
849,0.0
1121,3578.734450839381
1135,1390.7563483730046
1161,0.8422395825774633
1163,0.0
1166,4231.673276980278
1168,4231.673276980278
2,2, 1, 9, 0, 5, 0.00,60.00,Tuesday
7,-13.9
545,18.566107466418593
546,-9.567647881905286
547,13.704101051863208
548,153.1844754155642
720,5818.385315843716
721,5818.385315843716
784,0.0
785,0.0
848,0.0
849,0.0
1121,3512.744203472077
1135,1383.4518574318604
1161,0.07732210519021146
1163,0.0
1166,4738.013218504529
1168,4738.013218504529
2,2, 1, 9, 0, 6, 0.00,60.00,Tuesday
7,-15.6
545,19.31851225589877
546,-10.275673640882038
547,13.594622818416436
548,153.1844754155642
720,7082.0110824941785
721,7082.0110824941785
784,0.0
785,0.0
848,0.0
849,0.0
1121,3322.9669135116274
1135,1359.5356816841336
1161,0.07732210519021146
1163,0.0
1166,6419.395633483957
1168,6419.395633483957
2,2, 1, 9, 0, 7, 0.00,60.00,Tuesday
7,-15.6
545,19.561715904435317
546,-10.462950946121893
547,13.530414250285537
548,153.1844754155642
720,6843.849610817542
721,6843.849610817542
784,0.0
785,0.0
848,0.0
849,0.0
1121,3305.221735086813
1135,1377.2328400628705
1161,0.07732210519021146
1163,0.0
1166,6290.998518047301
1168,6290.998518047301
2,2, 1, 9, 0, 8, 0.00,60.00,Tuesday
7,-16.1
545,19.646485587216333
546,-10.375761757601815
547,13.437167630384932
548,153.1844754155642
720,6250.598355830234
721,6250.598355830234
784,0.0
785,0.0
848,0.0
849,0.0
1121,3244.7828462894113
1135,1375.5032178403355
1161,0.07732210519021146
1163,0.0
1166,5705.700344504543
1168,5705.700344504543
2,2, 1, 9, 0, 9, 0.00,60.00,Tuesday
7,-16.1
545,19.65174453635085
546,-11.182617512158103
547,13.341648094477112
548,153.1844754155642
720,6798.185362924753
721,6798.185362924753
784,0.0
785,0.0
848,0.0
849,0.0
1121,3242.929971458958
1135,1377.3148291537386
1161,0.07732210519021146
1163,0.0
1166,6343.502821110157
1168,6343.502821110157
2,2, 1, 9, 0,10, 0.00,60.00,Tuesday
7,-15.6
545,19.672466047019945
546,-10.18032004196017
547,13.26093617787494
548,153.1844754155642
720,6121.188216931509
721,6121.188216931509
784,0.0
785,0.0
848,0.0
849,0.0
1121,3297.5971120734366
1135,1384.7891085621757
1161,0.07732210519021146
1163,0.0
1166,5560.765417588248
1168,5560.765417588248
2,2, 1, 9, 0,11, 0.00,60.00,Tuesday
7,-16.0
545,19.70617827913625
546,-9.454214369561106
547,13.181817310023346
548,153.1844754155642
720,4951.0847556096705
721,4951.0847556096705
784,0.0
785,0.0
848,0.0
849,0.0
1121,3253.3991291609777
1135,1379.2298115615877
1161,0.07732210519021146
1163,0.0
1166,4198.3942192150025
1168,4198.3942192150025
2,2, 1, 9, 0,12, 0.00,60.00,Tuesday
7,-15.6
545,19.686240589196288
546,-8.52650373002687
547,13.125191971251391
548,153.1844754155642
720,5421.750454413856
721,5421.750454413856
784,0.0
785,0.0
848,0.0
849,0.0
1121,3296.477747548358
1135,1385.895977715452
1161,0.07732210519021146
1163,0.0
1166,4632.511871101517
1168,4632.511871101517
2,2, 1, 9, 0,13, 0.00,60.00,Tuesday
7,-15.6
545,19.711066051734008
546,-7.818470977601918
547,13.076768998185882
548,153.1844754155642
720,4429.395671061935
721,4429.395671061935
784,0.0
785,0.0
848,0.0
849,0.0
1121,3297.0264685128077
1135,1385.3534612279366
1161,0.07732210519021146
1163,0.0
1166,3443.677940254937
1168,3443.677940254937
2,2, 1, 9, 0,14, 0.00,60.00,Tuesday
7,-15.0
545,19.707683531371924
546,-7.451340192248248
547,13.041896779799599
548,153.1844754155642
720,4304.419925334154
721,4304.419925334154
784,0.0
785,0.0
848,0.0
849,0.0
1121,3362.8289652447534
1135,1394.7182947782717
1161,0.07732210519021146
1163,0.0
1166,3175.855787318184
1168,3175.855787318184
2,2, 1, 9, 0,15, 0.00,60.00,Tuesday
7,-15.0
545,19.706888501843967
546,-9.349298420614415
547,13.01158023793402
548,153.1844754155642
720,4055.487599283031
721,4055.487599283031
784,0.0
785,0.0
848,0.0
849,0.0
1121,3363.0011913111684
1135,1394.5456342346122
1161,0.07732210519021146
1163,0.0
1166,2859.6098714356744
1168,2859.6098714356744
2,2, 1, 9, 0,16, 0.00,60.00,Tuesday
7,-15.0
545,19.716753745368283
546,-8.0883356478924
547,13.00657752043672
548,153.1844754155642
720,3108.645248441506
721,3108.645248441506
784,0.0
785,0.0
848,0.0
849,0.0
1121,3362.984312570525
1135,1394.5625561794202
1161,0.07732210519021146
1163,0.0
1166,1847.1658706045528
1168,1847.1658706045528
2,2, 1, 9, 0,17, 0.00,60.00,Tuesday
7,-15.6
545,19.690888999983066
546,-9.740141887293783
547,12.989551742952768
548,153.1844754155642
720,4060.185792096536
721,4060.185792096536
784,0.0
785,0.0
848,0.0
849,0.0
1121,3296.4495980722177
1135,1385.9238047929407
1161,0.07732210519021146
1163,0.0
1166,2942.003805665444
1168,2942.003805665444
2,2, 1, 9, 0,18, 0.00,60.00,Tuesday
7,-16.1
545,19.680018294885453
546,-9.616311190222016
547,12.969816285682679
548,153.1844754155642
720,4258.024828842534
721,4258.024828842534
784,0.0
785,0.0
848,0.0
849,0.0
1121,3242.3945688780004
1135,1377.837969794776
1161,0.07732210519021146
1163,0.0
1166,3310.7660896596694
1168,3310.7660896596694
2,2, 1, 9, 0,19, 0.00,60.00,Tuesday
7,-16.1
545,19.68638217432822
546,-10.218730959467834
547,12.931849074210021
548,153.1844754155642
720,4316.096692795318
721,4316.096692795318
784,0.0
785,0.0
848,0.0
849,0.0
1121,3242.681189572082
1135,1377.55793227086
1161,0.07732210519021146
1163,0.0
1166,3389.108156179706
1168,3389.108156179706
2,2, 1, 9, 0,20, 0.00,60.00,Tuesday
7,-16.1
545,19.68402364265972
546,-10.64564279832726
547,12.879517571984202
548,153.1844754155642
720,4447.709545945134
721,4447.709545945134
784,0.0
785,0.0
848,0.0
849,0.0
1121,3242.5857634522836
1135,1377.6511714591911
1161,0.07732210519021146
1163,0.0
1166,3575.4041125957483
1168,3575.4041125957483
2,2, 1, 9, 0,21, 0.00,60.00,Tuesday
7,-16.7
545,19.67976091955563
546,-11.094436932972725
547,12.812016038647224
548,153.1844754155642
720,4678.550689325657
721,4678.550689325657
784,0.0
785,0.0
848,0.0
849,0.0
1121,3177.805646795416
1135,1368.4452786300428
1161,0.07732210519021146
1163,0.0
1166,3935.9358900505813
1168,3935.9358900505813
2,2, 1, 9, 0,22, 0.00,60.00,Tuesday
7,-16.7
545,19.675088693148936
546,-10.937721013503856
547,12.742304030827924
548,153.1844754155642
720,4954.978062680077
721,4954.978062680077
784,0.0
785,0.0
848,0.0
849,0.0
1121,3177.989525564586
1135,1368.268290020372
1161,0.07732210519021146
1163,0.0
1166,4286.5140746134875
1168,4286.5140746134875
2,2, 1, 9, 0,23, 0.00,60.00,Tuesday
7,-17.2
545,18.926791680275592
546,-11.237842826240364
547,12.66048198360844
548,153.1844754155642
720,4213.925047171753
721,4213.925047171753
784,0.0
785,0.0
848,0.0
849,0.0
1121,3124.6857911845154
1135,1360.4105577993078
1161,0.07732210519021146
1163,0.0
1166,3490.0736407046174
1168,3490.0736407046174
2,2, 1, 9, 0,24, 0.00,60.00,Tuesday
7,-17.8
545,18.67689945361513
546,-11.55608439338298
547,12.540192584880456
548,153.1844754155642
720,4871.183461747418
721,4871.183461747418
784,0.0
785,0.0
848,0.0
849,0.0
1121,3074.9743179916386
1135,1332.672696042528
1161,1.5176774862504885
1163,0.0
1166,4240.375908775149
1168,4240.375908775149
2,3, 1,10, 0, 1, 0.00,60.00,Wednesday
7,-17.8
545,18.590226789000898
546,-11.66389621959438
547,12.445589193994442
548,153.1844754155642
720,5421.59795275161
721,5421.59795275161
784,0.0
785,0.0
848,0.0
849,0.0
1121,3080.9641327330296
1135,1326.998255048475
1161,1.5176774862504885
1163,0.0
1166,4877.467417857082
1168,4877.467417857082
2,3, 1,10, 0, 2, 0.00,60.00,Wednesday
7,-18.9
545,18.55943936585286
546,-11.945945698961305
547,12.338329958839426
548,153.1844754155642
720,5928.565530150438
721,5928.565530150438
784,0.0
785,0.0
848,0.0
849,0.0
1121,2966.0110070992955
1135,1307.2276520159312
1161,2.519552242640116
1163,0.0
1166,5591.616068820341
1168,5591.616068820341
2,3, 1,10, 0, 3, 0.00,60.00,Wednesday
7,-18.9
545,18.549895044264236
546,-12.561932793849486
547,12.239505234716097
548,153.1844754155642
720,6237.098866039567
721,6237.098866039567
784,0.0
785,0.0
848,0.0
849,0.0
1121,2961.032363234061
1135,1303.866261629431
1161,4.714183320995398
1163,0.0
1166,5981.247630406207
1168,5981.247630406207
2,3, 1,10, 0, 4, 0.00,60.00,Wednesday
7,-18.9
545,18.545503935913334
546,-12.927203847662998
547,12.138741120503257
548,153.1844754155642
720,6476.890702655841
721,6476.890702655841
784,0.0
785,0.0
848,0.0
849,0.0
1121,2961.380242992841
1135,1303.538465284465
1161,4.716015900421475
1163,0.0
1166,6299.405230735487
1168,6299.405230735487
2,3, 1,10, 0, 5, 0.00,60.00,Wednesday
7,-18.9
545,18.54942053514201
546,-12.7130151185801
547,12.040133028500033
548,153.1844754155642
720,6458.709739645461
721,6458.709739645461
784,0.0
785,0.0
848,0.0
849,0.0
1121,2961.6004895646233
1135,1303.3318601389249
1161,4.716909211768742
1163,0.0
1166,6308.6037582273075
1168,6308.6037582273075
2,3, 1,10, 0, 6, 0.00,60.00,Wednesday
7,-18.9
545,19.315147098496045
546,-12.304234391596827
547,11.942260798123781
548,153.1844754155642
720,7537.437442594075
721,7537.437442594075
784,0.0
785,0.0
848,0.0
849,0.0
1121,2961.627715849915
1135,1303.308253262229
1161,4.716486022106519
1163,0.0
1166,7548.754631681974
1168,7548.754631681974
2,3, 1,10, 0, 7, 0.00,60.00,Wednesday
7,-18.9
545,19.559184693767897
546,-12.21984238434725
547,11.87753520734229
548,153.1844754155642
720,7300.492814201356
721,7300.492814201356
784,0.0
785,0.0
848,0.0
849,0.0
1121,2944.012891551881
1135,1319.473361521288
1161,4.716486022106519
1163,0.0
1166,7359.206059265481
1168,7359.206059265481
2,3, 1,10, 0, 8, 0.00,60.00,Wednesday
7,-18.9
545,19.63599956046543
546,-11.677072268702938
547,11.790323511512092
548,153.1844754155642
720,6927.97543839675
721,6927.97543839675
784,0.0
785,0.0
848,0.0
849,0.0
1121,2938.3950886111616
1135,1324.5924006049736
1161,4.714653077367686
1163,0.0
1166,6952.490693163968
1168,6952.490693163968
2,3, 1,10, 0, 9, 0.00,60.00,Wednesday
7,-17.2
545,19.65100220251667
546,-11.270990843990683
547,11.714123754912348
548,153.1844754155642
720,7122.736320010961
721,7122.736320010961
784,0.0
785,0.0
848,0.0
849,0.0
1121,3121.7658856731505
1135,1356.060159546509
1161,1.9169420096187266
1163,0.0
1166,6976.644718159742
1168,6976.644718159742
2,3, 1,10, 0,10, 0.00,60.00,Wednesday
7,-16.1
545,19.662088215333945
546,-10.164785337831
547,11.63715531197399
548,153.1844754155642
720,6975.264628761506
721,6975.264628761506
784,0.0
785,0.0
848,0.0
849,0.0
1121,3237.3584052643314
1135,1371.9314048060482
1161,2.7399301661813307
1163,0.0
1166,6677.905152011743
1168,6677.905152011743
2,3, 1,10, 0,11, 0.00,60.00,Wednesday
7,-14.4
545,19.695314054148415
546,-7.808875963927157
547,11.576582704930981
548,153.1844754155642
720,5920.581060838778
721,5920.581060838778
784,0.0
785,0.0
848,0.0
849,0.0
1121,3427.7995099754976
1135,1398.220024684671
1161,1.7650109994099177
1163,0.0
1166,5210.132921248711
1168,5210.132921248711
2,3, 1,10, 0,12, 0.00,60.00,Wednesday
7,-11.7
545,19.690950329104773
546,-6.604795904390219
547,11.524275500119916
548,153.1844754155642
720,6185.561985156888
721,6185.561985156888
784,0.0
785,0.0
848,0.0
849,0.0
1121,3743.7754137746806
1135,1438.748236362492
1161,0.07732210519021146
1163,0.0
1166,5066.424835506477
1168,5066.424835506477
2,3, 1,10, 0,13, 0.00,60.00,Wednesday
7,-11.7
545,19.69298561123377
546,-5.9020611993654954
547,11.468037646793826
548,153.1844754155642
720,5991.021694669813
721,5991.021694669813
784,0.0
785,0.0
848,0.0
849,0.0
1121,3743.954896068055
1135,1438.5558375219648
1161,0.07732210519021146
1163,0.0
1166,4770.637481516819
1168,4770.637481516819
2,3, 1,10, 0,14, 0.00,60.00,Wednesday
7,-9.4
545,19.687664775510303
546,-5.292421059519766
547,11.442810559004911
548,153.1844754155642
720,6119.748716156708
721,6119.748716156708
784,0.0
785,0.0
848,0.0
849,0.0
1121,4021.622409709138
1135,1469.2086620724847
1161,0.07732210519021146
1163,0.0
1166,4595.671655349457
1168,4595.671655349457
2,3, 1,10, 0,15, 0.00,60.00,Wednesday
7,-9.4
545,19.704013988090082
546,-3.153179684375976
547,11.410937421291862
548,153.1844754155642
720,5388.543892237629
721,5388.543892237629
784,0.0
785,0.0
848,0.0
849,0.0
1121,4021.7423415500903
1135,1469.075373077353
1161,0.07732210519021146
1163,0.0
1166,3725.826838858731
1168,3725.826838858731
2,3, 1,10, 0,16, 0.00,60.00,Wednesday
7,-9.4
545,19.691359331955944
546,-3.556781816259326
547,11.385072000694404
548,153.1844754155642
720,5930.037964490693
721,5930.037964490693
784,0.0
785,0.0
848,0.0
849,0.0
1121,4004.9757369582594
1135,1463.3940392951797
1161,4.655130117425509
1163,0.0
1166,4260.604081562557
1168,4260.604081562557
2,3, 1,10, 0,17, 0.00,60.00,Wednesday
7,-8.9
545,19.700712722537002
546,-3.3736416512708147
547,11.36986184191385
548,153.1844754155642
720,5373.483640754881
721,5373.483640754881
784,0.0
785,0.0
848,0.0
849,0.0
1121,4074.57378882511
1135,1472.3553633064494
1161,2.5479644894624713
1163,0.0
1166,3554.068581416795
1168,3554.068581416795
2,3, 1,10, 0,18, 0.00,60.00,Wednesday
7,-8.3
545,19.706439818249933
546,-3.2412708479516823
547,11.353949126654177
548,153.1844754155642
720,4991.676819173626
721,4991.676819173626
784,0.0
785,0.0
848,0.0
849,0.0
1121,4130.44457149601
1135,1473.7279515425598
1161,7.569312382120184
1163,0.0
1166,3037.4363258088515
1168,3037.4363258088515
2,3, 1,10, 0,19, 0.00,60.00,Wednesday
7,-8.3
545,19.708439857440492
546,-3.200572653807474
547,11.3347007690934
548,153.1844754155642
720,4710.407258803667
721,4710.407258803667
784,0.0
785,0.0
848,0.0
849,0.0
1121,4130.32456889564
1135,1473.8632721920492
1161,7.569312382120184
1163,0.0
1166,2695.174509193099
1168,2695.174509193099
2,3, 1,10, 0,20, 0.00,60.00,Wednesday
7,-7.2
545,19.720160467442845
546,-2.7866093674381163
547,11.326775301895035
548,153.1844754155642
720,4080.085167359828
721,4080.085167359828
784,0.0
785,0.0
848,0.0
849,0.0
1121,4261.709100849178
1135,1485.6416702350693
1161,9.385236929039484
1163,0.0
1166,1819.252540363359
1168,1819.252540363359
2,3, 1,10, 0,21, 0.00,60.00,Wednesday
7,-7.2
545,19.72297593178873
546,-2.2713326476491815
547,11.309762914796314
548,153.1844754155642
720,3763.0302612377145
721,3763.0302612377145
784,0.0
785,0.0
848,0.0
849,0.0
1121,4243.23755101558
1135,1479.6664173071379
1161,14.110016148965556
1163,0.0
1166,1431.073261714766
1168,1431.073261714766
2,3, 1,10, 0,22, 0.00,60.00,Wednesday
7,-6.7
545,19.710466891512247
546,-2.0541002982082146
547,11.296254684400703
548,153.1844754155642
720,4087.42296985999
721,4087.42296985999
784,0.0
785,0.0
848,0.0
849,0.0
1121,4283.2353576333335
1135,1477.9829509767537
1161,20.104036096471912
1163,0.0
1166,1733.0070623576426
1168,1733.0070623576426
2,3, 1,10, 0,23, 0.00,60.00,Wednesday
7,-6.1
545,18.985826264428656
546,-1.6063594535498007
547,11.284258160154101
548,151.54266002122264
720,2632.533801272686
721,2632.533801272686
784,0.0
785,0.0
848,0.0
849,0.0
1121,4322.7736864373
1135,1478.8746613965252
1161,16.512618872696113
1163,1.4874147960425077
1166,0.0
1168,0.0
2,3, 1,10, 0,24, 0.00,60.00,Wednesday
7,-6.7
545,18.729418450758843
546,-1.7567077890302798
547,11.2329163167942
548,153.1844754155642
720,3155.481828003769
721,3155.481828003769
784,0.0
785,0.0
848,0.0
849,0.0
1121,4320.4236880564995
1135,1463.6230183863538
1161,15.237495831010742
1163,0.0
1166,494.82400175779003
1168,494.82400175779003
2,4, 1,11, 0, 1, 0.00,60.00,Thursday
7,-6.7
545,18.637386991397737
546,-1.7748553126163829
547,11.209077750317132
548,153.1844754155642
720,3579.7840608320003
721,3579.7840608320003
784,0.0
785,0.0
848,0.0
849,0.0
1121,4326.784957591163
1135,1456.315465206036
1161,15.237495831010742
1163,0.0
1166,964.5179094311607
1168,964.5179094311607
2,4, 1,11, 0, 2, 0.00,60.00,Thursday
7,-7.8
545,18.60270291305931
546,-2.361736178101518
547,11.175400651635691
548,153.1844754155642
720,4022.5510673327826
721,4022.5510673327826
784,0.0
785,0.0
848,0.0
849,0.0
1121,4182.310908811645
1135,1437.4703349766578
1161,17.335499802742792
1163,0.0
1166,1621.5914868839704
1168,1621.5914868839704
2,4, 1,11, 0, 3, 0.00,60.00,Thursday
7,-7.8
545,18.583926422015757
546,-3.0696935375349073
547,11.150477131447506
548,153.1844754155642
720,4522.053479711349
721,4522.053479711349
784,0.0
785,0.0
848,0.0
849,0.0
1121,4183.227833388777
1135,1436.4282256958954
1161,17.335499802742792
1163,0.0
1166,2238.7425719656003
1168,2238.7425719656003
2,4, 1,11, 0, 4, 0.00,60.00,Thursday
7,-7.2
545,18.591449211210946
546,-3.066186913612741
547,11.12972711804607
548,153.1844754155642
720,4302.310204018808
721,4302.310204018808
784,0.0
785,0.0
848,0.0
849,0.0
1121,4271.34477261534
1135,1447.4238804527042
1161,14.130501315828118
1163,0.0
1166,1943.4316482377749
1168,1943.4316482377749
2,4, 1,11, 0, 5, 0.00,60.00,Thursday
7,-7.8
545,18.59440306740871
546,-3.282803021407697
547,11.099042594108655
548,153.1844754155642
720,4282.987541130422
721,4282.987541130422
784,0.0
785,0.0
848,0.0
849,0.0
1121,4200.474958216788
1135,1441.8965093356492
1161,12.877632801032659
1163,0.0
1166,1993.2106392209985
1168,1993.2106392209985
2,4, 1,11, 0, 6, 0.00,60.00,Thursday
7,-7.2
545,19.343128547958255
546,-3.235652406899482
547,11.075797349970665
548,153.1844754155642
720,5534.02599826708
721,5534.02599826708
784,0.0
785,0.0
848,0.0
849,0.0
1121,4271.181011021452
1135,1447.6030691799403
1161,14.131906586216237
1163,0.0
1166,3379.6917917129645
1168,3379.6917917129645
2,4, 1,11, 0, 7, 0.00,60.00,Thursday
7,-7.2
545,19.591394878257066
546,-3.0805762382250332
547,11.083043140889563
548,153.1844754155642
720,5278.62839529038
721,5278.62839529038
784,0.0
785,0.0
848,0.0
849,0.0
1121,4252.848007404671
1135,1468.5606098336496
1161,14.131906586216237
1163,0.0
1166,3189.602520142022
1168,3189.602520142022
2,4, 1,11, 0, 8, 0.00,60.00,Thursday
7,-7.2
545,19.675799609619894
546,-3.1946349093633133
547,11.067175428945674
548,153.1844754155642
720,4791.5403052082875
721,4791.5403052082875
784,0.0
785,0.0
848,0.0
849,0.0
1121,4246.700845481854
1135,1475.6160295603395
1161,14.126427611694451
1163,0.0
1166,2643.2656186615554
1168,2643.2656186615554
2,4, 1,11, 0, 9, 0.00,60.00,Thursday
7,-6.1
545,19.709440564047394
546,-1.7355444053759612
547,11.062346910740875
548,153.1844754155642
720,4135.116493227815
721,4135.116493227815
784,0.0
785,0.0
848,0.0
849,0.0
1121,4395.352316371644
1135,1495.6057911789173
1161,11.458769017184617
1163,0.0
1166,1737.2825936705326
1168,1737.2825936705326
2,4, 1,11, 0,10, 0.00,60.00,Thursday
7,-4.4
545,19.733005302578654
546,-0.35708089089672973
547,11.058263639723018
548,153.1844754155642
720,3441.5514891970415
721,3441.5514891970415
784,0.0
785,0.0
848,0.0
849,0.0
1121,4643.176274871238
1135,1526.9349413089992
1161,5.1174709575389725
1163,0.0
1166,610.4096197721042
1168,610.4096197721042
2,4, 1,11, 0,11, 0.00,60.00,Thursday
7,-3.3
545,19.80134217441725
546,1.639781801724364
547,11.031735059223871
548,136.82410186171205
720,2695.5674587828053
721,2695.5674587828053
784,0.0
785,0.0
848,0.0
849,0.0
1121,4242.115791163291
1135,1383.56207017804
1161,0.06906473146107212
1163,21.3583779407617
1166,0.0