Program Version,EnergyPlus, Version 22.2.0-c249759bad, YMD=2023.08.02 11:24
1,5,Environment Title[],Latitude[deg],Longitude[deg],Time Zone[],Elevation[m]
2,8,Day of Simulation[],Month[],Day of Month[],DST Indicator[1=yes 0=no],Hour[],StartMinute[],EndMinute[],DayType
3,5,Cumulative Day of Simulation[],Month[],Day of Month[],DST Indicator[1=yes 0=no],DayType  ! When Daily Report Variables Requested
4,2,Cumulative Days of Simulation[],Month[]  ! When Monthly Report Variables Requested
5,1,Cumulative Days of Simulation[] ! When Run Period Report Variables Requested
6,1,Calendar Year of Simulation[] ! When Annual Report Variables Requested
581,11,LIVING,AFN Zone Infiltration Air Change Rate [ach] !RunPeriod [Value,Min,Month,Day,Hour,Minute,Max,Month,Day,Hour,Minute]
582,11,ATTIC,AFN Zone Infiltration Air Change Rate [ach] !RunPeriod [Value,Min,Month,Day,Hour,Minute,Max,Month,Day,Hour,Minute]
583,11,CRAWLSPACE,AFN Zone Infiltration Air Change Rate [ach] !RunPeriod [Value,Min,Month,Day,Hour,Minute,Max,Month,Day,Hour,Minute]
1038,11,Facility,Facility Heating Setpoint Not Met Time [hr] !RunPeriod [Value,Min,Month,Day,Hour,Minute,Max,Month,Day,Hour,Minute]
1039,11,Facility,Facility Cooling Setpoint Not Met Time [hr] !RunPeriod [Value,Min,Month,Day,Hour,Minute,Max,Month,Day,Hour,Minute]
1115,11,DX_HEATING_COIL,Heating Coil Heating Energy [J] !RunPeriod [Value,Min,Month,Day,Hour,Minute,Max,Month,Day,Hour,Minute]
1128,11,DX_HEATING_COIL,Heating Coil Electricity Energy [J] !RunPeriod [Value,Min,Month,Day,Hour,Minute,Max,Month,Day,Hour,Minute]
1153,11,DX_HEATING_COIL,Heating Coil Defrost Electricity Energy [J] !RunPeriod [Value,Min,Month,Day,Hour,Minute,Max,Month,Day,Hour,Minute]
1154,11,DX_HEATING_COIL,Heating Coil Crankcase Heater Electricity Energy [J] !RunPeriod [Value,Min,Month,Day,Hour,Minute,Max,Month,Day,Hour,Minute]
1155,11,HEATING_RESISTANCE_BACKUP,Heating Coil Heating Energy [J] !RunPeriod [Value,Min,Month,Day,Hour,Minute,Max,Month,Day,Hour,Minute]
1156,11,HEATING_RESISTANCE_BACKUP,Heating Coil Electricity Energy [J] !RunPeriod [Value,Min,Month,Day,Hour,Minute,Max,Month,Day,Hour,Minute]
13,11,Electricity:Facility [J] !RunPeriod [Value,Min,Month,Day,Hour,Minute,Max,Month,Day,Hour,Minute]
1134,11,Heating:Electricity [J] !RunPeriod [Value,Min,Month,Day,Hour,Minute,Max,Month,Day,Hour,Minute]
1096,11,Cooling:Electricity [J] !RunPeriod [Value,Min,Month,Day,Hour,Minute,Max,Month,Day,Hour,Minute]
562,11,Fans:Electricity [J] !RunPeriod [Value,Min,Month,Day,Hour,Minute,Max,Month,Day,Hour,Minute]
1352,11,Pumps:Electricity [J] !RunPeriod [Value,Min,Month,Day,Hour,Minute,Max,Month,Day,Hour,Minute]
1323,11,WaterSystems:Electricity [J] !RunPeriod [Value,Min,Month,Day,Hour,Minute,Max,Month,Day,Hour,Minute]
61,11,InteriorLights:Electricity [J] !RunPeriod [Value,Min,Month,Day,Hour,Minute,Max,Month,Day,Hour,Minute]
1046,11,ExteriorLights:Electricity [J] !RunPeriod [Value,Min,Month,Day,Hour,Minute,Max,Month,Day,Hour,Minute]
134,11,InteriorEquipment:Electricity [J] !RunPeriod [Value,Min,Month,Day,Hour,Minute,Max,Month,Day,Hour,Minute]
170,11,gas_dryer:InteriorEquipment:Electricity [J] !RunPeriod [Value,Min,Month,Day,Hour,Minute,Max,Month,Day,Hour,Minute]
207,11,clotheswasher:InteriorEquipment:Electricity [J] !RunPeriod [Value,Min,Month,Day,Hour,Minute,Max,Month,Day,Hour,Minute]
244,11,dishwasher:InteriorEquipment:Electricity [J] !RunPeriod [Value,Min,Month,Day,Hour,Minute,Max,Month,Day,Hour,Minute]
281,11,refrigerator:InteriorEquipment:Electricity [J] !RunPeriod [Value,Min,Month,Day,Hour,Minute,Max,Month,Day,Hour,Minute]
318,11,electric_mels:InteriorEquipment:Electricity [J] !RunPeriod [Value,Min,Month,Day,Hour,Minute,Max,Month,Day,Hour,Minute]
355,11,NaturalGas:Facility [J] !RunPeriod [Value,Min,Month,Day,Hour,Minute,Max,Month,Day,Hour,Minute]
403,11,InteriorEquipment:NaturalGas [J] !RunPeriod [Value,Min,Month,Day,Hour,Minute,Max,Month,Day,Hour,Minute]
476,11,gas_dryer:InteriorEquipment:NaturalGas [J] !RunPeriod [Value,Min,Month,Day,Hour,Minute,Max,Month,Day,Hour,Minute]
513,11,gas_mels:InteriorEquipment:NaturalGas [J] !RunPeriod [Value,Min,Month,Day,Hour,Minute,Max,Month,Day,Hour,Minute]
End of Data Dictionary
1,EXTREME_WINTER,  39.10, -84.42,  -5.00, 149.40
5,7
1038,0.6666666666666666,0.0, 1,15, 1,10,0.16666666666666666, 1,16, 6,10
1039,0.0,0.0, 1,15, 1,10,0.0, 1,15, 1,10
581,0.27722897029678883,0.18044708604327636, 1,17, 4,60,0.4320338714716818, 1,17,24,20
582,3.0522131165781756,0.0, 1,15,23, 8,12.339276013146304, 1,17,24,60
583,3.54056268285879,0.000194342414053703, 1,16,20,60,11.21515480978107, 1,17,24,20
1115,1451234242.0540366,0.0, 1,15,15,45,2739071.0068196324, 1,19, 6,20
1128,489834350.0150711,0.0, 1,15,15,45,837501.3885584428, 1,19, 6,20
1153,8378044.344122638,0.0, 1,15,15,45,46525.37995907698, 1,17, 6,30
1154,47190340.10467332,0.0, 1,15, 4,33,120000.0, 1,15,16,10
1155,468482356.0024002,0.0, 1,15, 1,10,3496905.430819706, 1,20, 6,30
1156,468482356.0024002,0.0, 1,15, 1,10,3496905.430819706, 1,20, 6,30
13,1748891570.8932974,306324.6925987483, 1,15,15,50,6938027.057129836, 1,20, 7,40
61,301924526.0238348,58759.40635443481, 1,15, 1,10,854682.2742463244, 1,15,20,10
134,70666020.44019979,42376.01200569399, 1,15, 4,10,104369.48322671017, 1,20,20,10
170,5241013.419656074,232.27731661587313, 1,15, 4,10,11650.931360040839, 1,20,12,10
207,6509451.13922266,543.5021409221355, 1,15, 3,10,15327.095199349082, 1,20,10,10
244,12749673.39982522,1014.5707620042115, 1,15, 4,10,35359.08742820678, 1,20,20,10
281,46165882.48149605,39959.06841621388, 1,15, 5,10,54634.54471212738, 1,15,19,10
318,0.0,0.0, 1,15, 1,10,0.0, 1,15, 1,10
355,197687796.27748126,12374.216038804521, 1,15, 4,10,483183.26346918393, 1,20,18,10
403,197687796.27748126,12374.216038804521, 1,15, 4,10,483183.26346918393, 1,20,18,10
476,106772067.24485692,4732.048419519677, 1,15, 4,10,237357.535085481, 1,20,12,10
513,0.0,0.0, 1,15, 1,10,0.0, 1,15, 1,10
562,54961021.90693216,0.0, 1,15,15,50,89535.91570527891, 1,20, 9,40
1046,0.0,0.0, 1,15, 1,10,0.0, 1,15, 1,10
1096,0.0,0.0, 1,15, 1,10,0.0, 1,15, 1,10
1134,1013885090.4662681,120000.0, 1,15,15,50,4259213.3824482355, 1,21, 6,10
1323,307454912.0560619,4980.0, 1,15, 1,10,2704980.000000001, 1,15, 9,10
1352,0.0,0.0, 1,15, 1,10,0.0, 1,15, 1,10
1,EXTREME_SUMMER,  39.10, -84.42,  -5.00, 149.40
5,7
1038,0.0,0.0, 7,15, 1,10,0.0, 7,15, 1,10
1039,36.49999999999999,0.0, 7,15, 1,10,0.16666666666666666, 7,15,14,10
581,0.038814338822529215,0.0, 7,15, 1,10,0.4037414387641257, 7,20,16,52
582,1.6667582036389192,0.0, 7,16,21,30,8.708552133277648, 7,20,16,52
583,1.7925101273882351,0.0, 7,15, 6, 7,10.16435022625937, 7,20,16,52
1115,0.0,0.0, 7,15, 1,10,0.0, 7,15, 1,10
1128,0.0,0.0, 7,15, 1,10,0.0, 7,15, 1,10
1153,0.0,0.0, 7,15, 1,10,0.0, 7,15, 1,10
1154,0.0,0.0, 7,15, 1,10,0.0, 7,15, 1,10
1155,0.0,0.0, 7,15, 1,10,0.0, 7,15, 1,10
1156,0.0,0.0, 7,15, 1,10,0.0, 7,15, 1,10
13,1156856693.6615558,126927.0652978781, 7,19, 4,60,4525218.6546178255, 7,16,19,20
61,301924526.0238348,58759.40635443481, 7,15, 1,10,854682.2742463244, 7,15,20,10
134,70666020.44019979,42376.01200569399, 7,15, 4,10,104369.48322671017, 7,20,20,10
170,5241013.419656074,232.27731661587313, 7,15, 4,10,11650.931360040839, 7,20,12,10
207,6509451.13922266,543.5021409221355, 7,15, 3,10,15327.095199349082, 7,20,10,10
244,12749673.39982522,1014.5707620042115, 7,15, 4,10,35359.08742820678, 7,20,20,10
281,46165882.48149605,39959.06841621388, 7,15, 5,10,54634.54471212738, 7,15,19,10
318,0.0,0.0, 7,15, 1,10,0.0, 7,15, 1,10
355,197687796.27748126,12374.216038804521, 7,15, 4,10,483183.26346918393, 7,20,18,10
403,197687796.27748126,12374.216038804521, 7,15, 4,10,483183.26346918393, 7,20,18,10
476,106772067.24485692,4732.048419519677, 7,15, 4,10,237357.535085481, 7,20,12,10
513,0.0,0.0, 7,15, 1,10,0.0, 7,15, 1,10
562,53311844.74478362,0.0, 7,19, 6,20,89535.91570527891, 7,16,18,60
1046,0.0,0.0, 7,15, 1,10,0.0, 7,15, 1,10
1096,500440994.7490774,0.0, 7,19, 6,20,948796.635116665, 7,16,15,60
1134,0.0,0.0, 7,15, 1,10,0.0, 7,15, 1,10
1323,230513307.70366228,4979.999999999998, 7,18,16,60,2704980.0000000005, 7,15,18,30
1352,0.0,0.0, 7,15, 1,10,0.0, 7,15, 1,10
1,ANNUAL,  39.10, -84.42,  -5.00, 149.40
5,365
1038,9.000000000000002,0.0, 1, 1, 1,10,0.16666666666666666, 1, 2, 6,10
1039,542.4999999999997,0.0, 1, 1, 1,10,0.16666666666666666, 5, 8,17,40
581,0.1880007300189323,0.0, 5, 7, 8,41,1.2415936178460503, 2,18,22,55
582,3.0635271984963124,0.0, 1, 4, 3,50,28.064636635355516, 1,29,21,60
583,3.5488652076230984,0.0, 6, 8,23, 3,33.74158797155812, 4,29,17,52
1115,21433905533.83895,0.0, 1, 1,23, 2,3208505.8433189425, 1,22, 4,60
1128,6661248042.427958,0.0, 1, 1,23, 2,867588.9938394048, 1,22, 4,50
1153,235722370.7541825,0.0, 1, 1,23, 2,78713.81167631262, 2,22, 8,10
1154,1495280810.0257673,0.0, 1, 1, 1, 1,120000.0, 1, 4,15,10
1155,3277834227.599825,0.0, 1, 1, 1,42,3496905.430819706, 1,20, 6,30
1156,3277834227.599825,0.0, 1, 1, 1,42,3496905.430819706, 1,20, 6,30
13,56682323140.4864,106115.4183601288, 3, 6, 4,10,7282331.397152048, 1,20, 8,60
61,15743207428.39043,58759.40635443481, 1, 1, 1,10,854682.2742463244, 1, 1,20,10
134,3685071073.433083,42376.01200569399, 1, 2, 4,10,104369.48322671017, 1, 1,20,10
170,273393721.45534325,232.27731661587313, 1, 2, 4,10,11650.931360040839, 1, 1,12,10
207,339560869.06955314,543.5021409221355, 1, 2, 3,10,15327.095199349082, 1, 1,10,10
244,664895467.8009839,1014.5707620042115, 1, 2, 4,10,35359.08742820678, 1, 1,20,10
281,2407221015.1057043,39959.06841621388, 1, 1, 5,10,54634.54471212738, 1, 1,19,10
318,0.0,0.0, 1, 1, 1,10,0.0, 1, 1, 1,10
355,10310294493.052883,12374.216038804521, 1, 2, 4,10,483183.26346918393, 1, 1,18,10
403,10310294493.052883,12374.216038804521, 1, 2, 4,10,483183.26346918393, 1, 1,18,10
476,5569688622.065564,4732.048419519677, 1, 2, 4,10,237357.535085481, 1, 1,12,10
513,0.0,0.0, 1, 1, 1,10,0.0, 1, 1, 1,10
562,1840142707.5959537,0.0, 1, 4,14,60,89535.91570527891, 1, 1, 1,10
1046,0.0,0.0, 1, 1, 1,10,0.0, 1, 1, 1,10
1096,9669845205.923536,0.0, 1, 1, 1,10,985487.3566746468, 8, 9,14,60
1134,11670085450.807716,0.0, 1, 6,17,30,4269616.41865959, 1, 2, 6,20
1323,14073971274.341948,4979.999999999998, 3, 9,10,50,2704980.000000002, 2,27, 8,30
1352,0.0,0.0, 1, 1, 1,10,0.0, 1, 1, 1,10
End of Data
 Number of Records Written=          87
