Program Version,EnergyPlus, Version 22.2.0-c249759bad, YMD=2023.08.31 13:04
1,5,Environment Title[],Latitude[deg],Longitude[deg],Time Zone[],Elevation[m]
2,8,Day of Simulation[],Month[],Day of Month[],DST Indicator[1=yes 0=no],Hour[],StartMinute[],EndMinute[],DayType
3,5,Cumulative Day of Simulation[],Month[],Day of Month[],DST Indicator[1=yes 0=no],DayType  ! When Daily Report Variables Requested
4,2,Cumulative Days of Simulation[],Month[]  ! When Monthly Report Variables Requested
5,1,Cumulative Days of Simulation[] ! When Run Period Report Variables Requested
6,1,Calendar Year of Simulation[] ! When Annual Report Variables Requested
618,11,DX_HEATING_COIL,Heating Coil Heating Energy [J] !RunPeriod [Value,Min,Month,Day,Hour,Minute,Max,Month,Day,Hour,Minute]
631,11,DX_HEATING_COIL,Heating Coil Electricity Energy [J] !RunPeriod [Value,Min,Month,Day,Hour,Minute,Max,Month,Day,Hour,Minute]
656,11,DX_HEATING_COIL,Heating Coil Defrost Electricity Energy [J] !RunPeriod [Value,Min,Month,Day,Hour,Minute,Max,Month,Day,Hour,Minute]
657,11,DX_HEATING_COIL,Heating Coil Crankcase Heater Electricity Energy [J] !RunPeriod [Value,Min,Month,Day,Hour,Minute,Max,Month,Day,Hour,Minute]
684,11,HEAT PUMP WATER HEATER EVAPORATOR,Cooling Coil Total Water Heating Energy [J] !RunPeriod [Value,Min,Month,Day,Hour,Minute,Max,Month,Day,Hour,Minute]
685,11,HEAT PUMP WATER HEATER EVAPORATOR,Cooling Coil Water Heating Electricity Energy [J] !RunPeriod [Value,Min,Month,Day,Hour,Minute,Max,Month,Day,Hour,Minute]
712,11,LIVING,AFN Zone Infiltration Air Change Rate [ach] !RunPeriod [Value,Min,Month,Day,Hour,Minute,Max,Month,Day,Hour,Minute]
713,11,ATTIC,AFN Zone Infiltration Air Change Rate [ach] !RunPeriod [Value,Min,Month,Day,Hour,Minute,Max,Month,Day,Hour,Minute]
714,11,CRAWLSPACE,AFN Zone Infiltration Air Change Rate [ach] !RunPeriod [Value,Min,Month,Day,Hour,Minute,Max,Month,Day,Hour,Minute]
1157,11,Facility,Facility Heating Setpoint Not Met Time [hr] !RunPeriod [Value,Min,Month,Day,Hour,Minute,Max,Month,Day,Hour,Minute]
1158,11,Facility,Facility Cooling Setpoint Not Met Time [hr] !RunPeriod [Value,Min,Month,Day,Hour,Minute,Max,Month,Day,Hour,Minute]
1184,11,HEATING_RESISTANCE_BACKUP,Heating Coil Heating Energy [J] !RunPeriod [Value,Min,Month,Day,Hour,Minute,Max,Month,Day,Hour,Minute]
1185,11,HEATING_RESISTANCE_BACKUP,Heating Coil Electricity Energy [J] !RunPeriod [Value,Min,Month,Day,Hour,Minute,Max,Month,Day,Hour,Minute]
1334,11,WATER HEATER TANK,Water Heater Heating Energy [J] !RunPeriod [Value,Min,Month,Day,Hour,Minute,Max,Month,Day,Hour,Minute]
13,11,Electricity:Facility [J] !RunPeriod [Value,Min,Month,Day,Hour,Minute,Max,Month,Day,Hour,Minute]
637,11,Heating:Electricity [J] !RunPeriod [Value,Min,Month,Day,Hour,Minute,Max,Month,Day,Hour,Minute]
599,11,Cooling:Electricity [J] !RunPeriod [Value,Min,Month,Day,Hour,Minute,Max,Month,Day,Hour,Minute]
692,11,Fans:Electricity [J] !RunPeriod [Value,Min,Month,Day,Hour,Minute,Max,Month,Day,Hour,Minute]
1372,11,Pumps:Electricity [J] !RunPeriod [Value,Min,Month,Day,Hour,Minute,Max,Month,Day,Hour,Minute]
677,11,WaterSystems:Electricity [J] !RunPeriod [Value,Min,Month,Day,Hour,Minute,Max,Month,Day,Hour,Minute]
61,11,InteriorLights:Electricity [J] !RunPeriod [Value,Min,Month,Day,Hour,Minute,Max,Month,Day,Hour,Minute]
1165,11,ExteriorLights:Electricity [J] !RunPeriod [Value,Min,Month,Day,Hour,Minute,Max,Month,Day,Hour,Minute]
134,11,InteriorEquipment:Electricity [J] !RunPeriod [Value,Min,Month,Day,Hour,Minute,Max,Month,Day,Hour,Minute]
170,11,gas_dryer:InteriorEquipment:Electricity [J] !RunPeriod [Value,Min,Month,Day,Hour,Minute,Max,Month,Day,Hour,Minute]
207,11,clotheswasher:InteriorEquipment:Electricity [J] !RunPeriod [Value,Min,Month,Day,Hour,Minute,Max,Month,Day,Hour,Minute]
244,11,dishwasher:InteriorEquipment:Electricity [J] !RunPeriod [Value,Min,Month,Day,Hour,Minute,Max,Month,Day,Hour,Minute]
281,11,refrigerator:InteriorEquipment:Electricity [J] !RunPeriod [Value,Min,Month,Day,Hour,Minute,Max,Month,Day,Hour,Minute]
318,11,electric_mels:InteriorEquipment:Electricity [J] !RunPeriod [Value,Min,Month,Day,Hour,Minute,Max,Month,Day,Hour,Minute]
355,11,NaturalGas:Facility [J] !RunPeriod [Value,Min,Month,Day,Hour,Minute,Max,Month,Day,Hour,Minute]
403,11,InteriorEquipment:NaturalGas [J] !RunPeriod [Value,Min,Month,Day,Hour,Minute,Max,Month,Day,Hour,Minute]
476,11,gas_dryer:InteriorEquipment:NaturalGas [J] !RunPeriod [Value,Min,Month,Day,Hour,Minute,Max,Month,Day,Hour,Minute]
513,11,gas_mels:InteriorEquipment:NaturalGas [J] !RunPeriod [Value,Min,Month,Day,Hour,Minute,Max,Month,Day,Hour,Minute]
End of Data Dictionary
1,EXTREME_WINTER,  41.78, -87.75,  -6.00, 190.00
5,7
1157,10.0,0.0, 1,20, 1,15,0.25, 1,20, 6,15
1158,0.0,0.0, 1,20, 1,15,0.0, 1,20, 1,15
618,2326960499.460507,0.0, 1,20,23, 5,4699252.155832939, 1,26,17,30
631,827942046.3139164,0.0, 1,20,23, 5,1371348.184240509, 1,26,17,30
656,11555902.096148321,0.0, 1,20,23, 5,91673.98216208373, 1,22, 5,60
657,3287183.478931729,0.0, 1,20, 1, 3,94445.84884104942, 1,21,15,15
684,141195420.86587116,0.0, 1,20, 1, 3,1399317.3086391496, 1,26,16,15
685,34474859.00000987,0.0, 1,20, 1, 3,333390.8607269876, 1,22, 7,45
712,0.358926235581227,0.24449179548601035, 1,26,23,30,0.5794042072260182, 1,26,15,60
713,5.154758228306274,0.05702421450696072, 1,21, 5,52,13.357128980644168, 1,26,15,52
714,5.996937916025474,0.6658164013451656, 1,21, 5,52,15.822657644528254, 1,26,15,52
1184,1868891068.1290197,0.0, 1,20,23, 5,6886753.00013067, 1,20, 6,60
1185,1868891068.1290197,0.0, 1,20,23, 5,6886753.00013067, 1,20, 6,60
1334,0.0,0.0, 1,20, 1, 3,0.0, 1,20, 1, 3
13,3219687215.060612,1098199.512211389, 1,21,15,15,9272270.579827162, 1,24, 7,15
61,301924526.02383536,88139.10953165221, 1,20, 1,15,1282023.4113694867, 1,20,20,15
134,70666020.44019976,63564.01800854099, 1,20, 4,15,156554.22484006523, 1,25,20,15
170,5241013.419656067,348.4159749238097, 1,20, 4,15,17476.39704006126, 1,25,12,15
207,6509451.13922267,815.2532113832032, 1,20, 3,15,22990.642799023623, 1,25,10,15
244,12749673.399825225,1521.856143006317, 1,20, 4,15,53038.631142310165, 1,25,20,15
281,46165882.481495745,59938.60262432081, 1,20, 5,15,81951.81706819107, 1,20,19,15
318,0.0,0.0, 1,20, 1,15,0.0, 1,20, 1,15
355,197687796.27748066,18561.32405820678, 1,20, 4,15,724774.895203776, 1,25,18,15
403,197687796.27748066,18561.32405820678, 1,20, 4,15,724774.895203776, 1,25,18,15
476,106772067.24485716,7098.072629279515, 1,20, 4,15,356036.3026282215, 1,25,12,15
513,0.0,0.0, 1,20, 1,15,0.0, 1,20, 1,15
599,0.0,0.0, 1,20, 1,15,0.0, 1,20, 1,15
637,2711676200.018022,669013.8639211775, 1,21,23,15,8106537.235838078, 1,25, 9,60
677,39615659.00000988,7650.0, 1,20, 1,15,341040.8607269876, 1,22, 7,45
692,95804809.57854773,54799.37854721052, 1,21,23,15,209669.85672675102, 1,20, 8,30
1165,0.0,0.0, 1,20, 1,15,0.0, 1,20, 1,15
1372,0.0,0.0, 1,20, 1,15,0.0, 1,20, 1,15
1,EXTREME_SUMMER,  41.78, -87.75,  -6.00, 190.00
5,7
1157,0.0,0.0, 7,27, 1,15,0.0, 7,27, 1,15
1158,10.0,0.0, 7,27, 1,15,0.25, 7,28,15,45
618,0.0,0.0, 7,27, 1,15,0.0, 7,27, 1,15
631,0.0,0.0, 7,27, 1,15,0.0, 7,27, 1,15
656,0.0,0.0, 7,27, 1,15,0.0, 7,27, 1,15
657,0.0,0.0, 7,27, 1,15,0.0, 7,27, 1,15
684,106107236.15750703,0.0, 7,27, 1,15,1740009.541672437, 8, 2,16,15
685,22191022.013166644,0.0, 7,27, 1,15,356264.6564345091, 7,28,23,45
712,0.17384748534595004,0.0, 7,27, 1,45,0.9631909720297035, 8, 2,23,48
713,6.128650436395366,0.12142491215868895, 7,27, 1,60,18.935622434044962, 8, 2,23,48
714,6.351219702868615,0.0332118755086327, 7,27, 4,60,23.866847651289994, 8, 2,23,33
1184,0.0,0.0, 7,27, 1,15,0.0, 7,27, 1,15
1185,0.0,0.0, 7,27, 1,15,0.0, 7,27, 1,15
1334,0.0,0.0, 7,27, 1,15,0.0, 7,27, 1,15
13,968964487.4181117,168774.3557290272, 8, 1, 4,60,3053232.5460961685, 8, 2,20,15
61,301924526.02383536,88139.10953165221, 7,27, 1,15,1282023.4113694867, 7,27,20,15
134,70666020.44019976,63564.01800854099, 7,27, 4,15,156554.22484006523, 8, 1,20,15
170,5241013.419656067,348.4159749238097, 7,27, 4,15,17476.39704006126, 8, 1,12,15
207,6509451.13922267,815.2532113832032, 7,27, 3,15,22990.642799023623, 8, 1,10,15
244,12749673.399825225,1521.856143006317, 7,27, 4,15,53038.631142310165, 8, 1,20,15
281,46165882.481495745,59938.60262432081, 7,27, 5,15,81951.81706819107, 7,27,19,15
318,0.0,0.0, 7,27, 1,15,0.0, 7,27, 1,15
355,197687796.27748066,18561.32405820678, 7,27, 4,15,724774.895203776, 8, 1,18,15
403,197687796.27748066,18561.32405820678, 7,27, 4,15,724774.895203776, 8, 1,18,15
476,106772067.24485716,7098.072629279515, 7,27, 4,15,356036.3026282215, 8, 1,12,15
513,0.0,0.0, 7,27, 1,15,0.0, 7,27, 1,15
599,515629689.9320343,0.0, 7,29,23,15,1578046.7307065318, 8, 2,13,60
637,0.0,0.0, 7,27, 1,15,0.0, 7,27, 1,15
677,27331822.013166636,7650.0, 7,27, 1,15,380512.2444806539, 8, 2,10,30
692,53412429.00887639,910.6346780359004, 8, 1, 4,60,191472.02375974515, 8, 2,16,45
1165,0.0,0.0, 7,27, 1,15,0.0, 7,27, 1,15
1372,0.0,0.0, 7,27, 1,15,0.0, 7,27, 1,15
1,ANNUAL,  41.78, -87.75,  -6.00, 190.00
5,365
1157,83.0,0.0, 1, 1, 1,15,0.25, 1, 2, 6,15
1158,107.0,0.0, 1, 1, 1,15,0.25, 5,23,16,60
618,39791459946.71873,0.0, 1, 1,23, 3,5223427.139309834,11,14, 8,60
631,12330711655.03037,0.0, 1, 1,23, 3,1447506.3339315413,11, 5, 6,45
656,352981940.1363179,0.0, 1, 1,23, 3,166692.94800015367, 3, 8, 7,15
657,1156091443.6335177,0.0, 1, 1, 1, 1,180000.0, 2,13,15,15
684,6666453034.308587,0.0, 1, 1, 1, 1,1914079.3537052535, 9, 4, 7,15
685,1475096925.614771,0.0, 1, 1, 1, 1,387467.3888660359, 9,10, 9,60
712,0.2640362137848346,0.0, 5,26, 1,45,1.8057060552539712, 2, 1,21,52
713,5.325391705300147,0.0, 1, 9,22,15,40.59625052549124, 2, 1,21,52
714,6.011234779030836,0.0, 6, 4,23, 3,51.499507300244055, 2, 1,21,52
1184,12306051434.831045,0.0, 1, 1,23, 3,6886753.00013067, 1, 2, 6,60
1185,12306051434.831045,0.0, 1, 1,23, 3,6886753.00013067, 1, 2, 6,60
1334,0.0,0.0, 1, 1, 1, 1,0.0, 1, 1, 1, 1
13,56289907613.46046,159353.1275401932, 4,10, 4,15,9786586.27716608, 2, 1,22,45
61,15743207428.383959,88139.10953165221, 1, 1, 1,15,1282023.4113694867, 1, 1,20,15
134,3685071073.4325233,63564.01800854099, 1, 2, 4,15,156554.22484006523, 1, 1,20,15
170,273393721.45532674,348.4159749238097, 1, 2, 4,15,17476.39704006126, 1, 1,12,15
207,339560869.0695816,815.2532113832032, 1, 2, 3,15,22990.642799023623, 1, 1,10,15
244,664895467.8009144,1521.856143006317, 1, 2, 4,15,53038.631142310165, 1, 1,20,15
281,2407221015.106824,59938.60262432081, 1, 1, 5,15,81951.81706819107, 1, 1,19,15
318,0.0,0.0, 1, 1, 1,15,0.0, 1, 1, 1,15
355,10310294493.051695,18561.32405820678, 1, 2, 4,15,724774.895203776, 1, 1,18,15
403,10310294493.051695,18561.32405820678, 1, 2, 4,15,724774.895203776, 1, 1,18,15
476,5569688622.066177,7098.072629279515, 1, 2, 4,15,356036.3026282215, 1, 1,12,15
513,0.0,0.0, 1, 1, 1,15,0.0, 1, 1, 1,15
599,6708605729.886873,0.0, 1, 1, 1,15,1620437.9074104526, 6, 7,16,60
637,26145836473.63145,0.0, 1, 6,19,15,8195741.289789309, 2, 1,20,30
677,1743152925.6147695,7650.0, 1, 1, 1,15,395117.3888660359, 9,10, 9,60
692,2264033982.5097723,0.0, 1, 6,19,15,209669.85672675102, 1,27,10,15
1165,0.0,0.0, 1, 1, 1,15,0.0, 1, 1, 1,15
1372,0.0,0.0, 1, 1, 1,15,0.0, 1, 1, 1,15
End of Data
 Number of Records Written=          96
