Program Version,EnergyPlus, Version 9.5.0-de239b2e5f, YMD=2022.08.10 16:06
1,5,Environment Title[],Latitude[deg],Longitude[deg],Time Zone[],Elevation[m]
2,8,Day of Simulation[],Month[],Day of Month[],DST Indicator[1=yes 0=no],Hour[],StartMinute[],EndMinute[],DayType
3,5,Cumulative Day of Simulation[],Month[],Day of Month[],DST Indicator[1=yes 0=no],DayType  ! When Daily Report Variables Requested
4,2,Cumulative Days of Simulation[],Month[]  ! When Monthly Report Variables Requested
5,1,Cumulative Days of Simulation[] ! When Run Period Report Variables Requested
6,1,Calendar Year of Simulation[] ! When Annual Report Variables Requested
191,1,UNHEATEDBSMT_UNIT1,Zone Windows Total Transmitted Solar Radiation Rate [W] !Hourly
192,1,UNHEATEDBSMT_UNIT1,Zone Windows Total Transmitted Solar Radiation Energy [J] !Hourly
193,1,UNHEATEDBSMT_UNIT1,Zone Windows Total Heat Gain Energy [J] !Hourly
194,1,LIVING_UNIT1,Zone Windows Total Transmitted Solar Radiation Rate [W] !Hourly
195,1,LIVING_UNIT1,Zone Windows Total Transmitted Solar Radiation Energy [J] !Hourly
196,1,LIVING_UNIT1,Zone Windows Total Heat Gain Energy [J] !Hourly
197,1,ATTIC_UNIT1,Zone Windows Total Transmitted Solar Radiation Rate [W] !Hourly
198,1,ATTIC_UNIT1,Zone Windows Total Transmitted Solar Radiation Energy [J] !Hourly
199,1,ATTIC_UNIT1,Zone Windows Total Heat Gain Energy [J] !Hourly
200,1,UNHEATEDBSMT_UNIT1,Zone Mean Air Temperature [C] !Hourly
201,1,LIVING_UNIT1,Zone Mean Air Temperature [C] !Hourly
202,1,ATTIC_UNIT1,Zone Mean Air Temperature [C] !Hourly
279,1,UNHEATEDBSMT_UNIT1,AFN Zone Infiltration Sensible Heat Gain Rate [W] !Hourly
280,1,LIVING_UNIT1,AFN Zone Infiltration Sensible Heat Gain Rate [W] !Hourly
281,1,ATTIC_UNIT1,AFN Zone Infiltration Sensible Heat Gain Rate [W] !Hourly
282,1,UNHEATEDBSMT_UNIT1,AFN Zone Infiltration Air Change Rate [ach] !Hourly
283,1,LIVING_UNIT1,AFN Zone Infiltration Air Change Rate [ach] !Hourly
284,1,ATTIC_UNIT1,AFN Zone Infiltration Air Change Rate [ach] !Hourly
618,1,Whole Building,Facility Total HVAC Electricity Demand Rate [W] !Hourly
End of Data Dictionary
1,SALEM.MUNI.AP-MCNARY.FIELD ANN HTG 99.6% CONDNS DB,  44.91,-123.01,  -8.00,  62.10
2,1,12,21, 0, 1, 0.00,60.00,WinterDesignDay
191,0.0
192,0.0
193,0.0
194,0.0
195,0.0
196,0.0
197,0.0
198,0.0
199,0.0
200,18.17741154720128
201,18.218649219550064
202,2.367467809909586
279,0.0
280,0.0
281,0.0
282,0.30572160405839279
283,0.34871274633459456
284,0.8575658461911404
618,5728.984145989911
2,1,12,21, 0, 2, 0.00,60.00,WinterDesignDay
191,0.0
192,0.0
193,0.0
194,0.0
195,0.0
196,0.0
197,0.0
198,0.0
199,0.0
200,17.884348501067298
201,18.217809645273524
202,2.367858146474831
279,0.0
280,0.0
281,0.0
282,0.3055195885166378
283,0.3486791580158696
284,0.8575424269469659
618,5728.984145989911
2,1,12,21, 0, 3, 0.00,60.00,WinterDesignDay
191,0.0
192,0.0
193,0.0
194,0.0
195,0.0
196,0.0
197,0.0
198,0.0
199,0.0
200,17.687486969613749
201,18.209510119333005
202,2.3628209101279529
279,0.0
280,0.0
281,0.0
282,0.30496503502754948
283,0.34869501764358387
284,0.8576326209788679
618,5728.984145989911
2,1,12,21, 0, 4, 0.00,60.00,WinterDesignDay
191,0.0
192,0.0
193,0.0
194,0.0
195,0.0
196,0.0
197,0.0
198,0.0
199,0.0
200,17.50871824432244
201,18.200781223293995
202,2.3581429943780907
279,0.0
280,0.0
281,0.0
282,0.3045289081775549
283,0.3486320661174771
284,0.8576798063600832
618,5728.984145989911
2,1,12,21, 0, 5, 0.00,60.00,WinterDesignDay
191,0.0
192,0.0
193,0.0
194,0.0
195,0.0
196,0.0
197,0.0
198,0.0
199,0.0
200,17.350049999328858
201,18.190702000079197
202,2.3525366408322929
279,0.0
280,0.0
281,0.0
282,0.30413457142887737
283,0.3485620123070346
284,0.8577256552023195
618,5728.984145989911
2,1,12,21, 0, 6, 0.00,60.00,WinterDesignDay
191,0.0
192,0.0
193,0.0
194,0.0
195,0.0
196,0.0
197,0.0
198,0.0
199,0.0
200,17.20485939015232
201,18.179577165544584
202,2.346666376672483
279,0.0
280,0.0
281,0.0
282,0.3037756877082195
283,0.3484762760798448
284,0.8577622936732957
618,5728.984145989911
2,1,12,21, 0, 7, 0.00,60.00,WinterDesignDay
191,0.0
192,0.0
193,0.0
194,0.0
195,0.0
196,0.0
197,0.0
198,0.0
199,0.0
200,17.070432441483925
201,18.167528023795368
202,2.3404470062416578
279,0.0
280,0.0
281,0.0
282,0.3034421915398528
283,0.3483787968616782
284,0.8577974395721201
618,5728.984145989911
2,1,12,21, 0, 8, 0.00,60.00,WinterDesignDay
191,0.0
192,0.0
193,0.0
194,0.0
195,0.0
196,0.0
197,0.0
198,0.0
199,0.0
200,16.944760170949619
201,18.154705812152444
202,2.334002155672268
279,0.0
280,0.0
281,0.0
282,0.3031289715291611
283,0.3482710327906721
284,0.8578304923549929
618,5728.984145989911
2,1,12,21, 0, 9, 0.00,60.00,WinterDesignDay
191,0.0
192,0.0
193,0.0
194,0.0
195,0.0
196,0.0
197,0.0
198,0.0
199,0.0
200,16.826469385035794
201,18.141248926425939
202,2.327361406206676
279,0.0
280,0.0
281,0.0
282,0.3028324908097002
283,0.34815474562402468
284,0.857862634554541
618,5728.984145989911
2,1,12,21, 0,10, 0.00,60.00,WinterDesignDay
191,0.0
192,0.0
193,0.0
194,0.0
195,0.0
196,0.0
197,0.0
198,0.0
199,0.0
200,16.714537366977415
201,18.12728055211607
202,2.3205740479027345
279,0.0
280,0.0
281,0.0
282,0.3025502997935572
283,0.3480314343661731
284,0.8578938707225894
618,5728.984145989911
2,1,12,21, 0,11, 0.00,60.00,WinterDesignDay
191,0.0
192,0.0
193,0.0
194,0.0
195,0.0
196,0.0
197,0.0
198,0.0
199,0.0
200,16.60817585507808
201,18.112908150614318
202,2.313673746428798
279,0.0
280,0.0
281,0.0
282,0.3022805842516665
283,0.3479024243472779
284,0.8579243849270317
618,5728.984145989911
2,1,12,21, 0,12, 0.00,60.00,WinterDesignDay
191,0.0
192,0.0
193,0.0
194,0.0
195,0.0
196,0.0
197,0.0
198,0.0
199,0.0
200,16.506756368930348
201,18.098223957196188
202,2.306692788398632
279,0.0
280,0.0
281,0.0
282,0.3020219453547223
283,0.34776885228341777
284,0.8579542025481786
618,5728.984145989911
2,1,12,21, 0,13, 0.00,60.00,WinterDesignDay
191,0.0
192,0.0
193,0.0
194,0.0
195,0.0
196,0.0
197,0.0
198,0.0
199,0.0
200,16.409765135507685
201,18.08330680493904
202,2.2996581560407036
279,0.0
280,0.0
281,0.0
282,0.30177326638657356
283,0.34763169074535196
284,0.8579833688832421
618,5728.984145989911
2,1,12,21, 0,14, 0.00,60.00,WinterDesignDay
191,0.0
192,0.0
193,0.0
194,0.0
195,0.0
196,0.0
197,0.0
198,0.0
199,0.0
200,16.316773729070776
201,18.068223859496958
202,2.292593598827963
279,0.0
280,0.0
281,0.0
282,0.30153363150849418
283,0.3474917680840575
284,0.8580119104316354
618,5728.984145989911
2,1,12,21, 0,15, 0.00,60.00,WinterDesignDay
191,0.0
192,0.0
193,0.0
194,0.0
195,0.0
196,0.0
197,0.0
198,0.0
199,0.0
200,16.22741921177703
201,18.05303234643209
202,2.2855194740552005
279,0.0
280,0.0
281,0.0
282,0.3013022735084447
283,0.3473497899180132
284,0.858039856589176
618,5728.984145989911
2,1,12,21, 0,16, 0.00,60.00,WinterDesignDay
191,0.0
192,0.0
193,0.0
194,0.0
195,0.0
196,0.0
197,0.0
198,0.0
199,0.0
200,16.141390173794897
201,18.037781043625288
202,2.2784533078573236
279,0.0
280,0.0
281,0.0
282,0.30107853873709447
283,0.347206357700745
284,0.8580672341669582
618,5728.984145989911
2,1,12,21, 0,17, 0.00,60.00,WinterDesignDay
191,0.0
192,0.0
193,0.0
194,0.0
195,0.0
196,0.0
197,0.0
198,0.0
199,0.0
200,16.058416590117635
201,18.0225115658676
202,2.271410066017648
279,0.0
280,0.0
281,0.0
282,0.3008618626749026
283,0.3470619848731295
284,0.8580940691200809
618,5728.984145989911
2,1,12,21, 0,18, 0.00,60.00,WinterDesignDay
191,0.0
192,0.0
193,0.0
194,0.0
195,0.0
196,0.0
197,0.0
198,0.0
199,0.0
200,15.97826224367498
201,18.007259439591029
202,2.264402490380188
279,0.0
280,0.0
281,0.0
282,0.30065175230104376
283,0.34691711036147968
284,0.8581203853022557
618,5728.984145989911
2,1,12,21, 0,19, 0.00,60.00,WinterDesignDay
191,0.0
192,0.0
193,0.0
194,0.0
195,0.0
196,0.0
197,0.0
198,0.0
199,0.0
200,15.900718928863462
201,17.992055000256664
202,2.2574413742456076
279,0.0
280,0.0
281,0.0
282,0.3004477729983151
283,0.3467721098613899
284,0.8581462044934282
618,5728.984145989911
2,1,12,21, 0,20, 0.00,60.00,WinterDesignDay
191,0.0
192,0.0
193,0.0
194,0.0
195,0.0
196,0.0
197,0.0
198,0.0
199,0.0
200,15.82560192777953
201,17.976924139223905
202,2.250535819243593
279,0.0
280,0.0
281,0.0
282,0.30024953857185646
283,0.34662730517051346
284,0.858171546129594
618,5728.984145989911
2,1,12,21, 0,21, 0.00,60.00,WinterDesignDay
191,0.0
192,0.0
193,0.0
194,0.0
195,0.0
196,0.0
197,0.0
198,0.0
199,0.0
200,15.753301905273269
201,17.96487366530971
202,2.24490447279974
279,0.0
280,0.0
281,0.0
282,0.30005728041570359
283,0.34648652440286767
284,0.8582002013871319
618,5728.984145989911
2,1,12,21, 0,22, 0.00,60.00,WinterDesignDay
191,0.0
192,0.0
193,0.0
194,0.0
195,0.0
196,0.0
197,0.0
198,0.0
199,0.0
200,15.682985917349415
201,17.95375611602254
202,2.2396701797659608
279,0.0
280,0.0
281,0.0
282,0.2998761576152356
283,0.3463738347783604
284,0.8582233199866044
618,5728.984145989911
2,1,12,21, 0,23, 0.00,60.00,WinterDesignDay
191,0.0
192,0.0
193,0.0
194,0.0
195,0.0
196,0.0
197,0.0
198,0.0
199,0.0
200,15.614556192661562
201,17.94249954698804
202,2.234395177868448
279,0.0
280,0.0
281,0.0
282,0.2997011030740473
283,0.346269021396418
284,0.8582440121139923
618,5728.984145989911
2,1,12,21, 0,24, 0.00,60.00,WinterDesignDay
191,0.0
192,0.0
193,0.0
194,0.0
195,0.0
196,0.0
197,0.0
198,0.0
199,0.0
200,15.54797561325429
201,17.93114515158585
202,2.2291060622963334
279,0.0
280,0.0
281,0.0
282,0.2995299762026646
283,0.34616263673923156
284,0.8582644873458141
618,5728.984145989911
1,SALEM.MUNI.AP-MCNARY.FIELD ANN CLG .4% CONDNS DB=>MWB,  44.91,-123.01,  -8.00,  62.10
2,1, 7,21, 0, 1, 0.00,60.00,SummerDesignDay
191,0.0
192,0.0
193,0.0
194,0.0
195,0.0
196,0.0
197,0.0
198,0.0
199,0.0
200,21.291684102616498
201,34.48733780698123
202,23.3619694835102
279,0.0
280,0.0
281,0.0
282,0.5857961824773683
283,0.39452616300229917
284,3.7079575430269484
618,233.4868031889224
2,1, 7,21, 0, 2, 0.00,60.00,SummerDesignDay
191,0.0
192,0.0
193,0.0
194,0.0
195,0.0
196,0.0
197,0.0
198,0.0
199,0.0
200,21.10014731096682
201,33.5451765456052
202,22.46496179842509
279,0.0
280,0.0
281,0.0
282,0.5861084878503791
283,0.391202830863625
284,3.709049376157705
618,233.4868031889224
2,1, 7,21, 0, 3, 0.00,60.00,SummerDesignDay
191,0.0
192,0.0
193,0.0
194,0.0
195,0.0
196,0.0
197,0.0
198,0.0
199,0.0
200,20.92126731466295
201,32.646160433740529
202,21.755007111284713
279,0.0
280,0.0
281,0.0
282,0.5860916787425443
283,0.38674937854440336
284,3.712485188160654
618,233.4868031889224
2,1, 7,21, 0, 4, 0.00,60.00,SummerDesignDay
191,0.0
192,0.0
193,0.0
194,0.0
195,0.0
196,0.0
197,0.0
198,0.0
199,0.0
200,20.741676910066418
201,31.772045028180039
202,21.116833658284148
279,0.0
280,0.0
281,0.0
282,0.5861151404095631
283,0.38277284619176107
284,3.7178428930766258
618,233.4868031889224
2,1, 7,21, 0, 5, 0.00,60.00,SummerDesignDay
191,0.0
192,0.0
193,0.0
194,0.0
195,0.0
196,0.0
197,0.0
198,0.0
199,0.0
200,20.573371793070398
201,30.930108917000056
202,20.578670190770816
279,0.0
280,0.0
281,0.0
282,0.5858078899700806
283,0.3775724654510097
284,3.7232516899476786
618,233.4868031889224
2,1, 7,21, 0, 6, 0.00,60.00,SummerDesignDay
191,0.0
192,0.0
193,0.0
194,1563.2540008299166
195,5627714.4029877
196,4924791.816184678
197,0.0
198,0.0
199,0.0
200,20.470532672381006
201,30.704297890831016
202,21.09260209572281
279,0.0
280,0.0
281,0.0
282,0.5841674263709638
283,0.3673897598534073
284,3.736606154818201
618,233.4868031889224
2,1, 7,21, 0, 7, 0.00,60.00,SummerDesignDay
191,0.0
192,0.0
193,0.0
194,2465.501394975299
195,8875805.021911076
196,9150908.80896904
197,0.0
198,0.0
199,0.0
200,20.516361648059143
201,30.926777133273835
202,23.512138309313518
279,0.0
280,0.0
281,0.0
282,0.5814840116608502
283,0.35569493941226867
284,3.7662620230865988
618,233.4868031889224
2,1, 7,21, 0, 8, 0.00,60.00,SummerDesignDay
191,0.0
192,0.0
193,0.0
194,2799.0720446623647
195,10076659.360784512
196,10819098.371469101
197,0.0
198,0.0
199,0.0
200,20.764651932426668
201,31.395784111444674
202,27.83572411633359
279,86.85661543923067
280,0.0
281,0.0
282,0.5759925788051074
283,0.3332568325722233
284,3.816229168406973
618,233.4868031889224
2,1, 7,21, 0, 9, 0.00,60.00,SummerDesignDay
191,0.0
192,0.0
193,0.0
194,2928.1545342755437
195,10541356.323391958
196,11967067.984306938
197,0.0
198,0.0
199,0.0
200,21.048340515848254
201,32.072915619210977
202,32.24912292276693
279,199.91891178068449
280,0.0
281,0.0
282,0.5701974160553462
283,0.31536601343975875
284,3.876383951233715
618,233.4868031889224
2,1, 7,21, 0,10, 0.00,60.00,SummerDesignDay
191,0.0
192,0.0
193,0.0
194,2873.1594807121775
195,10343374.130563839
196,12429294.680420347
197,0.0
198,0.0
199,0.0
200,21.343764211344934
201,32.88596159829257
202,37.51736211709198
279,297.31367037840968
280,0.0
281,0.0
282,0.5655191513545785
283,0.3030281337540965
284,3.9509964652738236
618,233.4868031889224
2,1, 7,21, 0,11, 0.00,60.00,SummerDesignDay
191,0.0
192,0.0
193,0.0
194,2564.5650259558
195,9232434.093440881
196,11651263.892863427
197,0.0
198,0.0
199,0.0
200,21.641271452848949
201,33.769339764318157
202,41.83973945041991
279,380.3244717304683
280,0.0
281,0.0
282,0.5617848027942781
283,0.29470776261329259
284,4.020086026473987
618,233.4868031889224
2,1, 7,21, 0,12, 0.00,60.00,SummerDesignDay
191,0.0
192,0.0
193,0.0
194,2171.854462503459
195,7818676.065012453
196,9906352.063880478
197,0.0
198,0.0
199,0.0
200,21.901843981089909
201,34.570115949265957
202,45.30091446058626
279,432.47622606214198
280,0.0
281,0.0
282,0.5597479007911719
283,0.2929642573375233
284,4.070813505145614
618,233.4868031889224
2,1, 7,21, 0,13, 0.00,60.00,SummerDesignDay
191,0.0
192,0.0
193,0.0
194,2059.2313394539639
195,7413232.82203427
196,9170953.278687755
197,0.0
198,0.0
199,0.0
200,22.146892243566957
201,35.363075148623519
202,47.611039167826138
279,472.32512164181699
280,0.0
281,0.0
282,0.5582739603812369
283,0.29240266590871485
284,4.102286940077412
618,233.4868031889224
2,1, 7,21, 0,14, 0.00,60.00,SummerDesignDay
191,0.0
192,0.0
193,0.0
194,2307.582355495293
195,8307296.479783055
196,10721660.898673939
197,0.0
198,0.0
199,0.0
200,22.366244052095128
201,36.31218422508586
202,48.826485162151559
279,494.4009026609643
280,0.0
281,0.0
282,0.5577015658920151
283,0.2953925305725535
284,4.112048822878818
618,233.4868031889224
2,1, 7,21, 0,15, 0.00,60.00,SummerDesignDay
191,0.0
192,0.0
193,0.0
194,2715.2188821466577
195,9774787.975727968
196,12229319.072590583
197,0.0
198,0.0
199,0.0
200,22.5491946296668
201,37.351751338690359
202,48.864723709604039
279,487.0725949706372
280,0.0
281,0.0
282,0.5587872429829122
283,0.30620218462463735
284,4.097673601870379
618,233.4868031889224
2,1, 7,21, 0,16, 0.00,60.00,SummerDesignDay
191,0.0
192,0.0
193,0.0
194,2919.494747137898
195,10510181.089696432
196,12417349.464557594
197,0.0
198,0.0
199,0.0
200,22.677783360707595
201,38.297726788498227
202,47.546111263296307
279,444.66042428194216
280,0.0
281,0.0
282,0.5618301155070391
283,0.32390936266007555
284,4.062109316535558
618,233.4868031889224
2,1, 7,21, 0,17, 0.00,60.00,SummerDesignDay
191,0.0
192,0.0
193,0.0
194,2894.0096654051997
195,10418434.795458718
196,11568742.521759198
197,0.0
198,0.0
199,0.0
200,22.773821109897019
201,39.03881036621261
202,45.12176723115059
279,390.5116726803584
280,0.0
281,0.0
282,0.5654089040698304
283,0.34035940212886869
284,4.010528421763584
618,233.4868031889224
2,1, 7,21, 0,18, 0.00,60.00,SummerDesignDay
191,0.0
192,0.0
193,0.0
194,2705.1168316585119
195,9738420.593970642
196,10354212.274732482
197,0.0
198,0.0
199,0.0
200,22.825497262417476
201,39.55159899714681
202,41.70300312189374
279,324.73514241064336
280,0.0
281,0.0
282,0.569455857289807
283,0.355095860450481
284,3.948089771904322
618,233.4868031889224
2,1, 7,21, 0,19, 0.00,60.00,SummerDesignDay
191,0.0
192,0.0
193,0.0
194,2223.4450984197458
195,8004402.354311084
196,7890865.022079268
197,0.0
198,0.0
199,0.0
200,22.797890697911418
201,39.68091600268846
202,37.439266205812049
279,228.89447690009355
280,0.0
281,0.0
282,0.5750372255205054
283,0.3754858203022828
284,3.883627123390451
618,233.4868031889224
2,1, 7,21, 0,20, 0.00,60.00,SummerDesignDay
191,0.0
192,0.0
193,0.0
194,796.8035773550338
195,2868492.8784781217
196,1092166.4277551065
197,0.0
198,0.0
199,0.0
200,22.76608866973142
201,39.15718053581846
202,33.284757878365599
279,157.82360524069663
280,0.0
281,0.0
282,0.5788268275966712
283,0.38830134166435517
284,3.8130250847789255
618,233.4868031889224
2,1, 7,21, 0,21, 0.00,60.00,SummerDesignDay
191,0.0
192,0.0
193,0.0
194,0.0
195,0.0
196,0.0
197,0.0
198,0.0
199,0.0
200,22.687034943971097
201,38.27231987449592
202,29.889915404857719
279,101.28476754980639
280,0.0
281,0.0
282,0.5813625014376139
283,0.39255978379473119
284,3.7594030986551529
618,233.4868031889224
2,1, 7,21, 0,22, 0.00,60.00,SummerDesignDay
191,0.0
192,0.0
193,0.0
194,0.0
195,0.0
196,0.0
197,0.0
198,0.0
199,0.0
200,22.557577502454167
201,37.35019209026191
202,27.50206046277569
279,46.49664537202795
280,0.0
281,0.0
282,0.583579074938527
283,0.3947471304134505
284,3.7292905091844235
618,233.4868031889224
2,1, 7,21, 0,23, 0.00,60.00,SummerDesignDay
191,0.0
192,0.0
193,0.0
194,0.0
195,0.0
196,0.0
197,0.0
198,0.0
199,0.0
200,22.420605546811584
201,36.43058211194215
202,25.850027732516254
279,5.218090784140348
280,0.0
281,0.0
282,0.5850695123621281
283,0.3947481512730601
284,3.7138912871446516
618,233.4868031889224
2,1, 7,21, 0,24, 0.00,60.00,SummerDesignDay
191,0.0
192,0.0
193,0.0
194,0.0
195,0.0
196,0.0
197,0.0
198,0.0
199,0.0
200,22.259455989014737
201,35.49267343532849
202,24.476461630968556
279,0.0
280,0.0
281,0.0
282,0.5865541542504873
283,0.39543091903059665
284,3.7080930268500307
618,233.4868031889224
1,SUB-ANNUAL,  44.91,-123.01,  -8.00,  62.10
2,1, 1, 1, 0, 1, 0.00,60.00,Sunday
191,0.0
192,0.0
193,0.0
194,0.0
195,0.0
196,0.0
197,0.0
198,0.0
199,0.0
200,17.816808204369175
201,20.554359214505284
202,9.971766023832318
279,0.0
280,0.0
281,0.0
282,0.7616377477766173
283,0.446819091774059
284,4.7101891487968559
618,4509.916304044008
2,1, 1, 1, 0, 2, 0.00,60.00,Sunday
191,0.0
192,0.0
193,0.0
194,0.0
195,0.0
196,0.0
197,0.0
198,0.0
199,0.0
200,17.97563829593444
201,20.554425370263698
202,10.749505245484297
279,0.0
280,0.0
281,0.0
282,0.5139708740101538
283,0.4239481612931198
284,3.7014359677169499
618,4412.45465477923
2,1, 1, 1, 0, 3, 0.00,60.00,Sunday
191,0.0
192,0.0
193,0.0
194,0.0
195,0.0
196,0.0
197,0.0
198,0.0
199,0.0
200,17.47230484531097
201,20.554438965000104
202,10.889845677295094
279,0.0
280,0.0
281,0.0
282,0.6724000859238468
283,0.41378083589710587
284,4.037543840438778
618,4328.120763809639
2,1, 1, 1, 0, 4, 0.00,60.00,Sunday
191,0.0
192,0.0
193,0.0
194,0.0
195,0.0
196,0.0
197,0.0
198,0.0
199,0.0
200,17.225754805293378
201,20.553913087483548
202,10.904813244639153
279,0.0
280,0.0
281,0.0
282,0.7700469389805875
283,0.5370488000014053
284,6.119403685350257
618,4717.652582002945
2,1, 1, 1, 0, 5, 0.00,60.00,Sunday
191,0.0
192,0.0
193,0.0
194,0.0
195,0.0
196,0.0
197,0.0
198,0.0
199,0.0
200,17.06587562036384
201,20.55476058504128
202,10.947627729949615
279,0.0
280,0.0
281,0.0
282,0.7696152014267153
283,0.5372678619789191
284,6.1199388498478159
618,4688.882364075594
2,1, 1, 1, 0, 6, 0.00,60.00,Sunday
191,0.0
192,0.0
193,0.0
194,0.0
195,0.0
196,0.0
197,0.0
198,0.0
199,0.0
200,16.229761529056895
201,20.552817704943608
202,10.357100260271434
279,0.0
280,0.0
281,0.0
282,1.197450462798779
283,0.6682165617716261
284,9.647975417020776
618,5264.166318826972
2,1, 1, 1, 0, 7, 0.00,60.00,Sunday
191,0.0
192,0.0
193,0.0
194,0.0
195,0.0
196,0.0
197,0.0
198,0.0
199,0.0
200,16.175712124210628
201,20.554878572084083
202,9.966835159809876
279,0.0
280,0.0
281,0.0
282,1.0272072552262919
283,0.6003278137506881
284,7.939345084846201
618,5206.336133398399
2,1, 1, 1, 0, 8, 0.00,60.00,Sunday
191,0.0
192,0.0
193,0.0
194,0.0
195,0.0
196,0.0
197,0.0
198,0.0
199,0.0
200,16.05248844967116
201,20.553658860508173
202,9.963361979590128
279,0.0
280,0.0
281,0.0
282,1.0389988743667702
283,0.5409518164622843
284,7.61997511896503
618,4864.392380047825
2,1, 1, 1, 0, 9, 0.00,60.00,Sunday
191,0.0
192,0.0
193,0.0
194,545.5575489652681
195,1964007.176274965
196,0.0
197,0.0
198,0.0
199,0.0
200,16.83934421640537
201,20.556793316453999
202,10.63197673111253
279,0.0
280,0.0
281,0.0
282,0.4372237266562798
283,0.40630029832454125
284,2.9999524137147515
618,4123.677404649382
2,1, 1, 1, 0,10, 0.00,60.00,Sunday
191,0.0
192,0.0
193,0.0
194,931.5318629903973
195,3353514.70676543
196,1583709.476700315
197,0.0
198,0.0
199,0.0
200,16.514896938938806
201,20.55553492700792
202,10.78045263802297
279,0.0
280,0.0
281,0.0
282,0.6678971320033225
283,0.41105291492228676
284,4.02446188318307
618,3507.901566923675
2,1, 1, 1, 0,11, 0.00,60.00,Sunday
191,0.0
192,0.0
193,0.0
194,569.533071829854
195,2050319.0585874743
196,0.0
197,0.0
198,0.0
199,0.0
200,16.486475615709023
201,20.555558025311368
202,10.96860303788212
279,0.0
280,0.0
281,0.0
282,0.667759489594997
283,0.41131994298969196
284,4.027623620755067
618,3438.1469454717555
2,1, 1, 1, 0,12, 0.00,60.00,Sunday
191,0.0
192,0.0
193,0.0
194,811.0019749996782
195,2919607.1099988415
196,811689.7968382797
197,0.0
198,0.0
199,0.0
200,15.44429947628413
201,20.553705786362078
202,9.618421542036908
279,0.0
280,0.0
281,0.0
282,1.111808222638998
283,0.6414756066153748
284,8.785979344532049
618,4537.932664614459
2,1, 1, 1, 0,13, 0.00,60.00,Sunday
191,0.0
192,0.0
193,0.0
194,671.7147239025381
195,2418173.006049137
196,168215.26320102698
197,0.0
198,0.0
199,0.0
200,15.337451032958733
201,20.554665276442344
202,9.635285531761646
279,0.0
280,0.0
281,0.0
282,1.153198847902692
283,0.6204836426932632
284,7.828456060197245
618,4503.036946304884
2,1, 1, 1, 0,14, 0.00,60.00,Sunday
191,0.0
192,0.0
193,0.0
194,553.3725188997363
195,1992141.0680390506
196,0.0
197,0.0
198,0.0
199,0.0
200,15.480604048402583
201,20.554133613672304
202,9.69110251136235
279,0.0
280,0.0
281,0.0
282,0.9593270451535125
283,0.5417251003759623
284,6.307483534130861
618,4193.833663839696
2,1, 1, 1, 0,15, 0.00,60.00,Sunday
191,0.0
192,0.0
193,0.0
194,1017.2979988934008
195,3662272.796016243
196,1956918.2566005847
197,0.0
198,0.0
199,0.0
200,15.68474863335216
201,20.554655252712729
202,10.386452031079191
279,0.0
280,0.0
281,0.0
282,0.9308711088503586
283,0.5454407848385929
284,7.061229043139682
618,3709.2408431231526
2,1, 1, 1, 0,16, 0.00,60.00,Sunday
191,0.0
192,0.0
193,0.0
194,321.4234521740539
195,1157124.427826594
196,0.0
197,0.0
198,0.0
199,0.0
200,15.821911995576207
201,20.55489101185835
202,10.477845317087489
279,0.0
280,0.0
281,0.0
282,0.7552144848976466
283,0.4771624327736172
284,5.304757155753364
618,3639.6432673020929
2,1, 1, 1, 0,17, 0.00,60.00,Sunday
191,0.0
192,0.0
193,0.0
194,258.96379793690246
195,932269.6725728487
196,0.0
197,0.0
198,0.0
199,0.0
200,16.165684504168064
201,20.554992439523035
202,10.448266874934698
279,0.0
280,0.0
281,0.0
282,0.43562839466171807
283,0.40998049370590786
284,3.003239747644105
618,3775.398184791883
2,1, 1, 1, 0,18, 0.00,60.00,Sunday
191,0.0
192,0.0
193,0.0
194,0.0
195,0.0
196,0.0
197,0.0
198,0.0
199,0.0
200,15.857954229800509
201,20.554806036975287
202,9.836463846380627
279,0.0
280,0.0
281,0.0
282,0.5414528064749602
283,0.3783956074098877
284,3.330332056952942
618,4017.245584097269
2,1, 1, 1, 0,19, 0.00,60.00,Sunday
191,0.0
192,0.0
193,0.0
194,0.0
195,0.0
196,0.0
197,0.0
198,0.0
199,0.0
200,15.74002917618129
201,20.554564991975949
202,8.90923243770903
279,0.0
280,0.0
281,0.0
282,0.538405730922406
283,0.3764550206280104
284,3.749650917111411
618,4389.905085557249
2,1, 1, 1, 0,20, 0.00,60.00,Sunday
191,0.0
192,0.0
193,0.0
194,0.0
195,0.0
196,0.0
197,0.0
198,0.0
199,0.0
200,16.190645721756938
201,20.55452232131521
202,9.47982423144679
279,0.0
280,0.0
281,0.0
282,0.2947768995016902
283,0.3187814956492595
284,1.1197868120029076
618,4346.71766249255
2,1, 1, 1, 0,21, 0.00,60.00,Sunday
191,0.0
192,0.0
193,0.0
194,0.0
195,0.0
196,0.0
197,0.0
198,0.0
199,0.0
200,16.202036690171178
201,20.55453766321808
202,9.730785446688781
279,0.0
280,0.0
281,0.0
282,0.29306611181736988
283,0.3103264501569387
284,0.0
618,4315.073794878923
2,1, 1, 1, 0,22, 0.00,60.00,Sunday
191,0.0
192,0.0
193,0.0
194,0.0
195,0.0
196,0.0
197,0.0
198,0.0
199,0.0
200,16.159360607604435
201,20.55442185800587
202,9.693973638852557
279,0.0
280,0.0
281,0.0
282,0.29448297187143099
283,0.3178255591485056
284,0.0
618,4479.274386862162
2,1, 1, 1, 0,23, 0.00,60.00,Sunday
191,0.0
192,0.0
193,0.0
194,0.0
195,0.0
196,0.0
197,0.0
198,0.0
199,0.0
200,16.135354281197335
201,20.554354301281227
202,9.636484302032592
279,0.0
280,0.0
281,0.0
282,0.29432969417774898
283,0.31757682318212696
284,0.0
618,4549.051711487737
2,1, 1, 1, 0,24, 0.00,60.00,Sunday
191,0.0
192,0.0
193,0.0
194,0.0
195,0.0
196,0.0
197,0.0
198,0.0
199,0.0
200,16.09934590601806
201,20.554248901797043
202,9.536295594016848
279,0.0
280,0.0
281,0.0
282,0.29441174908538389
283,0.31905864796507707
284,0.0
618,4634.482976228457
End of Data
 Number of Records Written=        1368
