Program Version,EnergyPlus, Version 22.2.0-c249759bad, YMD=2023.09.01 20:33
1,5,Environment Title[],Latitude[deg],Longitude[deg],Time Zone[],Elevation[m]
2,8,Day of Simulation[],Month[],Day of Month[],DST Indicator[1=yes 0=no],Hour[],StartMinute[],EndMinute[],DayType
3,5,Cumulative Day of Simulation[],Month[],Day of Month[],DST Indicator[1=yes 0=no],DayType  ! When Daily Report Variables Requested
4,2,Cumulative Days of Simulation[],Month[]  ! When Monthly Report Variables Requested
5,1,Cumulative Days of Simulation[] ! When Run Period Report Variables Requested
6,1,Calendar Year of Simulation[] ! When Annual Report Variables Requested
581,11,LIVING,AFN Zone Infiltration Air Change Rate [ach] !RunPeriod [Value,Min,Month,Day,Hour,Minute,Max,Month,Day,Hour,Minute]
582,11,ATTIC,AFN Zone Infiltration Air Change Rate [ach] !RunPeriod [Value,Min,Month,Day,Hour,Minute,Max,Month,Day,Hour,Minute]
583,11,CRAWLSPACE,AFN Zone Infiltration Air Change Rate [ach] !RunPeriod [Value,Min,Month,Day,Hour,Minute,Max,Month,Day,Hour,Minute]
1038,11,Facility,Facility Heating Setpoint Not Met Time [hr] !RunPeriod [Value,Min,Month,Day,Hour,Minute,Max,Month,Day,Hour,Minute]
1039,11,Facility,Facility Cooling Setpoint Not Met Time [hr] !RunPeriod [Value,Min,Month,Day,Hour,Minute,Max,Month,Day,Hour,Minute]
1115,11,DX_HEATING_COIL,Heating Coil Heating Energy [J] !RunPeriod [Value,Min,Month,Day,Hour,Minute,Max,Month,Day,Hour,Minute]
1128,11,DX_HEATING_COIL,Heating Coil Electricity Energy [J] !RunPeriod [Value,Min,Month,Day,Hour,Minute,Max,Month,Day,Hour,Minute]
1153,11,DX_HEATING_COIL,Heating Coil Defrost Electricity Energy [J] !RunPeriod [Value,Min,Month,Day,Hour,Minute,Max,Month,Day,Hour,Minute]
1154,11,DX_HEATING_COIL,Heating Coil Crankcase Heater Electricity Energy [J] !RunPeriod [Value,Min,Month,Day,Hour,Minute,Max,Month,Day,Hour,Minute]
1155,11,HEATING_RESISTANCE_BACKUP,Heating Coil Heating Energy [J] !RunPeriod [Value,Min,Month,Day,Hour,Minute,Max,Month,Day,Hour,Minute]
1156,11,HEATING_RESISTANCE_BACKUP,Heating Coil Electricity Energy [J] !RunPeriod [Value,Min,Month,Day,Hour,Minute,Max,Month,Day,Hour,Minute]
1292,11,WATER HEATER,Water Heater Heat Loss Energy [J] !RunPeriod [Value,Min,Month,Day,Hour,Minute,Max,Month,Day,Hour,Minute]
1306,11,WATER HEATER,Water Heater Heating Energy [J] !RunPeriod [Value,Min,Month,Day,Hour,Minute,Max,Month,Day,Hour,Minute]
1307,11,WATER HEATER,Water Heater Unmet Demand Heat Transfer Energy [J] !RunPeriod [Value,Min,Month,Day,Hour,Minute,Max,Month,Day,Hour,Minute]
1308,11,WATER HEATER,Water Heater Electricity Energy [J] !RunPeriod [Value,Min,Month,Day,Hour,Minute,Max,Month,Day,Hour,Minute]
13,11,Electricity:Facility [J] !RunPeriod [Value,Min,Month,Day,Hour,Minute,Max,Month,Day,Hour,Minute]
1134,11,Heating:Electricity [J] !RunPeriod [Value,Min,Month,Day,Hour,Minute,Max,Month,Day,Hour,Minute]
1096,11,Cooling:Electricity [J] !RunPeriod [Value,Min,Month,Day,Hour,Minute,Max,Month,Day,Hour,Minute]
562,11,Fans:Electricity [J] !RunPeriod [Value,Min,Month,Day,Hour,Minute,Max,Month,Day,Hour,Minute]
1379,11,Pumps:Electricity [J] !RunPeriod [Value,Min,Month,Day,Hour,Minute,Max,Month,Day,Hour,Minute]
1326,11,WaterSystems:Electricity [J] !RunPeriod [Value,Min,Month,Day,Hour,Minute,Max,Month,Day,Hour,Minute]
61,11,InteriorLights:Electricity [J] !RunPeriod [Value,Min,Month,Day,Hour,Minute,Max,Month,Day,Hour,Minute]
1046,11,ExteriorLights:Electricity [J] !RunPeriod [Value,Min,Month,Day,Hour,Minute,Max,Month,Day,Hour,Minute]
134,11,InteriorEquipment:Electricity [J] !RunPeriod [Value,Min,Month,Day,Hour,Minute,Max,Month,Day,Hour,Minute]
170,11,gas_dryer:InteriorEquipment:Electricity [J] !RunPeriod [Value,Min,Month,Day,Hour,Minute,Max,Month,Day,Hour,Minute]
207,11,clotheswasher:InteriorEquipment:Electricity [J] !RunPeriod [Value,Min,Month,Day,Hour,Minute,Max,Month,Day,Hour,Minute]
244,11,dishwasher:InteriorEquipment:Electricity [J] !RunPeriod [Value,Min,Month,Day,Hour,Minute,Max,Month,Day,Hour,Minute]
281,11,refrigerator:InteriorEquipment:Electricity [J] !RunPeriod [Value,Min,Month,Day,Hour,Minute,Max,Month,Day,Hour,Minute]
318,11,electric_mels:InteriorEquipment:Electricity [J] !RunPeriod [Value,Min,Month,Day,Hour,Minute,Max,Month,Day,Hour,Minute]
355,11,NaturalGas:Facility [J] !RunPeriod [Value,Min,Month,Day,Hour,Minute,Max,Month,Day,Hour,Minute]
403,11,InteriorEquipment:NaturalGas [J] !RunPeriod [Value,Min,Month,Day,Hour,Minute,Max,Month,Day,Hour,Minute]
476,11,gas_dryer:InteriorEquipment:NaturalGas [J] !RunPeriod [Value,Min,Month,Day,Hour,Minute,Max,Month,Day,Hour,Minute]
513,11,gas_mels:InteriorEquipment:NaturalGas [J] !RunPeriod [Value,Min,Month,Day,Hour,Minute,Max,Month,Day,Hour,Minute]
End of Data Dictionary
1,EXTREME_WINTER,  39.87,-104.67,  -7.00,1650.20
5,15
1038,0.25,0.0,12,22, 1,15,0.25,12,28, 6,15
1039,0.0,0.0,12,22, 1,15,0.0,12,22, 1,15
581,0.42925800863726427,0.1603190748646323, 1, 3,16,52,1.0393156148583538,12,26, 2,60
582,4.585749778448799,0.0,12,28, 1,60,22.735918853867588, 1, 3,13,52
583,0.06520160240384693,0.00031221863117056954, 1, 2,18,60,0.11379257205266163,12,26, 2,60
1115,4030677355.95617,0.0,12,22,12, 7,5113763.7974656485,12,24, 6,45
1128,1469812260.85908,0.0,12,22,12, 7,1715469.3324358177,12,24, 6,45
1153,30936395.942349415,0.0,12,22,11, 5,123580.33209611158, 1, 1, 9,60
1154,86288695.26363619,0.0,12,22, 6, 5,180000.0,12,22,12,60
1155,951794064.7589687,0.0,12,22, 1,15,5419495.182905427, 1, 5,24,60
1156,951794064.7589687,0.0,12,22, 1,15,5419495.182905427, 1, 5,24,60
1292,-54024998.5050516,-39820.96082804601,12,23, 3,15,-3747.2638641679196,12,24,16,46
1306,488965460.5466152,0.0,12,22, 1,15,4050000.0,12,22, 7,60
1307,82473610.03563052,0.0,12,22, 1,15,12018629.50519462, 1, 4,19,60
1308,488965460.5466152,0.0,12,22, 1,15,4050000.0,12,22, 7,60
13,3991398284.724123,280174.7925439643, 1, 3,15,15,12058142.980718693, 1, 5, 7,60
61,646981127.1939323,88139.10953165221,12,22, 1,15,1282023.4113694867,12,22,20,15
134,151290040.75163814,63564.01800854099,12,22, 4,15,156554.22484006523,12,27,20,15
170,11185820.069951689,348.4159749238097,12,22, 4,15,17476.39704006126,12,27,12,15
207,13893028.5742839,815.2532113832032,12,22, 3,15,22990.642799023623,12,27,10,15
244,27284301.07562584,1521.856143006317,12,22, 4,15,53038.631142310165,12,27,20,15
281,98926891.03177746,59938.60262432081,12,22, 5,15,81951.81706819107,12,22,19,15
318,0.0,0.0,12,22, 1,15,0.0,12,22, 1,15
355,422701517.16107386,18561.32405820678,12,22, 4,15,724774.895203776,12,27,18,15
403,422701517.16107386,18561.32405820678,12,22, 4,15,724774.895203776,12,27,18,15
476,227882097.80545202,7098.072629279515,12,22, 4,15,356036.3026282215,12,27,12,15
513,0.0,0.0,12,22, 1,15,0.0,12,22, 1,15
562,165052251.74889326,0.0,12,22,12,15,179358.22483556517,12,27,10,30
1046,0.0,0.0,12,22, 1,15,0.0,12,22, 1,15
1096,277987.65900621377,0.0,12,22, 1,15,37927.28119143131, 1, 3,16,15
1134,2538831416.8240347,0.0, 1, 3,11,45,7132707.716540826, 1, 5, 7,60
1326,488965460.54661554,0.0,12,22, 1,15,4050000.0,12,22, 7,60
1379,0.0,0.0,12,22, 1,15,0.0,12,22, 1,15
1,EXTREME_SUMMER,  39.87,-104.67,  -7.00,1650.20
5,7
1038,0.0,0.0, 7,27, 1,15,0.0, 7,27, 1,15
1039,0.0,0.0, 7,27, 1,15,0.0, 7,27, 1,15
581,0.2474046101819352,0.03624979060075214, 8, 2, 7,47,0.9217434115888012, 8, 2,17,50
582,5.22124779518366,0.02189448025552678, 8, 2, 7,52,18.81487025413839, 8, 2,17,50
583,0.0409166871245562,0.0012144863145951395, 8, 2, 6,11,0.09794566415643291, 7,31,18,20
1115,0.0,0.0, 7,27, 1,15,0.0, 7,27, 1,15
1128,0.0,0.0, 7,27, 1,15,0.0, 7,27, 1,15
1153,0.0,0.0, 7,27, 1,15,0.0, 7,27, 1,15
1154,0.0,0.0, 7,27, 1,15,0.0, 7,27, 1,15
1155,0.0,0.0, 7,27, 1,15,0.0, 7,27, 1,15
1156,0.0,0.0, 7,27, 1,15,0.0, 7,27, 1,15
1292,-22121386.664063536,-34344.87388985896, 8, 2,19,15,-2856.430046981894, 7,31,16,60
1306,178714921.07585207,0.0, 7,27, 1,15,4050000.0, 7,31, 6,60
1307,19292450.427024867,0.0, 7,27, 1,15,7919895.796719231, 8, 2,19,60
1308,178714921.07585207,0.0, 7,27, 1,15,4050000.0, 7,31, 6,60
13,1074874684.4716804,151703.1275401932, 7,27, 4,30,6552272.714158604, 7,30,19,45
61,301924526.02383536,88139.10953165221, 7,27, 1,15,1282023.4113694867, 7,27,20,15
134,70666020.44019976,63564.01800854099, 7,27, 4,15,156554.22484006523, 8, 1,20,15
170,5241013.419656067,348.4159749238097, 7,27, 4,15,17476.39704006126, 8, 1,12,15
207,6509451.13922267,815.2532113832032, 7,27, 3,15,22990.642799023623, 8, 1,10,15
244,12749673.399825225,1521.856143006317, 7,27, 4,15,53038.631142310165, 8, 1,20,15
281,46165882.481495745,59938.60262432081, 7,27, 5,15,81951.81706819107, 7,27,19,15
318,0.0,0.0, 7,27, 1,15,0.0, 7,27, 1,15
355,197687796.27748066,18561.32405820678, 7,27, 4,15,724774.895203776, 8, 1,18,15
403,197687796.27748066,18561.32405820678, 7,27, 4,15,724774.895203776, 8, 1,18,15
476,106772067.24485716,7098.072629279515, 7,27, 4,15,356036.3026282215, 8, 1,12,15
513,0.0,0.0, 7,27, 1,15,0.0, 7,27, 1,15
562,50996303.33480259,0.0, 7,27, 4,30,179214.86069057483, 7,31,18,30
1046,0.0,0.0, 7,27, 1,15,0.0, 7,27, 1,15
1096,472572913.596991,0.0, 7,27, 4,30,1877989.837134913, 7,31,18,30
1134,0.0,0.0, 7,27, 1,15,0.0, 7,27, 1,15
1326,178714921.0758521,0.0, 7,27, 1,15,4050000.0, 7,28,20,30
1379,0.0,0.0, 7,27, 1,15,0.0, 7,27, 1,15
1,ANNUAL,  39.87,-104.67,  -7.00,1650.20
5,365
1038,5.75,0.0, 1, 1, 1,15,0.25, 1, 6, 3,60
1039,23.75,0.0, 1, 1, 1,15,0.25, 1,19,13,60
581,0.3108125193631407,0.020654166824248806, 7,19, 1,60,1.3787856506872678, 7,14,16,46
582,5.1177458300135985,0.0, 1,19,18,33,43.30205612269301, 7,14,16,46
583,0.031004049747851273,0.0, 5, 6, 7,58,0.12352437718156142, 3,26,13,52
1115,24274671586.66291,0.0, 1, 1,23, 3,5400883.93627944, 1,29, 6,45
1128,8224411313.56321,0.0, 1, 1,23, 3,1731559.5764309645, 1,24, 6,45
1153,221872194.63948143,0.0, 1, 1,23, 3,130763.75205715769, 3,30, 7,45
1154,2023813923.2652516,0.0, 1, 1, 6, 5,180000.0, 1, 2,14,45
1155,2412061831.332994,0.0, 1, 1, 1, 7,5712636.952198141, 1, 6, 2,60
1156,2412061831.332994,0.0, 1, 1, 1, 7,5712636.952198141, 1, 6, 2,60
1292,-1228097838.057804,-40609.69952944159, 1, 6, 6,15,-2000.5176649077, 3, 5,19,59
1306,10883161505.089096,0.0, 1, 1, 1, 7,4050000.0, 1, 1, 9,60
1307,1599349968.189182,0.0, 1, 1, 1, 7,11914710.560822994,12,31,19,60
1308,10883161505.089096,0.0, 1, 1, 1, 7,4050000.0, 1, 1, 9,60
13,53247072642.06298,151703.1275401932, 3, 3, 4,30,11957021.01261315, 1, 6, 7,15
61,15743207428.383959,88139.10953165221, 1, 1, 1,15,1282023.4113694867, 1, 1,20,15
134,3685071073.4325233,63564.01800854099, 1, 2, 4,15,156554.22484006523, 1, 1,20,15
170,273393721.45532674,348.4159749238097, 1, 2, 4,15,17476.39704006126, 1, 1,12,15
207,339560869.0695816,815.2532113832032, 1, 2, 3,15,22990.642799023623, 1, 1,10,15
244,664895467.8009144,1521.856143006317, 1, 2, 4,15,53038.631142310165, 1, 1,20,15
281,2407221015.106824,59938.60262432081, 1, 1, 5,15,81951.81706819107, 1, 1,19,15
318,0.0,0.0, 1, 1, 1,15,0.0, 1, 1, 1,15
355,10310294493.051695,18561.32405820678, 1, 2, 4,15,724774.895203776, 1, 1,18,15
403,10310294493.051695,18561.32405820678, 1, 2, 4,15,724774.895203776, 1, 1,18,15
476,5569688622.066177,7098.072629279515, 1, 2, 4,15,356036.3026282215, 1, 1,12,15
513,0.0,0.0, 1, 1, 1,15,0.0, 1, 1, 1,15
562,1868116748.544535,0.0, 1, 2,12,45,179358.22483556517, 1, 6,10,30
1046,0.0,0.0, 1, 1, 1,15,0.0, 1, 1, 1,15
1096,8185356623.810241,0.0, 1, 1, 1,15,1966337.0938193547, 7, 4,16,30
1134,12882159262.800966,0.0, 1, 3,11,45,7215297.858581126, 1, 6, 8,60
1326,10883161505.089092,0.0, 1, 1, 1,15,4050000.0, 1, 1, 9,60
1379,0.0,0.0, 1, 1, 1,15,0.0, 1, 1, 1,15
End of Data
 Number of Records Written=          99
