Program Version,EnergyPlus, Version 22.2.0-c249759bad, YMD=2023.09.01 14:30
1,5,Environment Title[],Latitude[deg],Longitude[deg],Time Zone[],Elevation[m]
2,8,Day of Simulation[],Month[],Day of Month[],DST Indicator[1=yes 0=no],Hour[],StartMinute[],EndMinute[],DayType
3,5,Cumulative Day of Simulation[],Month[],Day of Month[],DST Indicator[1=yes 0=no],DayType  ! When Daily Report Variables Requested
4,2,Cumulative Days of Simulation[],Month[]  ! When Monthly Report Variables Requested
5,1,Cumulative Days of Simulation[] ! When Run Period Report Variables Requested
6,1,Calendar Year of Simulation[] ! When Annual Report Variables Requested
7,1,Environment,Site Outdoor Air Drybulb Temperature [C] !Hourly
619,1,DX_HEATING_COIL,Heating Coil Heating Rate [W] !Hourly
633,1,DX_HEATING_COIL,Heating Coil Electricity Rate [W] !Hourly
659,1,DX_HEATING_COIL,Heating Coil Defrost Electricity Rate [W] !Hourly
661,1,DX_HEATING_COIL,Heating Coil Crankcase Heater Electricity Rate [W] !Hourly
690,1,FAN,Fan Electricity Rate [W] !Hourly
716,1,HEAT PUMP WATER HEATER FAN,Fan Electricity Rate [W] !Hourly
718,1,LIVING,Zone Mean Air Temperature [C] !Hourly
719,1,ATTIC,Zone Mean Air Temperature [C] !Hourly
720,1,CRAWLSPACE,Zone Mean Air Temperature [C] !Hourly
843,1,LIVING,Zone Predicted Sensible Load to Heating Setpoint Heat Transfer Rate [W] !Hourly
844,1,LIVING,Zone System Predicted Sensible Load to Heating Setpoint Heat Transfer Rate [W] !Hourly
907,1,ATTIC,Zone Predicted Sensible Load to Heating Setpoint Heat Transfer Rate [W] !Hourly
908,1,ATTIC,Zone System Predicted Sensible Load to Heating Setpoint Heat Transfer Rate [W] !Hourly
971,1,CRAWLSPACE,Zone Predicted Sensible Load to Heating Setpoint Heat Transfer Rate [W] !Hourly
972,1,CRAWLSPACE,Zone System Predicted Sensible Load to Heating Setpoint Heat Transfer Rate [W] !Hourly
1195,1,HEATING_RESISTANCE_BACKUP,Heating Coil Heating Rate [W] !Hourly
1197,1,HEATING_RESISTANCE_BACKUP,Heating Coil Electricity Rate [W] !Hourly
End of Data Dictionary
1,EXTREME_WINTER,  41.80, -78.63,  -5.00, 652.90
2,1,12,15, 0, 1, 0.00,60.00,Monday
7,-3.3
718,18.64451796355039
719,-2.2607031492694136
720,18.279553565302596
619,3633.590665466682
633,1150.4462182183472
659,52.73135581116105
661,0.0
690,128.33839511423116
716,0.0
843,2128.7368667132487
844,2128.7368667132487
907,0.0
908,0.0
971,0.0
972,0.0
1195,38.91597414016633
1197,38.91597414016633
2,1,12,15, 0, 2, 0.00,60.00,Monday
7,-3.9
718,18.61885838158889
719,-1.5737604116874573
720,17.830922872135403
619,3586.3882724551077
633,1148.0964623465468
659,49.59131508718624
661,0.0
690,128.33839511423116
716,0.0
843,2497.9415412056514
844,2497.9415412056514
907,0.0
908,0.0
971,0.0
972,0.0
1195,331.59923256237016
1197,331.59923256237016
2,1,12,15, 0, 3, 0.00,60.00,Monday
7,-4.4
718,18.611465919760853
719,-1.05908333500092
720,17.64099796119356
619,3526.9974900850348
633,1139.099938026481
659,51.87156342960422
661,0.0
690,128.33839511423116
716,0.0
843,2775.201520681094
844,2775.201520681094
907,0.0
908,0.0
971,0.0
972,0.0
1195,698.9644763241381
1197,698.9644763241381
2,1,12,15, 0, 4, 0.00,60.00,Monday
7,-4.4
718,18.608296402678928
719,-0.979425816336806
720,17.417853027882245
619,3526.678698375474
633,1138.488380581181
659,52.02904215996775
661,0.0
690,128.33839511423116
716,0.0
843,2933.531007464064
844,2933.531007464064
907,0.0
908,0.0
971,0.0
972,0.0
1195,862.6734611024012
1197,862.6734611024012
2,1,12,15, 0, 5, 0.00,60.00,Monday
7,-6.0
718,18.60735587981264
719,-1.8502749405710195
720,17.22029974595661
619,3386.9474538695454
633,1129.4079828976298
659,47.197331822738576
661,0.0
690,128.33839511423116
716,0.0
843,3227.177892526164
844,3227.177892526164
907,0.0
908,0.0
971,0.0
972,0.0
1195,1363.7433173348468
1197,1363.7433173348468
2,1,12,15, 0, 6, 0.00,60.00,Monday
7,-6.7
718,19.41092845857741
719,-2.1515671113896664
720,17.042523519357594
619,3377.8257159696295
633,1142.6081167872235
659,32.02326944305792
661,0.0
690,128.33839511423116
716,0.0
843,4318.503452034154
844,4318.503452034154
907,0.0
908,0.0
971,0.0
972,0.0
1195,2738.520936972474
1197,2738.520936972474
2,1,12,15, 0, 7, 0.00,60.00,Monday
7,-7.8
718,19.582688580601566
719,-3.525572238265302
720,16.897307593699722
619,3235.4319053311415
633,1142.5446784669355
659,37.00080622266238
661,0.0
690,128.33839511423116
716,85.44000000000004
843,4839.015038148171
844,4839.015038148171
907,0.0
908,0.0
971,0.0
972,0.0
1195,4765.142865292672
1197,4765.142865292672
2,1,12,15, 0, 8, 0.00,60.00,Monday
7,-8.3
718,19.660553105895477
719,-3.6675234569272552
720,16.74426585027395
619,3208.2441767855726
633,1149.780694161003
659,30.475449950596236
661,0.0
690,128.33839511423116
716,85.44000000000004
843,4138.879144121629
844,4138.879144121629
907,0.0
908,0.0
971,0.0
972,0.0
1195,4081.8207993381634
1197,4081.8207993381634
2,1,12,15, 0, 9, 0.00,60.00,Monday
7,-9.4
718,19.710806384365817
719,-2.5345296779605526
720,16.595717329393665
619,3129.6264384906967
633,1150.49309535521
659,22.588356154571215
661,0.0
690,128.33839511423116
716,13.54594877909749
843,3329.813040219593
844,3329.813040219593
907,0.0
908,0.0
971,0.0
972,0.0
1195,2170.2509553294544
1197,2170.2509553294544
2,1,12,15, 0,10, 0.00,60.00,Monday
7,-8.9
718,19.717591932206
719,-2.960237124421053
720,16.461579065955725
619,3200.9346439180517
633,1165.2284602520242
659,16.03226974691006
661,0.0
690,128.33839511423116
716,0.0
843,2867.6733528135283
844,2867.6733528135283
907,0.0
908,0.0
971,0.0
972,0.0
1195,1301.3912756011368
1197,1301.3912756011368
2,1,12,15, 0,11, 0.00,60.00,Monday
7,-8.3
718,19.722631103747972
719,-2.0343717103154586
720,16.345655810962036
619,3281.8051976548613
633,1179.3065886068496
659,10.10219146819768
661,0.0
690,128.33839511423116
716,0.0
843,2386.879802434991
844,2386.879802434991
907,0.0
908,0.0
971,0.0
972,0.0
1195,669.8437996072382
1197,669.8437996072382
2,1,12,15, 0,12, 0.00,60.00,Monday
7,-8.3
718,19.745277439954755
719,-0.004121104499891914
720,16.251842208519953
619,3008.7679764705085
633,1094.2942741774202
659,9.427074832402193
661,14.410996562011459
690,118.71762647473746
716,0.0
843,1712.1915398000365
844,1712.1915398000365
907,0.0
908,0.0
971,0.0
972,0.0
1195,0.0
1197,0.0
2,1,12,15, 0,13, 0.00,60.00,Monday
7,-6.1
718,19.89321857256085
719,3.4838658905341084
720,16.18689817853289
619,1555.443622199999
633,569.1832867730383
659,0.028925554279380348
661,106.42477799229972
690,60.04555562411394
716,0.0
843,932.0062977657908
844,932.0062977657908
907,0.0
908,0.0
971,0.0
972,0.0
1195,0.0
1197,0.0
2,1,12,15, 0,14, 0.00,60.00,Monday
7,-5.6
718,19.519436751325856
719,2.571411031272791
720,16.136824020675384
619,2175.1762315377487
633,775.2833350772509
659,0.039129365997154504
661,73.41507530542198
690,81.22735748781257
716,79.390422159787
843,602.0586419392293
844,602.0586419392293
907,0.0
908,0.0
971,0.0
972,0.0
1195,0.0
1197,0.0
2,1,12,15, 0,15, 0.00,60.00,Monday
7,-5.6
718,19.939309883242576
719,1.8008978464050909
720,16.09022893453475
619,699.8991512101315
633,259.5096753751704
659,0.013188477432486521
661,157.33479497856285
690,27.377525166460497
716,0.0
843,444.57879291192694
844,444.57879291192694
907,0.0
908,0.0
971,0.0
972,0.0
1195,0.0
1197,0.0
2,1,12,15, 0,16, 0.00,60.00,Monday
7,-6.1
718,19.616965234893517
719,1.1062311725767355
720,16.069824024245268
619,260.6648357278068
633,100.14882974398117
659,0.00507009435205955
661,183.59806004021289
690,10.524832963255871
716,0.0
843,160.0192172220177
844,160.0192172220177
907,0.0
908,0.0
971,0.0
972,0.0
1195,0.0
1197,0.0
2,1,12,15, 0,17, 0.00,60.00,Monday
7,-6.7
718,19.62902048402514
719,-0.7111030275584259
720,16.057328568232723
619,1217.3188976552572
633,454.32480085972924
659,0.023268047883564246
661,124.72701731622729
690,48.301287988570984
716,0.0
843,778.6908576355308
844,778.6908576355308
907,0.0
908,0.0
971,0.0
972,0.0
1195,0.0
1197,0.0
2,1,12,15, 0,18, 0.00,60.00,Monday
7,-7.8
718,19.70740441931322
719,-1.7858722788679402
720,16.036291771564294
619,2317.486224207806
633,851.1621683664039
659,0.044010221553941124
661,57.62532974333246
690,91.35903645044847
716,0.0
843,1405.05902777148
844,1405.05902777148
907,0.0
908,0.0
971,0.0
972,0.0
1195,0.0
1197,0.0
2,1,12,15, 0,19, 0.00,60.00,Monday
7,-8.3
718,19.531515928641813
719,-2.957622101347097
720,15.994951780441264
619,3295.972156483824
633,1183.3429490406102
659,6.477571550121124
661,0.0
690,128.33839511423116
716,85.44000000000004
843,1616.6930465311843
844,1616.6930465311843
907,0.0
908,0.0
971,0.0
972,0.0
1195,838.0419204271059
1197,838.0419204271059
2,1,12,15, 0,20, 0.00,60.00,Monday
7,-8.9
718,19.618589443358797
719,-2.5840213444955515
720,15.924965481376178
619,3204.7429172984694
633,1160.3875374731927
659,16.14002597817398
661,0.0
690,128.33839511423116
716,85.44000000000004
843,1921.5458231475632
844,1921.5458231475632
907,0.0
908,0.0
971,0.0
972,0.0
1195,1381.7379633066319
1197,1381.7379633066319
2,1,12,15, 0,21, 0.00,60.00,Monday
7,-8.9
718,19.663393103253043
719,-2.992966456969917
720,15.855018248429333
619,3170.103168038064
633,1150.2045833265342
659,25.192433985832523
661,0.0
690,128.33839511423116
716,62.80628947363569
843,2172.1360863671125
844,2172.1360863671125
907,0.0
908,0.0
971,0.0
972,0.0
1195,1365.7509588884586
1197,1365.7509588884586
2,1,12,15, 0,22, 0.00,60.00,Monday
7,-8.9
718,19.70103639769512
719,-4.069461367102161
720,15.766337373982847
619,3169.331746277108
633,1151.0672440687692
659,25.192433985832523
661,0.0
690,128.33839511423116
716,0.0
843,2608.388686140748
844,2608.388686140748
907,0.0
908,0.0
971,0.0
972,0.0
1195,1055.1708718959949
1197,1055.1708718959949
2,1,12,15, 0,23, 0.00,60.00,Monday
7,-9.4
718,18.935778843519603
719,-4.502819080893507
720,15.669459757688655
619,3168.6645946303884
633,1164.274604304659
659,11.825583334495255
661,0.0
690,128.33839511423116
716,0.0
843,1972.9862668852656
844,1972.9862668852656
907,0.0
908,0.0
971,0.0
972,0.0
1195,354.40956627634887
1197,354.40956627634887
2,1,12,15, 0,24, 0.00,60.00,Monday
7,-10.0
718,18.70264433033645
719,-5.650792096772797
720,15.52317355266988
619,3144.207169570085
633,1148.2827424500736
659,6.579651768809695
661,0.0
690,128.33839511423116
716,0.0
843,3052.469110225542
844,3052.469110225542
907,0.0
908,0.0
971,0.0
972,0.0
1195,1647.387938437905
1197,1647.387938437905
2,2,12,16, 0, 1, 0.00,60.00,Tuesday
7,-10.0
718,18.631430926259082
719,-5.801841773944386
720,15.407060921669734
619,3148.8834154781835
633,1143.1119632102404
659,6.580286782390728
661,0.0
690,128.33839511423116
716,0.0
843,3458.2918238522416
844,3458.2918238522416
907,0.0
908,0.0
971,0.0
972,0.0
1195,2191.721326399471
1197,2191.721326399471
2,2,12,16, 0, 2, 0.00,60.00,Tuesday
7,-10.6
718,18.606245951285306
719,-6.288433489440258
720,15.276739991277713
619,3070.8505102874497
633,1127.3417072435543
659,12.823224576284186
661,0.0
690,128.33839511423116
716,0.0
843,4045.1583485458923
844,4045.1583485458923
907,0.0
908,0.0
971,0.0
972,0.0
1195,2977.5180538386376
1197,2977.5180538386376
2,2,12,16, 0, 3, 0.00,60.00,Tuesday
7,-11.1
718,18.607441674156455
719,-5.181239830387825
720,15.154873395416908
619,2991.610920697352
633,1109.536769375648
659,22.29049349497099
661,0.0
690,128.33839511423116
716,0.0
843,3841.2149000949503
844,3841.2149000949503
907,0.0
908,0.0
971,0.0
972,0.0
1195,2848.5134793796647
1197,2848.5134793796647
2,2,12,16, 0, 4, 0.00,60.00,Tuesday
7,-11.7
718,18.599632644371106
719,-6.357545342489405
720,15.021874883606783
619,2929.2603011024007
633,1100.7511003171435
659,24.311744089114043
661,0.0
690,128.33839511423116
716,0.0
843,4220.943996982378
844,4220.943996982378
907,0.0
908,0.0
971,0.0
972,0.0
1195,3299.8763873746657
1197,3299.8763873746657
2,2,12,16, 0, 5, 0.00,60.00,Tuesday
7,-12.2
718,18.60137607413947
719,-7.305738102071137
720,14.892962248169033
619,2877.047748059014
633,1092.77487568389
659,26.329499352506716
661,0.0
690,128.33839511423116
716,0.0
843,4354.7697236147615
844,4354.7697236147615
907,0.0
908,0.0
971,0.0
972,0.0
1195,3602.4538132629636
1197,3602.4538132629636
2,2,12,16, 0, 6, 0.00,60.00,Tuesday
7,-12.8
718,19.357165085046095
719,-8.52446920813099
720,14.754137960375504
619,2851.7627116787176
633,1097.547715354094
659,17.453782227752978
661,0.0
690,128.33839511423116
716,0.0
843,6922.779796362902
844,6922.779796362902
907,0.0
908,0.0
971,0.0
972,0.0
1195,6709.222232516205
1197,6709.222232516205
2,2,12,16, 0, 7, 0.00,60.00,Tuesday
7,-13.3
718,19.182612233558608
719,-8.30374754530394
720,14.664562780168568
619,2805.6291476192964
633,1112.1755147846743
659,13.323565235186324
661,0.0
690,128.33839511423116
716,85.44000000000004
843,6513.057788413589
844,6513.057788413589
907,0.0
908,0.0
971,0.0
972,0.0
1195,6709.222232516205
1197,6709.222232516205
2,2,12,16, 0, 8, 0.00,60.00,Tuesday
7,-13.9
718,19.304596708479735
719,-8.883803419682549
720,14.521278630992118
619,2749.0296848507273
633,1099.650854605517
659,15.246928132140747
661,0.0
690,128.33839511423116
716,85.44000000000004
843,6064.603564978046
844,6064.603564978046
907,0.0
908,0.0
971,0.0
972,0.0
1195,6709.222232516205
1197,6709.222232516205
2,2,12,16, 0, 9, 0.00,60.00,Tuesday
7,-13.9
718,18.665470099831232
719,-9.474242746494685
720,14.39733552932917
619,2763.070575790878
633,1108.262109905013
659,10.089517896706278
661,0.0
690,128.33839511423116
716,85.44000000000004
843,7256.004076348587
844,7256.004076348587
907,0.0
908,0.0
971,0.0
972,0.0
1195,6709.222232516205
1197,6709.222232516205
2,2,12,16, 0,10, 0.00,60.00,Tuesday
7,-14.4
718,19.37410615614399
719,-8.827728166529292
720,14.249195497119716
619,2732.6655977145815
633,1091.164124040266
659,9.384752445097169
661,0.0
690,128.33839511423116
716,34.1998679048474
843,5648.943448053511
844,5648.943448053511
907,0.0
908,0.0
971,0.0
972,0.0
1195,5914.845925447691
1197,5914.845925447691
2,2,12,16, 0,11, 0.00,60.00,Tuesday
7,-13.9
718,19.631768091049395
719,-8.638154499032751
720,14.160720323041451
619,2762.170042263347
633,1109.3637072371876
659,10.050648706653362
661,0.0
690,128.33839511423116
716,0.0
843,5084.58510714126
844,5084.58510714126
907,0.0
908,0.0
971,0.0
972,0.0
1195,4832.908155177416
1197,4832.908155177416
2,2,12,16, 0,12, 0.00,60.00,Tuesday
7,-13.3
718,19.68518736217685
719,-7.828348635159811
720,14.05155750502096
619,2818.555971762406
633,1123.7780989571334
659,7.8511689493408205
661,0.0
690,128.33839511423116
716,0.0
843,5041.636680511427
844,5041.636680511427
907,0.0
908,0.0
971,0.0
972,0.0
1195,4715.004997433731
1197,4715.004997433731
2,2,12,16, 0,13, 0.00,60.00,Tuesday
7,-12.8
718,19.71658278385472
719,-5.723231841246092
720,13.963916508067022
619,2858.584071066973
633,1128.4189992396014
659,9.32385508243794
661,0.0
690,128.33839511423116
716,0.0
843,3862.142422650497
844,3862.142422650497
907,0.0
908,0.0
971,0.0
972,0.0
1195,3215.2472093050023
1197,3215.2472093050023
2,2,12,16, 0,14, 0.00,60.00,Tuesday
7,-12.8
718,19.71043567770965
719,-6.481414716405235
720,13.879424985949987
619,2868.7671527495218
633,1133.100542031395
659,6.030508416843765
661,0.0
690,128.33839511423116
716,0.0
843,3964.914671746894
844,3964.914671746894
907,0.0
908,0.0
971,0.0
972,0.0
1195,3205.75196582861
1197,3205.75196582861
2,2,12,16, 0,15, 0.00,60.00,Tuesday
7,-12.2
718,19.723418854978995
719,-3.694916600991259
720,13.83122825032336
619,2922.156110051379
633,1138.6509444217386
659,6.727924430734181
661,0.0
690,128.33839511423116
716,0.0
843,2788.6712010043193
844,2788.6712010043193
907,0.0
908,0.0
971,0.0
972,0.0
1195,1772.1970172445115
1197,1772.1970172445115
2,2,12,16, 0,16, 0.00,60.00,Tuesday
7,-12.8
718,19.717991464367746
719,-3.85312639192786
720,13.781646301082754
619,2850.165106481608
633,1125.8012259939953
659,11.778251070884515
661,0.0
690,128.33839511423116
716,0.0
843,2709.8518966840384
844,2709.8518966840384
907,0.0
908,0.0
971,0.0
972,0.0
1195,1590.1626855447141
1197,1590.1626855447141
2,2,12,16, 0,17, 0.00,60.00,Tuesday
7,-13.3
718,19.715669898584704
719,-5.490804273390145
720,13.744398256735824
619,2790.4380811597507
633,1114.3234289544903
659,16.307777103807656
661,0.0
690,128.33839511423116
716,0.0
843,2980.079519584344
844,2980.079519584344
907,0.0
908,0.0
971,0.0
972,0.0
1195,1997.8742817298385
1197,1997.8742817298385
2,2,12,16, 0,18, 0.00,60.00,Tuesday
7,-12.8
718,19.71092643692109
719,-6.654883574864573
720,13.711693236185958
619,2832.5291136266123
633,1118.4407345425257
659,17.321829455708006
661,0.0
690,128.33839511423116
716,0.0
843,3275.756179664997
844,3275.756179664997
907,0.0
908,0.0
971,0.0
972,0.0
1195,2394.1200568425365
1197,2394.1200568425365
2,2,12,16, 0,19, 0.00,60.00,Tuesday
7,-13.9
718,19.689049851130203
719,-8.163397302374527
720,13.654048702774954
619,2729.3520522465024
633,1104.335093733705
659,18.728978135503564
661,0.0
690,128.33839511423116
716,85.44000000000004
843,3551.197647952391
844,3551.197647952391
907,0.0
908,0.0
971,0.0
972,0.0
1195,4028.7504059806497
1197,4028.7504059806497
2,2,12,16, 0,20, 0.00,60.00,Tuesday
7,-14.0
718,19.69680907498779
719,-7.4732022404289395
720,13.59386932752765
619,2734.5953238337543
633,1108.29358535539
659,14.331108042047891
661,0.0
690,128.33839511423116
716,85.44000000000004
843,3526.3021904645157
844,3526.3021904645157
907,0.0
908,0.0
971,0.0
972,0.0
1195,4140.206413282983
1197,4140.206413282983
2,2,12,16, 0,21, 0.00,60.00,Tuesday
7,-14.4
718,19.689754118512564
719,-9.135310191464745
720,13.512335202549199
619,2690.4799297701843
633,1100.318154568313
659,17.116710336683777
661,0.0
690,128.33839511423116
716,85.44000000000004
843,3835.3169844951517
844,3835.3169844951517
907,0.0
908,0.0
971,0.0
972,0.0
1195,4554.429606275326
1197,4554.429606275326
2,2,12,16, 0,22, 0.00,60.00,Tuesday
7,-15.0
718,19.699107823188854
719,-7.916570737083242
720,13.431078790845367
619,2642.1537588187416
633,1094.9589961039635
659,15.759610043408578
661,0.0
690,128.33839511423116
716,49.76207280614624
843,4063.2667054342946
844,4063.2667054342946
907,0.0
908,0.0
971,0.0
972,0.0
1195,4362.187520510565
1197,4362.187520510565
2,2,12,16, 0,23, 0.00,60.00,Tuesday
7,-15.0
718,18.912204040350787
719,-7.918498149944457
720,13.342016930019872
619,2641.5688017761577
633,1094.8562814937918
659,15.92128609787669
661,0.0
690,128.33839511423116
716,0.0
843,3200.1874617261783
844,3200.1874617261783
907,0.0
908,0.0
971,0.0
972,0.0
1195,2643.8362248767853
1197,2643.8362248767853
2,2,12,16, 0,24, 0.00,60.00,Tuesday
7,-15.6
718,18.681992541159154
719,-8.843028523204906
720,13.207973706164976
619,2608.062821271452
633,1074.822047431499
659,14.63268367924521
661,0.0
690,128.33839511423116
716,0.0
843,3962.212683709484
844,3962.212683709484
907,0.0
908,0.0
971,0.0
972,0.0
1195,3529.6018519520594
1197,3529.6018519520594
2,3,12,17, 0, 1, 0.00,60.00,Wednesday
7,-15.6
718,18.620620687064623
719,-8.658680772255519
720,13.104304843676394
619,2611.977323607182
633,1070.2331653598003
659,14.79417090542033
661,0.0
690,128.33839511423116
716,0.0
843,4438.023434394641
844,4438.023434394641
907,0.0
908,0.0
971,0.0
972,0.0
1195,4157.180661235634
1197,4157.180661235634
2,3,12,17, 0, 2, 0.00,60.00,Wednesday
7,-16.1
718,18.59758531180689
719,-8.368298631167377
720,12.992130060478274
619,2566.3302332427834
633,1061.7928009425173
659,16.1131292633691
661,0.0
690,128.33839511423116
716,0.0
843,4910.6501714848855
844,4910.6501714848855
907,0.0
908,0.0
971,0.0
972,0.0
1195,4747.234828767279
1197,4747.234828767279
2,3,12,17, 0, 3, 0.00,60.00,Wednesday
7,-16.7
718,18.59909810030005
719,-8.783563325836528
720,12.882281704486925
619,2517.5120324886416
633,1055.1740036652416
659,15.532814347783654
661,0.0
690,128.33839511423116
716,0.0
843,5172.4485094031315
844,5172.4485094031315
907,0.0
908,0.0
971,0.0
972,0.0
1195,5126.034290365338
1197,5126.034290365338
2,3,12,17, 0, 4, 0.00,60.00,Wednesday
7,-17.2
718,18.591481842423544
719,-8.581215664525422
720,12.774027553639485
619,2479.6004438246396
633,1051.0891661999183
659,14.08346363790189
661,0.0
690,128.33839511423116
716,0.0
843,5364.221525695544
844,5364.221525695544
907,0.0
908,0.0
971,0.0
972,0.0
1195,5395.923564848053
1197,5395.923564848053
2,3,12,17, 0, 5, 0.00,60.00,Wednesday
7,-17.8
718,18.59778285851737
719,-9.345605094146975
720,12.664318697546657
619,2430.693712087781
633,1044.2556989099317
659,13.764614293973413
661,0.0
690,128.33839511423116
716,0.0
843,5487.274235781359
844,5487.274235781359
907,0.0
908,0.0
971,0.0
972,0.0
1195,5614.183518737971
1197,5614.183518737971
2,3,12,17, 0, 6, 0.00,60.00,Wednesday
7,-17.8
718,18.671542553033134
719,-9.754112746520532
720,12.56056927473584
619,2430.71078292174
633,1044.2394716383837
659,13.764614293973413
661,0.0
690,128.33839511423116
716,82.704016843048
843,6683.600296150753
844,6683.600296150753
907,0.0
908,0.0
971,0.0
972,0.0
1195,6709.222232516205
1197,6709.222232516205
2,3,12,17, 0, 7, 0.00,60.00,Wednesday
7,-17.8
718,18.66778298785223
719,-9.909334395124565
720,12.460680113839777
619,2430.029208743132
633,1045.6146300560242
659,13.573649170670604
661,0.0
690,128.33839511423116
716,85.44000000000004
843,6583.017058727131
844,6583.017058727131
907,0.0
908,0.0
971,0.0
972,0.0
1195,6709.222232516205
1197,6709.222232516205
2,3,12,17, 0, 8, 0.00,60.00,Wednesday
7,-17.2
718,18.65991084094244
719,-9.962678594901986
720,12.358950945588816
619,2478.319257376057
633,1051.5983451935947
659,14.26921405724004
661,0.0
690,128.33839511423116
716,85.44000000000004
843,6621.049320757933
844,6621.049320757933
907,0.0
908,0.0
971,0.0
972,0.0
1195,6709.222232516205
1197,6709.222232516205
2,3,12,17, 0, 9, 0.00,60.00,Wednesday
7,-16.7
718,19.43279884812425
719,-7.966719337264033
720,12.262971869630578
619,2516.5351742089724
633,1055.3403166384303
659,15.72975911608658
661,0.0
690,128.33839511423116
716,7.995658906974944
843,6071.533753734046
844,6071.533753734046
907,0.0
908,0.0
971,0.0
972,0.0
1195,6431.133226943036
1197,6431.133226943036
2,3,12,17, 0,10, 0.00,60.00,Wednesday
7,-15.0
718,19.639195565883334
719,-5.990177343449575
720,12.211037448951824
619,2640.8727198008787
633,1085.4797848994053
659,18.281351768837656
661,0.0
690,128.33839511423116
716,0.0
843,5241.066629633049
844,5241.066629633049
907,0.0
908,0.0
971,0.0
972,0.0
1195,5124.043149990946
1197,5124.043149990946
2,3,12,17, 0,11, 0.00,60.00,Wednesday
7,-13.3
718,19.706662983162385
719,-2.6080125757857933
720,12.147904086797059
619,2794.2546621748893
633,1110.9458551797957
659,16.17826877642882
661,0.0
690,128.33839511423116
716,0.0
843,4080.7878629363713
844,4080.7878629363713
907,0.0
908,0.0
971,0.0
972,0.0
1195,3486.9198543455395
1197,3486.9198543455395
2,3,12,17, 0,12, 0.00,60.00,Wednesday
7,-11.7
718,19.715065127866183
719,0.03723414306683785
720,12.10954344892245
619,2948.477952140543
633,1133.0199769615745
659,13.480596807476735
661,0.0
690,128.33839511423116
716,0.0
843,3264.1105496332893
844,3264.1105496332893
907,0.0
908,0.0
971,0.0
972,0.0
1195,2144.9906535118057
1197,2144.9906535118057
2,3,12,17, 0,13, 0.00,60.00,Wednesday
7,-10.6
718,19.724820532300402
719,3.810361533277604
720,12.091513871927901
619,3088.975102507279
633,1158.7654992524308
659,2.7579824667221593
661,0.0
690,128.33839511423116
716,0.0
843,2812.0679314440513
844,2812.0679314440513
907,0.0
908,0.0
971,0.0
972,0.0
1195,1323.7924198930843
1197,1323.7924198930843
2,3,12,17, 0,14, 0.00,60.00,Wednesday
7,-10.0
718,19.71980731810445
719,1.475036132961693
720,12.090347763225479
619,3156.336727546962
633,1168.809621590125
659,0.06182310585808726
661,0.0
690,128.33839511423116
716,0.0
843,2839.7264450759812
844,2839.7264450759812
907,0.0
908,0.0
971,0.0
972,0.0
1195,1084.8668810707675
1197,1084.8668810707675
2,3,12,17, 0,15, 0.00,60.00,Wednesday
7,-10.0
718,19.71750381310563
719,2.376818825321927
720,12.099724069086339
619,3156.119504088255
633,1168.5992500159232
659,0.1483473446549751
661,0.0
690,128.33839511423116
716,0.0
843,2847.3196693133523
844,2847.3196693133523
907,0.0
908,0.0
971,0.0
972,0.0
1195,1223.6984964659268
1197,1223.6984964659268
2,3,12,17, 0,16, 0.00,60.00,Wednesday
7,-10.6
718,19.707917590654148
719,1.3899564177645314
720,12.108401850609805
619,3098.3021364084298
633,1162.2898548886324
659,0.06182310585808726
661,0.0
690,128.33839511423116
716,85.44000000000004
843,3085.619526151848
844,3085.619526151848
907,0.0
908,0.0
971,0.0
972,0.0
1195,2724.0449000636
1197,2724.0449000636
2,3,12,17, 0,17, 0.00,60.00,Wednesday
7,-11.1
718,19.69634813444335
719,-0.7983524750711423
720,12.114658820428753
619,3050.493519995929
633,1156.7236334347035
659,0.06182310585808726
661,0.0
690,128.33839511423116
716,85.44000000000004
843,3307.466732218285
844,3307.466732218285
907,0.0
908,0.0
971,0.0
972,0.0
1195,3028.227525659073
1197,3028.227525659073
2,3,12,17, 0,18, 0.00,60.00,Wednesday
7,-10.6
718,19.710209041044877
719,-2.6523959751181936
720,12.119963479821546
619,3096.3029950395076
633,1160.9587886052223
659,0.7529496475641868
661,0.0
690,128.33839511423116
716,16.945427830910656
843,3299.344131090469
844,3299.344131090469
907,0.0
908,0.0
971,0.0
972,0.0
1195,2147.9470902465705
1197,2147.9470902465705
2,3,12,17, 0,19, 0.00,60.00,Wednesday
7,-10.6
718,19.714937560402113
719,-3.5122832181481227
720,12.107819367966048
619,3096.0319247059156
633,1161.251741850272
659,0.7535349183299677
661,0.0
690,128.33839511423116
716,0.0
843,3368.465658206671
844,3368.465658206671
907,0.0
908,0.0
971,0.0
972,0.0
1195,2144.7650352205105
1197,2144.7650352205105
2,3,12,17, 0,20, 0.00,60.00,Wednesday
7,-10.6
718,19.70655343760524
719,-4.007815957345546
720,12.084759859627038
619,3095.9525583583045
633,1161.3372397488115
659,0.7537596472430291
661,0.0
690,128.33839511423116
716,85.44000000000004
843,3373.9831926737297
844,3373.9831926737297
907,0.0
908,0.0
971,0.0
972,0.0
1195,3305.071155071283
1197,3305.071155071283
2,3,12,17, 0,21, 0.00,60.00,Wednesday
7,-10.0
718,19.699052549497633
719,-3.6829758215349164
720,12.05523847016282
619,3156.6927395240973
633,1168.4173966924914
659,0.06182310585808726
661,0.0
690,128.33839511423116
716,80.66423621074443
843,3284.0199353360495
844,3284.0199353360495
907,0.0
908,0.0
971,0.0
972,0.0
1195,3136.5447809097054
1197,3136.5447809097054
2,3,12,17, 0,22, 0.00,60.00,Wednesday
7,-10.0
718,19.706981410926975
719,-4.494414137634555
720,12.009110056274926
619,3156.926167991446
633,1168.1602058491612
659,0.06182310585808726
661,0.0
690,128.33839511423116
716,0.0
843,4037.6467297305935
844,4037.6467297305935
907,0.0
908,0.0
971,0.0
972,0.0
1195,2951.9101087007366
1197,2951.9101087007366
2,3,12,17, 0,23, 0.00,60.00,Wednesday
7,-10.6
718,18.91689581503621
719,-4.303815949899014
720,11.962930448079439
619,3054.36473835502
633,1145.3801694982305
659,12.823224576284186
661,0.0
690,128.33839511423116
716,0.0
843,2758.9947376059463
844,2758.9947376059463
907,0.0
908,0.0
971,0.0
972,0.0
1195,1542.3063895065377
1197,1542.3063895065377
2,3,12,17, 0,24, 0.00,60.00,Wednesday
7,-10.6
718,18.690869255648575
719,-4.806029108196942
720,11.873644807676909
619,3045.55061709034
633,1119.9394190689638
659,19.713475888182113
661,0.0
690,128.33839511423116
716,0.0
843,3303.7519657908197
844,3303.7519657908197
907,0.0
908,0.0
971,0.0
972,0.0
1195,2129.2204367905197
1197,2129.2204367905197
2,4,12,18, 0, 1, 0.00,60.00,Thursday
7,-10.6
718,18.626583285919015
719,-5.333395777241976
720,11.80990802168424
619,3049.932945625043
633,1115.1329019580903
659,19.713475888182113
661,0.0
690,128.33839511423116
716,0.0
843,3818.7080873303566
844,3818.7080873303566
907,0.0
908,0.0
971,0.0
972,0.0
1195,2773.367141108598
1197,2773.367141108598
2,4,12,18, 0, 2, 0.00,60.00,Thursday
7,-10.6
718,18.60224066431534
719,-4.864396992235039
720,11.742653096041204
619,3024.190836021771
633,1103.8452575262015
659,27.4603286023606
661,0.0
690,128.33839511423116
716,0.0
843,4428.458214757664
844,4428.458214757664
907,0.0
908,0.0
971,0.0
972,0.0
1195,3558.8795149085818
1197,3558.8795149085818
2,4,12,18, 0, 3, 0.00,60.00,Thursday
7,-10.6
718,18.598616445818738
719,-5.264584472913048
720,11.672711262474031
619,3024.7648984445623
633,1103.2150435830904
659,27.4603286023606
661,0.0
690,128.33839511423116
716,0.0
843,5060.31558992284
844,5060.31558992284
907,0.0
908,0.0
971,0.0
972,0.0
1195,4338.539236449549
1197,4338.539236449549
2,4,12,18, 0, 4, 0.00,60.00,Thursday
7,-10.6
718,18.59444192373215
719,-5.97557148205526
720,11.606629685920158
619,3008.2489059121026
633,1096.9745872240733
659,32.23441782974393
661,0.0
690,128.33839511423116
716,0.0
843,5159.642115434053
844,5159.642115434053
907,0.0
908,0.0
971,0.0
972,0.0
1195,4461.026396364474
1197,4461.026396364474
2,4,12,18, 0, 5, 0.00,60.00,Thursday
7,-10.6
718,18.603904684286245
719,-5.475352952862076
720,11.540207340846374
619,3008.389312485212
633,1096.8204279102836
659,32.23441782974393
661,0.0
690,128.33839511423116
716,0.0
843,4823.972659828823
844,4823.972659828823
907,0.0
908,0.0
971,0.0
972,0.0
1195,4117.231439118443
1197,4117.231439118443
2,4,12,18, 0, 6, 0.00,60.00,Thursday
7,-10.0
718,19.420031764185676
719,-5.213725404363663
720,11.47522562270717
619,3060.571171540559
633,1101.3594720607248
659,33.32829568447065
661,0.0
690,128.33839511423116
716,0.0
843,6183.874483052521
844,6183.874483052521
907,0.0
908,0.0
971,0.0
972,0.0
1195,5681.395552025335
1197,5681.395552025335
2,4,12,18, 0, 7, 0.00,60.00,Thursday
7,-9.4
718,19.589901716939146
719,-4.033296237407655
720,11.451947297173641
619,3094.2517044559095
633,1121.323301731461
659,35.481535533187255
661,0.0
690,128.33839511423116
716,85.44000000000004
843,5710.684425540345
844,5710.684425540345
907,0.0
908,0.0
971,0.0
972,0.0
1195,6383.424037952852
1197,6383.424037952852
2,4,12,18, 0, 8, 0.00,60.00,Thursday
7,-8.3
718,19.663683487444303
719,-3.1258386074322626
720,11.40233133685417
619,3180.279463755141
633,1130.2561720096796
659,39.72379904515099
661,0.0
690,128.33839511423116
716,85.44000000000004
843,4764.6336843041245
844,4764.6336843041245
907,0.0
908,0.0
971,0.0
972,0.0
1195,5076.011976836654
1197,5076.011976836654
2,4,12,18, 0, 9, 0.00,60.00,Thursday
7,-7.8
718,19.684216256537386
719,-2.56546106662035
720,11.354043466149317
619,3197.0089705942723
633,1126.0935888573006
659,47.69177161127302
661,0.0
690,128.33839511423116
716,85.44000000000004