Program Version,EnergyPlus, Version 22.2.0-c249759bad, YMD=2023.09.01 20:53
1,5,Environment Title[],Latitude[deg],Longitude[deg],Time Zone[],Elevation[m]
2,8,Day of Simulation[],Month[],Day of Month[],DST Indicator[1=yes 0=no],Hour[],StartMinute[],EndMinute[],DayType
3,5,Cumulative Day of Simulation[],Month[],Day of Month[],DST Indicator[1=yes 0=no],DayType  ! When Daily Report Variables Requested
4,2,Cumulative Days of Simulation[],Month[]  ! When Monthly Report Variables Requested
5,1,Cumulative Days of Simulation[] ! When Run Period Report Variables Requested
6,1,Calendar Year of Simulation[] ! When Annual Report Variables Requested
581,11,LIVING,AFN Zone Infiltration Air Change Rate [ach] !RunPeriod [Value,Min,Month,Day,Hour,Minute,Max,Month,Day,Hour,Minute]
582,11,ATTIC,AFN Zone Infiltration Air Change Rate [ach] !RunPeriod [Value,Min,Month,Day,Hour,Minute,Max,Month,Day,Hour,Minute]
583,11,CRAWLSPACE,AFN Zone Infiltration Air Change Rate [ach] !RunPeriod [Value,Min,Month,Day,Hour,Minute,Max,Month,Day,Hour,Minute]
1038,11,Facility,Facility Heating Setpoint Not Met Time [hr] !RunPeriod [Value,Min,Month,Day,Hour,Minute,Max,Month,Day,Hour,Minute]
1039,11,Facility,Facility Cooling Setpoint Not Met Time [hr] !RunPeriod [Value,Min,Month,Day,Hour,Minute,Max,Month,Day,Hour,Minute]
1115,11,DX_HEATING_COIL,Heating Coil Heating Energy [J] !RunPeriod [Value,Min,Month,Day,Hour,Minute,Max,Month,Day,Hour,Minute]
1128,11,DX_HEATING_COIL,Heating Coil Electricity Energy [J] !RunPeriod [Value,Min,Month,Day,Hour,Minute,Max,Month,Day,Hour,Minute]
1153,11,DX_HEATING_COIL,Heating Coil Defrost Electricity Energy [J] !RunPeriod [Value,Min,Month,Day,Hour,Minute,Max,Month,Day,Hour,Minute]
1154,11,DX_HEATING_COIL,Heating Coil Crankcase Heater Electricity Energy [J] !RunPeriod [Value,Min,Month,Day,Hour,Minute,Max,Month,Day,Hour,Minute]
1155,11,HEATING_RESISTANCE_BACKUP,Heating Coil Heating Energy [J] !RunPeriod [Value,Min,Month,Day,Hour,Minute,Max,Month,Day,Hour,Minute]
1156,11,HEATING_RESISTANCE_BACKUP,Heating Coil Electricity Energy [J] !RunPeriod [Value,Min,Month,Day,Hour,Minute,Max,Month,Day,Hour,Minute]
1292,11,WATER HEATER,Water Heater Heat Loss Energy [J] !RunPeriod [Value,Min,Month,Day,Hour,Minute,Max,Month,Day,Hour,Minute]
1306,11,WATER HEATER,Water Heater Heating Energy [J] !RunPeriod [Value,Min,Month,Day,Hour,Minute,Max,Month,Day,Hour,Minute]
1307,11,WATER HEATER,Water Heater Unmet Demand Heat Transfer Energy [J] !RunPeriod [Value,Min,Month,Day,Hour,Minute,Max,Month,Day,Hour,Minute]
1308,11,WATER HEATER,Water Heater Electricity Energy [J] !RunPeriod [Value,Min,Month,Day,Hour,Minute,Max,Month,Day,Hour,Minute]
13,11,Electricity:Facility [J] !RunPeriod [Value,Min,Month,Day,Hour,Minute,Max,Month,Day,Hour,Minute]
1134,11,Heating:Electricity [J] !RunPeriod [Value,Min,Month,Day,Hour,Minute,Max,Month,Day,Hour,Minute]
1096,11,Cooling:Electricity [J] !RunPeriod [Value,Min,Month,Day,Hour,Minute,Max,Month,Day,Hour,Minute]
562,11,Fans:Electricity [J] !RunPeriod [Value,Min,Month,Day,Hour,Minute,Max,Month,Day,Hour,Minute]
1379,11,Pumps:Electricity [J] !RunPeriod [Value,Min,Month,Day,Hour,Minute,Max,Month,Day,Hour,Minute]
1326,11,WaterSystems:Electricity [J] !RunPeriod [Value,Min,Month,Day,Hour,Minute,Max,Month,Day,Hour,Minute]
61,11,InteriorLights:Electricity [J] !RunPeriod [Value,Min,Month,Day,Hour,Minute,Max,Month,Day,Hour,Minute]
1046,11,ExteriorLights:Electricity [J] !RunPeriod [Value,Min,Month,Day,Hour,Minute,Max,Month,Day,Hour,Minute]
134,11,InteriorEquipment:Electricity [J] !RunPeriod [Value,Min,Month,Day,Hour,Minute,Max,Month,Day,Hour,Minute]
170,11,gas_dryer:InteriorEquipment:Electricity [J] !RunPeriod [Value,Min,Month,Day,Hour,Minute,Max,Month,Day,Hour,Minute]
207,11,clotheswasher:InteriorEquipment:Electricity [J] !RunPeriod [Value,Min,Month,Day,Hour,Minute,Max,Month,Day,Hour,Minute]
244,11,dishwasher:InteriorEquipment:Electricity [J] !RunPeriod [Value,Min,Month,Day,Hour,Minute,Max,Month,Day,Hour,Minute]
281,11,refrigerator:InteriorEquipment:Electricity [J] !RunPeriod [Value,Min,Month,Day,Hour,Minute,Max,Month,Day,Hour,Minute]
318,11,electric_mels:InteriorEquipment:Electricity [J] !RunPeriod [Value,Min,Month,Day,Hour,Minute,Max,Month,Day,Hour,Minute]
355,11,NaturalGas:Facility [J] !RunPeriod [Value,Min,Month,Day,Hour,Minute,Max,Month,Day,Hour,Minute]
403,11,InteriorEquipment:NaturalGas [J] !RunPeriod [Value,Min,Month,Day,Hour,Minute,Max,Month,Day,Hour,Minute]
476,11,gas_dryer:InteriorEquipment:NaturalGas [J] !RunPeriod [Value,Min,Month,Day,Hour,Minute,Max,Month,Day,Hour,Minute]
513,11,gas_mels:InteriorEquipment:NaturalGas [J] !RunPeriod [Value,Min,Month,Day,Hour,Minute,Max,Month,Day,Hour,Minute]
End of Data Dictionary
1,EXTREME_WINTER,  40.65, -73.78,  -5.00,   3.40
5,7
1038,0.5,0.0, 1, 6, 1,15,0.25, 1, 8, 6,15
1039,0.0,0.0, 1, 6, 1,15,0.0, 1, 6, 1,15
581,0.4852250414571653,0.21097831185945587, 1,12,19,30,1.3171155897743791, 1, 7,19,52
582,9.279540540404783,0.313786283520622, 1,12,17,60,26.29215614692318, 1, 7,19,52
583,0.05409221466368142,0.002536398672281515, 1,11,23,15,0.09062638413673554, 1, 7,18,60
1115,1888381515.838732,0.0, 1, 6,23, 5,4081930.6439608806, 1, 9, 5,60
1128,638630003.5229087,0.0, 1, 6,23, 5,1280767.5186385754, 1, 9, 6,45
1153,4960859.589390532,0.0, 1, 6,23, 5,61553.140749544145, 1,12,11,60
1154,27250113.82454425,0.0, 1, 6, 1, 7,180000.0, 1,10,15,60
1155,682482941.7069479,0.0, 1, 6,12,25,6171355.281458725, 1, 7,24,60
1156,682482941.7069479,0.0, 1, 6,12,25,6171355.281458725, 1, 7,24,60
1292,-25076028.085592553,-39759.19789460155, 1,11, 5,60,-6233.987763625132, 1, 6,14,60
1306,354820682.83896625,0.0, 1, 6, 1, 7,4050000.0, 1, 6,21,45
1307,161369530.1909385,0.0, 1, 6, 1, 7,16628302.165139988, 1,10, 9,60
1308,354820682.83896625,0.0, 1, 6, 1, 7,4050000.0, 1, 6,21,45
13,2144505298.187083,488194.2613294991, 1,10,15,45,12223639.641775388, 1, 7,20,15
61,301924526.02383536,88139.10953165221, 1, 6, 1,15,1282023.4113694867, 1, 6,20,15
134,70666020.44019976,63564.01800854099, 1, 6, 4,15,156554.22484006523, 1,11,20,15
170,5241013.419656067,348.4159749238097, 1, 6, 4,15,17476.39704006126, 1,11,12,15
207,6509451.13922267,815.2532113832032, 1, 6, 3,15,22990.642799023623, 1,11,10,15
244,12749673.399825225,1521.856143006317, 1, 6, 4,15,53038.631142310165, 1,11,20,15
281,46165882.481495745,59938.60262432081, 1, 6, 5,15,81951.81706819107, 1, 6,19,15
318,0.0,0.0, 1, 6, 1,15,0.0, 1, 6, 1,15
355,197687796.27748066,18561.32405820678, 1, 6, 4,15,724774.895203776, 1,11,18,15
403,197687796.27748066,18561.32405820678, 1, 6, 4,15,724774.895203776, 1,11,18,15
476,106772067.24485716,7098.072629279515, 1, 6, 4,15,356036.3026282215, 1,11,12,15
513,0.0,0.0, 1, 6, 1,15,0.0, 1, 6, 1,15
562,63770150.24028914,0.0, 1,10,15,60,122587.30857968489, 1, 6, 1,15
1046,0.0,0.0, 1, 6, 1,15,0.0, 1, 6, 1,15
1096,0.0,0.0, 1, 6, 1,15,0.0, 1, 6, 1,15
1134,1353323918.6437905,180000.0, 1,10,15,60,7322034.291781217, 1, 7,24,60
1326,354820682.83896613,0.0, 1, 6, 1,15,4050000.0, 1, 6, 9,60
1379,0.0,0.0, 1, 6, 1,15,0.0, 1, 6, 1,15
1,EXTREME_SUMMER,  40.65, -73.78,  -5.00,   3.40
5,7
1038,0.0,0.0, 6,29, 1,15,0.0, 6,29, 1,15
1039,30.75,0.0, 6,29, 1,15,0.25, 6,29,17,15
581,0.25106968510703914,0.0, 7, 5,19,52,0.6482413082749569, 7, 1,16,48
582,5.804331591149861,0.042010910490244316, 7, 5,20,22,14.122304747526812, 7, 2,18,20
583,0.04049721326155218,0.0014210489914214786, 7, 2,23, 3,0.07100910054764696, 7, 1,16,48
1115,0.0,0.0, 6,29, 1,15,0.0, 6,29, 1,15
1128,0.0,0.0, 6,29, 1,15,0.0, 6,29, 1,15
1153,0.0,0.0, 6,29, 1,15,0.0, 6,29, 1,15
1154,0.0,0.0, 6,29, 1,15,0.0, 6,29, 1,15
1155,0.0,0.0, 6,29, 1,15,0.0, 6,29, 1,15
1156,0.0,0.0, 6,29, 1,15,0.0, 6,29, 1,15
1292,-21903281.783290107,-34352.28527637468, 7, 4,22,15,-3797.927987222797, 7, 4,10,59
1306,269670764.9654665,0.0, 6,29, 1,15,4050000.0, 6,29,16,60
1307,91557514.67690766,0.0, 6,29, 1,15,3991323.823768758, 7, 4,21,45
1308,269670764.9654665,0.0, 6,29, 1,15,4050000.0, 6,29,16,60
13,1216511413.6266766,165678.85398358418, 6,30, 4,60,6891090.163818558, 7, 2,21,15
61,301924526.02383536,88139.10953165221, 6,29, 1,15,1282023.4113694867, 6,29,20,15
134,70666020.44019976,63564.01800854099, 6,29, 4,15,156554.22484006523, 7, 4,20,15
170,5241013.419656067,348.4159749238097, 6,29, 4,15,17476.39704006126, 7, 4,12,15
207,6509451.13922267,815.2532113832032, 6,29, 3,15,22990.642799023623, 7, 4,10,15
244,12749673.399825225,1521.856143006317, 6,29, 4,15,53038.631142310165, 7, 4,20,15
281,46165882.481495745,59938.60262432081, 6,29, 5,15,81951.81706819107, 6,29,19,15
318,0.0,0.0, 6,29, 1,15,0.0, 6,29, 1,15
355,197687796.27748066,18561.32405820678, 6,29, 4,15,724774.895203776, 7, 4,18,15
403,197687796.27748066,18561.32405820678, 6,29, 4,15,724774.895203776, 7, 4,18,15
476,106772067.24485716,7098.072629279515, 6,29, 4,15,356036.3026282215, 7, 4,12,15
513,0.0,0.0, 6,29, 1,15,0.0, 6,29, 1,15
562,52892843.34866344,1443.1174157690848, 6,30, 4,60,122587.3085796849, 6,29,15,45
1046,0.0,0.0, 6,29, 1,15,0.0, 6,29, 1,15
1096,521357258.84851086,12532.609027621902, 6,30, 4,60,1354318.738641112, 7, 2,18,60
1134,0.0,0.0, 6,29, 1,15,0.0, 6,29, 1,15
1326,269670764.9654665,0.0, 6,29, 1,15,4050000.0, 6,29, 8,30
1379,0.0,0.0, 6,29, 1,15,0.0, 6,29, 1,15
1,ANNUAL,  40.65, -73.78,  -5.00,   3.40
5,365
1038,14.25,0.0, 1, 1, 1,15,0.25, 1, 2, 6,15
1039,479.25,0.0, 1, 1, 1,15,0.25, 3, 7,13,30
581,0.328920337345934,0.0, 5,30,23, 3,1.3821658262104353, 3, 2,14,60
582,6.336544980854002,0.0, 1, 3, 5,45,34.09242543617209, 2,12,15,60
583,0.0267296509366948,0.0, 5,30,23, 3,0.09596980050366828, 3, 2,14,60
1115,21482988503.779743,0.0, 1, 1,15,15,4528346.649663679, 3,12, 6,30
1128,6699800772.638164,0.0, 1, 1,15,15,1311667.5565704291, 3,12, 7,15
1153,97737273.86698125,0.0, 1, 1,15,15,93833.81774833446,10,29,22,60
1154,1601281299.958417,0.0, 1, 1, 6, 5,180000.0, 1, 1,15,15
1155,3002731150.6723056,0.0, 1, 1, 1, 7,6177819.125173074, 1, 7,24,60
1156,3002731150.6723056,0.0, 1, 1, 1, 7,6177819.125173074, 1, 7,24,60
1292,-1211259241.107297,-39824.069554574606,12,20,23,30,-1724.3275928758962, 4,27, 9,46
1306,16181191284.389496,0.0, 1, 1, 1, 7,4050000.0, 1, 1,21,15
1307,6477333406.683653,0.0, 1, 1, 1, 7,17020932.726101283, 2, 3, 9,60
1308,16181191284.389496,0.0, 1, 1, 1, 7,4050000.0, 1, 1,21,15
13,57771222260.2606,151703.1275401932, 4,13, 4,45,12492879.31500625, 1, 7,21,45
61,15743207428.383959,88139.10953165221, 1, 1, 1,15,1282023.4113694867, 1, 1,20,15
134,3685071073.4325233,63564.01800854099, 1, 2, 4,15,156554.22484006523, 1, 1,20,15
170,273393721.45532674,348.4159749238097, 1, 2, 4,15,17476.39704006126, 1, 1,12,15
207,339560869.0695816,815.2532113832032, 1, 2, 3,15,22990.642799023623, 1, 1,10,15
244,664895467.8009144,1521.856143006317, 1, 2, 4,15,53038.631142310165, 1, 1,20,15
281,2407221015.106824,59938.60262432081, 1, 1, 5,15,81951.81706819107, 1, 1,19,15
318,0.0,0.0, 1, 1, 1,15,0.0, 1, 1, 1,15
355,10310294493.051695,18561.32405820678, 1, 2, 4,15,724774.895203776, 1, 1,18,15
403,10310294493.051695,18561.32405820678, 1, 2, 4,15,724774.895203776, 1, 1,18,15
476,5569688622.066177,7098.072629279515, 1, 2, 4,15,356036.3026282215, 1, 1,12,15
513,0.0,0.0, 1, 1, 1,15,0.0, 1, 1, 1,15
562,1634947977.082059,0.0, 1, 1,15,15,122587.3085796849, 5,30,13,60
1046,0.0,0.0, 1, 1, 1,15,0.0, 1, 1, 1,15
1096,9125253999.835268,0.0, 1, 1, 1,15,1482893.03633426, 7, 8,14,60
1134,11401550497.135862,0.0, 1, 4,13,60,7374135.591363852, 1,31, 7,15
1326,16181191284.389498,0.0, 1, 1, 1,15,4050000.0000000014, 4,11, 9,60
1379,0.0,0.0, 1, 1, 1,15,0.0, 1, 1, 1,15
End of Data
 Number of Records Written=          99
