Program Version,EnergyPlus, Version 22.2.0-c249759bad, YMD=2023.07.07 15:18
1,5,Environment Title[],Latitude[deg],Longitude[deg],Time Zone[],Elevation[m]
2,8,Day of Simulation[],Month[],Day of Month[],DST Indicator[1=yes 0=no],Hour[],StartMinute[],EndMinute[],DayType
3,5,Cumulative Day of Simulation[],Month[],Day of Month[],DST Indicator[1=yes 0=no],DayType  ! When Daily Report Variables Requested
4,2,Cumulative Days of Simulation[],Month[]  ! When Monthly Report Variables Requested
5,1,Cumulative Days of Simulation[] ! When Run Period Report Variables Requested
6,1,Calendar Year of Simulation[] ! When Annual Report Variables Requested
581,11,LIVING,AFN Zone Infiltration Air Change Rate [ach] !RunPeriod [Value,Min,Month,Day,Hour,Minute,Max,Month,Day,Hour,Minute]
582,11,ATTIC,AFN Zone Infiltration Air Change Rate [ach] !RunPeriod [Value,Min,Month,Day,Hour,Minute,Max,Month,Day,Hour,Minute]
583,11,CRAWLSPACE,AFN Zone Infiltration Air Change Rate [ach] !RunPeriod [Value,Min,Month,Day,Hour,Minute,Max,Month,Day,Hour,Minute]
1038,11,Facility,Facility Heating Setpoint Not Met Time [hr] !RunPeriod [Value,Min,Month,Day,Hour,Minute,Max,Month,Day,Hour,Minute]
1039,11,Facility,Facility Cooling Setpoint Not Met Time [hr] !RunPeriod [Value,Min,Month,Day,Hour,Minute,Max,Month,Day,Hour,Minute]
1115,11,DX_HEATING_COIL,Heating Coil Heating Energy [J] !RunPeriod [Value,Min,Month,Day,Hour,Minute,Max,Month,Day,Hour,Minute]
1128,11,DX_HEATING_COIL,Heating Coil Electricity Energy [J] !RunPeriod [Value,Min,Month,Day,Hour,Minute,Max,Month,Day,Hour,Minute]
1153,11,DX_HEATING_COIL,Heating Coil Defrost Electricity Energy [J] !RunPeriod [Value,Min,Month,Day,Hour,Minute,Max,Month,Day,Hour,Minute]
1154,11,DX_HEATING_COIL,Heating Coil Crankcase Heater Electricity Energy [J] !RunPeriod [Value,Min,Month,Day,Hour,Minute,Max,Month,Day,Hour,Minute]
1156,11,HEATING_RESISTANCE_BACKUP,Heating Coil Electricity Energy [J] !RunPeriod [Value,Min,Month,Day,Hour,Minute,Max,Month,Day,Hour,Minute]
13,11,Electricity:Facility [J] !RunPeriod [Value,Min,Month,Day,Hour,Minute,Max,Month,Day,Hour,Minute]
1134,11,Heating:Electricity [J] !RunPeriod [Value,Min,Month,Day,Hour,Minute,Max,Month,Day,Hour,Minute]
1096,11,Cooling:Electricity [J] !RunPeriod [Value,Min,Month,Day,Hour,Minute,Max,Month,Day,Hour,Minute]
562,11,Fans:Electricity [J] !RunPeriod [Value,Min,Month,Day,Hour,Minute,Max,Month,Day,Hour,Minute]
1388,11,Pumps:Electricity [J] !RunPeriod [Value,Min,Month,Day,Hour,Minute,Max,Month,Day,Hour,Minute]
1360,11,WaterSystems:Electricity [J] !RunPeriod [Value,Min,Month,Day,Hour,Minute,Max,Month,Day,Hour,Minute]
61,11,InteriorLights:Electricity [J] !RunPeriod [Value,Min,Month,Day,Hour,Minute,Max,Month,Day,Hour,Minute]
1046,11,ExteriorLights:Electricity [J] !RunPeriod [Value,Min,Month,Day,Hour,Minute,Max,Month,Day,Hour,Minute]
134,11,InteriorEquipment:Electricity [J] !RunPeriod [Value,Min,Month,Day,Hour,Minute,Max,Month,Day,Hour,Minute]
170,11,gas_dryer:InteriorEquipment:Electricity [J] !RunPeriod [Value,Min,Month,Day,Hour,Minute,Max,Month,Day,Hour,Minute]
207,11,clotheswasher:InteriorEquipment:Electricity [J] !RunPeriod [Value,Min,Month,Day,Hour,Minute,Max,Month,Day,Hour,Minute]
244,11,dishwasher:InteriorEquipment:Electricity [J] !RunPeriod [Value,Min,Month,Day,Hour,Minute,Max,Month,Day,Hour,Minute]
281,11,refrigerator:InteriorEquipment:Electricity [J] !RunPeriod [Value,Min,Month,Day,Hour,Minute,Max,Month,Day,Hour,Minute]
318,11,electric_mels:InteriorEquipment:Electricity [J] !RunPeriod [Value,Min,Month,Day,Hour,Minute,Max,Month,Day,Hour,Minute]
355,11,NaturalGas:Facility [J] !RunPeriod [Value,Min,Month,Day,Hour,Minute,Max,Month,Day,Hour,Minute]
1323,11,WaterSystems:NaturalGas [J] !RunPeriod [Value,Min,Month,Day,Hour,Minute,Max,Month,Day,Hour,Minute]
403,11,InteriorEquipment:NaturalGas [J] !RunPeriod [Value,Min,Month,Day,Hour,Minute,Max,Month,Day,Hour,Minute]
476,11,gas_dryer:InteriorEquipment:NaturalGas [J] !RunPeriod [Value,Min,Month,Day,Hour,Minute,Max,Month,Day,Hour,Minute]
513,11,gas_mels:InteriorEquipment:NaturalGas [J] !RunPeriod [Value,Min,Month,Day,Hour,Minute,Max,Month,Day,Hour,Minute]
End of Data Dictionary
1,EXTREME_WINTER,  32.32, -90.08,  -6.00,  91.10
5,7
1038,0.16666666666666666,0.0,12, 8, 1,10,0.16666666666666666,12,10, 6,10
1039,0.0,0.0,12, 8, 1,10,0.0,12, 8, 1,10
581,0.20783335373018946,0.11614583730355772,12,13, 3,60,0.3765582414668484,12,10,13,60
582,1.7847465445579904,0.0,12, 8, 1,20,5.254703234467915,12,10,13,60
583,2.2121483799807447,0.00015358434234061236,12, 9,10,17,6.777397209618231,12,14,20,60
1115,325433864.3647396,0.0,12, 8, 1,10,2739767.385096425,12,12, 6,30
1128,104379976.54515493,0.0,12, 8, 1,10,852539.0282475861,12,12, 6,30
1153,6578178.545635908,0.0,12, 8, 1,10,58293.95145599764,12,12, 6,30
1154,57624467.71188518,0.0,12, 8, 6, 2,120000.0,12, 8, 1,10
1156,3127215.0996406134,0.0,12, 8, 1,10,610542.2537902356,12,12, 6, 3
13,586269480.0397358,106361.20013227512,12,13, 4,10,2206835.4244860103,12,12, 6,10
61,301924526.0238348,58759.40635443481,12, 8, 1,10,854682.2742463244,12, 8,20,10
134,70666020.44019979,42376.01200569399,12, 8, 4,10,104369.48322671017,12,13,20,10
170,5241013.419656074,232.27731661587313,12, 8, 4,10,11650.931360040839,12,13,12,10
207,6509451.13922266,543.5021409221355,12, 8, 3,10,15327.095199349082,12,13,10,10
244,12749673.39982522,1014.5707620042115,12, 8, 4,10,35359.08742820678,12,13,20,10
281,46165882.48149605,39959.06841621388,12, 8, 5,10,54634.54471212738,12, 8,19,10
318,0.0,0.0,12, 8, 1,10,0.0,12, 8, 1,10
355,714293225.1126945,12374.216038804521,12, 8, 4,10,3829218.154066982,12, 9,18,60
403,197687796.27748126,12374.216038804521,12, 8, 4,10,483183.26346918393,12,13,18,10
476,106772067.24485692,4732.048419519677,12, 8, 4,10,237357.535085481,12,13,12,10
513,0.0,0.0,12, 8, 1,10,0.0,12, 8, 1,10
562,14518726.221171238,0.0,12, 8, 1,10,96007.95357137983,12,12, 6,30
1046,0.0,0.0,12, 8, 1,10,0.0,12, 8, 1,10
1096,22430529.452214412,0.0,12, 8, 1,10,295732.7295134618,12,14,17,10
1134,171709837.9023166,0.0,12, 8,14,60,1702884.6395273646,12,12, 6,10
1323,516605428.8352104,0.0,12, 8, 1,10,3375000.0000000005,12, 8,21,60
1360,5019840.0,4980.0,12, 8, 1,10,4980.000000000002,12, 8,16,50
1388,0.0,0.0,12, 8, 1,10,0.0,12, 8, 1,10
1,EXTREME_SUMMER,  32.32, -90.08,  -6.00,  91.10
5,7
1038,0.0,0.0, 6,29, 1,10,0.0, 6,29, 1,10
1039,50.16666666666666,0.0, 6,29, 1,10,0.16666666666666666, 6,29,15,40
581,0.048681963678399554,0.0, 6,29, 2, 5,0.475523129126378, 6,30,18,53
582,2.0861867854092444,0.0, 7, 1,20,45,10.204091815890243, 6,30,18,53
583,2.3160452792647552,0.0, 7, 1,23, 2,14.290536156161139, 6,30,18,53
1115,0.0,0.0, 6,29, 1,10,0.0, 6,29, 1,10
1128,0.0,0.0, 6,29, 1,10,0.0, 6,29, 1,10
1153,0.0,0.0, 6,29, 1,10,0.0, 6,29, 1,10
1154,0.0,0.0, 6,29, 1,10,0.0, 6,29, 1,10
1156,0.0,0.0, 6,29, 1,10,0.0, 6,29, 1,10
13,1058842003.3205433,163088.13314410078, 6,29, 4,60,2072712.5700378867, 7, 4,20,10
61,301924526.0238348,58759.40635443481, 6,29, 1,10,854682.2742463244, 6,29,20,10
134,70666020.44019979,42376.01200569399, 6,29, 4,10,104369.48322671017, 7, 4,20,10
170,5241013.419656074,232.27731661587313, 6,29, 4,10,11650.931360040839, 7, 4,12,10
207,6509451.13922266,543.5021409221355, 6,29, 3,10,15327.095199349082, 7, 4,10,10
244,12749673.39982522,1014.5707620042115, 6,29, 4,10,35359.08742820678, 7, 4,20,10
281,46165882.48149605,39959.06841621388, 6,29, 5,10,54634.54471212738, 6,29,19,10
318,0.0,0.0, 6,29, 1,10,0.0, 6,29, 1,10
355,654682672.0650073,12374.216038804521, 6,29, 4,10,3829218.154066982, 6,30,18,60
403,197687796.27748126,12374.216038804521, 6,29, 4,10,483183.26346918393, 7, 4,18,10
476,106772067.24485692,4732.048419519677, 6,29, 4,10,237357.535085481, 7, 4,12,10
513,0.0,0.0, 6,29, 1,10,0.0, 6,29, 1,10
562,62697120.112247646,3127.1037431049017, 6,30,23,10,96007.95357137984, 6,29,18,20
1046,0.0,0.0, 6,29, 1,10,0.0, 6,29, 1,10
1096,618534496.7442594,26716.51924784888, 6,30,23,10,1083897.3428804681, 7, 5,16,60
1134,0.0,0.0, 6,29, 1,10,0.0, 6,29, 1,10
1323,456994875.78752464,0.0, 6,29, 1,10,3375000.0000000005, 6,29,21,40
1360,5019840.0,4980.0, 6,29, 1,10,4980.000000000002, 7, 1,21,30
1388,0.0,0.0, 6,29, 1,10,0.0, 6,29, 1,10
1,ANNUAL,  32.32, -90.08,  -6.00,  91.10
5,365
1038,4.333333333333332,0.0, 1, 1, 1,10,0.16666666666666666, 1, 1, 6,10
1039,931.8333333333333,0.0, 1, 1, 1,10,0.16666666666666666, 4, 2,17,20
581,0.14786000558003276,0.0, 3,23,20,45,0.8347762219361416, 8, 9,14,51
582,2.683753749540565,0.0, 1, 2, 8,60,24.327167808218814, 8, 9,14,51
583,3.2836795149642573,0.0, 5,10,23, 2,28.11276859492447, 8, 9,14,51
1115,4094338748.6499267,0.0, 1, 1,15,50,3056941.093495946, 1,23, 5,50
1128,1241531820.4310753,0.0, 1, 1,15,50,887599.944055237, 2,27, 6,30
1153,64363433.919918455,0.0, 1, 1, 1, 3,58293.95145599764,12,12, 6,30
1154,1026770717.5019813,0.0, 1, 1, 6, 3,120000.0, 1, 1,15,50
1156,42799220.7862344,0.0, 1, 1, 1, 3,965774.6518532955, 1,24, 6,30
13,40363063679.46246,106115.4183601288, 1, 9, 4,10,2969312.9055021154, 1,24, 6,10
61,15743207428.39043,58759.40635443481, 1, 1, 1,10,854682.2742463244, 1, 1,20,10
134,3685071073.433083,42376.01200569399, 1, 2, 4,10,104369.48322671017, 1, 1,20,10
170,273393721.45534325,232.27731661587313, 1, 2, 4,10,11650.931360040839, 1, 1,12,10
207,339560869.06955314,543.5021409221355, 1, 2, 3,10,15327.095199349082, 1, 1,10,10
244,664895467.8009839,1014.5707620042115, 1, 2, 4,10,35359.08742820678, 1, 1,20,10
281,2407221015.1057043,39959.06841621388, 1, 1, 5,10,54634.54471212738, 1, 1,19,10
318,0.0,0.0, 1, 1, 1,10,0.0, 1, 1, 1,10
355,35637694077.02391,12374.216038804521, 1, 2, 4,10,3829218.154066983,12,26,18,60
403,10310294493.052883,12374.216038804521, 1, 2, 4,10,483183.26346918393, 1, 1,18,10
476,5569688622.065564,4732.048419519677, 1, 2, 4,10,237357.535085481, 1, 1,12,10
513,0.0,0.0, 1, 1, 1,10,0.0, 1, 1, 1,10
562,1948164568.108603,0.0, 1, 1,15,50,96007.95357137984, 5,22,18,30
1046,0.0,0.0, 1, 1, 1,10,0.0, 1, 1, 1,10
1096,16349406616.89699,0.0, 1, 1, 1,10,1085719.5598535524, 7, 5,16,60
1134,2375465192.6392255,0.0, 1, 3,12,60,2455745.628920083, 1,24, 6,10
1323,25327399583.975143,0.0, 1, 1, 1,10,3375000.000000001, 1, 7, 8,50
1360,261748800.0,4979.999999999998, 2,10, 9,60,4980.000000000002, 3, 6,17,20
1388,0.0,0.0, 1, 1, 1,10,0.0, 1, 1, 1,10
End of Data
 Number of Records Written=          87
