Program Version,EnergyPlus, Version 22.2.0-c249759bad, YMD=2023.09.01 14:31
1,5,Environment Title[],Latitude[deg],Longitude[deg],Time Zone[],Elevation[m]
2,8,Day of Simulation[],Month[],Day of Month[],DST Indicator[1=yes 0=no],Hour[],StartMinute[],EndMinute[],DayType
3,5,Cumulative Day of Simulation[],Month[],Day of Month[],DST Indicator[1=yes 0=no],DayType  ! When Daily Report Variables Requested
4,2,Cumulative Days of Simulation[],Month[]  ! When Monthly Report Variables Requested
5,1,Cumulative Days of Simulation[] ! When Run Period Report Variables Requested
6,1,Calendar Year of Simulation[] ! When Annual Report Variables Requested
7,1,Environment,Site Outdoor Air Drybulb Temperature [C] !Hourly
545,1,LIVING,Zone Mean Air Temperature [C] !Hourly
546,1,ATTIC,Zone Mean Air Temperature [C] !Hourly
547,1,CRAWLSPACE,Zone Mean Air Temperature [C] !Hourly
548,1,FAN,Fan Electricity Rate [W] !Hourly
720,1,LIVING,Zone Predicted Sensible Load to Heating Setpoint Heat Transfer Rate [W] !Hourly
721,1,LIVING,Zone System Predicted Sensible Load to Heating Setpoint Heat Transfer Rate [W] !Hourly
784,1,ATTIC,Zone Predicted Sensible Load to Heating Setpoint Heat Transfer Rate [W] !Hourly
785,1,ATTIC,Zone System Predicted Sensible Load to Heating Setpoint Heat Transfer Rate [W] !Hourly
848,1,CRAWLSPACE,Zone Predicted Sensible Load to Heating Setpoint Heat Transfer Rate [W] !Hourly
849,1,CRAWLSPACE,Zone System Predicted Sensible Load to Heating Setpoint Heat Transfer Rate [W] !Hourly
1121,1,DX_HEATING_COIL,Heating Coil Heating Rate [W] !Hourly
1135,1,DX_HEATING_COIL,Heating Coil Electricity Rate [W] !Hourly
1161,1,DX_HEATING_COIL,Heating Coil Defrost Electricity Rate [W] !Hourly
1163,1,DX_HEATING_COIL,Heating Coil Crankcase Heater Electricity Rate [W] !Hourly
1166,1,HEATING_RESISTANCE_BACKUP,Heating Coil Heating Rate [W] !Hourly
1168,1,HEATING_RESISTANCE_BACKUP,Heating Coil Electricity Rate [W] !Hourly
End of Data Dictionary
1,EXTREME_WINTER,  40.28, -74.82,  -5.00,  65.00
2,1, 1, 8, 0, 1, 0.00,60.00,Monday
7,-0.6
545,18.79265357248165
546,-0.32283325202855084
547,19.094617403601518
548,88.3885424026009
720,1720.6256530959472
721,1720.6256530959472
784,0.0
785,0.0
848,0.0
849,0.0
1121,2657.554127331987
1135,833.4424260559834
1161,21.79236208176566
1163,66.17840962721448
1166,0.0
1168,0.0
2,1, 1, 8, 0, 2, 0.00,60.00,Monday
7,-1.1
545,18.619772395111983
546,0.5102465196692452
547,18.756494535415168
548,96.84988626416767
720,1901.4662301500975
721,1901.4662301500975
784,0.0
785,0.0
848,0.0
849,0.0
1121,2838.3282931887884
1135,898.35340030561
1161,36.117878873215425
1163,52.98083799591191
1166,0.0
1168,0.0
2,1, 1, 8, 0, 3, 0.00,60.00,Monday
7,-1.0
545,18.587545637969267
546,1.1110994841786466
547,18.575808112054297
548,105.75114019759707
720,2112.825395251546
721,2112.825395251546
784,0.0
785,0.0
848,0.0
849,0.0
1121,3092.7549749301224
1135,965.9820100105961
1161,49.32497514834079
1163,39.20657692249052
1166,0.0
1168,0.0
2,1, 1, 8, 0, 4, 0.00,60.00,Monday
7,-2.0
545,18.560939382769792
546,1.673058106386369
547,18.37567757850326
548,118.81202766054534
720,2292.079670771611
721,2292.079670771611
784,0.0
785,0.0
848,0.0
849,0.0
1121,3347.2874360633505
1135,1055.8828999001491
1161,73.11658994942609
1163,18.53087798884785
1166,0.0
1168,0.0
2,1, 1, 8, 0, 5, 0.00,60.00,Monday
7,-2.0
545,18.583094764956687
546,1.4074744494609672
547,18.215562493582308
548,122.2577179486246
720,2369.202325283881
721,2369.202325283881
784,0.0
785,0.0
848,0.0
849,0.0
1121,3456.1138852788627
1135,1085.7279414800976
1161,75.23688082925437
1163,13.268497390452438
1166,0.0
1168,0.0
2,1, 1, 8, 0, 6, 0.00,60.00,Monday
7,-2.0
545,19.335144176272607
546,1.7183041491645048
547,18.059781043470924
548,132.62967704286433
720,3367.2893396685813
721,3367.2893396685813
784,0.0
785,0.0
848,0.0
849,0.0
1121,3779.826958030775
1135,1163.1548738042422
1161,80.5829544322507
1163,0.0
1166,909.4557784510016
1168,909.4557784510016
2,1, 1, 8, 0, 7, 0.00,60.00,Monday
7,-1.7
545,19.605558380011253
546,1.8946600049661027
547,17.95600963138027
548,132.62967704286433
720,3141.4442131656942
721,3141.4442131656942
784,0.0
785,0.0
848,0.0
849,0.0
1121,3858.1892708472683
1135,1202.4436476437634
1161,66.96490426235937
1163,0.0
1166,648.0897638438169
1168,648.0897638438169
2,1, 1, 8, 0, 8, 0.00,60.00,Monday
7,-2.0
545,19.689375775743517
546,1.921608275046142
547,17.830338867592577
548,132.62967704286433
720,2904.092355937988
721,2904.092355937988
784,0.0
785,0.0
848,0.0
849,0.0
1121,3814.678831836991
1135,1203.6596725815564
1161,68.35870242528159
1163,0.0
1166,433.9941870424259
1168,433.9941870424259
2,1, 1, 8, 0, 9, 0.00,60.00,Monday
7,-1.7
545,19.763576499527336
546,2.5088954665308325
547,17.719937069368438
548,121.31483844165716
720,2295.846492017474
721,2295.846492017474
784,0.0
785,0.0
848,0.0
849,0.0
1121,3511.862786288483
1135,1124.7153925193645
1161,56.777614249231355
1163,15.367296360515326
1166,0.0
1168,0.0
2,1, 1, 8, 0,10, 0.00,60.00,Monday
7,-1.1
545,19.836309236921796
546,3.5207130145844707
547,17.624014522343305
548,88.8246706780404
720,1620.7772576166171
721,1620.7772576166171
784,0.0
785,0.0
848,0.0
849,0.0
1121,2548.85737027504
1135,831.9643381042991
1161,38.62902053120385
1163,65.00152150215735
1166,0.0
1168,0.0
2,1, 1, 8, 0,11, 0.00,60.00,Monday
7,-1.0
545,19.898378233073483
546,5.322532336390522
547,17.5433219052818
548,55.68078800332066
720,948.2881065930669
721,948.2881065930669
784,0.0
785,0.0
848,0.0
849,0.0
1121,1547.6628970604522
1135,520.5286923344711
1161,25.97218956749334
1163,115.3338191693805
1166,0.0
1168,0.0
2,1, 1, 8, 0,12, 0.00,60.00,Monday
7,-1.0
545,19.761582310954623
546,6.270392360096553
547,17.477714090668567
548,57.66650766122959
720,1141.7940768564767
721,1141.7940768564767
784,0.0
785,0.0
848,0.0
849,0.0
1121,1649.7811556395332
1135,552.8997185695999
1161,16.269902934418525
1163,112.61201297271643
1166,0.0
1168,0.0
2,1, 1, 8, 0,13, 0.00,60.00,Monday
7,0.0
545,19.505510013064544
546,5.343277551413759
547,17.422631894432513
548,61.929061968817635
720,1331.7812407121382
721,1331.7812407121382
784,0.0
785,0.0
848,0.0
849,0.0
1121,1838.2647644961885
1135,599.5763005853222
1161,15.330554494326519
1163,106.26941835588171
1166,0.0
1168,0.0
2,1, 1, 8, 0,14, 0.00,60.00,Monday
7,0.0
545,19.86343806540061
546,5.830038733404918
547,17.3710757988987
548,65.03726007477046
720,1387.569282668719
721,1387.569282668719
784,0.0
785,0.0
848,0.0
849,0.0
1121,1919.429613615831
1135,620.972014069606
1161,20.4183725112842
1163,101.46470452084908
1166,0.0
1168,0.0
2,1, 1, 8, 0,15, 0.00,60.00,Monday
7,0.0
545,19.773489805246683
546,5.596526124742382
547,17.33130568434829
548,56.63859255819359
720,1171.8295562249277
721,1171.8295562249277
784,0.0
785,0.0
848,0.0
849,0.0
1121,1656.3330202449358
1135,544.5856770546493
1161,17.781769078584535
1163,114.18846583722373
1166,0.0
1168,0.0
2,1, 1, 8, 0,16, 0.00,60.00,Monday
7,0.0
545,19.187341355778127
546,4.0899914139147615
547,17.272847579926946
548,69.22419304345324
720,1485.4274151849131
721,1485.4274151849131
784,0.0
785,0.0
848,0.0
849,0.0
1121,2047.9128795873107
1135,664.3244360107437
1161,21.732987058689126
1163,95.12061745915274
1166,0.0
1168,0.0
2,1, 1, 8, 0,17, 0.00,60.00,Monday
7,-1.0
545,19.730500911188404
546,3.4511043915291912
547,17.211550967269165
548,79.93645888811915
720,1659.8644316633909
721,1659.8644316633909
784,0.0
785,0.0
848,0.0
849,0.0
1121,2314.3638675235893
1135,747.8304187495462
1161,28.774981570059094
1163,78.69497193618385
1166,0.0
1168,0.0
2,1, 1, 8, 0,18, 0.00,60.00,Monday
7,-1.7
545,19.91141672890437
546,2.455825707979462
547,17.182709350943913
548,71.74790315910236
720,1403.703702103554
721,1403.703702103554
784,0.0
785,0.0
848,0.0
849,0.0
1121,2050.9037077297467
1135,684.6434036893457
1161,17.74894176286114
1163,91.29209539258348
1166,0.0
1168,0.0
2,1, 1, 8, 0,19, 0.00,60.00,Monday
7,-2.0
545,19.805475930059426
546,1.8593611247796584
547,17.129272175317478
548,65.15620388464329
720,1221.3088031630941
721,1221.3088031630941
784,0.0
785,0.0
848,0.0
849,0.0
1121,1837.0109250905916
1135,623.2107287165901
1161,15.523559337661968
1163,101.27782765690108
1166,0.0
1168,0.0
2,1, 1, 8, 0,20, 0.00,60.00,Monday
7,-2.0
545,19.70949073892239
546,1.132735605869275
547,17.06081620579659
548,66.56762443761062
720,1256.1171415756053
721,1256.1171415756053
784,0.0
785,0.0
848,0.0
849,0.0
1121,1880.216769110456
1135,635.3441068348011
1161,15.859789185997164
1163,99.13957184119326
1166,0.0
1168,0.0
2,1, 1, 8, 0,21, 0.00,60.00,Monday
7,-2.8
545,19.245627845558147
546,0.6689066100156434
547,16.973145199473013
548,91.36891041101325
720,1829.7890028710208
721,1829.7890028710208
784,0.0
785,0.0
848,0.0
849,0.0
1121,2663.7430620568357
1135,888.3331894580921
1161,1.836308976601048
1163,62.159541465974
1166,0.0
1168,0.0
2,1, 1, 8, 0,22, 0.00,60.00,Monday
7,-3.9
545,19.558363099376802
546,0.16011949948724277
547,16.87140769042246
548,113.40481720312486
720,2224.43755288129
721,2224.43755288129
784,0.0
785,0.0
848,0.0
849,0.0
1121,3270.0206094091595
1135,1080.2323924030038
1161,4.165472574634422
1163,28.83464115282568
1166,0.0
1168,0.0
2,1, 1, 8, 0,23, 0.00,60.00,Monday
7,-5.0
545,18.902295131311202
546,-1.036246308639667
547,16.793459153382205
548,98.36458262646532
720,1717.0306441571993
721,1717.0306441571993
784,0.0
785,0.0
848,0.0
849,0.0
1121,2720.081375096247
1135,938.0008728749904
1161,0.04738477609534765
1163,51.66832491091719
1166,0.0
1168,0.0
2,1, 1, 8, 0,24, 0.00,60.00,Monday
7,-5.0
545,18.599808109190445
546,-1.1656630797103962
547,16.658623107379103
548,118.88587630726754
720,2202.6223469257384
721,2202.6223469257384
784,0.0
785,0.0
848,0.0
849,0.0
1121,3361.9845117044515
1135,1119.1044332660656
1161,0.057270413799909416
1163,20.722664281628877
1166,0.0
1168,0.0
2,2, 1, 9, 0, 1, 0.00,60.00,Tuesday
7,-5.6
545,18.557418201129117
546,-1.617677248689405
547,16.5366762605132
548,132.62967704286433
720,2723.03938415033
721,2723.03938415033
784,0.0
785,0.0
848,0.0
849,0.0
1121,3710.6007988845845
1135,1225.0172946306968
1161,7.261251731671996
1163,0.0
1166,396.17233123905226
1168,396.17233123905226
2,2, 1, 9, 0, 2, 0.00,60.00,Tuesday
7,-5.6
545,18.575222721482934
546,-1.6965190752665662
547,16.425100383815
548,132.62967704286433
720,3112.0149271959817
721,3112.0149271959817
784,0.0
785,0.0
848,0.0
849,0.0
1121,3711.625091037629
1135,1223.8551586427482
1161,7.2570086193607235
1163,0.0
1166,904.8083308576465
1168,904.8083308576465
2,2, 1, 9, 0, 3, 0.00,60.00,Tuesday
7,-6.1
545,18.586468130169457
546,-2.0995667974569345
547,16.30834018334365
548,132.62967704286433
720,3320.240556820536
721,3320.240556820536
784,0.0
785,0.0
848,0.0
849,0.0
1121,3649.2424361194717
1135,1216.1775759552008
1161,9.384832796496354
1163,0.0
1166,1233.3054475853169
1168,1233.3054475853169
2,2, 1, 9, 0, 4, 0.00,60.00,Tuesday
7,-6.1
545,18.5781062184059
546,-2.0848793887561063
547,16.189081192769127
548,132.62967704286433
720,3854.8969718205262
721,3854.8969718205262
784,0.0
785,0.0
848,0.0
849,0.0
1121,3649.1601564979906
1135,1216.2781003268924
1161,9.383906075162763
1163,0.0
1166,1891.5482692385704
1168,1891.5482692385704
2,2, 1, 9, 0, 5, 0.00,60.00,Tuesday
7,-6.1
545,18.60184531849977
546,-2.1748580640813087
547,16.078159269086914
548,132.62967704286433
720,3357.4062227682516
721,3357.4062227682516
784,0.0
785,0.0
848,0.0
849,0.0
1121,3649.4689169826747
1135,1215.949024707684
1161,9.379275212449585
1163,0.0
1166,1325.1818203299408
1168,1325.1818203299408
2,2, 1, 9, 0, 6, 0.00,60.00,Tuesday
7,-6.1
545,19.361192773577265
546,-2.269974577708902
547,15.96221063195229
548,132.62967704286433
720,4563.386963923724
721,4563.386963923724
784,0.0
785,0.0
848,0.0
849,0.0
1121,3649.159897419225
1135,1216.371234932963
1161,9.368272121291026
1163,0.0
1166,2723.418599293988
1168,2723.418599293988
2,2, 1, 9, 0, 7, 0.00,60.00,Tuesday
7,-6.1
545,19.60032886760335
546,-2.0628596422849625
547,15.884108426055311
548,132.62967704286433
720,4467.555879777186
721,4467.555879777186
784,0.0
785,0.0
848,0.0
849,0.0
1121,3650.7307509277825
1135,1239.957574258425
1161,5.091275596735
1163,0.0
1166,2704.5886091163097
1168,2704.5886091163097
2,2, 1, 9, 0, 8, 0.00,60.00,Tuesday
7,-6.1
545,19.677001277802642
546,-2.1956257225781792
547,15.781904576302214
548,132.62967704286433
720,4194.818135521351
721,4194.818135521351
784,0.0
785,0.0
848,0.0
849,0.0
1121,3657.254629648817
1135,1249.4679016792825
1161,2.221162394890314
1163,0.0
1166,2400.432051935892
1168,2400.432051935892
2,2, 1, 9, 0, 9, 0.00,60.00,Tuesday
7,-5.6
545,19.70521202771235
546,-1.0818867885594794
547,15.682763922557838
548,132.62967704286433
720,3742.782013368964
721,3742.782013368964
784,0.0
785,0.0
848,0.0
849,0.0
1121,3707.555739417969
1135,1255.7499591052365
1161,2.752587933455676
1163,0.0
1166,1846.2297390371245
1168,1846.2297390371245
2,2, 1, 9, 0,10, 0.00,60.00,Tuesday
7,-5.0
545,19.744205431502934
546,1.185949931567339
547,15.602645054642782
548,132.62967704286433
720,2610.9388006303907
721,2610.9388006303907
784,0.0
785,0.0
848,0.0
849,0.0
1121,3783.2940048264927
1135,1266.400831543033
1161,0.0638902999873628
1163,0.0
1166,396.72551393731464
1168,396.72551393731464
2,2, 1, 9, 0,11, 0.00,60.00,Tuesday
7,-3.9
545,19.80423195637222
546,2.690682196396119
547,15.540510204397846
548,123.70146791534893
720,2245.820407485011
721,2245.820407485011
784,0.0
785,0.0
848,0.0
849,0.0
1121,3611.235634956699
1135,1193.0280546953268
1161,0.05959011747967446
1163,13.461143580602686
1166,0.0
1168,0.0
2,2, 1, 9, 0,12, 0.00,60.00,Tuesday
7,-2.8
545,20.01785165476426
546,5.536630389270276
547,15.492747741086076
548,72.32949154818992
720,1214.4493181786547
721,1214.4493181786547
784,0.0
785,0.0
848,0.0
849,0.0
1121,2078.877005915082
1135,705.0998423850314
1161,0.034842888206683034
1163,90.92901985567514
1166,0.0
1168,0.0
2,2, 1, 9, 0,13, 0.00,60.00,Tuesday
7,-1.7
545,20.00606060166407
546,6.979953799552483
547,15.468460046114382
548,38.370068472978225
720,645.4397232753654
721,645.4397232753654
784,0.0
785,0.0
848,0.0
849,0.0
1121,1102.939230479287
1135,379.19960975469365
1161,0.01848377596461421
1163,142.13902276786862
1166,0.0
1168,0.0
2,2, 1, 9, 0,14, 0.00,60.00,Tuesday
7,-1.1
545,19.83046574444682
546,7.485067015439536
547,15.459131893882866
548,12.957575083515783
720,185.78032710297884
721,185.78032710297884
784,0.0
785,0.0
848,0.0
849,0.0
1121,370.6486561944
1135,128.7007765252748
1161,0.006241967928424079
1163,180.46035805229053
1166,0.0
1168,0.0
2,2, 1, 9, 0,15, 0.00,60.00,Tuesday
7,-1.1
545,20.05505162490019
546,7.190243787835554
547,15.475942993875957
548,0.0
720,-206.6959575164674
721,-206.6959575164674
784,0.0
785,0.0
848,0.0
849,0.0
1121,0.0
1135,0.0
1161,0.0
1163,200.0
1166,0.0
1168,0.0
2,2, 1, 9, 0,16, 0.00,60.00,Tuesday
7,-1.1
545,20.2859628986502
546,5.872487978564068
547,15.510688239167166
548,0.0
720,-516.4796518235471
721,-516.4796518235471
784,0.0
785,0.0
848,0.0
849,0.0
1121,0.0
1135,0.0
1161,0.0
1163,200.0
1166,0.0
1168,0.0
2,2, 1, 9, 0,17, 0.00,60.00,Tuesday
7,-2.2
545,19.985900994048844
546,3.6034366285452406
547,15.551502758778746
548,0.0
720,-240.90283850213746
721,-240.90283850213746
784,0.0
785,0.0
848,0.0
849,0.0
1121,0.0
1135,0.0
1161,0.0
1163,200.0
1166,0.0
1168,0.0
2,2, 1, 9, 0,18, 0.00,60.00,Tuesday
7,-3.3
545,19.655235369730686
546,1.5057115703489652
547,15.59777795200943
548,31.727909265453345
720,610.2929142771536
721,610.2929142771536
784,0.0
785,0.0
848,0.0
849,0.0
1121,867.122741586695
1135,309.16078820376333
1161,0.015284121740591431
1163,152.15511042015905
1166,0.0
1168,0.0
2,2, 1, 9, 0,19, 0.00,60.00,Tuesday
7,-4.4
545,19.63033552806521
546,-0.32784470691107315
547,15.604868767316285
548,54.57803920290788
720,1031.8350015584347
721,1031.8350015584347
784,0.0
785,0.0
848,0.0
849,0.0
1121,1476.8758189624623
1135,523.4739413215492
1161,0.026291636899710206
1163,117.69756315149382
1166,0.0
1168,0.0
2,2, 1, 9, 0,20, 0.00,60.00,Tuesday
7,-5.0
545,19.38592809848706
546,-1.2222231651696727
547,15.591165013395127
548,76.67498964538363
720,1393.4737528044461
721,1393.4737528044461
784,0.0
785,0.0
848,0.0
849,0.0
1121,2079.506600537458
1135,731.2417736118026
1161,0.03693633542512889
1163,84.37576460766432
1166,0.0
1168,0.0
2,2, 1, 9, 0,21, 0.00,60.00,Tuesday
7,-6.1
545,19.43638977435454
546,-1.810168519151519
547,15.545582147783605
548,107.08255366147115
720,1896.7463471458377
721,1896.7463471458377
784,0.0
785,0.0
848,0.0
849,0.0
1121,2894.5740442666665
1135,1006.8108464148149
1161,0.05158453565180055
1163,38.5215418866284
1166,0.0
1168,0.0
2,2, 1, 9, 0,22, 0.00,60.00,Tuesday
7,-6.7
545,19.391922758555097
546,-2.165215536508828
547,15.491972251983736
548,132.62967704286433
720,2358.2639880306833
721,2358.2639880306833
784,0.0
785,0.0
848,0.0
849,0.0
1121,3605.410001006179
1135,1241.5873404552742
1161,0.0638902999873628
1163,0.0
1166,102.74104058374087
1168,102.74104058374087
2,2, 1, 9, 0,23, 0.00,60.00,Tuesday
7,-7.2
545,18.8578012312299
546,-2.676681064956113
547,15.416625914856919
548,132.62967704286433
720,2387.702491671669
721,2387.702491671669
784,0.0
785,0.0
848,0.0
849,0.0
1121,3553.348135698082
1135,1235.1433405888874
1161,0.0638902999873628
1163,0.0
1166,325.85009500874366
1168,325.85009500874366
2,2, 1, 9, 0,24, 0.00,60.00,Tuesday
7,-8.3
545,18.688495753261343
546,-3.111404276917153
547,15.304040238326676
548,132.62967704286433
720,2494.5418063369925
721,2494.5418063369925
784,0.0
785,0.0
848,0.0
849,0.0
1121,3449.1749008905795
1135,1211.0226915086582
1161,0.0638902999873628
1163,0.0
1166,555.7156613195007
1168,555.7156613195007
2,3, 1,10, 0, 1, 0.00,60.00,Wednesday
7,-8.9
545,18.59658040777912
546,-3.833427971587532
547,15.196150267833412
548,132.62967704286433
720,3591.09963247003
721,3591.09963247003
784,0.0
785,0.0
848,0.0
849,0.0
1121,3390.8082060751667
1135,1200.703801378751
1161,0.0638902999873628
1163,0.0
1166,1909.2884928997796
1168,1909.2884928997796
2,3, 1,10, 0, 2, 0.00,60.00,Wednesday
7,-8.9
545,18.575863710488584
546,-3.959419744661259
547,15.090279984175199
548,132.62967704286433
720,3990.8902440600723
721,3990.8902440600723
784,0.0
785,0.0
848,0.0
849,0.0
1121,3392.795324929392
1135,1198.4743444190676
1161,0.0638902999873628
1163,0.0
1166,2433.1328557785637
1168,2433.1328557785637
2,3, 1,10, 0, 3, 0.00,60.00,Wednesday
7,-9.4
545,18.575423418587775
546,-4.215777360573075
547,14.978880042044077
548,132.62967704286433
720,4219.815135197878
721,4219.815135197878
784,0.0
785,0.0
848,0.0
849,0.0
1121,3342.173890531505
1135,1192.660700595926
1161,0.0638902999873628
1163,0.0
1166,2773.7833589954153
1168,2773.7833589954153
2,3, 1,10, 0, 4, 0.00,60.00,Wednesday
7,-9.4
545,18.582565977823965
546,-4.345297457088053
547,14.870339508316848
548,132.62967704286433
720,4150.710688102423
721,4150.710688102423
784,0.0
785,0.0
848,0.0
849,0.0
1121,3342.3014900873814
1135,1192.5184021672765
1161,0.0638902999873628
1163,0.0
1166,2711.949460641841
1168,2711.949460641841
2,3, 1,10, 0, 5, 0.00,60.00,Wednesday
7,-10.0
545,18.586038438303085
546,-4.71565795975311
547,14.753854403774758
548,132.62967704286433
720,4086.8000046392353
721,4086.8000046392353
784,0.0
785,0.0
848,0.0
849,0.0
1121,3281.1910543582853
1135,1186.1571429297876
1161,0.14241085197079842
1163,0.0
1166,2705.307774141184
1168,2705.307774141184
2,3, 1,10, 0, 6, 0.00,60.00,Wednesday
7,-10.0
545,19.35282949354927
546,-4.651053194644037
547,14.64334844072791
548,132.62967704286433
720,5193.474688780865
721,5193.474688780865
784,0.0
785,0.0
848,0.0
849,0.0
1121,3281.257547062613
1135,1186.0838637854833
1161,0.14235600590168324
1163,0.0
1166,4007.702493506597
1168,4007.702493506597
2,3, 1,10, 0, 7, 0.00,60.00,Wednesday
7,-10.0
545,19.584433808575458
546,-4.804215515298146
547,14.566890262982323
548,132.62967704286433
720,5319.610390106236
721,5319.610390106236
784,0.0
785,0.0
848,0.0
849,0.0
1121,3265.911346788117
1135,1203.0360789092892
1161,0.14224363324727526
1163,0.0
1166,4262.542441633364
1168,4262.542441633364
2,3, 1,10, 0, 8, 0.00,60.00,Wednesday
7,-9.4
545,19.665692703114182
546,-4.493812875515762
547,14.472802585178108
548,132.62967704286433
720,4840.163900630005
721,4840.163900630005
784,0.0
785,0.0
848,0.0
849,0.0
1121,3320.498775095569
1135,1214.1268103617579
1161,0.5648096589301776
1163,0.0
1166,3689.1947796299837
1168,3689.1947796299837
2,3, 1,10, 0, 9, 0.00,60.00,Wednesday
7,-7.8
545,19.716959406255643
546,-2.7560296130272723
547,14.389110926280539
548,132.62967704286433
720,3654.260812193921
721,3654.260812193921
784,0.0
785,0.0
848,0.0
849,0.0
1121,3485.823498634524
1135,1233.80368789195
1161,0.0638902999873628
1163,0.0
1166,2134.47244808084
1168,2134.47244808084
2,3, 1,10, 0,10, 0.00,60.00,Wednesday
7,-6.1
545,19.74889214127227
546,0.42159772099891285
547,14.318826498782581
548,132.62967704286433
720,2604.7721094049066
721,2604.7721094049066
784,0.0
785,0.0
848,0.0
849,0.0
1121,3665.2123722358933
1135,1253.0880116852538
1161,0.0638902999873628
1163,0.0
1166,631.7930415177143
1168,631.7930415177143
2,3, 1,10, 0,11, 0.00,60.00,Wednesday
7,-3.9
545,19.910893056001356
546,3.751408039854387
547,14.256144266354926
548,105.96589907726332
720,1766.3754576817737
721,1766.3754576817737
784,0.0
785,0.0
848,0.0
849,0.0
1121,3044.63343522196
1135,1020.7209138763876
1161,0.051046446380058584
1163,40.20595805574452
1166,0.0
1168,0.0
2,3, 1,10, 0,12, 0.00,60.00,Wednesday
7,-2.8
545,19.950047805080096
546,6.342302262048226
547,14.207839857636472
548,69.47551806473278
720,1182.752293489586
721,1182.752293489586
784,0.0
785,0.0
848,0.0
849,0.0
1121,1991.4929610009747
1135,677.7048022506165
1161,0.03346805931466712
1163,95.23273698421531
1166,0.0
1168,0.0
2,3, 1,10, 0,13, 0.00,60.00,Wednesday
7,-2.2
545,19.72042380199495
546,6.525579116553338
547,14.1944720803775
548,52.62359651918557
720,976.5040313282534
721,976.5040313282534
784,0.0
785,0.0
848,0.0
849,0.0
1121,1511.323531594829
1135,516.3397978661073
1161,0.025350055915860873
1163,120.64505591341724
1166,0.0
1168,0.0
2,3, 1,10, 0,14, 0.00,60.00,Wednesday
7,-1.7
545,20.004813338528855
546,7.136608469836702
547,14.19661439257388
548,35.15953485749105
720,662.6709309047583
721,662.6709309047583
784,0.0
785,0.0
848,0.0
849,0.0
1121,1009.8241846538109
1135,344.9463446625615
1161,0.01693718515346838
1163,146.98041750682503
1166,0.0
1168,0.0
2,3, 1,10, 0,15, 0.00,60.00,Wednesday
7,-1.1
545,20.107753884287593
546,6.9936076902657405
547,14.197442204381513
548,0.0
720,-56.42681287138112
721,-56.42681287138112
784,0.0
785,0.0
848,0.0
849,0.0
1121,0.0
1135,0.0
1161,0.0
1163,200.0
1166,0.0
1168,0.0
2,3, 1,10, 0,16, 0.00,60.00,Wednesday
7,-1.1
545,20.374122844272417
546,5.8555204301686405
547,14.246859074394106
548,0.0
720,-568.227058435341
721,-568.227058435341
784,0.0
785,0.0
848,0.0
849,0.0
1121,0.0
1135,0.0
1161,0.0
1163,200.0
1166,0.0
1168,0.0
2,3, 1,10, 0,17, 0.00,60.00,Wednesday
7,-2.2
545,20.33539217443516
546,3.542326486883855
547,14.298263572156385
548,0.0
720,-513.3795536939069
721,-513.3795536939069
784,0.0
785,0.0
848,0.0
849,0.0
1121,0.0
1135,0.0
1161,0.0
1163,200.0
1166,0.0
1168,0.0
2,3, 1,10, 0,18, 0.00,60.00,Wednesday
7,-3.3
545,19.763095755412994
546,1.1625083856529457
547,14.364177067590681
548,19.540515508632524
720,306.02022057692557
721,306.02022057692557
784,0.0
785,0.0
848,0.0
849,0.0
1121,527.7583763680275
1135,191.44594374922602
1161,0.009413151695816496
1163,170.53339333927568
1166,0.0
1168,0.0
2,3, 1,10, 0,19, 0.00,60.00,Wednesday
7,-3.9
545,19.700536456445796
546,-0.6149319604947057
547,14.403024384357254
548,35.995642411481384
720,659.0376463367065
721,659.0376463367065
784,0.0
785,0.0
848,0.0
849,0.0
1121,972.1665834760673
1135,346.9877165580278
1161,0.017340008916128125
1163,145.71943184001987
1166,0.0
1168,0.0
2,3, 1,10, 0,20, 0.00,60.00,Wednesday
7,-5.0
545,19.503300170814438
546,-1.739788349138582
547,14.415047286879554
548,52.528222177416396
720,921.5646006874194
721,921.5646006874194
784,0.0
785,0.0
848,0.0
849,0.0
1121,1394.7268054868848
1135,501.03598045495755
1161,0.025304209935934817
1163,120.78857059384643
1166,0.0
1168,0.0
2,3, 1,10, 0,21, 0.00,60.00,Wednesday
7,-5.0
545,19.64895419891953
546,-2.9786440785472075
547,14.404447535056462
548,68.57283589006968
720,1193.7670956169386
721,1193.7670956169386
784,0.0
785,0.0
848,0.0
849,0.0
1121,1848.486120592296
1135,651.537973625705
1161,0.033033316897255985
1163,96.59363971122434
1166,0.0
1168,0.0
2,3, 1,10, 0,22, 0.00,60.00,Wednesday
7,-5.0
545,19.549526048024653
546,-3.316746605384274
547,14.384944567227173
548,85.259746776156
720,1459.03934688773
721,1459.03934688773
784,0.0
785,0.0
848,0.0
849,0.0
1121,2330.7306536381398
1135,812.2860675426717
1161,0.041071835905721596
1163,71.43013598669779
1166,0.0
1168,0.0
2,3, 1,10, 0,23, 0.00,60.00,Wednesday
7,-5.0
545,18.82710852484948
546,-3.403260689895507
547,14.324434530438293
548,76.48319268029566
720,1211.6786970549565
721,1211.6786970549565
784,0.0
785,0.0
848,0.0
849,0.0
1121,2075.684975512651
1135,727.2860541789049
1161,0.03684394142668992
1163,84.66499160599503
1166,0.0
1168,0.0
2,3, 1,10, 0,24, 0.00,60.00,Wednesday
7,-5.6
545,18.540447652898816
546,-3.2987228396654644
547,14.263362743741785
548,104.30850936513663
720,1790.134085169775
721,1790.134085169775
784,0.0
785,0.0
848,0.0
849,0.0
1121,2863.913451691398
1135,972.9529395295136
1161,0.05024816237726941
1163,42.70487887141472
1166,0.0
1168,0.0
2,4, 1,11, 0, 1, 0.00,60.00,Thursday
7,-5.6
545,18.451890352030844
546,-2.966969440721487
547,14.198434234294815
548,132.62967704286433
720,2419.1494680201686
721,2419.1494680201686
784,0.0
785,0.0
848,0.0
849,0.0
1121,3732.9106241276672
1135,1226.411331491914
1161,2.7402031804640097
1163,0.0
1166,85.98652079132171
1168,85.98652079132171
2,4, 1,11, 0, 2, 0.00,60.00,Thursday
7,-6.1
545,18.528571343191768
546,-2.8698520345564926
547,14.112911664465795
548,132.62967704286433
720,3208.8100032631246
721,3208.8100032631246
784,0.0
785,0.0
848,0.0
849,0.0
1121,3654.6216924619825
1135,1210.394058533698
1161,9.312728931265868
1163,0.0
1166,1177.7024003177307
1168,1177.7024003177307
2,4, 1,11, 0, 3, 0.00,60.00,Thursday
7,-6.1
545,18.563448879615887
546,-2.7970848177575074
547,14.037028510574673
548,132.62967704286433
720,3652.29250753216
721,3652.29250753216
784,0.0
785,0.0
848,0.0
849,0.0
1121,3653.1724725591275
1135,1212.0565585429415
1161,9.314554541420085
1163,0.0
1166,1735.2022563693183
1168,1735.2022563693183
2,4, 1,11, 0, 4, 0.00,60.00,Thursday
7,-6.1
545,18.587300959672294
546,-2.38608238692342
547,13.95840889717112
548,132.62967704286433
720,3572.1412037664995
721,3572.1412037664995
784,0.0
785,0.0
848,0.0
849,0.0
1121,3652.5179650780597
1135,1212.7852030836414
1161,9.319121699791014
1163,0.0
1166,1656.362560183298
1168,1656.362560183298
2,4, 1,11, 0, 5, 0.00,60.00,Thursday
7,-7.2
545,18.596546514328157
546,-3.0814084433059548
547,13.86911928647565
548,132.62967704286433
720,3527.9131356537346
721,3527.9131356537346
784,0.0
785,0.0
848,0.0
849,0.0
1121,3527.516366529236
1135,1199.2043412665298
1161,11.482548574710407
1163,0.0
1166,1711.0374397976336
1168,1711.0374397976336
2,4, 1,11, 0, 6, 0.00,60.00,Thursday
7,-7.2
545,19.360508415590356
546,-3.293466018592909
547,13.789012815200808
548,132.62967704286433
720,4530.422412558835
721,4530.422412558835
784,0.0
785,0.0
848,0.0
849,0.0
1121,3527.4246324417454
1135,1199.2963445361072
1161,11.48479484435811
1163,0.0
1166,2901.8664329560766
1168,2901.8664329560766
2,4, 1,11, 0, 7, 0.00,60.00,Thursday
7,-7.2
545,19.60035634307415
546,-3.670075925740231
547,13.743975371817031
548,132.62967704286433
720,4362.961554890226
721,4362.961554890226
784,0.0
785,0.0
848,0.0
849,0.0
1121,3512.066363238495
1135,1216.8643841088003
1161,11.482548574710407
1163,0.0
1166,2820.7393282663324
1168,2820.7393282663324
2,4, 1,11, 0, 8, 0.00,60.00,Thursday
7,-7.2
545,19.672780547786648
546,-3.668995869944815
547,13.67174321662965
548,132.62967704286433
720,4114.608395791329
721,4114.608395791329
784,0.0
785,0.0
848,0.0
849,0.0
1121,3492.5881394718303
1135,1217.2835588877283
1161,15.292274103856096
1163,0.0
1166,2596.512832890231
1168,2596.512832890231
2,4, 1,11, 0, 9, 0.00,60.00,Thursday
7,-5.6
545,19.71943256990192
546,-2.0372483726563773
547,13.614513187895472
548,132.62967704286433
720,3093.2142581230037
721,3093.2142581230037
784,0.0
785,0.0
848,0.0
849,0.0
1121,3692.279525259377
1135,1246.6438484266737
1161,7.199677538164877
1163,0.0
1166,1220.9060024064852
1168,1220.9060024064852
2,4, 1,11, 0,10, 0.00,60.00,Thursday
7,-4.4
545,19.74516728646763
546,0.2637061292620633
547,13.56274360675276
548,132.62967704286433
720,2327.775241984087
721,2327.775241984087
784,0.0
785,0.0
848,0.0
849,0.0
1121,3834.4966053389253
1135,1264.5753142525778
1161,4.160764701095928
1163,0.0
1166,97.16174414951684
1168,97.16174414951684
2,4, 1,11, 0,11, 0.00,60.00,Thursday
7,-2.2
545,19.905556000878455
546,2.737010457871779
547,13.490771748263551
548,93.61826356833771
720,1621.5156750612969
721,1621.5156750612969
784,0.0
785,0.0
848,0.0
849,0.0
1121,2791.4466671857876
1135,914.0642678050125
1161,0.04509817540395666
1163,58.82622115445737
1166,0.0
1168,0.0
2,4, 1,11, 0,12, 0.00,60.00,Thursday
7,-1.7
545,19.889979838895993
546,4.8364767100632164
547,13.463274434528799
548,75.98209990912291
720,1396.883087119024
721,1396.883087119024
784,0.0
785,0.0
848,0.0
849,0.0
1121,2259.605908950116
1135,747.3924393828278
1161,0.036602387023689086
1163,85.42114521005892
1166,0.0
1168,0.0
2,4, 1,11, 0,13, 0.00,60.00,Thursday
7,-1.1
545,19.86193757299247
546,6.42416027178372
547,13.440577828008673
548,59.94125617972395
720,1159.754566640946
721,1159.754566640946
784,0.0
785,0.0
848,0.0
849,0.0
1121,1787.1591078161127
1135,592.5051189641422
1161,0.028875109144799627
1163,109.61035039587861
1166,0.0
1168,0.0
2,4, 1,11, 0,14, 0.00,60.00,Thursday
7,-0.6
545,19.933794609646306
546,7.70991748095482
547,13.43146694191684
548,43.92135620426395
720,873.7892598826165
721,873.7892598826165
784,0.0
785,0.0
848,0.0
849,0.0
1121,1309.4947436112448
1135,435.82688961888255
1161,0.021157934814818737
1163,133.76792777932275
1166,0.0
1168,0.0
2,4, 1,11, 0,15, 0.00,60.00,Thursday
7,0.0
545,19.882914140829705