Program Version,EnergyPlus, Version 22.2.0-c249759bad, YMD=2023.09.01 14:31
1,5,Environment Title[],Latitude[deg],Longitude[deg],Time Zone[],Elevation[m]
2,8,Day of Simulation[],Month[],Day of Month[],DST Indicator[1=yes 0=no],Hour[],StartMinute[],EndMinute[],DayType
3,5,Cumulative Day of Simulation[],Month[],Day of Month[],DST Indicator[1=yes 0=no],DayType  ! When Daily Report Variables Requested
4,2,Cumulative Days of Simulation[],Month[]  ! When Monthly Report Variables Requested
5,1,Cumulative Days of Simulation[] ! When Run Period Report Variables Requested
6,1,Calendar Year of Simulation[] ! When Annual Report Variables Requested
7,1,Environment,Site Outdoor Air Drybulb Temperature [C] !Hourly
619,1,DX_HEATING_COIL,Heating Coil Heating Rate [W] !Hourly
633,1,DX_HEATING_COIL,Heating Coil Electricity Rate [W] !Hourly
659,1,DX_HEATING_COIL,Heating Coil Defrost Electricity Rate [W] !Hourly
661,1,DX_HEATING_COIL,Heating Coil Crankcase Heater Electricity Rate [W] !Hourly
690,1,FAN,Fan Electricity Rate [W] !Hourly
716,1,HEAT PUMP WATER HEATER FAN,Fan Electricity Rate [W] !Hourly
718,1,LIVING,Zone Mean Air Temperature [C] !Hourly
719,1,ATTIC,Zone Mean Air Temperature [C] !Hourly
720,1,CRAWLSPACE,Zone Mean Air Temperature [C] !Hourly
843,1,LIVING,Zone Predicted Sensible Load to Heating Setpoint Heat Transfer Rate [W] !Hourly
844,1,LIVING,Zone System Predicted Sensible Load to Heating Setpoint Heat Transfer Rate [W] !Hourly
907,1,ATTIC,Zone Predicted Sensible Load to Heating Setpoint Heat Transfer Rate [W] !Hourly
908,1,ATTIC,Zone System Predicted Sensible Load to Heating Setpoint Heat Transfer Rate [W] !Hourly
971,1,CRAWLSPACE,Zone Predicted Sensible Load to Heating Setpoint Heat Transfer Rate [W] !Hourly
972,1,CRAWLSPACE,Zone System Predicted Sensible Load to Heating Setpoint Heat Transfer Rate [W] !Hourly
1195,1,HEATING_RESISTANCE_BACKUP,Heating Coil Heating Rate [W] !Hourly
1197,1,HEATING_RESISTANCE_BACKUP,Heating Coil Electricity Rate [W] !Hourly
End of Data Dictionary
1,EXTREME_WINTER,  47.63,-117.53,  -8.00, 717.20
2,1, 1, 1, 0, 1, 0.00,60.00,Monday
7,-19.4
718,18.63810882086457
719,-6.72423992071353
720,18.402976492933266
619,2864.828533509834
633,1291.483948215813
659,15.670180305143807
661,0.0
690,160.22913282130864
716,0.0
843,4460.996469774756
844,4460.996469774756
907,0.0
908,0.0
971,0.0
972,0.0
1195,3510.0182695276094
1197,3510.0182695276094
2,1, 1, 1, 0, 2, 0.00,60.00,Monday
7,-19.4
718,18.612606258764693
719,-7.711559309214555
720,17.997807987094788
619,2866.80864536279
633,1289.696240236557
659,15.670180305143807
661,0.0
690,160.22913282130864
716,0.0
843,4840.491943595862
844,4840.491943595862
907,0.0
908,0.0
971,0.0
972,0.0
1195,4025.010359445948
1197,4025.010359445948
2,1, 1, 1, 0, 3, 0.00,60.00,Monday
7,-18.0
718,18.60322779557965
719,-8.07196174155447
720,17.799860878297988
619,3026.03016307915
633,1316.9529352045581
659,9.902356332289584
661,0.0
690,160.22913282130864
716,0.0
843,4868.52986920361
844,4868.52986920361
907,0.0
908,0.0
971,0.0
972,0.0
1195,3943.0049762349972
1197,3943.0049762349972
2,1, 1, 1, 0, 4, 0.00,60.00,Monday
7,-15.6
718,18.6061462665755
719,-7.8227587798690985
720,17.57622249675333
619,3256.384398240278
633,1341.1141704014915
659,18.398976219022845
661,0.0
690,160.22913282130864
716,0.0
843,4709.600844910685
844,4709.600844910685
907,0.0
908,0.0
971,0.0
972,0.0
1195,3562.635348052022
1197,3562.635348052022
2,1, 1, 1, 0, 5, 0.00,60.00,Monday
7,-15.6
718,18.601911506244463
719,-8.432063226076338
720,17.359564235593886
619,3256.565244107218
633,1340.9335836118391
659,18.398976219022845
661,0.0
690,160.22913282130864
716,0.0
843,4796.907639369048
844,4796.907639369048
907,0.0
908,0.0
971,0.0
972,0.0
1195,3643.9538079376284
1197,3643.9538079376284
2,1, 1, 1, 0, 6, 0.00,60.00,Monday
7,-14.0
718,19.375486067902056
719,-8.360265131168912
720,17.16636196366543
619,3413.608736344362
633,1355.138805462345
659,24.412205203700026
661,0.0
690,160.22913282130864
716,0.0
843,5853.959473339168
844,5853.959473339168
907,0.0
908,0.0
971,0.0
972,0.0
1195,4802.666125453945
1197,4802.666125453945
2,1, 1, 1, 0, 7, 0.00,60.00,Monday
7,-17.0
718,19.147512120697158
719,-8.144765148760698
720,16.975221826973282
619,3078.2260323105065
633,1332.7135357157001
659,22.55250553993729
661,0.0
690,160.22913282130864
716,85.44000000000005
843,6014.200148962116
844,6014.200148962116
907,0.0
908,0.0
971,0.0
972,0.0
1195,5473.305486242088
1197,5473.305486242088
2,1, 1, 1, 0, 8, 0.00,60.00,Monday
7,-16.7
718,19.222017600975338
719,-7.951304329316888
720,16.780920391888472
619,3133.866234556027
633,1339.7832267316587
659,16.01801401035733
661,0.0
690,160.22913282130864
716,85.44000000000005
843,5696.335830059041
844,5696.335830059041
907,0.0
908,0.0
971,0.0
972,0.0
1195,5473.305486242088
1197,5473.305486242088
2,1, 1, 1, 0, 9, 0.00,60.00,Monday
7,-16.7
718,19.548526632907933
719,-7.7976570374899294
720,16.604143019091577
619,3132.3941396506284
633,1341.266381934927
659,16.002618665279734
661,0.0
690,160.22913282130864
716,24.056273509838626
843,5797.660306140979
844,5797.660306140979
907,0.0
908,0.0
971,0.0
972,0.0
1195,5324.569385537718
1197,5324.569385537718
2,1, 1, 1, 0,10, 0.00,60.00,Monday
7,-16.0
718,19.674567439854815
719,-4.938716601031632
720,16.448620505887348
619,3190.0610111130118
633,1354.9213127107666
659,19.2459671681358
661,0.0
690,160.22913282130864
716,0.0
843,4811.974933686459
844,4811.974933686459
907,0.0
908,0.0
971,0.0
972,0.0
1195,3840.3510085172084
1197,3840.3510085172084
2,1, 1, 1, 0,11, 0.00,60.00,Monday
7,-17.2
718,19.70373069329528
719,-1.6003967773137735
720,16.28364729805171
619,3046.1446963217277
633,1333.291641188595
659,24.376067856323953
661,0.0
690,160.22913282130864
716,0.0
843,4172.840194707602
844,4172.840194707602
907,0.0
908,0.0
971,0.0
972,0.0
1195,3066.0065819668293
1197,3066.0065819668293
2,1, 1, 1, 0,12, 0.00,60.00,Monday
7,-14.4
718,19.724162154780366
719,2.3190140081544612
720,16.1793292284146
619,3317.77488743915
633,1363.8328417443583
659,33.22254674215545
661,0.0
690,160.22913282130864
716,0.0
843,3131.0665243114017
844,3131.0665243114017
907,0.0
908,0.0
971,0.0
972,0.0
1195,1384.8119995450247
1197,1384.8119995450247
2,1, 1, 1, 0,13, 0.00,60.00,Monday
7,-10.0
718,19.779364681876558
719,6.0228612568234405
720,16.115311912430553
619,3160.4597994680107
633,1212.0469540963422
659,26.654865383278306
661,30.03519119978506
690,134.9189708958473
716,0.0
843,2120.9794070533717
844,2120.9794070533717
907,0.0
908,0.0
971,0.0
972,0.0
1195,0.0
1197,0.0
2,1, 1, 1, 0,14, 0.00,60.00,Monday
7,-10.0
718,19.72413848885167
719,7.533912431773162
720,16.039255841614235
619,3296.7173784976367
633,1260.7778312910018
659,27.700485555548468
661,23.36779183002362
690,140.2111781394482
716,81.68984560457159
843,1529.0293766384657
844,1529.0293766384657
907,0.0
908,0.0
971,0.0
972,0.0
1195,0.0
1197,0.0
2,1, 1, 1, 0,15, 0.00,60.00,Monday
7,-10.0
718,19.86482601814629
719,6.234414935531736
720,16.004637046016676
619,1807.6148577287672
633,723.0891946073064
659,18.534842631708027
661,98.142081280852
690,80.73273914303115
716,0.0
843,1321.4788295895069
844,1321.4788295895069
907,0.0
908,0.0
971,0.0
972,0.0
1195,0.0
1197,0.0
2,1, 1, 1, 0,16, 0.00,60.00,Monday
7,-11.7
718,19.660726110520702
719,4.104857763137781
720,15.964734205240338
619,1923.2461008626344
633,796.9283775208035
659,20.2347654047513
661,86.31477624601595
690,89.97890177555728
716,0.0
843,1366.6099198509
844,1366.6099198509
907,0.0
908,0.0
971,0.0
972,0.0
1195,0.0
1197,0.0
2,1, 1, 1, 0,17, 0.00,60.00,Monday
7,-11.7
718,19.591340611817728
719,1.690874986832182
720,15.916899187884814
619,3134.1448516859937
633,1242.844625482646
659,31.683782072690043
661,21.990629381823233
690,140.89226323357002
716,0.0
843,2157.483328511955
844,2157.483328511955
907,0.0
908,0.0
971,0.0
972,0.0
1195,0.0
1197,0.0
2,1, 1, 1, 0,18, 0.00,60.00,Monday
7,-15.0
718,19.59527100342453
719,-1.7050012225964124
720,15.83973182844635
619,3274.311904793202
633,1359.8483157025535
659,27.099828562942598
661,0.0
690,160.22913282130864
716,0.0
843,2805.4052409302767
844,2805.4052409302767
907,0.0
908,0.0
971,0.0
972,0.0
1195,858.2187200127266
1197,858.2187200127266
2,1, 1, 1, 0,19, 0.00,60.00,Monday
7,-14.4
718,19.654155063202342
719,-2.880724663759579
720,15.783484342411757
619,3347.049076548418
633,1371.402386696007
659,24.68918451901301
661,0.0
690,160.22913282130864
716,85.44000000000005
843,2827.3989627192677
844,2827.3989627192677
907,0.0
908,0.0
971,0.0
972,0.0
1195,2134.9606520267544
1197,2134.9606520267544
2,1, 1, 1, 0,20, 0.00,60.00,Monday
7,-14.4
718,19.674308860219007
719,-3.873590245370341
720,15.699847650752597
619,3345.723031029739
633,1372.7484096880967
659,24.68918451901301
661,0.0
690,160.22913282130864
716,85.44000000000005
843,2918.6451337934195
844,2918.6451337934195
907,0.0
908,0.0
971,0.0
972,0.0
1195,2355.8011298083397
1197,2355.8011298083397
2,1, 1, 1, 0,21, 0.00,60.00,Monday
7,-13.3
718,19.697630164671633
719,-4.292394714233428
720,15.61525225354014
619,3453.871415175249
633,1383.1506233896666
659,28.932522656070518
661,0.0
690,160.22913282130864
716,67.74346525592458
843,2922.027198359463
844,2922.027198359463
907,0.0
908,0.0
971,0.0
972,0.0
1195,2028.1508725429837
1197,2028.1508725429837
2,1, 1, 1, 0,22, 0.00,60.00,Monday
7,-14.4
718,19.713634733092505
719,-4.853169554118944
720,15.501839476372847
619,3331.7818531576872
633,1368.1929060664127
659,28.970644687929695
661,0.0
690,160.22913282130864
716,0.0
843,3396.71713107094
844,3396.71713107094
907,0.0
908,0.0
971,0.0
972,0.0
1195,1850.9614646451807
1197,1850.9614646451807
2,1, 1, 1, 0,23, 0.00,60.00,Monday
7,-14.4
718,18.97006218101972
719,-5.381020520104385
720,15.395132409730477
619,3331.545715543468
633,1368.4324272704932
659,28.970644687929695
661,0.0
690,160.22913282130864
716,0.0
843,2757.4560512252574
844,2757.4560512252574
907,0.0
908,0.0
971,0.0
972,0.0
1195,1120.9551661800665
1197,1120.9551661800665
2,1, 1, 1, 0,24, 0.00,60.00,Monday
7,-13.3
718,18.730367374549406
719,-5.547162306655428
720,15.255411900118121
619,3470.893333331907
633,1365.4059183749991
659,28.93523997561992
661,0.0
690,160.22913282130864
716,0.0
843,3152.4466538585693
844,3152.4466538585693
907,0.0
908,0.0
971,0.0
972,0.0
1195,1426.2423549962605
1197,1426.2423549962605
2,2, 1, 2, 0, 1, 0.00,60.00,Tuesday
7,-13.9
718,18.642769983548988
719,-6.145900129954239
720,15.124509402780946
619,3415.919682699671
633,1353.711109263173
659,27.052517273309032
661,0.0
690,160.22913282130864
716,0.0
843,3854.052405293498
844,3854.052405293498
907,0.0
908,0.0
971,0.0
972,0.0
1195,2302.737664779654
1197,2302.737664779654
2,2, 1, 2, 0, 2, 0.00,60.00,Tuesday
7,-13.9
718,18.616162178597243
719,-6.28039335027533
720,14.998751634845853
619,3418.1262428487944
633,1351.4259556915674
659,27.052517273309032
661,0.0
690,160.22913282130864
716,0.0
843,4226.4451009198765
844,4226.4451009198765
907,0.0
908,0.0
971,0.0
972,0.0
1195,2782.699125761423
1197,2782.699125761423
2,2, 1, 2, 0, 3, 0.00,60.00,Tuesday
7,-13.9
718,18.606017248197254
719,-6.137421846933288
720,14.873473403143395
619,3418.891662741426
633,1350.6213722775701
659,27.05506332342688
661,0.0
690,160.22913282130864
716,0.0
843,4399.120737361236
844,4399.120737361236
907,0.0
908,0.0
971,0.0
972,0.0
1195,2984.781160819781
1197,2984.781160819781
2,2, 1, 2, 0, 4, 0.00,60.00,Tuesday
7,-13.0
718,18.60639283765377
719,-6.118482825377544
720,14.755834359782844
619,3518.6771721006307
633,1361.664490332295
659,27.39039327694829
661,0.0
690,160.22913282130864
716,0.0
843,4526.740041949417
844,4526.740041949417
907,0.0
908,0.0
971,0.0
972,0.0
1195,3040.5987584302848
1197,3040.5987584302848
2,2, 1, 2, 0, 5, 0.00,60.00,Tuesday
7,-12.8
718,18.604195554923283
719,-5.6388842195685305
720,14.636030328909422
619,3530.9468239066214
633,1360.1013605132412
659,30.596061288518683
661,0.0
690,160.22913282130864
716,0.0
843,4419.2958376006645
844,4419.2958376006645
907,0.0
908,0.0
971,0.0
972,0.0
1195,2892.6345046941265
1197,2892.6345046941265
2,2, 1, 2, 0, 6, 0.00,60.00,Tuesday
7,-11.1
718,19.377378841267905
719,-5.3661055040754
720,14.531348685499376
619,3704.3240051378166
633,1373.6663102440943
659,36.80727204540097
661,0.0
690,160.22913282130864
716,0.0
843,5428.772963358371
844,5428.772963358371
907,0.0
908,0.0
971,0.0
972,0.0
1195,3912.181832883202
1197,3912.181832883202
2,2, 1, 2, 0, 7, 0.00,60.00,Tuesday
7,-11.1
718,19.578291562946973
719,-4.375560942953604
720,14.45165250416171
619,3686.2268658999847
633,1393.3578551354608
659,36.8004114324922
661,0.0
690,160.22913282130864
716,85.44000000000005
843,5141.5297669048905
844,5141.5297669048905
907,0.0
908,0.0
971,0.0
972,0.0
1195,4689.036227804161
1197,4689.036227804161
2,2, 1, 2, 0, 8, 0.00,60.00,Tuesday
7,-11.1
718,19.652802994980682
719,-4.128366023933372
720,14.350067213492173
619,3681.552132480766
633,1398.4211383525935
659,36.8004114324922
661,0.0
690,160.22913282130864
716,85.44000000000005
843,4852.202814523214
844,4852.202814523214
907,0.0
908,0.0
971,0.0
972,0.0
1195,4431.603202444119
1197,4431.603202444119
2,2, 1, 2, 0, 9, 0.00,60.00,Tuesday
7,-11.1
718,19.68977345868276
719,-2.7770407020546823
720,14.256573821194735
619,3660.776351903904
633,1392.9205346775816
659,42.41211701761676
661,0.0
690,160.22913282130864
716,85.44000000000005
843,4113.317549449632
844,4113.317549449632
907,0.0
908,0.0
971,0.0
972,0.0
1195,3559.13343698938
1197,3559.13343698938
2,2, 1, 2, 0,10, 0.00,60.00,Tuesday
7,-9.4
718,19.714543984066157
719,0.1388622205565569
720,14.186984408990122
619,3852.38820893137
633,1413.5054758649776
659,43.99869037128856
661,0.0
690,160.22913282130864
716,30.84672180625665
843,3172.779203183716
844,3172.779203183716
907,0.0
908,0.0
971,0.0
972,0.0
1195,1395.6026773672484
1197,1395.6026773672484
2,2, 1, 2, 0,11, 0.00,60.00,Tuesday
7,-9.4
718,19.716651425295854
719,0.3968321472526006
720,14.117191025312225
619,3851.887537440019
633,1414.0614770879688
659,43.99869037128856
661,0.0
690,160.22913282130864
716,0.0
843,3613.2248315015604
844,3613.2248315015604
907,0.0
908,0.0
971,0.0
972,0.0
1195,1373.3309551890575
1197,1373.3309551890575
2,2, 1, 2, 0,12, 0.00,60.00,Tuesday
7,-7.8
718,19.723718749422243
719,2.303258916694427
720,14.071364344742365
619,4058.87191584848
633,1439.61061661411
659,39.91950530556997
661,0.0
690,160.22913282130864
716,0.0
843,2951.1345937588976
844,2951.1345937588976
907,0.0
908,0.0
971,0.0
972,0.0
1195,372.1168852186679
1197,372.1168852186679
2,2, 1, 2, 0,13, 0.00,60.00,Tuesday
7,-7.2
718,19.72944700405121
719,4.343137398096153
720,14.02274695702983
619,3985.928790084997
633,1413.322467239519
659,41.672697384501255
661,4.210451466789844
690,155.3417895931573
716,0.0
843,2685.5651322069934
844,2685.5651322069934
907,0.0
908,0.0
971,0.0
972,0.0
1195,0.0
1197,0.0
2,2, 1, 2, 0,14, 0.00,60.00,Tuesday
7,-7.2
718,19.800992859042093
719,5.663898927298103
720,13.961874439887163
619,2858.765664529523
633,1045.8443948554445
659,30.829293460975048
661,55.15568160540869
690,114.92114023890755
716,0.0
843,1985.7494962891233
844,1985.7494962891233
907,0.0
908,0.0
971,0.0
972,0.0
1195,0.0
1197,0.0
2,2, 1, 2, 0,15, 0.00,60.00,Tuesday
7,-6.7
718,19.80499886952463
719,6.128945140685827
720,13.932024541712087
619,2229.1834280504386
633,822.9789072627323
659,22.57495685308633
661,86.95159057262786
690,89.78877820149327
716,0.0
843,1586.0236746208684
844,1586.0236746208684
907,0.0
908,0.0
971,0.0
972,0.0
1195,0.0
1197,0.0
2,2, 1, 2, 0,16, 0.00,60.00,Tuesday
7,-8.9
718,19.665736935027258
719,4.368881330417606
720,13.91605985840955
619,2065.5329063024
633,801.3826408997012
659,23.002195038924068
661,87.68051331551372
690,89.00306555299368
716,0.0
843,1464.2637091043343
844,1464.2637091043343
907,0.0
908,0.0
971,0.0
972,0.0
1195,0.0
1197,0.0
2,2, 1, 2, 0,17, 0.00,60.00,Tuesday
7,-8.9
718,19.64143435247788
719,2.37366273432749
720,13.933611750872787
619,3052.898028329141
633,1146.2533652679351
659,32.99451163964132
661,38.888132002241925
690,127.66791064004845
716,0.0
843,2101.619975195217
844,2101.619975195217
907,0.0
908,0.0
971,0.0
972,0.0
1195,0.0
1197,0.0
2,2, 1, 2, 0,18, 0.00,60.00,Tuesday
7,-13.9
718,19.545701597921493
719,-2.5251214299691656
720,13.894128960588807
619,3385.0273511014925
633,1369.5764256099962
659,30.623580304020777
661,0.0
690,160.22913282130864
716,0.0
843,2907.925085454317
844,2907.925085454317
907,0.0
908,0.0
971,0.0
972,0.0
1195,886.3699970954324
1197,886.3699970954324
2,2, 1, 2, 0,19, 0.00,60.00,Tuesday
7,-13.3
718,19.633205001279514
719,-3.7057706472599747
720,13.869099492338073
619,3447.2226254482753
633,1372.8056780106308
659,32.70502856456025
661,0.0
690,160.22913282130864
716,85.44000000000005
843,3029.235853133385
844,3029.235853133385
907,0.0
908,0.0
971,0.0
972,0.0
1195,2352.5233843396395
1197,2352.5233843396395
2,2, 1, 2, 0,20, 0.00,60.00,Tuesday
7,-13.3
718,19.66569471232164
719,-5.144215122382338
720,13.82146583403676
619,3445.1893018552587
633,1374.920513495999
659,32.70502856456025
661,0.0
690,160.22913282130864
716,85.44000000000005
843,3110.054112049802
844,3110.054112049802
907,0.0
908,0.0
971,0.0
972,0.0
1195,2618.401832638465
1197,2618.401832638465
2,2, 1, 2, 0,21, 0.00,60.00,Tuesday
7,-15.0
718,19.68994450479963
719,-5.031698678598931
720,13.7445833940166
619,3271.5705280659517
633,1357.4644825038629
659,28.303884838745077
661,0.0
690,160.22913282130864
716,85.44000000000005
843,3325.0718587610663
844,3325.0718587610663
907,0.0
908,0.0
971,0.0
972,0.0
1195,3116.010840432953
1197,3116.010840432953
2,2, 1, 2, 0,22, 0.00,60.00,Tuesday
7,-15.0
718,19.70256223782785
719,-5.805574081185941
720,13.672324028105333
619,3271.0987204910552
633,1357.9373094574796
659,28.303884838745077
661,0.0
690,160.22913282130864
716,44.24545272727541
843,3646.9636851868872
844,3646.9636851868872
907,0.0
908,0.0
971,0.0
972,0.0
1195,2846.5305939832197
1197,2846.5305939832197
2,2, 1, 2, 0,23, 0.00,60.00,Tuesday
7,-16.7
718,18.958344348085564
719,-7.105473869698685
720,13.57325133134163
619,3097.1704310207465
633,1336.393987749295
659,25.797285191763823
661,0.0
690,160.22913282130864
716,0.0
843,3298.531810774937
844,3298.531810774937
907,0.0
908,0.0
971,0.0
972,0.0
1195,2096.6196130682742
1197,2096.6196130682742
2,2, 1, 2, 0,24, 0.00,60.00,Tuesday
7,-15.6
718,18.722450351825575
719,-6.929900089484943
720,13.459239652804532
619,3221.2952855755016
633,1331.117227143464
659,29.16281375362882
661,0.0
690,160.22913282130864
716,0.0
843,3626.431583191559
844,3626.431583191559
907,0.0
908,0.0
971,0.0
972,0.0
1195,2383.1666021079254
1197,2383.1666021079254
2,3, 1, 3, 0, 1, 0.00,60.00,Wednesday
7,-13.9
718,18.64070244094893
719,-6.8193992458805655
720,13.366837222313881
619,3407.1011369879384
633,1346.7671984728418
659,30.632199834331356
661,0.0
690,160.22913282130864
716,0.0
843,3924.7260908416047
844,3924.7260908416047
907,0.0
908,0.0
971,0.0
972,0.0
1195,2516.25897045271
1197,2516.25897045271
2,3, 1, 3, 0, 2, 0.00,60.00,Wednesday
7,-13.9
718,18.615858892889158
719,-6.45468957150085
720,13.258795847250813
619,3409.1144463406126
633,1344.680289077362
659,30.632199834331356
661,0.0
690,160.22913282130864
716,0.0
843,4292.015213047904
844,4292.015213047904
907,0.0
908,0.0
971,0.0
972,0.0
1195,2951.2149557897565
1197,2951.2149557897565
2,3, 1, 3, 0, 3, 0.00,60.00,Wednesday
7,-11.0
718,18.60821179868274
719,-5.867089327881611
720,13.180314374524512
619,3694.2949001878865
633,1364.8464107705875
659,43.49248862357186
661,0.0
690,160.22913282130864
716,0.0
843,4117.103394085751
844,4117.103394085751
907,0.0
908,0.0
971,0.0
972,0.0
1195,2423.6752933112825
1197,2423.6752933112825
2,3, 1, 3, 0, 4, 0.00,60.00,Wednesday
7,-10.0
718,18.60856544370806
719,-5.129889875317336
720,13.086861222383165
619,3796.2384693779377
633,1371.6165923202955
659,47.53980687493875
661,0.0
690,160.22913282130864
716,0.0
843,4143.2248582010725
844,4143.2248582010725
907,0.0
908,0.0
971,0.0
972,0.0
1195,2332.877638842696
1197,2332.877638842696
2,3, 1, 3, 0, 5, 0.00,60.00,Wednesday
7,-10.0
718,18.60586306015727
719,-4.615960287687134
720,12.995922390716725
619,3796.3481890049834
633,1371.495191930583
659,47.53980687493875
661,0.0
690,160.22913282130864
716,0.0
843,4137.127570009276
844,4137.127570009276
907,0.0
908,0.0
971,0.0
972,0.0
1195,2278.1789886700863
1197,2278.1789886700863
2,3, 1, 3, 0, 6, 0.00,60.00,Wednesday
7,-9.4
718,19.261034830064933
719,-3.7368303939739067
720,12.915867888026796
619,3860.9093754926575
633,1376.4382507657824
659,49.18581033810786
661,0.0
690,160.22913282130864
716,80.9014208001502
843,5113.699875731998
844,5113.699875731998
907,0.0
908,0.0
971,0.0
972,0.0
1195,4319.035630586735
1197,4319.035630586735
2,3, 1, 3, 0, 7, 0.00,60.00,Wednesday
7,-9.4
718,19.534557456214134
719,-3.270589845271493
720,12.866348412791387
619,3845.6464640857234
633,1393.4666257002325
659,49.18128087780009
661,0.0
690,160.22913282130864
716,85.44000000000005
843,4888.626158371755
844,4888.626158371755
907,0.0
908,0.0
971,0.0
972,0.0
1195,4256.007612455898
1197,4256.007612455898
2,3, 1, 3, 0, 8, 0.00,60.00,Wednesday
7,-9.4
718,19.638192309007536
719,-2.976449785764753
720,12.802442591443127
619,3839.2438359333146
633,1400.587701463648
659,49.18128087780009
661,0.0
690,160.22913282130864
716,79.10938540349748
843,4586.5107696163905
844,4586.5107696163905
907,0.0
908,0.0
971,0.0
972,0.0
1195,3841.2415648160304
1197,3841.2415648160304
2,3, 1, 3, 0, 9, 0.00,60.00,Wednesday
7,-8.9
718,19.698401999039895
719,-1.2300904418768825
720,12.746957163907478
619,3881.816360988374
633,1404.395044639583
659,53.03576258451253
661,0.0
690,160.22913282130864
716,0.0
843,3726.2408259177355
844,3726.2408259177355
907,0.0
908,0.0
971,0.0
972,0.0
1195,1678.1532377830322
1197,1678.1532377830322
2,3, 1, 3, 0,10, 0.00,60.00,Wednesday
7,-8.3
718,19.719010577452362
719,1.4093071335536318
720,12.70224708657848
619,3939.686928603644
633,1409.0746252613503
659,56.26692376578343
661,0.0
690,160.22913282130864
716,0.0
843,3032.8611351544023
844,3032.8611351544023
907,0.0
908,0.0
971,0.0
972,0.0
1195,711.4554629805307
1197,711.4554629805307
2,3, 1, 3, 0,11, 0.00,60.00,Wednesday
7,-8.3
718,19.71784520673233
719,1.7751630020195628
720,12.666823351768105
619,3939.2579394076615
633,1409.5582347122447
659,56.26692376578343
661,0.0
690,160.22913282130864
716,0.0
843,3462.8396713266084
844,3462.8396713266084
907,0.0
908,0.0
971,0.0
972,0.0
1195,1076.4101238734456
1197,1076.4101238734456
2,3, 1, 3, 0,12, 0.00,60.00,Wednesday
7,-7.2
718,19.719280114422066
719,1.0212575673020245
720,12.644792676037254
619,4076.2350965848927
633,1424.6914121363823
659,55.017698721073785
661,0.0
690,160.22913282130864
716,0.0
843,3646.4188901127854
844,3646.4188901127854
907,0.0
908,0.0
971,0.0
972,0.0
1195,1143.9025046040797
1197,1143.9025046040797
2,3, 1, 3, 0,13, 0.00,60.00,Wednesday
7,-7.2
718,19.71942119865185
719,1.3441172638712622
720,12.612060733766986
619,4076.1462164683658
633,1424.677425211766
659,55.037856230157686
661,0.0
690,160.22913282130864
716,0.0
843,3538.8333159390368
844,3538.8333159390368
907,0.0
908,0.0
971,0.0
972,0.0
1195,1053.0231365243972
1197,1053.0231365243972
2,3, 1, 3, 0,14, 0.00,60.00,Wednesday
7,-7.2
718,19.720690614186044
719,1.1322736017600794
720,12.57900189262786
619,4076.1860729410255
633,1424.631905186767
659,55.037856230157686
661,0.0
690,160.22913282130864
716,0.0
843,3551.3225956022325
844,3551.3225956022325
907,0.0
908,0.0
971,0.0
972,0.0
1195,1054.8834815918262
1197,1054.8834815918262
2,3, 1, 3, 0,15, 0.00,60.00,Wednesday
7,-6.1
718,19.716908142477497
719,1.6434118013794365
720,12.553410646180273
619,4205.849678029049
633,1436.395822426881
659,56.31006670140813
661,0.0
690,160.22913282130864
716,73.593769387625
843,3344.6250738918807
844,3344.6250738918807
907,0.0
908,0.0
971,0.0
972,0.0
1195,1638.254897831524
1197,1638.254897831524
2,3, 1, 3, 0,16, 0.00,60.00,Wednesday
7,-6.1
718,19.70779445227051
719,1.4401750546306302
720,12.517279693949675
619,4185.794927151446
633,1429.3613386708378
659,61.39504333106403
661,0.0
690,160.22913282130864
716,84.52956422521383
843,3316.489729994564
844,3316.489729994564
907,0.0
908,0.0
971,0.0
972,0.0
1195,1764.711362446807
1197,1764.711362446807
2,3, 1, 3, 0,17, 0.00,60.00,Wednesday
7,-6.1
718,19.719535708513735
719,0.6921793992407764
720,12.483298408041222
619,4186.059756340185
633,1429.055413719633
659,61.39504333106403
661,0.0
690,160.22913282130864
716,0.0
843,3139.219482927969
844,3139.219482927969
907,0.0
908,0.0
971,0.0
972,0.0
1195,447.9966765168797
1197,447.9966765168797
2,3, 1, 3, 0,18, 0.00,60.00,Wednesday
7,-6.7
718,19.72137840283324
719,0.08379972934615307
720,12.445787835018534
619,4095.1746725393195
633,1416.0316232554096
659,65.83487050896919
661,0.0
690,160.22913282130864
716,0.0
843,2955.5238094840242
844,2955.5238094840242
907,0.0
908,0.0
971,0.0
972,0.0
1195,365.081285290069
1197,365.081285290069
2,3, 1, 3, 0,19, 0.00,60.00,Wednesday
7,-6.7
718,19.722337155776927
719,-0.39458606320696593
720,12.41355621539837
619,4095.15595923955
633,1416.018314057187
659,65.84084412948545
661,0.0
690,160.22913282130864
716,0.0
843,2706.375737238559
844,2706.375737238559
907,0.0
908,0.0
971,0.0
972,0.0
1195,103.24440937195777
1197,103.24440937195777
2,3, 1, 3, 0,20, 0.00,60.00,Wednesday
7,-6.7
718,19.70565712504593
719,-0.44171127163255897
720,12.37916621795431
619,4095.17506972185
633,1415.9963701394227
659,65.84084412948545
661,0.0
690,160.22913282130864
716,85.44000000000005
843,2586.8591426489675
844,2586.8591426489675
907,0.0
908,0.0
971,0.0
972,0.0
1195,1244.9219984269057
1197,1244.9219984269057
2,3, 1, 3, 0,21, 0.00,60.00,Wednesday
7,-6.0
718,19.71426676563108
719,-0.5310240886576041
720,12.347906120252583
619,4206.584920035414
633,1432.7575016511134
659,59.38069764837704
661,0.0
690,160.22913282130864
716,85.44000000000005
843,2484.292843050869
844,2484.292843050869
907,0.0
908,0.0
971,0.0
972,0.0
1195,987.9105703806795
1197,987.9105703806795
2,3, 1, 3, 0,22, 0.00,60.00,Wednesday
7,-6.7
718,19.715132435845945
719,-0.680489360716977
720,12.306347229132538
619,4064.73039009376
633,1405.0602120741707
659,73.71961059033431
661,0.0
690,160.22913282130864
716,36.29249754708206
843,2741.0984017055307
844,2741.0984017055307
907,0.0
908,0.0
971,0.0
972,0.0
1195,690.2399686975018
1197,690.2399686975018
2,3, 1, 3, 0,23, 0.00,60.00,Wednesday
7,-6.7
718,18.967688741002696
719,-1.4101009637307922
720,12.229234925796518
619,3107.187345487863
633,1119.4569765278607
659,58.72680083390473
661,40.6752277619745
690,125.56732224467015
716,0.0
843,1944.8299464751144
844,1944.8299464751144
907,0.0
908,0.0
971,0.0
972,0.0
1195,0.0
1197,0.0
2,3, 1, 3, 0,24, 0.00,60.00,Wednesday
7,-6.7
718,18.69333629657783
719,-1.3591094394893581
720,12.187287378708206
619,3674.166510991945
633,1278.9443437670238
659,68.09976275948438
661,15.298335401404707
690,145.57696688700645
716,0.0
843,2334.083772063228
844,2334.083772063228
907,0.0
908,0.0
971,0.0
972,0.0
1195,0.0
1197,0.0
2,4, 1, 4, 0, 1, 0.00,60.00,Thursday
7,-6.1
718,18.611795428244708
719,-1.2759470161710993
720,12.146381034251203
619,4210.445754951167
633,1400.7508432402458
659,61.418056786011626
661,0.0
690,160.22913282130864
716,0.0
843,2748.606960549523
844,2748.606960549523
907,0.0
908,0.0
971,0.0
972,0.0
1195,37.98711955972749
1197,37.98711955972749
2,4, 1, 4, 0, 2, 0.00,60.00,Thursday
7,-6.1
718,18.60983305048216
719,-1.1730612694796818
720,12.095084578629576
619,4212.414981551169
633,1398.4768697656332
659,61.418056786011626
661,0.0
690,160.22913282130864
716,0.0
843,3060.8091501459003
844,3060.8091501459003
907,0.0
908,0.0
971,0.0
972,0.0
1195,396.8009971100332
1197,396.8009971100332
2,4, 1, 4, 0, 3, 0.00,60.00,Thursday
7,-6.7
718,18.608937180626047
719,-1.1719846964923157
720,12.044229052166058
619,4090.694954991759
633,1375.0388423183724
659,73.75357438160009
661,0.0
690,160.22913282130864
716,0.0
843,3313.3482303003457
844,3313.3482303003457
907,0.0
908,0.0
971,0.0
972,0.0
1195,815.7167320193857
1197,815.7167320193857
2,4, 1, 4, 0, 4, 0.00,60.00,Thursday
7,-6.1
718,18.608007740555017
719,-1.175840357584187
720,12.0022970514059
619,4212.532068247858
633,1398.2086223461663
659,61.44046482130648
661,0.0
690,160.22913282130864
716,0.0
843,3529.815337336757
844,3529.815337336757
907,0.0
908,0.0
971,0.0
972,0.0
1195,950.8172670620388
1197,950.8172670620388
2,4, 1, 4, 0, 5, 0.00,60.00,Thursday
7,-6.1
718,18.609526755444268
719,-0.9642242761237265
720,11.955600444678558
619,4212.607385830963
633,1398.1216529883689
659,61.44046482130648
661,0.0
690,160.22913282130864
716,0.0
843,3510.4735412952887
844,3510.4735412952887
907,0.0
908,0.0
971,0.0
972,0.0
1195,932.4984044383164
1197,932.4984044383164
2,4, 1, 4, 0, 6, 0.00,60.00,Thursday
7,-9.0
718,19.36983651418776
719,-0.9391871905386601
720,11.888167290099128
619,3889.3660003368386
633,1372.820972039777
659,54.64288220642763
661,0.0
690,160.22913282130864
716,0.0
843,4718.07229491651
844,4718.07229491651
907,0.0
908,0.0
971,0.0
972,0.0
1195,2670.231022647118
1197,2670.231022647118
2,4, 1, 4, 0, 7, 0.00,60.00,Thursday
7,-6.7
718,19.566309627419344
719,-0.7867437352128887
720,11.902844141188302
619,4073.1941200751744
633,1395.0260250068845
659,73.77352422961552
661,0.0
690,160.22913282130864
716,85.44000000000005
843,4200.757173928023
844,4200.757173928023
907,0.0
908,0.0
971,0.0
972,0.0
1195,3178.086735724293
1197,3178.086735724293
2,4, 1, 4, 0, 8, 0.00,60.00,Thursday
7,-6.7
718,19.65478164749809
719,-0.6699894040602997
720,11.85946511940904
619,4068.570866100592
633,1400.3358885940906
659,73.77352422961552
661,0.0
690,160.22913282130864
716,85.44000000000005
843,3917.26891240682
844,3917.26891240682
907,0.0
908,0.0
971,0.0
972,0.0
1195,2891.741140216589
1197,2891.741140216589
2,4, 1, 4, 0, 9, 0.00,60.00,Thursday
7,-6.0
718,19.68812156138533
719,1.0536518168778333
720,11.833301389298764
619,4154.160777894681
633,1412.0969712193037
659,73.02170489883046
661,0.0
690,160.22913282130864
716,78.10236311068553
843,3144.295926026849
844,3144.295926026849
907,0.0
908,0.0
971,0.0
972,0.0
1195,1659.1232643862895
1197,1659.1232643862895
2,4, 1, 4, 0,10, 0.00,60.00,Thursday