Program Version,EnergyPlus, Version 22.2.0-c249759bad, YMD=2023.09.01 14:31
1,5,Environment Title[],Latitude[deg],Longitude[deg],Time Zone[],Elevation[m]
2,8,Day of Simulation[],Month[],Day of Month[],DST Indicator[1=yes 0=no],Hour[],StartMinute[],EndMinute[],DayType
3,5,Cumulative Day of Simulation[],Month[],Day of Month[],DST Indicator[1=yes 0=no],DayType  ! When Daily Report Variables Requested
4,2,Cumulative Days of Simulation[],Month[]  ! When Monthly Report Variables Requested
5,1,Cumulative Days of Simulation[] ! When Run Period Report Variables Requested
6,1,Calendar Year of Simulation[] ! When Annual Report Variables Requested
7,1,Environment,Site Outdoor Air Drybulb Temperature [C] !Hourly
545,1,LIVING,Zone Mean Air Temperature [C] !Hourly
546,1,ATTIC,Zone Mean Air Temperature [C] !Hourly
547,1,CRAWLSPACE,Zone Mean Air Temperature [C] !Hourly
548,1,FAN,Fan Electricity Rate [W] !Hourly
720,1,LIVING,Zone Predicted Sensible Load to Heating Setpoint Heat Transfer Rate [W] !Hourly
721,1,LIVING,Zone System Predicted Sensible Load to Heating Setpoint Heat Transfer Rate [W] !Hourly
784,1,ATTIC,Zone Predicted Sensible Load to Heating Setpoint Heat Transfer Rate [W] !Hourly
785,1,ATTIC,Zone System Predicted Sensible Load to Heating Setpoint Heat Transfer Rate [W] !Hourly
848,1,CRAWLSPACE,Zone Predicted Sensible Load to Heating Setpoint Heat Transfer Rate [W] !Hourly
849,1,CRAWLSPACE,Zone System Predicted Sensible Load to Heating Setpoint Heat Transfer Rate [W] !Hourly
1121,1,DX_HEATING_COIL,Heating Coil Heating Rate [W] !Hourly
1135,1,DX_HEATING_COIL,Heating Coil Electricity Rate [W] !Hourly
1161,1,DX_HEATING_COIL,Heating Coil Defrost Electricity Rate [W] !Hourly
1163,1,DX_HEATING_COIL,Heating Coil Crankcase Heater Electricity Rate [W] !Hourly
1166,1,HEATING_RESISTANCE_BACKUP,Heating Coil Heating Rate [W] !Hourly
1168,1,HEATING_RESISTANCE_BACKUP,Heating Coil Electricity Rate [W] !Hourly
End of Data Dictionary
1,EXTREME_WINTER,  43.20, -71.50,  -5.00, 105.50
2,1, 1,18, 0, 1, 0.00,60.00,Monday
7,-2.0
545,18.692259076732995
546,-0.3699599576839556
547,17.23481207696224
548,68.82371953298978
720,1316.477779361433
721,1316.477779361433
784,0.0
785,0.0
848,0.0
849,0.0
1121,1937.6045323364162
1135,633.3889447496169
1161,22.488142181431247
1163,93.62167945515148
1166,0.0
1168,0.0
2,1, 1,18, 0, 2, 0.00,60.00,Monday
7,-2.2
545,18.535794928608023
546,-0.0013451806233187018
547,16.72983724283087
548,85.7052673952044
720,1622.1528683780325
721,1622.1528683780325
784,0.0
785,0.0
848,0.0
849,0.0
1121,2397.9941422473753
1135,779.8891049183025
1161,36.80041157123317
1163,67.20919234461873
1166,0.0
1168,0.0
2,1, 1,18, 0, 3, 0.00,60.00,Monday
7,-3.0
545,18.461718321483694
546,0.3387903485536124
547,16.45022738671597
548,110.36247055805956
720,2042.2150668425165
721,2042.2150668425165
784,0.0
785,0.0
848,0.0
849,0.0
1121,3031.135355637583
1135,977.750205533693
1161,62.47072064992206
1163,28.2654414935803
1166,0.0
1168,0.0
2,1, 1,18, 0, 4, 0.00,60.00,Monday
7,-3.0
545,18.504231004173704
546,0.84044522339991
547,16.177829197046567
548,124.3246768049315
720,2312.965679217028
721,2312.965679217028
784,0.0
785,0.0
848,0.0
849,0.0
1121,3461.9564150405336
1135,1099.4205544455042
1161,70.37358080890212
1163,6.540156652607254
1166,0.0
1168,0.0
2,1, 1,18, 0, 5, 0.00,60.00,Monday
7,-2.8
545,18.555707277994177
546,0.9102495827602889
547,15.951651138251405
548,128.67065394354518
720,2397.508345069433
721,2397.508345069433
784,0.0
785,0.0
848,0.0
849,0.0
1121,3619.1696812892446
1135,1139.7016579052463
1161,72.29986461029671
1163,0.0
1166,0.0
1168,0.0
2,1, 1,18, 0, 6, 0.00,60.00,Monday
7,-2.0
545,19.347475998317616
546,1.2785382698460026
547,15.74858168846389
548,130.2454573567078
720,3347.111257591534
721,3347.111257591534
784,0.0
785,0.0
848,0.0
849,0.0
1121,3713.022121624634
1135,1138.416509466907
1161,79.50531702859796
1163,0.0
1166,1044.7796549538916
1168,1044.7796549538916
2,1, 1,18, 0, 7, 0.00,60.00,Monday
7,-1.0
545,19.61181036979224
546,1.8395177086277976
547,15.59813077676997
548,130.2454573567078
720,3081.9633427874105
721,3081.9633427874105
784,0.0
785,0.0
848,0.0
849,0.0
1121,3768.7485157325923
1135,1155.6710897414205
1161,86.7380751858354
1163,0.0
1166,754.6207168076435
1168,754.6207168076435
2,1, 1,18, 0, 8, 0.00,60.00,Monday
7,-0.6
545,19.695325453288785
546,2.660640827446055
547,15.432529105232636
548,130.2454573567078
720,2772.577430061381
721,2772.577430061381
784,0.0
785,0.0
848,0.0
849,0.0
1121,3755.426074621341
1135,1150.166706689813
1161,97.52318235531631
1163,0.0
1166,406.5145371517938
1168,406.5145371517938
2,1, 1,18, 0, 9, 0.00,60.00,Monday
7,1.0
545,19.72983677075269
546,3.4300322980525157
547,15.288880740342396
548,128.7011377774976
720,2532.200255270558
721,2532.200255270558
784,0.0
785,0.0
848,0.0
849,0.0
1121,3847.5594935093295
1135,1158.917380440508
1161,102.81317096075323
1163,0.24421624319725943
1166,0.0
1168,0.0
2,1, 1,18, 0,10, 0.00,60.00,Monday
7,1.0
545,19.77816342034111
546,5.24847567957595
547,15.135323502116673
548,115.30651859203292
720,2233.326793989103
721,2233.326793989103
784,0.0
785,0.0
848,0.0
849,0.0
1121,3402.907187198848
1135,1038.9144277616078
1161,92.11299515460404
1163,21.033595507735512
1166,0.0
1168,0.0
2,1, 1,18, 0,11, 0.00,60.00,Monday
7,0.6
545,19.839392036608167
546,7.028615987289553
547,14.983056227079267
548,85.52057927389325
720,1588.9705843069114
721,1588.9705843069114
784,0.0
785,0.0
848,0.0
849,0.0
1121,2446.380331070444
1135,774.4369077082438
1161,64.23270333342721
1163,67.25850837789041
1166,0.0
1168,0.0
2,1, 1,18, 0,12, 0.00,60.00,Monday
7,2.0
545,19.98619479838568
546,10.32354270761568
547,14.847376527333504
548,41.86412188850053
720,736.4176071497859
721,736.4176071497859
784,0.0
785,0.0
848,0.0
849,0.0
1121,1194.9709713971251
1135,383.4748637552977
1161,31.31285715696174
1163,135.1880545147073
1166,0.0
1168,0.0
2,1, 1,18, 0,13, 0.00,60.00,Monday
7,5.0
545,19.618299816746077
546,9.648273380003271
547,14.73687440980103
548,6.922170810459383
720,78.03156518453943
721,78.03156518453943
784,0.0
785,0.0
848,0.0
849,0.0
1121,211.64509771404994
1135,66.48713069700672
1161,4.206856405336041
1163,189.3431413138542
1166,0.0
1168,0.0
2,1, 1,18, 0,14, 0.00,60.00,Monday
7,5.0
545,19.839545971073452
546,9.504268875954976
547,14.680316059954533
548,0.0
720,-84.52800318029404
721,-84.52800318029404
784,0.0
785,0.0
848,0.0
849,0.0
1121,0.0
1135,0.0
1161,0.0
1163,200.0
1166,0.0
1168,0.0
2,1, 1,18, 0,15, 0.00,60.00,Monday
7,6.1
545,20.68510557402957
546,9.890104526287647
547,14.65105901780174
548,0.0
720,-767.845237622605
721,-767.845237622605
784,0.0
785,0.0
848,0.0
849,0.0
1121,0.0
1135,0.0
1161,0.0
1163,200.0
1166,0.0
1168,0.0
2,1, 1,18, 0,16, 0.00,60.00,Monday
7,5.0
545,21.367555696989612
546,9.53499625506162
547,14.635406838906553
548,0.0
720,-1245.5532493621067
721,-1245.5532493621067
784,0.0
785,0.0
848,0.0
849,0.0
1121,0.0
1135,0.0
1161,0.0
1163,200.0
1166,0.0
1168,0.0
2,1, 1,18, 0,17, 0.00,60.00,Monday
7,5.0
545,21.162367374454007
546,7.743799885535687
547,14.624899607784426
548,0.0
720,-1064.1481058456247
721,-1064.1481058456247
784,0.0
785,0.0
848,0.0
849,0.0
1121,0.0
1135,0.0
1161,0.0
1163,200.0
1166,0.0
1168,0.0
2,1, 1,18, 0,18, 0.00,60.00,Monday
7,2.2
545,20.331581813123744
546,4.809191008473634
547,14.618234328539856
548,0.0
720,-430.83099932394725
721,-430.83099932394725
784,0.0
785,0.0
848,0.0
849,0.0
1121,0.0
1135,0.0
1161,0.0
1163,200.0
1166,0.0
1168,0.0
2,1, 1,18, 0,19, 0.00,60.00,Monday
7,1.7
545,19.748246917206277
546,2.9943517602784553
547,14.601705732413544
548,6.376412853920348
720,118.24924047858804
721,118.24924047858804
784,0.0
785,0.0
848,0.0
849,0.0
1121,195.47178546904635
1135,65.2606564109693
1161,0.0030716579376045853
1163,190.20857174556434
1166,0.0
1168,0.0
2,1, 1,18, 0,20, 0.00,60.00,Monday
7,1.7
545,19.701308522598058
546,2.5077649796731785
547,14.570409958489046
548,18.312699421748956
720,415.22950109786143
721,415.22950109786143
784,0.0
785,0.0
848,0.0
849,0.0
1121,568.7335344170438
1135,185.2988699544769
1161,0.008821628872161022
1163,171.87956864220925
1166,0.0
1168,0.0
2,1, 1,18, 0,21, 0.00,60.00,Monday
7,-0.6
545,20.005345263329502
546,1.419854729487924
547,14.523077738575916
548,32.26853707094116
720,681.211542472538
721,681.211542472538
784,0.0
785,0.0
848,0.0
849,0.0
1121,953.4449455871373
1135,319.6128477556397
1161,0.015544501820314879
1163,150.44927611853416
1166,0.0
1168,0.0
2,1, 1,18, 0,22, 0.00,60.00,Monday
7,-1.1
545,19.28105969977367
546,0.2830593296302671
547,14.452698212341724
548,36.721963317197336
720,725.5667587051867
721,725.5667587051867
784,0.0
785,0.0
848,0.0
849,0.0
1121,1072.7521919310798
1135,364.2747640518427
1161,0.017689831252127895
1163,143.61067636542896
1166,0.0
1168,0.0
2,1, 1,18, 0,23, 0.00,60.00,Monday
7,-1.1
545,18.70083591535813
546,-0.07484030461830225
547,14.36053771343746
548,39.90131511979779
720,782.0699790982144
721,782.0699790982144
784,0.0
785,0.0
848,0.0
849,0.0
1121,1173.1924790190874
1135,390.21803736838547
1161,0.019221399020900264
1163,138.72854553271145
1166,0.0
1168,0.0
2,1, 1,18, 0,24, 0.00,60.00,Monday
7,-2.8
545,18.53534327921367
546,-0.6503800518334257
547,14.272055718687476
548,65.4672843827481
720,1294.934407938029
721,1294.934407938029
784,0.0
785,0.0
848,0.0
849,0.0
1121,1883.7919364358377
1135,623.7720399444062
1161,0.03153719288142087
1163,99.46987336567076
1166,0.0
1168,0.0
2,2, 1,19, 0, 1, 0.00,60.00,Tuesday
7,-2.8
545,18.53587106738259
546,-0.8958546188001483
547,14.179440404135237
548,87.31008513425465
720,1738.8328504005203
721,1738.8328504005203
784,0.0
785,0.0
848,0.0
849,0.0
1121,2564.6814504605477
1135,829.0244533305223
1161,0.042059404103632805
1163,65.92854866313853
1166,0.0
1168,0.0
2,2, 1,19, 0, 2, 0.00,60.00,Tuesday
7,-2.8
545,18.486322090108555
546,-0.8970121996295984
547,14.084442214544005
548,107.07421177774087
720,2137.84859034711
721,2137.84859034711
784,0.0
785,0.0
848,0.0
849,0.0
1121,3203.139480237003
1135,1016.4739220887383
1161,0.051580267419572876
1163,35.579189466256445
1166,0.0
1168,0.0
2,2, 1,19, 0, 3, 0.00,60.00,Tuesday
7,-3.9
545,18.46750751821755
546,-1.0423915303536158
547,13.976792809957246
548,129.38492000334725
720,2520.8028065600392
721,2520.8028065600392
784,0.0
785,0.0
848,0.0
849,0.0
1121,3832.9820738190197
1135,1215.5115460833229
1161,0.06232797438779485
1163,1.3190590035816463
1166,0.0
1168,0.0
2,2, 1,19, 0, 4, 0.00,60.00,Tuesday
7,-6.1
545,18.53950502279348
546,-2.007158184758792
547,13.848277421737956
548,130.2454573567078
720,3023.8146514746295
721,3023.8146514746295
784,0.0
785,0.0
848,0.0
849,0.0
1121,3588.4776038864684
1135,1188.5186848825965
1161,9.251851076584584
1163,0.0
1166,932.4473236816893
1168,932.4473236816893
2,2, 1,19, 0, 5, 0.00,60.00,Tuesday
7,-6.1
545,18.57400959973811
546,-2.9678500163865893
547,13.741618938336671
548,130.2454573567078
720,3092.343710737612
721,3092.343710737612
784,0.0
785,0.0
848,0.0
849,0.0
1121,3587.196577248452
1135,1189.9978166619458
1161,9.251851076584584
1163,0.0
1166,1094.4035068473484
1168,1094.4035068473484
2,2, 1,19, 0, 6, 0.00,60.00,Tuesday
7,-6.1
545,19.349446419837054
546,-3.059635546549613
547,13.628353750121967
548,130.2454573567078
720,4182.794184252172
721,4182.794184252172
784,0.0
785,0.0
848,0.0
849,0.0
1121,3586.652302916946
1135,1190.6480626336506
1161,9.248183643883086
1163,0.0
1166,2423.403235945475
1168,2423.403235945475
2,2, 1,19, 0, 7, 0.00,60.00,Tuesday
7,-7.2
545,19.59472096174982
546,-3.0940652900694774
547,13.544949863796214
548,130.2454573567078
720,4183.749687379888
721,4183.749687379888
784,0.0
785,0.0
848,0.0
849,0.0
1121,3419.9990582240016
1135,1184.25274170775
1161,18.917049813770284
1163,0.0
1166,2691.166065214189
1168,2691.166065214189
2,2, 1,19, 0, 8, 0.00,60.00,Tuesday
7,-7.2
545,19.673322408174666
546,-3.0995592008219703
547,13.441216453138406
548,130.2454573567078
720,3931.495363614451
721,3931.495363614451
784,0.0
785,0.0
848,0.0
849,0.0
1121,3415.235487434096
1135,1189.6951017681363
1161,18.917049813770284
1163,0.0
1166,2436.9781651050826
1168,2436.9781651050826
2,2, 1,19, 0, 9, 0.00,60.00,Tuesday
7,-7.8
545,19.707189620975655
546,-1.4442508073954832
547,13.333708786235125
548,130.2454573567078
720,3364.3887989458744
721,3364.3887989458744
784,0.0
785,0.0
848,0.0
849,0.0
1121,3322.959647603404
1135,1174.5007588987073
1161,26.91430920152723
1163,0.0
1166,1875.6110014929855
1168,1875.6110014929855
2,2, 1,19, 0,10, 0.00,60.00,Tuesday
7,-3.9
545,19.769062410842782
546,1.9480913371660198
547,13.261678146375829
548,127.62139043346865
720,2182.4964081686994
721,2182.4964081686994
784,0.0
785,0.0
848,0.0
849,0.0
1121,3745.6112504381454
1135,1225.2370384154262
1161,1.3307776835823264
1163,3.9788756943478276
1166,0.0
1168,0.0
2,2, 1,19, 0,11, 0.00,60.00,Tuesday
7,-3.9
545,19.926040209102695
546,5.418154765680049
547,13.13652288238689
548,93.939072530098
720,1551.013744246342
721,1551.013744246342
784,0.0
785,0.0
848,0.0
849,0.0
1121,2670.8719928561595
1135,903.0505839495055
1161,0.9795539183828403
1163,55.71349537322412
1166,0.0
1168,0.0
2,2, 1,19, 0,12, 0.00,60.00,Tuesday
7,-1.1
545,19.983373601457878
546,8.197083300688208
547,13.046512208481111
548,53.03566060923571
720,937.1877388216053
721,937.1877388216053
784,0.0
785,0.0
848,0.0
849,0.0
1121,1573.0075641636504
1135,524.3880429516548
1161,0.02554852178878258
1163,118.55977352190656
1166,0.0
1168,0.0
2,2, 1,19, 0,13, 0.00,60.00,Tuesday
7,-1.1
545,19.897214166086346
546,9.943282648267665
547,12.985295221870622
548,29.091356625526057
720,521.3373842639194
721,521.3373842639194
784,0.0
785,0.0
848,0.0
849,0.0
1121,844.6903610688734
1135,287.97266817024683
1161,0.014013988925955385
1163,155.32804436096947
1166,0.0
1168,0.0
2,2, 1,19, 0,14, 0.00,60.00,Tuesday
7,-1.1
545,19.808823596228006
546,10.155814508827731
547,12.951600825715355
548,13.835654661542229
720,248.56377448882267
721,248.56377448882267
784,0.0
785,0.0
848,0.0
849,0.0
1121,396.66377057672946
1135,136.72999589612314
1161,0.006664959390280374
1163,178.75431671940993
1166,0.0
1168,0.0
2,2, 1,19, 0,15, 0.00,60.00,Tuesday
7,0.0
545,19.836621556013696
546,9.2753473443824
547,12.949692216808206
548,11.351815581711236
720,237.0583057405711
721,237.0583057405711
784,0.0
785,0.0
848,0.0
849,0.0
1121,334.842839815412
1135,113.06223114981027
1161,0.005468428708929568
1163,182.5684602727165
1166,0.0
1168,0.0
2,2, 1,19, 0,16, 0.00,60.00,Tuesday
7,0.6
545,19.925405785679363
546,8.133481126717468
547,12.95153762259347
548,10.911788642494981
720,238.84188954571255
721,238.84188954571255
784,0.0
785,0.0
848,0.0
849,0.0
1121,326.9692819092852
1135,109.31603640361988
1161,0.005256454123751499
1163,183.2441650499722
1166,0.0
1168,0.0
2,2, 1,19, 0,17, 0.00,60.00,Tuesday
7,0.6
545,19.73432610937628
546,5.880336619870301
547,12.959696501013463
548,12.816782268811652
720,282.44301039765014
721,282.44301039765014
784,0.0
785,0.0
848,0.0
849,0.0
1121,384.51060272812356
1135,128.6215030860189
1161,0.006174132435980345
1163,180.31891050100782
1166,0.0
1168,0.0
2,2, 1,19, 0,18, 0.00,60.00,Tuesday
7,-1.1
545,19.454752436117978
546,3.127591568757049
547,12.981133105504066
548,27.639086568773937
720,592.1625311977295
721,592.1625311977295
784,0.0
785,0.0
848,0.0
849,0.0
1121,802.5455038136835
1135,272.2473912530018
1161,0.0133143962305613
1163,157.55811418756625
1166,0.0
1168,0.0
2,2, 1,19, 0,19, 0.00,60.00,Tuesday
7,-1.1
545,19.638948054768164
546,1.3500386039396395
547,12.980564124102397
548,40.25460261502718
720,839.7077673789281
721,839.7077673789281
784,0.0
785,0.0
848,0.0
849,0.0
1121,1183.43092466635
1135,394.33756147068436
1161,0.01939158595984565
1163,138.18604593269893
1166,0.0
1168,0.0
2,2, 1,19, 0,20, 0.00,60.00,Tuesday
7,-1.1
545,19.682624375093322
546,0.3424390902848666
547,12.956448532692367
548,42.908354278753116
720,846.3054231567503
721,846.3054231567503
784,0.0
785,0.0
848,0.0
849,0.0
1121,1263.2130232670268
1135,421.8401410477823
1161,0.02066996051795163
1163,134.1110112047917
1166,0.0
1168,0.0
2,2, 1,19, 0,21, 0.00,60.00,Tuesday
7,-1.1
545,19.765204494395864
546,0.15344478278968277
547,12.921611579685674
548,47.05678507908228
720,910.0937802747685
721,910.0937802747685
784,0.0
785,0.0
848,0.0
849,0.0
1121,1390.1059980236562
1135,462.9976865606788
1161,0.0226683569600609
1163,127.74078516260039
1166,0.0
1168,0.0
2,2, 1,19, 0,22, 0.00,60.00,Tuesday
7,-1.7
545,19.620431834995745
546,0.42897694240676115
547,12.891762351281699
548,59.99774296144183
720,1147.0752144331964
721,1147.0752144331964
784,0.0
785,0.0
848,0.0
849,0.0
1121,1750.8795068307836
1135,584.7399602059772
1161,2.8337080927020297
1163,107.78817944252333
1166,0.0
1168,0.0
2,2, 1,19, 0,23, 0.00,60.00,Tuesday
7,-1.7
545,18.82372950692605
546,0.12203214218162416
547,12.796758538343898
548,42.40935100162519
720,734.0990972201944
721,734.0990972201944
784,0.0
785,0.0
848,0.0
849,0.0
1121,1219.4054033510522
1135,412.1850036344246
1161,2.0030027516300204
1163,134.8201987406114
1166,0.0
1168,0.0
2,2, 1,19, 0,24, 0.00,60.00,Tuesday
7,-1.7
545,18.597359464647237
546,0.2782806951930299
547,12.751350402149635
548,61.44687748991924
720,1206.0981108436117
721,1206.0981108436117
784,0.0
785,0.0
848,0.0
849,0.0
1121,1804.155736670371
1135,587.8738984764282
1161,2.9047267525751246
1163,105.561300784239
1166,0.0
1168,0.0
2,3, 1,20, 0, 1, 0.00,60.00,Wednesday
7,-2.2
545,18.144113243263533
546,-0.09711529029712039
547,12.71896841024966
548,100.33275479104248
720,2086.87353292606
721,2086.87353292606
784,0.0
785,0.0
848,0.0
849,0.0
1121,3033.50577701468
1135,956.8933069667667
1161,0.04833270490373989
1163,45.931343261210245
1166,0.0
1168,0.0
2,3, 1,20, 0, 2, 0.00,60.00,Wednesday
7,-2.2
545,18.356034484629845
546,0.29151499605393216
547,12.663883885955324
548,130.2454573567078
720,2901.6365468170625
721,2901.6365468170625
784,0.0
785,0.0
848,0.0
849,0.0
1121,4059.159944727795
1135,1230.9878109758959
1161,0.06274177490322884
1163,0.0
1166,185.70173535442427
1168,185.70173535442427
2,3, 1,20, 0, 3, 0.00,60.00,Wednesday
7,-3.3
545,18.522943677205344
546,0.28398863994351403
547,12.591670510624883
548,130.2454573567078
720,2863.4602738223402
721,2863.4602738223402
784,0.0
785,0.0
848,0.0
849,0.0
1121,3932.0824164975693
1135,1224.605976076471
1161,0.06274177490322884
1163,0.0
1166,369.73939008398975
1168,369.73939008398975
2,3, 1,20, 0, 4, 0.00,60.00,Wednesday
7,-3.9
545,18.57442981193124
546,-0.5251130605798511
547,12.514718438166643
548,130.2454573567078
720,3102.732397492744
721,3102.732397492744
784,0.0
785,0.0
848,0.0
849,0.0
1121,3862.7093203230984
1135,1222.3056849682216
1161,0.06274177490322884
1163,0.0
1166,745.2778087787842
1168,745.2778087787842
2,3, 1,20, 0, 5, 0.00,60.00,Wednesday
7,-3.9
545,18.591557962449684
546,-0.6117956734472054
547,12.435291130237465
548,130.2454573567078
720,3067.1021535072123
721,3067.1021535072123
784,0.0
785,0.0
848,0.0
849,0.0
1121,3861.7581202314655
1135,1223.4200820357446
1161,0.06274177490322884
1163,0.0
1166,756.7930950009313
1168,756.7930950009313
2,3, 1,20, 0, 6, 0.00,60.00,Wednesday
7,-5.6
545,19.352716873080738
546,-1.5612715535837154
547,12.339482267674803
548,130.2454573567078
720,4753.013494113091
721,4753.013494113091
784,0.0
785,0.0
848,0.0
849,0.0
1121,3666.872470492589
1135,1202.857021731944
1161,2.7359450877448377
1163,0.0
1166,2922.6176799704817
1168,2922.6176799704817
2,3, 1,20, 0, 7, 0.00,60.00,Wednesday
7,-6.1
545,19.598762981929696
546,-1.380667215731811
547,12.295158150606506
548,130.2454573567078
720,4350.879556936348
721,4350.879556936348
784,0.0
785,0.0
848,0.0
849,0.0
1121,3539.396541227355
1135,1195.356314444154
1161,17.646086193466825
1163,0.0
1166,2729.8024276902847
1168,2729.8024276902847
2,3, 1,20, 0, 8, 0.00,60.00,Wednesday
7,-6.1
545,19.676661234055857
546,-1.5164016851735886
547,12.218804157203603
548,130.2454573567078
720,4053.1029400789394
721,4053.1029400789394
784,0.0
785,0.0
848,0.0
849,0.0
1121,3534.5465735932385
1135,1200.9589168093332
1161,17.646086193466825
1163,0.0
1166,2409.273201875054
1168,2409.273201875054
2,3, 1,20, 0, 9, 0.00,60.00,Wednesday
7,-8.3
545,19.689186356458023
546,-2.5233657519938917
547,12.122062361492226
548,130.2454573567078
720,4122.654820517579
721,4122.654820517579
784,0.0
785,0.0
848,0.0
849,0.0
1121,3365.2325291198563
1135,1199.9292151276716
1161,2.611988930634
1163,0.0
1166,2681.590216028721
1168,2681.590216028721
2,3, 1,20, 0,10, 0.00,60.00,Wednesday
7,-7.8
545,19.72045676779483
546,-1.3267997678840038
547,12.062443066815277
548,130.2454573567078
720,3004.4350938436164
721,3004.4350938436164
784,0.0
785,0.0
848,0.0
849,0.0
1121,3425.708481637459
1135,1208.7337839147738
1161,0.06274177490322884
1163,0.0
1166,1372.1635386682472
1168,1372.1635386682472
2,3, 1,20, 0,11, 0.00,60.00,Wednesday
7,-7.8
545,19.737555166691507
546,-0.01545895427693772
547,12.011464005266495
548,130.2454573567078
720,2487.954041531715
721,2487.954041531715
784,0.0
785,0.0
848,0.0
849,0.0
1121,3425.152419385944
1135,1209.3646511522943
1161,0.06274177490322884
1163,0.0
1166,699.648758930854
1168,699.648758930854
2,3, 1,20, 0,12, 0.00,60.00,Wednesday
7,-7.2
545,19.745351897155594
546,0.07124474434112688
547,11.988424859764258
548,130.2454573567078
720,2064.2816737159264
721,2064.2816737159264
784,0.0
785,0.0
848,0.0
849,0.0
1121,3486.8057142503567
1135,1215.9848073145747
1161,0.06274177490322884
1163,0.0
1166,58.181431518601585
1168,58.181431518601585
2,3, 1,20, 0,13, 0.00,60.00,Wednesday
7,-7.2
545,19.797597105532663
546,1.7975338884101149
547,11.951349511291134
548,116.97351819141585
720,1755.466856947638
721,1755.466856947638
784,0.0
785,0.0
848,0.0
849,0.0
1121,3092.3676866125747
1135,1092.3168538200123
1161,0.05634938023845242
1163,20.376837201803323
1166,0.0
1168,0.0
2,3, 1,20, 0,14, 0.00,60.00,Wednesday
7,-7.2
545,19.81848036255843
546,1.582806415652098
547,11.935901712887071
548,105.84753600104763
720,1614.0971112002135
721,1614.0971112002135
784,0.0
785,0.0
848,0.0
849,0.0
1121,2768.5032270245174
1135,989.4223805752531
1161,0.05098968704206188
1163,37.46176412539508
1166,0.0
1168,0.0
2,3, 1,20, 0,15, 0.00,60.00,Wednesday
7,-7.8
545,19.997497895978434
546,2.1127628771777247
547,11.891389046834846
548,77.91560715334354
720,1072.058767557919
721,1072.058767557919
784,0.0
785,0.0
848,0.0
849,0.0
1121,1950.812413468611
1135,724.9733571052747
1161,0.03753414266958539
1163,80.3535834697791
1166,0.0
1168,0.0
2,3, 1,20, 0,16, 0.00,60.00,Wednesday
7,-7.8
545,19.608422858813586
546,-1.380832200784601
547,11.941345231294697
548,95.28351801244968
720,1481.1077643358567
721,1481.1077643358567
784,0.0
785,0.0
848,0.0
849,0.0
1121,2421.2922314694115
1135,889.4171846983973
1161,0.045900755373328946
1163,53.68359296776355
1166,0.0
1168,0.0
2,3, 1,20, 0,17, 0.00,60.00,Wednesday
7,-7.8
545,19.514444796365765
546,-2.6917768721667112
547,11.98711808608842
548,130.2454573567078
720,2111.3730332429295
721,2111.3730332429295
784,0.0
785,0.0
848,0.0
849,0.0
1121,3427.5412254415614
1135,1206.6542323880667
1161,0.06274177490322884
1163,0.0
1166,18.156539341519874
1168,18.156539341519874
2,3, 1,20, 0,18, 0.00,60.00,Wednesday
7,-8.9
545,19.610260268137917
546,-3.3549554070906895
547,11.960515954242277
548,130.2454573567078
720,2097.23183736174
721,2097.23183736174
784,0.0
785,0.0
848,0.0
849,0.0
1121,3317.3733765990905
1135,1193.1066686573574
1161,0.06274177490322884
1163,0.0
1166,319.70440397269203
1168,319.70440397269203
2,3, 1,20, 0,19, 0.00,60.00,Wednesday
7,-8.9
545,19.666729969824203
546,-4.15596381584018
547,11.935125855468577
548,130.2454573567078
720,2263.2246084599083
721,2263.2246084599083
784,0.0
785,0.0
848,0.0
849,0.0
1121,3315.4873577206895
1135,1195.218135016595
1161,0.06274177490322884
1163,0.0
1166,585.9754723835749
1168,585.9754723835749
2,3, 1,20, 0,20, 0.00,60.00,Wednesday
7,-8.9
545,19.688622129747937
546,-4.2561360786199876
547,11.884824352110561
548,130.2454573567078
720,2411.400337418745
721,2411.400337418745
784,0.0
785,0.0
848,0.0
849,0.0
1121,3314.385536864445
1135,1196.4513565719392
1161,0.06274177490322884
1163,0.0
1166,815.7518460987653
1168,815.7518460987653
2,3, 1,20, 0,21, 0.00,60.00,Wednesday
7,-10.0
545,19.693064602446988
546,-4.603285472807573
547,11.81369292726969
548,130.2454573567078
720,2753.3692082152265
721,2753.3692082152265
784,0.0
785,0.0
848,0.0
849,0.0
1121,3203.894689961383
1135,1185.050244454525
1161,0.14061620720570625
1163,0.0
1166,1343.1192145542623
1168,1343.1192145542623
2,3, 1,20, 0,22, 0.00,60.00,Wednesday
7,-10.6
545,19.688825956677867
546,-4.903625488483249
547,11.739181451199277
548,130.2454573567078
720,3154.9825074589553
721,3154.9825074589553
784,0.0
785,0.0
848,0.0
849,0.0
1121,3145.1393196014756
1135,1178.690362181111
1161,0.06274177490322884
1163,0.0
1166,1897.6754355213166
1168,1897.6754355213166
2,3, 1,20, 0,23, 0.00,60.00,Wednesday
7,-10.6
545,18.931013731694396
546,-5.166810022979613
547,11.662864977403277
548,130.2454573567078
720,2507.5933672161846
721,2507.5933672161846
784,0.0
785,0.0
848,0.0
849,0.0
1121,3145.3148114450464
1135,1178.4987441054752
1161,0.06274177490322884
1163,0.0
1166,1175.9213166963987
1168,1175.9213166963987
2,3, 1,20, 0,24, 0.00,60.00,Wednesday
7,-10.6
545,18.688761329718982
546,-5.450603054524494
547,11.53443683506418
548,130.2454573567078
720,3101.941150452265
721,3101.941150452265
784,0.0
785,0.0
848,0.0
849,0.0
1121,3131.82515208265
1135,1151.501827189709
1161,8.26285477366465
1163,0.0
1166,1827.091864654034
1168,1827.091864654034
2,4, 1,21, 0, 1, 0.00,60.00,Thursday
7,-10.0
545,18.58162130091571
546,-6.879986447245891
547,11.430226544341949
548,130.2454573567078
720,4459.065262785194
721,4459.065262785194
784,0.0
785,0.0
848,0.0
849,0.0
1121,3224.485517847129
1135,1162.7145309170387
1161,0.06274177490322884
1163,0.0
1166,3327.9089532850107
1168,3327.9089532850107
2,4, 1,21, 0, 2, 0.00,60.00,Thursday
7,-10.0
545,18.55768131987307
546,-6.92378182158668
547,11.321710267569024
548,130.2454573567078
720,4843.214038890041
721,4843.214038890041
784,0.0
785,0.0
848,0.0
849,0.0
1121,3226.71187611996
1135,1160.2498723506778
1161,0.06274177490322884
1163,0.0
1166,3871.6390797785616
1168,3871.6390797785616
2,4, 1,21, 0, 3, 0.00,60.00,Thursday
7,-10.6
545,18.577015564085162
546,-6.669184160201951
547,11.215395503195138
548,130.2454573567078
720,4440.386436477213
721,4440.386436477213
784,0.0
785,0.0
848,0.0
849,0.0
1121,3168.145764664711
1135,1153.4948737616046
1161,0.06274177490322884
1163,0.0
1166,3484.4696153449772
1168,3484.4696153449772
2,4, 1,21, 0, 4, 0.00,60.00,Thursday
7,-11.1
545,18.56517607302265
546,-7.38757494489387
547,11.100956673776109
548,130.2454573567078
720,4941.701909333911
721,4941.701909333911
784,0.0
785,0.0
848,0.0
849,0.0
1121,3119.146238587794
1135,1148.5677017447006
1161,0.06274177490322884
1163,0.0
1166,4102.925156815469
1168,4102.925156815469
2,4, 1,21, 0, 5, 0.00,60.00,Thursday
7,-11.1
545,18.564538049530373
546,-7.4727236669696655
547,10.991651279423948
548,130.2454573567078
720,4958.981705936747
721,4958.981705936747
784,0.0
785,0.0
848,0.0
849,0.0
1121,3119.514320429166
1135,1148.166407074002
1161,0.06274177490322884
1163,0.0
1166,4168.418071530801
1168,4168.418071530801
2,4, 1,21, 0, 6, 0.00,60.00,Thursday
7,-12.2
545,19.350367870068137
546,-7.146775614079227
547,10.877386500643325
548,130.2454573567078
720,5938.703309281422
721,5938.703309281422
784,0.0
785,0.0
848,0.0
849,0.0
1121,3013.843646981694
1135,1136.534394556334
1161,0.06274177490322884
1163,0.0
1166,5424.458517230245
1168,5424.458517230245
2,4, 1,21, 0, 7, 0.00,60.00,Thursday
7,-13.3
545,19.58370283760216
546,-7.084730442921278
547,10.802200807791955
548,130.2454573567078
720,5779.692454059026
721,5779.692454059026
784,0.0
785,0.0
848,0.0
849,0.0
1121,2895.095835969207
1135,1140.5850646468314
1161,0.06274177490322884
1163,0.0
1166,5429.337930443736
1168,5429.337930443736
2,4, 1,21, 0, 8, 0.00,60.00,Thursday
7,-13.3
545,19.66146919590354
546,-7.162918835177554
547,10.704186945753293
548,130.2454573567078
720,5192.886351059158
721,5192.886351059158
784,0.0
785,0.0
848,0.0
849,0.0
1121,2890.6400959897455
1135,1145.2345372183959
1161,0.06274177490322884
1163,0.0
1166,4771.892073387959
1168,4771.892073387959
2,4, 1,21, 0, 9, 0.00,60.00,Thursday
7,-12.2
545,19.70791032839371
546,-3.723166587704399
547,10.62260030584634
548,130.2454573567078
720,3966.6778127605867
721,3966.6778127605867
784,0.0
785,0.0
848,0.0
849,0.0
1121,2992.7770184056526
1135,1159.0259186206615
1161,0.06274177490322884
1163,0.0
1166,3241.2911610664423
1168,3241.2911610664423
2,4, 1,21, 0,10, 0.00,60.00,Thursday
7,-10.0
545,19.73482528870779
546,-4.364938713588667
547,10.55825661226476
548,130.2454573567078
720,3367.557252102897
721,3367.557252102897
784,0.0
785,0.0
848,0.0
849,0.0
1121,3205.4320076542253
1135,1183.7608332391637
1161,0.06274177490322884
1163,0.0
1166,2152.6363724756357
1168,2152.6363724756357
2,4, 1,21, 0,11, 0.00,60.00,Thursday
7,-10.0
545,19.730531618980695
546,-3.2106153683466583
547,10.508668913840308
548,130.2454573567078
720,2770.073015137852
721,2770.073015137852
784,0.0
785,0.0
848,0.0
849,0.0
1121,3204.975646701261
1135,1184.2638281550162
1161,0.06274177490322884
1163,0.0
1166,1446.663998408707
1168,1446.663998408707
2,4, 1,21, 0,12, 0.00,60.00,Thursday
7,-7.8
545,19.74995304106824
546,0.1612215175444591
547,10.502855651274617
548,130.2454573567078
720,1900.38719724152
721,1900.38719724152
784,0.0
785,0.0
848,0.0
849,0.0
1121,3426.8764889637996
1135,1207.4085308473454
1161,0.06274177490322884
1163,0.0
1166,143.45414888101254
1168,143.45414888101254
2,4, 1,21, 0,13, 0.00,60.00,Thursday
7,-7.2
545,19.748027738874598
546,1.2506882925364442
547,10.502914386469984
548,130.2454573567078
720,2065.9381790968546
721,2065.9381790968546
784,0.0
785,0.0
848,0.0
849,0.0
1121,3488.4548027348483
1135,1214.101036425311
1161,0.06274177490322884
1163,0.0
1166,89.15073509456806
1168,89.15073509456806
2,4, 1,21, 0,14, 0.00,60.00,Thursday
7,-7.2
545,19.810728705413705
546,1.3799565982338495
547,10.480151507926708
548,114.98520320033022
720,1724.3078011332564
721,1724.3078011332564
784,0.0
785,0.0
848,0.0
849,0.0
1121,3035.7269887498082