Program Version,EnergyPlus, Version 22.2.0-c249759bad, YMD=2023.09.01 20:44
1,5,Environment Title[],Latitude[deg],Longitude[deg],Time Zone[],Elevation[m]
2,8,Day of Simulation[],Month[],Day of Month[],DST Indicator[1=yes 0=no],Hour[],StartMinute[],EndMinute[],DayType
3,5,Cumulative Day of Simulation[],Month[],Day of Month[],DST Indicator[1=yes 0=no],DayType  ! When Daily Report Variables Requested
4,2,Cumulative Days of Simulation[],Month[]  ! When Monthly Report Variables Requested
5,1,Cumulative Days of Simulation[] ! When Run Period Report Variables Requested
6,1,Calendar Year of Simulation[] ! When Annual Report Variables Requested
581,11,LIVING,AFN Zone Infiltration Air Change Rate [ach] !RunPeriod [Value,Min,Month,Day,Hour,Minute,Max,Month,Day,Hour,Minute]
582,11,ATTIC,AFN Zone Infiltration Air Change Rate [ach] !RunPeriod [Value,Min,Month,Day,Hour,Minute,Max,Month,Day,Hour,Minute]
583,11,CRAWLSPACE,AFN Zone Infiltration Air Change Rate [ach] !RunPeriod [Value,Min,Month,Day,Hour,Minute,Max,Month,Day,Hour,Minute]
1038,11,Facility,Facility Heating Setpoint Not Met Time [hr] !RunPeriod [Value,Min,Month,Day,Hour,Minute,Max,Month,Day,Hour,Minute]
1039,11,Facility,Facility Cooling Setpoint Not Met Time [hr] !RunPeriod [Value,Min,Month,Day,Hour,Minute,Max,Month,Day,Hour,Minute]
1115,11,DX_HEATING_COIL,Heating Coil Heating Energy [J] !RunPeriod [Value,Min,Month,Day,Hour,Minute,Max,Month,Day,Hour,Minute]
1128,11,DX_HEATING_COIL,Heating Coil Electricity Energy [J] !RunPeriod [Value,Min,Month,Day,Hour,Minute,Max,Month,Day,Hour,Minute]
1153,11,DX_HEATING_COIL,Heating Coil Defrost Electricity Energy [J] !RunPeriod [Value,Min,Month,Day,Hour,Minute,Max,Month,Day,Hour,Minute]
1154,11,DX_HEATING_COIL,Heating Coil Crankcase Heater Electricity Energy [J] !RunPeriod [Value,Min,Month,Day,Hour,Minute,Max,Month,Day,Hour,Minute]
1155,11,HEATING_RESISTANCE_BACKUP,Heating Coil Heating Energy [J] !RunPeriod [Value,Min,Month,Day,Hour,Minute,Max,Month,Day,Hour,Minute]
1156,11,HEATING_RESISTANCE_BACKUP,Heating Coil Electricity Energy [J] !RunPeriod [Value,Min,Month,Day,Hour,Minute,Max,Month,Day,Hour,Minute]
1292,11,WATER HEATER,Water Heater Heat Loss Energy [J] !RunPeriod [Value,Min,Month,Day,Hour,Minute,Max,Month,Day,Hour,Minute]
1306,11,WATER HEATER,Water Heater Heating Energy [J] !RunPeriod [Value,Min,Month,Day,Hour,Minute,Max,Month,Day,Hour,Minute]
1307,11,WATER HEATER,Water Heater Unmet Demand Heat Transfer Energy [J] !RunPeriod [Value,Min,Month,Day,Hour,Minute,Max,Month,Day,Hour,Minute]
1308,11,WATER HEATER,Water Heater Electricity Energy [J] !RunPeriod [Value,Min,Month,Day,Hour,Minute,Max,Month,Day,Hour,Minute]
13,11,Electricity:Facility [J] !RunPeriod [Value,Min,Month,Day,Hour,Minute,Max,Month,Day,Hour,Minute]
1134,11,Heating:Electricity [J] !RunPeriod [Value,Min,Month,Day,Hour,Minute,Max,Month,Day,Hour,Minute]
1096,11,Cooling:Electricity [J] !RunPeriod [Value,Min,Month,Day,Hour,Minute,Max,Month,Day,Hour,Minute]
562,11,Fans:Electricity [J] !RunPeriod [Value,Min,Month,Day,Hour,Minute,Max,Month,Day,Hour,Minute]
1379,11,Pumps:Electricity [J] !RunPeriod [Value,Min,Month,Day,Hour,Minute,Max,Month,Day,Hour,Minute]
1326,11,WaterSystems:Electricity [J] !RunPeriod [Value,Min,Month,Day,Hour,Minute,Max,Month,Day,Hour,Minute]
61,11,InteriorLights:Electricity [J] !RunPeriod [Value,Min,Month,Day,Hour,Minute,Max,Month,Day,Hour,Minute]
1046,11,ExteriorLights:Electricity [J] !RunPeriod [Value,Min,Month,Day,Hour,Minute,Max,Month,Day,Hour,Minute]
134,11,InteriorEquipment:Electricity [J] !RunPeriod [Value,Min,Month,Day,Hour,Minute,Max,Month,Day,Hour,Minute]
170,11,gas_dryer:InteriorEquipment:Electricity [J] !RunPeriod [Value,Min,Month,Day,Hour,Minute,Max,Month,Day,Hour,Minute]
207,11,clotheswasher:InteriorEquipment:Electricity [J] !RunPeriod [Value,Min,Month,Day,Hour,Minute,Max,Month,Day,Hour,Minute]
244,11,dishwasher:InteriorEquipment:Electricity [J] !RunPeriod [Value,Min,Month,Day,Hour,Minute,Max,Month,Day,Hour,Minute]
281,11,refrigerator:InteriorEquipment:Electricity [J] !RunPeriod [Value,Min,Month,Day,Hour,Minute,Max,Month,Day,Hour,Minute]
318,11,electric_mels:InteriorEquipment:Electricity [J] !RunPeriod [Value,Min,Month,Day,Hour,Minute,Max,Month,Day,Hour,Minute]
355,11,NaturalGas:Facility [J] !RunPeriod [Value,Min,Month,Day,Hour,Minute,Max,Month,Day,Hour,Minute]
403,11,InteriorEquipment:NaturalGas [J] !RunPeriod [Value,Min,Month,Day,Hour,Minute,Max,Month,Day,Hour,Minute]
476,11,gas_dryer:InteriorEquipment:NaturalGas [J] !RunPeriod [Value,Min,Month,Day,Hour,Minute,Max,Month,Day,Hour,Minute]
513,11,gas_mels:InteriorEquipment:NaturalGas [J] !RunPeriod [Value,Min,Month,Day,Hour,Minute,Max,Month,Day,Hour,Minute]
End of Data Dictionary
1,EXTREME_WINTER,  35.87, -78.78,  -5.00, 126.80
5,7
1038,0.25,0.0, 1,20, 1,15,0.25, 1,23, 6,15
1039,0.0,0.0, 1,20, 1,15,0.0, 1,20, 1,15
581,0.2526065683379026,0.163076306270004, 1,22,24,60,0.48733504800931204, 1,25,22,60
582,2.1246184969947546,0.0, 1,20,20,52,8.37740046804753, 1,25,22,60
583,0.019956495932962632,0.00025735586633429897, 1,20,24,45,0.07119537493085881, 1,26, 6,60
1115,704286140.8124603,0.0, 1,20, 1,15,3780263.060974363, 1,26, 5,60
1128,223100535.68576676,0.0, 1,20, 1,15,1257192.0891814118, 1,26, 7,60
1153,10186081.038041348,0.0, 1,20, 1,15,91414.38705802838, 1,22, 6,45
1154,88250859.86235899,0.0, 1,20, 6, 5,180000.0, 1,20, 1,15
1155,13152656.143410858,0.0, 1,20, 1,15,1064345.0770983794, 1,26, 6,45
1156,13152656.143410858,0.0, 1,20, 1,15,1064345.0770983794, 1,26, 6,45
1292,-24709631.312383726,-39766.53076182542, 1,25, 3,15,-3881.832779097353, 1,26,10,32
1306,238836252.5566546,0.0, 1,20, 1,15,4050000.0, 1,20, 8,45
1307,71566451.43845876,0.0, 1,20, 1,15,12039507.537316881, 1,20, 8,30
1308,238836252.5566546,0.0, 1,20, 1,15,4050000.0, 1,20, 8,45
13,973092184.9771618,344334.63869159983, 1,20, 1,15,5815093.138769849, 1,23, 7,15
61,301924526.02383536,88139.10953165221, 1,20, 1,15,1282023.4113694867, 1,20,20,15
134,70666020.44019976,63564.01800854099, 1,20, 4,15,156554.22484006523, 1,25,20,15
170,5241013.419656067,348.4159749238097, 1,20, 4,15,17476.39704006126, 1,25,12,15
207,6509451.13922267,815.2532113832032, 1,20, 3,15,22990.642799023623, 1,25,10,15
244,12749673.399825225,1521.856143006317, 1,20, 4,15,53038.631142310165, 1,25,20,15
281,46165882.481495745,59938.60262432081, 1,20, 5,15,81951.81706819107, 1,20,19,15
318,0.0,0.0, 1,20, 1,15,0.0, 1,20, 1,15
355,197687796.27748066,18561.32405820678, 1,20, 4,15,724774.895203776, 1,25,18,15
403,197687796.27748066,18561.32405820678, 1,20, 4,15,724774.895203776, 1,25,18,15
476,106772067.24485716,7098.072629279515, 1,20, 4,15,356036.3026282215, 1,25,12,15
513,0.0,0.0, 1,20, 1,15,0.0, 1,20, 1,15
562,24218190.398275822,0.0, 1,20, 1,15,133950.43332682244, 1,26, 6,15
1046,0.0,0.0, 1,20, 1,15,0.0, 1,20, 1,15
1096,2757062.8286192343,0.0, 1,20, 1,15,182428.11643368469, 1,20,17,30
1134,334690132.7295777,141290.3221481088, 1,20,17,30,2926537.2942644428, 1,26, 6,15
1326,238836252.55665472,0.0, 1,20, 1,15,4050000.0, 1,20, 8,45
1379,0.0,0.0, 1,20, 1,15,0.0, 1,20, 1,15
1,EXTREME_SUMMER,  35.87, -78.78,  -5.00, 126.80
5,7
1038,0.0,0.0, 8,17, 1,15,0.0, 8,17, 1,15
1039,65.0,0.0, 8,17, 1,15,0.25, 8,17,12,15
581,0.09294198509142618,0.0, 8,17, 7,15,0.38341724365830904, 8,22,22,60
582,2.474831098927714,0.08264271646145847, 8,20, 8,50,8.174658543954719, 8,22,22,60
583,0.045705833658244384,0.0, 8,19,23, 3,0.07121028981609102, 8,22,22,60
1115,0.0,0.0, 8,17, 1,15,0.0, 8,17, 1,15
1128,0.0,0.0, 8,17, 1,15,0.0, 8,17, 1,15
1153,0.0,0.0, 8,17, 1,15,0.0, 8,17, 1,15
1154,0.0,0.0, 8,17, 1,15,0.0, 8,17, 1,15
1155,0.0,0.0, 8,17, 1,15,0.0, 8,17, 1,15
1156,0.0,0.0, 8,17, 1,15,0.0, 8,17, 1,15
1292,-21594163.944900732,-34327.074738930816, 8,22, 6,60,-2850.5699090068456, 8,23,15,46
1306,176904788.41320232,0.0, 8,17, 1,15,4050000.0, 8,20, 6,60
1307,35609172.54284072,0.0, 8,17, 1,15,1797294.363904397, 8,17,18,15
1308,176904788.41320232,0.0, 8,17, 1,15,4050000.0, 8,20, 6,60
13,1208195806.9654229,297312.1405319387, 8,20, 4,60,5966418.720039617, 8,19,17,15
61,301924526.02383536,88139.10953165221, 8,17, 1,15,1282023.4113694867, 8,17,20,15
134,70666020.44019976,63564.01800854099, 8,17, 4,15,156554.22484006523, 8,22,20,15
170,5241013.419656067,348.4159749238097, 8,17, 4,15,17476.39704006126, 8,22,12,15
207,6509451.13922267,815.2532113832032, 8,17, 3,15,22990.642799023623, 8,22,10,15
244,12749673.399825225,1521.856143006317, 8,17, 4,15,53038.631142310165, 8,22,20,15
281,46165882.481495745,59938.60262432081, 8,17, 5,15,81951.81706819107, 8,17,19,15
318,0.0,0.0, 8,17, 1,15,0.0, 8,17, 1,15
355,197687796.27748066,18561.32405820678, 8,17, 4,15,724774.895203776, 8,22,18,15
403,197687796.27748066,18561.32405820678, 8,17, 4,15,724774.895203776, 8,22,18,15
476,106772067.24485716,7098.072629279515, 8,17, 4,15,356036.3026282215, 8,22,12,15
513,0.0,0.0, 8,17, 1,15,0.0, 8,17, 1,15
562,61775780.37876539,14842.69698065111, 8,20, 5,60,133950.4333268225, 8,23,15,30
1046,0.0,0.0, 8,17, 1,15,0.0, 8,17, 1,15
1096,596924691.7094214,124556.11746737649, 8,20, 5,60,1478810.1732328022, 8,18,15,60
1134,0.0,0.0, 8,17, 1,15,0.0, 8,17, 1,15
1326,176904788.41320232,0.0, 8,17, 1,15,4050000.0, 8,17, 8,45
1379,0.0,0.0, 8,17, 1,15,0.0, 8,17, 1,15
1,ANNUAL,  35.87, -78.78,  -5.00, 126.80
5,365
1038,2.5,0.0, 1, 1, 1,15,0.25, 1,19, 6,15
1039,925.5,0.0, 1, 1, 1,15,0.25, 3, 3,13,45
581,0.18892749431228786,0.0, 5,29,23, 3,1.1362232701061763,11,16,11,60
582,2.9310757659142714,0.0, 1, 2, 7,52,26.97576914745523,11,16,11,60
583,0.026316184387866925,0.0, 5,29,23, 3,0.07662090310872534, 9, 6,12,52
1115,5919580573.654617,0.0, 1, 1, 1, 7,4100888.539006794, 1,31, 6,45
1128,1846803005.062333,0.0, 1, 1, 1, 7,1305268.5326445785, 1,31, 6,45
1153,75806647.29035053,0.0, 1, 1, 1, 7,108431.89054227914, 1,19, 6,60
1154,1326927516.6952791,0.0, 1, 1, 1, 7,180000.0, 1, 1,24,45
1155,119544040.6335073,0.0, 1, 1, 1, 7,1732749.398746839, 1,29, 6,30
1156,119544040.6335073,0.0, 1, 1, 1, 7,1732749.398746839, 1,29, 6,30
1292,-1183853019.2458198,-39778.09572946136,12,27, 3,45,-2008.9510467790972,11,26,10,31
1306,10836929042.085127,0.0, 1, 1, 1, 7,4050000.0, 1, 1,10,30
1307,2774267457.4795494,0.0, 1, 1, 1, 7,13071071.089229833, 1,16, 8,30
1308,10836929042.085127,0.0, 1, 1, 1, 7,4050000.0, 1, 1,10,30
13,48751204157.63391,151703.1275401932, 1, 5, 4,15,7143726.398594128, 1,26, 6,60
61,15743207428.383959,88139.10953165221, 1, 1, 1,15,1282023.4113694867, 1, 1,20,15
134,3685071073.4325233,63564.01800854099, 1, 2, 4,15,156554.22484006523, 1, 1,20,15
170,273393721.45532674,348.4159749238097, 1, 2, 4,15,17476.39704006126, 1, 1,12,15
207,339560869.0695816,815.2532113832032, 1, 2, 3,15,22990.642799023623, 1, 1,10,15
244,664895467.8009144,1521.856143006317, 1, 2, 4,15,53038.631142310165, 1, 1,20,15
281,2407221015.106824,59938.60262432081, 1, 1, 5,15,81951.81706819107, 1, 1,19,15
318,0.0,0.0, 1, 1, 1,15,0.0, 1, 1, 1,15
355,10310294493.051695,18561.32405820678, 1, 2, 4,15,724774.895203776, 1, 1,18,15
403,10310294493.051695,18561.32405820678, 1, 2, 4,15,724774.895203776, 1, 1,18,15
476,5569688622.066177,7098.072629279515, 1, 2, 4,15,356036.3026282215, 1, 1,12,15
513,0.0,0.0, 1, 1, 1,15,0.0, 1, 1, 1,15
562,1716031745.7286413,0.0, 1, 1, 1,15,133950.4333268225, 6, 9,16,30
1046,0.0,0.0, 1, 1, 1,15,0.0, 1, 1, 1,15
1096,13400883658.320251,0.0, 1, 1, 1,15,1481571.5119273495, 8,18,15,60
1134,3369081209.681462,0.0, 1, 1, 1,15,3771080.300602304, 1,29, 6,15
1326,10836929042.085123,0.0, 1, 1, 1,15,4050000.0000000014, 3,26,10,60
1379,0.0,0.0, 1, 1, 1,15,0.0, 1, 1, 1,15
End of Data
 Number of Records Written=          99
