Program Version,EnergyPlus, Version 22.2.0-c249759bad, YMD=2023.07.07 15:19
1,5,Environment Title[],Latitude[deg],Longitude[deg],Time Zone[],Elevation[m]
2,8,Day of Simulation[],Month[],Day of Month[],DST Indicator[1=yes 0=no],Hour[],StartMinute[],EndMinute[],DayType
3,5,Cumulative Day of Simulation[],Month[],Day of Month[],DST Indicator[1=yes 0=no],DayType  ! When Daily Report Variables Requested
4,2,Cumulative Days of Simulation[],Month[]  ! When Monthly Report Variables Requested
5,1,Cumulative Days of Simulation[] ! When Run Period Report Variables Requested
6,1,Calendar Year of Simulation[] ! When Annual Report Variables Requested
581,11,LIVING,AFN Zone Infiltration Air Change Rate [ach] !RunPeriod [Value,Min,Month,Day,Hour,Minute,Max,Month,Day,Hour,Minute]
582,11,ATTIC,AFN Zone Infiltration Air Change Rate [ach] !RunPeriod [Value,Min,Month,Day,Hour,Minute,Max,Month,Day,Hour,Minute]
583,11,CRAWLSPACE,AFN Zone Infiltration Air Change Rate [ach] !RunPeriod [Value,Min,Month,Day,Hour,Minute,Max,Month,Day,Hour,Minute]
1038,11,Facility,Facility Heating Setpoint Not Met Time [hr] !RunPeriod [Value,Min,Month,Day,Hour,Minute,Max,Month,Day,Hour,Minute]
1039,11,Facility,Facility Cooling Setpoint Not Met Time [hr] !RunPeriod [Value,Min,Month,Day,Hour,Minute,Max,Month,Day,Hour,Minute]
1115,11,DX_HEATING_COIL,Heating Coil Heating Energy [J] !RunPeriod [Value,Min,Month,Day,Hour,Minute,Max,Month,Day,Hour,Minute]
1128,11,DX_HEATING_COIL,Heating Coil Electricity Energy [J] !RunPeriod [Value,Min,Month,Day,Hour,Minute,Max,Month,Day,Hour,Minute]
1153,11,DX_HEATING_COIL,Heating Coil Defrost Electricity Energy [J] !RunPeriod [Value,Min,Month,Day,Hour,Minute,Max,Month,Day,Hour,Minute]
1154,11,DX_HEATING_COIL,Heating Coil Crankcase Heater Electricity Energy [J] !RunPeriod [Value,Min,Month,Day,Hour,Minute,Max,Month,Day,Hour,Minute]
1156,11,HEATING_RESISTANCE_BACKUP,Heating Coil Electricity Energy [J] !RunPeriod [Value,Min,Month,Day,Hour,Minute,Max,Month,Day,Hour,Minute]
13,11,Electricity:Facility [J] !RunPeriod [Value,Min,Month,Day,Hour,Minute,Max,Month,Day,Hour,Minute]
1134,11,Heating:Electricity [J] !RunPeriod [Value,Min,Month,Day,Hour,Minute,Max,Month,Day,Hour,Minute]
1096,11,Cooling:Electricity [J] !RunPeriod [Value,Min,Month,Day,Hour,Minute,Max,Month,Day,Hour,Minute]
562,11,Fans:Electricity [J] !RunPeriod [Value,Min,Month,Day,Hour,Minute,Max,Month,Day,Hour,Minute]
1388,11,Pumps:Electricity [J] !RunPeriod [Value,Min,Month,Day,Hour,Minute,Max,Month,Day,Hour,Minute]
1360,11,WaterSystems:Electricity [J] !RunPeriod [Value,Min,Month,Day,Hour,Minute,Max,Month,Day,Hour,Minute]
61,11,InteriorLights:Electricity [J] !RunPeriod [Value,Min,Month,Day,Hour,Minute,Max,Month,Day,Hour,Minute]
1046,11,ExteriorLights:Electricity [J] !RunPeriod [Value,Min,Month,Day,Hour,Minute,Max,Month,Day,Hour,Minute]
134,11,InteriorEquipment:Electricity [J] !RunPeriod [Value,Min,Month,Day,Hour,Minute,Max,Month,Day,Hour,Minute]
170,11,gas_dryer:InteriorEquipment:Electricity [J] !RunPeriod [Value,Min,Month,Day,Hour,Minute,Max,Month,Day,Hour,Minute]
207,11,clotheswasher:InteriorEquipment:Electricity [J] !RunPeriod [Value,Min,Month,Day,Hour,Minute,Max,Month,Day,Hour,Minute]
244,11,dishwasher:InteriorEquipment:Electricity [J] !RunPeriod [Value,Min,Month,Day,Hour,Minute,Max,Month,Day,Hour,Minute]
281,11,refrigerator:InteriorEquipment:Electricity [J] !RunPeriod [Value,Min,Month,Day,Hour,Minute,Max,Month,Day,Hour,Minute]
318,11,electric_mels:InteriorEquipment:Electricity [J] !RunPeriod [Value,Min,Month,Day,Hour,Minute,Max,Month,Day,Hour,Minute]
355,11,NaturalGas:Facility [J] !RunPeriod [Value,Min,Month,Day,Hour,Minute,Max,Month,Day,Hour,Minute]
1323,11,WaterSystems:NaturalGas [J] !RunPeriod [Value,Min,Month,Day,Hour,Minute,Max,Month,Day,Hour,Minute]
403,11,InteriorEquipment:NaturalGas [J] !RunPeriod [Value,Min,Month,Day,Hour,Minute,Max,Month,Day,Hour,Minute]
476,11,gas_dryer:InteriorEquipment:NaturalGas [J] !RunPeriod [Value,Min,Month,Day,Hour,Minute,Max,Month,Day,Hour,Minute]
513,11,gas_mels:InteriorEquipment:NaturalGas [J] !RunPeriod [Value,Min,Month,Day,Hour,Minute,Max,Month,Day,Hour,Minute]
End of Data Dictionary
1,EXTREME_WINTER,  40.70, -74.17,  -5.00,   9.00
5,7
1038,0.5,0.0, 1,27, 1,10,0.16666666666666666, 1,29, 6,10
1039,0.0,0.0, 1,27, 1,10,0.0, 1,27, 1,10
581,0.37843590185192333,0.1937632260048985, 1,28, 4,60,0.8241538920138732, 1,28,21,56
582,6.517683488957148,0.0009955625777413055, 1,28, 4,60,20.56799744367088, 1,28,18,60
583,7.663706687187982,0.00028998862022892175, 2, 2,15,55,22.690915658102064, 1,28,21,53
1115,1790560999.480839,0.0, 1,27,11,15,2756586.5034258035, 2, 2, 7,20
1128,571396708.6066401,0.0, 1,27,11,15,831668.9543759967, 1,28,22,20
1153,10463551.964842895,0.0, 1,27,11,15,55373.56844464869, 2, 2, 6,60
1154,36716715.34545399,0.0, 1,27, 6, 2,120000.0, 1,27,12,40
1156,596079810.0462905,0.0, 1,27, 1, 2,3084269.232649701, 1,31, 6,40
13,1655647585.6565297,306324.6925987483, 1,27,15,20,4800254.059311114, 1,30, 6,10
61,301924526.0238348,58759.40635443481, 1,27, 1,10,854682.2742463244, 1,27,20,10
134,70666020.44019979,42376.01200569399, 1,27, 4,10,104369.48322671017, 2, 1,20,10
170,5241013.419656074,232.27731661587313, 1,27, 4,10,11650.931360040839, 2, 1,12,10
207,6509451.13922266,543.5021409221355, 1,27, 3,10,15327.095199349082, 2, 1,10,10
244,12749673.39982522,1014.5707620042115, 1,27, 4,10,35359.08742820678, 2, 1,20,10
281,46165882.48149605,39959.06841621388, 1,27, 5,10,54634.54471212738, 1,27,19,10
318,0.0,0.0, 1,27, 1,10,0.0, 1,27, 1,10
355,744557725.7676448,12374.216038804521, 1,27, 4,10,3829218.154066982, 1,28,18,60
403,197687796.27748126,12374.216038804521, 1,27, 4,10,483183.26346918393, 2, 1,18,10
476,106772067.24485692,4732.048419519677, 1,27, 4,10,237357.535085481, 2, 1,12,10
513,0.0,0.0, 1,27, 1,10,0.0, 1,27, 1,10
562,63380413.229266085,0.0, 1,27,11,20,90376.12889137708, 1,28,21,30
1046,0.0,0.0, 1,27, 1,10,0.0, 1,27, 1,10
1096,0.0,0.0, 1,27, 1,10,0.0, 1,27, 1,10
1134,1214656785.9632277,120000.0, 1,27,11,20,4292318.607409085, 1,30, 6,10
1323,546869929.4901607,0.0, 1,27, 1,10,3375000.000000002, 1,27,17,10
1360,5019840.0,4980.0, 1,27, 1,10,4980.000000000002, 2, 1, 9,20
1388,0.0,0.0, 1,27, 1,10,0.0, 1,27, 1,10
1,EXTREME_SUMMER,  40.70, -74.17,  -5.00,   9.00
5,7
1038,0.0,0.0, 7,27, 1,10,0.0, 7,27, 1,10
1039,59.16666666666667,0.0, 7,27, 1,10,0.16666666666666666, 7,27,14,40
581,0.12019240591757871,0.0, 7,27, 4,50,0.45773134434144774, 7,30,14,55
582,3.9078629462797503,0.08718974747832453, 7,28, 8,21,17.94760015093054, 7,30,16,53
583,4.580412685117001,0.110499685233907, 7,27, 4,60,14.46282969020076, 7,30,16,53
1115,0.0,0.0, 7,27, 1,10,0.0, 7,27, 1,10
1128,0.0,0.0, 7,27, 1,10,0.0, 7,27, 1,10
1153,0.0,0.0, 7,27, 1,10,0.0, 7,27, 1,10
1154,0.0,0.0, 7,27, 1,10,0.0, 7,27, 1,10
1156,0.0,0.0, 7,27, 1,10,0.0, 7,27, 1,10
13,1054756087.7427129,229092.21691215347, 7,31, 4,60,1985270.9394100949, 8, 1,20,10
61,301924526.0238348,58759.40635443481, 7,27, 1,10,854682.2742463244, 7,27,20,10
134,70666020.44019979,42376.01200569399, 7,27, 4,10,104369.48322671017, 8, 1,20,10
170,5241013.419656074,232.27731661587313, 7,27, 4,10,11650.931360040839, 8, 1,12,10
207,6509451.13922266,543.5021409221355, 7,27, 3,10,15327.095199349082, 8, 1,10,10
244,12749673.39982522,1014.5707620042115, 7,27, 4,10,35359.08742820678, 8, 1,20,10
281,46165882.48149605,39959.06841621388, 7,27, 5,10,54634.54471212738, 7,27,19,10
318,0.0,0.0, 7,27, 1,10,0.0, 7,27, 1,10
355,631871855.947318,12374.216038804521, 7,27, 4,10,3829218.154066982, 7,28,18,60
403,197687796.27748126,12374.216038804521, 7,27, 4,10,483183.26346918393, 8, 1,18,10
476,106772067.24485692,4732.048419519677, 7,27, 4,10,237357.535085481, 8, 1,12,10
513,0.0,0.0, 7,27, 1,10,0.0, 7,27, 1,10
562,63649482.506656595,8672.310914347348, 7,30,23,10,90376.1288913771, 7,28,16,40
1046,0.0,0.0, 7,27, 1,10,0.0, 7,27, 1,10
1096,613496218.7720228,76114.00948666669, 7,30,23,10,986178.9020833864, 8, 1,15,60
1134,0.0,0.0, 7,27, 1,10,0.0, 7,27, 1,10
1323,434184059.66983515,0.0, 7,27, 1,10,3375000.0, 7,27, 9,50
1360,5019840.0,4980.0, 7,27, 1,10,4980.000000000002, 7,29,16,10
1388,0.0,0.0, 7,27, 1,10,0.0, 7,27, 1,10
1,ANNUAL,  40.70, -74.17,  -5.00,   9.00
5,365
1038,10.83333333333333,0.0, 1, 1, 1,10,0.16666666666666666, 1, 3, 6,10
1039,533.0000000000002,0.0, 1, 1, 1,10,0.16666666666666666, 4,18,10,40
581,0.24981604694551723,0.0, 5,26,24,45,1.154228548382837, 8,19,19,52
582,5.045028886028707,0.0, 1, 1, 6, 2,39.21945891842859, 8,28,16,60
583,5.874795102739278,0.0, 7, 6, 6, 7,35.71059540523, 8,19,19,52
1115,22339841972.960835,0.0, 1, 1,13,33,3130068.3387700473, 3, 1, 6,30
1128,6749503348.670856,0.0, 1, 1,13,33,884635.3332603724, 3, 1, 6,30
1153,115573960.61415707,0.0, 1, 1,13,33,83935.62737274823,12,13, 6,30
1154,1490969899.6107802,0.0, 1, 1, 6, 2,120000.0, 1, 1,14,30
1156,2916193057.9165454,0.0, 1, 1, 1, 1,3195780.571525651, 1,31, 6,40
13,42540045116.42316,106115.4183601288, 3, 6, 4,10,4809992.034871304, 1, 4, 6,10
61,15743207428.39043,58759.40635443481, 1, 1, 1,10,854682.2742463244, 1, 1,20,10
134,3685071073.433083,42376.01200569399, 1, 2, 4,10,104369.48322671017, 1, 1,20,10
170,273393721.45534325,232.27731661587313, 1, 2, 4,10,11650.931360040839, 1, 1,12,10
207,339560869.06955314,543.5021409221355, 1, 2, 3,10,15327.095199349082, 1, 1,10,10
244,664895467.8009839,1014.5707620042115, 1, 2, 4,10,35359.08742820678, 1, 1,20,10
281,2407221015.1057043,39959.06841621388, 1, 1, 5,10,54634.54471212738, 1, 1,19,10
318,0.0,0.0, 1, 1, 1,10,0.0, 1, 1, 1,10
355,35725343585.410866,12374.216038804521, 1, 2, 4,10,3829218.154066983, 5,16,18,60
403,10310294493.052883,12374.216038804521, 1, 2, 4,10,483183.26346918393, 1, 1,18,10
476,5569688622.065564,4732.048419519677, 1, 2, 4,10,237357.535085481, 1, 1,12,10
513,0.0,0.0, 1, 1, 1,10,0.0, 1, 1, 1,10
562,1832324029.0933883,0.0, 1, 1,13,40,90376.1288913771, 5,30,16,40
1046,0.0,0.0, 1, 1, 1,10,0.0, 1, 1, 1,10
1096,9745453518.700811,0.0, 1, 1, 1,10,1012280.7268362842, 7,19,15,60
1134,11272240266.812372,0.0, 1,15,15,30,4302056.582969275, 1, 4, 6,10
1323,25415049092.361996,0.0, 1, 1, 1,10,3375000.0000000023, 5,29,17,20
1360,261748800.0,4979.999999999998, 6,14,13,40,4980.000000000002, 1,15, 4,10
1388,0.0,0.0, 1, 1, 1,10,0.0, 1, 1, 1,10
End of Data
 Number of Records Written=          87
