Program Version,EnergyPlus, Version 22.2.0-c249759bad, YMD=2023.09.01 20:22
1,5,Environment Title[],Latitude[deg],Longitude[deg],Time Zone[],Elevation[m]
2,8,Day of Simulation[],Month[],Day of Month[],DST Indicator[1=yes 0=no],Hour[],StartMinute[],EndMinute[],DayType
3,5,Cumulative Day of Simulation[],Month[],Day of Month[],DST Indicator[1=yes 0=no],DayType  ! When Daily Report Variables Requested
4,2,Cumulative Days of Simulation[],Month[]  ! When Monthly Report Variables Requested
5,1,Cumulative Days of Simulation[] ! When Run Period Report Variables Requested
6,1,Calendar Year of Simulation[] ! When Annual Report Variables Requested
581,11,LIVING,AFN Zone Infiltration Air Change Rate [ach] !RunPeriod [Value,Min,Month,Day,Hour,Minute,Max,Month,Day,Hour,Minute]
582,11,ATTIC,AFN Zone Infiltration Air Change Rate [ach] !RunPeriod [Value,Min,Month,Day,Hour,Minute,Max,Month,Day,Hour,Minute]
583,11,CRAWLSPACE,AFN Zone Infiltration Air Change Rate [ach] !RunPeriod [Value,Min,Month,Day,Hour,Minute,Max,Month,Day,Hour,Minute]
1038,11,Facility,Facility Heating Setpoint Not Met Time [hr] !RunPeriod [Value,Min,Month,Day,Hour,Minute,Max,Month,Day,Hour,Minute]
1039,11,Facility,Facility Cooling Setpoint Not Met Time [hr] !RunPeriod [Value,Min,Month,Day,Hour,Minute,Max,Month,Day,Hour,Minute]
1115,11,DX_HEATING_COIL,Heating Coil Heating Energy [J] !RunPeriod [Value,Min,Month,Day,Hour,Minute,Max,Month,Day,Hour,Minute]
1128,11,DX_HEATING_COIL,Heating Coil Electricity Energy [J] !RunPeriod [Value,Min,Month,Day,Hour,Minute,Max,Month,Day,Hour,Minute]
1153,11,DX_HEATING_COIL,Heating Coil Defrost Electricity Energy [J] !RunPeriod [Value,Min,Month,Day,Hour,Minute,Max,Month,Day,Hour,Minute]
1154,11,DX_HEATING_COIL,Heating Coil Crankcase Heater Electricity Energy [J] !RunPeriod [Value,Min,Month,Day,Hour,Minute,Max,Month,Day,Hour,Minute]
1155,11,HEATING_RESISTANCE_BACKUP,Heating Coil Heating Energy [J] !RunPeriod [Value,Min,Month,Day,Hour,Minute,Max,Month,Day,Hour,Minute]
1156,11,HEATING_RESISTANCE_BACKUP,Heating Coil Electricity Energy [J] !RunPeriod [Value,Min,Month,Day,Hour,Minute,Max,Month,Day,Hour,Minute]
1292,11,WATER HEATER,Water Heater Heat Loss Energy [J] !RunPeriod [Value,Min,Month,Day,Hour,Minute,Max,Month,Day,Hour,Minute]
1306,11,WATER HEATER,Water Heater Heating Energy [J] !RunPeriod [Value,Min,Month,Day,Hour,Minute,Max,Month,Day,Hour,Minute]
1307,11,WATER HEATER,Water Heater Unmet Demand Heat Transfer Energy [J] !RunPeriod [Value,Min,Month,Day,Hour,Minute,Max,Month,Day,Hour,Minute]
1308,11,WATER HEATER,Water Heater Electricity Energy [J] !RunPeriod [Value,Min,Month,Day,Hour,Minute,Max,Month,Day,Hour,Minute]
13,11,Electricity:Facility [J] !RunPeriod [Value,Min,Month,Day,Hour,Minute,Max,Month,Day,Hour,Minute]
1134,11,Heating:Electricity [J] !RunPeriod [Value,Min,Month,Day,Hour,Minute,Max,Month,Day,Hour,Minute]
1096,11,Cooling:Electricity [J] !RunPeriod [Value,Min,Month,Day,Hour,Minute,Max,Month,Day,Hour,Minute]
562,11,Fans:Electricity [J] !RunPeriod [Value,Min,Month,Day,Hour,Minute,Max,Month,Day,Hour,Minute]
1379,11,Pumps:Electricity [J] !RunPeriod [Value,Min,Month,Day,Hour,Minute,Max,Month,Day,Hour,Minute]
1326,11,WaterSystems:Electricity [J] !RunPeriod [Value,Min,Month,Day,Hour,Minute,Max,Month,Day,Hour,Minute]
61,11,InteriorLights:Electricity [J] !RunPeriod [Value,Min,Month,Day,Hour,Minute,Max,Month,Day,Hour,Minute]
1046,11,ExteriorLights:Electricity [J] !RunPeriod [Value,Min,Month,Day,Hour,Minute,Max,Month,Day,Hour,Minute]
134,11,InteriorEquipment:Electricity [J] !RunPeriod [Value,Min,Month,Day,Hour,Minute,Max,Month,Day,Hour,Minute]
170,11,gas_dryer:InteriorEquipment:Electricity [J] !RunPeriod [Value,Min,Month,Day,Hour,Minute,Max,Month,Day,Hour,Minute]
207,11,clotheswasher:InteriorEquipment:Electricity [J] !RunPeriod [Value,Min,Month,Day,Hour,Minute,Max,Month,Day,Hour,Minute]
244,11,dishwasher:InteriorEquipment:Electricity [J] !RunPeriod [Value,Min,Month,Day,Hour,Minute,Max,Month,Day,Hour,Minute]
281,11,refrigerator:InteriorEquipment:Electricity [J] !RunPeriod [Value,Min,Month,Day,Hour,Minute,Max,Month,Day,Hour,Minute]
318,11,electric_mels:InteriorEquipment:Electricity [J] !RunPeriod [Value,Min,Month,Day,Hour,Minute,Max,Month,Day,Hour,Minute]
355,11,NaturalGas:Facility [J] !RunPeriod [Value,Min,Month,Day,Hour,Minute,Max,Month,Day,Hour,Minute]
403,11,InteriorEquipment:NaturalGas [J] !RunPeriod [Value,Min,Month,Day,Hour,Minute,Max,Month,Day,Hour,Minute]
476,11,gas_dryer:InteriorEquipment:NaturalGas [J] !RunPeriod [Value,Min,Month,Day,Hour,Minute,Max,Month,Day,Hour,Minute]
513,11,gas_mels:InteriorEquipment:NaturalGas [J] !RunPeriod [Value,Min,Month,Day,Hour,Minute,Max,Month,Day,Hour,Minute]
End of Data Dictionary
1,EXTREME_WINTER,  36.90, -76.20,  -5.00,   9.00
5,7
1038,0.75,0.0, 1,15, 1,15,0.25, 1,17, 6,15
1039,0.0,0.0, 1,15, 1,15,0.0, 1,15, 1,15
581,0.2851834410264571,0.10476616958198381, 1,17,20,15,0.586646710372082, 1,19,15,60
582,3.3606367149756986,0.0, 1,15, 3,52,12.452710855996745, 1,17,13,60
583,0.02647450702340363,0.00025785751333164884, 1,19, 2,22,0.06660089658534275, 1,20, 9,45
1115,1011766050.529347,0.0, 1,15,11,50,3992745.3292956585, 1,16, 6,60
1128,309704510.1490404,0.0, 1,15,11,50,1214491.1675460008, 1,16, 6,60
1153,12277681.13866476,0.0, 1,15,11,50,109215.89393070305, 1,20, 6,60
1154,66911481.97351387,0.0, 1,15, 6, 5,180000.0, 1,15,13,45
1155,45396751.45383176,0.0, 1,15, 1,15,2145851.2988924496, 1,21, 6,45
1156,45396751.45383176,0.0, 1,15, 1,15,2145851.2988924496, 1,21, 6,45
1292,-25144806.697278377,-39749.19054252015, 1,15, 1,15,-6039.102620634979, 1,21,18,17
1306,117773274.53921396,0.0, 1,15, 1,15,4050000.0, 1,15, 7,15
1307,20330126.135923486,0.0, 1,15, 1,15,3577149.503991827, 1,15, 6,60
1308,117773274.53921396,0.0, 1,15, 1,15,4050000.0, 1,15, 7,15
13,957899660.4493144,272017.0388981225, 1,18,15,15,5987037.325802494, 1,15, 7,15
61,301924526.02383536,88139.10953165221, 1,15, 1,15,1282023.4113694867, 1,15,20,15
134,70666020.44019976,63564.01800854099, 1,15, 4,15,156554.22484006523, 1,20,20,15
170,5241013.419656067,348.4159749238097, 1,15, 4,15,17476.39704006126, 1,20,12,15
207,6509451.13922267,815.2532113832032, 1,15, 3,15,22990.642799023623, 1,20,10,15
244,12749673.399825225,1521.856143006317, 1,15, 4,15,53038.631142310165, 1,20,20,15
281,46165882.481495745,59938.60262432081, 1,15, 5,15,81951.81706819107, 1,15,19,15
318,0.0,0.0, 1,15, 1,15,0.0, 1,15, 1,15
355,197687796.27748066,18561.32405820678, 1,15, 4,15,724774.895203776, 1,20,18,15
403,197687796.27748066,18561.32405820678, 1,15, 4,15,724774.895203776, 1,20,18,15
476,106772067.24485716,7098.072629279515, 1,15, 4,15,356036.3026282215, 1,20,12,15
513,0.0,0.0, 1,15, 1,15,0.0, 1,15, 1,15
562,32646386.617646676,0.0, 1,15,11,60,122895.03788427007, 1,16, 6,45
1046,0.0,0.0, 1,15, 1,15,0.0, 1,15, 1,15
1096,599028.1133685189,0.0, 1,15, 1,15,105281.32447075618, 1,18,17,30
1134,434290424.71505064,0.0, 1,17,21,15,4020396.467824282, 1,21, 6,15
1326,117773274.53921397,0.0, 1,15, 1,15,4050000.0, 1,15, 7,15
1379,0.0,0.0, 1,15, 1,15,0.0, 1,15, 1,15
1,EXTREME_SUMMER,  36.90, -76.20,  -5.00,   9.00
5,7
1038,0.0,0.0, 7,15, 1,15,0.0, 7,15, 1,15
1039,66.75,0.0, 7,15, 1,15,0.25, 7,15,14,45
581,0.16908452863333062,0.0, 7,15, 4,30,0.5391728606043679, 7,19,15,48
582,4.088700039949289,0.11276323041940388, 7,15, 8,30,11.368504094905878, 7,19,15,48
583,0.04247643138876107,0.0, 7,16,23, 3,0.06759050061409941, 7,20,22,60
1115,0.0,0.0, 7,15, 1, 7,0.0, 7,15, 1, 7
1128,0.0,0.0, 7,15, 1, 7,0.0, 7,15, 1, 7
1153,0.0,0.0, 7,15, 1, 7,0.0, 7,15, 1, 7
1154,0.0,0.0, 7,15, 1, 7,0.0, 7,15, 1, 7
1155,0.0,0.0, 7,15, 1, 7,0.0, 7,15, 1, 7
1156,0.0,0.0, 7,15, 1, 7,0.0, 7,15, 1, 7
1292,-21667291.564429954,-34331.35208491923, 7,20, 6,60,-3329.540473380036, 7,15, 8,60
1306,86328857.65865012,0.0, 7,15, 1, 7,3642852.5126872617, 7,16, 7,15
1307,7288932.876467343,0.0, 7,15, 1, 7,1935739.679547033, 7,15, 6,60
1308,86328857.65865012,0.0, 7,15, 1, 7,3642852.5126872617, 7,16, 7,15
13,1073827274.2990823,208632.71957762758, 7,15, 4,60,6454591.480997201, 7,15,19,30
61,301924526.02383536,88139.10953165221, 7,15, 1,15,1282023.4113694867, 7,15,20,15
134,70666020.44019976,63564.01800854099, 7,15, 4,15,156554.22484006523, 7,20,20,15
170,5241013.419656067,348.4159749238097, 7,15, 4,15,17476.39704006126, 7,20,12,15
207,6509451.13922267,815.2532113832032, 7,15, 3,15,22990.642799023623, 7,20,10,15
244,12749673.399825225,1521.856143006317, 7,15, 4,15,53038.631142310165, 7,20,20,15
281,46165882.481495745,59938.60262432081, 7,15, 5,15,81951.81706819107, 7,15,19,15
318,0.0,0.0, 7,15, 1,15,0.0, 7,15, 1,15
355,197687796.27748066,18561.32405820678, 7,15, 4,15,724774.895203776, 7,20,18,15
403,197687796.27748066,18561.32405820678, 7,15, 4,15,724774.895203776, 7,20,18,15
476,106772067.24485716,7098.072629279515, 7,15, 4,15,356036.3026282215, 7,20,12,15
513,0.0,0.0, 7,15, 1,15,0.0, 7,15, 1,15
562,57853791.026064835,4977.083715627288, 7,15, 5,60,122895.03788427007, 7,15,13,45
1046,0.0,0.0, 7,15, 1,15,0.0, 7,15, 1,15
1096,557054079.150332,42477.175073034516, 7,15, 5,60,1279867.2904427755, 7,19,17,60
1134,0.0,0.0, 7,15, 1,15,0.0, 7,15, 1,15
1326,86328857.65865012,0.0, 7,15, 1,15,4050000.0, 7,15, 7,15
1379,0.0,0.0, 7,15, 1,15,0.0, 7,15, 1,15
1,ANNUAL,  36.90, -76.20,  -5.00,   9.00
5,365
1038,21.5,0.0, 1, 1, 1,15,0.25, 1, 3, 6,15
1039,833.75,0.0, 1, 1, 1,15,0.25, 3,28,13,60
581,0.2505724869332311,0.0, 6, 2,23, 3,1.0998352886895428,10, 2,17,30
582,4.4632084986096405,0.0, 1, 3,24,60,22.364639576915742,10, 2,16,60
583,0.02502797908583344,0.0, 6, 2,23, 7,0.08301025030868323, 3, 3, 3,52
1115,10651863840.671652,0.0, 1, 1, 1,15,4333646.036391436, 2, 1, 6,45
1128,3145488177.320633,0.0, 1, 1, 1,15,1245123.8828230326, 1,31, 6,45
1153,94781839.11035214,0.0, 1, 1, 1,15,112683.30444625232,12, 8,15,60
1154,1272700804.746885,0.0, 1, 1, 6, 5,180000.0, 1, 1, 1,15
1155,295010864.0288658,0.0, 1, 1, 1,15,2323146.5565861436, 1, 4, 6,45
1156,295010864.0288658,0.0, 1, 1, 1,15,2323146.5565861436, 1, 4, 6,45
1292,-1200421324.9422357,-41433.5583082144, 3, 3, 5,45,-2247.651399186089, 8, 6,11,30
1306,5366894075.866316,0.0, 1, 1, 1,15,4050000.0, 1, 2, 7,15
1307,700223463.1041325,0.0, 1, 1, 1,15,6330868.351185104, 1,23, 6,60
1308,5366894075.866316,0.0, 1, 1, 1,15,4050000.0, 1, 2, 7,15
13,42471353558.30409,151703.1275401932, 1, 9, 4,15,7081910.016674807, 1, 4, 8,60
61,15743207428.383959,88139.10953165221, 1, 1, 1,15,1282023.4113694867, 1, 1,20,15
134,3685071073.4325233,63564.01800854099, 1, 2, 4,15,156554.22484006523, 1, 1,20,15
170,273393721.45532674,348.4159749238097, 1, 2, 4,15,17476.39704006126, 1, 1,12,15
207,339560869.0695816,815.2532113832032, 1, 2, 3,15,22990.642799023623, 1, 1,10,15
244,664895467.8009144,1521.856143006317, 1, 2, 4,15,53038.631142310165, 1, 1,20,15
281,2407221015.106824,59938.60262432081, 1, 1, 5,15,81951.81706819107, 1, 1,19,15
318,0.0,0.0, 1, 1, 1,15,0.0, 1, 1, 1,15
355,10310294493.051695,18561.32405820678, 1, 2, 4,15,724774.895203776, 1, 1,18,15
403,10310294493.051695,18561.32405820678, 1, 2, 4,15,724774.895203776, 1, 1,18,15
476,5569688622.066177,7098.072629279515, 1, 2, 4,15,356036.3026282215, 1, 1,12,15
513,0.0,0.0, 1, 1, 1,15,0.0, 1, 1, 1,15
562,1594924491.447745,0.0, 1, 1, 1,15,122895.03788427007, 1, 3, 2,15
1046,0.0,0.0, 1, 1, 1,15,0.0, 1, 1, 1,15
1096,11273274803.96452,0.0, 1, 1, 1,15,1322169.5786873682, 9,24,14,60
1134,4807981685.206715,0.0, 1, 1,10,15,4318863.512049924, 1, 3, 6,15
1326,5366894075.8663225,0.0, 1, 1, 1,15,4050000.0, 1, 2, 7,15
1379,0.0,0.0, 1, 1, 1,15,0.0, 1, 1, 1,15
End of Data
 Number of Records Written=          99
