Program Version,EnergyPlus, Version 22.2.0-c249759bad, YMD=2023.09.01 14:32
1,5,Environment Title[],Latitude[deg],Longitude[deg],Time Zone[],Elevation[m]
2,8,Day of Simulation[],Month[],Day of Month[],DST Indicator[1=yes 0=no],Hour[],StartMinute[],EndMinute[],DayType
3,5,Cumulative Day of Simulation[],Month[],Day of Month[],DST Indicator[1=yes 0=no],DayType  ! When Daily Report Variables Requested
4,2,Cumulative Days of Simulation[],Month[]  ! When Monthly Report Variables Requested
5,1,Cumulative Days of Simulation[] ! When Run Period Report Variables Requested
6,1,Calendar Year of Simulation[] ! When Annual Report Variables Requested
7,1,Environment,Site Outdoor Air Drybulb Temperature [C] !Hourly
545,1,LIVING,Zone Mean Air Temperature [C] !Hourly
546,1,ATTIC,Zone Mean Air Temperature [C] !Hourly
547,1,CRAWLSPACE,Zone Mean Air Temperature [C] !Hourly
548,1,FAN,Fan Electricity Rate [W] !Hourly
720,1,LIVING,Zone Predicted Sensible Load to Heating Setpoint Heat Transfer Rate [W] !Hourly
721,1,LIVING,Zone System Predicted Sensible Load to Heating Setpoint Heat Transfer Rate [W] !Hourly
784,1,ATTIC,Zone Predicted Sensible Load to Heating Setpoint Heat Transfer Rate [W] !Hourly
785,1,ATTIC,Zone System Predicted Sensible Load to Heating Setpoint Heat Transfer Rate [W] !Hourly
848,1,CRAWLSPACE,Zone Predicted Sensible Load to Heating Setpoint Heat Transfer Rate [W] !Hourly
849,1,CRAWLSPACE,Zone System Predicted Sensible Load to Heating Setpoint Heat Transfer Rate [W] !Hourly
1121,1,DX_HEATING_COIL,Heating Coil Heating Rate [W] !Hourly
1135,1,DX_HEATING_COIL,Heating Coil Electricity Rate [W] !Hourly
1161,1,DX_HEATING_COIL,Heating Coil Defrost Electricity Rate [W] !Hourly
1163,1,DX_HEATING_COIL,Heating Coil Crankcase Heater Electricity Rate [W] !Hourly
1166,1,HEATING_RESISTANCE_BACKUP,Heating Coil Heating Rate [W] !Hourly
1168,1,HEATING_RESISTANCE_BACKUP,Heating Coil Electricity Rate [W] !Hourly
End of Data Dictionary
1,EXTREME_WINTER,  44.25,-121.15,  -8.00, 936.00
2,1,12,22, 0, 1, 0.00,60.00,Monday
7,-4.4
545,18.126645889871142
546,2.1001847838058114
547,19.38353859403782
548,45.20154146429958
720,893.8930985386214
721,893.8930985386214
784,0.0
785,0.0
848,0.0
849,0.0
1121,1127.5198461934458
1135,403.223124711576
1161,21.313876646767905
1163,147.24453609969146
1166,0.0
1168,0.0
2,1,12,22, 0, 2, 0.00,60.00,Monday
7,-3.3
545,18.371847374828832
546,0.7824659208522854
547,19.07286098506965
548,74.67687413386567
720,1507.6131854936448
721,1507.6131854936448
784,0.0
785,0.0
848,0.0
849,0.0
1121,1930.2283505750338
1135,655.34763167329
1161,43.991744274511035
1163,112.71833802851594
1166,0.0
1168,0.0
2,1,12,22, 0, 3, 0.00,60.00,Monday
7,-3.3
545,18.48811926014781
546,0.5474044262078097
547,18.88184760230478
548,97.26682344844748
720,1945.5095612287332
721,1945.5095612287332
784,0.0
785,0.0
848,0.0
849,0.0
1121,2570.8787892421
1135,863.294630798977
1161,52.01834494501132
1163,86.47308400691777
1166,0.0
1168,0.0
2,1,12,22, 0, 4, 0.00,60.00,Monday
7,-3.3
545,18.525257829114555
546,0.39595803545118863
547,18.690698034684857
548,108.81667798921374
720,2144.893045130113
721,2144.893045130113
784,0.0
785,0.0
848,0.0
849,0.0
1121,2897.5930874701426
1135,967.8624613366709
1161,58.16366799477154
1163,72.99248684398898
1166,0.0
1168,0.0
2,1,12,22, 0, 5, 0.00,60.00,Monday
7,-5.0
545,18.504598837929834
546,-0.5653175177468478
547,18.49509574236254
548,124.94750044265031
720,2376.631705081505
721,2376.631705081505
784,0.0
785,0.0
848,0.0
849,0.0
1121,3249.546495149326
1135,1111.3957627915436
1161,55.43898090792077
1163,54.168141732367104
1166,0.0
1168,0.0
2,1,12,22, 0, 6, 0.00,60.00,Monday
7,-6.7
545,19.13932841774524
546,-1.1153989797779784
547,18.26485894884901
548,173.59183930690938
720,3702.566730606337
721,3702.566730606337
784,0.0
785,0.0
848,0.0
849,0.0
1121,4452.182107854595
1135,1505.1197273604123
1161,73.25193880186494
1163,0.0
1166,594.3197374809815
1168,594.3197374809815
2,1,12,22, 0, 7, 0.00,60.00,Monday
7,-8.9
545,19.50907977710726
546,-2.3588829183825855
547,18.125437099141806
548,173.59183930690938
720,4002.2674821562814
721,4002.2674821562814
784,0.0
785,0.0
848,0.0
849,0.0
1121,4232.27241421024
1135,1523.3708315179347
1161,51.58538084550338
1163,0.0
1166,1306.6199656317358
1168,1306.6199656317358
2,1,12,22, 0, 8, 0.00,60.00,Monday
7,-6.1
545,19.65129039154112
546,-2.8419561756054925
547,18.007323671600787
548,173.59183930690938
720,3381.2091386738666
721,3381.2091386738666
784,0.0
785,0.0
848,0.0
849,0.0
1121,4525.621590763743
1135,1549.1258191305585
1161,68.22172486733065
1163,0.0
1166,414.2679696107616
1168,414.2679696107616
2,1,12,22, 0, 9, 0.00,60.00,Monday
7,-2.8
545,19.84365062313879
546,-1.3004392396643547
547,17.91017145351048
548,129.1750508905978
720,2273.297104028141
721,2273.297104028141
784,0.0
785,0.0
848,0.0
849,0.0
1121,3534.7247443489373
1135,1183.975126982104
1161,64.60742294632382
1163,49.462249288124326
1166,0.0
1168,0.0
2,1,12,22, 0,10, 0.00,60.00,Monday
7,0.6
545,19.9938594054106
546,2.0063113657542266
547,17.81382928645481
548,68.51822842228664
720,1214.371055350386
721,1214.371055350386
784,0.0
785,0.0
848,0.0
849,0.0
1121,1975.5872157118592
1135,647.0944490463676
1161,33.54876612952819
1163,120.52119325759037
1166,0.0
1168,0.0
2,1,12,22, 0,11, 0.00,60.00,Monday
7,2.8
545,20.036626098386968
546,5.269789275595439
547,17.718520380818326
548,18.923548636231725
720,291.6295058380947
721,291.6295058380947
784,0.0
785,0.0
848,0.0
849,0.0
1121,583.2798713487742
1135,189.66309573999007
1161,4.024097217521608
1163,178.1585091748688
1166,0.0
1168,0.0
2,1,12,22, 0,12, 0.00,60.00,Monday
7,3.9
545,20.223899380787863
546,8.962073026391058
547,17.646305269516862
548,0.0
720,-376.1293243670152
721,-376.1293243670152
784,0.0
785,0.0
848,0.0
849,0.0
1121,0.0
1135,0.0
1161,0.0
1163,200.0
1166,0.0
1168,0.0
2,1,12,22, 0,13, 0.00,60.00,Monday
7,5.0
545,20.814225566631556
546,12.080495470427609
547,17.603249116104873
548,0.0
720,-803.1240520247666
721,-803.1240520247666
784,0.0
785,0.0
848,0.0
849,0.0
1121,0.0
1135,0.0
1161,0.0
1163,200.0
1166,0.0
1168,0.0
2,1,12,22, 0,14, 0.00,60.00,Monday
7,5.6
545,21.211216503502662
546,12.794819050471082
547,17.581142305225963
548,0.0
720,-1061.7935926690297
721,-1061.7935926690297
784,0.0
785,0.0
848,0.0
849,0.0
1121,0.0
1135,0.0
1161,0.0
1163,200.0
1166,0.0
1168,0.0
2,1,12,22, 0,15, 0.00,60.00,Monday
7,5.0
545,21.16208939588938
546,12.367240566092272
547,17.57372708172208
548,0.0
720,-1009.1662032563945
721,-1009.1662032563945
784,0.0
785,0.0
848,0.0
849,0.0
1121,0.0
1135,0.0
1161,0.0
1163,200.0
1166,0.0
1168,0.0
2,1,12,22, 0,16, 0.00,60.00,Monday
7,2.2
545,20.84860257398254
546,9.693897198377515
547,17.56608121358952
548,0.0
720,-786.5738098999809
721,-786.5738098999809
784,0.0
785,0.0
848,0.0
849,0.0
1121,0.0
1135,0.0
1161,0.0
1163,200.0
1166,0.0
1168,0.0
2,1,12,22, 0,17, 0.00,60.00,Monday
7,1.7
545,20.26683046875683
546,6.325730767974674
547,17.552476066848303
548,0.0
720,-400.58124315771056
721,-400.58124315771056
784,0.0
785,0.0
848,0.0
849,0.0
1121,0.0
1135,0.0
1161,0.0
1163,200.0
1166,0.0
1168,0.0
2,1,12,22, 0,18, 0.00,60.00,Monday
7,2.2
545,19.990193805421224
546,4.055412690465172
547,17.530432576012203
548,0.0
720,-197.49216828697354
721,-197.49216828697354
784,0.0
785,0.0
848,0.0
849,0.0
1121,0.0
1135,0.0
1161,0.0
1163,200.0
1166,0.0
1168,0.0
2,1,12,22, 0,19, 0.00,60.00,Monday
7,3.3
545,19.928079156507895
546,3.5616230089352676
547,17.48899042784235
548,0.0
720,-153.50530656426054
721,-153.50530656426054
784,0.0
785,0.0
848,0.0
849,0.0
1121,0.0
1135,0.0
1161,0.0
1163,200.0
1166,0.0
1168,0.0
2,1,12,22, 0,20, 0.00,60.00,Monday
7,2.2
545,19.731675586302735
546,3.0815302533583178
547,17.43306480042391
548,0.0
720,-6.697122248973756
721,-6.697122248973756
784,0.0
785,0.0
848,0.0
849,0.0
1121,0.0
1135,0.0
1161,0.0
1163,200.0
1166,0.0
1168,0.0
2,1,12,22, 0,21, 0.00,60.00,Monday
7,2.8
545,19.770542050736857
546,3.4425349990371736
547,17.36504080036756
548,9.314445678991818
720,172.20003352322965
721,172.20003352322965
784,0.0
785,0.0
848,0.0
849,0.0
1121,291.69766958191735
1135,94.67931277535524
1161,0.6596766065281158
1163,189.26228299262382
1166,0.0
1168,0.0
2,1,12,22, 0,22, 0.00,60.00,Monday
7,2.8
545,19.775533970686357
546,3.6082262668005076
547,17.291433661543735
548,17.9440772354899
720,431.8471262617204
721,431.8471262617204
784,0.0
785,0.0
848,0.0
849,0.0
1121,564.963845614284
1135,182.5155708275425
1161,1.272090697554236
1163,179.31400763788443
1166,0.0
1168,0.0
2,1,12,22, 0,23, 0.00,60.00,Monday
7,3.3
545,18.516356806243255
546,3.841946275497906
547,17.212044948277285
548,5.394387587383045
720,110.06515475086235
721,110.06515475086235
784,0.0
785,0.0
848,0.0
849,0.0
1121,172.44734793230725
1135,55.66116131306457
1161,0.0025985905972162777
1163,193.78495412924514
1166,0.0
1168,0.0
2,1,12,22, 0,24, 0.00,60.00,Monday
7,3.3
545,18.6808132733667
546,4.052326219352722
547,17.122865956389678
548,26.030706515175208
720,675.0839607165399
721,675.0839607165399
784,0.0
785,0.0
848,0.0
849,0.0
1121,836.2255378930643
1135,258.5639628003241
1161,2.5713811494904757
1163,169.98789159393922
1166,0.0
1168,0.0
2,2,12,23, 0, 1, 0.00,60.00,Tuesday
7,3.3
545,18.567986462315744
546,4.215317270849544
547,17.040372522786523
548,32.96918566136539
720,827.7448574918171
721,827.7448574918171
784,0.0
785,0.0
848,0.0
849,0.0
1121,1051.5944921083806
1135,325.1072421760347
1161,5.716226407207988
1163,161.9671671583572
1166,0.0
1168,0.0
2,2,12,23, 0, 2, 0.00,60.00,Tuesday
7,4.4
545,18.299036885760813
546,5.207226657852631
547,16.94595352160763
548,47.37432288905364
720,1198.9123274075573
721,1198.9123274075573
784,0.0
785,0.0
848,0.0
849,0.0
1121,1519.43612835629
1135,456.2626316685481
1161,18.65303846259573
1163,145.30540323595318
1166,0.0
1168,0.0
2,2,12,23, 0, 3, 0.00,60.00,Tuesday
7,5.0
545,18.754565345792496
546,5.755416681695904
547,16.85724767062261
548,59.903297194503224
720,1575.312723525738
721,1575.312723525738
784,0.0
785,0.0
848,0.0
849,0.0
1121,1980.4718004381887
1135,580.2740783755581
1161,21.377220855040182
1163,130.8836605928434
1166,0.0
1168,0.0
2,2,12,23, 0, 4, 0.00,60.00,Tuesday
7,6.1
545,18.39549501603175
546,6.69056501106555
547,16.78072436488972
548,50.6269088581971
720,1630.1159813026625
721,1630.1159813026625
784,0.0
785,0.0
848,0.0
849,0.0
1121,2056.2632585845404
1135,551.9513104719023
1161,0.0
1163,141.6713261863779
1166,0.0
1168,0.0
2,2,12,23, 0, 5, 0.00,60.00,Tuesday
7,5.6
545,18.436101461186755
546,6.841621641549223
547,16.688678276161017
548,59.54653568635662
720,1933.5481789905825
721,1933.5481789905825
784,0.0
785,0.0
848,0.0
849,0.0
1121,2406.0164041628955
1135,641.3593862399023
1161,0.0
1163,131.39477532572408
1166,0.0
1168,0.0
2,2,12,23, 0, 6, 0.00,60.00,Tuesday
7,5.6
545,19.467137833545184
546,7.050905897465295
547,16.61204386283198
548,88.64334118417392
720,2969.527853691792
721,2969.527853691792
784,0.0
785,0.0
848,0.0
849,0.0
1121,3651.193994044255
1135,955.2790240171317
1161,0.0
1163,97.87153412499651
1166,0.0
1168,0.0
2,2,12,23, 0, 7, 0.00,60.00,Tuesday
7,5.0
545,19.743711186581084
546,6.895673858054098
547,16.56778643775347
548,103.81031995748951
720,2560.0566862322557
721,2560.0566862322557
784,0.0
785,0.0
848,0.0
849,0.0
1121,3281.7880508200506
1135,960.8397516022911
1161,83.19033828222615
1163,79.9785807296523
1166,0.0
1168,0.0
2,2,12,23, 0, 8, 0.00,60.00,Tuesday
7,5.6
545,19.65103889323022
546,7.094418264835519
547,16.491691894578512
548,72.32757786559534
720,2285.8007714065716
721,2285.8007714065716
784,0.0
785,0.0
848,0.0
849,0.0
1121,2929.9906365389534
1135,798.906188714375
1161,0.0
1163,116.66938013402739
1166,0.0
1168,0.0
2,2,12,23, 0, 9, 0.00,60.00,Tuesday
7,5.0
545,19.602170486923313
546,6.977968875893919
547,16.43331844066019
548,100.83231984222063
720,2443.8081446028136
721,2443.8081446028136
784,0.0
785,0.0
848,0.0
849,0.0
1121,3143.9909361605
1135,926.5129710737937
1161,87.65578117806002
1163,83.38206666166805
1166,0.0
1168,0.0
2,2,12,23, 0,10, 0.00,60.00,Tuesday
7,5.6
545,19.82681993438727
546,7.158379831683526
547,16.36374133580522
548,73.56546274372795
720,2340.849499662607
721,2340.849499662607
784,0.0
785,0.0
848,0.0
849,0.0
1121,2984.5579872216754
1135,810.2919434543404
1161,0.0
1163,115.24317843805476
1166,0.0
1168,0.0
2,2,12,23, 0,11, 0.00,60.00,Tuesday
7,4.0
545,19.985881222214854
546,6.74840593422565
547,16.311996767335327
548,85.08644072938831
720,1898.7229465479686
721,1898.7229465479686
784,0.0
785,0.0
848,0.0
849,0.0
1121,2482.3188556275045
1135,756.6749663825792
1161,89.38851102017134
1163,101.27394894662936
1166,0.0
1168,0.0
2,2,12,23, 0,12, 0.00,60.00,Tuesday
7,3.3
545,19.85125579531177
546,7.031606148860092
547,16.249116874637906
548,71.13685042731107
720,1537.194570287842
721,1537.194570287842
784,0.0
785,0.0
848,0.0
849,0.0
1121,2040.8211139863686
1135,638.3163425750746
1161,69.88790149473508
1163,117.37498256567125
1166,0.0
1168,0.0
2,2,12,23, 0,13, 0.00,60.00,Tuesday
7,3.0
545,19.52155271391794
546,5.804050818590246
547,16.187851475610632
548,73.55858798758649
720,1604.1937972117703
721,1604.1937972117703
784,0.0
785,0.0
848,0.0
849,0.0
1121,2096.148115632897
1135,656.1264662421568
1161,72.84538998160662
1163,114.49778713448366
1166,0.0
1168,0.0
2,2,12,23, 0,14, 0.00,60.00,Tuesday
7,4.4
545,20.08209882738362
546,9.934968008784097
547,16.13061402260899
548,52.15677372335389
720,1149.0308395539887
721,1149.0308395539887
784,0.0
785,0.0
848,0.0
849,0.0
1121,1537.7926661558308
1135,471.82460570867534
1161,48.148196369607774
1163,139.59052753365864
1166,0.0
1168,0.0
2,2,12,23, 0,15, 0.00,60.00,Tuesday
7,3.0
545,19.689539783858446
546,7.917265266564041
547,16.086347494672907
548,47.03565499997826
720,1016.8243913131137
721,1016.8243913131137
784,0.0
785,0.0
848,0.0
849,0.0
1121,1315.4676203019815
1135,421.4553749119085
1161,46.58006430116873
1163,145.32669021095782
1166,0.0
1168,0.0
2,2,12,23, 0,16, 0.00,60.00,Tuesday
7,4.0
545,19.786626026698684
546,7.766275937507458
547,16.043723732017515
548,50.160820039807255
720,1117.881255285938
721,1117.881255285938
784,0.0
785,0.0
848,0.0
849,0.0
1121,1430.6370487320542
1135,444.85474465433475
1161,52.696766872909436
1163,141.79851932572828
1166,0.0
1168,0.0
2,2,12,23, 0,17, 0.00,60.00,Tuesday
7,3.0
545,19.697452636260213
546,6.3728635682840835
547,16.000371438586154
548,46.53687060507581
720,1004.9920125211047
721,1004.9920125211047
784,0.0
785,0.0
848,0.0
849,0.0
1121,1302.9295316664854
1135,414.5547845746472
1161,46.08553716916421
1163,145.907141000213
1166,0.0
1168,0.0
2,2,12,23, 0,18, 0.00,60.00,Tuesday
7,2.0
545,19.70347576390244
546,5.37789062015059
547,15.95347077954792
548,42.5839218966571
720,887.6190831643253
721,887.6190831643253
784,0.0
785,0.0
848,0.0
849,0.0
1121,1170.1619377913805
1135,379.4901349502142
1161,39.697687416414894
1163,150.422836554966
1166,0.0
1168,0.0
2,2,12,23, 0,19, 0.00,60.00,Tuesday
7,0.6
545,19.65356674062078
546,2.7772002782532486
547,15.906113438819634
548,41.362255518549205
720,836.8896394343155
721,836.8896394343155
784,0.0
785,0.0
848,0.0
849,0.0
1121,1115.7157335521297
1135,371.74600852031386
1161,33.56698545014474
1163,151.78394928762881
1166,0.0
1168,0.0
2,2,12,23, 0,20, 0.00,60.00,Tuesday
7,-1.1
545,19.61342730637278
546,0.6048842967766219
547,15.855210184157857
548,47.80706712558183
720,916.0848862004241
721,916.0848862004241
784,0.0
785,0.0
848,0.0
849,0.0
1121,1245.015561374592
1135,426.8974214611114
1161,36.92094035325231
1163,144.11506017019445
1166,0.0
1168,0.0
2,2,12,23, 0,21, 0.00,60.00,Tuesday
7,-1.1
545,19.689336138395383
546,-0.890263777434671
547,15.802579640996292
548,54.08938436493103
720,1028.957435820208
721,1028.957435820208
784,0.0
785,0.0
848,0.0
849,0.0
1121,1428.3129559513795
1135,486.5837143424673
1161,38.46559821217681
1163,136.85044197360205
1166,0.0
1168,0.0
2,2,12,23, 0,22, 0.00,60.00,Tuesday
7,-2.2
545,19.564730196179262
546,-1.139469670785309
547,15.742406565687126
548,72.03775048938103
720,1327.9438872521387
721,1327.9438872521387
784,0.0
785,0.0
848,0.0
849,0.0
1121,1869.481883716951
1135,645.026785156902
1161,50.69234166147975
1163,115.72780249617551
1166,0.0
1168,0.0
2,2,12,23, 0,23, 0.00,60.00,Tuesday
7,-2.2
545,18.83809449170019
546,-1.7517738165689598
547,15.668960110670755
548,50.51411606491723
720,858.7444532419813
721,858.7444532419813
784,0.0
785,0.0
848,0.0
849,0.0
1121,1304.4076240808768
1135,454.6126995163714
1161,32.64329789221795
1163,140.98658026075162
1166,0.0
1168,0.0
2,2,12,23, 0,24, 0.00,60.00,Tuesday
7,-2.2
545,18.593864969139823
546,-1.8245339607805648
547,15.583337243705673
548,69.18150634563546
720,1284.6168034688308
721,1284.6168034688308
784,0.0
785,0.0
848,0.0
849,0.0
1121,1815.817507231934
1135,613.637009363319
1161,44.700570011734534
1163,119.18264820383074
1166,0.0
1168,0.0
2,3,12,24, 0, 1, 0.00,60.00,Wednesday
7,-2.8
545,18.49330898630538
546,-1.878722320576312
547,15.494212257108428
548,95.63581180170164
720,1811.0511499420136
721,1811.0511499420136
784,0.0
785,0.0
848,0.0
849,0.0
1121,2529.705969426263
1135,844.3764314648265
1161,58.59128531694781
1163,88.25026337238124
1166,0.0
1168,0.0
2,3,12,24, 0, 2, 0.00,60.00,Wednesday
7,-3.9
545,18.458165395598694
546,-2.3319540853182894
547,15.397036419892638
548,122.7170489495036
720,2271.5385273686898
721,2271.5385273686898
784,0.0
785,0.0
848,0.0
849,0.0
1121,3206.4333001547457
1135,1072.6677192766606
1161,75.92545283032361
1163,56.29730481604367
1166,0.0
1168,0.0
2,3,12,24, 0, 3, 0.00,60.00,Wednesday
7,-3.9
545,18.50148933239912
546,-2.8726091038408703
547,15.307501921731033
548,137.6407054020221
720,2591.4700780897892
721,2591.4700780897892
784,0.0
785,0.0
848,0.0
849,0.0
1121,3704.665795422906
1135,1221.1761422518057
1161,67.5981378790921
1163,39.3901771401197
1166,0.0
1168,0.0
2,3,12,24, 0, 4, 0.00,60.00,Wednesday
7,-3.9
545,18.527411908291356
546,-3.1078752698265655
547,15.218225515767788
548,150.25555431283792
720,2775.965732267743
721,2775.965732267743
784,0.0
785,0.0
848,0.0
849,0.0
1121,4040.715458263915
1135,1323.4121948231093
1161,83.5437855675022
1163,24.356748216834468
1166,0.0
1168,0.0
2,3,12,24, 0, 5, 0.00,60.00,Wednesday
7,-2.2
545,18.60534049231766
546,-2.54546797383925
547,15.141603775134593
548,142.27306797116103
720,2665.1906881669784
721,2665.1906881669784
784,0.0
785,0.0
848,0.0
849,0.0
1121,3933.9489650054697
1135,1253.1236991622477
1161,92.0244592561311
1163,33.79905235253058
1166,0.0
1168,0.0
2,3,12,24, 0, 6, 0.00,60.00,Wednesday
7,-1.7
545,19.28149369186611
546,-1.3158743929229142
547,15.062434204189664
548,173.59183930690938
720,3595.1942378358526
721,3595.1942378358526
784,0.0
785,0.0
848,0.0
849,0.0
1121,4944.475764296451
1135,1509.5537616064407
1161,115.69825706074992
1163,0.0
1166,190.97156664185877
1168,190.97156664185877
2,3,12,24, 0, 7, 0.00,60.00,Wednesday
7,-1.1
545,19.581946289092073
546,-0.6281011275243954
547,15.01717882422549
548,172.79898348793947
720,3398.741291901719
721,3398.741291901719
784,0.0
785,0.0
848,0.0
849,0.0
1121,4958.981804797952
1135,1528.9329636821662
1161,121.83469417188469
1163,0.0
1166,0.0
1168,0.0
2,3,12,24, 0, 8, 0.00,60.00,Wednesday
7,-1.7
545,19.71161806508595
546,-0.6319073132534759
547,14.93879722319752
548,162.3729840116675
720,3101.3572717631723
721,3101.3572717631723
784,0.0
785,0.0
848,0.0
849,0.0
1121,4572.479935285424
1135,1459.0166328472453
1161,109.74587583965088
1163,10.355786897348128
1166,0.0
1168,0.0
2,3,12,24, 0, 9, 0.00,60.00,Wednesday
7,0.6
545,19.73956687670956
546,1.4328276236218036
547,14.884204964960409
548,152.75790218773238
720,3083.926940571908
721,3083.926940571908
784,0.0
785,0.0
848,0.0
849,0.0
1121,4496.480092745771
1135,1384.5043298346332
1161,113.41412686330008
1163,22.125524720101588
1166,0.0
1168,0.0
2,3,12,24, 0,10, 0.00,60.00,Wednesday
7,2.8
545,19.832624691809155
546,3.7034595370187176
547,14.807636132855343
548,121.90950287361116
720,2579.188023592036
721,2579.188023592036
784,0.0
785,0.0
848,0.0
849,0.0
1121,3713.1817416325607
1135,1121.1185201895687
1161,91.92876990750376
1163,58.580116206409684
1166,0.0
1168,0.0
2,3,12,24, 0,11, 0.00,60.00,Wednesday
7,2.8
545,19.869191141537122
546,5.7087832349205305
547,14.735711504045373
548,98.32040141870004
720,2088.817026350878
721,2088.817026350878
784,0.0
785,0.0
848,0.0
849,0.0
1121,2944.9370835657487
1135,905.7725694452573
1161,74.2133861786457
1163,85.94321983263733
1166,0.0
1168,0.0
2,3,12,24, 0,12, 0.00,60.00,Wednesday
7,3.3
545,19.781020712355133
546,6.607862862876411
547,14.6803168203531
548,85.59606882020576
720,1884.2898873930662
721,1884.2898873930662
784,0.0
785,0.0
848,0.0
849,0.0
1121,2564.491833575718
1135,789.141984663103
1161,66.71577015752247
1163,100.76631755039256
1166,0.0
1168,0.0
2,3,12,24, 0,13, 0.00,60.00,Wednesday
7,4.4
545,19.84287816720162
546,8.095867703956893
547,14.630241200988147
548,69.07904318885456
720,1596.1868523672874
721,1596.1868523672874
784,0.0
785,0.0
848,0.0
849,0.0
1121,2132.7781591480993
1135,648.9850979312705
1161,48.415657261802615
1163,120.10269200550812
1166,0.0
1168,0.0
2,3,12,24, 0,14, 0.00,60.00,Wednesday
7,4.4
545,19.55507850655942
546,7.2338137270988865
547,14.596510171716057
548,64.16720764284216
720,1512.2176779505062
721,1512.2176779505062
784,0.0
785,0.0
848,0.0
849,0.0
1121,1973.908251834216
1135,603.4554667025557
1161,45.02141857098522
1163,125.78333659635072
1166,0.0
1168,0.0
2,3,12,24, 0,15, 0.00,60.00,Wednesday
7,5.6
545,19.76290091953229
546,7.691347952674591
547,14.563183605470124
548,53.83116434787491
720,1700.5881178792424
721,1700.5881178792424
784,0.0
785,0.0
848,0.0
849,0.0
1121,2156.933806385736
1135,591.4318326151287
1161,0.0
1163,137.97961406157842
1166,0.0
1168,0.0
2,3,12,24, 0,16, 0.00,60.00,Wednesday
7,5.6
545,19.904152693490087
546,7.612043956718059
547,14.543498803660018
548,46.65909958211939
720,1456.926620563465
721,1456.926620563465
784,0.0
785,0.0
848,0.0
849,0.0
1121,1859.0827948861258
1135,514.6669604318721
1161,0.0
1163,146.24274992601886
1166,0.0
1168,0.0
2,3,12,24, 0,17, 0.00,60.00,Wednesday
7,5.6
545,19.726632554649484
546,6.746641792384972
547,14.520499833349906
548,38.65905832124169
720,1192.80294077512
721,1192.80294077512
784,0.0
785,0.0
848,0.0
849,0.0
1121,1531.3578863609052
1135,427.5745473948186
1161,0.0
1163,155.45982060493907
1166,0.0
1168,0.0
2,3,12,24, 0,18, 0.00,60.00,Wednesday
7,7.2
545,19.789270810441657
546,6.70513371739266
547,14.49727493819922
548,30.029445557074716
720,956.4118911895512
721,956.4118911895512
784,0.0
785,0.0
848,0.0
849,0.0
1121,1232.5316014320865
1135,336.6711466918958
1161,0.0
1163,165.40223817320947
1166,0.0
1168,0.0
2,3,12,24, 0,19, 0.00,60.00,Wednesday
7,7.2
545,19.40722223259609
546,7.503259394235221
547,14.474403659009878
548,23.702373472298085
720,746.7503464638412
721,746.7503464638412
784,0.0
785,0.0
848,0.0
849,0.0
1121,968.6303624203183
1135,266.03544907718003
1161,0.0
1163,172.69183440081832
1166,0.0
1168,0.0
2,3,12,24, 0,20, 0.00,60.00,Wednesday
7,7.8
545,19.685313408505287
546,8.028604211719351
547,14.46285498832319
548,29.23111999460322
720,971.9208960512387
721,971.9208960512387
784,0.0
785,0.0
848,0.0
849,0.0
1121,1218.855863218863
1135,327.9453322965112
1161,0.0
1163,166.32201132113963
1166,0.0
1168,0.0
2,3,12,24, 0,21, 0.00,60.00,Wednesday
7,8.9
545,19.84930045773387
546,8.898563425287966
547,14.445667689120356
548,26.125733428295177
720,883.1881019512348
721,883.1881019512348
784,0.0
785,0.0
848,0.0
849,0.0
1121,1115.7455507183613
1135,298.3526649429382
1161,0.0
1163,169.8998138016096
1166,0.0
1168,0.0
2,3,12,24, 0,22, 0.00,60.00,Wednesday
7,8.3
545,20.05166618530556
546,8.751277913209487
547,14.428156872642441
548,23.92882763294795
720,798.2130292769161
721,798.2130292769161
784,0.0
785,0.0
848,0.0
849,0.0
1121,1004.8425142337491
1135,272.19228778180394
1161,0.0
1163,172.43093024592946
1166,0.0
1168,0.0
2,3,12,24, 0,23, 0.00,60.00,Wednesday
7,7.8
545,18.92004370612594
546,8.237201492518162
547,14.382737918626917
548,0.0
720,-207.56852397964576
721,-207.56852397964576
784,0.0
785,0.0
848,0.0
849,0.0
1121,0.0
1135,0.0
1161,0.0
1163,200.0
1166,0.0
1168,0.0
2,3,12,24, 0,24, 0.00,60.00,Wednesday
7,9.4
545,18.670055007164923
546,9.07298205438277
547,14.377132693034415
548,6.352904587478227
720,191.98727692973443
721,191.98727692973443
784,0.0
785,0.0
848,0.0
849,0.0
1121,272.03569968287064
1135,71.9996351286107
1161,0.0
1163,192.68064142549198
1166,0.0
1168,0.0
2,4,12,25, 0, 1, 0.00,60.00,Thursday
7,8.9
545,18.479008062906313
546,9.203792621686263
547,14.36477125193947
548,14.958213315408216
720,523.8792426173059
721,523.8792426173059
784,0.0
785,0.0
848,0.0
849,0.0
1121,636.9083143355531
1135,167.74378905427784
1161,0.0
1163,182.7662252152739
1166,0.0
1168,0.0
2,4,12,25, 0, 2, 0.00,60.00,Thursday
7,8.3
545,18.704284561514505
546,8.979458750617527
547,14.352671005150475
548,24.09296516721296
720,841.2614251451068
721,841.2614251451068
784,0.0
785,0.0
848,0.0
849,0.0
1121,1017.6471894865857
1135,267.3253888747849
1161,0.0
1163,172.24182281447375
1166,0.0
1168,0.0
2,4,12,25, 0, 3, 0.00,60.00,Thursday
7,7.8
545,18.34130515892072
546,8.831344933856954
547,14.336410889897985
548,27.858313959788184
720,948.7838031492738
721,948.7838031492738
784,0.0
785,0.0
848,0.0
849,0.0
1121,1164.0356117165368
1135,308.53738877976576
1161,0.0
1163,167.9036594450332
1166,0.0
1168,0.0
2,4,12,25, 0, 4, 0.00,60.00,Thursday
7,6.0
545,18.769951629728798
546,8.061165487079785
547,14.321995560294704
548,39.559886136742996
720,1308.6325792043826
721,1308.6325792043826
784,0.0
785,0.0
848,0.0
849,0.0
1121,1594.853228607404
1135,426.57429126469077
1161,0.0
1163,154.42195175223492
1166,0.0
1168,0.0
2,4,12,25, 0, 5, 0.00,60.00,Thursday
7,4.4
545,18.650900925282922
546,6.950239816412635
547,14.312892972900885
548,50.38835118268306
720,1146.2004655329984
721,1146.2004655329984
784,0.0
785,0.0
848,0.0
849,0.0
1121,1453.504328556224
1135,438.0732480341606
1161,53.99701985943896
1163,141.58219603429976
1166,0.0
1168,0.0
2,4,12,25, 0, 6, 0.00,60.00,Thursday
7,3.9
545,19.364487517127117
546,6.803549681608242
547,14.31302379528006
548,84.4218409460292
720,1969.2447712574776
721,1969.2447712574776
784,0.0
785,0.0
848,0.0
849,0.0
1121,2473.952479309879
1135,733.1377956991482
1161,87.8572575753462
1163,102.03388053260171
1166,0.0
1168,0.0
2,4,12,25, 0, 7, 0.00,60.00,Thursday
7,4.0
545,19.618585409929388
546,6.448701538987171
547,14.309073244002569
548,85.86825603266162
720,1938.0796310803871
721,1938.0796310803871
784,0.0
785,0.0
848,0.0
849,0.0
1121,2512.9481749124675
1135,755.3402618377884
1161,90.2082115874291
1163,100.36862230981689
1166,0.0
1168,0.0
2,4,12,25, 0, 8, 0.00,60.00,Thursday
7,3.9
545,19.731708669808636
546,6.187521747358593
547,14.28356335771618
548,78.71765102420521
720,1730.875374528243
721,1730.875374528243
784,0.0
785,0.0
848,0.0
849,0.0
1121,2288.1259167698645
1135,696.5342029052921
1161,81.86780537306694
1163,108.65086033448823
1166,0.0
1168,0.0
2,4,12,25, 0, 9, 0.00,60.00,Thursday
7,3.9
545,19.773505444838168
546,6.036356269169669
547,14.260230979795024
548,74.33081945830861
720,1619.9626031391726
721,1619.9626031391726
784,0.0
785,0.0
848,0.0
849,0.0
1121,2153.302301608278
1135,659.2024424085688
1161,77.27239342388442
1163,113.7416173025692
1166,0.0
1168,0.0
2,4,12,25, 0,10, 0.00,60.00,Thursday
7,4.4
545,19.76142223257332
546,6.508267147661922
547,14.231384494303638
548,67.47339716238316
720,1467.8425799569777
721,1467.8425799569777
784,0.0
785,0.0
848,0.0
849,0.0
1121,1960.3277894381793
1135,598.103991237383
1161,72.17286228098011
1163,121.7734989284153
1166,0.0
1168,0.0
2,4,12,25, 0,11, 0.00,60.00,Thursday
7,4.4
545,19.74024970742442
546,7.46420307401169
547,14.202981941469078
548,62.969019751945616
720,1372.935861397773
721,1372.935861397773
784,0.0
785,0.0
848,0.0
849,0.0
1121,1824.1175760713713
1135,558.0500685323403
1161,67.34896899160277
1163,126.99580180663416
1166,0.0
1168,0.0
2,4,12,25, 0,12, 0.00,60.00,Thursday
7,5.0
545,19.749624715771017
546,8.617981757732295
547,14.172021945702006
548,53.85692061002542
720,1202.9781574468343
721,1202.9781574468343
784,0.0
785,0.0
848,0.0
849,0.0
1121,1586.7221806296177
1135,482.76394980611394
1161,55.1158137040439
1163,137.6624170634476
1166,0.0
1168,0.0
2,4,12,25, 0,13, 0.00,60.00,Thursday
7,5.6
545,19.711216004252957
546,9.269854494447458
547,14.13465959424683
548,36.15376820974532
720,1121.7358221192171
721,1121.7358221192171
784,0.0
785,0.0
848,0.0
849,0.0
1121,1430.8890009348759
1135,398.55799432867644
1161,0.0
1163,158.34623522154672
1166,0.0
1168,0.0
2,4,12,25, 0,14, 0.00,60.00,Thursday
7,6.0
545,19.817182137796216
546,10.688416307672018
547,14.119545184792507
548,31.923767180075075
720,1009.7645798720714
721,1009.7645798720714
784,0.0
785,0.0
848,0.0
849,0.0
1121,1273.0910406161695
1135,353.125940762318
1161,0.0
1163,163.21973739372154
1166,0.0
1168,0.0
2,4,12,25, 0,15, 0.00,60.00,Thursday
7,6.0
545,19.765180070878685
546,11.557685472614716
547,14.107532207872692
548,27.950756406029207
720,889.7702163686317
721,889.7702163686317
784,0.0
785,0.0
848,0.0
849,0.0
1121,1111.2740035192069
1135,309.7992881675858
1161,0.0
1163,167.79715392425513
1166,0.0
1168,0.0
2,4,12,25, 0,16, 0.00,60.00,Thursday
7,4.4
545,19.52187007244609
546,9.621909845016273
547,14.115804234889717
548,40.621364208941614
720,943.92980508453
721,943.92980508453
784,0.0
785,0.0
848,0.0
849,0.0
1121,1175.1227048843962
1135,364.6683769826025
1161,40.17287976077833
1163,152.9305602222125
1166,0.0
1168,0.0
2,4,12,25, 0,17, 0.00,60.00,Thursday
7,3.9
545,19.69132146735705
546,8.116546512398525
547,14.115062964481718
548,48.11524091532228
720,1090.2685754866015
721,1090.2685754866015
784,0.0
785,0.0
848,0.0
849,0.0
1121,1370.7673076202504
1135,424.85640680990883
1161,50.09624778535979
1163,144.16357264310835
1166,0.0
1168,0.0
2,4,12,25, 0,18, 0.00,60.00,Thursday
7,4.0
545,19.708015919812844
546,6.8163655530698755
547,14.104455862763476
548,42.40385076822864
720,927.7016292118878
721,927.7016292118878
784,0.0
785,0.0
848,0.0
849,0.0
1121,1203.7770175160585
1135,375.36528894890836
1161,44.54749563869623
1163,150.79906490742104
1166,0.0
1168,0.0