Program Version,EnergyPlus, Version 22.2.0-c249759bad, YMD=2023.07.07 15:04
1,5,Environment Title[],Latitude[deg],Longitude[deg],Time Zone[],Elevation[m]
2,8,Day of Simulation[],Month[],Day of Month[],DST Indicator[1=yes 0=no],Hour[],StartMinute[],EndMinute[],DayType
3,5,Cumulative Day of Simulation[],Month[],Day of Month[],DST Indicator[1=yes 0=no],DayType  ! When Daily Report Variables Requested
4,2,Cumulative Days of Simulation[],Month[]  ! When Monthly Report Variables Requested
5,1,Cumulative Days of Simulation[] ! When Run Period Report Variables Requested
6,1,Calendar Year of Simulation[] ! When Annual Report Variables Requested
581,11,LIVING,AFN Zone Infiltration Air Change Rate [ach] !RunPeriod [Value,Min,Month,Day,Hour,Minute,Max,Month,Day,Hour,Minute]
582,11,ATTIC,AFN Zone Infiltration Air Change Rate [ach] !RunPeriod [Value,Min,Month,Day,Hour,Minute,Max,Month,Day,Hour,Minute]
583,11,CRAWLSPACE,AFN Zone Infiltration Air Change Rate [ach] !RunPeriod [Value,Min,Month,Day,Hour,Minute,Max,Month,Day,Hour,Minute]
1038,11,Facility,Facility Heating Setpoint Not Met Time [hr] !RunPeriod [Value,Min,Month,Day,Hour,Minute,Max,Month,Day,Hour,Minute]
1039,11,Facility,Facility Cooling Setpoint Not Met Time [hr] !RunPeriod [Value,Min,Month,Day,Hour,Minute,Max,Month,Day,Hour,Minute]
1115,11,DX_HEATING_COIL,Heating Coil Heating Energy [J] !RunPeriod [Value,Min,Month,Day,Hour,Minute,Max,Month,Day,Hour,Minute]
1128,11,DX_HEATING_COIL,Heating Coil Electricity Energy [J] !RunPeriod [Value,Min,Month,Day,Hour,Minute,Max,Month,Day,Hour,Minute]
1153,11,DX_HEATING_COIL,Heating Coil Defrost Electricity Energy [J] !RunPeriod [Value,Min,Month,Day,Hour,Minute,Max,Month,Day,Hour,Minute]
1154,11,DX_HEATING_COIL,Heating Coil Crankcase Heater Electricity Energy [J] !RunPeriod [Value,Min,Month,Day,Hour,Minute,Max,Month,Day,Hour,Minute]
1156,11,HEATING_RESISTANCE_BACKUP,Heating Coil Electricity Energy [J] !RunPeriod [Value,Min,Month,Day,Hour,Minute,Max,Month,Day,Hour,Minute]
13,11,Electricity:Facility [J] !RunPeriod [Value,Min,Month,Day,Hour,Minute,Max,Month,Day,Hour,Minute]
1134,11,Heating:Electricity [J] !RunPeriod [Value,Min,Month,Day,Hour,Minute,Max,Month,Day,Hour,Minute]
1096,11,Cooling:Electricity [J] !RunPeriod [Value,Min,Month,Day,Hour,Minute,Max,Month,Day,Hour,Minute]
562,11,Fans:Electricity [J] !RunPeriod [Value,Min,Month,Day,Hour,Minute,Max,Month,Day,Hour,Minute]
1388,11,Pumps:Electricity [J] !RunPeriod [Value,Min,Month,Day,Hour,Minute,Max,Month,Day,Hour,Minute]
1360,11,WaterSystems:Electricity [J] !RunPeriod [Value,Min,Month,Day,Hour,Minute,Max,Month,Day,Hour,Minute]
61,11,InteriorLights:Electricity [J] !RunPeriod [Value,Min,Month,Day,Hour,Minute,Max,Month,Day,Hour,Minute]
1046,11,ExteriorLights:Electricity [J] !RunPeriod [Value,Min,Month,Day,Hour,Minute,Max,Month,Day,Hour,Minute]
134,11,InteriorEquipment:Electricity [J] !RunPeriod [Value,Min,Month,Day,Hour,Minute,Max,Month,Day,Hour,Minute]
170,11,gas_dryer:InteriorEquipment:Electricity [J] !RunPeriod [Value,Min,Month,Day,Hour,Minute,Max,Month,Day,Hour,Minute]
207,11,clotheswasher:InteriorEquipment:Electricity [J] !RunPeriod [Value,Min,Month,Day,Hour,Minute,Max,Month,Day,Hour,Minute]
244,11,dishwasher:InteriorEquipment:Electricity [J] !RunPeriod [Value,Min,Month,Day,Hour,Minute,Max,Month,Day,Hour,Minute]
281,11,refrigerator:InteriorEquipment:Electricity [J] !RunPeriod [Value,Min,Month,Day,Hour,Minute,Max,Month,Day,Hour,Minute]
318,11,electric_mels:InteriorEquipment:Electricity [J] !RunPeriod [Value,Min,Month,Day,Hour,Minute,Max,Month,Day,Hour,Minute]
355,11,NaturalGas:Facility [J] !RunPeriod [Value,Min,Month,Day,Hour,Minute,Max,Month,Day,Hour,Minute]
1323,11,WaterSystems:NaturalGas [J] !RunPeriod [Value,Min,Month,Day,Hour,Minute,Max,Month,Day,Hour,Minute]
403,11,InteriorEquipment:NaturalGas [J] !RunPeriod [Value,Min,Month,Day,Hour,Minute,Max,Month,Day,Hour,Minute]
476,11,gas_dryer:InteriorEquipment:NaturalGas [J] !RunPeriod [Value,Min,Month,Day,Hour,Minute,Max,Month,Day,Hour,Minute]
513,11,gas_mels:InteriorEquipment:NaturalGas [J] !RunPeriod [Value,Min,Month,Day,Hour,Minute,Max,Month,Day,Hour,Minute]
End of Data Dictionary
1,EXTREME_WINTER,  35.27,-113.93,  -7.00,1033.00
5,7
1038,0.0,0.0,12,22, 1,10,0.0,12,22, 1,10
1039,0.0,0.0,12,22, 1,10,0.0,12,22, 1,10
581,0.2724837095058791,0.13492383644736372,12,22,10,12,0.9172866868269064,12,25, 5,20
582,3.9168314797739403,0.0,12,22, 2,45,20.17500630029285,12,25, 8,60
583,4.842548209385691,0.00014374622127706776,12,22, 2,55,25.71179376643185,12,25, 8,60
1115,576789662.1043625,0.0,12,22, 1,10,3038502.6822578,12,27, 6,30
1128,175100456.37173566,0.0,12,22, 1,10,962580.2898225067,12,27, 6,30
1153,8132901.954708199,0.0,12,22, 1,10,51716.25290462158,12,25,10,60
1154,96227847.32879288,0.0,12,22, 6, 2,120000.0,12,22, 1,10
1156,2047488.5264747548,0.0,12,22, 1,10,661443.4663067277,12,26, 6, 3
13,679320724.5437387,110316.09050215792,12,25, 2,10,2136316.700092093,12,27, 6,10
61,301924526.0238348,58759.40635443481,12,22, 1,10,854682.2742463244,12,22,20,10
134,70666020.44019979,42376.01200569399,12,22, 4,10,104369.48322671017,12,27,20,10
170,5241013.419656074,232.27731661587313,12,22, 4,10,11650.931360040839,12,27,12,10
207,6509451.13922266,543.5021409221355,12,22, 3,10,15327.095199349082,12,27,10,10
244,12749673.39982522,1014.5707620042115,12,22, 4,10,35359.08742820678,12,27,20,10
281,46165882.48149605,39959.06841621388,12,22, 5,10,54634.54471212738,12,22,19,10
318,0.0,0.0,12,22, 1,10,0.0,12,22, 1,10
355,731102518.6443379,12374.216038804521,12,22, 4,10,3829218.1540669827,12,23,18,60
403,197687796.27748126,12374.216038804521,12,22, 4,10,483183.26346918393,12,27,18,10
476,106772067.24485692,4732.048419519677,12,22, 4,10,237357.535085481,12,27,12,10
513,0.0,0.0,12,22, 1,10,0.0,12,22, 1,10
562,18853646.715773072,0.0,12,22, 1,10,105875.74091096787,12,27, 6,30
1046,0.0,0.0,12,22, 1,10,0.0,12,22, 1,10
1096,1347997.1822190576,0.0,12,22, 1,10,119686.22386955388,12,28,17,30
1134,281508694.18171144,0.0,12,22,10,40,1618706.9066963335,12,27, 6,10
1323,533414722.366854,0.0,12,22, 1,10,3375000.000000002,12,22, 8,40
1360,5019840.0,4980.0,12,22, 1,10,4980.000000000001,12,22, 1,30
1388,0.0,0.0,12,22, 1,10,0.0,12,22, 1,10
1,EXTREME_SUMMER,  35.27,-113.93,  -7.00,1033.00
5,7
1038,0.0,0.0, 6,29, 1,10,0.0, 6,29, 1,10
1039,20.166666666666664,0.0, 6,29, 1,10,0.16666666666666666, 6,29,14,40
581,0.18170445536726215,0.0, 6,29, 1,13,1.0913349423209062, 6,30,18,53
582,5.6225114157497735,0.044071940759675125, 7, 4, 3,30,23.03151840956035, 6,29,16,51
583,6.793522648451546,0.09507282713499546, 7, 4, 5,60,32.17566927333685, 6,30,18,56
1115,0.0,0.0, 6,29, 1, 3,0.0, 6,29, 1, 3
1128,0.0,0.0, 6,29, 1, 3,0.0, 6,29, 1, 3
1153,0.0,0.0, 6,29, 1, 3,0.0, 6,29, 1, 3
1154,0.0,0.0, 6,29, 1, 3,0.0, 6,29, 1, 3
1156,0.0,0.0, 6,29, 1, 3,0.0, 6,29, 1, 3
13,1242508302.7935,210669.2574835777, 7, 4, 4,60,2375596.4664755706, 7, 4,20,10
61,301924526.0238348,58759.40635443481, 6,29, 1,10,854682.2742463244, 6,29,20,10
134,70666020.44019979,42376.01200569399, 6,29, 4,10,104369.48322671017, 7, 4,20,10
170,5241013.419656074,232.27731661587313, 6,29, 4,10,11650.931360040839, 7, 4,12,10
207,6509451.13922266,543.5021409221355, 6,29, 3,10,15327.095199349082, 7, 4,10,10
244,12749673.39982522,1014.5707620042115, 6,29, 4,10,35359.08742820678, 7, 4,20,10
281,46165882.48149605,39959.06841621388, 6,29, 5,10,54634.54471212738, 6,29,19,10
318,0.0,0.0, 6,29, 1,10,0.0, 6,29, 1,10
355,655211985.3286937,12374.216038804521, 6,29, 4,10,3829218.154066982, 6,30,18,60
403,197687796.27748126,12374.216038804521, 6,29, 4,10,483183.26346918393, 7, 4,18,10
476,106772067.24485692,4732.048419519677, 6,29, 4,10,237357.535085481, 7, 4,12,10
513,0.0,0.0, 6,29, 1,10,0.0, 6,29, 1,10
562,72703092.3923348,5541.726764595247, 7, 4, 6,20,123356.72098638932, 6,29,13,60
1046,0.0,0.0, 6,29, 1,10,0.0, 6,29, 1,10
1096,792194823.9371315,45043.3129712072, 7, 4, 6,20,1624222.4566243107, 6,29,15,60
1134,0.0,0.0, 6,29, 1,10,0.0, 6,29, 1,10
1323,457524189.0512116,0.0, 6,29, 1,10,3375000.0000000005, 6,29,21,50
1360,5019840.0,4979.999999999998, 7, 4, 8,30,4980.000000000001, 6,29, 1,10
1388,0.0,0.0, 6,29, 1,10,0.0, 6,29, 1,10
1,ANNUAL,  35.27,-113.93,  -7.00,1033.00
5,365
1038,0.16666666666666666,0.0, 1, 1, 1,10,0.16666666666666666, 2, 1, 6,10
1039,252.00000000000003,0.0, 1, 1, 1,10,0.16666666666666666, 1,24,17,10
581,0.2512771448879255,0.0, 4,16, 8, 2,1.2127668920991386,10, 5,22,60
582,4.9151793818624565,0.0, 1, 1,10,50,28.24833661317195, 6,28,19,51
583,6.18194629860791,0.0, 4, 1, 8,42,33.40333886811251,10, 5,22,60
1115,5610588117.500518,0.0, 1, 1, 1, 5,3276786.064994486,12,20, 7,60
1128,1728368682.8594074,0.0, 1, 1, 1, 5,1083937.2465939869,12,20, 7,60
1153,42428796.848676175,0.0, 1, 1, 1, 5,64444.90868709173, 2, 1, 6,30
1154,1561385286.3958473,0.0, 1, 1, 6, 3,120000.0, 1, 1, 1,20
1156,25871965.521378387,0.0, 1, 1, 1, 5,661443.4663067277, 1, 1, 6, 3
13,40417412608.18873,106115.4183601288, 2, 7, 4,40,2431612.750504398, 6,28,20,60
61,15743207428.39043,58759.40635443481, 1, 1, 1,10,854682.2742463244, 1, 1,20,10
134,3685071073.433083,42376.01200569399, 1, 2, 4,10,104369.48322671017, 1, 1,20,10
170,273393721.45534325,232.27731661587313, 1, 2, 4,10,11650.931360040839, 1, 1,12,10
207,339560869.06955314,543.5021409221355, 1, 2, 3,10,15327.095199349082, 1, 1,10,10
244,664895467.8009839,1014.5707620042115, 1, 2, 4,10,35359.08742820678, 1, 1,20,10
281,2407221015.1057043,39959.06841621388, 1, 1, 5,10,54634.54471212738, 1, 1,19,10
318,0.0,0.0, 1, 1, 1,10,0.0, 1, 1, 1,10
355,35670026327.795296,12374.216038804521, 1, 2, 4,10,3829218.1540669827, 6, 9,18,30
403,10310294493.052883,12374.216038804521, 1, 2, 4,10,483183.26346918393, 1, 1,18,10
476,5569688622.065564,4732.048419519677, 1, 2, 4,10,237357.535085481, 1, 1,12,10
513,0.0,0.0, 1, 1, 1,10,0.0, 1, 1, 1,10
562,1859435100.376241,0.0, 1, 1, 1,10,123356.72098638932, 5,27,17,30
1046,0.0,0.0, 1, 1, 1,10,0.0, 1, 1, 1,10
1096,15509895474.369848,0.0, 1, 1, 1,10,1611555.7459671784, 6,29,15,60
1134,3358054731.6253133,0.0, 1, 1,17,10,1694219.3825733964,12,21, 6,10
1323,25359731834.746376,0.0, 1, 1, 1,10,3375000.000000002, 1, 4,16,10
1360,261748800.0,4979.999999999998, 1,29,11,10,4980.000000000002, 1, 1, 6,30
1388,0.0,0.0, 1, 1, 1,10,0.0, 1, 1, 1,10
End of Data
 Number of Records Written=          87
