Program Version,EnergyPlus, Version 22.2.0-c249759bad, YMD=2023.09.01 20:49
1,5,Environment Title[],Latitude[deg],Longitude[deg],Time Zone[],Elevation[m]
2,8,Day of Simulation[],Month[],Day of Month[],DST Indicator[1=yes 0=no],Hour[],StartMinute[],EndMinute[],DayType
3,5,Cumulative Day of Simulation[],Month[],Day of Month[],DST Indicator[1=yes 0=no],DayType  ! When Daily Report Variables Requested
4,2,Cumulative Days of Simulation[],Month[]  ! When Monthly Report Variables Requested
5,1,Cumulative Days of Simulation[] ! When Run Period Report Variables Requested
6,1,Calendar Year of Simulation[] ! When Annual Report Variables Requested
581,11,LIVING,AFN Zone Infiltration Air Change Rate [ach] !RunPeriod [Value,Min,Month,Day,Hour,Minute,Max,Month,Day,Hour,Minute]
582,11,ATTIC,AFN Zone Infiltration Air Change Rate [ach] !RunPeriod [Value,Min,Month,Day,Hour,Minute,Max,Month,Day,Hour,Minute]
583,11,CRAWLSPACE,AFN Zone Infiltration Air Change Rate [ach] !RunPeriod [Value,Min,Month,Day,Hour,Minute,Max,Month,Day,Hour,Minute]
1038,11,Facility,Facility Heating Setpoint Not Met Time [hr] !RunPeriod [Value,Min,Month,Day,Hour,Minute,Max,Month,Day,Hour,Minute]
1039,11,Facility,Facility Cooling Setpoint Not Met Time [hr] !RunPeriod [Value,Min,Month,Day,Hour,Minute,Max,Month,Day,Hour,Minute]
1115,11,DX_HEATING_COIL,Heating Coil Heating Energy [J] !RunPeriod [Value,Min,Month,Day,Hour,Minute,Max,Month,Day,Hour,Minute]
1128,11,DX_HEATING_COIL,Heating Coil Electricity Energy [J] !RunPeriod [Value,Min,Month,Day,Hour,Minute,Max,Month,Day,Hour,Minute]
1153,11,DX_HEATING_COIL,Heating Coil Defrost Electricity Energy [J] !RunPeriod [Value,Min,Month,Day,Hour,Minute,Max,Month,Day,Hour,Minute]
1154,11,DX_HEATING_COIL,Heating Coil Crankcase Heater Electricity Energy [J] !RunPeriod [Value,Min,Month,Day,Hour,Minute,Max,Month,Day,Hour,Minute]
1155,11,HEATING_RESISTANCE_BACKUP,Heating Coil Heating Energy [J] !RunPeriod [Value,Min,Month,Day,Hour,Minute,Max,Month,Day,Hour,Minute]
1156,11,HEATING_RESISTANCE_BACKUP,Heating Coil Electricity Energy [J] !RunPeriod [Value,Min,Month,Day,Hour,Minute,Max,Month,Day,Hour,Minute]
1292,11,WATER HEATER,Water Heater Heat Loss Energy [J] !RunPeriod [Value,Min,Month,Day,Hour,Minute,Max,Month,Day,Hour,Minute]
1306,11,WATER HEATER,Water Heater Heating Energy [J] !RunPeriod [Value,Min,Month,Day,Hour,Minute,Max,Month,Day,Hour,Minute]
1307,11,WATER HEATER,Water Heater Unmet Demand Heat Transfer Energy [J] !RunPeriod [Value,Min,Month,Day,Hour,Minute,Max,Month,Day,Hour,Minute]
1308,11,WATER HEATER,Water Heater Electricity Energy [J] !RunPeriod [Value,Min,Month,Day,Hour,Minute,Max,Month,Day,Hour,Minute]
13,11,Electricity:Facility [J] !RunPeriod [Value,Min,Month,Day,Hour,Minute,Max,Month,Day,Hour,Minute]
1134,11,Heating:Electricity [J] !RunPeriod [Value,Min,Month,Day,Hour,Minute,Max,Month,Day,Hour,Minute]
1096,11,Cooling:Electricity [J] !RunPeriod [Value,Min,Month,Day,Hour,Minute,Max,Month,Day,Hour,Minute]
562,11,Fans:Electricity [J] !RunPeriod [Value,Min,Month,Day,Hour,Minute,Max,Month,Day,Hour,Minute]
1379,11,Pumps:Electricity [J] !RunPeriod [Value,Min,Month,Day,Hour,Minute,Max,Month,Day,Hour,Minute]
1326,11,WaterSystems:Electricity [J] !RunPeriod [Value,Min,Month,Day,Hour,Minute,Max,Month,Day,Hour,Minute]
61,11,InteriorLights:Electricity [J] !RunPeriod [Value,Min,Month,Day,Hour,Minute,Max,Month,Day,Hour,Minute]
1046,11,ExteriorLights:Electricity [J] !RunPeriod [Value,Min,Month,Day,Hour,Minute,Max,Month,Day,Hour,Minute]
134,11,InteriorEquipment:Electricity [J] !RunPeriod [Value,Min,Month,Day,Hour,Minute,Max,Month,Day,Hour,Minute]
170,11,gas_dryer:InteriorEquipment:Electricity [J] !RunPeriod [Value,Min,Month,Day,Hour,Minute,Max,Month,Day,Hour,Minute]
207,11,clotheswasher:InteriorEquipment:Electricity [J] !RunPeriod [Value,Min,Month,Day,Hour,Minute,Max,Month,Day,Hour,Minute]
244,11,dishwasher:InteriorEquipment:Electricity [J] !RunPeriod [Value,Min,Month,Day,Hour,Minute,Max,Month,Day,Hour,Minute]
281,11,refrigerator:InteriorEquipment:Electricity [J] !RunPeriod [Value,Min,Month,Day,Hour,Minute,Max,Month,Day,Hour,Minute]
318,11,electric_mels:InteriorEquipment:Electricity [J] !RunPeriod [Value,Min,Month,Day,Hour,Minute,Max,Month,Day,Hour,Minute]
355,11,NaturalGas:Facility [J] !RunPeriod [Value,Min,Month,Day,Hour,Minute,Max,Month,Day,Hour,Minute]
403,11,InteriorEquipment:NaturalGas [J] !RunPeriod [Value,Min,Month,Day,Hour,Minute,Max,Month,Day,Hour,Minute]
476,11,gas_dryer:InteriorEquipment:NaturalGas [J] !RunPeriod [Value,Min,Month,Day,Hour,Minute,Max,Month,Day,Hour,Minute]
513,11,gas_mels:InteriorEquipment:NaturalGas [J] !RunPeriod [Value,Min,Month,Day,Hour,Minute,Max,Month,Day,Hour,Minute]
End of Data Dictionary
1,EXTREME_WINTER,  39.67, -75.60,  -5.00,  23.00
5,7
1038,0.75,0.0, 1, 8, 1,15,0.25, 1, 8, 6,15
1039,0.0,0.0, 1, 8, 1,15,0.0, 1, 8, 1,15
581,0.3913678693546478,0.18746327951217118, 1,11,23,22,0.8250512629345774, 1, 8, 1,50
582,4.643190549868948,0.0, 1, 9,23,52,16.764684500053548, 1, 8, 1,50
583,0.0464205171298446,0.0004013360723667426, 1,11,23,22,0.08288739679414675, 1, 8, 1,50
1115,1602024193.073932,0.0, 1, 8,23, 5,4634374.437874036, 1,13, 6,45
1128,545592183.4222208,0.0, 1, 8,23, 5,1385623.0147674398, 1,13, 6,60
1153,7828857.736922529,0.0, 1, 8,23, 5,85811.50525842326, 1,12, 9,60
1154,45682771.31005203,0.0, 1, 8, 1, 7,180000.0, 1, 9,14,60
1155,364281176.48053944,0.0, 1, 8,11,35,3965775.0355690564, 1, 8, 6,45
1156,364281176.48053944,0.0, 1, 8,11,35,3965775.0355690564, 1, 8, 6,45
1292,-25065424.812520836,-39758.88055713282, 1, 9, 5,15,-4132.914171263611, 1,11, 9,48
1306,353236002.69052106,0.0, 1, 8, 1, 7,4050000.0, 1, 8, 9,60
1307,159942840.6039705,0.0, 1, 8, 1, 7,16517613.089820346, 1,12, 9,60
1308,353236002.69052106,0.0, 1, 8, 1, 7,4050000.0, 1, 8, 9,60
13,1745445113.9681568,452017.0388981225, 1, 9,15,15,8193452.897836798, 1, 8, 8,30
61,301924526.02383536,88139.10953165221, 1, 8, 1,15,1282023.4113694867, 1, 8,20,15
134,70666020.44019976,63564.01800854099, 1, 8, 4,15,156554.22484006523, 1,13,20,15
170,5241013.419656067,348.4159749238097, 1, 8, 4,15,17476.39704006126, 1,13,12,15
207,6509451.13922267,815.2532113832032, 1, 8, 3,15,22990.642799023623, 1,13,10,15
244,12749673.399825225,1521.856143006317, 1, 8, 4,15,53038.631142310165, 1,13,20,15
281,46165882.481495745,59938.60262432081, 1, 8, 5,15,81951.81706819107, 1, 8,19,15
318,0.0,0.0, 1, 8, 1,15,0.0, 1, 8, 1,15
355,197687796.27748066,18561.32405820678, 1, 8, 4,15,724774.895203776, 1,13,18,15
403,197687796.27748066,18561.32405820678, 1, 8, 4,15,724774.895203776, 1,13,18,15
476,106772067.24485716,7098.072629279515, 1, 8, 4,15,356036.3026282215, 1,13,12,15
513,0.0,0.0, 1, 8, 1,15,0.0, 1, 8, 1,15
562,56233575.86386702,0.0, 1, 9,14,60,134651.89816331514, 1, 8, 1,15
1046,0.0,0.0, 1, 8, 1,15,0.0, 1, 8, 1,15
1096,0.0,0.0, 1, 8, 1,15,0.0, 1, 8, 1,15
1134,963384988.9497356,180000.0, 1, 9,14,60,5731523.5440290505, 1, 8, 6,15
1326,353236002.690521,0.0, 1, 8, 1,15,4050000.0, 1, 8, 9,60
1379,0.0,0.0, 1, 8, 1,15,0.0, 1, 8, 1,15
1,EXTREME_SUMMER,  39.67, -75.60,  -5.00,  23.00
5,7
1038,0.0,0.0, 7,15, 1,15,0.0, 7,15, 1,15
1039,38.25,0.0, 7,15, 1,15,0.25, 7,17,14,60
581,0.1340568178170692,0.0, 7,15,23, 3,0.4514902353744638, 7,21,22,33
582,3.3278802065436714,0.06191543784616887, 7,17, 8,26,17.797669753890556, 7,21,22,48
583,0.040473199225771236,0.0001217929600122964, 7,16, 6,11,0.0732147087724332, 7,21,22,33
1115,0.0,0.0, 7,15, 1,15,0.0, 7,15, 1,15
1128,0.0,0.0, 7,15, 1,15,0.0, 7,15, 1,15
1153,0.0,0.0, 7,15, 1,15,0.0, 7,15, 1,15
1154,0.0,0.0, 7,15, 1,15,0.0, 7,15, 1,15
1155,0.0,0.0, 7,15, 1,15,0.0, 7,15, 1,15
1156,0.0,0.0, 7,15, 1,15,0.0, 7,15, 1,15
1292,-21806890.69019645,-34345.99619303898, 7,20,22,15,-2547.0047464360327, 7,18, 9,46
1306,257176485.8488357,0.0, 7,15, 1,15,3738339.4355984884, 7,15,16,45
1307,82239471.11856572,0.0, 7,15, 1,15,3503366.7372618266, 7,15, 9,45
1308,257176485.8488357,0.0, 7,15, 1,15,3738339.4355984884, 7,15,16,45
13,1231851567.8466692,175741.176876648, 7,16, 4,60,6972478.410171959, 7,21,21,15
61,301924526.02383536,88139.10953165221, 7,15, 1,15,1282023.4113694867, 7,15,20,15
134,70666020.44019976,63564.01800854099, 7,15, 4,15,156554.22484006523, 7,20,20,15
170,5241013.419656067,348.4159749238097, 7,15, 4,15,17476.39704006126, 7,20,12,15
207,6509451.13922267,815.2532113832032, 7,15, 3,15,22990.642799023623, 7,20,10,15
244,12749673.399825225,1521.856143006317, 7,15, 4,15,53038.631142310165, 7,20,20,15
281,46165882.481495745,59938.60262432081, 7,15, 5,15,81951.81706819107, 7,15,19,15
318,0.0,0.0, 7,15, 1,15,0.0, 7,15, 1,15
355,197687796.27748066,18561.32405820678, 7,15, 4,15,724774.895203776, 7,20,18,15
403,197687796.27748066,18561.32405820678, 7,15, 4,15,724774.895203776, 7,20,18,15
476,106772067.24485716,7098.072629279515, 7,15, 4,15,356036.3026282215, 7,20,12,15
513,0.0,0.0, 7,15, 1,15,0.0, 7,15, 1,15
562,54391377.09361292,835.8794982558919, 7,17, 6,30,134651.89816331514, 7,16,18,60
1046,0.0,0.0, 7,15, 1,15,0.0, 7,15, 1,15
1096,547693158.4401865,6962.916055143966, 7,17, 6,30,1513244.23438612, 7,20,15,60
1134,0.0,0.0, 7,15, 1,15,0.0, 7,15, 1,15
1326,257176485.8488357,0.0, 7,15, 1,15,4050000.0, 7,15, 9,60
1379,0.0,0.0, 7,15, 1,15,0.0, 7,15, 1,15
1,ANNUAL,  39.67, -75.60,  -5.00,  23.00
5,365
1038,9.0,0.0, 1, 1, 1,15,0.25, 1, 8, 6,15
1039,343.5,0.0, 1, 1, 1,15,0.25, 4, 2,14,15
581,0.25353500114585825,0.0, 5,15,23, 5,1.228580989717047, 3,10,22,60
582,4.41829376457241,0.0, 1, 2,20,52,33.944524030971955, 2,12,14,60
583,0.026083530812110466,0.0, 5,20,23, 3,0.08578382909757029,12,16,12,60
1115,18588589618.283573,0.0, 1, 1,12,52,4662726.819366354, 3, 1, 6,45
1128,5879728078.278058,0.0, 1, 1,12,52,1395457.0044082492, 3, 1, 6,45
1153,172286786.67097604,0.0, 1, 1,12,52,123847.43134556709, 3, 7, 4,60
1154,1654107463.4564087,0.0, 1, 1, 6, 5,180000.0, 1, 1,14,15
1155,1667745520.1900585,0.0, 1, 1, 1,15,4557349.248196575, 1, 8, 1,45
1156,1667745520.1900585,0.0, 1, 1, 1,15,4557349.248196575, 1, 8, 1,45
1292,-1207821489.7712536,-39785.72865187148, 3, 8, 2,30,-2151.7554096481513,10,21, 9,46
1306,15978554138.838537,0.0, 1, 1, 1,15,4050000.0, 1, 1,21,15
1307,6319265480.295991,0.0, 1, 1, 1,15,16844709.824940115, 2, 3, 9,60
1308,15978554138.838537,0.0, 1, 1, 1,15,4050000.0, 1, 1,21,15
13,56118443195.300476,151703.1275401932, 4, 3, 4,15,9572887.41822338, 1,31, 9,30
61,15743207428.383959,88139.10953165221, 1, 1, 1,15,1282023.4113694867, 1, 1,20,15
134,3685071073.4325233,63564.01800854099, 1, 2, 4,15,156554.22484006523, 1, 1,20,15
170,273393721.45532674,348.4159749238097, 1, 2, 4,15,17476.39704006126, 1, 1,12,15
207,339560869.0695816,815.2532113832032, 1, 2, 3,15,22990.642799023623, 1, 1,10,15
244,664895467.8009144,1521.856143006317, 1, 2, 4,15,53038.631142310165, 1, 1,20,15
281,2407221015.106824,59938.60262432081, 1, 1, 5,15,81951.81706819107, 1, 1,19,15
318,0.0,0.0, 1, 1, 1,15,0.0, 1, 1, 1,15
355,10310294493.051695,18561.32405820678, 1, 2, 4,15,724774.895203776, 1, 1,18,15
403,10310294493.051695,18561.32405820678, 1, 2, 4,15,724774.895203776, 1, 1,18,15
476,5569688622.066177,7098.072629279515, 1, 2, 4,15,356036.3026282215, 1, 1,12,15
513,0.0,0.0, 1, 1, 1,15,0.0, 1, 1, 1,15
562,1654924637.406488,0.0, 1, 1,12,60,134651.89816331514, 1, 3, 6,45
1046,0.0,0.0, 1, 1, 1,15,0.0, 1, 1, 1,15
1096,9682818068.641033,0.0, 1, 1, 1,15,1515730.0248979218, 7,20,15,60
1134,9373867848.59555,0.0, 1, 4,17,15,5837176.384928804, 1,31, 8,60
1326,15978554138.838556,0.0, 1, 1, 1,15,4050000.0000000014, 4,12, 9,60
1379,0.0,0.0, 1, 1, 1,15,0.0, 1, 1, 1,15
End of Data
 Number of Records Written=          99
