Program Version,EnergyPlus, Version 22.2.0-c249759bad, YMD=2023.09.01 15:45
1,5,Environment Title[],Latitude[deg],Longitude[deg],Time Zone[],Elevation[m]
2,8,Day of Simulation[],Month[],Day of Month[],DST Indicator[1=yes 0=no],Hour[],StartMinute[],EndMinute[],DayType
3,5,Cumulative Day of Simulation[],Month[],Day of Month[],DST Indicator[1=yes 0=no],DayType  ! When Daily Report Variables Requested
4,2,Cumulative Days of Simulation[],Month[]  ! When Monthly Report Variables Requested
5,1,Cumulative Days of Simulation[] ! When Run Period Report Variables Requested
6,1,Calendar Year of Simulation[] ! When Annual Report Variables Requested
581,11,LIVING,AFN Zone Infiltration Air Change Rate [ach] !RunPeriod [Value,Min,Month,Day,Hour,Minute,Max,Month,Day,Hour,Minute]
582,11,ATTIC,AFN Zone Infiltration Air Change Rate [ach] !RunPeriod [Value,Min,Month,Day,Hour,Minute,Max,Month,Day,Hour,Minute]
583,11,CRAWLSPACE,AFN Zone Infiltration Air Change Rate [ach] !RunPeriod [Value,Min,Month,Day,Hour,Minute,Max,Month,Day,Hour,Minute]
1038,11,Facility,Facility Heating Setpoint Not Met Time [hr] !RunPeriod [Value,Min,Month,Day,Hour,Minute,Max,Month,Day,Hour,Minute]
1039,11,Facility,Facility Cooling Setpoint Not Met Time [hr] !RunPeriod [Value,Min,Month,Day,Hour,Minute,Max,Month,Day,Hour,Minute]
1115,11,DX_HEATING_COIL,Heating Coil Heating Energy [J] !RunPeriod [Value,Min,Month,Day,Hour,Minute,Max,Month,Day,Hour,Minute]
1128,11,DX_HEATING_COIL,Heating Coil Electricity Energy [J] !RunPeriod [Value,Min,Month,Day,Hour,Minute,Max,Month,Day,Hour,Minute]
1153,11,DX_HEATING_COIL,Heating Coil Defrost Electricity Energy [J] !RunPeriod [Value,Min,Month,Day,Hour,Minute,Max,Month,Day,Hour,Minute]
1154,11,DX_HEATING_COIL,Heating Coil Crankcase Heater Electricity Energy [J] !RunPeriod [Value,Min,Month,Day,Hour,Minute,Max,Month,Day,Hour,Minute]
1155,11,HEATING_RESISTANCE_BACKUP,Heating Coil Heating Energy [J] !RunPeriod [Value,Min,Month,Day,Hour,Minute,Max,Month,Day,Hour,Minute]
1156,11,HEATING_RESISTANCE_BACKUP,Heating Coil Electricity Energy [J] !RunPeriod [Value,Min,Month,Day,Hour,Minute,Max,Month,Day,Hour,Minute]
1292,11,WATER HEATER,Water Heater Heat Loss Energy [J] !RunPeriod [Value,Min,Month,Day,Hour,Minute,Max,Month,Day,Hour,Minute]
1306,11,WATER HEATER,Water Heater Heating Energy [J] !RunPeriod [Value,Min,Month,Day,Hour,Minute,Max,Month,Day,Hour,Minute]
1307,11,WATER HEATER,Water Heater Unmet Demand Heat Transfer Energy [J] !RunPeriod [Value,Min,Month,Day,Hour,Minute,Max,Month,Day,Hour,Minute]
1308,11,WATER HEATER,Water Heater Electricity Energy [J] !RunPeriod [Value,Min,Month,Day,Hour,Minute,Max,Month,Day,Hour,Minute]
13,11,Electricity:Facility [J] !RunPeriod [Value,Min,Month,Day,Hour,Minute,Max,Month,Day,Hour,Minute]
1134,11,Heating:Electricity [J] !RunPeriod [Value,Min,Month,Day,Hour,Minute,Max,Month,Day,Hour,Minute]
1096,11,Cooling:Electricity [J] !RunPeriod [Value,Min,Month,Day,Hour,Minute,Max,Month,Day,Hour,Minute]
562,11,Fans:Electricity [J] !RunPeriod [Value,Min,Month,Day,Hour,Minute,Max,Month,Day,Hour,Minute]
1379,11,Pumps:Electricity [J] !RunPeriod [Value,Min,Month,Day,Hour,Minute,Max,Month,Day,Hour,Minute]
1326,11,WaterSystems:Electricity [J] !RunPeriod [Value,Min,Month,Day,Hour,Minute,Max,Month,Day,Hour,Minute]
61,11,InteriorLights:Electricity [J] !RunPeriod [Value,Min,Month,Day,Hour,Minute,Max,Month,Day,Hour,Minute]
1046,11,ExteriorLights:Electricity [J] !RunPeriod [Value,Min,Month,Day,Hour,Minute,Max,Month,Day,Hour,Minute]
134,11,InteriorEquipment:Electricity [J] !RunPeriod [Value,Min,Month,Day,Hour,Minute,Max,Month,Day,Hour,Minute]
170,11,gas_dryer:InteriorEquipment:Electricity [J] !RunPeriod [Value,Min,Month,Day,Hour,Minute,Max,Month,Day,Hour,Minute]
207,11,clotheswasher:InteriorEquipment:Electricity [J] !RunPeriod [Value,Min,Month,Day,Hour,Minute,Max,Month,Day,Hour,Minute]
244,11,dishwasher:InteriorEquipment:Electricity [J] !RunPeriod [Value,Min,Month,Day,Hour,Minute,Max,Month,Day,Hour,Minute]
281,11,refrigerator:InteriorEquipment:Electricity [J] !RunPeriod [Value,Min,Month,Day,Hour,Minute,Max,Month,Day,Hour,Minute]
318,11,electric_mels:InteriorEquipment:Electricity [J] !RunPeriod [Value,Min,Month,Day,Hour,Minute,Max,Month,Day,Hour,Minute]
355,11,NaturalGas:Facility [J] !RunPeriod [Value,Min,Month,Day,Hour,Minute,Max,Month,Day,Hour,Minute]
403,11,InteriorEquipment:NaturalGas [J] !RunPeriod [Value,Min,Month,Day,Hour,Minute,Max,Month,Day,Hour,Minute]
476,11,gas_dryer:InteriorEquipment:NaturalGas [J] !RunPeriod [Value,Min,Month,Day,Hour,Minute,Max,Month,Day,Hour,Minute]
513,11,gas_mels:InteriorEquipment:NaturalGas [J] !RunPeriod [Value,Min,Month,Day,Hour,Minute,Max,Month,Day,Hour,Minute]
End of Data Dictionary
1,EXTREME_WINTER,  46.77,-100.76,  -6.00, 503.20
5,7
1038,10.25,0.0, 1,29, 1,15,0.25, 1,31, 2,45
1039,0.0,0.0, 1,29, 1,15,0.0, 1,29, 1,15
581,0.4998245420389136,0.24500523897602372, 2, 4,18,22,1.014545206147846, 2, 2,14,52
582,5.422341943069719,0.12180913647561147, 1,29, 4,60,20.62306610669241, 2, 2,14,52
583,0.07140558485902072,0.0010678570294747206, 2, 2,23, 5,0.08630653621421687, 1,31, 2,52
1115,1943352754.7611556,0.0, 2, 1,23, 5,4224472.476114677, 2, 2,14,30
1128,738192434.2712547,0.0, 2, 1,23, 5,1221519.9099000471, 2, 2,14,30
1153,15587192.01151461,0.0, 2, 1,23, 5,78249.5263332788, 2, 4,15,60
1154,3164897.4800185338,0.0, 1,29, 1, 7,124883.61680200565, 2, 4,18,15
1155,2323610513.773804,0.0, 1,29,23, 5,9051701.10493201, 1,31, 2,30
1156,2323610513.773804,0.0, 1,29,23, 5,9051701.10493201, 1,31, 2,30
1292,-25505746.859150633,-42372.96229471825, 1,31, 8,15,-7247.300539627644, 2, 2,12,45
1306,266495477.28651205,0.0, 1,29, 1, 7,8230615.999903588, 2, 2, 6,60
1307,9959242.867650747,0.0, 1,29, 1, 7,4174039.3617926026, 2, 4,19,60
1308,266495477.28651205,0.0, 1,29, 1, 7,8230615.999903588, 2, 2, 6,60
13,3806295227.120876,1177027.8477335023, 2, 4,23,15,18384264.351771906, 1,31, 7,60
61,301924526.02383536,88139.10953165221, 1,29, 1,15,1282023.4113694867, 1,29,20,15
134,70666020.44019976,63564.01800854099, 1,29, 4,15,156554.22484006523, 2, 3,20,15
170,5241013.419656067,348.4159749238097, 1,29, 4,15,17476.39704006126, 2, 3,12,15
207,6509451.13922267,815.2532113832032, 1,29, 3,15,22990.642799023623, 2, 3,10,15
244,12749673.399825225,1521.856143006317, 1,29, 4,15,53038.631142310165, 2, 3,20,15
281,46165882.481495745,59938.60262432081, 1,29, 5,15,81951.81706819107, 1,29,19,15
318,0.0,0.0, 1,29, 1,15,0.0, 1,29, 1,15
355,197687796.27748066,18561.32405820678, 1,29, 4,15,724774.895203776, 2, 3,18,15
403,197687796.27748066,18561.32405820678, 1,29, 4,15,724774.895203776, 2, 3,18,15
476,106772067.24485716,7098.072629279515, 1,29, 4,15,356036.3026282215, 2, 3,12,15
513,0.0,0.0, 1,29, 1,15,0.0, 1,29, 1,15
562,86654165.8337344,37129.147268592, 2, 4,23,15,132439.59036471578, 1,29,23,60
1046,0.0,0.0, 1,29, 1,15,0.0, 1,29, 1,15
1096,0.0,0.0, 1,29, 1,15,0.0, 1,29, 1,15
1134,3080555037.536594,488376.4066722108, 2, 4,23,15,10077939.513181053, 1,31,12,15
1326,266495477.28651208,0.0, 1,29, 1,15,10194432.647701427, 2, 4,19,60
1379,0.0,0.0, 1,29, 1,15,0.0, 1,29, 1,15
1,EXTREME_SUMMER,  46.77,-100.76,  -6.00, 503.20
5,7
1038,0.0,0.0, 7,22, 1,15,0.0, 7,22, 1,15
1039,39.25,0.0, 7,22, 1,15,0.25, 7,22,14,45
581,0.3051701311439727,0.02021021998688091, 7,24,24,52,1.0888534348639196, 7,27,21,60
582,7.449790728961172,0.1910370506066066, 7,24,23,45,43.51708327055224, 7,28,16,60
583,0.03709536706340353,0.0005245082935764015, 7,25, 6,11,0.08989614302487589, 7,27,21,60
1115,0.0,0.0, 7,22, 1, 7,0.0, 7,22, 1, 7
1128,0.0,0.0, 7,22, 1, 7,0.0, 7,22, 1, 7
1153,0.0,0.0, 7,22, 1, 7,0.0, 7,22, 1, 7
1154,0.0,0.0, 7,22, 1, 7,0.0, 7,22, 1, 7
1155,0.0,0.0, 7,22, 1, 7,0.0, 7,22, 1, 7
1156,0.0,0.0, 7,22, 1, 7,0.0, 7,22, 1, 7
1292,-21914669.258877818,-34464.651877103686, 7,25, 6,45,-3770.488397328859, 7,24, 9,59
1306,203776982.6394428,0.0, 7,22, 1, 7,7191343.608115289, 7,26, 6,60
1307,3538286.2259251243,0.0, 7,22, 1, 7,1881625.0839538174, 7,28,19,60
1308,203776982.6394428,0.0, 7,22, 1, 7,7191343.608115289, 7,26, 6,60
13,1046173714.7499268,151703.1275401932, 7,22, 4,15,11715664.532250706, 7,28,19,60
61,301924526.02383536,88139.10953165221, 7,22, 1,15,1282023.4113694867, 7,22,20,15
134,70666020.44019976,63564.01800854099, 7,22, 4,15,156554.22484006523, 7,27,20,15
170,5241013.419656067,348.4159749238097, 7,22, 4,15,17476.39704006126, 7,27,12,15
207,6509451.13922267,815.2532113832032, 7,22, 3,15,22990.642799023623, 7,27,10,15
244,12749673.399825225,1521.856143006317, 7,22, 4,15,53038.631142310165, 7,27,20,15
281,46165882.481495745,59938.60262432081, 7,22, 5,15,81951.81706819107, 7,22,19,15
318,0.0,0.0, 7,22, 1,15,0.0, 7,22, 1,15
355,197687796.27748066,18561.32405820678, 7,22, 4,15,724774.895203776, 7,27,18,15
403,197687796.27748066,18561.32405820678, 7,22, 4,15,724774.895203776, 7,27,18,15
476,106772067.24485716,7098.072629279515, 7,22, 4,15,356036.3026282215, 7,27,12,15
513,0.0,0.0, 7,22, 1,15,0.0, 7,22, 1,15
562,46232393.31094989,0.0, 7,22, 3,60,132439.59036471578, 7,23,20,45
1046,0.0,0.0, 7,22, 1,15,0.0, 7,22, 1,15
1096,423573792.33549935,0.0, 7,22, 3,60,1405421.0917691328, 7,23,15,60
1134,0.0,0.0, 7,22, 1,15,0.0, 7,22, 1,15
1326,203776982.63944274,0.0, 7,22, 1,15,9906160.173463821, 7,28,19,60
1379,0.0,0.0, 7,22, 1,15,0.0, 7,22, 1,15
1,ANNUAL,  46.77,-100.76,  -6.00, 503.20
5,365
1038,30.0,0.0, 1, 1, 1,15,0.25, 1,10, 6,15
1039,254.25,0.0, 1, 1, 1,15,0.25, 4,19,13,45
581,0.32927714754178217,0.0, 7,13,23, 3,1.3705922392115542,10,27, 8,60
582,4.920666254814322,0.0, 1, 6,21,60,43.49913320478524, 7,28,16,60
583,0.03668359749708937,0.0, 7,13,23, 3,0.09600338017778623,10,27, 8,60
1115,43656546673.672714,0.0, 1, 1,23, 5,4529992.715643755, 1,10, 6,60
1128,14839001241.731861,0.0, 1, 1,23, 5,1336387.2220256242,10,27,10,15
1153,483760602.1153364,0.0, 1, 1,23, 5,117333.45646479973, 4,29, 7,15
1154,1363408817.4652233,0.0, 1, 1, 1,15,180000.0, 1,18,15,60
1155,22631513579.04673,0.0, 1, 1, 1, 7,9051701.10493201, 1,21, 6,30
1156,22631513579.04673,0.0, 1, 1, 1, 7,9051701.10493201, 1,21, 6,30
1292,-1252052506.275807,-42836.38035421289, 1,31, 8,15,-2264.9330369070117, 7, 1,19,16
1306,12284967222.19285,0.0, 1, 1, 1, 7,10519633.719149973,10,22,19,60
1307,345052201.80661887,0.0, 1, 1, 1, 7,7718686.986352711, 1,15,19,60
1308,12284967222.19285,0.0, 1, 1, 1, 7,10519633.719149973,10,22,19,60
13,79297122819.72957,151703.1275401932, 5, 5, 4,15,18564351.322786603, 1,24, 8,60
61,15743207428.383959,88139.10953165221, 1, 1, 1,15,1282023.4113694867, 1, 1,20,15
134,3685071073.4325233,63564.01800854099, 1, 2, 4,15,156554.22484006523, 1, 1,20,15
170,273393721.45532674,348.4159749238097, 1, 2, 4,15,17476.39704006126, 1, 1,12,15
207,339560869.0695816,815.2532113832032, 1, 2, 3,15,22990.642799023623, 1, 1,10,15
244,664895467.8009144,1521.856143006317, 1, 2, 4,15,53038.631142310165, 1, 1,20,15
281,2407221015.106824,59938.60262432081, 1, 1, 5,15,81951.81706819107, 1, 1,19,15
318,0.0,0.0, 1, 1, 1,15,0.0, 1, 1, 1,15
355,10310294493.051695,18561.32405820678, 1, 2, 4,15,724774.895203776, 1, 1,18,15
403,10310294493.051695,18561.32405820678, 1, 2, 4,15,724774.895203776, 1, 1,18,15
476,5569688622.066177,7098.072629279515, 1, 2, 4,15,356036.3026282215, 1, 1,12,15
513,0.0,0.0, 1, 1, 1,15,0.0, 1, 1, 1,15
562,2365375778.8617444,0.0, 1,18,15,60,132439.5903647158, 7, 1,19,15
1046,0.0,0.0, 1, 1, 1,15,0.0, 1, 1, 1,15
1096,5900817076.49771,0.0, 1, 1, 1,15,1438616.7984812977, 9, 1,16,60
1134,39317684240.35926,0.0, 3, 2,13,60,10145772.958514133, 1,24,10,30
1326,12284967222.192804,0.0, 1, 1, 1,15,10540800.0, 6,11,19,60
1379,0.0,0.0, 1, 1, 1,15,0.0, 1, 1, 1,15
End of Data
 Number of Records Written=          99
