Program Version,EnergyPlus, Version 22.2.0-c249759bad, YMD=2023.09.01 20:23
1,5,Environment Title[],Latitude[deg],Longitude[deg],Time Zone[],Elevation[m]
2,8,Day of Simulation[],Month[],Day of Month[],DST Indicator[1=yes 0=no],Hour[],StartMinute[],EndMinute[],DayType
3,5,Cumulative Day of Simulation[],Month[],Day of Month[],DST Indicator[1=yes 0=no],DayType  ! When Daily Report Variables Requested
4,2,Cumulative Days of Simulation[],Month[]  ! When Monthly Report Variables Requested
5,1,Cumulative Days of Simulation[] ! When Run Period Report Variables Requested
6,1,Calendar Year of Simulation[] ! When Annual Report Variables Requested
581,11,LIVING,AFN Zone Infiltration Air Change Rate [ach] !RunPeriod [Value,Min,Month,Day,Hour,Minute,Max,Month,Day,Hour,Minute]
582,11,ATTIC,AFN Zone Infiltration Air Change Rate [ach] !RunPeriod [Value,Min,Month,Day,Hour,Minute,Max,Month,Day,Hour,Minute]
583,11,CRAWLSPACE,AFN Zone Infiltration Air Change Rate [ach] !RunPeriod [Value,Min,Month,Day,Hour,Minute,Max,Month,Day,Hour,Minute]
1038,11,Facility,Facility Heating Setpoint Not Met Time [hr] !RunPeriod [Value,Min,Month,Day,Hour,Minute,Max,Month,Day,Hour,Minute]
1039,11,Facility,Facility Cooling Setpoint Not Met Time [hr] !RunPeriod [Value,Min,Month,Day,Hour,Minute,Max,Month,Day,Hour,Minute]
1115,11,DX_HEATING_COIL,Heating Coil Heating Energy [J] !RunPeriod [Value,Min,Month,Day,Hour,Minute,Max,Month,Day,Hour,Minute]
1128,11,DX_HEATING_COIL,Heating Coil Electricity Energy [J] !RunPeriod [Value,Min,Month,Day,Hour,Minute,Max,Month,Day,Hour,Minute]
1153,11,DX_HEATING_COIL,Heating Coil Defrost Electricity Energy [J] !RunPeriod [Value,Min,Month,Day,Hour,Minute,Max,Month,Day,Hour,Minute]
1154,11,DX_HEATING_COIL,Heating Coil Crankcase Heater Electricity Energy [J] !RunPeriod [Value,Min,Month,Day,Hour,Minute,Max,Month,Day,Hour,Minute]
1155,11,HEATING_RESISTANCE_BACKUP,Heating Coil Heating Energy [J] !RunPeriod [Value,Min,Month,Day,Hour,Minute,Max,Month,Day,Hour,Minute]
1156,11,HEATING_RESISTANCE_BACKUP,Heating Coil Electricity Energy [J] !RunPeriod [Value,Min,Month,Day,Hour,Minute,Max,Month,Day,Hour,Minute]
1292,11,WATER HEATER,Water Heater Heat Loss Energy [J] !RunPeriod [Value,Min,Month,Day,Hour,Minute,Max,Month,Day,Hour,Minute]
1306,11,WATER HEATER,Water Heater Heating Energy [J] !RunPeriod [Value,Min,Month,Day,Hour,Minute,Max,Month,Day,Hour,Minute]
1307,11,WATER HEATER,Water Heater Unmet Demand Heat Transfer Energy [J] !RunPeriod [Value,Min,Month,Day,Hour,Minute,Max,Month,Day,Hour,Minute]
1308,11,WATER HEATER,Water Heater Electricity Energy [J] !RunPeriod [Value,Min,Month,Day,Hour,Minute,Max,Month,Day,Hour,Minute]
13,11,Electricity:Facility [J] !RunPeriod [Value,Min,Month,Day,Hour,Minute,Max,Month,Day,Hour,Minute]
1134,11,Heating:Electricity [J] !RunPeriod [Value,Min,Month,Day,Hour,Minute,Max,Month,Day,Hour,Minute]
1096,11,Cooling:Electricity [J] !RunPeriod [Value,Min,Month,Day,Hour,Minute,Max,Month,Day,Hour,Minute]
562,11,Fans:Electricity [J] !RunPeriod [Value,Min,Month,Day,Hour,Minute,Max,Month,Day,Hour,Minute]
1379,11,Pumps:Electricity [J] !RunPeriod [Value,Min,Month,Day,Hour,Minute,Max,Month,Day,Hour,Minute]
1326,11,WaterSystems:Electricity [J] !RunPeriod [Value,Min,Month,Day,Hour,Minute,Max,Month,Day,Hour,Minute]
61,11,InteriorLights:Electricity [J] !RunPeriod [Value,Min,Month,Day,Hour,Minute,Max,Month,Day,Hour,Minute]
1046,11,ExteriorLights:Electricity [J] !RunPeriod [Value,Min,Month,Day,Hour,Minute,Max,Month,Day,Hour,Minute]
134,11,InteriorEquipment:Electricity [J] !RunPeriod [Value,Min,Month,Day,Hour,Minute,Max,Month,Day,Hour,Minute]
170,11,gas_dryer:InteriorEquipment:Electricity [J] !RunPeriod [Value,Min,Month,Day,Hour,Minute,Max,Month,Day,Hour,Minute]
207,11,clotheswasher:InteriorEquipment:Electricity [J] !RunPeriod [Value,Min,Month,Day,Hour,Minute,Max,Month,Day,Hour,Minute]
244,11,dishwasher:InteriorEquipment:Electricity [J] !RunPeriod [Value,Min,Month,Day,Hour,Minute,Max,Month,Day,Hour,Minute]
281,11,refrigerator:InteriorEquipment:Electricity [J] !RunPeriod [Value,Min,Month,Day,Hour,Minute,Max,Month,Day,Hour,Minute]
318,11,electric_mels:InteriorEquipment:Electricity [J] !RunPeriod [Value,Min,Month,Day,Hour,Minute,Max,Month,Day,Hour,Minute]
355,11,NaturalGas:Facility [J] !RunPeriod [Value,Min,Month,Day,Hour,Minute,Max,Month,Day,Hour,Minute]
403,11,InteriorEquipment:NaturalGas [J] !RunPeriod [Value,Min,Month,Day,Hour,Minute,Max,Month,Day,Hour,Minute]
476,11,gas_dryer:InteriorEquipment:NaturalGas [J] !RunPeriod [Value,Min,Month,Day,Hour,Minute,Max,Month,Day,Hour,Minute]
513,11,gas_mels:InteriorEquipment:NaturalGas [J] !RunPeriod [Value,Min,Month,Day,Hour,Minute,Max,Month,Day,Hour,Minute]
End of Data Dictionary
1,EXTREME_WINTER,  36.01, -94.17,  -6.00, 381.00
5,7
1038,0.75,0.0, 1, 8, 1,15,0.25, 1, 8, 6,15
1039,0.0,0.0, 1, 8, 1,15,0.0, 1, 8, 1,15
581,0.3502987276978744,0.17349212727818258, 1,11,23,22,0.7125631683510405, 1, 8,13,37
582,2.3581709986929513,0.0, 1,10, 8,60,9.652683227601166, 1, 8,13,60
583,0.04604870298286116,0.0002962693740155773, 1,11,23,22,0.08462036208780592, 1, 8, 9,50
1115,1552664867.326477,0.0, 1, 8,23, 5,4423520.3156021135, 1, 9, 5,60
1128,529313912.3065166,0.0, 1, 8,23, 5,1415125.7356784502, 1, 9, 6,30
1153,16670746.82063915,0.0, 1, 8,23, 5,131241.3165915521, 1,12, 6,45
1154,49158997.04819802,0.0, 1, 8, 1,30,180000.0, 1, 9,14,60
1155,340789982.2983939,0.0, 1, 8, 1, 7,4453762.859066137, 1, 8, 6,60
1156,340789982.2983939,0.0, 1, 8, 1, 7,4453762.859066137, 1, 8, 6,60
1292,-25340582.118427675,-39727.93776340063, 1,14, 5,30,-4771.1481055109325, 1,14,11,15
1306,179123158.73717892,0.0, 1, 8, 1, 7,4050000.0, 1, 8, 8,45
1307,33497004.1185551,0.0, 1, 8, 1, 7,9067217.64277934, 1,11,10,30
1308,179123158.73717892,0.0, 1, 8, 1, 7,4050000.0, 1, 8, 8,45
13,1544409147.2737966,452017.0388981225, 1, 9,15,15,10092462.139697019, 1, 8, 8,45
61,301924526.02383536,88139.10953165221, 1, 8, 1,15,1282023.4113694867, 1, 8,20,15
134,70666020.44019976,63564.01800854099, 1, 8, 4,15,156554.22484006523, 1,13,20,15
170,5241013.419656067,348.4159749238097, 1, 8, 4,15,17476.39704006126, 1,13,12,15
207,6509451.13922267,815.2532113832032, 1, 8, 3,15,22990.642799023623, 1,13,10,15
244,12749673.399825225,1521.856143006317, 1, 8, 4,15,53038.631142310165, 1,13,20,15
281,46165882.481495745,59938.60262432081, 1, 8, 5,15,81951.81706819107, 1, 8,19,15
318,0.0,0.0, 1, 8, 1,15,0.0, 1, 8, 1,15
355,197687796.27748066,18561.32405820678, 1, 8, 4,15,724774.895203776, 1,13,18,15
403,197687796.27748066,18561.32405820678, 1, 8, 4,15,724774.895203776, 1,13,18,15
476,106772067.24485716,7098.072629279515, 1, 8, 4,15,356036.3026282215, 1,13,12,15
513,0.0,0.0, 1, 8, 1,15,0.0, 1, 8, 1,15
562,56761803.59883901,0.0, 1, 9,14,60,142725.7340669155, 1, 8, 1,30
1046,0.0,0.0, 1, 8, 1,15,0.0, 1, 8, 1,15
1096,0.0,0.0, 1, 8, 1,15,0.0, 1, 8, 1,15
1134,935933638.4737473,179999.99999999997, 1,14,12,60,6001077.9273712635, 1,10, 6,15
1326,179123158.7371789,0.0, 1, 8, 1,15,4050000.0, 1, 8, 8,45
1379,0.0,0.0, 1, 8, 1,15,0.0, 1, 8, 1,15
1,EXTREME_SUMMER,  36.01, -94.17,  -6.00, 381.00
5,7
1038,0.0,0.0, 7,29, 1,15,0.0, 7,29, 1,15
1039,37.0,0.0, 7,29, 1,15,0.25, 7,29,14,30
581,0.11223307761317343,0.0, 7,29,20,47,0.527656058262344, 8, 3,11,50
582,2.709693528714438,0.02351607346514181, 7,31,21,42,9.273883884274678, 8, 3,13,60
583,0.04179528521636655,0.0, 7,30,23, 5,0.07783324835808475, 8, 3,11,50
1115,0.0,0.0, 7,29, 1,15,0.0, 7,29, 1,15
1128,0.0,0.0, 7,29, 1,15,0.0, 7,29, 1,15
1153,0.0,0.0, 7,29, 1,15,0.0, 7,29, 1,15
1154,0.0,0.0, 7,29, 1,15,0.0, 7,29, 1,15
1155,0.0,0.0, 7,29, 1,15,0.0, 7,29, 1,15
1156,0.0,0.0, 7,29, 1,15,0.0, 7,29, 1,15
1292,-21915033.232059855,-34330.85301164081, 8, 1, 6,30,-3339.236709381385, 7,29, 9,60
1306,129453495.66966362,0.0, 7,29, 1,15,2114812.840326458, 8, 2,22,15
1307,14059228.631909292,0.0, 7,29, 1,15,2561074.1680475743, 8, 3,10,30
1308,129453495.66966362,0.0, 7,29, 1,15,2114812.840326458, 8, 2,22,15
13,1136023834.4125323,151703.1275401932, 7,31, 4,30,6783964.242897769, 8, 4,20,60
61,301924526.02383536,88139.10953165221, 7,29, 1,15,1282023.4113694867, 7,29,20,15
134,70666020.44019976,63564.01800854099, 7,29, 4,15,156554.22484006523, 8, 3,20,15
170,5241013.419656067,348.4159749238097, 7,29, 4,15,17476.39704006126, 8, 3,12,15
207,6509451.13922267,815.2532113832032, 7,29, 3,15,22990.642799023623, 8, 3,10,15
244,12749673.399825225,1521.856143006317, 7,29, 4,15,53038.631142310165, 8, 3,20,15
281,46165882.481495745,59938.60262432081, 7,29, 5,15,81951.81706819107, 7,29,19,15
318,0.0,0.0, 7,29, 1,15,0.0, 7,29, 1,15
355,197687796.27748066,18561.32405820678, 7,29, 4,15,724774.895203776, 8, 3,18,15
403,197687796.27748066,18561.32405820678, 7,29, 4,15,724774.895203776, 8, 3,18,15
476,106772067.24485716,7098.072629279515, 7,29, 4,15,356036.3026282215, 8, 3,12,15
513,0.0,0.0, 7,29, 1,15,0.0, 7,29, 1,15
562,55889466.83897155,0.0, 7,31, 4,30,142725.7340669155, 7,29,13,60
1046,0.0,0.0, 7,29, 1,15,0.0, 7,29, 1,15
1096,578090325.4398628,0.0, 7,31, 4,30,1714883.8740991245, 8, 1,13,60
1134,0.0,0.0, 7,29, 1,15,0.0, 7,29, 1,15
1326,129453495.6696636,0.0, 7,29, 1,15,4050000.0, 7,31, 9,45
1379,0.0,0.0, 7,29, 1,15,0.0, 7,29, 1,15
1,ANNUAL,  36.01, -94.17,  -6.00, 381.00
5,365
1038,5.0,0.0, 1, 1, 1,15,0.25, 1, 5, 6,15
1039,411.0,0.0, 1, 1, 1,15,0.25, 1,18,16,30
581,0.21387467104806912,0.0, 4,11, 8,46,0.9659622360901966, 4, 8,11,47
582,2.978755827477822,0.0, 1, 1,23,10,20.943457844075184, 3, 6,12,60
583,0.026226634397990802,0.0, 4,19, 9, 8,0.08527298385133339, 1, 4, 7,52
1115,14915446864.89161,0.0, 1, 1,23, 5,4427414.173334212, 1, 9, 5,60
1128,4764387336.388136,0.0, 1, 1,23, 5,1410513.104108568, 1, 9, 6,30
1153,239128374.16292936,0.0, 1, 1,23, 5,134965.958315597, 2,13, 6,45
1154,1411803029.1075675,0.0, 1, 1, 6, 5,180000.0, 1, 5,15,45
1155,1108816946.8490217,0.0, 1, 1, 1,15,4741117.170491292, 1, 8, 6,15
1156,1108816946.8490217,0.0, 1, 1, 1,15,4741117.170491292, 1, 8, 6,15
1292,-1209296420.4144702,-39764.88344706645, 1, 1, 1,15,-2186.6662116839434, 3, 2,10,31
1306,8112686922.606002,0.0, 1, 1, 1,15,4050000.0, 1, 2, 8,45
1307,1282905586.8107197,0.0, 1, 1, 1,15,9250188.541493129, 2, 4,10,30
1308,8112686922.606002,0.0, 1, 1, 1,15,4050000.0, 1, 2, 8,45
13,47476104379.60147,151703.1275401932, 2, 7, 4,15,9644589.824438864, 1, 8, 9,45
61,15743207428.383959,88139.10953165221, 1, 1, 1,15,1282023.4113694867, 1, 1,20,15
134,3685071073.4325233,63564.01800854099, 1, 2, 4,15,156554.22484006523, 1, 1,20,15
170,273393721.45532674,348.4159749238097, 1, 2, 4,15,17476.39704006126, 1, 1,12,15
207,339560869.0695816,815.2532113832032, 1, 2, 3,15,22990.642799023623, 1, 1,10,15
244,664895467.8009144,1521.856143006317, 1, 2, 4,15,53038.631142310165, 1, 1,20,15
281,2407221015.106824,59938.60262432081, 1, 1, 5,15,81951.81706819107, 1, 1,19,15
318,0.0,0.0, 1, 1, 1,15,0.0, 1, 1, 1,15
355,10310294493.051695,18561.32405820678, 1, 2, 4,15,724774.895203776, 1, 1,18,15
403,10310294493.051695,18561.32405820678, 1, 2, 4,15,724774.895203776, 1, 1,18,15
476,5569688622.066177,7098.072629279515, 1, 2, 4,15,356036.3026282215, 1, 1,12,15
513,0.0,0.0, 1, 1, 1,15,0.0, 1, 1, 1,15
562,1682994071.82264,0.0, 1, 1,23,15,142725.7340669155, 1, 4, 6,30
1046,0.0,0.0, 1, 1, 1,15,0.0, 1, 1, 1,15
1096,10728009196.846605,0.0, 1, 1, 1,15,1719855.9373554443, 8, 5,17,60
1134,7524135686.507622,0.0, 1,16,12,15,6025594.7344931, 1, 8, 8,45
1326,8112686922.606001,0.0, 1, 1, 1,15,4050000.0000000014, 3, 2,10,30
1379,0.0,0.0, 1, 1, 1,15,0.0, 1, 1, 1,15
End of Data
 Number of Records Written=          99
