Program Version,EnergyPlus, Version 22.2.0-c249759bad, YMD=2023.07.07 15:04
1,5,Environment Title[],Latitude[deg],Longitude[deg],Time Zone[],Elevation[m]
2,8,Day of Simulation[],Month[],Day of Month[],DST Indicator[1=yes 0=no],Hour[],StartMinute[],EndMinute[],DayType
3,5,Cumulative Day of Simulation[],Month[],Day of Month[],DST Indicator[1=yes 0=no],DayType  ! When Daily Report Variables Requested
4,2,Cumulative Days of Simulation[],Month[]  ! When Monthly Report Variables Requested
5,1,Cumulative Days of Simulation[] ! When Run Period Report Variables Requested
6,1,Calendar Year of Simulation[] ! When Annual Report Variables Requested
581,11,LIVING,AFN Zone Infiltration Air Change Rate [ach] !RunPeriod [Value,Min,Month,Day,Hour,Minute,Max,Month,Day,Hour,Minute]
582,11,ATTIC,AFN Zone Infiltration Air Change Rate [ach] !RunPeriod [Value,Min,Month,Day,Hour,Minute,Max,Month,Day,Hour,Minute]
583,11,CRAWLSPACE,AFN Zone Infiltration Air Change Rate [ach] !RunPeriod [Value,Min,Month,Day,Hour,Minute,Max,Month,Day,Hour,Minute]
1038,11,Facility,Facility Heating Setpoint Not Met Time [hr] !RunPeriod [Value,Min,Month,Day,Hour,Minute,Max,Month,Day,Hour,Minute]
1039,11,Facility,Facility Cooling Setpoint Not Met Time [hr] !RunPeriod [Value,Min,Month,Day,Hour,Minute,Max,Month,Day,Hour,Minute]
1115,11,DX_HEATING_COIL,Heating Coil Heating Energy [J] !RunPeriod [Value,Min,Month,Day,Hour,Minute,Max,Month,Day,Hour,Minute]
1128,11,DX_HEATING_COIL,Heating Coil Electricity Energy [J] !RunPeriod [Value,Min,Month,Day,Hour,Minute,Max,Month,Day,Hour,Minute]
1153,11,DX_HEATING_COIL,Heating Coil Defrost Electricity Energy [J] !RunPeriod [Value,Min,Month,Day,Hour,Minute,Max,Month,Day,Hour,Minute]
1154,11,DX_HEATING_COIL,Heating Coil Crankcase Heater Electricity Energy [J] !RunPeriod [Value,Min,Month,Day,Hour,Minute,Max,Month,Day,Hour,Minute]
1156,11,HEATING_RESISTANCE_BACKUP,Heating Coil Electricity Energy [J] !RunPeriod [Value,Min,Month,Day,Hour,Minute,Max,Month,Day,Hour,Minute]
13,11,Electricity:Facility [J] !RunPeriod [Value,Min,Month,Day,Hour,Minute,Max,Month,Day,Hour,Minute]
1134,11,Heating:Electricity [J] !RunPeriod [Value,Min,Month,Day,Hour,Minute,Max,Month,Day,Hour,Minute]
1096,11,Cooling:Electricity [J] !RunPeriod [Value,Min,Month,Day,Hour,Minute,Max,Month,Day,Hour,Minute]
562,11,Fans:Electricity [J] !RunPeriod [Value,Min,Month,Day,Hour,Minute,Max,Month,Day,Hour,Minute]
1388,11,Pumps:Electricity [J] !RunPeriod [Value,Min,Month,Day,Hour,Minute,Max,Month,Day,Hour,Minute]
1360,11,WaterSystems:Electricity [J] !RunPeriod [Value,Min,Month,Day,Hour,Minute,Max,Month,Day,Hour,Minute]
61,11,InteriorLights:Electricity [J] !RunPeriod [Value,Min,Month,Day,Hour,Minute,Max,Month,Day,Hour,Minute]
1046,11,ExteriorLights:Electricity [J] !RunPeriod [Value,Min,Month,Day,Hour,Minute,Max,Month,Day,Hour,Minute]
134,11,InteriorEquipment:Electricity [J] !RunPeriod [Value,Min,Month,Day,Hour,Minute,Max,Month,Day,Hour,Minute]
170,11,gas_dryer:InteriorEquipment:Electricity [J] !RunPeriod [Value,Min,Month,Day,Hour,Minute,Max,Month,Day,Hour,Minute]
207,11,clotheswasher:InteriorEquipment:Electricity [J] !RunPeriod [Value,Min,Month,Day,Hour,Minute,Max,Month,Day,Hour,Minute]
244,11,dishwasher:InteriorEquipment:Electricity [J] !RunPeriod [Value,Min,Month,Day,Hour,Minute,Max,Month,Day,Hour,Minute]
281,11,refrigerator:InteriorEquipment:Electricity [J] !RunPeriod [Value,Min,Month,Day,Hour,Minute,Max,Month,Day,Hour,Minute]
318,11,electric_mels:InteriorEquipment:Electricity [J] !RunPeriod [Value,Min,Month,Day,Hour,Minute,Max,Month,Day,Hour,Minute]
355,11,NaturalGas:Facility [J] !RunPeriod [Value,Min,Month,Day,Hour,Minute,Max,Month,Day,Hour,Minute]
1323,11,WaterSystems:NaturalGas [J] !RunPeriod [Value,Min,Month,Day,Hour,Minute,Max,Month,Day,Hour,Minute]
403,11,InteriorEquipment:NaturalGas [J] !RunPeriod [Value,Min,Month,Day,Hour,Minute,Max,Month,Day,Hour,Minute]
476,11,gas_dryer:InteriorEquipment:NaturalGas [J] !RunPeriod [Value,Min,Month,Day,Hour,Minute,Max,Month,Day,Hour,Minute]
513,11,gas_mels:InteriorEquipment:NaturalGas [J] !RunPeriod [Value,Min,Month,Day,Hour,Minute,Max,Month,Day,Hour,Minute]
End of Data Dictionary
1,EXTREME_WINTER,  34.65,-112.42,  -7.00,1539.80
5,7
1038,0.16666666666666666,0.0, 1, 6, 1,10,0.16666666666666666, 1, 7, 6,10
1039,0.0,0.0, 1, 6, 1,10,0.0, 1, 6, 1,10
581,0.25611267261555143,0.18315355223926158, 1, 7, 9,60,0.5334214509088681, 1, 7, 3,60
582,2.398267786197487,0.0, 1, 9,23,55,9.352437471998277, 1, 8,16,52
583,3.048963038736026,0.00020620260946649802, 1,10,22,20,12.151338557878503, 1, 6,11,54
1115,845374569.1999466,0.0, 1, 6, 6, 6,3015566.114058128, 1,12, 8,20
1128,274778791.4267816,0.0, 1, 6, 6, 6,1003759.729888202, 1,12, 8,20
1153,21297644.22004738,0.0, 1, 6, 6, 6,79660.3083104175, 1, 8, 6,30
1154,83969720.51961076,0.0, 1, 6, 6, 3,120000.0, 1, 8,13,20
1156,14418594.762722481,0.0, 1, 6, 1, 2,732203.2097164096, 1, 6, 6, 3
13,809666477.1156118,196047.99638490335, 1,12,14,30,2594354.4547665548, 1,12, 6,10
61,301924526.0238348,58759.40635443481, 1, 6, 1,10,854682.2742463244, 1, 6,20,10
134,70666020.44019979,42376.01200569399, 1, 6, 4,10,104369.48322671017, 1,11,20,10
170,5241013.419656074,232.27731661587313, 1, 6, 4,10,11650.931360040839, 1,11,12,10
207,6509451.13922266,543.5021409221355, 1, 6, 3,10,15327.095199349082, 1,11,10,10
244,12749673.39982522,1014.5707620042115, 1, 6, 4,10,35359.08742820678, 1,11,20,10
281,46165882.48149605,39959.06841621388, 1, 6, 5,10,54634.54471212738, 1, 6,19,10
318,0.0,0.0, 1, 6, 1,10,0.0, 1, 6, 1,10
355,737799640.0903592,12374.216038804521, 1, 6, 4,10,3829218.154066982, 1, 7,18,60
403,197687796.27748126,12374.216038804521, 1, 6, 4,10,483183.26346918393, 1,11,18,10
476,106772067.24485692,4732.048419519677, 1, 6, 4,10,237357.535085481, 1,11,12,10
513,0.0,0.0, 1, 6, 1,10,0.0, 1, 6, 1,10
562,32430454.339530677,0.0, 1, 6,23,10,113291.89817009924, 1, 9, 6,40
1046,0.0,0.0, 1, 6, 1,10,0.0, 1, 6, 1,10
1096,5160885.382886286,0.0, 1, 6, 1,10,161013.7878897004, 1,12,17,30
1134,394464750.9291625,0.0, 1,12,14,30,2062830.6001434457, 1,12, 6,10
1323,540111843.8128743,0.0, 1, 6, 1,10,3375000.0000000005, 1, 6,17,10
1360,5019840.0,4980.0, 1, 6, 1,30,4980.000000000001, 1, 6, 1,10
1388,0.0,0.0, 1, 6, 1,10,0.0, 1, 6, 1,10
1,EXTREME_SUMMER,  34.65,-112.42,  -7.00,1539.80
5,7
1038,0.0,0.0, 7,27, 1,10,0.0, 7,27, 1,10
1039,1.5,0.0, 7,27, 1,10,0.16666666666666666, 8, 1,18,20
581,0.09935246973277925,0.0, 7,27, 6,50,0.5729169110265623, 7,28,21,60
582,2.8017544758567663,0.03008646790238103, 7,27,22,60,13.43100443944659, 8, 2,17,41
583,3.3543303864958047,0.07476555007462139, 7,31, 3,55,17.613312594743277, 8, 2,17,53
1115,0.0,0.0, 7,27, 1,10,0.0, 7,27, 1,10
1128,0.0,0.0, 7,27, 1,10,0.0, 7,27, 1,10
1153,0.0,0.0, 7,27, 1,10,0.0, 7,27, 1,10
1154,0.0,0.0, 7,27, 1,10,0.0, 7,27, 1,10
1156,0.0,0.0, 7,27, 1,10,0.0, 7,27, 1,10
13,948987397.3513299,133249.51929409732, 8, 1, 4,60,2154374.782732499, 8, 1,19,10
61,301924526.0238348,58759.40635443481, 7,27, 1,10,854682.2742463244, 7,27,20,10
134,70666020.44019979,42376.01200569399, 7,27, 4,10,104369.48322671017, 8, 1,20,10
170,5241013.419656074,232.27731661587313, 7,27, 4,10,11650.931360040839, 8, 1,12,10
207,6509451.13922266,543.5021409221355, 7,27, 3,10,15327.095199349082, 8, 1,10,10
244,12749673.39982522,1014.5707620042115, 7,27, 4,10,35359.08742820678, 8, 1,20,10
281,46165882.48149605,39959.06841621388, 7,27, 5,10,54634.54471212738, 7,27,19,10
318,0.0,0.0, 7,27, 1,10,0.0, 7,27, 1,10
355,632580886.0114441,12374.216038804521, 7,27, 4,10,3829218.154066982, 7,28,18,60
403,197687796.27748126,12374.216038804521, 7,27, 4,10,483183.26346918393, 8, 1,18,10
476,106772067.24485692,4732.048419519677, 7,27, 4,10,237357.535085481, 8, 1,12,10
513,0.0,0.0, 7,27, 1,10,0.0, 7,27, 1,10
562,54566627.200484715,0.0, 7,31, 6,20,113291.89817009924, 7,30,16,60
1046,0.0,0.0, 7,27, 1,10,0.0, 7,27, 1,10
1096,516810383.6868092,0.0, 7,31, 6,20,1218986.1537831705, 8, 1,17,10
1134,0.0,0.0, 7,27, 1,10,0.0, 7,27, 1,10
1323,434893089.73396057,0.0, 7,27, 1,10,3375000.0000000005, 7,29,16,40
1360,5019840.0,4980.0, 7,27, 1,10,4980.000000000002, 8, 2, 5,40
1388,0.0,0.0, 7,27, 1,10,0.0, 7,27, 1,10
1,ANNUAL,  34.65,-112.42,  -7.00,1539.80
5,365
1038,1.1666666666666665,0.0, 1, 1, 1,10,0.16666666666666666, 1, 7, 6,10
1039,47.16666666666668,0.0, 1, 1, 1,10,0.16666666666666666, 1,13,14,60
581,0.2009549081844107,0.0, 6, 4, 8,41,1.3802913110143071,12,27, 2,60
582,3.124985649404477,0.0, 1, 1, 9,53,32.05115428350608,12,27, 2,60
583,3.8546394550798797,0.0, 8, 5,23, 2,41.04356387270725,12,27, 2,60
1115,8935326064.47259,0.0, 1, 1, 1, 2,3467727.5077836257,12,27, 2,60
1128,2860125903.4632874,0.0, 1, 1, 1, 2,1036341.0749704759, 1,26, 6,30
1153,123903072.88364406,0.0, 1, 1, 1, 2,121168.9819559666,12,27, 2,40
1154,1923951488.700974,0.0, 1, 1, 6, 3,120000.0, 1, 1,14,10
1156,93874659.46996984,0.0, 1, 1, 1, 2,881343.3445539953,12,28, 6,15
13,37173009284.40389,106115.4183601288, 3,21, 4,10,2953648.7469037664,12,28, 6,10
61,15743207428.39043,58759.40635443481, 1, 1, 1,10,854682.2742463244, 1, 1,20,10
134,3685071073.433083,42376.01200569399, 1, 2, 4,10,104369.48322671017, 1, 1,20,10
170,273393721.45534325,232.27731661587313, 1, 2, 4,10,11650.931360040839, 1, 1,12,10
207,339560869.06955314,543.5021409221355, 1, 2, 3,10,15327.095199349082, 1, 1,10,10
244,664895467.8009839,1014.5707620042115, 1, 2, 4,10,35359.08742820678, 1, 1,20,10
281,2407221015.1057043,39959.06841621388, 1, 1, 5,10,54634.54471212738, 1, 1,19,10
318,0.0,0.0, 1, 1, 1,10,0.0, 1, 1, 1,10
355,35687834184.748085,12374.216038804521, 1, 2, 4,10,3829218.1540669827, 5, 5,18,30
403,10310294493.052883,12374.216038804521, 1, 2, 4,10,483183.26346918393, 1, 1,18,10
476,5569688622.065564,4732.048419519677, 1, 2, 4,10,237357.535085481, 1, 1,12,10
513,0.0,0.0, 1, 1, 1,10,0.0, 1, 1, 1,10
562,1613397110.062221,0.0, 1, 1, 1,10,113291.89817009924, 1, 9, 6,40
1046,0.0,0.0, 1, 1, 1,10,0.0, 1, 1, 1,10
1096,10867729748.006582,0.0, 1, 1, 1,10,1274204.2545609102, 7, 5,17,60
1134,5001855124.51791,0.0, 1, 1,15,60,2422797.525723014,12,28, 6,10
1323,25377539691.699028,0.0, 1, 1, 1,10,3375000.0000000023,12,26,20,30
1360,261748800.0,4979.999999999998, 2,23,10,30,4980.000000000002, 1, 9,17,20
1388,0.0,0.0, 1, 1, 1,10,0.0, 1, 1, 1,10
End of Data
 Number of Records Written=          87
