Program Version,EnergyPlus, Version 22.2.0-c249759bad, YMD=2023.09.01 20:19
1,5,Environment Title[],Latitude[deg],Longitude[deg],Time Zone[],Elevation[m]
2,8,Day of Simulation[],Month[],Day of Month[],DST Indicator[1=yes 0=no],Hour[],StartMinute[],EndMinute[],DayType
3,5,Cumulative Day of Simulation[],Month[],Day of Month[],DST Indicator[1=yes 0=no],DayType  ! When Daily Report Variables Requested
4,2,Cumulative Days of Simulation[],Month[]  ! When Monthly Report Variables Requested
5,1,Cumulative Days of Simulation[] ! When Run Period Report Variables Requested
6,1,Calendar Year of Simulation[] ! When Annual Report Variables Requested
581,11,LIVING,AFN Zone Infiltration Air Change Rate [ach] !RunPeriod [Value,Min,Month,Day,Hour,Minute,Max,Month,Day,Hour,Minute]
582,11,ATTIC,AFN Zone Infiltration Air Change Rate [ach] !RunPeriod [Value,Min,Month,Day,Hour,Minute,Max,Month,Day,Hour,Minute]
583,11,CRAWLSPACE,AFN Zone Infiltration Air Change Rate [ach] !RunPeriod [Value,Min,Month,Day,Hour,Minute,Max,Month,Day,Hour,Minute]
1038,11,Facility,Facility Heating Setpoint Not Met Time [hr] !RunPeriod [Value,Min,Month,Day,Hour,Minute,Max,Month,Day,Hour,Minute]
1039,11,Facility,Facility Cooling Setpoint Not Met Time [hr] !RunPeriod [Value,Min,Month,Day,Hour,Minute,Max,Month,Day,Hour,Minute]
1115,11,DX_HEATING_COIL,Heating Coil Heating Energy [J] !RunPeriod [Value,Min,Month,Day,Hour,Minute,Max,Month,Day,Hour,Minute]
1128,11,DX_HEATING_COIL,Heating Coil Electricity Energy [J] !RunPeriod [Value,Min,Month,Day,Hour,Minute,Max,Month,Day,Hour,Minute]
1153,11,DX_HEATING_COIL,Heating Coil Defrost Electricity Energy [J] !RunPeriod [Value,Min,Month,Day,Hour,Minute,Max,Month,Day,Hour,Minute]
1154,11,DX_HEATING_COIL,Heating Coil Crankcase Heater Electricity Energy [J] !RunPeriod [Value,Min,Month,Day,Hour,Minute,Max,Month,Day,Hour,Minute]
1155,11,HEATING_RESISTANCE_BACKUP,Heating Coil Heating Energy [J] !RunPeriod [Value,Min,Month,Day,Hour,Minute,Max,Month,Day,Hour,Minute]
1156,11,HEATING_RESISTANCE_BACKUP,Heating Coil Electricity Energy [J] !RunPeriod [Value,Min,Month,Day,Hour,Minute,Max,Month,Day,Hour,Minute]
1292,11,WATER HEATER,Water Heater Heat Loss Energy [J] !RunPeriod [Value,Min,Month,Day,Hour,Minute,Max,Month,Day,Hour,Minute]
1306,11,WATER HEATER,Water Heater Heating Energy [J] !RunPeriod [Value,Min,Month,Day,Hour,Minute,Max,Month,Day,Hour,Minute]
1307,11,WATER HEATER,Water Heater Unmet Demand Heat Transfer Energy [J] !RunPeriod [Value,Min,Month,Day,Hour,Minute,Max,Month,Day,Hour,Minute]
1308,11,WATER HEATER,Water Heater Electricity Energy [J] !RunPeriod [Value,Min,Month,Day,Hour,Minute,Max,Month,Day,Hour,Minute]
13,11,Electricity:Facility [J] !RunPeriod [Value,Min,Month,Day,Hour,Minute,Max,Month,Day,Hour,Minute]
1134,11,Heating:Electricity [J] !RunPeriod [Value,Min,Month,Day,Hour,Minute,Max,Month,Day,Hour,Minute]
1096,11,Cooling:Electricity [J] !RunPeriod [Value,Min,Month,Day,Hour,Minute,Max,Month,Day,Hour,Minute]
562,11,Fans:Electricity [J] !RunPeriod [Value,Min,Month,Day,Hour,Minute,Max,Month,Day,Hour,Minute]
1379,11,Pumps:Electricity [J] !RunPeriod [Value,Min,Month,Day,Hour,Minute,Max,Month,Day,Hour,Minute]
1326,11,WaterSystems:Electricity [J] !RunPeriod [Value,Min,Month,Day,Hour,Minute,Max,Month,Day,Hour,Minute]
61,11,InteriorLights:Electricity [J] !RunPeriod [Value,Min,Month,Day,Hour,Minute,Max,Month,Day,Hour,Minute]
1046,11,ExteriorLights:Electricity [J] !RunPeriod [Value,Min,Month,Day,Hour,Minute,Max,Month,Day,Hour,Minute]
134,11,InteriorEquipment:Electricity [J] !RunPeriod [Value,Min,Month,Day,Hour,Minute,Max,Month,Day,Hour,Minute]
170,11,gas_dryer:InteriorEquipment:Electricity [J] !RunPeriod [Value,Min,Month,Day,Hour,Minute,Max,Month,Day,Hour,Minute]
207,11,clotheswasher:InteriorEquipment:Electricity [J] !RunPeriod [Value,Min,Month,Day,Hour,Minute,Max,Month,Day,Hour,Minute]
244,11,dishwasher:InteriorEquipment:Electricity [J] !RunPeriod [Value,Min,Month,Day,Hour,Minute,Max,Month,Day,Hour,Minute]
281,11,refrigerator:InteriorEquipment:Electricity [J] !RunPeriod [Value,Min,Month,Day,Hour,Minute,Max,Month,Day,Hour,Minute]
318,11,electric_mels:InteriorEquipment:Electricity [J] !RunPeriod [Value,Min,Month,Day,Hour,Minute,Max,Month,Day,Hour,Minute]
355,11,NaturalGas:Facility [J] !RunPeriod [Value,Min,Month,Day,Hour,Minute,Max,Month,Day,Hour,Minute]
403,11,InteriorEquipment:NaturalGas [J] !RunPeriod [Value,Min,Month,Day,Hour,Minute,Max,Month,Day,Hour,Minute]
476,11,gas_dryer:InteriorEquipment:NaturalGas [J] !RunPeriod [Value,Min,Month,Day,Hour,Minute,Max,Month,Day,Hour,Minute]
513,11,gas_mels:InteriorEquipment:NaturalGas [J] !RunPeriod [Value,Min,Month,Day,Hour,Minute,Max,Month,Day,Hour,Minute]
End of Data Dictionary
1,EXTREME_WINTER,  35.62,-106.09,  -7.00,1935.00
5,15
1038,0.25,0.0,12,22, 1,15,0.25, 1, 2, 6,15
1039,0.0,0.0,12,22, 1,15,0.0,12,22, 1,15
581,0.40674875454995263,0.18357939127998618, 1, 3,20,60,1.6027634216677864,12,26,23,60
582,4.704652749313429,0.0,12,22, 8,52,24.47503622747284,12,26,23,60
583,0.05130152136688619,0.00030532347573216203, 1, 3,19,35,0.12226391666688229,12,26,23,60
1115,3541886811.683305,0.0,12,22,23, 3,5118376.310047723,12,27,11,45
1128,1187857363.6997073,0.0,12,22,23, 3,1620530.8672431654,12,27,11,45
1153,49441642.39090399,0.0,12,22,23, 3,129987.05539778528,12,23, 6,45
1154,116252034.20479897,0.0,12,22, 6, 5,180000.0,12,23,17,45
1155,399919849.79241914,0.0,12,22, 1,15,3607633.0969920023, 1, 2, 6,45
1156,399919849.79241914,0.0,12,22, 1,15,3607633.0969920023, 1, 2, 6,45
1292,-54282260.44504597,-39757.25868582042,12,25, 4,30,-5402.450579329727,12,31,12,14
1306,283273606.11221546,0.0,12,22, 1,15,4050000.0,12,22, 7,15
1307,54981819.888583966,0.0,12,22, 1,15,7353729.625111342, 1, 5, 6,60
1308,283273606.11221546,0.0,12,22, 1,15,4050000.0,12,22, 7,15
13,2966147886.237343,279566.45160502766,12,25,14,60,7999963.896447763,12,31, 8,60
61,646981127.1939323,88139.10953165221,12,22, 1,15,1282023.4113694867,12,22,20,15
134,151290040.75163814,63564.01800854099,12,22, 4,15,156554.22484006523,12,27,20,15
170,11185820.069951689,348.4159749238097,12,22, 4,15,17476.39704006126,12,27,12,15
207,13893028.5742839,815.2532113832032,12,22, 3,15,22990.642799023623,12,27,10,15
244,27284301.07562584,1521.856143006317,12,22, 4,15,53038.631142310165,12,27,20,15
281,98926891.03177746,59938.60262432081,12,22, 5,15,81951.81706819107,12,22,19,15
318,0.0,0.0,12,22, 1,15,0.0,12,22, 1,15
355,422701517.16107386,18561.32405820678,12,22, 4,15,724774.895203776,12,27,18,15
403,422701517.16107386,18561.32405820678,12,22, 4,15,724774.895203776,12,27,18,15
476,227882097.80545202,7098.072629279515,12,22, 4,15,356036.3026282215,12,27,12,15
513,0.0,0.0,12,22, 1,15,0.0,12,22, 1,15
562,131132222.0917304,0.0,12,23,17,45,166301.9802696991,12,26, 4,60
1046,0.0,0.0,12,22, 1,15,0.0,12,22, 1,15
1096,0.0,0.0,12,22, 1,15,0.0,12,22, 1,15
1134,1753470890.0878327,0.0,12,25,14,60,5673827.7001414895, 1, 2, 6,15
1326,283273606.11221534,0.0,12,22, 1,15,4050000.0,12,22, 7,15
1379,0.0,0.0,12,22, 1,15,0.0,12,22, 1,15
1,EXTREME_SUMMER,  35.62,-106.09,  -7.00,1935.00
5,7
1038,0.0,0.0, 7,13, 1,15,0.0, 7,13, 1,15
1039,0.5,0.0, 7,13, 1,15,0.25, 7,19,18,15
581,0.16796571740215427,0.0, 7,13,23, 3,0.6794048080856394, 7,14,19,52
582,3.6772482195018745,0.11024554849422115, 7,14, 8,29,14.79765189950164, 7,14,19,48
583,0.035722493023524156,0.0003050340516621312, 7,15,23, 3,0.08290008222008513, 7,18,18,33
1115,0.0,0.0, 7,13, 1, 7,0.0, 7,13, 1, 7
1128,0.0,0.0, 7,13, 1, 7,0.0, 7,13, 1, 7
1153,0.0,0.0, 7,13, 1, 7,0.0, 7,13, 1, 7
1154,0.0,0.0, 7,13, 1, 7,0.0, 7,13, 1, 7
1155,0.0,0.0, 7,13, 1, 7,0.0, 7,13, 1, 7
1156,0.0,0.0, 7,13, 1, 7,0.0, 7,13, 1, 7
1292,-22132904.67040941,-34371.21399518633, 7,18, 6,45,-2323.9264782570162, 7,15,17,44
1306,100279131.11161315,0.0, 7,13, 1, 7,2274580.2651619078, 7,13, 6,15
1307,12977133.336766332,0.0, 7,13, 1, 7,1825199.815318335, 7,13, 6,55
1308,100279131.11161315,0.0, 7,13, 1, 7,2274580.2651619078, 7,13, 6,15
13,975393020.869526,151703.1275401932, 7,13, 4,15,5720625.828910897, 7,19,15,60
61,301924526.02383536,88139.10953165221, 7,13, 1,15,1282023.4113694867, 7,13,20,15
134,70666020.44019976,63564.01800854099, 7,13, 4,15,156554.22484006523, 7,18,20,15
170,5241013.419656067,348.4159749238097, 7,13, 4,15,17476.39704006126, 7,18,12,15
207,6509451.13922267,815.2532113832032, 7,13, 3,15,22990.642799023623, 7,18,10,15
244,12749673.399825225,1521.856143006317, 7,13, 4,15,53038.631142310165, 7,18,20,15
281,46165882.481495745,59938.60262432081, 7,13, 5,15,81951.81706819107, 7,13,19,15
318,0.0,0.0, 7,13, 1,15,0.0, 7,13, 1,15
355,197687796.27748066,18561.32405820678, 7,13, 4,15,724774.895203776, 7,18,18,15
403,197687796.27748066,18561.32405820678, 7,13, 4,15,724774.895203776, 7,18,18,15
476,106772067.24485716,7098.072629279515, 7,13, 4,15,356036.3026282215, 7,18,12,15
513,0.0,0.0, 7,13, 1,15,0.0, 7,13, 1,15
562,47250924.599900454,0.0, 7,13, 3,15,166301.9802696991, 7,19,17,15
1046,0.0,0.0, 7,13, 1,15,0.0, 7,13, 1,15
1096,455272418.69397706,0.0, 7,13, 3,15,1855748.9360210164, 7,19,16,45
1134,0.0,0.0, 7,13, 1,15,0.0, 7,13, 1,15
1326,100279131.11161315,0.0, 7,13, 1,15,4050000.0, 7,13, 7,15
1379,0.0,0.0, 7,13, 1,15,0.0, 7,13, 1,15
1,ANNUAL,  35.62,-106.09,  -7.00,1935.00
5,365
1038,1.0,0.0, 1, 1, 1,15,0.25, 1,11, 6,15
1039,29.0,0.0, 1, 1, 1,15,0.25, 4,26,12,15
581,0.2748697055790123,0.0, 7,13,23, 3,1.6028392633460735,12,26,23,60
582,4.386310215336683,0.0, 1, 2,19,30,25.776323211269986, 5,17,23,60
583,0.02616394688370775,0.0, 8, 3,23, 3,0.12177066264147726,12,26,23,60
1115,20545089162.08054,0.0, 1, 1,23, 3,5159815.040519739, 2, 9, 7,15
1128,6764648088.036867,0.0, 1, 1,23, 3,1621987.155178385, 2, 9, 7,15
1153,215004230.83278954,0.0, 1, 1,23, 3,156354.41597772538, 2,21, 6,60
1154,2019355851.1010356,0.0, 1, 1, 4,30,180000.0, 1, 2,14,30
1155,1352381211.4781263,0.0, 1, 1, 1,15,4859730.091101898, 1,11, 6,45
1156,1352381211.4781263,0.0, 1, 1, 1,15,4859730.091101898, 1,11, 6,45
1292,-1223818621.4318357,-39800.95162850938,12, 4, 2,30,-2184.725741857635, 7,20,15,60
1306,6006428620.995919,0.0, 1, 1, 1,15,4050000.0, 1, 2, 7,15
1307,1003832733.2800974,0.0, 1, 1, 1,15,7648593.426956816, 2, 6, 6,60
1308,6006428620.995919,0.0, 1, 1, 1,15,4050000.0, 1, 2, 7,15
13,44734212683.37417,151703.1275401932, 4, 6, 4,15,10886950.495816747, 1,11, 8,60
61,15743207428.383959,88139.10953165221, 1, 1, 1,15,1282023.4113694867, 1, 1,20,15
134,3685071073.4325233,63564.01800854099, 1, 2, 4,15,156554.22484006523, 1, 1,20,15
170,273393721.45532674,348.4159749238097, 1, 2, 4,15,17476.39704006126, 1, 1,12,15
207,339560869.0695816,815.2532113832032, 1, 2, 3,15,22990.642799023623, 1, 1,10,15
244,664895467.8009144,1521.856143006317, 1, 2, 4,15,53038.631142310165, 1, 1,20,15
281,2407221015.106824,59938.60262432081, 1, 1, 5,15,81951.81706819107, 1, 1,19,15
318,0.0,0.0, 1, 1, 1,15,0.0, 1, 1, 1,15
355,10310294493.051695,18561.32405820678, 1, 2, 4,15,724774.895203776, 1, 1,18,15
403,10310294493.051695,18561.32405820678, 1, 2, 4,15,724774.895203776, 1, 1,18,15
476,5569688622.066177,7098.072629279515, 1, 2, 4,15,356036.3026282215, 1, 1,12,15
513,0.0,0.0, 1, 1, 1,15,0.0, 1, 1, 1,15
562,1626247441.1614482,0.0, 1, 2,14,30,166301.9802696991, 1, 1, 4,45
1046,0.0,0.0, 1, 1, 1,15,0.0, 1, 1, 1,15
1096,7321868737.948923,0.0, 1, 1, 1,15,1875357.0751222293, 6, 5,16,60
1134,10351389381.448837,0.0, 1,23,15,60,6586074.675033794, 1,11, 6,15
1326,6006428620.995924,0.0, 1, 1, 1,15,4050000.0, 1, 2, 7,15
1379,0.0,0.0, 1, 1, 1,15,0.0, 1, 1, 1,15
End of Data
 Number of Records Written=          99
