Program Version,EnergyPlus, Version 22.2.0-c249759bad, YMD=2023.09.01 20:28
1,5,Environment Title[],Latitude[deg],Longitude[deg],Time Zone[],Elevation[m]
2,8,Day of Simulation[],Month[],Day of Month[],DST Indicator[1=yes 0=no],Hour[],StartMinute[],EndMinute[],DayType
3,5,Cumulative Day of Simulation[],Month[],Day of Month[],DST Indicator[1=yes 0=no],DayType  ! When Daily Report Variables Requested
4,2,Cumulative Days of Simulation[],Month[]  ! When Monthly Report Variables Requested
5,1,Cumulative Days of Simulation[] ! When Run Period Report Variables Requested
6,1,Calendar Year of Simulation[] ! When Annual Report Variables Requested
581,11,LIVING,AFN Zone Infiltration Air Change Rate [ach] !RunPeriod [Value,Min,Month,Day,Hour,Minute,Max,Month,Day,Hour,Minute]
582,11,ATTIC,AFN Zone Infiltration Air Change Rate [ach] !RunPeriod [Value,Min,Month,Day,Hour,Minute,Max,Month,Day,Hour,Minute]
583,11,CRAWLSPACE,AFN Zone Infiltration Air Change Rate [ach] !RunPeriod [Value,Min,Month,Day,Hour,Minute,Max,Month,Day,Hour,Minute]
1038,11,Facility,Facility Heating Setpoint Not Met Time [hr] !RunPeriod [Value,Min,Month,Day,Hour,Minute,Max,Month,Day,Hour,Minute]
1039,11,Facility,Facility Cooling Setpoint Not Met Time [hr] !RunPeriod [Value,Min,Month,Day,Hour,Minute,Max,Month,Day,Hour,Minute]
1115,11,DX_HEATING_COIL,Heating Coil Heating Energy [J] !RunPeriod [Value,Min,Month,Day,Hour,Minute,Max,Month,Day,Hour,Minute]
1128,11,DX_HEATING_COIL,Heating Coil Electricity Energy [J] !RunPeriod [Value,Min,Month,Day,Hour,Minute,Max,Month,Day,Hour,Minute]
1153,11,DX_HEATING_COIL,Heating Coil Defrost Electricity Energy [J] !RunPeriod [Value,Min,Month,Day,Hour,Minute,Max,Month,Day,Hour,Minute]
1154,11,DX_HEATING_COIL,Heating Coil Crankcase Heater Electricity Energy [J] !RunPeriod [Value,Min,Month,Day,Hour,Minute,Max,Month,Day,Hour,Minute]
1155,11,HEATING_RESISTANCE_BACKUP,Heating Coil Heating Energy [J] !RunPeriod [Value,Min,Month,Day,Hour,Minute,Max,Month,Day,Hour,Minute]
1156,11,HEATING_RESISTANCE_BACKUP,Heating Coil Electricity Energy [J] !RunPeriod [Value,Min,Month,Day,Hour,Minute,Max,Month,Day,Hour,Minute]
1292,11,WATER HEATER,Water Heater Heat Loss Energy [J] !RunPeriod [Value,Min,Month,Day,Hour,Minute,Max,Month,Day,Hour,Minute]
1306,11,WATER HEATER,Water Heater Heating Energy [J] !RunPeriod [Value,Min,Month,Day,Hour,Minute,Max,Month,Day,Hour,Minute]
1307,11,WATER HEATER,Water Heater Unmet Demand Heat Transfer Energy [J] !RunPeriod [Value,Min,Month,Day,Hour,Minute,Max,Month,Day,Hour,Minute]
1308,11,WATER HEATER,Water Heater Electricity Energy [J] !RunPeriod [Value,Min,Month,Day,Hour,Minute,Max,Month,Day,Hour,Minute]
13,11,Electricity:Facility [J] !RunPeriod [Value,Min,Month,Day,Hour,Minute,Max,Month,Day,Hour,Minute]
1134,11,Heating:Electricity [J] !RunPeriod [Value,Min,Month,Day,Hour,Minute,Max,Month,Day,Hour,Minute]
1096,11,Cooling:Electricity [J] !RunPeriod [Value,Min,Month,Day,Hour,Minute,Max,Month,Day,Hour,Minute]
562,11,Fans:Electricity [J] !RunPeriod [Value,Min,Month,Day,Hour,Minute,Max,Month,Day,Hour,Minute]
1379,11,Pumps:Electricity [J] !RunPeriod [Value,Min,Month,Day,Hour,Minute,Max,Month,Day,Hour,Minute]
1326,11,WaterSystems:Electricity [J] !RunPeriod [Value,Min,Month,Day,Hour,Minute,Max,Month,Day,Hour,Minute]
61,11,InteriorLights:Electricity [J] !RunPeriod [Value,Min,Month,Day,Hour,Minute,Max,Month,Day,Hour,Minute]
1046,11,ExteriorLights:Electricity [J] !RunPeriod [Value,Min,Month,Day,Hour,Minute,Max,Month,Day,Hour,Minute]
134,11,InteriorEquipment:Electricity [J] !RunPeriod [Value,Min,Month,Day,Hour,Minute,Max,Month,Day,Hour,Minute]
170,11,gas_dryer:InteriorEquipment:Electricity [J] !RunPeriod [Value,Min,Month,Day,Hour,Minute,Max,Month,Day,Hour,Minute]
207,11,clotheswasher:InteriorEquipment:Electricity [J] !RunPeriod [Value,Min,Month,Day,Hour,Minute,Max,Month,Day,Hour,Minute]
244,11,dishwasher:InteriorEquipment:Electricity [J] !RunPeriod [Value,Min,Month,Day,Hour,Minute,Max,Month,Day,Hour,Minute]
281,11,refrigerator:InteriorEquipment:Electricity [J] !RunPeriod [Value,Min,Month,Day,Hour,Minute,Max,Month,Day,Hour,Minute]
318,11,electric_mels:InteriorEquipment:Electricity [J] !RunPeriod [Value,Min,Month,Day,Hour,Minute,Max,Month,Day,Hour,Minute]
355,11,NaturalGas:Facility [J] !RunPeriod [Value,Min,Month,Day,Hour,Minute,Max,Month,Day,Hour,Minute]
403,11,InteriorEquipment:NaturalGas [J] !RunPeriod [Value,Min,Month,Day,Hour,Minute,Max,Month,Day,Hour,Minute]
476,11,gas_dryer:InteriorEquipment:NaturalGas [J] !RunPeriod [Value,Min,Month,Day,Hour,Minute,Max,Month,Day,Hour,Minute]
513,11,gas_mels:InteriorEquipment:NaturalGas [J] !RunPeriod [Value,Min,Month,Day,Hour,Minute,Max,Month,Day,Hour,Minute]
End of Data Dictionary
1,EXTREME_WINTER,  40.70, -74.17,  -5.00,   9.00
5,7
1038,0.75,0.0, 1,27, 1,15,0.25, 1,29, 6,15
1039,0.0,0.0, 1,27, 1,15,0.0, 1,27, 1,15
581,0.4430451341047622,0.22151218493763772, 1,27,21,60,0.9072295710867165, 1,28,21,52
582,6.604533305841086,0.0, 1,28, 4,60,20.666790134210327, 1,28,18,52
583,0.05163773088503859,0.00034341488442536807, 2, 2,16, 5,0.08074367334178213, 1,28,21,48
1115,1737617862.3083258,0.0, 1,27,11,25,4069172.2735672602, 1,27, 6,60
1128,574745079.9870532,0.0, 1,27,11,25,1267138.8450125358, 1,27, 6,45
1153,10303147.966398545,0.0, 1,27,11,25,78765.4885231118, 2, 2, 6,60
1154,34399945.68549197,0.0, 1,27, 6, 5,180000.0, 1,27,12,30
1155,562753669.2455202,0.0, 1,27, 1,15,4504389.054998053, 1,31, 6,45
1156,562753669.2455202,0.0, 1,27, 1,15,4504389.054998053, 1,31, 6,45
1292,-25403185.525648832,-39763.774586720734, 1,27, 1,15,-3985.4502414556437, 1,31,15,59
1306,186525743.0930878,0.0, 1,27, 1,15,4050000.0, 1,27, 8,45
1307,37120915.71460869,0.0, 1,27, 1,15,9711574.965098104, 2, 1,10,30
1308,186525743.0930878,0.0, 1,27, 1,15,4050000.0, 1,27, 8,45
13,1803069443.7486305,452017.0388981225, 1,27,15,45,9581980.5613911, 1,31, 8,30
61,301924526.02383536,88139.10953165221, 1,27, 1,15,1282023.4113694867, 1,27,20,15
134,70666020.44019976,63564.01800854099, 1,27, 4,15,156554.22484006523, 2, 1,20,15
170,5241013.419656067,348.4159749238097, 1,27, 4,15,17476.39704006126, 2, 1,12,15
207,6509451.13922267,815.2532113832032, 1,27, 3,15,22990.642799023623, 2, 1,10,15
244,12749673.399825225,1521.856143006317, 1,27, 4,15,53038.631142310165, 2, 1,20,15
281,46165882.481495745,59938.60262432081, 1,27, 5,15,81951.81706819107, 1,27,19,15
318,0.0,0.0, 1,27, 1,15,0.0, 1,27, 1,15
355,197687796.27748066,18561.32405820678, 1,27, 4,15,724774.895203776, 2, 1,18,15
403,197687796.27748066,18561.32405820678, 1,27, 4,15,724774.895203776, 2, 1,18,15
476,106772067.24485716,7098.072629279515, 1,27, 4,15,356036.3026282215, 2, 1,12,15
513,0.0,0.0, 1,27, 1,15,0.0, 1,27, 1,15
562,61751311.30704365,0.0, 1,27,11,45,128554.47360364163, 1,27, 6,45
1046,0.0,0.0, 1,27, 1,15,0.0, 1,27, 1,15
1096,0.0,0.0, 1,27, 1,15,0.0, 1,27, 1,15
1134,1182201842.8844628,179999.99999999997, 2, 2,17,30,6323953.963097678, 1,31, 6,15
1326,186525743.09308785,0.0, 1,27, 1,15,4050000.0, 1,27, 8,45
1379,0.0,0.0, 1,27, 1,15,0.0, 1,27, 1,15
1,EXTREME_SUMMER,  40.70, -74.17,  -5.00,   9.00
5,7
1038,0.0,0.0, 7,27, 1,15,0.0, 7,27, 1,15
1039,51.5,0.0, 7,27, 1,15,0.25, 7,27,15,45
581,0.14923316873930212,0.0, 7,28, 7,33,0.48981495483802495, 7,30,14,52
582,4.0495582445043325,0.1011112735187163, 7,28, 8,18,18.25193870858771, 7,30,16,48
583,0.042096261190441485,0.0007757988507077233, 7,28,23, 3,0.06972206886711442, 7,30,14,52
1115,0.0,0.0, 7,27, 1,15,0.0, 7,27, 1,15
1128,0.0,0.0, 7,27, 1,15,0.0, 7,27, 1,15
1153,0.0,0.0, 7,27, 1,15,0.0, 7,27, 1,15
1154,0.0,0.0, 7,27, 1,15,0.0, 7,27, 1,15
1155,0.0,0.0, 7,27, 1,15,0.0, 7,27, 1,15
1156,0.0,0.0, 7,27, 1,15,0.0, 7,27, 1,15
1292,-21792257.26482691,-34342.731730527754, 7,30,18,45,-3796.3256036376238, 8, 1,10,29
1306,133393079.86867724,0.0, 7,27, 1,15,2582335.5272866036, 7,30,19,30
1307,16049753.439998582,0.0, 7,27, 1,15,1823961.5223973868, 7,30,10,20
1308,133393079.86867724,0.0, 7,27, 1,15,2582335.5272866036, 7,30,19,30
13,1110696924.7682614,247825.0337512518, 7,31, 4,60,6711251.672076865, 8, 2,20,60
61,301924526.02383536,88139.10953165221, 7,27, 1,15,1282023.4113694867, 7,27,20,15
134,70666020.44019976,63564.01800854099, 7,27, 4,15,156554.22484006523, 8, 1,20,15
170,5241013.419656067,348.4159749238097, 7,27, 4,15,17476.39704006126, 8, 1,12,15
207,6509451.13922267,815.2532113832032, 7,27, 3,15,22990.642799023623, 8, 1,10,15
244,12749673.399825225,1521.856143006317, 7,27, 4,15,53038.631142310165, 8, 1,20,15
281,46165882.481495745,59938.60262432081, 7,27, 5,15,81951.81706819107, 7,27,19,15
318,0.0,0.0, 7,27, 1,15,0.0, 7,27, 1,15
355,197687796.27748066,18561.32405820678, 7,27, 4,15,724774.895203776, 8, 1,18,15
403,197687796.27748066,18561.32405820678, 7,27, 4,15,724774.895203776, 8, 1,18,15
476,106772067.24485716,7098.072629279515, 7,27, 4,15,356036.3026282215, 8, 1,12,15
513,0.0,0.0, 7,27, 1,15,0.0, 7,27, 1,15
562,56796419.98319903,9956.12118475616, 7,31, 4,60,128554.47360364164, 7,31,17,45
1046,0.0,0.0, 7,27, 1,15,0.0, 7,27, 1,15
1096,547916878.4523526,85001.50566089821, 7,31, 5,45,1400270.5336383646, 8, 1,15,60
1134,0.0,0.0, 7,27, 1,15,0.0, 7,27, 1,15
1326,133393079.86867723,0.0, 7,27, 1,15,4050000.0, 7,29, 9,45
1379,0.0,0.0, 7,27, 1,15,0.0, 7,27, 1,15
1,ANNUAL,  40.70, -74.17,  -5.00,   9.00
5,365
1038,12.25,0.0, 1, 1, 1,15,0.25, 1, 3, 6,15
1039,477.0,0.0, 1, 1, 1,15,0.25, 5, 1,10,60
581,0.2755190446466138,0.0, 6, 9,23, 3,1.2501501910950494, 8,19,19,48
582,5.103104285572175,0.0, 1,14, 6,60,39.33337189544024, 8,28,16,60
583,0.027436574474712427,0.00002210525856663239,10, 9,23, 3,0.09028653142875549, 8,19,19,48
1115,22744282054.118614,0.0, 1, 1,23, 7,4426610.256061427, 3, 1, 6,45
1128,7050767694.607948,0.0, 1, 1,23, 7,1294756.9773178843, 3, 1, 7,30
1153,119859594.66918106,0.0, 1, 1,15,22,122710.32830403549,12,19, 6,45
1154,1427710948.827173,0.0, 1, 1, 6, 5,180000.0, 1, 6,15,30
1155,2795221693.862894,0.0, 1, 1, 1,15,4685262.33148423, 1,30, 6,45
1156,2795221693.862894,0.0, 1, 1, 1,15,4685262.33148423, 1,30, 6,45
1292,-1223885610.6007602,-39888.308373821535,11,12, 5,45,-2319.1385911767247,10, 7,10,31
1306,8369540697.697533,0.0, 1, 1, 1,15,4050000.0, 1, 2, 8,45
1307,1386887141.1935697,0.0, 1, 1, 1,15,9715016.31702805, 2, 2,10,30
1308,8369540697.697533,0.0, 1, 1, 1,15,4050000.0, 1, 2, 8,45
13,49700259992.163605,151703.1275401932, 3, 6, 4,15,9846183.646123651, 1,30, 8,45
61,15743207428.383959,88139.10953165221, 1, 1, 1,15,1282023.4113694867, 1, 1,20,15
134,3685071073.4325233,63564.01800854099, 1, 2, 4,15,156554.22484006523, 1, 1,20,15
170,273393721.45532674,348.4159749238097, 1, 2, 4,15,17476.39704006126, 1, 1,12,15
207,339560869.0695816,815.2532113832032, 1, 2, 3,15,22990.642799023623, 1, 1,10,15
244,664895467.8009144,1521.856143006317, 1, 2, 4,15,53038.631142310165, 1, 1,20,15
281,2407221015.106824,59938.60262432081, 1, 1, 5,15,81951.81706819107, 1, 1,19,15
318,0.0,0.0, 1, 1, 1,15,0.0, 1, 1, 1,15
355,10310294493.051695,18561.32405820678, 1, 2, 4,15,724774.895203776, 1, 1,18,15
403,10310294493.051695,18561.32405820678, 1, 2, 4,15,724774.895203776, 1, 1,18,15
476,5569688622.066177,7098.072629279515, 1, 2, 4,15,356036.3026282215, 1, 1,12,15
513,0.0,0.0, 1, 1, 1,15,0.0, 1, 1, 1,15
562,1733047508.4129176,0.0, 1, 1,23,15,128554.47360364164, 5,30,16,45
1046,0.0,0.0, 1, 1, 1,15,0.0, 1, 1, 1,15
1096,8775833352.267511,0.0, 1, 1, 1,15,1437211.2057161476, 7,19,15,60
1134,11393559931.967289,0.0, 1,16,15,30,6315618.705954299, 1,31, 6,15
1326,8369540697.697548,0.0, 1, 1, 1,15,4050000.0000000014,10, 7,10,45
1379,0.0,0.0, 1, 1, 1,15,0.0, 1, 1, 1,15
End of Data
 Number of Records Written=          99
