Program Version,EnergyPlus, Version 22.2.0-c249759bad, YMD=2023.08.02 11:38
1,5,Environment Title[],Latitude[deg],Longitude[deg],Time Zone[],Elevation[m]
2,8,Day of Simulation[],Month[],Day of Month[],DST Indicator[1=yes 0=no],Hour[],StartMinute[],EndMinute[],DayType
3,5,Cumulative Day of Simulation[],Month[],Day of Month[],DST Indicator[1=yes 0=no],DayType  ! When Daily Report Variables Requested
4,2,Cumulative Days of Simulation[],Month[]  ! When Monthly Report Variables Requested
5,1,Cumulative Days of Simulation[] ! When Run Period Report Variables Requested
6,1,Calendar Year of Simulation[] ! When Annual Report Variables Requested
581,11,LIVING,AFN Zone Infiltration Air Change Rate [ach] !RunPeriod [Value,Min,Month,Day,Hour,Minute,Max,Month,Day,Hour,Minute]
582,11,ATTIC,AFN Zone Infiltration Air Change Rate [ach] !RunPeriod [Value,Min,Month,Day,Hour,Minute,Max,Month,Day,Hour,Minute]
583,11,CRAWLSPACE,AFN Zone Infiltration Air Change Rate [ach] !RunPeriod [Value,Min,Month,Day,Hour,Minute,Max,Month,Day,Hour,Minute]
1038,11,Facility,Facility Heating Setpoint Not Met Time [hr] !RunPeriod [Value,Min,Month,Day,Hour,Minute,Max,Month,Day,Hour,Minute]
1039,11,Facility,Facility Cooling Setpoint Not Met Time [hr] !RunPeriod [Value,Min,Month,Day,Hour,Minute,Max,Month,Day,Hour,Minute]
1115,11,DX_HEATING_COIL,Heating Coil Heating Energy [J] !RunPeriod [Value,Min,Month,Day,Hour,Minute,Max,Month,Day,Hour,Minute]
1128,11,DX_HEATING_COIL,Heating Coil Electricity Energy [J] !RunPeriod [Value,Min,Month,Day,Hour,Minute,Max,Month,Day,Hour,Minute]
1153,11,DX_HEATING_COIL,Heating Coil Defrost Electricity Energy [J] !RunPeriod [Value,Min,Month,Day,Hour,Minute,Max,Month,Day,Hour,Minute]
1154,11,DX_HEATING_COIL,Heating Coil Crankcase Heater Electricity Energy [J] !RunPeriod [Value,Min,Month,Day,Hour,Minute,Max,Month,Day,Hour,Minute]
1155,11,HEATING_RESISTANCE_BACKUP,Heating Coil Heating Energy [J] !RunPeriod [Value,Min,Month,Day,Hour,Minute,Max,Month,Day,Hour,Minute]
1156,11,HEATING_RESISTANCE_BACKUP,Heating Coil Electricity Energy [J] !RunPeriod [Value,Min,Month,Day,Hour,Minute,Max,Month,Day,Hour,Minute]
13,11,Electricity:Facility [J] !RunPeriod [Value,Min,Month,Day,Hour,Minute,Max,Month,Day,Hour,Minute]
1134,11,Heating:Electricity [J] !RunPeriod [Value,Min,Month,Day,Hour,Minute,Max,Month,Day,Hour,Minute]
1096,11,Cooling:Electricity [J] !RunPeriod [Value,Min,Month,Day,Hour,Minute,Max,Month,Day,Hour,Minute]
562,11,Fans:Electricity [J] !RunPeriod [Value,Min,Month,Day,Hour,Minute,Max,Month,Day,Hour,Minute]
1352,11,Pumps:Electricity [J] !RunPeriod [Value,Min,Month,Day,Hour,Minute,Max,Month,Day,Hour,Minute]
1323,11,WaterSystems:Electricity [J] !RunPeriod [Value,Min,Month,Day,Hour,Minute,Max,Month,Day,Hour,Minute]
61,11,InteriorLights:Electricity [J] !RunPeriod [Value,Min,Month,Day,Hour,Minute,Max,Month,Day,Hour,Minute]
1046,11,ExteriorLights:Electricity [J] !RunPeriod [Value,Min,Month,Day,Hour,Minute,Max,Month,Day,Hour,Minute]
134,11,InteriorEquipment:Electricity [J] !RunPeriod [Value,Min,Month,Day,Hour,Minute,Max,Month,Day,Hour,Minute]
170,11,gas_dryer:InteriorEquipment:Electricity [J] !RunPeriod [Value,Min,Month,Day,Hour,Minute,Max,Month,Day,Hour,Minute]
207,11,clotheswasher:InteriorEquipment:Electricity [J] !RunPeriod [Value,Min,Month,Day,Hour,Minute,Max,Month,Day,Hour,Minute]
244,11,dishwasher:InteriorEquipment:Electricity [J] !RunPeriod [Value,Min,Month,Day,Hour,Minute,Max,Month,Day,Hour,Minute]
281,11,refrigerator:InteriorEquipment:Electricity [J] !RunPeriod [Value,Min,Month,Day,Hour,Minute,Max,Month,Day,Hour,Minute]
318,11,electric_mels:InteriorEquipment:Electricity [J] !RunPeriod [Value,Min,Month,Day,Hour,Minute,Max,Month,Day,Hour,Minute]
355,11,NaturalGas:Facility [J] !RunPeriod [Value,Min,Month,Day,Hour,Minute,Max,Month,Day,Hour,Minute]
403,11,InteriorEquipment:NaturalGas [J] !RunPeriod [Value,Min,Month,Day,Hour,Minute,Max,Month,Day,Hour,Minute]
476,11,gas_dryer:InteriorEquipment:NaturalGas [J] !RunPeriod [Value,Min,Month,Day,Hour,Minute,Max,Month,Day,Hour,Minute]
513,11,gas_mels:InteriorEquipment:NaturalGas [J] !RunPeriod [Value,Min,Month,Day,Hour,Minute,Max,Month,Day,Hour,Minute]
End of Data Dictionary
1,EXTREME_WINTER,  39.10, -84.42,  -5.00, 149.40
5,7
1038,0.6666666666666666,0.0, 1,15, 1,10,0.16666666666666666, 1,16, 6,10
1039,0.0,0.0, 1,15, 1,10,0.0, 1,15, 1,10
581,0.2778866829303903,0.18171287418134133, 1,17, 4,60,0.4328402849191722, 1,17,24,20
582,3.0534318447749125,0.0, 1,15,20,60,12.350647281328527, 1,17,24,60
583,3.5358842089219515,0.00019923786860634243, 1,16,19,60,11.201943691783438, 1,17,24,20
1115,1413863945.4985828,0.0, 1,15,15,35,2773270.3113208083, 1,19, 6,20
1128,478715377.20843655,0.0, 1,15,15,35,848030.6969904494, 1,19, 6,20
1153,8051187.348867589,0.0, 1,15,15,35,46142.688184892824, 1,17, 6,30
1154,49688890.74475223,0.0, 1,15, 4,43,120000.0, 1,15,16,10
1155,434236416.7108076,0.0, 1,15, 1,10,3444813.98059038, 1,20, 6,30
1156,434236416.7108076,0.0, 1,15, 1,10,3444813.98059038, 1,20, 6,30
13,1818518205.9593167,306324.6925987483, 1,15,15,40,7083634.609857287, 1,20, 8,50
61,301924526.0238348,58759.40635443481, 1,15, 1,10,854682.2742463244, 1,15,20,10
134,70666020.44019979,42376.01200569399, 1,15, 4,10,104369.48322671017, 1,20,20,10
170,5241013.419656074,232.27731661587313, 1,15, 4,10,11650.931360040839, 1,20,12,10
207,6509451.13922266,543.5021409221355, 1,15, 3,10,15327.095199349082, 1,20,10,10
244,12749673.39982522,1014.5707620042115, 1,15, 4,10,35359.08742820678, 1,20,20,10
281,46165882.48149605,39959.06841621388, 1,15, 5,10,54634.54471212738, 1,15,19,10
318,0.0,0.0, 1,15, 1,10,0.0, 1,15, 1,10
355,197687796.27748126,12374.216038804521, 1,15, 4,10,483183.26346918393, 1,20,18,10
403,197687796.27748126,12374.216038804521, 1,15, 4,10,483183.26346918393, 1,20,18,10
476,106772067.24485692,4732.048419519677, 1,15, 4,10,237357.535085481, 1,20,12,10
513,0.0,0.0, 1,15, 1,10,0.0, 1,15, 1,10
562,53761239.96443484,0.0, 1,15,15,40,90655.4315963848, 1,20, 9,40
1046,0.0,0.0, 1,15, 1,10,0.0, 1,15, 1,10
1096,0.0,0.0, 1,15, 1,10,0.0, 1,15, 1,10
1134,970691872.0128639,120000.0, 1,15,15,40,4216765.841859425, 1,21, 6,10
1323,421474547.51798415,4980.0, 1,15, 1,10,2704980.000000001, 1,20,21,40
1352,0.0,0.0, 1,15, 1,10,0.0, 1,15, 1,10
1,EXTREME_SUMMER,  39.10, -84.42,  -5.00, 149.40
5,7
1038,0.0,0.0, 7,15, 1,10,0.0, 7,15, 1,10
1039,37.833333333333336,0.0, 7,15, 1,10,0.16666666666666666, 7,15,13,60
581,0.03881800328484314,0.0, 7,15, 1,10,0.4032176062863207, 7,20,16,52
582,1.6602999974388897,0.0, 7,16,21,22,8.700311914232264, 7,20,16,52
583,1.8019575495808888,0.0, 7,15, 6, 7,10.175743634797307, 7,20,16,52
1115,0.0,0.0, 7,15, 1,10,0.0, 7,15, 1,10
1128,0.0,0.0, 7,15, 1,10,0.0, 7,15, 1,10
1153,0.0,0.0, 7,15, 1,10,0.0, 7,15, 1,10
1154,0.0,0.0, 7,15, 1,10,0.0, 7,15, 1,10
1155,0.0,0.0, 7,15, 1,10,0.0, 7,15, 1,10
1156,0.0,0.0, 7,15, 1,10,0.0, 7,15, 1,10
13,1257305135.8486161,140400.16446198223, 7,19, 4,60,4594224.016529837, 7,19,20,10
61,301924526.0238348,58759.40635443481, 7,15, 1,10,854682.2742463244, 7,15,20,10
134,70666020.44019979,42376.01200569399, 7,15, 4,10,104369.48322671017, 7,20,20,10
170,5241013.419656074,232.27731661587313, 7,15, 4,10,11650.931360040839, 7,20,12,10
207,6509451.13922266,543.5021409221355, 7,15, 3,10,15327.095199349082, 7,20,10,10
244,12749673.39982522,1014.5707620042115, 7,15, 4,10,35359.08742820678, 7,20,20,10
281,46165882.48149605,39959.06841621388, 7,15, 5,10,54634.54471212738, 7,15,19,10
318,0.0,0.0, 7,15, 1,10,0.0, 7,15, 1,10
355,197687796.27748126,12374.216038804521, 7,15, 4,10,483183.26346918393, 7,20,18,10
403,197687796.27748126,12374.216038804521, 7,15, 4,10,483183.26346918393, 7,20,18,10
476,106772067.24485692,4732.048419519677, 7,15, 4,10,237357.535085481, 7,20,12,10
513,0.0,0.0, 7,15, 1,10,0.0, 7,15, 1,10
562,54883305.086049356,0.0, 7,19, 6,20,90655.4315963848, 7,16,18,60
1046,0.0,0.0, 7,15, 1,10,0.0, 7,15, 1,10
1096,514852730.14237815,0.0, 7,19, 6,20,960969.0946016705, 7,16,15,60
1134,0.0,0.0, 7,15, 1,10,0.0, 7,15, 1,10
1323,314978554.1561529,4979.999999999998, 7,18,16,60,2704980.0000000005, 7,15, 9,60
1352,0.0,0.0, 7,15, 1,10,0.0, 7,15, 1,10
1,ANNUAL,  39.10, -84.42,  -5.00, 149.40
5,365
1038,7.8333333333333375,0.0, 1, 1, 1,10,0.16666666666666666, 1, 2, 6,10
1039,568.1666666666664,0.0, 1, 1, 1,10,0.16666666666666666, 3, 9,13,30
581,0.18878284580383245,0.0, 5, 7, 8,51,1.242383095811247, 2,18,22,55
582,3.060628264565838,0.0, 1, 4, 3,50,28.070021383903306, 1,29,21,60
583,3.550869125312269,0.0, 4,21, 9,60,33.74906461144946, 4,29,17,52
1115,20417091221.732426,0.0, 1, 1,23, 2,3247943.091745856, 1,22, 4,60
1128,6378599316.900657,0.0, 1, 1,23, 2,878487.2640715673, 1,22, 4,50
1153,224545867.3028585,0.0, 1, 1,23, 2,76756.6100331015, 2,14, 8,20
1154,1542943399.6296136,0.0, 1, 1, 1, 1,120000.0, 1, 4,15,10
1155,2978832649.6037807,0.0, 1, 1, 1,42,3444813.98059038, 1,20, 6,30
1156,2978832649.6037807,0.0, 1, 1, 1,42,3444813.98059038, 1,20, 6,30
13,61647371866.79405,106115.4183601288, 3, 6, 4,10,7066032.840704221, 1,20, 8,40
61,15743207428.39043,58759.40635443481, 1, 1, 1,10,854682.2742463244, 1, 1,20,10
134,3685071073.433083,42376.01200569399, 1, 2, 4,10,104369.48322671017, 1, 1,20,10
170,273393721.45534325,232.27731661587313, 1, 2, 4,10,11650.931360040839, 1, 1,12,10
207,339560869.06955314,543.5021409221355, 1, 2, 3,10,15327.095199349082, 1, 1,10,10
244,664895467.8009839,1014.5707620042115, 1, 2, 4,10,35359.08742820678, 1, 1,20,10
281,2407221015.1057043,39959.06841621388, 1, 1, 5,10,54634.54471212738, 1, 1,19,10
318,0.0,0.0, 1, 1, 1,10,0.0, 1, 1, 1,10
355,10310294493.052883,12374.216038804521, 1, 2, 4,10,483183.26346918393, 1, 1,18,10
403,10310294493.052883,12374.216038804521, 1, 2, 4,10,483183.26346918393, 1, 1,18,10
476,5569688622.065564,4732.048419519677, 1, 2, 4,10,237357.535085481, 1, 1,12,10
513,0.0,0.0, 1, 1, 1,10,0.0, 1, 1, 1,10
562,1853468981.0512538,0.0, 1, 4,14,50,90655.4315963848, 1,20, 9,40
1046,0.0,0.0, 1, 1, 1,10,0.0, 1, 1, 1,10
1096,10034296626.735643,0.0, 1, 1, 1,10,998076.525282661, 8, 9,14,60
1134,11124921233.4369,0.0, 1, 6,17,10,4227666.340441787, 1, 2, 6,20
1323,19206406523.752106,4979.999999999998, 4,16,12,40,2704980.000000002, 5,16, 9,60
1352,0.0,0.0, 1, 1, 1,10,0.0, 1, 1, 1,10
End of Data
 Number of Records Written=          87
