Program Version,EnergyPlus, Version 22.2.0-c249759bad, YMD=2023.09.01 14:30
1,5,Environment Title[],Latitude[deg],Longitude[deg],Time Zone[],Elevation[m]
2,8,Day of Simulation[],Month[],Day of Month[],DST Indicator[1=yes 0=no],Hour[],StartMinute[],EndMinute[],DayType
3,5,Cumulative Day of Simulation[],Month[],Day of Month[],DST Indicator[1=yes 0=no],DayType  ! When Daily Report Variables Requested
4,2,Cumulative Days of Simulation[],Month[]  ! When Monthly Report Variables Requested
5,1,Cumulative Days of Simulation[] ! When Run Period Report Variables Requested
6,1,Calendar Year of Simulation[] ! When Annual Report Variables Requested
7,1,Environment,Site Outdoor Air Drybulb Temperature [C] !Hourly
619,1,DX_HEATING_COIL,Heating Coil Heating Rate [W] !Hourly
633,1,DX_HEATING_COIL,Heating Coil Electricity Rate [W] !Hourly
659,1,DX_HEATING_COIL,Heating Coil Defrost Electricity Rate [W] !Hourly
661,1,DX_HEATING_COIL,Heating Coil Crankcase Heater Electricity Rate [W] !Hourly
690,1,FAN,Fan Electricity Rate [W] !Hourly
716,1,HEAT PUMP WATER HEATER FAN,Fan Electricity Rate [W] !Hourly
718,1,LIVING,Zone Mean Air Temperature [C] !Hourly
719,1,ATTIC,Zone Mean Air Temperature [C] !Hourly
720,1,CRAWLSPACE,Zone Mean Air Temperature [C] !Hourly
843,1,LIVING,Zone Predicted Sensible Load to Heating Setpoint Heat Transfer Rate [W] !Hourly
844,1,LIVING,Zone System Predicted Sensible Load to Heating Setpoint Heat Transfer Rate [W] !Hourly
907,1,ATTIC,Zone Predicted Sensible Load to Heating Setpoint Heat Transfer Rate [W] !Hourly
908,1,ATTIC,Zone System Predicted Sensible Load to Heating Setpoint Heat Transfer Rate [W] !Hourly
971,1,CRAWLSPACE,Zone Predicted Sensible Load to Heating Setpoint Heat Transfer Rate [W] !Hourly
972,1,CRAWLSPACE,Zone System Predicted Sensible Load to Heating Setpoint Heat Transfer Rate [W] !Hourly
1195,1,HEATING_RESISTANCE_BACKUP,Heating Coil Heating Rate [W] !Hourly
1197,1,HEATING_RESISTANCE_BACKUP,Heating Coil Electricity Rate [W] !Hourly
End of Data Dictionary
1,EXTREME_WINTER,  26.59, -81.86,  -5.00,   4.60
2,1, 1,20, 0, 1, 0.00,60.00,Monday
7,8.9
718,22.22723388018361
719,10.081097326315536
720,20.657539932443544
619,0.0
633,0.0
659,0.0
661,200.0
690,0.0
716,0.0
843,-1733.5851034317157
844,-1733.5851034317157
907,0.0
908,0.0
971,0.0
972,0.0
1195,0.0
1197,0.0
2,1, 1,20, 0, 2, 0.00,60.00,Monday
7,8.3
718,21.699690882382132
719,8.67002438254236
720,20.526202199375962
619,0.0
633,0.0
659,0.0
661,200.0
690,0.0
716,0.0
843,-2347.4454987484733
844,-2347.4454987484733
907,0.0
908,0.0
971,0.0
972,0.0
1195,0.0
1197,0.0
2,1, 1,20, 0, 3, 0.00,60.00,Monday
7,7.2
718,21.274580361028523
719,6.46613979974908
720,20.431602732622135
619,0.0
633,0.0
659,0.0
661,200.0
690,0.0
716,0.0
843,-1932.3124500195136
844,-1932.3124500195136
907,0.0
908,0.0
971,0.0
972,0.0
1195,0.0
1197,0.0
2,1, 1,20, 0, 4, 0.00,60.00,Monday
7,6.1
718,20.68052558539616
719,4.518750350415383
720,20.328318524741775
619,0.0
633,0.0
659,0.0
661,200.0
690,0.0
716,0.0
843,-1401.043036358069
844,-1401.043036358069
907,0.0
908,0.0
971,0.0
972,0.0
1195,0.0
1197,0.0
2,1, 1,20, 0, 5, 0.00,60.00,Monday
7,6.1
718,20.320199171066555
719,3.074236954684271
720,20.2247271323897
619,0.0
633,0.0
659,0.0
661,200.0
690,0.0
716,0.0
843,-1163.1542081157968
844,-1163.1542081157968
907,0.0
908,0.0
971,0.0
972,0.0
1195,0.0
1197,0.0
2,1, 1,20, 0, 6, 0.00,60.00,Monday
7,6.1
718,20.109991227032072
719,2.1588848794046114
720,20.119207281877127
619,0.0
633,0.0
659,0.0
661,200.0
690,0.0
716,0.0
843,-240.44754372708667
844,-240.44754372708667
907,0.0
908,0.0
971,0.0
972,0.0
1195,0.0
1197,0.0
2,1, 1,20, 0, 7, 0.00,60.00,Monday
7,6.1
718,18.769104775862452
719,1.521191776196768
720,20.012870461555735
619,0.0
633,0.0
659,0.0
661,200.0
690,0.0
716,85.44000000000007
843,-94.66147261156402
844,-94.66147261156402
907,0.0
908,0.0
971,0.0
972,0.0
1195,0.0
1197,0.0
2,1, 1,20, 0, 8, 0.00,60.00,Monday
7,6.7
718,19.62454584000203
719,1.7893057886910915
720,19.89244324665931
619,495.49332185935816
633,135.29129051989648
659,0.0
661,182.33777187448445
690,12.301096276414205
716,12.525094536114752
843,231.81480450324307
844,231.81480450324307
907,0.0
908,0.0
971,0.0
972,0.0
1195,0.0
1197,0.0
2,1, 1,20, 0, 9, 0.00,60.00,Monday
7,11.7
718,20.64993029398889
719,6.293769888309002
720,19.80879308019949
619,0.0
633,0.0
659,0.0
661,0.0
690,0.0
716,0.0
843,-306.66943357535456
844,-306.66943357535456
907,0.0
908,0.0
971,0.0
972,0.0
1195,0.0
1197,0.0
2,1, 1,20, 0,10, 0.00,60.00,Monday
7,15.6
718,21.08729986127529
719,13.175584681717
720,19.722007975020645
619,0.0
633,0.0
659,0.0
661,0.0
690,0.0
716,0.0
843,-1077.1869134613535
844,-1077.1869134613535
907,0.0
908,0.0
971,0.0
972,0.0
1195,0.0
1197,0.0
2,1, 1,20, 0,11, 0.00,60.00,Monday
7,15.6
718,21.33509718319707
719,16.43903882876752
720,19.664883863761187
619,0.0
633,0.0
659,0.0
661,0.0
690,0.0
716,0.0
843,-1208.3480128814354
844,-1208.3480128814354
907,0.0
908,0.0
971,0.0
972,0.0
1195,0.0
1197,0.0
2,1, 1,20, 0,12, 0.00,60.00,Monday
7,15.6
718,21.32003296986492
719,17.22266653287697
720,19.627697129909084
619,0.0
633,0.0
659,0.0
661,0.0
690,0.0
716,0.0
843,-1089.10078572145
844,-1089.10078572145
907,0.0
908,0.0
971,0.0
972,0.0
1195,0.0
1197,0.0
2,1, 1,20, 0,13, 0.00,60.00,Monday
7,17.8
718,21.985083215046128
719,19.78481999597779
720,19.60578109749569
619,0.0
633,0.0
659,0.0
661,0.0
690,0.0
716,0.0
843,-1390.344440275965
844,-1390.344440275965
907,0.0
908,0.0
971,0.0
972,0.0
1195,0.0
1197,0.0
2,1, 1,20, 0,14, 0.00,60.00,Monday
7,18.9
718,21.6840022001715
719,21.875141892005193
720,19.598444809459778
619,0.0
633,0.0
659,0.0
661,0.0
690,0.0
716,56.352447421555915
843,-1918.7553067525314
844,-1918.7553067525314
907,0.0
908,0.0
971,0.0
972,0.0
1195,0.0
1197,0.0
2,1, 1,20, 0,15, 0.00,60.00,Monday
7,17.8
718,22.65512474213694
719,21.941834401671784
720,19.608165635147657
619,0.0
633,0.0
659,0.0
661,0.0
690,0.0
716,0.0
843,-2194.4150575011863
844,-2194.4150575011863
907,0.0
908,0.0
971,0.0
972,0.0
1195,0.0
1197,0.0
2,1, 1,20, 0,16, 0.00,60.00,Monday
7,17.8
718,23.342345608393877
719,21.93626487990513
720,19.632093833724728
619,0.0
633,0.0
659,0.0
661,0.0
690,0.0
716,0.0
843,-1864.0479383461616
844,-1864.0479383461616
907,0.0
908,0.0
971,0.0
972,0.0
1195,0.0
1197,0.0
2,1, 1,20, 0,17, 0.00,60.00,Monday
7,17.2
718,23.325320515128883
719,21.176711783853026
720,19.695540779662654
619,0.0
633,0.0
659,0.0
661,0.0
690,21.056736224901556
716,0.0
843,-2800.157747113348
844,-2800.157747113348
907,0.0
908,0.0
971,0.0
972,0.0
1195,0.0
1197,0.0
2,1, 1,20, 0,18, 0.00,60.00,Monday
7,16.1
718,23.283859282725473
719,19.81837099813466
720,19.753863487212094
619,0.0
633,0.0
659,0.0
661,0.0
690,36.229967718713034
716,0.0
843,-4099.036660764785
844,-4099.036660764785
907,0.0
908,0.0
971,0.0
972,0.0
1195,0.0
1197,0.0
2,1, 1,20, 0,19, 0.00,60.00,Monday
7,15.6
718,23.375652110431837
719,17.853620192530116
720,19.754854837543267
619,0.0
633,0.0
659,0.0
661,0.0
690,3.4068165239237804
716,60.531148022372456
843,-4152.299704468098
844,-4152.299704468098
907,0.0
908,0.0
971,0.0
972,0.0
1195,0.0
1197,0.0
2,1, 1,20, 0,20, 0.00,60.00,Monday
7,15.6
718,23.383399971733358
719,16.53693822653775
720,19.830247305069967
619,0.0
633,0.0
659,0.0
661,0.0
690,29.250857848662847
716,0.0
843,-3903.938478711436
844,-3903.938478711436
907,0.0
908,0.0
971,0.0
972,0.0
1195,0.0
1197,0.0
2,1, 1,20, 0,21, 0.00,60.00,Monday
7,15.6
718,23.345392258540638
719,15.503865016506392
720,19.84959539142035
619,0.0
633,0.0
659,0.0
661,0.0
690,28.108177576770988
716,0.0
843,-3871.467679480469
844,-3871.467679480469
907,0.0
908,0.0
971,0.0
972,0.0
1195,0.0
1197,0.0
2,1, 1,20, 0,22, 0.00,60.00,Monday
7,13.3
718,22.94706054304754
719,13.664707175612504
720,19.821893143746266
619,0.0
633,0.0
659,0.0
661,0.0
690,0.0
716,70.0379238605907
843,-3546.684733255999
844,-3546.684733255999
907,0.0
908,0.0
971,0.0
972,0.0
1195,0.0
1197,0.0
2,1, 1,20, 0,23, 0.00,60.00,Monday
7,13.9
718,23.556668061520032
719,12.681201402353071
720,19.822107848811655
619,0.0
633,0.0
659,0.0
661,0.0
690,0.0
716,0.0
843,-4096.833953352854
844,-4096.833953352854
907,0.0
908,0.0
971,0.0
972,0.0
1195,0.0
1197,0.0
2,1, 1,20, 0,24, 0.00,60.00,Monday
7,13.9
718,23.400183828852725
719,11.955984150212924
720,19.805608099956476
619,0.0
633,0.0
659,0.0
661,0.0
690,0.0
716,0.0
843,-1948.460848782819
844,-1948.460848782819
907,0.0
908,0.0
971,0.0
972,0.0
1195,0.0
1197,0.0
2,2, 1,21, 0, 1, 0.00,60.00,Tuesday
7,14.4
718,23.043312859933984
719,12.707187083177004
720,19.779803185568053
619,0.0
633,0.0
659,0.0
661,0.0
690,0.0
716,0.0
843,-2184.3283982803823
844,-2184.3283982803823
907,0.0
908,0.0
971,0.0
972,0.0
1195,0.0
1197,0.0
2,2, 1,21, 0, 2, 0.00,60.00,Tuesday
7,14.4
718,22.756111797014842
719,12.783217479574283
720,19.748484035876157
619,0.0
633,0.0
659,0.0
661,0.0
690,0.0
716,0.0
843,-2111.8457590976923
844,-2111.8457590976923
907,0.0
908,0.0
971,0.0
972,0.0
1195,0.0
1197,0.0
2,2, 1,21, 0, 3, 0.00,60.00,Tuesday
7,15.0
718,22.520001011602087
719,13.616644450565905
720,19.712928884742876
619,0.0
633,0.0
659,0.0
661,0.0
690,0.0
716,0.0
843,-2225.7361960887447
844,-2225.7361960887447
907,0.0
908,0.0
971,0.0
972,0.0
1195,0.0
1197,0.0
2,2, 1,21, 0, 4, 0.00,60.00,Tuesday
7,14.4
718,22.15401802626368
719,13.285722932095908
720,19.67437777647493
619,0.0
633,0.0
659,0.0
661,0.0
690,0.0
716,0.0
843,-2156.223658332633
844,-2156.223658332633
907,0.0
908,0.0
971,0.0
972,0.0
1195,0.0
1197,0.0
2,2, 1,21, 0, 5, 0.00,60.00,Tuesday
7,13.9
718,21.960692589837695
719,12.229789185312775
720,19.63436133096873
619,0.0
633,0.0
659,0.0
661,0.0
690,0.0
716,0.0
843,-1949.967166705289
844,-1949.967166705289
907,0.0
908,0.0
971,0.0
972,0.0
1195,0.0
1197,0.0
2,2, 1,21, 0, 6, 0.00,60.00,Tuesday
7,14.0
718,21.962109879294292
719,11.452053889034769
720,19.592554884489704
619,0.0
633,0.0
659,0.0
661,0.0
690,0.0
716,0.0
843,-1356.0144016425147
844,-1356.0144016425147
907,0.0
908,0.0
971,0.0
972,0.0
1195,0.0
1197,0.0
2,2, 1,21, 0, 7, 0.00,60.00,Tuesday
7,14.0
718,21.330362997779865
719,11.651994208764883
720,19.549332638515896
619,0.0
633,0.0
659,0.0
661,0.0
690,0.0
716,46.21975425399261
843,-1414.9106006862603
844,-1414.9106006862603
907,0.0
908,0.0
971,0.0
972,0.0
1195,0.0
1197,0.0
2,2, 1,21, 0, 8, 0.00,60.00,Tuesday
7,13.0
718,20.788273059991734
719,10.67574688708303
720,19.507182440859122
619,0.0
633,0.0
659,0.0
661,0.0
690,0.0
716,68.79696993844551
843,-1186.9994006247398
844,-1186.9994006247398
907,0.0
908,0.0
971,0.0
972,0.0
1195,0.0
1197,0.0
2,2, 1,21, 0, 9, 0.00,60.00,Tuesday
7,16.0
718,22.241462554065034
719,13.78175140325333
720,19.46698143566879
619,0.0
633,0.0
659,0.0
661,0.0
690,0.0
716,0.0
843,-1839.4282946763142
844,-1839.4282946763142
907,0.0
908,0.0
971,0.0
972,0.0
1195,0.0
1197,0.0
2,2, 1,21, 0,10, 0.00,60.00,Tuesday
7,20.0
718,23.296500723330517
719,19.526916946706177
720,19.447734094892827
619,0.0
633,0.0
659,0.0
661,0.0
690,6.60161770088604
716,0.0
843,-2661.6300762036117
844,-2661.6300762036117
907,0.0
908,0.0
971,0.0
972,0.0
1195,0.0
1197,0.0
2,2, 1,21, 0,11, 0.00,60.00,Tuesday
7,21.1
718,23.281314858011267
719,23.720423593090874
720,19.51150593516362
619,0.0
633,0.0
659,0.0
661,0.0
690,41.00865539003972
716,0.0
843,-3999.5042900705866
844,-3999.5042900705866
907,0.0
908,0.0
971,0.0
972,0.0
1195,0.0
1197,0.0
2,2, 1,21, 0,12, 0.00,60.00,Tuesday
7,21.7
718,23.343979026458673
719,26.989410561438923
720,19.574442520587684
619,0.0
633,0.0
659,0.0
661,0.0
690,59.108235429451625
716,0.0
843,-4772.930502402385
844,-4772.930502402385
907,0.0
908,0.0
971,0.0
972,0.0
1195,0.0
1197,0.0
2,2, 1,21, 0,13, 0.00,60.00,Tuesday
7,21.7
718,23.345240164392397
719,30.654502150994567
720,19.665820244997967
619,0.0
633,0.0
659,0.0
661,0.0
690,75.75287512672712
716,0.0
843,-5671.027616453144
844,-5671.027616453144
907,0.0
908,0.0
971,0.0
972,0.0
1195,0.0
1197,0.0
2,2, 1,21, 0,14, 0.00,60.00,Tuesday
7,22.8
718,23.349967554018246
719,30.356308325626323
720,19.77848709606395
619,0.0
633,0.0
659,0.0
661,0.0
690,91.67295566690909
716,0.0
843,-6342.514470005923
844,-6342.514470005923
907,0.0
908,0.0
971,0.0
972,0.0
1195,0.0
1197,0.0
2,2, 1,21, 0,15, 0.00,60.00,Tuesday
7,22.2
718,23.33548765506808
719,30.022651695974822
720,19.911767814123753
619,0.0
633,0.0
659,0.0
661,0.0
690,103.10790458355
716,0.0
843,-6931.003606680741
844,-6931.003606680741
907,0.0
908,0.0
971,0.0
972,0.0
1195,0.0
1197,0.0
2,2, 1,21, 0,16, 0.00,60.00,Tuesday
7,22.2
718,23.332449062341958
719,29.78715183892779
720,20.071339458425403
619,0.0
633,0.0
659,0.0
661,0.0
690,115.43575242922901
716,0.0
843,-7592.220480096312
844,-7592.220480096312
907,0.0
908,0.0
971,0.0
972,0.0
1195,0.0
1197,0.0
2,2, 1,21, 0,17, 0.00,60.00,Tuesday
7,21.7
718,23.331033361878575
719,26.798845196134305
720,20.19114627847338
619,0.0
633,0.0
659,0.0
661,0.0
690,120.07825499427692
716,0.0
843,-7999.440972197477
844,-7999.440972197477
907,0.0
908,0.0
971,0.0
972,0.0
1195,0.0
1197,0.0
2,2, 1,21, 0,18, 0.00,60.00,Tuesday
7,19.4
718,23.33392949058152
719,24.043891409805333
720,20.24176984255203
619,0.0
633,0.0
659,0.0
661,0.0
690,79.80869368799856
716,62.308880353079324
843,-7668.1130042477525
844,-7668.1130042477525
907,0.0
908,0.0
971,0.0
972,0.0
1195,0.0
1197,0.0
2,2, 1,21, 0,19, 0.00,60.00,Tuesday
7,17.8
718,23.329164635516538
719,20.509327118517554
720,20.361338632622928
619,0.0
633,0.0
659,0.0
661,0.0
690,76.21800830954744
716,0.0
843,-6534.934720078105
844,-6534.934720078105
907,0.0
908,0.0
971,0.0
972,0.0
1195,0.0
1197,0.0
2,2, 1,21, 0,20, 0.00,60.00,Tuesday
7,16.7
718,23.354031608703853
719,18.454334028745794
720,20.38888363056677
619,0.0
633,0.0
659,0.0
661,0.0
690,25.25019902582099
716,85.44000000000007
843,-5780.478252746565
844,-5780.478252746565
907,0.0
908,0.0
971,0.0
972,0.0
1195,0.0
1197,0.0
2,2, 1,21, 0,21, 0.00,60.00,Tuesday
7,16.1
718,23.312089858016687
719,16.284581209318958
720,20.467535341567896
619,0.0
633,0.0
659,0.0
661,0.0
690,39.49605870133576
716,31.060899390307235
843,-5347.880031474726
844,-5347.880031474726
907,0.0
908,0.0
971,0.0
972,0.0
1195,0.0
1197,0.0
2,2, 1,21, 0,22, 0.00,60.00,Tuesday
7,16.1
718,23.361289351781313
719,15.022746345764062
720,20.48570864327405
619,0.0
633,0.0
659,0.0
661,0.0
690,39.35367069274373
716,0.0
843,-4809.627646752779
844,-4809.627646752779
907,0.0
908,0.0
971,0.0
972,0.0
1195,0.0
1197,0.0
2,2, 1,21, 0,23, 0.00,60.00,Tuesday
7,15.0
718,24.381624430348058
719,13.279945617734244
720,20.445562527834518
619,0.0
633,0.0
659,0.0
661,0.0
690,0.0
716,0.0
843,-5087.8391789048455
844,-5087.8391789048455
907,0.0
908,0.0
971,0.0
972,0.0
1195,0.0
1197,0.0
2,2, 1,21, 0,24, 0.00,60.00,Tuesday
7,14.0
718,24.26816835570602
719,12.069115904331204
720,20.422737132880656
619,0.0
633,0.0
659,0.0
661,0.0
690,0.0
716,0.0
843,-2606.2914546949687
844,-2606.2914546949687
907,0.0
908,0.0
971,0.0
972,0.0
1195,0.0
1197,0.0
2,3, 1,22, 0, 1, 0.00,60.00,Wednesday
7,13.0
718,23.792552086632178
719,10.65732056204472
720,20.383503592339583
619,0.0
633,0.0
659,0.0
661,0.0
690,0.0
716,0.0
843,-2273.9697355701574
844,-2273.9697355701574
907,0.0
908,0.0
971,0.0
972,0.0
1195,0.0
1197,0.0
2,3, 1,22, 0, 2, 0.00,60.00,Wednesday
7,14.0
718,23.57882402763898
719,9.705458475575023
720,20.333085185281426
619,0.0
633,0.0
659,0.0
661,0.0
690,0.0
716,0.0
843,-2105.205344775959
844,-2105.205344775959
907,0.0
908,0.0
971,0.0
972,0.0
1195,0.0
1197,0.0
2,3, 1,22, 0, 3, 0.00,60.00,Wednesday
7,13.0
718,23.125652830783554
719,8.847776289340315
720,20.27109315333849
619,0.0
633,0.0
659,0.0
661,0.0
690,0.0
716,0.0
843,-2436.8598701724777
844,-2436.8598701724777
907,0.0
908,0.0
971,0.0
972,0.0
1195,0.0
1197,0.0
2,3, 1,22, 0, 4, 0.00,60.00,Wednesday
7,13.0
718,22.838556694561657
719,9.268574557523735
720,20.19825641835313
619,0.0
633,0.0
659,0.0
661,0.0
690,0.0
716,0.0
843,-2149.010252480669
844,-2149.010252480669
907,0.0
908,0.0
971,0.0
972,0.0
1195,0.0
1197,0.0
2,3, 1,22, 0, 5, 0.00,60.00,Wednesday
7,13.0
718,22.61730025089522
719,10.113982355717967
720,20.116157006453726
619,0.0
633,0.0
659,0.0
661,0.0
690,0.0
716,0.0
843,-2329.2690560422852
844,-2329.2690560422852
907,0.0
908,0.0
971,0.0
972,0.0
1195,0.0
1197,0.0
2,3, 1,22, 0, 6, 0.00,60.00,Wednesday
7,12.0
718,21.719409789002917
719,10.50816111294638
720,20.058914441349454
619,0.0
633,0.0
659,0.0
661,0.0
690,0.0
716,51.04127824040522
843,-1657.7021243493382
844,-1657.7021243493382
907,0.0
908,0.0
971,0.0
972,0.0
1195,0.0
1197,0.0
2,3, 1,22, 0, 7, 0.00,60.00,Wednesday
7,12.0
718,21.110986274433568
719,10.599204934948888
720,20.012600989041943
619,0.0
633,0.0
659,0.0
661,0.0
690,0.0
716,69.876460191562
843,-1559.0948250770125
844,-1559.0948250770125
907,0.0
908,0.0
971,0.0
972,0.0
1195,0.0
1197,0.0
2,3, 1,22, 0, 8, 0.00,60.00,Wednesday
7,12.2
718,21.696896962247447
719,10.918151887404052
720,19.96457204495729
619,0.0
633,0.0
659,0.0
661,0.0
690,0.0
716,0.0
843,-1476.7728398549134
844,-1476.7728398549134
907,0.0
908,0.0
971,0.0
972,0.0
1195,0.0
1197,0.0
2,3, 1,22, 0, 9, 0.00,60.00,Wednesday
7,13.0
718,22.532111290854907
719,13.371090609608334
720,19.915780184772053
619,0.0
633,0.0
659,0.0
661,0.0
690,0.0
716,0.0
843,-1481.5716787990277
844,-1481.5716787990277
907,0.0
908,0.0
971,0.0
972,0.0
1195,0.0
1197,0.0
2,3, 1,22, 0,10, 0.00,60.00,Wednesday
7,20.0
718,23.26205425456543
719,20.02035743234701
720,19.908874181882574
619,0.0
633,0.0
659,0.0
661,0.0
690,18.265504694870604
716,0.0
843,-3214.7763607903944
844,-3214.7763607903944
907,0.0
908,0.0
971,0.0
972,0.0
1195,0.0
1197,0.0
2,3, 1,22, 0,11, 0.00,60.00,Wednesday
7,21.0
718,23.297900476560812
719,26.11920015077665
720,19.96693862182259
619,0.0
633,0.0
659,0.0
661,0.0
690,45.206575718202075
716,0.0
843,-3826.322793938729
844,-3826.322793938729
907,0.0
908,0.0
971,0.0
972,0.0
1195,0.0
1197,0.0
2,3, 1,22, 0,12, 0.00,60.00,Wednesday
7,22.2
718,23.341877329710776
719,28.91705873551391
720,20.04851980532502
619,0.0
633,0.0
659,0.0
661,0.0
690,68.83844984618247
716,0.0
843,-5117.067909787194
844,-5117.067909787194
907,0.0
908,0.0
971,0.0
972,0.0
1195,0.0
1197,0.0
2,3, 1,22, 0,13, 0.00,60.00,Wednesday
7,23.3
718,23.348294323374773
719,30.528268689974055
720,20.146302516661308
619,0.0
633,0.0
659,0.0
661,0.0
690,80.58623328919614
716,0.0
843,-5805.770646219335
844,-5805.770646219335
907,0.0
908,0.0
971,0.0
972,0.0
1195,0.0
1197,0.0
2,3, 1,22, 0,14, 0.00,60.00,Wednesday
7,21.7
718,23.3149190341116
719,30.937013209568825
720,20.231478049786883
619,0.0
633,0.0
659,0.0
661,0.0
690,90.39709302698282
716,0.0
843,-6287.75886026465
844,-6287.75886026465
907,0.0
908,0.0
971,0.0
972,0.0
1195,0.0
1197,0.0
2,3, 1,22, 0,15, 0.00,60.00,Wednesday
7,22.8
718,23.343099106469985
719,30.90942535023437
720,20.36542550721946
619,0.0
633,0.0
659,0.0
661,0.0
690,105.77686952389817
716,0.0
843,-6925.470893963102
844,-6925.470893963102
907,0.0
908,0.0
971,0.0
972,0.0
1195,0.0
1197,0.0
2,3, 1,22, 0,16, 0.00,60.00,Wednesday
7,22.2
718,23.332305182332306
719,28.548928584050348
720,20.42098472462166
619,0.0
633,0.0
659,0.0
661,0.0
690,70.03022212530512
716,85.44000000000007
843,-7229.617164077197
844,-7229.617164077197
907,0.0
908,0.0
971,0.0
972,0.0
1195,0.0
1197,0.0
2,3, 1,22, 0,17, 0.00,60.00,Wednesday
7,21.1
718,23.320312086242538
719,27.124106313969392
720,20.59410999477302
619,0.0
633,0.0
659,0.0
661,0.0
690,103.66256450370484
716,25.027591456598046
843,-7573.136010262802
844,-7573.136010262802
907,0.0
908,0.0
971,0.0
972,0.0
1195,0.0
1197,0.0
2,3, 1,22, 0,18, 0.00,60.00,Wednesday
7,19.0
718,23.32170393730938
719,23.832569629273554
720,20.688648806525503
619,0.0
633,0.0
659,0.0
661,0.0
690,104.54134653160253
716,0.0
843,-7402.973735167252
844,-7402.973735167252
907,0.0
908,0.0
971,0.0
972,0.0
1195,0.0
1197,0.0
2,3, 1,22, 0,19, 0.00,60.00,Wednesday
7,19.4
718,23.346888162201754
719,22.676955900745327
720,20.776838255280733
619,0.0
633,0.0
659,0.0
661,0.0
690,79.92458204710019
716,0.0
843,-6555.802147916544
844,-6555.802147916544
907,0.0
908,0.0
971,0.0
972,0.0
1195,0.0
1197,0.0
2,3, 1,22, 0,20, 0.00,60.00,Wednesday
7,18.9
718,23.329417246059663
719,20.802035974476134
720,20.817535601023263
619,0.0
633,0.0
659,0.0
661,0.0
690,38.336152940526944
716,69.49036775257525
843,-5882.737716677251
844,-5882.737716677251
907,0.0
908,0.0
971,0.0
972,0.0
1195,0.0
1197,0.0
2,3, 1,22, 0,21, 0.00,60.00,Wednesday
7,18.0
718,23.310854047049318
719,19.43237773359862
720,20.887913504989214
619,0.0
633,0.0
659,0.0
661,0.0
690,58.23532978091878
716,0.0
843,-5468.752405186153
844,-5468.752405186153
907,0.0
908,0.0
971,0.0
972,0.0
1195,0.0
1197,0.0
2,3, 1,22, 0,22, 0.00,60.00,Wednesday
7,18.0
718,23.335746023682237
719,18.46298474257836
720,20.899782356531848
619,0.0
633,0.0
659,0.0
661,0.0
690,45.79021287515098
716,0.0
843,-4955.74995925716
844,-4955.74995925716
907,0.0
908,0.0
971,0.0
972,0.0
1195,0.0
1197,0.0
2,3, 1,22, 0,23, 0.00,60.00,Wednesday
7,18.9
718,24.4989423497099
719,18.622809521561877
720,20.87334675519365
619,0.0
633,0.0
659,0.0
661,0.0
690,4.830680159344252
716,0.0
843,-5313.724808163757
844,-5313.724808163757
907,0.0
908,0.0
971,0.0
972,0.0
1195,0.0
1197,0.0
2,3, 1,22, 0,24, 0.00,60.00,Wednesday
7,19.4
718,24.341685459998452
719,19.108082166829508
720,20.868169301048532
619,0.0
633,0.0
659,0.0
661,0.0
690,6.254919697309904
716,0.0
843,-2845.2471262683857
844,-2845.2471262683857
907,0.0
908,0.0
971,0.0
972,0.0
1195,0.0
1197,0.0
2,4, 1,23, 0, 1, 0.00,60.00,Thursday
7,19.0
718,24.217539472165676
719,19.241197813211052
720,20.837233179050813
619,0.0
633,0.0
659,0.0
661,0.0
690,0.2016010244690689
716,0.0
843,-3536.010496238194
844,-3536.010496238194
907,0.0
908,0.0
971,0.0
972,0.0
1195,0.0
1197,0.0
2,4, 1,23, 0, 2, 0.00,60.00,Thursday
7,18.0
718,24.03608906651883
719,18.429487861510125
720,20.81180083494739
619,0.0
633,0.0
659,0.0
661,0.0
690,0.0
716,0.0
843,-3044.7540096023204
844,-3044.7540096023204
907,0.0
908,0.0
971,0.0
972,0.0
1195,0.0
1197,0.0
2,4, 1,23, 0, 3, 0.00,60.00,Thursday
7,18.0
718,23.839130886378534
719,18.08653787600164
720,20.780565619057974
619,0.0
633,0.0
659,0.0
661,0.0
690,0.0
716,0.0
843,-2603.4911373417535
844,-2603.4911373417535
907,0.0
908,0.0
971,0.0
972,0.0
1195,0.0
1197,0.0
2,4, 1,23, 0, 4, 0.00,60.00,Thursday
7,18.0
718,23.842328189030276
719,17.959283575870124
720,20.744371029832738
619,0.0
633,0.0
659,0.0
661,0.0
690,0.0
716,0.0
843,-2056.7166286972392
844,-2056.7166286972392
907,0.0
908,0.0
971,0.0
972,0.0
1195,0.0
1197,0.0
2,4, 1,23, 0, 5, 0.00,60.00,Thursday
7,18.0
718,23.765097416606892
719,17.41523965057572
720,20.703109463408772
619,0.0
633,0.0
659,0.0
661,0.0
690,0.0
716,0.0
843,-2881.540117863906
844,-2881.540117863906
907,0.0
908,0.0
971,0.0
972,0.0
1195,0.0
1197,0.0
2,4, 1,23, 0, 6, 0.00,60.00,Thursday
7,18.9
718,23.359973159443065
719,17.891396852242845
720,20.68121702073043
619,0.0
633,0.0
659,0.0
661,0.0
690,14.454261888125789
716,0.0
843,-2475.610779196656
844,-2475.610779196656
907,0.0
908,0.0
971,0.0
972,0.0
1195,0.0
1197,0.0
2,4, 1,23, 0, 7, 0.00,60.00,Thursday
7,18.3
718,22.608344679111667
719,17.43716043888054
720,20.61764540600154
619,0.0
633,0.0
659,0.0
661,0.0
690,0.0
716,85.44000000000007
843,-2345.255274371174
844,-2345.255274371174
907,0.0
908,0.0
971,0.0
972,0.0
1195,0.0
1197,0.0
2,4, 1,23, 0, 8, 0.00,60.00,Thursday
7,18.9
718,22.812238352101147
719,18.020910040617846
720,20.574007675272938
619,0.0
633,0.0
659,0.0
661,0.0
690,0.0
716,52.74549225299365
843,-2925.383869940597
844,-2925.383869940597
907,0.0
908,0.0
971,0.0
972,0.0
1195,0.0
1197,0.0
2,4, 1,23, 0, 9, 0.00,60.00,Thursday
7,19.0
718,23.29649661935325
719,19.349201080458982
720,20.550671975401162
619,0.0
633,0.0
659,0.0
661,0.0
690,14.959487889444365
716,0.0
843,-2899.590165472222
844,-2899.590165472222
907,0.0
908,0.0
971,0.0
972,0.0
1195,0.0
1197,0.0
2,4, 1,23, 0,10, 0.00,60.00,Thursday
7,17.0
718,23.023653986345018
719,19.263747446554838
720,20.546652644566567
619,0.0
633,0.0
659,0.0
661,0.0
690,32.771613393922564
716,0.0
843,-3356.684288590848
844,-3356.684288590848
907,0.0
908,0.0
971,0.0
972,0.0
1195,0.0
1197,0.0
2,4, 1,23, 0,11, 0.00,60.00,Thursday
7,17.2
718,23.292597989399983
719,21.04816493810609
720,20.55499253067635
619,0.0
633,0.0
659,0.0
661,0.0
690,50.07613527819066
716,0.0
843,-4809.742472945334
844,-4809.742472945334
907,0.0
908,0.0
971,0.0
972,0.0
1195,0.0
1197,0.0
2,4, 1,23, 0,12, 0.00,60.00,Thursday
7,17.2
718,23.304198209506083
719,22.5109240674561
720,20.5965046278298
619,0.0
633,0.0
659,0.0
661,0.0
690,60.476063596495905
716,0.0
843,-5418.122977105044
844,-5418.122977105044
907,0.0
908,0.0
971,0.0
972,0.0
1195,0.0
1197,0.0
2,4, 1,23, 0,13, 0.00,60.00,Thursday
7,18.3
718,23.367019672530475
719,24.34058881334724
720,20.65405781190685
619,0.0
633,0.0
659,0.0
661,0.0
690,66.29159259871624
716,0.0
843,-5910.401961595886
844,-5910.401961595886
907,0.0
908,0.0
971,0.0
972,0.0
1195,0.0
1197,0.0
2,4, 1,23, 0,14, 0.00,60.00,Thursday
7,18.3
718,23.338912798510766
719,25.203002102692142
720,20.72935420380279
619,0.0
633,0.0
659,0.0
661,0.0
690,74.99598390775597
716,0.0
843,-6378.3274380813455
844,-6378.3274380813455
907,0.0
908,0.0
971,0.0
972,0.0
1195,0.0
1197,0.0
2,4, 1,23, 0,15, 0.00,60.00,Thursday
7,18.3
718,23.34431113770807
719,25.52668441933546
720,20.81348774488186
619,0.0
633,0.0
659,0.0
661,0.0
690,84.79701205996348
716,0.0
843,-6936.433131081547
844,-6936.433131081547
907,0.0
908,0.0
971,0.0
972,0.0
1195,0.0
1197,0.0
2,4, 1,23, 0,16, 0.00,60.00,Thursday
7,17.8
718,23.338779302518557
719,25.34806568993591
720,20.904516512156434
619,0.0
633,0.0
659,0.0
661,0.0
690,93.1594596185571
716,0.0
843,-7415.428995957358
844,-7415.428995957358
907,0.0
908,0.0
971,0.0
972,0.0
1195,0.0
1197,0.0
2,4, 1,23, 0,17, 0.00,60.00,Thursday
7,16.7
718,23.320592893405667
719,23.284396743437508
720,20.97437711018034
619,0.0
633,0.0
659,0.0
661,0.0
690,72.7791470901497
716,61.316484905932406
843,-7687.499328167127
844,-7687.499328167127
907,0.0
908,0.0
971,0.0
972,0.0
1195,0.0
1197,0.0
2,4, 1,23, 0,18, 0.00,60.00,Thursday
7,14.4
718,23.29867493230049
719,19.79500105938444
720,21.067623797453315
619,0.0
633,0.0
659,0.0
661,0.0
690,83.09755526711663
716,0.0
843,-7338.0403310885995
844,-7338.0403310885995
907,0.0
908,0.0
971,0.0
972,0.0
1195,0.0
1197,0.0
2,4, 1,23, 0,19, 0.00,60.00,Thursday
7,12.2
718,23.339384229738656
719,16.267809510824755
720,21.10826939809074
619,0.0
633,0.0
659,0.0
661,0.0
690,16.548392656044495
716,85.44000000000007
843,-5961.467890824788
844,-5961.467890824788
907,0.0
908,0.0
971,0.0
972,0.0
1195,0.0
1197,0.0
2,4, 1,23, 0,20, 0.00,60.00,Thursday
7,10.0
718,23.118459938484598
719,13.110344721781527
720,21.159471493444265
619,0.0
633,0.0
659,0.0
661,0.0
690,26.11116341118355
716,14.67082108090546
843,-4984.789270746129
844,-4984.789270746129
907,0.0
908,0.0
971,0.0
972,0.0
1195,0.0
1197,0.0
2,4, 1,23, 0,21, 0.00,60.00,Thursday
7,8.9
718,23.375077563193216
719,11.169851845152268
720,21.158635851440025
619,0.0
633,0.0
659,0.0
661,179.98630819143244
690,13.938804777864677
716,0.0
843,-4258.188017473443
844,-4258.188017473443
907,0.0
908,0.0
971,0.0
972,0.0
1195,0.0
1197,0.0
2,4, 1,23, 0,22, 0.00,60.00,Thursday
7,7.8
718,23.070573773691287
719,9.630715435467712
720,21.123730146776683
619,0.0
633,0.0
659,0.0
661,195.6658968840953
690,3.0185443943864954
716,0.0
843,-3463.5302766116183
844,-3463.5302766116183
907,0.0
908,0.0
971,0.0
972,0.0
1195,0.0
1197,0.0
2,4, 1,23, 0,23, 0.00,60.00,Thursday
7,6.1
718,22.571074732706155
719,7.980145833170917
720,21.06274017222093
619,0.0
633,0.0
659,0.0
661,200.0
690,0.0
716,0.0
843,-3614.349443056217
844,-3614.349443056217
907,0.0
908,0.0
971,0.0
972,0.0
1195,0.0
1197,0.0
2,4, 1,23, 0,24, 0.00,60.00,Thursday
7,5.6
718,21.868380425769228
719,6.944576370165069
720,20.97813649801529
619,0.0
633,0.0
659,0.0
661,200.0
690,0.0
716,0.0
843,-2876.9577702474926
844,-2876.9577702474926
907,0.0
908,0.0
971,0.0
972,0.0
1195,0.0
1197,0.0
2,5, 1,24, 0, 1, 0.00,60.00,Friday
7,4.4
718,21.07273287839681
719,5.572620606598201
720,20.868290429169086
619,0.0
633,0.0
659,0.0
661,200.0
690,0.0
716,0.0
843,-2138.4586923008064
844,-2138.4586923008064
907,0.0
908,0.0
971,0.0
972,0.0
1195,0.0
1197,0.0
2,5, 1,24, 0, 2, 0.00,60.00,Friday
7,4.4
718,19.953251356906343
719,5.333263230404906
720,20.734876126127016
619,0.0
633,0.0
659,0.0
661,200.0
690,0.0
716,0.0
843,-1185.4708471150025
844,-1185.4708471150025
907,0.0
908,0.0
971,0.0
972,0.0
1195,0.0
1197,0.0
2,5, 1,24, 0, 3, 0.00,60.00,Friday
7,3.9
718,19.31785525525803
719,4.694222061810374
720,20.584293059966736
619,0.0
633,0.0
659,0.0
661,200.0
690,0.0
716,0.0
843,-651.3207976221056
844,-651.3207976221056
907,0.0
908,0.0
971,0.0
972,0.0
1195,0.0
1197,0.0
2,5, 1,24, 0, 4, 0.00,60.00,Friday
7,3.3
718,18.61470750033276
719,4.149214924733641
720,20.390907867197864
619,226.37090459802025
633,72.29747111350622
659,0.0033982465278348728
661,189.87109870813543
690,7.05438517763995
716,0.0
843,170.48237614980098
844,170.48237614980098
907,0.0
908,0.0
971,0.0
972,0.0
1195,0.0
1197,0.0
2,5, 1,24, 0, 5, 0.00,60.00,Friday
7,3.3
718,18.69657397695975
719,4.129818230376614
720,20.202490864196722
619,926.5463885734599
633,285.9923608514623
659,0.5788214631578897
661,159.25637217636051
690,28.372306268717388
716,0.0
843,679.2049117860952
844,679.2049117860952
907,0.0
908,0.0
971,0.0
972,0.0
1195,0.0
1197,0.0
2,5, 1,24, 0, 6, 0.00,60.00,Friday
7,2.8
718,19.062508087400307
719,4.575805889256168
720,19.940148908422575
619,3266.0027762510317
633,962.2130813485446
659,6.081589204672716
661,61.55557550339867
690,96.37147702127643
716,85.44000000000007
843,1474.1735077733465
844,1474.1735077733465
907,0.0
908,0.0
971,0.0
972,0.0
1195,0.0
1197,0.0
2,5, 1,24, 0, 7, 0.00,60.00,Friday
7,2.8
718,19.398530967655734
719,4.64143853980466
720,19.85494759997439
619,3682.5135366646196
633,1083.0551256878614
659,13.847674004721153
661,43.76602447036586
690,108.69620147312527
716,74.41171333580596
843,1898.961554222782
844,1898.961554222782
907,0.0
908,0.0
971,0.0
972,0.0
1195,0.0
1197,0.0
2,5, 1,24, 0, 8, 0.00,60.00,Friday
7,2.8
718,19.72858335959436
719,4.452822151870681
720,19.783949149504743
619,2483.6736122225957
633,757.5865860249329
659,14.51316558334081