Program Version,EnergyPlus, Version 22.2.0-c249759bad, YMD=2023.09.01 20:37
1,5,Environment Title[],Latitude[deg],Longitude[deg],Time Zone[],Elevation[m]
2,8,Day of Simulation[],Month[],Day of Month[],DST Indicator[1=yes 0=no],Hour[],StartMinute[],EndMinute[],DayType
3,5,Cumulative Day of Simulation[],Month[],Day of Month[],DST Indicator[1=yes 0=no],DayType  ! When Daily Report Variables Requested
4,2,Cumulative Days of Simulation[],Month[]  ! When Monthly Report Variables Requested
5,1,Cumulative Days of Simulation[] ! When Run Period Report Variables Requested
6,1,Calendar Year of Simulation[] ! When Annual Report Variables Requested
581,11,LIVING,AFN Zone Infiltration Air Change Rate [ach] !RunPeriod [Value,Min,Month,Day,Hour,Minute,Max,Month,Day,Hour,Minute]
582,11,ATTIC,AFN Zone Infiltration Air Change Rate [ach] !RunPeriod [Value,Min,Month,Day,Hour,Minute,Max,Month,Day,Hour,Minute]
583,11,CRAWLSPACE,AFN Zone Infiltration Air Change Rate [ach] !RunPeriod [Value,Min,Month,Day,Hour,Minute,Max,Month,Day,Hour,Minute]
1038,11,Facility,Facility Heating Setpoint Not Met Time [hr] !RunPeriod [Value,Min,Month,Day,Hour,Minute,Max,Month,Day,Hour,Minute]
1039,11,Facility,Facility Cooling Setpoint Not Met Time [hr] !RunPeriod [Value,Min,Month,Day,Hour,Minute,Max,Month,Day,Hour,Minute]
1115,11,DX_HEATING_COIL,Heating Coil Heating Energy [J] !RunPeriod [Value,Min,Month,Day,Hour,Minute,Max,Month,Day,Hour,Minute]
1128,11,DX_HEATING_COIL,Heating Coil Electricity Energy [J] !RunPeriod [Value,Min,Month,Day,Hour,Minute,Max,Month,Day,Hour,Minute]
1153,11,DX_HEATING_COIL,Heating Coil Defrost Electricity Energy [J] !RunPeriod [Value,Min,Month,Day,Hour,Minute,Max,Month,Day,Hour,Minute]
1154,11,DX_HEATING_COIL,Heating Coil Crankcase Heater Electricity Energy [J] !RunPeriod [Value,Min,Month,Day,Hour,Minute,Max,Month,Day,Hour,Minute]
1155,11,HEATING_RESISTANCE_BACKUP,Heating Coil Heating Energy [J] !RunPeriod [Value,Min,Month,Day,Hour,Minute,Max,Month,Day,Hour,Minute]
1156,11,HEATING_RESISTANCE_BACKUP,Heating Coil Electricity Energy [J] !RunPeriod [Value,Min,Month,Day,Hour,Minute,Max,Month,Day,Hour,Minute]
1292,11,WATER HEATER,Water Heater Heat Loss Energy [J] !RunPeriod [Value,Min,Month,Day,Hour,Minute,Max,Month,Day,Hour,Minute]
1306,11,WATER HEATER,Water Heater Heating Energy [J] !RunPeriod [Value,Min,Month,Day,Hour,Minute,Max,Month,Day,Hour,Minute]
1307,11,WATER HEATER,Water Heater Unmet Demand Heat Transfer Energy [J] !RunPeriod [Value,Min,Month,Day,Hour,Minute,Max,Month,Day,Hour,Minute]
1308,11,WATER HEATER,Water Heater Electricity Energy [J] !RunPeriod [Value,Min,Month,Day,Hour,Minute,Max,Month,Day,Hour,Minute]
13,11,Electricity:Facility [J] !RunPeriod [Value,Min,Month,Day,Hour,Minute,Max,Month,Day,Hour,Minute]
1134,11,Heating:Electricity [J] !RunPeriod [Value,Min,Month,Day,Hour,Minute,Max,Month,Day,Hour,Minute]
1096,11,Cooling:Electricity [J] !RunPeriod [Value,Min,Month,Day,Hour,Minute,Max,Month,Day,Hour,Minute]
562,11,Fans:Electricity [J] !RunPeriod [Value,Min,Month,Day,Hour,Minute,Max,Month,Day,Hour,Minute]
1379,11,Pumps:Electricity [J] !RunPeriod [Value,Min,Month,Day,Hour,Minute,Max,Month,Day,Hour,Minute]
1326,11,WaterSystems:Electricity [J] !RunPeriod [Value,Min,Month,Day,Hour,Minute,Max,Month,Day,Hour,Minute]
61,11,InteriorLights:Electricity [J] !RunPeriod [Value,Min,Month,Day,Hour,Minute,Max,Month,Day,Hour,Minute]
1046,11,ExteriorLights:Electricity [J] !RunPeriod [Value,Min,Month,Day,Hour,Minute,Max,Month,Day,Hour,Minute]
134,11,InteriorEquipment:Electricity [J] !RunPeriod [Value,Min,Month,Day,Hour,Minute,Max,Month,Day,Hour,Minute]
170,11,gas_dryer:InteriorEquipment:Electricity [J] !RunPeriod [Value,Min,Month,Day,Hour,Minute,Max,Month,Day,Hour,Minute]
207,11,clotheswasher:InteriorEquipment:Electricity [J] !RunPeriod [Value,Min,Month,Day,Hour,Minute,Max,Month,Day,Hour,Minute]
244,11,dishwasher:InteriorEquipment:Electricity [J] !RunPeriod [Value,Min,Month,Day,Hour,Minute,Max,Month,Day,Hour,Minute]
281,11,refrigerator:InteriorEquipment:Electricity [J] !RunPeriod [Value,Min,Month,Day,Hour,Minute,Max,Month,Day,Hour,Minute]
318,11,electric_mels:InteriorEquipment:Electricity [J] !RunPeriod [Value,Min,Month,Day,Hour,Minute,Max,Month,Day,Hour,Minute]
355,11,NaturalGas:Facility [J] !RunPeriod [Value,Min,Month,Day,Hour,Minute,Max,Month,Day,Hour,Minute]
403,11,InteriorEquipment:NaturalGas [J] !RunPeriod [Value,Min,Month,Day,Hour,Minute,Max,Month,Day,Hour,Minute]
476,11,gas_dryer:InteriorEquipment:NaturalGas [J] !RunPeriod [Value,Min,Month,Day,Hour,Minute,Max,Month,Day,Hour,Minute]
513,11,gas_mels:InteriorEquipment:NaturalGas [J] !RunPeriod [Value,Min,Month,Day,Hour,Minute,Max,Month,Day,Hour,Minute]
End of Data Dictionary
1,EXTREME_WINTER,  32.90, -80.03,  -5.00,  14.30
5,7
1038,0.0,0.0, 1, 6, 1,15,0.0, 1, 6, 1,15
1039,0.0,0.0, 1, 6, 1,15,0.0, 1, 6, 1,15
581,0.28353305486720465,0.08470442668707487, 1,12, 6,52,0.7854974648834857, 1, 8, 2,60
582,4.183962093722892,0.0, 1, 6, 1,52,12.610038199703128, 1, 7,23, 7
583,0.014620701223550999,0.00007890004624457175, 1,12, 3,60,0.0845786842496462, 1, 8, 4,52
1115,489710726.95880264,0.0, 1, 6, 1,15,4621439.020092365, 1, 8, 4,15
1128,157023806.08735925,0.0, 1, 6, 1,15,1496254.9577883738, 1, 8, 6,30
1153,1388797.5449732835,0.0, 1, 6, 1,15,49913.459635503816, 1, 6, 6,45
1154,62076959.57884669,0.0, 1, 6, 6, 5,180000.0, 1, 6, 1,15
1155,34785417.146581806,0.0, 1, 6, 1,15,2400257.4226864944, 1, 8, 8,15
1156,34785417.146581806,0.0, 1, 6, 1,15,2400257.4226864944, 1, 8, 8,15
1292,-24315340.40980081,-39750.73932333508, 1,10, 5,60,-4584.807363892974, 1,10,18,38
1306,196020993.39136648,0.0, 1, 6, 1,15,4050000.0, 1, 7,20,30
1307,24814704.288463093,0.0, 1, 6, 1,15,4941954.272707895, 1,12,19,60
1308,196020993.39136648,0.0, 1, 6, 1,15,4050000.0, 1, 7,20,30
13,850728547.7072634,152071.80019841267, 1,12, 4,15,7837905.106358662, 1, 8, 7,60
61,301924526.02383536,88139.10953165221, 1, 6, 1,15,1282023.4113694867, 1, 6,20,15
134,70666020.44019976,63564.01800854099, 1, 6, 4,15,156554.22484006523, 1,11,20,15
170,5241013.419656067,348.4159749238097, 1, 6, 4,15,17476.39704006126, 1,11,12,15
207,6509451.13922267,815.2532113832032, 1, 6, 3,15,22990.642799023623, 1,11,10,15
244,12749673.399825225,1521.856143006317, 1, 6, 4,15,53038.631142310165, 1,11,20,15
281,46165882.481495745,59938.60262432081, 1, 6, 5,15,81951.81706819107, 1, 6,19,15
318,0.0,0.0, 1, 6, 1,15,0.0, 1, 6, 1,15
355,197687796.27748066,18561.32405820678, 1, 6, 4,15,724774.895203776, 1,11,18,15
403,197687796.27748066,18561.32405820678, 1, 6, 4,15,724774.895203776, 1,11,18,15
476,106772067.24485716,7098.072629279515, 1, 6, 4,15,356036.3026282215, 1,11,12,15
513,0.0,0.0, 1, 6, 1,15,0.0, 1, 6, 1,15
562,15752894.784769887,0.0, 1, 6, 1,15,139588.18565103295, 1, 8, 4,15
1046,0.0,0.0, 1, 6, 1,15,0.0, 1, 6, 1,15
1096,11089132.709331876,0.0, 1, 6, 1,15,394201.2485122517, 1, 6,17,30
1134,255274980.35776106,0.0, 1, 6,10,45,4161625.17828969, 1, 8, 6,15
1326,196020993.39136642,0.0, 1, 6, 1,15,4050000.0, 1, 7,20,30
1379,0.0,0.0, 1, 6, 1,15,0.0, 1, 6, 1,15
1,EXTREME_SUMMER,  32.90, -80.03,  -5.00,  14.30
5,7
1038,0.0,0.0, 7,20, 1,15,0.0, 7,20, 1,15
1039,29.5,0.0, 7,20, 1,15,0.25, 7,20,14,15
581,0.16178236155711762,0.010623111331576004, 7,20,10,31,0.5431406812233364, 7,25,19,50
582,4.085795829144318,0.12063681298889242, 7,26, 6,60,10.146177456959268, 7,25,19,50
583,0.043770343431287446,0.0011669871826001834, 7,26,23, 5,0.07480979322086469, 7,22,19,48
1115,0.0,0.0, 7,20, 1,15,0.0, 7,20, 1,15
1128,0.0,0.0, 7,20, 1,15,0.0, 7,20, 1,15
1153,0.0,0.0, 7,20, 1,15,0.0, 7,20, 1,15
1154,0.0,0.0, 7,20, 1,15,0.0, 7,20, 1,15
1155,0.0,0.0, 7,20, 1,15,0.0, 7,20, 1,15
1156,0.0,0.0, 7,20, 1,15,0.0, 7,20, 1,15
1292,-21970986.79901944,-34314.199652065254, 7,24,22,15,-3334.5997065896404, 7,20,10,45
1306,138816141.8057138,0.0, 7,20, 1,15,2738683.427198106, 7,23, 7,15
1307,7383019.386947463,0.0, 7,20, 1,15,2729975.2166129886, 7,26,19,60
1308,138816141.8057138,0.0, 7,20, 1,15,2738683.427198106, 7,23, 7,15
13,1205098170.4444718,388689.4168010459, 7,21, 4,60,6556395.1473476235, 7,21,20,15
61,301924526.02383536,88139.10953165221, 7,20, 1,15,1282023.4113694867, 7,20,20,15
134,70666020.44019976,63564.01800854099, 7,20, 4,15,156554.22484006523, 7,25,20,15
170,5241013.419656067,348.4159749238097, 7,20, 4,15,17476.39704006126, 7,25,12,15
207,6509451.13922267,815.2532113832032, 7,20, 3,15,22990.642799023623, 7,25,10,15
244,12749673.399825225,1521.856143006317, 7,20, 4,15,53038.631142310165, 7,25,20,15
281,46165882.481495745,59938.60262432081, 7,20, 5,15,81951.81706819107, 7,20,19,15
318,0.0,0.0, 7,20, 1,15,0.0, 7,20, 1,15
355,197687796.27748066,18561.32405820678, 7,20, 4,15,724774.895203776, 7,25,18,15
403,197687796.27748066,18561.32405820678, 7,20, 4,15,724774.895203776, 7,25,18,15
476,106772067.24485716,7098.072629279515, 7,20, 4,15,356036.3026282215, 7,25,12,15
513,0.0,0.0, 7,20, 1,15,0.0, 7,20, 1,15
562,57145258.59711092,11413.50464567306, 7,26,23,15,139588.18565103295, 7,20,13,15
1046,0.0,0.0, 7,20, 1,15,0.0, 7,20, 1,15
1096,636546223.5776105,109609.38607436289, 7,26,23,15,1753609.5275163373, 7,22,14,60
1134,0.0,0.0, 7,20, 1,15,0.0, 7,20, 1,15
1326,138816141.80571374,0.0, 7,20, 1,15,4050000.0, 7,25, 9,60
1379,0.0,0.0, 7,20, 1,15,0.0, 7,20, 1,15
1,ANNUAL,  32.90, -80.03,  -5.00,  14.30
5,365
1038,1.0,0.0, 1, 1, 1,15,0.25, 1,14, 6,15
1039,426.0,0.0, 1, 1, 1,15,0.25, 1,10,15,15
581,0.18903707044490584,0.0, 4, 5,23, 3,0.8341903036748505, 3,28,14,60
582,3.530233747777939,0.0, 1, 1, 2,48,19.819009138710552, 3,29,16,50
583,0.026071156992778843,0.0, 4, 5,23, 3,0.08436521447640177, 1, 8, 4,52
1115,3386348113.915272,0.0, 1, 1, 1,15,4815018.349690689, 3, 3, 6,45
1128,1040038744.8804425,0.0, 1, 1, 1,15,1537857.230107086, 3, 3, 6,45
1153,49176860.60528793,0.0, 1, 1, 1,15,103873.19678526376, 2,13, 6,45
1154,859025402.4894284,0.0, 1, 1, 6, 5,180000.0, 1, 1, 1,15
1155,51865967.67643377,0.0, 1, 1, 1,15,2444773.1481096037, 1, 8, 8,15
1156,51865967.67643377,0.0, 1, 1, 1,15,2444773.1481096037, 1, 8, 8,15
1292,-1180668681.0655787,-39767.31675400591, 2,14, 1,60,-2208.727198998975, 7,10,11,45
1306,8810028805.756676,0.0, 1, 1, 1,15,4050000.0, 1, 3,20,30
1307,836567556.4721748,0.0, 1, 1, 1,15,9226834.429716775, 2,12,19,60
1308,8810028805.756676,0.0, 1, 1, 1,15,4050000.0, 1, 3,20,30
13,47760122883.67568,151703.1275401932, 1, 2, 4,15,7187118.124113266, 7,30,20,15
61,15743207428.383959,88139.10953165221, 1, 1, 1,15,1282023.4113694867, 1, 1,20,15
134,3685071073.4325233,63564.01800854099, 1, 2, 4,15,156554.22484006523, 1, 1,20,15
170,273393721.45532674,348.4159749238097, 1, 2, 4,15,17476.39704006126, 1, 1,12,15
207,339560869.0695816,815.2532113832032, 1, 2, 3,15,22990.642799023623, 1, 1,10,15
244,664895467.8009144,1521.856143006317, 1, 2, 4,15,53038.631142310165, 1, 1,20,15
281,2407221015.106824,59938.60262432081, 1, 1, 5,15,81951.81706819107, 1, 1,19,15
318,0.0,0.0, 1, 1, 1,15,0.0, 1, 1, 1,15
355,10310294493.051695,18561.32405820678, 1, 2, 4,15,724774.895203776, 1, 1,18,15
403,10310294493.051695,18561.32405820678, 1, 2, 4,15,724774.895203776, 1, 1,18,15
476,5569688622.066177,7098.072629279515, 1, 2, 4,15,356036.3026282215, 1, 1,12,15
513,0.0,0.0, 1, 1, 1,15,0.0, 1, 1, 1,15
562,1664146063.213917,0.0, 1, 1, 1,15,139588.18565103295, 1, 8, 4,15
1046,0.0,0.0, 1, 1, 1,15,0.0, 1, 1, 1,15
1096,15857562537.2354,0.0, 1, 1, 1,15,1771546.3992448705, 7,13,15,60
1134,2000106975.6515927,0.0, 1, 1,12,30,4215106.529403353, 1, 8, 6,15
1326,8810028805.756685,0.0, 1, 1, 1,15,4050000.0000000014, 3,19, 9,60
1379,0.0,0.0, 1, 1, 1,15,0.0, 1, 1, 1,15
End of Data
 Number of Records Written=          99
