Program Version,EnergyPlus, Version 22.2.0-c249759bad, YMD=2023.09.01 20:51
1,5,Environment Title[],Latitude[deg],Longitude[deg],Time Zone[],Elevation[m]
2,8,Day of Simulation[],Month[],Day of Month[],DST Indicator[1=yes 0=no],Hour[],StartMinute[],EndMinute[],DayType
3,5,Cumulative Day of Simulation[],Month[],Day of Month[],DST Indicator[1=yes 0=no],DayType  ! When Daily Report Variables Requested
4,2,Cumulative Days of Simulation[],Month[]  ! When Monthly Report Variables Requested
5,1,Cumulative Days of Simulation[] ! When Run Period Report Variables Requested
6,1,Calendar Year of Simulation[] ! When Annual Report Variables Requested
581,11,LIVING,AFN Zone Infiltration Air Change Rate [ach] !RunPeriod [Value,Min,Month,Day,Hour,Minute,Max,Month,Day,Hour,Minute]
582,11,ATTIC,AFN Zone Infiltration Air Change Rate [ach] !RunPeriod [Value,Min,Month,Day,Hour,Minute,Max,Month,Day,Hour,Minute]
583,11,CRAWLSPACE,AFN Zone Infiltration Air Change Rate [ach] !RunPeriod [Value,Min,Month,Day,Hour,Minute,Max,Month,Day,Hour,Minute]
1038,11,Facility,Facility Heating Setpoint Not Met Time [hr] !RunPeriod [Value,Min,Month,Day,Hour,Minute,Max,Month,Day,Hour,Minute]
1039,11,Facility,Facility Cooling Setpoint Not Met Time [hr] !RunPeriod [Value,Min,Month,Day,Hour,Minute,Max,Month,Day,Hour,Minute]
1115,11,DX_HEATING_COIL,Heating Coil Heating Energy [J] !RunPeriod [Value,Min,Month,Day,Hour,Minute,Max,Month,Day,Hour,Minute]
1128,11,DX_HEATING_COIL,Heating Coil Electricity Energy [J] !RunPeriod [Value,Min,Month,Day,Hour,Minute,Max,Month,Day,Hour,Minute]
1153,11,DX_HEATING_COIL,Heating Coil Defrost Electricity Energy [J] !RunPeriod [Value,Min,Month,Day,Hour,Minute,Max,Month,Day,Hour,Minute]
1154,11,DX_HEATING_COIL,Heating Coil Crankcase Heater Electricity Energy [J] !RunPeriod [Value,Min,Month,Day,Hour,Minute,Max,Month,Day,Hour,Minute]
1155,11,HEATING_RESISTANCE_BACKUP,Heating Coil Heating Energy [J] !RunPeriod [Value,Min,Month,Day,Hour,Minute,Max,Month,Day,Hour,Minute]
1156,11,HEATING_RESISTANCE_BACKUP,Heating Coil Electricity Energy [J] !RunPeriod [Value,Min,Month,Day,Hour,Minute,Max,Month,Day,Hour,Minute]
1292,11,WATER HEATER,Water Heater Heat Loss Energy [J] !RunPeriod [Value,Min,Month,Day,Hour,Minute,Max,Month,Day,Hour,Minute]
1306,11,WATER HEATER,Water Heater Heating Energy [J] !RunPeriod [Value,Min,Month,Day,Hour,Minute,Max,Month,Day,Hour,Minute]
1307,11,WATER HEATER,Water Heater Unmet Demand Heat Transfer Energy [J] !RunPeriod [Value,Min,Month,Day,Hour,Minute,Max,Month,Day,Hour,Minute]
1308,11,WATER HEATER,Water Heater Electricity Energy [J] !RunPeriod [Value,Min,Month,Day,Hour,Minute,Max,Month,Day,Hour,Minute]
13,11,Electricity:Facility [J] !RunPeriod [Value,Min,Month,Day,Hour,Minute,Max,Month,Day,Hour,Minute]
1134,11,Heating:Electricity [J] !RunPeriod [Value,Min,Month,Day,Hour,Minute,Max,Month,Day,Hour,Minute]
1096,11,Cooling:Electricity [J] !RunPeriod [Value,Min,Month,Day,Hour,Minute,Max,Month,Day,Hour,Minute]
562,11,Fans:Electricity [J] !RunPeriod [Value,Min,Month,Day,Hour,Minute,Max,Month,Day,Hour,Minute]
1379,11,Pumps:Electricity [J] !RunPeriod [Value,Min,Month,Day,Hour,Minute,Max,Month,Day,Hour,Minute]
1326,11,WaterSystems:Electricity [J] !RunPeriod [Value,Min,Month,Day,Hour,Minute,Max,Month,Day,Hour,Minute]
61,11,InteriorLights:Electricity [J] !RunPeriod [Value,Min,Month,Day,Hour,Minute,Max,Month,Day,Hour,Minute]
1046,11,ExteriorLights:Electricity [J] !RunPeriod [Value,Min,Month,Day,Hour,Minute,Max,Month,Day,Hour,Minute]
134,11,InteriorEquipment:Electricity [J] !RunPeriod [Value,Min,Month,Day,Hour,Minute,Max,Month,Day,Hour,Minute]
170,11,gas_dryer:InteriorEquipment:Electricity [J] !RunPeriod [Value,Min,Month,Day,Hour,Minute,Max,Month,Day,Hour,Minute]
207,11,clotheswasher:InteriorEquipment:Electricity [J] !RunPeriod [Value,Min,Month,Day,Hour,Minute,Max,Month,Day,Hour,Minute]
244,11,dishwasher:InteriorEquipment:Electricity [J] !RunPeriod [Value,Min,Month,Day,Hour,Minute,Max,Month,Day,Hour,Minute]
281,11,refrigerator:InteriorEquipment:Electricity [J] !RunPeriod [Value,Min,Month,Day,Hour,Minute,Max,Month,Day,Hour,Minute]
318,11,electric_mels:InteriorEquipment:Electricity [J] !RunPeriod [Value,Min,Month,Day,Hour,Minute,Max,Month,Day,Hour,Minute]
355,11,NaturalGas:Facility [J] !RunPeriod [Value,Min,Month,Day,Hour,Minute,Max,Month,Day,Hour,Minute]
403,11,InteriorEquipment:NaturalGas [J] !RunPeriod [Value,Min,Month,Day,Hour,Minute,Max,Month,Day,Hour,Minute]
476,11,gas_dryer:InteriorEquipment:NaturalGas [J] !RunPeriod [Value,Min,Month,Day,Hour,Minute,Max,Month,Day,Hour,Minute]
513,11,gas_mels:InteriorEquipment:NaturalGas [J] !RunPeriod [Value,Min,Month,Day,Hour,Minute,Max,Month,Day,Hour,Minute]
End of Data Dictionary
1,EXTREME_WINTER,  39.12, -94.60,  -6.00, 231.00
5,7
1038,0.75,0.0, 1,13, 1,15,0.25, 1,16, 6,15
1039,0.0,0.0, 1,13, 1,15,0.0, 1,13, 1,15
581,0.4048228935225119,0.1822798484539898, 1,19,19,60,0.6598543469539125, 1,13, 3,60
582,3.7363074081028174,0.0, 1,19, 5,45,13.676211226657237, 1,18,14,45
583,0.06026415973805453,0.00023162380509958365, 1,19,19,40,0.08707238799058446, 1,13, 3,60
1115,1865466408.855243,0.0, 1,13,23, 5,4406978.72044091, 1,18, 8,30
1128,657707829.8791796,0.0, 1,13,23, 5,1371314.651850885, 1,13, 8,60
1153,16194013.61750296,0.0, 1,13,23, 5,85199.72488549736, 1,18, 7,60
1154,31757078.40484827,0.0, 1,13, 1, 7,180000.0, 1,18,13,30
1155,489483079.88887495,0.0, 1,13,23, 5,5193422.934473823, 1,16, 6,45
1156,489483079.88887495,0.0, 1,13,23, 5,5193422.934473823, 1,16, 6,45
1292,-25022441.489915602,-39742.44582174715, 1,19, 3,30,-5241.265355871198, 1,16, 9,48
1306,351376207.9274198,0.0, 1,13, 1, 7,4050000.0, 1,13, 9,60
1307,157994661.31758967,0.0, 1,13, 1, 7,12535520.011830194, 1,17,19,45
1308,351376207.9274198,0.0, 1,13, 1, 7,4050000.0, 1,13, 9,60
13,1991948498.6696663,458150.8545527997, 1,18,15,15,8801693.12089084, 1,16, 9,45
61,301924526.02383536,88139.10953165221, 1,13, 1,15,1282023.4113694867, 1,13,20,15
134,70666020.44019976,63564.01800854099, 1,13, 4,15,156554.22484006523, 1,18,20,15
170,5241013.419656067,348.4159749238097, 1,13, 4,15,17476.39704006126, 1,18,12,15
207,6509451.13922267,815.2532113832032, 1,13, 3,15,22990.642799023623, 1,18,10,15
244,12749673.399825225,1521.856143006317, 1,13, 4,15,53038.631142310165, 1,18,20,15
281,46165882.481495745,59938.60262432081, 1,13, 5,15,81951.81706819107, 1,13,19,15
318,0.0,0.0, 1,13, 1,15,0.0, 1,13, 1,15
355,197687796.27748066,18561.32405820678, 1,13, 4,15,724774.895203776, 1,18,18,15
403,197687796.27748066,18561.32405820678, 1,13, 4,15,724774.895203776, 1,18,18,15
476,106772067.24485716,7098.072629279515, 1,13, 4,15,356036.3026282215, 1,18,12,15
513,0.0,0.0, 1,13, 1,15,0.0, 1,13, 1,15
562,72839742.48780642,0.0, 1,16,16,15,147293.77767621237, 1,13, 1,15
1046,0.0,0.0, 1,13, 1,15,0.0, 1,13, 1,15
1096,0.0,0.0, 1,13, 1,15,0.0, 1,13, 1,15
1134,1195142001.7904058,180000.0, 1,16,16,15,6457826.161699471, 1,16, 6,45
1326,351376207.92741966,0.0, 1,13, 1,15,4050000.0, 1,13, 9,60
1379,0.0,0.0, 1,13, 1,15,0.0, 1,13, 1,15
1,EXTREME_SUMMER,  39.12, -94.60,  -6.00, 231.00
5,7
1038,0.0,0.0, 8,24, 1,15,0.0, 8,24, 1,15
1039,60.0,0.0, 8,24, 1,15,0.25, 8,24,14,30
581,0.160652059597975,0.002453902289979975, 8,29, 7,15,0.3637255102138264, 8,24,16,51
582,3.699353607359697,0.39827450473221576, 8,28, 4,37,8.696920468936469, 8,28,15,48
583,0.05155799202534456,0.000969971536025239, 8,29,23, 3,0.0777980507418785, 8,27, 6, 3
1115,0.0,0.0, 8,24, 1,15,0.0, 8,24, 1,15
1128,0.0,0.0, 8,24, 1,15,0.0, 8,24, 1,15
1153,0.0,0.0, 8,24, 1,15,0.0, 8,24, 1,15
1154,0.0,0.0, 8,24, 1,15,0.0, 8,24, 1,15
1155,0.0,0.0, 8,24, 1,15,0.0, 8,24, 1,15
1156,0.0,0.0, 8,24, 1,15,0.0, 8,24, 1,15
1292,-21631845.999830067,-34300.86168979197, 8,24,22,45,-3916.4077760614464, 8,30, 9,47
1306,247231257.80764621,0.0, 8,24, 1,15,2521944.947962014, 8,26,16,30
1307,74990534.58523971,0.0, 8,24, 1,15,2122940.149110979, 8,28, 9,51
1308,247231257.80764621,0.0, 8,24, 1,15,2521944.947962014, 8,26,16,30
13,1369204727.148606,351383.4601630387, 8,28, 4,60,7121091.773930902, 8,30,21,15
61,301924526.02383536,88139.10953165221, 8,24, 1,15,1282023.4113694867, 8,24,20,15
134,70666020.44019976,63564.01800854099, 8,24, 4,15,156554.22484006523, 8,29,20,15
170,5241013.419656067,348.4159749238097, 8,24, 4,15,17476.39704006126, 8,29,12,15
207,6509451.13922267,815.2532113832032, 8,24, 3,15,22990.642799023623, 8,29,10,15
244,12749673.399825225,1521.856143006317, 8,24, 4,15,53038.631142310165, 8,29,20,15
281,46165882.481495745,59938.60262432081, 8,24, 5,15,81951.81706819107, 8,24,19,15
318,0.0,0.0, 8,24, 1,15,0.0, 8,24, 1,15
355,197687796.27748066,18561.32405820678, 8,24, 4,15,724774.895203776, 8,29,18,15
403,197687796.27748066,18561.32405820678, 8,24, 4,15,724774.895203776, 8,29,18,15
476,106772067.24485716,7098.072629279515, 8,24, 4,15,356036.3026282215, 8,29,12,15
513,0.0,0.0, 8,24, 1,15,0.0, 8,24, 1,15
562,67574505.88793898,19579.79339081412, 8,28, 5,60,147293.77767621237, 8,24,13,60
1046,0.0,0.0, 8,24, 1,15,0.0, 8,24, 1,15
1096,681808416.9889868,169854.74316036736, 8,28, 5,60,1711857.8745513177, 8,30,16,60
1134,0.0,0.0, 8,24, 1,15,0.0, 8,24, 1,15
1326,247231257.80764616,0.0, 8,24, 1,15,4050000.0, 8,24, 9,60
1379,0.0,0.0, 8,24, 1,15,0.0, 8,24, 1,15
1,ANNUAL,  39.12, -94.60,  -6.00, 231.00
5,365
1038,5.0,0.0, 1, 1, 1,15,0.25, 1,16, 6,15
1039,475.5,0.0, 1, 1, 1,15,0.25, 3,24,16,45
581,0.24814944042507303,0.0, 5,27,23, 3,1.1414445673209686, 6,27, 5,60
582,3.979799440167722,0.0, 1, 1,19,50,23.36754736433491, 2,10,17,52
583,0.03033991242455723,0.0, 5,27,23, 3,0.09420572355500706, 9,23,14,52
1115,17513041833.550636,0.0, 1, 1, 1,15,4540195.423366975, 1, 8, 6,45
1128,5723528236.996939,0.0, 1, 1, 1,15,1429174.4458325105, 3, 3, 6,45
1153,159259868.30930698,0.0, 1, 1, 1,15,128573.69124684324, 3,28,15,60
1154,1488084282.435973,0.0, 1, 1, 6, 5,180000.0, 1, 1, 1,15
1155,2079505173.6648145,0.0, 1, 1, 1,15,5193422.934473823, 1,16, 6,45
1156,2079505173.6648145,0.0, 1, 1, 1,15,5193422.934473823, 1,16, 6,45
1292,-1201215053.4130974,-39793.733780409384, 4,16, 3,45,-1531.2406897485748, 4,13, 9,44
1306,15620600359.237762,0.0, 1, 1, 1,15,4050000.0, 1, 2,21,45
1307,6034571579.275896,0.0, 1, 1, 1,15,16566602.856536714, 2,10, 9,60
1308,15620600359.237762,0.0, 1, 1, 1,15,4050000.0, 1, 2,21,45
13,58149243432.830025,151703.1275401932, 3, 6, 4,15,10491669.02045899, 1,16, 8,30
61,15743207428.383959,88139.10953165221, 1, 1, 1,15,1282023.4113694867, 1, 1,20,15
134,3685071073.4325233,63564.01800854099, 1, 2, 4,15,156554.22484006523, 1, 1,20,15
170,273393721.45532674,348.4159749238097, 1, 2, 4,15,17476.39704006126, 1, 1,12,15
207,339560869.0695816,815.2532113832032, 1, 2, 3,15,22990.642799023623, 1, 1,10,15
244,664895467.8009144,1521.856143006317, 1, 2, 4,15,53038.631142310165, 1, 1,20,15
281,2407221015.106824,59938.60262432081, 1, 1, 5,15,81951.81706819107, 1, 1,19,15
318,0.0,0.0, 1, 1, 1,15,0.0, 1, 1, 1,15
355,10310294493.051695,18561.32405820678, 1, 2, 4,15,724774.895203776, 1, 1,18,15
403,10310294493.051695,18561.32405820678, 1, 2, 4,15,724774.895203776, 1, 1,18,15
476,5569688622.066177,7098.072629279515, 1, 2, 4,15,356036.3026282215, 1, 1,12,15
513,0.0,0.0, 1, 1, 1,15,0.0, 1, 1, 1,15
562,1917853716.8610523,0.0, 1, 1, 1,15,147293.77767621237, 1, 2, 6,45
1046,0.0,0.0, 1, 1, 1,15,0.0, 1, 1, 1,15
1096,11732133293.505508,0.0, 1, 1, 1,15,1714704.063486685, 8,30,16,60
1134,9450377561.407078,0.0, 1, 3,12,60,6456660.900134623, 1,16, 6,60
1326,15620600359.23773,0.0, 1, 1, 1,15,4050000.0000000014, 4,13, 9,60
1379,0.0,0.0, 1, 1, 1,15,0.0, 1, 1, 1,15
End of Data
 Number of Records Written=          99
