Program Version,EnergyPlus, Version 22.2.0-c249759bad, YMD=2023.07.07 15:18
1,5,Environment Title[],Latitude[deg],Longitude[deg],Time Zone[],Elevation[m]
2,8,Day of Simulation[],Month[],Day of Month[],DST Indicator[1=yes 0=no],Hour[],StartMinute[],EndMinute[],DayType
3,5,Cumulative Day of Simulation[],Month[],Day of Month[],DST Indicator[1=yes 0=no],DayType  ! When Daily Report Variables Requested
4,2,Cumulative Days of Simulation[],Month[]  ! When Monthly Report Variables Requested
5,1,Cumulative Days of Simulation[] ! When Run Period Report Variables Requested
6,1,Calendar Year of Simulation[] ! When Annual Report Variables Requested
581,11,LIVING,AFN Zone Infiltration Air Change Rate [ach] !RunPeriod [Value,Min,Month,Day,Hour,Minute,Max,Month,Day,Hour,Minute]
582,11,ATTIC,AFN Zone Infiltration Air Change Rate [ach] !RunPeriod [Value,Min,Month,Day,Hour,Minute,Max,Month,Day,Hour,Minute]
583,11,CRAWLSPACE,AFN Zone Infiltration Air Change Rate [ach] !RunPeriod [Value,Min,Month,Day,Hour,Minute,Max,Month,Day,Hour,Minute]
1038,11,Facility,Facility Heating Setpoint Not Met Time [hr] !RunPeriod [Value,Min,Month,Day,Hour,Minute,Max,Month,Day,Hour,Minute]
1039,11,Facility,Facility Cooling Setpoint Not Met Time [hr] !RunPeriod [Value,Min,Month,Day,Hour,Minute,Max,Month,Day,Hour,Minute]
1115,11,DX_HEATING_COIL,Heating Coil Heating Energy [J] !RunPeriod [Value,Min,Month,Day,Hour,Minute,Max,Month,Day,Hour,Minute]
1128,11,DX_HEATING_COIL,Heating Coil Electricity Energy [J] !RunPeriod [Value,Min,Month,Day,Hour,Minute,Max,Month,Day,Hour,Minute]
1153,11,DX_HEATING_COIL,Heating Coil Defrost Electricity Energy [J] !RunPeriod [Value,Min,Month,Day,Hour,Minute,Max,Month,Day,Hour,Minute]
1154,11,DX_HEATING_COIL,Heating Coil Crankcase Heater Electricity Energy [J] !RunPeriod [Value,Min,Month,Day,Hour,Minute,Max,Month,Day,Hour,Minute]
1156,11,HEATING_RESISTANCE_BACKUP,Heating Coil Electricity Energy [J] !RunPeriod [Value,Min,Month,Day,Hour,Minute,Max,Month,Day,Hour,Minute]
13,11,Electricity:Facility [J] !RunPeriod [Value,Min,Month,Day,Hour,Minute,Max,Month,Day,Hour,Minute]
1134,11,Heating:Electricity [J] !RunPeriod [Value,Min,Month,Day,Hour,Minute,Max,Month,Day,Hour,Minute]
1096,11,Cooling:Electricity [J] !RunPeriod [Value,Min,Month,Day,Hour,Minute,Max,Month,Day,Hour,Minute]
562,11,Fans:Electricity [J] !RunPeriod [Value,Min,Month,Day,Hour,Minute,Max,Month,Day,Hour,Minute]
1388,11,Pumps:Electricity [J] !RunPeriod [Value,Min,Month,Day,Hour,Minute,Max,Month,Day,Hour,Minute]
1360,11,WaterSystems:Electricity [J] !RunPeriod [Value,Min,Month,Day,Hour,Minute,Max,Month,Day,Hour,Minute]
61,11,InteriorLights:Electricity [J] !RunPeriod [Value,Min,Month,Day,Hour,Minute,Max,Month,Day,Hour,Minute]
1046,11,ExteriorLights:Electricity [J] !RunPeriod [Value,Min,Month,Day,Hour,Minute,Max,Month,Day,Hour,Minute]
134,11,InteriorEquipment:Electricity [J] !RunPeriod [Value,Min,Month,Day,Hour,Minute,Max,Month,Day,Hour,Minute]
170,11,gas_dryer:InteriorEquipment:Electricity [J] !RunPeriod [Value,Min,Month,Day,Hour,Minute,Max,Month,Day,Hour,Minute]
207,11,clotheswasher:InteriorEquipment:Electricity [J] !RunPeriod [Value,Min,Month,Day,Hour,Minute,Max,Month,Day,Hour,Minute]
244,11,dishwasher:InteriorEquipment:Electricity [J] !RunPeriod [Value,Min,Month,Day,Hour,Minute,Max,Month,Day,Hour,Minute]
281,11,refrigerator:InteriorEquipment:Electricity [J] !RunPeriod [Value,Min,Month,Day,Hour,Minute,Max,Month,Day,Hour,Minute]
318,11,electric_mels:InteriorEquipment:Electricity [J] !RunPeriod [Value,Min,Month,Day,Hour,Minute,Max,Month,Day,Hour,Minute]
355,11,NaturalGas:Facility [J] !RunPeriod [Value,Min,Month,Day,Hour,Minute,Max,Month,Day,Hour,Minute]
1323,11,WaterSystems:NaturalGas [J] !RunPeriod [Value,Min,Month,Day,Hour,Minute,Max,Month,Day,Hour,Minute]
403,11,InteriorEquipment:NaturalGas [J] !RunPeriod [Value,Min,Month,Day,Hour,Minute,Max,Month,Day,Hour,Minute]
476,11,gas_dryer:InteriorEquipment:NaturalGas [J] !RunPeriod [Value,Min,Month,Day,Hour,Minute,Max,Month,Day,Hour,Minute]
513,11,gas_mels:InteriorEquipment:NaturalGas [J] !RunPeriod [Value,Min,Month,Day,Hour,Minute,Max,Month,Day,Hour,Minute]
End of Data Dictionary
1,EXTREME_WINTER,  44.74, -85.58,  -5.00, 188.40
5,7
1038,2.1666666666666665,0.0,12,15, 1,10,0.16666666666666666,12,15, 6,10
1039,0.0,0.0,12,15, 1,10,0.0,12,15, 1,10
581,0.36410439573313336,0.20171169990655602,12,21,22,10,0.7286081682628667,12,21,10,60
582,5.40122972177838,0.0,12,18, 9,30,19.30229554044474,12,15, 7,55
583,6.196203977721469,0.5982599955038196,12,18,16,60,20.536502070620003,12,21,10,60
1115,2048921150.6410947,0.0,12,15,23, 2,2699003.4030632996,12,21,15,50
1128,690285396.5616351,0.0,12,15,23, 2,762240.5124583831,12,21,15,50
1153,13431274.646137346,0.0,12,15,23, 2,35406.35173042448,12,18,20,10
1154,2938085.6520744986,0.0,12,15, 1, 1,68680.28564310684,12,21,17,40
1156,1767372345.2717164,0.0,12,15,23, 2,3842114.332060022,12,16, 6,10
13,2931046517.0393124,600697.6724837391,12,21,23,10,5077719.64788476,12,16, 7,30
61,301924526.0238348,58759.40635443481,12,15, 1,10,854682.2742463244,12,15,20,10
134,70666020.44019979,42376.01200569399,12,15, 4,10,104369.48322671017,12,20,20,10
170,5241013.419656074,232.27731661587313,12,15, 4,10,11650.931360040839,12,20,12,10
207,6509451.13922266,543.5021409221355,12,15, 3,10,15327.095199349082,12,20,10,10
244,12749673.39982522,1014.5707620042115,12,15, 4,10,35359.08742820678,12,20,20,10
281,46165882.48149605,39959.06841621388,12,15, 5,10,54634.54471212738,12,15,19,10
318,0.0,0.0,12,15, 1,10,0.0,12,15, 1,10
355,723243266.9034828,12374.216038804521,12,15, 4,10,3829218.154066982,12,16,18,60
403,197687796.27748126,12374.216038804521,12,15, 4,10,483183.26346918393,12,20,18,10
476,106772067.24485692,4732.048419519677,12,15, 4,10,237357.535085481,12,20,12,10
513,0.0,0.0,12,15, 1,10,0.0,12,15, 1,10
562,79409028.4437166,4609.822409875359,12,21,23,10,80750.56081348017,12,15, 1,10
1046,0.0,0.0,12,15, 1,10,0.0,12,15, 1,10
1096,0.0,0.0,12,15, 1,10,0.0,12,15, 1,10
1134,2474027102.1315613,156759.65421206414,12,21,23,10,4528246.149009797,12,20, 6,10
1323,525555470.62599945,0.0,12,15, 1,10,3375000.000000002,12,21,11,10
1360,5019840.0,4980.0,12,15, 1,20,4980.000000000002,12,19, 3,40
1388,0.0,0.0,12,15, 1,10,0.0,12,15, 1,10
1,EXTREME_SUMMER,  44.74, -85.58,  -5.00, 188.40
5,7
1038,0.0,0.0, 8,24, 1,10,0.0, 8,24, 1,10
1039,33.0,0.0, 8,24, 1,10,0.16666666666666666, 8,24,14,60
581,0.08475880155744411,0.0, 8,26,10,23,0.35934182514090396, 8,30,17,55
582,2.3843604490114183,0.0, 8,24,22,13,9.87021616392307, 8,26,16,53
583,2.721427908560474,0.0, 8,26,23, 2,11.992354387372693, 8,25,12,55
1115,0.0,0.0, 8,24, 1,10,0.0, 8,24, 1,10
1128,0.0,0.0, 8,24, 1,10,0.0, 8,24, 1,10
1153,0.0,0.0, 8,24, 1,10,0.0, 8,24, 1,10
1154,0.0,0.0, 8,24, 1,10,0.0, 8,24, 1,10
1156,0.0,0.0, 8,24, 1,10,0.0, 8,24, 1,10
13,766673689.9034132,106115.4183601288, 8,24, 4,10,1792419.5882235202, 8,25,20,10
61,301924526.0238348,58759.40635443481, 8,24, 1,10,854682.2742463244, 8,24,20,10
134,70666020.44019979,42376.01200569399, 8,24, 4,10,104369.48322671017, 8,29,20,10
170,5241013.419656074,232.27731661587313, 8,24, 4,10,11650.931360040839, 8,29,12,10
207,6509451.13922266,543.5021409221355, 8,24, 3,10,15327.095199349082, 8,29,10,10
244,12749673.39982522,1014.5707620042115, 8,24, 4,10,35359.08742820678, 8,29,20,10
281,46165882.48149605,39959.06841621388, 8,24, 5,10,54634.54471212738, 8,24,19,10
318,0.0,0.0, 8,24, 1,10,0.0, 8,24, 1,10
355,617866915.13219,12374.216038804521, 8,24, 4,10,3829218.154066982, 8,28,18,20
403,197687796.27748126,12374.216038804521, 8,24, 4,10,483183.26346918393, 8,29,18,10
476,106772067.24485692,4732.048419519677, 8,24, 4,10,237357.535085481, 8,29,12,10
513,0.0,0.0, 8,24, 1,10,0.0, 8,24, 1,10
562,39403275.41747237,0.0, 8,24, 3,50,80750.56081348019, 8,24,15,50
1046,0.0,0.0, 8,24, 1,10,0.0, 8,24, 1,10
1096,349660028.0219064,0.0, 8,24, 3,50,817541.1578084393, 8,25,15,60
1134,0.0,0.0, 8,24, 1,10,0.0, 8,24, 1,10
1323,420179118.8547089,0.0, 8,24, 1,10,3375000.000000001, 8,28, 9,60
1360,5019840.0,4979.999999999999, 8,29, 8,40,4980.000000000001, 8,24, 8,50
1388,0.0,0.0, 8,24, 1,10,0.0, 8,24, 1,10
1,ANNUAL,  44.74, -85.58,  -5.00, 188.40
5,365
1038,67.16666666666661,0.0, 1, 1, 1,10,0.16666666666666666, 1, 1, 6,10
1039,361.3333333333334,0.0, 1, 1, 1,10,0.16666666666666666, 4,17,14,60
581,0.22375074648568738,0.0, 5,30, 2,60,1.0171088511150441,11,24,19,60
582,3.2508419523814753,0.0, 1, 5,19,10,24.45557927914864,11,24,18,60
583,3.8285901389984494,0.0, 5,30, 3,60,29.139821197619536,11,24,19,60
1115,35649597436.200645,0.0, 1, 1,23, 3,2846822.903621249, 3,24, 6,10
1128,11128642529.74576,0.0, 1, 1,23, 3,794184.322027486, 3,24, 7,10
1153,398069749.66759133,0.0, 1, 1, 1,32,73544.91115339177,12,27, 8,60
1154,1539229777.0725806,0.0, 1, 1, 6, 2,120000.0, 1, 2,13,60
1156,12419373800.532345,0.0, 1, 1, 1, 5,3842114.332060022, 2, 4, 3,50
13,53430554814.8441,106115.4183601288, 4,13, 4,10,5116011.546068443,12,15,22,60
61,15743207428.39043,58759.40635443481, 1, 1, 1,10,854682.2742463244, 1, 1,20,10
134,3685071073.433083,42376.01200569399, 1, 2, 4,10,104369.48322671017, 1, 1,20,10
170,273393721.45534325,232.27731661587313, 1, 2, 4,10,11650.931360040839, 1, 1,12,10
207,339560869.06955314,543.5021409221355, 1, 2, 3,10,15327.095199349082, 1, 1,10,10
244,664895467.8009839,1014.5707620042115, 1, 2, 4,10,35359.08742820678, 1, 1,20,10
281,2407221015.1057043,39959.06841621388, 1, 1, 5,10,54634.54471212738, 1, 1,19,10
318,0.0,0.0, 1, 1, 1,10,0.0, 1, 1, 1,10
355,35772440958.28153,12374.216038804521, 1, 2, 4,10,3829218.154066983,11, 3,18,30
403,10310294493.052883,12374.216038804521, 1, 2, 4,10,483183.26346918393, 1, 1,18,10
476,5569688622.065564,4732.048419519677, 1, 2, 4,10,237357.535085481, 1, 1,12,10
513,0.0,0.0, 1, 1, 1,10,0.0, 1, 1, 1,10
562,2004613972.7380583,0.0, 1, 1,23,10,80750.56081348019, 2, 3, 7,20
1046,0.0,0.0, 1, 1, 1,10,0.0, 1, 1, 1,10
1096,6250597683.27057,0.0, 1, 1, 1,10,829367.0533660601, 8,21,14,60
1134,25485315857.01823,0.0, 2,10,11,20,4546219.488160976, 2,19,10,30
1323,25462146465.232635,0.0, 1, 1, 1,10,3375000.0000000023, 7, 9,10,20
1360,261748800.0,4979.999999999998, 6, 1,19,20,4980.000000000002, 1, 7, 2,20
1388,0.0,0.0, 1, 1, 1,10,0.0, 1, 1, 1,10
End of Data
 Number of Records Written=          87
