Program Version,EnergyPlus, Version 22.2.0-c249759bad, YMD=2023.09.01 20:47
1,5,Environment Title[],Latitude[deg],Longitude[deg],Time Zone[],Elevation[m]
2,8,Day of Simulation[],Month[],Day of Month[],DST Indicator[1=yes 0=no],Hour[],StartMinute[],EndMinute[],DayType
3,5,Cumulative Day of Simulation[],Month[],Day of Month[],DST Indicator[1=yes 0=no],DayType  ! When Daily Report Variables Requested
4,2,Cumulative Days of Simulation[],Month[]  ! When Monthly Report Variables Requested
5,1,Cumulative Days of Simulation[] ! When Run Period Report Variables Requested
6,1,Calendar Year of Simulation[] ! When Annual Report Variables Requested
581,11,LIVING,AFN Zone Infiltration Air Change Rate [ach] !RunPeriod [Value,Min,Month,Day,Hour,Minute,Max,Month,Day,Hour,Minute]
582,11,ATTIC,AFN Zone Infiltration Air Change Rate [ach] !RunPeriod [Value,Min,Month,Day,Hour,Minute,Max,Month,Day,Hour,Minute]
583,11,CRAWLSPACE,AFN Zone Infiltration Air Change Rate [ach] !RunPeriod [Value,Min,Month,Day,Hour,Minute,Max,Month,Day,Hour,Minute]
1038,11,Facility,Facility Heating Setpoint Not Met Time [hr] !RunPeriod [Value,Min,Month,Day,Hour,Minute,Max,Month,Day,Hour,Minute]
1039,11,Facility,Facility Cooling Setpoint Not Met Time [hr] !RunPeriod [Value,Min,Month,Day,Hour,Minute,Max,Month,Day,Hour,Minute]
1115,11,DX_HEATING_COIL,Heating Coil Heating Energy [J] !RunPeriod [Value,Min,Month,Day,Hour,Minute,Max,Month,Day,Hour,Minute]
1128,11,DX_HEATING_COIL,Heating Coil Electricity Energy [J] !RunPeriod [Value,Min,Month,Day,Hour,Minute,Max,Month,Day,Hour,Minute]
1153,11,DX_HEATING_COIL,Heating Coil Defrost Electricity Energy [J] !RunPeriod [Value,Min,Month,Day,Hour,Minute,Max,Month,Day,Hour,Minute]
1154,11,DX_HEATING_COIL,Heating Coil Crankcase Heater Electricity Energy [J] !RunPeriod [Value,Min,Month,Day,Hour,Minute,Max,Month,Day,Hour,Minute]
1155,11,HEATING_RESISTANCE_BACKUP,Heating Coil Heating Energy [J] !RunPeriod [Value,Min,Month,Day,Hour,Minute,Max,Month,Day,Hour,Minute]
1156,11,HEATING_RESISTANCE_BACKUP,Heating Coil Electricity Energy [J] !RunPeriod [Value,Min,Month,Day,Hour,Minute,Max,Month,Day,Hour,Minute]
1292,11,WATER HEATER,Water Heater Heat Loss Energy [J] !RunPeriod [Value,Min,Month,Day,Hour,Minute,Max,Month,Day,Hour,Minute]
1306,11,WATER HEATER,Water Heater Heating Energy [J] !RunPeriod [Value,Min,Month,Day,Hour,Minute,Max,Month,Day,Hour,Minute]
1307,11,WATER HEATER,Water Heater Unmet Demand Heat Transfer Energy [J] !RunPeriod [Value,Min,Month,Day,Hour,Minute,Max,Month,Day,Hour,Minute]
1308,11,WATER HEATER,Water Heater Electricity Energy [J] !RunPeriod [Value,Min,Month,Day,Hour,Minute,Max,Month,Day,Hour,Minute]
13,11,Electricity:Facility [J] !RunPeriod [Value,Min,Month,Day,Hour,Minute,Max,Month,Day,Hour,Minute]
1134,11,Heating:Electricity [J] !RunPeriod [Value,Min,Month,Day,Hour,Minute,Max,Month,Day,Hour,Minute]
1096,11,Cooling:Electricity [J] !RunPeriod [Value,Min,Month,Day,Hour,Minute,Max,Month,Day,Hour,Minute]
562,11,Fans:Electricity [J] !RunPeriod [Value,Min,Month,Day,Hour,Minute,Max,Month,Day,Hour,Minute]
1379,11,Pumps:Electricity [J] !RunPeriod [Value,Min,Month,Day,Hour,Minute,Max,Month,Day,Hour,Minute]
1326,11,WaterSystems:Electricity [J] !RunPeriod [Value,Min,Month,Day,Hour,Minute,Max,Month,Day,Hour,Minute]
61,11,InteriorLights:Electricity [J] !RunPeriod [Value,Min,Month,Day,Hour,Minute,Max,Month,Day,Hour,Minute]
1046,11,ExteriorLights:Electricity [J] !RunPeriod [Value,Min,Month,Day,Hour,Minute,Max,Month,Day,Hour,Minute]
134,11,InteriorEquipment:Electricity [J] !RunPeriod [Value,Min,Month,Day,Hour,Minute,Max,Month,Day,Hour,Minute]
170,11,gas_dryer:InteriorEquipment:Electricity [J] !RunPeriod [Value,Min,Month,Day,Hour,Minute,Max,Month,Day,Hour,Minute]
207,11,clotheswasher:InteriorEquipment:Electricity [J] !RunPeriod [Value,Min,Month,Day,Hour,Minute,Max,Month,Day,Hour,Minute]
244,11,dishwasher:InteriorEquipment:Electricity [J] !RunPeriod [Value,Min,Month,Day,Hour,Minute,Max,Month,Day,Hour,Minute]
281,11,refrigerator:InteriorEquipment:Electricity [J] !RunPeriod [Value,Min,Month,Day,Hour,Minute,Max,Month,Day,Hour,Minute]
318,11,electric_mels:InteriorEquipment:Electricity [J] !RunPeriod [Value,Min,Month,Day,Hour,Minute,Max,Month,Day,Hour,Minute]
355,11,NaturalGas:Facility [J] !RunPeriod [Value,Min,Month,Day,Hour,Minute,Max,Month,Day,Hour,Minute]
403,11,InteriorEquipment:NaturalGas [J] !RunPeriod [Value,Min,Month,Day,Hour,Minute,Max,Month,Day,Hour,Minute]
476,11,gas_dryer:InteriorEquipment:NaturalGas [J] !RunPeriod [Value,Min,Month,Day,Hour,Minute,Max,Month,Day,Hour,Minute]
513,11,gas_mels:InteriorEquipment:NaturalGas [J] !RunPeriod [Value,Min,Month,Day,Hour,Minute,Max,Month,Day,Hour,Minute]
End of Data Dictionary
1,EXTREME_WINTER,  41.15,-104.82,  -7.00,1872.00
5,7
1038,0.75,0.0,12,22, 1,15,0.25,12,26, 6,15
1039,0.0,0.0,12,22, 1,15,0.0,12,22, 1,15
581,0.47295881638448295,0.2193009590125445,12,22,23,22,0.9946830358207653,12,25,23,52
582,6.598223073515132,0.0,12,25, 7,60,24.994059302980837,12,23,24,60
583,0.06448662665470066,0.0006524995422665216,12,28,17,20,0.10139887251199001,12,25,23,52
1115,1826460110.575039,0.0,12,22,13,60,4383636.217631183,12,23, 8,45
1128,678770637.1531192,0.0,12,22,13,60,1505429.9330815698,12,23, 8,45
1153,7323442.244368018,0.0,12,22,13,60,47385.662607654274,12,25,21,60
1154,34836994.6744715,0.0,12,22, 6, 5,180000.0,12,22,13,60
1155,696170813.2966863,0.0,12,22, 1,15,5681563.192795101,12,27, 7,60
1156,696170813.2966863,0.0,12,22, 1,15,5681563.192795101,12,27, 7,60
1292,-25260238.91744363,-39769.70238498643,12,22, 1,15,-3325.9695649212713,12,28,10,32
1306,272140631.848725,0.0,12,22, 1,15,4050000.0,12,22, 8,45
1307,92620627.46745767,0.0,12,22, 1,15,14605695.130369047,12,22, 8,30
1308,272140631.848725,0.0,12,22, 1,15,4050000.0,12,22, 8,45
13,2137906993.9261634,452017.0388981225,12,22,15,15,10388796.185049567,12,27, 8,15
61,301924526.02383536,88139.10953165221,12,22, 1,15,1282023.4113694867,12,22,20,15
134,70666020.44019976,63564.01800854099,12,22, 4,15,156554.22484006523,12,27,20,15
170,5241013.419656067,348.4159749238097,12,22, 4,15,17476.39704006126,12,27,12,15
207,6509451.13922267,815.2532113832032,12,22, 3,15,22990.642799023623,12,27,10,15
244,12749673.399825225,1521.856143006317,12,22, 4,15,53038.631142310165,12,27,20,15
281,46165882.481495745,59938.60262432081,12,22, 5,15,81951.81706819107,12,22,19,15
318,0.0,0.0,12,22, 1,15,0.0,12,22, 1,15
355,197687796.27748066,18561.32405820678,12,22, 4,15,724774.895203776,12,27,18,15
403,197687796.27748066,18561.32405820678,12,22, 4,15,724774.895203776,12,27,18,15
476,106772067.24485716,7098.072629279515,12,22, 4,15,356036.3026282215,12,27,12,15
513,0.0,0.0,12,22, 1,15,0.0,12,22, 1,15
562,76073928.2447604,0.0,12,22,13,60,159135.74342169776,12,23, 6,30
1046,0.0,0.0,12,22, 1,15,0.0,12,22, 1,15
1096,0.0,0.0,12,22, 1,15,0.0,12,22, 1,15
1134,1417101887.3686442,180000.0,12,22,13,60,7270417.440503838,12,26, 6,15
1326,272140631.84872496,0.0,12,22, 1,15,4050000.0,12,22, 8,45
1379,0.0,0.0,12,22, 1,15,0.0,12,22, 1,15
1,EXTREME_SUMMER,  41.15,-104.82,  -7.00,1872.00
5,7
1038,0.0,0.0, 7,27, 1,15,0.0, 7,27, 1,15
1039,0.0,0.0, 7,27, 1,15,0.0, 7,27, 1,15
581,0.2061808089988414,0.021856123053839924, 7,31, 7,46,0.5076574597739353, 7,29,19,50
582,4.2331339350366335,0.02127300769084482, 7,31, 3,40,10.597395925472446, 8, 1,18,48
583,0.03055647947397891,0.0005140522403457832, 8, 1, 4,30,0.07597860082577376, 7,30,17,18
1115,0.0,0.0, 7,27, 1,15,0.0, 7,27, 1,15
1128,0.0,0.0, 7,27, 1,15,0.0, 7,27, 1,15
1153,0.0,0.0, 7,27, 1,15,0.0, 7,27, 1,15
1154,0.0,0.0, 7,27, 1,15,0.0, 7,27, 1,15
1155,0.0,0.0, 7,27, 1,15,0.0, 7,27, 1,15
1156,0.0,0.0, 7,27, 1,15,0.0, 7,27, 1,15
1292,-22097801.683758885,-34341.50844282511, 8, 1,21,30,-1964.6186588685066, 7,31, 8,46
1306,225644152.41051316,0.0, 7,27, 1,15,4050000.0, 7,30, 6,60
1307,64036977.01588288,0.0, 7,27, 1,15,2935324.9116043416, 7,28, 7,15
1308,225644152.41051316,0.0, 7,27, 1,15,4050000.0, 7,30, 6,60
13,976890667.1686546,151703.1275401932, 7,27, 4,15,5992931.132875749, 7,29,17,30
61,301924526.02383536,88139.10953165221, 7,27, 1,15,1282023.4113694867, 7,27,20,15
134,70666020.44019976,63564.01800854099, 7,27, 4,15,156554.22484006523, 8, 1,20,15
170,5241013.419656067,348.4159749238097, 7,27, 4,15,17476.39704006126, 8, 1,12,15
207,6509451.13922267,815.2532113832032, 7,27, 3,15,22990.642799023623, 8, 1,10,15
244,12749673.399825225,1521.856143006317, 7,27, 4,15,53038.631142310165, 8, 1,20,15
281,46165882.481495745,59938.60262432081, 7,27, 5,15,81951.81706819107, 7,27,19,15
318,0.0,0.0, 7,27, 1,15,0.0, 7,27, 1,15
355,197687796.27748066,18561.32405820678, 7,27, 4,15,724774.895203776, 8, 1,18,15
403,197687796.27748066,18561.32405820678, 7,27, 4,15,724774.895203776, 8, 1,18,15
476,106772067.24485716,7098.072629279515, 7,27, 4,15,356036.3026282215, 8, 1,12,15
513,0.0,0.0, 7,27, 1,15,0.0, 7,27, 1,15
562,39523470.23105797,0.0, 7,27, 2,30,156763.5291772646, 7,30,17,30
1046,0.0,0.0, 7,27, 1,15,0.0, 7,27, 1,15
1096,339132498.0630481,0.0, 7,27, 2,30,1525714.6208641946, 7,30,17,15
1134,0.0,0.0, 7,27, 1,15,0.0, 7,27, 1,15
1326,225644152.41051307,0.0, 7,27, 1,15,4050000.0, 7,27, 8,45
1379,0.0,0.0, 7,27, 1,15,0.0, 7,27, 1,15
1,ANNUAL,  41.15,-104.82,  -7.00,1872.00
5,365
1038,6.5,0.0, 1, 1, 1,15,0.25, 1, 5, 6,15
1039,13.75,0.0, 1, 1, 1,15,0.25, 3,15,17,15
581,0.35732868948201435,0.00946118627371116, 8,22,23,20,1.3869916548151, 3,22,14,52
582,6.873276420385347,0.0, 1, 2,23,52,43.023493256603146, 2, 7,14,60
583,0.02992548513506423,0.00007702763355216106, 6, 2, 7,57,0.10848369445070438, 4,23,22,60
1115,32751576769.377865,0.0, 1, 1,23, 3,5208146.27453222, 1,13, 8,45
1128,10842632981.290737,0.0, 1, 1,23, 3,1575914.6010822167, 1,13, 8,45
1153,261217022.87708557,0.0, 1, 1,23, 3,141769.09113462907, 3,28, 6,60
1154,2234860521.448777,0.0, 1, 1, 6, 5,180000.0, 1, 2,13,15
1155,4258785890.8859754,0.0, 1, 1, 1, 5,5890776.215001306, 1, 5, 6,15
1156,4258785890.8859754,0.0, 1, 1, 1, 5,5890776.215001306, 1, 5, 6,15
1292,-1240487874.5474393,-39827.51724689783, 3,22, 5,45,-1521.0928667685826, 5,29, 8,31
1306,13274203889.196056,0.0, 1, 1, 1, 5,4050000.0, 1, 1, 9,45
1307,4274486518.8596544,0.0, 1, 1, 1, 5,15567889.691349177, 2,13, 8,30
1308,13274203889.196056,0.0, 1, 1, 1, 5,4050000.0, 1, 1, 9,45
13,57314862110.76744,151703.1275401932, 4,13, 4,15,12141028.529289281, 1, 5, 7,15
61,15743207428.383959,88139.10953165221, 1, 1, 1,15,1282023.4113694867, 1, 1,20,15
134,3685071073.4325233,63564.01800854099, 1, 2, 4,15,156554.22484006523, 1, 1,20,15
170,273393721.45532674,348.4159749238097, 1, 2, 4,15,17476.39704006126, 1, 1,12,15
207,339560869.0695816,815.2532113832032, 1, 2, 3,15,22990.642799023623, 1, 1,10,15
244,664895467.8009144,1521.856143006317, 1, 2, 4,15,53038.631142310165, 1, 1,20,15
281,2407221015.106824,59938.60262432081, 1, 1, 5,15,81951.81706819107, 1, 1,19,15
318,0.0,0.0, 1, 1, 1,15,0.0, 1, 1, 1,15
355,10310294493.051695,18561.32405820678, 1, 2, 4,15,724774.895203776, 1, 1,18,15
403,10310294493.051695,18561.32405820678, 1, 2, 4,15,724774.895203776, 1, 1,18,15
476,5569688622.066177,7098.072629279515, 1, 2, 4,15,356036.3026282215, 1, 1,12,15
513,0.0,0.0, 1, 1, 1,15,0.0, 1, 1, 1,15
562,1818424815.0642157,0.0, 1, 2,11,60,159135.74342169776, 1, 1, 6,45
1046,0.0,0.0, 1, 1, 1,15,0.0, 1, 1, 1,15
1096,5196458488.1868925,0.0, 1, 1, 1,15,1571536.6927750558, 7,30,16,60
1134,17597496416.50259,0.0, 1, 3,14,60,7277380.126062271,12,26, 6,30
1326,13274203889.196062,0.0, 1, 1, 1,15,4050000.0000000014, 3,12,10,30
1379,0.0,0.0, 1, 1, 1,15,0.0, 1, 1, 1,15
End of Data
 Number of Records Written=          99
