Program Version,EnergyPlus, Version 22.2.0-c249759bad, YMD=2023.09.01 14:31
1,5,Environment Title[],Latitude[deg],Longitude[deg],Time Zone[],Elevation[m]
2,8,Day of Simulation[],Month[],Day of Month[],DST Indicator[1=yes 0=no],Hour[],StartMinute[],EndMinute[],DayType
3,5,Cumulative Day of Simulation[],Month[],Day of Month[],DST Indicator[1=yes 0=no],DayType  ! When Daily Report Variables Requested
4,2,Cumulative Days of Simulation[],Month[]  ! When Monthly Report Variables Requested
5,1,Cumulative Days of Simulation[] ! When Run Period Report Variables Requested
6,1,Calendar Year of Simulation[] ! When Annual Report Variables Requested
7,1,Environment,Site Outdoor Air Drybulb Temperature [C] !Hourly
619,1,DX_HEATING_COIL,Heating Coil Heating Rate [W] !Hourly
633,1,DX_HEATING_COIL,Heating Coil Electricity Rate [W] !Hourly
659,1,DX_HEATING_COIL,Heating Coil Defrost Electricity Rate [W] !Hourly
661,1,DX_HEATING_COIL,Heating Coil Crankcase Heater Electricity Rate [W] !Hourly
690,1,FAN,Fan Electricity Rate [W] !Hourly
716,1,HEAT PUMP WATER HEATER FAN,Fan Electricity Rate [W] !Hourly
718,1,LIVING,Zone Mean Air Temperature [C] !Hourly
719,1,ATTIC,Zone Mean Air Temperature [C] !Hourly
720,1,CRAWLSPACE,Zone Mean Air Temperature [C] !Hourly
843,1,LIVING,Zone Predicted Sensible Load to Heating Setpoint Heat Transfer Rate [W] !Hourly
844,1,LIVING,Zone System Predicted Sensible Load to Heating Setpoint Heat Transfer Rate [W] !Hourly
907,1,ATTIC,Zone Predicted Sensible Load to Heating Setpoint Heat Transfer Rate [W] !Hourly
908,1,ATTIC,Zone System Predicted Sensible Load to Heating Setpoint Heat Transfer Rate [W] !Hourly
971,1,CRAWLSPACE,Zone Predicted Sensible Load to Heating Setpoint Heat Transfer Rate [W] !Hourly
972,1,CRAWLSPACE,Zone System Predicted Sensible Load to Heating Setpoint Heat Transfer Rate [W] !Hourly
1195,1,HEATING_RESISTANCE_BACKUP,Heating Coil Heating Rate [W] !Hourly
1197,1,HEATING_RESISTANCE_BACKUP,Heating Coil Electricity Rate [W] !Hourly
End of Data Dictionary
1,EXTREME_WINTER,  44.47, -73.15,  -5.00, 104.00
2,1, 1,20, 0, 1, 0.00,60.00,Monday
7,-2.8
718,18.638285089319147
719,-3.702924749002965
720,18.30001959304407
619,3966.481877719951
633,1242.7868553171138
659,42.87621199433503
661,0.0
690,136.1298025883479
716,0.0
843,2949.647062441112
844,2949.647062441112
907,0.0
908,0.0
971,0.0
972,0.0
1195,845.2422855804366
1197,845.2422855804366
2,1, 1,20, 0, 2, 0.00,60.00,Monday
7,-2.8
718,18.62170316099559
719,-1.9202313051390394
720,17.85245456525435
619,3967.2668600323555
633,1241.8607474056673
659,42.87621199433503
661,0.0
690,136.1298025883479
716,0.0
843,3184.953794318888
844,3184.953794318888
907,0.0
908,0.0
971,0.0
972,0.0
1195,835.5363888948723
1197,835.5363888948723
2,1, 1,20, 0, 3, 0.00,60.00,Monday
7,-3.0
718,18.61041195306677
719,-0.6827730995688825
720,17.67422420217225
619,3959.206553642117
633,1243.01313211765
659,39.81215184435308
661,0.0
690,136.1298025883479
716,0.0
843,3632.3630625456262
844,3632.3630625456262
907,0.0
908,0.0
971,0.0
972,0.0
1195,1292.4569713028704
1197,1292.4569713028704
2,1, 1,20, 0, 4, 0.00,60.00,Monday
7,-4.0
718,18.60904229672389
719,-0.9163565305703302
720,17.455280300803043
619,3908.9667588097655
633,1251.2408700999104
659,25.708758586136916
661,0.0
690,136.1298025883479
716,0.0
843,3943.854468507412
844,3943.854468507412
907,0.0
908,0.0
971,0.0
972,0.0
1195,1656.004516526552
1197,1656.004516526552
2,1, 1,20, 0, 5, 0.00,60.00,Monday
7,-5.0
718,18.605506902087
719,-1.4296383431699784
720,17.277057370488414
619,3810.1689092248207
633,1244.1808807975463
659,22.963435944584734
661,0.0
690,136.1298025883479
716,0.0
843,4127.03388272005
844,4127.03388272005
907,0.0
908,0.0
971,0.0
972,0.0
1195,1985.654475519446
1197,1985.654475519446
2,1, 1,20, 0, 6, 0.00,60.00,Monday
7,-6.0
718,19.399073113763144
719,-2.028678234714014
720,17.097711010747922
619,3748.0246267331386
633,1248.9418050917234
659,11.340700483937026
661,0.0
690,136.1298025883479
716,0.0
843,6195.749218454923
844,6195.749218454923
907,0.0
908,0.0
971,0.0
972,0.0
1195,4619.809264500009
1197,4619.809264500009
2,1, 1,20, 0, 7, 0.00,60.00,Monday
7,-8.9
718,19.586332903660278
719,-4.668074324588132
720,16.96425777327284
619,3455.5395547106964
633,1248.7549656965589
659,2.166434500479287
661,0.0
690,136.1298025883479
716,85.44000000000005
843,6425.836630358701
844,6425.836630358701
907,0.0
908,0.0
971,0.0
972,0.0
1195,6379.844217837825
1197,6379.844217837825
2,1, 1,20, 0, 8, 0.00,60.00,Monday
7,-8.9
718,19.65119296658775
719,-5.0284284022189105
720,16.822564734198753
619,3451.7481506393988
633,1252.9961606223376
659,2.166434500479287
661,0.0
690,136.1298025883479
716,85.44000000000005
843,6131.3840056269855
844,6131.3840056269855
907,0.0
908,0.0
971,0.0
972,0.0
1195,6300.034266653045
1197,6300.034266653045
2,1, 1,20, 0, 9, 0.00,60.00,Monday
7,-10.6
718,19.68988363979861
719,-5.5590626431419246
720,16.669964642001567
619,3279.371878377805
633,1237.0200448117926
659,0.754235485029449
661,0.0
690,136.1298025883479
716,21.958829204550938
843,5882.9934794566
844,5882.9934794566
907,0.0
908,0.0
971,0.0
972,0.0
1195,5250.510403545102
1197,5250.510403545102
2,1, 1,20, 0,10, 0.00,60.00,Monday
7,-11.1
718,19.7049039580998
719,-5.789875340020067
720,16.51865010010466
619,3222.5548727917662
633,1229.8892461949622
659,2.3258409825511923
661,0.0
690,136.1298025883479
716,0.0
843,6310.752263291646
844,6310.752263291646
907,0.0
908,0.0
971,0.0
972,0.0
1195,5633.463225865475
1197,5633.463225865475
2,1, 1,20, 0,11, 0.00,60.00,Monday
7,-11.1
718,19.703297533209383
719,-5.7204876876947095
720,16.378825574491326
619,3222.422557746728
633,1230.0322957965134
659,2.3258409825511923
661,0.0
690,136.1298025883479
716,0.0
843,6196.7284758912465
844,6196.7284758912465
907,0.0
908,0.0
971,0.0
972,0.0
1195,5485.772924216195
1197,5485.772924216195
2,1, 1,20, 0,12, 0.00,60.00,Monday
7,-11.1
718,19.712971812927545
719,-5.97174710474207
720,16.24445433906103
619,3230.3045397718583
633,1232.773986420815
659,0.06557637866960302
661,0.0
690,136.1298025883479
716,0.0
843,5925.99585598904
844,5925.99585598904
907,0.0
908,0.0
971,0.0
972,0.0
1195,5155.984379017746
1197,5155.984379017746
2,1, 1,20, 0,13, 0.00,60.00,Monday
7,-10.6
718,19.708184837041777
719,-5.619611875490096
720,16.11445944637847
619,3281.151867615097
633,1238.576891958518
659,0.06557637866960302
661,0.0
690,136.1298025883479
716,0.0
843,5655.409207783281
844,5655.409207783281
907,0.0
908,0.0
971,0.0
972,0.0
1195,4766.703401324485
1197,4766.703401324485
2,1, 1,20, 0,14, 0.00,60.00,Monday
7,-10.6
718,19.698659500718886
719,-4.96797423845453
720,15.98194486069287
619,3281.40912673834
633,1238.2964508090383
659,0.06557637866960302
661,0.0
690,136.1298025883479
716,82.92262887717976
843,5216.280523316684
844,5216.280523316684
907,0.0
908,0.0
971,0.0
972,0.0
1195,5293.3436956333135
1197,5293.3436956333135
2,1, 1,20, 0,15, 0.00,60.00,Monday
7,-10.0
718,19.712177806278365
719,-4.553376060750813
720,15.87038660815195
619,3343.4222037939226
633,1244.761696752208
659,0.06557637866960302
661,0.0
690,136.1298025883479
716,0.0
843,4232.870293492693
844,4232.870293492693
907,0.0
908,0.0
971,0.0
972,0.0
1195,2927.8265830343717
1197,2927.8265830343717
2,1, 1,20, 0,16, 0.00,60.00,Monday
7,-10.6
718,19.71920238381683
719,-5.135163380789477
720,15.75773784694469
619,3281.603359568079
633,1238.084702196825
659,0.06557637866960302
661,0.0
690,136.1298025883479
716,0.0
843,3830.344386398807
844,3830.344386398807
907,0.0
908,0.0
971,0.0
972,0.0
1195,2500.715038527168
1197,2500.715038527168
2,1, 1,20, 0,17, 0.00,60.00,Monday
7,-10.6
718,19.713633143807524
719,-5.706847055129037
720,15.671661870181211
619,3281.592033080045
633,1238.0970504102206
659,0.06557637866960302
661,0.0
690,136.1298025883479
716,0.0
843,3867.5718150219545
844,3867.5718150219545
907,0.0
908,0.0
971,0.0
972,0.0
1195,2569.6350707008887
1197,2569.6350707008887
2,1, 1,20, 0,18, 0.00,60.00,Monday
7,-12.2
718,19.70993400035008
719,-6.85986821060258
720,15.574719281640714
619,3120.5500195330105
633,1219.288707400365
659,0.06557637866960302
661,0.0
690,136.1298025883479
716,0.0
843,4660.163521567394
844,4660.163521567394
907,0.0
908,0.0
971,0.0
972,0.0
1195,3743.0184484992164
1197,3743.0184484992164
2,1, 1,20, 0,19, 0.00,60.00,Monday
7,-12.8
718,19.704998607465463
719,-7.334204873933574
720,15.488310359177838
619,3061.4393041589733
633,1212.008607801225
659,0.06557637866960302
661,0.0
690,136.1298025883479
716,85.44000000000005
843,4272.981651654536
844,4272.981651654536
907,0.0
908,0.0
971,0.0
972,0.0
1195,4547.201973863723
1197,4547.201973863723
2,1, 1,20, 0,20, 0.00,60.00,Monday
7,-12.8
718,19.696284824102484
719,-7.742616537357406
720,15.385827880005925
619,3061.6449241440164
633,1211.7929504043648
659,0.06557637866960302
661,0.0
690,136.1298025883479
716,85.44000000000005
843,4331.836951151119
844,4331.836951151119
907,0.0
908,0.0
971,0.0
972,0.0
1195,4701.270161615095
1197,4701.270161615095
2,1, 1,20, 0,21, 0.00,60.00,Monday
7,-12.8
718,19.699809963013386
719,-7.976743228948348
720,15.273704424290525
619,3061.9573353879478
633,1211.4652536676388
659,0.06557637866960302
661,0.0
690,136.1298025883479
716,75.94214293001559
843,4633.3304585394635
844,4633.3304585394635
907,0.0
908,0.0
971,0.0
972,0.0
1195,4897.142820113229
1197,4897.142820113229
2,1, 1,20, 0,22, 0.00,60.00,Monday
7,-13.3
718,19.716203823979114
719,-8.151857087432935
720,15.15619112475712
619,3013.1003521800408
633,1205.4408863912488
659,0.06557637866960302
661,0.0
690,136.1298025883479
716,0.0
843,4596.736237676174
844,4596.736237676174
907,0.0
908,0.0
971,0.0
972,0.0
1195,3904.119388508812
1197,3904.119388508812
2,1, 1,20, 0,23, 0.00,60.00,Monday
7,-13.3
718,18.922483957153865
719,-8.414304252866215
720,15.035146992458117
619,3012.9032177727827
633,1205.645647210782
659,0.06557637866960302
661,0.0
690,136.1298025883479
716,0.0
843,3802.9937304048217
844,3802.9937304048217
907,0.0
908,0.0
971,0.0
972,0.0
1195,2945.907347312411
1197,2945.907347312411
2,1, 1,20, 0,24, 0.00,60.00,Monday
7,-13.9
718,18.69971730981821
719,-8.695578048193278
720,14.87328535224122
619,2971.166809671877
633,1181.5498991545742
659,0.06557637866960302
661,0.0
690,136.1298025883479
716,0.0
843,4239.3761796507715
844,4239.3761796507715
907,0.0
908,0.0
971,0.0
972,0.0
1195,3478.027895160517
1197,3478.027895160517
2,2, 1,21, 0, 1, 0.00,60.00,Tuesday
7,-14.4
718,18.622249824568406
719,-8.277896378984037
720,14.737582135388944
619,2923.5389066310627
633,1169.1003261914304
659,1.4792694244783455
661,0.0
690,136.1298025883479
716,0.0
843,5049.424990912234
844,5049.424990912234
907,0.0
908,0.0
971,0.0
972,0.0
1195,4494.259276628475
1197,4494.259276628475
2,2, 1,21, 0, 2, 0.00,60.00,Tuesday
7,-14.4
718,18.60690217952485
719,-8.318598969533298
720,14.601949302122256
619,2925.255348610577
633,1167.3390860689994
659,1.4792694244783455
661,0.0
690,136.1298025883479
716,0.0
843,5405.862429045146
844,5405.862429045146
907,0.0
908,0.0
971,0.0
972,0.0
1195,4918.518486577877
1197,4918.518486577877
2,2, 1,21, 0, 3, 0.00,60.00,Tuesday
7,-15.6
718,18.596493568114894
719,-8.248339846023331
720,14.462581946409093
619,2814.7386478852095
633,1153.557103049124
659,0.7595027446197244
661,0.0
690,136.1298025883479
716,0.0
843,5587.339308763745
844,5587.339308763745
907,0.0
908,0.0
971,0.0
972,0.0
1195,5224.252611036325
1197,5224.252611036325
2,2, 1,21, 0, 4, 0.00,60.00,Tuesday
7,-16.1
718,18.600374628414553
719,-8.567964897467055
720,14.329622180245424
619,2770.7345558034995
633,1148.001819688899
659,0.06557637866960302
661,0.0
690,136.1298025883479
716,0.0
843,5707.741857084629
844,5707.741857084629
907,0.0
908,0.0
971,0.0
972,0.0
1195,5434.568668599673
1197,5434.568668599673
2,2, 1,21, 0, 5, 0.00,60.00,Tuesday
7,-16.1
718,18.595037029764956
719,-8.832603472793433
720,14.200631910715849
619,2770.8102583878876
633,1147.9268945958065
659,0.06557637866960302
661,0.0
690,136.1298025883479
716,0.0
843,5716.21295111707
844,5716.21295111707
907,0.0
908,0.0
971,0.0
972,0.0
1195,5441.219483961111
1197,5441.219483961111
2,2, 1,21, 0, 6, 0.00,60.00,Tuesday
7,-16.7
718,19.401391416118965
719,-8.594019821156328
720,14.072200542257056
619,2704.2054287299134
633,1135.4289269358078
659,4.160383151935889
661,0.0
690,136.1298025883479
716,0.0
843,6492.415846746724
844,6492.415846746724
907,0.0
908,0.0
971,0.0
972,0.0
1195,6481.226605708968
1197,6481.226605708968
2,2, 1,21, 0, 7, 0.00,60.00,Tuesday
7,-17.8
718,19.2957515350241
719,-9.663694028550898
720,13.973585141761648
619,2587.658870802093
633,1135.8436399054137
659,4.830546913603384
661,0.0
690,136.1298025883479
716,85.44000000000005
843,6523.79342105859
844,6523.79342105859
907,0.0
908,0.0
971,0.0
972,0.0
1195,7078.700459882091
1197,7078.700459882091
2,2, 1,21, 0, 8, 0.00,60.00,Tuesday
7,-17.8
718,19.304316279616145
719,-9.695581595790964
720,13.846188404609585
619,2589.8706969585337
633,1133.7669827383938
659,4.830546913603384
661,0.0
690,136.1298025883479
716,85.44000000000005
843,6293.160567169607
844,6293.160567169607
907,0.0
908,0.0
971,0.0
972,0.0
1195,7078.700459882091
1197,7078.700459882091
2,2, 1,21, 0, 9, 0.00,60.00,Tuesday
7,-18.0
718,19.55038234346122
719,-9.069575198732077
720,13.732725943029568
619,2564.129011621642
633,1127.673724960651
659,7.760559339887368
661,0.0
690,136.1298025883479
716,85.44000000000005
843,5508.35409631794
844,5508.35409631794
907,0.0
908,0.0
971,0.0
972,0.0
1195,6701.2727674610815
1197,6701.2727674610815
2,2, 1,21, 0,10, 0.00,60.00,Tuesday
7,-15.6
718,19.66524718301937
719,-5.668972893761344
720,13.661665984661498
619,2791.2288850723344
633,1169.127194184058
659,2.6366565011660494
661,0.0
690,136.1298025883479
716,42.977878655081945
843,4098.33155253002
844,4098.33155253002
907,0.0
908,0.0
971,0.0
972,0.0
1195,4147.330898466713
1197,4147.330898466713
2,2, 1,21, 0,11, 0.00,60.00,Tuesday
7,-15.6
718,19.703126669076124
719,-2.9925734806692494
720,13.587829395387011
619,2788.992611646045
633,1171.3405001817837
659,2.6366565011660494
661,0.0
690,136.1298025883479
716,0.0
843,3431.4467379655052
844,3431.4467379655052
907,0.0
908,0.0
971,0.0
972,0.0
1195,2614.070138792718
1197,2614.070138792718
2,2, 1,21, 0,12, 0.00,60.00,Tuesday
7,-12.8
718,19.724187780085867
719,6.1652759593302235
720,13.567482848696773
619,3063.934930467417
633,1209.3899228460305
659,0.06557637866960302
661,0.0
690,136.1298025883479
716,0.0
843,2506.881138533694
844,2506.881138533694
907,0.0
908,0.0
971,0.0
972,0.0
1195,1092.7992700861419
1197,1092.7992700861419
2,2, 1,21, 0,13, 0.00,60.00,Tuesday
7,-11.1
718,19.724566748174688
719,8.365781990419027
720,13.559449882666742
619,3233.209785425771
633,1229.6315400091628
659,0.06557637866960302
661,0.0
690,136.1298025883479
716,0.0
843,2180.3153738346937
844,2180.3153738346937
907,0.0
908,0.0
971,0.0
972,0.0
1195,33.68879197082333
1197,33.68879197082333
2,2, 1,21, 0,14, 0.00,60.00,Tuesday
7,-11.1
718,19.782272720236616
719,9.664906672250353
720,13.546258848926815
619,2589.7078631457157
633,1007.135082954809
659,0.05370382432919051
661,36.20985050190293
690,111.48089225271485
716,0.0
843,1798.521381319164
844,1798.521381319164
907,0.0
908,0.0
971,0.0
972,0.0
1195,0.0
1197,0.0
2,2, 1,21, 0,15, 0.00,60.00,Tuesday
7,-10.6
718,19.823102645470087
719,8.920543945447273
720,13.55162417739229
619,1844.4613949990562
633,730.2716808915422
659,0.03871328989240393
661,81.9291620616772
690,80.36292681096256
716,0.0
843,1316.7555548822584
844,1316.7555548822584
907,0.0
908,0.0
971,0.0
972,0.0
1195,0.0
1197,0.0
2,2, 1,21, 0,16, 0.00,60.00,Tuesday
7,-10.0
718,19.82086858285475
719,6.899139166360269
720,13.57610024259739
619,1412.1253824351256
633,561.5062445716974
659,0.029577788214755835
661,109.79133396865603
690,61.39908213232529
716,0.0
843,998.494249664338
844,998.494249664338
907,0.0
908,0.0
971,0.0
972,0.0
1195,0.0
1197,0.0
2,2, 1,21, 0,17, 0.00,60.00,Tuesday
7,-10.0
718,19.733732991096264
719,3.7045168630573344
720,13.624697025101376
619,1612.541224114767
633,636.6663768163219
659,0.03353883034624615
661,97.71063597388738
690,69.62161555091635
716,0.0
843,1101.1918961089868
844,1101.1918961089868
907,0.0
908,0.0
971,0.0
972,0.0
1195,0.0
1197,0.0
2,2, 1,21, 0,18, 0.00,60.00,Tuesday
7,-11.7
718,19.520499851288193
719,0.8783699987882018
720,13.69530201056286
619,3172.4519673773952
633,1223.0001414734613
659,0.06557637866960302
661,0.0
690,136.1298025883479
716,67.74791837083524
843,1888.1171727066394
844,1888.1171727066394
907,0.0
908,0.0
971,0.0
972,0.0
1195,707.755915967392
1197,707.755915967392
2,2, 1,21, 0,19, 0.00,60.00,Tuesday
7,-12.8
718,19.63933710972263
719,-3.159651339292998
720,13.687687295017152
619,3056.6007314161498
633,1201.2607078960164
659,3.456168611024309
661,0.0
690,136.1298025883479
716,0.0
843,2405.965398309365
844,2405.965398309365
907,0.0
908,0.0
971,0.0
972,0.0
1195,744.4535155977198
1197,744.4535155977198
2,2, 1,21, 0,20, 0.00,60.00,Tuesday
7,-12.8
718,19.652518950537946
719,-4.334072911321948
720,13.686677693103956
619,3054.16903277662
633,1203.8161250100927
659,3.456168611024309
661,0.0
690,136.1298025883479
716,85.44000000000005
843,2546.3602710412415
844,2546.3602710412415
907,0.0
908,0.0
971,0.0
972,0.0
1195,2401.1367279927535
1197,2401.1367279927535
2,2, 1,21, 0,21, 0.00,60.00,Tuesday
7,-13.9
718,19.680289070742365
719,-5.718645534956245
720,13.642370415399474
619,2936.3889489718854
633,1186.6020693830674
659,6.9456357186463995
661,0.0
690,136.1298025883479
716,85.44000000000005
843,2940.2534706779097
844,2940.2534706779097
907,0.0
908,0.0
971,0.0
972,0.0
1195,3048.8489124967696
1197,3048.8489124967696
2,2, 1,21, 0,22, 0.00,60.00,Tuesday
7,-13.3
718,19.68738130742392
719,-6.299179536060787
720,13.598694681369844
619,2991.2305169517717
633,1193.3715177054023
659,7.6739965777971895
661,0.0
690,136.1298025883479
716,80.02119670345118
843,3247.611400767013
844,3247.611400767013
907,0.0
908,0.0
971,0.0
972,0.0
1195,3205.72905154035
1197,3205.72905154035
2,2, 1,21, 0,23, 0.00,60.00,Tuesday
7,-13.3
718,18.944411133439758
719,-6.910341279127458
720,13.53247674019893
619,2991.1376970366878
633,1193.4680301346248
659,7.6739965777971895
661,0.0
690,136.1298025883479
716,0.0
843,2673.438292468916
844,2673.438292468916
907,0.0
908,0.0
971,0.0
972,0.0
1195,1539.3008345255696
1197,1539.3008345255696
2,2, 1,21, 0,24, 0.00,60.00,Tuesday
7,-12.8
718,18.713839243413606
719,-6.187598282376176
720,13.428219370825671
619,3050.116729959728
633,1181.536352194782
659,9.12999975753542
661,0.0
690,136.1298025883479
716,0.0
843,3100.0893035154622
844,3100.0893035154622
907,0.0
908,0.0
971,0.0
972,0.0
1195,1972.4093178166866
1197,1972.4093178166866
2,3, 1,22, 0, 1, 0.00,60.00,Wednesday
7,-12.2
718,18.634860088054115
719,-5.905171566217353
720,13.345226839547923
619,3113.6157746243643
633,1183.1567456584985
659,9.148813514046653
661,0.0
690,136.1298025883479
716,0.0
843,3598.685451957883
844,3598.685451957883
907,0.0
908,0.0
971,0.0
972,0.0
1195,2440.8245476758802
1197,2440.8245476758802
2,3, 1,22, 0, 2, 0.00,60.00,Wednesday
7,-12.2
718,18.61292135462879
719,-5.737842296331876
720,13.255379962813999
619,3115.307067387604
633,1181.3476037957414
659,9.148813514046653
661,0.0
690,136.1298025883479
716,0.0
843,4005.941250870397
844,4005.941250870397
907,0.0
908,0.0
971,0.0
972,0.0
1195,2919.246576213003
1197,2919.246576213003
2,3, 1,22, 0, 3, 0.00,60.00,Wednesday
7,-12.2
718,18.603238759565855
719,-5.5387638452430386
720,13.167870771638922
619,3124.2956727895707
633,1183.9618839915174
659,6.604291432987594
661,0.0
690,136.1298025883479
716,0.0
843,4260.528243562989
844,4260.528243562989
907,0.0
908,0.0
971,0.0
972,0.0
1195,3193.9671833854745
1197,3193.9671833854745
2,3, 1,22, 0, 4, 0.00,60.00,Wednesday
7,-11.7
718,18.605138193422636
719,-5.279932171085478
720,13.084717853429114
619,3172.161366944149
633,1188.3728960495332
659,7.215372475711562
661,0.0
690,136.1298025883479
716,0.0
843,4360.54964288414
844,4360.54964288414
907,0.0
908,0.0
971,0.0
972,0.0
1195,3270.089759444007
1197,3270.089759444007
2,3, 1,22, 0, 5, 0.00,60.00,Wednesday
7,-11.7
718,18.601809702074164
719,-5.11143372901072
720,13.000693783861731
619,3172.2213401080326
633,1188.3081774828859
659,7.215372475711562
661,0.0
690,136.1298025883479
716,0.0
843,4378.721096309282
844,4378.721096309282
907,0.0
908,0.0
971,0.0
972,0.0
1195,3265.590738470503
1197,3265.590738470503
2,3, 1,22, 0, 6, 0.00,60.00,Wednesday
7,-11.7
718,19.27093907478851
719,-5.107345793822973
720,12.919392235420217
619,3139.5277469897087
633,1175.81596416765
659,16.964440799692348
661,0.0
690,136.1298025883479
716,77.94456968257707
843,5577.303727850298
844,5577.303727850298
907,0.0
908,0.0
971,0.0
972,0.0
1195,5661.421022141261
1197,5661.421022141261
2,3, 1,22, 0, 7, 0.00,60.00,Wednesday
7,-11.7
718,19.539195221022144
719,-5.104540394906989
720,12.87101457649721
619,3137.9454832131037
633,1194.705884548371
659,13.45206427051
661,0.0
690,136.1298025883479
716,85.44000000000005
843,5413.027114741901
844,5413.027114741901
907,0.0
908,0.0
971,0.0
972,0.0
1195,5753.770616827471
1197,5753.770616827471
2,3, 1,22, 0, 8, 0.00,60.00,Wednesday
7,-11.7
718,19.63664847312582
719,-5.317516970027787
720,12.803497439392734
619,3132.544325115073
633,1200.5052654391766
659,13.45206427051
661,0.0
690,136.1298025883479
716,85.06421852576099
843,5160.5455057376
844,5160.5455057376
907,0.0
908,0.0
971,0.0
972,0.0
1195,5512.648931432111
1197,5512.648931432111
2,3, 1,22, 0, 9, 0.00,60.00,Wednesday
7,-11.1
718,19.698952037705606
719,-2.544198045927769
720,12.743243342855791
619,3208.8396808870352
633,1216.3871551137704
659,8.009967453242584
661,0.0
690,136.1298025883479
716,0.0
843,3969.835506834883
844,3969.835506834883
907,0.0
908,0.0
971,0.0
972,0.0
1195,2832.790269541529
1197,2832.790269541529
2,3, 1,22, 0,10, 0.00,60.00,Wednesday
7,-8.9
718,19.720567557955533
719,0.5664874124149848
720,12.702846057868653
619,3454.509185216661
633,1250.0023953157433
659,2.1489433309317287
661,0.0
690,136.1298025883479
716,0.0
843,3250.155052078937
844,3250.155052078937
907,0.0
908,0.0
971,0.0
972,0.0
1195,1585.0050939278817
1197,1585.0050939278817
2,3, 1,22, 0,11, 0.00,60.00,Wednesday
7,-8.9
718,19.719708344117134
719,3.927529038706106
720,12.661902483364274
619,3454.1076190943236
633,1250.4516465659408
659,2.1489433309317287
661,0.0
690,136.1298025883479
716,0.0
843,3062.7068146020647
844,3062.7068146020647
907,0.0
908,0.0
971,0.0
972,0.0
1195,1185.8765336820475
1197,1185.8765336820475
2,3, 1,22, 0,12, 0.00,60.00,Wednesday
7,-6.7
718,19.75515291498365
719,8.321360035966242
720,12.638499265568603
619,3300.5932001082106
633,1153.857263582395
659,0.05923215281848049
661,19.34911924028919
690,122.9578569826855
716,0.0
843,2153.883058754722
844,2153.883058754722
907,0.0
908,0.0
971,0.0
972,0.0
1195,0.0
1197,0.0
2,3, 1,22, 0,13, 0.00,60.00,Wednesday
7,-6.7
718,19.80315199480613
719,12.160048788211608
720,12.593506295215468
619,2310.0872512976143
633,833.2990503718979
659,0.042740748881209746
661,69.64590070899537
690,88.7239550947584
716,0.0
843,1631.8460617589299
844,1631.8460617589299
907,0.0
908,0.0
971,0.0
972,0.0
1195,0.0
1197,0.0
2,3, 1,22, 0,14, 0.00,60.00,Wednesday
7,-6.7
718,19.791624717445394
719,12.905920627869916
720,12.580886625081204
619,1451.4433133016328
633,538.6210691282073
659,0.027597751747375512
661,115.83020499981329
690,57.28916171244122
716,0.0
843,1093.1779894033898
844,1093.1779894033898
907,0.0
908,0.0
971,0.0
972,0.0
1195,0.0
1197,0.0
2,3, 1,22, 0,15, 0.00,60.00,Wednesday
7,-5.0
718,19.706501135812577
719,10.699243980708664
720,12.669867629102251
619,2313.9191547826686
633,809.1473916000994
659,0.040879238262677475
661,75.32328227930508
690,84.85993904712677
716,75.35300466009184
843,969.1507341358192
844,969.1507341358192
907,0.0
908,0.0
971,0.0
972,0.0
1195,0.0
1197,0.0
2,3, 1,22, 0,16, 0.00,60.00,Wednesday
7,-6.1
718,19.596144706989477
719,5.759895464700262
720,12.748837653528444
619,3129.268475486869
633,1088.5845861143152
659,8.318507920928608
661,28.657273922832417
690,116.35986898324998
716,85.44000000000005
843,1379.2490737149546
844,1379.2490737149546
907,0.0
908,0.0
971,0.0
972,0.0
1195,0.0
1197,0.0
2,3, 1,22, 0,17, 0.00,60.00,Wednesday
7,-6.1
718,19.732424052126596
719,2.7054366644949712
720,12.763822776322904
619,2570.415189341246
633,907.2576568136716
659,6.946238600237412
661,56.92296394252103
690,97.16459497488485
716,9.86403572116976
843,1645.4944813570291
844,1645.4944813570291
907,0.0
908,0.0
971,0.0
972,0.0
1195,0.0
1197,0.0
2,3, 1,22, 0,18, 0.00,60.00,Wednesday
7,-8.9
718,19.541614570496897
719,-0.12798639334228706
720,12.839843463461808
619,3403.293839775537
633,1232.4933933454984
659,15.986986551919413
661,0.0
690,136.1298025883479
716,0.0
843,2153.6117535337644
844,2153.6117535337644
907,0.0
908,0.0
971,0.0
972,0.0
1195,29.020194230439756
1197,29.020194230439756
2,3, 1,22, 0,19, 0.00,60.00,Wednesday
7,-9.4
718,19.651046046735956
719,-1.2470680451357237
720,12.834749441577847
619,3359.2390711407334
633,1224.1109831903034
659,14.961514742110868
661,0.0
690,136.1298025883479
716,0.0
843,2180.9060868628567
844,2180.9060868628567
907,0.0
908,0.0
971,0.0
972,0.0
1195,249.5457761727232
1197,249.5457761727232
2,3, 1,22, 0,20, 0.00,60.00,Wednesday
7,-9.4
718,19.67971139533261
719,-1.8322625058853172
720,12.8375038410566
619,3356.986219754859
633,1226.615195100001
659,14.961514742110868
661,0.0
690,136.1298025883479
716,85.44000000000005
843,2298.3714249137593
844,2298.3714249137593
907,0.0
908,0.0
971,0.0
972,0.0
1195,1701.714904436969
1197,1701.714904436969
2,3, 1,22, 0,21, 0.00,60.00,Wednesday
7,-10.6
718,19.684058695896056
719,-2.118460137149629
720,12.805456405631576
619,3218.4253584004464
633,1208.0386811594685
659,19.54343106444671
661,0.0
690,136.1298025883479
716,85.44000000000005
843,2579.5572060445866
844,2579.5572060445866
907,0.0
908,0.0
971,0.0
972,0.0
1195,2211.921382628466
1197,2211.921382628466
2,3, 1,22, 0,22, 0.00,60.00,Wednesday
7,-11.7
718,19.702936253835826
719,-3.4905979303291885
720,12.763821927501263
619,3105.6698226521917
633,1194.383846434249
659,20.615618485468897
661,0.0
690,136.1298025883479
716,37.502941998029684
843,3010.0643649352605
844,3010.0643649352605
907,0.0
908,0.0
971,0.0
972,0.0
1195,2106.029136300158
1197,2106.029136300158
2,3, 1,22, 0,23, 0.00,60.00,Wednesday
7,-11.7
718,18.954905657468718
719,-4.17445620817721
720,12.718966500452584
619,3105.335682758372
633,1194.7419306594027
659,20.615618485468897
661,0.0
690,136.1298025883479
716,0.0
843,2354.7660145018017
844,2354.7660145018017
907,0.0
908,0.0
971,0.0
972,0.0
1195,912.0260833500727
1197,912.0260833500727
2,3, 1,22, 0,24, 0.00,60.00,Wednesday
7,-11.7
718,18.71749746491739
719,-4.286116747326733
720,12.626629054375465
619,3108.6813898282003
633,1174.0223417238678
659,24.121995014103966
661,0.0
690,136.1298025883479
716,0.0
843,2905.937598871067
844,2905.937598871067
907,0.0
908,0.0
971,0.0
972,0.0
1195,1540.4617454506695
1197,1540.4617454506695
2,4, 1,23, 0, 1, 0.00,60.00,Thursday
7,-12.2
718,18.63739381411305
719,-5.319316957933642
720,12.553912909417093
619,3069.188804546202
633,1165.0410733573108
659,22.805906231018096
661,0.0
690,136.1298025883479
716,0.0
843,3571.989804309367
844,3571.989804309367
907,0.0
908,0.0
971,0.0
972,0.0
1195,2375.3952834802258
1197,2375.3952834802258
2,4, 1,23, 0, 2, 0.00,60.00,Thursday
7,-12.2
718,18.61062155968139
719,-6.17922113000938
720,12.479893798538306
619,3070.8637906187046
633,1163.24885667647
659,22.805906231018096
661,0.0
690,136.1298025883479
716,0.0
843,3955.745746645938
844,3955.745746645938
907,0.0
908,0.0
971,0.0
972,0.0
1195,2876.0993742985606
1197,2876.0993742985606
2,4, 1,23, 0, 3, 0.00,60.00,Thursday
7,-12.8
718,18.60450344002888
719,-6.7947928671250795
720,12.399247603614375
619,3008.2104012510713
633,1153.9998064063323
659,24.441549931607344
661,0.0
690,136.1298025883479
716,0.0
843,4306.346939354633
844,4306.346939354633
907,0.0
908,0.0
971,0.0
972,0.0
1195,3421.236302246538
1197,3421.236302246538
2,4, 1,23, 0, 4, 0.00,60.00,Thursday
7,-12.8
718,18.599914510618273
719,-7.231803009963715
720,12.322271087041381
619,3018.731924850424
633,1157.7259261757638
659,21.276253915272626
661,0.0
690,136.1298025883479
716,0.0
843,4496.036384043444
844,4496.036384043444
907,0.0
908,0.0
971,0.0
972,0.0
1195,3659.861104312125
1197,3659.861104312125
2,4, 1,23, 0, 5, 0.00,60.00,Thursday
7,-12.8
718,18.60343776118525
719,-7.540895021512346
720,12.242872118812269
619,3018.9120620828435
633,1157.5350481468488
659,21.276253915272626
661,0.0
690,136.1298025883479
716,0.0
843,4540.29339174318
844,4540.29339174318
907,0.0
908,0.0
971,0.0
972,0.0
1195,3755.0225374130646
1197,3755.0225374130646
2,4, 1,23, 0, 6, 0.00,60.00,Thursday
7,-14.4
718,19.392307800593315
719,-6.878249524206019
720,12.151670469671535
619,2880.6661900437157
633,1144.9782668991907
659,16.947890328315285
661,0.0
690,136.1298025883479
716,0.0
843,5875.408901944924
844,5875.408901944924
907,0.0
908,0.0
971,0.0
972,0.0
1195,5502.326901805192
1197,5502.326901805192
2,4, 1,23, 0, 7, 0.00,60.00,Thursday
7,-14.4
718,19.574445727882402
719,-6.4942949014898135
720,12.111867818498979
619,2865.1456716811517
633,1160.8891028103426
659,16.944545978872444
661,0.0
690,136.1298025883479
716,85.44000000000005
843,5703.261820313728
844,5703.261820313728
907,0.0
908,0.0
971,0.0
972,0.0
1195,6592.1538752805845
1197,6592.1538752805845
2,4, 1,23, 0, 8, 0.00,60.00,Thursday
7,-13.3
718,19.65443888105082
719,-6.190260966484183
720,12.045683004433585
619,2958.199747502714
633,1174.5257905064382
659,19.298898769821083
661,0.0
690,136.1298025883479
716,85.44000000000005
843,5274.474588277968
844,5274.474588277968
907,0.0
908,0.0
971,0.0
972,0.0
1195,6000.0570353410985
1197,6000.0570353410985
2,4, 1,23, 0, 9, 0.00,60.00,Thursday
7,-12.2
718,19.68155409564708
719,-4.85975593839213
720,11.984394871664083
619,3065.111566252425
633,1189.7239152109983
659,18.564980476588676
661,0.0
690,136.1298025883479
716,85.44000000000005
843,4989.8393854862625
844,4989.8393854862625
907,0.0
908,0.0
971,0.0
972,0.0
1195,5433.3582421130905
1197,5433.3582421130905