Program Version,EnergyPlus, Version 22.2.0-c249759bad, YMD=2023.09.01 20:26
1,5,Environment Title[],Latitude[deg],Longitude[deg],Time Zone[],Elevation[m]
2,8,Day of Simulation[],Month[],Day of Month[],DST Indicator[1=yes 0=no],Hour[],StartMinute[],EndMinute[],DayType
3,5,Cumulative Day of Simulation[],Month[],Day of Month[],DST Indicator[1=yes 0=no],DayType  ! When Daily Report Variables Requested
4,2,Cumulative Days of Simulation[],Month[]  ! When Monthly Report Variables Requested
5,1,Cumulative Days of Simulation[] ! When Run Period Report Variables Requested
6,1,Calendar Year of Simulation[] ! When Annual Report Variables Requested
581,11,LIVING,AFN Zone Infiltration Air Change Rate [ach] !RunPeriod [Value,Min,Month,Day,Hour,Minute,Max,Month,Day,Hour,Minute]
582,11,ATTIC,AFN Zone Infiltration Air Change Rate [ach] !RunPeriod [Value,Min,Month,Day,Hour,Minute,Max,Month,Day,Hour,Minute]
583,11,CRAWLSPACE,AFN Zone Infiltration Air Change Rate [ach] !RunPeriod [Value,Min,Month,Day,Hour,Minute,Max,Month,Day,Hour,Minute]
1038,11,Facility,Facility Heating Setpoint Not Met Time [hr] !RunPeriod [Value,Min,Month,Day,Hour,Minute,Max,Month,Day,Hour,Minute]
1039,11,Facility,Facility Cooling Setpoint Not Met Time [hr] !RunPeriod [Value,Min,Month,Day,Hour,Minute,Max,Month,Day,Hour,Minute]
1115,11,DX_HEATING_COIL,Heating Coil Heating Energy [J] !RunPeriod [Value,Min,Month,Day,Hour,Minute,Max,Month,Day,Hour,Minute]
1128,11,DX_HEATING_COIL,Heating Coil Electricity Energy [J] !RunPeriod [Value,Min,Month,Day,Hour,Minute,Max,Month,Day,Hour,Minute]
1153,11,DX_HEATING_COIL,Heating Coil Defrost Electricity Energy [J] !RunPeriod [Value,Min,Month,Day,Hour,Minute,Max,Month,Day,Hour,Minute]
1154,11,DX_HEATING_COIL,Heating Coil Crankcase Heater Electricity Energy [J] !RunPeriod [Value,Min,Month,Day,Hour,Minute,Max,Month,Day,Hour,Minute]
1155,11,HEATING_RESISTANCE_BACKUP,Heating Coil Heating Energy [J] !RunPeriod [Value,Min,Month,Day,Hour,Minute,Max,Month,Day,Hour,Minute]
1156,11,HEATING_RESISTANCE_BACKUP,Heating Coil Electricity Energy [J] !RunPeriod [Value,Min,Month,Day,Hour,Minute,Max,Month,Day,Hour,Minute]
1292,11,WATER HEATER,Water Heater Heat Loss Energy [J] !RunPeriod [Value,Min,Month,Day,Hour,Minute,Max,Month,Day,Hour,Minute]
1306,11,WATER HEATER,Water Heater Heating Energy [J] !RunPeriod [Value,Min,Month,Day,Hour,Minute,Max,Month,Day,Hour,Minute]
1307,11,WATER HEATER,Water Heater Unmet Demand Heat Transfer Energy [J] !RunPeriod [Value,Min,Month,Day,Hour,Minute,Max,Month,Day,Hour,Minute]
1308,11,WATER HEATER,Water Heater Electricity Energy [J] !RunPeriod [Value,Min,Month,Day,Hour,Minute,Max,Month,Day,Hour,Minute]
13,11,Electricity:Facility [J] !RunPeriod [Value,Min,Month,Day,Hour,Minute,Max,Month,Day,Hour,Minute]
1134,11,Heating:Electricity [J] !RunPeriod [Value,Min,Month,Day,Hour,Minute,Max,Month,Day,Hour,Minute]
1096,11,Cooling:Electricity [J] !RunPeriod [Value,Min,Month,Day,Hour,Minute,Max,Month,Day,Hour,Minute]
562,11,Fans:Electricity [J] !RunPeriod [Value,Min,Month,Day,Hour,Minute,Max,Month,Day,Hour,Minute]
1379,11,Pumps:Electricity [J] !RunPeriod [Value,Min,Month,Day,Hour,Minute,Max,Month,Day,Hour,Minute]
1326,11,WaterSystems:Electricity [J] !RunPeriod [Value,Min,Month,Day,Hour,Minute,Max,Month,Day,Hour,Minute]
61,11,InteriorLights:Electricity [J] !RunPeriod [Value,Min,Month,Day,Hour,Minute,Max,Month,Day,Hour,Minute]
1046,11,ExteriorLights:Electricity [J] !RunPeriod [Value,Min,Month,Day,Hour,Minute,Max,Month,Day,Hour,Minute]
134,11,InteriorEquipment:Electricity [J] !RunPeriod [Value,Min,Month,Day,Hour,Minute,Max,Month,Day,Hour,Minute]
170,11,gas_dryer:InteriorEquipment:Electricity [J] !RunPeriod [Value,Min,Month,Day,Hour,Minute,Max,Month,Day,Hour,Minute]
207,11,clotheswasher:InteriorEquipment:Electricity [J] !RunPeriod [Value,Min,Month,Day,Hour,Minute,Max,Month,Day,Hour,Minute]
244,11,dishwasher:InteriorEquipment:Electricity [J] !RunPeriod [Value,Min,Month,Day,Hour,Minute,Max,Month,Day,Hour,Minute]
281,11,refrigerator:InteriorEquipment:Electricity [J] !RunPeriod [Value,Min,Month,Day,Hour,Minute,Max,Month,Day,Hour,Minute]
318,11,electric_mels:InteriorEquipment:Electricity [J] !RunPeriod [Value,Min,Month,Day,Hour,Minute,Max,Month,Day,Hour,Minute]
355,11,NaturalGas:Facility [J] !RunPeriod [Value,Min,Month,Day,Hour,Minute,Max,Month,Day,Hour,Minute]
403,11,InteriorEquipment:NaturalGas [J] !RunPeriod [Value,Min,Month,Day,Hour,Minute,Max,Month,Day,Hour,Minute]
476,11,gas_dryer:InteriorEquipment:NaturalGas [J] !RunPeriod [Value,Min,Month,Day,Hour,Minute,Max,Month,Day,Hour,Minute]
513,11,gas_mels:InteriorEquipment:NaturalGas [J] !RunPeriod [Value,Min,Month,Day,Hour,Minute,Max,Month,Day,Hour,Minute]
End of Data Dictionary
1,EXTREME_WINTER,  39.73, -86.27,  -5.00, 241.10
5,7
1038,2.5,0.0,12,15, 1,15,0.25,12,15, 6,15
1039,0.0,0.0,12,15, 1,15,0.0,12,15, 1,15
581,0.43876630644372244,0.24144800755542384,12,21,23, 7,0.7537472394218586,12,19, 5,60
582,5.068679609441139,0.13706347805926744,12,20, 9,22,16.321925579195355,12,19, 6,60
583,0.06448249747962945,0.0008315283528326826,12,16,23, 5,0.07798685786887137,12,15, 1,15
1115,1923767070.1563978,0.0,12,15,23, 5,4002883.5231310646,12,17,20,60
1128,698063007.8624655,0.0,12,15,23, 5,1279058.2410094475,12,17,20,60
1153,13134038.075904442,0.0,12,15,23, 5,110986.90750117385,12,18, 6,60
1154,14848538.040306935,0.0,12,15, 1, 7,163254.9245821669,12,21,16,15
1155,1105440801.7211695,0.0,12,15,14,22,5724255.059175853,12,20, 6,15
1156,1105440801.7211695,0.0,12,15,14,22,5724255.059175853,12,20, 6,15
1292,-25441223.990866885,-39737.19622777447,12,21, 5,30,-4620.246789263708,12,20,11,46
1306,180960707.80683988,0.0,12,15, 1, 7,4050000.0,12,15, 8,45
1307,34222750.06472723,0.0,12,15, 1, 7,4852689.850747741,12,21, 9,30
1308,180960707.80683988,0.0,12,15, 1, 7,4050000.0,12,15, 8,45
13,2463277908.578644,641432.125471464,12,20,16,60,10470793.665747697,12,16, 7,15
61,301924526.02383536,88139.10953165221,12,15, 1,15,1282023.4113694867,12,15,20,15
134,70666020.44019976,63564.01800854099,12,15, 4,15,156554.22484006523,12,20,20,15
170,5241013.419656067,348.4159749238097,12,15, 4,15,17476.39704006126,12,20,12,15
207,6509451.13922267,815.2532113832032,12,15, 3,15,22990.642799023623,12,20,10,15
244,12749673.399825225,1521.856143006317,12,15, 4,15,53038.631142310165,12,20,20,15
281,46165882.481495745,59938.60262432081,12,15, 5,15,81951.81706819107,12,15,19,15
318,0.0,0.0,12,15, 1,15,0.0,12,15, 1,15
355,197687796.27748066,18561.32405820678,12,15, 4,15,724774.895203776,12,20,18,15
403,197687796.27748066,18561.32405820678,12,15, 4,15,724774.895203776,12,20,18,15
476,106772067.24485716,7098.072629279515,12,15, 4,15,356036.3026282215,12,20,12,15
513,0.0,0.0,12,15, 1,15,0.0,12,15, 1,15
562,78240268.6079216,6666.9939330082025,12,20,17,15,132946.49668366558,12,15, 1,15
1046,0.0,0.0,12,15, 1,15,0.0,12,15, 1,15
1096,0.0,0.0,12,15, 1,15,0.0,12,15, 1,15
1134,1831486385.6998453,233313.41195125497,12,20,17,15,6861069.368596578,12,16, 6,15
1326,180960707.80683997,0.0,12,15, 1,15,4050000.0,12,15, 8,45
1379,0.0,0.0,12,15, 1,15,0.0,12,15, 1,15
1,EXTREME_SUMMER,  39.73, -86.27,  -5.00, 241.10
5,7
1038,0.0,0.0, 7,13, 1,15,0.0, 7,13, 1,15
1039,48.0,0.0, 7,13, 1,15,0.25, 7,13,17,15
581,0.12139959422719566,0.0, 7,16, 6, 7,0.4111875252734362, 7,18, 6, 3
582,3.2725156465959593,0.09886196019433864, 7,13, 2,60,11.842287618366823, 7,14,17,50
583,0.040762398089835714,0.0, 7,16, 6, 7,0.07094596880312709, 7,18, 6, 3
1115,0.0,0.0, 7,13, 1,15,0.0, 7,13, 1,15
1128,0.0,0.0, 7,13, 1,15,0.0, 7,13, 1,15
1153,0.0,0.0, 7,13, 1,15,0.0, 7,13, 1,15
1154,0.0,0.0, 7,13, 1,15,0.0, 7,13, 1,15
1155,0.0,0.0, 7,13, 1,15,0.0, 7,13, 1,15
1156,0.0,0.0, 7,13, 1,15,0.0, 7,13, 1,15
1292,-21852080.4160763,-34336.46877347648, 7,18, 6,45,-2904.974889730456, 7,16,10,30
1306,139489760.3862571,0.0, 7,13, 1,15,3714975.403503897, 7,14, 7,15
1307,19204067.44804994,0.0, 7,13, 1,15,1189510.9670683953, 7,18,10,18
1308,139489760.3862571,0.0, 7,13, 1,15,3714975.403503897, 7,14, 7,15
13,1084307783.12573,215335.80673221426, 7,15, 4,60,6889550.299083352, 7,19,20,60
61,301924526.02383536,88139.10953165221, 7,13, 1,15,1282023.4113694867, 7,13,20,15
134,70666020.44019976,63564.01800854099, 7,13, 4,15,156554.22484006523, 7,18,20,15
170,5241013.419656067,348.4159749238097, 7,13, 4,15,17476.39704006126, 7,18,12,15
207,6509451.13922267,815.2532113832032, 7,13, 3,15,22990.642799023623, 7,18,10,15
244,12749673.399825225,1521.856143006317, 7,13, 4,15,53038.631142310165, 7,18,20,15
281,46165882.481495745,59938.60262432081, 7,13, 5,15,81951.81706819107, 7,13,19,15
318,0.0,0.0, 7,13, 1,15,0.0, 7,13, 1,15
355,197687796.27748066,18561.32405820678, 7,13, 4,15,724774.895203776, 7,18,18,15
403,197687796.27748066,18561.32405820678, 7,13, 4,15,724774.895203776, 7,18,18,15
476,106772067.24485716,7098.072629279515, 7,13, 4,15,356036.3026282215, 7,18,12,15
513,0.0,0.0, 7,13, 1,15,0.0, 7,13, 1,15
562,55090912.92477315,6824.670140541638, 7,15, 4,60,132946.49668366558, 7,13,16,30
1046,0.0,0.0, 7,13, 1,15,0.0, 7,13, 1,15
1096,517136563.3506647,56808.00905147942, 7,15, 4,60,1358326.8397875973, 7,16,16,60
1134,0.0,0.0, 7,13, 1,15,0.0, 7,13, 1,15
1326,139489760.38625702,0.0, 7,13, 1,15,4050000.0, 7,13, 8,45
1379,0.0,0.0, 7,13, 1,15,0.0, 7,13, 1,15
1,ANNUAL,  39.73, -86.27,  -5.00, 241.10
5,365
1038,22.0,0.0, 1, 1, 1,15,0.25, 1,11, 6,15
1039,436.5,0.0, 1, 1, 1,15,0.25, 3,19,14,60
581,0.27717665824974386,0.0, 6, 1,23, 3,1.1981617252868724, 2,11,19,37
582,5.04648300094694,0.0, 1, 9, 9,60,39.36771481929681, 2,11,19,52
583,0.030676252723485235,0.0, 6, 1,23, 3,0.09022203278919307, 1,12,10,60
1115,27033865256.364166,0.0, 1, 1,23, 5,4369301.4677340025, 2,21, 6,60
1128,8669315235.780704,0.0, 1, 1,23, 5,1316554.8139651255, 3,28, 6,45
1153,287313321.2533552,0.0, 1, 1,23, 5,118961.88201387817,12,25, 6,45
1154,1356945230.7892666,0.0, 1, 1, 2,15,180000.0, 1, 2,14,30
1155,5699626960.367751,0.0, 1, 1, 1,15,5724255.059175853, 1,11, 6,30
1156,5699626960.367751,0.0, 1, 1, 1,15,5724255.059175853, 1,11, 6,30
1292,-1226477113.0023422,-39772.299089756365,11,10, 5,45,-2443.484179559959, 9, 4,17,31
1306,8570969202.380647,0.0, 1, 1, 1,15,4050000.0, 1, 1, 9,45
1307,1474267949.3929083,0.0, 1, 1, 1,15,10035420.596547738, 2,11,10,30
1308,8570969202.380647,0.0, 1, 1, 1,15,4050000.0, 1, 1, 9,45
13,54793706337.9651,151703.1275401932, 3,21, 4,15,11347938.383507, 1,13, 8,45
61,15743207428.383959,88139.10953165221, 1, 1, 1,15,1282023.4113694867, 1, 1,20,15
134,3685071073.4325233,63564.01800854099, 1, 2, 4,15,156554.22484006523, 1, 1,20,15
170,273393721.45532674,348.4159749238097, 1, 2, 4,15,17476.39704006126, 1, 1,12,15
207,339560869.0695816,815.2532113832032, 1, 2, 3,15,22990.642799023623, 1, 1,10,15
244,664895467.8009144,1521.856143006317, 1, 2, 4,15,53038.631142310165, 1, 1,20,15
281,2407221015.106824,59938.60262432081, 1, 1, 5,15,81951.81706819107, 1, 1,19,15
318,0.0,0.0, 1, 1, 1,15,0.0, 1, 1, 1,15
355,10310294493.051695,18561.32405820678, 1, 2, 4,15,724774.895203776, 1, 1,18,15
403,10310294493.051695,18561.32405820678, 1, 2, 4,15,724774.895203776, 1, 1,18,15
476,5569688622.066177,7098.072629279515, 1, 2, 4,15,356036.3026282215, 1, 1,12,15
513,0.0,0.0, 1, 1, 1,15,0.0, 1, 1, 1,15
562,1951381701.3016315,0.0, 1, 2,14,30,132946.4966836656, 9, 4,17,45
1046,0.0,0.0, 1, 1, 1,15,0.0, 1, 1, 1,15
1096,8829876184.273365,0.0, 1, 1, 1,15,1432317.379666155, 8,31,15,60
1134,16013200748.191057,0.0, 1,30,11,60,6875795.137583676, 1,11, 7,15
1326,8570969202.380658,0.0, 1, 1, 1,15,4050000.0, 1, 1, 9,45
1379,0.0,0.0, 1, 1, 1,15,0.0, 1, 1, 1,15
End of Data
 Number of Records Written=          99
