Program Version,EnergyPlus, Version 22.2.0-c249759bad, YMD=2023.08.02 11:55
1,5,Environment Title[],Latitude[deg],Longitude[deg],Time Zone[],Elevation[m]
2,8,Day of Simulation[],Month[],Day of Month[],DST Indicator[1=yes 0=no],Hour[],StartMinute[],EndMinute[],DayType
3,5,Cumulative Day of Simulation[],Month[],Day of Month[],DST Indicator[1=yes 0=no],DayType  ! When Daily Report Variables Requested
4,2,Cumulative Days of Simulation[],Month[]  ! When Monthly Report Variables Requested
5,1,Cumulative Days of Simulation[] ! When Run Period Report Variables Requested
6,1,Calendar Year of Simulation[] ! When Annual Report Variables Requested
7,1,Environment,Site Mains Water Temperature [C] !Hourly
619,1,DX_HEATING_COIL,Heating Coil Heating Energy [J] !Hourly
1179,1,HEATING_RESISTANCE_BACKUP,Heating Coil Heating Energy [J] !Hourly
1316,1,WATER HEATER TANK,Water Heater Tank Temperature [C] !Hourly
1330,1,WATER HEATER TANK,Water Heater Heating Energy [J] !Hourly
1331,1,WATER HEATER TANK,Water Heater Electricity Rate [W] !Hourly
674,1,WaterSystems:Electricity [J] !Hourly
End of Data Dictionary
1,EXTREME_WINTER,  39.10, -84.42,  -5.00, 149.40
2,1, 1,15, 0, 1, 0.00,60.00,Monday
7,10.441413881398018
619,12415629.033908203
1179,0.0
1316,53.15347387358611
1330,0.0
1331,0.0
674,30600.0
2,1, 1,15, 0, 2, 0.00,60.00,Monday
7,10.441413881398018
619,12291927.853100562
1179,0.0
1316,52.79645295967537
1330,0.0
1331,0.0
674,30600.0
2,1, 1,15, 0, 3, 0.00,60.00,Monday
7,10.441413881398018
619,12633919.401547777
1179,0.0
1316,52.443287243676075
1330,0.0
1331,0.0
674,30600.0
2,1, 1,15, 0, 4, 0.00,60.00,Monday
7,10.441413881398018
619,14297870.546225157
1179,116051.39382061579
1316,52.09411432036529
1330,0.0
1331,0.0
674,30600.0
2,1, 1,15, 0, 5, 0.00,60.00,Monday
7,10.441413881398018
619,15108772.828379989
1179,2139018.9301972724
1316,51.748631093098375
1330,0.0
1331,0.0
674,30600.0
2,1, 1,15, 0, 6, 0.00,60.00,Monday
7,10.441413881398018
619,14621511.399096532
1179,8455734.381762316
1316,51.41185542702289
1330,0.0
1331,0.0
674,30600.0
2,1, 1,15, 0, 7, 0.00,60.00,Monday
7,10.441413881398018
619,14123495.352130342
1179,7129086.13785969
1316,51.08518948172375
1330,0.0
1331,0.0
674,30600.0
2,1, 1,15, 0, 8, 0.00,60.00,Monday
7,10.441413881398018
619,13986953.922860177
1179,10108224.920097841
1316,47.710389074859386
1330,0.0
1331,0.0
674,853058.9047239334
2,1, 1,15, 0, 9, 0.00,60.00,Monday
7,10.441413881398018
619,14149678.44440423
1179,11556644.184644174
1316,39.329944219819716
1330,0.0
1331,0.0
674,1130676.5736367297
2,1, 1,15, 0,10, 0.00,60.00,Monday
7,10.441413881398018
619,14353162.329096489
1179,10468306.955460705
1316,30.971798686295188
1330,0.0
1331,0.0
674,1045446.270149114
2,1, 1,15, 0,11, 0.00,60.00,Monday
7,10.441413881398018
619,14422540.611161273
1179,7001350.382632406
1316,38.41340066689052
1330,0.0
1331,0.0
674,1196401.3634320656
2,1, 1,15, 0,12, 0.00,60.00,Monday
7,10.441413881398018
619,14865238.217410382
1179,2159609.2845246433
1316,45.26972997083137
1330,0.0
1331,0.0
674,1301294.6737668498
2,1, 1,15, 0,13, 0.00,60.00,Monday
7,10.441413881398018
619,11381580.333843125
1179,0.0
1316,51.41116733289358
1330,0.0
1331,0.0
674,1110615.3121506707
2,1, 1,15, 0,14, 0.00,60.00,Monday
7,10.441413881398018
619,4874141.496364761
1179,0.0
1316,53.100888412606366
1330,0.0
1331,0.0
674,30600.0
2,1, 1,15, 0,15, 0.00,60.00,Monday
7,10.441413881398018
619,881825.0252747112
1179,0.0
1316,52.75606146958982
1330,0.0
1331,0.0
674,30600.0
2,1, 1,15, 0,16, 0.00,60.00,Monday
7,10.441413881398018
619,740289.7681467694
1179,0.0
1316,47.68487856354474
1330,0.0
1331,0.0
674,392422.9519761374
2,1, 1,15, 0,17, 0.00,60.00,Monday
7,10.441413881398018
619,4385434.912576741
1179,0.0
1316,41.07396977693721
1330,0.0
1331,0.0
674,1163213.534961856
2,1, 1,15, 0,18, 0.00,60.00,Monday
7,10.441413881398018
619,5581364.064522054
1179,0.0
1316,47.66954128893294
1330,0.0
1331,0.0
674,1186581.8436701507
2,1, 1,15, 0,19, 0.00,60.00,Monday
7,10.441413881398018
619,3622074.0025591683
1179,0.0
1316,49.94883873492703
1330,0.0
1331,0.0
674,30600.0
2,1, 1,15, 0,20, 0.00,60.00,Monday
7,10.441413881398018
619,4765243.641207637
1179,0.0
1316,49.64869922036868
1330,0.0
1331,0.0
674,30600.0
2,1, 1,15, 0,21, 0.00,60.00,Monday
7,10.441413881398018
619,10436395.86657811
1179,569893.051078279
1316,42.54577431104533
1330,0.0
1331,0.0
674,619174.0501018126
2,1, 1,15, 0,22, 0.00,60.00,Monday
7,10.441413881398018
619,14075332.525910996
1179,2003429.0523384071
1316,37.981874778580554
1330,0.0
1331,0.0
674,1117461.9269253865
2,1, 1,15, 0,23, 0.00,60.00,Monday
7,10.441413881398018
619,12339686.091768267
1179,440206.9884660606
1316,44.473368843088565
1330,0.0
1331,0.0
674,1254180.0778014322
2,1, 1,15, 0,24, 0.00,60.00,Monday
7,10.441413881398018
619,13856107.595142197
1179,1405328.2800182062
1316,50.70671622893655
1330,0.0
1331,0.0
674,935578.9756039744
2,2, 1,16, 0, 1, 0.00,60.00,Tuesday
7,10.399162799698386
619,13559930.530224757
1179,2031116.9562790177
1316,51.91125552012062
1330,0.0
1331,0.0
674,30600.0
2,2, 1,16, 0, 2, 0.00,60.00,Tuesday
7,10.399162799698386
619,13410258.689964574
1179,3894319.4687340967
1316,51.574234537668936
1330,0.0
1331,0.0
674,30600.0
2,2, 1,16, 0, 3, 0.00,60.00,Tuesday
7,10.399162799698386
619,13442029.088786932
1179,4743755.471513427
1316,51.240380253826935
1330,0.0
1331,0.0
674,30600.0
2,2, 1,16, 0, 4, 0.00,60.00,Tuesday
7,10.399162799698386
619,13334340.026379693
1179,6001233.534286577
1316,50.90977725231235
1330,0.0
1331,0.0
674,30600.0
2,2, 1,16, 0, 5, 0.00,60.00,Tuesday
7,10.399162799698386
619,13339965.361457007
1179,6102148.765181979
1316,50.58232181358131
1330,0.0
1331,0.0
674,30600.0
2,2, 1,16, 0, 6, 0.00,60.00,Tuesday
7,10.399162799698386
619,13530599.403178744
1179,9945465.071941381
1316,50.262994557313505
1330,0.0
1331,0.0
674,30600.0
2,2, 1,16, 0, 7, 0.00,60.00,Tuesday
7,10.399162799698386
619,13634200.55099509
1179,7842001.275922814
1316,49.95328644525174
1330,0.0
1331,0.0
674,30600.0
2,2, 1,16, 0, 8, 0.00,60.00,Tuesday
7,10.399162799698386
619,13660338.855774116
1179,6996839.418689862
1316,48.51836892116186
1330,0.0
1331,0.0
674,30600.0
2,2, 1,16, 0, 9, 0.00,60.00,Tuesday
7,10.399162799698386
619,14044608.844906477
1179,8743806.355677012
1316,36.789726489134935
1330,0.0
1331,0.0
674,688568.1330079811
2,2, 1,16, 0,10, 0.00,60.00,Tuesday
7,10.399162799698386
619,14908855.75568013
1179,5561695.088930972
1316,29.769910509401953
1330,0.0
1331,0.0
674,1032155.1193338347
2,2, 1,16, 0,11, 0.00,60.00,Tuesday
7,10.399162799698386
619,13957128.225995164
1179,377445.273882824
1316,24.89364185385458
1330,3914905.733112645
1331,1087.4738147535124
674,4663499.43088665
2,2, 1,16, 0,12, 0.00,60.00,Tuesday
7,10.399162799698386
619,10805884.302012222
1179,0.0
1316,33.426113695795806
1330,0.0
1331,0.0
674,1101478.9902138046
2,2, 1,16, 0,13, 0.00,60.00,Tuesday
7,10.399162799698386
619,7470603.803392364
1179,0.0
1316,40.941274028856554
1330,0.0
1331,0.0
674,1250819.0028441057
2,2, 1,16, 0,14, 0.00,60.00,Tuesday
7,10.399162799698386
619,5065009.099421733
1179,0.0
1316,47.82875961517925
1330,0.0
1331,0.0
674,1353763.891414322
2,2, 1,16, 0,15, 0.00,60.00,Tuesday
7,10.399162799698386
619,554406.918665275
1179,0.0
1316,52.86331387902684
1330,0.0
1331,0.0
674,550044.7941350807
2,2, 1,16, 0,16, 0.00,60.00,Tuesday
7,10.399162799698386
619,0.0
1179,0.0
1316,52.9927801150156
1330,0.0
1331,0.0
674,30600.0
2,2, 1,16, 0,17, 0.00,60.00,Tuesday
7,10.399162799698386
619,0.0
1179,0.0
1316,52.65732297830143
1330,0.0
1331,0.0
674,30600.0
2,2, 1,16, 0,18, 0.00,60.00,Tuesday
7,10.399162799698386
619,0.0
1179,0.0
1316,50.761931738417445
1330,0.0
1331,0.0
674,30600.0
2,2, 1,16, 0,19, 0.00,60.00,Tuesday
7,10.399162799698386
619,3723168.3605741644
1179,0.0
1316,43.598564189086794
1330,0.0
1331,0.0
674,917664.6967767272
2,2, 1,16, 0,20, 0.00,60.00,Tuesday
7,10.399162799698386
619,7609493.026996855
1179,0.0
1316,35.25368079764947
1330,0.0
1331,0.0
674,1076774.187336878
2,2, 1,16, 0,21, 0.00,60.00,Tuesday
7,10.399162799698386
619,6486176.593228306
1179,0.0
1316,38.40990432673021
1330,0.0
1331,0.0
674,1171867.0655626478
2,2, 1,16, 0,22, 0.00,60.00,Tuesday
7,10.399162799698386
619,7561772.622493472
1179,0.0
1316,45.70828935696556
1330,0.0
1331,0.0
674,1317193.8578325096
2,2, 1,16, 0,23, 0.00,60.00,Tuesday
7,10.399162799698386
619,2397375.889963216
1179,0.0
1316,51.72470501761554
1330,0.0
1331,0.0
674,767968.7311391865
2,2, 1,16, 0,24, 0.00,60.00,Tuesday
7,10.399162799698386
619,3597188.031564991
1179,0.0
1316,52.37223145198061
1330,0.0
1331,0.0
674,30600.0
2,3, 1,17, 0, 1, 0.00,60.00,Wednesday
7,10.358629861582711
619,5687358.070798052
1179,0.0
1316,52.02890188899511
1330,0.0
1331,0.0
674,30600.0
2,3, 1,17, 0, 2, 0.00,60.00,Wednesday
7,10.358629861582711
619,7267592.521234892
1179,0.0
1316,51.68887170720334
1330,0.0
1331,0.0
674,30600.0
2,3, 1,17, 0, 3, 0.00,60.00,Wednesday
7,10.358629861582711
619,8448184.281239092
1179,0.0
1316,51.35209832688911
1330,0.0
1331,0.0
674,30600.0
2,3, 1,17, 0, 4, 0.00,60.00,Wednesday
7,10.358629861582711
619,9063810.548475647
1179,0.0
1316,51.018602104271785
1330,0.0
1331,0.0
674,30600.0
2,3, 1,17, 0, 5, 0.00,60.00,Wednesday
7,10.358629861582711
619,9608354.163563497
1179,0.0
1316,50.688400989013275
1330,0.0
1331,0.0
674,30600.0
2,3, 1,17, 0, 6, 0.00,60.00,Wednesday
7,10.358629861582711
619,14216128.869060133
1179,941574.9158058808
1316,50.3664780151562
1330,0.0
1331,0.0
674,30600.0
2,3, 1,17, 0, 7, 0.00,60.00,Wednesday
7,10.358629861582711
619,12341137.12017106
1179,0.0
1316,50.05410010305383
1330,0.0
1331,0.0
674,30600.0
2,3, 1,17, 0, 8, 0.00,60.00,Wednesday
7,10.358629861582711
619,12122373.870455112
1179,0.0
1316,47.74052490294216
1330,0.0
1331,0.0
674,233535.7477467057
2,3, 1,17, 0, 9, 0.00,60.00,Wednesday
7,10.358629861582711
619,15509727.693401255
1179,0.0
1316,41.134564973915566
1330,0.0
1331,0.0
674,1177740.7007630316
2,3, 1,17, 0,10, 0.00,60.00,Wednesday
7,10.358629861582711
619,12196909.820665246
1179,0.0
1316,33.83238759855627
1330,0.0
1331,0.0
674,1065602.741769283
2,3, 1,17, 0,11, 0.00,60.00,Wednesday
7,10.358629861582711
619,10107417.21464318
1179,0.0
1316,37.61777969990907
1330,0.0
1331,0.0
674,1183035.3113192944
2,3, 1,17, 0,12, 0.00,60.00,Wednesday
7,10.358629861582711
619,9133173.075838253
1179,0.0
1316,45.30740669675479
1330,0.0
1331,0.0
674,1337263.797991381
2,3, 1,17, 0,13, 0.00,60.00,Wednesday
7,10.358629861582711
619,7269579.421269382
1179,0.0
1316,51.85593279490312
1330,0.0
1331,0.0
674,930148.5431879449
2,3, 1,17, 0,14, 0.00,60.00,Wednesday
7,10.358629861582711
619,4065281.2595836534
1179,0.0
1316,52.96009180160517
1330,0.0
1331,0.0
674,30600.0
2,3, 1,17, 0,15, 0.00,60.00,Wednesday
7,10.358629861582711
619,875194.8323688529
1179,0.0
1316,52.29175113213489
1330,0.0
1331,0.0
674,30600.0
2,3, 1,17, 0,16, 0.00,60.00,Wednesday
7,10.358629861582711
619,2783328.649523422
1179,0.0
1316,41.79658467596249
1330,0.0
1331,0.0
674,665650.628260578
2,3, 1,17, 0,17, 0.00,60.00,Wednesday
7,10.358629861582711
619,5436058.942995994
1179,0.0
1316,41.92625304019088
1330,0.0
1331,0.0
674,1219477.8507979028
2,3, 1,17, 0,18, 0.00,60.00,Wednesday
7,10.358629861582711
619,3341277.3361324174
1179,0.0
1316,49.29524561962975
1330,0.0
1331,0.0
674,938780.2568385706
2,3, 1,17, 0,19, 0.00,60.00,Wednesday
7,10.358629861582711
619,341129.52173299034
1179,0.0
1316,50.75157289939125
1330,0.0
1331,0.0
674,30600.0
2,3, 1,17, 0,20, 0.00,60.00,Wednesday
7,10.358629861582711
619,907538.2643847195
1179,0.0
1316,50.43906795596368
1330,0.0
1331,0.0
674,30600.0
2,3, 1,17, 0,21, 0.00,60.00,Wednesday
7,10.358629861582711
619,3424681.580490675
1179,0.0
1316,45.69187570090517
1330,0.0
1331,0.0
674,334285.2474628723
2,3, 1,17, 0,22, 0.00,60.00,Wednesday
7,10.358629861582711
619,7327992.22337372
1179,0.0
1316,47.19680387481282
1330,0.0
1331,0.0
674,968193.3493491819
2,3, 1,17, 0,23, 0.00,60.00,Wednesday
7,10.358629861582711
619,1616828.8442694773
1179,0.0
1316,48.33753112873679
1330,0.0
1331,0.0
674,30600.0
2,3, 1,17, 0,24, 0.00,60.00,Wednesday
7,10.358629861582711
619,5717569.250762387
1179,0.0
1316,48.04803420435572
1330,0.0
1331,0.0
674,30600.0
2,4, 1,18, 0, 1, 0.00,60.00,Thursday
7,10.319827070496707
619,8174671.747509202
1179,0.0
1316,47.76060442453146
1330,0.0
1331,0.0
674,30600.0
2,4, 1,18, 0, 2, 0.00,60.00,Thursday
7,10.319827070496707
619,10035294.766751036
1179,0.0
1316,47.475619512163284
1330,0.0
1331,0.0
674,30600.0
2,4, 1,18, 0, 3, 0.00,60.00,Thursday
7,10.319827070496707
619,12018203.721441103
1179,0.0
1316,47.19293514404714
1330,0.0
1331,0.0
674,30600.0
2,4, 1,18, 0, 4, 0.00,60.00,Thursday
7,10.319827070496707
619,12691229.96515011
1179,0.0
1316,46.91264873555363
1330,0.0
1331,0.0
674,30600.0
2,4, 1,18, 0, 5, 0.00,60.00,Thursday
7,10.319827070496707
619,14972870.415884843
1179,124061.98041598008
1316,46.63475951069058
1330,0.0
1331,0.0
674,30600.0
2,4, 1,18, 0, 6, 0.00,60.00,Thursday
7,10.319827070496707
619,16289560.191063091
1179,3967161.7397711794
1316,46.36428077547949
1330,0.0
1331,0.0
674,30600.0
2,4, 1,18, 0, 7, 0.00,60.00,Thursday
7,10.319827070496707
619,16293475.322103955
1179,799592.3602992547
1316,46.10250434261757
1330,0.0
1331,0.0
674,30600.0
2,4, 1,18, 0, 8, 0.00,60.00,Thursday
7,10.319827070496707
619,16328454.038776524
1179,1525991.9120226996
1316,45.84310886475364
1330,0.0
1331,0.0
674,30600.0
2,4, 1,18, 0, 9, 0.00,60.00,Thursday
7,10.319827070496707
619,16356072.869881736
1179,3361270.681005382
1316,38.2765465939648
1330,0.0
1331,0.0
674,723329.4018699026
2,4, 1,18, 0,10, 0.00,60.00,Thursday
7,10.319827070496707
619,16009238.842139347
1179,796386.1030966914
1316,27.936614665405102
1330,0.0
1331,0.0
674,1015511.6643879132
2,4, 1,18, 0,11, 0.00,60.00,Thursday
7,10.319827070496707
619,11844548.965395667
1179,0.0
1316,30.902131858342514
1330,0.0
1331,0.0
674,1096378.0784173869
2,4, 1,18, 0,12, 0.00,60.00,Thursday
7,10.319827070496707
619,8323203.271765223
1179,0.0
1316,38.103688039977726
1330,0.0
1331,0.0
674,1209318.9521146368
2,4, 1,18, 0,13, 0.00,60.00,Thursday
7,10.319827070496707
619,6458774.415778534
1179,0.0
1316,44.75898673095535
1330,0.0
1331,0.0
674,1299980.7532457279
2,4, 1,18, 0,14, 0.00,60.00,Thursday
7,10.319827070496707
619,4596913.557074528
1179,0.0
1316,51.13939766987355
1330,0.0
1331,0.0
674,1181853.2571042245
2,4, 1,18, 0,15, 0.00,60.00,Thursday
7,10.319827070496707
619,0.0
1179,0.0
1316,53.131130702221476
1330,0.0
1331,0.0
674,30600.0
2,4, 1,18, 0,16, 0.00,60.00,Thursday
7,10.319827070496707
619,0.0
1179,0.0
1316,52.79191344953392
1330,0.0
1331,0.0
674,30600.0
2,4, 1,18, 0,17, 0.00,60.00,Thursday
7,10.319827070496707
619,0.0
1179,0.0
1316,52.1379035223466
1330,0.0
1331,0.0
674,30600.0
2,4, 1,18, 0,18, 0.00,60.00,Thursday
7,10.319827070496707
619,0.0
1179,0.0
1316,48.43026006839201
1330,0.0
1331,0.0
674,30600.0
2,4, 1,18, 0,19, 0.00,60.00,Thursday
7,10.319827070496707
619,1560404.0660943529
1179,0.0
1316,46.46035957664005
1330,0.0
1331,0.0
674,30600.0
2,4, 1,18, 0,20, 0.00,60.00,Thursday
7,10.319827070496707
619,4606614.462879989
1179,0.0
1316,42.49213954606353
1330,0.0
1331,0.0
674,198044.9835481455
2,4, 1,18, 0,21, 0.00,60.00,Thursday
7,10.319827070496707
619,12167036.010421542
1179,0.0
1316,26.929946438851832
1330,0.0
1331,0.0
674,996090.5358369914
2,4, 1,18, 0,22, 0.00,60.00,Thursday
7,10.319827070496707
619,13506929.514262613
1179,0.0
1316,34.64391217691162
1330,0.0
1331,0.0
674,1158864.594559791
2,4, 1,18, 0,23, 0.00,60.00,Thursday
7,10.319827070496707
619,10265698.42727637
1179,124425.98686659071
1316,41.97339287952092
1330,0.0
1331,0.0
674,1267449.5580048172
2,4, 1,18, 0,24, 0.00,60.00,Thursday
7,10.319827070496707
619,14802624.721895728
1179,6608.909434149064
1316,48.62894140653315
1330,0.0
1331,0.0
674,1353994.723890816
2,5, 1,19, 0, 1, 0.00,60.00,Friday
7,10.282765917519429
619,15012784.072448349
1179,101058.71732215697
1316,53.02629956416727
1330,0.0
1331,0.0
674,401264.498072198
2,5, 1,19, 0, 2, 0.00,60.00,Friday
7,10.282765917519429
619,15849788.962319434
1179,407889.6531958283
1316,52.91687503497741
1330,0.0
1331,0.0
674,30600.0
2,5, 1,19, 0, 3, 0.00,60.00,Friday
7,10.282765917519429
619,15951468.758960724
1179,1542585.2619814533
1316,52.56244990119251
1330,0.0
1331,0.0
674,30600.0
2,5, 1,19, 0, 4, 0.00,60.00,Friday
7,10.282765917519429
619,16088197.302014213
1179,1473476.3254565164
1316,52.211898730710494
1330,0.0
1331,0.0
674,30600.0
2,5, 1,19, 0, 5, 0.00,60.00,Friday
7,10.282765917519429
619,16117591.1427674
1179,247121.13434716448
1316,51.86516274857479
1330,0.0
1331,0.0
674,30600.0
2,5, 1,19, 0, 6, 0.00,60.00,Friday
7,10.282765917519429
619,16413324.791315448
1179,3458219.7069454864
1316,51.52726906956669
1330,0.0
1331,0.0
674,30600.0
2,5, 1,19, 0, 7, 0.00,60.00,Friday
7,10.282765917519429
619,16082890.747772448
1179,2806629.2102260566
1316,51.19941742613028
1330,0.0
1331,0.0
674,30600.0
2,5, 1,19, 0, 8, 0.00,60.00,Friday
7,10.282765917519429
619,15529385.600957658
1179,4296207.1976901265
1316,48.28198832548541
1330,0.0
1331,0.0
674,30600.0
2,5, 1,19, 0, 9, 0.00,60.00,Friday
7,10.282765917519429
619,15105569.62365896
1179,8170657.587850545
1316,41.59269168590465
1330,0.0
1331,0.0
674,975345.7166540193
2,5, 1,19, 0,10, 0.00,60.00,Friday
7,10.282765917519429
619,15092801.206600728
1179,6693014.315070653
1316,24.83165839315709
1330,3368976.8114344943
1331,935.8268920651373
674,4166059.9453811613
2,5, 1,19, 0,11, 0.00,60.00,Friday
7,10.282765917519429
619,15145332.103045365
1179,6483162.698734244
1316,33.02747785397162
1330,0.0
1331,0.0
674,1090547.1807539815
2,5, 1,19, 0,12, 0.00,60.00,Friday
7,10.282765917519429
619,15151925.126592763
1179,5442001.406130112
1316,40.16110353371673
1330,0.0
1331,0.0
674,1224635.7070508946
2,5, 1,19, 0,13, 0.00,60.00,Friday
7,10.282765917519429
619,15274113.800022583
1179,1722438.0604898725
1316,46.80647572499516
1330,0.0
1331,0.0
674,1315463.4829321192
2,5, 1,19, 0,14, 0.00,60.00,Friday
7,10.282765917519429
619,12535175.851448765
1179,100759.5075186623
1316,52.30605218108504
1330,0.0
1331,0.0
674,823335.7774913178
2,5, 1,19, 0,15, 0.00,60.00,Friday
7,10.282765917519429
619,7857876.508629596
1179,0.0
1316,53.045525133910324
1330,0.0
1331,0.0
674,30600.0
2,5, 1,19, 0,16, 0.00,60.00,Friday
7,10.282765917519429
619,6129141.033642187
1179,0.0
1316,52.7011203498292
1330,0.0
1331,0.0
674,30600.0
2,5, 1,19, 0,17, 0.00,60.00,Friday
7,10.282765917519429
619,3776078.9980422314
1179,0.0
1316,52.3606271401563
1330,0.0
1331,0.0
674,30600.0
2,5, 1,19, 0,18, 0.00,60.00,Friday
7,10.282765917519429
619,12259988.144517586
1179,2110053.9573264094
1316,45.429784202413146
1330,0.0
1331,0.0
674,1007426.9475038715
2,5, 1,19, 0,19, 0.00,60.00,Friday
7,10.282765917519429
619,13936795.518527195
1179,5098033.540208573
1316,37.73306900558463
1330,0.0
1331,0.0
674,1095139.0516796526
2,5, 1,19, 0,20, 0.00,60.00,Friday
7,10.282765917519429
619,13595867.322129251
1179,7226111.030601542
1316,30.497567252733464
1330,0.0
1331,0.0
674,1036348.7584982855
2,5, 1,19, 0,21, 0.00,60.00,Friday
7,10.282765917519429
619,13356674.870252512
1179,9111933.954419147
1316,37.361561016768015
1330,0.0
1331,0.0
674,1172378.7940420168
2,5, 1,19, 0,22, 0.00,60.00,Friday
7,10.282765917519429
619,13138867.374007367
1179,11020024.934576478
1316,44.04927848568007
1330,0.0
1331,0.0
674,1269022.989877396
2,5, 1,19, 0,23, 0.00,60.00,Friday
7,10.282765917519429
619,12263201.574371811
1179,8270625.437468295
1316,50.10069682555357
1330,0.0
1331,0.0
674,1329259.0230519823
2,5, 1,19, 0,24, 0.00,60.00,Friday
7,10.282765917519429
619,12883760.719469726
1179,7930848.879629824
1316,53.17307814744378
1330,0.0
1331,0.0
674,148226.31328534964
2,6, 1,20, 0, 1, 0.00,60.00,Saturday
7,10.247457377960314
619,12758007.141146436
1179,9834556.852469688
1316,52.857410730200236
1330,0.0
1331,0.0
674,30600.0
2,6, 1,20, 0, 2, 0.00,60.00,Saturday
7,10.247457377960314
619,12690914.528608415
1179,12651513.73600883
1316,52.50368099997319
1330,0.0
1331,0.0
674,30600.0
2,6, 1,20, 0, 3, 0.00,60.00,Saturday
7,10.247457377960314
619,12564362.447624557
1179,15059088.285189051
1316,52.15366701357339
1330,0.0
1331,0.0
674,30600.0
2,6, 1,20, 0, 4, 0.00,60.00,Saturday
7,10.247457377960314
619,12349270.198810056
1179,15734186.705248833
1316,51.807528181436915
1330,0.0
1331,0.0
674,30600.0
2,6, 1,20, 0, 5, 0.00,60.00,Saturday
7,10.247457377960314
619,12121510.842842836
1179,15367782.518453194
1316,51.46515724059602
1330,0.0
1331,0.0
674,30600.0
2,6, 1,20, 0, 6, 0.00,60.00,Saturday
7,10.247457377960314
619,11847308.295038756
1179,20441048.14437524
1316,51.13005710822858
1330,0.0
1331,0.0
674,30600.0
2,6, 1,20, 0, 7, 0.00,60.00,Saturday
7,10.247457377960314
619,11751727.06862141
1179,18870604.613663886
1316,50.805954724726085
1330,0.0
1331,0.0
674,30600.0
2,6, 1,20, 0, 8, 0.00,60.00,Saturday
7,10.247457377960314
619,11873662.126897255
1179,18419845.526088007
1316,48.516583276808035
1330,0.0
1331,0.0
674,30600.0
2,6, 1,20, 0, 9, 0.00,60.00,Saturday
7,10.247457377960314
619,12184467.85512669
1179,18534126.518066082
1316,40.12536003556905
1330,0.0
1331,0.0
674,1126558.7274419789
2,6, 1,20, 0,10, 0.00,60.00,Saturday
7,10.247457377960314
619,12606680.408189945
1179,13413670.99459896
1316,34.509470525096475
1330,0.0
1331,0.0
674,1054954.2851609394
2,6, 1,20, 0,11, 0.00,60.00,Saturday
7,10.247457377960314
619,13207461.049788555
1179,7982213.297625226
1316,41.531542399057855
1330,0.0
1331,0.0
674,1201050.449708212
2,6, 1,20, 0,12, 0.00,60.00,Saturday
7,10.247457377960314
619,13643774.671037724
1179,4158203.6200611587
1316,47.918840332930806
1330,0.0
1331,0.0
674,1307497.0367609523
2,6, 1,20, 0,13, 0.00,60.00,Saturday
7,10.247457377960314
619,11511336.145790074
1179,926292.116314297
1316,52.671513529833156
1330,0.0
1331,0.0
674,575705.2179915231
2,6, 1,20, 0,14, 0.00,60.00,Saturday
7,10.247457377960314
619,7481503.8920302205
1179,0.0
1316,46.96599195759659
1330,0.0
1331,0.0
674,30600.0
2,6, 1,20, 0,15, 0.00,60.00,Saturday
7,10.247457377960314
619,7954866.939940459
1179,0.0
1316,43.508987077743946
1330,0.0
1331,0.0
674,417304.41020072997
2,6, 1,20, 0,16, 0.00,60.00,Saturday
7,10.247457377960314
619,4796244.819012509
1179,0.0
1316,47.70024247236094
1330,0.0
1331,0.0
674,618655.9316514588
2,6, 1,20, 0,17, 0.00,60.00,Saturday
7,10.247457377960314
619,1050752.7303253666
1179,0.0
1316,48.22115905921779
1330,0.0
1331,0.0
674,30600.0
2,6, 1,20, 0,18, 0.00,60.00,Saturday
7,10.247457377960314
619,6270264.668030305
1179,0.0
1316,47.943170789885265
1330,0.0
1331,0.0
674,30600.0
2,6, 1,20, 0,19, 0.00,60.00,Saturday
7,10.247457377960314
619,11200031.061902717
1179,0.0
1316,47.66747420472311
1330,0.0
1331,0.0
674,30600.0
2,6, 1,20, 0,20, 0.00,60.00,Saturday
7,10.247457377960314
619,13414277.950539093
1179,1201705.8072137097
1316,46.13958660212064
1330,0.0
1331,0.0
674,223870.75452618272
2,6, 1,20, 0,21, 0.00,60.00,Saturday
7,10.247457377960314
619,13625508.654347304
1179,6284604.293328436
1316,37.12736994115661
1330,0.0
1331,0.0
674,1082801.629793773
2,6, 1,20, 0,22, 0.00,60.00,Saturday
7,10.247457377960314
619,13268806.376134854
1179,8356472.405017835
1316,33.9664532527422
1330,0.0
1331,0.0
674,1077758.4866915343
2,6, 1,20, 0,23, 0.00,60.00,Saturday
7,10.247457377960314
619,11933394.651267286
1179,6906870.172003579
1316,40.80925015124751
1330,0.0
1331,0.0
674,1205994.2353827124
2,6, 1,20, 0,24, 0.00,60.00,Saturday
7,10.247457377960314
619,12610637.443856189
1179,9953097.830910621
1316,47.15914658170985
1330,0.0
1331,0.0
674,1298326.6870932695
2,7, 1,21, 0, 1, 0.00,60.00,Sunday
7,10.21391190810892
619,12485065.640846934
1179,10747685.778637648
1316,52.38847819889614
1330,0.0
1331,0.0
674,790770.0583987769
2,7, 1,21, 0, 2, 0.00,60.00,Sunday
7,10.21391190810892
619,12331344.84078224
1179,10739147.932864496
1316,53.0235028652711
1330,0.0
1331,0.0
674,30600.0
2,7, 1,21, 0, 3, 0.00,60.00,Sunday
7,10.21391190810892
619,12175284.055007553
1179,12044851.944245808
1316,52.66797381569722
1330,0.0
1331,0.0
674,30600.0
2,7, 1,21, 0, 4, 0.00,60.00,Sunday
7,10.21391190810892
619,12067271.274169061
1179,13061916.53572261
1316,52.31632849204675
1330,0.0
1331,0.0
674,30600.0
2,7, 1,21, 0, 5, 0.00,60.00,Sunday
7,10.21391190810892
619,12088924.76681029
1179,13089291.117788263
1316,51.96850494208189
1330,0.0
1331,0.0
674,30600.0
2,7, 1,21, 0, 6, 0.00,60.00,Sunday
7,10.21391190810892
619,12254886.179908885
1179,17387174.028065678
1316,51.62869590546143
1330,0.0
1331,0.0
674,30600.0
2,7, 1,21, 0, 7, 0.00,60.00,Sunday
7,10.21391190810892
619,12345085.389608098
1179,14820342.553488001
1316,51.29962077147811
1330,0.0
1331,0.0
674,30600.0
2,7, 1,21, 0, 8, 0.00,60.00,Sunday
7,10.21391190810892
619,12579585.854153007
1179,13411768.042697929
1316,50.97424177378702
1330,0.0
1331,0.0
674,30600.0
2,7, 1,21, 0, 9, 0.00,60.00,Sunday
7,10.21391190810892
619,13295439.56764273
1179,12140783.105899407
1316,42.477437522897
1330,0.0
1331,0.0
674,534616.952902195
2,7, 1,21, 0,10, 0.00,60.00,Sunday
7,10.21391190810892
619,14573521.80992151
1179,9111177.867089398
1316,30.467256809224594
1330,0.0
1331,0.0
674,1018767.8173045083
2,7, 1,21, 0,11, 0.00,60.00,Sunday
7,10.21391190810892
619,15583122.472224198
1179,3294780.1198098636
1316,32.3141137037199
1330,0.0
1331,0.0
674,1092451.1600316647
2,7, 1,21, 0,12, 0.00,60.00,Sunday
7,10.21391190810892
619,13789926.37734978
1179,8167.283206253387
1316,39.206400605825515
1330,0.0
1331,0.0
674,1207755.4163268018
2,7, 1,21, 0,13, 0.00,60.00,Sunday
7,10.21391190810892
619,9608736.928678477
1179,0.0
1316,45.53650292838784
1330,0.0
1331,0.0
674,1292744.4973535642
2,7, 1,21, 0,14, 0.00,60.00,Sunday
7,10.21391190810892
619,5026023.910072594
1179,0.0
1316,51.49609026935758
1330,0.0
1331,0.0
674,1041504.049872355
2,7, 1,21, 0,15, 0.00,60.00,Sunday
7,10.21391190810892
619,95108.18977575883
1179,0.0
1316,52.95407379709521
1330,0.0
1331,0.0
674,30600.0
2,7, 1,21, 0,16, 0.00,60.00,Sunday
7,10.21391190810892
619,0.0
1179,0.0
1316,52.61557962260134
1330,0.0
1331,0.0
674,30600.0
2,7, 1,21, 0,17, 0.00,60.00,Sunday
7,10.21391190810892
619,0.0
1179,0.0
1316,51.97147958259692
1330,0.0
1331,0.0
674,30600.0
2,7, 1,21, 0,18, 0.00,60.00,Sunday
7,10.21391190810892
619,0.0
1179,0.0
1316,48.254808088350906
1330,0.0
1331,0.0
674,30600.0
2,7, 1,21, 0,19, 0.00,60.00,Sunday
7,10.21391190810892
619,0.0
1179,0.0
1316,46.29331686642251
1330,0.0
1331,0.0
674,30600.0
2,7, 1,21, 0,20, 0.00,60.00,Sunday
7,10.21391190810892
619,3036474.2035823967
1179,0.0
1316,42.329108423610094
1330,0.0
1331,0.0
674,296592.3628239517
2,7, 1,21, 0,21, 0.00,60.00,Sunday
7,10.21391190810892
619,10741714.577276777
1179,0.0
1316,27.55671418616377
1330,0.0
1331,0.0
674,994704.8449144529
2,7, 1,21, 0,22, 0.00,60.00,Sunday
7,10.21391190810892
619,13328998.146023134
1179,0.0
1316,35.056068643171336
1330,0.0
1331,0.0
674,1153171.709478179
2,7, 1,21, 0,23, 0.00,60.00,Sunday
7,10.21391190810892
619,10644200.149266472
1179,497368.99339956313
1316,42.14482142799549
1330,0.0
1331,0.0
674,1256080.0988034697
2,7, 1,21, 0,24, 0.00,60.00,Sunday
7,10.21391190810892
619,14120661.561396498
1179,0.0
1316,48.53771741230238
1330,0.0
1331,0.0
674,1331780.5960958472
1,EXTREME_SUMMER,  39.10, -84.42,  -5.00, 149.40
2,1, 7,15, 0, 1, 0.00,60.00,Monday
7,21.891361446761014
619,0.0
1179,0.0
1316,53.18363385987073
1330,0.0
1331,0.0
674,30600.0
2,1, 7,15, 0, 2, 0.00,60.00,Monday
7,21.891361446761014
619,0.0
1179,0.0
1316,52.88660107557448
1330,0.0
1331,0.0
674,30600.0
2,1, 7,15, 0, 3, 0.00,60.00,Monday
7,21.891361446761014
619,0.0
1179,0.0
1316,52.59284588779216
1330,0.0
1331,0.0
674,30600.0
2,1, 7,15, 0, 4, 0.00,60.00,Monday
7,21.891361446761014
619,0.0
1179,0.0
1316,52.302277450082094
1330,0.0
1331,0.0
674,30600.0
2,1, 7,15, 0, 5, 0.00,60.00,Monday
7,21.891361446761014
619,0.0
1179,0.0
1316,52.01483031344898
1330,0.0
1331,0.0
674,30600.0
2,1, 7,15, 0, 6, 0.00,60.00,Monday
7,21.891361446761014
619,0.0
1179,0.0
1316,51.725420569696844
1330,0.0
1331,0.0
674,30600.0
2,1, 7,15, 0, 7, 0.00,60.00,Monday
7,21.891361446761014
619,0.0
1179,0.0
1316,51.43279324448647
1330,0.0
1331,0.0
674,30600.0
2,1, 7,15, 0, 8, 0.00,60.00,Monday
7,21.891361446761014
619,0.0
1179,0.0
1316,47.829952293644226
1330,0.0
1331,0.0
674,67588.78658820239
2,1, 7,15, 0, 9, 0.00,60.00,Monday
7,21.891361446761014
619,0.0
1179,0.0
1316,42.31769257609675
1330,0.0
1331,0.0
674,1298564.0407074345
2,1, 7,15, 0,10, 0.00,60.00,Monday
7,21.891361446761014
619,0.0
1179,0.0
1316,39.60613326716997
1330,0.0
1331,0.0
674,1301289.8664476138
2,1, 7,15, 0,11, 0.00,60.00,Monday
7,21.891361446761014
619,0.0
1179,0.0
1316,48.759808383764685
1330,0.0
1331,0.0
674,1502996.4734212663
2,1, 7,15, 0,12, 0.00,60.00,Monday
7,21.891361446761014
619,0.0
1179,0.0
1316,53.183748077196306
1330,0.0
1331,0.0
674,93902.0057840546
2,1, 7,15, 0,13, 0.00,60.00,Monday
7,21.891361446761014
619,0.0
1179,0.0
1316,52.88297868959521
1330,0.0
1331,0.0
674,30600.0
2,1, 7,15, 0,14, 0.00,60.00,Monday
7,21.891361446761014
619,0.0
1179,0.0
1316,52.580189541172494
1330,0.0
1331,0.0
674,30600.0
2,1, 7,15, 0,15, 0.00,60.00,Monday
7,21.891361446761014
619,0.0
1179,0.0
1316,52.28432438553941
1330,0.0
1331,0.0
674,30600.0
2,1, 7,15, 0,16, 0.00,60.00,Monday
7,21.891361446761014
619,0.0
1179,0.0
1316,48.8412632308021
1330,0.0
1331,0.0
674,452779.54281281214
2,1, 7,15, 0,17, 0.00,60.00,Monday
7,21.891361446761014
619,0.0
1179,0.0
1316,47.144763130145385
1330,0.0
1331,0.0
674,1311045.1492723022
2,1, 7,15, 0,18, 0.00,60.00,Monday
7,21.891361446761014
619,0.0
1179,0.0
1316,50.52736237240711
1330,0.0
1331,0.0
674,30600.0
2,1, 7,15, 0,19, 0.00,60.00,Monday
7,21.891361446761014
619,0.0
1179,0.0
1316,49.98738675341019
1330,0.0
1331,0.0
674,30600.0
2,1, 7,15, 0,20, 0.00,60.00,Monday
7,21.891361446761014
619,0.0
1179,0.0
1316,49.74154323420999
1330,0.0
1331,0.0
674,30600.0
2,1, 7,15, 0,21, 0.00,60.00,Monday
7,21.891361446761014
619,0.0
1179,0.0
1316,45.18093727086447
1330,0.0
1331,0.0
674,713781.9614356012
2,1, 7,15, 0,22, 0.00,60.00,Monday
7,21.891361446761014
619,0.0
1179,0.0
1316,45.124322442907726
1330,0.0
1331,0.0
674,1348672.0509331496
2,1, 7,15, 0,23, 0.00,60.00,Monday
7,21.891361446761014
619,0.0
1179,0.0