Program Version,EnergyPlus, Version 22.2.0-c249759bad, YMD=2023.09.01 14:30
1,5,Environment Title[],Latitude[deg],Longitude[deg],Time Zone[],Elevation[m]
2,8,Day of Simulation[],Month[],Day of Month[],DST Indicator[1=yes 0=no],Hour[],StartMinute[],EndMinute[],DayType
3,5,Cumulative Day of Simulation[],Month[],Day of Month[],DST Indicator[1=yes 0=no],DayType  ! When Daily Report Variables Requested
4,2,Cumulative Days of Simulation[],Month[]  ! When Monthly Report Variables Requested
5,1,Cumulative Days of Simulation[] ! When Run Period Report Variables Requested
6,1,Calendar Year of Simulation[] ! When Annual Report Variables Requested
7,1,Environment,Site Outdoor Air Drybulb Temperature [C] !Hourly
619,1,DX_HEATING_COIL,Heating Coil Heating Rate [W] !Hourly
633,1,DX_HEATING_COIL,Heating Coil Electricity Rate [W] !Hourly
659,1,DX_HEATING_COIL,Heating Coil Defrost Electricity Rate [W] !Hourly
661,1,DX_HEATING_COIL,Heating Coil Crankcase Heater Electricity Rate [W] !Hourly
690,1,FAN,Fan Electricity Rate [W] !Hourly
716,1,HEAT PUMP WATER HEATER FAN,Fan Electricity Rate [W] !Hourly
718,1,LIVING,Zone Mean Air Temperature [C] !Hourly
719,1,ATTIC,Zone Mean Air Temperature [C] !Hourly
720,1,CRAWLSPACE,Zone Mean Air Temperature [C] !Hourly
843,1,LIVING,Zone Predicted Sensible Load to Heating Setpoint Heat Transfer Rate [W] !Hourly
844,1,LIVING,Zone System Predicted Sensible Load to Heating Setpoint Heat Transfer Rate [W] !Hourly
907,1,ATTIC,Zone Predicted Sensible Load to Heating Setpoint Heat Transfer Rate [W] !Hourly
908,1,ATTIC,Zone System Predicted Sensible Load to Heating Setpoint Heat Transfer Rate [W] !Hourly
971,1,CRAWLSPACE,Zone Predicted Sensible Load to Heating Setpoint Heat Transfer Rate [W] !Hourly
972,1,CRAWLSPACE,Zone System Predicted Sensible Load to Heating Setpoint Heat Transfer Rate [W] !Hourly
1195,1,HEATING_RESISTANCE_BACKUP,Heating Coil Heating Rate [W] !Hourly
1197,1,HEATING_RESISTANCE_BACKUP,Heating Coil Electricity Rate [W] !Hourly
End of Data Dictionary
1,EXTREME_WINTER,  33.63, -84.44,  -5.00, 307.90
2,1, 2,10, 0, 1, 0.00,60.00,Monday
7,6.7
718,19.088712501020055
719,5.020318521174376
720,19.14362998999652
619,532.8297717109494
633,144.86570159816586
659,0.0
661,182.73877672625503
690,13.219806203298042
716,0.0
843,405.02274051213135
844,405.02274051213135
907,0.0
908,0.0
971,0.0
972,0.0
1195,0.0
1197,0.0
2,1, 2,10, 0, 2, 0.00,60.00,Monday
7,5.6
718,18.33200629201461
719,5.579250880287593
720,18.842899001775464
619,383.2549272405577
633,107.35231716151485
659,0.0
661,187.1763685236438
690,9.8211998217877
716,0.0
843,298.1866867508179
844,298.1866867508179
907,0.0
908,0.0
971,0.0
972,0.0
1195,0.0
1197,0.0
2,1, 2,10, 0, 3, 0.00,60.00,Monday
7,4.4
718,18.613328890276254
719,5.31689642711862
720,18.65084137555427
619,970.0391730746558
633,292.76341992353514
659,28.270523940599222
661,157.03791906533493
690,32.74338420758355
716,0.0
843,735.797042505239
844,735.797042505239
907,0.0
908,0.0
971,0.0
972,0.0
1195,0.0
1197,0.0
2,1, 2,10, 0, 4, 0.00,60.00,Monday
7,5.6
718,18.71307780071785
719,5.43524093159456
720,18.48850785007414
619,1207.0537556428417
633,329.1872841651247
659,0.0
661,160.30144719483252
690,30.40382285269209
716,0.0
843,948.0120429719555
844,948.0120429719555
907,0.0
908,0.0
971,0.0
972,0.0
1195,0.0
1197,0.0
2,1, 2,10, 0, 5, 0.00,60.00,Monday
7,5.6
718,18.66941525213188
719,4.934893636254837
720,18.336757465400016
619,1087.3472740933923
633,297.8419793364715
659,0.0
661,164.14614736462755
690,27.459292772266906
716,0.0
843,840.2624907122026
844,840.2624907122026
907,0.0
908,0.0
971,0.0
972,0.0
1195,0.0
1197,0.0
2,1, 2,10, 0, 6, 0.00,60.00,Monday
7,5.6
718,19.526426939744194
719,5.68310654587464
720,18.183452798712572
619,2091.374406825916
633,561.8831970432475
659,0.0
661,132.28903634220043
690,51.857611896845704
716,0.0
843,1635.8880081857296
844,1635.8880081857296
907,0.0
908,0.0
971,0.0
972,0.0
1195,0.0
1197,0.0
2,1, 2,10, 0, 7, 0.00,60.00,Monday
7,5.6
718,19.612555695820944
719,6.538982785847277
720,18.064755184502722
619,3366.1416222291436
633,901.6801886681458
659,0.0
661,93.06187132930259
690,81.90041426092134
716,85.44000000000007
843,1505.6952898467916
844,1505.6952898467916
907,0.0
908,0.0
971,0.0
972,0.0
1195,0.0
1197,0.0
2,1, 2,10, 0, 8, 0.00,60.00,Monday
7,6.0
718,19.717404664958863
719,6.4046838368851775
720,17.955664151509684
619,2512.074151227791
633,680.6589632399241
659,0.0
661,119.73849012410925
690,61.46966465333054
716,48.15765746461928
843,1305.5410005339636
844,1305.5410005339636
907,0.0
908,0.0
971,0.0
972,0.0
1195,0.0
1197,0.0
2,1, 2,10, 0, 9, 0.00,60.00,Monday
7,7.0
718,19.76225680628912
719,6.780176123910404
720,17.854903854966572
619,1551.1877337068713
633,422.6532902160465
659,0.0
661,150.78533578904967
690,37.691901258165956
716,0.0
843,1210.7068548153566
844,1210.7068548153566
907,0.0
908,0.0
971,0.0
972,0.0
1195,0.0
1197,0.0
2,1, 2,10, 0,10, 0.00,60.00,Monday
7,7.8
718,19.682249035491925
719,8.478222655482007
720,17.75780049786734
619,1236.0406959686852
633,335.3505894966014
659,0.0
661,161.32236262876526
690,29.62193712115907
716,0.0
843,969.0846909108386
844,969.0846909108386
907,0.0
908,0.0
971,0.0
972,0.0
1195,0.0
1197,0.0
2,1, 2,10, 0,11, 0.00,60.00,Monday
7,7.8
718,19.584594666480154
719,9.275142980318074
720,17.667875353842547
619,1255.6002906809001
633,339.8857045003907
659,0.0
661,160.73750151249655
690,30.06986311633911
716,0.0
843,988.5226438368209
844,988.5226438368209
907,0.0
908,0.0
971,0.0
972,0.0
1195,0.0
1197,0.0
2,1, 2,10, 0,12, 0.00,60.00,Monday
7,7.8
718,19.69537576050141
719,10.504637712339369
720,17.589293772189066
619,1176.4224205573103
633,318.15434258987057
659,0.0
661,163.1788360356105
690,28.200124873506848
716,0.0
843,942.0572508618843
844,942.0572508618843
907,0.0
908,0.0
971,0.0
972,0.0
1195,0.0
1197,0.0
2,1, 2,10, 0,13, 0.00,60.00,Monday
7,7.8
718,19.73125435397619
719,11.285277213587161
720,17.52233656930761
619,895.0543396991238
633,243.83690665318105
659,0.0
661,171.83629850637044
690,21.569657596610224
716,0.0
843,714.0621293143868
844,714.0621293143868
907,0.0
908,0.0
971,0.0
972,0.0
1195,0.0
1197,0.0
2,1, 2,10, 0,14, 0.00,60.00,Monday
7,9.4
718,19.817898740092325
719,13.411479440635253
720,17.474194036312802
619,1703.772282814501
633,449.0928804016403
659,0.0
661,149.10552881528812
690,38.97841046437344
716,68.14197761984495
843,479.98390986581035
844,479.98390986581035
907,0.0
908,0.0
971,0.0
972,0.0
1195,0.0
1197,0.0
2,1, 2,10, 0,15, 0.00,60.00,Monday
7,9.4
718,19.95098595024252
719,15.080982608593445
720,17.420896111243817
619,45.77149337415282
633,12.428523365127328
659,0.0
661,198.59389554797445
690,1.076889399006052
716,0.0
843,36.145719366417325
844,36.145719366417325
907,0.0
908,0.0
971,0.0
972,0.0
1195,0.0
1197,0.0
2,1, 2,10, 0,16, 0.00,60.00,Monday
7,8.9
718,19.835535197333
719,14.15759836664534
720,17.39209297330988
619,0.0
633,0.0
659,0.0
661,200.0
690,0.0
716,0.0
843,-209.36707843447766
844,-209.36707843447766
907,0.0
908,0.0
971,0.0
972,0.0
1195,0.0
1197,0.0
2,1, 2,10, 0,17, 0.00,60.00,Monday
7,9.0
718,20.278553853681867
719,13.67309502033606
720,17.374340639232532
619,0.0
633,0.0
659,0.0
661,200.0
690,0.0
716,0.0
843,-335.670430321843
844,-335.670430321843
907,0.0
908,0.0
971,0.0
972,0.0
1195,0.0
1197,0.0
2,1, 2,10, 0,18, 0.00,60.00,Monday
7,6.1
718,19.948745028429975
719,11.082286338294729
720,17.360153061927633
619,0.0
633,0.0
659,0.0
661,200.0
690,0.0
716,0.0
843,-138.1615646063692
844,-138.1615646063692
907,0.0
908,0.0
971,0.0
972,0.0
1195,0.0
1197,0.0
2,1, 2,10, 0,19, 0.00,60.00,Monday
7,6.1
718,18.842764374734248
719,9.182562425450392
720,17.346572076632107
619,0.0
633,0.0
659,0.0
661,200.0
690,0.0
716,82.01906896867216
843,-191.66512307238008
844,-191.66512307238008
907,0.0
908,0.0
971,0.0
972,0.0
1195,0.0
1197,0.0
2,1, 2,10, 0,20, 0.00,60.00,Monday
7,4.0
718,19.390789694935087
719,7.73251267402225
720,17.30970450652483
619,1693.557161913044
633,510.81331536844937
659,34.022903224179046
661,128.1999549447345
690,54.77513954305314
716,76.16051671416028
843,374.7498634195199
844,374.7498634195199
907,0.0
908,0.0
971,0.0
972,0.0
1195,0.0
1197,0.0
2,1, 2,10, 0,21, 0.00,60.00,Monday
7,4.4
718,19.890416080435735
719,6.6741902103083115
720,17.290265330603397
619,509.0043577297631
633,158.8397192602119
659,8.661541330927177
661,178.32799880186056
690,16.551156032885608
716,0.0
843,391.9321839326112
844,391.9321839326112
907,0.0
908,0.0
971,0.0
972,0.0
1195,0.0
1197,0.0
2,1, 2,10, 0,22, 0.00,60.00,Monday
7,4.4
718,19.816563554860814
719,6.175803802855893
720,17.24438956075618
619,432.34679019205083
633,136.81066890057537
659,8.404204945145457
661,181.32164675373278
690,14.259254320973257
716,0.0
843,327.92576591757097
844,327.92576591757097
907,0.0
908,0.0
971,0.0
972,0.0
1195,0.0
1197,0.0
2,1, 2,10, 0,23, 0.00,60.00,Monday
7,4.4
718,18.844621402901577
719,5.605885580561673
720,17.1879809754251
619,0.0
633,0.0
659,0.0
661,200.0
690,0.0
716,0.0
843,-50.9735792317033
844,-50.9735792317033
907,0.0
908,0.0
971,0.0
972,0.0
1195,0.0
1197,0.0
2,1, 2,10, 0,24, 0.00,60.00,Monday
7,4.0
718,18.599218352307602
719,5.295303657359285
720,17.12335940159526
619,370.5004186283501
633,115.40241927638374
659,9.404570663669663
661,183.45852612219983
690,12.608249217066275
716,0.0
843,283.02666080635936
844,283.02666080635936
907,0.0
908,0.0
971,0.0
972,0.0
1195,0.0
1197,0.0
2,2, 2,11, 0, 1, 0.00,60.00,Tuesday
7,3.9
718,18.663331463606056
719,5.2116502055652445
720,17.052001076337557
619,778.2703483591337
633,238.94376495383452
659,18.12735160918127
661,165.82412026081846
690,26.05505798070157
716,0.0
843,577.4868398753506
844,577.4868398753506
907,0.0
908,0.0
971,0.0
972,0.0
1195,0.0
1197,0.0
2,2, 2,11, 0, 2, 0.00,60.00,Tuesday
7,3.0
718,18.472931369155717
719,5.01593001371377
720,16.974615543113003
619,1155.6725327401894
633,357.9191043877754
659,37.60294576055144
661,146.49563572757086
690,40.64487904013718
716,0.0
843,871.9372386448467
844,871.9372386448467
907,0.0
908,0.0
971,0.0
972,0.0
1195,0.0
1197,0.0
2,2, 2,11, 0, 3, 0.00,60.00,Tuesday
7,3.3
718,18.573129324230145
719,5.0613892836342504
720,16.891850545680608
619,1658.1431946222642
633,502.0322870768872
659,52.392464350385865
661,124.95665846433934
690,57.04693041509026
716,0.0
843,1238.3490442265593
844,1238.3490442265593
907,0.0
908,0.0
971,0.0
972,0.0
1195,0.0
1197,0.0
2,2, 2,11, 0, 4, 0.00,60.00,Tuesday
7,4.4
718,18.699400992478065
719,5.468338559717108
720,16.82097131330015
619,1796.9082877433707
633,533.3900891695985
659,60.7389871143313
661,120.1897937059595
690,60.772896035717466
716,0.0
843,1355.9090276887
844,1355.9090276887
907,0.0
908,0.0
971,0.0
972,0.0
1195,0.0
1197,0.0
2,2, 2,11, 0, 5, 0.00,60.00,Tuesday
7,4.4
718,18.40281721586328
719,5.538723079238433
720,16.741530349654106
619,1889.2336752893323
633,561.178508821161
659,58.02727486984827
661,117.29980728192346
690,63.00586758063986
716,0.0
843,1418.3369364126665
844,1418.3369364126665
907,0.0
908,0.0
971,0.0
972,0.0
1195,0.0
1197,0.0
2,2, 2,11, 0, 6, 0.00,60.00,Tuesday
7,3.9
718,19.363179301881974
719,5.5450769321616775
720,16.652184630854226
619,3362.673011411699
633,965.3379936449836
659,97.36899227933574
661,56.84045065112999
690,108.98240867367171
716,0.0
843,2559.79623680628
844,2559.79623680628
907,0.0
908,0.0
971,0.0
972,0.0
1195,0.0
1197,0.0
2,2, 2,11, 0, 7, 0.00,60.00,Tuesday
7,3.9
718,19.536511526238005
719,5.985416165708126
720,16.625355771070986
619,4813.236490122779
633,1366.0209535326555
659,135.3109866399527
661,1.055146860776901
690,151.44592593408058
716,85.44000000000007
843,2467.842946495077
844,2467.842946495077
907,0.0
908,0.0
971,0.0
972,0.0
1195,0.0
1197,0.0
2,2, 2,11, 0, 8, 0.00,60.00,Tuesday
7,3.3
718,19.63665871696795
719,5.441883960720978
720,16.55047926977941
619,4632.856468921594
633,1338.339157126207
659,127.12452665378419
661,5.692439450018205
690,147.78377367245105
716,85.44000000000007
843,2304.5732578126463
844,2304.5732578126463
907,0.0
908,0.0
971,0.0
972,0.0
1195,0.0
1197,0.0
2,2, 2,11, 0, 9, 0.00,60.00,Tuesday
7,2.8
718,19.692619094897516
719,5.120478648871999
720,16.48289618717759
619,4125.240442252757
633,1218.5930195331332
659,111.89728400328028
661,23.367851175053957
690,134.2458816785208
716,45.24040098765004
843,2428.8542778662977
844,2428.8542778662977
907,0.0
908,0.0
971,0.0
972,0.0
1195,0.0
1197,0.0
2,2, 2,11, 0,10, 0.00,60.00,Tuesday
7,3.0
718,19.75514234691734
719,4.835409839495744
720,16.407534321640526
619,2814.951719185119
633,856.4349686523769
659,76.44179856055595
661,76.6129669689726
690,93.83062286372099
716,0.0
843,2066.198509089925
844,2066.198509089925
907,0.0
908,0.0
971,0.0
972,0.0
1195,0.0
1197,0.0
2,2, 2,11, 0,11, 0.00,60.00,Tuesday
7,2.8
718,19.66102817662689
719,5.286114591780583
720,16.345268125415227
619,2860.4586196991754
633,873.4371438476051
659,79.99917867989087
661,73.69798971243355
690,95.99314948118231
716,0.0
843,2089.8233686228396
844,2089.8233686228396
907,0.0
908,0.0
971,0.0
972,0.0
1195,0.0
1197,0.0
2,2, 2,11, 0,12, 0.00,60.00,Tuesday
7,2.8
718,19.802213720169537
719,5.4259478593291455
720,16.276594368597802
619,2601.6609734297904
633,797.6269878575855
659,73.21914243875685
661,84.44192343704297
690,87.82749017640211
716,0.0
843,1906.2374210306389
844,1906.2374210306389
907,0.0
908,0.0
971,0.0
972,0.0
1195,0.0
1197,0.0
2,2, 2,11, 0,13, 0.00,60.00,Tuesday
7,2.8
718,19.743873003061196
719,5.404515366186191
720,16.219419159196857
619,2392.0090344859736
633,739.5841263930515
659,67.70749378496713
661,93.1406802909011
690,81.21577673451624
716,0.0
843,1758.0803727912644
844,1758.0803727912644
907,0.0
908,0.0
971,0.0
972,0.0
1195,0.0
1197,0.0
2,2, 2,11, 0,14, 0.00,60.00,Tuesday
7,2.8
718,19.66765839553469
719,5.46912005436494
720,16.16087007935467
619,2410.7824586896613
633,743.9491959931531
659,68.26987692866417
661,92.36601514395389
690,81.80397996952219
716,0.0
843,1763.3130754370268
844,1763.3130754370268
907,0.0
908,0.0
971,0.0
972,0.0
1195,0.0
1197,0.0
2,2, 2,11, 0,15, 0.00,60.00,Tuesday
7,2.8
718,19.63784979279978
719,5.528716401625922
720,16.108472368415374
619,2597.0655092556826
633,796.2456579030123
659,73.16970069822348
661,84.62115251844978
690,87.69061564985415
716,0.0
843,1914.1120807489679
844,1914.1120807489679
907,0.0
908,0.0
971,0.0
972,0.0
1195,0.0
1197,0.0
2,2, 2,11, 0,16, 0.00,60.00,Tuesday
7,2.2
718,19.82332236033302
719,5.118328782658241
720,16.056405292485938
619,2512.2192254006377
633,779.3115358148831
659,74.07262180711471
661,85.99680084417594
690,86.52236610894884
716,0.0
843,1839.349502095707
844,1839.349502095707
907,0.0
908,0.0
971,0.0
972,0.0
1195,0.0
1197,0.0
2,2, 2,11, 0,17, 0.00,60.00,Tuesday
7,2.2
718,19.65519599611199
719,4.6432867616965146
720,16.009498023243424
619,2301.3046928983367
633,720.841682661514
659,68.21582576269674
661,94.93800809097482
690,79.73640243095818
716,0.0
843,1675.9990286284956
844,1675.9990286284956
907,0.0
908,0.0
971,0.0
972,0.0
1195,0.0
1197,0.0
2,2, 2,11, 0,18, 0.00,60.00,Tuesday
7,2.0
718,19.645882393237066
719,4.47636350015092
720,15.971810483189874
619,3455.3896367366087
633,1050.8662986049148
659,101.85810825222772
661,45.66422633489693
690,117.0647715724041
716,64.47650010037384
843,1662.8877116951971
844,1662.8877116951971
907,0.0
908,0.0
971,0.0
972,0.0
1195,0.0
1197,0.0
2,2, 2,11, 0,19, 0.00,60.00,Tuesday
7,2.2
718,19.774098994353377
719,3.9732787483918797
720,15.903263304894082
619,2113.8175870127457
633,662.1563364560348
659,52.809783276139676
661,105.0403973782183
690,72.17417532472474
716,0.0
843,1530.3454077149017
844,1530.3454077149017
907,0.0
908,0.0
971,0.0
972,0.0
1195,0.0
1197,0.0
2,2, 2,11, 0,20, 0.00,60.00,Tuesday
7,2.0
718,19.737336966036942
719,4.045293715615141
720,15.882184348406238
619,3498.7988231250883
633,1066.0895639021314
659,89.28216287267408
661,46.36613989016407
690,116.68217040529605
716,85.44000000000007
843,1333.553811996153
844,1333.553811996153
907,0.0
908,0.0
971,0.0
972,0.0
1195,0.0
1197,0.0
2,2, 2,11, 0,21, 0.00,60.00,Tuesday
7,2.2
718,19.709839381719057
719,4.16442923555667
720,15.82397952846218
619,3431.0301590468803
633,1042.7971773076672
659,82.95401409611334
661,50.6916629064625
690,113.48262735549493
716,85.44000000000007
843,1333.3928258277865
844,1333.3928258277865
907,0.0
908,0.0
971,0.0
972,0.0
1195,0.0
1197,0.0
2,2, 2,11, 0,22, 0.00,60.00,Tuesday
7,1.7
718,19.762529817747318
719,3.3814697198916788
720,15.747751299959628
619,2214.192283350315
633,698.9906055930359
659,58.34701368743304
661,98.95642501302606
690,76.70367911455878
716,6.225904201165932
843,1514.9065809929434
844,1514.9065809929434
907,0.0
908,0.0
971,0.0
972,0.0
1195,0.0
1197,0.0
2,2, 2,11, 0,23, 0.00,60.00,Tuesday
7,2.0
718,18.705337188967533
719,3.1970747048327137
720,15.675391958939239
619,1224.8865587041873
633,394.5731629820435
659,27.08184973484822
661,144.25517878948452
690,42.4009864374605
716,0.0
843,871.4297606793389
844,871.4297606793389
907,0.0
908,0.0
971,0.0
972,0.0
1195,0.0
1197,0.0
2,2, 2,11, 0,24, 0.00,60.00,Tuesday
7,1.1
718,18.659110598167015
719,2.6322670521790137
720,15.60254265138518
619,1911.3316170271637
633,599.9832648945401
659,54.16158798750009
661,110.53466097085149
690,67.80547688246017
716,0.0
843,1384.8708036321013
844,1384.8708036321013
907,0.0
908,0.0
971,0.0
972,0.0
1195,0.0
1197,0.0
2,3, 2,12, 0, 1, 0.00,60.00,Wednesday
7,1.1
718,18.6020461802881
719,2.711010694383595
720,15.539288413603494
619,2518.9260409263866
633,777.5027500870033
659,70.26219759070557
661,83.93930898340271
690,87.96224530209406
716,0.0
843,1809.7938173859238
844,1809.7938173859238
907,0.0
908,0.0
971,0.0
972,0.0
1195,0.0
1197,0.0
2,3, 2,12, 0, 2, 0.00,60.00,Wednesday
7,1.0
718,18.43521318943428
719,2.465599676022753
720,15.46547879401303
619,3293.5953950019825
633,997.102201209848
659,78.12169656736715
661,53.11226050152263
690,111.46372768598752
716,0.0
843,2370.8741004078947
844,2370.8741004078947
907,0.0
908,0.0
971,0.0
972,0.0
1195,0.0
1197,0.0
2,3, 2,12, 0, 3, 0.00,60.00,Wednesday
7,0.0
718,18.592895240065047
719,1.789323953255763
720,15.384762886435979
619,3657.8222488296037
633,1111.8426511548919
659,79.74901555848425
661,35.76305896687373
690,124.54050294221972
716,0.0
843,2622.3463319037946
844,2622.3463319037946
907,0.0
908,0.0
971,0.0
972,0.0
1195,0.0
1197,0.0
2,3, 2,12, 0, 4, 0.00,60.00,Wednesday
7,0.0
718,18.562143923893597
719,1.885989930838604
720,15.322471971286301
619,4211.73413518133
633,1267.3125425213254
659,107.9113760789942
661,10.10166131772019
690,143.72752804519334
716,0.0
843,2967.2095297981377
844,2967.2095297981377
907,0.0
908,0.0
971,0.0
972,0.0
1195,0.0
1197,0.0
2,3, 2,12, 0, 5, 0.00,60.00,Wednesday
7,0.0
718,18.595483857430864
719,1.8126615114173357
720,15.246042678908273
619,4284.907260433884
633,1286.0583689755388
659,96.1835565067525
661,9.674474618178607
690,144.25840028833628
716,0.0
843,3026.023276576141
844,3026.023276576141
907,0.0
908,0.0
971,0.0
972,0.0
1195,0.0
1197,0.0
2,3, 2,12, 0, 6, 0.00,60.00,Wednesday
7,0.0
718,19.266574678646712
719,2.300746035784218
720,15.181311772349318
619,4621.547711795879
633,1365.5581446666695
659,91.51718729705738
661,0.0
690,153.17345698674686
716,65.81121616906273
843,3688.4390240882676
844,3688.4390240882676
907,0.0
908,0.0
971,0.0
972,0.0
1195,1407.6211725525059
1197,1407.6211725525059
2,3, 2,12, 0, 7, 0.00,60.00,Wednesday
7,0.0
718,19.5214977196149
719,2.3329915638072034
720,15.143030538622122
619,4606.428643905524
633,1383.5314042549558
659,91.51718729705738
661,0.0
690,153.17345698674686
716,85.44000000000007
843,3497.1949984557086
844,3497.1949984557086
907,0.0
908,0.0
971,0.0
972,0.0
1195,1600.4767196893063
1197,1600.4767196893063
2,3, 2,12, 0, 8, 0.00,60.00,Wednesday
7,-1.1
718,19.647663327688274
719,1.193125540592385
720,15.066124337904707
619,4462.609073287103
633,1376.580984733437
659,91.89781394375346
661,0.0
690,153.17345698674686
716,36.37230546818206
843,4508.705240191299
844,4508.705240191299
907,0.0
908,0.0
971,0.0
972,0.0
1195,2254.32404445666
1197,2254.32404445666
2,3, 2,12, 0, 9, 0.00,60.00,Wednesday
7,-1.0
718,19.70059709455505
719,1.2796614427944468
720,15.012515542313771
619,4485.901336256048
633,1385.3596329098673
659,88.89119127892332
661,0.0
690,153.17345698674686
716,0.0
843,4194.4403390812695
844,4194.4403390812695
907,0.0
908,0.0
971,0.0
972,0.0
1195,1375.1417496529916
1197,1375.1417496529916
2,3, 2,12, 0,10, 0.00,60.00,Wednesday
7,-1.0
718,19.715404057514192
719,1.3153244484366104
720,14.949902329665816
619,4484.735960830447
633,1386.7497269085236
659,88.89119127892332
661,0.0
690,153.17345698674686
716,0.0
843,3517.8741751654525
844,3517.8741751654525
907,0.0
908,0.0
971,0.0
972,0.0
1195,562.2744494648559
1197,562.2744494648559
2,3, 2,12, 0,11, 0.00,60.00,Wednesday
7,-1.0
718,19.721603166456372
719,1.3856320006023233
720,14.887023336515973
619,4484.4617947498955
633,1387.0768218941773
659,88.89119127892332
661,0.0
690,153.17345698674686
716,0.0
843,3051.4118387369854
844,3051.4118387369854
907,0.0
908,0.0
971,0.0
972,0.0
1195,6.191010766337968
1197,6.191010766337968
2,3, 2,12, 0,12, 0.00,60.00,Wednesday
7,-1.7
718,19.71896272068982
719,0.786138030041017
720,14.81339276480518
619,4367.803164450394
633,1369.1583805492955
659,95.71700857773102
661,0.0
690,153.17345698674686
716,0.0
843,3745.2709662598354
844,3745.2709662598354
907,0.0
908,0.0
971,0.0
972,0.0
1195,954.2066620837486
1197,954.2066620837486
2,3, 2,12, 0,13, 0.00,60.00,Wednesday
7,-1.7
718,19.720792448357983
719,0.867815490455205
720,14.756330398237406
619,4367.952322093523
633,1368.9808496384283
659,95.71700857773102
661,0.0
690,153.17345698674686
716,0.0
843,3583.8988502979482
844,3583.8988502979482
907,0.0
908,0.0
971,0.0
972,0.0
1195,800.3036046560328
1197,800.3036046560328
2,3, 2,12, 0,14, 0.00,60.00,Wednesday
7,-2.0
718,19.727508371474386
719,1.653165430758812
720,14.702747442538133
619,4159.597996686801
633,1332.7690254766374
659,93.40664515681465
661,4.80443718343091
690,147.52665201179295
716,0.0
843,2775.091281398132
844,2775.091281398132
907,0.0
908,0.0
971,0.0
972,0.0
1195,0.0
1197,0.0
2,3, 2,12, 0,15, 0.00,60.00,Wednesday
7,-2.0
718,19.70622397596678
719,1.7669582266786128
720,14.654855176866507
619,4331.577764568356
633,1365.6418087221853
659,95.70570540539548
661,0.0
690,153.17345698674686
716,65.32759766411499
843,2748.254253083256
844,2748.254253083256
907,0.0
908,0.0
971,0.0
972,0.0
1195,723.0022534258565
1197,723.0022534258565
2,3, 2,12, 0,16, 0.00,60.00,Wednesday
7,-1.1
718,19.745664697383756
719,2.2962595381031794
720,14.599296759399747
619,3659.917280270899
633,1168.270680845613
659,78.35284861520971
661,30.70919256378266
690,128.20372458416713
716,0.0
843,2488.7016075818283
844,2488.7016075818283
907,0.0
908,0.0
971,0.0
972,0.0
1195,0.0
1197,0.0
2,3, 2,12, 0,17, 0.00,60.00,Wednesday
7,-1.0
718,19.64067377309459
719,2.8584175329266492
720,14.582052607597738
619,4413.145382182881
633,1365.4531804326605
659,104.38335640746912
661,0.0
690,153.17345698674686
716,83.3775601821921
843,2187.4937793912595
844,2187.4937793912595
907,0.0
908,0.0
971,0.0
972,0.0
1195,268.6261926408897
1197,268.6261926408897
2,3, 2,12, 0,18, 0.00,60.00,Wednesday
7,-1.0
718,19.760314313048752
719,2.4904751760614747
720,14.494140692941063
619,2799.090539402135
633,910.298963176217
659,58.427050721098034
661,68.54254087389766
690,99.61687703667226
716,0.0
843,1938.2111066556317
844,1938.2111066556317
907,0.0
908,0.0
971,0.0
972,0.0
1195,0.0
1197,0.0
2,3, 2,12, 0,19, 0.00,60.00,Wednesday
7,-1.1
718,19.67941849670621
719,1.601009703445677
720,14.466084500439493
619,2727.674386158538
633,893.0207277401028
659,59.8527051443841
661,70.72739226418835
690,97.89725819153185
716,0.0
843,1879.1312254753975
844,1879.1312254753975
907,0.0
908,0.0
971,0.0
972,0.0
1195,0.0
1197,0.0
2,3, 2,12, 0,20, 0.00,60.00,Wednesday
7,-1.0
718,19.615552994536795
719,2.1980556710108576
720,14.466992518683266
619,4485.852643545851
633,1385.4177064781118
659,88.89119127892332
661,0.0
690,153.17345698674686
716,85.44000000000007
843,2030.5237028239335
844,2030.5237028239335
907,0.0
908,0.0
971,0.0
972,0.0
1195,47.89282692058396
1197,47.89282692058396
2,3, 2,12, 0,21, 0.00,60.00,Wednesday
7,-1.1
718,19.676717833459612
719,1.446836748412274
720,14.410577348504921
619,4210.779193459508
633,1322.1503195346177
659,89.01620856954298
661,7.9838967853908205
690,145.41152401186346
716,51.5006463033038
843,2257.9024328667365
844,2257.9024328667365
907,0.0
908,0.0
971,0.0
972,0.0
1195,0.0
1197,0.0
2,3, 2,12, 0,22, 0.00,60.00,Wednesday
7,-2.0
718,19.726234685143726
719,0.809388078578624
720,14.355310274455352
619,3644.015429538468
633,1181.6449409881252
659,82.90952422405252
661,26.74068620494503
690,130.94799710570487
716,0.0
843,2448.628885161299
844,2448.628885161299
907,0.0
908,0.0
971,0.0
972,0.0
1195,0.0
1197,0.0
2,3, 2,12, 0,23, 0.00,60.00,Wednesday
7,-2.0
718,18.91369222172925
719,0.46938910093898517
720,14.275396963617643
619,2403.5090848696846
633,806.6647879859547
659,56.53483389207471
661,81.85692033175795
690,89.29123577188098
716,0.0
843,1592.0737887123505
844,1592.0737887123505
907,0.0
908,0.0
971,0.0
972,0.0
1195,0.0
1197,0.0
2,3, 2,12, 0,24, 0.00,60.00,Wednesday
7,-2.0
718,18.662398929342388
719,0.6948757821568607
720,14.214452203031051
619,2991.6809018573267
633,968.6837062021845
659,68.99451004048973
661,55.819442010820566
690,108.97615004279332
716,0.0
843,2024.6946858625652
844,2024.6946858625652
907,0.0
908,0.0
971,0.0
972,0.0
1195,0.0
1197,0.0
2,4, 2,13, 0, 1, 0.00,60.00,Thursday
7,-1.7
718,18.70567435843657
719,1.3539575226917342
720,14.15722714140975
619,3273.5993080406106
633,1039.8537686335255
659,74.92965852160116
661,44.71745178047044
690,117.41809773828349
716,0.0
843,2237.952132157405
844,2237.952132157405
907,0.0
908,0.0
971,0.0
972,0.0
1195,0.0
1197,0.0
2,4, 2,13, 0, 2, 0.00,60.00,Thursday
7,-1.7
718,18.648468117475
719,1.4151037329343858
720,14.101673661732702
619,3367.699624834022
633,1068.6108338703923
659,86.18516791882121
661,38.813871638592914
690,121.69645458264797
716,0.0
843,2316.0542494034016
844,2316.0542494034016
907,0.0
908,0.0
971,0.0
972,0.0
1195,0.0
1197,0.0
2,4, 2,13, 0, 3, 0.00,60.00,Thursday
7,-1.1
718,18.60455239629115
719,1.5867677077610494
720,14.044522479002133
619,3571.6953309585497
633,1113.248160164707
659,84.66464318716184
661,33.63580235750452
690,125.84098488088468
716,0.0
843,2463.5134740269423
844,2463.5134740269423
907,0.0
908,0.0
971,0.0
972,0.0
1195,0.0
1197,0.0
2,4, 2,13, 0, 4, 0.00,60.00,Thursday
7,-1.0
718,18.60848168714506
719,1.6717758036059867
720,13.989459534855648
619,3743.3749142770503
633,1158.2888141214416
659,90.59307213528548
661,26.422381396421322
690,131.27638863047522
716,0.0
843,2598.061618474687
844,2598.061618474687
907,0.0
908,0.0
971,0.0
972,0.0
1195,0.0
1197,0.0
2,4, 2,13, 0, 5, 0.00,60.00,Thursday
7,-0.6
718,18.628604501924297
719,1.8366604748272977
720,13.932965091412688
619,3596.757024331474
633,1109.2766930335506
659,88.2320945896179
661,34.01897409811958
690,125.59329413676875
716,0.0
843,2497.107316370797
844,2497.107316370797
907,0.0
908,0.0
971,0.0
972,0.0
1195,0.0
1197,0.0
2,4, 2,13, 0, 6, 0.00,60.00,Thursday
7,-1.0
718,19.327539541246274
719,2.0375540189053383
720,13.896790519760996
619,4438.812657973523
633,1334.9387866261302
659,104.38335640746912
661,0.0
690,153.17345698674686
716,0.0
843,3615.9209789002434
844,3615.9209789002434
907,0.0
908,0.0
971,0.0
972,0.0
1195,626.455155810685
1197,626.455155810685
2,4, 2,13, 0, 7, 0.00,60.00,Thursday
7,-0.6
718,19.555300348763144
719,2.561114380186898
720,13.88369039126707
619,4411.43473071752
633,1339.6010298004994
659,117.4392040467216
661,0.0
690,153.17345698674686
716,85.44000000000007
843,3230.829382065829
844,3230.829382065829
907,0.0
908,0.0
971,0.0
972,0.0
1195,1560.588750982648
1197,1560.588750982648
2,4, 2,13, 0, 8, 0.00,60.00,Thursday
7,1.0
718,19.64071516956478
719,3.3565086497701975
720,13.858091223932343
619,4655.344272542949
633,1380.5713889755161
659,106.36925428099049
661,0.0
690,153.17345698674686
716,85.44000000000007
843,2870.240929010266
844,2870.240929010266
907,0.0
908,0.0
971,0.0
972,0.0
1195,880.8356626016825
1197,880.8356626016825
2,4, 2,13, 0, 9, 0.00,60.00,Thursday
7,1.1
718,19.693165492574476
719,4.108859156757352
720,13.820786156598794
619,4609.957093717255
633,1375.0801517949408
659,112.58389801215893
661,0.0
690,152.31953117465793
716,48.20171956699063
843,2659.425793345541
844,2659.425793345541
907,0.0
908,0.0
971,0.0
972,0.0
1195,0.0
1197,0.0
2,4, 2,13, 0,10, 0.00,60.00,Thursday
7,1.0
718,19.72809229368716
719,3.7670815175704395
720,13.777063736574618
619,4102.567459634184
633,1247.1335118703887
659,95.83319997538352
661,19.810337821442992
690,136.72840223990968
716,0.0
843,2899.2392171161337
844,2899.2392171161337
907,0.0
908,0.0
971,0.0
972,0.0
1195,0.0
1197,0.0
2,4, 2,13, 0,11, 0.00,60.00,Thursday
7,2.0
718,19.735398227292904
719,4.530302116238737
720,13.753293143089781
619,3814.241654960359
633,1149.4508882187065
659,79.14253783495994
661,37.094339384088435
690,123.91101146450661
716,0.0
843,2698.720780047239
844,2698.720780047239
907,0.0
908,0.0
971,0.0
972,0.0
1195,0.0
1197,0.0
2,4, 2,13, 0,12, 0.00,60.00,Thursday
7,3.9
718,19.759111422117652
719,6.962131021803324
720,13.693497965466813
619,2498.383861100447
633,752.9393697233085
659,56.72576998843555
661,94.1212357841861
690,80.71429621671918
716,0.0
843,1792.0995918396402
844,1792.0995918396402
907,0.0
908,0.0
971,0.0
972,0.0
1195,0.0
1197,0.0
2,4, 2,13, 0,13, 0.00,60.00,Thursday
7,3.9
718,19.743679395446577
719,8.357404057714923
720,13.681529799803036
619,1907.9297693243548
633,583.3630643099567
659,43.9288620526096
661,118.00669028405477
690,62.50572364932365
716,0.0
843,1412.7439209377608
844,1412.7439209377608
907,0.0
908,0.0
971,0.0
972,0.0
1195,0.0
1197,0.0
2,4, 2,13, 0,14, 0.00,60.00,Thursday
7,6.0
718,20.068043137379643
719,10.432402989565318
720,13.669707016664825
619,1199.8580631707912
633,332.0786031725517
659,0.0
661,160.77472587556773
690,30.041354194460414
716,0.0
843,930.8912104665869
844,930.8912104665869
907,0.0
908,0.0
971,0.0
972,0.0
1195,0.0
1197,0.0