Program Version,EnergyPlus, Version 22.2.0-c249759bad, YMD=2023.09.01 14:32
1,5,Environment Title[],Latitude[deg],Longitude[deg],Time Zone[],Elevation[m]
2,8,Day of Simulation[],Month[],Day of Month[],DST Indicator[1=yes 0=no],Hour[],StartMinute[],EndMinute[],DayType
3,5,Cumulative Day of Simulation[],Month[],Day of Month[],DST Indicator[1=yes 0=no],DayType  ! When Daily Report Variables Requested
4,2,Cumulative Days of Simulation[],Month[]  ! When Monthly Report Variables Requested
5,1,Cumulative Days of Simulation[] ! When Run Period Report Variables Requested
6,1,Calendar Year of Simulation[] ! When Annual Report Variables Requested
7,1,Environment,Site Outdoor Air Drybulb Temperature [C] !Hourly
545,1,LIVING,Zone Mean Air Temperature [C] !Hourly
546,1,ATTIC,Zone Mean Air Temperature [C] !Hourly
547,1,CRAWLSPACE,Zone Mean Air Temperature [C] !Hourly
548,1,FAN,Fan Electricity Rate [W] !Hourly
720,1,LIVING,Zone Predicted Sensible Load to Heating Setpoint Heat Transfer Rate [W] !Hourly
721,1,LIVING,Zone System Predicted Sensible Load to Heating Setpoint Heat Transfer Rate [W] !Hourly
784,1,ATTIC,Zone Predicted Sensible Load to Heating Setpoint Heat Transfer Rate [W] !Hourly
785,1,ATTIC,Zone System Predicted Sensible Load to Heating Setpoint Heat Transfer Rate [W] !Hourly
848,1,CRAWLSPACE,Zone Predicted Sensible Load to Heating Setpoint Heat Transfer Rate [W] !Hourly
849,1,CRAWLSPACE,Zone System Predicted Sensible Load to Heating Setpoint Heat Transfer Rate [W] !Hourly
1121,1,DX_HEATING_COIL,Heating Coil Heating Rate [W] !Hourly
1135,1,DX_HEATING_COIL,Heating Coil Electricity Rate [W] !Hourly
1161,1,DX_HEATING_COIL,Heating Coil Defrost Electricity Rate [W] !Hourly
1163,1,DX_HEATING_COIL,Heating Coil Crankcase Heater Electricity Rate [W] !Hourly
1166,1,HEATING_RESISTANCE_BACKUP,Heating Coil Heating Rate [W] !Hourly
1168,1,HEATING_RESISTANCE_BACKUP,Heating Coil Electricity Rate [W] !Hourly
End of Data Dictionary
1,EXTREME_WINTER,  39.64, -79.92,  -5.00, 378.00
2,1, 1, 6, 0, 1, 0.00,60.00,Monday
7,-7.8
545,18.578787198819185
546,-1.9998645614346098
547,18.01278795389344
548,147.5694535220177
720,2676.1091129319993
721,2676.1091129319993
784,0.0
785,0.0
848,0.0
849,0.0
1121,3898.6402823993144
1135,1349.8921778519054
1161,0.07108708144894152
1163,0.0
1166,212.7057983352388
1168,212.7057983352388
2,1, 1, 6, 0, 2, 0.00,60.00,Monday
7,-7.2
545,18.59350931868049
546,-2.425523895844851
547,17.59910716411251
548,147.5694535220177
720,3057.299012283198
721,3057.299012283198
784,0.0
785,0.0
848,0.0
849,0.0
1121,3968.731583551679
1135,1356.9882004151386
1161,0.07108708144894152
1163,0.0
1166,551.2922095500035
1168,551.2922095500035
2,1, 1, 6, 0, 3, 0.00,60.00,Monday
7,-7.8
545,18.593068675255264
546,-2.805221067761297
547,17.37360945958278
548,147.5694535220177
720,3324.889275021331
721,3324.889275021331
784,0.0
785,0.0
848,0.0
849,0.0
1121,3885.039130671672
1135,1345.2293180319361
1161,3.6489091950331685
1163,0.0
1166,975.6439307100795
1168,975.6439307100795
2,1, 1, 6, 0, 4, 0.00,60.00,Monday
7,-8.3
545,18.594024465670365
546,-2.35935207571718
547,17.1351932311922
548,147.5694535220177
720,3418.1609133857655
721,3418.1609133857655
784,0.0
785,0.0
848,0.0
849,0.0
1121,3734.1129845935734
1135,1306.487727038224
1161,28.644678635598073
1163,0.0
1166,1264.527962929616
1168,1264.527962929616
2,1, 1, 6, 0, 5, 0.00,60.00,Monday
7,-8.3
545,18.59913822844875
546,-2.8824339638795626
547,16.929841259834657
548,147.5694535220177
720,3450.43801176779
721,3450.43801176779
784,0.0
785,0.0
848,0.0
849,0.0
1121,3734.3583073982845
1135,1306.2105686927225
1161,28.644678635598073
1163,0.0
1166,1292.4276806846156
1168,1292.4276806846156
2,1, 1, 6, 0, 6, 0.00,60.00,Monday
7,-8.3
545,19.346286710162858
546,-2.7902496712217237
547,16.736101445746105
548,147.5694535220177
720,4468.049497889222
721,4468.049497889222
784,0.0
785,0.0
848,0.0
849,0.0
1121,3714.94671906474
1135,1299.2457998936306
1161,33.871025247608706
1163,0.0
1166,2513.1402670857797
1168,2513.1402670857797
2,1, 1, 6, 0, 7, 0.00,60.00,Monday
7,-7.8
545,19.59782282978893
546,-2.7293474384677934
547,16.5905354946727
548,147.5694535220177
720,4205.440094994872
721,4205.440094994872
784,0.0
785,0.0
848,0.0
849,0.0
1121,3762.968953467491
1135,1326.325858675677
1161,31.676598267131915
1163,0.0
1166,2243.4836505891944
1168,2243.4836505891944
2,1, 1, 6, 0, 8, 0.00,60.00,Monday
7,-7.8
545,19.677633824933285
546,-2.4800395079057016
547,16.42612904528964
548,147.5694535220177
720,3919.3460042392453
721,3919.3460042392453
784,0.0
785,0.0
848,0.0
849,0.0
1121,3742.141400728858
1135,1327.0656955271934
1161,35.752060832150335
1163,0.0
1166,1955.6056983225235
1168,1955.6056983225235
2,1, 1, 6, 0, 9, 0.00,60.00,Monday
7,-7.8
545,19.699916127627333
546,-1.9337098857275852
547,16.271658321142766
548,147.5694535220177
720,3853.9081234498535
721,3853.9081234498535
784,0.0
785,0.0
848,0.0
849,0.0
1121,3720.260613942985
1135,1321.6537088304674
1161,41.13565518486987
1163,0.0
1166,1894.9367165441413
1168,1894.9367165441413
2,1, 1, 6, 0,10, 0.00,60.00,Monday
7,-6.7
545,19.71060891503799
546,-1.3764536897498767
547,16.129935988158447
548,147.5694535220177
720,3743.7582650573295
721,3743.7582650573295
784,0.0
785,0.0
848,0.0
849,0.0
1121,3864.9772998533726
1135,1341.945287071842
1161,35.741315866418255
1163,0.0
1166,1601.7848893156452
1168,1601.7848893156452
2,1, 1, 6, 0,11, 0.00,60.00,Monday
7,-7.0
545,19.715057235903586
546,-0.4582288694013615
547,15.98474846714631
548,147.5694535220177
720,3629.831297969613
721,3629.831297969613
784,0.0
785,0.0
848,0.0
849,0.0
1121,3785.2265374200274
1135,1322.680700957472
1161,47.5136949665823
1163,0.0
1166,1520.9023351163596
1168,1520.9023351163596
2,1, 1, 6, 0,12, 0.00,60.00,Monday
7,-6.1
545,19.725452608771956
546,2.4721965359880156
547,15.85905712669395
548,147.5694535220177
720,3280.104684748345
721,3280.104684748345
784,0.0
785,0.0
848,0.0
849,0.0
1121,3924.4988852453794
1135,1345.6070114202416
1161,38.128769868993814
1163,0.0
1166,931.68948488158
1168,931.68948488158
2,1, 1, 6, 0,13, 0.00,60.00,Monday
7,-5.6
545,19.741043973140457
546,3.4505483566670825
547,15.73746170372199
548,147.5694535220177
720,2974.1466235407315
721,2974.1466235407315
784,0.0
785,0.0
848,0.0
849,0.0
1121,4020.1237092427273
1135,1364.2806144579936
1161,28.72437408006126
1163,0.0
1166,337.87963699055854
1168,337.87963699055854
2,1, 1, 6, 0,14, 0.00,60.00,Monday
7,-5.6
545,19.75227613852672
546,4.32372258855138
547,15.627360208702209
548,145.10884289651656
720,2694.7839815569223
721,2694.7839815569223
784,0.0
785,0.0
848,0.0
849,0.0
1121,3966.878798261809
1135,1355.1383761128218
1161,23.43929404936694
1163,2.365934060745345
1166,0.0
1168,0.0
2,1, 1, 6, 0,15, 0.00,60.00,Monday
7,-5.0
545,19.822923430854946
546,4.174538307040278
547,15.531146345220124
548,120.80469497532657
720,2247.831029120238
721,2247.831029120238
784,0.0
785,0.0
848,0.0
849,0.0
1121,3309.8815772108846
1135,1138.5898580453784
1161,15.169029124969102
1163,35.688980021356166
1166,0.0
1168,0.0
2,1, 1, 6, 0,16, 0.00,60.00,Monday
7,-5.6
545,19.743442504289735
546,2.5919801600700216
547,15.447115470205002
548,115.20779213601199
720,2139.0518224570587
721,2139.0518224570587
784,0.0
785,0.0
848,0.0
849,0.0
1121,3117.02195516052
1135,1090.531231152976
1161,6.513309978508077
1163,43.59341747220964
1166,0.0
1168,0.0
2,1, 1, 6, 0,17, 0.00,60.00,Monday
7,-5.6
545,19.829525590493745
546,3.1178878988863734
547,15.374493747879482
548,100.119838222129
720,1764.2466539177676
721,1764.2466539177676
784,0.0
785,0.0
848,0.0
849,0.0
1121,2650.8069903638634
1135,938.8057831011878
1161,12.5919096668535
1163,63.789795751365716
1166,0.0
1168,0.0
2,1, 1, 6, 0,18, 0.00,60.00,Monday
7,-6.1
545,19.71315684891517
546,0.7760183007542332
547,15.313975363347149
548,108.19109264397811
720,1941.2729129419786
721,1941.2729129419786
784,0.0
785,0.0
848,0.0
849,0.0
1121,2848.0304129344063
1135,1014.157685582715
1161,11.50791482723199
1163,52.87073331791061
1166,0.0
1168,0.0
2,1, 1, 6, 0,19, 0.00,60.00,Monday
7,-6.1
545,19.64577202757569
546,-0.72059642209955
547,15.245045892910207
548,117.46634594380865
720,2097.367848550344
721,2097.367848550344
784,0.0
785,0.0
848,0.0
849,0.0
1121,3132.577916929017
1135,1102.607937020436
1161,8.59522178641971
1163,40.42786320076688
1166,0.0
1168,0.0
2,1, 1, 6, 0,20, 0.00,60.00,Monday
7,-6.1
545,19.63401059778589
546,-1.47744147859903
547,15.170117407979088
548,124.58085513746877
720,2181.6535086080057
721,2181.6535086080057
784,0.0
785,0.0
848,0.0
849,0.0
1121,3342.8323574635924
1135,1167.647606361661
1161,9.205860300070016
1163,30.75940838855715
1166,0.0
1168,0.0
2,1, 1, 6, 0,21, 0.00,60.00,Monday
7,-6.7
545,19.65231162183011
546,-2.41080284573969
547,15.086062475156423
548,133.98505424825353
720,2287.193235222583
721,2287.193235222583
784,0.0
785,0.0
848,0.0
849,0.0
1121,3574.627783179946
1135,1253.0883765632502
1161,6.037848585002009
1163,18.13491187558267
1166,0.0
1168,0.0
2,1, 1, 6, 0,22, 0.00,60.00,Monday
7,-6.7
545,19.641320983013603
546,-2.042126046986945
547,15.001882381577186
548,145.85564901180373
720,2480.7972443514554
721,2480.7972443514554
784,0.0
785,0.0
848,0.0
849,0.0
1121,3929.780112336515
1135,1364.3901246554083
1161,6.572780914735354
1163,2.0222992590272604
1166,0.0
1168,0.0
2,1, 1, 6, 0,23, 0.00,60.00,Monday
7,-6.7
545,19.001109401214425
546,-2.615681703525335
547,14.894800010624607
548,117.93394539649738
720,1847.1138236100487
721,1847.1138236100487
784,0.0
785,0.0
848,0.0
849,0.0
1121,3105.1691799084892
1135,1103.067933677942
1161,5.271172427014283
1163,39.92392913110609
1166,0.0
1168,0.0
2,1, 1, 6, 0,24, 0.00,60.00,Monday
7,-7.2
545,18.608851906611115
546,-3.1296308160740125
547,14.77173082274657
548,146.80097156283634
720,2504.21107149636
721,2504.21107149636
784,0.0
785,0.0
848,0.0
849,0.0
1121,3923.672738543391
1135,1352.427824796592
1161,4.343668309330024
1163,0.8339550940962059
1166,0.0
1168,0.0
2,2, 1, 7, 0, 1, 0.00,60.00,Tuesday
7,-7.2
545,18.586399706764556
546,-3.5024354857099254
547,14.651903243367821
548,147.5694535220177
720,3115.206717360459
721,3115.206717360459
784,0.0
785,0.0
848,0.0
849,0.0
1121,3955.196345436093
1135,1347.664776542141
1161,4.395631059868592
1163,0.0
1166,745.7533264003432
1168,745.7533264003432
2,2, 1, 7, 0, 2, 0.00,60.00,Tuesday
7,-8.3
545,18.58486864593915
546,-3.3290834055822054
547,14.535667375101948
548,147.5694535220177
720,3470.5505909456606
721,3470.5505909456606
784,0.0
785,0.0
848,0.0
849,0.0
1121,3833.171200324179
1135,1336.0903728906708
1161,3.0484700038168913
1163,0.0
1166,1324.2935762371785
1168,1324.2935762371785
2,2, 1, 7, 0, 3, 0.00,60.00,Tuesday
7,-8.0
545,18.59369852062391
546,-3.4840088559666547
547,14.425294595072067
548,147.5694535220177
720,3528.949987188753
721,3528.949987188753
784,0.0
785,0.0
848,0.0
849,0.0
1121,3879.2201214527763
1135,1343.2306539980511
1161,0.07108708144894152
1163,0.0
1166,1353.4854167935669
1168,1353.4854167935669
2,2, 1, 7, 0, 4, 0.00,60.00,Tuesday
7,-8.9
545,18.58973460361667
546,-3.515517383881805
547,14.30510907606266
548,147.5694535220177
720,3795.898474213909
721,3795.898474213909
784,0.0
785,0.0
848,0.0
849,0.0
1121,3766.900233460478
1135,1329.8925357605553
1161,2.403182667411517
1163,0.0
1166,1787.348421513002
1168,1787.348421513002
2,2, 1, 7, 0, 5, 0.00,60.00,Tuesday
7,-9.4
545,18.5893803394079
546,-4.1769097110121765
547,14.18971697244714
548,147.5694535220177
720,3938.0689062211313
721,3938.0689062211313
784,0.0
785,0.0
848,0.0
849,0.0
1121,3689.5300432521385
1135,1316.4157083980692
1161,8.156807954251775
1163,0.0
1166,2040.2236671851024
1168,2040.2236671851024
2,2, 1, 7, 0, 6, 0.00,60.00,Tuesday
7,-10.6
545,19.338408471049938
546,-4.284364147392409
547,14.071027402256318
548,147.5694535220177
720,5137.964188248865
721,5137.964188248865
784,0.0
785,0.0
848,0.0
849,0.0
1121,3534.923556603003
1135,1294.5566591551492
1161,14.238462028597683
1163,0.0
1166,3616.8348584565306
1168,3616.8348584565306
2,2, 1, 7, 0, 7, 0.00,60.00,Tuesday
7,-10.6
545,19.58769816492268
546,-4.2612253623418646
547,13.997772120809238
548,147.5694535220177
720,4910.021892941813
721,4910.021892941813
784,0.0
785,0.0
848,0.0
849,0.0
1121,3518.47013768853
1135,1312.5739571672575
1161,14.238462028597683
1163,0.0
1166,3466.2023400461726
1168,3466.2023400461726
2,2, 1, 7, 0, 8, 0.00,60.00,Tuesday
7,-10.6
545,19.667007961636084
546,-4.404256396591462
547,13.896269890581456
548,147.5694535220177
720,4636.345478049638
721,4636.345478049638
784,0.0
785,0.0
848,0.0
849,0.0
1121,3528.3356852007387
1135,1324.3095110414936
1161,9.812058518691796
1163,0.0
1166,3165.6095344053156
1168,3165.6095344053156
2,2, 1, 7, 0, 9, 0.00,60.00,Tuesday
7,-11.1
545,19.691445941565057
546,-4.105714674299604
547,13.793509141430771
548,147.5694535220177
720,4408.494329852718
721,4408.494329852718
784,0.0
785,0.0
848,0.0
849,0.0
1121,3485.5977764143786
1135,1325.1435774700624
1161,5.830733674659305
1163,0.0
1166,2956.4911613043105
1168,2956.4911613043105
2,2, 1, 7, 0,10, 0.00,60.00,Tuesday
7,-11.1
545,19.700711672067172
546,-4.510681246978348
547,13.695092775943145
548,147.5694535220177
720,4240.303942873752
721,4240.303942873752
784,0.0
785,0.0
848,0.0
849,0.0
1121,3485.4199852650636
1135,1325.6487158779935
1161,5.768017847302957
1163,0.0
1166,2752.5983481868534
1168,2752.5983481868534
2,2, 1, 7, 0,11, 0.00,60.00,Tuesday
7,-11.1
545,19.712561594936023
546,-2.134375460658521
547,13.606316895388819
548,147.5694535220177
720,3665.1197632032636
721,3665.1197632032636
784,0.0
785,0.0
848,0.0
849,0.0
1121,3474.5447703121745
1135,1321.6470068921742
1161,8.930567787652171
1163,0.0
1166,2114.0418627193067
1168,2114.0418627193067
2,2, 1, 7, 0,12, 0.00,60.00,Tuesday
7,-11.1
545,19.726689188781762
546,-0.871926488341099
547,13.52695422621648
548,147.5694535220177
720,3388.4766588876682
721,3388.4766588876682
784,0.0
785,0.0
848,0.0
849,0.0
1121,3474.0289424116054
1135,1321.6917223236906
1161,9.033538297747445
1163,0.0
1166,1673.9663542535004
1168,1673.9663542535004
2,2, 1, 7, 0,13, 0.00,60.00,Tuesday
7,-10.0
545,19.711960022017024
546,-0.4014455050339465
547,13.466093472539601
548,147.5694535220177
720,3783.420551727244
721,3783.420551727244
784,0.0
785,0.0
848,0.0
849,0.0
1121,3626.1115085779097
1135,1346.9695325948146
1161,0.16668050055052328
1163,0.0
1166,1907.5670853906909
1168,1907.5670853906909
2,2, 1, 7, 0,14, 0.00,60.00,Tuesday
7,-10.6
545,19.727175386685108
546,-0.8265107748505944
547,13.405380026581465
548,147.5694535220177
720,3114.2710476808625
721,3114.2710476808625
784,0.0
785,0.0
848,0.0
849,0.0
1121,3559.98793228394
1135,1339.2746747543063
1161,0.07108708144894152
1163,0.0
1166,1171.187853242453
1168,1171.187853242453
2,2, 1, 7, 0,15, 0.00,60.00,Tuesday
7,-10.6
545,19.734593809959133
546,0.23312336439848813
547,13.366631816651696
548,147.5694535220177
720,2425.5024763506644
721,2425.5024763506644
784,0.0
785,0.0
848,0.0
849,0.0
1121,3559.716293583072
1135,1339.571002374611
1161,0.07108708144894152
1163,0.0
1166,377.0007434468753
1168,377.0007434468753
2,2, 1, 7, 0,16, 0.00,60.00,Tuesday
7,-10.6
545,19.717025073135687
546,-2.7383174376890937
547,13.332225988027895
548,147.5694535220177
720,2969.5112596195577
721,2969.5112596195577
784,0.0
785,0.0
848,0.0
849,0.0
1121,3559.621496025544
1135,1339.6744112364215
1161,0.07108708144894152
1163,0.0
1166,942.7480553833243
1168,942.7480553833243
2,2, 1, 7, 0,17, 0.00,60.00,Tuesday
7,-11.7
545,19.689057691858068
546,-2.3899657558458154
547,13.294491532154979
548,147.5694535220177
720,3286.8278892401704
721,3286.8278892401704
784,0.0
785,0.0
848,0.0
849,0.0
1121,3422.404708639195
1135,1319.019310827215
1161,5.115480971614807
1163,0.0
1166,1586.8399293913262
1168,1586.8399293913262
2,2, 1, 7, 0,18, 0.00,60.00,Tuesday
7,-12.2
545,19.69921129737706
546,-4.147665240852557
547,13.253646516023526
548,147.5694535220177
720,3312.849800940805
721,3312.849800940805
784,0.0
785,0.0
848,0.0
849,0.0
1121,3351.955088066417
1135,1305.3053484790037
1161,10.360164301797125
1163,0.0
1166,1695.3455461633412
1168,1695.3455461633412
2,2, 1, 7, 0,19, 0.00,60.00,Tuesday
7,-12.8
545,19.689902664053886
546,-5.60834041675018
547,13.197897169319772
548,147.5694535220177
720,3498.2265194052434
721,3498.2265194052434
784,0.0
785,0.0
848,0.0
849,0.0
1121,3300.0083597262246
1135,1302.5852138742734
1161,6.692478655008396
1163,0.0
1166,2047.3854457154932
1168,2047.3854457154932
2,2, 1, 7, 0,20, 0.00,60.00,Tuesday
7,-14.4
545,19.66248661352313
546,-7.7018463173164
547,13.114515532936545
548,147.5694535220177
720,4387.2274693205545
721,4387.2274693205545
784,0.0
785,0.0
848,0.0
849,0.0
1121,3139.0540173208424
1135,1283.7861405961744
1161,4.875827591631485
1163,0.0
1166,3331.460901472342
1168,3331.460901472342
2,2, 1, 7, 0,21, 0.00,60.00,Tuesday
7,-13.9
545,19.68753323981518
546,-6.764869783587662
547,13.05016421279796
548,147.5694535220177
720,3715.876189745579
721,3715.876189745579
784,0.0
785,0.0
848,0.0
849,0.0
1121,3197.550088681472
1135,1292.170164033167
1161,2.9050472834262986
1163,0.0
1166,2619.7450896830305
1168,2619.7450896830305
2,2, 1, 7, 0,22, 0.00,60.00,Tuesday
7,-15.0
545,19.66474260857409
546,-9.041673675863386
547,12.944118406183906
548,147.5694535220177
720,4972.154220896977
721,4972.154220896977
784,0.0
785,0.0
848,0.0
849,0.0
1121,3092.379406276519
1135,1281.531526969187
1161,0.07108708144894152
1163,0.0
1166,4150.372878222248
1168,4150.372878222248
2,2, 1, 7, 0,23, 0.00,60.00,Tuesday
7,-15.6
545,18.92688789737986
546,-9.133647891769474
547,12.850159883350004
548,147.5694535220177
720,3562.878746979097
721,3562.878746979097
784,0.0
785,0.0
848,0.0
849,0.0
1121,3031.9916178668277
1135,1272.8242260620484
1161,0.07108708144894152
1163,0.0
1166,2707.925123299859
1168,2707.925123299859
2,2, 1, 7, 0,24, 0.00,60.00,Tuesday
7,-15.6
545,18.6852725256744
546,-9.177840112354875
547,12.708666736439545
548,147.5694535220177
720,4065.563448414003
721,4065.563448414003
784,0.0
785,0.0
848,0.0
849,0.0
1121,3048.2656298520806
1135,1256.6527714550245
1161,0.07108708144894152
1163,0.0
1166,3209.0844705639533
1168,3209.0844705639533
2,3, 1, 8, 0, 1, 0.00,60.00,Wednesday
7,-16.1
545,18.59900364581014
546,-9.094667537575381
547,12.586689507029668
548,147.5694535220177
720,4614.289988703511
721,4614.289988703511
784,0.0
785,0.0
848,0.0
849,0.0
1121,3001.949732733324
1135,1244.1063223621363
1161,0.5522761482446877
1163,0.0
1166,3880.8589911421027
1168,3880.8589911421027
2,3, 1, 8, 0, 2, 0.00,60.00,Wednesday
7,-16.1
545,18.56382155072071
546,-9.610141877973426
547,12.462783569229767
548,147.5694535220177
720,5285.940673250985
721,5285.940673250985
784,0.0
785,0.0
848,0.0
849,0.0
1121,3003.977200453972
1135,1242.1001494588272
1161,0.5519564047106388
1163,0.0
1166,4664.487827320403
1168,4664.487827320403
2,3, 1, 8, 0, 3, 0.00,60.00,Wednesday
7,-16.7
545,18.55285519500206
546,-10.067724368771527
547,12.336492754516982
548,147.5694535220177
720,5637.579823768032
721,5637.579823768032
784,0.0
785,0.0
848,0.0
849,0.0
1121,2946.0944299697726
1135,1233.679372091384
1161,0.22633504681960828
1163,0.0
1166,5171.106598436684
1168,5171.106598436684
2,3, 1, 8, 0, 4, 0.00,60.00,Wednesday
7,-17.2
545,18.549133421341928
546,-10.264519285489625
547,12.212079905779778
548,147.5694535220177
720,5892.567241184559
721,5892.567241184559
784,0.0
785,0.0
848,0.0
849,0.0
1121,2892.8266618939274
1135,1224.7573592172566
1161,1.7896282639957783
1163,0.0
1166,5557.855464944112
1168,5557.855464944112
2,3, 1, 8, 0, 5, 0.00,60.00,Wednesday
7,-17.2
545,18.549850255309693
546,-10.277827901014652
547,12.09100222058595
548,147.5694535220177
720,6041.629083923324
721,6041.629083923324
784,0.0
785,0.0
848,0.0
849,0.0
1121,2893.060213908853
1135,1224.5310925869587
1161,1.7898098199433252
1163,0.0
1166,5756.091240179118
1168,5756.091240179118
2,3, 1, 8, 0, 6, 0.00,60.00,Wednesday
7,-17.8
545,19.030619854131817
546,-9.778695048044984
547,11.965606877081784
548,147.5694535220177
720,7179.1320889914805
721,7179.1320889914805
784,0.0
785,0.0
848,0.0
849,0.0
1121,2829.561116420071
1135,1214.0518241238863
1161,3.6936147235768986
1163,0.0
1166,6581.4392345269025
1168,6581.4392345269025
2,3, 1, 8, 0, 7, 0.00,60.00,Wednesday
7,-17.8
545,19.10328514963947
546,-10.381812016853617
547,11.86486058293322
548,147.5694535220177
720,7275.858024955283
721,7275.858024955283
784,0.0
785,0.0
848,0.0
849,0.0
1121,2814.788843140013
1135,1221.5973859606372
1161,5.391538480297698
1163,0.0
1166,6581.4392345269025
1168,6581.4392345269025
2,3, 1, 8, 0, 8, 0.00,60.00,Wednesday
7,-18.3
545,18.94304938188811
546,-10.884022497732008
547,11.739837724741662
548,147.5694535220177
720,7483.8598807060935
721,7483.8598807060935
784,0.0
785,0.0
848,0.0
849,0.0
1121,2766.7472635805766
1135,1216.488426218311
1161,4.923509712599417
1163,0.0
1166,6581.4392345269025
1168,6581.4392345269025
2,3, 1, 8, 0, 9, 0.00,60.00,Wednesday
7,-17.8
545,19.468149876111617
546,-8.572990514536656
547,11.626889313833122
548,147.5694535220177
720,6145.1881878272325
721,6145.1881878272325
784,0.0
785,0.0
848,0.0
849,0.0
1121,2821.3388696217075
1135,1221.5290963102514
1161,3.778585463751552
1163,0.0
1166,6042.280641163239
1168,6042.280641163239
2,3, 1, 8, 0,10, 0.00,60.00,Wednesday
7,-17.2
545,19.65053649657579
546,-6.474549105722276
547,11.552358651121326
548,147.5694535220177
720,4926.595414790969
721,4926.595414790969
784,0.0
785,0.0
848,0.0
849,0.0
1121,2868.91528560781
1135,1240.6661985060064
1161,3.595920637082324
1163,0.0
1166,4510.48104627228
1168,4510.48104627228
2,3, 1, 8, 0,11, 0.00,60.00,Wednesday
7,-17.2
545,19.691618457164854
546,-6.324491035857602
547,11.471411631334467
548,147.5694535220177
720,4647.231722645603
721,4647.231722645603
784,0.0
785,0.0
848,0.0
849,0.0
1121,2864.84127452075
1135,1244.2284314912501
1161,3.6782755061762624
1163,0.0
1166,4071.1695987234784
1168,4071.1695987234784
2,3, 1, 8, 0,12, 0.00,60.00,Wednesday
7,-15.0
545,19.721986596258372
546,-1.0145277926865968
547,11.44529165427605
548,147.5694535220177
720,3541.3807849265686
721,3541.3807849265686
784,0.0
785,0.0
848,0.0
849,0.0
1121,3094.223610915563
1135,1279.681182027252
1161,0.07108708144894152
1163,0.0
1166,2530.561451041419
1168,2530.561451041419
2,3, 1, 8, 0,13, 0.00,60.00,Wednesday
7,-13.3
545,19.74204168344501
546,-1.401117556822535
547,11.432327024820822
548,147.5694535220177
720,3398.2606258322958
721,3398.2606258322958
784,0.0
785,0.0
848,0.0
849,0.0
1121,3270.2463114785965
1135,1302.6435931335302
1161,0.07108708144894152
1163,0.0
1166,1920.3489182668247
1168,1920.3489182668247
2,3, 1, 8, 0,14, 0.00,60.00,Wednesday
7,-12.2
545,19.741442163907198
546,1.0370882196219942
547,11.441890995877491
548,147.5694535220177
720,2669.6779398456238
721,2669.6779398456238
784,0.0
785,0.0
848,0.0
849,0.0
1121,3387.078177734765
1135,1317.1946186342943
1161,0.07108708144894152
1163,0.0
1166,931.1947717155558
1168,931.1947717155558
2,3, 1, 8, 0,15, 0.00,60.00,Wednesday
7,-11.7
545,19.745774744660196
546,1.877642610021693
547,11.457043405036044
548,147.5694535220177
720,2420.8709847618557
721,2420.8709847618557
784,0.0
785,0.0
848,0.0
849,0.0
1121,3441.178068925064
1135,1323.4933714516549
1161,0.07108708144894152
1163,0.0
1166,454.8325223288955
1168,454.8325223288955
2,3, 1, 8, 0,16, 0.00,60.00,Wednesday
7,-11.7
545,19.74011059860172
546,2.069803819384015
547,11.478279960350209
548,147.5694535220177
720,2247.6004915991216
721,2247.6004915991216
784,0.0
785,0.0
848,0.0
849,0.0
1121,3441.0478102992224
1135,1323.6329671964006
1161,0.07108708144894152
1163,0.0
1166,187.9233155873485
1168,187.9233155873485
2,3, 1, 8, 0,17, 0.00,60.00,Wednesday
7,-11.1
545,19.721796164969927
546,-0.3341769565928018
547,11.503382134370996
548,147.5694535220177
720,2554.6308457956766
721,2554.6308457956766
784,0.0
785,0.0
848,0.0
849,0.0
1121,3506.735832495587
1135,1330.9895450684598
1161,0.07108708144894152
1163,0.0
1166,454.6039743353449
1168,454.6039743353449
2,3, 1, 8, 0,18, 0.00,60.00,Wednesday
7,-11.1
545,19.69884055158783
546,-2.2605265952939484
547,11.51777144104795
548,147.5694535220177
720,2750.245187913979
721,2750.245187913979
784,0.0
785,0.0
848,0.0
849,0.0
1121,3507.101703253085
1135,1330.593408985772
1161,0.07108708144894152
1163,0.0
1166,790.3359433297614
1168,790.3359433297614
2,3, 1, 8, 0,19, 0.00,60.00,Wednesday
7,-11.1
545,19.691011500181954
546,-3.811622325919664
547,11.514927644901393
548,147.5694535220177
720,2971.131669103768
721,2971.131669103768
784,0.0
785,0.0
848,0.0
849,0.0
1121,3507.5998903388613
1135,1330.0539472680482
1161,0.07108708144894152
1163,0.0
1166,1153.560489445933
1168,1153.560489445933
2,3, 1, 8, 0,20, 0.00,60.00,Wednesday
7,-10.0
545,19.69972637412836
546,-4.29883467573183
547,11.50433067848699
548,147.5694535220177
720,2805.0551057202847
721,2805.0551057202847
784,0.0
785,0.0
848,0.0
849,0.0
1121,3629.831977729564
1135,1343.368540018624
1161,0.07108708144894152
1163,0.0
1166,931.8461173537555
1168,931.8461173537555
2,3, 1, 8, 0,21, 0.00,60.00,Wednesday
7,-8.9
545,19.7038883287042
546,-4.39877506486589
547,11.47843037805666
548,147.5694535220177
720,2900.7733040135463
721,2900.7733040135463
784,0.0
785,0.0
848,0.0
849,0.0
1121,3754.095144694299
1135,1356.8653142964265
1161,0.07108708144894152
1163,0.0
1166,953.073425249949
1168,953.073425249949
2,3, 1, 8, 0,22, 0.00,60.00,Wednesday
7,-8.3
545,19.703156319705435
546,-4.328401268576617
547,11.439198366951501
548,147.5694535220177
720,3155.88602110803
721,3155.88602110803
784,0.0
785,0.0
848,0.0
849,0.0
1121,3822.928334209881
1135,1364.1060522505584
1161,0.07108708144894152
1163,0.0
1166,1193.0507086749046
1168,1193.0507086749046
2,3, 1, 8, 0,23, 0.00,60.00,Wednesday
7,-7.0
545,18.959201685075897
546,-3.2321593950696457
547,11.39952647193649
548,147.5694535220177
720,2495.7176814836603
721,2495.7176814836603
784,0.0
785,0.0
848,0.0
849,0.0
1121,3974.6691096291793
1135,1379.4872326000846
1161,0.07108708144894152
1163,0.0
1166,286.5764902400597
1168,286.5764902400597
2,3, 1, 8, 0,24, 0.00,60.00,Wednesday
7,-6.7
545,18.724215699672182
546,-2.578012114427945
547,11.311944622804171
548,147.5694535220177
720,2902.30799637983
721,2902.30799637983
784,0.0
785,0.0
848,0.0
849,0.0
1121,4027.288248285954
1135,1363.3467810110983
1161,0.07108708144894152
1163,0.0
1166,583.7263650528712
1168,583.7263650528712
2,4, 1, 9, 0, 1, 0.00,60.00,Thursday
7,-2.8
545,18.668166993014474
546,-1.4288235206201656
547,11.27509332361854
548,144.38325496781013
720,2772.6783530268985
721,2772.6783530268985
784,0.0
785,0.0
848,0.0
849,0.0
1121,4401.359872234899
1135,1371.9657682670497
1161,0.06955294648361429
1163,4.316213112305434
1166,0.0
1168,0.0
2,4, 1, 9, 0, 2, 0.00,60.00,Thursday
7,-3.9
545,18.618483702347007
546,-1.1477541978785435
547,11.20949107247245
548,147.5694535220177
720,3259.8392437350285
721,3259.8392437350285
784,0.0
785,0.0
848,0.0
849,0.0
1121,4374.081220120755
1135,1387.7070225621803
1161,0.07108708144894152
1163,0.0
1166,529.3240915059214
1168,529.3240915059214
2,4, 1, 9, 0, 3, 0.00,60.00,Thursday
7,-5.0
545,18.592568480867474
546,-1.2620202265797236
547,11.14601967392846
548,147.5694535220177
720,4012.170866642442
721,4012.170866642442
784,0.0
785,0.0
848,0.0
849,0.0
1121,4223.742145878783
1135,1368.2576121452164
1161,4.0006185078743695
1163,0.0
1166,1543.8588289701183
1168,1543.8588289701183
2,4, 1, 9, 0, 4, 0.00,60.00,Thursday
7,-5.6
545,18.603168256961215
546,-1.1195021449082887
547,11.094937763777292
548,147.5694535220177
720,3649.0771979833244
721,3649.0771979833244
784,0.0
785,0.0
848,0.0
849,0.0
1121,4071.819293349011
1135,1334.4999331279732
1161,23.719892557967516
1163,0.0
1166,1288.7884671044371
1168,1288.7884671044371
2,4, 1, 9, 0, 5, 0.00,60.00,Thursday
7,-5.0
545,18.605891135729706
546,-1.0561042178362574
547,11.051658244600311
548,147.5694535220177
720,3545.015001212054
721,3545.015001212054
784,0.0
785,0.0
848,0.0
849,0.0
1121,4224.236875087465
1135,1367.762846571704
1161,3.987401578797306
1163,0.0
1166,1006.620262968288
1168,1006.620262968288
2,4, 1, 9, 0, 6, 0.00,60.00,Thursday
7,-5.6
545,19.355954044436164
546,-1.6571440509842164
547,10.999074570629373
548,147.5694535220177
720,4858.021741139408
721,4858.021741139408
784,0.0
785,0.0
848,0.0
849,0.0
1121,4133.740672768954
1135,1355.0301341541256
1161,8.40849315168797
1163,0.0
1166,2604.5930733373852
1168,2604.5930733373852
2,4, 1, 9, 0, 7, 0.00,60.00,Thursday
7,-5.6
545,19.60221449222438
546,-1.1279102128720375
547,10.993238521807989
548,147.5694535220177
720,4423.124749380733
721,4423.124749380733
784,0.0
785,0.0
848,0.0
849,0.0
1121,4095.879304129757
1135,1367.853833315451
1161,13.562687591190047
1163,0.0
1166,2255.9289599850035
1168,2255.9289599850035
2,4, 1, 9, 0, 8, 0.00,60.00,Thursday
7,-5.0
545,19.68970523785366
546,-0.6109748977442065
547,10.963909923847828
548,147.5694535220177
720,3829.4618895109325
721,3829.4618895109325
784,0.0
785,0.0
848,0.0
849,0.0
1121,4217.4200719175315
1135,1399.7609859511467
1161,0.07108708144894152
1163,0.0
1166,1445.1655929222275
1168,1445.1655929222275
2,4, 1, 9, 0, 9, 0.00,60.00,Thursday
7,-5.0
545,19.709260436405373
546,-0.5601182995306891
547,10.930202540059744
548,147.5694535220177
720,3759.1273981362283
721,3759.1273981362283
784,0.0
785,0.0
848,0.0
849,0.0
1121,4177.113699384962
1135,1389.3361152049013
1161,9.414633595242032
1163,0.0
1166,1372.5771044892363
1168,1372.5771044892363
2,4, 1, 9, 0,10, 0.00,60.00,Thursday
7,-4.4
545,19.723618793964537
546,0.4963594952092316
547,10.901584809661719
548,147.5694535220177
720,3269.256743502461
721,3269.256743502461
784,0.0
785,0.0
848,0.0
849,0.0
1121,4288.5177777887
1135,1409.6684582394187
1161,0.07108708144894152
1163,0.0
1166,690.7105626491757
1168,690.7105626491757
2,4, 1, 9, 0,11, 0.00,60.00,Thursday
7,-4.4
545,19.729985297641814
546,1.755658458329868
547,10.876871869507418
548,147.5694535220177
720,3046.633546486304
721,3046.633546486304
784,0.0
785,0.0
848,0.0
849,0.0
1121,4228.427044854007
1135,1390.3494581667323
1161,14.40507641703387
1163,0.0
1166,435.4885454173518
1168,435.4885454173518
2,4, 1, 9, 0,12, 0.00,60.00,Thursday
7,-5.0
545,19.80507488060369
546,3.3974263930113375