Program Version,EnergyPlus, Version 22.2.0-c249759bad, YMD=2023.07.07 15:08
1,5,Environment Title[],Latitude[deg],Longitude[deg],Time Zone[],Elevation[m]
2,8,Day of Simulation[],Month[],Day of Month[],DST Indicator[1=yes 0=no],Hour[],StartMinute[],EndMinute[],DayType
3,5,Cumulative Day of Simulation[],Month[],Day of Month[],DST Indicator[1=yes 0=no],DayType  ! When Daily Report Variables Requested
4,2,Cumulative Days of Simulation[],Month[]  ! When Monthly Report Variables Requested
5,1,Cumulative Days of Simulation[] ! When Run Period Report Variables Requested
6,1,Calendar Year of Simulation[] ! When Annual Report Variables Requested
581,11,LIVING,AFN Zone Infiltration Air Change Rate [ach] !RunPeriod [Value,Min,Month,Day,Hour,Minute,Max,Month,Day,Hour,Minute]
582,11,ATTIC,AFN Zone Infiltration Air Change Rate [ach] !RunPeriod [Value,Min,Month,Day,Hour,Minute,Max,Month,Day,Hour,Minute]
583,11,CRAWLSPACE,AFN Zone Infiltration Air Change Rate [ach] !RunPeriod [Value,Min,Month,Day,Hour,Minute,Max,Month,Day,Hour,Minute]
1038,11,Facility,Facility Heating Setpoint Not Met Time [hr] !RunPeriod [Value,Min,Month,Day,Hour,Minute,Max,Month,Day,Hour,Minute]
1039,11,Facility,Facility Cooling Setpoint Not Met Time [hr] !RunPeriod [Value,Min,Month,Day,Hour,Minute,Max,Month,Day,Hour,Minute]
1115,11,DX_HEATING_COIL,Heating Coil Heating Energy [J] !RunPeriod [Value,Min,Month,Day,Hour,Minute,Max,Month,Day,Hour,Minute]
1128,11,DX_HEATING_COIL,Heating Coil Electricity Energy [J] !RunPeriod [Value,Min,Month,Day,Hour,Minute,Max,Month,Day,Hour,Minute]
1153,11,DX_HEATING_COIL,Heating Coil Defrost Electricity Energy [J] !RunPeriod [Value,Min,Month,Day,Hour,Minute,Max,Month,Day,Hour,Minute]
1154,11,DX_HEATING_COIL,Heating Coil Crankcase Heater Electricity Energy [J] !RunPeriod [Value,Min,Month,Day,Hour,Minute,Max,Month,Day,Hour,Minute]
1156,11,HEATING_RESISTANCE_BACKUP,Heating Coil Electricity Energy [J] !RunPeriod [Value,Min,Month,Day,Hour,Minute,Max,Month,Day,Hour,Minute]
13,11,Electricity:Facility [J] !RunPeriod [Value,Min,Month,Day,Hour,Minute,Max,Month,Day,Hour,Minute]
1134,11,Heating:Electricity [J] !RunPeriod [Value,Min,Month,Day,Hour,Minute,Max,Month,Day,Hour,Minute]
1096,11,Cooling:Electricity [J] !RunPeriod [Value,Min,Month,Day,Hour,Minute,Max,Month,Day,Hour,Minute]
562,11,Fans:Electricity [J] !RunPeriod [Value,Min,Month,Day,Hour,Minute,Max,Month,Day,Hour,Minute]
1388,11,Pumps:Electricity [J] !RunPeriod [Value,Min,Month,Day,Hour,Minute,Max,Month,Day,Hour,Minute]
1360,11,WaterSystems:Electricity [J] !RunPeriod [Value,Min,Month,Day,Hour,Minute,Max,Month,Day,Hour,Minute]
61,11,InteriorLights:Electricity [J] !RunPeriod [Value,Min,Month,Day,Hour,Minute,Max,Month,Day,Hour,Minute]
1046,11,ExteriorLights:Electricity [J] !RunPeriod [Value,Min,Month,Day,Hour,Minute,Max,Month,Day,Hour,Minute]
134,11,InteriorEquipment:Electricity [J] !RunPeriod [Value,Min,Month,Day,Hour,Minute,Max,Month,Day,Hour,Minute]
170,11,gas_dryer:InteriorEquipment:Electricity [J] !RunPeriod [Value,Min,Month,Day,Hour,Minute,Max,Month,Day,Hour,Minute]
207,11,clotheswasher:InteriorEquipment:Electricity [J] !RunPeriod [Value,Min,Month,Day,Hour,Minute,Max,Month,Day,Hour,Minute]
244,11,dishwasher:InteriorEquipment:Electricity [J] !RunPeriod [Value,Min,Month,Day,Hour,Minute,Max,Month,Day,Hour,Minute]
281,11,refrigerator:InteriorEquipment:Electricity [J] !RunPeriod [Value,Min,Month,Day,Hour,Minute,Max,Month,Day,Hour,Minute]
318,11,electric_mels:InteriorEquipment:Electricity [J] !RunPeriod [Value,Min,Month,Day,Hour,Minute,Max,Month,Day,Hour,Minute]
355,11,NaturalGas:Facility [J] !RunPeriod [Value,Min,Month,Day,Hour,Minute,Max,Month,Day,Hour,Minute]
1323,11,WaterSystems:NaturalGas [J] !RunPeriod [Value,Min,Month,Day,Hour,Minute,Max,Month,Day,Hour,Minute]
403,11,InteriorEquipment:NaturalGas [J] !RunPeriod [Value,Min,Month,Day,Hour,Minute,Max,Month,Day,Hour,Minute]
476,11,gas_dryer:InteriorEquipment:NaturalGas [J] !RunPeriod [Value,Min,Month,Day,Hour,Minute,Max,Month,Day,Hour,Minute]
513,11,gas_mels:InteriorEquipment:NaturalGas [J] !RunPeriod [Value,Min,Month,Day,Hour,Minute,Max,Month,Day,Hour,Minute]
End of Data Dictionary
1,EXTREME_WINTER,  41.17, -73.13,  -5.00,   5.00
5,7
1038,0.8333333333333333,0.0, 1, 8, 1,10,0.16666666666666666, 1, 9, 6,10
1039,0.0,0.0, 1, 8, 1,10,0.0, 1, 8, 1,10
581,0.29738662695981094,0.18492629795203475, 1, 8, 1,53,0.5793488067102825, 1,12,19,60
582,3.3136342710160394,0.0, 1, 8, 1,53,10.9755936006518, 1,12,19,60
583,4.4580438024311295,0.0002237680387840616, 1,14,20,25,14.973435829448087, 1,12,20,20
1115,1694207120.475939,0.0, 1, 8,23, 2,2542738.6789313755, 1,12, 5,10
1128,549371095.6931885,0.0, 1, 8,23, 2,772073.6706061837, 1,13,13,10
1153,5023136.150164094,0.0, 1, 8,23, 2,43394.8814020049, 1, 8, 9,10
1154,33167167.60107625,0.0, 1, 8, 6, 2,120000.0, 1,12,16,30
1156,436697080.55259484,0.0, 1, 8, 1, 1,2433455.3815959473, 1,10, 6,50
13,1460510007.8983936,310413.9030351998, 1,14,15,10,4281037.2042440325, 1,10, 6,10
61,301924526.0238348,58759.40635443481, 1, 8, 1,10,854682.2742463244, 1, 8,20,10
134,70666020.44019979,42376.01200569399, 1, 8, 4,10,104369.48322671017, 1,13,20,10
170,5241013.419656074,232.27731661587313, 1, 8, 4,10,11650.931360040839, 1,13,12,10
207,6509451.13922266,543.5021409221355, 1, 8, 3,10,15327.095199349082, 1,13,10,10
244,12749673.39982522,1014.5707620042115, 1, 8, 4,10,35359.08742820678, 1,13,20,10
281,46165882.48149605,39959.06841621388, 1, 8, 5,10,54634.54471212738, 1, 8,19,10
318,0.0,0.0, 1, 8, 1,10,0.0, 1, 8, 1,10
355,739766059.6601502,12374.216038804521, 1, 8, 4,10,3829218.154066982, 1,12,18,20
403,197687796.27748126,12374.216038804521, 1, 8, 4,10,483183.26346918393, 1,13,18,10
476,106772067.24485692,4732.048419519677, 1, 8, 4,10,237357.535085481, 1,13,12,10
513,0.0,0.0, 1, 8, 1,10,0.0, 1, 8, 1,10
562,58641141.43733702,0.0, 1,11,23,10,80225.87721689837, 1, 9, 6,10
1046,0.0,0.0, 1, 8, 1,10,0.0, 1, 8, 1,10
1096,0.0,0.0, 1, 8, 1,10,0.0, 1, 8, 1,10
1134,1024258479.9970239,120000.0, 1,11,23,10,3783252.004016482, 1,10, 6,10
1323,542078263.3826655,0.0, 1, 8, 1,10,3375000.000000002, 1, 8,22,10
1360,5019840.0,4979.999999999998, 1, 8, 1,10,4980.000000000001, 1, 8, 1,30
1388,0.0,0.0, 1, 8, 1,10,0.0, 1, 8, 1,10
1,EXTREME_SUMMER,  41.17, -73.13,  -5.00,   5.00
5,7
1038,0.0,0.0, 8, 5, 1,10,0.0, 8, 5, 1,10
1039,46.5,0.0, 8, 5, 1,10,0.16666666666666666, 8, 5,12,60
581,0.11409208063245,0.0, 8, 5, 3,10,0.37513689250023113, 8, 6,18,53
582,3.078794305238122,0.0, 8, 7, 6, 2,11.81533841079263, 8, 5,16,55
583,3.796040186637041,0.0, 8, 5, 6, 7,11.922216765745162, 8, 6,15,56
1115,0.0,0.0, 8, 5, 1,10,0.0, 8, 5, 1,10
1128,0.0,0.0, 8, 5, 1,10,0.0, 8, 5, 1,10
1153,0.0,0.0, 8, 5, 1,10,0.0, 8, 5, 1,10
1154,0.0,0.0, 8, 5, 1,10,0.0, 8, 5, 1,10
1156,0.0,0.0, 8, 5, 1,10,0.0, 8, 5, 1,10
13,912879173.2205268,129272.84781231031, 8, 7, 4,60,1847325.235466901, 8, 5,20,10
61,301924526.0238348,58759.40635443481, 8, 5, 1,10,854682.2742463244, 8, 5,20,10
134,70666020.44019979,42376.01200569399, 8, 5, 4,10,104369.48322671017, 8,10,20,10
170,5241013.419656074,232.27731661587313, 8, 5, 4,10,11650.931360040839, 8,10,12,10
207,6509451.13922266,543.5021409221355, 8, 5, 3,10,15327.095199349082, 8,10,10,10
244,12749673.39982522,1014.5707620042115, 8, 5, 4,10,35359.08742820678, 8,10,20,10
281,46165882.48149605,39959.06841621388, 8, 5, 5,10,54634.54471212738, 8, 5,19,10
318,0.0,0.0, 8, 5, 1,10,0.0, 8, 5, 1,10
355,627659107.547548,12374.216038804521, 8, 5, 4,10,3829218.154066982, 8, 6,18,60
403,197687796.27748126,12374.216038804521, 8, 5, 4,10,483183.26346918393, 8,10,18,10
476,106772067.24485692,4732.048419519677, 8, 5, 4,10,237357.535085481, 8,10,12,10
513,0.0,0.0, 8, 5, 1,10,0.0, 8, 5, 1,10
562,51733947.72399192,0.0, 8, 7, 6,20,80225.87721689837, 8, 6,15,60
1046,0.0,0.0, 8, 5, 1,10,0.0, 8, 5, 1,10
1096,483534839.0324999,0.0, 8, 7, 6,20,868191.4659489379, 8, 5,15,60
1134,0.0,0.0, 8, 5, 1,10,0.0, 8, 5, 1,10
1323,429971311.27006483,0.0, 8, 5, 1,10,3375000.0000000005, 8, 9, 9,60
1360,5019840.0,4980.0, 8, 5, 1,10,4980.000000000001, 8, 5, 7,40
1388,0.0,0.0, 8, 5, 1,10,0.0, 8, 5, 1,10
1,ANNUAL,  41.17, -73.13,  -5.00,   5.00
5,365
1038,44.33333333333328,0.0, 1, 1, 1,10,0.16666666666666666, 1, 3, 6,10
1039,434.1666666666671,0.0, 1, 1, 1,10,0.16666666666666666, 4,11,13,20
581,0.23854990740615223,0.0, 6, 2, 2,13,1.1237315194863788, 2,12,10,60
582,4.50399672136045,0.0, 1, 1, 6, 2,29.823118683272643, 2,12,10,60
583,5.241898252647225,0.0, 6,25,23, 3,33.816296707304254, 2,12,10,60
1115,22933163118.34701,0.0, 1, 1,23, 5,2857486.5095179947,12,30, 6,30
1128,6902851178.864115,0.0, 1, 1,23, 5,806562.0943829818,12,10, 6,60
1153,172920615.95968416,0.0, 1, 1,23, 5,79802.87217162625, 2,19, 6,50
1154,1645193924.9229577,0.0, 1, 1, 6, 2,120000.0, 1, 6,15,40
1156,3578991090.893247,0.0, 1, 1, 1, 3,3072171.3171327244, 1, 3, 6,10
13,41497498221.96937,106115.4183601288, 4,12, 4,10,4352501.072092313, 1, 3, 7,60
61,15743207428.39043,58759.40635443481, 1, 1, 1,10,854682.2742463244, 1, 1,20,10
134,3685071073.433083,42376.01200569399, 1, 2, 4,10,104369.48322671017, 1, 1,20,10
170,273393721.45534325,232.27731661587313, 1, 2, 4,10,11650.931360040839, 1, 1,12,10
207,339560869.06955314,543.5021409221355, 1, 2, 3,10,15327.095199349082, 1, 1,10,10
244,664895467.8009839,1014.5707620042115, 1, 2, 4,10,35359.08742820678, 1, 1,20,10
281,2407221015.1057043,39959.06841621388, 1, 1, 5,10,54634.54471212738, 1, 1,19,10
318,0.0,0.0, 1, 1, 1,10,0.0, 1, 1, 1,10
355,35738929054.3196,12374.216038804521, 1, 2, 4,10,3829218.154066983,12, 5,18,60
403,10310294493.052883,12374.216038804521, 1, 2, 4,10,483183.26346918393, 1, 1,18,10
476,5569688622.065564,4732.048419519677, 1, 2, 4,10,237357.535085481, 1, 1,12,10
513,0.0,0.0, 1, 1, 1,10,0.0, 1, 1, 1,10
562,1627590419.470947,0.0, 1, 1,23,10,80225.87721689837, 1, 3, 3,20
1046,0.0,0.0, 1, 1, 1,10,0.0, 1, 1, 1,10
1096,7879923690.041217,0.0, 1, 1, 1,10,877804.8464324981, 8,31,15,60
1134,12299956810.639946,0.0, 2, 8,11,20,3805675.4286272344, 1, 3, 9,60
1323,25428634561.270702,0.0, 1, 1, 1,10,3375000.000000002, 5, 9,10,30
1360,261748800.0,4979.999999999998,10, 2,15,50,4980.000000000002, 4,15,22,30
1388,0.0,0.0, 1, 1, 1,10,0.0, 1, 1, 1,10
End of Data
 Number of Records Written=          87
