Program Version,EnergyPlus, Version 22.2.0-c249759bad, YMD=2023.09.01 14:32
1,5,Environment Title[],Latitude[deg],Longitude[deg],Time Zone[],Elevation[m]
2,8,Day of Simulation[],Month[],Day of Month[],DST Indicator[1=yes 0=no],Hour[],StartMinute[],EndMinute[],DayType
3,5,Cumulative Day of Simulation[],Month[],Day of Month[],DST Indicator[1=yes 0=no],DayType  ! When Daily Report Variables Requested
4,2,Cumulative Days of Simulation[],Month[]  ! When Monthly Report Variables Requested
5,1,Cumulative Days of Simulation[] ! When Run Period Report Variables Requested
6,1,Calendar Year of Simulation[] ! When Annual Report Variables Requested
7,1,Environment,Site Outdoor Air Drybulb Temperature [C] !Hourly
545,1,LIVING,Zone Mean Air Temperature [C] !Hourly
546,1,ATTIC,Zone Mean Air Temperature [C] !Hourly
547,1,CRAWLSPACE,Zone Mean Air Temperature [C] !Hourly
548,1,FAN,Fan Electricity Rate [W] !Hourly
720,1,LIVING,Zone Predicted Sensible Load to Heating Setpoint Heat Transfer Rate [W] !Hourly
721,1,LIVING,Zone System Predicted Sensible Load to Heating Setpoint Heat Transfer Rate [W] !Hourly
784,1,ATTIC,Zone Predicted Sensible Load to Heating Setpoint Heat Transfer Rate [W] !Hourly
785,1,ATTIC,Zone System Predicted Sensible Load to Heating Setpoint Heat Transfer Rate [W] !Hourly
848,1,CRAWLSPACE,Zone Predicted Sensible Load to Heating Setpoint Heat Transfer Rate [W] !Hourly
849,1,CRAWLSPACE,Zone System Predicted Sensible Load to Heating Setpoint Heat Transfer Rate [W] !Hourly
1121,1,DX_HEATING_COIL,Heating Coil Heating Rate [W] !Hourly
1135,1,DX_HEATING_COIL,Heating Coil Electricity Rate [W] !Hourly
1161,1,DX_HEATING_COIL,Heating Coil Defrost Electricity Rate [W] !Hourly
1163,1,DX_HEATING_COIL,Heating Coil Crankcase Heater Electricity Rate [W] !Hourly
1166,1,HEATING_RESISTANCE_BACKUP,Heating Coil Heating Rate [W] !Hourly
1168,1,HEATING_RESISTANCE_BACKUP,Heating Coil Electricity Rate [W] !Hourly
End of Data Dictionary
1,EXTREME_WINTER,  42.92, -97.38,  -6.00, 398.00
2,1, 1,20, 0, 1, 0.00,60.00,Monday
7,-12.0
545,18.62655439036323
546,-7.620925913793956
547,17.02428740014354
548,157.02582686989447
720,4052.599100426449
721,4052.599100426449
784,0.0
785,0.0
848,0.0
849,0.0
1121,4089.951893906706
1135,1553.505754925613
1161,9.331020272114502
1163,0.0
1166,2091.8359163411055
1168,2091.8359163411055
2,1, 1,20, 0, 2, 0.00,60.00,Monday
7,-13.0
545,18.5940421114562
546,-7.902825490234338
547,16.462359017104124
548,157.02582686989447
720,4934.322745383561
721,4934.322745383561
784,0.0
785,0.0
848,0.0
849,0.0
1121,3967.7522128502414
1135,1539.9669644422306
1161,7.773555282816727
1163,0.0
1166,3094.4591374534343
1168,3094.4591374534343
2,1, 1,20, 0, 3, 0.00,60.00,Monday
7,-13.0
545,18.591901276589716
546,-7.186553718106906
547,16.204516950881764
548,157.02582686989447
720,4723.175787647873
721,4723.175787647873
784,0.0
785,0.0
848,0.0
849,0.0
1121,3924.217683320852
1135,1520.7929422480058
1161,21.744324865394237
1163,0.0
1166,2912.6438125155687
1168,2912.6438125155687
2,1, 1,20, 0, 4, 0.00,60.00,Monday
7,-13.0
545,18.588135920075576
546,-7.230205085715732
547,15.906971568814727
548,157.02582686989447
720,4887.48814266979
721,4887.48814266979
784,0.0
785,0.0
848,0.0
849,0.0
1121,3948.7942717611454
1135,1529.740976813622
1161,14.260389956059218
1163,0.0
1166,3045.5681286295744
1168,3045.5681286295744
2,1, 1,20, 0, 5, 0.00,60.00,Monday
7,-13.0
545,18.58658200138
546,-7.197284162812743
547,15.655973511045826
548,157.02582686989447
720,4881.865876629852
721,4881.865876629852
784,0.0
785,0.0
848,0.0
849,0.0
1121,3949.2922741570187
1135,1529.216059312151
1161,14.260389956059218
1163,0.0
1166,3045.5950600480087
1168,3045.5950600480087
2,1, 1,20, 0, 6, 0.00,60.00,Monday
7,-13.0
545,19.33803190019356
546,-7.019122693832466
547,15.420557929084078
548,157.02582686989447
720,5874.794256328514
721,5874.794256328514
784,0.0
785,0.0
848,0.0
849,0.0
1121,3949.6692164420783
1135,1528.8186926691421
1161,14.260389956059218
1163,0.0
1166,4191.046324079622
1168,4191.046324079622
2,1, 1,20, 0, 7, 0.00,60.00,Monday
7,-12.0
545,19.586313771624827
546,-6.780823225723661
547,15.240281023545004
548,157.02582686989447
720,5621.577743055175
721,5621.577743055175
784,0.0
785,0.0
848,0.0
849,0.0
1121,4050.3603324090814
1135,1561.6502319611106
1161,16.411247891542306
1163,0.0
1166,3876.268278536849
1168,3876.268278536849
2,1, 1,20, 0, 8, 0.00,60.00,Monday
7,-12.0
545,19.660955263497485
546,-6.238322314119966
547,15.039512561787427
548,157.02582686989447
720,5525.263758928519
721,5525.263758928519
784,0.0
785,0.0
848,0.0
849,0.0
1121,4067.443888959843
1135,1577.5601518829485
1161,9.331020272114502
1163,0.0
1166,3766.422598626709
1168,3766.422598626709
2,1, 1,20, 0, 9, 0.00,60.00,Monday
7,-12.0
545,19.690997865937234
546,-5.4922178984507655
547,14.856244890958969
548,157.02582686989447
720,5237.4454221834985
721,5237.4454221834985
784,0.0
785,0.0
848,0.0
849,0.0
1121,4089.431141775477
1135,1588.627563047867
1161,2.1700941213143743
1163,0.0
1166,3392.9856548859025
1168,3392.9856548859025
2,1, 1,20, 0,10, 0.00,60.00,Monday
7,-12.0
545,19.70439050553504
546,-4.925424290879023
547,14.679996595166918
548,157.02582686989447
720,4931.632976294346
721,4931.632976294346
784,0.0
785,0.0
848,0.0
849,0.0
1121,4041.693573014985
1135,1570.889738946988
1161,16.411247891542306
1163,0.0
1166,3045.356796706513
1168,3045.356796706513
2,1, 1,20, 0,11, 0.00,60.00,Monday
7,-12.0
545,19.703325548135236
546,-4.5219427489716955
547,14.511736150730625
548,157.02582686989447
720,4909.064000307768
721,4909.064000307768
784,0.0
785,0.0
848,0.0
849,0.0
1121,4014.5581034632305
1135,1560.494131025379
1161,24.571327467439374
1163,0.0
1166,3011.5037631257755
1168,3011.5037631257755
2,1, 1,20, 0,12, 0.00,60.00,Monday
7,-12.0
545,19.69859904338012
546,-5.091184804780501
547,14.351294418448004
548,157.02582686989447
720,5014.99043636128
721,5014.99043636128
784,0.0
785,0.0
848,0.0
849,0.0
1121,3988.155427059126
1135,1549.82809604958
1161,32.62551460663889
1163,0.0
1166,3140.816936876156
1168,3140.816936876156
2,1, 1,20, 0,13, 0.00,60.00,Monday
7,-11.0
545,19.698580541471184
546,-4.908944202262697
547,14.206071599190974
548,157.02582686989447
720,4861.769500817114
721,4861.769500817114
784,0.0
785,0.0
848,0.0
849,0.0
1121,4133.173518238714
1135,1570.557248152879
1161,27.684728311516466
1163,0.0
1166,2851.6142672870355
1168,2851.6142672870355
2,1, 1,20, 0,14, 0.00,60.00,Monday
7,-11.0
545,19.69366418542085
546,-4.838112289147358
547,14.061021597835088
548,157.02582686989447
720,5095.880789357332
721,5095.880789357332
784,0.0
785,0.0
848,0.0
849,0.0
1121,4133.402374551855
1135,1570.309264035505
1161,27.684728311516466
1163,0.0
1166,3119.9545790162792
1168,3119.9545790162792
2,1, 1,20, 0,15, 0.00,60.00,Monday
7,-11.0
545,19.70110501745037
546,-4.352295497368348
547,13.92952116733404
548,157.02582686989447
720,4841.178447909328
721,4841.178447909328
784,0.0
785,0.0
848,0.0
849,0.0
1121,4133.733354523744
1135,1569.95059741367
1161,27.684728311516466
1163,0.0
1166,2829.2609896303493
1168,2829.2609896303493
2,1, 1,20, 0,16, 0.00,60.00,Monday
7,-10.0
545,19.73671213723086
546,-2.7387043706515994
547,13.816275844086302
548,157.02582686989447
720,3349.738664681814
721,3349.738664681814
784,0.0
785,0.0
848,0.0
849,0.0
1121,4252.230987523019
1135,1579.999919159314
1161,31.106807676601573
1163,0.0
1166,966.8165371065452
1168,966.8165371065452
2,1, 1,20, 0,17, 0.00,60.00,Monday
7,-10.0
545,19.750930430124527
546,-3.764870588516875
547,13.715140551988878
548,157.02582686989447
720,2646.561637698409
721,2646.561637698409
784,0.0
785,0.0
848,0.0
849,0.0
1121,4280.640415310894
1135,1591.724275823772
1161,22.82864267849612
1163,0.0
1166,18.670173241663633
1168,18.670173241663633
2,1, 1,20, 0,18, 0.00,60.00,Monday
7,-11.0
545,19.716399107031073
546,-4.751427119913294
547,13.630338013468922
548,157.02582686989447
720,3197.9782292363216
721,3197.9782292363216
784,0.0
785,0.0
848,0.0
849,0.0
1121,4098.484190823199
1135,1558.0870972199273
1161,37.687957697794296
1163,0.0
1166,852.4079431795935
1168,852.4079431795935
2,1, 1,20, 0,19, 0.00,60.00,Monday
7,-10.0
545,19.710402517017208
546,-4.46555539600744
547,13.561825599243646
548,157.02582686989447
720,3180.8005952448384
721,3180.8005952448384
784,0.0
785,0.0
848,0.0
849,0.0
1121,4252.243549177542
1135,1579.986089583243
1161,31.106807676601573
1163,0.0
1166,741.8571558630747
1168,741.8571558630747
2,1, 1,20, 0,20, 0.00,60.00,Monday
7,-11.0
545,19.701636864459264
546,-5.201278564931839
547,13.464947531563652
548,157.02582686989447
720,3675.16735123302
721,3675.16735123302
784,0.0
785,0.0
848,0.0
849,0.0
1121,4160.024542850636
1135,1579.54443988007
1161,20.074715705781692
1163,0.0
1166,1404.156441814329
1168,1404.156441814329
2,1, 1,20, 0,21, 0.00,60.00,Monday
7,-12.0
545,19.692659911901696
546,-5.993418698741466
547,13.362407347445256
548,157.02582686989447
720,4049.5479572485347
721,4049.5479572485347
784,0.0
785,0.0
848,0.0
849,0.0
1121,4043.4675295450165
1135,1569.000350399442
1161,16.411247891542306
1163,0.0
1166,2001.6434272663416
1168,2001.6434272663416
2,1, 1,20, 0,22, 0.00,60.00,Monday
7,-13.0
545,19.689881393778908
546,-6.452072212306268
547,13.254766412330246
548,157.02582686989447
720,4263.947122915333
721,4263.947122915333
784,0.0
785,0.0
848,0.0
849,0.0
1121,3899.5691842191436
1135,1546.6690291975788
1161,21.744324865394237
1163,0.0
1166,2443.745939943751
1168,2443.745939943751
2,1, 1,20, 0,23, 0.00,60.00,Monday
7,-15.0
545,18.932138716881454
546,-8.921401455789487
547,13.12560946677156
548,157.02582686989447
720,4146.51048721768
721,4146.51048721768
784,0.0
785,0.0
848,0.0
849,0.0
1121,3687.1691398513985
1135,1529.1738735634294
1161,10.591045635041159
1163,0.0
1166,2557.6102832681777
1168,2557.6102832681777
2,1, 1,20, 0,24, 0.00,60.00,Monday
7,-16.0
545,18.667662804944335
546,-10.152614424471826
547,12.966704599136042
548,157.02582686989447
720,5062.365492245679
721,5062.365492245679
784,0.0
785,0.0
848,0.0
849,0.0
1121,3607.942444112996
1135,1502.1681387455353
1161,3.2489325086188052
1163,0.0
1166,3760.3351912245553
1168,3760.3351912245553
2,2, 1,21, 0, 1, 0.00,60.00,Tuesday
7,-17.0
545,18.581845212573192
546,-11.319659526962337
547,12.825439021257177
548,157.02582686989447
720,5686.481901779627
721,5686.481901779627
784,0.0
785,0.0
848,0.0
849,0.0
1121,3485.4672913147547
1135,1474.7830422243155
1161,6.901019339958722
1163,0.0
1166,4673.334173769799
1168,4673.334173769799
2,2, 1,21, 0, 2, 0.00,60.00,Tuesday
7,-17.0
545,18.522281719090916
546,-12.446111844834318
547,12.67512864881218
548,157.02582686989447
720,7382.14565181766
721,7382.14565181766
784,0.0
785,0.0
848,0.0
849,0.0
1121,3500.7897005501172
1135,1477.816910923128
1161,2.3697545906233954
1163,0.0
1166,6705.077618736594
1168,6705.077618736594
2,2, 1,21, 0, 3, 0.00,60.00,Tuesday
7,-17.0
545,18.557778639269223
546,-11.291507012825626
547,12.536421576903914
548,157.02582686989447
720,6270.767304877378
721,6270.767304877378
784,0.0
785,0.0
848,0.0
849,0.0
1121,3502.4815909901254
1135,1476.1757338182363
1161,2.3697545906233954
1163,0.0
1166,5519.709663235633
1168,5519.709663235633
2,2, 1,21, 0, 4, 0.00,60.00,Tuesday
7,-18.0
545,18.52331895016461
546,-12.245589424522862
547,12.367661146637476
548,157.02582686989447
720,7849.187888849901
721,7849.187888849901
784,0.0
785,0.0
848,0.0
849,0.0
1121,3386.967740976121
1135,1461.428131727004
1161,1.6035306351432919
1163,0.0
1166,7423.856635615943
1168,7423.856635615943
2,2, 1,21, 0, 5, 0.00,60.00,Tuesday
7,-18.0
545,18.552597848549105
546,-11.804646474021334
547,12.227599275386813
548,157.02582686989447
720,6905.439113616951
721,6905.439113616951
784,0.0
785,0.0
848,0.0
849,0.0
1121,3376.692671326973
1135,1455.5411061575533
1161,5.734523736967206
1163,0.0
1166,6406.0868197104755
1168,6406.0868197104755
2,2, 1,21, 0, 6, 0.00,60.00,Tuesday
7,-18.0
545,19.252847217647407
546,-12.004366467467051
547,12.076947263641811
548,157.02582686989447
720,8096.199155142629
721,8096.199155142629
784,0.0
785,0.0
848,0.0
849,0.0
1121,3376.1301401367077
1135,1456.073352932452
1161,5.734523736967206
1163,0.0
1166,7618.556528720982
1168,7618.556528720982
2,2, 1,21, 0, 7, 0.00,60.00,Tuesday
7,-18.0
545,19.546157113481268
546,-11.71611925267265
547,11.962765682545541
548,157.02582686989447
720,7472.755546817405
721,7472.755546817405
784,0.0
785,0.0
848,0.0
849,0.0
1121,3369.5645404200927
1135,1477.8041956578772
1161,1.6035306351432919
1163,0.0
1166,7114.892751030313
1168,7114.892751030313
2,2, 1,21, 0, 8, 0.00,60.00,Tuesday
7,-18.0
545,19.62761999179613
546,-11.484524798978933
547,11.82643443058665
548,157.02582686989447
720,7348.96246097425
721,7348.96246097425
784,0.0
785,0.0
848,0.0
849,0.0
1121,3362.096520010762
1135,1484.7800485201938
1161,1.6035306351432919
1163,0.0
1166,6994.542380706209
1168,6994.542380706209
2,2, 1,21, 0, 9, 0.00,60.00,Tuesday
7,-18.0
545,19.672551054705387
546,-11.295024924391706
547,11.6970782617406
548,157.02582686989447
720,6497.428389223111
721,6497.428389223111
784,0.0
785,0.0
848,0.0
849,0.0
1121,3348.8777293843855
1135,1481.6497175534303
1161,5.734523736967206
1163,0.0
1166,6006.450153512565
1168,6006.450153512565
2,2, 1,21, 0,10, 0.00,60.00,Tuesday
7,-17.0
545,19.6769717684109
546,-9.812498787258443
547,11.573664149174673
548,157.02582686989447
720,6328.232599372142
721,6328.232599372142
784,0.0
785,0.0
848,0.0
849,0.0
1121,3473.8697502023515
1135,1503.7355927678316
1161,2.3697545906233954
1163,0.0
1166,5666.9650381763395
1168,5666.9650381763395
2,2, 1,21, 0,11, 0.00,60.00,Tuesday
7,-17.0
545,19.691750404467
546,-9.227830741691202
547,11.44887790571271
548,157.02582686989447
720,5841.639747313509
721,5841.639747313509
784,0.0
785,0.0
848,0.0
849,0.0
1121,3473.952246083547
1135,1503.6567323595004
1161,2.3697545906233954
1163,0.0
1166,5030.021896276833
1168,5030.021896276833
2,2, 1,21, 0,12, 0.00,60.00,Tuesday
7,-16.0
545,19.72178908578834
546,-5.96972499926293
547,11.353258026696752
548,157.02582686989447
720,4506.711032097986
721,4506.711032097986
784,0.0
785,0.0
848,0.0
849,0.0
1121,3590.331806327489
1135,1519.5044582927437
1161,3.2489325086188052
1163,0.0
1166,3323.707021966491
1168,3323.707021966491
2,2, 1,21, 0,13, 0.00,60.00,Tuesday
7,-16.0
545,19.735079457780298
546,-3.968411750299612
547,11.268584193409797
548,157.02582686989447
720,3977.5555063080865
721,3977.5555063080865
784,0.0
785,0.0
848,0.0
849,0.0
1121,3598.888460696762
1135,1524.0422285817278
1161,0.08550521579861001
1163,0.0
1166,2516.9046829156396
1168,2516.9046829156396
2,2, 1,21, 0,14, 0.00,60.00,Tuesday
7,-14.0
545,19.728353997925076
546,-4.8225688876287585
547,11.225012027720341
548,157.02582686989447
720,3920.2529419672483
721,3920.2529419672483
784,0.0
785,0.0
848,0.0
849,0.0
1121,3844.584274372361
1135,1556.5554775556332
1161,0.08550521579861001
1163,0.0
1166,2075.499469324536
1168,2075.499469324536
2,2, 1,21, 0,15, 0.00,60.00,Tuesday
7,-14.0
545,19.727358778500935
546,-3.6222175765405664
547,11.18808255531216
548,157.02582686989447
720,3260.7589868215637
721,3260.7589868215637
784,0.0
785,0.0
848,0.0
849,0.0
1121,3843.8249175660285
1135,1555.9567992782809
1161,0.39519559504466895
1163,0.0
1166,1334.991202250389
1168,1334.991202250389
2,2, 1,21, 0,16, 0.00,60.00,Tuesday
7,-14.0
545,19.712772522822757
546,-5.3440457003103985
547,11.162616827994222
548,157.02582686989447
720,3695.6919872716335
721,3695.6919872716335
784,0.0
785,0.0
848,0.0
849,0.0
1121,3843.9375527154725
1135,1555.8412935685546
1161,0.39519559504466895
1163,0.0
1166,1768.194172929621
1168,1768.194172929621
2,2, 1,21, 0,17, 0.00,60.00,Tuesday
7,-14.0
545,19.711518859210553
546,-5.577255668040223
547,11.145369474442646
548,157.02582686989447
720,3229.1385598213365
721,3229.1385598213365
784,0.0
785,0.0
848,0.0
849,0.0
1121,3825.6999885845235
1135,1547.8855415597
1161,6.388913989320726
1163,0.0
1166,1327.676606287962
1168,1327.676606287962
2,2, 1,21, 0,18, 0.00,60.00,Tuesday
7,-14.0
545,19.694746488433232
546,-7.029588284848468
547,11.123604669655212
548,157.02582686989447
720,3811.5996280047875
721,3811.5996280047875
784,0.0
785,0.0
848,0.0
849,0.0
1121,3845.3738538127354
1135,1555.7457345873781
1161,0.08550521579861001
1163,0.0
1166,1991.9318402970441
1168,1991.9318402970441
2,2, 1,21, 0,19, 0.00,60.00,Tuesday
7,-14.0
545,19.696467351718475
546,-7.050983171594013
547,11.093347144889794
548,157.02582686989447
720,3679.3727701044936
721,3679.3727701044936
784,0.0
785,0.0
848,0.0
849,0.0
1121,3826.2151846633797
1135,1547.3570738383298
1161,6.388913989320726
1163,0.0
1166,1941.082793084517
1168,1941.082793084517
2,2, 1,21, 0,20, 0.00,60.00,Tuesday
7,-14.0
545,19.69864156581955
546,-7.956047405007546
547,11.046592103009214
548,157.02582686989447
720,3797.783625895265
721,3797.783625895265
784,0.0
785,0.0
848,0.0
849,0.0
1121,3826.223099575696
1135,1547.3489542398365
1161,6.388913989320726
1163,0.0
1166,2089.0849311118996
1168,2089.0849311118996
2,2, 1,21, 0,21, 0.00,60.00,Tuesday
7,-15.0
545,19.694406855794835
546,-7.563567632805896
547,10.983395246584307
548,157.02582686989447
720,3915.3622418100767
721,3915.3622418100767
784,0.0
785,0.0
848,0.0
849,0.0
1121,3690.059207737318
1135,1526.2747681309606
1161,10.591045635041159
1163,0.0
1166,2406.6994035114485
1168,2406.6994035114485
2,2, 1,21, 0,22, 0.00,60.00,Tuesday
7,-14.0
545,19.697166332928273
546,-7.8330998508456116
547,10.925533404207547
548,157.02582686989447
720,4077.9434536049666
721,4077.9434536049666
784,0.0
785,0.0
848,0.0
849,0.0
1121,3826.4132970224
1135,1547.153830898175
1161,6.388913989320726
1163,0.0
1166,2450.7226099411864
1168,2450.7226099411864
2,2, 1,21, 0,23, 0.00,60.00,Tuesday
7,-14.0
545,18.956328043756248
546,-6.998019669580641
547,10.85224374693105
548,157.02582686989447
720,3224.6227623731393
721,3224.6227623731393
784,0.0
785,0.0
848,0.0
849,0.0
1121,3807.948646065206
1135,1539.6823213855275
1161,12.32612431805001
1163,0.0
1166,1502.280240801963
1168,1502.280240801963
2,2, 1,21, 0,24, 0.00,60.00,Tuesday
7,-14.0
545,18.71053137134629
546,-7.835833664911367
547,10.742376881651518
548,157.02582686989447
720,3819.716349571945
721,3819.716349571945
784,0.0
785,0.0
848,0.0
849,0.0
1121,3846.1390305518157
1135,1526.8430790510836
1161,6.388913989320726
1163,0.0
1166,2039.1526767145485
1168,2039.1526767145485
2,3, 1,22, 0, 1, 0.00,60.00,Wednesday
7,-14.0
545,18.614473708408138
546,-8.022734702996063
547,10.656219125563004
548,157.02582686989447
720,4391.019890942565
721,4391.019890942565
784,0.0
785,0.0
848,0.0
849,0.0
1121,3852.7587179357984
1135,1519.99490820437
1161,6.388913989320726
1163,0.0
1166,2715.1428906486217
1168,2715.1428906486217
2,3, 1,22, 0, 2, 0.00,60.00,Wednesday
7,-13.0
545,18.590325860427075
546,-7.607037908408206
547,10.575881600750629
548,157.02582686989447
720,4600.774985207692
721,4600.774985207692
784,0.0
785,0.0
848,0.0
849,0.0
1121,3998.1424800077484
1135,1538.4515828106944
1161,1.219131357766218
1163,0.0
1166,2832.7115878823506
1168,2832.7115878823506
2,3, 1,22, 0, 3, 0.00,60.00,Wednesday
7,-13.0
545,18.585534392135788
546,-7.533455926779967
547,10.489372943224065
548,157.02582686989447
720,4764.486224209888
721,4764.486224209888
784,0.0
785,0.0
848,0.0
849,0.0
1121,3998.8943265580883
1135,1537.6573979857997
1161,1.219131357766218
1163,0.0
1166,3008.121864843728
1168,3008.121864843728
2,3, 1,22, 0, 4, 0.00,60.00,Wednesday
7,-14.0
545,18.578739244373978
546,-7.381863480252121
547,10.398101423496069
548,157.02582686989447
720,5024.330000812555
721,5024.330000812555
784,0.0
785,0.0
848,0.0
849,0.0
1121,3856.3888866906623
1135,1516.2327661894362
1161,6.388913989320726
1163,0.0
1166,3449.1288539970674
1168,3449.1288539970674
2,3, 1,22, 0, 5, 0.00,60.00,Wednesday
7,-14.0
545,18.58040995606314
546,-7.6146130570795245
547,10.317153974208074
548,157.02582686989447
720,5042.411427136283
721,5042.411427136283
784,0.0
785,0.0
848,0.0
849,0.0
1121,3838.08270119674
1135,1508.5960783246576
1161,12.32612431805001
1163,0.0
1166,3488.1960806028696
1168,3488.1960806028696
2,3, 1,22, 0, 6, 0.00,60.00,Wednesday
7,-14.0
545,19.33373606129273
546,-7.052194494157901
547,10.23694562205894
548,157.02582686989447
720,6122.777438600386
721,6122.777438600386
784,0.0
785,0.0
848,0.0
849,0.0
1121,3856.7702942658107
1135,1515.837220985075
1161,6.388913989320726
1163,0.0
1166,4726.422561755252
1168,4726.422561755252
2,3, 1,22, 0, 7, 0.00,60.00,Wednesday
7,-14.0
545,19.581959615102072
546,-6.745265560793886
547,10.194405543982356
548,157.02582686989447
720,5889.167457571626
721,5889.167457571626
784,0.0
785,0.0
848,0.0
849,0.0
1121,3818.5549655339632
1135,1528.7794113990524
1161,12.32612431805001
1163,0.0
1166,4554.161161382266
1168,4554.161161382266
2,3, 1,22, 0, 8, 0.00,60.00,Wednesday
7,-14.0
545,19.660975546348315
546,-6.437178189465575
547,10.127139507364735
548,157.02582686989447
720,5562.504499738499
721,5562.504499738499
784,0.0
785,0.0
848,0.0
849,0.0
1121,3812.0693641639414
1135,1535.4514623845075
1161,12.32612431805001
1163,0.0
1166,4190.035288112798
1168,4190.035288112798
2,3, 1,22, 0, 9, 0.00,60.00,Wednesday
7,-13.0
545,19.68192727328268
546,-6.182977092044817
547,10.069388379635226
548,157.02582686989447
720,5538.457004404754
721,5538.457004404754
784,0.0
785,0.0
848,0.0
849,0.0
1121,3971.052380066788
1135,1566.948550264731
1161,1.219131357766218
1163,0.0
1166,3993.0359563277357
1168,3993.0359563277357
2,3, 1,22, 0,10, 0.00,60.00,Wednesday
7,-13.0
545,19.68667842384179
546,-5.416401001688893
547,10.001824824867388
548,157.02582686989447
720,5562.930449486503
721,5562.930449486503
784,0.0
785,0.0
848,0.0
849,0.0
1121,3928.6729983951723
1135,1550.882654897654
1161,14.260389956059218
1163,0.0
1166,4054.7728613849554
1168,4054.7728613849554
2,3, 1,22, 0,11, 0.00,60.00,Wednesday
7,-13.0
545,19.69737923569346
546,-3.8160148582750577
547,9.939630998509449
548,157.02582686989447
720,5285.4583063800255
721,5285.4583063800255
784,0.0
785,0.0
848,0.0
849,0.0
1121,3904.5934153065655
1135,1541.4110635100153
1161,21.744324865394237
1163,0.0
1166,3723.8866684976856
1168,3723.8866684976856
2,3, 1,22, 0,12, 0.00,60.00,Wednesday
7,-12.0
545,19.714265180739453
546,-2.3676633128405933
547,9.89135898054684
548,157.02582686989447
720,4760.163820375135
721,4760.163820375135
784,0.0
785,0.0
848,0.0
849,0.0
1121,4021.626738887569
1135,1552.960182623835
1161,24.571327467439374
1163,0.0
1166,2915.4714896279074
1168,2915.4714896279074
2,3, 1,22, 0,13, 0.00,60.00,Wednesday
7,-11.0
545,19.714800231478957
546,-1.9638931681404932
547,9.849942860500876
548,157.02582686989447
720,4646.071818629165
721,4646.071818629165
784,0.0
785,0.0
848,0.0
849,0.0
1121,4139.258230857304
1135,1563.9595223915378
1161,27.684728311516466
1163,0.0
1166,2580.5649875266645
1168,2580.5649875266645
2,3, 1,22, 0,14, 0.00,60.00,Wednesday
7,-10.0
545,19.718660760018768
546,0.16764085319585229
547,9.821183126858667
548,157.02582686989447
720,4241.594374258393
721,4241.594374258393
784,0.0
785,0.0
848,0.0
849,0.0
1121,4257.842817422627
1135,1573.8184894604437
1161,31.106807676601573
1163,0.0
1166,1964.8270633532334
1168,1964.8270633532334
2,3, 1,22, 0,15, 0.00,60.00,Wednesday
7,-9.0
545,19.746035377273568
546,1.9418128659606158
547,9.807927837168533
548,157.02582686989447
720,3249.1276636687544
721,3249.1276636687544
784,0.0
785,0.0
848,0.0
849,0.0
1121,4409.378209493993
1135,1594.9907777627066
1161,25.86670152379479
1163,0.0
1166,552.3079014030945
1168,552.3079014030945
2,3, 1,22, 0,16, 0.00,60.00,Wednesday
7,-9.0
545,19.75495251930096
546,0.3120995169242296
547,9.802107407373065
548,155.50717770193398
720,2804.6055889310755
721,2804.6055889310755
784,0.0
785,0.0
848,0.0
849,0.0
1121,4327.7398524539185
1135,1580.497090062359
1161,36.31390175389861
1163,0.1854886681649015
1166,0.0
1168,0.0
2,3, 1,22, 0,17, 0.00,60.00,Wednesday
7,-8.0
545,19.735598301462204
546,-0.4675945951856391
547,9.808690297258098
548,151.07968416553555
720,2810.7132508542672
721,2810.7132508542672
784,0.0
785,0.0
848,0.0
849,0.0
1121,4342.699663660059
1135,1554.8330196808618
1161,28.28492839698346
1163,6.337707389751701
1166,0.0
1168,0.0
2,3, 1,22, 0,18, 0.00,60.00,Wednesday
7,-9.0
545,19.69818186568333
546,-2.2465832841054656
547,9.820236654343315
548,157.02582686989447
720,3279.3655254827554
721,3279.3655254827554
784,0.0
785,0.0
848,0.0
849,0.0
1121,4370.784524353095
1135,1581.651361800833
1161,36.34761210469999
1163,0.0
1166,589.857930770961
1168,589.857930770961
2,3, 1,22, 0,19, 0.00,60.00,Wednesday
7,-10.0
545,19.697362945105727
546,-4.060888068779011
547,9.811944517783033
548,157.02582686989447
720,3396.4065207638796
721,3396.4065207638796
784,0.0
785,0.0
848,0.0
849,0.0
1121,4258.299598603693
1135,1573.3150692752638
1161,31.106807676601573
1163,0.0
1166,938.6034438446345
1168,938.6034438446345
2,3, 1,22, 0,20, 0.00,60.00,Wednesday
7,-11.0
545,19.698616550671378
546,-5.174366910689853
547,9.795448601144958
548,157.02582686989447
720,3365.6744587657467
721,3365.6744587657467
784,0.0
785,0.0
848,0.0
849,0.0
1121,4105.527222479311
1135,1550.450227099154
1161,37.687957697794296
1163,0.0
1166,1156.6371826369314
1168,1156.6371826369314
2,3, 1,22, 0,21, 0.00,60.00,Wednesday
7,-11.0
545,19.699926751131656
546,-5.702400950078862
547,9.771222264321644
548,157.02582686989447
720,3428.594423020477
721,3428.594423020477
784,0.0
785,0.0
848,0.0
849,0.0
1121,4105.51841546982
1135,1550.459784408149
1161,37.687957697794296
1163,0.0
1166,1296.2689753599093
1168,1296.2689753599093
2,3, 1,22, 0,22, 0.00,60.00,Wednesday
7,-12.0
545,19.694471274183147
546,-6.12792284712308
547,9.72668018043445
548,157.02582686989447
720,3800.7097192878864
721,3800.7097192878864
784,0.0
785,0.0
848,0.0
849,0.0
1121,3964.9420793539903
1135,1530.830294773686
1161,41.70326038263708
1163,0.0
1166,1901.503702883296
1168,1901.503702883296
2,3, 1,22, 0,23, 0.00,60.00,Wednesday
7,-12.0
545,18.954903408826382
546,-6.500158250310001
547,9.682159776914762
548,157.02582686989447
720,3132.748935700167
721,3132.748935700167
784,0.0
785,0.0
848,0.0
849,0.0
1121,3995.2794451553996
1135,1542.2344214723462
1161,32.62551460663889
1163,0.0
1166,1137.9426817765263
1168,1137.9426817765263
2,3, 1,22, 0,24, 0.00,60.00,Wednesday
7,-12.0
545,18.703868301755083
546,-6.255538507045179
547,9.591056702305139
548,157.02582686989447
720,3811.7579191685763
721,3811.7579191685763
784,0.0
785,0.0
848,0.0
849,0.0
1121,3984.427939106202
1135,1509.9855084206877
1161,41.70326038263708
1163,0.0
1166,1885.6438803545257
1168,1885.6438803545257
2,4, 1,23, 0, 1, 0.00,60.00,Thursday
7,-12.0
545,18.62510163252314
546,-6.538549475048646
547,9.526159743969252
548,157.02582686989447
720,4104.919382123018
721,4104.919382123018
784,0.0
785,0.0
848,0.0
849,0.0
1121,4075.4903584673043
1135,1534.7393573274876
1161,16.411247891542306
1163,0.0
1166,2113.280293714994
1168,2113.280293714994
2,4, 1,23, 0, 2, 0.00,60.00,Thursday
7,-12.0
545,18.593866924534318
546,-6.604602688271278
547,9.454029552396563
548,157.02582686989447
720,4441.796862352981
721,4441.796862352981
784,0.0
785,0.0
848,0.0
849,0.0
1121,3993.120385327761
1135,1500.6527781189832
1161,41.70326038263708
1163,0.0
1166,2596.264928833063
1168,2596.264928833063
2,4, 1,23, 0, 3, 0.00,60.00,Thursday
7,-12.0
545,18.587438182818225
546,-6.578685232547019
547,9.381993819008299
548,157.02582686989447
720,4542.2179348899335
721,4542.2179348899335
784,0.0
785,0.0
848,0.0
849,0.0
1121,3994.0154453375344
1135,1499.6906438704955
1161,41.70326038263708
1163,0.0
1166,2721.389656937902
1168,2721.389656937902
2,4, 1,23, 0, 4, 0.00,60.00,Thursday
7,-14.0
545,18.571352321651027
546,-7.2521287882263685
547,9.293931695369688
548,157.02582686989447
720,5189.349629869897
721,5189.349629869897
784,0.0
785,0.0
848,0.0
849,0.0
1121,3817.82313127442
1135,1498.8634273281639
1161,19.182510073511406
1163,0.0
1166,3649.548918499165
1168,3649.548918499165
2,4, 1,23, 0, 5, 0.00,60.00,Thursday
7,-13.0
545,18.573999897407283
546,-7.48051841744722
547,9.232552393371234
548,157.02582686989447
720,5172.466096353899
721,5172.466096353899
784,0.0
785,0.0
848,0.0
849,0.0
1121,3883.8126977941115
1135,1490.0675113672185
1161,37.483768668787874
1163,0.0
1166,3614.1232018968494
1168,3614.1232018968494
2,4, 1,23, 0, 6, 0.00,60.00,Thursday
7,-11.0
545,19.338495868965655
546,-7.172742767175359
547,9.174419932423264
548,157.02582686989447
720,6071.568120972261
721,6071.568120972261
784,0.0
785,0.0
848,0.0
849,0.0
1121,4135.722493974822
1135,1517.5755294565427
1161,37.687957697794296
1163,0.0
1166,4415.557655828568
1168,4415.557655828568
2,4, 1,23, 0, 7, 0.00,60.00,Thursday
7,-12.0
545,19.578233963459812
546,-6.61046265677909
547,9.132035858611381
548,157.02582686989447
720,6106.7321771842035
721,6106.7321771842035
784,0.0
785,0.0
848,0.0
849,0.0
1121,3975.245529855286
1135,1519.8217873006538
1161,41.70326038263708
1163,0.0
1166,4689.934969755378
1168,4689.934969755378
2,4, 1,23, 0, 8, 0.00,60.00,Thursday
7,-12.0
545,19.65952002880179
546,-6.604169578809698
547,9.073384222966032
548,157.02582686989447
720,5806.949941290302
721,5806.949941290302
784,0.0
785,0.0
848,0.0
849,0.0
1121,3969.0744864490543
1135,1526.4188238104166
1161,41.70326038263708
1163,0.0
1166,4351.8827019042255
1168,4351.8827019042255
2,4, 1,23, 0, 9, 0.00,60.00,Thursday
7,-13.0
545,19.690955040352197
546,-6.199558350377472
547,9.007467926752481
548,157.02582686989447
720,5250.241856792074
721,5250.241856792074
784,0.0
785,0.0
848,0.0
849,0.0
1121,3856.0465440745556
1135,1519.2965787103421
1161,37.483768668787874
1163,0.0
1166,3819.4553672468373
1168,3819.4553672468373
2,4, 1,23, 0,10, 0.00,60.00,Thursday
7,-10.0
545,19.702182822264987
546,-4.7070733931496695
547,8.975399563101572
548,157.02582686989447
720,4920.067181547731
721,4920.067181547731
784,0.0
785,0.0
848,0.0
849,0.0
1121,4259.810817402316
1135,1571.6492583038676
1161,31.106807676601573
1163,0.0
1166,3028.015420410606
1168,3028.015420410606
2,4, 1,23, 0,11, 0.00,60.00,Thursday
7,-8.0
545,19.726310666219206
546,-2.3014001979489396
547,8.950203593176862
548,157.02582686989447
720,4150.580661754133
721,4150.580661754133
784,0.0
785,0.0
848,0.0
849,0.0
1121,4491.425131199451