Program Version,EnergyPlus, Version 22.2.0-c249759bad, YMD=2023.09.01 15:36
1,5,Environment Title[],Latitude[deg],Longitude[deg],Time Zone[],Elevation[m]
2,8,Day of Simulation[],Month[],Day of Month[],DST Indicator[1=yes 0=no],Hour[],StartMinute[],EndMinute[],DayType
3,5,Cumulative Day of Simulation[],Month[],Day of Month[],DST Indicator[1=yes 0=no],DayType  ! When Daily Report Variables Requested
4,2,Cumulative Days of Simulation[],Month[]  ! When Monthly Report Variables Requested
5,1,Cumulative Days of Simulation[] ! When Run Period Report Variables Requested
6,1,Calendar Year of Simulation[] ! When Annual Report Variables Requested
581,11,LIVING,AFN Zone Infiltration Air Change Rate [ach] !RunPeriod [Value,Min,Month,Day,Hour,Minute,Max,Month,Day,Hour,Minute]
582,11,ATTIC,AFN Zone Infiltration Air Change Rate [ach] !RunPeriod [Value,Min,Month,Day,Hour,Minute,Max,Month,Day,Hour,Minute]
583,11,CRAWLSPACE,AFN Zone Infiltration Air Change Rate [ach] !RunPeriod [Value,Min,Month,Day,Hour,Minute,Max,Month,Day,Hour,Minute]
1038,11,Facility,Facility Heating Setpoint Not Met Time [hr] !RunPeriod [Value,Min,Month,Day,Hour,Minute,Max,Month,Day,Hour,Minute]
1039,11,Facility,Facility Cooling Setpoint Not Met Time [hr] !RunPeriod [Value,Min,Month,Day,Hour,Minute,Max,Month,Day,Hour,Minute]
1115,11,DX_HEATING_COIL,Heating Coil Heating Energy [J] !RunPeriod [Value,Min,Month,Day,Hour,Minute,Max,Month,Day,Hour,Minute]
1128,11,DX_HEATING_COIL,Heating Coil Electricity Energy [J] !RunPeriod [Value,Min,Month,Day,Hour,Minute,Max,Month,Day,Hour,Minute]
1153,11,DX_HEATING_COIL,Heating Coil Defrost Electricity Energy [J] !RunPeriod [Value,Min,Month,Day,Hour,Minute,Max,Month,Day,Hour,Minute]
1154,11,DX_HEATING_COIL,Heating Coil Crankcase Heater Electricity Energy [J] !RunPeriod [Value,Min,Month,Day,Hour,Minute,Max,Month,Day,Hour,Minute]
1155,11,HEATING_RESISTANCE_BACKUP,Heating Coil Heating Energy [J] !RunPeriod [Value,Min,Month,Day,Hour,Minute,Max,Month,Day,Hour,Minute]
1156,11,HEATING_RESISTANCE_BACKUP,Heating Coil Electricity Energy [J] !RunPeriod [Value,Min,Month,Day,Hour,Minute,Max,Month,Day,Hour,Minute]
1292,11,WATER HEATER,Water Heater Heat Loss Energy [J] !RunPeriod [Value,Min,Month,Day,Hour,Minute,Max,Month,Day,Hour,Minute]
1306,11,WATER HEATER,Water Heater Heating Energy [J] !RunPeriod [Value,Min,Month,Day,Hour,Minute,Max,Month,Day,Hour,Minute]
1307,11,WATER HEATER,Water Heater Unmet Demand Heat Transfer Energy [J] !RunPeriod [Value,Min,Month,Day,Hour,Minute,Max,Month,Day,Hour,Minute]
1308,11,WATER HEATER,Water Heater Electricity Energy [J] !RunPeriod [Value,Min,Month,Day,Hour,Minute,Max,Month,Day,Hour,Minute]
13,11,Electricity:Facility [J] !RunPeriod [Value,Min,Month,Day,Hour,Minute,Max,Month,Day,Hour,Minute]
1134,11,Heating:Electricity [J] !RunPeriod [Value,Min,Month,Day,Hour,Minute,Max,Month,Day,Hour,Minute]
1096,11,Cooling:Electricity [J] !RunPeriod [Value,Min,Month,Day,Hour,Minute,Max,Month,Day,Hour,Minute]
562,11,Fans:Electricity [J] !RunPeriod [Value,Min,Month,Day,Hour,Minute,Max,Month,Day,Hour,Minute]
1379,11,Pumps:Electricity [J] !RunPeriod [Value,Min,Month,Day,Hour,Minute,Max,Month,Day,Hour,Minute]
1326,11,WaterSystems:Electricity [J] !RunPeriod [Value,Min,Month,Day,Hour,Minute,Max,Month,Day,Hour,Minute]
61,11,InteriorLights:Electricity [J] !RunPeriod [Value,Min,Month,Day,Hour,Minute,Max,Month,Day,Hour,Minute]
1046,11,ExteriorLights:Electricity [J] !RunPeriod [Value,Min,Month,Day,Hour,Minute,Max,Month,Day,Hour,Minute]
134,11,InteriorEquipment:Electricity [J] !RunPeriod [Value,Min,Month,Day,Hour,Minute,Max,Month,Day,Hour,Minute]
170,11,gas_dryer:InteriorEquipment:Electricity [J] !RunPeriod [Value,Min,Month,Day,Hour,Minute,Max,Month,Day,Hour,Minute]
207,11,clotheswasher:InteriorEquipment:Electricity [J] !RunPeriod [Value,Min,Month,Day,Hour,Minute,Max,Month,Day,Hour,Minute]
244,11,dishwasher:InteriorEquipment:Electricity [J] !RunPeriod [Value,Min,Month,Day,Hour,Minute,Max,Month,Day,Hour,Minute]
281,11,refrigerator:InteriorEquipment:Electricity [J] !RunPeriod [Value,Min,Month,Day,Hour,Minute,Max,Month,Day,Hour,Minute]
318,11,electric_mels:InteriorEquipment:Electricity [J] !RunPeriod [Value,Min,Month,Day,Hour,Minute,Max,Month,Day,Hour,Minute]
355,11,NaturalGas:Facility [J] !RunPeriod [Value,Min,Month,Day,Hour,Minute,Max,Month,Day,Hour,Minute]
403,11,InteriorEquipment:NaturalGas [J] !RunPeriod [Value,Min,Month,Day,Hour,Minute,Max,Month,Day,Hour,Minute]
476,11,gas_dryer:InteriorEquipment:NaturalGas [J] !RunPeriod [Value,Min,Month,Day,Hour,Minute,Max,Month,Day,Hour,Minute]
513,11,gas_mels:InteriorEquipment:NaturalGas [J] !RunPeriod [Value,Min,Month,Day,Hour,Minute,Max,Month,Day,Hour,Minute]
End of Data Dictionary
1,EXTREME_WINTER,  25.79, -80.32,  -5.00,   8.80
5,7
1038,0.0,0.0, 1,15, 1,15,0.0, 1,15, 1,15
1039,0.0,0.0, 1,15, 1,15,0.0, 1,15, 1,15
581,0.22529617751981212,0.023061322966402065, 1,15,20, 7,0.4356164872928186, 1,17,14,60
582,4.0150222265036195,0.06707555706864758, 1,15,19,52,8.332457003146086, 1,16,12,60
583,0.01452702702070753,0.0006532299664737019, 1,19,10,18,0.06765840368822203, 1,15, 6, 3
1115,506989.90355155023,0.0, 1,15, 1,15,148661.42825083507, 1,18, 7,60
1128,135053.0462991877,0.0, 1,15, 1,15,39542.92735000924, 1,18, 7,60
1153,0.0,0.0, 1,15, 1,15,0.0, 1,15, 1,15
1154,0.0,0.0, 1,15, 1,15,0.0, 1,15, 1,15
1155,0.0,0.0, 1,15, 1,15,0.0, 1,15, 1,15
1156,0.0,0.0, 1,15, 1,15,0.0, 1,15, 1,15
1292,-22623095.63712636,-38079.25866691771, 1,18, 8,45,-4127.992398028576, 1,19,11,15
1306,158165781.394629,0.0, 1,15, 1,15,5155882.504260472, 1,17, 7,60
1307,239037.34164064797,0.0, 1,15, 1,15,80159.50766824644, 1,21,19,60
1308,158165781.394629,0.0, 1,15, 1,15,5155882.504260472, 1,17, 7,60
13,681595200.049179,151703.1275401932, 1,15, 4,60,12367340.778592482, 1,21,19,60
61,301924526.02383536,88139.10953165221, 1,15, 1,15,1282023.4113694867, 1,15,20,15
134,70666020.44019976,63564.01800854099, 1,15, 4,15,156554.22484006523, 1,20,20,15
170,5241013.419656067,348.4159749238097, 1,15, 4,15,17476.39704006126, 1,20,12,15
207,6509451.13922267,815.2532113832032, 1,15, 3,15,22990.642799023623, 1,20,10,15
244,12749673.399825225,1521.856143006317, 1,15, 4,15,53038.631142310165, 1,20,20,15
281,46165882.481495745,59938.60262432081, 1,15, 5,15,81951.81706819107, 1,15,19,15
318,0.0,0.0, 1,15, 1,15,0.0, 1,15, 1,15
355,197687796.27748066,18561.32405820678, 1,15, 4,15,724774.895203776, 1,20,18,15
403,197687796.27748066,18561.32405820678, 1,15, 4,15,724774.895203776, 1,20,18,15
476,106772067.24485716,7098.072629279515, 1,15, 4,15,356036.3026282215, 1,20,12,15
513,0.0,0.0, 1,15, 1,15,0.0, 1,15, 1,15
562,16761751.340101872,0.0, 1,15, 4,60,115737.84805298838, 1,21,17,15
1046,0.0,0.0, 1,15, 1,15,0.0, 1,15, 1,15
1096,133942067.80411366,0.0, 1,15, 4,60,990628.9329537922, 1,21,17,15
1134,135053.04629918767,0.0, 1,15, 1,15,39542.92735000924, 1,18, 7,60
1326,158165781.39462903,0.0, 1,15, 1,15,10485478.465423234, 1,21,19,60
1379,0.0,0.0, 1,15, 1,15,0.0, 1,15, 1,15
1,EXTREME_SUMMER,  25.79, -80.32,  -5.00,   8.80
5,7
1038,0.0,0.0, 7,23, 1,15,0.0, 7,23, 1,15
1039,69.25,0.0, 7,23, 1,15,0.25, 7,23,12,45
581,0.14383943458669587,0.0, 7,23, 3,15,0.3563990471184179, 7,27,11,60
582,5.3953016294124,0.09284832100115421, 7,26, 8,42,12.768383698808956, 7,29,13,50
583,0.04945768084326708,0.0005082324385068537, 7,26,23, 3,0.06891585443319803, 7,28,18,50
1115,0.0,0.0, 7,23, 1, 7,0.0, 7,23, 1, 7
1128,0.0,0.0, 7,23, 1, 7,0.0, 7,23, 1, 7
1153,0.0,0.0, 7,23, 1, 7,0.0, 7,23, 1, 7
1154,0.0,0.0, 7,23, 1, 7,0.0, 7,23, 1, 7
1155,0.0,0.0, 7,23, 1, 7,0.0, 7,23, 1, 7
1156,0.0,0.0, 7,23, 1, 7,0.0, 7,23, 1, 7
1292,-21661993.18061797,-34229.90133108461, 7,27, 7,15,-4127.479823967105, 7,25,10,60
1306,123716019.50747947,0.0, 7,23, 1, 7,2934896.346558187, 7,29,19,60
1307,0.0,0.0, 7,23, 1, 7,0.0, 7,23, 1, 7
1308,123716019.50747947,0.0, 7,23, 1, 7,2934896.346558187, 7,29,19,60
13,1227632400.5950506,447416.6933043262, 7,23, 4,60,10827790.43939173, 7,29,19,60
61,301924526.02383536,88139.10953165221, 7,23, 1,15,1282023.4113694867, 7,23,20,15
134,70666020.44019976,63564.01800854099, 7,23, 4,15,156554.22484006523, 7,28,20,15
170,5241013.419656067,348.4159749238097, 7,23, 4,15,17476.39704006126, 7,28,12,15
207,6509451.13922267,815.2532113832032, 7,23, 3,15,22990.642799023623, 7,28,10,15
244,12749673.399825225,1521.856143006317, 7,23, 4,15,53038.631142310165, 7,28,20,15
281,46165882.481495745,59938.60262432081, 7,23, 5,15,81951.81706819107, 7,23,19,15
318,0.0,0.0, 7,23, 1,15,0.0, 7,23, 1,15
355,197687796.27748066,18561.32405820678, 7,23, 4,15,724774.895203776, 7,28,18,15
403,197687796.27748066,18561.32405820678, 7,23, 4,15,724774.895203776, 7,28,18,15
476,106772067.24485716,7098.072629279515, 7,23, 4,15,356036.3026282215, 7,28,12,15
513,0.0,0.0, 7,23, 1,15,0.0, 7,23, 1,15
562,66177947.84362409,28513.0736572586, 7,23, 4,60,130981.86857215842, 7,23,11,30
1046,0.0,0.0, 7,23, 1,15,0.0, 7,23, 1,15
1096,665147886.7799131,267200.4921068744, 7,23, 4,60,1390163.4332605365, 7,23,17,60
1134,0.0,0.0, 7,23, 1,15,0.0, 7,23, 1,15
1326,123716019.50747947,0.0, 7,23, 1,15,8077397.743947166, 7,29,19,60
1379,0.0,0.0, 7,23, 1,15,0.0, 7,23, 1,15
1,ANNUAL,  25.79, -80.32,  -5.00,   8.80
5,365
1038,0.0,0.0, 1, 1, 1,15,0.0, 1, 1, 1,15
1039,1606.75,0.0, 1, 1, 1,15,0.25, 1, 6,15,45
581,0.15384132626121708,0.0, 2, 7,23, 3,0.8488085232010698, 5,26,15,47
582,4.1889977377493945,0.0, 1,25,20, 9,22.645445392461713, 5,26,15,46
583,0.03988535001881283,0.0, 2, 7,23, 3,0.08279937818750474, 6,24,19,52
1115,5725030.69418245,0.0, 1, 1, 1,15,877373.8014380147, 1,24, 6, 7
1128,1601988.7112167422,0.0, 1, 1, 1,15,238809.3689158867, 1,24, 6, 7
1153,0.0,0.0, 1, 1, 1,15,0.0, 1, 1, 1,15
1154,14567124.889530482,0.0, 1, 1, 1,15,180000.0, 1,24, 1,30
1155,0.0,0.0, 1, 1, 1,15,0.0, 1, 1, 1,15
1156,0.0,0.0, 1, 1, 1,15,0.0, 1, 1, 1,15
1292,-1141929710.689902,-38082.10731292279, 1,24, 8,15,-2304.1623091997985, 6,16,16, 1
1306,7409195698.516842,0.0, 1, 1, 1,15,10424693.299364882,12,31,19,60
1307,1829254.9074888325,0.0, 1, 1, 1,15,187103.2728382769,12,31,19,60
1308,7409195698.516842,0.0, 1, 1, 1,15,10424693.299364882,12,31,19,60
13,54073988441.84082,151703.1275401932, 1, 3, 4,45,13024479.06901442,10,22,19,60
61,15743207428.383959,88139.10953165221, 1, 1, 1,15,1282023.4113694867, 1, 1,20,15
134,3685071073.4325233,63564.01800854099, 1, 2, 4,15,156554.22484006523, 1, 1,20,15
170,273393721.45532674,348.4159749238097, 1, 2, 4,15,17476.39704006126, 1, 1,12,15
207,339560869.0695816,815.2532113832032, 1, 2, 3,15,22990.642799023623, 1, 1,10,15
244,664895467.8009144,1521.856143006317, 1, 2, 4,15,53038.631142310165, 1, 1,20,15
281,2407221015.106824,59938.60262432081, 1, 1, 5,15,81951.81706819107, 1, 1,19,15
318,0.0,0.0, 1, 1, 1,15,0.0, 1, 1, 1,15
355,10310294493.051695,18561.32405820678, 1, 2, 4,15,724774.895203776, 1, 1,18,15
403,10310294493.051695,18561.32405820678, 1, 2, 4,15,724774.895203776, 1, 1,18,15
476,5569688622.066177,7098.072629279515, 1, 2, 4,15,356036.3026282215, 1, 1,12,15
513,0.0,0.0, 1, 1, 1,15,0.0, 1, 1, 1,15
562,2647042029.9520273,0.0, 1, 1, 4,60,130981.86857215848, 5,26,15,30
1046,0.0,0.0, 1, 1, 1,15,0.0, 1, 1, 1,15
1096,24573303097.953815,0.0, 1, 1, 4,60,1423318.7603688673, 8,21,14,60
1134,16169113.600747222,0.0, 1, 1, 1,15,389737.0479489584, 1,24, 6,15
1326,7409195698.516835,0.0, 1, 1, 1,15,10488515.937465563, 1,15,19,60
1379,0.0,0.0, 1, 1, 1,15,0.0, 1, 1, 1,15
End of Data
 Number of Records Written=          99
