Program Version,EnergyPlus, Version 22.2.0-c249759bad, YMD=2023.09.01 15:45
1,5,Environment Title[],Latitude[deg],Longitude[deg],Time Zone[],Elevation[m]
2,8,Day of Simulation[],Month[],Day of Month[],DST Indicator[1=yes 0=no],Hour[],StartMinute[],EndMinute[],DayType
3,5,Cumulative Day of Simulation[],Month[],Day of Month[],DST Indicator[1=yes 0=no],DayType  ! When Daily Report Variables Requested
4,2,Cumulative Days of Simulation[],Month[]  ! When Monthly Report Variables Requested
5,1,Cumulative Days of Simulation[] ! When Run Period Report Variables Requested
6,1,Calendar Year of Simulation[] ! When Annual Report Variables Requested
581,11,LIVING,AFN Zone Infiltration Air Change Rate [ach] !RunPeriod [Value,Min,Month,Day,Hour,Minute,Max,Month,Day,Hour,Minute]
582,11,ATTIC,AFN Zone Infiltration Air Change Rate [ach] !RunPeriod [Value,Min,Month,Day,Hour,Minute,Max,Month,Day,Hour,Minute]
583,11,CRAWLSPACE,AFN Zone Infiltration Air Change Rate [ach] !RunPeriod [Value,Min,Month,Day,Hour,Minute,Max,Month,Day,Hour,Minute]
1038,11,Facility,Facility Heating Setpoint Not Met Time [hr] !RunPeriod [Value,Min,Month,Day,Hour,Minute,Max,Month,Day,Hour,Minute]
1039,11,Facility,Facility Cooling Setpoint Not Met Time [hr] !RunPeriod [Value,Min,Month,Day,Hour,Minute,Max,Month,Day,Hour,Minute]
1115,11,DX_HEATING_COIL,Heating Coil Heating Energy [J] !RunPeriod [Value,Min,Month,Day,Hour,Minute,Max,Month,Day,Hour,Minute]
1128,11,DX_HEATING_COIL,Heating Coil Electricity Energy [J] !RunPeriod [Value,Min,Month,Day,Hour,Minute,Max,Month,Day,Hour,Minute]
1153,11,DX_HEATING_COIL,Heating Coil Defrost Electricity Energy [J] !RunPeriod [Value,Min,Month,Day,Hour,Minute,Max,Month,Day,Hour,Minute]
1154,11,DX_HEATING_COIL,Heating Coil Crankcase Heater Electricity Energy [J] !RunPeriod [Value,Min,Month,Day,Hour,Minute,Max,Month,Day,Hour,Minute]
1155,11,HEATING_RESISTANCE_BACKUP,Heating Coil Heating Energy [J] !RunPeriod [Value,Min,Month,Day,Hour,Minute,Max,Month,Day,Hour,Minute]
1156,11,HEATING_RESISTANCE_BACKUP,Heating Coil Electricity Energy [J] !RunPeriod [Value,Min,Month,Day,Hour,Minute,Max,Month,Day,Hour,Minute]
1292,11,WATER HEATER,Water Heater Heat Loss Energy [J] !RunPeriod [Value,Min,Month,Day,Hour,Minute,Max,Month,Day,Hour,Minute]
1306,11,WATER HEATER,Water Heater Heating Energy [J] !RunPeriod [Value,Min,Month,Day,Hour,Minute,Max,Month,Day,Hour,Minute]
1307,11,WATER HEATER,Water Heater Unmet Demand Heat Transfer Energy [J] !RunPeriod [Value,Min,Month,Day,Hour,Minute,Max,Month,Day,Hour,Minute]
1308,11,WATER HEATER,Water Heater Electricity Energy [J] !RunPeriod [Value,Min,Month,Day,Hour,Minute,Max,Month,Day,Hour,Minute]
13,11,Electricity:Facility [J] !RunPeriod [Value,Min,Month,Day,Hour,Minute,Max,Month,Day,Hour,Minute]
1134,11,Heating:Electricity [J] !RunPeriod [Value,Min,Month,Day,Hour,Minute,Max,Month,Day,Hour,Minute]
1096,11,Cooling:Electricity [J] !RunPeriod [Value,Min,Month,Day,Hour,Minute,Max,Month,Day,Hour,Minute]
562,11,Fans:Electricity [J] !RunPeriod [Value,Min,Month,Day,Hour,Minute,Max,Month,Day,Hour,Minute]
1379,11,Pumps:Electricity [J] !RunPeriod [Value,Min,Month,Day,Hour,Minute,Max,Month,Day,Hour,Minute]
1326,11,WaterSystems:Electricity [J] !RunPeriod [Value,Min,Month,Day,Hour,Minute,Max,Month,Day,Hour,Minute]
61,11,InteriorLights:Electricity [J] !RunPeriod [Value,Min,Month,Day,Hour,Minute,Max,Month,Day,Hour,Minute]
1046,11,ExteriorLights:Electricity [J] !RunPeriod [Value,Min,Month,Day,Hour,Minute,Max,Month,Day,Hour,Minute]
134,11,InteriorEquipment:Electricity [J] !RunPeriod [Value,Min,Month,Day,Hour,Minute,Max,Month,Day,Hour,Minute]
170,11,gas_dryer:InteriorEquipment:Electricity [J] !RunPeriod [Value,Min,Month,Day,Hour,Minute,Max,Month,Day,Hour,Minute]
207,11,clotheswasher:InteriorEquipment:Electricity [J] !RunPeriod [Value,Min,Month,Day,Hour,Minute,Max,Month,Day,Hour,Minute]
244,11,dishwasher:InteriorEquipment:Electricity [J] !RunPeriod [Value,Min,Month,Day,Hour,Minute,Max,Month,Day,Hour,Minute]
281,11,refrigerator:InteriorEquipment:Electricity [J] !RunPeriod [Value,Min,Month,Day,Hour,Minute,Max,Month,Day,Hour,Minute]
318,11,electric_mels:InteriorEquipment:Electricity [J] !RunPeriod [Value,Min,Month,Day,Hour,Minute,Max,Month,Day,Hour,Minute]
355,11,NaturalGas:Facility [J] !RunPeriod [Value,Min,Month,Day,Hour,Minute,Max,Month,Day,Hour,Minute]
403,11,InteriorEquipment:NaturalGas [J] !RunPeriod [Value,Min,Month,Day,Hour,Minute,Max,Month,Day,Hour,Minute]
476,11,gas_dryer:InteriorEquipment:NaturalGas [J] !RunPeriod [Value,Min,Month,Day,Hour,Minute,Max,Month,Day,Hour,Minute]
513,11,gas_mels:InteriorEquipment:NaturalGas [J] !RunPeriod [Value,Min,Month,Day,Hour,Minute,Max,Month,Day,Hour,Minute]
End of Data Dictionary
1,EXTREME_WINTER,  32.32, -90.08,  -6.00,  91.10
5,7
1038,0.25,0.0,12, 8, 1,15,0.25,12,10, 6,15
1039,0.25,0.0,12, 8, 1,15,0.25,12,12,14,45
581,0.22273960776507765,0.10959947314053974,12,13, 3,60,0.3789396943953378,12,10, 6,10
582,1.795890803838668,0.0,12, 8, 1,15,5.254709318999143,12,10,13,60
583,0.01376245756226671,0.00017228742592108692,12,12,12,46,0.07494496166741528,12, 8, 6,45
1115,404506971.007482,0.0,12, 8, 1,15,3963890.83929405,12,12, 6,30
1128,129155557.81478286,0.0,12, 8, 1,15,1257373.2878613295,12, 9, 6,45
1153,8085373.918340037,0.0,12, 8, 1,15,84553.09710411224,12,12, 6,30
1154,53529889.2722407,0.0,12, 8, 6, 5,180000.0,12, 8, 1,15
1155,5738979.309446032,0.0,12, 8, 1,15,901145.513216112,12, 8, 6, 5
1156,5738979.309446032,0.0,12, 8, 1,15,901145.513216112,12, 8, 6, 5
1292,-24128999.91954708,-39731.487635726386,12,12, 3,30,-3359.3324131930385,12, 9,10,45
1306,195040651.66947165,0.0,12, 8, 1,15,9673286.652222518,12,14,19,60
1307,2794063.8179427227,0.0,12, 8, 1,15,2794063.8179427227,12,14,19,60
1308,195040651.66947165,0.0,12, 8, 1,15,9673286.652222518,12,14,19,60
13,796411172.6429453,152071.80019841267,12,13, 4,15,11181912.386330137,12,14,19,60
61,301924526.02383536,88139.10953165221,12, 8, 1,15,1282023.4113694867,12, 8,20,15
134,70666020.44019976,63564.01800854099,12, 8, 4,15,156554.22484006523,12,13,20,15
170,5241013.419656067,348.4159749238097,12, 8, 4,15,17476.39704006126,12,13,12,15
207,6509451.13922267,815.2532113832032,12, 8, 3,15,22990.642799023623,12,13,10,15
244,12749673.399825225,1521.856143006317,12, 8, 4,15,53038.631142310165,12,13,20,15
281,46165882.481495745,59938.60262432081,12, 8, 5,15,81951.81706819107,12, 8,19,15
318,0.0,0.0,12, 8, 1,15,0.0,12, 8, 1,15
355,197687796.27748066,18561.32405820678,12, 8, 4,15,724774.895203776,12,13,18,15
403,197687796.27748066,18561.32405820678,12, 8, 4,15,724774.895203776,12,13,18,15
476,106772067.24485716,7098.072629279515,12, 8, 4,15,356036.3026282215,12,13,12,15
513,0.0,0.0,12, 8, 1,15,0.0,12, 8, 1,15
562,16285043.439068854,0.0,12, 8, 1,15,139255.78243251468,12, 8, 6,45
1046,0.0,0.0,12, 8, 1,15,0.0,12, 8, 1,15
1096,15985130.755561043,0.0,12, 8, 1,15,388165.88733151846,12,14,17,15
1134,196509800.31480965,0.0,12, 8,14,60,2455159.986569617,12,12, 6,15
1326,195040651.66947168,0.0,12, 8, 1,15,9673286.652222518,12,14,19,60
1379,0.0,0.0,12, 8, 1,15,0.0,12, 8, 1,15
1,EXTREME_SUMMER,  32.32, -90.08,  -6.00,  91.10
5,7
1038,0.0,0.0, 6,29, 1,15,0.0, 6,29, 1,15
1039,50.5,0.0, 6,29, 1,15,0.25, 6,29,15,30
581,0.07427784793741272,0.0, 6,29, 6, 7,0.5096025990575608, 6,30,18,48
582,2.198289467091789,0.0, 7, 3,20,47,10.277150667511023, 6,30,18,48
583,0.043342130844710655,0.0, 7, 1,23, 3,0.07385716592838555, 7, 5,17,46
1115,0.0,0.0, 6,29, 1, 7,0.0, 6,29, 1, 7
1128,0.0,0.0, 6,29, 1, 7,0.0, 6,29, 1, 7
1153,0.0,0.0, 6,29, 1, 7,0.0, 6,29, 1, 7
1154,0.0,0.0, 6,29, 1, 7,0.0, 6,29, 1, 7
1155,0.0,0.0, 6,29, 1, 7,0.0, 6,29, 1, 7
1156,0.0,0.0, 6,29, 1, 7,0.0, 6,29, 1, 7
1292,-21699338.090129163,-34343.81010873995, 6,30,15,15,-2737.2479062716466, 7, 5,17,46
1306,145459414.85356346,0.0, 6,29, 1, 7,3642144.1624132134, 7, 1,16,45
1307,0.0,0.0, 6,29, 1, 7,0.0, 6,29, 1, 7
1308,145459414.85356346,0.0, 6,29, 1, 7,3642144.1624132134, 7, 1,16,45
13,1153475795.9166558,191180.71722357714, 6,29, 4,60,12180869.390261319, 7, 5,19,60
61,301924526.02383536,88139.10953165221, 6,29, 1,15,1282023.4113694867, 6,29,20,15
134,70666020.44019976,63564.01800854099, 6,29, 4,15,156554.22484006523, 7, 4,20,15
170,5241013.419656067,348.4159749238097, 6,29, 4,15,17476.39704006126, 7, 4,12,15
207,6509451.13922267,815.2532113832032, 6,29, 3,15,22990.642799023623, 7, 4,10,15
244,12749673.399825225,1521.856143006317, 6,29, 4,15,53038.631142310165, 7, 4,20,15
281,46165882.481495745,59938.60262432081, 6,29, 5,15,81951.81706819107, 6,29,19,15
318,0.0,0.0, 6,29, 1,15,0.0, 6,29, 1,15
355,197687796.27748066,18561.32405820678, 6,29, 4,15,724774.895203776, 7, 4,18,15
403,197687796.27748066,18561.32405820678, 6,29, 4,15,724774.895203776, 7, 4,18,15
476,106772067.24485716,7098.072629279515, 6,29, 4,15,356036.3026282215, 7, 4,12,15
513,0.0,0.0, 6,29, 1,15,0.0, 6,29, 1,15
562,58388717.428324826,0.0, 6,29, 6,30,139255.7824325147, 6,29,18,15
1046,0.0,0.0, 6,29, 1,15,0.0, 6,29, 1,15
1096,577037117.170732,0.0, 6,29, 6,30,1571064.1178076505, 7, 5,16,60
1134,0.0,0.0, 6,29, 1,15,0.0, 6,29, 1,15
1326,145459414.85356343,0.0, 6,29, 1,15,9436106.130911257, 7, 5,19,60
1379,0.0,0.0, 6,29, 1,15,0.0, 6,29, 1,15
1,ANNUAL,  32.32, -90.08,  -6.00,  91.10
5,365
1038,2.75,0.0, 1, 1, 1,15,0.25, 1, 4, 6,15
1039,894.0,0.0, 1, 1, 1,15,0.25, 1,18,16,30
581,0.1711039163838289,0.0, 4, 1, 2,22,0.9099679172600539, 8, 9,14,48
582,2.751936251875044,0.0, 1, 2, 8,60,24.66988251664177, 8, 9,14,46
583,0.028056218175426476,0.0, 5,10,23, 3,0.08475252099913029, 9, 1,16,50
1115,4604076483.755774,0.0, 1, 1,16,15,4393039.247255808, 1,23, 5,60
1128,1409083283.3454304,0.0, 1, 1,16,15,1350302.2577847093, 2,27, 6,45
1153,70675731.91280255,0.0, 1, 1, 1,15,85215.67311109926,12,29, 6,45
1154,1000727061.9958367,0.0, 1, 1, 6, 5,180000.0, 1, 1,16,15
1155,64425518.3501469,0.0, 1, 1, 1,15,1539006.872537213, 1,24, 6,45
1156,64425518.3501469,0.0, 1, 1, 1,15,1539006.872537213, 1,24, 6,45
1292,-1180996205.5740511,-39775.69991542747,12, 1, 4,30,-2192.2235747020923, 7,20,14,31
1306,9104466919.078531,0.0, 1, 1, 1,15,10442012.799997034,12, 3,19,60
1307,80121965.0116543,0.0, 1, 1, 1,15,3488754.5299352705, 1,22,19,60
1308,9104466919.078531,0.0, 1, 1, 1,15,10442012.799997034,12, 3,19,60
13,48060722437.87977,151703.1275401932, 1, 9, 4,15,13330388.785603657, 8, 6,19,60
61,15743207428.383959,88139.10953165221, 1, 1, 1,15,1282023.4113694867, 1, 1,20,15
134,3685071073.4325233,63564.01800854099, 1, 2, 4,15,156554.22484006523, 1, 1,20,15
170,273393721.45532674,348.4159749238097, 1, 2, 4,15,17476.39704006126, 1, 1,12,15
207,339560869.0695816,815.2532113832032, 1, 2, 3,15,22990.642799023623, 1, 1,10,15
244,664895467.8009144,1521.856143006317, 1, 2, 4,15,53038.631142310165, 1, 1,20,15
281,2407221015.106824,59938.60262432081, 1, 1, 5,15,81951.81706819107, 1, 1,19,15
318,0.0,0.0, 1, 1, 1,15,0.0, 1, 1, 1,15
355,10310294493.051695,18561.32405820678, 1, 2, 4,15,724774.895203776, 1, 1,18,15
403,10310294493.051695,18561.32405820678, 1, 2, 4,15,724774.895203776, 1, 1,18,15
476,5569688622.066177,7098.072629279515, 1, 2, 4,15,356036.3026282215, 1, 1,12,15
513,0.0,0.0, 1, 1, 1,15,0.0, 1, 1, 1,15
562,1831399732.2084432,0.0, 1, 1,16,15,139255.78243251474, 7,20,14,45
1046,0.0,0.0, 1, 1, 1,15,0.0, 1, 1, 1,15
1096,15151665689.170412,0.0, 1, 1, 1,15,1573593.2501750975, 7, 5,16,60
1134,2544911595.604216,0.0, 1, 3,13,30,3560396.8979955865, 1,24, 6,15
1326,9104466919.078543,0.0, 1, 1, 1,15,10540800.0,10, 1,19,60
1379,0.0,0.0, 1, 1, 1,15,0.0, 1, 1, 1,15
End of Data
 Number of Records Written=          99
