Program Version,EnergyPlus, Version 22.2.0-c249759bad, YMD=2023.09.01 14:30
1,5,Environment Title[],Latitude[deg],Longitude[deg],Time Zone[],Elevation[m]
2,8,Day of Simulation[],Month[],Day of Month[],DST Indicator[1=yes 0=no],Hour[],StartMinute[],EndMinute[],DayType
3,5,Cumulative Day of Simulation[],Month[],Day of Month[],DST Indicator[1=yes 0=no],DayType  ! When Daily Report Variables Requested
4,2,Cumulative Days of Simulation[],Month[]  ! When Monthly Report Variables Requested
5,1,Cumulative Days of Simulation[] ! When Run Period Report Variables Requested
6,1,Calendar Year of Simulation[] ! When Annual Report Variables Requested
7,1,Environment,Site Outdoor Air Drybulb Temperature [C] !Hourly
619,1,DX_HEATING_COIL,Heating Coil Heating Rate [W] !Hourly
633,1,DX_HEATING_COIL,Heating Coil Electricity Rate [W] !Hourly
659,1,DX_HEATING_COIL,Heating Coil Defrost Electricity Rate [W] !Hourly
661,1,DX_HEATING_COIL,Heating Coil Crankcase Heater Electricity Rate [W] !Hourly
690,1,FAN,Fan Electricity Rate [W] !Hourly
716,1,HEAT PUMP WATER HEATER FAN,Fan Electricity Rate [W] !Hourly
718,1,LIVING,Zone Mean Air Temperature [C] !Hourly
719,1,ATTIC,Zone Mean Air Temperature [C] !Hourly
720,1,CRAWLSPACE,Zone Mean Air Temperature [C] !Hourly
843,1,LIVING,Zone Predicted Sensible Load to Heating Setpoint Heat Transfer Rate [W] !Hourly
844,1,LIVING,Zone System Predicted Sensible Load to Heating Setpoint Heat Transfer Rate [W] !Hourly
907,1,ATTIC,Zone Predicted Sensible Load to Heating Setpoint Heat Transfer Rate [W] !Hourly
908,1,ATTIC,Zone System Predicted Sensible Load to Heating Setpoint Heat Transfer Rate [W] !Hourly
971,1,CRAWLSPACE,Zone Predicted Sensible Load to Heating Setpoint Heat Transfer Rate [W] !Hourly
972,1,CRAWLSPACE,Zone System Predicted Sensible Load to Heating Setpoint Heat Transfer Rate [W] !Hourly
1195,1,HEATING_RESISTANCE_BACKUP,Heating Coil Heating Rate [W] !Hourly
1197,1,HEATING_RESISTANCE_BACKUP,Heating Coil Electricity Rate [W] !Hourly
End of Data Dictionary
1,EXTREME_WINTER,  39.67, -75.60,  -5.00,  23.00
2,1, 1, 8, 0, 1, 0.00,60.00,Monday
7,-11.7
718,18.632729854398622
719,-7.478732471956566
720,18.40978827394
619,3584.9652480424115
633,1356.0974145708497
659,0.07373598051538661
661,0.0
690,146.34177967637103
716,0.0
843,5737.133989705653
844,5737.133989705653
907,0.0
908,0.0
971,0.0
972,0.0
1195,4245.085423625828
1197,4245.085423625828
2,1, 1, 8, 0, 2, 0.00,60.00,Monday
7,-12.2
718,18.61294176132829
719,-7.43398920574901
720,17.989369675365705
619,3530.525261278228
633,1347.9190601791497
659,0.07373598051538661
661,0.0
690,146.34177967637103
716,0.0
843,4658.628517051706
844,4658.628517051706
907,0.0
908,0.0
971,0.0
972,0.0
1195,3212.1530109714313
1197,3212.1530109714313
2,1, 1, 8, 0, 3, 0.00,60.00,Monday
7,-12.8
718,18.609655946397815
719,-8.02077734949829
720,17.78302156487375
619,3464.6945791814946
633,1339.3118532658257
659,0.07373598051538661
661,0.0
690,146.34177967637103
716,0.0
843,4516.833778649971
844,4516.833778649971
907,0.0
908,0.0
971,0.0
972,0.0
1195,3124.4648880632153
1197,3124.4648880632153
2,1, 1, 8, 0, 4, 0.00,60.00,Monday
7,-12.8
718,18.604400144395356
719,-7.50105746378645
720,17.544879634524804
619,3464.995395535355
633,1338.9938642547409
659,0.07373598051538661
661,0.0
690,146.34177967637103
716,0.0
843,4448.2929456510265
844,4448.2929456510265
907,0.0
908,0.0
971,0.0
972,0.0
1195,3066.6736416764716
1197,3066.6736416764716
2,1, 1, 8, 0, 5, 0.00,60.00,Monday
7,-12.8
718,18.606017334720985
719,-8.13295135512204
720,17.326062972830286
619,3465.386406290057
633,1338.5804840364988
659,0.07373598051538661
661,0.0
690,146.34177967637103
716,0.0
843,4569.197817477425
844,4569.197817477425
907,0.0
908,0.0
971,0.0
972,0.0
1195,3199.829830315745
1197,3199.829830315745
2,1, 1, 8, 0, 6, 0.00,60.00,Monday
7,-12.8
718,19.37690916711248
719,-8.124047420993309
720,17.11761727350423
619,3465.600653273626
633,1338.3539571964186
659,0.07373598051538661
661,0.0
690,146.34177967637103
716,0.0
843,5738.0443240579625
844,5738.0443240579625
907,0.0
908,0.0
971,0.0
972,0.0
1195,4623.124623008056
1197,4623.124623008056
2,1, 1, 8, 0, 7, 0.00,60.00,Monday
7,-12.8
718,19.568887990259388
719,-7.746055073846242
720,16.952251837192634
619,3447.972782816541
633,1356.9366830273757
659,0.07373598051538661
661,0.0
690,146.34177967637103
716,85.44000000000005
843,5522.9784254632705
844,5522.9784254632705
907,0.0
908,0.0
971,0.0
972,0.0
1195,5540.389599562435
1197,5540.389599562435
2,1, 1, 8, 0, 8, 0.00,60.00,Monday
7,-12.8
718,19.65251971447542
719,-7.593309673868326
720,16.768157894215694
619,3443.693228507326
633,1361.4306250523557
659,0.07373598051538661
661,0.0
690,146.34177967637103
716,85.44000000000005
843,5255.392688093643
844,5255.392688093643
907,0.0
908,0.0
971,0.0
972,0.0
1195,5271.974640845559
1197,5271.974640845559
2,1, 1, 8, 0, 9, 0.00,60.00,Monday
7,-11.1
718,19.70759187011171
719,-7.249663059285835
720,16.6031514086737
619,3632.7565894487702
633,1385.6169250823136
659,0.07373598051538661
661,0.0
690,146.34177967637103
716,12.943020367793341
843,4227.235186820371
844,4227.235186820371
907,0.0
908,0.0
971,0.0
972,0.0
1195,2892.810572430166
1197,2892.810572430166
2,1, 1, 8, 0,10, 0.00,60.00,Monday
7,-10.0
718,19.714847152977477
719,-6.317828239217396
720,16.44648819113707
619,3758.2656089393167
633,1400.939278332937
659,0.07373598051538661
661,0.0
690,146.34177967637103
716,0.0
843,3526.1843783680015
844,3526.1843783680015
907,0.0
908,0.0
971,0.0
972,0.0
1195,1752.9245117324954
1197,1752.9245117324954
2,1, 1, 8, 0,11, 0.00,60.00,Monday
7,-9.4
718,19.728036828867918
719,-3.9010389636647864
720,16.3268929569972
619,3828.3503343053253
633,1408.5688875871144
659,0.07373598051538661
661,0.0
690,146.34177967637103
716,0.0
843,2416.195010681711
844,2416.195010681711
907,0.0
908,0.0
971,0.0
972,0.0
1195,317.0803734384972
1197,317.0803734384972
2,1, 1, 8, 0,12, 0.00,60.00,Monday
7,-8.3
718,19.771837758927834
719,-0.6865398105066471
720,16.24176711451953
619,3056.287093088659
633,1126.8421429211462
659,0.05839687847128303
661,41.60547384571023
690,115.89649115051829
716,0.0
843,1817.6530640979
844,1817.6530640979
907,0.0
908,0.0
971,0.0
972,0.0
1195,0.0
1197,0.0
2,1, 1, 8, 0,13, 0.00,60.00,Monday
7,-7.8
718,19.6623668617264
719,-0.21560236811015077
720,16.170640309514706
619,2946.9719866899877
633,1080.7729806492307
659,0.055721979111555076
661,48.860817413481136
690,110.58788936834561
716,0.0
843,1878.3109396645505
844,1878.3109396645505
907,0.0
908,0.0
971,0.0
972,0.0
1195,0.0
1197,0.0
2,1, 1, 8, 0,14, 0.00,60.00,Monday
7,-7.8
718,19.730468880299
719,1.7267369893304119
720,16.12065940744444
619,3290.8448854496446
633,1191.9068154855743
659,0.061587531844584605
661,32.951209398421085
690,122.22888260057094
716,79.2791629311026
843,1336.5680176262103
844,1336.5680176262103
907,0.0
908,0.0
971,0.0
972,0.0
1195,0.0
1197,0.0
2,1, 1, 8, 0,15, 0.00,60.00,Monday
7,-7.8
718,19.78913808035191
719,0.7770752031592818
720,16.094905944322388
619,1934.2644835403885
633,729.5493699436984
659,0.03764091593896705
661,97.9035318283658
690,74.70354662492285
716,0.0
843,1279.7345946401492
844,1279.7345946401492
907,0.0
908,0.0
971,0.0
972,0.0
1195,0.0
1197,0.0
2,1, 1, 8, 0,16, 0.00,60.00,Monday
7,-7.2
718,19.913488168079454
719,-0.22159299066515165
720,16.07960233256475
619,1363.4696714670629
633,517.4927668083486
659,0.026528835317727536
661,128.0437172400746
690,52.650156418622544
716,0.0
843,894.9486293940481
844,894.9486293940481
907,0.0
908,0.0
971,0.0
972,0.0
1195,0.0
1197,0.0
2,1, 1, 8, 0,17, 0.00,60.00,Monday
7,-8.3
718,19.703261992163373
719,-1.9490315602830206
720,16.062548023581375
619,1543.7131087265607
633,597.5638749668683
659,0.030858288895302528
661,116.30059387665355
690,61.242440054037175
716,0.0
843,991.2744248136933
844,991.2744248136933
907,0.0
908,0.0
971,0.0
972,0.0
1195,0.0
1197,0.0
2,1, 1, 8, 0,18, 0.00,60.00,Monday
7,-9.4
718,19.575637176649327
719,-2.3542996697460836
720,16.027950533563388
619,2907.3867977102677
633,1098.203674296642
659,0.0575135031614014
661,44.00152338273997
690,114.14308227531089
716,0.0
843,1809.6012866147612
844,1809.6012866147612
907,0.0
908,0.0
971,0.0
972,0.0
1195,0.0
1197,0.0
2,1, 1, 8, 0,19, 0.00,60.00,Monday
7,-9.4
718,19.546631833657802
719,-3.5654557889264447
720,15.98108732316912
619,3832.172895868169
633,1404.3242497676758
659,0.07373598051538661
661,0.0
690,146.34177967637103
716,85.44000000000005
843,2030.2074567292248
844,2030.2074567292248
907,0.0
908,0.0
971,0.0
972,0.0
1195,753.1273656707544
1197,753.1273656707544
2,1, 1, 8, 0,20, 0.00,60.00,Monday
7,-9.4
718,19.63068256051059
719,-3.7229045881503064
720,15.923137009140575
619,3832.916420673925
633,1403.498292025439
659,0.07373598051538661
661,0.0
690,146.34177967637103
716,85.44000000000005
843,2187.833290312132
844,2187.833290312132
907,0.0
908,0.0
971,0.0
972,0.0
1195,1034.6457961173137
1197,1034.6457961173137
2,1, 1, 8, 0,21, 0.00,60.00,Monday
7,-8.9
718,19.670113114634162
719,-4.203669881360258
720,15.851809543379845
619,3889.981461629763
633,1411.9020700003468
659,0.07373598051538661
661,0.0
690,146.34177967637103
716,55.72260591692791
843,2865.328777201381
844,2865.328777201381
907,0.0
908,0.0
971,0.0
972,0.0
1195,1389.119593351034
1197,1389.119593351034
2,1, 1, 8, 0,22, 0.00,60.00,Monday
7,-8.3
718,19.7040906531207
719,-3.9367632953866782
720,15.773024999573284
619,3960.5606481268787
633,1420.370602373382
659,0.07373598051538661
661,0.0
690,146.34177967637103
716,0.0
843,3009.742622040567
844,3009.742622040567
907,0.0
908,0.0
971,0.0
972,0.0
1195,781.5948489044595
1197,781.5948489044595
2,1, 1, 8, 0,23, 0.00,60.00,Monday
7,-7.2
718,18.960124010159216
719,-3.482392173109793
720,15.680283010916805
619,4092.755876076562
633,1434.8180980034988
659,0.07373598051538661
661,0.0
690,146.34177967637103
716,0.0
843,2981.7696339363356
844,2981.7696339363356
907,0.0
908,0.0
971,0.0
972,0.0
1195,621.6866792960282
1197,621.6866792960282
2,1, 1, 8, 0,24, 0.00,60.00,Monday
7,-6.7
718,18.724488324491578
719,-3.0131681249878732
720,15.549751299483464
619,4171.947502915342
633,1420.36174055636
659,0.07373598051538661
661,0.0
690,146.34177967637103
716,0.0
843,3460.4941279532977
844,3460.4941279532977
907,0.0
908,0.0
971,0.0
972,0.0
1195,1026.1036417284226
1197,1026.1036417284226
2,2, 1, 9, 0, 1, 0.00,60.00,Tuesday
7,-6.1
718,18.645858675373283
719,-2.3016192148591084
720,15.444393610919764
619,4251.924432384601
633,1420.9041302702926
659,0.07373598051538661
661,0.0
690,146.34177967637103
716,0.0
843,3708.035690803663
844,3708.035690803663
907,0.0
908,0.0
971,0.0
972,0.0
1195,1199.7412719815043
1197,1199.7412719815043
2,2, 1, 9, 0, 2, 0.00,60.00,Tuesday
7,-5.6
718,18.61851130159013
719,-2.0270423113783527
720,15.335171750595999
619,4316.33280540039
633,1424.5568186278158
659,0.07373598051538661
661,0.0
690,146.34177967637103
716,0.0
843,3915.317548879806
844,3915.317548879806
907,0.0
908,0.0
971,0.0
972,0.0
1195,1332.1169190165365
1197,1332.1169190165365
2,2, 1, 9, 0, 3, 0.00,60.00,Tuesday
7,-4.4
718,18.610395694713954
719,-1.0072068856348482
720,15.232078220332376
619,4468.994672894535
633,1437.9967080334561
659,0.07373598051538661
661,0.0
690,146.34177967637103
716,0.0
843,4250.98366444911
844,4250.98366444911
907,0.0
908,0.0
971,0.0
972,0.0
1195,1579.930745844697
1197,1579.930745844697
2,2, 1, 9, 0, 4, 0.00,60.00,Tuesday
7,-4.4
718,18.607782077546318
719,-0.7515547560053757
720,15.127814745667676
619,4469.315860975617
633,1437.6211802056253
659,0.07373598051538661
661,0.0
690,146.34177967637103
716,0.0
843,4238.515256914474
844,4238.515256914474
907,0.0
908,0.0
971,0.0
972,0.0
1195,1499.4600319811325
1197,1499.4600319811325
2,2, 1, 9, 0, 5, 0.00,60.00,Tuesday
7,-3.9
718,18.612831352953943
719,-0.4096486736198489
720,15.03769726172865
619,4533.622641177042
633,1443.4595370298753
659,0.07373598051538661
661,0.0
690,146.34177967637103
716,0.0
843,3649.6204016999636
844,3649.6204016999636
907,0.0
908,0.0
971,0.0
972,0.0
1195,712.702114760009
1197,712.702114760009
2,2, 1, 9, 0, 6, 0.00,60.00,Tuesday
7,-2.8
718,19.384977519415376
719,-0.18817914535567482
720,14.947013479099004
619,4676.552847620776
633,1456.8426864888906
659,0.07373598051538661
661,0.0
690,146.34177967637103
716,0.0
843,5123.587193820535
844,5123.587193820535
907,0.0
908,0.0
971,0.0
972,0.0
1195,2308.010382205491
1197,2308.010382205491
2,2, 1, 9, 0, 7, 0.00,60.00,Tuesday
7,-3.3
718,19.57633720846541
719,0.2928666692951753
720,14.89586162837128
619,4592.60431415245
633,1472.7277030624534
659,0.07373598051538661
661,0.0
690,146.34177967637103
716,85.44000000000005
843,4220.7598356521175
844,4220.7598356521175
907,0.0
908,0.0
971,0.0
972,0.0
1195,2440.6765492523386
1197,2440.6765492523386
2,2, 1, 9, 0, 8, 0.00,60.00,Tuesday
7,-3.3
718,19.660099676417854
719,0.17310206563475303
720,14.821430267917226
619,4578.200983143291
633,1475.0387319586355
659,2.345489991990174
661,0.0
690,146.34177967637103
716,85.44000000000005
843,3670.8548824069385
844,3670.8548824069385
907,0.0
908,0.0
971,0.0
972,0.0
1195,1873.2552360502104
1197,1873.2552360502104
2,2, 1, 9, 0, 9, 0.00,60.00,Tuesday
7,-2.8
718,19.68361227724974
719,0.9528961127039969
720,14.756307038810922
619,4651.2318872948035
633,1486.7555491049686
659,0.07373598051538661
661,0.0
690,146.34177967637103
716,85.44000000000005
843,3762.1120138011556
844,3762.1120138011556
907,0.0
908,0.0
971,0.0
972,0.0
1195,1939.2896748115927
1197,1939.2896748115927
2,2, 1, 9, 0,10, 0.00,60.00,Tuesday
7,-2.2
718,19.720516601313783
719,2.2649236134689406
720,14.694343490171855
619,4538.280947912835
633,1440.9554665773967
659,0.07107026736731142
661,7.230427070862477
690,141.04985588421098
716,16.640282098815618
843,2912.8877153939793
844,2912.8877153939793
907,0.0
908,0.0
971,0.0
972,0.0
1195,0.0
1197,0.0
2,2, 1, 9, 0,11, 0.00,60.00,Tuesday
7,-0.6
718,19.764724843883243
719,3.705148230030297
720,14.617925063094454
619,3180.432080194846
633,1016.023308867656
659,0.04938531852907267
661,66.04824894471335
690,98.01293966584886
716,0.0
843,2218.2504751151173
844,2218.2504751151173
907,0.0
908,0.0
971,0.0
972,0.0
1195,0.0
1197,0.0
2,2, 1, 9, 0,12, 0.00,60.00,Tuesday
7,1.1
718,19.808245809043918
719,4.784022697175007
720,14.557854014065853
619,1927.0859758720228
633,616.6298457870162
659,0.02949817761509911
661,119.98973253242715
690,58.54389041298662
716,0.0
843,1379.5554341004681
844,1379.5554341004681
907,0.0
908,0.0
971,0.0
972,0.0
1195,0.0
1197,0.0
2,2, 1, 9, 0,13, 0.00,60.00,Tuesday
7,1.7
718,19.605969450034937
719,5.316288721778375
720,14.529388461317936
619,1330.8773525619395
633,427.82746577970266
659,0.02033855388347177
661,144.83411289491787
690,40.36516587010415
716,0.0
843,968.6258161961159
844,968.6258161961159
907,0.0
908,0.0
971,0.0
972,0.0
1195,0.0
1197,0.0
2,2, 1, 9, 0,14, 0.00,60.00,Tuesday
7,1.7
718,19.738935677640725
719,5.8183069843373705
720,14.52059404506358
619,718.8176882299751
633,233.21708142823917
659,0.011130023220499115
661,169.81114744062677
690,22.089340185097033
716,0.0
843,527.733028206414
844,527.733028206414
907,0.0
908,0.0
971,0.0
972,0.0
1195,0.0
1197,0.0
2,2, 1, 9, 0,15, 0.00,60.00,Tuesday
7,2.2
718,19.79714985428225
719,6.609797125446269
720,14.532543756749963
619,0.0
633,0.0
659,0.0
661,200.0
690,0.0
716,0.0
843,-0.1627695540610148
844,-0.1627695540610148
907,0.0
908,0.0
971,0.0
972,0.0
1195,0.0
1197,0.0
2,2, 1, 9, 0,16, 0.00,60.00,Tuesday
7,1.7
718,19.740285177968257
719,5.519353306437582
720,14.580622313051506
619,61.756924382904664
633,20.442817839463025
659,0.0009718817152148987
661,197.36388745786843
690,1.9288572269165838
716,0.0
843,28.476667494309368
844,28.476667494309368
907,0.0
908,0.0
971,0.0
972,0.0
1195,0.0
1197,0.0
2,2, 1, 9, 0,17, 0.00,60.00,Tuesday
7,0.0
718,20.10038905819748
719,3.5370295142703294
720,14.645378232261583
619,313.71126489516513
633,106.26348656620584
659,0.005134568837869539
661,186.07309809408963
690,10.19036735065959
716,0.0
843,230.8720305937204
844,230.8720305937204
907,0.0
908,0.0
971,0.0
972,0.0
1195,0.0
1197,0.0
2,2, 1, 9, 0,18, 0.00,60.00,Tuesday
7,-1.1
718,19.632385192247206
719,1.6226298855894314
720,14.709755746470531
619,803.1167227722177
633,276.69247767127246
659,0.013402924046498718
661,163.6461766621469
690,26.600196459016058
716,0.0
843,544.1569648758268
844,544.1569648758268
907,0.0
908,0.0
971,0.0
972,0.0
1195,0.0
1197,0.0
2,2, 1, 9, 0,19, 0.00,60.00,Tuesday
7,-1.1
718,19.8004999821851
719,1.1756716068997783
720,14.778313681802311
619,2599.233706159416
633,847.2090838978502
659,0.04142579916235377
661,87.63749021087644
690,82.21597127567559
716,85.44000000000005
843,863.4647983230825
844,863.4647983230825
907,0.0
908,0.0
971,0.0
972,0.0
1195,0.0
1197,0.0
2,2, 1, 9, 0,20, 0.00,60.00,Tuesday
7,-2.2
718,19.66515295020975
719,0.22059664453566885
720,14.789722591092449
619,2828.3223545221563
633,938.3844964482545
659,0.046164340113939516
661,74.78476642944669
690,91.62021923580583
716,85.44000000000005
843,917.4121281338084
844,917.4121281338084
907,0.0
908,0.0
971,0.0
972,0.0
1195,0.0
1197,0.0
2,2, 1, 9, 0,21, 0.00,60.00,Tuesday
7,-2.8
718,19.711694313925744
719,-0.17598454253423923
720,14.781023464263821
619,3171.555709310533
633,1050.949710192837
659,0.05210634043679559
661,58.66780349948024
690,103.41295044974116
716,85.44000000000005
843,1129.64272409355
844,1129.64272409355
907,0.0
908,0.0
971,0.0
972,0.0
1195,0.0
1197,0.0
2,2, 1, 9, 0,22, 0.00,60.00,Tuesday
7,-5.0
718,19.599895547511068
719,-1.8483741050180693
720,14.737125878568609
619,2896.4198124152517
633,1006.4416855402917
659,0.050790720014295576
661,62.236266041930534
690,100.80158852516017
716,24.512865955475952
843,1642.9973067836108
844,1642.9973067836108
907,0.0
908,0.0
971,0.0
972,0.0
1195,0.0
1197,0.0
2,2, 1, 9, 0,23, 0.00,60.00,Tuesday
7,-4.4
718,19.015926508292726
719,-2.672606659244922
720,14.676714070542385
619,1749.4539588908551
633,618.0113195922364
659,0.031092732930474102
661,115.66469256081588
690,61.70811638532061
716,0.0
843,1116.3606272978395
844,1116.3606272978395
907,0.0
908,0.0
971,0.0
972,0.0
1195,0.0
1197,0.0
2,2, 1, 9, 0,24, 0.00,60.00,Tuesday
7,-6.1
718,18.549418406131252
719,-3.575510202123444
720,14.61197924914794
619,2525.125383056183
633,889.0048861403644
659,0.04590124747508388
661,75.49837364539937
690,91.0975684872789
716,0.0
843,1612.1856703967387
844,1612.1856703967387
907,0.0
908,0.0
971,0.0
972,0.0
1195,0.0
1197,0.0
2,3, 1,10, 0, 1, 0.00,60.00,Wednesday
7,-6.1
718,18.513745863698876
719,-3.3555479264426276
720,14.537322990185897
619,3678.644671702045
633,1241.1762896203352
659,0.06468378069821278
661,24.55300588370124
690,128.3741882051907
716,0.0
843,2336.321544949722
844,2336.321544949722
907,0.0
908,0.0
971,0.0
972,0.0
1195,0.0
1197,0.0
2,3, 1,10, 0, 2, 0.00,60.00,Wednesday
7,-5.6
718,18.42184210752642
719,-3.4410989123826075
720,14.456498266250973
619,4320.6837145180725
633,1419.5122578080834
659,0.07373598051538661
661,0.0
690,146.34177967637103
716,0.0
843,4157.163720718301
844,4157.163720718301
907,0.0
908,0.0
971,0.0
972,0.0
1195,1688.0755453908182
1197,1688.0755453908182
2,3, 1,10, 0, 3, 0.00,60.00,Wednesday
7,-6.1
718,18.55157940160529
719,-3.127379239912684
720,14.374866650697403
619,4260.497660047965
633,1411.0038654863267
659,0.07373598051538661
661,0.0
690,146.34177967637103
716,0.0
843,3313.592281198953
844,3313.592281198953
907,0.0
908,0.0
971,0.0
972,0.0
1195,729.3893215436738
1197,729.3893215436738
2,3, 1,10, 0, 4, 0.00,60.00,Wednesday
7,-7.2
718,18.588964428395744
719,-3.7235442123974285
720,14.283303350054954
619,4122.019600240732
633,1401.377021466854
659,0.07373598051538661
661,0.0
690,146.34177967637103
716,0.0
843,3951.5811393989097
844,3951.5811393989097
907,0.0
908,0.0
971,0.0
972,0.0
1195,1626.6475196332253
1197,1626.6475196332253
2,3, 1,10, 0, 5, 0.00,60.00,Wednesday
7,-7.8
718,18.598463774974913
719,-4.469021537192271
720,14.188618067232023
619,4048.4000515642306
633,1395.0960354404442
659,0.07373598051538661
661,0.0
690,146.34177967637103
716,0.0
843,4510.416983846781
844,4510.416983846781
907,0.0
908,0.0
971,0.0
972,0.0
1195,2401.89089207741
1197,2401.89089207741
2,3, 1,10, 0, 6, 0.00,60.00,Wednesday
7,-8.9
718,19.254029174427856
719,-4.824899470275036
720,14.090177618609271
619,3916.603269525637
633,1382.0760771128041
659,0.07373598051538661
661,0.0
690,146.34177967637103
716,80.03690332975764
843,5643.172398849931
844,5643.172398849931
907,0.0
908,0.0
971,0.0
972,0.0
1195,4910.9602640796375
1197,4910.9602640796375
2,3, 1,10, 0, 7, 0.00,60.00,Wednesday
7,-9.4
718,19.529236731288485
719,-4.73591587332709
720,14.026553078381365
619,3842.3027723346754
633,1393.0622666662762
659,0.07373598051538661
661,0.0
690,146.34177967637103
716,85.44000000000005
843,5253.742819126532
844,5253.742819126532
907,0.0
908,0.0
971,0.0
972,0.0
1195,4773.818713199142
1197,4773.818713199142
2,3, 1,10, 0, 8, 0.00,60.00,Wednesday
7,-9.4
718,19.63864837871055
719,-5.065124841955708
720,13.943345329639296
619,3835.8734215707505
633,1400.2123969533254
659,0.07373598051538661
661,0.0
690,146.34177967637103
716,69.79907278485605
843,4840.3351176709275
844,4840.3351176709275
907,0.0
908,0.0
971,0.0
972,0.0
1195,4114.408618904432
1197,4114.408618904432
2,3, 1,10, 0, 9, 0.00,60.00,Wednesday
7,-8.3
718,19.694687560320546
719,-4.826068281443157
720,13.862392430439874
619,3963.857978827942
633,1416.65376391905
659,0.07373598051538661
661,0.0
690,146.34177967637103
716,0.0
843,4465.853535628594
844,4465.853535628594
907,0.0
908,0.0
971,0.0
972,0.0
1195,2609.018858144446
1197,2609.018858144446
2,3, 1,10, 0,10, 0.00,60.00,Wednesday
7,-7.8
718,19.71842442636505
719,-2.0165160698720617
720,13.79286579001774
619,4022.71871092989
633,1424.2543396496392
659,0.07373598051538661
661,0.0
690,146.34177967637103
716,0.0
843,3216.9642895966626
844,3216.9642895966626
907,0.0
908,0.0
971,0.0
972,0.0
1195,1066.670874213622
1197,1066.670874213622
2,3, 1,10, 0,11, 0.00,60.00,Wednesday
7,-7.2
718,19.752658368183234
719,-0.1703271232882051
720,13.736174521834249
619,3546.1210327464582
633,1259.0141036497682
659,0.0648109149486584
661,24.20816948346083
690,128.62626055177668
716,0.0
843,2174.8823230553153
844,2174.8823230553153
907,0.0
908,0.0
971,0.0
972,0.0
1195,0.0
1197,0.0
2,3, 1,10, 0,12, 0.00,60.00,Wednesday
7,-6.7
718,19.761933628175004
719,1.3856764481450494
720,13.692961719270023
619,2721.5100543576837
633,980.1257127950099
659,0.05020081951726397
661,63.83630036142674
690,99.63057978869303
716,0.0
843,1728.9717586737424
844,1728.9717586737424
907,0.0
908,0.0
971,0.0
972,0.0
1195,0.0
1197,0.0
2,3, 1,10, 0,13, 0.00,60.00,Wednesday
7,-6.7
718,20.016142351131045
719,4.906579511945718
720,13.66781217518299
619,1665.470057654942
633,618.0311360384695
659,0.03164379925198044
661,114.16999128294694
690,62.80156561521245
716,0.0
843,1084.4751232463495
844,1084.4751232463495
907,0.0
908,0.0
971,0.0
972,0.0
1195,0.0
1197,0.0
2,3, 1,10, 0,14, 0.00,60.00,Wednesday
7,-5.6
718,19.538497382412217
719,4.239670743301014
720,13.660717212274198
619,808.4279651163837
633,302.6710547068738
659,0.015275197064892675
661,158.56786074281558
690,30.315827207370162
716,0.0
843,557.1115507110517
844,557.1115507110517
907,0.0
908,0.0
971,0.0
972,0.0
1195,0.0
1197,0.0
2,3, 1,10, 0,15, 0.00,60.00,Wednesday
7,-5.6
718,19.78022041986313
719,3.319095550407742
720,13.718175165264316
619,1639.0114066310725
633,592.4396236354
659,0.030181396363486827
661,118.13658365283737
690,59.89932760515482
716,73.45677059347922
843,386.4261232572899
844,386.4261232572899
907,0.0
908,0.0
971,0.0
972,0.0
1195,0.0
1197,0.0
2,3, 1,10, 0,16, 0.00,60.00,Wednesday
7,-6.1
718,19.608663746416564
719,1.759814468157932
720,13.758249625786737
619,1575.7043471297206
633,579.6375056177351
659,0.02951480859128909
661,119.94462300496518
690,58.576341130655074
716,82.09015766607472
843,206.1829940620246
844,206.1829940620246
907,0.0
908,0.0
971,0.0
972,0.0
1195,0.0
1197,0.0
2,3, 1,10, 0,17, 0.00,60.00,Wednesday
7,-6.7
718,20.022787503554934
719,0.20020077976484277
720,13.780821880665497
619,804.523593742906
633,304.9400525131877
659,0.015655710311896415
661,157.5357642158715
690,31.070957175149562
716,0.0
843,530.3700237034936
844,530.3700237034936
907,0.0
908,0.0
971,0.0
972,0.0
1195,0.0
1197,0.0
2,3, 1,10, 0,18, 0.00,60.00,Wednesday
7,-7.2
718,19.715408677014988
719,-1.0993460588328596
720,13.846075261585248
619,1511.8988199610014
633,572.8780176200694
659,0.02930824699130081
661,120.50489656081807
690,58.166284099179116
716,0.0
843,972.8211079501034
844,972.8211079501034
907,0.0
908,0.0
971,0.0
972,0.0
1195,0.0
1197,0.0
2,3, 1,10, 0,19, 0.00,60.00,Wednesday
7,-7.2
718,19.66894336918414
719,-3.0689034418648258
720,13.872670661003086
619,2025.6205357194108
633,750.5567191875107
659,0.03862574008901827
661,95.23231448462757
690,76.65814477745438
716,0.0
843,1280.3137764131625
844,1280.3137764131625
907,0.0
908,0.0
971,0.0
972,0.0
1195,0.0
1197,0.0
2,3, 1,10, 0,20, 0.00,60.00,Wednesday
7,-8.9
718,19.194018580738895
719,-3.1113594161048796
720,13.90933892704758
619,3891.713203121265
633,1409.9652167514362
659,0.07373598051538661
661,0.0
690,146.34177967637103
716,85.44000000000005
843,1557.8856760645622
844,1557.8856760645622
907,0.0
908,0.0
971,0.0
972,0.0
1195,291.4255478383093
1197,291.4255478383093
2,3, 1,10, 0,21, 0.00,60.00,Wednesday
7,-8.3
718,19.431980015585115
719,-3.602161865546481
720,13.859671120586242
619,3974.4064490868836
633,1404.7539106458655
659,0.07373598051538661
661,0.0
690,146.34177967637103
716,85.44000000000005
843,2118.154611292469
844,2118.154611292469
907,0.0
908,0.0
971,0.0
972,0.0
1195,832.8952049402515
1197,832.8952049402515
2,3, 1,10, 0,22, 0.00,60.00,Wednesday
7,-8.9
718,19.595892962942358
719,-4.176062350032974
720,13.832532492025994
619,3897.3543122420742
633,1403.6525346134258
659,0.07373598051538661
661,0.0
690,146.34177967637103
716,32.03266118057605
843,2486.5935332573554
844,2486.5935332573554
907,0.0
908,0.0
971,0.0
972,0.0
1195,621.8467545919857
1197,621.8467545919857
2,3, 1,10, 0,23, 0.00,60.00,Wednesday
7,-11.7
718,18.93972815397158
719,-5.400936181200377
720,13.761016784113696
619,3543.6123795193234
633,1362.3296374553313
659,7.893470895802302
661,0.0
690,146.34177967637103
716,0.0
843,2472.71401249898
844,2472.71401249898
907,0.0
908,0.0
971,0.0
972,0.0
1195,602.029943313737
1197,602.029943313737
2,3, 1,10, 0,24, 0.00,60.00,Wednesday
7,-10.6
718,18.720612696832095
719,-5.516025314646861
720,13.67745178972377
619,3677.707583353802
633,1357.5319024912442
659,9.501019579646346
661,0.0
690,146.34177967637103
716,0.0
843,2888.0735222255007
844,2888.0735222255007
907,0.0
908,0.0
971,0.0
972,0.0
1195,979.9808436725207
1197,979.9808436725207
2,4, 1,11, 0, 1, 0.00,60.00,Thursday
7,-10.6
718,18.642349796908572
719,-5.899413044609389
720,13.592364293710142
619,3682.8670948638105
633,1351.886524015457
659,9.4991934879295
661,0.0
690,146.34177967637103
716,0.0
843,3330.2898814110813
844,3330.2898814110813
907,0.0
908,0.0
971,0.0
972,0.0
1195,1486.098763198853
1197,1486.098763198853
2,4, 1,11, 0, 2, 0.00,60.00,Thursday
7,-10.6
718,18.61613397173226
719,-6.0328781927463115
720,13.504693599279271
619,3684.7938463701357
633,1349.7965621817245
659,9.494631328179084
661,0.0
690,146.34177967637103
716,0.0
843,3824.861370811279
844,3824.861370811279
907,0.0
908,0.0
971,0.0
972,0.0
1195,2098.1546053270336
1197,2098.1546053270336
2,4, 1,11, 0, 3, 0.00,60.00,Thursday
7,-11.1
718,18.606197573164977
719,-6.059076867473904
720,13.411772017495112
619,3620.714236150417
633,1339.9805557176496
659,11.821377576274235
661,0.0
690,146.34177967637103
716,0.0
843,4172.558273127326
844,4172.558273127326
907,0.0
908,0.0
971,0.0
972,0.0
1195,2575.943509751487
1197,2575.943509751487
2,4, 1,11, 0, 4, 0.00,60.00,Thursday
7,-10.6
718,18.60736038468629
719,-6.1948599185624245
720,13.327374680320018
619,3670.895057932918
633,1343.1695816803121
659,13.781764395210793
661,0.0
690,146.34177967637103
716,0.0
843,4188.349080550808
844,4188.349080550808
907,0.0
908,0.0
971,0.0
972,0.0
1195,2555.8544944253754
1197,2555.8544944253754
2,4, 1,11, 0, 5, 0.00,60.00,Thursday
7,-11.7
718,18.602198455676383
719,-6.395457057795534
720,13.226369513179066
619,3518.2967891157573
633,1318.8766759154494
659,22.353512583487447
661,0.0
690,146.34177967637103
716,0.0
843,4580.672467076052
844,4580.672467076052
907,0.0
908,0.0
971,0.0
972,0.0
1195,3178.886890153875
1197,3178.886890153875
2,4, 1,11, 0, 6, 0.00,60.00,Thursday
7,-11.1
718,19.381558679860824
719,-6.148285415676603
720,13.145220258461576
619,3593.4971140641355
633,1328.9463933734698
659,19.93981605249352
661,0.0
690,146.34177967637103
716,0.0
843,5424.119543504095
844,5424.119543504095
907,0.0
908,0.0
971,0.0
972,0.0
1195,4134.853191759421
1197,4134.853191759421
2,4, 1,11, 0, 7, 0.00,60.00,Thursday
7,-10.6
718,19.578186895071703
719,-6.131339715740574
720,13.097336801443507
619,3638.6828088924794
633,1356.8438145684052
659,18.02132410383111
661,0.0
690,146.34177967637103
716,85.44000000000005
843,5135.137219863122
844,5135.137219863122
907,0.0
908,0.0
971,0.0
972,0.0
1195,4968.349233675623
1197,4968.349233675623
2,4, 1,11, 0, 8, 0.00,60.00,Thursday
7,-9.4
718,19.652178992273594
719,-6.063285635506009
720,13.026784280100175
619,3777.8005026992173
633,1378.9703124860998
659,16.22395004354089
661,0.0
690,146.34177967637103
716,85.44000000000005
843,4685.80275159922
844,4685.80275159922
907,0.0
908,0.0
971,0.0
972,0.0
1195,4366.002275780536
1197,4366.002275780536
2,4, 1,11, 0, 9, 0.00,60.00,Thursday
7,-6.7
718,19.692558181886508
719,-3.9756191061569677
720,12.974296690278997
619,4063.901684946194
633,1402.7347168828437
659,24.398737903543807
661,0.0
690,146.34177967637103
716,74.38186264511513
843,3698.7781640927988
844,3698.7781640927988
907,0.0
908,0.0
971,0.0
972,0.0
1195,2626.129701125674
1197,2626.129701125674
2,4, 1,11, 0,10, 0.00,60.00,Thursday
7,-3.9
718,19.771101797522096
719,2.009486183475958
720,12.902698069971903
619,3678.104591138735
633,1225.5439727446249
659,9.453908970537181
661,31.635534549923495
690,122.96854164763478
716,0.0
843,2220.4628601654367
844,2220.4628601654367
907,0.0
908,0.0
971,0.0