Program Version,EnergyPlus, Version 22.2.0-c249759bad, YMD=2023.09.01 14:31
1,5,Environment Title[],Latitude[deg],Longitude[deg],Time Zone[],Elevation[m]
2,8,Day of Simulation[],Month[],Day of Month[],DST Indicator[1=yes 0=no],Hour[],StartMinute[],EndMinute[],DayType
3,5,Cumulative Day of Simulation[],Month[],Day of Month[],DST Indicator[1=yes 0=no],DayType  ! When Daily Report Variables Requested
4,2,Cumulative Days of Simulation[],Month[]  ! When Monthly Report Variables Requested
5,1,Cumulative Days of Simulation[] ! When Run Period Report Variables Requested
6,1,Calendar Year of Simulation[] ! When Annual Report Variables Requested
7,1,Environment,Site Outdoor Air Drybulb Temperature [C] !Hourly
545,1,LIVING,Zone Mean Air Temperature [C] !Hourly
546,1,ATTIC,Zone Mean Air Temperature [C] !Hourly
547,1,CRAWLSPACE,Zone Mean Air Temperature [C] !Hourly
548,1,FAN,Fan Electricity Rate [W] !Hourly
720,1,LIVING,Zone Predicted Sensible Load to Heating Setpoint Heat Transfer Rate [W] !Hourly
721,1,LIVING,Zone System Predicted Sensible Load to Heating Setpoint Heat Transfer Rate [W] !Hourly
784,1,ATTIC,Zone Predicted Sensible Load to Heating Setpoint Heat Transfer Rate [W] !Hourly
785,1,ATTIC,Zone System Predicted Sensible Load to Heating Setpoint Heat Transfer Rate [W] !Hourly
848,1,CRAWLSPACE,Zone Predicted Sensible Load to Heating Setpoint Heat Transfer Rate [W] !Hourly
849,1,CRAWLSPACE,Zone System Predicted Sensible Load to Heating Setpoint Heat Transfer Rate [W] !Hourly
1121,1,DX_HEATING_COIL,Heating Coil Heating Rate [W] !Hourly
1135,1,DX_HEATING_COIL,Heating Coil Electricity Rate [W] !Hourly
1161,1,DX_HEATING_COIL,Heating Coil Defrost Electricity Rate [W] !Hourly
1163,1,DX_HEATING_COIL,Heating Coil Crankcase Heater Electricity Rate [W] !Hourly
1166,1,HEATING_RESISTANCE_BACKUP,Heating Coil Heating Rate [W] !Hourly
1168,1,HEATING_RESISTANCE_BACKUP,Heating Coil Electricity Rate [W] !Hourly
End of Data Dictionary
1,EXTREME_WINTER,  41.78,-124.24,  -8.00,  17.00
2,1, 1, 1, 0, 1, 0.00,60.00,Monday
7,8.9
545,19.564258266781245
546,7.47897262675724
547,19.212959139834865
548,0.0
720,-702.4653114608573
721,-702.4653114608573
784,0.0
785,0.0
848,0.0
849,0.0
1121,0.0
1135,0.0
1161,0.0
1163,200.0
1166,0.0
1168,0.0
2,1, 1, 1, 0, 2, 0.00,60.00,Monday
7,8.3
545,18.693078872483266
546,8.456512341090445
547,18.936876253663797
548,5.331590890710936
720,90.11271813804342
721,90.11271813804342
784,0.0
785,0.0
848,0.0
849,0.0
1121,222.28466567721009
1135,60.53199929543941
1161,0.0
1163,186.1476099927087
1166,0.0
1168,0.0
2,1, 1, 1, 0, 3, 0.00,60.00,Monday
7,8.3
545,18.862651080701514
546,8.919692515718832
547,18.755059349798763
548,18.39545187807953
720,577.4388869235718
721,577.4388869235718
784,0.0
785,0.0
848,0.0
849,0.0
1121,784.5307673937903
1135,205.53472885385276
1161,0.0
1163,152.20545255648113
1166,0.0
1168,0.0
2,1, 1, 1, 0, 4, 0.00,60.00,Monday
7,8.9
545,18.298019419564582
546,9.51720191677611
547,18.584604707977554
548,19.367884176443695
720,595.6515879724893
721,595.6515879724893
784,0.0
785,0.0
848,0.0
849,0.0
1121,838.8997628869666
1135,218.5534655369917
1161,0.0
1163,149.6789062162328
1166,0.0
1168,0.0
2,1, 1, 1, 0, 5, 0.00,60.00,Monday
7,8.9
545,18.93790751761645
546,9.557629472190095
547,18.429339556418768
548,27.39685432418478
720,891.0842193886801
721,891.0842193886801
784,0.0
785,0.0
848,0.0
849,0.0
1121,1203.6427791078304
1135,306.0300588784309
1161,0.0
1163,128.81826103109967
1166,0.0
1168,0.0
2,1, 1, 1, 0, 6, 0.00,60.00,Monday
7,8.3
545,19.54115889892859
546,9.539813111859583
547,18.294656435540308
548,43.529274901158445
720,1427.6093959684458
721,1427.6093959684458
784,0.0
785,0.0
848,0.0
849,0.0
1121,1925.979101518709
1135,488.074116597955
1161,0.0
1163,86.90345808115096
1166,0.0
1168,0.0
2,1, 1, 1, 0, 7, 0.00,60.00,Monday
7,8.9
545,19.78266298797833
546,9.721435627222279
547,18.185124512836563
548,38.39043238112399
720,1200.5802705731894
721,1200.5802705731894
784,0.0
785,0.0
848,0.0
849,0.0
1121,1706.297713086896
1135,438.0568932599917
1161,0.0
1163,100.25505467450412
1166,0.0
1168,0.0
2,1, 1, 1, 0, 8, 0.00,60.00,Monday
7,8.9
545,19.713530866988627
546,9.696705345137435
547,18.070619033830553
548,33.175680608280885
720,1007.2597876919062
721,1007.2597876919062
784,0.0
785,0.0
848,0.0
849,0.0
1121,1461.6013556688424
1135,380.1184160469679
1161,0.0
1163,113.80387656076181
1166,0.0
1168,0.0
2,1, 1, 1, 0, 9, 0.00,60.00,Monday
7,8.9
545,19.974927827463105
546,9.815397957579293
547,17.963081648317885
548,20.553687259685315
720,579.6669899887765
721,579.6669899887765
784,0.0
785,0.0
848,0.0
849,0.0
1121,888.9499822753664
1135,235.2050227828157
1161,0.0
1163,146.59798588351742
1166,0.0
1168,0.0
2,1, 1, 1, 0,10, 0.00,60.00,Monday
7,9.4
545,20.15226189073064
546,11.35739911521402
547,17.86417784439044
548,0.0
720,-241.5704086753958
721,-241.5704086753958
784,0.0
785,0.0
848,0.0
849,0.0
1121,0.0
1135,0.0
1161,0.0
1163,200.0
1166,0.0
1168,0.0
2,1, 1, 1, 0,11, 0.00,60.00,Monday
7,10.0
545,20.27641194088249
546,12.69555940490937
547,17.793361381627705
548,0.0
720,-416.6556370315284
721,-416.6556370315284
784,0.0
785,0.0
848,0.0
849,0.0
1121,0.0
1135,0.0
1161,0.0
1163,0.0
1166,0.0
1168,0.0
2,1, 1, 1, 0,12, 0.00,60.00,Monday
7,10.6
545,20.40410693732733
546,14.130057066802626
547,17.738152994448306
548,0.0
720,-462.3645264580191
721,-462.3645264580191
784,0.0
785,0.0
848,0.0
849,0.0
1121,0.0
1135,0.0
1161,0.0
1163,0.0
1166,0.0
1168,0.0
2,1, 1, 1, 0,13, 0.00,60.00,Monday
7,10.0
545,20.265414625404944
546,13.71376599434898
547,17.69434611808791
548,0.0
720,-346.72700437664935
721,-346.72700437664935
784,0.0
785,0.0
848,0.0
849,0.0
1121,0.0
1135,0.0
1161,0.0
1163,0.0
1166,0.0
1168,0.0
2,1, 1, 1, 0,14, 0.00,60.00,Monday
7,10.6
545,20.607437169904365
546,14.32132734787117
547,17.658230246448227
548,0.0
720,-554.7570318216785
721,-554.7570318216785
784,0.0
785,0.0
848,0.0
849,0.0
1121,0.0
1135,0.0
1161,0.0
1163,0.0
1166,0.0
1168,0.0
2,1, 1, 1, 0,15, 0.00,60.00,Monday
7,10.0
545,21.115736355595253
546,14.788369493515987
547,17.62878988792065
548,0.0
720,-940.2248043972522
721,-940.2248043972522
784,0.0
785,0.0
848,0.0
849,0.0
1121,0.0
1135,0.0
1161,0.0
1163,0.0
1166,0.0
1168,0.0
2,1, 1, 1, 0,16, 0.00,60.00,Monday
7,9.4
545,21.24520842780087
546,14.402480592212344
547,17.608333364335348
548,0.0
720,-1014.500007984223
721,-1014.500007984223
784,0.0
785,0.0
848,0.0
849,0.0
1121,0.0
1135,0.0
1161,0.0
1163,200.0
1166,0.0
1168,0.0
2,1, 1, 1, 0,17, 0.00,60.00,Monday
7,8.9
545,21.955526841757226
546,14.872047404781283
547,17.594765309319968
548,0.0
720,-1440.8147471961747
721,-1440.8147471961747
784,0.0
785,0.0
848,0.0
849,0.0
1121,0.0
1135,0.0
1161,0.0
1163,200.0
1166,0.0
1168,0.0
2,1, 1, 1, 0,18, 0.00,60.00,Monday
7,8.3
545,21.810955547600464
546,12.51627984241329
547,17.580150031144086
548,0.0
720,-1290.5254751708799
721,-1290.5254751708799
784,0.0
785,0.0
848,0.0
849,0.0
1121,0.0
1135,0.0
1161,0.0
1163,200.0
1166,0.0
1168,0.0
2,1, 1, 1, 0,19, 0.00,60.00,Monday
7,7.8
545,21.819654243059464
546,10.06104286093748
547,17.564057616032866
548,0.0
720,-1224.1808449572864
721,-1224.1808449572864
784,0.0
785,0.0
848,0.0
849,0.0
1121,0.0
1135,0.0
1161,0.0
1163,200.0
1166,0.0
1168,0.0
2,1, 1, 1, 0,20, 0.00,60.00,Monday
7,8.3
545,21.984726368893245
546,9.303757430438665
547,17.53853251864024
548,0.0
720,-1369.7790130587873
721,-1369.7790130587873
784,0.0
785,0.0
848,0.0
849,0.0
1121,0.0
1135,0.0
1161,0.0
1163,200.0
1166,0.0
1168,0.0
2,1, 1, 1, 0,21, 0.00,60.00,Monday
7,8.3
545,22.047327827802977
546,8.9118808808095
547,17.504329392857848
548,0.0
720,-1282.7047138569033
721,-1282.7047138569033
784,0.0
785,0.0
848,0.0
849,0.0
1121,0.0
1135,0.0
1161,0.0
1163,200.0
1166,0.0
1168,0.0
2,1, 1, 1, 0,22, 0.00,60.00,Monday
7,6.7
545,21.606996688772753
546,8.093245048711385
547,17.462169639506044
548,0.0
720,-959.7192915571613
721,-959.7192915571613
784,0.0
785,0.0
848,0.0
849,0.0
1121,0.0
1135,0.0
1161,0.0
1163,200.0
1166,0.0
1168,0.0
2,1, 1, 1, 0,23, 0.00,60.00,Monday
7,6.7
545,21.04633848936702
546,6.285423296707796
547,17.412991696222583
548,0.0
720,-1460.0863870613084
721,-1460.0863870613084
784,0.0
785,0.0
848,0.0
849,0.0
1121,0.0
1135,0.0
1161,0.0
1163,200.0
1166,0.0
1168,0.0
2,1, 1, 1, 0,24, 0.00,60.00,Monday
7,5.0
545,20.188253864356753
546,4.143283951750645
547,17.35623602530848
548,0.0
720,-966.2433562730603
721,-966.2433562730603
784,0.0
785,0.0
848,0.0
849,0.0
1121,0.0
1135,0.0
1161,0.0
1163,200.0
1166,0.0
1168,0.0
2,2, 1, 2, 0, 1, 0.00,60.00,Tuesday
7,6.1
545,19.41653334563525
546,4.523063228204035
547,17.28865923668171
548,0.0
720,-565.1645812314528
721,-565.1645812314528
784,0.0
785,0.0
848,0.0
849,0.0
1121,0.0
1135,0.0
1161,0.0
1163,200.0
1166,0.0
1168,0.0
2,2, 1, 2, 0, 2, 0.00,60.00,Tuesday
7,7.2
545,18.777769553507028
546,5.5295054000960135
547,17.213010697566045
548,0.0
720,-121.38297527812028
721,-121.38297527812028
784,0.0
785,0.0
848,0.0
849,0.0
1121,0.0
1135,0.0
1161,0.0
1163,200.0
1166,0.0
1168,0.0
2,2, 1, 2, 0, 3, 0.00,60.00,Tuesday
7,6.7
545,18.675614943434923
546,5.536306997754971
547,17.13504349728802
548,9.339096423042696
720,201.72114734900424
721,201.72114734900424
784,0.0
785,0.0
848,0.0
849,0.0
1121,377.8308955630148
1135,102.4042664600894
1161,0.0
1163,175.73542144933106
1166,0.0
1168,0.0
2,2, 1, 2, 0, 4, 0.00,60.00,Tuesday
7,6.7
545,18.555176234288833
546,5.638019354153231
547,17.048731195123164
548,14.218294074063444
720,390.82065394934216
721,390.82065394934216
784,0.0
785,0.0
848,0.0
849,0.0
1121,579.5881860676344
1135,155.59518799549002
1161,0.0
1163,163.05842687678117
1166,0.0
1168,0.0
2,2, 1, 2, 0, 5, 0.00,60.00,Tuesday
7,5.0
545,18.550600734898513
546,4.754355033206701
547,16.962454844114422
548,31.042997019345894
720,689.058102267034
721,689.058102267034
784,0.0
785,0.0
848,0.0
849,0.0
1121,1005.7883435028946
1135,294.1322001362736
1161,16.395989363861897
1163,119.16726333421481
1166,0.0
1168,0.0
2,2, 1, 2, 0, 6, 0.00,60.00,Tuesday
7,5.6
545,19.409506926632982
546,4.779898328098866
547,16.880707596810375
548,52.178963794515866
720,1550.3598392549193
721,1550.3598392549193
784,0.0
785,0.0
848,0.0
849,0.0
1121,2191.6121533731207
1135,562.6910649965092
1161,0.0
1163,64.4300788499576
1166,0.0
1168,0.0
2,2, 1, 2, 0, 7, 0.00,60.00,Tuesday
7,6.1
545,19.568779541264266
546,5.511689529733357
547,16.823418635493518
548,56.755217927852435
720,1606.2317076894888
721,1606.2317076894888
784,0.0
785,0.0
848,0.0
849,0.0
1121,2422.646096794823
1135,624.8442416823611
1161,0.0
1163,52.54018363352173
1166,0.0
1168,0.0
2,2, 1, 2, 0, 8, 0.00,60.00,Tuesday
7,5.6
545,19.678458686198642
546,5.656306769118278
547,16.74004404390404
548,57.23019297691385
720,1560.0050340859416
721,1560.0050340859416
784,0.0
785,0.0
848,0.0
849,0.0
1121,2412.3673494140344
1135,628.5653683263832
1161,0.0
1163,51.3061167746421
1166,0.0
1168,0.0
2,2, 1, 2, 0, 9, 0.00,60.00,Tuesday
7,7.2
545,19.890895368555892
546,6.541576612845268
547,16.647145508479912
548,35.44665789097703
720,887.9984357311605
721,887.9984357311605
784,0.0
785,0.0
848,0.0
849,0.0
1121,1503.8630186475395
1135,396.80878561391035
1161,0.0
1163,107.90348704055037
1166,0.0
1168,0.0
2,2, 1, 2, 0,10, 0.00,60.00,Tuesday
7,9.4
545,19.867306543729327
546,8.915883348932756
547,16.546628828059756
548,6.549647086892784
720,51.020391323754666
721,51.020391323754666
784,0.0
785,0.0
848,0.0
849,0.0
1121,280.8895302247835
1135,75.48005636133506
1161,0.0
1163,182.98289052600958
1166,0.0
1168,0.0
2,2, 1, 2, 0,11, 0.00,60.00,Tuesday
7,11.1
545,20.742115046991284
546,12.002533271736961
547,16.494117347881417
548,0.0
720,-703.3724541483298
721,-703.3724541483298
784,0.0
785,0.0
848,0.0
849,0.0
1121,0.0
1135,0.0
1161,0.0
1163,0.0
1166,0.0
1168,0.0
2,2, 1, 2, 0,12, 0.00,60.00,Tuesday
7,10.6
545,21.4993801044466
546,15.665531987998406
547,16.47385802414146
548,0.0
720,-1474.5136085320646
721,-1474.5136085320646
784,0.0
785,0.0
848,0.0
849,0.0
1121,0.0
1135,0.0
1161,0.0
1163,0.0
1166,0.0
1168,0.0
2,2, 1, 2, 0,13, 0.00,60.00,Tuesday
7,10.6
545,22.02691085836497
546,16.937941415465676
547,16.478750285112557
548,0.0
720,-1910.6311692968775
721,-1910.6311692968775
784,0.0
785,0.0
848,0.0
849,0.0
1121,0.0
1135,0.0
1161,0.0
1163,0.0
1166,0.0
1168,0.0
2,2, 1, 2, 0,14, 0.00,60.00,Tuesday
7,10.6
545,22.972288861681832
546,18.677052769987526
547,16.504749795121235
548,0.0
720,-2223.8716950685193
721,-2223.8716950685193
784,0.0
785,0.0
848,0.0
849,0.0
1121,0.0
1135,0.0
1161,0.0
1163,0.0
1166,0.0
1168,0.0
2,2, 1, 2, 0,15, 0.00,60.00,Tuesday
7,10.0
545,23.35764034536123
546,19.19783320021553
547,16.572089978991876
548,9.280762273652671
720,-2849.683353612658
721,-2849.683353612658
784,0.0
785,0.0
848,0.0
849,0.0
1121,0.0
1135,0.0
1161,0.0
1163,0.0
1166,0.0
1168,0.0
2,2, 1, 2, 0,16, 0.00,60.00,Tuesday
7,10.6
545,23.397209729018208
546,19.339551933781674
547,16.70192949013758
548,25.37381394090049
720,-3848.9483008424795
721,-3848.9483008424795
784,0.0
785,0.0
848,0.0
849,0.0
1121,0.0
1135,0.0
1161,0.0
1163,0.0
1166,0.0
1168,0.0
2,2, 1, 2, 0,17, 0.00,60.00,Tuesday
7,8.3
545,23.235302878208717
546,15.840443949711808
547,16.776064260891168
548,26.311686157084758
720,-4222.206650276134
721,-4222.206650276134
784,0.0
785,0.0
848,0.0
849,0.0
1121,0.0
1135,0.0
1161,0.0
1163,131.63771454550138
1166,0.0
1168,0.0
2,2, 1, 2, 0,18, 0.00,60.00,Tuesday
7,6.7
545,23.284257193328834
546,12.342861668916692
547,16.76918310432137
548,5.964104301004668
720,-3568.1404063986847
721,-3568.1404063986847
784,0.0
785,0.0
848,0.0
849,0.0
1121,0.0
1135,0.0
1161,0.0
1163,184.5042313794891
1166,0.0
1168,0.0
2,2, 1, 2, 0,19, 0.00,60.00,Tuesday
7,5.6
545,23.29307021113348
546,9.297239407135537
547,16.802737462244174
548,0.7403967440341561
720,-2900.817399881611
721,-2900.817399881611
784,0.0
785,0.0
848,0.0
849,0.0
1121,0.0
1135,0.0
1161,0.0
1163,198.07632193303525
1166,0.0
1168,0.0
2,2, 1, 2, 0,20, 0.00,60.00,Tuesday
7,6.0
545,23.297562714326805
546,7.405460880607429
547,16.81181210960338
548,0.0
720,-2646.899785867341
721,-2646.899785867341
784,0.0
785,0.0
848,0.0
849,0.0
1121,0.0
1135,0.0
1161,0.0
1163,200.0
1166,0.0
1168,0.0
2,2, 1, 2, 0,21, 0.00,60.00,Tuesday
7,4.4
545,22.89697988474919
546,5.734924381851293
547,16.797746097846847
548,0.0
720,-2244.3779059163426
721,-2244.3779059163426
784,0.0
785,0.0
848,0.0
849,0.0
1121,0.0
1135,0.0
1161,0.0
1163,200.0
1166,0.0
1168,0.0
2,2, 1, 2, 0,22, 0.00,60.00,Tuesday
7,6.1
545,22.65209177905855
546,4.923368167950443
547,16.765513296937836
548,0.0
720,-2175.060641364753
721,-2175.060641364753
784,0.0
785,0.0
848,0.0
849,0.0
1121,0.0
1135,0.0
1161,0.0
1163,200.0
1166,0.0
1168,0.0
2,2, 1, 2, 0,23, 0.00,60.00,Tuesday
7,4.4
545,21.72803238683425
546,4.333969109292313
547,16.716905962852973
548,0.0
720,-2093.3358533720584
721,-2093.3358533720584
784,0.0
785,0.0
848,0.0
849,0.0
1121,0.0
1135,0.0
1161,0.0
1163,200.0
1166,0.0
1168,0.0
2,2, 1, 2, 0,24, 0.00,60.00,Tuesday
7,4.4
545,21.03346445711852
546,2.8022563228638853
547,16.658861033592746
548,0.0
720,-1810.0052250849985
721,-1810.0052250849985
784,0.0
785,0.0
848,0.0
849,0.0
1121,0.0
1135,0.0
1161,0.0
1163,200.0
1166,0.0
1168,0.0
2,3, 1, 3, 0, 1, 0.00,60.00,Wednesday
7,2.2
545,19.956383036559348
546,1.8022813035366716
547,16.58713423536529
548,0.0
720,-961.3178832162539
721,-961.3178832162539
784,0.0
785,0.0
848,0.0
849,0.0
1121,0.0
1135,0.0
1161,0.0
1163,200.0
1166,0.0
1168,0.0
2,3, 1, 3, 0, 2, 0.00,60.00,Wednesday
7,4.4
545,19.40435806798675
546,2.237069098353026
547,16.506733275639654
548,0.0
720,-606.5574891832875
721,-606.5574891832875
784,0.0
785,0.0
848,0.0
849,0.0
1121,0.0
1135,0.0
1161,0.0
1163,200.0
1166,0.0
1168,0.0
2,3, 1, 3, 0, 3, 0.00,60.00,Wednesday
7,5.0
545,18.821351286108424
546,2.4570213391499323
547,16.42097712745841
548,0.0
720,-142.99832191070345
721,-142.99832191070345
784,0.0
785,0.0
848,0.0
849,0.0
1121,0.0
1135,0.0
1161,0.0
1163,200.0
1166,0.0
1168,0.0
2,3, 1, 3, 0, 4, 0.00,60.00,Wednesday
7,3.3
545,18.479673945633603
546,2.20640226728706
547,16.343929699263654
548,17.92796138693328
720,368.98491892139646
721,368.98491892139646
784,0.0
785,0.0
848,0.0
849,0.0
1121,525.1362824270849
1135,162.28234150618846
1161,13.692412629862583
1163,153.1370055350591
1166,0.0
1168,0.0
2,3, 1, 3, 0, 5, 0.00,60.00,Wednesday
7,3.3
545,18.454513612362348
546,2.074349708672427
547,16.254291170360673
548,30.000890066435673
720,569.9327090089237
721,569.9327090089237
784,0.0
785,0.0
848,0.0
849,0.0
1121,885.6419050802402
1135,266.79243204633565
1161,25.123557451069768
1163,121.52814628883606
1166,0.0
1168,0.0
2,3, 1, 3, 0, 6, 0.00,60.00,Wednesday
7,3.3
545,19.045916590090762
546,3.1186010951212815
547,16.1885680439703
548,76.97719870584957
720,1666.311405947923
721,1666.311405947923
784,0.0
785,0.0
848,0.0
849,0.0
1121,2472.7954920515
1135,687.348377136387
1161,58.40537009218471
1163,0.0
1166,0.0
1168,0.0
2,3, 1, 3, 0, 7, 0.00,60.00,Wednesday
7,3.9
545,19.17063987742087
546,3.5858412451206427
547,16.129650984005202
548,76.97719870584957
720,1883.1869589515827
721,1883.1869589515827
784,0.0
785,0.0
848,0.0
849,0.0
1121,2516.563530770191
1135,702.1279178732974
1161,56.22538841527657
1163,0.0
1166,0.0
1168,0.0
2,3, 1, 3, 0, 8, 0.00,60.00,Wednesday
7,3.9
545,19.25260074306982
546,3.6164469091372733
547,16.05048888530187
548,76.97719870584957
720,1833.0978084255712
721,1833.0978084255712
784,0.0
785,0.0
848,0.0
849,0.0
1121,2515.343579046315
1135,703.7220984252021
1161,56.20537586396668
1163,0.0
1166,0.0
1168,0.0
2,3, 1, 3, 0, 9, 0.00,60.00,Wednesday
7,5.6
545,19.741976187594616
546,4.8438405278117616
547,15.95011231047321
548,52.799126979569685
720,1306.3801118544925
721,1306.3801118544925
784,0.0
785,0.0
848,0.0
849,0.0
1121,2213.9257883645446
1135,575.890480477452
1161,0.0
1163,62.81878824577849
1166,0.0
1168,0.0
2,3, 1, 3, 0,10, 0.00,60.00,Wednesday
7,7.8
545,19.9668039382845
546,7.400227945382586
547,15.847933215905567
548,19.685769875781435
720,363.1238816286277
721,363.1238816286277
784,0.0
785,0.0
848,0.0
849,0.0
1121,828.0912861218047
1135,221.858507440549
1161,0.0
1163,148.85298450257713
1166,0.0
1168,0.0
2,3, 1, 3, 0,11, 0.00,60.00,Wednesday
7,10.0
545,20.486646963280812
546,11.549584523585711
547,15.769014565623579
548,0.0
720,-551.0214891396226
721,-551.0214891396226
784,0.0
785,0.0
848,0.0
849,0.0
1121,0.0
1135,0.0
1161,0.0
1163,0.0
1166,0.0
1168,0.0
2,3, 1, 3, 0,12, 0.00,60.00,Wednesday
7,10.6
545,21.366316286770466
546,17.77968154300617
547,15.755197283690142
548,0.0
720,-1379.9173600899303
721,-1379.9173600899303
784,0.0
785,0.0
848,0.0
849,0.0
1121,0.0
1135,0.0
1161,0.0
1163,0.0
1166,0.0
1168,0.0
2,3, 1, 3, 0,13, 0.00,60.00,Wednesday
7,10.0
545,21.858377240123495
546,18.44028164701078
547,15.763032957467559
548,0.0
720,-1810.078728432376
721,-1810.078728432376
784,0.0
785,0.0
848,0.0
849,0.0
1121,0.0
1135,0.0
1161,0.0
1163,0.0
1166,0.0
1168,0.0
2,3, 1, 3, 0,14, 0.00,60.00,Wednesday
7,9.4
545,22.76319688759969
546,20.979816153271813
547,15.789430721460372
548,0.0
720,-2282.339079368352
721,-2282.339079368352
784,0.0
785,0.0
848,0.0
849,0.0
1121,0.0
1135,0.0
1161,0.0
1163,200.0
1166,0.0
1168,0.0
2,3, 1, 3, 0,15, 0.00,60.00,Wednesday
7,9.4
545,23.651141013537156
546,19.776394291331272
547,15.849025298395892
548,0.0
720,-2868.7121009122384
721,-2868.7121009122384
784,0.0
785,0.0
848,0.0
849,0.0
1121,0.0
1135,0.0
1161,0.0
1163,200.0
1166,0.0
1168,0.0
2,3, 1, 3, 0,16, 0.00,60.00,Wednesday
7,8.9
545,24.273698555267597
546,18.03139158141493
547,15.924534410305226
548,0.0
720,-3318.608617567459
721,-3318.608617567459
784,0.0
785,0.0
848,0.0
849,0.0
1121,0.0
1135,0.0
1161,0.0
1163,200.0
1166,0.0
1168,0.0
2,3, 1, 3, 0,17, 0.00,60.00,Wednesday
7,7.8
545,24.620849572599976
546,15.739866537782627
547,16.016314992710182
548,0.0
720,-3685.9170422694933
721,-3685.9170422694933
784,0.0
785,0.0
848,0.0
849,0.0
1121,0.0
1135,0.0
1161,0.0
1163,200.0
1166,0.0
1168,0.0
2,3, 1, 3, 0,18, 0.00,60.00,Wednesday
7,5.6
545,23.983562472909686
546,12.11282072791039
547,16.097967100064768
548,0.0
720,-3160.092040060312
721,-3160.092040060312
784,0.0
785,0.0
848,0.0
849,0.0
1121,0.0
1135,0.0
1161,0.0
1163,200.0
1166,0.0
1168,0.0
2,3, 1, 3, 0,19, 0.00,60.00,Wednesday
7,4.4
545,23.708168342749136
546,8.453564611353032
547,16.152667429008208
548,0.0
720,-3053.34559633971
721,-3053.34559633971
784,0.0
785,0.0
848,0.0
849,0.0
1121,0.0
1135,0.0
1161,0.0
1163,200.0
1166,0.0
1168,0.0
2,3, 1, 3, 0,20, 0.00,60.00,Wednesday
7,3.9
545,23.480238239588605
546,5.866888748035989
547,16.174038680846888
548,0.0
720,-2900.3848848349426
721,-2900.3848848349426
784,0.0
785,0.0
848,0.0
849,0.0
1121,0.0
1135,0.0
1161,0.0
1163,200.0
1166,0.0
1168,0.0
2,3, 1, 3, 0,21, 0.00,60.00,Wednesday
7,4.4
545,23.182313793298505
546,4.65636188460237
547,16.16592917297896
548,0.0
720,-2609.448789797714
721,-2609.448789797714
784,0.0
785,0.0
848,0.0
849,0.0
1121,0.0
1135,0.0
1161,0.0
1163,200.0
1166,0.0
1168,0.0
2,3, 1, 3, 0,22, 0.00,60.00,Wednesday
7,2.2
545,22.333891038315418
546,3.376936016664313
547,16.136364202540417
548,0.0
720,-1935.8880434731982
721,-1935.8880434731982
784,0.0
785,0.0
848,0.0
849,0.0
1121,0.0
1135,0.0
1161,0.0
1163,200.0
1166,0.0
1168,0.0
2,3, 1, 3, 0,23, 0.00,60.00,Wednesday
7,3.3
545,21.70007270379482
546,2.923573545949028
547,16.09067099210946
548,0.0
720,-2471.1026091269996
721,-2471.1026091269996
784,0.0
785,0.0
848,0.0
849,0.0
1121,0.0
1135,0.0
1161,0.0
1163,200.0
1166,0.0
1168,0.0
2,3, 1, 3, 0,24, 0.00,60.00,Wednesday
7,3.3
545,20.82440112928986
546,2.5012410117537613
547,16.028978079764908
548,0.0
720,-1668.6006543043532
721,-1668.6006543043532
784,0.0
785,0.0
848,0.0
849,0.0
1121,0.0
1135,0.0
1161,0.0
1163,200.0
1166,0.0
1168,0.0
2,4, 1, 4, 0, 1, 0.00,60.00,Thursday
7,3.3
545,19.947410353778928
546,2.5306107712334382
547,15.955148715993067
548,0.0
720,-1004.5299741243161
721,-1004.5299741243161
784,0.0
785,0.0
848,0.0
849,0.0
1121,0.0
1135,0.0
1161,0.0
1163,200.0
1166,0.0
1168,0.0
2,4, 1, 4, 0, 2, 0.00,60.00,Thursday
7,2.8
545,19.144485134496865
546,1.7595779807489638
547,15.8754260450558
548,0.0
720,-395.26543356475304
721,-395.26543356475304
784,0.0
785,0.0
848,0.0
849,0.0
1121,0.0
1135,0.0
1161,0.0
1163,200.0
1166,0.0
1168,0.0
2,4, 1, 4, 0, 3, 0.00,60.00,Thursday
7,1.7
545,19.198955853977782
546,1.5010852489060746
547,15.845026826530791
548,45.67734418326344
720,202.97439140274764
721,202.97439140274764
784,0.0
785,0.0
848,0.0
849,0.0
1121,1342.4671280003165
1135,412.2390178929352
1161,33.638371110518236
1163,80.3072353547676
1166,0.0
1168,0.0
2,4, 1, 4, 0, 4, 0.00,60.00,Thursday
7,2.8
545,18.93389769650351
546,1.959107930138289
547,15.752055006884452
548,44.94610543017783
720,538.9399500691688
721,538.9399500691688
784,0.0
785,0.0
848,0.0
849,0.0
1121,1342.4642046045226
1135,405.05758131410016
1161,36.2790355446137
1163,82.35960431078975
1166,0.0
1168,0.0
2,4, 1, 4, 0, 5, 0.00,60.00,Thursday
7,2.2
545,18.667517226982408
546,2.2222295501395997
547,15.66483276066083
548,52.69596529644827
720,820.5443496324751
721,820.5443496324751
784,0.0
785,0.0
848,0.0
849,0.0
1121,1577.7404304979507
1135,472.4535223812687
1161,40.96247524918375
1163,61.97072314974146
1166,0.0
1168,0.0
2,4, 1, 4, 0, 6, 0.00,60.00,Thursday
7,1.7
545,18.83161873597623
546,2.4616063604528917
547,15.591149454153022
548,76.97719870584957
720,1891.6802682257076
721,1891.6802682257076
784,0.0
785,0.0
848,0.0
849,0.0
1121,2355.453988012064
1135,675.1351533514139
1161,61.201242699783926
1163,0.0
1166,0.0
1168,0.0
2,4, 1, 4, 0, 7, 0.00,60.00,Thursday
7,1.7
545,18.76348584037144
546,2.378118000188318
547,15.511385046494789
548,76.97719870584957
720,2112.14435807432
721,2112.14435807432
784,0.0
785,0.0
848,0.0
849,0.0
1121,2353.9729521289782
1135,677.2016063763681
1161,61.158422415880914
1163,0.0
1166,0.0
1168,0.0
2,4, 1, 4, 0, 8, 0.00,60.00,Thursday
7,1.7
545,18.652485751979732
546,2.411104237385204
547,15.426293265367386
548,76.97719870584957
720,2220.686929410458
721,2220.686929410458
784,0.0
785,0.0
848,0.0
849,0.0
1121,2354.913401300743
1135,676.2823252793278
1161,61.13169015237201
1163,0.0
1166,0.0
1168,0.0
2,4, 1, 4, 0, 9, 0.00,60.00,Thursday
7,2.0
545,18.85452117057864
546,3.6488002491297764
547,15.340862029605338
548,76.97719870584957
720,1970.9026130423154
721,1970.9026130423154
784,0.0
785,0.0
848,0.0
849,0.0
1121,2359.376633615999
1135,672.2163384987141
1161,64.24997453424093
1163,0.0
1166,0.0
1168,0.0
2,4, 1, 4, 0,10, 0.00,60.00,Thursday
7,4.0
545,19.478625783954236
546,6.086817654309274
547,15.288599909854378
548,76.97719870584957
720,1457.280932699996
721,1457.280932699996
784,0.0
785,0.0
848,0.0
849,0.0
1121,2483.834941078257
1135,687.7195761082571
1161,64.23594479634411
1163,0.0
1166,0.0
1168,0.0
2,4, 1, 4, 0,11, 0.00,60.00,Thursday
7,7.0
545,19.924959830696242
546,8.926530047380677
547,15.174401158885106
548,30.108216984078794
720,655.1110653030755
721,655.1110653030755
784,0.0
785,0.0
848,0.0
849,0.0
1121,1262.562558829923
1135,334.3716902732481
1161,0.0
1163,121.77367456789294
1166,0.0
1168,0.0
2,4, 1, 4, 0,12, 0.00,60.00,Thursday
7,8.9
545,19.796112545623455
546,12.025743955937601
547,15.095757794470403
548,5.00923601491098
720,12.163611601592493
721,12.163611601592493
784,0.0
785,0.0
848,0.0
849,0.0
1121,211.82993812261483
1135,57.29130130039405
1161,0.0
1163,186.9851433953771
1166,0.0
1168,0.0
2,4, 1, 4, 0,13, 0.00,60.00,Thursday
7,9.0
545,20.15868051411697
546,14.364829560936903
547,15.07621972350267
548,0.0
720,-245.53885591801918
721,-245.53885591801918
784,0.0
785,0.0
848,0.0
849,0.0
1121,0.0
1135,0.0
1161,0.0
1163,200.0
1166,0.0
1168,0.0
2,4, 1, 4, 0,14, 0.00,60.00,Thursday
7,10.0
545,20.375894898041015
546,15.170742137537719
547,15.083134350596726
548,0.0
720,-428.7057350453015
721,-428.7057350453015
784,0.0
785,0.0
848,0.0
849,0.0
1121,0.0
1135,0.0
1161,0.0
1163,0.0
1166,0.0
1168,0.0
2,4, 1, 4, 0,15, 0.00,60.00,Thursday
7,9.4
545,20.95124834281147
546,15.968620611175213
547,15.097486855744133
548,0.0
720,-782.7069370313075
721,-782.7069370313075
784,0.0
785,0.0
848,0.0
849,0.0
1121,0.0
1135,0.0
1161,0.0
1163,200.0
1166,0.0
1168,0.0
2,4, 1, 4, 0,16, 0.00,60.00,Thursday
7,9.4
545,21.134046852104873
546,14.875732568703006
547,15.131371457023292
548,0.0
720,-936.6069705145146
721,-936.6069705145146
784,0.0
785,0.0
848,0.0
849,0.0
1121,0.0
1135,0.0
1161,0.0
1163,200.0
1166,0.0
1168,0.0
2,4, 1, 4, 0,17, 0.00,60.00,Thursday
7,9.0
545,21.372998991317758
546,13.377894614524113
547,15.169472179458461
548,0.0
720,-1058.597672892036
721,-1058.597672892036
784,0.0
785,0.0
848,0.0
849,0.0
1121,0.0
1135,0.0
1161,0.0
1163,200.0
1166,0.0
1168,0.0
2,4, 1, 4, 0,18, 0.00,60.00,Thursday
7,8.0
545,21.3859174544223
546,12.002548092716726
547,15.207092009463949
548,0.0
720,-1071.0925865440622
721,-1071.0925865440622
784,0.0
785,0.0
848,0.0
849,0.0
1121,0.0
1135,0.0
1161,0.0
1163,200.0
1166,0.0
1168,0.0
2,4, 1, 4, 0,19, 0.00,60.00,Thursday
7,8.3
545,21.516518569583766
546,10.115061015816298
547,15.233865375414616
548,0.0
720,-1001.3424310481705
721,-1001.3424310481705
784,0.0
785,0.0
848,0.0
849,0.0
1121,0.0
1135,0.0
1161,0.0
1163,200.0
1166,0.0
1168,0.0
2,4, 1, 4, 0,20, 0.00,60.00,Thursday
7,8.9
545,21.72822822973358
546,9.677150308007482
547,15.248630901584422
548,0.0
720,-1076.4902915678413
721,-1076.4902915678413
784,0.0
785,0.0
848,0.0
849,0.0
1121,0.0
1135,0.0
1161,0.0
1163,200.0
1166,0.0
1168,0.0
2,4, 1, 4, 0,21, 0.00,60.00,Thursday
7,8.9
545,21.786368187239102
546,9.345215966532333
547,15.253029080199786
548,0.0
720,-1008.5459197198388
721,-1008.5459197198388
784,0.0
785,0.0
848,0.0
849,0.0
1121,0.0
1135,0.0
1161,0.0
1163,200.0
1166,0.0
1168,0.0
2,4, 1, 4, 0,22, 0.00,60.00,Thursday
7,8.3
545,21.52046100034293
546,8.76640948787632
547,15.247327749471598
548,0.0
720,-969.8370196060196
721,-969.8370196060196
784,0.0
785,0.0
848,0.0
849,0.0
1121,0.0
1135,0.0
1161,0.0
1163,200.0
1166,0.0
1168,0.0
2,4, 1, 4, 0,23, 0.00,60.00,Thursday
7,8.3
545,20.94267011857486
546,8.433601283602298
547,15.232698355320881
548,0.0
720,-1012.311386818883
721,-1012.311386818883
784,0.0
785,0.0
848,0.0
849,0.0
1121,0.0
1135,0.0
1161,0.0
1163,200.0
1166,0.0
1168,0.0
2,4, 1, 4, 0,24, 0.00,60.00,Thursday
7,7.2
545,20.18725601747795
546,7.513897860536425
547,15.211344460923673
548,0.0
720,-740.4774016278825
721,-740.4774016278825
784,0.0
785,0.0
848,0.0
849,0.0
1121,0.0
1135,0.0
1161,0.0
1163,200.0
1166,0.0
1168,0.0
2,5, 1, 5, 0, 1, 0.00,60.00,Friday
7,6.0
545,19.34501236032963
546,6.388150239310358
547,15.180299857015498
548,0.0
720,-407.1039293648837
721,-407.1039293648837
784,0.0
785,0.0
848,0.0
849,0.0
1121,0.0
1135,0.0
1161,0.0
1163,200.0
1166,0.0
1168,0.0
2,5, 1, 5, 0, 2, 0.00,60.00,Friday
7,5.6
545,18.79043212925166
546,4.429791938249809
547,15.144105202680597
548,0.0
720,-116.96548957483537
721,-116.96548957483537
784,0.0
785,0.0
848,0.0
849,0.0
1121,0.0
1135,0.0
1161,0.0
1163,200.0
1166,0.0
1168,0.0
2,5, 1, 5, 0, 3, 0.00,60.00,Friday
7,5.0
545,18.62328565431458
546,4.1653470075232635
547,15.118606833790137
548,12.023666516291103
720,195.31042111201805
721,195.31042111201805
784,0.0
785,0.0
848,0.0
849,0.0
1121,357.42211352894225
1135,107.89065179316344
1161,10.717773004026995
1163,168.63756409558047
1166,0.0
1168,0.0
2,5, 1, 5, 0, 4, 0.00,60.00,Friday
7,6.1
545,18.660432969525026
546,5.0009064801058285
547,15.067773813289014
548,14.007920965001189
720,370.61768271515393
721,370.61768271515393
784,0.0
785,0.0
848,0.0
849,0.0
1121,562.8220244068792
1135,151.69007827267853
1161,0.0
1163,163.60501239197026
1166,0.0
1168,0.0
2,5, 1, 5, 0, 5, 0.00,60.00,Friday
7,6.1
545,18.474142464021934
546,5.868080508235001
547,15.026860885226954
548,21.137367618390986
720,584.3395113646839
721,584.3395113646839
784,0.0
785,0.0
848,0.0
849,0.0
1121,858.0968516779511
1135,229.00929592561445
1161,0.0
1163,145.0814839361393
1166,0.0
1168,0.0
2,5, 1, 5, 0, 6, 0.00,60.00,Friday
7,6.0
545,19.384142950562232
546,6.174492990868706
547,15.021867725591566
548,51.968080071691986
720,1578.2102272547472
721,1578.2102272547472
784,0.0
785,0.0
848,0.0
849,0.0
1121,2206.4198578140804
1135,560.3747621301288
1161,0.0
1163,64.9779910275096
1166,0.0
1168,0.0