Program Version,EnergyPlus, Version 22.2.0-c249759bad, YMD=2023.09.01 20:41
1,5,Environment Title[],Latitude[deg],Longitude[deg],Time Zone[],Elevation[m]
2,8,Day of Simulation[],Month[],Day of Month[],DST Indicator[1=yes 0=no],Hour[],StartMinute[],EndMinute[],DayType
3,5,Cumulative Day of Simulation[],Month[],Day of Month[],DST Indicator[1=yes 0=no],DayType  ! When Daily Report Variables Requested
4,2,Cumulative Days of Simulation[],Month[]  ! When Monthly Report Variables Requested
5,1,Cumulative Days of Simulation[] ! When Run Period Report Variables Requested
6,1,Calendar Year of Simulation[] ! When Annual Report Variables Requested
581,11,LIVING,AFN Zone Infiltration Air Change Rate [ach] !RunPeriod [Value,Min,Month,Day,Hour,Minute,Max,Month,Day,Hour,Minute]
582,11,ATTIC,AFN Zone Infiltration Air Change Rate [ach] !RunPeriod [Value,Min,Month,Day,Hour,Minute,Max,Month,Day,Hour,Minute]
583,11,CRAWLSPACE,AFN Zone Infiltration Air Change Rate [ach] !RunPeriod [Value,Min,Month,Day,Hour,Minute,Max,Month,Day,Hour,Minute]
1038,11,Facility,Facility Heating Setpoint Not Met Time [hr] !RunPeriod [Value,Min,Month,Day,Hour,Minute,Max,Month,Day,Hour,Minute]
1039,11,Facility,Facility Cooling Setpoint Not Met Time [hr] !RunPeriod [Value,Min,Month,Day,Hour,Minute,Max,Month,Day,Hour,Minute]
1115,11,DX_HEATING_COIL,Heating Coil Heating Energy [J] !RunPeriod [Value,Min,Month,Day,Hour,Minute,Max,Month,Day,Hour,Minute]
1128,11,DX_HEATING_COIL,Heating Coil Electricity Energy [J] !RunPeriod [Value,Min,Month,Day,Hour,Minute,Max,Month,Day,Hour,Minute]
1153,11,DX_HEATING_COIL,Heating Coil Defrost Electricity Energy [J] !RunPeriod [Value,Min,Month,Day,Hour,Minute,Max,Month,Day,Hour,Minute]
1154,11,DX_HEATING_COIL,Heating Coil Crankcase Heater Electricity Energy [J] !RunPeriod [Value,Min,Month,Day,Hour,Minute,Max,Month,Day,Hour,Minute]
1155,11,HEATING_RESISTANCE_BACKUP,Heating Coil Heating Energy [J] !RunPeriod [Value,Min,Month,Day,Hour,Minute,Max,Month,Day,Hour,Minute]
1156,11,HEATING_RESISTANCE_BACKUP,Heating Coil Electricity Energy [J] !RunPeriod [Value,Min,Month,Day,Hour,Minute,Max,Month,Day,Hour,Minute]
1292,11,WATER HEATER,Water Heater Heat Loss Energy [J] !RunPeriod [Value,Min,Month,Day,Hour,Minute,Max,Month,Day,Hour,Minute]
1306,11,WATER HEATER,Water Heater Heating Energy [J] !RunPeriod [Value,Min,Month,Day,Hour,Minute,Max,Month,Day,Hour,Minute]
1307,11,WATER HEATER,Water Heater Unmet Demand Heat Transfer Energy [J] !RunPeriod [Value,Min,Month,Day,Hour,Minute,Max,Month,Day,Hour,Minute]
1308,11,WATER HEATER,Water Heater Electricity Energy [J] !RunPeriod [Value,Min,Month,Day,Hour,Minute,Max,Month,Day,Hour,Minute]
13,11,Electricity:Facility [J] !RunPeriod [Value,Min,Month,Day,Hour,Minute,Max,Month,Day,Hour,Minute]
1134,11,Heating:Electricity [J] !RunPeriod [Value,Min,Month,Day,Hour,Minute,Max,Month,Day,Hour,Minute]
1096,11,Cooling:Electricity [J] !RunPeriod [Value,Min,Month,Day,Hour,Minute,Max,Month,Day,Hour,Minute]
562,11,Fans:Electricity [J] !RunPeriod [Value,Min,Month,Day,Hour,Minute,Max,Month,Day,Hour,Minute]
1379,11,Pumps:Electricity [J] !RunPeriod [Value,Min,Month,Day,Hour,Minute,Max,Month,Day,Hour,Minute]
1326,11,WaterSystems:Electricity [J] !RunPeriod [Value,Min,Month,Day,Hour,Minute,Max,Month,Day,Hour,Minute]
61,11,InteriorLights:Electricity [J] !RunPeriod [Value,Min,Month,Day,Hour,Minute,Max,Month,Day,Hour,Minute]
1046,11,ExteriorLights:Electricity [J] !RunPeriod [Value,Min,Month,Day,Hour,Minute,Max,Month,Day,Hour,Minute]
134,11,InteriorEquipment:Electricity [J] !RunPeriod [Value,Min,Month,Day,Hour,Minute,Max,Month,Day,Hour,Minute]
170,11,gas_dryer:InteriorEquipment:Electricity [J] !RunPeriod [Value,Min,Month,Day,Hour,Minute,Max,Month,Day,Hour,Minute]
207,11,clotheswasher:InteriorEquipment:Electricity [J] !RunPeriod [Value,Min,Month,Day,Hour,Minute,Max,Month,Day,Hour,Minute]
244,11,dishwasher:InteriorEquipment:Electricity [J] !RunPeriod [Value,Min,Month,Day,Hour,Minute,Max,Month,Day,Hour,Minute]
281,11,refrigerator:InteriorEquipment:Electricity [J] !RunPeriod [Value,Min,Month,Day,Hour,Minute,Max,Month,Day,Hour,Minute]
318,11,electric_mels:InteriorEquipment:Electricity [J] !RunPeriod [Value,Min,Month,Day,Hour,Minute,Max,Month,Day,Hour,Minute]
355,11,NaturalGas:Facility [J] !RunPeriod [Value,Min,Month,Day,Hour,Minute,Max,Month,Day,Hour,Minute]
403,11,InteriorEquipment:NaturalGas [J] !RunPeriod [Value,Min,Month,Day,Hour,Minute,Max,Month,Day,Hour,Minute]
476,11,gas_dryer:InteriorEquipment:NaturalGas [J] !RunPeriod [Value,Min,Month,Day,Hour,Minute,Max,Month,Day,Hour,Minute]
513,11,gas_mels:InteriorEquipment:NaturalGas [J] !RunPeriod [Value,Min,Month,Day,Hour,Minute,Max,Month,Day,Hour,Minute]
End of Data Dictionary
1,EXTREME_WINTER,  34.35, -85.17,  -5.00, 196.00
5,7
1038,0.25,0.0, 1,27, 1,15,0.25, 1,29, 6,15
1039,0.0,0.0, 1,27, 1,15,0.0, 1,27, 1,15
581,0.2800051230617303,0.13000634290390536, 2, 1,10,46,0.5458791670197258, 1,28,22,60
582,2.5654657754911963,0.0, 1,27, 3,37,11.652645592805092, 1,28,14,60
583,0.022145788089145003,0.00024041696358961616, 2, 1,10,57,0.07917343454263104, 1,31, 4,60
1115,708058555.6590147,0.0, 1,27, 1, 7,4252103.339829585, 1,30, 6,45
1128,233497950.08814356,0.0, 1,27, 1, 7,1330741.380544225, 1,30, 6,45
1153,5707558.927264316,0.0, 1,27, 1, 7,62801.36412328686, 2, 1, 6,60
1154,77090756.54034176,0.0, 1,27, 6, 5,180000.0, 1,27,22,15
1155,47916541.24781505,0.0, 1,27, 1, 7,1952403.884328181, 1,29, 6,45
1156,47916541.24781505,0.0, 1,27, 1, 7,1952403.884328181, 1,29, 6,45
1292,-24440765.584481716,-39731.08840689141, 1,29, 4,15,-3403.868080912952, 2, 1,11,29
1306,242406445.25531346,0.0, 1,27, 1, 7,4050000.0, 1,27, 8,45
1307,73913065.34707808,0.0, 1,27, 1, 7,12358210.638069877, 1,27, 8,30
1308,242406445.25531346,0.0, 1,27, 1, 7,4050000.0, 1,27, 8,45
13,1014770723.1454653,272017.0388981225, 1,27,15,15,7685154.252016494, 1,29, 7,60
61,301924526.02383536,88139.10953165221, 1,27, 1,15,1282023.4113694867, 1,27,20,15
134,70666020.44019976,63564.01800854099, 1,27, 4,15,156554.22484006523, 2, 1,20,15
170,5241013.419656067,348.4159749238097, 1,27, 4,15,17476.39704006126, 2, 1,12,15
207,6509451.13922267,815.2532113832032, 1,27, 3,15,22990.642799023623, 2, 1,10,15
244,12749673.399825225,1521.856143006317, 1,27, 4,15,53038.631142310165, 2, 1,20,15
281,46165882.481495745,59938.60262432081, 1,27, 5,15,81951.81706819107, 1,27,19,15
318,0.0,0.0, 1,27, 1,15,0.0, 1,27, 1,15
355,197687796.27748066,18561.32405820678, 1,27, 4,15,724774.895203776, 2, 1,18,15
403,197687796.27748066,18561.32405820678, 1,27, 4,15,724774.895203776, 2, 1,18,15
476,106772067.24485716,7098.072629279515, 1,27, 4,15,356036.3026282215, 2, 1,12,15
513,0.0,0.0, 1,27, 1,15,0.0, 1,27, 1,15
562,26273141.142691795,0.0, 1,27, 1,15,139601.7205959748, 1,27, 6,60
1046,0.0,0.0, 1,27, 1,15,0.0, 1,27, 1,15
1096,9287783.479860796,0.0, 1,27, 1,15,395743.6395302319, 2, 1,17,45
1134,364212806.8035645,0.0, 1,27,12,30,3751698.954132091, 1,29, 6,15
1326,242406445.25531346,0.0, 1,27, 1,15,4050000.0, 1,27, 8,45
1379,0.0,0.0, 1,27, 1,15,0.0, 1,27, 1,15
1,EXTREME_SUMMER,  34.35, -85.17,  -5.00, 196.00
5,7
1038,0.0,0.0, 6,15, 1,15,0.0, 6,15, 1,15
1039,53.75,0.0, 6,15, 1,15,0.25, 6,15,14,30
581,0.06863665297211317,0.0, 6,15, 8,46,0.34691109516444985, 6,18,14,46
582,2.100637358702105,0.0, 6,15,21,32,9.683587196404948, 6,20,16,48
583,0.04391264891107607,0.0, 6,15,23, 3,0.07240506843933486, 6,18,14,46
1115,0.0,0.0, 6,15, 1, 7,0.0, 6,15, 1, 7
1128,0.0,0.0, 6,15, 1, 7,0.0, 6,15, 1, 7
1153,0.0,0.0, 6,15, 1, 7,0.0, 6,15, 1, 7
1154,0.0,0.0, 6,15, 1, 7,0.0, 6,15, 1, 7
1155,0.0,0.0, 6,15, 1, 7,0.0, 6,15, 1, 7
1156,0.0,0.0, 6,15, 1, 7,0.0, 6,15, 1, 7
1292,-21748014.894522227,-34048.35253559145, 6,21,12,30,-2857.4590594184865, 6,15, 8,31
1306,185253956.90221614,0.0, 6,15, 1, 7,4050000.0, 6,18, 6,60
1307,40549019.44498144,0.0, 6,15, 1, 7,1898697.230129988, 6,17,17,15
1308,185253956.90221614,0.0, 6,15, 1, 7,4050000.0, 6,18, 6,60
13,1200357572.0310931,209259.24077272392, 6,19, 4,60,6416854.96952665, 6,17,17,30
61,301924526.02383536,88139.10953165221, 6,15, 1,15,1282023.4113694867, 6,15,20,15
134,70666020.44019976,63564.01800854099, 6,15, 4,15,156554.22484006523, 6,20,20,15
170,5241013.419656067,348.4159749238097, 6,15, 4,15,17476.39704006126, 6,20,12,15
207,6509451.13922267,815.2532113832032, 6,15, 3,15,22990.642799023623, 6,20,10,15
244,12749673.399825225,1521.856143006317, 6,15, 4,15,53038.631142310165, 6,20,20,15
281,46165882.481495745,59938.60262432081, 6,15, 5,15,81951.81706819107, 6,15,19,15
318,0.0,0.0, 6,15, 1,15,0.0, 6,15, 1,15
355,197687796.27748066,18561.32405820678, 6,15, 4,15,724774.895203776, 6,20,18,15
403,197687796.27748066,18561.32405820678, 6,15, 4,15,724774.895203776, 6,20,18,15
476,106772067.24485716,7098.072629279515, 6,15, 4,15,356036.3026282215, 6,20,12,15
513,0.0,0.0, 6,15, 1,15,0.0, 6,15, 1,15
562,59912248.580601074,0.0, 6,19, 6,30,139601.7205959748, 6,15,14,15
1046,0.0,0.0, 6,15, 1,15,0.0, 6,15, 1,15
1096,582600820.0842413,0.0, 6,19, 6,30,1533955.1881413902, 6,17,15,60
1134,0.0,0.0, 6,15, 1,15,0.0, 6,15, 1,15
1326,185253956.90221608,0.0, 6,15, 1,15,4050000.0, 6,15, 8,45
1379,0.0,0.0, 6,15, 1,15,0.0, 6,15, 1,15
1,ANNUAL,  34.35, -85.17,  -5.00, 196.00
5,365
1038,2.25,0.0, 1, 1, 1,15,0.25, 1, 2, 6,15
1039,738.25,0.0, 1, 1, 1,15,0.25, 1, 6,17,15
581,0.1537166845277881,0.0, 3,24, 8,47,1.746287624775795,11,17,23,48
582,1.9250084758114372,0.0, 1, 2,21,50,46.7418829275833,11,17,23,48
583,0.025811673388562578,0.0, 5, 9,23, 3,0.0812790403833043, 8,19,17,47
1115,6824725514.98308,0.0, 1, 1, 1,15,4400599.649780419, 1,30, 6,45
1128,2144272616.36676,0.0, 1, 1, 1,15,1367193.6952691944, 3, 2, 8,30
1153,69242936.06210014,0.0, 1, 1, 1,15,92680.97089183924, 3,30, 6,45
1154,1337291166.192519,0.0, 1, 1, 1,60,180000.0, 1, 1, 1,15
1155,296410022.93730927,0.0, 1, 1, 1,15,2847732.680661579, 2, 5, 6,60
1156,296410022.93730927,0.0, 1, 1, 1,15,2847732.680661579, 2, 5, 6,60
1292,-1189061818.9944296,-39765.7829961996, 1,18, 3,60,-1955.240734799922, 3,19,10,29
1306,10939349223.320147,0.0, 1, 1, 1,15,4050000.0, 1, 2, 8,45
1307,2828052327.9101424,0.0, 1, 1, 1,15,12364850.499401415, 1,30, 8,30
1308,10939349223.320147,0.0, 1, 1, 1,15,4050000.0, 1, 2, 8,45
13,48965635875.26744,151703.1275401932, 1, 5, 4,15,7512000.104900852, 1,31, 7,15
61,15743207428.383959,88139.10953165221, 1, 1, 1,15,1282023.4113694867, 1, 1,20,15
134,3685071073.4325233,63564.01800854099, 1, 2, 4,15,156554.22484006523, 1, 1,20,15
170,273393721.45532674,348.4159749238097, 1, 2, 4,15,17476.39704006126, 1, 1,12,15
207,339560869.0695816,815.2532113832032, 1, 2, 3,15,22990.642799023623, 1, 1,10,15
244,664895467.8009144,1521.856143006317, 1, 2, 4,15,53038.631142310165, 1, 1,20,15
281,2407221015.106824,59938.60262432081, 1, 1, 5,15,81951.81706819107, 1, 1,19,15
318,0.0,0.0, 1, 1, 1,15,0.0, 1, 1, 1,15
355,10310294493.051695,18561.32405820678, 1, 2, 4,15,724774.895203776, 1, 1,18,15
403,10310294493.051695,18561.32405820678, 1, 2, 4,15,724774.895203776, 1, 1,18,15
476,5569688622.066177,7098.072629279515, 1, 2, 4,15,356036.3026282215, 1, 1,12,15
513,0.0,0.0, 1, 1, 1,15,0.0, 1, 1, 1,15
562,1705387440.703117,0.0, 1, 1, 1,15,139601.72059597485, 6,25,15,45
1046,0.0,0.0, 1, 1, 1,15,0.0, 1, 1, 1,15
1096,13045403967.867645,0.0, 1, 1, 1,15,1557449.114084464, 6,24,15,60
1134,3847216741.55869,0.0, 1, 1, 1,60,4713092.206973911, 2, 5, 6,15
1326,10939349223.320148,0.0, 1, 1, 1,15,4050000.0000000014, 3,19,10,30
1379,0.0,0.0, 1, 1, 1,15,0.0, 1, 1, 1,15
End of Data
 Number of Records Written=          99
