Program Version,EnergyPlus, Version 22.2.0-c249759bad, YMD=2023.07.07 15:08
1,5,Environment Title[],Latitude[deg],Longitude[deg],Time Zone[],Elevation[m]
2,8,Day of Simulation[],Month[],Day of Month[],DST Indicator[1=yes 0=no],Hour[],StartMinute[],EndMinute[],DayType
3,5,Cumulative Day of Simulation[],Month[],Day of Month[],DST Indicator[1=yes 0=no],DayType  ! When Daily Report Variables Requested
4,2,Cumulative Days of Simulation[],Month[]  ! When Monthly Report Variables Requested
5,1,Cumulative Days of Simulation[] ! When Run Period Report Variables Requested
6,1,Calendar Year of Simulation[] ! When Annual Report Variables Requested
581,11,LIVING,AFN Zone Infiltration Air Change Rate [ach] !RunPeriod [Value,Min,Month,Day,Hour,Minute,Max,Month,Day,Hour,Minute]
582,11,ATTIC,AFN Zone Infiltration Air Change Rate [ach] !RunPeriod [Value,Min,Month,Day,Hour,Minute,Max,Month,Day,Hour,Minute]
583,11,CRAWLSPACE,AFN Zone Infiltration Air Change Rate [ach] !RunPeriod [Value,Min,Month,Day,Hour,Minute,Max,Month,Day,Hour,Minute]
1038,11,Facility,Facility Heating Setpoint Not Met Time [hr] !RunPeriod [Value,Min,Month,Day,Hour,Minute,Max,Month,Day,Hour,Minute]
1039,11,Facility,Facility Cooling Setpoint Not Met Time [hr] !RunPeriod [Value,Min,Month,Day,Hour,Minute,Max,Month,Day,Hour,Minute]
1115,11,DX_HEATING_COIL,Heating Coil Heating Energy [J] !RunPeriod [Value,Min,Month,Day,Hour,Minute,Max,Month,Day,Hour,Minute]
1128,11,DX_HEATING_COIL,Heating Coil Electricity Energy [J] !RunPeriod [Value,Min,Month,Day,Hour,Minute,Max,Month,Day,Hour,Minute]
1153,11,DX_HEATING_COIL,Heating Coil Defrost Electricity Energy [J] !RunPeriod [Value,Min,Month,Day,Hour,Minute,Max,Month,Day,Hour,Minute]
1154,11,DX_HEATING_COIL,Heating Coil Crankcase Heater Electricity Energy [J] !RunPeriod [Value,Min,Month,Day,Hour,Minute,Max,Month,Day,Hour,Minute]
1156,11,HEATING_RESISTANCE_BACKUP,Heating Coil Electricity Energy [J] !RunPeriod [Value,Min,Month,Day,Hour,Minute,Max,Month,Day,Hour,Minute]
13,11,Electricity:Facility [J] !RunPeriod [Value,Min,Month,Day,Hour,Minute,Max,Month,Day,Hour,Minute]
1134,11,Heating:Electricity [J] !RunPeriod [Value,Min,Month,Day,Hour,Minute,Max,Month,Day,Hour,Minute]
1096,11,Cooling:Electricity [J] !RunPeriod [Value,Min,Month,Day,Hour,Minute,Max,Month,Day,Hour,Minute]
562,11,Fans:Electricity [J] !RunPeriod [Value,Min,Month,Day,Hour,Minute,Max,Month,Day,Hour,Minute]
1388,11,Pumps:Electricity [J] !RunPeriod [Value,Min,Month,Day,Hour,Minute,Max,Month,Day,Hour,Minute]
1360,11,WaterSystems:Electricity [J] !RunPeriod [Value,Min,Month,Day,Hour,Minute,Max,Month,Day,Hour,Minute]
61,11,InteriorLights:Electricity [J] !RunPeriod [Value,Min,Month,Day,Hour,Minute,Max,Month,Day,Hour,Minute]
1046,11,ExteriorLights:Electricity [J] !RunPeriod [Value,Min,Month,Day,Hour,Minute,Max,Month,Day,Hour,Minute]
134,11,InteriorEquipment:Electricity [J] !RunPeriod [Value,Min,Month,Day,Hour,Minute,Max,Month,Day,Hour,Minute]
170,11,gas_dryer:InteriorEquipment:Electricity [J] !RunPeriod [Value,Min,Month,Day,Hour,Minute,Max,Month,Day,Hour,Minute]
207,11,clotheswasher:InteriorEquipment:Electricity [J] !RunPeriod [Value,Min,Month,Day,Hour,Minute,Max,Month,Day,Hour,Minute]
244,11,dishwasher:InteriorEquipment:Electricity [J] !RunPeriod [Value,Min,Month,Day,Hour,Minute,Max,Month,Day,Hour,Minute]
281,11,refrigerator:InteriorEquipment:Electricity [J] !RunPeriod [Value,Min,Month,Day,Hour,Minute,Max,Month,Day,Hour,Minute]
318,11,electric_mels:InteriorEquipment:Electricity [J] !RunPeriod [Value,Min,Month,Day,Hour,Minute,Max,Month,Day,Hour,Minute]
355,11,NaturalGas:Facility [J] !RunPeriod [Value,Min,Month,Day,Hour,Minute,Max,Month,Day,Hour,Minute]
1323,11,WaterSystems:NaturalGas [J] !RunPeriod [Value,Min,Month,Day,Hour,Minute,Max,Month,Day,Hour,Minute]
403,11,InteriorEquipment:NaturalGas [J] !RunPeriod [Value,Min,Month,Day,Hour,Minute,Max,Month,Day,Hour,Minute]
476,11,gas_dryer:InteriorEquipment:NaturalGas [J] !RunPeriod [Value,Min,Month,Day,Hour,Minute,Max,Month,Day,Hour,Minute]
513,11,gas_mels:InteriorEquipment:NaturalGas [J] !RunPeriod [Value,Min,Month,Day,Hour,Minute,Max,Month,Day,Hour,Minute]
End of Data Dictionary
1,EXTREME_WINTER,  33.93,-118.40,  -8.00,  32.00
5,7
1038,0.0,0.0, 2,15, 1,10,0.0, 2,15, 1,10
1039,0.0,0.0, 2,15, 1,10,0.0, 2,15, 1,10
581,0.1896014941066268,0.09137701805990923, 2,17,22,60,0.5935734733468948, 2,16,16,59
582,3.398209346313918,0.0, 2,15, 4,20,13.056052324973395, 2,15,12,55
583,3.413341260925259,0.0001391215017633267, 2,19, 9,31,16.21167964986941, 2,16,17,15
1115,7021052.42952251,0.0, 2,15, 1, 3,751677.5650214801, 2,16, 6, 2
1128,1876081.4075124916,0.0, 2,15, 1, 3,184344.97092789382, 2,16, 6, 2
1153,0.0,0.0, 2,15, 1, 3,0.0, 2,15, 1, 3
1154,16276552.062088007,0.0, 2,15, 1, 3,120000.0, 2,15, 1,40
1156,0.0,0.0, 2,15, 1, 3,0.0, 2,15, 1, 3
13,505480309.2198733,106115.4183601288, 2,17, 4,10,1183485.6784627344, 2,21,20,10
61,301924526.0238348,58759.40635443481, 2,15, 1,10,854682.2742463244, 2,15,20,10
134,70666020.44019979,42376.01200569399, 2,15, 4,10,104369.48322671017, 2,20,20,10
170,5241013.419656074,232.27731661587313, 2,15, 4,10,11650.931360040839, 2,20,12,10
207,6509451.13922266,543.5021409221355, 2,15, 3,10,15327.095199349082, 2,20,10,10
244,12749673.39982522,1014.5707620042115, 2,15, 4,10,35359.08742820678, 2,20,20,10
281,46165882.48149605,39959.06841621388, 2,15, 5,10,54634.54471212738, 2,15,19,10
318,0.0,0.0, 2,15, 1,10,0.0, 2,15, 1,10
355,741882890.2537057,12374.216038804521, 2,15, 4,10,3829218.154066982, 2,19,18,20
403,197687796.27748126,12374.216038804521, 2,15, 4,10,483183.26346918393, 2,20,18,10
476,106772067.24485692,4732.048419519677, 2,15, 4,10,237357.535085481, 2,20,12,10
513,0.0,0.0, 2,15, 1,10,0.0, 2,15, 1,10
562,13319936.155515488,0.0, 2,15, 1,10,55985.23137034722, 2,16,17,20
1046,0.0,0.0, 2,15, 1,10,0.0, 2,15, 1,10
1096,96397353.13072358,0.0, 2,15, 1,10,427328.89633150684, 2,16,16,10
1134,18152633.469600502,0.0, 2,15, 1,10,366482.27008498996, 2,16, 6,10
1323,544195093.9762213,0.0, 2,15, 1,10,3375000.0000000005, 2,15,21,60
1360,5019840.0,4980.0, 2,15, 1,20,4980.000000000002, 2,17,10,10
1388,0.0,0.0, 2,15, 1,10,0.0, 2,15, 1,10
1,EXTREME_SUMMER,  33.93,-118.40,  -8.00,  32.00
5,7
1038,0.0,0.0, 8,29, 1,10,0.0, 8,29, 1,10
1039,50.50000000000001,0.0, 8,29, 1,10,0.16666666666666666, 8,29,16,40
581,0.09835249853445938,0.0, 8,29, 3,30,0.42741214078266093, 8,29,14,55
582,3.44941454911571,0.037650224901152975, 8,30, 8,24,14.241502252045873, 8,31,14,53
583,3.297788028357856,0.0, 9, 3,23, 3,13.163375554503661, 8,29,14,55
1115,0.0,0.0, 8,29, 1,10,0.0, 8,29, 1,10
1128,0.0,0.0, 8,29, 1,10,0.0, 8,29, 1,10
1153,0.0,0.0, 8,29, 1,10,0.0, 8,29, 1,10
1154,0.0,0.0, 8,29, 1,10,0.0, 8,29, 1,10
1156,0.0,0.0, 8,29, 1,10,0.0, 8,29, 1,10
13,778649067.5757626,106115.4183601288, 8,29, 4,60,1601048.267365366, 9, 4,20,10
61,301924526.0238348,58759.40635443481, 8,29, 1,10,854682.2742463244, 8,29,20,10
134,70666020.44019979,42376.01200569399, 8,29, 4,10,104369.48322671017, 9, 3,20,10
170,5241013.419656074,232.27731661587313, 8,29, 4,10,11650.931360040839, 9, 3,12,10
207,6509451.13922266,543.5021409221355, 8,29, 3,10,15327.095199349082, 9, 3,10,10
244,12749673.39982522,1014.5707620042115, 8,29, 4,10,35359.08742820678, 9, 3,20,10
281,46165882.48149605,39959.06841621388, 8,29, 5,10,54634.54471212738, 8,29,19,10
318,0.0,0.0, 8,29, 1,10,0.0, 8,29, 1,10
355,616238001.5496767,12374.216038804521, 8,29, 4,10,3829218.154066982, 8,30,18,60
403,197687796.27748126,12374.216038804521, 8,29, 4,10,483183.26346918393, 9, 3,18,10
476,106772067.24485692,4732.048419519677, 8,29, 4,10,237357.535085481, 9, 3,12,10
513,0.0,0.0, 8,29, 1,10,0.0, 8,29, 1,10
562,41966273.238787465,0.0, 8,29, 4,60,67986.68979865861, 8,29,14,60
1046,0.0,0.0, 8,29, 1,10,0.0, 8,29, 1,10
1096,359072407.8729405,0.0, 8,29, 4,60,639607.598386078, 9, 3,12,60
1134,0.0,0.0, 8,29, 1,10,0.0, 8,29, 1,10
1323,418550205.2721952,0.0, 8,29, 1,10,3375000.0000000005, 8,30,11,20
1360,5019840.0,4980.0, 8,29, 1,10,4980.000000000002, 9, 3,10,10
1388,0.0,0.0, 8,29, 1,10,0.0, 8,29, 1,10
1,ANNUAL,  33.93,-118.40,  -8.00,  32.00
5,365
1038,0.0,0.0, 1, 1, 1,10,0.0, 1, 1, 1,10
1039,801.000000000001,0.0, 1, 1, 1,10,0.16666666666666666, 1, 5,14,30
581,0.16501172768508834,0.0, 5,16,21,55,0.9512954041373989, 3,27,13,10
582,4.0538773053946064,0.0, 1, 1, 1,55,32.22555870452424,11,10,12,55
583,3.88811487108949,0.0, 8,13,23, 3,28.00079576454074, 3,27,13,10
1115,39515781.94633333,0.0, 1, 1, 1, 3,1134173.1653762911, 1,16, 6, 3
1128,10519552.890411623,0.0, 1, 1, 1, 3,271464.13623192394, 2,28, 6,30
1153,2646.375807435913,0.0, 1, 1, 1, 3,2646.375807435913,12,19, 7,60
1154,122021173.37944323,0.0, 1, 1, 1, 3,120000.0, 1, 3, 6,10
1156,0.0,0.0, 1, 1, 1, 3,0.0, 1, 1, 1, 3
13,32833546169.710464,106115.4183601288, 1, 2, 4,10,1638548.5303508798,10,20,20,10
61,15743207428.39043,58759.40635443481, 1, 1, 1,10,854682.2742463244, 1, 1,20,10
134,3685071073.433083,42376.01200569399, 1, 2, 4,10,104369.48322671017, 1, 1,20,10
170,273393721.45534325,232.27731661587313, 1, 2, 4,10,11650.931360040839, 1, 1,12,10
207,339560869.06955314,543.5021409221355, 1, 2, 3,10,15327.095199349082, 1, 1,10,10
244,664895467.8009839,1014.5707620042115, 1, 2, 4,10,35359.08742820678, 1, 1,20,10
281,2407221015.1057043,39959.06841621388, 1, 1, 5,10,54634.54471212738, 1, 1,19,10
318,0.0,0.0, 1, 1, 1,10,0.0, 1, 1, 1,10
355,35600894223.98182,12374.216038804521, 1, 2, 4,10,3829218.154066983, 5,12,18,30
403,10310294493.052883,12374.216038804521, 1, 2, 4,10,483183.26346918393, 1, 1,18,10
476,5569688622.065564,4732.048419519677, 1, 2, 4,10,237357.535085481, 1, 1,12,10
513,0.0,0.0, 1, 1, 1,10,0.0, 1, 1, 1,10
562,1450003153.4720135,0.0, 1, 1, 1,10,67986.68979865863, 1, 6,15,60
1046,0.0,0.0, 1, 1, 1,10,0.0, 1, 1, 1,10
1096,11560972341.774628,0.0, 1, 1, 1,10,728200.2211229033,10,21,13,60
1134,132543372.64566235,0.0, 1, 1, 1,10,414416.03102347517, 2,28, 6,10
1323,25290599730.932884,0.0, 1, 1, 1,10,3375000.000000001, 2, 7,10,60
1360,261748800.0,4979.999999999998, 2, 3,16,60,4980.000000000002, 1, 9,17,10
1388,0.0,0.0, 1, 1, 1,10,0.0, 1, 1, 1,10
End of Data
 Number of Records Written=          87
