Program Version,EnergyPlus, Version 22.2.0-c249759bad, YMD=2023.09.01 20:43
1,5,Environment Title[],Latitude[deg],Longitude[deg],Time Zone[],Elevation[m]
2,8,Day of Simulation[],Month[],Day of Month[],DST Indicator[1=yes 0=no],Hour[],StartMinute[],EndMinute[],DayType
3,5,Cumulative Day of Simulation[],Month[],Day of Month[],DST Indicator[1=yes 0=no],DayType  ! When Daily Report Variables Requested
4,2,Cumulative Days of Simulation[],Month[]  ! When Monthly Report Variables Requested
5,1,Cumulative Days of Simulation[] ! When Run Period Report Variables Requested
6,1,Calendar Year of Simulation[] ! When Annual Report Variables Requested
581,11,LIVING,AFN Zone Infiltration Air Change Rate [ach] !RunPeriod [Value,Min,Month,Day,Hour,Minute,Max,Month,Day,Hour,Minute]
582,11,ATTIC,AFN Zone Infiltration Air Change Rate [ach] !RunPeriod [Value,Min,Month,Day,Hour,Minute,Max,Month,Day,Hour,Minute]
583,11,CRAWLSPACE,AFN Zone Infiltration Air Change Rate [ach] !RunPeriod [Value,Min,Month,Day,Hour,Minute,Max,Month,Day,Hour,Minute]
1038,11,Facility,Facility Heating Setpoint Not Met Time [hr] !RunPeriod [Value,Min,Month,Day,Hour,Minute,Max,Month,Day,Hour,Minute]
1039,11,Facility,Facility Cooling Setpoint Not Met Time [hr] !RunPeriod [Value,Min,Month,Day,Hour,Minute,Max,Month,Day,Hour,Minute]
1115,11,DX_HEATING_COIL,Heating Coil Heating Energy [J] !RunPeriod [Value,Min,Month,Day,Hour,Minute,Max,Month,Day,Hour,Minute]
1128,11,DX_HEATING_COIL,Heating Coil Electricity Energy [J] !RunPeriod [Value,Min,Month,Day,Hour,Minute,Max,Month,Day,Hour,Minute]
1153,11,DX_HEATING_COIL,Heating Coil Defrost Electricity Energy [J] !RunPeriod [Value,Min,Month,Day,Hour,Minute,Max,Month,Day,Hour,Minute]
1154,11,DX_HEATING_COIL,Heating Coil Crankcase Heater Electricity Energy [J] !RunPeriod [Value,Min,Month,Day,Hour,Minute,Max,Month,Day,Hour,Minute]
1155,11,HEATING_RESISTANCE_BACKUP,Heating Coil Heating Energy [J] !RunPeriod [Value,Min,Month,Day,Hour,Minute,Max,Month,Day,Hour,Minute]
1156,11,HEATING_RESISTANCE_BACKUP,Heating Coil Electricity Energy [J] !RunPeriod [Value,Min,Month,Day,Hour,Minute,Max,Month,Day,Hour,Minute]
1292,11,WATER HEATER,Water Heater Heat Loss Energy [J] !RunPeriod [Value,Min,Month,Day,Hour,Minute,Max,Month,Day,Hour,Minute]
1306,11,WATER HEATER,Water Heater Heating Energy [J] !RunPeriod [Value,Min,Month,Day,Hour,Minute,Max,Month,Day,Hour,Minute]
1307,11,WATER HEATER,Water Heater Unmet Demand Heat Transfer Energy [J] !RunPeriod [Value,Min,Month,Day,Hour,Minute,Max,Month,Day,Hour,Minute]
1308,11,WATER HEATER,Water Heater Electricity Energy [J] !RunPeriod [Value,Min,Month,Day,Hour,Minute,Max,Month,Day,Hour,Minute]
13,11,Electricity:Facility [J] !RunPeriod [Value,Min,Month,Day,Hour,Minute,Max,Month,Day,Hour,Minute]
1134,11,Heating:Electricity [J] !RunPeriod [Value,Min,Month,Day,Hour,Minute,Max,Month,Day,Hour,Minute]
1096,11,Cooling:Electricity [J] !RunPeriod [Value,Min,Month,Day,Hour,Minute,Max,Month,Day,Hour,Minute]
562,11,Fans:Electricity [J] !RunPeriod [Value,Min,Month,Day,Hour,Minute,Max,Month,Day,Hour,Minute]
1379,11,Pumps:Electricity [J] !RunPeriod [Value,Min,Month,Day,Hour,Minute,Max,Month,Day,Hour,Minute]
1326,11,WaterSystems:Electricity [J] !RunPeriod [Value,Min,Month,Day,Hour,Minute,Max,Month,Day,Hour,Minute]
61,11,InteriorLights:Electricity [J] !RunPeriod [Value,Min,Month,Day,Hour,Minute,Max,Month,Day,Hour,Minute]
1046,11,ExteriorLights:Electricity [J] !RunPeriod [Value,Min,Month,Day,Hour,Minute,Max,Month,Day,Hour,Minute]
134,11,InteriorEquipment:Electricity [J] !RunPeriod [Value,Min,Month,Day,Hour,Minute,Max,Month,Day,Hour,Minute]
170,11,gas_dryer:InteriorEquipment:Electricity [J] !RunPeriod [Value,Min,Month,Day,Hour,Minute,Max,Month,Day,Hour,Minute]
207,11,clotheswasher:InteriorEquipment:Electricity [J] !RunPeriod [Value,Min,Month,Day,Hour,Minute,Max,Month,Day,Hour,Minute]
244,11,dishwasher:InteriorEquipment:Electricity [J] !RunPeriod [Value,Min,Month,Day,Hour,Minute,Max,Month,Day,Hour,Minute]
281,11,refrigerator:InteriorEquipment:Electricity [J] !RunPeriod [Value,Min,Month,Day,Hour,Minute,Max,Month,Day,Hour,Minute]
318,11,electric_mels:InteriorEquipment:Electricity [J] !RunPeriod [Value,Min,Month,Day,Hour,Minute,Max,Month,Day,Hour,Minute]
355,11,NaturalGas:Facility [J] !RunPeriod [Value,Min,Month,Day,Hour,Minute,Max,Month,Day,Hour,Minute]
403,11,InteriorEquipment:NaturalGas [J] !RunPeriod [Value,Min,Month,Day,Hour,Minute,Max,Month,Day,Hour,Minute]
476,11,gas_dryer:InteriorEquipment:NaturalGas [J] !RunPeriod [Value,Min,Month,Day,Hour,Minute,Max,Month,Day,Hour,Minute]
513,11,gas_mels:InteriorEquipment:NaturalGas [J] !RunPeriod [Value,Min,Month,Day,Hour,Minute,Max,Month,Day,Hour,Minute]
End of Data Dictionary
1,EXTREME_WINTER,  42.36, -71.01,  -5.00,   3.70
5,7
1038,1.5,0.0, 1,27, 1,15,0.25, 1,29, 6,15
1039,0.0,0.0, 1,27, 1,15,0.0, 1,27, 1,15
581,0.48078351010587056,0.1944308382751738, 1,27,23,37,0.9642760227465134, 1,28,24,52
582,9.657632174712697,2.4275090169443385, 1,30,18,30,21.95774934767772, 1,29, 8,60
583,0.04999407981536991,0.0015599629259712437, 1,27,23,37,0.07607884828966029, 1,29, 7,60
1115,1630733615.08452,0.0, 1,27,11, 7,3864229.615617487, 2, 1, 3,30
1128,553387668.17877,0.0, 1,27,11, 7,1185620.601707405, 2, 1, 9,60
1153,2386829.3188404706,0.0, 1,27,11, 7,50892.98255428236, 1,28,19,60
1154,32657405.431215763,0.0, 1,27, 6, 5,180000.0, 1,27,13,60
1155,707801330.4011213,0.0, 1,27, 1,15,5675395.406505355, 1,30, 6,15
1156,707801330.4011213,0.0, 1,27, 1,15,5675395.406505355, 1,30, 6,15
1292,-25241167.750903238,-39788.18102640859, 1,30, 3,15,-5087.654944802594, 2, 2,10,33
1306,271241044.25943357,0.0, 1,27, 1,15,4050000.0, 1,27, 8,45
1307,91947023.02833137,0.0, 1,27, 1,15,14596577.826543786, 1,27, 8,30
1308,271241044.25943357,0.0, 1,27, 1,15,4050000.0, 1,27, 8,45
13,1998431046.2239244,452017.0388981225, 1,27,15,15,11590634.243003398, 1,30, 7,15
61,301924526.02383536,88139.10953165221, 1,27, 1,15,1282023.4113694867, 1,27,20,15
134,70666020.44019976,63564.01800854099, 1,27, 4,15,156554.22484006523, 2, 1,20,15
170,5241013.419656067,348.4159749238097, 1,27, 4,15,17476.39704006126, 2, 1,12,15
207,6509451.13922267,815.2532113832032, 1,27, 3,15,22990.642799023623, 2, 1,10,15
244,12749673.399825225,1521.856143006317, 1,27, 4,15,53038.631142310165, 2, 1,20,15
281,46165882.481495745,59938.60262432081, 1,27, 5,15,81951.81706819107, 1,27,19,15
318,0.0,0.0, 1,27, 1,15,0.0, 1,27, 1,15
355,197687796.27748066,18561.32405820678, 1,27, 4,15,724774.895203776, 2, 1,18,15
403,197687796.27748066,18561.32405820678, 1,27, 4,15,724774.895203776, 2, 1,18,15
476,106772067.24485716,7098.072629279515, 1,27, 4,15,356036.3026282215, 2, 1,12,15
513,0.0,0.0, 1,27, 1,15,0.0, 1,27, 1,15
562,58366222.17051023,0.0, 1,27,11,15,119034.82977659702, 1,28, 6,45
1046,0.0,0.0, 1,27, 1,15,0.0, 1,27, 1,15
1096,0.0,0.0, 1,27, 1,15,0.0, 1,27, 1,15
1134,1296233233.3299444,180000.0, 1,27,11,15,6725522.373884501, 1,30, 7,15
1326,271241044.2594337,0.0, 1,27, 1,15,4050000.0, 1,27, 8,45
1379,0.0,0.0, 1,27, 1,15,0.0, 1,27, 1,15
1,EXTREME_SUMMER,  42.36, -71.01,  -5.00,   3.70
5,7
1038,0.0,0.0, 7,13, 1,15,0.0, 7,13, 1,15
1039,30.0,0.0, 7,13, 1,15,0.25, 7,14,15,15
581,0.19502408966041218,0.0031712878241786863, 7,18,24,60,0.6792906732861701, 7,14,14,60
582,4.454281306406464,0.07570181916011741, 7,16, 4,45,13.918335078197286, 7,14,12,60
583,0.03582634734797087,0.0005387280593668972, 7,18,23, 3,0.06861210023115714, 7,14,14,60
1115,0.0,0.0, 7,13, 1,15,0.0, 7,13, 1,15
1128,0.0,0.0, 7,13, 1,15,0.0, 7,13, 1,15
1153,0.0,0.0, 7,13, 1,15,0.0, 7,13, 1,15
1154,0.0,0.0, 7,13, 1,15,0.0, 7,13, 1,15
1155,0.0,0.0, 7,13, 1,15,0.0, 7,13, 1,15
1156,0.0,0.0, 7,13, 1,15,0.0, 7,13, 1,15
1292,-21943487.221721973,-34348.90896688617, 7,19,11,15,-3065.5879832218134, 7,13, 8,32
1306,206882557.95356143,0.0, 7,13, 1,15,4050000.0, 7,19,10,45
1307,52505059.94782283,0.0, 7,13, 1,15,2735090.858265622, 7,15, 7,60
1308,206882557.95356143,0.0, 7,13, 1,15,4050000.0, 7,19,10,45
13,1061905847.7207735,151703.1275401932, 7,14, 4,60,6233360.472732529, 7,13,18,30
61,301924526.02383536,88139.10953165221, 7,13, 1,15,1282023.4113694867, 7,13,20,15
134,70666020.44019976,63564.01800854099, 7,13, 4,15,156554.22484006523, 7,18,20,15
170,5241013.419656067,348.4159749238097, 7,13, 4,15,17476.39704006126, 7,18,12,15
207,6509451.13922267,815.2532113832032, 7,13, 3,15,22990.642799023623, 7,18,10,15
244,12749673.399825225,1521.856143006317, 7,13, 4,15,53038.631142310165, 7,18,20,15
281,46165882.481495745,59938.60262432081, 7,13, 5,15,81951.81706819107, 7,13,19,15
318,0.0,0.0, 7,13, 1,15,0.0, 7,13, 1,15
355,197687796.27748066,18561.32405820678, 7,13, 4,15,724774.895203776, 7,18,18,15
403,197687796.27748066,18561.32405820678, 7,13, 4,15,724774.895203776, 7,18,18,15
476,106772067.24485716,7098.072629279515, 7,13, 4,15,356036.3026282215, 7,18,12,15
513,0.0,0.0, 7,13, 1,15,0.0, 7,13, 1,15
562,48104389.22007707,0.0, 7,14, 4,60,119034.82977659702, 7,13,17,15
1046,0.0,0.0, 7,13, 1,15,0.0, 7,13, 1,15
1096,434328354.0831,0.0, 7,14, 4,60,1237175.1514650718, 7,19,17,60
1134,0.0,0.0, 7,13, 1,15,0.0, 7,13, 1,15
1326,206882557.9535614,0.0, 7,13, 1,15,4050000.0, 7,13, 8,45
1379,0.0,0.0, 7,13, 1,15,0.0, 7,13, 1,15
1,ANNUAL,  42.36, -71.01,  -5.00,   3.70
5,365
1038,44.25,0.0, 1, 1, 1,15,0.25, 1, 3, 6,15
1039,378.0,0.0, 1, 1, 1,15,0.25, 4, 2,16,60
581,0.3136181447270377,0.0, 6,24,23, 3,1.4469945816025342, 2, 8,21,60
582,6.231713724472803,0.0, 1,24, 3,60,34.91420385862466,12,28, 4,60
583,0.02645809332522859,0.0, 8,21,23, 3,0.09022444601088686, 2, 8,21,60
1115,26708927343.322445,0.0, 1, 1,23, 5,5306465.7809859,12,28, 7,30
1128,8219091523.113522,0.0, 1, 1,23, 5,1318723.882831128,12,28, 7,30
1153,255287767.04433852,0.0, 1, 1,23, 5,128990.66150196338, 2,27,10,60
1154,1537056005.1347618,0.0, 1, 1, 4,45,180000.0, 1, 7,13,45
1155,4348385344.7457695,0.0, 1, 1, 1,15,5675395.406505355, 1,29, 7,60
1156,4348385344.7457695,0.0, 1, 1, 1,15,5675395.406505355, 1,29, 7,60
1292,-1229757708.9829147,-40795.54570545472,12,28, 5,15,-1844.6562637760223, 5, 7,10,31
1306,12434993569.691074,0.0, 1, 1, 1,15,4050000.0, 1, 2, 8,45
1307,3742033061.3225493,0.0, 1, 1, 1,15,14675745.1312742, 2,13, 8,30
1308,12434993569.691074,0.0, 1, 1, 1,15,4050000.0, 1, 2, 8,45
13,54744616674.63019,151703.1275401932, 4,14, 4,15,11545965.858488122, 2, 9, 7,15
61,15743207428.383959,88139.10953165221, 1, 1, 1,15,1282023.4113694867, 1, 1,20,15
134,3685071073.4325233,63564.01800854099, 1, 2, 4,15,156554.22484006523, 1, 1,20,15
170,273393721.45532674,348.4159749238097, 1, 2, 4,15,17476.39704006126, 1, 1,12,15
207,339560869.0695816,815.2532113832032, 1, 2, 3,15,22990.642799023623, 1, 1,10,15
244,664895467.8009144,1521.856143006317, 1, 2, 4,15,53038.631142310165, 1, 1,20,15
281,2407221015.106824,59938.60262432081, 1, 1, 5,15,81951.81706819107, 1, 1,19,15
318,0.0,0.0, 1, 1, 1,15,0.0, 1, 1, 1,15
355,10310294493.051695,18561.32405820678, 1, 2, 4,15,724774.895203776, 1, 1,18,15
403,10310294493.051695,18561.32405820678, 1, 2, 4,15,724774.895203776, 1, 1,18,15
476,5569688622.066177,7098.072629279515, 1, 2, 4,15,356036.3026282215, 1, 1,12,15
513,0.0,0.0, 1, 1, 1,15,0.0, 1, 1, 1,15
562,1658206995.6653879,0.0, 1, 7,13,45,119034.82977659702, 1, 1, 4,60
1046,0.0,0.0, 1, 1, 1,15,0.0, 1, 1, 1,15
1096,6863316967.417255,0.0, 1, 1, 1,15,1281709.2683770803, 7,20,15,60
1134,14359820640.038458,0.0, 1,25,23,15,6776175.457483696, 2,18, 6,60
1326,12434993569.691113,0.0, 1, 1, 1,15,4050000.0, 1, 1,10,30
1379,0.0,0.0, 1, 1, 1,15,0.0, 1, 1, 1,15
End of Data
 Number of Records Written=          99
