Program Version,EnergyPlus, Version 22.2.0-c249759bad, YMD=2023.09.01 20:39
1,5,Environment Title[],Latitude[deg],Longitude[deg],Time Zone[],Elevation[m]
2,8,Day of Simulation[],Month[],Day of Month[],DST Indicator[1=yes 0=no],Hour[],StartMinute[],EndMinute[],DayType
3,5,Cumulative Day of Simulation[],Month[],Day of Month[],DST Indicator[1=yes 0=no],DayType  ! When Daily Report Variables Requested
4,2,Cumulative Days of Simulation[],Month[]  ! When Monthly Report Variables Requested
5,1,Cumulative Days of Simulation[] ! When Run Period Report Variables Requested
6,1,Calendar Year of Simulation[] ! When Annual Report Variables Requested
581,11,LIVING,AFN Zone Infiltration Air Change Rate [ach] !RunPeriod [Value,Min,Month,Day,Hour,Minute,Max,Month,Day,Hour,Minute]
582,11,ATTIC,AFN Zone Infiltration Air Change Rate [ach] !RunPeriod [Value,Min,Month,Day,Hour,Minute,Max,Month,Day,Hour,Minute]
583,11,CRAWLSPACE,AFN Zone Infiltration Air Change Rate [ach] !RunPeriod [Value,Min,Month,Day,Hour,Minute,Max,Month,Day,Hour,Minute]
1038,11,Facility,Facility Heating Setpoint Not Met Time [hr] !RunPeriod [Value,Min,Month,Day,Hour,Minute,Max,Month,Day,Hour,Minute]
1039,11,Facility,Facility Cooling Setpoint Not Met Time [hr] !RunPeriod [Value,Min,Month,Day,Hour,Minute,Max,Month,Day,Hour,Minute]
1115,11,DX_HEATING_COIL,Heating Coil Heating Energy [J] !RunPeriod [Value,Min,Month,Day,Hour,Minute,Max,Month,Day,Hour,Minute]
1128,11,DX_HEATING_COIL,Heating Coil Electricity Energy [J] !RunPeriod [Value,Min,Month,Day,Hour,Minute,Max,Month,Day,Hour,Minute]
1153,11,DX_HEATING_COIL,Heating Coil Defrost Electricity Energy [J] !RunPeriod [Value,Min,Month,Day,Hour,Minute,Max,Month,Day,Hour,Minute]
1154,11,DX_HEATING_COIL,Heating Coil Crankcase Heater Electricity Energy [J] !RunPeriod [Value,Min,Month,Day,Hour,Minute,Max,Month,Day,Hour,Minute]
1155,11,HEATING_RESISTANCE_BACKUP,Heating Coil Heating Energy [J] !RunPeriod [Value,Min,Month,Day,Hour,Minute,Max,Month,Day,Hour,Minute]
1156,11,HEATING_RESISTANCE_BACKUP,Heating Coil Electricity Energy [J] !RunPeriod [Value,Min,Month,Day,Hour,Minute,Max,Month,Day,Hour,Minute]
1292,11,WATER HEATER,Water Heater Heat Loss Energy [J] !RunPeriod [Value,Min,Month,Day,Hour,Minute,Max,Month,Day,Hour,Minute]
1306,11,WATER HEATER,Water Heater Heating Energy [J] !RunPeriod [Value,Min,Month,Day,Hour,Minute,Max,Month,Day,Hour,Minute]
1307,11,WATER HEATER,Water Heater Unmet Demand Heat Transfer Energy [J] !RunPeriod [Value,Min,Month,Day,Hour,Minute,Max,Month,Day,Hour,Minute]
1308,11,WATER HEATER,Water Heater Electricity Energy [J] !RunPeriod [Value,Min,Month,Day,Hour,Minute,Max,Month,Day,Hour,Minute]
13,11,Electricity:Facility [J] !RunPeriod [Value,Min,Month,Day,Hour,Minute,Max,Month,Day,Hour,Minute]
1134,11,Heating:Electricity [J] !RunPeriod [Value,Min,Month,Day,Hour,Minute,Max,Month,Day,Hour,Minute]
1096,11,Cooling:Electricity [J] !RunPeriod [Value,Min,Month,Day,Hour,Minute,Max,Month,Day,Hour,Minute]
562,11,Fans:Electricity [J] !RunPeriod [Value,Min,Month,Day,Hour,Minute,Max,Month,Day,Hour,Minute]
1379,11,Pumps:Electricity [J] !RunPeriod [Value,Min,Month,Day,Hour,Minute,Max,Month,Day,Hour,Minute]
1326,11,WaterSystems:Electricity [J] !RunPeriod [Value,Min,Month,Day,Hour,Minute,Max,Month,Day,Hour,Minute]
61,11,InteriorLights:Electricity [J] !RunPeriod [Value,Min,Month,Day,Hour,Minute,Max,Month,Day,Hour,Minute]
1046,11,ExteriorLights:Electricity [J] !RunPeriod [Value,Min,Month,Day,Hour,Minute,Max,Month,Day,Hour,Minute]
134,11,InteriorEquipment:Electricity [J] !RunPeriod [Value,Min,Month,Day,Hour,Minute,Max,Month,Day,Hour,Minute]
170,11,gas_dryer:InteriorEquipment:Electricity [J] !RunPeriod [Value,Min,Month,Day,Hour,Minute,Max,Month,Day,Hour,Minute]
207,11,clotheswasher:InteriorEquipment:Electricity [J] !RunPeriod [Value,Min,Month,Day,Hour,Minute,Max,Month,Day,Hour,Minute]
244,11,dishwasher:InteriorEquipment:Electricity [J] !RunPeriod [Value,Min,Month,Day,Hour,Minute,Max,Month,Day,Hour,Minute]
281,11,refrigerator:InteriorEquipment:Electricity [J] !RunPeriod [Value,Min,Month,Day,Hour,Minute,Max,Month,Day,Hour,Minute]
318,11,electric_mels:InteriorEquipment:Electricity [J] !RunPeriod [Value,Min,Month,Day,Hour,Minute,Max,Month,Day,Hour,Minute]
355,11,NaturalGas:Facility [J] !RunPeriod [Value,Min,Month,Day,Hour,Minute,Max,Month,Day,Hour,Minute]
403,11,InteriorEquipment:NaturalGas [J] !RunPeriod [Value,Min,Month,Day,Hour,Minute,Max,Month,Day,Hour,Minute]
476,11,gas_dryer:InteriorEquipment:NaturalGas [J] !RunPeriod [Value,Min,Month,Day,Hour,Minute,Max,Month,Day,Hour,Minute]
513,11,gas_mels:InteriorEquipment:NaturalGas [J] !RunPeriod [Value,Min,Month,Day,Hour,Minute,Max,Month,Day,Hour,Minute]
End of Data Dictionary
1,EXTREME_WINTER,  38.38, -81.59,  -5.00, 277.40
5,7
1038,0.5,0.0, 1,15, 1,15,0.25, 1,20, 6,15
1039,0.0,0.0, 1,15, 1,15,0.0, 1,15, 1,15
581,0.315394858300115,0.17402153775065607, 1,17,20,60,0.7008267379872584, 1,19,21,60
582,2.8712854910051187,0.0, 1,15,21,52,11.83124536580309, 1,18, 6,60
583,0.03759888049899922,0.00029378023248864037, 1,17,20,60,0.08002824143580294, 1,19,21,60
1115,1253044665.8832867,0.0, 1,15,16,30,4243053.011767448, 1,19, 6,60
1128,427647626.5120902,0.0, 1,15,16,30,1312186.1468900847, 1,19, 6,60
1153,7445972.917211258,0.0, 1,15,16,30,67742.19844167113, 1,18, 8,15
1154,59920375.87183978,0.0, 1,15, 6, 5,180000.0, 1,16,15,15
1155,297674797.0412583,0.0, 1,15, 1,15,4377926.724478246, 1,21, 6,60
1156,297674797.0412583,0.0, 1,15, 1,15,4377926.724478246, 1,21, 6,60
1292,-25231298.677125655,-39809.630254022515, 1,15, 1,15,-4954.425892270211, 1,21,18,17
1306,222798850.30500177,0.0, 1,15, 1,15,4050000.0, 1,15, 7,60
1307,35779431.42443736,0.0, 1,15, 1,15,3000083.71357091, 1,21,19,52
1308,222798850.30500177,0.0, 1,15, 1,15,4050000.0, 1,15, 7,60
13,1434398996.2392647,344334.63869159983, 1,18, 1,15,8282930.296597607, 1,21, 9,45
61,301924526.02383536,88139.10953165221, 1,15, 1,15,1282023.4113694867, 1,15,20,15
134,70666020.44019976,63564.01800854099, 1,15, 4,15,156554.22484006523, 1,20,20,15
170,5241013.419656067,348.4159749238097, 1,15, 4,15,17476.39704006126, 1,20,12,15
207,6509451.13922267,815.2532113832032, 1,15, 3,15,22990.642799023623, 1,20,10,15
244,12749673.399825225,1521.856143006317, 1,15, 4,15,53038.631142310165, 1,20,20,15
281,46165882.481495745,59938.60262432081, 1,15, 5,15,81951.81706819107, 1,15,19,15
318,0.0,0.0, 1,15, 1,15,0.0, 1,15, 1,15
355,197687796.27748066,18561.32405820678, 1,15, 4,15,724774.895203776, 1,20,18,15
403,197687796.27748066,18561.32405820678, 1,15, 4,15,724774.895203776, 1,20,18,15
476,106772067.24485716,7098.072629279515, 1,15, 4,15,356036.3026282215, 1,20,12,15
513,0.0,0.0, 1,15, 1,15,0.0, 1,15, 1,15
562,46320827.12783072,0.0, 1,15,16,45,136837.65631474473, 1,15, 6,30
1046,0.0,0.0, 1,15, 1,15,0.0, 1,15, 1,15
1096,0.0,0.0, 1,15, 1,15,0.0, 1,15, 1,15
1134,792688772.3423991,179999.99999999997, 1,16,16,60,5912546.906186796, 1,21, 6,30
1326,222798850.30500174,0.0, 1,15, 1,15,4050000.0, 1,15, 7,60
1379,0.0,0.0, 1,15, 1,15,0.0, 1,15, 1,15
1,EXTREME_SUMMER,  38.38, -81.59,  -5.00, 277.40
5,7
1038,0.0,0.0, 7,15, 1,15,0.0, 7,15, 1,15
1039,35.75,0.0, 7,15, 1,15,0.25, 7,15,14,60
581,0.05115069193846976,0.0, 7,15, 6, 7,0.2786250860813117, 7,20,12,60
582,1.2686606756308625,0.0, 7,15, 8,12,9.223453347140076, 7,20,12,60
583,0.038394615075144044,0.0, 7,15, 6,11,0.06971704965642656, 7,20,18,46
1115,0.0,0.0, 7,15, 1, 7,0.0, 7,15, 1, 7
1128,0.0,0.0, 7,15, 1, 7,0.0, 7,15, 1, 7
1153,0.0,0.0, 7,15, 1, 7,0.0, 7,15, 1, 7
1154,0.0,0.0, 7,15, 1, 7,0.0, 7,15, 1, 7
1155,0.0,0.0, 7,15, 1, 7,0.0, 7,15, 1, 7
1156,0.0,0.0, 7,15, 1, 7,0.0, 7,15, 1, 7
1292,-21863687.65082996,-34341.964995299495, 7,19,15,60,-3361.5214637438366, 7,15, 9,60
1306,168096624.40900084,0.0, 7,15, 1, 7,4037167.925302203, 7,19, 6,60
1307,16009175.647240859,0.0, 7,15, 1, 7,2595638.469868226, 7,21,19,55
1308,168096624.40900084,0.0, 7,15, 1, 7,4037167.925302203, 7,19, 6,60
13,1087614089.945447,196268.8453268885, 7,20, 4,60,6969772.11250592, 7,16,20,30
61,301924526.02383536,88139.10953165221, 7,15, 1,15,1282023.4113694867, 7,15,20,15
134,70666020.44019976,63564.01800854099, 7,15, 4,15,156554.22484006523, 7,20,20,15
170,5241013.419656067,348.4159749238097, 7,15, 4,15,17476.39704006126, 7,20,12,15
207,6509451.13922267,815.2532113832032, 7,15, 3,15,22990.642799023623, 7,20,10,15
244,12749673.399825225,1521.856143006317, 7,15, 4,15,53038.631142310165, 7,20,20,15
281,46165882.481495745,59938.60262432081, 7,15, 5,15,81951.81706819107, 7,15,19,15
318,0.0,0.0, 7,15, 1,15,0.0, 7,15, 1,15
355,197687796.27748066,18561.32405820678, 7,15, 4,15,724774.895203776, 7,20,18,15
403,197687796.27748066,18561.32405820678, 7,15, 4,15,724774.895203776, 7,20,18,15
476,106772067.24485716,7098.072629279515, 7,15, 4,15,356036.3026282215, 7,20,12,15
513,0.0,0.0, 7,15, 1,15,0.0, 7,15, 1,15
562,53047810.72769881,0.0, 7,20, 6,30,136837.65631474473, 7,15,14,15
1046,0.0,0.0, 7,15, 1,15,0.0, 7,15, 1,15
1096,493879108.3447134,0.0, 7,20, 6,30,1437571.2361753825, 7,18,17,60
1134,0.0,0.0, 7,15, 1,15,0.0, 7,15, 1,15
1326,168096624.40900087,0.0, 7,15, 1,15,4050000.0, 7,16,20,30
1379,0.0,0.0, 7,15, 1,15,0.0, 7,15, 1,15
1,ANNUAL,  38.38, -81.59,  -5.00, 277.40
5,365
1038,6.25,0.0, 1, 1, 1,15,0.25, 1, 1, 6,15
1039,400.75,0.0, 1, 1, 1,15,0.25, 2, 8,14,60
581,0.18433271748964908,0.0, 4, 9,23, 3,1.4036403754747562, 4,16,21,50
582,2.2919294068119234,0.0, 1, 3,23,11,32.350424416010576, 1,30, 3,47
583,0.025568387267846583,0.0, 4, 9,23, 3,0.08082363042262124, 1,30, 6,52
1115,16689101354.547985,0.0, 1, 1,23, 3,4440374.801080201, 1,22, 6,45
1128,5372472350.724115,0.0, 1, 1,23, 3,1353378.4800404827, 1,22, 6,45
1153,217149284.11346808,0.0, 1, 1, 1,31,111909.85041254807,12,14, 6,45
1154,1537185728.865495,0.0, 1, 1, 1,46,180000.0, 1, 4,16,30
1155,1822622140.3889294,0.0, 1, 1, 1, 3,4413597.480829866, 1,21, 6,45
1156,1822622140.3889294,0.0, 1, 1, 1, 3,4413597.480829866, 1,21, 6,45
1292,-1213431268.9006937,-39811.07596178623,12,12, 2,45,-2307.5400868581864, 7, 4,16,16
1306,10253755777.758171,0.0, 1, 1, 1, 3,4050000.0, 1, 1, 9,60
1307,1340244629.874812,0.0, 1, 1, 1, 3,11430148.684601082, 1,29,19,60
1308,10253755777.758171,0.0, 1, 1, 1, 3,4050000.0, 1, 1, 9,60
13,49821696062.24206,151703.1275401932, 1, 9, 4,15,9618031.37890026, 1,20, 7,15
61,15743207428.383959,88139.10953165221, 1, 1, 1,15,1282023.4113694867, 1, 1,20,15
134,3685071073.4325233,63564.01800854099, 1, 2, 4,15,156554.22484006523, 1, 1,20,15
170,273393721.45532674,348.4159749238097, 1, 2, 4,15,17476.39704006126, 1, 1,12,15
207,339560869.0695816,815.2532113832032, 1, 2, 3,15,22990.642799023623, 1, 1,10,15
244,664895467.8009144,1521.856143006317, 1, 2, 4,15,53038.631142310165, 1, 1,20,15
281,2407221015.106824,59938.60262432081, 1, 1, 5,15,81951.81706819107, 1, 1,19,15
318,0.0,0.0, 1, 1, 1,15,0.0, 1, 1, 1,15
355,10310294493.051695,18561.32405820678, 1, 2, 4,15,724774.895203776, 1, 1,18,15
403,10310294493.051695,18561.32405820678, 1, 2, 4,15,724774.895203776, 1, 1,18,15
476,5569688622.066177,7098.072629279515, 1, 2, 4,15,356036.3026282215, 1, 1,12,15
513,0.0,0.0, 1, 1, 1,15,0.0, 1, 1, 1,15
562,1685331250.746998,0.0, 1, 4,15,30,136837.65631474473, 1, 1,24,60
1046,0.0,0.0, 1, 1, 1,15,0.0, 1, 1, 1,15
1096,9504901027.826216,0.0, 1, 1, 1,15,1470756.0669281012, 9, 1,17,60
1134,8949429504.09205,0.0, 1, 6,14,45,5930622.792365426, 1,20, 6,15
1326,10253755777.758179,0.0, 1, 1, 1,15,4050000.0000000014, 3,19,10,15
1379,0.0,0.0, 1, 1, 1,15,0.0, 1, 1, 1,15
End of Data
 Number of Records Written=          99
