Program Version,EnergyPlus, Version 22.2.0-c249759bad, YMD=2023.09.01 20:48
1,5,Environment Title[],Latitude[deg],Longitude[deg],Time Zone[],Elevation[m]
2,8,Day of Simulation[],Month[],Day of Month[],DST Indicator[1=yes 0=no],Hour[],StartMinute[],EndMinute[],DayType
3,5,Cumulative Day of Simulation[],Month[],Day of Month[],DST Indicator[1=yes 0=no],DayType  ! When Daily Report Variables Requested
4,2,Cumulative Days of Simulation[],Month[]  ! When Monthly Report Variables Requested
5,1,Cumulative Days of Simulation[] ! When Run Period Report Variables Requested
6,1,Calendar Year of Simulation[] ! When Annual Report Variables Requested
581,11,LIVING,AFN Zone Infiltration Air Change Rate [ach] !RunPeriod [Value,Min,Month,Day,Hour,Minute,Max,Month,Day,Hour,Minute]
582,11,ATTIC,AFN Zone Infiltration Air Change Rate [ach] !RunPeriod [Value,Min,Month,Day,Hour,Minute,Max,Month,Day,Hour,Minute]
583,11,CRAWLSPACE,AFN Zone Infiltration Air Change Rate [ach] !RunPeriod [Value,Min,Month,Day,Hour,Minute,Max,Month,Day,Hour,Minute]
1038,11,Facility,Facility Heating Setpoint Not Met Time [hr] !RunPeriod [Value,Min,Month,Day,Hour,Minute,Max,Month,Day,Hour,Minute]
1039,11,Facility,Facility Cooling Setpoint Not Met Time [hr] !RunPeriod [Value,Min,Month,Day,Hour,Minute,Max,Month,Day,Hour,Minute]
1115,11,DX_HEATING_COIL,Heating Coil Heating Energy [J] !RunPeriod [Value,Min,Month,Day,Hour,Minute,Max,Month,Day,Hour,Minute]
1128,11,DX_HEATING_COIL,Heating Coil Electricity Energy [J] !RunPeriod [Value,Min,Month,Day,Hour,Minute,Max,Month,Day,Hour,Minute]
1153,11,DX_HEATING_COIL,Heating Coil Defrost Electricity Energy [J] !RunPeriod [Value,Min,Month,Day,Hour,Minute,Max,Month,Day,Hour,Minute]
1154,11,DX_HEATING_COIL,Heating Coil Crankcase Heater Electricity Energy [J] !RunPeriod [Value,Min,Month,Day,Hour,Minute,Max,Month,Day,Hour,Minute]
1155,11,HEATING_RESISTANCE_BACKUP,Heating Coil Heating Energy [J] !RunPeriod [Value,Min,Month,Day,Hour,Minute,Max,Month,Day,Hour,Minute]
1156,11,HEATING_RESISTANCE_BACKUP,Heating Coil Electricity Energy [J] !RunPeriod [Value,Min,Month,Day,Hour,Minute,Max,Month,Day,Hour,Minute]
1292,11,WATER HEATER,Water Heater Heat Loss Energy [J] !RunPeriod [Value,Min,Month,Day,Hour,Minute,Max,Month,Day,Hour,Minute]
1306,11,WATER HEATER,Water Heater Heating Energy [J] !RunPeriod [Value,Min,Month,Day,Hour,Minute,Max,Month,Day,Hour,Minute]
1307,11,WATER HEATER,Water Heater Unmet Demand Heat Transfer Energy [J] !RunPeriod [Value,Min,Month,Day,Hour,Minute,Max,Month,Day,Hour,Minute]
1308,11,WATER HEATER,Water Heater Electricity Energy [J] !RunPeriod [Value,Min,Month,Day,Hour,Minute,Max,Month,Day,Hour,Minute]
13,11,Electricity:Facility [J] !RunPeriod [Value,Min,Month,Day,Hour,Minute,Max,Month,Day,Hour,Minute]
1134,11,Heating:Electricity [J] !RunPeriod [Value,Min,Month,Day,Hour,Minute,Max,Month,Day,Hour,Minute]
1096,11,Cooling:Electricity [J] !RunPeriod [Value,Min,Month,Day,Hour,Minute,Max,Month,Day,Hour,Minute]
562,11,Fans:Electricity [J] !RunPeriod [Value,Min,Month,Day,Hour,Minute,Max,Month,Day,Hour,Minute]
1379,11,Pumps:Electricity [J] !RunPeriod [Value,Min,Month,Day,Hour,Minute,Max,Month,Day,Hour,Minute]
1326,11,WaterSystems:Electricity [J] !RunPeriod [Value,Min,Month,Day,Hour,Minute,Max,Month,Day,Hour,Minute]
61,11,InteriorLights:Electricity [J] !RunPeriod [Value,Min,Month,Day,Hour,Minute,Max,Month,Day,Hour,Minute]
1046,11,ExteriorLights:Electricity [J] !RunPeriod [Value,Min,Month,Day,Hour,Minute,Max,Month,Day,Hour,Minute]
134,11,InteriorEquipment:Electricity [J] !RunPeriod [Value,Min,Month,Day,Hour,Minute,Max,Month,Day,Hour,Minute]
170,11,gas_dryer:InteriorEquipment:Electricity [J] !RunPeriod [Value,Min,Month,Day,Hour,Minute,Max,Month,Day,Hour,Minute]
207,11,clotheswasher:InteriorEquipment:Electricity [J] !RunPeriod [Value,Min,Month,Day,Hour,Minute,Max,Month,Day,Hour,Minute]
244,11,dishwasher:InteriorEquipment:Electricity [J] !RunPeriod [Value,Min,Month,Day,Hour,Minute,Max,Month,Day,Hour,Minute]
281,11,refrigerator:InteriorEquipment:Electricity [J] !RunPeriod [Value,Min,Month,Day,Hour,Minute,Max,Month,Day,Hour,Minute]
318,11,electric_mels:InteriorEquipment:Electricity [J] !RunPeriod [Value,Min,Month,Day,Hour,Minute,Max,Month,Day,Hour,Minute]
355,11,NaturalGas:Facility [J] !RunPeriod [Value,Min,Month,Day,Hour,Minute,Max,Month,Day,Hour,Minute]
403,11,InteriorEquipment:NaturalGas [J] !RunPeriod [Value,Min,Month,Day,Hour,Minute,Max,Month,Day,Hour,Minute]
476,11,gas_dryer:InteriorEquipment:NaturalGas [J] !RunPeriod [Value,Min,Month,Day,Hour,Minute,Max,Month,Day,Hour,Minute]
513,11,gas_mels:InteriorEquipment:NaturalGas [J] !RunPeriod [Value,Min,Month,Day,Hour,Minute,Max,Month,Day,Hour,Minute]
End of Data Dictionary
1,EXTREME_WINTER,  33.95,-117.43,  -8.00, 249.00
5,7
1038,0.0,0.0, 2,15, 1,15,0.0, 2,15, 1,15
1039,0.0,0.0, 2,15, 1,15,0.0, 2,15, 1,15
581,0.17864389462379673,0.09801616824193626, 2,17, 7,60,0.5710116161775687, 2,16,11,60
582,1.9379210621263872,0.0, 2,15, 1,15,10.655344995095076, 2,16,11,60
583,0.011510134615187106,0.00011487529087702566, 2,15, 1,30,0.07501724192584683, 2,15, 6, 3
1115,42424559.759484544,0.0, 2,15, 1,15,1713903.7953598332, 2,16, 6, 3
1128,11209339.77353004,0.0, 2,15, 1,15,418883.48112261924, 2,16, 6,45
1153,10756.278377299426,0.0, 2,15, 1,15,5627.812560557576, 2,18, 7,15
1154,37554370.88909698,0.0, 2,15, 9,37,180000.0, 2,15, 1,15
1155,0.0,0.0, 2,15, 1,15,0.0, 2,15, 1,15
1156,0.0,0.0, 2,15, 1,15,0.0, 2,15, 1,15
1292,-23215042.801742982,-39635.153653021756, 2,16, 5,60,-2053.413726281956, 2,18, 9,46
1306,295493966.8706208,0.0, 2,15, 1,15,4050000.0, 2,15,21,45
1307,110930688.81484875,0.0, 2,15, 1,15,4389911.991178019, 2,15, 9,45
1308,295493966.8706208,0.0, 2,15, 1,15,4050000.0, 2,15,21,45
13,827608971.5770589,151703.1275401932, 2,17, 4,15,5825782.061400192, 2,21,21,15
61,301924526.02383536,88139.10953165221, 2,15, 1,15,1282023.4113694867, 2,15,20,15
134,70666020.44019976,63564.01800854099, 2,15, 4,15,156554.22484006523, 2,20,20,15
170,5241013.419656067,348.4159749238097, 2,15, 4,15,17476.39704006126, 2,20,12,15
207,6509451.13922267,815.2532113832032, 2,15, 3,15,22990.642799023623, 2,20,10,15
244,12749673.399825225,1521.856143006317, 2,15, 4,15,53038.631142310165, 2,20,20,15
281,46165882.481495745,59938.60262432081, 2,15, 5,15,81951.81706819107, 2,15,19,15
318,0.0,0.0, 2,15, 1,15,0.0, 2,15, 1,15
355,197687796.27748066,18561.32405820678, 2,15, 4,15,724774.895203776, 2,20,18,15
403,197687796.27748066,18561.32405820678, 2,15, 4,15,724774.895203776, 2,20,18,15
476,106772067.24485716,7098.072629279515, 2,15, 4,15,356036.3026282215, 2,20,12,15
513,0.0,0.0, 2,15, 1,15,0.0, 2,15, 1,15
562,13890256.505820084,0.0, 2,15, 1,15,103698.16452445864, 2,17,16,30
1046,0.0,0.0, 2,15, 1,15,0.0, 2,15, 1,15
1096,96859734.79558007,0.0, 2,15, 1,15,813455.2126450923, 2,17,16,30
1134,48774466.94100431,0.0, 2,15,12,30,636642.0079159237, 2,15, 6,15
1326,295493966.87062085,0.0, 2,15, 1,15,4050000.0000000014, 2,18, 9,60
1379,0.0,0.0, 2,15, 1,15,0.0, 2,15, 1,15
1,EXTREME_SUMMER,  33.95,-117.43,  -8.00, 249.00
5,7
1038,0.0,0.0, 9,26, 1,15,0.0, 9,26, 1,15
1039,33.5,0.0, 9,26, 1,15,0.25, 9,26,14,15
581,0.07681574582652496,0.0, 9,26,23, 3,0.3656632888778921, 9,30,16,50
582,2.4896991383719365,0.02190617480709495, 9,26, 8,55,11.94179562681382, 9,30,16,47
583,0.04051635056859934,0.0, 9,26,23, 3,0.08080408600256202, 9,30,16,50
1115,0.0,0.0, 9,26, 1, 7,0.0, 9,26, 1, 7
1128,0.0,0.0, 9,26, 1, 7,0.0, 9,26, 1, 7
1153,0.0,0.0, 9,26, 1, 7,0.0, 9,26, 1, 7
1154,0.0,0.0, 9,26, 1, 7,0.0, 9,26, 1, 7
1155,0.0,0.0, 9,26, 1, 7,0.0, 9,26, 1, 7
1156,0.0,0.0, 9,26, 1, 7,0.0, 9,26, 1, 7
1292,-21835831.466634996,-34295.84514928395,10, 2, 6,30,-2109.960465607059,10, 2, 9,45
1306,248785589.07297322,0.0, 9,26, 1, 7,2025000.0, 9,26,21,37
1307,76074442.77154672,0.0, 9,26, 1, 7,2207985.7478794456,10, 2,20,55
1308,248785589.07297322,0.0, 9,26, 1, 7,2025000.0, 9,26,21,37
13,1212687821.1781092,177508.80357795785, 9,29, 4,60,6895784.198129976, 9,30,19,60
61,301924526.02383536,88139.10953165221, 9,26, 1,15,1282023.4113694867, 9,26,20,15
134,70666020.44019976,63564.01800854099, 9,26, 4,15,156554.22484006523,10, 1,20,15
170,5241013.419656067,348.4159749238097, 9,26, 4,15,17476.39704006126,10, 1,12,15
207,6509451.13922267,815.2532113832032, 9,26, 3,15,22990.642799023623,10, 1,10,15
244,12749673.399825225,1521.856143006317, 9,26, 4,15,53038.631142310165,10, 1,20,15
281,46165882.481495745,59938.60262432081, 9,26, 5,15,81951.81706819107, 9,26,19,15
318,0.0,0.0, 9,26, 1,15,0.0, 9,26, 1,15
355,197687796.27748066,18561.32405820678, 9,26, 4,15,724774.895203776,10, 1,18,15
403,197687796.27748066,18561.32405820678, 9,26, 4,15,724774.895203776,10, 1,18,15
476,106772067.24485716,7098.072629279515, 9,26, 4,15,356036.3026282215,10, 1,12,15
513,0.0,0.0, 9,26, 1,15,0.0, 9,26, 1,15
562,53546903.86826674,0.0, 9,26, 6,30,155113.53426272608, 9,26,13,30
1046,0.0,0.0, 9,26, 1,15,0.0, 9,26, 1,15
1096,537764781.7728345,0.0, 9,26, 6,30,1901266.7280189479,10, 2,13,60
1134,0.0,0.0, 9,26, 1,15,0.0, 9,26, 1,15
1326,248785589.07297316,0.0, 9,26, 1,15,4050000.0000000014, 9,27, 9,45
1379,0.0,0.0, 9,26, 1,15,0.0, 9,26, 1,15
1,ANNUAL,  33.95,-117.43,  -8.00, 249.00
5,365
1038,0.0,0.0, 1, 1, 1,15,0.0, 1, 1, 1,15
1039,515.75,0.0, 1, 1, 1,15,0.25, 2, 4,11,15
581,0.14387512126073077,0.0, 5,22,23, 3,0.73620559251173,12,23, 9,60
582,2.5786059384869557,0.0, 1, 1, 6,52,16.697141718863993, 5, 4,16,48
583,0.028797302447389192,0.0, 7, 5, 6, 7,0.08621059897144201, 9,11, 6, 3
1115,316446427.39512837,0.0, 1, 1, 1, 7,2071439.2197268305,12, 8, 7,15
1128,93450671.79395786,0.0, 1, 1, 1, 7,655784.8916126118,12, 8, 7,15
1153,3220256.6344161322,0.0, 1, 1, 1, 7,49502.61509710443,12,31, 6,60
1154,587473965.0457456,0.0, 1, 1,11,18,180000.0, 1, 1, 1,30
1155,0.0,0.0, 1, 1, 1, 7,0.0, 1, 1, 1, 7
1156,0.0,0.0, 1, 1, 1, 7,0.0, 1, 1, 1, 7
1292,-1161804202.2650757,-39750.3136060084, 2,16, 5,30,-1403.5473447980405, 3,10,10, 1
1306,13832267376.72279,0.0, 1, 1, 1, 7,4050000.0, 1, 2,21,45
1307,4607566427.216618,0.0, 1, 1, 1, 7,9190767.66419187, 1,20,19,45
1308,13832267376.72279,0.0, 1, 1, 1, 7,4050000.0, 1, 2,21,45
13,52052536321.209915,151703.1275401932, 1, 6, 4,15,7087621.60586258, 7,24,21,45
61,15743207428.383959,88139.10953165221, 1, 1, 1,15,1282023.4113694867, 1, 1,20,15
134,3685071073.4325233,63564.01800854099, 1, 2, 4,15,156554.22484006523, 1, 1,20,15
170,273393721.45532674,348.4159749238097, 1, 2, 4,15,17476.39704006126, 1, 1,12,15
207,339560869.0695816,815.2532113832032, 1, 2, 3,15,22990.642799023623, 1, 1,10,15
244,664895467.8009144,1521.856143006317, 1, 2, 4,15,53038.631142310165, 1, 1,20,15
281,2407221015.106824,59938.60262432081, 1, 1, 5,15,81951.81706819107, 1, 1,19,15
318,0.0,0.0, 1, 1, 1,15,0.0, 1, 1, 1,15
355,10310294493.051695,18561.32405820678, 1, 2, 4,15,724774.895203776, 1, 1,18,15
403,10310294493.051695,18561.32405820678, 1, 2, 4,15,724774.895203776, 1, 1,18,15
476,5569688622.066177,7098.072629279515, 1, 2, 4,15,356036.3026282215, 1, 1,12,15
513,0.0,0.0, 1, 1, 1,15,0.0, 1, 1, 1,15
562,1861860924.257621,0.0, 1, 1, 1,15,155113.53426272608, 3,12,14,60
1046,0.0,0.0, 1, 1, 1,15,0.0, 1, 1, 1,15
1096,16245984624.93657,0.0, 1, 1, 1,15,1899272.4722560178,10, 2,13,60
1134,684144893.4741193,0.0, 1, 1,11,30,1061114.527222408,12, 8, 6,15
1326,13832267376.72277,0.0, 1, 1, 1,15,4050000.0000000014, 1,29,10,15
1379,0.0,0.0, 1, 1, 1,15,0.0, 1, 1, 1,15
End of Data
 Number of Records Written=          99
