Program Version,EnergyPlus, Version 22.2.0-c249759bad, YMD=2023.07.07 15:22
1,5,Environment Title[],Latitude[deg],Longitude[deg],Time Zone[],Elevation[m]
2,8,Day of Simulation[],Month[],Day of Month[],DST Indicator[1=yes 0=no],Hour[],StartMinute[],EndMinute[],DayType
3,5,Cumulative Day of Simulation[],Month[],Day of Month[],DST Indicator[1=yes 0=no],DayType  ! When Daily Report Variables Requested
4,2,Cumulative Days of Simulation[],Month[]  ! When Monthly Report Variables Requested
5,1,Cumulative Days of Simulation[] ! When Run Period Report Variables Requested
6,1,Calendar Year of Simulation[] ! When Annual Report Variables Requested
581,11,LIVING,AFN Zone Infiltration Air Change Rate [ach] !RunPeriod [Value,Min,Month,Day,Hour,Minute,Max,Month,Day,Hour,Minute]
582,11,ATTIC,AFN Zone Infiltration Air Change Rate [ach] !RunPeriod [Value,Min,Month,Day,Hour,Minute,Max,Month,Day,Hour,Minute]
583,11,CRAWLSPACE,AFN Zone Infiltration Air Change Rate [ach] !RunPeriod [Value,Min,Month,Day,Hour,Minute,Max,Month,Day,Hour,Minute]
1038,11,Facility,Facility Heating Setpoint Not Met Time [hr] !RunPeriod [Value,Min,Month,Day,Hour,Minute,Max,Month,Day,Hour,Minute]
1039,11,Facility,Facility Cooling Setpoint Not Met Time [hr] !RunPeriod [Value,Min,Month,Day,Hour,Minute,Max,Month,Day,Hour,Minute]
1115,11,DX_HEATING_COIL,Heating Coil Heating Energy [J] !RunPeriod [Value,Min,Month,Day,Hour,Minute,Max,Month,Day,Hour,Minute]
1128,11,DX_HEATING_COIL,Heating Coil Electricity Energy [J] !RunPeriod [Value,Min,Month,Day,Hour,Minute,Max,Month,Day,Hour,Minute]
1153,11,DX_HEATING_COIL,Heating Coil Defrost Electricity Energy [J] !RunPeriod [Value,Min,Month,Day,Hour,Minute,Max,Month,Day,Hour,Minute]
1154,11,DX_HEATING_COIL,Heating Coil Crankcase Heater Electricity Energy [J] !RunPeriod [Value,Min,Month,Day,Hour,Minute,Max,Month,Day,Hour,Minute]
1156,11,HEATING_RESISTANCE_BACKUP,Heating Coil Electricity Energy [J] !RunPeriod [Value,Min,Month,Day,Hour,Minute,Max,Month,Day,Hour,Minute]
13,11,Electricity:Facility [J] !RunPeriod [Value,Min,Month,Day,Hour,Minute,Max,Month,Day,Hour,Minute]
1134,11,Heating:Electricity [J] !RunPeriod [Value,Min,Month,Day,Hour,Minute,Max,Month,Day,Hour,Minute]
1096,11,Cooling:Electricity [J] !RunPeriod [Value,Min,Month,Day,Hour,Minute,Max,Month,Day,Hour,Minute]
562,11,Fans:Electricity [J] !RunPeriod [Value,Min,Month,Day,Hour,Minute,Max,Month,Day,Hour,Minute]
1388,11,Pumps:Electricity [J] !RunPeriod [Value,Min,Month,Day,Hour,Minute,Max,Month,Day,Hour,Minute]
1360,11,WaterSystems:Electricity [J] !RunPeriod [Value,Min,Month,Day,Hour,Minute,Max,Month,Day,Hour,Minute]
61,11,InteriorLights:Electricity [J] !RunPeriod [Value,Min,Month,Day,Hour,Minute,Max,Month,Day,Hour,Minute]
1046,11,ExteriorLights:Electricity [J] !RunPeriod [Value,Min,Month,Day,Hour,Minute,Max,Month,Day,Hour,Minute]
134,11,InteriorEquipment:Electricity [J] !RunPeriod [Value,Min,Month,Day,Hour,Minute,Max,Month,Day,Hour,Minute]
170,11,gas_dryer:InteriorEquipment:Electricity [J] !RunPeriod [Value,Min,Month,Day,Hour,Minute,Max,Month,Day,Hour,Minute]
207,11,clotheswasher:InteriorEquipment:Electricity [J] !RunPeriod [Value,Min,Month,Day,Hour,Minute,Max,Month,Day,Hour,Minute]
244,11,dishwasher:InteriorEquipment:Electricity [J] !RunPeriod [Value,Min,Month,Day,Hour,Minute,Max,Month,Day,Hour,Minute]
281,11,refrigerator:InteriorEquipment:Electricity [J] !RunPeriod [Value,Min,Month,Day,Hour,Minute,Max,Month,Day,Hour,Minute]
318,11,electric_mels:InteriorEquipment:Electricity [J] !RunPeriod [Value,Min,Month,Day,Hour,Minute,Max,Month,Day,Hour,Minute]
355,11,NaturalGas:Facility [J] !RunPeriod [Value,Min,Month,Day,Hour,Minute,Max,Month,Day,Hour,Minute]
1323,11,WaterSystems:NaturalGas [J] !RunPeriod [Value,Min,Month,Day,Hour,Minute,Max,Month,Day,Hour,Minute]
403,11,InteriorEquipment:NaturalGas [J] !RunPeriod [Value,Min,Month,Day,Hour,Minute,Max,Month,Day,Hour,Minute]
476,11,gas_dryer:InteriorEquipment:NaturalGas [J] !RunPeriod [Value,Min,Month,Day,Hour,Minute,Max,Month,Day,Hour,Minute]
513,11,gas_mels:InteriorEquipment:NaturalGas [J] !RunPeriod [Value,Min,Month,Day,Hour,Minute,Max,Month,Day,Hour,Minute]
End of Data Dictionary
1,EXTREME_WINTER,  44.47, -73.15,  -5.00, 104.00
5,7
1038,8.666666666666666,0.0, 1,20, 1,10,0.16666666666666666, 1,21, 6,10
1039,0.0,0.0, 1,20, 1,10,0.0, 1,20, 1,10
581,0.3893985671760286,0.23991842852733097, 1,24, 9,10,0.7128074317252563, 1,20,11,60
582,3.831275535214202,0.0, 1,21,24,60,15.548646694149394, 1,20, 7,55
583,5.190434813283839,0.0003610233493523047, 1,22,23, 5,18.80037979144873, 1,20, 7,55
1115,1868546109.2642426,0.0, 1,20,23, 2,2517990.6960037667, 1,24, 2,60
1128,690191102.2119888,0.0, 1,20,23, 2,783972.5682472144, 1,23,17,40
1153,5896707.690232201,0.0, 1,20,23, 2,34454.5422330606, 1,24, 8,60
1154,6328886.762337823,0.0, 1,20, 1, 1,100855.17227828057, 1,24,14,60
1156,1906973710.628436,0.0, 1,20,23, 2,4471191.864710633, 1,26, 2,10
13,3068257448.184553,425091.3236217208, 1,24,15,10,5696137.869113423, 1,26, 7,60
61,301924526.0238348,58759.40635443481, 1,20, 1,10,854682.2742463244, 1,20,20,10
134,70666020.44019979,42376.01200569399, 1,20, 4,10,104369.48322671017, 1,25,20,10
170,5241013.419656074,232.27731661587313, 1,20, 4,10,11650.931360040839, 1,25,12,10
207,6509451.13922266,543.5021409221355, 1,20, 3,10,15327.095199349082, 1,25,10,10
244,12749673.39982522,1014.5707620042115, 1,20, 4,10,35359.08742820678, 1,25,20,10
281,46165882.48149605,39959.06841621388, 1,20, 5,10,54634.54471212738, 1,20,19,10
318,0.0,0.0, 1,20, 1,10,0.0, 1,20, 1,10
355,746412996.5895092,12374.216038804521, 1,20, 4,10,3829218.154066982, 1,21,18,60
403,197687796.27748126,12374.216038804521, 1,20, 4,10,483183.26346918393, 1,25,18,10
476,106772067.24485692,4732.048419519677, 1,20, 4,10,237357.535085481, 1,25,12,10
513,0.0,0.0, 1,20, 1,10,0.0, 1,20, 1,10
562,81256654.42752226,13380.070595559017, 1,24,15,10,85066.91483629383, 1,20, 1,10
1046,0.0,0.0, 1,20, 1,10,0.0, 1,20, 1,10
1096,0.0,0.0, 1,20, 1,10,0.0, 1,20, 1,10
1134,2609390407.292998,225386.56042741338, 1,24,15,10,5169475.822846135, 1,21, 6,10
1323,548725200.3120252,0.0, 1,20, 1,10,3375000.000000001, 1,20,17,10
1360,5019840.0,4980.0, 1,20, 1,20,4980.000000000001, 1,20, 1,10
1388,0.0,0.0, 1,20, 1,10,0.0, 1,20, 1,10
1,EXTREME_SUMMER,  44.47, -73.15,  -5.00, 104.00
5,7
1038,0.0,0.0, 7,27, 1,10,0.0, 7,27, 1,10
1039,31.999999999999996,0.0, 7,27, 1,10,0.16666666666666666, 7,27,14,20
581,0.09133965388826584,0.0, 7,27, 2,44,0.39288501733199305, 7,30,15,55
582,2.3477035452649284,0.0, 7,27, 7,53,9.31252070793555, 7,31, 8,55
583,2.6888195224271776,0.0, 7,27,23, 3,9.965442890473913, 8, 1, 9,55
1115,0.0,0.0, 7,27, 1,10,0.0, 7,27, 1,10
1128,0.0,0.0, 7,27, 1,10,0.0, 7,27, 1,10
1153,0.0,0.0, 7,27, 1,10,0.0, 7,27, 1,10
1154,0.0,0.0, 7,27, 1,10,0.0, 7,27, 1,10
1156,0.0,0.0, 7,27, 1,10,0.0, 7,27, 1,10
13,872600075.1201943,132346.914553496, 8, 1, 4,60,1837538.4351164817, 7,28,20,10
61,301924526.0238348,58759.40635443481, 7,27, 1,10,854682.2742463244, 7,27,20,10
134,70666020.44019979,42376.01200569399, 7,27, 4,10,104369.48322671017, 8, 1,20,10
170,5241013.419656074,232.27731661587313, 7,27, 4,10,11650.931360040839, 8, 1,12,10
207,6509451.13922266,543.5021409221355, 7,27, 3,10,15327.095199349082, 8, 1,10,10
244,12749673.39982522,1014.5707620042115, 7,27, 4,10,35359.08742820678, 8, 1,20,10
281,46165882.48149605,39959.06841621388, 7,27, 5,10,54634.54471212738, 7,27,19,10
318,0.0,0.0, 7,27, 1,10,0.0, 7,27, 1,10
355,632174554.3018295,12374.216038804521, 7,27, 4,10,3829218.154066982, 7,28,18,60
403,197687796.27748126,12374.216038804521, 7,27, 4,10,483183.26346918393, 8, 1,18,10
476,106772067.24485692,4732.048419519677, 7,27, 4,10,237357.535085481, 8, 1,12,10
513,0.0,0.0, 7,27, 1,10,0.0, 7,27, 1,10
562,49841011.295222744,0.0, 8, 2,23,10,85066.91483629381, 7,27,13,40
1046,0.0,0.0, 7,27, 1,10,0.0, 7,27, 1,10
1096,445148677.3609362,0.0, 8, 2,23,10,881942.730636168, 7,29,15,60
1134,0.0,0.0, 7,27, 1,10,0.0, 7,27, 1,10
1323,434486758.0243466,0.0, 7,27, 1,10,3375000.0000000005, 7,29,10,40
1360,5019840.0,4980.0, 7,27, 1,10,4980.000000000002, 7,27, 9,40
1388,0.0,0.0, 7,27, 1,10,0.0, 7,27, 1,10
1,ANNUAL,  44.47, -73.15,  -5.00, 104.00
5,365
1038,77.33333333333324,0.0, 1, 1, 1,10,0.16666666666666666, 1, 1, 6,10
1039,289.1666666666667,0.0, 1, 1, 1,10,0.16666666666666666, 5, 8,11,20
581,0.2502491115641073,0.0, 5,14,20,23,0.9836776872498835, 8,28,18,60
582,3.5164326627060976,0.0, 1, 1,19,20,28.338990386537073,12,22,12,60
583,4.309079523674827,0.0, 7,11,23, 2,27.338573172249088,12,22,13,20
1115,35927309657.09426,0.0, 1, 1,14,15,3086889.9496952337,11,22, 6,10
1128,11364508947.05472,0.0, 1, 1,14,15,835835.8692146853,12, 8,10,10
1153,316976444.2258097,0.0, 1, 1,14,15,86564.86153773378,11, 9, 7,60
1154,1472917661.5414531,0.0, 1, 1, 6, 5,120000.0, 1, 1,14,40
1156,12216083898.726864,0.0, 1, 1, 1,10,4471191.864710633, 1,17, 1,10
13,53596868389.58266,106115.4183601288, 1, 6, 4,10,6214057.260911611, 2,26,21,60
61,15743207428.39043,58759.40635443481, 1, 1, 1,10,854682.2742463244, 1, 1,20,10
134,3685071073.433083,42376.01200569399, 1, 2, 4,10,104369.48322671017, 1, 1,20,10
170,273393721.45534325,232.27731661587313, 1, 2, 4,10,11650.931360040839, 1, 1,12,10
207,339560869.06955314,543.5021409221355, 1, 2, 3,10,15327.095199349082, 1, 1,10,10
244,664895467.8009839,1014.5707620042115, 1, 2, 4,10,35359.08742820678, 1, 1,20,10
281,2407221015.1057043,39959.06841621388, 1, 1, 5,10,54634.54471212738, 1, 1,19,10
318,0.0,0.0, 1, 1, 1,10,0.0, 1, 1, 1,10
355,35776096480.16521,12374.216038804521, 1, 2, 4,10,3829218.154066983, 1,31,18,60
403,10310294493.052883,12374.216038804521, 1, 2, 4,10,483183.26346918393, 1, 1,18,10
476,5569688622.065564,4732.048419519677, 1, 2, 4,10,237357.535085481, 1, 1,12,10
513,0.0,0.0, 1, 1, 1,10,0.0, 1, 1, 1,10
562,2040444999.569151,0.0, 1, 1,14,20,85066.91483629381, 1, 1, 6,10
1046,0.0,0.0, 1, 1, 1,10,0.0, 1, 1, 1,10
1096,6495909136.647988,0.0, 1, 1, 1,10,930129.5433347896, 6,22,17,60
1134,25370486951.54882,0.0, 1, 4,15,60,5194504.435815926, 1,18, 6,10
1323,25465801987.11608,0.0, 1, 1, 1,10,3375000.0000000023, 6,13, 9,60
1360,261748800.0,4979.999999999998, 6, 2, 9,50,4980.000000000002, 1,16,20,50
1388,0.0,0.0, 1, 1, 1,10,0.0, 1, 1, 1,10
End of Data
 Number of Records Written=          87
