Program Version,EnergyPlus, Version 22.2.0-c249759bad, YMD=2023.09.01 18:06
1,5,Environment Title[],Latitude[deg],Longitude[deg],Time Zone[],Elevation[m]
2,8,Day of Simulation[],Month[],Day of Month[],DST Indicator[1=yes 0=no],Hour[],StartMinute[],EndMinute[],DayType
3,5,Cumulative Day of Simulation[],Month[],Day of Month[],DST Indicator[1=yes 0=no],DayType  ! When Daily Report Variables Requested
4,2,Cumulative Days of Simulation[],Month[]  ! When Monthly Report Variables Requested
5,1,Cumulative Days of Simulation[] ! When Run Period Report Variables Requested
6,1,Calendar Year of Simulation[] ! When Annual Report Variables Requested
581,11,LIVING,AFN Zone Infiltration Air Change Rate [ach] !RunPeriod [Value,Min,Month,Day,Hour,Minute,Max,Month,Day,Hour,Minute]
582,11,ATTIC,AFN Zone Infiltration Air Change Rate [ach] !RunPeriod [Value,Min,Month,Day,Hour,Minute,Max,Month,Day,Hour,Minute]
583,11,CRAWLSPACE,AFN Zone Infiltration Air Change Rate [ach] !RunPeriod [Value,Min,Month,Day,Hour,Minute,Max,Month,Day,Hour,Minute]
1038,11,Facility,Facility Heating Setpoint Not Met Time [hr] !RunPeriod [Value,Min,Month,Day,Hour,Minute,Max,Month,Day,Hour,Minute]
1039,11,Facility,Facility Cooling Setpoint Not Met Time [hr] !RunPeriod [Value,Min,Month,Day,Hour,Minute,Max,Month,Day,Hour,Minute]
1115,11,DX_HEATING_COIL,Heating Coil Heating Energy [J] !RunPeriod [Value,Min,Month,Day,Hour,Minute,Max,Month,Day,Hour,Minute]
1128,11,DX_HEATING_COIL,Heating Coil Electricity Energy [J] !RunPeriod [Value,Min,Month,Day,Hour,Minute,Max,Month,Day,Hour,Minute]
1153,11,DX_HEATING_COIL,Heating Coil Defrost Electricity Energy [J] !RunPeriod [Value,Min,Month,Day,Hour,Minute,Max,Month,Day,Hour,Minute]
1154,11,DX_HEATING_COIL,Heating Coil Crankcase Heater Electricity Energy [J] !RunPeriod [Value,Min,Month,Day,Hour,Minute,Max,Month,Day,Hour,Minute]
1155,11,HEATING_RESISTANCE_BACKUP,Heating Coil Heating Energy [J] !RunPeriod [Value,Min,Month,Day,Hour,Minute,Max,Month,Day,Hour,Minute]
1156,11,HEATING_RESISTANCE_BACKUP,Heating Coil Electricity Energy [J] !RunPeriod [Value,Min,Month,Day,Hour,Minute,Max,Month,Day,Hour,Minute]
1292,11,WATER HEATER,Water Heater Heat Loss Energy [J] !RunPeriod [Value,Min,Month,Day,Hour,Minute,Max,Month,Day,Hour,Minute]
1306,11,WATER HEATER,Water Heater Heating Energy [J] !RunPeriod [Value,Min,Month,Day,Hour,Minute,Max,Month,Day,Hour,Minute]
1307,11,WATER HEATER,Water Heater Unmet Demand Heat Transfer Energy [J] !RunPeriod [Value,Min,Month,Day,Hour,Minute,Max,Month,Day,Hour,Minute]
1308,11,WATER HEATER,Water Heater Electricity Energy [J] !RunPeriod [Value,Min,Month,Day,Hour,Minute,Max,Month,Day,Hour,Minute]
13,11,Electricity:Facility [J] !RunPeriod [Value,Min,Month,Day,Hour,Minute,Max,Month,Day,Hour,Minute]
1134,11,Heating:Electricity [J] !RunPeriod [Value,Min,Month,Day,Hour,Minute,Max,Month,Day,Hour,Minute]
1096,11,Cooling:Electricity [J] !RunPeriod [Value,Min,Month,Day,Hour,Minute,Max,Month,Day,Hour,Minute]
562,11,Fans:Electricity [J] !RunPeriod [Value,Min,Month,Day,Hour,Minute,Max,Month,Day,Hour,Minute]
1379,11,Pumps:Electricity [J] !RunPeriod [Value,Min,Month,Day,Hour,Minute,Max,Month,Day,Hour,Minute]
1326,11,WaterSystems:Electricity [J] !RunPeriod [Value,Min,Month,Day,Hour,Minute,Max,Month,Day,Hour,Minute]
61,11,InteriorLights:Electricity [J] !RunPeriod [Value,Min,Month,Day,Hour,Minute,Max,Month,Day,Hour,Minute]
1046,11,ExteriorLights:Electricity [J] !RunPeriod [Value,Min,Month,Day,Hour,Minute,Max,Month,Day,Hour,Minute]
134,11,InteriorEquipment:Electricity [J] !RunPeriod [Value,Min,Month,Day,Hour,Minute,Max,Month,Day,Hour,Minute]
170,11,gas_dryer:InteriorEquipment:Electricity [J] !RunPeriod [Value,Min,Month,Day,Hour,Minute,Max,Month,Day,Hour,Minute]
207,11,clotheswasher:InteriorEquipment:Electricity [J] !RunPeriod [Value,Min,Month,Day,Hour,Minute,Max,Month,Day,Hour,Minute]
244,11,dishwasher:InteriorEquipment:Electricity [J] !RunPeriod [Value,Min,Month,Day,Hour,Minute,Max,Month,Day,Hour,Minute]
281,11,refrigerator:InteriorEquipment:Electricity [J] !RunPeriod [Value,Min,Month,Day,Hour,Minute,Max,Month,Day,Hour,Minute]
318,11,electric_mels:InteriorEquipment:Electricity [J] !RunPeriod [Value,Min,Month,Day,Hour,Minute,Max,Month,Day,Hour,Minute]
355,11,NaturalGas:Facility [J] !RunPeriod [Value,Min,Month,Day,Hour,Minute,Max,Month,Day,Hour,Minute]
403,11,InteriorEquipment:NaturalGas [J] !RunPeriod [Value,Min,Month,Day,Hour,Minute,Max,Month,Day,Hour,Minute]
476,11,gas_dryer:InteriorEquipment:NaturalGas [J] !RunPeriod [Value,Min,Month,Day,Hour,Minute,Max,Month,Day,Hour,Minute]
513,11,gas_mels:InteriorEquipment:NaturalGas [J] !RunPeriod [Value,Min,Month,Day,Hour,Minute,Max,Month,Day,Hour,Minute]
End of Data Dictionary
1,EXTREME_WINTER,  39.18, -76.67,  -5.00,  47.60
5,7
1038,0.5,0.0, 1, 6, 1,15,0.25, 1,10, 6,15
1039,0.0,0.0, 1, 6, 1,15,0.0, 1, 6, 1,15
581,0.34852421281874385,0.204435090278738, 1, 7,23,22,0.7016172315631838, 1, 9,10,60
582,4.840204786073575,0.0, 1, 7, 7,60,16.473151731257307, 1, 6,15,60
583,0.04392038476620991,0.00032566340003865836, 1, 7,23,15,0.07360159435848997, 1, 9,10,60
1115,1559989929.0732634,0.0, 1, 6,23, 5,4109065.9414143655, 1,12, 4,60
1128,509953102.7958842,0.0, 1, 6,23, 5,1280106.0391462336, 1,12, 6,45
1153,6344197.763184759,0.0, 1, 6,23, 5,79942.38244265837, 1, 8, 6,30
1154,47101945.35105325,0.0, 1, 6, 6, 5,180000.0, 1, 7,14,30
1155,166179449.93991736,0.0, 1, 6, 1,15,2480989.012937551, 1,11, 6,45
1156,166179449.93991736,0.0, 1, 6, 1,15,2480989.012937551, 1,11, 6,45
1292,-25333003.40456147,-39775.26201810846, 1, 6, 1,15,-7370.041645850772, 1,11,13,45
1306,223712081.71600208,0.0, 1, 6, 1,15,4050000.0, 1, 6, 7,60
1307,36158825.42918028,0.0, 1, 6, 1,15,11446778.307475965, 1,12,19,60
1308,223712081.71600208,0.0, 1, 6, 1,15,4050000.0, 1, 6, 7,60
13,1379906094.529751,452017.0388981225, 1, 7,15,15,7863294.152801653, 1,10, 7,15
61,301924526.02383536,88139.10953165221, 1, 6, 1,15,1282023.4113694867, 1, 6,20,15
134,70666020.44019976,63564.01800854099, 1, 6, 4,15,156554.22484006523, 1,11,20,15
170,5241013.419656067,348.4159749238097, 1, 6, 4,15,17476.39704006126, 1,11,12,15
207,6509451.13922267,815.2532113832032, 1, 6, 3,15,22990.642799023623, 1,11,10,15
244,12749673.399825225,1521.856143006317, 1, 6, 4,15,53038.631142310165, 1,11,20,15
281,46165882.481495745,59938.60262432081, 1, 6, 5,15,81951.81706819107, 1, 6,19,15
318,0.0,0.0, 1, 6, 1,15,0.0, 1, 6, 1,15
355,197687796.27748066,18561.32405820678, 1, 6, 4,15,724774.895203776, 1,11,18,15
403,197687796.27748066,18561.32405820678, 1, 6, 4,15,724774.895203776, 1,11,18,15
476,106772067.24485716,7098.072629279515, 1, 6, 4,15,356036.3026282215, 1,11,12,15
513,0.0,0.0, 1, 6, 1,15,0.0, 1, 6, 1,15
562,54024770.49967593,0.0, 1, 7,12,60,131840.20089489702, 1, 6, 6,30
1046,0.0,0.0, 1, 6, 1,15,0.0, 1, 6, 1,15
1096,0.0,0.0, 1, 6, 1,15,0.0, 1, 6, 1,15
1134,729578695.8500388,180000.0, 1, 7,12,60,4423042.5683280025, 1,11, 6,15
1326,223712081.71600214,0.0, 1, 6, 1,15,4050000.0, 1, 6, 7,60
1379,0.0,0.0, 1, 6, 1,15,0.0, 1, 6, 1,15
1,EXTREME_SUMMER,  39.18, -76.67,  -5.00,  47.60
5,7
1038,0.0,0.0, 7,20, 1,15,0.0, 7,20, 1,15
1039,55.5,0.0, 7,20, 1,15,0.25, 7,20,16,30
581,0.10072901629746418,0.0, 7,21, 6, 7,0.33385728213664534, 7,22,16,46
582,2.93201765017797,0.007938415817400082, 7,21, 1,60,10.711413308505206, 7,23,15,48
583,0.04243737020679175,0.0, 7,21,23, 7,0.06717106773215899, 7,26,22,50
1115,0.0,0.0, 7,20, 1, 7,0.0, 7,20, 1, 7
1128,0.0,0.0, 7,20, 1, 7,0.0, 7,20, 1, 7
1153,0.0,0.0, 7,20, 1, 7,0.0, 7,20, 1, 7
1154,0.0,0.0, 7,20, 1, 7,0.0, 7,20, 1, 7
1155,0.0,0.0, 7,20, 1, 7,0.0, 7,20, 1, 7
1156,0.0,0.0, 7,20, 1, 7,0.0, 7,20, 1, 7
1292,-21687367.97003051,-34082.526547066576, 7,24,22,60,-3418.1891473860937, 7,22, 8,60
1306,160210640.17406708,0.0, 7,20, 1, 7,4050000.0, 7,24, 6,60
1307,13502641.851284303,0.0, 7,20, 1, 7,1790469.4428184405, 7,26,19,52
1308,160210640.17406708,0.0, 7,20, 1, 7,4050000.0, 7,24, 6,60
13,1151172679.82999,163694.0945803606, 7,22, 4,60,6977754.089876952, 7,26,20,15
61,301924526.02383536,88139.10953165221, 7,20, 1,15,1282023.4113694867, 7,20,20,15
134,70666020.44019976,63564.01800854099, 7,20, 4,15,156554.22484006523, 7,25,20,15
170,5241013.419656067,348.4159749238097, 7,20, 4,15,17476.39704006126, 7,25,12,15
207,6509451.13922267,815.2532113832032, 7,20, 3,15,22990.642799023623, 7,25,10,15
244,12749673.399825225,1521.856143006317, 7,20, 4,15,53038.631142310165, 7,25,20,15
281,46165882.481495745,59938.60262432081, 7,20, 5,15,81951.81706819107, 7,20,19,15
318,0.0,0.0, 7,20, 1,15,0.0, 7,20, 1,15
355,197687796.27748066,18561.32405820678, 7,20, 4,15,724774.895203776, 7,25,18,15
403,197687796.27748066,18561.32405820678, 7,20, 4,15,724774.895203776, 7,25,18,15
476,106772067.24485716,7098.072629279515, 7,20, 4,15,356036.3026282215, 7,25,12,15
513,0.0,0.0, 7,20, 1,15,0.0, 7,20, 1,15
562,58066758.53760851,0.0, 7,22, 6,30,131840.20089489702, 7,20,15,30
1046,0.0,0.0, 7,20, 1,15,0.0, 7,20, 1,15
1096,560304734.6542798,0.0, 7,22, 6,30,1474230.722224846, 7,26,15,60
1134,0.0,0.0, 7,20, 1,15,0.0, 7,20, 1,15
1326,160210640.17406705,0.0, 7,20, 1,15,4050000.0, 7,24, 6,60
1379,0.0,0.0, 7,20, 1,15,0.0, 7,20, 1,15
1,ANNUAL,  39.18, -76.67,  -5.00,  47.60
5,365
1038,10.25,0.0, 1, 1, 1,15,0.25, 1, 3, 6,15
1039,603.75,0.0, 1, 1, 1,15,0.25, 2,14,13,60
581,0.20879164695690855,0.0, 5,20,23, 3,1.1428987375250093, 2,19,16,52
582,3.479022453477582,0.0, 1, 1, 1,60,35.72086420512556, 2,25,15,46
583,0.025651411559185766,0.0, 5,20,23, 3,0.08677502546798152, 1, 2,11,60
1115,16931076120.101055,0.0, 1, 1,23, 3,4334516.284523141, 2,13, 6,45
1128,5326411802.502777,0.0, 1, 1,23, 3,1311585.5389658513,12, 8,13,15
1153,149489046.03946763,0.0, 1, 1,12,37,119784.11529252009, 1,17,12,60
1154,1580363245.3896723,0.0, 1, 1, 6, 5,180000.0, 1, 7,14,30
1155,1634434491.3809128,0.0, 1, 1, 1,15,3858841.4047375266, 1, 3, 6,45
1156,1634434491.3809128,0.0, 1, 1, 1,15,3858841.4047375266, 1, 3, 6,45
1292,-1213985807.2166603,-39792.26962519098, 1, 1, 1,15,-2082.1972833747877, 8,15,15,49
1306,10140580926.558207,0.0, 1, 1, 1,15,4050000.0, 1, 1,20,15
1307,1308483933.0907447,0.0, 1, 1, 1,15,11401216.182128545, 3, 5,19,60
1308,10140580926.558207,0.0, 1, 1, 1,15,4050000.0, 1, 1,20,15
13,49644449091.1913,151703.1275401932, 3, 6, 4,15,9079974.241959319, 1,31, 7,60
61,15743207428.383959,88139.10953165221, 1, 1, 1,15,1282023.4113694867, 1, 1,20,15
134,3685071073.4325233,63564.01800854099, 1, 2, 4,15,156554.22484006523, 1, 1,20,15
170,273393721.45532674,348.4159749238097, 1, 2, 4,15,17476.39704006126, 1, 1,12,15
207,339560869.0695816,815.2532113832032, 1, 2, 3,15,22990.642799023623, 1, 1,10,15
244,664895467.8009144,1521.856143006317, 1, 2, 4,15,53038.631142310165, 1, 1,20,15
281,2407221015.106824,59938.60262432081, 1, 1, 5,15,81951.81706819107, 1, 1,19,15
318,0.0,0.0, 1, 1, 1,15,0.0, 1, 1, 1,15
355,10310294493.051695,18561.32405820678, 1, 2, 4,15,724774.895203776, 1, 1,18,15
403,10310294493.051695,18561.32405820678, 1, 2, 4,15,724774.895203776, 1, 1,18,15
476,5569688622.066177,7098.072629279515, 1, 2, 4,15,356036.3026282215, 1, 1,12,15
513,0.0,0.0, 1, 1, 1,15,0.0, 1, 1, 1,15
562,1671291279.9344232,0.0, 1, 7,13,15,131840.20089489708, 8,15,15,60
1046,0.0,0.0, 1, 1, 1,15,0.0, 1, 1, 1,15
1096,9713599797.567158,0.0, 1, 1, 1,15,1476609.413896008, 7,26,15,60
1134,8690698585.312859,0.0, 1,15,12,15,5068760.148751466, 1, 3, 6,60
1326,10140580926.558199,0.0, 1, 1, 1,15,4050000.0, 1, 1, 9,60
1379,0.0,0.0, 1, 1, 1,15,0.0, 1, 1, 1,15
End of Data
 Number of Records Written=          99
