Program Version,EnergyPlus, Version 22.2.0-c249759bad, YMD=2023.09.01 14:31
1,5,Environment Title[],Latitude[deg],Longitude[deg],Time Zone[],Elevation[m]
2,8,Day of Simulation[],Month[],Day of Month[],DST Indicator[1=yes 0=no],Hour[],StartMinute[],EndMinute[],DayType
3,5,Cumulative Day of Simulation[],Month[],Day of Month[],DST Indicator[1=yes 0=no],DayType  ! When Daily Report Variables Requested
4,2,Cumulative Days of Simulation[],Month[]  ! When Monthly Report Variables Requested
5,1,Cumulative Days of Simulation[] ! When Run Period Report Variables Requested
6,1,Calendar Year of Simulation[] ! When Annual Report Variables Requested
7,1,Environment,Site Outdoor Air Drybulb Temperature [C] !Hourly
545,1,LIVING,Zone Mean Air Temperature [C] !Hourly
546,1,ATTIC,Zone Mean Air Temperature [C] !Hourly
547,1,CRAWLSPACE,Zone Mean Air Temperature [C] !Hourly
548,1,FAN,Fan Electricity Rate [W] !Hourly
720,1,LIVING,Zone Predicted Sensible Load to Heating Setpoint Heat Transfer Rate [W] !Hourly
721,1,LIVING,Zone System Predicted Sensible Load to Heating Setpoint Heat Transfer Rate [W] !Hourly
784,1,ATTIC,Zone Predicted Sensible Load to Heating Setpoint Heat Transfer Rate [W] !Hourly
785,1,ATTIC,Zone System Predicted Sensible Load to Heating Setpoint Heat Transfer Rate [W] !Hourly
848,1,CRAWLSPACE,Zone Predicted Sensible Load to Heating Setpoint Heat Transfer Rate [W] !Hourly
849,1,CRAWLSPACE,Zone System Predicted Sensible Load to Heating Setpoint Heat Transfer Rate [W] !Hourly
1121,1,DX_HEATING_COIL,Heating Coil Heating Rate [W] !Hourly
1135,1,DX_HEATING_COIL,Heating Coil Electricity Rate [W] !Hourly
1161,1,DX_HEATING_COIL,Heating Coil Defrost Electricity Rate [W] !Hourly
1163,1,DX_HEATING_COIL,Heating Coil Crankcase Heater Electricity Rate [W] !Hourly
1166,1,HEATING_RESISTANCE_BACKUP,Heating Coil Heating Rate [W] !Hourly
1168,1,HEATING_RESISTANCE_BACKUP,Heating Coil Electricity Rate [W] !Hourly
End of Data Dictionary
1,EXTREME_WINTER,  38.05, -87.53,  -6.00, 121.90
2,1, 1, 8, 0, 1, 0.00,60.00,Monday
7,-15.0
545,18.627319087117225
546,-2.8231132632949207
547,18.93043308660452
548,148.8871726793564
720,3855.739396861536
721,3855.739396861536
784,0.0
785,0.0
848,0.0
849,0.0
1121,3131.178466775129
1135,1276.939446173484
1161,1.1891217871690873
1163,0.0
1166,2235.616821126979
1168,2235.616821126979
2,1, 1, 8, 0, 2, 0.00,60.00,Monday
7,-15.6
545,18.582268963146163
546,-5.138173967374728
547,18.57235941127459
548,148.8871726793564
720,4184.394227974015
721,4184.394227974015
784,0.0
785,0.0
848,0.0
849,0.0
1121,3067.036018217469
1135,1264.6737084300828
1161,2.8532394882702126
1163,0.0
1166,2782.6712330965975
1168,2782.6712330965975
2,1, 1, 8, 0, 3, 0.00,60.00,Monday
7,-15.6
545,18.566068892837507
546,-6.767673746867784
547,18.404762235596287
548,148.8871726793564
720,4408.8169129796825
721,4408.8169129796825
784,0.0
785,0.0
848,0.0
849,0.0
1121,3068.351133547733
1135,1263.352820645047
1161,2.855155257601625
1163,0.0
1166,3177.254107291529
1168,3177.254107291529
2,1, 1, 8, 0, 4, 0.00,60.00,Monday
7,-15.6
545,18.562868536058748
546,-7.755654975394406
547,18.19881611201709
548,148.8871726793564
720,4594.131089840284
721,4594.131089840284
784,0.0
785,0.0
848,0.0
849,0.0
1121,3060.8169789190547
1135,1259.5411662512345
1161,5.564429322700565
1163,0.0
1166,3502.119400852408
1168,3502.119400852408
2,1, 1, 8, 0, 5, 0.00,60.00,Monday
7,-16.1
545,18.560854425419418
546,-8.40266680806466
547,18.006863964461587
548,148.8871726793564
720,4883.657995534075
721,4883.657995534075
784,0.0
785,0.0
848,0.0
849,0.0
1121,3006.3811264917035
1135,1250.9076852230346
1161,7.003908355438359
1163,0.0
1166,3962.6271925376495
1168,3962.6271925376495
2,1, 1, 8, 0, 6, 0.00,60.00,Monday
7,-15.6
545,19.316445893845604
546,-8.277878662785481
547,17.82680691461801
548,148.8871726793564
720,5968.22396192337
721,5968.22396192337
784,0.0
785,0.0
848,0.0
849,0.0
1121,3061.2903475260905
1135,1259.021301295353
1161,5.5756478705674315
1163,0.0
1166,5209.73065781699
1168,5209.73065781699
2,1, 1, 8, 0, 7, 0.00,60.00,Monday
7,-15.6
545,19.568487612225113
546,-8.269818496144392
547,17.675531520500307
548,148.8871726793564
720,5847.9350285565215
721,5847.9350285565215
784,0.0
785,0.0
848,0.0
849,0.0
1121,3044.7646918978244
1135,1275.4607788409462
1161,5.5756478705674315
1163,0.0
1166,5173.049993327856
1168,5173.049993327856
2,1, 1, 8, 0, 8, 0.00,60.00,Monday
7,-15.0
545,19.61239770719964
546,-8.358960941383096
547,17.505066896151266
548,148.8871726793564
720,6150.684435719093
721,6150.684435719093
784,0.0
785,0.0
848,0.0
849,0.0
1121,3098.5734083328143
1135,1288.2329148025817
1161,6.221386382886925
1163,0.0
1166,5465.412531634997
1168,5465.412531634997
2,1, 1, 8, 0, 9, 0.00,60.00,Monday
7,-13.3
545,19.67209591021372
546,-7.766762922324441
547,17.34914290050062
548,148.8871726793564
720,5467.182766436994
721,5467.182766436994
784,0.0
785,0.0
848,0.0
849,0.0
1121,3286.8868438647314
1135,1316.4912153347232
1161,2.441627837239053
1163,0.0
1166,4558.584664408983
1168,4558.584664408983
2,1, 1, 8, 0,10, 0.00,60.00,Monday
7,-12.8
545,19.701806559618237
546,-5.443386232904542
547,17.196359933198806
548,148.8871726793564
720,4733.709429933819
721,4733.709429933819
784,0.0
785,0.0
848,0.0
849,0.0
1121,3343.3869859720576
1135,1325.9655243464506
1161,1.1054681794228576
1163,0.0
1166,3622.9120465460373
1168,3622.9120465460373
2,1, 1, 8, 0,11, 0.00,60.00,Monday
7,-11.7
545,19.721971481866294
546,-2.938151625292738
547,17.06551662028285
548,148.8871726793564
720,4189.865695578968
721,4189.865695578968
784,0.0
785,0.0
848,0.0
849,0.0
1121,3465.6335705213305
1135,1342.0271528522899
1161,0.07172185244543769
1163,0.0
1166,2745.630904783741
1168,2745.630904783741
2,1, 1, 8, 0,12, 0.00,60.00,Monday
7,-10.6
545,19.72971156396108
546,-1.3956771897186504
547,16.95394971537771
548,148.8871726793564
720,3891.640267726256
721,3891.640267726256
784,0.0
785,0.0
848,0.0
849,0.0
1121,3587.137124792074
1135,1356.292307369284
1161,0.07172185244543769
1163,0.0
1166,2135.4597692144016
1168,2135.4597692144016
2,1, 1, 8, 0,13, 0.00,60.00,Monday
7,-10.6
545,19.725684049770386
546,-0.7673567233228371
547,16.85460856336498
548,148.8871726793564
720,3783.1624428275536
721,3783.1624428275536
784,0.0
785,0.0
848,0.0
849,0.0
1121,3587.094510155506
1135,1356.3387424609232
1161,0.07172185244543769
1163,0.0
1166,1911.3236533376178
1168,1911.3236533376178
2,1, 1, 8, 0,14, 0.00,60.00,Monday
7,-8.3
545,19.73171667386263
546,-0.282326703651678
547,16.78873579165106
548,148.8871726793564
720,3288.160380690704
721,3288.160380690704
784,0.0
785,0.0
848,0.0
849,0.0
1121,3849.754715353529
1135,1384.5266882285093
1161,0.07172185244543769
1163,0.0
1166,1033.7732528999964
1168,1033.7732528999964
2,1, 1, 8, 0,15, 0.00,60.00,Monday
7,-7.2
545,19.724435812668574
546,0.3298890323822993
547,16.723309836053602
548,148.8871726793564
720,3292.4430488241287
721,3292.4430488241287
784,0.0
785,0.0
848,0.0
849,0.0
1121,3978.92825829549
1135,1397.9459887858072
1161,0.07172185244543769
1163,0.0
1166,872.9490017702406
1168,872.9490017702406
2,1, 1, 8, 0,16, 0.00,60.00,Monday
7,-6.7
545,19.712702234658874
546,0.10695581606455157
547,16.663415315239455
548,148.8871726793564
720,3617.6453384994184
721,3617.6453384994184
784,0.0
785,0.0
848,0.0
849,0.0
1121,4038.726709636339
1135,1403.6853683778918
1161,0.07172185244543769
1163,0.0
1166,1161.7178923823199
1168,1161.7178923823199
2,1, 1, 8, 0,17, 0.00,60.00,Monday
7,-6.7
545,19.712833666321004
546,-0.7762893928151899
547,16.607114922628075
548,148.8871726793564
720,3551.3333462223945
721,3551.3333462223945
784,0.0
785,0.0
848,0.0
849,0.0
1121,4039.070794362279
1135,1403.2903445448858
1161,0.07172185244543769
1163,0.0
1166,1095.374796866637
1168,1095.374796866637
2,1, 1, 8, 0,18, 0.00,60.00,Monday
7,-5.6
545,19.72163612741649
546,-0.6372626196800443
547,16.55946795985449
548,148.8871726793564
720,3089.923788482527
721,3089.923788482527
784,0.0
785,0.0
848,0.0
849,0.0
1121,4171.841055836962
1135,1416.4938423748765
1161,0.07172185244543769
1163,0.0
1166,464.8834952986408
1168,464.8834952986408
2,1, 1, 8, 0,19, 0.00,60.00,Monday
7,-5.6
545,19.72205034774598
546,-0.9451895668901549
547,16.490368587931677
548,148.8871726793564
720,3036.684105805911
721,3036.684105805911
784,0.0
785,0.0
848,0.0
849,0.0
1121,4171.692650133887
1135,1416.6660842668691
1161,0.07172185244543769
1163,0.0
1166,393.198612496029
1168,393.198612496029
2,1, 1, 8, 0,20, 0.00,60.00,Monday
7,-3.9
545,19.71791329013314
546,-1.0618901232184572
547,16.429275375076728
548,148.8871726793564
720,3128.6319333935025
721,3128.6319333935025
784,0.0
785,0.0
848,0.0
849,0.0
1121,4381.625587366727
1135,1437.1089899639205
1161,0.07172185244543769
1163,0.0
1166,301.4797714010024
1168,301.4797714010024
2,1, 1, 8, 0,21, 0.00,60.00,Monday
7,-3.3
545,19.700203062273758
546,-0.744452535890437
547,16.349382408640825
548,148.8871726793564
720,3863.2617787888175
721,3863.2617787888175
784,0.0
785,0.0
848,0.0
849,0.0
1121,4457.271376748116
1135,1444.1661769089515
1161,0.07172185244543769
1163,0.0
1166,1094.873664043866
1168,1094.873664043866
2,1, 1, 8, 0,22, 0.00,60.00,Monday
7,-3.3
545,19.719731097259725
546,-0.49871315726299503
547,16.2776554836582
548,148.8871726793564
720,3423.1553789565733
721,3423.1553789565733
784,0.0
785,0.0
848,0.0
849,0.0
1121,4457.765642816244
1135,1443.5824088138663
1161,0.07172185244543769
1163,0.0
1166,583.711666727303
1168,583.711666727303
2,1, 1, 8, 0,23, 0.00,60.00,Monday
7,-3.3
545,18.969149312462132
546,-0.9645798702598166
547,16.197003141188144
548,148.8871726793564
720,2969.519033699098
721,2969.519033699098
784,0.0
785,0.0
848,0.0
849,0.0
1121,4457.396579664574
1135,1444.018298696954
1161,0.07172185244543769
1163,0.0
1166,40.735823270362744
1168,40.735823270362744
2,1, 1, 8, 0,24, 0.00,60.00,Monday
7,-3.3
545,18.731713123760713
546,-0.5130768899751248
547,16.084781842254944
548,148.8871726793564
720,3097.6071275365885
721,3097.6071275365885
784,0.0
785,0.0
848,0.0
849,0.0
1121,4475.367806597021
1135,1422.8188015907522
1161,0.07172185244543769
1163,0.0
1166,126.38638982751945
1168,126.38638982751945
2,2, 1, 9, 0, 1, 0.00,60.00,Tuesday
7,-3.3
545,18.64325540302723
546,-0.5196019463131787
547,15.996880566684032
548,148.8871726793564
720,3520.917128813655
721,3520.917128813655
784,0.0
785,0.0
848,0.0
849,0.0
1121,4481.122064416798
1135,1416.043177910654
1161,0.07172185244543769
1163,0.0
1166,572.5422148113948
1168,572.5422148113948
2,2, 1, 9, 0, 2, 0.00,60.00,Tuesday
7,-2.8
545,18.625272960487337
546,-0.2715491607691481
547,15.917426545575877
548,148.8871726793564
720,3254.706509399799
721,3254.706509399799
784,0.0
785,0.0
848,0.0
849,0.0
1121,4546.770710594777
1135,1419.4535027627137
1161,0.07172185244543769
1163,0.0
1166,193.33769506207864
1168,193.33769506207864
2,2, 1, 9, 0, 3, 0.00,60.00,Tuesday
7,-2.2
545,18.659963123149506
546,0.258810473568821
547,15.841251162329058
548,135.65481000193844
720,2816.117170384554
721,2816.117170384554
784,0.0
785,0.0
848,0.0
849,0.0
1121,4167.292477333193
1135,1299.4377503091087
1161,0.06534819048527811
1163,17.773277579544768
1166,0.0
1168,0.0
2,2, 1, 9, 0, 4, 0.00,60.00,Tuesday
7,-3.3
545,18.618151111817287
546,-0.5253782313136188
547,15.752099478171234
548,143.9288814415576
720,2963.730544658227
721,2963.730544658227
784,0.0
785,0.0
848,0.0
849,0.0
1121,4316.001930550562
1135,1366.6992741516729
1161,0.06933411075970906
1163,6.65833802199991
1166,0.0
1168,0.0
2,2, 1, 9, 0, 5, 0.00,60.00,Tuesday
7,-5.6
545,18.575213288644612
546,-1.1838422092544245
547,15.656630177654966
548,148.8871726793564
720,3596.260431691344
721,3596.260431691344
784,0.0
785,0.0
848,0.0
849,0.0
1121,4186.373594553709
1135,1381.436661084132
1161,3.0879137702438872
1163,0.0
1166,925.2257472552305
1168,925.2257472552305
2,2, 1, 9, 0, 6, 0.00,60.00,Tuesday
7,-7.2
545,19.319738846173163
546,-2.7133411445788083
547,15.563677502138303
548,148.8871726793564
720,5348.854321262463
721,5348.854321262463
784,0.0
785,0.0
848,0.0
849,0.0
1121,4002.453767633344
1135,1363.9928575483139
1161,1.3055552494753584
1163,0.0
1166,3190.2699328269377
1168,3190.2699328269377
2,2, 1, 9, 0, 7, 0.00,60.00,Tuesday
7,-7.2
545,19.57462536916119
546,-2.9876421338698327
547,15.519847592997655
548,148.8871726793564
720,5168.012756696004
721,5168.012756696004
784,0.0
785,0.0
848,0.0
849,0.0
1121,3985.3427752211605
1135,1383.5500031259755
1161,1.3055552494753584
1163,0.0
1166,3177.7499542270994
1168,3177.7499542270994
2,2, 1, 9, 0, 8, 0.00,60.00,Tuesday
7,-8.9
545,19.65208442655031
546,-4.519317103816812
547,15.42713121378632
548,148.8871726793564
720,5287.771474407458
721,5287.771474407458
784,0.0
785,0.0
848,0.0
849,0.0
1121,3785.468402005095
1135,1371.3855449057053
1161,0.07172185244543769
1163,0.0
1166,3570.162424028819
1168,3570.162424028819
2,2, 1, 9, 0, 9, 0.00,60.00,Tuesday
7,-7.8
545,19.7034161774566
546,-3.74322233224803
547,15.370374308725879
548,148.8871726793564
720,3975.0371515836505
721,3975.0371515836505
784,0.0
785,0.0
848,0.0
849,0.0
1121,3911.705788176817
1135,1386.6326946053073
1161,0.07172185244543769
1163,0.0
1166,2011.2019289099414
1168,2011.2019289099414
2,2, 1, 9, 0,10, 0.00,60.00,Tuesday
7,-7.2
545,19.73787757333667
546,-1.6474769154866278
547,15.310788338521878
548,148.8871726793564
720,2838.646290464503
721,2838.646290464503
784,0.0
785,0.0
848,0.0
849,0.0
1121,3981.3700199494056
1135,1395.1579436412017
1161,0.07172185244543769
1163,0.0
1166,582.3931615233118
1168,582.3931615233118
2,2, 1, 9, 0,11, 0.00,60.00,Tuesday
7,-6.1
545,19.948002237644072
546,0.9920603999795005
547,15.27088077003388
548,100.5409594910331
720,1478.3483750985706
721,1478.3483750985706
784,0.0
785,0.0
848,0.0
849,0.0
1121,2669.592157613773
1135,951.9072190445359
1161,0.048433275953746406
1163,64.9413691856552
1166,0.0
1168,0.0
2,2, 1, 9, 0,12, 0.00,60.00,Tuesday
7,-5.0
545,19.84785591146147
546,2.675243970389651
547,15.25627068609097
548,80.6892074879917
720,1322.8566047086097
721,1322.8566047086097
784,0.0
785,0.0
848,0.0
849,0.0
1121,2175.2229353150674
1135,774.327863050885
1161,0.03887008943626937
1163,91.60879673084365
1166,0.0
1168,0.0
2,2, 1, 9, 0,13, 0.00,60.00,Tuesday
7,-5.0
545,19.84968002654831
546,3.6168328169718142
547,15.24933677676098
548,63.4838616717316
720,1076.1730935656233
721,1076.1730935656233
784,0.0
785,0.0
848,0.0
849,0.0
1121,1689.4880765303014
1135,608.0771590618037
1161,0.030581826736476966
1163,114.7210349600436
1166,0.0
1168,0.0
2,2, 1, 9, 0,14, 0.00,60.00,Tuesday
7,-5.0
545,19.72581457809031
546,3.6158356660334094
547,15.260457091658889
548,43.92797293023058
720,734.7313127592479
721,734.7313127592479
784,0.0
785,0.0
848,0.0
849,0.0
1121,1151.5541089850892
1135,420.81033747516585
1161,0.02116124668950456
1163,140.99079717551092
1166,0.0
1168,0.0
2,2, 1, 9, 0,15, 0.00,60.00,Tuesday
7,-5.0
545,19.786009768738406
546,2.755398668783983
547,15.287342725866017
548,30.41647315064338
720,506.56722506008737
721,506.56722506008737
784,0.0
785,0.0
848,0.0
849,0.0
1121,789.7413830149567
1135,290.6989429826192
1161,0.014652405813586804
1163,159.14102797405127
1166,0.0
1168,0.0
2,2, 1, 9, 0,16, 0.00,60.00,Tuesday
7,-5.6
545,20.34212655650986
546,1.1968050436474484
547,15.329139575141467
548,18.48884647349064
720,285.4417493836645
721,285.4417493836645
784,0.0
785,0.0
848,0.0
849,0.0
1121,467.36000849115663
1135,176.03061324521374
1161,0.008906566153164283
1163,175.16359143138433
1166,0.0
1168,0.0
2,2, 1, 9, 0,17, 0.00,60.00,Tuesday
7,-6.1
545,19.760500433392227
546,-0.566870773029313
547,15.368283513130867
548,0.0
720,-5.745011059629178
721,-5.745011059629178
784,0.0
785,0.0
848,0.0
849,0.0
1121,0.0
1135,0.0
1161,0.0
1163,200.0
1166,0.0
1168,0.0
2,2, 1, 9, 0,18, 0.00,60.00,Tuesday
7,-7.2
545,19.559387794015176
546,-1.7014829227063717
547,15.41532603752931
548,46.41055559840602
720,794.4763142163993
721,794.4763142163993
784,0.0
785,0.0
848,0.0
849,0.0
1121,1143.1824950273606
1135,435.6167528328932
1161,0.022357249356778082
1163,137.6556834647116
1166,0.0
1168,0.0
2,2, 1, 9, 0,19, 0.00,60.00,Tuesday
7,-7.2
545,19.556953489999277
546,-3.368396615278592
547,15.426681274343183
548,69.41793139086126
720,1180.3449750940836
721,1180.3449750940836
784,0.0
785,0.0
848,0.0
849,0.0
1121,1742.6317394850134
1135,649.016446353974
1161,0.033440538476116215
1163,106.74937320796039
1166,0.0
1168,0.0
2,2, 1, 9, 0,20, 0.00,60.00,Tuesday
7,-8.3
545,19.488335900818118
546,-4.389053713168901
547,15.412077148964158
548,90.22557454009943
720,1434.9607606714344
721,1434.9607606714344
784,0.0
785,0.0
848,0.0
849,0.0
1121,2227.6880470642386
1135,835.414164900465
1161,0.043464238908514856
1163,78.7977794032015
1166,0.0
1168,0.0
2,2, 1, 9, 0,21, 0.00,60.00,Tuesday
7,-8.3
545,19.379115906907415
546,-4.927324739259358
547,15.376879090514748
548,113.85874287682843
720,1803.3537334224138
721,1803.3537334224138
784,0.0
785,0.0
848,0.0
849,0.0
1121,2866.1004125821896
1135,1052.7175034994452
1161,0.054849011321812316
1163,47.050767787854795
1166,0.0
1168,0.0
2,2, 1, 9, 0,22, 0.00,60.00,Tuesday
7,-8.9
545,19.386228618132574
546,-4.504028046562842
547,15.320804123055607
548,148.8871726793564
720,2421.6329062240093
721,2421.6329062240093
784,0.0
785,0.0
848,0.0
849,0.0
1121,3790.1050914646003
1135,1366.1971393335846
1161,0.07172185244543769
1163,0.0
1166,94.28751596557868
1168,94.28751596557868
2,2, 1, 9, 0,23, 0.00,60.00,Tuesday
7,-9.4
545,18.8669668987409
546,-4.724269906305336
547,15.254872990081768
548,148.8871726793564
720,2341.9332013932963
721,2341.9332013932963
784,0.0
785,0.0
848,0.0
849,0.0
1121,3732.638777184728
1135,1360.248866791049
1161,0.07172185244543769
1163,0.0
1166,193.78456400457844
1168,193.78456400457844
2,2, 1, 9, 0,24, 0.00,60.00,Tuesday
7,-10.6
545,18.68485129684797
546,-5.010213847818233
547,15.148100253648161
548,148.8871726793564
720,2879.1102134042667
721,2879.1102134042667
784,0.0
785,0.0
848,0.0
849,0.0
1121,3583.9383144775557
1135,1323.3447115868842
1161,7.235999643164885
1163,0.0
1166,951.7199716780474
1168,951.7199716780474
2,3, 1,10, 0, 1, 0.00,60.00,Wednesday
7,-10.6
545,18.614996458865587
546,-5.351650889124168
547,15.060222838453166
548,148.8871726793564
720,3415.3432573068894
721,3415.3432573068894
784,0.0
785,0.0
848,0.0
849,0.0
1121,3588.1658438727595
1135,1318.712143999811
1161,7.235999643164885
1163,0.0
1166,1580.8165115081101
1168,1580.8165115081101
2,3, 1,10, 0, 2, 0.00,60.00,Wednesday
7,-11.7
545,18.589393883506222
546,-5.91407589524851
547,14.95482712875152
548,148.8871726793564
720,3839.6815390698666
721,3839.6815390698666
784,0.0
785,0.0
848,0.0
849,0.0
1121,3466.894857220019
1135,1303.0578664758798
1161,7.774822919733912
1163,0.0
1166,2217.452145568597
1168,2217.452145568597
2,3, 1,10, 0, 3, 0.00,60.00,Wednesday
7,-12.2
545,18.57896691234977
546,-6.638846441923437
547,14.855438675418332
548,148.8871726793564
720,4173.75401960861
721,4173.75401960861
784,0.0
785,0.0
848,0.0
849,0.0
1121,3406.3706429444846
1135,1293.6185493417534
1161,9.878707110254572
1163,0.0
1166,2703.5186555963132
1168,2703.5186555963132
2,3, 1,10, 0, 4, 0.00,60.00,Wednesday
7,-12.8
545,18.57346620681186
546,-7.160014567969084
547,14.752131395912963
548,148.8871726793564
720,4447.298373647805
721,4447.298373647805
784,0.0
785,0.0
848,0.0
849,0.0
1121,3333.969243922568
1135,1282.6988907988016
1161,12.472110374749942
1163,0.0
1166,3140.2498605660344
1168,3140.2498605660344
2,3, 1,10, 0, 5, 0.00,60.00,Wednesday
7,-13.3
545,18.573896724202704
546,-7.608129065356001
547,14.64957132467243
548,148.8871726793564
720,4568.815236869288
721,4568.815236869288
784,0.0
785,0.0
848,0.0
849,0.0
1121,3276.0511231586793
1135,1274.272658689377
1161,14.108976477096425
1163,0.0
1166,3378.2914000143664
1168,3378.2914000143664
2,3, 1,10, 0, 6, 0.00,60.00,Wednesday
7,-13.3
545,19.327149444984123
546,-7.682995760867821
547,14.550811544763262
548,148.8871726793564
720,5702.358332120082
721,5702.358332120082
784,0.0
785,0.0
848,0.0
849,0.0
1121,3276.1579799293936
1135,1274.15489014065
1161,14.110206924488745
1163,0.0
1166,4716.470158118566
1168,4716.470158118566
2,3, 1,10, 0, 7, 0.00,60.00,Wednesday
7,-13.3
545,19.57592843874821
546,-7.784478479389455
547,14.486431980161358
548,148.8871726793564
720,5520.254913483663
721,5520.254913483663
784,0.0
785,0.0
848,0.0
849,0.0
1121,3259.6577170276028
1135,1291.4110825338166
1161,14.110206924488745
1163,0.0
1166,4616.143486849338
1168,4616.143486849338
2,3, 1,10, 0, 8, 0.00,60.00,Wednesday
7,-12.2
545,19.6710853709241
546,-7.019445857412995
547,14.406504549715217
548,148.8871726793564
720,4629.098986090754
721,4629.098986090754
784,0.0
785,0.0
848,0.0
849,0.0
1121,3363.8665994800817
1135,1308.3325744765475
1161,16.26038163055026
1163,0.0
1166,3516.808806352173
1168,3516.808806352173
2,3, 1,10, 0, 9, 0.00,60.00,Wednesday
7,-10.0
545,19.70546107805575
546,-4.878440842115616
547,14.338560191068108
548,148.8871726793564
720,4067.8010107829923
721,4067.8010107829923
784,0.0
785,0.0
848,0.0
849,0.0
1121,3634.8159669599345
1135,1349.8837947445147
1161,6.940251499547236
1163,0.0
1166,2565.6608830871596
1168,2565.6608830871596
2,3, 1,10, 0,10, 0.00,60.00,Wednesday
7,-8.3
545,19.746818745643544
546,-0.9431731867194585
547,14.287902971960085
548,148.8871726793564
720,2808.686918241856
721,2808.686918241856
784,0.0
785,0.0
848,0.0
849,0.0
1121,3853.355717641466
1135,1380.4687720204136
1161,0.07172185244543769
1163,0.0
1166,777.0961037370371
1168,777.0961037370371
2,3, 1,10, 0,11, 0.00,60.00,Wednesday
7,-7.2
545,19.87137320810307
546,3.099639103861125
547,14.249592753568395
548,131.85852374050302
720,2029.5778253969602
721,2029.5778253969602
784,0.0
785,0.0
848,0.0
849,0.0
1121,3477.0590719682464
1135,1235.3883441910132
1161,0.06351990035389447
1163,22.871556748434063
1166,0.0
1168,0.0
2,3, 1,10, 0,12, 0.00,60.00,Wednesday
7,-5.6
545,20.002375315995923
546,7.686818950903584
547,14.224137068255445
548,84.92764753688596
720,1356.4176121176333
721,1356.4176121176333
784,0.0
785,0.0
848,0.0
849,0.0
1121,2259.078221360487
1135,808.7740415636324
1161,0.040911893169670595
1163,85.91512412261169
1166,0.0
1168,0.0
2,3, 1,10, 0,13, 0.00,60.00,Wednesday
7,-5.6
545,19.911946365794613
546,9.758106065671326
547,14.220122397635148
548,52.979896387405184
720,884.5501836177991
721,884.5501836177991
784,0.0
785,0.0
848,0.0
849,0.0
1121,1373.572530951923
1135,505.8800091750938
1161,0.02552181708184057
1163,128.83112688352196
1166,0.0
1168,0.0
2,3, 1,10, 0,14, 0.00,60.00,Wednesday
7,-2.8
545,19.734492798097836
546,8.082049785129167
547,14.238166283637689
548,29.119655654002553
720,550.7313876202279
721,550.7313876202279
784,0.0
785,0.0
848,0.0
849,0.0
1121,803.7455913967985
1135,284.25568672408554
1161,0.014027651635996015
1163,160.88318648303868
1166,0.0
1168,0.0
2,3, 1,10, 0,15, 0.00,60.00,Wednesday
7,-2.2
545,20.199413416678087
546,8.88405058822467
547,14.270789703190232
548,6.6138559502436465
720,93.62224704662913
721,93.62224704662913
784,0.0
785,0.0
848,0.0
849,0.0
1121,182.71210114761874
1135,64.67730422092663
1161,0.00318605393402208
1163,191.1155280423191
1166,0.0
1168,0.0
2,3, 1,10, 0,16, 0.00,60.00,Wednesday
7,-1.7
545,20.40536791813127
546,7.21879341764454
547,14.327385979426284
548,0.0
720,-554.7267574314319
721,-554.7267574314319
784,0.0
785,0.0
848,0.0
849,0.0
1121,0.0
1135,0.0
1161,0.0
1163,200.0
1166,0.0
1168,0.0
2,3, 1,10, 0,17, 0.00,60.00,Wednesday
7,-2.8
545,20.27592587256452
546,4.9469711292516
547,14.393909960574382
548,0.0
720,-471.6032386016104
721,-471.6032386016104
784,0.0
785,0.0
848,0.0
849,0.0
1121,0.0
1135,0.0
1161,0.0
1163,200.0
1166,0.0
1168,0.0
2,3, 1,10, 0,18, 0.00,60.00,Wednesday
7,-3.9
545,19.69210534283073
546,1.8665440811179217
547,14.471720527703594
548,20.190254562143885
720,392.50842208085305
721,392.50842208085305
784,0.0
785,0.0
848,0.0
849,0.0
1121,535.43297003721
1135,196.70599166472084
1161,0.009726155253555463
1163,172.8781259213721
1166,0.0
1168,0.0
2,3, 1,10, 0,19, 0.00,60.00,Wednesday
7,-3.9
545,19.664668247436893
546,-0.1590907053455854
547,14.525250439984225
548,39.17456615446206
720,768.1480938468467
721,768.1480938468467
784,0.0
785,0.0
848,0.0
849,0.0
1121,1057.2618465395701
1135,377.3337952027112
1161,0.018871376620060394
1163,147.37621526321627
1166,0.0
1168,0.0
2,3, 1,10, 0,20, 0.00,60.00,Wednesday
7,-3.9
545,19.64365993810687
546,-1.1526910447277583
547,14.549082891427348
548,51.14917192795964
720,966.4682174688187
721,966.4682174688187
784,0.0
785,0.0
848,0.0
849,0.0
1121,1393.3397477308256
1135,492.4087756161019
1161,0.02463984621366093
1163,131.29054709677038
1166,0.0
1168,0.0
2,3, 1,10, 0,21, 0.00,60.00,Wednesday
7,-3.9
545,19.691438075414183
546,-1.777927173943269
547,14.548917001829569
548,61.34142037062971
720,1136.401575397771
721,1136.401575397771
784,0.0
785,0.0
848,0.0
849,0.0
1121,1684.3667083219104
1135,590.2731093610133
1161,0.029549709317374197
1163,117.59914639724593
1166,0.0
1168,0.0
2,3, 1,10, 0,22, 0.00,60.00,Wednesday
7,-5.0
545,19.53280372739821
546,-2.2251356392667216
547,14.534954085025644
548,80.92033542705347
720,1454.5873977650217
721,1454.5873977650217
784,0.0
785,0.0
848,0.0
849,0.0
1121,2185.4461859545277
1135,772.1130317534275
1161,0.03898142890690071
1163,91.29832100598409
1166,0.0
1168,0.0
2,3, 1,10, 0,23, 0.00,60.00,Wednesday
7,-4.4
545,18.910876597174056
546,-2.9592162494170555
547,14.488144223562369
548,66.12618354620108
720,1122.3974518267678
721,1122.3974518267678
784,0.0
785,0.0
848,0.0
849,0.0
1121,1797.709984698577
1135,632.2438861573615
1161,0.03185467292962141
1163,111.1716392047882
1166,0.0
1168,0.0
2,3, 1,10, 0,24, 0.00,60.00,Wednesday
7,-3.9
545,18.69435100558945
546,-2.58420322683462
547,14.43987087248242
548,78.98299692041849
720,1439.7589444786881
721,1439.7589444786881
784,0.0
785,0.0
848,0.0
849,0.0
1121,2196.3648588681617
1135,745.9196582542052
1161,2.8685383591997002
1163,93.80696537948474
1166,0.0
1168,0.0
2,4, 1,11, 0, 1, 0.00,60.00,Thursday
7,-3.9
545,18.537610571767416
546,-1.9902909171450753
547,14.39227836199219
548,100.32205539872545
720,1905.8500255917697
721,1905.8500255917697
784,0.0
785,0.0
848,0.0
849,0.0
1121,2840.7156153092646
1135,943.2881637579139
1161,3.643535522021395
1163,65.1166394236254
1166,0.0
1168,0.0
2,4, 1,11, 0, 2, 0.00,60.00,Thursday
7,-2.2
545,18.56426381314636
546,-1.0538259315862046
547,14.342116455528156
548,109.6122771389433
720,2239.491895205256
721,2239.491895205256
784,0.0
785,0.0
848,0.0
849,0.0
1121,3299.487710576897
1135,1046.6645869769925
1161,0.052802874513007005
1163,52.756523395218416
1166,0.0
1168,0.0
2,4, 1,11, 0, 3, 0.00,60.00,Thursday
7,-2.2
545,18.550802346875066
546,-0.09265403095941169
547,14.290939582334508
548,120.94271236692964
720,2498.660049339358
721,2498.660049339358
784,0.0
785,0.0
848,0.0
849,0.0
1121,3660.5315265034606
1135,1151.736077434049
1161,3.1030544939276314
1163,37.45480949019051
1166,0.0
1168,0.0
2,4, 1,11, 0, 4, 0.00,60.00,Thursday
7,-1.7
545,18.59248780591705
546,0.41616568725063635
547,14.239228146314321
548,123.57014864382498
720,2621.6751355793476
721,2621.6751355793476
784,0.0
785,0.0
848,0.0
849,0.0
1121,3814.2636706575963
1135,1185.0818500457588
1161,0.05952667987966378
1163,34.00685328101745
1166,0.0
1168,0.0
2,4, 1,11, 0, 5, 0.00,60.00,Thursday
7,-1.1
545,18.619956895577882
546,0.9077982907220361
547,14.18966204041481
548,119.47235370365775
720,2576.017975271703
721,2576.017975271703
784,0.0
785,0.0
848,0.0
849,0.0
1121,3735.998734521172
1135,1152.6065667350963
1161,0.05755263228852451
1163,39.51158447194987
1166,0.0
1168,0.0
2,4, 1,11, 0, 6, 0.00,60.00,Thursday
7,-1.1
545,19.300756208986
546,1.7139716675763186
547,14.15943753792271
548,148.8871726793564
720,3601.0945365002553
721,3601.0945365002553
784,0.0
785,0.0
848,0.0
849,0.0
1121,4769.102770239049
1135,1436.8519152310441
1161,0.07172185244543769
1163,0.0
1166,279.4676882802901
1168,279.4676882802901
2,4, 1,11, 0, 7, 0.00,60.00,Thursday
7,-1.1
545,19.592114585734446
546,2.063946446501582
547,14.145739645337203
548,148.8871726793564
720,3445.533751999681
721,3445.533751999681
784,0.0
785,0.0
848,0.0
849,0.0
1121,4752.87275473602
1135,1456.1126551110276
1161,0.07172185244543769
1163,0.0
1166,175.7805333140368
1168,175.7805333140368
2,4, 1,11, 0, 8, 0.00,60.00,Thursday
7,0.0
545,19.729259387005254
546,2.5383877948655456
547,14.10974419373507
548,134.51296922049272
720,3001.754694173651
721,3001.754694173651
784,0.0
785,0.0
848,0.0
849,0.0
1121,4366.492580854307
1135,1335.8636410295742
1161,0.0647979676537872
1163,19.307601673891007
1166,0.0
1168,0.0
2,4, 1,11, 0, 9, 0.00,60.00,Thursday
7,1.1
545,19.788771268710242
546,3.772611132880018
547,14.0677906421725
548,116.04400388475867
720,2633.207784214397
721,2633.207784214397
784,0.0
785,0.0
848,0.0
849,0.0
1121,3819.9687544399035
1135,1166.9204424845705
1161,0.055900977074420134
1163,44.117308272407676
1166,0.0
1168,0.0
2,4, 1,11, 0,10, 0.00,60.00,Thursday
7,1.7
545,19.776992107452326
546,4.911587782978966
547,14.031830839772958
548,105.12831499599872
720,2450.856463480399
721,2450.856463480399
784,0.0
785,0.0
848,0.0
849,0.0
1121,3484.839594129084
1135,1064.1295536954021
1161,0.05064261460874969
1163,58.78051700553608
1166,0.0
1168,0.0
2,4, 1,11, 0,11, 0.00,60.00,Thursday
7,3.3
545,19.80349912836275
546,6.327306934654936
547,13.99490377553055
548,88.04354127019657
720,2147.9002890467
721,2147.9002890467
784,0.0
785,0.0
848,0.0
849,0.0
1121,3003.371157582328
1135,904.3543295215786
1161,0.042412435873970145
1163,81.7307851711294
1166,0.0
1168,0.0
2,4, 1,11, 0,12, 0.00,60.00,Thursday
7,3.9
545,19.806580266932407
546,7.803742545352568
547,13.96396225395312
548,73.38046333881937
720,1828.0477691729957
721,1828.0477691729957
784,0.0
785,0.0
848,0.0
849,0.0
1121,2513.14090626349
1135,758.5005478370199
1161,0.03534890087608456
1163,101.42780848284364
1166,0.0
1168,0.0
2,4, 1,11, 0,13, 0.00,60.00,Thursday
7,3.9
545,19.769165321997043
546,8.728183066178373
547,13.945024351516068
548,63.783224387566975
720,1610.8677876306028
721,1610.8677876306028
784,0.0
785,0.0
848,0.0
849,0.0
1121,2168.160531058583
1135,659.3469266174933
1161,0.03072571054964408
1163,114.31980769593584
1166,0.0
1168,0.0