Program Version,EnergyPlus, Version 22.2.0-c249759bad, YMD=2023.09.01 20:49
1,5,Environment Title[],Latitude[deg],Longitude[deg],Time Zone[],Elevation[m]
2,8,Day of Simulation[],Month[],Day of Month[],DST Indicator[1=yes 0=no],Hour[],StartMinute[],EndMinute[],DayType
3,5,Cumulative Day of Simulation[],Month[],Day of Month[],DST Indicator[1=yes 0=no],DayType  ! When Daily Report Variables Requested
4,2,Cumulative Days of Simulation[],Month[]  ! When Monthly Report Variables Requested
5,1,Cumulative Days of Simulation[] ! When Run Period Report Variables Requested
6,1,Calendar Year of Simulation[] ! When Annual Report Variables Requested
581,11,LIVING,AFN Zone Infiltration Air Change Rate [ach] !RunPeriod [Value,Min,Month,Day,Hour,Minute,Max,Month,Day,Hour,Minute]
582,11,ATTIC,AFN Zone Infiltration Air Change Rate [ach] !RunPeriod [Value,Min,Month,Day,Hour,Minute,Max,Month,Day,Hour,Minute]
583,11,CRAWLSPACE,AFN Zone Infiltration Air Change Rate [ach] !RunPeriod [Value,Min,Month,Day,Hour,Minute,Max,Month,Day,Hour,Minute]
1038,11,Facility,Facility Heating Setpoint Not Met Time [hr] !RunPeriod [Value,Min,Month,Day,Hour,Minute,Max,Month,Day,Hour,Minute]
1039,11,Facility,Facility Cooling Setpoint Not Met Time [hr] !RunPeriod [Value,Min,Month,Day,Hour,Minute,Max,Month,Day,Hour,Minute]
1115,11,DX_HEATING_COIL,Heating Coil Heating Energy [J] !RunPeriod [Value,Min,Month,Day,Hour,Minute,Max,Month,Day,Hour,Minute]
1128,11,DX_HEATING_COIL,Heating Coil Electricity Energy [J] !RunPeriod [Value,Min,Month,Day,Hour,Minute,Max,Month,Day,Hour,Minute]
1153,11,DX_HEATING_COIL,Heating Coil Defrost Electricity Energy [J] !RunPeriod [Value,Min,Month,Day,Hour,Minute,Max,Month,Day,Hour,Minute]
1154,11,DX_HEATING_COIL,Heating Coil Crankcase Heater Electricity Energy [J] !RunPeriod [Value,Min,Month,Day,Hour,Minute,Max,Month,Day,Hour,Minute]
1155,11,HEATING_RESISTANCE_BACKUP,Heating Coil Heating Energy [J] !RunPeriod [Value,Min,Month,Day,Hour,Minute,Max,Month,Day,Hour,Minute]
1156,11,HEATING_RESISTANCE_BACKUP,Heating Coil Electricity Energy [J] !RunPeriod [Value,Min,Month,Day,Hour,Minute,Max,Month,Day,Hour,Minute]
1292,11,WATER HEATER,Water Heater Heat Loss Energy [J] !RunPeriod [Value,Min,Month,Day,Hour,Minute,Max,Month,Day,Hour,Minute]
1306,11,WATER HEATER,Water Heater Heating Energy [J] !RunPeriod [Value,Min,Month,Day,Hour,Minute,Max,Month,Day,Hour,Minute]
1307,11,WATER HEATER,Water Heater Unmet Demand Heat Transfer Energy [J] !RunPeriod [Value,Min,Month,Day,Hour,Minute,Max,Month,Day,Hour,Minute]
1308,11,WATER HEATER,Water Heater Electricity Energy [J] !RunPeriod [Value,Min,Month,Day,Hour,Minute,Max,Month,Day,Hour,Minute]
13,11,Electricity:Facility [J] !RunPeriod [Value,Min,Month,Day,Hour,Minute,Max,Month,Day,Hour,Minute]
1134,11,Heating:Electricity [J] !RunPeriod [Value,Min,Month,Day,Hour,Minute,Max,Month,Day,Hour,Minute]
1096,11,Cooling:Electricity [J] !RunPeriod [Value,Min,Month,Day,Hour,Minute,Max,Month,Day,Hour,Minute]
562,11,Fans:Electricity [J] !RunPeriod [Value,Min,Month,Day,Hour,Minute,Max,Month,Day,Hour,Minute]
1379,11,Pumps:Electricity [J] !RunPeriod [Value,Min,Month,Day,Hour,Minute,Max,Month,Day,Hour,Minute]
1326,11,WaterSystems:Electricity [J] !RunPeriod [Value,Min,Month,Day,Hour,Minute,Max,Month,Day,Hour,Minute]
61,11,InteriorLights:Electricity [J] !RunPeriod [Value,Min,Month,Day,Hour,Minute,Max,Month,Day,Hour,Minute]
1046,11,ExteriorLights:Electricity [J] !RunPeriod [Value,Min,Month,Day,Hour,Minute,Max,Month,Day,Hour,Minute]
134,11,InteriorEquipment:Electricity [J] !RunPeriod [Value,Min,Month,Day,Hour,Minute,Max,Month,Day,Hour,Minute]
170,11,gas_dryer:InteriorEquipment:Electricity [J] !RunPeriod [Value,Min,Month,Day,Hour,Minute,Max,Month,Day,Hour,Minute]
207,11,clotheswasher:InteriorEquipment:Electricity [J] !RunPeriod [Value,Min,Month,Day,Hour,Minute,Max,Month,Day,Hour,Minute]
244,11,dishwasher:InteriorEquipment:Electricity [J] !RunPeriod [Value,Min,Month,Day,Hour,Minute,Max,Month,Day,Hour,Minute]
281,11,refrigerator:InteriorEquipment:Electricity [J] !RunPeriod [Value,Min,Month,Day,Hour,Minute,Max,Month,Day,Hour,Minute]
318,11,electric_mels:InteriorEquipment:Electricity [J] !RunPeriod [Value,Min,Month,Day,Hour,Minute,Max,Month,Day,Hour,Minute]
355,11,NaturalGas:Facility [J] !RunPeriod [Value,Min,Month,Day,Hour,Minute,Max,Month,Day,Hour,Minute]
403,11,InteriorEquipment:NaturalGas [J] !RunPeriod [Value,Min,Month,Day,Hour,Minute,Max,Month,Day,Hour,Minute]
476,11,gas_dryer:InteriorEquipment:NaturalGas [J] !RunPeriod [Value,Min,Month,Day,Hour,Minute,Max,Month,Day,Hour,Minute]
513,11,gas_mels:InteriorEquipment:NaturalGas [J] !RunPeriod [Value,Min,Month,Day,Hour,Minute,Max,Month,Day,Hour,Minute]
End of Data Dictionary
1,EXTREME_WINTER,  25.79, -80.32,  -5.00,   8.80
5,7
1038,0.0,0.0, 1,15, 1,15,0.0, 1,15, 1,15
1039,0.0,0.0, 1,15, 1,15,0.0, 1,15, 1,15
581,0.2284299668174784,0.025407270551311544, 1,15,20, 7,0.43918934689833306, 1,17,14,60
582,4.010785553719219,0.06499979359515144, 1,15,19,52,8.330609600354373, 1,16,12,60
583,0.016256350504610134,0.0008995217424196104, 1,19,10, 2,0.0700911695459432, 1,16, 6, 3
1115,0.0,0.0, 1,15, 1,15,0.0, 1,15, 1,15
1128,0.0,0.0, 1,15, 1,15,0.0, 1,15, 1,15
1153,0.0,0.0, 1,15, 1,15,0.0, 1,15, 1,15
1154,0.0,0.0, 1,15, 1,15,0.0, 1,15, 1,15
1155,0.0,0.0, 1,15, 1,15,0.0, 1,15, 1,15
1156,0.0,0.0, 1,15, 1,15,0.0, 1,15, 1,15
1292,-22478630.18832107,-38015.729429315026, 1,18, 8,30,-3204.3483948053695, 1,19,10, 2
1306,243825496.20809442,0.0, 1,15, 1,15,4050000.0, 1,15, 9,60
1307,72575202.2203789,0.0, 1,15, 1,15,5715592.039206883, 1,18,20,60
1308,243825496.20809442,0.0, 1,15, 1,15,4050000.0, 1,15, 9,60
13,788870230.1175027,151703.1275401932, 1,16, 4,60,6020774.236780368, 1,21,21,15
61,301924526.02383536,88139.10953165221, 1,15, 1,15,1282023.4113694867, 1,15,20,15
134,70666020.44019976,63564.01800854099, 1,15, 4,15,156554.22484006523, 1,20,20,15
170,5241013.419656067,348.4159749238097, 1,15, 4,15,17476.39704006126, 1,20,12,15
207,6509451.13922267,815.2532113832032, 1,15, 3,15,22990.642799023623, 1,20,10,15
244,12749673.399825225,1521.856143006317, 1,15, 4,15,53038.631142310165, 1,20,20,15
281,46165882.481495745,59938.60262432081, 1,15, 5,15,81951.81706819107, 1,15,19,15
318,0.0,0.0, 1,15, 1,15,0.0, 1,15, 1,15
355,197687796.27748066,18561.32405820678, 1,15, 4,15,724774.895203776, 1,20,18,15
403,197687796.27748066,18561.32405820678, 1,15, 4,15,724774.895203776, 1,20,18,15
476,106772067.24485716,7098.072629279515, 1,15, 4,15,356036.3026282215, 1,20,12,15
513,0.0,0.0, 1,15, 1,15,0.0, 1,15, 1,15
562,18965437.671980817,0.0, 1,15,23,15,119707.94003592175, 1,21,17,15
1046,0.0,0.0, 1,15, 1,15,0.0, 1,15, 1,15
1096,153488749.77339324,0.0, 1,15,23,15,1036091.0955928334, 1,21,17,15
1134,0.0,0.0, 1,15, 1,15,0.0, 1,15, 1,15
1326,243825496.20809445,0.0, 1,15, 1,15,4050000.0, 1,15, 9,60
1379,0.0,0.0, 1,15, 1,15,0.0, 1,15, 1,15
1,EXTREME_SUMMER,  25.79, -80.32,  -5.00,   8.80
5,7
1038,0.0,0.0, 7,23, 1,15,0.0, 7,23, 1,15
1039,70.75,0.0, 7,23, 1,15,0.25, 7,23,12,30
581,0.14518581205589726,0.0, 7,23, 3,45,0.35789565243489885, 7,27,11,60
582,5.388904524570934,0.08297471469374601, 7,26, 8,45,12.762021809601976, 7,29,13,50
583,0.051767597292144855,0.0005085989580762636, 7,26,23, 3,0.07104165321518041, 7,28,18,50
1115,0.0,0.0, 7,23, 1, 7,0.0, 7,23, 1, 7
1128,0.0,0.0, 7,23, 1, 7,0.0, 7,23, 1, 7
1153,0.0,0.0, 7,23, 1, 7,0.0, 7,23, 1, 7
1154,0.0,0.0, 7,23, 1, 7,0.0, 7,23, 1, 7
1155,0.0,0.0, 7,23, 1, 7,0.0, 7,23, 1, 7
1156,0.0,0.0, 7,23, 1, 7,0.0, 7,23, 1, 7
1292,-21697464.46556277,-34307.0364072303, 7,29, 6,45,-4281.45309483633, 7,25,10,60
1306,192923998.95982343,0.0, 7,23, 1, 7,4050000.0, 7,28,21,45
1307,38849181.85032207,0.0, 7,23, 1, 7,2309883.623923147, 7,27, 9,55
1308,192923998.95982343,0.0, 7,23, 1, 7,4050000.0, 7,28,21,45
13,1332161012.9960656,495077.59904909227, 7,23, 4,60,6962680.608554482, 7,29,21,15
61,301924526.02383536,88139.10953165221, 7,23, 1,15,1282023.4113694867, 7,23,20,15
134,70666020.44019976,63564.01800854099, 7,23, 4,15,156554.22484006523, 7,28,20,15
170,5241013.419656067,348.4159749238097, 7,23, 4,15,17476.39704006126, 7,28,12,15
207,6509451.13922267,815.2532113832032, 7,23, 3,15,22990.642799023623, 7,28,10,15
244,12749673.399825225,1521.856143006317, 7,23, 4,15,53038.631142310165, 7,28,20,15
281,46165882.481495745,59938.60262432081, 7,23, 5,15,81951.81706819107, 7,23,19,15
318,0.0,0.0, 7,23, 1,15,0.0, 7,23, 1,15
355,197687796.27748066,18561.32405820678, 7,23, 4,15,724774.895203776, 7,28,18,15
403,197687796.27748066,18561.32405820678, 7,23, 4,15,724774.895203776, 7,28,18,15
476,106772067.24485716,7098.072629279515, 7,23, 4,15,356036.3026282215, 7,28,12,15
513,0.0,0.0, 7,23, 1,15,0.0, 7,23, 1,15
562,68794237.64714082,32816.25903563927, 7,23, 4,60,134310.60781995772, 7,23,11,15
1046,0.0,0.0, 7,23, 1,15,0.0, 7,23, 1,15
1096,697852229.9250662,310558.2124732598, 7,23, 4,60,1439396.5048002007, 7,23,17,60
1134,0.0,0.0, 7,23, 1,15,0.0, 7,23, 1,15
1326,192923998.95982346,0.0, 7,23, 1,15,4050000.0, 7,23, 9,60
1379,0.0,0.0, 7,23, 1,15,0.0, 7,23, 1,15
1,ANNUAL,  25.79, -80.32,  -5.00,   8.80
5,365
1038,0.0,0.0, 1, 1, 1,15,0.0, 1, 1, 1,15
1039,1623.5,0.0, 1, 1, 1,15,0.25, 1, 6,15,45
581,0.1557603876110194,0.0, 2, 7,23, 3,0.8507577803050596, 5,26,15,47
582,4.183453853589716,0.0, 1,25,20, 9,22.63820021179547, 5,26,15,46
583,0.042136776862512645,0.0, 2, 7,23, 3,0.08479706401243019, 6,24,19,52
1115,2229038.303107405,0.0, 1, 1, 1,15,374880.9655475754, 1,24, 7,15
1128,631164.6478512394,0.0, 1, 1, 1,15,105956.91023662077, 1,24, 7,15
1153,0.0,0.0, 1, 1, 1,15,0.0, 1, 1, 1,15
1154,14686640.056495741,0.0, 1, 1, 1,15,180000.0, 1,24, 1,30
1155,0.0,0.0, 1, 1, 1,15,0.0, 1, 1, 1,15
1156,0.0,0.0, 1, 1, 1,15,0.0, 1, 1, 1,15
1292,-1141084919.6495686,-38079.53192307172, 1,24, 8,30,-2191.753624277499, 6,16,16, 1
1306,11410556487.615555,0.0, 1, 1, 1,15,4050000.0, 1, 1,21,15
1307,2897699381.610374,0.0, 1, 1, 1,15,9290977.539991682, 1,13, 9,60
1308,11410556487.615555,0.0, 1, 1, 1,15,4050000.0, 1, 1,21,15
13,59697815805.08403,151703.1275401932, 1,17, 4,15,6979712.001125887, 7,23,21,15
61,15743207428.383959,88139.10953165221, 1, 1, 1,15,1282023.4113694867, 1, 1,20,15
134,3685071073.4325233,63564.01800854099, 1, 2, 4,15,156554.22484006523, 1, 1,20,15
170,273393721.45532674,348.4159749238097, 1, 2, 4,15,17476.39704006126, 1, 1,12,15
207,339560869.0695816,815.2532113832032, 1, 2, 3,15,22990.642799023623, 1, 1,10,15
244,664895467.8009144,1521.856143006317, 1, 2, 4,15,53038.631142310165, 1, 1,20,15
281,2407221015.106824,59938.60262432081, 1, 1, 5,15,81951.81706819107, 1, 1,19,15
318,0.0,0.0, 1, 1, 1,15,0.0, 1, 1, 1,15
355,10310294493.051695,18561.32405820678, 1, 2, 4,15,724774.895203776, 1, 1,18,15
403,10310294493.051695,18561.32405820678, 1, 2, 4,15,724774.895203776, 1, 1,18,15
476,5569688622.066177,7098.072629279515, 1, 2, 4,15,356036.3026282215, 1, 1,12,15
513,0.0,0.0, 1, 1, 1,15,0.0, 1, 1, 1,15
562,2782469108.9813647,0.0, 1,16,23,15,134310.60781995772, 1, 6,14,45
1046,0.0,0.0, 1, 1, 1,15,0.0, 1, 1, 1,15
1096,26061193901.96529,0.0, 1,16,23,15,1473733.1691736684, 8,21,14,60
1134,15317804.70434698,0.0, 1, 1, 1,15,273626.84081331576, 1,24, 7,15
1326,11410556487.615564,0.0, 1, 1, 1,15,4050000.0000000014, 3,27, 9,60
1379,0.0,0.0, 1, 1, 1,15,0.0, 1, 1, 1,15
End of Data
 Number of Records Written=          99
