Program Version,EnergyPlus, Version 22.2.0-c249759bad, YMD=2023.09.01 14:32
1,5,Environment Title[],Latitude[deg],Longitude[deg],Time Zone[],Elevation[m]
2,8,Day of Simulation[],Month[],Day of Month[],DST Indicator[1=yes 0=no],Hour[],StartMinute[],EndMinute[],DayType
3,5,Cumulative Day of Simulation[],Month[],Day of Month[],DST Indicator[1=yes 0=no],DayType  ! When Daily Report Variables Requested
4,2,Cumulative Days of Simulation[],Month[]  ! When Monthly Report Variables Requested
5,1,Cumulative Days of Simulation[] ! When Run Period Report Variables Requested
6,1,Calendar Year of Simulation[] ! When Annual Report Variables Requested
7,1,Environment,Site Outdoor Air Drybulb Temperature [C] !Hourly
545,1,LIVING,Zone Mean Air Temperature [C] !Hourly
546,1,ATTIC,Zone Mean Air Temperature [C] !Hourly
547,1,CRAWLSPACE,Zone Mean Air Temperature [C] !Hourly
548,1,FAN,Fan Electricity Rate [W] !Hourly
720,1,LIVING,Zone Predicted Sensible Load to Heating Setpoint Heat Transfer Rate [W] !Hourly
721,1,LIVING,Zone System Predicted Sensible Load to Heating Setpoint Heat Transfer Rate [W] !Hourly
784,1,ATTIC,Zone Predicted Sensible Load to Heating Setpoint Heat Transfer Rate [W] !Hourly
785,1,ATTIC,Zone System Predicted Sensible Load to Heating Setpoint Heat Transfer Rate [W] !Hourly
848,1,CRAWLSPACE,Zone Predicted Sensible Load to Heating Setpoint Heat Transfer Rate [W] !Hourly
849,1,CRAWLSPACE,Zone System Predicted Sensible Load to Heating Setpoint Heat Transfer Rate [W] !Hourly
1121,1,DX_HEATING_COIL,Heating Coil Heating Rate [W] !Hourly
1135,1,DX_HEATING_COIL,Heating Coil Electricity Rate [W] !Hourly
1161,1,DX_HEATING_COIL,Heating Coil Defrost Electricity Rate [W] !Hourly
1163,1,DX_HEATING_COIL,Heating Coil Crankcase Heater Electricity Rate [W] !Hourly
1166,1,HEATING_RESISTANCE_BACKUP,Heating Coil Heating Rate [W] !Hourly
1168,1,HEATING_RESISTANCE_BACKUP,Heating Coil Electricity Rate [W] !Hourly
End of Data Dictionary
1,EXTREME_WINTER,  40.44,-109.51,  -7.00,1609.00
2,1,12,22, 0, 1, 0.00,60.00,Monday
7,-13.9
545,18.34022724729788
546,-5.85948694316633
547,18.017460044980034
548,182.40434044044295
720,3161.2206328024713
721,3161.2206328024713
784,0.0
785,0.0
848,0.0
849,0.0
1121,3887.694108444024
1135,1545.9644877938517
1161,29.929174350041414
1163,0.0
1166,671.3744467556394
1168,671.3744467556394
2,1,12,22, 0, 2, 0.00,60.00,Monday
7,-13.9
545,18.482246854642586
546,-5.625207619448385
547,17.565994368908342
548,182.40434044044295
720,3733.6288169880663
721,3733.6288169880663
784,0.0
785,0.0
848,0.0
849,0.0
1121,3882.675811320746
1135,1530.5227806666849
1161,34.52491927479398
1163,0.0
1166,1506.1996371718942
1168,1506.1996371718942
2,1,12,22, 0, 3, 0.00,60.00,Monday
7,-13.3
545,18.55160768663001
546,-6.893309933788877
547,17.37027397962254
548,182.40434044044295
720,3971.323073172898
721,3971.323073172898
784,0.0
785,0.0
848,0.0
849,0.0
1121,3966.7876442560455
1135,1547.4279880630975
1161,30.914261129003737
1163,0.0
1166,1744.9171354722066
1168,1744.9171354722066
2,1,12,22, 0, 4, 0.00,60.00,Monday
7,-12.8
545,18.57110511728631
546,-7.458483132006441
547,17.128272107393194
548,182.40434044044295
720,4146.9328562531955
721,4146.9328562531955
784,0.0
785,0.0
848,0.0
849,0.0
1121,4002.6857887245324
1135,1546.362719978586
1161,39.06695222285018
1163,0.0
1166,1990.800528127344
1168,1990.800528127344
2,1,12,22, 0, 5, 0.00,60.00,Monday
7,-13.9
545,18.580506978855823
546,-7.337445311265564
547,16.90676590803717
548,182.40434044044295
720,4217.159824059845
721,4217.159824059845
784,0.0
785,0.0
848,0.0
849,0.0
1121,3863.2503872694488
1135,1530.1105718169645
1161,39.09691773946243
1163,0.0
1166,2257.6230597590184
1168,2257.6230597590184
2,1,12,22, 0, 6, 0.00,60.00,Monday
7,-13.9
545,19.324729515945172
546,-7.64861273263905
547,16.702961685635977
548,182.40434044044295
720,5295.71363108749
721,5295.71363108749
784,0.0
785,0.0
848,0.0
849,0.0
1121,3891.978096698472
1135,1541.4436737651733
1161,29.94889395274249
1163,0.0
1166,3477.004504559885
1168,3477.004504559885
2,1,12,22, 0, 7, 0.00,60.00,Monday
7,-14.0
545,19.57820730033491
546,-7.173338738190422
547,16.53763077900911
548,182.40434044044295
720,5092.839463333772
721,5092.839463333772
784,0.0
785,0.0
848,0.0
849,0.0
1121,3856.124992059154
1135,1558.8066817286629
1161,31.082607686989377
1163,0.0
1166,3374.5972915657258
1168,3374.5972915657258
2,1,12,22, 0, 8, 0.00,60.00,Monday
7,-14.0
545,19.663174365013667
546,-7.707409888349356
547,16.359074648420318
548,182.40434044044295
720,4883.953033160087
721,4883.953033160087
784,0.0
785,0.0
848,0.0
849,0.0
1121,3849.4979372291723
1135,1565.5978459629
1161,31.082607686989377
1163,0.0
1166,3147.327211353348
1168,3147.327211353348
2,1,12,22, 0, 9, 0.00,60.00,Monday
7,-14.0
545,19.68495770182025
546,-7.131018553089464
547,16.188835979438483
548,182.40434044044295
720,4798.156812684469
721,4798.156812684469
784,0.0
785,0.0
848,0.0
849,0.0
1121,3847.439841674041
1135,1567.7034638533335
1161,31.082607686989377
1163,0.0
1166,3080.9342373100926
1168,3080.9342373100926
2,1,12,22, 0,10, 0.00,60.00,Monday
7,-12.0
545,19.70340945362375
546,-6.132784084137702
547,16.039296530505105
548,182.40434044044295
720,4474.981130832843
721,4474.981130832843
784,0.0
785,0.0
848,0.0
849,0.0
1121,4041.1654835698264
1135,1575.3456271817263
1161,49.766519783062805
1163,0.0
1166,2496.9500891233815
1168,2496.9500891233815
2,1,12,22, 0,11, 0.00,60.00,Monday
7,-11.0
545,19.714371545711217
546,-4.413242128345716
547,15.88699727635977
548,182.40434044044295
720,4204.165562067905
721,4204.165562067905
784,0.0
785,0.0
848,0.0
849,0.0
1121,4151.848115842132
1135,1583.5871586939063
1161,55.20113823451069
1163,0.0
1166,2024.0788810911372
1168,2024.0788810911372
2,1,12,22, 0,12, 0.00,60.00,Monday
7,-11.0
545,19.72725020222334
546,0.612522475921437
547,15.741696777040303
548,182.40434044044295
720,3765.448559674269
721,3765.448559674269
784,0.0
785,0.0
848,0.0
849,0.0
1121,4107.678050439691
1135,1566.8680250035475
1161,68.10631369709648
1163,0.0
1166,1472.8582332988008
1168,1472.8582332988008
2,1,12,22, 0,13, 0.00,60.00,Monday
7,-10.0
545,19.749887379108284
546,3.712372991468031
547,15.620063298269532
548,182.40434044044295
720,3392.9020774292676
721,3392.9020774292676
784,0.0
785,0.0
848,0.0
849,0.0
1121,4262.073226194176
1135,1590.7691849598666
1161,61.111444435328885
1163,0.0
1166,640.4237293363585
1168,640.4237293363585
2,1,12,22, 0,14, 0.00,60.00,Monday
7,-8.0
545,19.79636227745599
546,5.771589632949107
547,15.52303676070977
548,171.5308101404971
720,2968.9348811675573
721,2968.9348811675573
784,0.0
785,0.0
848,0.0
849,0.0
1121,4233.70505317321
1135,1543.524370027079
1161,58.66235052835707
1163,9.375769063933248
1166,0.0
1168,0.0
2,1,12,22, 0,15, 0.00,60.00,Monday
7,-7.2
545,19.82691069565322
546,6.611948248463665
547,15.432076227995303
548,149.38066177547609
720,2708.3648629177605
721,2708.3648629177605
784,0.0
785,0.0
848,0.0
849,0.0
1121,3741.0257527428034
1135,1359.6660500055732
1161,44.80693437578367
1163,34.415914442158964
1166,0.0
1168,0.0
2,1,12,22, 0,16, 0.00,60.00,Monday
7,-6.7
545,19.78116777410412
546,5.224362448483982
547,15.354198392645968
548,144.84845612834673
720,2716.488592172629
721,2716.488592172629
784,0.0
785,0.0
848,0.0
849,0.0
1121,3655.275900032339
1135,1320.0171240722814
1161,47.452791426532464
1163,39.36545927864166
1166,0.0
1168,0.0
2,1,12,22, 0,17, 0.00,60.00,Monday
7,-7.0
545,19.734143534827076
546,2.82421503294867
547,15.276047980826819
548,145.9297971983096
720,2673.3585259101146
721,2673.3585259101146
784,0.0
785,0.0
848,0.0
849,0.0
1121,3627.3537731999477
1135,1318.25499026463
1161,55.1904918576609
1163,37.808670259693834
1166,0.0
1168,0.0
2,1,12,22, 0,18, 0.00,60.00,Monday
7,-7.0
545,19.733239764313915
546,1.0222571169043828
547,15.20100247741828
548,139.51119058986748
720,2470.4467659247202
721,2470.4467659247202
784,0.0
785,0.0
848,0.0
849,0.0
1121,3453.9347662421383
1135,1259.0714748596397
1161,52.76277531189542
1163,44.943134214205415
1166,0.0
1168,0.0
2,1,12,22, 0,19, 0.00,60.00,Monday
7,-7.0
545,19.74062246770885
546,-0.21233571208450372
547,15.125089797382868
548,132.1345260659557
720,2226.820515996609
721,2226.820515996609
784,0.0
785,0.0
848,0.0
849,0.0
1121,3213.1986021763482
1135,1180.6190317554792
1161,61.86420211398038
1163,52.646820668103885
1166,0.0
1168,0.0
2,1,12,22, 0,20, 0.00,60.00,Monday
7,-8.0
545,19.69646485012182
546,-1.1535427851196374
547,15.043345540655933
548,135.9059295466262
720,2204.231659323372
721,2204.231659323372
784,0.0
785,0.0
848,0.0
849,0.0
1121,3236.281463619201
1135,1211.5446840378568
1161,57.821260936997994
1163,48.451719763189494
1166,0.0
1168,0.0
2,1,12,22, 0,21, 0.00,60.00,Monday
7,-8.0
545,19.684508605586785
546,-2.0746258264020923
547,14.964375284236228
548,141.66245370833755
720,2284.136967322989
721,2284.136967322989
784,0.0
785,0.0
848,0.0
849,0.0
1121,3387.4190955072113
1135,1261.6537170512247
1161,60.27007494132978
1163,42.03343097179382
1166,0.0
1168,0.0
2,1,12,22, 0,22, 0.00,60.00,Monday
7,-8.0
545,19.656313119123972
546,-2.2001532184061015
547,14.884412366920607
548,154.84755446471763
720,2500.3579071319327
721,2500.3579071319327
784,0.0
785,0.0
848,0.0
849,0.0
1121,3736.2197293777645
1135,1378.567047793418
1161,65.87952723081841
1163,27.331177271918385
1166,0.0
1168,0.0
2,1,12,22, 0,23, 0.00,60.00,Monday
7,-8.0
545,18.984899263866634
546,-2.7460983079153736
547,14.792299065866262
548,120.7377801042827
720,1799.5078708600722
721,1799.5078708600722
784,0.0
785,0.0
848,0.0
849,0.0
1121,2847.791367181797
1135,1074.4130934608002
1161,51.36748299506084
1163,65.36693282290693
1166,0.0
1168,0.0
2,1,12,22, 0,24, 0.00,60.00,Monday
7,-7.2
545,18.710014692121575
546,-2.8585249190039677
547,14.691011800028335
548,130.01366842938947
720,2132.6286162735887
721,2132.6286162735887
784,0.0
785,0.0
848,0.0
849,0.0
1121,3190.3013567210314
1135,1153.274965593447
1161,50.225925810135635
1163,55.42503152921454
1166,0.0
1168,0.0
2,2,12,23, 0, 1, 0.00,60.00,Tuesday
7,-8.0
545,18.540219942773493
546,-2.7337532106453684
547,14.58945322921279
548,158.99400851930025
720,2633.5650142778813
721,2633.5650142778813
784,0.0
785,0.0
848,0.0
849,0.0
1121,3869.7732502755175
1135,1388.7930457530347
1161,67.63698823162171
1163,22.724909820483717
1166,0.0
1168,0.0
2,2,12,23, 0, 2, 0.00,60.00,Tuesday
7,-9.0
545,18.52171297227619
546,-3.4058785052017173
547,14.484389465029121
548,182.40434044044295
720,3218.0220020468187
721,3218.0220020468187
784,0.0
785,0.0
848,0.0
849,0.0
1121,4398.871136083344
1135,1557.1767155083483
1161,69.22137819926454
1163,0.0
1166,312.0277758521843
1168,312.0277758521843
2,2,12,23, 0, 3, 0.00,60.00,Tuesday
7,-11.0
545,18.561757892833782
546,-3.4623198855586335
547,14.37656708265474
548,182.40434044044295
720,3670.2899487009527
721,3670.2899487009527
784,0.0
785,0.0
848,0.0
849,0.0
1121,4185.570915526908
1135,1546.9434301723686
1161,55.20113823451069
1163,0.0
1166,1115.930065139793
1168,1115.930065139793
2,2,12,23, 0, 4, 0.00,60.00,Tuesday
7,-9.0
545,18.589260989607034
546,-4.114888845443354
547,14.301672458482177
548,182.40434044044295
720,3610.2188257356684
721,3610.2188257356684
784,0.0
785,0.0
848,0.0
849,0.0
1121,4448.6343943865995
1135,1575.2168406419962
1161,55.55131360065889
1163,0.0
1166,813.8004161413728
1168,813.8004161413728
2,2,12,23, 0, 5, 0.00,60.00,Tuesday
7,-11.0
545,18.5904039317664
546,-4.196892189832091
547,14.187663937806779
548,182.40434044044295
720,3811.8323468982508
721,3811.8323468982508
784,0.0
785,0.0
848,0.0
849,0.0
1121,4184.0293316673315
1135,1548.6242479320588
1161,55.20113823451069
1163,0.0
1166,1344.9857095422021
1168,1344.9857095422021
2,2,12,23, 0, 6, 0.00,60.00,Tuesday
7,-10.0
545,19.334263771425483
546,-3.8965453625153788
547,14.106068077279277
548,182.40434044044295
720,4711.544465936404
721,4711.544465936404
784,0.0
785,0.0
848,0.0
849,0.0
1121,4294.632532598135
1135,1554.8522177916702
1161,61.111444435328885
1163,0.0
1166,2284.7579323392747
1168,2284.7579323392747
2,2,12,23, 0, 7, 0.00,60.00,Tuesday
7,-8.0
545,19.59678059112863
546,-3.407259862769514
547,14.060557112785643
548,182.40434044044295
720,4268.662983153532
721,4268.662983153532
784,0.0
785,0.0
848,0.0
849,0.0
1121,4486.216866484897
1135,1584.5974810518703
1161,76.30737986158081
1163,0.0
1166,1649.3339884091151
1168,1649.3339884091151
2,2,12,23, 0, 8, 0.00,60.00,Tuesday
7,-8.0
545,19.681588501086864
546,-2.9572746706885424
547,13.97761521882592
548,182.40434044044295
720,3976.501002570736
721,3976.501002570736
784,0.0
785,0.0
848,0.0
849,0.0
1121,4425.191996555463
1135,1573.2736059420752
1161,90.71969270273011
1163,0.0
1166,1368.306555862272
1168,1368.306555862272
2,2,12,23, 0, 9, 0.00,60.00,Tuesday
7,-7.0
545,19.726627228249495
546,-0.531582682645292
547,13.911892889406621
548,182.40434044044295
720,2997.6102543345387
721,2997.6102543345387
784,0.0
785,0.0
848,0.0
849,0.0
1121,4583.376312711603
1135,1598.516833532561
1161,83.9672444048708
1163,0.0
1166,64.98497508228002
1168,64.98497508228002
2,2,12,23, 0,10, 0.00,60.00,Tuesday
7,-7.0
545,19.735136969531162
546,0.8214120262098672
547,13.84626699924041
548,182.40434044044295
720,3076.6658384962248
721,3076.6658384962248
784,0.0
785,0.0
848,0.0
849,0.0
1121,4582.260057566154
1135,1599.7943300684021
1161,83.9672444048708
1163,0.0
1166,25.05208020735654
1168,25.05208020735654
2,2,12,23, 0,11, 0.00,60.00,Tuesday
7,-6.1
545,19.749154036494634
546,2.167447974605305
547,13.797952314895744
548,176.36444775059843
720,3115.1925680224504
721,3115.1925680224504
784,0.0
785,0.0
848,0.0
849,0.0
1121,4565.301840275022
1135,1590.2914050262095
1161,75.56495102507034
1163,3.87753425258921
1166,0.0
1168,0.0
2,2,12,23, 0,12, 0.00,60.00,Tuesday
7,-7.0
545,19.75485356776572
546,4.265493053566951
547,13.737825149238887
548,173.78417393608484
720,2998.3787873830734
721,2998.3787873830734
784,0.0
785,0.0
848,0.0
849,0.0
1121,4348.584679406048
1135,1550.7233771852382
1161,81.36365053029266
1163,6.201451275509773
1166,0.0
1168,0.0
2,2,12,23, 0,13, 0.00,60.00,Tuesday
7,-6.1
545,19.79934628838156
546,5.558203971668486
547,13.689079982857447
548,155.54353325577569
720,2804.9522302592213
721,2804.9522302592213
784,0.0
785,0.0
848,0.0
849,0.0
1121,3969.0069256306
1135,1403.0108600687856
1161,66.70612899270553
1163,27.02837406992986
1166,0.0
1168,0.0
2,2,12,23, 0,14, 0.00,60.00,Tuesday
7,-5.6
545,19.79073301178461
546,5.918171319526896
547,13.64488875594139
548,144.05112002877541
720,2685.8078874339953
721,2685.8078874339953
784,0.0
785,0.0
848,0.0
849,0.0
1121,3708.087604082387
1135,1307.3733725210475
1161,59.57052403906853
1163,40.001730281181395
1166,0.0
1168,0.0
2,2,12,23, 0,15, 0.00,60.00,Tuesday
7,-5.6
545,19.760883445285693
546,6.076943849427964
547,13.604868951815384
548,139.55049551575075
720,2603.1644003388938
721,2603.1644003388938
784,0.0
785,0.0
848,0.0
849,0.0
1121,3556.034573906324
1135,1259.0644850212507
1161,64.57799827604596
1163,44.751455485571334
1166,0.0
1168,0.0
2,2,12,23, 0,16, 0.00,60.00,Tuesday
7,-6.1
545,19.722800838893455
546,4.958062280427474
547,13.568959764991508
548,142.8447390070929
720,2665.7151290304155
721,2665.7151290304155
784,0.0
785,0.0
848,0.0
849,0.0
1121,3613.632787926199
1135,1288.4486069943855
1161,61.33389945198753
1163,41.14718251508176
1166,0.0
1168,0.0
2,2,12,23, 0,17, 0.00,60.00,Tuesday
7,-5.6
545,19.799502156142182
546,4.013116501590169
547,13.519006736371193
548,116.13001841813868
720,2090.7801453078737
721,2090.7801453078737
784,0.0
785,0.0
848,0.0
849,0.0
1121,2914.687895849591
1135,1046.4190941680802
1161,53.73485556790973
1163,70.80737698286926
1166,0.0
1168,0.0
2,2,12,23, 0,18, 0.00,60.00,Tuesday
7,-7.0
545,19.700243270232846
546,1.473310130882406
547,13.490248598941392
548,123.49954088669156
720,2173.9446552671125
721,2173.9446552671125
784,0.0
785,0.0
848,0.0
849,0.0
1121,3025.5510531007094
1135,1114.0922512739987
1161,46.707128578360106
1163,62.739195874295504
1166,0.0
1168,0.0
2,2,12,23, 0,19, 0.00,60.00,Tuesday
7,-9.4
545,19.568439990567246
546,-1.9538059480840648
547,13.454162937333564
548,149.41214997492162
720,2435.747807914615
721,2435.747807914615
784,0.0
785,0.0
848,0.0
849,0.0
1121,3484.1207494277164
1135,1326.0341064984589
1161,51.63344136998173
1163,33.6271104126231
1166,0.0
1168,0.0
2,2,12,23, 0,20, 0.00,60.00,Tuesday
7,-8.3
545,19.675115283463036
546,-2.4844294899572312
547,13.414073146356825
548,144.84455580464999
720,2317.389962000141
721,2317.389962000141
784,0.0
785,0.0
848,0.0
849,0.0
1121,3483.701149658193
1135,1292.7991954127087
1161,50.11046395889998
1163,38.948334962937615
1166,0.0
1168,0.0
2,2,12,23, 0,21, 0.00,60.00,Tuesday
7,-9.0
545,19.621217831894327
546,-3.162797942117834
547,13.370891357291168
548,160.13393640148803
720,2511.3272153278267
721,2511.3272153278267
784,0.0
785,0.0
848,0.0
849,0.0
1121,3827.9677704916808
1135,1430.0233636167056
1161,49.41960167952059
1163,22.075848521665087
1166,0.0
1168,0.0
2,2,12,23, 0,22, 0.00,60.00,Tuesday
7,-7.2
545,19.71125696873628
546,-2.5812077931817097
547,13.321552679285661
548,154.37213167747328
720,2460.6595952614425
721,2460.6595952614425
784,0.0
785,0.0
848,0.0
849,0.0
1121,3807.9870516678197
1135,1375.9019487929081
1161,68.02381206104266
1163,27.976003839626195
1166,0.0
1168,0.0
2,2,12,23, 0,23, 0.00,60.00,Tuesday
7,-6.7
545,19.017763542482985
546,-3.055236426474876
547,13.236246215464485
548,113.5150237966029
720,1689.3365112346928
721,1689.3365112346928
784,0.0
785,0.0
848,0.0
849,0.0
1121,2754.9505190808773
1135,1014.7414950779144
1161,52.47183865338615
1163,73.50185694216343
1166,0.0
1168,0.0
2,2,12,23, 0,24, 0.00,60.00,Tuesday
7,-7.0
545,18.688996578177942
546,-2.8468885718742936
547,13.164009303370545
548,130.30814981868488
720,2094.2226432722982
721,2094.2226432722982
784,0.0
785,0.0
848,0.0
849,0.0
1121,3180.0094856033725
1135,1146.0279336052167
1161,61.00424732990039
1163,54.695130792307786
1166,0.0
1168,0.0
2,3,12,24, 0, 1, 0.00,60.00,Wednesday
7,-7.2
545,18.546152471243587
546,-2.6083037210837494
547,13.100198441337557
548,156.68387536091495
720,2610.5309282603666
721,2610.5309282603666
784,0.0
785,0.0
848,0.0
849,0.0
1121,3867.8449708895664
1135,1364.6486015663986
1161,75.89345806970537
1163,25.123698754190716
1166,0.0
1168,0.0
2,3,12,24, 0, 2, 0.00,60.00,Wednesday
7,-7.2
545,18.519022046724874
546,-2.331896646091829
547,13.03608392305031
548,176.8735536522163
720,2999.8258799173254
721,2999.8258799173254
784,0.0
785,0.0
848,0.0
849,0.0
1121,4430.6488723610555
1135,1535.9357211623146
1161,85.71137083032787
1163,2.5911357166383597
1166,0.0
1168,0.0
2,3,12,24, 0, 3, 0.00,60.00,Wednesday
7,-7.0
545,18.566673511582852
546,-2.1890497545043797
547,12.969360726559461
548,182.40434044044295
720,3230.0614883098333
721,3230.0614883098333
784,0.0
785,0.0
848,0.0
849,0.0
1121,4615.621990528012
1135,1561.590676451252
1161,83.9672444048708
1163,0.0
1166,153.7309417720935
1168,153.7309417720935
2,3,12,24, 0, 4, 0.00,60.00,Wednesday
7,-7.0
545,18.590754831171257
546,-2.2168291026574463
547,12.905376143003071
548,182.40434044044295
720,3411.7725514541416
721,3411.7725514541416
784,0.0
785,0.0
848,0.0
849,0.0
1121,4614.458791113328
1135,1562.9231879886045
1161,83.9672444048708
1163,0.0
1166,378.7332514560867
1168,378.7332514560867
2,3,12,24, 0, 5, 0.00,60.00,Wednesday
7,-7.0
545,18.60322024018686
546,-1.8125602142895096
547,12.841762507862393
548,182.40434044044295
720,3345.58956465942
721,3345.58956465942
784,0.0
785,0.0
848,0.0
849,0.0
1121,4613.909852864245
1135,1563.5520231434552
1161,83.9672444048708
1163,0.0
1166,313.4506067787088
1168,313.4506067787088
2,3,12,24, 0, 6, 0.00,60.00,Wednesday
7,-7.0
545,19.343144447777647
546,-1.6684290295704534
547,12.779694463010067
548,182.40434044044295
720,4333.927568382116
721,4333.927568382116
784,0.0
785,0.0
848,0.0
849,0.0
1121,4613.668908622394
1135,1563.8280352388588
1161,83.9672444048708
1163,0.0
1166,1432.5388858522201
1168,1432.5388858522201
2,3,12,24, 0, 7, 0.00,60.00,Wednesday
7,-7.2
545,19.596727733080147
546,-1.5539365500357196
547,12.75366124482531
548,182.40434044044295
720,4150.11385401177
721,4150.11385401177
784,0.0
785,0.0
848,0.0
849,0.0
1121,4585.929905567954
1135,1590.051316570847
1161,79.03598989428886
1163,0.0
1166,1320.1178111013587
1168,1320.1178111013587
2,3,12,24, 0, 8, 0.00,60.00,Wednesday
7,-7.2
545,19.681546651347155
546,-1.562345773956072
547,12.703547349770993
548,182.40434044044295
720,3851.777567421468
721,3851.777567421468
784,0.0
785,0.0
848,0.0
849,0.0
1121,4579.222972893777
1135,1597.7944346920326
1161,79.02184497877673
1163,0.0
1166,1001.2258684280396
1168,1001.2258684280396
2,3,12,24, 0, 9, 0.00,60.00,Wednesday
7,-7.0
545,19.723208130588926
546,-0.0591953639248887
547,12.657897398726481
548,182.40434044044295
720,2989.488550275486
721,2989.488550275486
784,0.0
785,0.0
848,0.0
849,0.0
1121,4585.182711026931
1135,1596.4493536402917
1161,83.9672444048708
1163,0.0
1166,4.386363887711923
1168,4.386363887711923
2,3,12,24, 0,10, 0.00,60.00,Wednesday
7,-7.0
545,19.74671952470706
546,1.4562284072234435
547,12.61840881242231
548,177.92971908386465
720,2960.1017402491198
721,2960.1017402491198
784,0.0
785,0.0
848,0.0
849,0.0
1121,4467.300221547935
1135,1585.0460836181364
1161,83.303831863499
1163,1.580169853313218
1166,0.0
1168,0.0
2,3,12,24, 0,11, 0.00,60.00,Wednesday
7,-7.0
545,19.72792541363279
546,1.1140134987143024
547,12.588511185843974
548,182.40434044044295
720,3326.5766657385357
721,3326.5766657385357
784,0.0
785,0.0
848,0.0
849,0.0
1121,4583.561382241449
1135,1598.3050240485172
1161,83.9672444048708
1163,0.0
1166,228.9883893678798
1168,228.9883893678798
2,3,12,24, 0,12, 0.00,60.00,Wednesday
7,-6.7
545,19.730752009094925
546,3.005272370025227
547,12.55928093386382
548,179.42605778092536
720,3096.246702504881
721,3096.246702504881
784,0.0
785,0.0
848,0.0
849,0.0
1121,4554.24820468856
1135,1602.9826382932633
1161,82.6702571823109
1163,0.0640101893989442
1166,0.0
1168,0.0
2,3,12,24, 0,13, 0.00,60.00,Wednesday
7,-5.6
545,19.798512501558776
546,3.8302345334651355
547,12.512086008120217
548,157.28986969845184
720,2826.578529231152
721,2826.578529231152
784,0.0
785,0.0
848,0.0
849,0.0
1121,4088.4250879637143
1135,1423.9357447382179
1161,64.97223616202324
1163,25.30167299088233
1166,0.0
1168,0.0
2,3,12,24, 0,14, 0.00,60.00,Wednesday
7,-6.1
545,19.804093210365437
546,6.734174909609549
547,12.472699119438358
548,142.89623482675313
720,2522.005391738783
721,2522.005391738783
784,0.0
785,0.0
848,0.0
849,0.0
1121,3615.7508997508235
1135,1288.482179653762
1161,61.282142131050435
1163,41.09298613258474
1166,0.0
1168,0.0
2,3,12,24, 0,15, 0.00,60.00,Wednesday
7,-5.0
545,19.96816116161606
546,9.503713232093803
547,12.389213567896682
548,76.30229044276808
720,1286.7642493632775
721,1286.7642493632775
784,0.0
785,0.0
848,0.0
849,0.0
1121,1899.2186334655057
1135,691.0995696752791
1161,35.07659080040314
1163,115.19889542148385
1166,0.0
1168,0.0
2,3,12,24, 0,16, 0.00,60.00,Wednesday
7,-6.1
545,19.84491184421192
546,8.304245434755533
547,12.35460954069127
548,33.64454446358438
720,522.8011987825157
721,522.8011987825157
784,0.0
785,0.0
848,0.0
849,0.0
1121,792.4189587630295
1135,304.51176373332214
1161,14.414227442112821
1163,162.5857450446745
1166,0.0
1168,0.0
2,3,12,24, 0,17, 0.00,60.00,Wednesday
7,-7.8
545,19.543127172594122
546,4.197379710279122
547,12.377309225787993
548,30.11457679864276
720,493.9413748064417
721,493.9413748064417
784,0.0
785,0.0
848,0.0
849,0.0
1121,684.2348279040257
1135,271.8035267715821
1161,9.648309880642893
1163,166.570483405761
1166,0.0
1168,0.0
2,3,12,24, 0,18, 0.00,60.00,Wednesday
7,-8.9
545,19.518254384120294
546,0.36403255472550894
547,12.456557361232907
548,84.74108002057586
720,1465.3154829511222
721,1465.3154829511222
784,0.0
785,0.0
848,0.0
849,0.0
1121,1941.6169038174637
1135,756.7101634856494
1161,24.182658977984687
1163,105.95216518649568
1166,0.0
1168,0.0
2,3,12,24, 0,19, 0.00,60.00,Wednesday
7,-12.2
545,19.310826721956243
546,-2.568360325630501
547,12.47855668804136
548,117.68841551228232
720,1762.9611570466232
721,1762.9611570466232
784,0.0
785,0.0
848,0.0
849,0.0
1121,2531.1879216307684
1135,1034.3087980040082
1161,19.08981445926202
1163,69.78357914981525
1166,0.0
1168,0.0
2,3,12,24, 0,20, 0.00,60.00,Wednesday
7,-13.9
545,19.26005725060139
546,-4.5189552473246595
547,12.484500506927015
548,166.5715829826552
720,2307.9427232170283
721,2307.9427232170283
784,0.0
785,0.0
848,0.0
849,0.0
1121,3497.414972725185
1135,1432.9709895251638
1161,31.456808173083534
1163,15.137382148353806
1166,0.0
1168,0.0
2,3,12,24, 0,21, 0.00,60.00,Wednesday
7,-12.2
545,19.457096702926933
546,-5.206516917201122
547,12.468859093141452
548,175.29030316690572
720,2490.993506454928
721,2490.993506454928
784,0.0
785,0.0
848,0.0
849,0.0
1121,3941.1186883143682
1135,1536.9453310489698
1161,23.219836787500853
1163,6.377143124151807
1166,0.0
1168,0.0
2,3,12,24, 0,22, 0.00,60.00,Wednesday
7,-13.3
545,19.579504897316575
546,-6.024567316227447
547,12.422915111797879
548,182.40434044044295
720,3059.85662674784
721,3059.85662674784
784,0.0
785,0.0
848,0.0
849,0.0
1121,3949.071896367794
1135,1568.101717977861
1161,30.443092641992116
1163,0.0
1166,838.8490104672264
1168,838.8490104672264
2,3,12,24, 0,23, 0.00,60.00,Wednesday
7,-14.4
545,18.933771200049055
546,-6.877738082593573
547,12.35861161003575
548,182.40434044044295
720,2668.6593946399043
721,2668.6593946399043
784,0.0
785,0.0
848,0.0
849,0.0
1121,3805.242257111029
1135,1553.339349604736
1161,31.072317228103785
1163,0.0
1166,621.0407534560045
1168,621.0407534560045
2,3,12,24, 0,24, 0.00,60.00,Wednesday
7,-15.0
545,18.70363046969709
546,-7.511426736900785
547,12.24917663034932
548,182.40434044044295
720,3304.0484776930207
721,3304.0484776930207
784,0.0
785,0.0
848,0.0
849,0.0
1121,3758.4320949728094
1135,1530.5487084599654
1161,27.653430997115514
1163,0.0
1166,1391.3779792515902
1168,1391.3779792515902
2,4,12,25, 0, 1, 0.00,60.00,Thursday
7,-14.0
545,18.621899876524104
546,-7.488937084850705
547,12.172855296140556
548,182.40434044044295
720,3695.005501981137
721,3695.005501981137
784,0.0
785,0.0
848,0.0
849,0.0
1121,3904.215801954051
1135,1545.3974470822002
1161,22.98466741727701
1163,0.0
1166,1726.4559862086596
1168,1726.4559862086596
2,4,12,25, 0, 2, 0.00,60.00,Thursday
7,-18.0
545,18.578467883257908
546,-7.963079000940592
547,12.042595166319181
548,182.40434044044295
720,4606.434685789907
721,4606.434685789907
784,0.0
785,0.0
848,0.0
849,0.0
1121,3429.686060801743
1135,1483.7720033640476
1161,19.156605149328872
1163,0.0
1166,3254.8554217404394
1168,3254.8554217404394
2,4,12,25, 0, 3, 0.00,60.00,Thursday
7,-13.0
545,18.585132118389335
546,-7.398789145383919
547,11.998121912496392
548,182.40434044044295
720,4409.066260193136
721,4409.066260193136
784,0.0
785,0.0
848,0.0
849,0.0
1121,3965.1558692601884
1135,1529.4661161424376
1161,44.77982945556532
1163,0.0
1166,2540.9547246532175
1168,2540.9547246532175
2,4,12,25, 0, 4, 0.00,60.00,Thursday
7,-12.8
545,18.58886334865621
546,-6.671877967798414
547,11.89713010075961
548,182.40434044044295
720,4483.476817636447
721,4483.476817636447
784,0.0
785,0.0
848,0.0
849,0.0
1121,3994.9406637439306
1135,1534.1925735030316
1161,43.40499703713528
1163,0.0
1166,2578.7930079201733
1168,2578.7930079201733
2,4,12,25, 0, 5, 0.00,60.00,Thursday
7,-12.2
545,18.594679676007143
546,-6.897480237897139
547,11.813708643611623
548,182.40434044044295
720,4408.440125650788
721,4408.440125650788
784,0.0
785,0.0
848,0.0
849,0.0
1121,4041.1366584485245
1135,1531.2178841815012
1161,52.65213330034075
1163,0.0
1166,2413.1414969138295
1168,2413.1414969138295
2,4,12,25, 0, 6, 0.00,60.00,Thursday
7,-13.0
545,19.332717028624998
546,-6.982621238779773
547,11.715945489319036
548,182.40434044044295
720,5598.582283124195
721,5598.582283124195
784,0.0
785,0.0
848,0.0
849,0.0
1121,3965.044757858876
1135,1529.5833814699045
1161,44.77982945556532
1163,0.0
1166,3859.093211914063
1168,3859.093211914063
2,4,12,25, 0, 7, 0.00,60.00,Thursday
7,-14.0
545,19.578451937945257
546,-6.4090178437696945
547,11.660215687987149
548,182.40434044044295
720,5489.670152146671
721,5489.670152146671
784,0.0
785,0.0
848,0.0
849,0.0
1121,3834.4180525254355
1135,1540.447345514922
1161,40.21262611615392
1163,0.0
1166,3951.2419694081364
1168,3951.2419694081364
2,4,12,25, 0, 8, 0.00,60.00,Thursday
7,-14.0
545,19.661892886542983
546,-6.678045137509754
547,11.585156652347779
548,182.40434044044295
720,5240.0551318072685
721,5240.0551318072685
784,0.0
785,0.0
848,0.0
849,0.0
1121,3827.95864942635
1135,1547.0834297170163
1161,40.21262611615392
1163,0.0
1166,3671.0824225385313
1168,3671.0824225385313
2,4,12,25, 0, 9, 0.00,60.00,Thursday
7,-12.2
545,19.70948975723712
546,-3.8108150308836164
547,11.530671453981931
548,182.40434044044295
720,4057.0632026363273
721,4057.0632026363273
784,0.0
785,0.0
848,0.0
849,0.0
1121,4051.3859053855
1135,1575.9065302408983
1161,41.052671902189466
1163,0.0
1166,2106.831775236358
1168,2106.831775236358
2,4,12,25, 0,10, 0.00,60.00,Thursday
7,-12.0
545,19.744613854871893
546,-0.5428020790400726
547,11.469384788412274
548,182.40434044044295
720,3088.655836334854
721,3088.655836334854
784,0.0
785,0.0
848,0.0
849,0.0
1121,4047.071821408706
1135,1569.0569789455271
1161,49.766519783062805
1163,0.0
1166,839.7274793154124
1168,839.7274793154124
2,4,12,25, 0,11, 0.00,60.00,Thursday
7,-10.0
545,19.75660463227971
546,2.462687824551053
547,11.45140779663237
548,182.16031985810892
720,2710.586377989075
721,2710.586377989075
784,0.0
785,0.0
848,0.0
849,0.0
1121,4261.943638858356
1135,1584.6286576389919
1161,61.111444435328885
1163,0.0
1166,0.0
1168,0.0
2,4,12,25, 0,12, 0.00,60.00,Thursday
7,-11.0
545,19.753766049955022
546,5.571075901227663
547,11.4232317384278
548,181.3268911623167
720,2748.393435665588
721,2748.393435665588
784,0.0
785,0.0
848,0.0
849,0.0
1121,4132.34662066745
1135,1578.1139056450288
1161,55.20113823451069
1163,0.0
1166,0.0
1168,0.0
2,4,12,25, 0,13, 0.00,60.00,Thursday
7,-9.0
545,19.890002951643467
546,8.590276388159765
547,11.382667614162207
548,135.73170126878424
720,2180.6658090101337
721,2180.6658090101337
784,0.0
785,0.0
848,0.0
849,0.0