Program Version,EnergyPlus, Version 22.2.0-c249759bad, YMD=2023.09.01 14:30
1,5,Environment Title[],Latitude[deg],Longitude[deg],Time Zone[],Elevation[m]
2,8,Day of Simulation[],Month[],Day of Month[],DST Indicator[1=yes 0=no],Hour[],StartMinute[],EndMinute[],DayType
3,5,Cumulative Day of Simulation[],Month[],Day of Month[],DST Indicator[1=yes 0=no],DayType  ! When Daily Report Variables Requested
4,2,Cumulative Days of Simulation[],Month[]  ! When Monthly Report Variables Requested
5,1,Cumulative Days of Simulation[] ! When Run Period Report Variables Requested
6,1,Calendar Year of Simulation[] ! When Annual Report Variables Requested
7,1,Environment,Site Outdoor Air Drybulb Temperature [C] !Hourly
619,1,DX_HEATING_COIL,Heating Coil Heating Rate [W] !Hourly
633,1,DX_HEATING_COIL,Heating Coil Electricity Rate [W] !Hourly
659,1,DX_HEATING_COIL,Heating Coil Defrost Electricity Rate [W] !Hourly
661,1,DX_HEATING_COIL,Heating Coil Crankcase Heater Electricity Rate [W] !Hourly
690,1,FAN,Fan Electricity Rate [W] !Hourly
716,1,HEAT PUMP WATER HEATER FAN,Fan Electricity Rate [W] !Hourly
718,1,LIVING,Zone Mean Air Temperature [C] !Hourly
719,1,ATTIC,Zone Mean Air Temperature [C] !Hourly
720,1,CRAWLSPACE,Zone Mean Air Temperature [C] !Hourly
843,1,LIVING,Zone Predicted Sensible Load to Heating Setpoint Heat Transfer Rate [W] !Hourly
844,1,LIVING,Zone System Predicted Sensible Load to Heating Setpoint Heat Transfer Rate [W] !Hourly
907,1,ATTIC,Zone Predicted Sensible Load to Heating Setpoint Heat Transfer Rate [W] !Hourly
908,1,ATTIC,Zone System Predicted Sensible Load to Heating Setpoint Heat Transfer Rate [W] !Hourly
971,1,CRAWLSPACE,Zone Predicted Sensible Load to Heating Setpoint Heat Transfer Rate [W] !Hourly
972,1,CRAWLSPACE,Zone System Predicted Sensible Load to Heating Setpoint Heat Transfer Rate [W] !Hourly
1195,1,HEATING_RESISTANCE_BACKUP,Heating Coil Heating Rate [W] !Hourly
1197,1,HEATING_RESISTANCE_BACKUP,Heating Coil Electricity Rate [W] !Hourly
End of Data Dictionary
1,EXTREME_WINTER,  46.90, -96.80,  -6.00, 274.30
2,1, 2, 5, 0, 1, 0.00,60.00,Monday
7,-12.8
718,18.615798073162573
719,-9.307979143464944
720,17.179708545160864
619,3291.5615849695905
633,1273.2949681082064
659,27.130935457922522
661,0.0
690,149.3318336704758
716,0.0
843,6944.76019215459
844,6944.76019215459
907,0.0
908,0.0
971,0.0
972,0.0
1195,6602.500874198891
1197,6602.500874198891
2,1, 2, 5, 0, 2, 0.00,60.00,Monday
7,-13.0
718,18.597345925766156
719,-8.199570553326879
720,16.616380233415335
619,3301.3097062483134
633,1280.960086186055
659,18.005600163389307
661,0.0
690,149.3318336704758
716,0.0
843,6939.378424216999
844,6939.378424216999
907,0.0
908,0.0
971,0.0
972,0.0
1195,6358.273433057551
1197,6358.273433057551
2,1, 2, 5, 0, 3, 0.00,60.00,Monday
7,-14.0
718,18.598791349239843
719,-8.19802244920874
720,16.364346824105564
619,3186.7396323375306
633,1263.1045770332385
659,21.499837249974917
661,0.0
690,149.3318336704758
716,0.0
843,7240.090427012352
844,7240.090427012352
907,0.0
908,0.0
971,0.0
972,0.0
1195,6812.5762173360135
1197,6812.5762173360135
2,1, 2, 5, 0, 4, 0.00,60.00,Monday
7,-14.4
718,18.593786927828173
719,-8.076615089748996
720,16.07841085473611
619,3154.1548386160734
633,1261.169991716776
659,18.793487047528867
661,0.0
690,149.3318336704758
716,0.0
843,6971.98909662394
844,6971.98909662394
907,0.0
908,0.0
971,0.0
972,0.0
1195,6479.777365523262
1197,6479.777365523262
2,1, 2, 5, 0, 5, 0.00,60.00,Monday
7,-16.7
718,18.59558045399234
719,-9.273152470052366
720,15.810340371574584
619,2943.6661456425454
633,1239.4980089264664
659,11.640641261164376
661,0.0
690,149.3318336704758
716,0.0
843,7401.623796447668
844,7401.623796447668
907,0.0
908,0.0
971,0.0
972,0.0
1195,7244.25587012335
1197,7244.25587012335
2,1, 2, 5, 0, 6, 0.00,60.00,Monday
7,-17.8
718,19.385659169401343
719,-9.51700020551916
720,15.576063606067464
619,2840.6868658208086
633,1226.235939794969
659,9.997290211588417
661,0.0
690,149.3318336704758
716,0.0
843,8167.071789215392
844,8167.071789215392
907,0.0
908,0.0
971,0.0
972,0.0
1195,8291.7678078584
1197,8291.7678078584
2,1, 2, 5, 0, 7, 0.00,60.00,Monday
7,-17.8
718,19.572693838317196
719,-9.756851055615494
720,15.383722488597304
619,2823.827245018141
633,1242.123951984345
659,9.997290211588417
661,0.0
690,149.3318336704758
716,85.44000000000005
843,7908.064750378793
844,7908.064750378793
907,0.0
908,0.0
971,0.0
972,0.0
1195,9223.463540763489
1197,9223.463540763489
2,1, 2, 5, 0, 8, 0.00,60.00,Monday
7,-20.0
718,19.645492279948993
719,-10.961563769952976
720,15.155317834268628
619,2613.785493357644
633,1214.0518474087764
659,9.103988834959297
661,0.0
690,149.3318336704758
716,85.44000000000005
843,8064.7997336005155
844,8064.7997336005155
907,0.0
908,0.0
971,0.0
972,0.0
1195,9717.999203168152
1197,9717.999203168152
2,1, 2, 5, 0, 9, 0.00,60.00,Monday
7,-20.0
718,19.68960338602421
719,-11.03613930381239
720,14.960872212905244
619,2618.3249142966883
633,1217.9168868786326
659,6.795409047194607
661,0.0
690,149.3318336704758
716,40.53347404596041
843,7416.445724779242
844,7416.445724779242
907,0.0
908,0.0
971,0.0
972,0.0
1195,8355.64466393803
1197,8355.64466393803
2,1, 2, 5, 0,10, 0.00,60.00,Monday
7,-20.0
718,19.702766139717852
719,-10.270395894070019
720,14.767698263644778
619,2617.6019501712785
633,1218.548190046158
659,6.795409047194607
661,0.0
690,149.3318336704758
716,0.0
843,6570.859956249555
844,6570.859956249555
907,0.0
908,0.0
971,0.0
972,0.0
1195,6806.347704180691
1197,6806.347704180691
2,1, 2, 5, 0,11, 0.00,60.00,Monday
7,-19.4
718,19.711257404571878
719,-9.377448315095611
720,14.595355093860602
619,2676.998430962615
633,1229.31267321201
659,5.493176004087647
661,0.0
690,149.3318336704758
716,0.0
843,6398.1259401537045
844,6398.1259401537045
907,0.0
908,0.0
971,0.0
972,0.0
1195,6536.043116286906
1197,6536.043116286906
2,1, 2, 5, 0,12, 0.00,60.00,Monday
7,-18.9
718,19.709540949609753
719,-7.582949549132476
720,14.443022426258798
619,2721.7291417893625
633,1235.655694334205
659,6.488359907067397
661,0.0
690,149.3318336704758
716,0.0
843,5628.406215027913
844,5628.406215027913
907,0.0
908,0.0
971,0.0
972,0.0
1195,5488.546115684718
1197,5488.546115684718
2,1, 2, 5, 0,13, 0.00,60.00,Monday
7,-18.9
718,19.716747072022862
719,-6.514124381798118
720,14.306101225534723
619,2721.953265612245
633,1235.4531728368913
659,6.488359907067397
661,0.0
690,149.3318336704758
716,0.0
843,5337.556064078923
844,5337.556064078923
907,0.0
908,0.0
971,0.0
972,0.0
1195,5064.170418615283
1197,5064.170418615283
2,1, 2, 5, 0,14, 0.00,60.00,Monday
7,-17.8
718,19.710325778668953
719,-4.313215403685334
720,14.205437443068355
619,2824.3422296289573
633,1250.2312871188194
659,7.717972822482325
661,0.0
690,149.3318336704758
716,85.44000000000005
843,4275.151139187386
844,4275.151139187386
907,0.0
908,0.0
971,0.0
972,0.0
1195,4656.1303755405
1197,4656.1303755405
2,1, 2, 5, 0,15, 0.00,60.00,Monday
7,-17.2
718,19.71936728405446
719,-4.8140857418306435
720,14.109368534565263
619,2882.8962972616237
633,1258.445076184525
659,7.85332072202322
661,0.0
690,149.3318336704758
716,9.369915240547671
843,4435.496911947934
844,4435.496911947934
907,0.0
908,0.0
971,0.0
972,0.0
1195,3759.9253164287948
1197,3759.9253164287948
2,1, 2, 5, 0,16, 0.00,60.00,Monday
7,-17.2
718,19.715228991535124
719,-5.550798723036822
720,14.039524467706652
619,2882.8158648894087
633,1258.521378037622
659,7.85332072202322
661,0.0
690,149.3318336704758
716,0.0
843,4104.694159416753
844,4104.694159416753
907,0.0
908,0.0
971,0.0
972,0.0
1195,3260.9002577315446
1197,3260.9002577315446
2,1, 2, 5, 0,17, 0.00,60.00,Monday
7,-17.2
718,19.728102941302833
719,-4.292990116585132
720,13.992940549352875
619,2887.9690759741
633,1260.6187246461734
659,6.0472018443744044
661,0.0
690,149.3318336704758
716,0.0
843,2734.9683638545393
844,2734.9683638545393
907,0.0
908,0.0
971,0.0
972,0.0
1195,1651.1058919177901
1197,1651.1058919177901
2,1, 2, 5, 0,18, 0.00,60.00,Monday
7,-18.9
718,19.709017362002236
719,-6.94719541738827
720,13.92447533764964
619,2717.982362649167
633,1233.5147350882899
659,8.034556679675482
661,0.0
690,149.3318336704758
716,0.0
843,4111.576241605064
844,4111.576241605064
907,0.0
908,0.0
971,0.0
972,0.0
1195,3388.860483994901
1197,3388.860483994901
2,1, 2, 5, 0,19, 0.00,60.00,Monday
7,-18.9
718,19.68876103813728
719,-8.88113485256366
720,13.861123157867885
619,2718.480361968944
633,1233.0645693039298
659,8.034556679675482
661,0.0
690,149.3318336704758
716,85.44000000000005
843,4385.516090529902
844,4385.516090529902
907,0.0
908,0.0
971,0.0
972,0.0
1195,5027.691182966746
1197,5027.691182966746
2,1, 2, 5, 0,20, 0.00,60.00,Monday
7,-21.1
718,19.694884755283667
719,-9.388339244481749
720,13.757620212317667
619,2515.4696789581476
633,1199.0913139122708
659,7.8094279170553
661,0.0
690,149.3318336704758
716,85.44000000000005
843,4528.272080441875
844,4528.272080441875
907,0.0
908,0.0
971,0.0
972,0.0
1195,5538.480830240024
1197,5538.480830240024
2,1, 2, 5, 0,21, 0.00,60.00,Monday
7,-21.1
718,19.690584004384025
719,-10.54995996789239
720,13.654375853335782
619,2515.4463811800183
633,1199.0866719925402
659,7.816978724320737
661,0.0
690,149.3318336704758
716,85.44000000000005
843,4890.653934526519
844,4890.653934526519
907,0.0
908,0.0
971,0.0
972,0.0
1195,5981.144486847464
1197,5981.144486847464
2,1, 2, 5, 0,22, 0.00,60.00,Monday
7,-21.1
718,19.70141190246341
719,-11.067552850909802
720,13.53478191820879
619,2515.662283574884
633,1198.904825695549
659,7.816978724320737
661,0.0
690,149.3318336704758
716,11.507403124055285
843,5268.7739772558525
844,5268.7739772558525
907,0.0
908,0.0
971,0.0
972,0.0
1195,5468.466619250998
1197,5468.466619250998
2,1, 2, 5, 0,23, 0.00,60.00,Monday
7,-21.7
718,18.939586562789877
719,-11.693520924191896
720,13.403169593547904
619,2463.098204498768
633,1190.1804320090919
659,7.173187810939643
661,0.0
690,149.3318336704758
716,0.0
843,4546.188978219858
844,4546.188978219858
907,0.0
908,0.0
971,0.0
972,0.0
1195,4566.632277955337
1197,4566.632277955337
2,1, 2, 5, 0,24, 0.00,60.00,Monday
7,-22.2
718,18.699563716965727
719,-12.018425601907634
720,13.232162895724576
619,2440.5554247989066
633,1171.4692754559173
659,4.791272718822022
661,0.0
690,149.3318336704758
716,0.0
843,5135.08970886801
844,5135.08970886801
907,0.0
908,0.0
971,0.0
972,0.0
1195,5247.2699770191175
1197,5247.2699770191175
2,2, 2, 6, 0, 1, 0.00,60.00,Tuesday
7,-22.2
718,18.627362354398077
719,-12.5566874791582
720,13.086225948338607
619,2445.8222935599515
633,1167.1181517412965
659,4.791272718822022
661,0.0
690,149.3318336704758
716,0.0
843,5743.527303005882
844,5743.527303005882
907,0.0
908,0.0
971,0.0
972,0.0
1195,5997.039666589315
1197,5997.039666589315
2,2, 2, 6, 0, 2, 0.00,60.00,Tuesday
7,-22.2
718,18.600135482230655
719,-12.820501461673945
720,12.936775708810504
619,2447.501672934479
633,1165.7126194440411
659,4.79549483455578
661,0.0
690,149.3318336704758
716,0.0
843,6145.707727098215
844,6145.707727098215
907,0.0
908,0.0
971,0.0
972,0.0
1195,6480.41905147821
1197,6480.41905147821
2,2, 2, 6, 0, 3, 0.00,60.00,Tuesday
7,-23.9
718,18.59539743534153
719,-13.598333913206815
720,12.774732069747829
619,2300.0407457892247
633,1138.2484160271963
659,4.824929174928193
661,0.0
690,149.3318336704758
716,0.0
843,6787.1575258469
844,6787.1575258469
907,0.0
908,0.0
971,0.0
972,0.0
1195,7447.047623479027
1197,7447.047623479027
2,2, 2, 6, 0, 4, 0.00,60.00,Tuesday
7,-23.9
718,18.589167270176812
719,-13.755656666295186
720,12.629776164879651
619,2300.3270257134727
633,1138.025269410344
659,4.824929174928193
661,0.0
690,149.3318336704758
716,0.0
843,6983.541056417887
844,6983.541056417887
907,0.0
908,0.0
971,0.0
972,0.0
1195,7699.29995164657
1197,7699.29995164657
2,2, 2, 6, 0, 5, 0.00,60.00,Tuesday
7,-23.3
718,18.59772899898694
719,-13.485038962445891
720,12.486446534664518
619,2351.123204840992
633,1146.822309201674
659,5.322720398848885
661,0.0
690,149.3318336704758
716,0.0
843,6843.071371494892
844,6843.071371494892
907,0.0
908,0.0
971,0.0
972,0.0
1195,7522.851460041009
1197,7522.851460041009
2,2, 2, 6, 0, 6, 0.00,60.00,Tuesday
7,-23.3
718,19.38397385112794
719,-13.46737842575462
720,12.340465666139458
619,2354.188842053382
633,1148.3320126057042
659,3.9683382413216157
661,0.0
690,149.3318336704758
716,0.0
843,8058.075404353409
844,8058.075404353409
907,0.0
908,0.0
971,0.0
972,0.0
1195,8935.148963313262
1197,8935.148963313262
2,2, 2, 6, 0, 7, 0.00,60.00,Tuesday
7,-23.3
718,19.572415404999575
719,-13.21683680719515
720,12.230158714509557
619,2337.8379268756066
633,1161.259464324475
659,3.9683382413216157
661,0.0
690,149.3318336704758
716,85.44000000000005
843,7820.471932364655
844,7820.471932364655
907,0.0
908,0.0
971,0.0
972,0.0
1195,9824.357588317693
1197,9824.357588317693
2,2, 2, 6, 0, 8, 0.00,60.00,Tuesday
7,-23.3
718,19.647415914245695
719,-13.29599998433335
720,12.093117104188286
619,2327.8686568304192
633,1161.2220845158936
659,6.682668709679424
661,0.0
690,149.3318336704758
716,85.44000000000005
843,7669.2515342553725
844,7669.2515342553725
907,0.0
908,0.0
971,0.0
972,0.0
1195,9748.025387864258
1197,9748.025387864258
2,2, 2, 6, 0, 9, 0.00,60.00,Tuesday
7,-22.2
718,19.676949330764472
719,-12.323152073996173
720,11.971911505557609
619,2419.0812550065943
633,1178.5865075582317
659,8.206102615108604
661,0.0
690,149.3318336704758
716,85.44000000000005
843,7086.168538313239
844,7086.168538313239
907,0.0
908,0.0
971,0.0
972,0.0
1195,9032.882373543534
1197,9032.882373543534
2,2, 2, 6, 0,10, 0.00,60.00,Tuesday
7,-22.2
718,19.6958397511304
719,-10.053762743002373
720,11.84879951522421
619,2418.5996242623387
633,1178.9774497501048
659,8.206102615108604
661,0.0
690,149.3318336704758
716,59.58961286375682
843,6188.612296801675
844,6188.612296801675
907,0.0
908,0.0
971,0.0
972,0.0
1195,7414.389680008591
1197,7414.389680008591
2,2, 2, 6, 0,11, 0.00,60.00,Tuesday
7,-16.7
718,19.724791865715808
719,-6.482781174951201
720,11.78716550907862
619,2917.312594207762
633,1254.6926150643167
659,14.239735153540884
661,0.0
690,149.3318336704758
716,0.0
843,4838.05391704525
844,4838.05391704525
907,0.0
908,0.0
971,0.0
972,0.0
1195,4455.996765145148
1197,4455.996765145148
2,2, 2, 6, 0,12, 0.00,60.00,Tuesday
7,-15.0
718,19.720616869916206
719,-2.515653674366622
720,11.723559312224184
619,3094.942337908971
633,1281.6658497542776
659,11.713732961016317
661,0.0
690,149.3318336704758
716,0.0
843,3839.6436978160327
844,3839.6436978160327
907,0.0
908,0.0
971,0.0
972,0.0
1195,2863.23510489687
1197,2863.23510489687
2,2, 2, 6, 0,13, 0.00,60.00,Tuesday
7,-15.0
718,19.724862595551627
719,0.34436645251932124
720,11.684751529523112
619,3095.1177118979804
633,1281.489908134911
659,11.713732961016317
661,0.0
690,149.3318336704758
716,0.0
843,3593.029180882095
844,3593.029180882095
907,0.0
908,0.0
971,0.0
972,0.0
1195,2359.910034358398
1197,2359.910034358398
2,2, 2, 6, 0,14, 0.00,60.00,Tuesday
7,-11.7
718,19.725635177619328
719,3.775351359538576
720,11.69622477808653
619,3441.806063387018
633,1323.7735589093986
659,12.152565160746484
661,0.0
690,149.3318336704758
716,0.0
843,2572.7847673009746
844,2572.7847673009746
907,0.0
908,0.0
971,0.0
972,0.0
1195,630.4586897300048
1197,630.4586897300048
2,2, 2, 6, 0,15, 0.00,60.00,Tuesday
7,-11.1
718,19.729119174368325
719,3.7660117162004654
720,11.701488462924422
619,3468.750617409819
633,1323.1075372431935
659,12.12446169593387
661,1.2186751170804255
690,147.80545292861387
716,0.0
843,2224.0514874630553
844,2224.0514874630553
907,0.0
908,0.0
971,0.0
972,0.0
1195,0.0
1197,0.0
2,2, 2, 6, 0,16, 0.00,60.00,Tuesday
7,-11.1
718,19.772068643229638
719,2.83153972427075
720,11.705957445376042
619,2965.326095181564
633,1149.5694458457954
659,10.532487253895416
661,27.319197903529478
690,128.3981684570924
716,0.0
843,1900.5051977631483
844,1900.5051977631483
907,0.0
908,0.0
971,0.0
972,0.0
1195,0.0
1197,0.0
2,2, 2, 6, 0,17, 0.00,60.00,Tuesday
7,-11.7
718,19.75347892391706
719,0.4551831242005296
720,11.739592023025935
619,2758.0925526361093
633,1090.2742045948353
659,10.010838866941207
661,35.440878990488244
690,122.33384748197027
716,0.0
843,1725.303318530945
844,1725.303318530945
907,0.0
908,0.0
971,0.0
972,0.0
1195,0.0
1197,0.0
2,2, 2, 6, 0,18, 0.00,60.00,Tuesday
7,-12.2
718,19.649242472761294
719,-2.727818002953374
720,11.806672535923632
619,3380.341623751879
633,1315.6124212298912
659,14.175493904249203
661,0.0
690,149.3318336704758
716,69.96803854785017
843,2458.7495452204967
844,2458.7495452204967
907,0.0
908,0.0
971,0.0
972,0.0
1195,1412.7276787446142
1197,1412.7276787446142
2,2, 2, 6, 0,19, 0.00,60.00,Tuesday
7,-12.2
718,19.690956075113316
719,-4.703996027256393
720,11.824836896165776
619,3382.5908302267785
633,1313.222961838698
659,14.175493904249203
661,0.0
690,149.3318336704758
716,0.0
843,2974.3240299605477
844,2974.3240299605477
907,0.0
908,0.0
971,0.0
972,0.0
1195,1335.5176944745517
1197,1335.5176944745517
2,2, 2, 6, 0,20, 0.00,60.00,Tuesday
7,-12.2
718,19.69067327631568
719,-5.710146412924914
720,11.825864256343163
619,3332.131485397863
633,1294.9113533706256
659,29.214825785195515
661,0.0
690,149.3318336704758
716,85.44000000000005
843,3917.437615223831
844,3917.437615223831
907,0.0
908,0.0
971,0.0
972,0.0
1195,3892.913312375462
1197,3892.913312375462
2,2, 2, 6, 0,21, 0.00,60.00,Tuesday
7,-11.7
718,19.69032700569735
719,-5.6739571716766255
720,11.809670622229719
619,3376.6201875024576
633,1297.7792230806094
659,31.813750482532953
661,0.0
690,149.3318336704758
716,85.44000000000005
843,3798.166405714519
844,3798.166405714519
907,0.0
908,0.0
971,0.0
972,0.0
1195,3774.155134893366
1197,3774.155134893366
2,2, 2, 6, 0,22, 0.00,60.00,Tuesday
7,-11.7
718,19.698442505333844
719,-5.804392216114655
720,11.766443205195237
619,3376.648316023968
633,1297.7490717556389
659,31.813750482532953
661,0.0
690,149.3318336704758
716,85.44000000000005
843,4206.979325309527
844,4206.979325309527
907,0.0
908,0.0
971,0.0
972,0.0
1195,4077.750819422605
1197,4077.750819422605
2,2, 2, 6, 0,23, 0.00,60.00,Tuesday
7,-11.7
718,18.982917255918142
719,-6.09968086094703
720,11.709467749286029
619,3392.7117979779764
633,1304.0843424323944
659,26.98316935924631
661,0.0
690,149.3318336704758
716,20.67299549971406
843,3739.668452367314
844,3739.668452367314
907,0.0
908,0.0
971,0.0
972,0.0
1195,2668.142657981144
1197,2668.142657981144
2,2, 2, 6, 0,24, 0.00,60.00,Tuesday
7,-11.7
718,18.724203911814662
719,-5.897981853815172
720,11.609789101702061
619,3392.259478753132
633,1280.9007724904518
659,31.82894909567083
661,0.0
690,149.3318336704758
716,0.0
843,4147.125101516192
844,4147.125101516192
907,0.0
908,0.0
971,0.0
972,0.0
1195,2860.1925912364554
1197,2860.1925912364554
2,3, 2, 7, 0, 1, 0.00,60.00,Wednesday
7,-11.7
718,18.639901426419854
719,-5.803775909573651
720,11.526857239901567
619,3398.0218540486567
633,1274.6895920676131
659,31.82894909567083
661,0.0
690,149.3318336704758
716,0.0
843,4715.648732175026
844,4715.648732175026
907,0.0
908,0.0
971,0.0
972,0.0
1195,3517.6532794818327
1197,3517.6532794818327
2,3, 2, 7, 0, 2, 0.00,60.00,Wednesday
7,-9.0
718,18.61056016352278
719,-4.450682954056894
720,11.45980932739811
619,3701.61519257355
633,1305.81635027102
659,30.110133809133693
661,0.0
690,149.3318336704758
716,0.0
843,5046.501973194341
844,5046.501973194341
907,0.0
908,0.0
971,0.0
972,0.0
1195,3595.0246420214303
1197,3595.0246420214303
2,3, 2, 7, 0, 3, 0.00,60.00,Wednesday
7,-9.0
718,18.60948585651798
719,-3.9526365057307085
720,11.375769902023002
619,3702.316903927034
633,1305.0295943225979
659,30.110133809133693
661,0.0
690,149.3318336704758
716,0.0
843,4972.038055390791
844,4972.038055390791
907,0.0
908,0.0
971,0.0
972,0.0
1195,3433.950573615453
1197,3433.950573615453
2,3, 2, 7, 0, 4, 0.00,60.00,Wednesday
7,-9.4
718,18.602988183154206
719,-3.9860560634864286
720,11.295197551791638
619,3645.104171578404
633,1295.8897344864329
659,33.591391172522926
661,0.0
690,149.3318336704758
716,0.0
843,5022.814610316218
844,5022.814610316218
907,0.0
908,0.0
971,0.0
972,0.0
1195,3506.2923116505267
1197,3506.2923116505267
2,3, 2, 7, 0, 5, 0.00,60.00,Wednesday
7,-11.1
718,18.604421075489803
719,-4.79613257312615
720,11.206347421842967
619,3475.5113723947384
633,1282.154830091538
659,28.8963770002536
661,0.0
690,149.3318336704758
716,0.0
843,5158.6540095381515
844,5158.6540095381515
907,0.0
908,0.0
971,0.0
972,0.0
1195,3854.6672760820156
1197,3854.6672760820156
2,3, 2, 7, 0, 6, 0.00,60.00,Wednesday
7,-13.3
718,19.277951573958514
719,-5.261394013986032
720,11.118768775768537
619,3251.705817333209
633,1259.7933722040432
659,25.896628853576345
661,0.0
690,149.3318336704758
716,74.05586077287181
843,6211.693646484224
844,6211.693646484224
907,0.0
908,0.0
971,0.0
972,0.0
1195,6226.521916066893
1197,6226.521916066893
2,3, 2, 7, 0, 7, 0.00,60.00,Wednesday
7,-13.3
718,19.533431326364898
719,-5.778959882413074
720,11.07615729814819
619,3237.162895975789
633,1275.027763750189
659,25.896628853576345
661,0.0
690,149.3318336704758
716,85.44000000000005
843,6010.656146978135
844,6010.656146978135
907,0.0
908,0.0
971,0.0
972,0.0
1195,6427.898484611609
1197,6427.898484611609
2,3, 2, 7, 0, 8, 0.00,60.00,Wednesday
7,-14.4
718,19.637606802086992
719,-6.279879670310833
720,10.99965940195829
619,3118.096282792959
633,1266.7289529595068
659,25.922361722465173
661,0.0
690,149.3318336704758
716,85.44000000000005
843,5778.474082180679
844,5778.474082180679
907,0.0
908,0.0
971,0.0
972,0.0
1195,6318.168341800261
1197,6318.168341800261
2,3, 2, 7, 0, 9, 0.00,60.00,Wednesday
7,-14.4
718,19.69872748751202
719,-5.615366787714843
720,10.934839106836929
619,3115.9110247953695
633,1268.9661273059805
659,25.91976491501271
661,0.0
690,149.3318336704758
716,18.667200115851525
843,4826.488098896138
844,4826.488098896138
907,0.0
908,0.0
971,0.0
972,0.0
1195,4269.768974381232
1197,4269.768974381232
2,3, 2, 7, 0,10, 0.00,60.00,Wednesday
7,-14.4
718,19.713223283356122
719,-3.087978538034641
720,10.873993741256403
619,3114.655537257727
633,1270.2438573119432
659,25.91976491501271
661,0.0
690,149.3318336704758
716,0.0
843,3861.668661115582
844,3861.668661115582
907,0.0
908,0.0
971,0.0
972,0.0
1195,2833.3181152994084
1197,2833.3181152994084
2,3, 2, 7, 0,11, 0.00,60.00,Wednesday
7,-10.6
718,19.72942657220096
719,3.1474641625875526
720,10.862478221588635
619,3530.056439446136
633,1323.3704922638656
659,21.90425852186853
661,0.0
690,149.3318336704758
716,0.0
843,2429.0187760555873
844,2429.0187760555873
907,0.0
908,0.0
971,0.0
972,0.0
1195,578.670945776074
1197,578.670945776074
2,3, 2, 7, 0,12, 0.00,60.00,Wednesday
7,-8.9
718,19.800003413100402
719,8.193781006018149
720,10.801204066251154
619,2786.0005970966517
633,1040.8592123735357
659,13.838073761074847
661,45.75853388885083
690,114.58475985962552
716,0.0
843,1786.0442522835165
844,1786.0442522835165
907,0.0
908,0.0
971,0.0
972,0.0
1195,0.0
1197,0.0
2,3, 2, 7, 0,13, 0.00,60.00,Wednesday
7,-8.9
718,19.75041992722693
719,10.433179425759349
720,10.811849217818029
619,2542.24281133282
633,958.5203172311885
659,12.726738881289819
661,58.14565684816553
690,105.38223975738329
716,0.0
843,1785.725296496954
844,1785.725296496954
907,0.0
908,0.0
971,0.0
972,0.0
1195,0.0
1197,0.0
2,3, 2, 7, 0,14, 0.00,60.00,Wednesday
7,-7.2
718,19.756732053137224
719,6.052502712952396
720,10.842782718446788
619,2593.8995446775407
633,943.5863529900997
659,12.334892283751614
661,62.29091948164749
690,102.3811568851284
716,0.0
843,1912.3366727316006
844,1912.3366727316006
907,0.0
908,0.0
971,0.0
972,0.0
1195,0.0
1197,0.0
2,3, 2, 7, 0,15, 0.00,60.00,Wednesday
7,-7.2
718,19.695416288689596
719,7.291771056328859
720,10.947410800480297
619,3668.3786051807583
633,1294.4728503198999
659,21.205056263420154
661,10.252040014192175
690,140.9171602788926
716,71.13985201969399
843,1741.9147799457096
844,1741.9147799457096
907,0.0
908,0.0
971,0.0
972,0.0
1195,0.0
1197,0.0
2,3, 2, 7, 0,16, 0.00,60.00,Wednesday
7,-7.2
718,19.684652343212992
719,5.791819538581738
720,10.986707930188672
619,3913.373438182736
633,1362.9122621195133
659,22.350760730187755
661,0.0
690,149.3318336704758
716,85.44000000000005
843,1802.8802422580375
844,1802.8802422580375
907,0.0
908,0.0
971,0.0
972,0.0
1195,6.1813009927345774
1197,6.1813009927345774
2,3, 2, 7, 0,17, 0.00,60.00,Wednesday
7,-6.7
718,19.7081358465968
719,2.3495248200771575
720,11.01834871782897
619,3927.811302540089
633,1359.420216116723
659,9.63601528665568
661,3.7447573717225513
690,146.21043857140984
716,17.254796753780152
843,2506.36654861247
844,2506.36654861247
907,0.0
908,0.0
971,0.0
972,0.0
1195,0.0
1197,0.0
2,3, 2, 7, 0,18, 0.00,60.00,Wednesday
7,-8.3
718,19.70712354627824
719,-0.881882814182306
720,11.033868691935554
619,3777.0307439078906
633,1347.0923431908623
659,24.804424403574412
661,0.0
690,149.3318336704758
716,0.0
843,2790.8596200726424
844,2790.8596200726424
907,0.0
908,0.0
971,0.0
972,0.0
1195,461.99819456419846
1197,461.99819456419846
2,3, 2, 7, 0,19, 0.00,60.00,Wednesday
7,-8.3
718,19.715274697056934
719,-2.181512047787315
720,11.041035613762824
619,3777.031214883564
633,1347.0918120695806
659,24.804424403574412
661,0.0
690,149.3318336704758
716,0.0
843,2802.4534106955834
844,2802.4534106955834
907,0.0
908,0.0
971,0.0
972,0.0
1195,650.7669611425035
1197,650.7669611425035
2,3, 2, 7, 0,20, 0.00,60.00,Wednesday
7,-8.3
718,19.694138760374287
719,-2.6143965520920505
720,11.030399641034757
619,3742.5089054391524
633,1335.0100748608095
659,34.0440225583118
661,0.0
690,149.3318336704758
716,85.44000000000005
843,3275.7405524234
844,3275.7405524234
907,0.0
908,0.0
971,0.0
972,0.0
1195,2592.56336411172
1197,2592.56336411172
2,3, 2, 7, 0,21, 0.00,60.00,Wednesday
7,-8.3
718,19.70457972654272
719,-2.6974953061276024
720,11.009342502695752
619,3723.5773350664467
633,1327.5835994600723
659,39.25597563744645
661,0.0
690,149.3318336704758
716,85.44000000000005
843,3151.2802597182035
844,3151.2802597182035
907,0.0
908,0.0
971,0.0
972,0.0
1195,2477.76773906618
1197,2477.76773906618
2,3, 2, 7, 0,22, 0.00,60.00,Wednesday
7,-8.3
718,19.706533240001544
719,-3.0378248785831583
720,10.976566282491145
619,3723.370827401958
633,1327.8164845719468
659,39.25597563744645
661,0.0
690,149.3318336704758
716,51.14715688049986
843,3462.118960393749
844,3462.118960393749
907,0.0
908,0.0
971,0.0
972,0.0
1195,2282.863354556184
1197,2282.863354556184
2,3, 2, 7, 0,23, 0.00,60.00,Wednesday
7,-7.8
718,18.965158620330033
719,-3.7514999679540164
720,10.939810838713429
619,3746.430872956486
633,1321.88499646247
659,48.08517142932645
661,0.0
690,149.3318336704758
716,0.0
843,2354.7952457672964
844,2354.7952457672964
907,0.0
908,0.0
971,0.0
972,0.0
1195,266.29695529154696
1197,266.29695529154696
2,3, 2, 7, 0,24, 0.00,60.00,Wednesday
7,-7.8
718,18.72559700069949
719,-3.5120813946154166
720,10.852926856848997
619,3762.7967956175494
633,1303.2505772042305
659,48.09466255467111
661,0.0
690,149.3318336704758
716,0.0
843,2906.9597375676894
844,2906.9597375676894
907,0.0
908,0.0
971,0.0
972,0.0
1195,887.6801778912372
1197,887.6801778912372
2,4, 2, 8, 0, 1, 0.00,60.00,Thursday
7,-7.8
718,18.64332016837452
719,-3.3056963329093483
720,10.7929409751146
619,3768.151009536655
633,1297.1669043489803
659,48.09466255467111
661,0.0
690,149.3318336704758
716,0.0
843,3402.324480917743
844,3402.324480917743
907,0.0
908,0.0
971,0.0
972,0.0
1195,1437.1518978400768
1197,1437.1518978400768
2,4, 2, 8, 0, 2, 0.00,60.00,Thursday
7,-7.0
718,18.61928751033584
719,-2.701845951165627
720,10.737097781857564
619,3819.3789869418583
633,1289.9320734048156
659,58.688353279367284
661,0.0
690,149.3318336704758
716,0.0
843,3560.1981937315268
844,3560.1981937315268
907,0.0
908,0.0
971,0.0
972,0.0
1195,1562.5882119427024
1197,1562.5882119427024
2,4, 2, 8, 0, 3, 0.00,60.00,Thursday
7,-7.0
718,18.608342041902294
719,-2.1435109174475055
720,10.675472477995276
619,3863.6179619691593
633,1303.963663863002
659,47.47651541097728
661,0.0
690,149.3318336704758
716,0.0
843,3975.039191469088
844,3975.039191469088
907,0.0
908,0.0
971,0.0
972,0.0
1195,1975.771931027884
1197,1975.771931027884
2,4, 2, 8, 0, 4, 0.00,60.00,Thursday
7,-7.8
718,18.61058071123855
719,-1.67201281107476
720,10.614131439098303
619,3750.8080430454074
633,1287.1418172090007
659,53.38218170504891
661,0.0
690,149.3318336704758
716,0.0
843,3733.4964591129647
844,3733.4964591129647
907,0.0
908,0.0
971,0.0
972,0.0
1195,1769.1593399817734
1197,1769.1593399817734
2,4, 2, 8, 0, 5, 0.00,60.00,Thursday
7,-7.2
718,18.607502463217443
719,-1.8039854749847215
720,10.565571081311688
619,3805.8857018904882
633,1289.4687611654688
659,56.59047550744374
661,0.0
690,149.3318336704758
716,0.0
843,3740.5215481025916
844,3740.5215481025916
907,0.0
908,0.0
971,0.0
972,0.0
1195,1692.166742536495
1197,1692.166742536495
2,4, 2, 8, 0, 6, 0.00,60.00,Thursday
7,-7.0
718,19.379341830748093
719,-1.4620137047749715
720,10.515982297130106
619,3820.4180743229936
633,1288.7417146459156
659,58.688353279367284
661,0.0
690,149.3318336704758
716,0.0
843,4731.217625608177
844,4731.217625608177
907,0.0
908,0.0
971,0.0
972,0.0
1195,2874.689530696931
1197,2874.689530696931
2,4, 2, 8, 0, 7, 0.00,60.00,Thursday
7,-7.2
718,19.578197301223682
719,-1.2148418220513124
720,10.505632469542306
619,3789.24319516502
633,1308.5256031655545
659,56.584938997713465
661,0.0
690,149.3318336704758
716,85.44000000000005
843,4486.550707188722
844,4486.550707188722
907,0.0
908,0.0
971,0.0
972,0.0
1195,3907.262943484541
1197,3907.262943484541
2,4, 2, 8, 0, 8, 0.00,60.00,Thursday
7,-7.0
718,19.65098634713785
719,-0.7155867062711962
720,10.46920687486921
619,3799.2900991862534
633,1312.9408632926325
659,58.688353279367284
661,0.0
690,149.3318336704758
716,85.44000000000005
843,4129.003969762238
844,4129.003969762238
907,0.0
908,0.0
971,0.0
972,0.0
1195,3553.2427110638546
1197,3553.2427110638546
2,4, 2, 8, 0, 9, 0.00,60.00,Thursday
7,-7.0
718,19.689569101641055
719,0.08417368869946981
720,10.436039308591141
619,3797.739605003942
633,1314.7160724277464
659,58.688353279367284
661,0.0
690,149.3318336704758
716,85.44000000000005
843,3602.6653674823137
844,3602.6653674823137
907,0.0
908,0.0
971,0.0
972,0.0
1195,2774.200720733269