Program Version,EnergyPlus, Version 22.2.0-c249759bad, YMD=2023.09.01 14:31
1,5,Environment Title[],Latitude[deg],Longitude[deg],Time Zone[],Elevation[m]
2,8,Day of Simulation[],Month[],Day of Month[],DST Indicator[1=yes 0=no],Hour[],StartMinute[],EndMinute[],DayType
3,5,Cumulative Day of Simulation[],Month[],Day of Month[],DST Indicator[1=yes 0=no],DayType  ! When Daily Report Variables Requested
4,2,Cumulative Days of Simulation[],Month[]  ! When Monthly Report Variables Requested
5,1,Cumulative Days of Simulation[] ! When Run Period Report Variables Requested
6,1,Calendar Year of Simulation[] ! When Annual Report Variables Requested
7,1,Environment,Site Outdoor Air Drybulb Temperature [C] !Hourly
545,1,LIVING,Zone Mean Air Temperature [C] !Hourly
546,1,ATTIC,Zone Mean Air Temperature [C] !Hourly
547,1,CRAWLSPACE,Zone Mean Air Temperature [C] !Hourly
548,1,FAN,Fan Electricity Rate [W] !Hourly
720,1,LIVING,Zone Predicted Sensible Load to Heating Setpoint Heat Transfer Rate [W] !Hourly
721,1,LIVING,Zone System Predicted Sensible Load to Heating Setpoint Heat Transfer Rate [W] !Hourly
784,1,ATTIC,Zone Predicted Sensible Load to Heating Setpoint Heat Transfer Rate [W] !Hourly
785,1,ATTIC,Zone System Predicted Sensible Load to Heating Setpoint Heat Transfer Rate [W] !Hourly
848,1,CRAWLSPACE,Zone Predicted Sensible Load to Heating Setpoint Heat Transfer Rate [W] !Hourly
849,1,CRAWLSPACE,Zone System Predicted Sensible Load to Heating Setpoint Heat Transfer Rate [W] !Hourly
1121,1,DX_HEATING_COIL,Heating Coil Heating Rate [W] !Hourly
1135,1,DX_HEATING_COIL,Heating Coil Electricity Rate [W] !Hourly
1161,1,DX_HEATING_COIL,Heating Coil Defrost Electricity Rate [W] !Hourly
1163,1,DX_HEATING_COIL,Heating Coil Crankcase Heater Electricity Rate [W] !Hourly
1166,1,HEATING_RESISTANCE_BACKUP,Heating Coil Heating Rate [W] !Hourly
1168,1,HEATING_RESISTANCE_BACKUP,Heating Coil Electricity Rate [W] !Hourly
End of Data Dictionary
1,EXTREME_WINTER,  33.95,-117.43,  -8.00, 249.00
2,1, 2,15, 0, 1, 0.00,60.00,Monday
7,8.9
545,18.96372376399532
546,3.497682573697213
547,19.760670814777967
548,0.0
720,-197.92152687412636
721,-197.92152687412636
784,0.0
785,0.0
848,0.0
849,0.0
1121,0.0
1135,0.0
1161,0.0
1163,200.0
1166,0.0
1168,0.0
2,1, 2,15, 0, 2, 0.00,60.00,Monday
7,8.9
545,18.620964009792733
546,4.620624619123388
547,19.537095121898723
548,0.0
720,-5.686730431496471
721,-5.686730431496471
784,0.0
785,0.0
848,0.0
849,0.0
1121,0.0
1135,0.0
1161,0.0
1163,200.0
1166,0.0
1168,0.0
2,1, 2,15, 0, 3, 0.00,60.00,Monday
7,8.9
545,18.58945550913693
546,5.402127597738246
547,19.390901294319104
548,5.6034719079619055
720,197.27211535668266
721,197.27211535668266
784,0.0
785,0.0
848,0.0
849,0.0
1121,237.02398093934238
1135,63.01287926276294
1161,0.0
1163,193.51825759324535
1166,0.0
1168,0.0
2,1, 2,15, 0, 4, 0.00,60.00,Monday
7,9.4
545,18.60815578903022
546,6.033902223084006
547,19.251301225644358
548,10.590863859485761
720,376.8591237994442
721,376.8591237994442
784,0.0
785,0.0
848,0.0
849,0.0
1121,454.9963504804416
1135,119.74336416759569
1161,0.0
1163,187.74915757056726
1166,0.0
1168,0.0
2,1, 2,15, 0, 5, 0.00,60.00,Monday
7,8.9
545,18.574500939684942
546,6.338133925230229
547,19.129259907808216
548,12.047725277361959
720,418.2889494865012
721,418.2889494865012
784,0.0
785,0.0
848,0.0
849,0.0
1121,511.77319936276956
1135,135.41711781355178
1161,0.0
1163,186.06395229281873
1166,0.0
1168,0.0
2,1, 2,15, 0, 6, 0.00,60.00,Monday
7,8.3
545,19.493560927841756
546,6.605453838295495
547,19.000446050054627
548,34.82655938574519
720,1236.7652956808142
721,1236.7652956808142
784,0.0
785,0.0
848,0.0
849,0.0
1121,1479.6787758279336
1135,388.3597140848523
1161,0.0
1163,159.71483563053158
1166,0.0
1168,0.0
2,1, 2,15, 0, 7, 0.00,60.00,Monday
7,8.9
545,19.709748719837005
546,6.522979467146814
547,18.91111557361241
548,32.40598868090815
720,1123.2784104474813
721,1123.2784104474813
784,0.0
785,0.0
848,0.0
849,0.0
1121,1389.7106284188117
1135,370.0537960270557
1161,0.0
1163,162.51479894681006
1166,0.0
1168,0.0
2,1, 2,15, 0, 8, 0.00,60.00,Monday
7,8.9
545,19.718713604033674
546,7.610068816077808
547,18.81801999610406
548,24.844278166325118
720,839.1511996946083
721,839.1511996946083
784,0.0
785,0.0
848,0.0
849,0.0
1121,1059.2704372293858
1135,284.8159191149526
1161,0.0
1163,171.2617080979621
1166,0.0
1168,0.0
2,1, 2,15, 0, 9, 0.00,60.00,Monday
7,10.6
545,19.743055397490583
546,9.36200347830609
547,18.73393330021739
548,20.475729813093324
720,726.5105253258371
721,726.5105253258371
784,0.0
785,0.0
848,0.0
849,0.0
1121,907.2031299324558
1135,239.6530388439878
1161,0.0
1163,0.0
1166,0.0
1168,0.0
2,1, 2,15, 0,10, 0.00,60.00,Monday
7,11.1
545,19.8217023517941
546,11.139027876949172
547,18.65628534110954
548,15.411748687589581
720,555.0701228627204
721,555.0701228627204
784,0.0
785,0.0
848,0.0
849,0.0
1121,688.7623934310174
1135,181.60584107440118
1161,0.0
1163,0.0
1166,0.0
1168,0.0
2,1, 2,15, 0,11, 0.00,60.00,Monday
7,10.6
545,19.710412966507402
546,13.263399281826175
547,18.58516356849329
548,9.195423522534647
720,324.2177628894842
721,324.2177628894842
784,0.0
785,0.0
848,0.0
849,0.0
1121,404.3115135110213
1135,107.81336700167563
1161,0.0
1163,0.0
1166,0.0
1168,0.0
2,1, 2,15, 0,12, 0.00,60.00,Monday
7,11.7
545,19.776615938745614
546,16.16812516569334
547,18.524386914658095
548,2.7261381202482102
720,93.39939785850038
721,93.39939785850038
784,0.0
785,0.0
848,0.0
849,0.0
1121,122.60620778896005
1135,32.356228286684996
1161,0.0
1163,0.0
1166,0.0
1168,0.0
2,1, 2,15, 0,13, 0.00,60.00,Monday
7,10.6
545,19.479532914492108
546,15.23530665836537
547,18.47265773103243
548,0.0
720,-28.296231156498834
721,-28.296231156498834
784,0.0
785,0.0
848,0.0
849,0.0
1121,0.0
1135,0.0
1161,0.0
1163,0.0
1166,0.0
1168,0.0
2,1, 2,15, 0,14, 0.00,60.00,Monday
7,8.9
545,19.691724066758017
546,13.862343525459531
547,18.43113330497033
548,8.898251806002769
720,325.31374741272066
721,325.31374741272066
784,0.0
785,0.0
848,0.0
849,0.0
1121,375.90517262537674
1135,101.55454942462711
1161,0.0
1163,189.70706429437115
1166,0.0
1168,0.0
2,1, 2,15, 0,15, 0.00,60.00,Monday
7,8.9
545,19.840715560110816
546,12.818244312149838
547,18.396631509474446
548,10.123287018396578
720,363.58135712078547
721,363.58135712078547
784,0.0
785,0.0
848,0.0
849,0.0
1121,427.6154485524693
1135,115.97883129940439
1161,0.0
1163,188.29002092976387
1166,0.0
1168,0.0
2,1, 2,15, 0,16, 0.00,60.00,Monday
7,9.0
545,19.74312404367837
546,11.664775681469392
547,18.3592169774723
548,6.9349637575882745
720,242.30864153400398
721,242.30864153400398
784,0.0
785,0.0
848,0.0
849,0.0
1121,292.87621114695406
1135,79.75961387968793
1161,0.0
1163,191.9780719141294
1166,0.0
1168,0.0
2,1, 2,15, 0,17, 0.00,60.00,Monday
7,8.3
545,19.567804869404387
546,10.1098440985631
547,18.31556237326708
548,3.9671961734204872
720,132.72547505534203
721,132.72547505534203
784,0.0
785,0.0
848,0.0
849,0.0
1121,164.4407312417542
1135,45.17805147059521
1161,0.0
1163,195.41099802130938
1166,0.0
1168,0.0
2,1, 2,15, 0,18, 0.00,60.00,Monday
7,9.4
545,19.968187330093453
546,9.74700006727269
547,18.27225205007469
548,2.763273540361611
720,95.0532571549802
721,95.0532571549802
784,0.0
785,0.0
848,0.0
849,0.0
1121,117.66540957244423
1135,31.7724523522343
1161,0.0
1163,196.80361968754127
1166,0.0
1168,0.0
2,1, 2,15, 0,19, 0.00,60.00,Monday
7,8.9
545,20.06478218636201
546,9.197449377383489
547,18.224712478388554
548,0.0
720,-241.41521616460523
721,-241.41521616460523
784,0.0
785,0.0
848,0.0
849,0.0
1121,0.0
1135,0.0
1161,0.0
1163,200.0
1166,0.0
1168,0.0
2,1, 2,15, 0,20, 0.00,60.00,Monday
7,8.3
545,20.03572945374377
546,8.763420616773034
547,18.176396130991982
548,0.0
720,-174.91024399289927
721,-174.91024399289927
784,0.0
785,0.0
848,0.0
849,0.0
1121,0.0
1135,0.0
1161,0.0
1163,200.0
1166,0.0
1168,0.0
2,1, 2,15, 0,21, 0.00,60.00,Monday
7,7.8
545,20.194154980305264
546,8.197637555734676
547,18.127709874542532
548,0.0
720,-236.88018282677513
721,-236.88018282677513
784,0.0
785,0.0
848,0.0
849,0.0
1121,0.0
1135,0.0
1161,0.0
1163,200.0
1166,0.0
1168,0.0
2,1, 2,15, 0,22, 0.00,60.00,Monday
7,7.2
545,19.953827200899706
546,6.006845143905029
547,18.075621032862244
548,0.0
720,-119.93807817965262
721,-119.93807817965262
784,0.0
785,0.0
848,0.0
849,0.0
1121,0.0
1135,0.0
1161,0.0
1163,200.0
1166,0.0
1168,0.0
2,1, 2,15, 0,23, 0.00,60.00,Monday
7,6.7
545,19.47849705225205
546,4.057427408631395
547,18.019090484473328
548,0.0
720,-454.4047122045522
721,-454.4047122045522
784,0.0
785,0.0
848,0.0
849,0.0
1121,0.0
1135,0.0
1161,0.0
1163,200.0
1166,0.0
1168,0.0
2,1, 2,15, 0,24, 0.00,60.00,Monday
7,5.6
545,18.80612507195128
546,2.5544850629246802
547,17.957049592441564
548,0.0
720,-103.13126900681618
721,-103.13126900681618
784,0.0
785,0.0
848,0.0
849,0.0
1121,0.0
1135,0.0
1161,0.0
1163,200.0
1166,0.0
1168,0.0
2,2, 2,16, 0, 1, 0.00,60.00,Tuesday
7,7.2
545,18.60843457418747
546,1.8607850804630859
547,17.888056886297967
548,2.652148319647557
720,84.15838164664547
721,84.15838164664547
784,0.0
785,0.0
848,0.0
849,0.0
1121,107.32010210708177
1135,29.309369380154575
1161,0.0
1163,196.93216232456936
1166,0.0
1168,0.0
2,2, 2,16, 0, 2, 0.00,60.00,Tuesday
7,11.1
545,18.46747563887641
546,6.581613431416282
547,17.8131414784532
548,6.513211127028563
720,236.60081502522098
721,236.60081502522098
784,0.0
785,0.0
848,0.0
849,0.0
1121,290.77709661912155
1135,75.2170075452081
1161,0.0
1163,0.0
1166,0.0
1168,0.0
2,2, 2,16, 0, 3, 0.00,60.00,Tuesday
7,11.1
545,18.61413724791473
546,8.041132914494975
547,17.738516965095076
548,13.923656491020612
720,519.92918730153
721,519.92918730153
784,0.0
785,0.0
848,0.0
849,0.0
1121,624.9254395363622
1135,160.39853419236226
1161,0.0
1163,0.0
1166,0.0
1168,0.0
2,2, 2,16, 0, 4, 0.00,60.00,Tuesday
7,10.6
545,18.613240864173715
546,8.888787417761543
547,17.666722502317125
548,18.050663463436397
720,664.5637474999239
721,664.5637474999239
784,0.0
785,0.0
848,0.0
849,0.0
1121,802.210699019356
1135,207.07349951486063
1161,0.0
1163,0.0
1166,0.0
1168,0.0
2,2, 2,16, 0, 5, 0.00,60.00,Tuesday
7,10.6
545,18.60773041506252
546,8.934178143550236
547,17.598381245647683
548,18.382224597112735
720,674.3812190694025
721,674.3812190694025
784,0.0
785,0.0
848,0.0
849,0.0
1121,817.1329838741508
1135,210.86300242905222
1161,0.0
1163,0.0
1166,0.0
1168,0.0
2,2, 2,16, 0, 6, 0.00,60.00,Tuesday
7,11.1
545,19.356909839563915
546,10.094687881523642
547,17.53284256712283
548,38.59366091697221
720,1477.1698562039983
721,1477.1698562039983
784,0.0
785,0.0
848,0.0
849,0.0
1121,1759.1702344610962
1135,445.5450911317901
1161,0.0
1163,0.0
1166,0.0
1168,0.0
2,2, 2,16, 0, 7, 0.00,60.00,Tuesday
7,11.7
545,19.77920458126198
546,10.392494602459644
547,17.484837960423825
548,37.90169278872058
720,1441.9569377077369
721,1441.9569377077369
784,0.0
785,0.0
848,0.0
849,0.0
1121,1746.5066347550564
1135,446.7277876600361
1161,0.0
1163,0.0
1166,0.0
1168,0.0
2,2, 2,16, 0, 8, 0.00,60.00,Tuesday
7,13.3
545,19.920560847626
546,11.77422355976794
547,17.42814947636565
548,10.849691418149764
720,381.93002329370756
721,381.93002329370756
784,0.0
785,0.0
848,0.0
849,0.0
1121,509.2876321036013
1135,131.68095108320594
1161,0.0
1163,0.0
1166,0.0
1168,0.0
2,2, 2,16, 0, 9, 0.00,60.00,Tuesday
7,13.9
545,20.27647213950866
546,14.583007315791535
547,17.38626264439735
548,0.0
720,-494.21962451592117
721,-494.21962451592117
784,0.0
785,0.0
848,0.0
849,0.0
1121,0.0
1135,0.0
1161,0.0
1163,0.0
1166,0.0
1168,0.0
2,2, 2,16, 0,10, 0.00,60.00,Tuesday
7,15.0
545,21.342825052478187
546,17.45620691867001
547,17.375608041039733
548,0.0
720,-1335.0234698164713
721,-1335.0234698164713
784,0.0
785,0.0
848,0.0
849,0.0
1121,0.0
1135,0.0
1161,0.0
1163,0.0
1166,0.0
1168,0.0
2,2, 2,16, 0,11, 0.00,60.00,Tuesday
7,15.6
545,22.189743996501527
546,19.798309647019817
547,17.39488198246681
548,0.0
720,-2061.9764689669864
721,-2061.9764689669864
784,0.0
785,0.0
848,0.0
849,0.0
1121,0.0
1135,0.0
1161,0.0
1163,0.0
1166,0.0
1168,0.0
2,2, 2,16, 0,12, 0.00,60.00,Tuesday
7,16.7
545,23.339640255119658
546,24.815705648389887
547,17.450280749697935
548,3.0860463394633912
720,-2678.4952771295593
721,-2678.4952771295593
784,0.0
785,0.0
848,0.0
849,0.0
1121,0.0
1135,0.0
1161,0.0
1163,0.0
1166,0.0
1168,0.0
2,2, 2,16, 0,13, 0.00,60.00,Tuesday
7,17.8
545,23.36014618899655
546,27.21014799357765
547,17.557782135102777
548,20.49370900534705
720,-3299.1472338852527
721,-3299.1472338852527
784,0.0
785,0.0
848,0.0
849,0.0
1121,0.0
1135,0.0
1161,0.0
1163,0.0
1166,0.0
1168,0.0
2,2, 2,16, 0,14, 0.00,60.00,Tuesday
7,18.9
545,23.386299491171076
546,28.87397253857894
547,17.69340088007627
548,42.87580759371191
720,-4719.652006723756
721,-4719.652006723756
784,0.0
785,0.0
848,0.0
849,0.0
1121,0.0
1135,0.0
1161,0.0
1163,0.0
1166,0.0
1168,0.0
2,2, 2,16, 0,15, 0.00,60.00,Tuesday
7,19.4
545,23.40473348333772
546,29.79422291003193
547,17.84699547951997
548,64.41378998916045
720,-6014.989191138226
721,-6014.989191138226
784,0.0
785,0.0
848,0.0
849,0.0
1121,0.0
1135,0.0
1161,0.0
1163,0.0
1166,0.0
1168,0.0
2,2, 2,16, 0,16, 0.00,60.00,Tuesday
7,19.4
545,23.376131168953865
546,29.52945736815782
547,18.01235900810305
548,79.25025821395623
720,-6785.722573065261
721,-6785.722573065261
784,0.0
785,0.0
848,0.0
849,0.0
1121,0.0
1135,0.0
1161,0.0
1163,0.0
1166,0.0
1168,0.0
2,2, 2,16, 0,17, 0.00,60.00,Tuesday
7,18.9
545,23.31858336595607
546,25.32852290593462
547,18.162256892938046
548,82.35273753173718
720,-7030.717655457433
721,-7030.717655457433
784,0.0
785,0.0
848,0.0
849,0.0
1121,0.0
1135,0.0
1161,0.0
1163,0.0
1166,0.0
1168,0.0
2,2, 2,16, 0,18, 0.00,60.00,Tuesday
7,17.8
545,23.341193546718742
546,22.04741329876715
547,18.216811987661664
548,54.31156747773791
720,-5862.229767676756
721,-5862.229767676756
784,0.0
785,0.0
848,0.0
849,0.0
1121,0.0
1135,0.0
1161,0.0
1163,0.0
1166,0.0
1168,0.0
2,2, 2,16, 0,19, 0.00,60.00,Tuesday
7,16.7
545,23.318705662207798
546,17.887889521218707
547,18.301115063988934
548,45.03045870683298
720,-5219.290703994948
721,-5219.290703994948
784,0.0
785,0.0
848,0.0
849,0.0
1121,0.0
1135,0.0
1161,0.0
1163,0.0
1166,0.0
1168,0.0
2,2, 2,16, 0,20, 0.00,60.00,Tuesday
7,16.1
545,23.277202458545435
546,15.702927050122973
547,18.368216237111838
548,38.395062515531365
720,-4928.504808998081
721,-4928.504808998081
784,0.0
785,0.0
848,0.0
849,0.0
1121,0.0
1135,0.0
1161,0.0
1163,0.0
1166,0.0
1168,0.0
2,2, 2,16, 0,21, 0.00,60.00,Tuesday
7,16.1
545,23.30129500681141
546,14.908164066808292
547,18.39434254934491
548,30.954939238333708
720,-4585.050335571877
721,-4585.050335571877
784,0.0
785,0.0
848,0.0
849,0.0
1121,0.0
1135,0.0
1161,0.0
1163,0.0
1166,0.0
1168,0.0
2,2, 2,16, 0,22, 0.00,60.00,Tuesday
7,15.6
545,23.345177598776086
546,14.084302170097162
547,18.38555830057406
548,21.363165477803744
720,-4076.043353308871
721,-4076.043353308871
784,0.0
785,0.0
848,0.0
849,0.0
1121,0.0
1135,0.0
1161,0.0
1163,0.0
1166,0.0
1168,0.0
2,2, 2,16, 0,23, 0.00,60.00,Tuesday
7,15.0
545,23.931016002795115
546,12.988165292252237
547,18.330572856094662
548,0.0
720,-4321.6247892416795
721,-4321.6247892416795
784,0.0
785,0.0
848,0.0
849,0.0
1121,0.0
1135,0.0
1161,0.0
1163,0.0
1166,0.0
1168,0.0
2,2, 2,16, 0,24, 0.00,60.00,Tuesday
7,15.0
545,23.79333104102978
546,10.77798215077196
547,18.32431280075438
548,0.0
720,-2323.144750556702
721,-2323.144750556702
784,0.0
785,0.0
848,0.0
849,0.0
1121,0.0
1135,0.0
1161,0.0
1163,0.0
1166,0.0
1168,0.0
2,3, 2,17, 0, 1, 0.00,60.00,Wednesday
7,16.1
545,23.35437523964958
546,11.981829789680418
547,18.302970962259604
548,0.0
720,-2424.799842385005
721,-2424.799842385005
784,0.0
785,0.0
848,0.0
849,0.0
1121,0.0
1135,0.0
1161,0.0
1163,0.0
1166,0.0
1168,0.0
2,3, 2,17, 0, 2, 0.00,60.00,Wednesday
7,15.0
545,22.98617779042463
546,11.004458394852753
547,18.275382911527604
548,0.0
720,-2017.9560638124758
721,-2017.9560638124758
784,0.0
785,0.0
848,0.0
849,0.0
1121,0.0
1135,0.0
1161,0.0
1163,0.0
1166,0.0
1168,0.0
2,3, 2,17, 0, 3, 0.00,60.00,Wednesday
7,15.6
545,22.480543329332892
546,12.327910212174885
547,18.242720399191743
548,0.0
720,-2148.358131917551
721,-2148.358131917551
784,0.0
785,0.0
848,0.0
849,0.0
1121,0.0
1135,0.0
1161,0.0
1163,0.0
1166,0.0
1168,0.0
2,3, 2,17, 0, 4, 0.00,60.00,Wednesday
7,15.6
545,22.177649862720138
546,12.206817180578177
547,18.206202240239957
548,0.0
720,-1627.8911925727652
721,-1627.8911925727652
784,0.0
785,0.0
848,0.0
849,0.0
1121,0.0
1135,0.0
1161,0.0
1163,0.0
1166,0.0
1168,0.0
2,3, 2,17, 0, 5, 0.00,60.00,Wednesday
7,14.4
545,21.859330843857705
546,11.650372866452045
547,18.165017138619458
548,0.0
720,-1864.803284964023
721,-1864.803284964023
784,0.0
785,0.0
848,0.0
849,0.0
1121,0.0
1135,0.0
1161,0.0
1163,0.0
1166,0.0
1168,0.0
2,3, 2,17, 0, 6, 0.00,60.00,Wednesday
7,14.4
545,21.644883315382874
546,12.109523518112873
547,18.120043361426962
548,0.0
720,-1107.1782382330457
721,-1107.1782382330457
784,0.0
785,0.0
848,0.0
849,0.0
1121,0.0
1135,0.0
1161,0.0
1163,0.0
1166,0.0
1168,0.0
2,3, 2,17, 0, 7, 0.00,60.00,Wednesday
7,13.9
545,21.755252781940346
546,9.523294156014778
547,18.07535907754364
548,0.0
720,-1072.3627297319235
721,-1072.3627297319235
784,0.0
785,0.0
848,0.0
849,0.0
1121,0.0
1135,0.0
1161,0.0
1163,0.0
1166,0.0
1168,0.0
2,3, 2,17, 0, 8, 0.00,60.00,Wednesday
7,13.9
545,22.358140214553444
546,11.197335277469325
547,18.029475761389357
548,0.0
720,-1708.5609872724744
721,-1708.5609872724744
784,0.0
785,0.0
848,0.0
849,0.0
1121,0.0
1135,0.0
1161,0.0
1163,0.0
1166,0.0
1168,0.0
2,3, 2,17, 0, 9, 0.00,60.00,Wednesday
7,16.7
545,23.301822665025124
546,16.88613370987804
547,18.005274703880417
548,4.47654256879896
720,-2746.923014226768
721,-2746.923014226768
784,0.0
785,0.0
848,0.0
849,0.0
1121,0.0
1135,0.0
1161,0.0
1163,0.0
1166,0.0
1168,0.0
2,3, 2,17, 0,10, 0.00,60.00,Wednesday
7,17.8
545,23.281533771992674
546,22.740706067179815
547,18.050803190886395
548,27.142087014878346
720,-3879.0617304157895
721,-3879.0617304157895
784,0.0
785,0.0
848,0.0
849,0.0
1121,0.0
1135,0.0
1161,0.0
1163,0.0
1166,0.0
1168,0.0
2,3, 2,17, 0,11, 0.00,60.00,Wednesday
7,20.0
545,23.376150184100773
546,27.385021788947327
547,18.11315787416711
548,42.90147942279194
720,-4630.966562833926
721,-4630.966562833926
784,0.0
785,0.0
848,0.0
849,0.0
1121,0.0
1135,0.0
1161,0.0
1163,0.0
1166,0.0
1168,0.0
2,3, 2,17, 0,12, 0.00,60.00,Wednesday
7,21.1
545,23.369147070689245
546,31.442851332232554
547,18.202191520924476
548,57.88484486736287
720,-5546.430887211727
721,-5546.430887211727
784,0.0
785,0.0
848,0.0
849,0.0
1121,0.0
1135,0.0
1161,0.0
1163,0.0
1166,0.0
1168,0.0
2,3, 2,17, 0,13, 0.00,60.00,Wednesday
7,22.2
545,23.38208337115925
546,36.071382290315185
547,18.329988847687183
548,73.07278973359519
720,-6276.298513782371
721,-6276.298513782371
784,0.0
785,0.0
848,0.0
849,0.0
1121,0.0
1135,0.0
1161,0.0
1163,0.0
1166,0.0
1168,0.0
2,3, 2,17, 0,14, 0.00,60.00,Wednesday
7,23.3
545,23.392478614021204
546,36.88144121072424
547,18.50896894264378
548,92.47338003704738
720,-7071.909783824332
721,-7071.909783824332
784,0.0
785,0.0
848,0.0
849,0.0
1121,0.0
1135,0.0
1161,0.0
1163,0.0
1166,0.0
1168,0.0
2,3, 2,17, 0,15, 0.00,60.00,Wednesday
7,22.2
545,23.363401541792193
546,35.250377700410276
547,18.62488533194482
548,105.3272751885173
720,-7717.9464946132575
721,-7717.9464946132575
784,0.0
785,0.0
848,0.0
849,0.0
1121,0.0
1135,0.0
1161,0.0
1163,0.0
1166,0.0
1168,0.0
2,3, 2,17, 0,16, 0.00,60.00,Wednesday
7,22.2
545,23.35060306580399
546,33.53781349796415
547,18.797408109527417
548,113.07176717773558
720,-8154.306839268404
721,-8154.306839268404
784,0.0
785,0.0
848,0.0
849,0.0
1121,0.0
1135,0.0
1161,0.0
1163,0.0
1166,0.0
1168,0.0
2,3, 2,17, 0,17, 0.00,60.00,Wednesday
7,20.0
545,23.31107305253669
546,27.41740907103824
547,18.917118989514798
548,107.88691216588174
720,-8097.696634340664
721,-8097.696634340664
784,0.0
785,0.0
848,0.0
849,0.0
1121,0.0
1135,0.0
1161,0.0
1163,0.0
1166,0.0
1168,0.0
2,3, 2,17, 0,18, 0.00,60.00,Wednesday
7,16.7
545,23.28927391398723
546,23.744581129541828
547,19.003165012028486
548,79.87182049230668
720,-7097.456439597594
721,-7097.456439597594
784,0.0
785,0.0
848,0.0
849,0.0
1121,0.0
1135,0.0
1161,0.0
1163,0.0
1166,0.0
1168,0.0
2,3, 2,17, 0,19, 0.00,60.00,Wednesday
7,13.9
545,23.27334693248681
546,18.748826126455388
547,19.08505237996747
548,57.21835649942476
720,-6067.9065654182305
721,-6067.9065654182305
784,0.0
785,0.0
848,0.0
849,0.0
1121,0.0
1135,0.0
1161,0.0
1163,0.0
1166,0.0
1168,0.0
2,3, 2,17, 0,20, 0.00,60.00,Wednesday
7,13.3
545,23.33286293564154
546,15.738591332363816
547,19.146579994586737
548,44.88887304018896
720,-5440.62219170708
721,-5440.62219170708
784,0.0
785,0.0
848,0.0
849,0.0
1121,0.0
1135,0.0
1161,0.0
1163,0.0
1166,0.0
1168,0.0
2,3, 2,17, 0,21, 0.00,60.00,Wednesday
7,12.2
545,23.290281917995912
546,13.2038204877037
547,19.16916164500237
548,35.71980536948518
720,-4937.609096417578
721,-4937.609096417578
784,0.0
785,0.0
848,0.0
849,0.0
1121,0.0
1135,0.0
1161,0.0
1163,0.0
1166,0.0
1168,0.0
2,3, 2,17, 0,22, 0.00,60.00,Wednesday
7,11.1
545,23.340337431254465
546,10.979479993602224
547,19.156547036114134
548,22.983931100647276
720,-4303.393790173184
721,-4303.393790173184
784,0.0
785,0.0
848,0.0
849,0.0
1121,0.0
1135,0.0
1161,0.0
1163,0.0
1166,0.0
1168,0.0
2,3, 2,17, 0,23, 0.00,60.00,Wednesday
7,10.0
545,23.790478258046377
546,8.966589306449142
547,19.108793938840385
548,0.0
720,-4449.963774107666
721,-4449.963774107666
784,0.0
785,0.0
848,0.0
849,0.0
1121,0.0
1135,0.0
1161,0.0
1163,0.0
1166,0.0
1168,0.0
2,3, 2,17, 0,24, 0.00,60.00,Wednesday
7,9.4
545,23.253199016856815
546,8.262532313620476
547,19.059521892498353
548,0.0
720,-2885.719772302179
721,-2885.719772302179
784,0.0
785,0.0
848,0.0
849,0.0
1121,0.0
1135,0.0
1161,0.0
1163,200.0
1166,0.0
1168,0.0
2,4, 2,18, 0, 1, 0.00,60.00,Thursday
7,8.3
545,22.623298112792863
546,6.458214887801272
547,18.993641143017616
548,0.0
720,-2651.249600860734
721,-2651.249600860734
784,0.0
785,0.0
848,0.0
849,0.0
1121,0.0
1135,0.0
1161,0.0
1163,200.0
1166,0.0
1168,0.0
2,4, 2,18, 0, 2, 0.00,60.00,Thursday
7,8.3
545,22.051999762903286
546,5.9639852765368015
547,18.911224440023393
548,0.0
720,-2290.891623405363
721,-2290.891623405363
784,0.0
785,0.0
848,0.0
849,0.0
1121,0.0
1135,0.0
1161,0.0
1163,200.0
1166,0.0
1168,0.0
2,4, 2,18, 0, 3, 0.00,60.00,Thursday
7,7.8
545,21.133968730296118
546,6.515002577939696
547,18.813037952871888
548,0.0
720,-1659.300843271356
721,-1659.300843271356
784,0.0
785,0.0
848,0.0
849,0.0
1121,0.0
1135,0.0
1161,0.0
1163,200.0
1166,0.0
1168,0.0
2,4, 2,18, 0, 4, 0.00,60.00,Thursday
7,6.7
545,20.715722002809784
546,4.520690741228052
547,18.70820472568115
548,0.0
720,-1531.6728869881117
721,-1531.6728869881117
784,0.0
785,0.0
848,0.0
849,0.0
1121,0.0
1135,0.0
1161,0.0
1163,200.0
1166,0.0
1168,0.0
2,4, 2,18, 0, 5, 0.00,60.00,Thursday
7,6.7
545,20.216581134793884
546,4.103585865634811
547,18.584996252511353
548,0.0
720,-1021.7684240595026
721,-1021.7684240595026
784,0.0
785,0.0
848,0.0
849,0.0
1121,0.0
1135,0.0
1161,0.0
1163,200.0
1166,0.0
1168,0.0
2,4, 2,18, 0, 6, 0.00,60.00,Thursday
7,4.4
545,21.20345119121415
546,4.26347222320769
547,18.431326051785046
548,51.214827100715965
720,57.15225925318009
721,57.15225925318009
784,0.0
785,0.0
848,0.0
849,0.0
1121,1570.8681559309607
1135,490.51025209600857
1161,33.33245648621762
1163,140.5450778382552
1166,0.0
1168,0.0
2,4, 2,18, 0, 7, 0.00,60.00,Thursday
7,6.1
545,20.11481441189622
546,2.441324556151168
547,18.379740795127383
548,0.0
720,-187.39018065342498
721,-187.39018065342498
784,0.0
785,0.0
848,0.0
849,0.0
1121,0.0
1135,0.0
1161,0.0
1163,200.0
1166,0.0
1168,0.0
2,4, 2,18, 0, 8, 0.00,60.00,Thursday
7,7.2
545,20.50519356859675
546,4.532156941841966
547,18.285626288249354
548,0.0
720,-392.590723072145
721,-392.590723072145
784,0.0
785,0.0
848,0.0
849,0.0
1121,0.0
1135,0.0
1161,0.0
1163,200.0
1166,0.0
1168,0.0
2,4, 2,18, 0, 9, 0.00,60.00,Thursday
7,10.6
545,21.58342636233286
546,10.879771464292249
547,18.212071886122708
548,0.0
720,-1266.070954229659
721,-1266.070954229659
784,0.0
785,0.0
848,0.0
849,0.0
1121,0.0
1135,0.0
1161,0.0
1163,0.0
1166,0.0
1168,0.0
2,4, 2,18, 0,10, 0.00,60.00,Thursday
7,12.8
545,22.617127012025158
546,18.65871903967886
547,18.162941238809555
548,0.0
720,-2315.5539970701284
721,-2315.5539970701284
784,0.0
785,0.0
848,0.0
849,0.0
1121,0.0
1135,0.0
1161,0.0
1163,0.0
1166,0.0
1168,0.0
2,4, 2,18, 0,11, 0.00,60.00,Thursday
7,15.0
545,23.69084072008778
546,26.6734577828353
547,18.148662212342842
548,0.0
720,-3286.74028186901
721,-3286.74028186901
784,0.0
785,0.0
848,0.0
849,0.0
1121,0.0
1135,0.0
1161,0.0
1163,0.0
1166,0.0
1168,0.0
2,4, 2,18, 0,12, 0.00,60.00,Thursday
7,17.2
545,24.690436019130967
546,32.6427414076316
547,18.16931597718556
548,0.0
720,-4034.191571413905
721,-4034.191571413905
784,0.0
785,0.0
848,0.0
849,0.0
1121,0.0
1135,0.0
1161,0.0
1163,0.0
1166,0.0
1168,0.0
2,4, 2,18, 0,13, 0.00,60.00,Thursday
7,18.3
545,25.73086351056147
546,33.784973263714406
547,18.216119212712126
548,0.0
720,-4701.669550487175
721,-4701.669550487175
784,0.0
785,0.0
848,0.0
849,0.0
1121,0.0
1135,0.0
1161,0.0
1163,0.0
1166,0.0
1168,0.0
2,4, 2,18, 0,14, 0.00,60.00,Thursday
7,19.4
545,26.97916678163832
546,31.692212288431968
547,18.299698719086287
548,0.0
720,-5486.060294306873
721,-5486.060294306873
784,0.0
785,0.0
848,0.0
849,0.0
1121,0.0
1135,0.0
1161,0.0
1163,0.0
1166,0.0
1168,0.0
2,4, 2,18, 0,15, 0.00,60.00,Thursday
7,18.9
545,28.226132151435568
546,32.24865765176006
547,18.41734587498468
548,0.0
720,-6328.500444690182
721,-6328.500444690182
784,0.0
785,0.0
848,0.0
849,0.0
1121,0.0
1135,0.0
1161,0.0
1163,0.0
1166,0.0
1168,0.0
2,4, 2,18, 0,16, 0.00,60.00,Thursday
7,18.3
545,29.304543276949403
546,30.804611731041973
547,18.56457065005981
548,0.0
720,-6963.797057087344
721,-6963.797057087344
784,0.0
785,0.0
848,0.0
849,0.0
1121,0.0
1135,0.0
1161,0.0
1163,0.0
1166,0.0
1168,0.0
2,4, 2,18, 0,17, 0.00,60.00,Thursday
7,15.6
545,29.44183146311546
546,24.493991119708035
547,18.727400909394788
548,0.0
720,-6845.411071367669
721,-6845.411071367669
784,0.0
785,0.0
848,0.0
849,0.0
1121,0.0
1135,0.0
1161,0.0
1163,0.0
1166,0.0
1168,0.0
2,4, 2,18, 0,18, 0.00,60.00,Thursday
7,12.8
545,29.518956383899088
546,20.444417625333866
547,18.879080575973628
548,0.0
720,-7722.680236965862
721,-7722.680236965862
784,0.0
785,0.0
848,0.0
849,0.0
1121,0.0
1135,0.0
1161,0.0
1163,0.0
1166,0.0
1168,0.0
2,4, 2,18, 0,19, 0.00,60.00,Thursday
7,11.7
545,29.31062865025186
546,17.984409532759145
547,19.00991464323305
548,0.0
720,-7141.723780633447
721,-7141.723780633447
784,0.0
785,0.0
848,0.0
849,0.0
1121,0.0
1135,0.0
1161,0.0
1163,0.0
1166,0.0
1168,0.0
2,4, 2,18, 0,20, 0.00,60.00,Thursday
7,11.1
545,29.123922637902382
546,15.20297072910099
547,19.094766438209714
548,0.0
720,-6918.910354337586
721,-6918.910354337586
784,0.0
785,0.0
848,0.0
849,0.0
1121,0.0
1135,0.0
1161,0.0
1163,0.0
1166,0.0
1168,0.0
2,4, 2,18, 0,21, 0.00,60.00,Thursday
7,10.6
545,28.833667955149277
546,12.49383615027309
547,19.13559288560197
548,0.0
720,-6593.884656439697
721,-6593.884656439697
784,0.0
785,0.0
848,0.0
849,0.0
1121,0.0
1135,0.0
1161,0.0
1163,0.0
1166,0.0
1168,0.0
2,4, 2,18, 0,22, 0.00,60.00,Thursday
7,11.0
545,28.467620867573782
546,11.82423655649228
547,19.141737630419463
548,0.0
720,-6276.276932304674
721,-6276.276932304674
784,0.0
785,0.0
848,0.0
849,0.0
1121,0.0
1135,0.0
1161,0.0
1163,0.0
1166,0.0
1168,0.0
2,4, 2,18, 0,23, 0.00,60.00,Thursday
7,11.1
545,27.770617152690434
546,11.687781031964594
547,19.122300203097556
548,0.0
720,-6329.42915062302
721,-6329.42915062302
784,0.0
785,0.0
848,0.0
849,0.0
1121,0.0
1135,0.0
1161,0.0
1163,0.0
1166,0.0
1168,0.0
2,4, 2,18, 0,24, 0.00,60.00,Thursday
7,10.6
545,26.851329861517055
546,11.525268352495653
547,19.084160792230403
548,0.0
720,-5788.186216187014
721,-5788.186216187014
784,0.0
785,0.0
848,0.0
849,0.0
1121,0.0
1135,0.0
1161,0.0
1163,0.0
1166,0.0
1168,0.0
2,5, 2,19, 0, 1, 0.00,60.00,Friday
7,11.1
545,26.161953319866445
546,11.275235032914871
547,19.034275324295866
548,0.0
720,-5452.422452180839
721,-5452.422452180839
784,0.0
785,0.0
848,0.0
849,0.0
1121,0.0
1135,0.0
1161,0.0
1163,0.0
1166,0.0
1168,0.0
2,5, 2,19, 0, 2, 0.00,60.00,Friday
7,11.1
545,25.454495880474955
546,10.96848575691533
547,18.973273914156035
548,0.0
720,-4629.849710866181
721,-4629.849710866181
784,0.0
785,0.0
848,0.0
849,0.0
1121,0.0
1135,0.0
1161,0.0
1163,0.0
1166,0.0
1168,0.0
2,5, 2,19, 0, 3, 0.00,60.00,Friday
7,11.1
545,24.802364429896514
546,10.720592968997591
547,18.903693556349378
548,0.0
720,-4056.080055737755
721,-4056.080055737755
784,0.0
785,0.0
848,0.0
849,0.0
1121,0.0
1135,0.0
1161,0.0
1163,0.0
1166,0.0
1168,0.0
2,5, 2,19, 0, 4, 0.00,60.00,Friday
7,11.0
545,24.17930230342502
546,10.504228273103426
547,18.82931732346003
548,0.0
720,-3480.3212015816916
721,-3480.3212015816916
784,0.0
785,0.0
848,0.0
849,0.0
1121,0.0
1135,0.0
1161,0.0
1163,0.0
1166,0.0
1168,0.0
2,5, 2,19, 0, 5, 0.00,60.00,Friday
7,11.0
545,23.725217155840134
546,10.302084640111675
547,18.75162975600535
548,0.0
720,-3049.646439977336
721,-3049.646439977336
784,0.0
785,0.0
848,0.0
849,0.0
1121,0.0
1135,0.0
1161,0.0
1163,0.0
1166,0.0
1168,0.0
2,5, 2,19, 0, 6, 0.00,60.00,Friday
7,9.0
545,23.18460606417519
546,9.50127645507097
547,18.671155154839944
548,0.0
720,-1867.351355014057
721,-1867.351355014057
784,0.0
785,0.0
848,0.0
849,0.0
1121,0.0
1135,0.0
1161,0.0
1163,200.0
1166,0.0
1168,0.0
2,5, 2,19, 0, 7, 0.00,60.00,Friday
7,9.0
545,22.86558933403854
546,8.663632403752375
547,18.58436938476504
548,0.0
720,-1859.9990220217614
721,-1859.9990220217614
784,0.0
785,0.0
848,0.0
849,0.0
1121,0.0
1135,0.0
1161,0.0
1163,200.0
1166,0.0
1168,0.0
2,5, 2,19, 0, 8, 0.00,60.00,Friday
7,10.0
545,22.791253776798527
546,8.59517361378245
547,18.520172588151702
548,0.0
720,-1654.5672406652784
721,-1654.5672406652784
784,0.0
785,0.0
848,0.0
849,0.0
1121,0.0
1135,0.0
1161,0.0
1163,0.0
1166,0.0
1168,0.0
2,5, 2,19, 0, 9, 0.00,60.00,Friday
7,11.0
545,23.141986760252397
546,13.131116138724504
547,18.46154858721158
548,0.0
720,-1819.7177147851726
721,-1819.7177147851726
784,0.0
785,0.0
848,0.0
849,0.0
1121,0.0
1135,0.0
1161,0.0
1163,0.0
1166,0.0
1168,0.0