Program Version,EnergyPlus, Version 22.2.0-c249759bad, YMD=2023.09.01 20:30
1,5,Environment Title[],Latitude[deg],Longitude[deg],Time Zone[],Elevation[m]
2,8,Day of Simulation[],Month[],Day of Month[],DST Indicator[1=yes 0=no],Hour[],StartMinute[],EndMinute[],DayType
3,5,Cumulative Day of Simulation[],Month[],Day of Month[],DST Indicator[1=yes 0=no],DayType  ! When Daily Report Variables Requested
4,2,Cumulative Days of Simulation[],Month[]  ! When Monthly Report Variables Requested
5,1,Cumulative Days of Simulation[] ! When Run Period Report Variables Requested
6,1,Calendar Year of Simulation[] ! When Annual Report Variables Requested
581,11,LIVING,AFN Zone Infiltration Air Change Rate [ach] !RunPeriod [Value,Min,Month,Day,Hour,Minute,Max,Month,Day,Hour,Minute]
582,11,ATTIC,AFN Zone Infiltration Air Change Rate [ach] !RunPeriod [Value,Min,Month,Day,Hour,Minute,Max,Month,Day,Hour,Minute]
583,11,CRAWLSPACE,AFN Zone Infiltration Air Change Rate [ach] !RunPeriod [Value,Min,Month,Day,Hour,Minute,Max,Month,Day,Hour,Minute]
1038,11,Facility,Facility Heating Setpoint Not Met Time [hr] !RunPeriod [Value,Min,Month,Day,Hour,Minute,Max,Month,Day,Hour,Minute]
1039,11,Facility,Facility Cooling Setpoint Not Met Time [hr] !RunPeriod [Value,Min,Month,Day,Hour,Minute,Max,Month,Day,Hour,Minute]
1115,11,DX_HEATING_COIL,Heating Coil Heating Energy [J] !RunPeriod [Value,Min,Month,Day,Hour,Minute,Max,Month,Day,Hour,Minute]
1128,11,DX_HEATING_COIL,Heating Coil Electricity Energy [J] !RunPeriod [Value,Min,Month,Day,Hour,Minute,Max,Month,Day,Hour,Minute]
1153,11,DX_HEATING_COIL,Heating Coil Defrost Electricity Energy [J] !RunPeriod [Value,Min,Month,Day,Hour,Minute,Max,Month,Day,Hour,Minute]
1154,11,DX_HEATING_COIL,Heating Coil Crankcase Heater Electricity Energy [J] !RunPeriod [Value,Min,Month,Day,Hour,Minute,Max,Month,Day,Hour,Minute]
1155,11,HEATING_RESISTANCE_BACKUP,Heating Coil Heating Energy [J] !RunPeriod [Value,Min,Month,Day,Hour,Minute,Max,Month,Day,Hour,Minute]
1156,11,HEATING_RESISTANCE_BACKUP,Heating Coil Electricity Energy [J] !RunPeriod [Value,Min,Month,Day,Hour,Minute,Max,Month,Day,Hour,Minute]
1292,11,WATER HEATER,Water Heater Heat Loss Energy [J] !RunPeriod [Value,Min,Month,Day,Hour,Minute,Max,Month,Day,Hour,Minute]
1306,11,WATER HEATER,Water Heater Heating Energy [J] !RunPeriod [Value,Min,Month,Day,Hour,Minute,Max,Month,Day,Hour,Minute]
1307,11,WATER HEATER,Water Heater Unmet Demand Heat Transfer Energy [J] !RunPeriod [Value,Min,Month,Day,Hour,Minute,Max,Month,Day,Hour,Minute]
1308,11,WATER HEATER,Water Heater Electricity Energy [J] !RunPeriod [Value,Min,Month,Day,Hour,Minute,Max,Month,Day,Hour,Minute]
13,11,Electricity:Facility [J] !RunPeriod [Value,Min,Month,Day,Hour,Minute,Max,Month,Day,Hour,Minute]
1134,11,Heating:Electricity [J] !RunPeriod [Value,Min,Month,Day,Hour,Minute,Max,Month,Day,Hour,Minute]
1096,11,Cooling:Electricity [J] !RunPeriod [Value,Min,Month,Day,Hour,Minute,Max,Month,Day,Hour,Minute]
562,11,Fans:Electricity [J] !RunPeriod [Value,Min,Month,Day,Hour,Minute,Max,Month,Day,Hour,Minute]
1379,11,Pumps:Electricity [J] !RunPeriod [Value,Min,Month,Day,Hour,Minute,Max,Month,Day,Hour,Minute]
1326,11,WaterSystems:Electricity [J] !RunPeriod [Value,Min,Month,Day,Hour,Minute,Max,Month,Day,Hour,Minute]
61,11,InteriorLights:Electricity [J] !RunPeriod [Value,Min,Month,Day,Hour,Minute,Max,Month,Day,Hour,Minute]
1046,11,ExteriorLights:Electricity [J] !RunPeriod [Value,Min,Month,Day,Hour,Minute,Max,Month,Day,Hour,Minute]
134,11,InteriorEquipment:Electricity [J] !RunPeriod [Value,Min,Month,Day,Hour,Minute,Max,Month,Day,Hour,Minute]
170,11,gas_dryer:InteriorEquipment:Electricity [J] !RunPeriod [Value,Min,Month,Day,Hour,Minute,Max,Month,Day,Hour,Minute]
207,11,clotheswasher:InteriorEquipment:Electricity [J] !RunPeriod [Value,Min,Month,Day,Hour,Minute,Max,Month,Day,Hour,Minute]
244,11,dishwasher:InteriorEquipment:Electricity [J] !RunPeriod [Value,Min,Month,Day,Hour,Minute,Max,Month,Day,Hour,Minute]
281,11,refrigerator:InteriorEquipment:Electricity [J] !RunPeriod [Value,Min,Month,Day,Hour,Minute,Max,Month,Day,Hour,Minute]
318,11,electric_mels:InteriorEquipment:Electricity [J] !RunPeriod [Value,Min,Month,Day,Hour,Minute,Max,Month,Day,Hour,Minute]
355,11,NaturalGas:Facility [J] !RunPeriod [Value,Min,Month,Day,Hour,Minute,Max,Month,Day,Hour,Minute]
403,11,InteriorEquipment:NaturalGas [J] !RunPeriod [Value,Min,Month,Day,Hour,Minute,Max,Month,Day,Hour,Minute]
476,11,gas_dryer:InteriorEquipment:NaturalGas [J] !RunPeriod [Value,Min,Month,Day,Hour,Minute,Max,Month,Day,Hour,Minute]
513,11,gas_mels:InteriorEquipment:NaturalGas [J] !RunPeriod [Value,Min,Month,Day,Hour,Minute,Max,Month,Day,Hour,Minute]
End of Data Dictionary
1,EXTREME_WINTER,  32.90, -97.03,  -6.00, 170.70
5,7
1038,0.25,0.0,12,22, 1,15,0.25,12,25, 6,15
1039,0.0,0.0,12,22, 1,15,0.0,12,22, 1,15
581,0.3451438454834192,0.12991987673860278,12,28,24,15,0.7505903591019106,12,25,10,15
582,5.0292501688753415,0.0,12,26,20, 5,11.685685224511268,12,25,10,60
583,0.02202011205650757,0.00023480762247619037,12,28,23,60,0.09692794197915199,12,25, 6,10
1115,810937652.1975799,0.0,12,22, 1,15,4813484.646247102,12,26, 6,60
1128,244416443.9031535,0.0,12,22, 1,15,1559819.459110858,12,26, 6,45
1153,8032282.877296994,0.0,12,22, 1,15,73617.48131971464,12,27, 6,60
1154,76312188.51654188,0.0,12,22, 1,50,180000.0,12,22, 1,15
1155,2190255.7846140414,0.0,12,22, 1,15,1051784.0539396517,12,26, 6, 5
1156,2190255.7846140414,0.0,12,22, 1,15,1051784.0539396517,12,26, 6, 5
1292,-25071587.72302904,-39736.71400743109,12,25, 2,45,-5531.961374583268,12,26,18,15
1306,160231759.97136995,0.0,12,22, 1,15,4050000.0,12,22, 8,45
1307,25846304.19001944,0.0,12,22, 1,15,7454972.813008721,12,25,10,30
1308,160231759.97136995,0.0,12,22, 1,15,4050000.0,12,22, 8,45
13,887839072.6542734,158004.1357532369,12,22, 2,15,6308249.607982781,12,26, 8,30
61,301924526.02383536,88139.10953165221,12,22, 1,15,1282023.4113694867,12,22,20,15
134,70666020.44019976,63564.01800854099,12,22, 4,15,156554.22484006523,12,27,20,15
170,5241013.419656067,348.4159749238097,12,22, 4,15,17476.39704006126,12,27,12,15
207,6509451.13922267,815.2532113832032,12,22, 3,15,22990.642799023623,12,27,10,15
244,12749673.399825225,1521.856143006317,12,22, 4,15,53038.631142310165,12,27,20,15
281,46165882.481495745,59938.60262432081,12,22, 5,15,81951.81706819107,12,22,19,15
318,0.0,0.0,12,22, 1,15,0.0,12,22, 1,15
355,197687796.27748066,18561.32405820678,12,22, 4,15,724774.895203776,12,27,18,15
403,197687796.27748066,18561.32405820678,12,22, 4,15,724774.895203776,12,27,18,15
476,106772067.24485716,7098.072629279515,12,22, 4,15,356036.3026282215,12,27,12,15
513,0.0,0.0,12,22, 1,15,0.0,12,22, 1,15
562,23890003.41717718,0.0,12,22, 1,15,164567.8583908514,12,26, 6,45
1046,0.0,0.0,12,22, 1,15,0.0,12,22, 1,15
1096,175591.72008517283,0.0,12,22, 1,15,57927.09981787633,12,26,17,30
1134,330951171.08160615,0.0,12,22, 1,60,2589761.7555871364,12,26, 6,15
1326,160231759.97136998,0.0,12,22, 1,15,4050000.0,12,22, 8,45
1379,0.0,0.0,12,22, 1,15,0.0,12,22, 1,15
1,EXTREME_SUMMER,  32.90, -97.03,  -6.00, 170.70
5,7
1038,0.0,0.0, 8, 3, 1,15,0.0, 8, 3, 1,15
1039,42.75,0.0, 8, 3, 1,15,0.25, 8, 3,14,60
581,0.20480286986032942,0.0, 8, 8,21,48,0.6759141577940678, 8, 4,18,52
582,4.456574646903378,0.21766574407566303, 8, 9, 9,47,11.51786564104711, 8, 4,18,48
583,0.06004700524540106,0.0, 8, 8,23, 3,0.09570248192473413, 8, 4,19,20
1115,0.0,0.0, 8, 3, 1,15,0.0, 8, 3, 1,15
1128,0.0,0.0, 8, 3, 1,15,0.0, 8, 3, 1,15
1153,0.0,0.0, 8, 3, 1,15,0.0, 8, 3, 1,15
1154,0.0,0.0, 8, 3, 1,15,0.0, 8, 3, 1,15
1155,0.0,0.0, 8, 3, 1,15,0.0, 8, 3, 1,15
1156,0.0,0.0, 8, 3, 1,15,0.0, 8, 3, 1,15
1292,-21879550.23484686,-34335.16893741321, 8, 6, 7,60,-2537.5914774117273, 8, 7,11,60
1306,109053653.38519996,0.0, 8, 3, 1,15,3179012.3313712277, 8, 4, 7,15
1307,7567038.042101494,0.0, 8, 3, 1,15,488501.52339986514, 8, 8,10,17
1308,109053653.38519996,0.0, 8, 3, 1,15,3179012.3313712277, 8, 4, 7,15
13,1387312320.8289285,601830.581026556, 8, 9, 4,60,6075971.010286328, 8, 6,19,30
61,301924526.02383536,88139.10953165221, 8, 3, 1,15,1282023.4113694867, 8, 3,20,15
134,70666020.44019976,63564.01800854099, 8, 3, 4,15,156554.22484006523, 8, 8,20,15
170,5241013.419656067,348.4159749238097, 8, 3, 4,15,17476.39704006126, 8, 8,12,15
207,6509451.13922267,815.2532113832032, 8, 3, 3,15,22990.642799023623, 8, 8,10,15
244,12749673.399825225,1521.856143006317, 8, 3, 4,15,53038.631142310165, 8, 8,20,15
281,46165882.481495745,59938.60262432081, 8, 3, 5,15,81951.81706819107, 8, 3,19,15
318,0.0,0.0, 8, 3, 1,15,0.0, 8, 3, 1,15
355,197687796.27748066,18561.32405820678, 8, 3, 4,15,724774.895203776, 8, 8,18,15
403,197687796.27748066,18561.32405820678, 8, 3, 4,15,724774.895203776, 8, 8,18,15
476,106772067.24485716,7098.072629279515, 8, 3, 4,15,356036.3026282215, 8, 8,12,15
513,0.0,0.0, 8, 3, 1,15,0.0, 8, 3, 1,15
562,74957148.96791004,36671.724429352165, 8, 9, 5,60,164567.85839085144, 8, 6,19,15
1046,0.0,0.0, 8, 3, 1,15,0.0, 8, 3, 1,15
1096,830710972.011785,352946.1332617651, 8, 9, 5,60,2094797.0361327524, 8, 3,15,60
1134,0.0,0.0, 8, 3, 1,15,0.0, 8, 3, 1,15
1326,109053653.38519998,0.0, 8, 3, 1,15,4050000.0, 8, 7, 8,30
1379,0.0,0.0, 8, 3, 1,15,0.0, 8, 3, 1,15
1,ANNUAL,  32.90, -97.03,  -6.00, 170.70
5,365
1038,0.75,0.0, 1, 1, 1,15,0.25, 1,22, 6,15
1039,532.25,0.0, 1, 1, 1,15,0.25, 1,19,18,15
581,0.29362869014386833,0.0, 5,12,23, 3,1.1589054697304821, 3, 4, 2,48
582,5.258242448837004,0.0, 1, 3, 9,52,31.405260326093362, 3, 4, 2,33
583,0.03248402972153161,0.0, 7,31, 6, 7,0.10680184343393534, 5,28,12, 7
1115,5432025991.580595,0.0, 1, 1, 1,15,5135204.788977731, 1,10, 6,60
1128,1643856570.015483,0.0, 1, 1, 1,15,1602572.1507283929, 1,10, 6,60
1153,53126528.690260015,0.0, 1, 1, 1,15,89287.11235677992, 1,17, 6,45
1154,1000528679.3568217,0.0, 1, 1, 6, 5,180000.0, 1, 1, 1,15
1155,18174242.504161075,0.0, 1, 1, 1,15,1051784.0539396517, 1,10, 6, 5
1156,18174242.504161075,0.0, 1, 1, 1,15,1051784.0539396517, 1,10, 6, 5
1292,-1185348374.8934438,-39783.70352586227, 3, 9, 3,15,-2332.1972103359676, 6,14,14,44
1306,7109491336.180709,0.0, 1, 1, 1,15,4050000.0, 1, 1, 9,45
1307,895289547.1555126,0.0, 1, 1, 1,15,7794694.55757659, 1,26,10,30
1308,7109491336.180709,0.0, 1, 1, 1,15,4050000.0, 1, 1, 9,45
13,48432996512.70355,151703.1275401932, 1,25, 4,15,6677191.835471093, 5,28,20,60
61,15743207428.383959,88139.10953165221, 1, 1, 1,15,1282023.4113694867, 1, 1,20,15
134,3685071073.4325233,63564.01800854099, 1, 2, 4,15,156554.22484006523, 1, 1,20,15
170,273393721.45532674,348.4159749238097, 1, 2, 4,15,17476.39704006126, 1, 1,12,15
207,339560869.0695816,815.2532113832032, 1, 2, 3,15,22990.642799023623, 1, 1,10,15
244,664895467.8009144,1521.856143006317, 1, 2, 4,15,53038.631142310165, 1, 1,20,15
281,2407221015.106824,59938.60262432081, 1, 1, 5,15,81951.81706819107, 1, 1,19,15
318,0.0,0.0, 1, 1, 1,15,0.0, 1, 1, 1,15
355,10310294493.051695,18561.32405820678, 1, 2, 4,15,724774.895203776, 1, 1,18,15
403,10310294493.051695,18561.32405820678, 1, 2, 4,15,724774.895203776, 1, 1,18,15
476,5569688622.066177,7098.072629279515, 1, 2, 4,15,356036.3026282215, 1, 1,12,15
513,0.0,0.0, 1, 1, 1,15,0.0, 1, 1, 1,15
562,1928936630.1859136,0.0, 1, 1, 1,15,164567.85839085144, 6, 8,18,15
1046,0.0,0.0, 1, 1, 1,15,0.0, 1, 1, 1,15
1096,17250604023.951614,0.0, 1, 1, 1,15,2096919.5641676164, 8,10,17,60
1134,2715686020.5667286,0.0, 1, 2,14,45,2541266.1872638995,12,26, 6,15
1326,7109491336.180707,0.0, 1, 1, 1,15,4050000.0000000014,11, 4,10,30
1379,0.0,0.0, 1, 1, 1,15,0.0, 1, 1, 1,15
End of Data
 Number of Records Written=          99
