Program Version,EnergyPlus, Version 22.2.0-c249759bad, YMD=2023.09.01 14:30
1,5,Environment Title[],Latitude[deg],Longitude[deg],Time Zone[],Elevation[m]
2,8,Day of Simulation[],Month[],Day of Month[],DST Indicator[1=yes 0=no],Hour[],StartMinute[],EndMinute[],DayType
3,5,Cumulative Day of Simulation[],Month[],Day of Month[],DST Indicator[1=yes 0=no],DayType  ! When Daily Report Variables Requested
4,2,Cumulative Days of Simulation[],Month[]  ! When Monthly Report Variables Requested
5,1,Cumulative Days of Simulation[] ! When Run Period Report Variables Requested
6,1,Calendar Year of Simulation[] ! When Annual Report Variables Requested
7,1,Environment,Site Outdoor Air Drybulb Temperature [C] !Hourly
619,1,DX_HEATING_COIL,Heating Coil Heating Rate [W] !Hourly
633,1,DX_HEATING_COIL,Heating Coil Electricity Rate [W] !Hourly
659,1,DX_HEATING_COIL,Heating Coil Defrost Electricity Rate [W] !Hourly
661,1,DX_HEATING_COIL,Heating Coil Crankcase Heater Electricity Rate [W] !Hourly
690,1,FAN,Fan Electricity Rate [W] !Hourly
716,1,HEAT PUMP WATER HEATER FAN,Fan Electricity Rate [W] !Hourly
718,1,LIVING,Zone Mean Air Temperature [C] !Hourly
719,1,ATTIC,Zone Mean Air Temperature [C] !Hourly
720,1,CRAWLSPACE,Zone Mean Air Temperature [C] !Hourly
843,1,LIVING,Zone Predicted Sensible Load to Heating Setpoint Heat Transfer Rate [W] !Hourly
844,1,LIVING,Zone System Predicted Sensible Load to Heating Setpoint Heat Transfer Rate [W] !Hourly
907,1,ATTIC,Zone Predicted Sensible Load to Heating Setpoint Heat Transfer Rate [W] !Hourly
908,1,ATTIC,Zone System Predicted Sensible Load to Heating Setpoint Heat Transfer Rate [W] !Hourly
971,1,CRAWLSPACE,Zone Predicted Sensible Load to Heating Setpoint Heat Transfer Rate [W] !Hourly
972,1,CRAWLSPACE,Zone System Predicted Sensible Load to Heating Setpoint Heat Transfer Rate [W] !Hourly
1195,1,HEATING_RESISTANCE_BACKUP,Heating Coil Heating Rate [W] !Hourly
1197,1,HEATING_RESISTANCE_BACKUP,Heating Coil Electricity Rate [W] !Hourly
End of Data Dictionary
1,EXTREME_WINTER,  39.50,-119.77,  -8.00,1344.20
2,1,12,22, 0, 1, 0.00,60.00,Monday
7,3.3
718,18.687799685222526
719,3.2123602780186817
720,19.136509932262502
619,1151.6564630912417
633,356.2878436881552
659,32.69900252203571
661,158.49938819916136
690,39.785444532292885
716,0.0
843,877.9141479798327
844,877.9141479798327
907,0.0
908,0.0
971,0.0
972,0.0
1195,0.0
1197,0.0
2,1,12,22, 0, 2, 0.00,60.00,Monday
7,2.8
718,18.607104094508685
719,3.185776047452952
720,18.833729630720303
619,1365.9872242795323
633,427.1600119980727
659,48.36307413875919
661,148.85691360527673
690,48.8981282063945
716,0.0
843,1059.3908561812186
844,1059.3908561812186
907,0.0
908,0.0
971,0.0
972,0.0
1195,0.0
1197,0.0
2,1,12,22, 0, 3, 0.00,60.00,Monday
7,2.8
718,18.583016744483075
719,3.4645530190742737
720,18.66326155499191
619,1610.0986564926204
633,499.83906968318826
659,56.71349034187331
661,140.04204330199693
690,57.32613824549659
716,0.0
843,1233.928795184991
844,1233.928795184991
907,0.0
908,0.0
971,0.0
972,0.0
1195,0.0
1197,0.0
2,1,12,22, 0, 4, 0.00,60.00,Monday
7,2.0
718,18.589772738057565
719,3.4531301200891624
720,18.486148888935176
619,1824.0034803932556
633,572.0215225938833
659,74.12512652998305
661,129.53069850435267
690,67.14971788381096
716,0.0
843,1412.2966516106499
844,1412.2966516106499
907,0.0
908,0.0
971,0.0
972,0.0
1195,0.0
1197,0.0
2,1,12,22, 0, 5, 0.00,60.00,Monday
7,2.2
718,18.614714846918183
719,3.4939101680849727
720,18.340995704958484
619,1863.3292915941458
633,581.4639480399168
659,69.48685907341887
661,129.35284012746436
690,67.41736223942212
716,0.0
843,1430.5574274074697
844,1430.5574274074697
907,0.0
908,0.0
971,0.0
972,0.0
1195,0.0
1197,0.0
2,1,12,22, 0, 6, 0.00,60.00,Monday
7,2.2
718,19.443118270952844
719,3.9840732299997077
720,18.18056514761735
619,2913.3777974247078
633,889.7775289425006
659,97.36504372520166
661,93.24808039049014
690,101.96664478484932
716,0.0
843,2258.9006758626347
844,2258.9006758626347
907,0.0
908,0.0
971,0.0
972,0.0
1195,0.0
1197,0.0
2,1,12,22, 0, 7, 0.00,60.00,Monday
7,2.2
718,19.558067657101724
719,4.44439006480676
720,18.058769313688483
619,4188.088401859984
633,1271.6359665067478
659,136.9103500366182
661,49.85258109429345
690,143.41166633142527
716,85.44000000000004
843,2131.1118951826647
844,2131.1118951826647
907,0.0
908,0.0
971,0.0
972,0.0
1195,0.0
1197,0.0
2,1,12,22, 0, 8, 0.00,60.00,Monday
7,2.2
718,19.679931781835972
719,4.542835983691703
720,17.951491440060913
619,3564.4159408547316
633,1098.7407335468133
659,130.58833977799316
661,68.68901261650863
690,125.28337889120341
716,62.68728090588898
843,1917.4470023297981
844,1917.4470023297981
907,0.0
908,0.0
971,0.0
972,0.0
1195,0.0
1197,0.0
2,1,12,22, 0, 9, 0.00,60.00,Monday
7,2.2
718,19.75199831013926
719,4.329155824592217
720,17.85494545765708
619,2439.696186719264
633,771.9316130567425
659,91.51981136273135
661,107.97373781134223
690,87.80135355818594
716,0.0
843,1870.42176175241
844,1870.42176175241
907,0.0
908,0.0
971,0.0
972,0.0
1195,0.0
1197,0.0
2,1,12,22, 0,10, 0.00,60.00,Monday
7,3.3
718,19.761449873585967
719,5.015059098964777
720,17.75668380999961
619,2200.6813406710394
633,687.0488647038123
659,78.69270614578346
661,119.31014554348293
690,77.21068502699825
716,0.0
843,1688.6047489280681
844,1688.6047489280681
907,0.0
908,0.0
971,0.0
972,0.0
1195,0.0
1197,0.0
2,1,12,22, 0,11, 0.00,60.00,Monday
7,3.3
718,19.742586043258893
719,5.728840181599327
720,17.65828264079319
619,2016.2396375416972
633,631.9141280233254
659,72.36865650926183
661,125.79469372767397
690,71.00571831891745
716,0.0
843,1546.557624874551
844,1546.557624874551
907,0.0
908,0.0
971,0.0
972,0.0
1195,0.0
1197,0.0
2,1,12,22, 0,12, 0.00,60.00,Monday
7,4.4
718,19.75884655138518
719,6.674178589979039
720,17.57005861287674
619,1742.3976017240186
633,538.2469661255644
659,53.13317320399266
661,138.60735003724506
690,58.93929269213358
716,0.0
843,1361.3840200207615
844,1361.3840200207615
907,0.0
908,0.0
971,0.0
972,0.0
1195,0.0
1197,0.0
2,1,12,22, 0,13, 0.00,60.00,Monday
7,3.9
718,19.684572179463586
719,6.213311372262562
720,17.481614689693178
619,1711.8708629347482
633,533.7301924205402
659,44.693498501459345
661,140.06608104525705
690,57.53679269614028
716,0.0
843,1339.6712650923073
844,1339.6712650923073
907,0.0
908,0.0
971,0.0
972,0.0
1195,0.0
1197,0.0
2,1,12,22, 0,14, 0.00,60.00,Monday
7,3.9
718,19.58370079236487
719,6.226156524727113
720,17.397030682770946
619,3055.267441124787
633,926.7464803759098
659,70.20480702133706
661,96.87574528317926
690,99.0494855546344
716,72.62275590119808
843,1477.5950382536957
844,1477.5950382536957
907,0.0
908,0.0
971,0.0
972,0.0
1195,0.0
1197,0.0
2,1,12,22, 0,15, 0.00,60.00,Monday
7,3.3
718,19.824814590933315
719,5.707941594718236
720,17.32093525518911
619,2121.278248910875
633,660.0583704137479
659,58.70274146853864
661,124.75057465357462
690,72.14250373178069
716,0.0
843,1663.3947167415408
844,1663.3947167415408
907,0.0
908,0.0
971,0.0
972,0.0
1195,0.0
1197,0.0
2,1,12,22, 0,16, 0.00,60.00,Monday
7,2.8
718,19.713890587563547
719,5.073998898591222
720,17.24677373007932
619,1946.1747159581646
633,616.6387987770983
659,57.620532142830555
661,129.28468905613684
690,67.7067627977961
716,0.0
843,1511.6368417065078
844,1511.6368417065078
907,0.0
908,0.0
971,0.0
972,0.0
1195,0.0
1197,0.0
2,1,12,22, 0,17, 0.00,60.00,Monday
7,2.8
718,19.743289611588317
719,4.651267986381817
720,17.168431511322538
619,1734.2315273150957
633,550.3217804584422
659,51.53711152935954
661,136.75062115161882
690,60.558717915661155
716,0.0
843,1328.7609691568596
844,1328.7609691568596
907,0.0
908,0.0
971,0.0
972,0.0
1195,0.0
1197,0.0
2,1,12,22, 0,18, 0.00,60.00,Monday
7,2.8
718,19.759536893701963
719,4.240900166412621
720,17.09342233239107
619,1413.435041638408
633,451.60810037461727
659,39.2618177105232
661,148.5722813106086
690,49.26727232202343
716,0.0
843,1087.8750439995583
844,1087.8750439995583
907,0.0
908,0.0
971,0.0
972,0.0
1195,0.0
1197,0.0
2,1,12,22, 0,19, 0.00,60.00,Monday
7,2.2
718,19.675841215218004
719,4.469466128639672
720,17.016399136622915
619,2601.020619292521
633,820.2938764552513
659,65.91917835220003
661,106.93490202952529
690,89.11623118079589
716,85.44000000000004
843,851.058415805006
844,851.058415805006
907,0.0
908,0.0
971,0.0
972,0.0
1195,0.0
1197,0.0
2,1,12,22, 0,20, 0.00,60.00,Monday
7,2.8
718,19.728853507009998
719,4.470990655706866
720,16.94510796956126
619,2473.1457062695977
633,772.237323871613
659,66.52471958652227
661,112.02501118102015
690,84.28600395854465
716,85.44000000000004
843,788.0498695328424
844,788.0498695328424
907,0.0
908,0.0
971,0.0
972,0.0
1195,0.0
1197,0.0
2,1,12,22, 0,21, 0.00,60.00,Monday
7,2.8
718,19.80856339786805
719,3.8284767355064098
720,16.873086777801245
619,1077.7696193433123
633,346.5044637529236
659,30.13722183324459
661,160.52427888216505
690,37.817399160837354
716,11.647733950758612
843,672.5319619144175
844,672.5319619144175
907,0.0
908,0.0
971,0.0
972,0.0
1195,0.0
1197,0.0
2,1,12,22, 0,22, 0.00,60.00,Monday
7,2.8
718,19.737632262520762
719,3.384328139092827
720,16.801504713111697
619,943.8599147189925
633,304.96014267408367
659,28.543641765135078
661,165.00321564020695
690,33.50761279195507
716,0.0
843,718.625449684163
844,718.625449684163
907,0.0
908,0.0
971,0.0
972,0.0
1195,0.0
1197,0.0
2,1,12,22, 0,23, 0.00,60.00,Monday
7,2.8
718,18.69863380932291
719,2.6069264345733942
720,16.727473463680003
619,161.85587214439946
633,53.05537084129818
659,4.972464249117719
661,193.90336171904622
690,5.8372308312515475
716,0.0
843,102.95827323567391
844,102.95827323567391
907,0.0
908,0.0
971,0.0
972,0.0
1195,0.0
1197,0.0
2,1,12,22, 0,24, 0.00,60.00,Monday
7,2.0
718,18.47135077258709
719,2.651542729941713
720,16.648843937458192
619,668.0080382192126
633,213.87491378119583
659,13.250020835040878
661,175.8238132824128
690,23.188919450160693
716,0.0
843,513.7849905150679
844,513.7849905150679
907,0.0
908,0.0
971,0.0
972,0.0
1195,0.0
1197,0.0
2,2,12,23, 0, 1, 0.00,60.00,Tuesday
7,2.2
718,18.58076338431764
719,3.028734058377243
720,16.567901894967505
619,1412.4982046323262
633,441.4232393017863
659,25.36736616818629
661,150.26990264310442
690,47.732763581282185
716,0.0
843,1072.9755500449846
844,1072.9755500449846
907,0.0
908,0.0
971,0.0
972,0.0
1195,0.0
1197,0.0
2,2,12,23, 0, 2, 0.00,60.00,Tuesday
7,2.2
718,18.588462515066567
719,3.3016235138983476
720,16.490975413647487
619,1765.854231461677
633,549.6480868446115
659,35.66843508682947
661,137.58511923158383
690,59.865843708196856
716,0.0
843,1361.2991429576668
844,1361.2991429576668
907,0.0
908,0.0
971,0.0
972,0.0
1195,0.0
1197,0.0
2,2,12,23, 0, 3, 0.00,60.00,Tuesday
7,2.2
718,18.642579650347283
719,3.2734051043927557
720,16.413176278275152
619,1938.4287072147006
633,601.6330517054155
659,45.1054729483156
661,130.78346624611422
690,66.32741553454319
716,0.0
843,1482.3759864380336
844,1482.3759864380336
907,0.0
908,0.0
971,0.0
972,0.0
1195,0.0
1197,0.0
2,2,12,23, 0, 4, 0.00,60.00,Tuesday
7,2.2
718,18.61203252551905
719,3.0382372715664387
720,16.33770682406342
619,2005.1388751286293
633,622.2735243349305
659,46.63022253568239
661,128.47531262002917
690,68.5388792196008
716,0.0
843,1543.957248969653
844,1543.957248969653
907,0.0
908,0.0
971,0.0
972,0.0
1195,0.0
1197,0.0
2,2,12,23, 0, 5, 0.00,60.00,Tuesday
7,2.2
718,18.624295577246603
719,2.8836786291325427
720,16.263655146140877
619,1991.8498611712146
633,617.8077037573252
659,46.32613329562956
661,128.94174590401676
690,68.09199285313119
716,0.0
843,1517.7639213173843
844,1517.7639213173843
907,0.0
908,0.0
971,0.0
972,0.0
1195,0.0
1197,0.0
2,2,12,23, 0, 6, 0.00,60.00,Tuesday
7,1.7
718,19.3589061978291
719,3.5097059247824225
720,16.18689953012824
619,3218.552349902338
633,982.9780932286768
659,61.89762422106528
661,88.22458443190871
690,107.16081303412733
716,0.0
843,2469.459043040124
844,2469.459043040124
907,0.0
908,0.0
971,0.0
972,0.0
1195,0.0
1197,0.0
2,2,12,23, 0, 7, 0.00,60.00,Tuesday
7,1.0
718,19.520359054723315
719,4.0764574596206495
720,16.14138175588673
619,4648.142634268645
633,1422.2756808362642
659,101.47888671384946
661,37.64886132444847
690,155.32973418602418
716,85.44000000000004
843,2455.5286903047836
844,2455.5286903047836
907,0.0
908,0.0
971,0.0
972,0.0
1195,0.0
1197,0.0
2,2,12,23, 0, 8, 0.00,60.00,Tuesday
7,1.7
718,19.655191337789763
719,4.4773349009217815
720,16.082828732283428
619,4127.450929751775
633,1265.5817062787219
659,87.47050744696308
661,57.19806531880592
690,136.79830733717964
716,85.44000000000004
843,2025.1069528212793
844,2025.1069528212793
907,0.0
908,0.0
971,0.0
972,0.0
1195,0.0
1197,0.0
2,2,12,23, 0, 9, 0.00,60.00,Tuesday
7,1.7
718,19.756757987060006
719,6.203344303479784
720,16.02049110627495
619,2590.55888853951
633,821.1114251593684
659,56.597474406637936
661,107.60935531032001
690,88.5058757978522
716,63.90969550354523
843,1138.814000203527
844,1138.814000203527
907,0.0
908,0.0
971,0.0
972,0.0
1195,0.0
1197,0.0
2,2,12,23, 0,10, 0.00,60.00,Tuesday
7,2.8
718,19.81490205468294
719,7.45416682933231
720,15.970145500054665
619,1191.4493547876734
633,381.4813843532193
659,22.261700064638624
661,158.15171713001342
690,40.18631003285984
716,0.0
843,926.5781548259583
844,926.5781548259583
907,0.0
908,0.0
971,0.0
972,0.0
1195,0.0
1197,0.0
2,2,12,23, 0,11, 0.00,60.00,Tuesday
7,2.8
718,19.724108341889092
719,8.943326557037542
720,15.940711122979327
619,1168.4422915726477
633,374.78764439763194
659,21.84721185236039
661,158.9308858324634
690,39.43803448043122
716,0.0
843,921.8913391673523
844,921.8913391673523
907,0.0
908,0.0
971,0.0
972,0.0
1195,0.0
1197,0.0
2,2,12,23, 0,12, 0.00,60.00,Tuesday
7,3.3
718,19.811895131240792
719,12.878486244895686
720,15.909837948949399
619,660.6721357359972
633,211.64459203535225
659,11.647183592275018
661,176.97427452295256
690,22.129761596422394
716,0.0
843,520.4367858869064
844,520.4367858869064
907,0.0
908,0.0
971,0.0
972,0.0
1195,0.0
1197,0.0
2,2,12,23, 0,13, 0.00,60.00,Tuesday
7,3.3
718,19.68101974847505
719,13.162773080080282
720,15.888963187534515
619,219.67778013742384
633,71.12719305698904
659,3.912056615197188
661,192.2745630954565
690,7.424780975250556
716,0.0
843,181.57624853279594
844,181.57624853279594
907,0.0
908,0.0
971,0.0
972,0.0
1195,0.0
1197,0.0
2,2,12,23, 0,14, 0.00,60.00,Tuesday
7,3.9
718,20.009346038036867
719,14.509684775801402
720,15.884750828929544
619,0.0
633,0.0
659,0.0
661,200.0
690,0.0
716,0.0
843,-223.93685389922575
844,-223.93685389922575
907,0.0
908,0.0
971,0.0
972,0.0
1195,0.0
1197,0.0
2,2,12,23, 0,15, 0.00,60.00,Tuesday
7,5.0
718,20.87867575443665
719,14.779004403341746
720,15.900410826245079
619,0.0
633,0.0
659,0.0
661,200.0
690,0.0
716,0.0
843,-799.365653232966
844,-799.365653232966
907,0.0
908,0.0
971,0.0
972,0.0
1195,0.0
1197,0.0
2,2,12,23, 0,16, 0.00,60.00,Tuesday
7,5.0
718,21.70125125604107
719,14.224119351265339
720,15.933269673127459
619,0.0
633,0.0
659,0.0
661,200.0
690,0.0
716,0.0
843,-1365.5703667430735
844,-1365.5703667430735
907,0.0
908,0.0
971,0.0
972,0.0
1195,0.0
1197,0.0
2,2,12,23, 0,17, 0.00,60.00,Tuesday
7,5.0
718,21.69368664611157
719,11.48904488939652
720,15.978768449956718
619,0.0
633,0.0
659,0.0
661,200.0
690,0.0
716,0.0
843,-1337.0362007358108
844,-1337.0362007358108
907,0.0
908,0.0
971,0.0
972,0.0
1195,0.0
1197,0.0
2,2,12,23, 0,18, 0.00,60.00,Tuesday
7,1.7
718,20.10463779317979
719,7.923496437036782
720,16.021580188097218
619,0.0
633,0.0
659,0.0
661,200.0
690,0.0
716,63.99149149249664
843,-819.3722763986789
844,-819.3722763986789
907,0.0
908,0.0
971,0.0
972,0.0
1195,0.0
1197,0.0
2,2,12,23, 0,19, 0.00,60.00,Tuesday
7,1.7
718,20.675778840886633
719,4.997712749523138
720,16.043865093151815
619,0.0
633,0.0
659,0.0
661,200.0
690,0.0
716,0.0
843,-845.1791704163788
844,-845.1791704163788
907,0.0
908,0.0
971,0.0
972,0.0
1195,0.0
1197,0.0
2,2,12,23, 0,20, 0.00,60.00,Tuesday
7,1.1
718,19.18569346906701
719,3.2064431195120706
720,16.041036572148926
619,0.0
633,0.0
659,0.0
661,200.0
690,0.0
716,85.44000000000004
843,-528.3627392550115
844,-528.3627392550115
907,0.0
908,0.0
971,0.0
972,0.0
1195,0.0
1197,0.0
2,2,12,23, 0,21, 0.00,60.00,Tuesday
7,-0.6
718,18.64909815748488
719,1.4746502545232085
720,16.02059983752582
619,0.0
633,0.0
659,0.0
661,200.0
690,0.0
716,85.44000000000004
843,-26.3802781567083
844,-26.3802781567083
907,0.0
908,0.0
971,0.0
972,0.0
1195,0.0
1197,0.0
2,2,12,23, 0,22, 0.00,60.00,Tuesday
7,-0.6
718,19.497502374314188
719,0.6881472376485538
720,15.977817658497104
619,1215.3647571973631
633,403.5893056463885
659,29.25965944373569
661,152.68621496448608
690,45.15455767877842
716,24.352007668307486
843,603.3471461733243
844,603.3471461733243
907,0.0
908,0.0
971,0.0
972,0.0
1195,0.0
1197,0.0
2,2,12,23, 0,23, 0.00,60.00,Tuesday
7,-0.6
718,18.766652002640715
719,-0.861979539945678
720,15.934519478329722
619,305.70090668136834
633,105.74729147176599
659,7.538335650314997
661,187.81027533247948
690,11.632878717578581
716,0.0
843,219.25188361617256
844,219.25188361617256
907,0.0
908,0.0
971,0.0
972,0.0
1195,0.0
1197,0.0
2,2,12,23, 0,24, 0.00,60.00,Tuesday
7,-2.2
718,18.436522711167022
719,-1.272635366332165
720,15.861433205284426
619,865.0026359307835
633,299.9908473805583
659,23.29269465293201
661,164.23408243198287
690,34.00869912813602
716,0.0
843,627.3441953221027
844,627.3441953221027
907,0.0
908,0.0
971,0.0
972,0.0
1195,0.0
1197,0.0
2,3,12,24, 0, 1, 0.00,60.00,Wednesday
7,-2.2
718,18.51499980456076
719,-1.2979640789193252
720,15.782307966363817
619,1516.7862954913182
633,514.0126088760552
659,40.214551337665874
661,138.30036259257665
690,58.669003733550966
716,0.0
843,1098.4107460605974
844,1098.4107460605974
907,0.0
908,0.0
971,0.0
972,0.0
1195,0.0
1197,0.0
2,3,12,24, 0, 2, 0.00,60.00,Wednesday
7,-1.1
718,18.63948528470199
719,-1.4388415276305258
720,15.706907873152767
619,2137.6311901153995
633,700.4877633939085
659,54.55959203209451
661,116.76869983200233
690,79.30242935725586
716,0.0
843,1550.211145848305
844,1550.211145848305
907,0.0
908,0.0
971,0.0
972,0.0
1195,0.0
1197,0.0
2,3,12,24, 0, 3, 0.00,60.00,Wednesday
7,-2.2
718,18.504433428443026
719,-0.9717581796345467
720,15.617414871830563
619,2642.698384272549
633,877.5966599363294
659,68.52398719061772
661,95.0270033811747
690,99.81293279659042
716,0.0
843,1895.646651466208
844,1895.646651466208
907,0.0
908,0.0
971,0.0
972,0.0
1195,0.0
1197,0.0
2,3,12,24, 0, 4, 0.00,60.00,Wednesday
7,-2.2
718,18.581567742504244
719,-0.7385316040800987
720,15.528184243415893
619,3045.2634779206537
633,999.6602222476209
659,85.94087014787364
661,78.94880145639982
690,114.93711068609078
716,0.0
843,2195.235754882511
844,2195.235754882511
907,0.0
908,0.0
971,0.0
972,0.0
1195,0.0
1197,0.0
2,3,12,24, 0, 5, 0.00,60.00,Wednesday
7,-2.2
718,18.597683600845375
719,-0.648431033343169
720,15.444638302623636
619,3146.8013333872586
633,1032.536454175181
659,88.64085830026977
661,75.14575872086895
690,118.54736022475198
716,0.0
843,2268.506380349607
844,2268.506380349607
907,0.0
908,0.0
971,0.0
972,0.0
1195,0.0
1197,0.0
2,3,12,24, 0, 6, 0.00,60.00,Wednesday
7,-1.1
718,19.21638178415935
719,0.6349734268710353
720,15.367855867861822
619,5328.864343299897
633,1636.2195739663684
659,127.65343246737841
661,5.701376902953692
690,185.1205535630661
716,68.5837413958626
843,3079.2769381878734
844,3079.2769381878734
907,0.0
908,0.0
971,0.0
972,0.0
1195,0.0
1197,0.0
2,3,12,24, 0, 7, 0.00,60.00,Wednesday
7,1.1
718,19.52979503286419
719,1.5900302600510545
720,15.334555370624187
619,5315.2348689062255
633,1596.5916040347313
659,92.89731544047595
661,20.425857622317544
690,172.10575055249174
716,85.44000000000004
843,2835.839486641931
844,2835.839486641931
907,0.0
908,0.0
971,0.0
972,0.0
1195,0.0
1197,0.0
2,3,12,24, 0, 8, 0.00,60.00,Wednesday
7,2.8
718,19.688472476587293
719,3.0127641446303977
720,15.2617378873081
619,4228.257994775084
633,1270.498077788376
659,65.42330491614025
661,61.219288931076356
690,133.34951461858472
716,50.806578851204726
843,2508.547047044307
844,2508.547047044307
907,0.0
908,0.0
971,0.0
972,0.0
1195,0.0
1197,0.0
2,3,12,24, 0, 9, 0.00,60.00,Wednesday
7,4.4
718,19.439678503411585
719,5.718856433472224
720,15.198140264259992
619,4119.868666772323
633,1214.8323707063205
659,51.284916933117906
661,71.21174510616545
690,124.00727490999472
716,0.0
843,3098.949910349209
844,3098.949910349209
907,0.0
908,0.0
971,0.0
972,0.0
1195,0.0
1197,0.0
2,3,12,24, 0,10, 0.00,60.00,Wednesday
7,5.6
718,19.875044092359254
719,7.009666752291041
720,15.116009507188085
619,3383.96965509647
633,913.6864088982653
659,0.0
661,113.71546081977466
690,83.26396813180571
716,0.0
843,2667.420638821559
844,2667.420638821559
907,0.0
908,0.0
971,0.0
972,0.0
1195,0.0
1197,0.0
2,3,12,24, 0,11, 0.00,60.00,Wednesday
7,5.6
718,19.764333125539714
719,8.08075947265363
720,15.06251441938316
619,2173.3099874781374
633,603.0650191780761
659,0.0
661,143.52130746364037
690,54.50153758891779
716,0.0
843,1724.2547401540687
844,1724.2547401540687
907,0.0
908,0.0
971,0.0
972,0.0
1195,0.0
1197,0.0
2,3,12,24, 0,12, 0.00,60.00,Wednesday
7,7.8
718,19.65666732621049
719,9.635558151005883
720,15.037173814625739
619,2175.8002635248795
633,584.2799092567695
659,0.0
661,146.4358513630033
690,51.689023404326555
716,0.0
843,1741.1232935183762
844,1741.1232935183762
907,0.0
908,0.0
971,0.0
972,0.0
1195,0.0
1197,0.0
2,3,12,24, 0,13, 0.00,60.00,Wednesday
7,9.4
718,20.23066036072134
719,10.749737048795284
720,15.022341707274558
619,2071.635201068105
633,544.9511074894656
659,0.0
661,150.8652641672215
690,47.41467147433951
716,0.0
843,1679.9597322519894
844,1679.9597322519894
907,0.0
908,0.0
971,0.0
972,0.0
1195,0.0
1197,0.0
2,3,12,24, 0,14, 0.00,60.00,Wednesday
7,10.0
718,19.711435096405957
719,11.759324871144068
720,14.981266340600795
619,422.99719234254337
633,114.34843444128836
659,0.0
661,0.0
690,9.775029846045086
716,0.0
843,343.210930038329
844,343.210930038329
907,0.0
908,0.0
971,0.0
972,0.0
1195,0.0
1197,0.0
2,3,12,24, 0,15, 0.00,60.00,Wednesday
7,8.9
718,19.324234220521983
719,12.899534926464936
720,14.984723902080283
619,0.0
633,0.0
659,0.0
661,200.0
690,0.0
716,67.49250398405331
843,-70.31530983240009
844,-70.31530983240009
907,0.0
908,0.0
971,0.0
972,0.0
1195,0.0
1197,0.0
2,3,12,24, 0,16, 0.00,60.00,Wednesday
7,5.0
718,19.000781963313766
719,11.266732773396177
720,15.013257774004192
619,0.0
633,0.0
659,0.0
661,200.0
690,0.0
716,74.85413979821534
843,-229.83471879337594
844,-229.83471879337594
907,0.0
908,0.0
971,0.0
972,0.0
1195,0.0
1197,0.0
2,3,12,24, 0,17, 0.00,60.00,Wednesday
7,5.0
718,19.699290088426554
719,9.176192910336534
720,15.056279453552524
619,206.01063916662312
633,63.59289428808218
659,5.907431682219354
661,192.73578042432638
690,6.983993312168406
716,0.0
843,169.74243467455744
844,169.74243467455744
907,0.0
908,0.0
971,0.0
972,0.0
1195,0.0
1197,0.0
2,3,12,24, 0,18, 0.00,60.00,Wednesday
7,3.3
718,19.4310096512719
719,6.223972272847954
720,15.092159610611915
619,416.3049125679811
633,134.00640426625867
659,11.088205131403935
661,184.85119793562922
690,14.529877261740515
716,0.0
843,323.0105061350132
844,323.0105061350132
907,0.0
908,0.0
971,0.0
972,0.0
1195,0.0
1197,0.0
2,3,12,24, 0,19, 0.00,60.00,Wednesday
7,2.8
718,19.794884197769363
719,5.467706050050508
720,15.114020672452444
619,675.7889890967543
633,217.29155999018064
659,23.224658771249793
661,174.43726775673744
690,24.45028014487231
716,0.0
843,525.6171020339916
844,525.6171020339916
907,0.0
908,0.0
971,0.0
972,0.0
1195,0.0
1197,0.0
2,3,12,24, 0,20, 0.00,60.00,Wednesday
7,2.2
718,19.830149569518692
719,5.289258891255104
720,15.14734722334923
619,2068.222413408449
633,659.0389046634879
659,72.31512899667145
661,122.27994731982683
690,74.21465967810836
716,85.44000000000004
843,408.8947418582238
844,408.8947418582238
907,0.0
908,0.0
971,0.0
972,0.0
1195,0.0
1197,0.0
2,3,12,24, 0,21, 0.00,60.00,Wednesday
7,2.2
718,19.879976005495248
719,4.837666664985184
720,15.123456728054842
619,1812.7862615207548
633,581.0724108175746
659,59.370034720006146
661,132.17307338170323
690,64.81382157659834
716,81.87197263759768
843,312.94692881750416
844,312.94692881750416
907,0.0
908,0.0
971,0.0
972,0.0
1195,0.0
1197,0.0
2,3,12,24, 0,22, 0.00,60.00,Wednesday
7,2.2
718,19.783257060253778
719,3.7216153917158947
720,15.070810651037151
619,556.1544772717729
633,183.24860432181862
659,18.508480712247287
661,178.66315158013407
690,20.39099225652202
716,0.0
843,419.34924167784175
844,419.34924167784175
907,0.0
908,0.0
971,0.0
972,0.0
1195,0.0
1197,0.0
2,3,12,24, 0,23, 0.00,60.00,Wednesday
7,2.2
718,18.79458823305943
719,2.6638558288650067
720,15.02875752939701
619,0.0
633,0.0
659,0.0
661,200.0
690,0.0
716,0.0
843,-29.31801632477982
844,-29.31801632477982
907,0.0
908,0.0
971,0.0
972,0.0
1195,0.0
1197,0.0
2,3,12,24, 0,24, 0.00,60.00,Wednesday
7,1.1
718,18.616348475485445
719,2.1203727966146615
720,14.996174036775205
619,1104.3237585494464
633,355.69056305894395
659,13.41365073537615
661,160.7813022504808
690,37.67969992645222
716,0.0
843,823.4275463183521
844,823.4275463183521
907,0.0
908,0.0
971,0.0
972,0.0
1195,0.0
1197,0.0
2,4,12,25, 0, 1, 0.00,60.00,Thursday
7,0.6
718,18.704030895466072
719,1.7392234188359335
720,14.94713250463351
619,1623.6025269239215
633,519.5604636116296
659,14.23259555729352
661,143.06912565918762
690,54.74746117374108
716,0.0
843,1233.8127320514905
844,1233.8127320514905
907,0.0
908,0.0
971,0.0
972,0.0
1195,0.0
1197,0.0
2,4,12,25, 0, 2, 0.00,60.00,Thursday
7,0.6
718,18.223004691430873
719,1.850972693064704
720,14.891661668751508
619,2275.64337005187
633,719.73689140527
659,6.398012845874942
661,123.23488009478294
690,73.9941129965606
716,0.0
843,1706.229213818724
844,1706.229213818724
907,0.0
908,0.0
971,0.0
972,0.0
1195,0.0
1197,0.0
2,4,12,25, 0, 3, 0.00,60.00,Thursday
7,0.0
718,18.565155032346002
719,1.6946104104647133
720,14.819585212365231
619,3122.5048576905606
633,970.7404399040386
659,12.68223450662368
661,94.32194196041786
690,101.79426143339983
716,0.0
843,2375.06196016423
844,2375.06196016423
907,0.0
908,0.0
971,0.0
972,0.0
1195,0.0
1197,0.0
2,4,12,25, 0, 4, 0.00,60.00,Thursday
7,-0.6
718,18.497165149376144
719,1.3824751920042349
720,14.760038241774332
619,3626.480817939413
633,1137.4023624219385
659,13.377266232680087
661,76.55896789681276
690,118.90571599092615
716,0.0
843,2730.5803996161394
844,2730.5803996161394
907,0.0
908,0.0
971,0.0
972,0.0
1195,0.0
1197,0.0
2,4,12,25, 0, 5, 0.00,60.00,Thursday
7,-0.6
718,18.57745293599884
719,1.3305966641555962
720,14.683083170044814
619,3844.439337040224
633,1198.7565482100456
659,14.118928354011228
661,69.71515271540456
690,125.49816505307554
716,0.0
843,2886.2103864785913
844,2886.2103864785913
907,0.0
908,0.0
971,0.0
972,0.0
1195,0.0
1197,0.0
2,4,12,25, 0, 6, 0.00,60.00,Thursday
7,-0.6
718,19.51558746854459
719,2.369593712677915
720,14.624306067067565
619,4698.789697626098
633,1444.8896086338768
659,26.192405270738135
661,41.81739475911457
690,152.22283170341953
716,0.0
843,3510.3849571358205
844,3510.3849571358205
907,0.0
908,0.0
971,0.0
972,0.0
1195,0.0
1197,0.0
2,4,12,25, 0, 7, 0.00,60.00,Thursday
7,0.0
718,19.619362403451433
719,2.3825246258104085
720,14.605823518973562
619,5434.346851030451
633,1669.851545560447
659,32.142006564277736
661,21.06461562722066
690,172.1974879699332
716,85.44000000000004
843,3000.755974813028
844,3000.755974813028
907,0.0
908,0.0
971,0.0
972,0.0
1195,0.0
1197,0.0
2,4,12,25, 0, 8, 0.00,60.00,Thursday
7,-0.6
718,19.665640945165837
719,3.054773788258305
720,14.531859031410214
619,5354.1727291020425
633,1668.074606896598
659,71.26434743443222
661,14.867568342193739
690,177.46132888775637
716,85.44000000000004
843,2890.177768760612
844,2890.177768760612
907,0.0
908,0.0
971,0.0
972,0.0
1195,0.0
1197,0.0
2,4,12,25, 0, 9, 0.00,60.00,Thursday
7,0.0
718,19.72954570865997
719,3.004380809086386
720,14.461981714700785
619,4622.850958950103
633,1447.1679103930987
659,43.44888277682531
661,43.054781859093616
690,150.80128655069072
716,68.45567242128892
843,2686.7844627226787
844,2686.7844627226787
907,0.0
908,0.0
971,0.0
972,0.0
1195,0.0
1197,0.0
2,4,12,25, 0,10, 0.00,60.00,Thursday
7,-0.6
718,19.727143548498635
719,2.720132844264336
720,14.38300255272295
619,3730.1907177392036
633,1202.1875943481314
659,43.68126874620441
661,68.00170863316661
690,126.65294649557424
716,0.0
843,2773.189830476944
844,2773.189830476944
907,0.0
908,0.0
971,0.0
972,0.0
1195,0.0
1197,0.0
2,4,12,25, 0,11, 0.00,60.00,Thursday
7,-0.6
718,19.739457520336398
719,3.7059669771542127
720,14.318839239076922
619,3362.030053826155
633,1091.260460156035
659,39.653505013829964
661,80.17301102348291
690,114.97453951141006
716,0.0
843,2493.1401021404654
844,2493.1401021404654
907,0.0
908,0.0
971,0.0
972,0.0
1195,0.0
1197,0.0
2,4,12,25, 0,12, 0.00,60.00,Thursday
7,1.1
718,19.664715815236484
719,5.152195008603965
720,14.252251396380325
619,2777.6833781773853
633,884.4031534233516
659,7.936977159830894
661,107.88268507316268
690,88.79735307380804
716,0.0
843,2088.9504293993286
844,2088.9504293993286
907,0.0
908,0.0
971,0.0
972,0.0
1195,0.0
1197,0.0
2,4,12,25, 0,13, 0.00,60.00,Thursday
7,0.6
718,19.670085759203964
719,5.7441023159838895
720,14.19801550788982
619,2270.4460753890125
633,734.5498488271131
659,6.378444767326416
661,123.07407114367786
690,74.14917442871395
716,0.0
843,1737.0808930112853
844,1737.0808930112853
907,0.0
908,0.0
971,0.0
972,0.0
1195,0.0
1197,0.0
2,4,12,25, 0,14, 0.00,60.00,Thursday
7,0.6
718,19.745695312241498
719,6.5498996448616635
720,14.16470688278099
619,1747.138265442309
633,570.6003207464394
659,1.0956438350016713
661,140.8255894807523
690,57.088616822570884
716,0.0
843,1345.4125316187838
844,1345.4125316187838
907,0.0
908,0.0
971,0.0
972,0.0
1195,0.0
1197,0.0
2,4,12,25, 0,15, 0.00,60.00,Thursday
7,0.6
718,19.55240996318277
719,6.118838249853378
720,14.14987667091109
619,1216.7397351078337
633,402.0987386118571
659,0.7707724343299485
661,158.36317401294852
690,40.16919944298631
716,0.0
843,941.3937814544497
844,941.3937814544497
907,0.0
908,0.0
971,0.0
972,0.0
1195,0.0
1197,0.0
2,4,12,25, 0,16, 0.00,60.00,Thursday
7,-0.6
718,19.8564750166979
719,5.002570991810316
720,14.161008723559128
619,1205.0007300147004