Program Version,EnergyPlus, Version 22.2.0-c249759bad, YMD=2023.07.07 15:19
1,5,Environment Title[],Latitude[deg],Longitude[deg],Time Zone[],Elevation[m]
2,8,Day of Simulation[],Month[],Day of Month[],DST Indicator[1=yes 0=no],Hour[],StartMinute[],EndMinute[],DayType
3,5,Cumulative Day of Simulation[],Month[],Day of Month[],DST Indicator[1=yes 0=no],DayType  ! When Daily Report Variables Requested
4,2,Cumulative Days of Simulation[],Month[]  ! When Monthly Report Variables Requested
5,1,Cumulative Days of Simulation[] ! When Run Period Report Variables Requested
6,1,Calendar Year of Simulation[] ! When Annual Report Variables Requested
581,11,LIVING,AFN Zone Infiltration Air Change Rate [ach] !RunPeriod [Value,Min,Month,Day,Hour,Minute,Max,Month,Day,Hour,Minute]
582,11,ATTIC,AFN Zone Infiltration Air Change Rate [ach] !RunPeriod [Value,Min,Month,Day,Hour,Minute,Max,Month,Day,Hour,Minute]
583,11,CRAWLSPACE,AFN Zone Infiltration Air Change Rate [ach] !RunPeriod [Value,Min,Month,Day,Hour,Minute,Max,Month,Day,Hour,Minute]
1038,11,Facility,Facility Heating Setpoint Not Met Time [hr] !RunPeriod [Value,Min,Month,Day,Hour,Minute,Max,Month,Day,Hour,Minute]
1039,11,Facility,Facility Cooling Setpoint Not Met Time [hr] !RunPeriod [Value,Min,Month,Day,Hour,Minute,Max,Month,Day,Hour,Minute]
1115,11,DX_HEATING_COIL,Heating Coil Heating Energy [J] !RunPeriod [Value,Min,Month,Day,Hour,Minute,Max,Month,Day,Hour,Minute]
1128,11,DX_HEATING_COIL,Heating Coil Electricity Energy [J] !RunPeriod [Value,Min,Month,Day,Hour,Minute,Max,Month,Day,Hour,Minute]
1153,11,DX_HEATING_COIL,Heating Coil Defrost Electricity Energy [J] !RunPeriod [Value,Min,Month,Day,Hour,Minute,Max,Month,Day,Hour,Minute]
1154,11,DX_HEATING_COIL,Heating Coil Crankcase Heater Electricity Energy [J] !RunPeriod [Value,Min,Month,Day,Hour,Minute,Max,Month,Day,Hour,Minute]
1156,11,HEATING_RESISTANCE_BACKUP,Heating Coil Electricity Energy [J] !RunPeriod [Value,Min,Month,Day,Hour,Minute,Max,Month,Day,Hour,Minute]
13,11,Electricity:Facility [J] !RunPeriod [Value,Min,Month,Day,Hour,Minute,Max,Month,Day,Hour,Minute]
1134,11,Heating:Electricity [J] !RunPeriod [Value,Min,Month,Day,Hour,Minute,Max,Month,Day,Hour,Minute]
1096,11,Cooling:Electricity [J] !RunPeriod [Value,Min,Month,Day,Hour,Minute,Max,Month,Day,Hour,Minute]
562,11,Fans:Electricity [J] !RunPeriod [Value,Min,Month,Day,Hour,Minute,Max,Month,Day,Hour,Minute]
1388,11,Pumps:Electricity [J] !RunPeriod [Value,Min,Month,Day,Hour,Minute,Max,Month,Day,Hour,Minute]
1360,11,WaterSystems:Electricity [J] !RunPeriod [Value,Min,Month,Day,Hour,Minute,Max,Month,Day,Hour,Minute]
61,11,InteriorLights:Electricity [J] !RunPeriod [Value,Min,Month,Day,Hour,Minute,Max,Month,Day,Hour,Minute]
1046,11,ExteriorLights:Electricity [J] !RunPeriod [Value,Min,Month,Day,Hour,Minute,Max,Month,Day,Hour,Minute]
134,11,InteriorEquipment:Electricity [J] !RunPeriod [Value,Min,Month,Day,Hour,Minute,Max,Month,Day,Hour,Minute]
170,11,gas_dryer:InteriorEquipment:Electricity [J] !RunPeriod [Value,Min,Month,Day,Hour,Minute,Max,Month,Day,Hour,Minute]
207,11,clotheswasher:InteriorEquipment:Electricity [J] !RunPeriod [Value,Min,Month,Day,Hour,Minute,Max,Month,Day,Hour,Minute]
244,11,dishwasher:InteriorEquipment:Electricity [J] !RunPeriod [Value,Min,Month,Day,Hour,Minute,Max,Month,Day,Hour,Minute]
281,11,refrigerator:InteriorEquipment:Electricity [J] !RunPeriod [Value,Min,Month,Day,Hour,Minute,Max,Month,Day,Hour,Minute]
318,11,electric_mels:InteriorEquipment:Electricity [J] !RunPeriod [Value,Min,Month,Day,Hour,Minute,Max,Month,Day,Hour,Minute]
355,11,NaturalGas:Facility [J] !RunPeriod [Value,Min,Month,Day,Hour,Minute,Max,Month,Day,Hour,Minute]
1323,11,WaterSystems:NaturalGas [J] !RunPeriod [Value,Min,Month,Day,Hour,Minute,Max,Month,Day,Hour,Minute]
403,11,InteriorEquipment:NaturalGas [J] !RunPeriod [Value,Min,Month,Day,Hour,Minute,Max,Month,Day,Hour,Minute]
476,11,gas_dryer:InteriorEquipment:NaturalGas [J] !RunPeriod [Value,Min,Month,Day,Hour,Minute,Max,Month,Day,Hour,Minute]
513,11,gas_mels:InteriorEquipment:NaturalGas [J] !RunPeriod [Value,Min,Month,Day,Hour,Minute,Max,Month,Day,Hour,Minute]
End of Data Dictionary
1,EXTREME_WINTER,  39.50,-119.77,  -8.00,1344.20
5,15
1038,0.16666666666666666,0.0,12,22, 1,10,0.16666666666666666, 1, 4, 6,10
1039,0.0,0.0,12,22, 1,10,0.0,12,22, 1,10
581,0.27720535809305447,0.15430548464801133,12,23, 6, 2,1.403738022517436, 1, 1, 4,60
582,2.667657105821599,0.0,12,22,21,60,25.370442243846824, 1, 1, 4,60
583,3.2400923037416463,0.00013777169673454128,12,30,20,10,31.506004275411122, 1, 1, 4,60
1115,2313497551.4026504,0.0,12,22,23, 5,3572274.7597848717, 1, 1,12,10
1128,759942264.6591806,0.0,12,22,23, 5,1097891.2485661015,12,26, 6,30
1153,27808056.263234235,0.0,12,22,23, 5,106825.09873493544, 1, 1,11,60
1154,170988069.05210942,0.0,12,22, 6, 2,120000.0,12,23,13,60
1156,55859763.71408662,0.0,12,22, 1, 3,1026762.9378103067, 1, 4, 6,50
13,1912126913.6176648,213281.07240720757,12,24,14,60,3350310.002735397, 1, 4, 6,10
61,646981127.1939279,58759.40635443481,12,22, 1,10,854682.2742463244,12,22,20,10
134,151290040.75163832,42376.01200569399,12,22, 4,10,104369.48322671017,12,27,20,10
170,11185820.069951665,232.27731661587313,12,22, 4,10,11650.931360040839,12,27,12,10
207,13893028.574283868,543.5021409221355,12,22, 3,10,15327.095199349082,12,27,10,10
244,27284301.07562606,1014.5707620042115,12,22, 4,10,35359.08742820678,12,27,20,10
281,98926891.03177528,39959.06841621388,12,22, 5,10,54634.54471212738,12,22,19,10
318,0.0,0.0,12,22, 1,10,0.0,12,22, 1,10
355,1572776480.0027807,12374.216038804521,12,22, 4,10,3829218.154066982,12,23,18,60
403,422701517.161075,12374.216038804521,12,22, 4,10,483183.26346918393,12,27,18,10
476,227882097.80545104,4732.048419519677,12,22, 4,10,237357.535085481,12,27,12,10
513,0.0,0.0,12,22, 1,10,0.0,12,22, 1,10
562,84756769.14356849,0.0,12,22,23,10,121675.4444484343,12,26, 6,10
1046,0.0,0.0,12,22, 1,10,0.0,12,22, 1,10
1096,3744022.839918558,0.0,12,22, 1,10,109621.37340366867,12,29,16,30
1134,1014598153.6886106,0.0,12,29,14,60,2810337.2389105884, 1, 4, 6,10
1323,1150074962.8417056,0.0,12,22, 1,10,3375000.000000001,12,25,10,30
1360,10756800.0,4979.999999999999,12,28, 9,40,4980.000000000001,12,22, 1,10
1388,0.0,0.0,12,22, 1,10,0.0,12,22, 1,10
1,EXTREME_SUMMER,  39.50,-119.77,  -8.00,1344.20
5,7
1038,0.0,0.0, 7,20, 1,10,0.0, 7,20, 1,10
1039,2.0,0.0, 7,20, 1,10,0.16666666666666666, 7,26,17,40
581,0.09989435542727977,0.0, 7,20, 1,35,0.47047616381995133, 7,25,21,55
582,3.4933867483888617,0.0, 7,22, 8,17,16.1426344424657, 7,24,18,55
583,3.4227840828637155,0.00011003568061744199, 7,20, 6, 7,14.546855350122973, 7,21,13,43
1115,0.0,0.0, 7,20, 1, 5,0.0, 7,20, 1, 5
1128,0.0,0.0, 7,20, 1, 5,0.0, 7,20, 1, 5
1153,0.0,0.0, 7,20, 1, 5,0.0, 7,20, 1, 5
1154,0.0,0.0, 7,20, 1, 5,0.0, 7,20, 1, 5
1156,0.0,0.0, 7,20, 1, 5,0.0, 7,20, 1, 5
13,1009856878.1784732,134897.01494045748, 7,22, 4,60,2299751.888136375, 7,26,19,10
61,301924526.0238348,58759.40635443481, 7,20, 1,10,854682.2742463244, 7,20,20,10
134,70666020.44019979,42376.01200569399, 7,20, 4,10,104369.48322671017, 7,25,20,10
170,5241013.419656074,232.27731661587313, 7,20, 4,10,11650.931360040839, 7,25,12,10
207,6509451.13922266,543.5021409221355, 7,20, 3,10,15327.095199349082, 7,25,10,10
244,12749673.39982522,1014.5707620042115, 7,20, 4,10,35359.08742820678, 7,25,20,10
281,46165882.48149605,39959.06841621388, 7,20, 5,10,54634.54471212738, 7,20,19,10
318,0.0,0.0, 7,20, 1,10,0.0, 7,20, 1,10
355,637782159.84204,12374.216038804521, 7,20, 4,10,3829218.154066982, 7,21,18,60
403,197687796.27748126,12374.216038804521, 7,20, 4,10,483183.26346918393, 7,25,18,10
476,106772067.24485692,4732.048419519677, 7,20, 4,10,237357.535085481, 7,25,12,10
513,0.0,0.0, 7,20, 1,10,0.0, 7,20, 1,10
562,58342636.71370765,0.0, 7,21, 6,20,121675.4444484343, 7,25,17,10
1046,0.0,0.0, 7,20, 1,10,0.0, 7,20, 1,10
1096,573903855.0007309,0.0, 7,21, 6,20,1369684.898049815, 7,26,17,20
1134,0.0,0.0, 7,20, 1,10,0.0, 7,20, 1,10
1323,440094363.56455725,0.0, 7,20, 1,10,3375000.000000001, 7,21,20,20
1360,5019840.0,4979.999999999998, 7,21,13,40,4980.000000000002, 7,24, 4,40
1388,0.0,0.0, 7,20, 1,10,0.0, 7,20, 1,10
1,ANNUAL,  39.50,-119.77,  -8.00,1344.20
5,365
1038,0.16666666666666666,0.0, 1, 1, 1,10,0.16666666666666666, 3, 1, 6,10
1039,53.500000000000014,0.0, 1, 1, 1,10,0.16666666666666666, 1,29,14,60
581,0.20988830599495198,0.0, 5,17,20,33,1.6679483673392361, 3,29, 9,60
582,3.269104504621973,0.0, 1, 3,19,43,32.130259133571144, 3,29, 9,60
583,3.5813051196166343,0.0, 6,27,23, 2,38.54123613417218, 3,29,10,40
1115,11184665781.316643,0.0, 1, 1,23, 5,3398926.3404172654, 3,13, 6,30
1128,3602440798.9248815,0.0, 1, 1,23, 5,1103840.9363888144, 2, 2, 6,30
1153,134048968.23350765,0.0, 1, 1, 1,53,99949.89354777928, 1, 1,12,10
1154,2370763775.593955,0.0, 1, 1, 6, 2,120000.0, 1, 2,16,10
1156,128145187.71745841,0.0, 1, 1, 1, 1,1037005.1255258559,12,27, 6,30
13,36945769763.967186,106115.41836012878, 4,28, 4,40,3181497.495901921,12,27, 6,10
61,15743207428.39043,58759.40635443481, 1, 1, 1,10,854682.2742463244, 1, 1,20,10
134,3685071073.433083,42376.01200569399, 1, 2, 4,10,104369.48322671017, 1, 1,20,10
170,273393721.45534325,232.27731661587313, 1, 2, 4,10,11650.931360040839, 1, 1,12,10
207,339560869.06955314,543.5021409221355, 1, 2, 3,10,15327.095199349082, 1, 1,10,10
244,664895467.8009839,1014.5707620042115, 1, 2, 4,10,35359.08742820678, 1, 1,20,10
281,2407221015.1057043,39959.06841621388, 1, 1, 5,10,54634.54471212738, 1, 1,19,10
318,0.0,0.0, 1, 1, 1,10,0.0, 1, 1, 1,10
355,35713546812.13032,12374.216038804521, 1, 2, 4,10,3829218.154066983, 5, 5,18,30
403,10310294493.052883,12374.216038804521, 1, 2, 4,10,483183.26346918393, 1, 1,18,10
476,5569688622.065564,4732.048419519677, 1, 2, 4,10,237357.535085481, 1, 1,12,10
513,0.0,0.0, 1, 1, 1,10,0.0, 1, 1, 1,10
562,1510419092.5506132,0.0, 1, 1,23,10,121675.44444843431, 6,27,18,60
1046,0.0,0.0, 1, 1, 1,10,0.0, 1, 1, 1,10
1096,9509924639.128899,0.0, 1, 1, 1,10,1424230.0924526781, 7,18,15,60
1134,6235398730.469821,0.0, 1, 7,17,60,2642262.7284428338,12,27, 6,10
1323,25403252319.081516,0.0, 1, 1, 1,10,3375000.000000002,12,22,19,40
1360,261748800.0,4979.999999999998, 3,19, 9,50,4980.000000000002, 1,16,16,40
1388,0.0,0.0, 1, 1, 1,10,0.0, 1, 1, 1,10
End of Data
 Number of Records Written=          87
