Program Version,EnergyPlus, Version 22.2.0-c249759bad, YMD=2023.09.01 20:34
1,5,Environment Title[],Latitude[deg],Longitude[deg],Time Zone[],Elevation[m]
2,8,Day of Simulation[],Month[],Day of Month[],DST Indicator[1=yes 0=no],Hour[],StartMinute[],EndMinute[],DayType
3,5,Cumulative Day of Simulation[],Month[],Day of Month[],DST Indicator[1=yes 0=no],DayType  ! When Daily Report Variables Requested
4,2,Cumulative Days of Simulation[],Month[]  ! When Monthly Report Variables Requested
5,1,Cumulative Days of Simulation[] ! When Run Period Report Variables Requested
6,1,Calendar Year of Simulation[] ! When Annual Report Variables Requested
581,11,LIVING,AFN Zone Infiltration Air Change Rate [ach] !RunPeriod [Value,Min,Month,Day,Hour,Minute,Max,Month,Day,Hour,Minute]
582,11,ATTIC,AFN Zone Infiltration Air Change Rate [ach] !RunPeriod [Value,Min,Month,Day,Hour,Minute,Max,Month,Day,Hour,Minute]
583,11,CRAWLSPACE,AFN Zone Infiltration Air Change Rate [ach] !RunPeriod [Value,Min,Month,Day,Hour,Minute,Max,Month,Day,Hour,Minute]
1038,11,Facility,Facility Heating Setpoint Not Met Time [hr] !RunPeriod [Value,Min,Month,Day,Hour,Minute,Max,Month,Day,Hour,Minute]
1039,11,Facility,Facility Cooling Setpoint Not Met Time [hr] !RunPeriod [Value,Min,Month,Day,Hour,Minute,Max,Month,Day,Hour,Minute]
1115,11,DX_HEATING_COIL,Heating Coil Heating Energy [J] !RunPeriod [Value,Min,Month,Day,Hour,Minute,Max,Month,Day,Hour,Minute]
1128,11,DX_HEATING_COIL,Heating Coil Electricity Energy [J] !RunPeriod [Value,Min,Month,Day,Hour,Minute,Max,Month,Day,Hour,Minute]
1153,11,DX_HEATING_COIL,Heating Coil Defrost Electricity Energy [J] !RunPeriod [Value,Min,Month,Day,Hour,Minute,Max,Month,Day,Hour,Minute]
1154,11,DX_HEATING_COIL,Heating Coil Crankcase Heater Electricity Energy [J] !RunPeriod [Value,Min,Month,Day,Hour,Minute,Max,Month,Day,Hour,Minute]
1155,11,HEATING_RESISTANCE_BACKUP,Heating Coil Heating Energy [J] !RunPeriod [Value,Min,Month,Day,Hour,Minute,Max,Month,Day,Hour,Minute]
1156,11,HEATING_RESISTANCE_BACKUP,Heating Coil Electricity Energy [J] !RunPeriod [Value,Min,Month,Day,Hour,Minute,Max,Month,Day,Hour,Minute]
1292,11,WATER HEATER,Water Heater Heat Loss Energy [J] !RunPeriod [Value,Min,Month,Day,Hour,Minute,Max,Month,Day,Hour,Minute]
1306,11,WATER HEATER,Water Heater Heating Energy [J] !RunPeriod [Value,Min,Month,Day,Hour,Minute,Max,Month,Day,Hour,Minute]
1307,11,WATER HEATER,Water Heater Unmet Demand Heat Transfer Energy [J] !RunPeriod [Value,Min,Month,Day,Hour,Minute,Max,Month,Day,Hour,Minute]
1308,11,WATER HEATER,Water Heater Electricity Energy [J] !RunPeriod [Value,Min,Month,Day,Hour,Minute,Max,Month,Day,Hour,Minute]
13,11,Electricity:Facility [J] !RunPeriod [Value,Min,Month,Day,Hour,Minute,Max,Month,Day,Hour,Minute]
1134,11,Heating:Electricity [J] !RunPeriod [Value,Min,Month,Day,Hour,Minute,Max,Month,Day,Hour,Minute]
1096,11,Cooling:Electricity [J] !RunPeriod [Value,Min,Month,Day,Hour,Minute,Max,Month,Day,Hour,Minute]
562,11,Fans:Electricity [J] !RunPeriod [Value,Min,Month,Day,Hour,Minute,Max,Month,Day,Hour,Minute]
1379,11,Pumps:Electricity [J] !RunPeriod [Value,Min,Month,Day,Hour,Minute,Max,Month,Day,Hour,Minute]
1326,11,WaterSystems:Electricity [J] !RunPeriod [Value,Min,Month,Day,Hour,Minute,Max,Month,Day,Hour,Minute]
61,11,InteriorLights:Electricity [J] !RunPeriod [Value,Min,Month,Day,Hour,Minute,Max,Month,Day,Hour,Minute]
1046,11,ExteriorLights:Electricity [J] !RunPeriod [Value,Min,Month,Day,Hour,Minute,Max,Month,Day,Hour,Minute]
134,11,InteriorEquipment:Electricity [J] !RunPeriod [Value,Min,Month,Day,Hour,Minute,Max,Month,Day,Hour,Minute]
170,11,gas_dryer:InteriorEquipment:Electricity [J] !RunPeriod [Value,Min,Month,Day,Hour,Minute,Max,Month,Day,Hour,Minute]
207,11,clotheswasher:InteriorEquipment:Electricity [J] !RunPeriod [Value,Min,Month,Day,Hour,Minute,Max,Month,Day,Hour,Minute]
244,11,dishwasher:InteriorEquipment:Electricity [J] !RunPeriod [Value,Min,Month,Day,Hour,Minute,Max,Month,Day,Hour,Minute]
281,11,refrigerator:InteriorEquipment:Electricity [J] !RunPeriod [Value,Min,Month,Day,Hour,Minute,Max,Month,Day,Hour,Minute]
318,11,electric_mels:InteriorEquipment:Electricity [J] !RunPeriod [Value,Min,Month,Day,Hour,Minute,Max,Month,Day,Hour,Minute]
355,11,NaturalGas:Facility [J] !RunPeriod [Value,Min,Month,Day,Hour,Minute,Max,Month,Day,Hour,Minute]
403,11,InteriorEquipment:NaturalGas [J] !RunPeriod [Value,Min,Month,Day,Hour,Minute,Max,Month,Day,Hour,Minute]
476,11,gas_dryer:InteriorEquipment:NaturalGas [J] !RunPeriod [Value,Min,Month,Day,Hour,Minute,Max,Month,Day,Hour,Minute]
513,11,gas_mels:InteriorEquipment:NaturalGas [J] !RunPeriod [Value,Min,Month,Day,Hour,Minute,Max,Month,Day,Hour,Minute]
End of Data Dictionary
1,EXTREME_WINTER,  39.73, -86.27,  -5.00, 241.10
5,7
1038,2.5,0.0,12,15, 1,15,0.25,12,15, 6,15
1039,0.0,0.0,12,15, 1,15,0.0,12,15, 1,15
581,0.43866803722163084,0.2418923921654437,12,21,23, 7,0.7544944472093954,12,19, 5,60
582,5.067710583768715,0.13611006593997052,12,20, 9,22,16.318838157502327,12,19, 6,60
583,0.0643319505018802,0.0008317189525813644,12,16,23, 5,0.07902578760641406,12,15, 1,15
1115,1908479352.9982564,0.0,12,15,23, 5,4000006.8618998188,12,17,20,30
1128,694536893.4923455,0.0,12,15,23, 5,1292203.2063768622,12,17,20,30
1153,12857777.815710526,0.0,12,15,23, 5,112414.78771279169,12,18, 6,60
1154,16689536.501560666,0.0,12,15, 1, 7,168512.47183284367,12,21,16,15
1155,1048712411.4974155,0.0,12,15,14,15,5645766.737713338,12,20, 6,15
1156,1048712411.4974155,0.0,12,15,14,15,5645766.737713338,12,20, 6,15
1292,-25383294.254329853,-39750.12536265068,12,19, 5,30,-4652.485386650443,12,20,12,15
1306,221857169.30728236,0.0,12,15, 1, 7,4050000.0,12,15, 7,60
1307,35282398.431261405,0.0,12,15, 1, 7,11320415.130162004,12,21,19,60
1308,221857169.30728236,0.0,12,15, 1, 7,4050000.0,12,15, 7,60
13,2445113514.043837,595533.5734722492,12,20,16,60,10388295.930688437,12,15, 7,60
61,301924526.02383536,88139.10953165221,12,15, 1,15,1282023.4113694867,12,15,20,15
134,70666020.44019976,63564.01800854099,12,15, 4,15,156554.22484006523,12,20,20,15
170,5241013.419656067,348.4159749238097,12,15, 4,15,17476.39704006126,12,20,12,15
207,6509451.13922267,815.2532113832032,12,15, 3,15,22990.642799023623,12,20,10,15
244,12749673.399825225,1521.856143006317,12,15, 4,15,53038.631142310165,12,20,20,15
281,46165882.481495745,59938.60262432081,12,15, 5,15,81951.81706819107,12,15,19,15
318,0.0,0.0,12,15, 1,15,0.0,12,15, 1,15
355,197687796.27748066,18561.32405820678,12,15, 4,15,724774.895203776,12,20,18,15
403,197687796.27748066,18561.32405820678,12,15, 4,15,724774.895203776,12,20,18,15
476,106772067.24485716,7098.072629279515,12,15, 4,15,356036.3026282215,12,20,12,15
513,0.0,0.0,12,15, 1,15,0.0,12,15, 1,15
562,77869178.96548401,1353.2604279475213,12,20,17,15,134656.8936673505,12,20,11,45
1046,0.0,0.0,12,15, 1,15,0.0,12,15, 1,15
1096,0.0,0.0,12,15, 1,15,0.0,12,15, 1,15
1134,1772796619.3070345,190845.61133630082,12,20,17,15,6800125.960568441,12,16, 6,15
1326,221857169.30728236,0.0,12,15, 1,15,4050000.0,12,15, 7,60
1379,0.0,0.0,12,15, 1,15,0.0,12,15, 1,15
1,EXTREME_SUMMER,  39.73, -86.27,  -5.00, 241.10
5,7
1038,0.0,0.0, 7,13, 1,15,0.0, 7,13, 1,15
1039,50.0,0.0, 7,13, 1,15,0.25, 7,13,17,15
581,0.12265913032445763,0.0, 7,16, 6, 7,0.41237328115884697, 7,18, 6, 3
582,3.26827602327511,0.08789851220016877, 7,13, 2,60,11.839301705087781, 7,14,17,50
583,0.04208960288002458,0.0, 7,16, 6, 7,0.07204404745144675, 7,18, 6, 3
1115,0.0,0.0, 7,13, 1,15,0.0, 7,13, 1,15
1128,0.0,0.0, 7,13, 1,15,0.0, 7,13, 1,15
1153,0.0,0.0, 7,13, 1,15,0.0, 7,13, 1,15
1154,0.0,0.0, 7,13, 1,15,0.0, 7,13, 1,15
1155,0.0,0.0, 7,13, 1,15,0.0, 7,13, 1,15
1156,0.0,0.0, 7,13, 1,15,0.0, 7,13, 1,15
1292,-21844124.60302422,-34296.65054199078, 7,13,14,60,-3313.6710349494124, 7,13,12,15
1306,169905241.59368613,0.0, 7,13, 1,15,3384565.9459723546, 7,13, 7,45
1307,16604364.493240274,0.0, 7,13, 1,15,1979462.2750629538, 7,19,19,52
1308,169905241.59368613,0.0, 7,13, 1,15,3384565.9459723546, 7,13, 7,45
13,1131054301.0667021,235441.14058383, 7,15, 4,60,6933984.975097063, 7,19,20,15
61,301924526.02383536,88139.10953165221, 7,13, 1,15,1282023.4113694867, 7,13,20,15
134,70666020.44019976,63564.01800854099, 7,13, 4,15,156554.22484006523, 7,18,20,15
170,5241013.419656067,348.4159749238097, 7,13, 4,15,17476.39704006126, 7,18,12,15
207,6509451.13922267,815.2532113832032, 7,13, 3,15,22990.642799023623, 7,18,10,15
244,12749673.399825225,1521.856143006317, 7,13, 4,15,53038.631142310165, 7,18,20,15
281,46165882.481495745,59938.60262432081, 7,13, 5,15,81951.81706819107, 7,13,19,15
318,0.0,0.0, 7,13, 1,15,0.0, 7,13, 1,15
355,197687796.27748066,18561.32405820678, 7,13, 4,15,724774.895203776, 7,18,18,15
403,197687796.27748066,18561.32405820678, 7,13, 4,15,724774.895203776, 7,18,18,15
476,106772067.24485716,7098.072629279515, 7,13, 4,15,356036.3026282215, 7,18,12,15
513,0.0,0.0, 7,13, 1,15,0.0, 7,13, 1,15
562,56682125.789578706,8971.38941151671, 7,15, 4,60,134656.8936673505, 7,15,15,30
1046,0.0,0.0, 7,13, 1,15,0.0, 7,13, 1,15
1096,531876387.2194023,74766.6236321201, 7,15, 4,60,1376543.1018200067, 7,16,16,60
1134,0.0,0.0, 7,13, 1,15,0.0, 7,13, 1,15
1326,169905241.59368616,0.0, 7,13, 1,15,4050000.0, 7,14,20,30
1379,0.0,0.0, 7,13, 1,15,0.0, 7,13, 1,15
1,ANNUAL,  39.73, -86.27,  -5.00, 241.10
5,365
1038,19.75,0.0, 1, 1, 1,15,0.25, 1,11, 6,15
1039,447.5,0.0, 1, 1, 1,15,0.25, 5,23,15,45
581,0.2779285578286015,0.0, 6, 1,23, 3,1.1970778053575355, 2,11,19,37
582,5.044579986542894,0.0, 1, 9, 9,60,39.36980456801115, 2,11,19,52
583,0.030923013681991077,0.0, 6, 1,23, 3,0.09115363579989427, 1,12,10,60
1115,25985931436.917786,0.0, 1, 1,23, 5,4425401.586174882, 2,21, 6,60
1128,8379527955.390407,0.0, 1, 1,23, 5,1325890.2894830194, 2,21, 6,30
1153,277044209.9925439,0.0, 1, 1,23, 5,112977.8840411609,12,25, 6,45
1154,1409446964.8464584,0.0, 1, 1, 2,30,180000.0, 1, 2,14,15
1155,5271059230.766622,0.0, 1, 1, 1,15,5645766.737713338, 1,11, 6,30
1156,5271059230.766622,0.0, 1, 1, 1,15,5645766.737713338, 1,11, 6,30
1292,-1224430955.8722575,-39817.923132072276,10,23, 2,45,-2347.471281257417, 6, 4,20,16
1306,10522331544.145428,0.0, 1, 1, 1,15,4050000.0, 1, 1, 9,60
1307,1458731603.4620173,0.0, 1, 1, 1,15,12214750.325077163, 2, 5,19,60
1308,10522331544.145428,0.0, 1, 1, 1,15,4050000.0, 1, 1, 9,60
13,56426724465.72376,151703.1275401932, 3,21, 4,15,11428288.080442248, 1,18, 8,15
61,15743207428.383959,88139.10953165221, 1, 1, 1,15,1282023.4113694867, 1, 1,20,15
134,3685071073.4325233,63564.01800854099, 1, 2, 4,15,156554.22484006523, 1, 1,20,15
170,273393721.45532674,348.4159749238097, 1, 2, 4,15,17476.39704006126, 1, 1,12,15
207,339560869.0695816,815.2532113832032, 1, 2, 3,15,22990.642799023623, 1, 1,10,15
244,664895467.8009144,1521.856143006317, 1, 2, 4,15,53038.631142310165, 1, 1,20,15
281,2407221015.106824,59938.60262432081, 1, 1, 5,15,81951.81706819107, 1, 1,19,15
318,0.0,0.0, 1, 1, 1,15,0.0, 1, 1, 1,15
355,10310294493.051695,18561.32405820678, 1, 2, 4,15,724774.895203776, 1, 1,18,15
403,10310294493.051695,18561.32405820678, 1, 2, 4,15,724774.895203776, 1, 1,18,15
476,5569688622.066177,7098.072629279515, 1, 2, 4,15,356036.3026282215, 1, 1,12,15
513,0.0,0.0, 1, 1, 1,15,0.0, 1, 1, 1,15
562,1962459397.1357453,0.0, 1, 2,14,15,134656.8936673505, 1,19,12,30
1046,0.0,0.0, 1, 1, 1,15,0.0, 1, 1, 1,15
1096,9176576661.62909,0.0, 1, 1, 1,15,1451167.2068765315, 8,31,15,60
1134,15337078360.995956,0.0, 1,30,11,45,6813139.20240517, 1,11, 7,15
1326,10522331544.145453,0.0, 1, 1, 1,15,4050000.0, 1, 1, 9,60
1379,0.0,0.0, 1, 1, 1,15,0.0, 1, 1, 1,15
End of Data
 Number of Records Written=          99
