Program Version,EnergyPlus, Version 22.2.0-c249759bad, YMD=2023.09.01 20:56
1,5,Environment Title[],Latitude[deg],Longitude[deg],Time Zone[],Elevation[m]
2,8,Day of Simulation[],Month[],Day of Month[],DST Indicator[1=yes 0=no],Hour[],StartMinute[],EndMinute[],DayType
3,5,Cumulative Day of Simulation[],Month[],Day of Month[],DST Indicator[1=yes 0=no],DayType  ! When Daily Report Variables Requested
4,2,Cumulative Days of Simulation[],Month[]  ! When Monthly Report Variables Requested
5,1,Cumulative Days of Simulation[] ! When Run Period Report Variables Requested
6,1,Calendar Year of Simulation[] ! When Annual Report Variables Requested
581,11,LIVING,AFN Zone Infiltration Air Change Rate [ach] !RunPeriod [Value,Min,Month,Day,Hour,Minute,Max,Month,Day,Hour,Minute]
582,11,ATTIC,AFN Zone Infiltration Air Change Rate [ach] !RunPeriod [Value,Min,Month,Day,Hour,Minute,Max,Month,Day,Hour,Minute]
583,11,CRAWLSPACE,AFN Zone Infiltration Air Change Rate [ach] !RunPeriod [Value,Min,Month,Day,Hour,Minute,Max,Month,Day,Hour,Minute]
1038,11,Facility,Facility Heating Setpoint Not Met Time [hr] !RunPeriod [Value,Min,Month,Day,Hour,Minute,Max,Month,Day,Hour,Minute]
1039,11,Facility,Facility Cooling Setpoint Not Met Time [hr] !RunPeriod [Value,Min,Month,Day,Hour,Minute,Max,Month,Day,Hour,Minute]
1115,11,DX_HEATING_COIL,Heating Coil Heating Energy [J] !RunPeriod [Value,Min,Month,Day,Hour,Minute,Max,Month,Day,Hour,Minute]
1128,11,DX_HEATING_COIL,Heating Coil Electricity Energy [J] !RunPeriod [Value,Min,Month,Day,Hour,Minute,Max,Month,Day,Hour,Minute]
1153,11,DX_HEATING_COIL,Heating Coil Defrost Electricity Energy [J] !RunPeriod [Value,Min,Month,Day,Hour,Minute,Max,Month,Day,Hour,Minute]
1154,11,DX_HEATING_COIL,Heating Coil Crankcase Heater Electricity Energy [J] !RunPeriod [Value,Min,Month,Day,Hour,Minute,Max,Month,Day,Hour,Minute]
1155,11,HEATING_RESISTANCE_BACKUP,Heating Coil Heating Energy [J] !RunPeriod [Value,Min,Month,Day,Hour,Minute,Max,Month,Day,Hour,Minute]
1156,11,HEATING_RESISTANCE_BACKUP,Heating Coil Electricity Energy [J] !RunPeriod [Value,Min,Month,Day,Hour,Minute,Max,Month,Day,Hour,Minute]
1292,11,WATER HEATER,Water Heater Heat Loss Energy [J] !RunPeriod [Value,Min,Month,Day,Hour,Minute,Max,Month,Day,Hour,Minute]
1306,11,WATER HEATER,Water Heater Heating Energy [J] !RunPeriod [Value,Min,Month,Day,Hour,Minute,Max,Month,Day,Hour,Minute]
1307,11,WATER HEATER,Water Heater Unmet Demand Heat Transfer Energy [J] !RunPeriod [Value,Min,Month,Day,Hour,Minute,Max,Month,Day,Hour,Minute]
1308,11,WATER HEATER,Water Heater Electricity Energy [J] !RunPeriod [Value,Min,Month,Day,Hour,Minute,Max,Month,Day,Hour,Minute]
13,11,Electricity:Facility [J] !RunPeriod [Value,Min,Month,Day,Hour,Minute,Max,Month,Day,Hour,Minute]
1134,11,Heating:Electricity [J] !RunPeriod [Value,Min,Month,Day,Hour,Minute,Max,Month,Day,Hour,Minute]
1096,11,Cooling:Electricity [J] !RunPeriod [Value,Min,Month,Day,Hour,Minute,Max,Month,Day,Hour,Minute]
562,11,Fans:Electricity [J] !RunPeriod [Value,Min,Month,Day,Hour,Minute,Max,Month,Day,Hour,Minute]
1379,11,Pumps:Electricity [J] !RunPeriod [Value,Min,Month,Day,Hour,Minute,Max,Month,Day,Hour,Minute]
1326,11,WaterSystems:Electricity [J] !RunPeriod [Value,Min,Month,Day,Hour,Minute,Max,Month,Day,Hour,Minute]
61,11,InteriorLights:Electricity [J] !RunPeriod [Value,Min,Month,Day,Hour,Minute,Max,Month,Day,Hour,Minute]
1046,11,ExteriorLights:Electricity [J] !RunPeriod [Value,Min,Month,Day,Hour,Minute,Max,Month,Day,Hour,Minute]
134,11,InteriorEquipment:Electricity [J] !RunPeriod [Value,Min,Month,Day,Hour,Minute,Max,Month,Day,Hour,Minute]
170,11,gas_dryer:InteriorEquipment:Electricity [J] !RunPeriod [Value,Min,Month,Day,Hour,Minute,Max,Month,Day,Hour,Minute]
207,11,clotheswasher:InteriorEquipment:Electricity [J] !RunPeriod [Value,Min,Month,Day,Hour,Minute,Max,Month,Day,Hour,Minute]
244,11,dishwasher:InteriorEquipment:Electricity [J] !RunPeriod [Value,Min,Month,Day,Hour,Minute,Max,Month,Day,Hour,Minute]
281,11,refrigerator:InteriorEquipment:Electricity [J] !RunPeriod [Value,Min,Month,Day,Hour,Minute,Max,Month,Day,Hour,Minute]
318,11,electric_mels:InteriorEquipment:Electricity [J] !RunPeriod [Value,Min,Month,Day,Hour,Minute,Max,Month,Day,Hour,Minute]
355,11,NaturalGas:Facility [J] !RunPeriod [Value,Min,Month,Day,Hour,Minute,Max,Month,Day,Hour,Minute]
403,11,InteriorEquipment:NaturalGas [J] !RunPeriod [Value,Min,Month,Day,Hour,Minute,Max,Month,Day,Hour,Minute]
476,11,gas_dryer:InteriorEquipment:NaturalGas [J] !RunPeriod [Value,Min,Month,Day,Hour,Minute,Max,Month,Day,Hour,Minute]
513,11,gas_mels:InteriorEquipment:NaturalGas [J] !RunPeriod [Value,Min,Month,Day,Hour,Minute,Max,Month,Day,Hour,Minute]
End of Data Dictionary
1,EXTREME_WINTER,  43.60,-110.73,  -7.00,1966.00
5,7
1038,3.0,0.0, 1, 1, 1,15,0.25, 1, 1, 6,15
1039,0.0,0.0, 1, 1, 1,15,0.0, 1, 1, 1,15
581,0.4525144793270589,0.26820698188890957, 1, 7,15,52,0.8746442363426284, 1, 6, 5,60
582,1.9795916256354096,0.05195404227902613, 1, 7, 3,60,12.262491812202086, 1, 6, 5,60
583,0.08319395163004747,0.00043985859624555727, 1, 5,23, 3,0.09642223899015213, 1, 6, 5,60
1115,2084031479.8263485,0.0, 1, 5,23, 3,4267187.66996835, 1, 7, 4,60
1128,843791724.2382542,0.0, 1, 5,23, 3,1423822.247012107, 1, 6,14,15
1153,17074592.85362426,0.0, 1, 5,23, 3,83839.44364024978, 1, 7, 1,60
1154,7213387.602561557,0.0, 1, 1, 1,15,123087.42264243531, 1, 7,13,30
1155,1483216321.429578,0.0, 1, 1,15,15,5880951.742844015, 1, 3, 6,45
1156,1483216321.429578,0.0, 1, 1,15,15,5880951.742844015, 1, 3, 6,45
1292,-24947626.981586866,-39782.50245091415, 1, 1, 1,15,-4768.563001134123, 1, 3,18,30
1306,400079859.6647898,0.0, 1, 1, 1,15,4050000.0, 1, 1,10,15
1307,198497517.30305833,0.0, 1, 1, 1,15,19652274.181405123, 1, 5, 9,60
1308,400079859.6647898,0.0, 1, 1, 1,15,4050000.0, 1, 1,10,15
13,3224394226.247474,841245.5181589685, 1, 7,12,30,11751030.069481805, 1, 3, 8,60
61,301924526.02383536,88139.10953165221, 1, 1, 1,15,1282023.4113694867, 1, 1,20,15
134,70666020.44019976,63564.01800854099, 1, 1, 4,15,156554.22484006523, 1, 6,20,15
170,5241013.419656067,348.4159749238097, 1, 1, 4,15,17476.39704006126, 1, 6,12,15
207,6509451.13922267,815.2532113832032, 1, 1, 3,15,22990.642799023623, 1, 6,10,15
244,12749673.399825225,1521.856143006317, 1, 1, 4,15,53038.631142310165, 1, 6,20,15
281,46165882.481495745,59938.60262432081, 1, 1, 5,15,81951.81706819107, 1, 1,19,15
318,0.0,0.0, 1, 1, 1,15,0.0, 1, 1, 1,15
355,197687796.27748066,18561.32405820678, 1, 1, 4,15,724774.895203776, 1, 6,18,15
403,197687796.27748066,18561.32405820678, 1, 1, 4,15,724774.895203776, 1, 6,18,15
476,106772067.24485716,7098.072629279515, 1, 1, 4,15,356036.3026282215, 1, 6,12,15
513,0.0,0.0, 1, 1, 1,15,0.0, 1, 1, 1,15
562,100427793.99463306,39594.8896678973, 1, 7,12,45,159182.9067260376, 1, 3,18,15
1046,0.0,0.0, 1, 1, 1,15,0.0, 1, 1, 1,15
1096,0.0,0.0, 1, 1, 1,15,0.0, 1, 1, 1,15
1134,2351296026.1240206,510472.08260164433, 1, 7,12,30,7175479.8554943465, 1, 3, 6,30
1326,400079859.66478974,0.0, 1, 1, 1,15,4050000.0, 1, 1, 9,60
1379,0.0,0.0, 1, 1, 1,15,0.0, 1, 1, 1,15
1,EXTREME_SUMMER,  43.60,-110.73,  -7.00,1966.00
5,7
1038,0.0,0.0, 7, 8, 1,15,0.0, 7, 8, 1,15
1039,0.0,0.0, 7, 8, 1,15,0.0, 7, 8, 1,15
581,0.1979580567499694,0.01701950260781636, 7,11, 9,46,0.9491448921616041, 7,12,19,48
582,2.615243980844807,0.0, 7, 8, 6,60,16.35512551952905, 7,12,19,48
583,0.026359906610794688,0.00002838646892192416, 7,12, 7,37,0.07563575105974342, 7, 8,19,17
1115,0.0,0.0, 7, 8, 1, 5,0.0, 7, 8, 1, 5
1128,0.0,0.0, 7, 8, 1, 5,0.0, 7, 8, 1, 5
1153,0.0,0.0, 7, 8, 1, 5,0.0, 7, 8, 1, 5
1154,10782580.470907107,0.0, 7, 8, 1, 5,180000.0, 7, 8, 6,45
1155,0.0,0.0, 7, 8, 1, 5,0.0, 7, 8, 1, 5
1156,0.0,0.0, 7, 8, 1, 5,0.0, 7, 8, 1, 5
1292,-21950366.38380526,-34787.10314603967, 7, 9, 6,30,-1244.6378276697262, 7,11, 9,46
1306,349822369.9424537,0.0, 7, 8, 1, 5,4050000.0, 7, 8,16,60
1307,159124549.37360486,0.0, 7, 8, 1, 5,11369179.124105114, 7,11,20,60
1308,349822369.9424537,0.0, 7, 8, 1, 5,4050000.0, 7, 8,16,60
13,1049654094.9926778,151703.1275401932, 7, 8, 4,15,6620108.045269257, 7, 9,20,15
61,301924526.02383536,88139.10953165221, 7, 8, 1,15,1282023.4113694867, 7, 8,20,15
134,70666020.44019976,63564.01800854099, 7, 8, 4,15,156554.22484006523, 7,13,20,15
170,5241013.419656067,348.4159749238097, 7, 8, 4,15,17476.39704006126, 7,13,12,15
207,6509451.13922267,815.2532113832032, 7, 8, 3,15,22990.642799023623, 7,13,10,15
244,12749673.399825225,1521.856143006317, 7, 8, 4,15,53038.631142310165, 7,13,20,15
281,46165882.481495745,59938.60262432081, 7, 8, 5,15,81951.81706819107, 7, 8,19,15
318,0.0,0.0, 7, 8, 1,15,0.0, 7, 8, 1,15
355,197687796.27748066,18561.32405820678, 7, 8, 4,15,724774.895203776, 7,13,18,15
403,197687796.27748066,18561.32405820678, 7, 8, 4,15,724774.895203776, 7,13,18,15
476,106772067.24485716,7098.072629279515, 7, 8, 4,15,356036.3026282215, 7,13,12,15
513,0.0,0.0, 7, 8, 1,15,0.0, 7, 8, 1,15
562,34474202.75012517,0.0, 7, 8, 3,15,159182.90672603756, 7, 8,19,15
1046,0.0,0.0, 7, 8, 1,15,0.0, 7, 8, 1,15
1096,281984395.36515707,0.0, 7, 8, 3,15,1476602.75427265, 7, 8,18,60
1134,10782580.470907107,0.0, 7, 8, 1,15,180000.0, 7, 8, 5,45
1326,349822369.9424535,0.0, 7, 8, 1,15,4050000.0000000014, 7,11,10,15
1379,0.0,0.0, 7, 8, 1,15,0.0, 7, 8, 1,15
1,ANNUAL,  43.60,-110.73,  -7.00,1966.00
5,365
1038,47.0,0.0, 1, 1, 1,15,0.25, 1, 1, 6,15
1039,15.75,0.0, 1, 1, 1,15,0.25, 5,14,11,15
581,0.32336085764812955,0.022549954358095422, 7,11, 9,47,1.82563442442179, 5,10,17,48
582,3.391619129539596,0.0, 1,12,21,60,42.24383466477294, 5,10,17,48
583,0.035626677279822966,0.000023083467182464764,10,14,20,60,0.10515941202674471, 3,17,14,50
1115,44759872553.299484,0.0, 1, 5,23, 3,5056224.27581709, 1,22, 6,45
1128,15641720174.570051,0.0, 1, 5,23, 3,1545783.2690129352, 1,22, 6,45
1153,616001695.2902976,0.0, 1, 5,23, 3,173965.2923258293, 3, 6, 6,45
1154,2370749577.7675133,0.0, 1, 1, 1,15,180000.0, 1,29,15,60
1155,11823412502.655678,0.0, 1, 1,15,15,5880951.742844015, 1, 3, 6,45
1156,11823412502.655678,0.0, 1, 1,15,15,5880951.742844015, 1, 3, 6,45
1292,-1237691381.5789938,-40232.78948755764, 1,20, 8,60,-1245.8351049307053, 9,15,10, 1
1306,19635857778.46118,0.0, 1, 1, 1,15,4050000.0, 1, 1,10,15
1307,9388721707.719553,0.0, 1, 1, 1,15,20446733.749838654, 2,17, 9,60
1308,19635857778.46118,0.0, 1, 1, 1,15,4050000.0, 1, 1,10,15
13,75661867915.69565,151703.1275401932, 6,27, 4,15,11952932.856904762,12,27, 8,60
61,15743207428.383959,88139.10953165221, 1, 1, 1,15,1282023.4113694867, 1, 1,20,15
134,3685071073.4325233,63564.01800854099, 1, 2, 4,15,156554.22484006523, 1, 1,20,15
170,273393721.45532674,348.4159749238097, 1, 2, 4,15,17476.39704006126, 1, 1,12,15
207,339560869.0695816,815.2532113832032, 1, 2, 3,15,22990.642799023623, 1, 1,10,15
244,664895467.8009144,1521.856143006317, 1, 2, 4,15,53038.631142310165, 1, 1,20,15
281,2407221015.106824,59938.60262432081, 1, 1, 5,15,81951.81706819107, 1, 1,19,15
318,0.0,0.0, 1, 1, 1,15,0.0, 1, 1, 1,15
355,10310294493.051695,18561.32405820678, 1, 2, 4,15,724774.895203776, 1, 1,18,15
403,10310294493.051695,18561.32405820678, 1, 2, 4,15,724774.895203776, 1, 1,18,15
476,5569688622.066177,7098.072629279515, 1, 2, 4,15,356036.3026282215, 1, 1,12,15
513,0.0,0.0, 1, 1, 1,15,0.0, 1, 1, 1,15
562,2283524587.346084,0.0, 1,29,14,60,159182.9067260376, 1, 3,18,15
1046,0.0,0.0, 1, 1, 1,15,0.0, 1, 1, 1,15
1096,3862323097.787022,0.0, 1, 1, 1,15,1514729.2842306874, 7,23,18,15
1134,30451883950.283546,0.0, 4, 4,14,60,7222260.955775541, 1,23, 7,30
1326,19635857778.461163,0.0, 1, 1, 1,15,4050000.0000000014, 3,15,10,45
1379,0.0,0.0, 1, 1, 1,15,0.0, 1, 1, 1,15
End of Data
 Number of Records Written=          99
