Program Version,EnergyPlus, Version 22.2.0-c249759bad, YMD=2023.09.01 20:24
1,5,Environment Title[],Latitude[deg],Longitude[deg],Time Zone[],Elevation[m]
2,8,Day of Simulation[],Month[],Day of Month[],DST Indicator[1=yes 0=no],Hour[],StartMinute[],EndMinute[],DayType
3,5,Cumulative Day of Simulation[],Month[],Day of Month[],DST Indicator[1=yes 0=no],DayType  ! When Daily Report Variables Requested
4,2,Cumulative Days of Simulation[],Month[]  ! When Monthly Report Variables Requested
5,1,Cumulative Days of Simulation[] ! When Run Period Report Variables Requested
6,1,Calendar Year of Simulation[] ! When Annual Report Variables Requested
581,11,LIVING,AFN Zone Infiltration Air Change Rate [ach] !RunPeriod [Value,Min,Month,Day,Hour,Minute,Max,Month,Day,Hour,Minute]
582,11,ATTIC,AFN Zone Infiltration Air Change Rate [ach] !RunPeriod [Value,Min,Month,Day,Hour,Minute,Max,Month,Day,Hour,Minute]
583,11,CRAWLSPACE,AFN Zone Infiltration Air Change Rate [ach] !RunPeriod [Value,Min,Month,Day,Hour,Minute,Max,Month,Day,Hour,Minute]
1038,11,Facility,Facility Heating Setpoint Not Met Time [hr] !RunPeriod [Value,Min,Month,Day,Hour,Minute,Max,Month,Day,Hour,Minute]
1039,11,Facility,Facility Cooling Setpoint Not Met Time [hr] !RunPeriod [Value,Min,Month,Day,Hour,Minute,Max,Month,Day,Hour,Minute]
1115,11,DX_HEATING_COIL,Heating Coil Heating Energy [J] !RunPeriod [Value,Min,Month,Day,Hour,Minute,Max,Month,Day,Hour,Minute]
1128,11,DX_HEATING_COIL,Heating Coil Electricity Energy [J] !RunPeriod [Value,Min,Month,Day,Hour,Minute,Max,Month,Day,Hour,Minute]
1153,11,DX_HEATING_COIL,Heating Coil Defrost Electricity Energy [J] !RunPeriod [Value,Min,Month,Day,Hour,Minute,Max,Month,Day,Hour,Minute]
1154,11,DX_HEATING_COIL,Heating Coil Crankcase Heater Electricity Energy [J] !RunPeriod [Value,Min,Month,Day,Hour,Minute,Max,Month,Day,Hour,Minute]
1155,11,HEATING_RESISTANCE_BACKUP,Heating Coil Heating Energy [J] !RunPeriod [Value,Min,Month,Day,Hour,Minute,Max,Month,Day,Hour,Minute]
1156,11,HEATING_RESISTANCE_BACKUP,Heating Coil Electricity Energy [J] !RunPeriod [Value,Min,Month,Day,Hour,Minute,Max,Month,Day,Hour,Minute]
1292,11,WATER HEATER,Water Heater Heat Loss Energy [J] !RunPeriod [Value,Min,Month,Day,Hour,Minute,Max,Month,Day,Hour,Minute]
1306,11,WATER HEATER,Water Heater Heating Energy [J] !RunPeriod [Value,Min,Month,Day,Hour,Minute,Max,Month,Day,Hour,Minute]
1307,11,WATER HEATER,Water Heater Unmet Demand Heat Transfer Energy [J] !RunPeriod [Value,Min,Month,Day,Hour,Minute,Max,Month,Day,Hour,Minute]
1308,11,WATER HEATER,Water Heater Electricity Energy [J] !RunPeriod [Value,Min,Month,Day,Hour,Minute,Max,Month,Day,Hour,Minute]
13,11,Electricity:Facility [J] !RunPeriod [Value,Min,Month,Day,Hour,Minute,Max,Month,Day,Hour,Minute]
1134,11,Heating:Electricity [J] !RunPeriod [Value,Min,Month,Day,Hour,Minute,Max,Month,Day,Hour,Minute]
1096,11,Cooling:Electricity [J] !RunPeriod [Value,Min,Month,Day,Hour,Minute,Max,Month,Day,Hour,Minute]
562,11,Fans:Electricity [J] !RunPeriod [Value,Min,Month,Day,Hour,Minute,Max,Month,Day,Hour,Minute]
1379,11,Pumps:Electricity [J] !RunPeriod [Value,Min,Month,Day,Hour,Minute,Max,Month,Day,Hour,Minute]
1326,11,WaterSystems:Electricity [J] !RunPeriod [Value,Min,Month,Day,Hour,Minute,Max,Month,Day,Hour,Minute]
61,11,InteriorLights:Electricity [J] !RunPeriod [Value,Min,Month,Day,Hour,Minute,Max,Month,Day,Hour,Minute]
1046,11,ExteriorLights:Electricity [J] !RunPeriod [Value,Min,Month,Day,Hour,Minute,Max,Month,Day,Hour,Minute]
134,11,InteriorEquipment:Electricity [J] !RunPeriod [Value,Min,Month,Day,Hour,Minute,Max,Month,Day,Hour,Minute]
170,11,gas_dryer:InteriorEquipment:Electricity [J] !RunPeriod [Value,Min,Month,Day,Hour,Minute,Max,Month,Day,Hour,Minute]
207,11,clotheswasher:InteriorEquipment:Electricity [J] !RunPeriod [Value,Min,Month,Day,Hour,Minute,Max,Month,Day,Hour,Minute]
244,11,dishwasher:InteriorEquipment:Electricity [J] !RunPeriod [Value,Min,Month,Day,Hour,Minute,Max,Month,Day,Hour,Minute]
281,11,refrigerator:InteriorEquipment:Electricity [J] !RunPeriod [Value,Min,Month,Day,Hour,Minute,Max,Month,Day,Hour,Minute]
318,11,electric_mels:InteriorEquipment:Electricity [J] !RunPeriod [Value,Min,Month,Day,Hour,Minute,Max,Month,Day,Hour,Minute]
355,11,NaturalGas:Facility [J] !RunPeriod [Value,Min,Month,Day,Hour,Minute,Max,Month,Day,Hour,Minute]
403,11,InteriorEquipment:NaturalGas [J] !RunPeriod [Value,Min,Month,Day,Hour,Minute,Max,Month,Day,Hour,Minute]
476,11,gas_dryer:InteriorEquipment:NaturalGas [J] !RunPeriod [Value,Min,Month,Day,Hour,Minute,Max,Month,Day,Hour,Minute]
513,11,gas_mels:InteriorEquipment:NaturalGas [J] !RunPeriod [Value,Min,Month,Day,Hour,Minute,Max,Month,Day,Hour,Minute]
End of Data Dictionary
1,EXTREME_WINTER,  33.95,-117.43,  -8.00, 249.00
5,7
1038,0.0,0.0, 2,15, 1,15,0.0, 2,15, 1,15
1039,0.0,0.0, 2,15, 1,15,0.0, 2,15, 1,15
581,0.17186027315560887,0.08166719264111906, 2,17, 7,60,0.5684782428287789, 2,16,11,60
582,1.9466885720808809,0.0, 2,15, 1,15,10.65756566926457, 2,16,11,60
583,0.010585647233794774,0.00010517633272833582, 2,17, 9,46,0.07893643892072162, 2,21, 6, 3
1115,91231238.36771137,0.0, 2,15, 6, 7,1942465.2123291886, 2,16, 6,45
1128,24228712.66144116,0.0, 2,15, 6, 7,500929.0347564603, 2,16, 6,45
1153,49815.91230529285,0.0, 2,15, 1,15,16805.4939999449, 2,18, 6,60
1154,36514964.00890797,0.0, 2,15, 9,37,180000.0, 2,15,19,15
1155,0.0,0.0, 2,15, 1,15,0.0, 2,15, 1,15
1156,0.0,0.0, 2,15, 1,15,0.0, 2,15, 1,15
1292,-23579452.496472463,-39765.658462116655, 2,15, 1,15,-2654.6264225695945, 2,18,10,30
1306,154420100.3153857,0.0, 2,15, 1,15,4050000.0, 2,19, 8,30
1307,24040005.84894611,0.0, 2,15, 1,15,1415158.7875526596, 2,20,10,18
1308,154420100.3153857,0.0, 2,15, 1,15,4050000.0, 2,19, 8,30
13,679299480.910775,151703.1275401932, 2,17, 4,15,5157729.560505197, 2,18,19,30
61,301924526.02383536,88139.10953165221, 2,15, 1,15,1282023.4113694867, 2,15,20,15
134,70666020.44019976,63564.01800854099, 2,15, 4,15,156554.22484006523, 2,20,20,15
170,5241013.419656067,348.4159749238097, 2,15, 4,15,17476.39704006126, 2,20,12,15
207,6509451.13922267,815.2532113832032, 2,15, 3,15,22990.642799023623, 2,20,10,15
244,12749673.399825225,1521.856143006317, 2,15, 4,15,53038.631142310165, 2,20,20,15
281,46165882.481495745,59938.60262432081, 2,15, 5,15,81951.81706819107, 2,15,19,15
318,0.0,0.0, 2,15, 1,15,0.0, 2,15, 1,15
355,197687796.27748066,18561.32405820678, 2,15, 4,15,724774.895203776, 2,20,18,15
403,197687796.27748066,18561.32405820678, 2,15, 4,15,724774.895203776, 2,20,18,15
476,106772067.24485716,7098.072629279515, 2,15, 4,15,356036.3026282215, 2,20,12,15
513,0.0,0.0, 2,15, 1,15,0.0, 2,15, 1,15
562,12799034.186742906,0.0, 2,15,19,15,97639.71205949405, 2,17,16,30
1046,0.0,0.0, 2,15, 1,15,0.0, 2,15, 1,15
1096,78696307.36195779,0.0, 2,15, 1,15,753053.8422241724, 2,17,16,30
1134,60793492.58265442,0.0, 2,16, 8,60,708637.246723498, 2,15, 6,15
1326,154420100.31538573,0.0, 2,15, 1,15,4050000.0, 2,15, 8,45
1379,0.0,0.0, 2,15, 1,15,0.0, 2,15, 1,15
1,EXTREME_SUMMER,  33.95,-117.43,  -8.00, 249.00
5,7
1038,0.0,0.0, 9,26, 1,15,0.0, 9,26, 1,15
1039,30.75,0.0, 9,26, 1,15,0.25, 9,26,14,30
581,0.070946569951617,0.0, 9,26,23, 3,0.3627224113237295, 9,30,16,50
582,2.504455230845659,0.03978013125424412, 9,26, 8,55,11.951850926911952, 9,30,16,47
583,0.03644769586084259,0.0, 9,26,23, 3,0.07736035240339813, 9,30,16,50
1115,0.0,0.0, 9,26, 1, 7,0.0, 9,26, 1, 7
1128,0.0,0.0, 9,26, 1, 7,0.0, 9,26, 1, 7
1153,0.0,0.0, 9,26, 1, 7,0.0, 9,26, 1, 7
1154,0.0,0.0, 9,26, 1, 7,0.0, 9,26, 1, 7
1155,0.0,0.0, 9,26, 1, 7,0.0, 9,26, 1, 7
1156,0.0,0.0, 9,26, 1, 7,0.0, 9,26, 1, 7
1292,-21912041.256460216,-34338.33462468322,10, 1, 6,60,-2677.154374438793,10, 1,10,30
1306,129985508.2274603,0.0, 9,26, 1, 7,3521375.4279365023, 9,27, 7,15
1307,14479949.499408022,0.0, 9,26, 1, 7,647018.4055153788, 9,29,10,18
1308,129985508.2274603,0.0, 9,26, 1, 7,3521375.4279365023, 9,27, 7,15
13,1043203858.9682429,151703.1275401932, 9,26, 4,60,6440812.377628455,10, 2,20,60
61,301924526.02383536,88139.10953165221, 9,26, 1,15,1282023.4113694867, 9,26,20,15
134,70666020.44019976,63564.01800854099, 9,26, 4,15,156554.22484006523,10, 1,20,15
170,5241013.419656067,348.4159749238097, 9,26, 4,15,17476.39704006126,10, 1,12,15
207,6509451.13922267,815.2532113832032, 9,26, 3,15,22990.642799023623,10, 1,10,15
244,12749673.399825225,1521.856143006317, 9,26, 4,15,53038.631142310165,10, 1,20,15
281,46165882.481495745,59938.60262432081, 9,26, 5,15,81951.81706819107, 9,26,19,15
318,0.0,0.0, 9,26, 1,15,0.0, 9,26, 1,15
355,197687796.27748066,18561.32405820678, 9,26, 4,15,724774.895203776,10, 1,18,15
403,197687796.27748066,18561.32405820678, 9,26, 4,15,724774.895203776,10, 1,18,15
476,106772067.24485716,7098.072629279515, 9,26, 4,15,356036.3026282215,10, 1,12,15
513,0.0,0.0, 9,26, 1,15,0.0, 9,26, 1,15
562,48716855.616013184,0.0, 9,26, 4,60,149964.16718170332, 9,26,13,60
1046,0.0,0.0, 9,26, 1,15,0.0, 9,26, 1,15
1096,491910948.66073394,0.0, 9,26, 4,60,1839429.5819615112,10, 2,13,60
1134,0.0,0.0, 9,26, 1,15,0.0, 9,26, 1,15
1326,129985508.22746028,0.0, 9,26, 1,15,4050000.0, 9,28, 9,45
1379,0.0,0.0, 9,26, 1,15,0.0, 9,26, 1,15
1,ANNUAL,  33.95,-117.43,  -8.00, 249.00
5,365
1038,0.0,0.0, 1, 1, 1,15,0.0, 1, 1, 1,15
1039,472.0,0.0, 1, 1, 1,15,0.25, 1, 4,13,30
581,0.13734725236963943,0.0, 2, 6,10,46,0.7347023251269729,12,23, 9,60
582,2.5911111388396257,0.0, 1, 1, 6,52,16.70537192331461, 5, 4,16,48
583,0.02561558191182068,0.0, 7, 4, 6, 7,0.08269478773297644, 9,19,16,50
1115,700709262.7685621,0.0, 1, 1, 1, 7,2603034.981575729,12, 8, 6,60
1128,201305247.11596957,0.0, 1, 1, 1, 7,810503.6389886818,12, 8, 6,60
1153,5264042.534578614,0.0, 1, 1, 1, 7,70113.51761586731,12,31, 6,60
1154,577159216.0167224,0.0, 1, 1, 6, 5,180000.0, 1, 1, 1,30
1155,0.0,0.0, 1, 1, 1, 7,0.0, 1, 1, 1, 7
1156,0.0,0.0, 1, 1, 1, 7,0.0, 1, 1, 1, 7
1292,-1173164813.7423337,-39764.68266606232,12,23, 5,15,-2154.5308466788742, 3,15, 9,31
1306,7251771232.649578,0.0, 1, 1, 1, 7,4050000.0, 1,13, 8,30
1307,947115086.3027272,0.0, 1, 1, 1, 7,5680911.237562881, 5, 6,10,30
1308,7251771232.649578,0.0, 1, 1, 1, 7,4050000.0, 1,13, 8,30
13,43614898756.40922,151703.1275401932, 1, 6, 4,15,6394124.61992758,10, 1,20,60
61,15743207428.383959,88139.10953165221, 1, 1, 1,15,1282023.4113694867, 1, 1,20,15
134,3685071073.4325233,63564.01800854099, 1, 2, 4,15,156554.22484006523, 1, 1,20,15
170,273393721.45532674,348.4159749238097, 1, 2, 4,15,17476.39704006126, 1, 1,12,15
207,339560869.0695816,815.2532113832032, 1, 2, 3,15,22990.642799023623, 1, 1,10,15
244,664895467.8009144,1521.856143006317, 1, 2, 4,15,53038.631142310165, 1, 1,20,15
281,2407221015.106824,59938.60262432081, 1, 1, 5,15,81951.81706819107, 1, 1,19,15
318,0.0,0.0, 1, 1, 1,15,0.0, 1, 1, 1,15
355,10310294493.051695,18561.32405820678, 1, 2, 4,15,724774.895203776, 1, 1,18,15
403,10310294493.051695,18561.32405820678, 1, 2, 4,15,724774.895203776, 1, 1,18,15
476,5569688622.066177,7098.072629279515, 1, 2, 4,15,356036.3026282215, 1, 1,12,15
513,0.0,0.0, 1, 1, 1,15,0.0, 1, 1, 1,15
562,1667677506.6702983,0.0, 1, 1, 1,15,149964.16718170335, 4,16,15,60
1046,0.0,0.0, 1, 1, 1,15,0.0, 1, 1, 1,15
1096,14483443009.603579,0.0, 1, 1, 1,15,1836965.1560767512,10, 2,13,60
1134,783728505.6672709,0.0, 1, 1,11,30,1148223.5808754158,12, 8, 6,15
1326,7251771232.649567,0.0, 1, 1, 1,15,4050000.0000000014, 1,28,10,30
1379,0.0,0.0, 1, 1, 1,15,0.0, 1, 1, 1,15
End of Data
 Number of Records Written=          99
