Program Version,EnergyPlus, Version 22.2.0-c249759bad, YMD=2023.09.01 20:42
1,5,Environment Title[],Latitude[deg],Longitude[deg],Time Zone[],Elevation[m]
2,8,Day of Simulation[],Month[],Day of Month[],DST Indicator[1=yes 0=no],Hour[],StartMinute[],EndMinute[],DayType
3,5,Cumulative Day of Simulation[],Month[],Day of Month[],DST Indicator[1=yes 0=no],DayType  ! When Daily Report Variables Requested
4,2,Cumulative Days of Simulation[],Month[]  ! When Monthly Report Variables Requested
5,1,Cumulative Days of Simulation[] ! When Run Period Report Variables Requested
6,1,Calendar Year of Simulation[] ! When Annual Report Variables Requested
581,11,LIVING,AFN Zone Infiltration Air Change Rate [ach] !RunPeriod [Value,Min,Month,Day,Hour,Minute,Max,Month,Day,Hour,Minute]
582,11,ATTIC,AFN Zone Infiltration Air Change Rate [ach] !RunPeriod [Value,Min,Month,Day,Hour,Minute,Max,Month,Day,Hour,Minute]
583,11,CRAWLSPACE,AFN Zone Infiltration Air Change Rate [ach] !RunPeriod [Value,Min,Month,Day,Hour,Minute,Max,Month,Day,Hour,Minute]
1038,11,Facility,Facility Heating Setpoint Not Met Time [hr] !RunPeriod [Value,Min,Month,Day,Hour,Minute,Max,Month,Day,Hour,Minute]
1039,11,Facility,Facility Cooling Setpoint Not Met Time [hr] !RunPeriod [Value,Min,Month,Day,Hour,Minute,Max,Month,Day,Hour,Minute]
1115,11,DX_HEATING_COIL,Heating Coil Heating Energy [J] !RunPeriod [Value,Min,Month,Day,Hour,Minute,Max,Month,Day,Hour,Minute]
1128,11,DX_HEATING_COIL,Heating Coil Electricity Energy [J] !RunPeriod [Value,Min,Month,Day,Hour,Minute,Max,Month,Day,Hour,Minute]
1153,11,DX_HEATING_COIL,Heating Coil Defrost Electricity Energy [J] !RunPeriod [Value,Min,Month,Day,Hour,Minute,Max,Month,Day,Hour,Minute]
1154,11,DX_HEATING_COIL,Heating Coil Crankcase Heater Electricity Energy [J] !RunPeriod [Value,Min,Month,Day,Hour,Minute,Max,Month,Day,Hour,Minute]
1155,11,HEATING_RESISTANCE_BACKUP,Heating Coil Heating Energy [J] !RunPeriod [Value,Min,Month,Day,Hour,Minute,Max,Month,Day,Hour,Minute]
1156,11,HEATING_RESISTANCE_BACKUP,Heating Coil Electricity Energy [J] !RunPeriod [Value,Min,Month,Day,Hour,Minute,Max,Month,Day,Hour,Minute]
1292,11,WATER HEATER,Water Heater Heat Loss Energy [J] !RunPeriod [Value,Min,Month,Day,Hour,Minute,Max,Month,Day,Hour,Minute]
1306,11,WATER HEATER,Water Heater Heating Energy [J] !RunPeriod [Value,Min,Month,Day,Hour,Minute,Max,Month,Day,Hour,Minute]
1307,11,WATER HEATER,Water Heater Unmet Demand Heat Transfer Energy [J] !RunPeriod [Value,Min,Month,Day,Hour,Minute,Max,Month,Day,Hour,Minute]
1308,11,WATER HEATER,Water Heater Electricity Energy [J] !RunPeriod [Value,Min,Month,Day,Hour,Minute,Max,Month,Day,Hour,Minute]
13,11,Electricity:Facility [J] !RunPeriod [Value,Min,Month,Day,Hour,Minute,Max,Month,Day,Hour,Minute]
1134,11,Heating:Electricity [J] !RunPeriod [Value,Min,Month,Day,Hour,Minute,Max,Month,Day,Hour,Minute]
1096,11,Cooling:Electricity [J] !RunPeriod [Value,Min,Month,Day,Hour,Minute,Max,Month,Day,Hour,Minute]
562,11,Fans:Electricity [J] !RunPeriod [Value,Min,Month,Day,Hour,Minute,Max,Month,Day,Hour,Minute]
1379,11,Pumps:Electricity [J] !RunPeriod [Value,Min,Month,Day,Hour,Minute,Max,Month,Day,Hour,Minute]
1326,11,WaterSystems:Electricity [J] !RunPeriod [Value,Min,Month,Day,Hour,Minute,Max,Month,Day,Hour,Minute]
61,11,InteriorLights:Electricity [J] !RunPeriod [Value,Min,Month,Day,Hour,Minute,Max,Month,Day,Hour,Minute]
1046,11,ExteriorLights:Electricity [J] !RunPeriod [Value,Min,Month,Day,Hour,Minute,Max,Month,Day,Hour,Minute]
134,11,InteriorEquipment:Electricity [J] !RunPeriod [Value,Min,Month,Day,Hour,Minute,Max,Month,Day,Hour,Minute]
170,11,gas_dryer:InteriorEquipment:Electricity [J] !RunPeriod [Value,Min,Month,Day,Hour,Minute,Max,Month,Day,Hour,Minute]
207,11,clotheswasher:InteriorEquipment:Electricity [J] !RunPeriod [Value,Min,Month,Day,Hour,Minute,Max,Month,Day,Hour,Minute]
244,11,dishwasher:InteriorEquipment:Electricity [J] !RunPeriod [Value,Min,Month,Day,Hour,Minute,Max,Month,Day,Hour,Minute]
281,11,refrigerator:InteriorEquipment:Electricity [J] !RunPeriod [Value,Min,Month,Day,Hour,Minute,Max,Month,Day,Hour,Minute]
318,11,electric_mels:InteriorEquipment:Electricity [J] !RunPeriod [Value,Min,Month,Day,Hour,Minute,Max,Month,Day,Hour,Minute]
355,11,NaturalGas:Facility [J] !RunPeriod [Value,Min,Month,Day,Hour,Minute,Max,Month,Day,Hour,Minute]
403,11,InteriorEquipment:NaturalGas [J] !RunPeriod [Value,Min,Month,Day,Hour,Minute,Max,Month,Day,Hour,Minute]
476,11,gas_dryer:InteriorEquipment:NaturalGas [J] !RunPeriod [Value,Min,Month,Day,Hour,Minute,Max,Month,Day,Hour,Minute]
513,11,gas_mels:InteriorEquipment:NaturalGas [J] !RunPeriod [Value,Min,Month,Day,Hour,Minute,Max,Month,Day,Hour,Minute]
End of Data Dictionary
1,EXTREME_WINTER,  43.57,-116.21,  -7.00, 857.70
5,7
1038,0.25,0.0,12,15, 1,15,0.25,12,18, 6,15
1039,0.0,0.0,12,15, 1,15,0.0,12,15, 1,15
581,0.3957903205378471,0.245415908596671,12,16,23, 7,0.7822016765853056,12,19,10,60
582,3.6820839026360637,0.0,12,17,22,45,15.423240879572896,12,19,18,60
583,0.06920800556589375,0.00040739004562347504,12,16,23, 7,0.10245431601384065,12,19,10,60
1115,2199728209.904462,0.0,12,15,23, 3,4828701.459940951,12,16,11,30
1128,755515700.683435,0.0,12,15,23, 3,1585520.70327379,12,19,12,30
1153,20633982.304712225,0.0,12,15,23, 3,78281.83421419903,12,15, 6,45
1154,33103385.16084318,0.0,12,15, 6, 5,164862.83432730366,12,17,16,30
1155,159692870.7683862,0.0,12,15, 1,15,3268467.8912191694,12,18, 6,45
1156,159692870.7683862,0.0,12,15, 1,15,3268467.8912191694,12,18, 6,45
1292,-25299942.07440721,-39754.16647794755,12,18, 4,15,-4774.9340614005305,12,20,15,60
1306,257944717.88644442,0.0,12,15, 1,15,4050000.0,12,15, 8,45
1307,82271875.66298218,0.0,12,15, 1,15,13390436.280008577,12,15, 8,30
1308,257944717.88644442,0.0,12,15, 1,15,4050000.0,12,15, 8,45
13,1682017162.0247908,651286.8842165538,12,17,15,60,9488589.273912866,12,18, 6,60
61,301924526.02383536,88139.10953165221,12,15, 1,15,1282023.4113694867,12,15,20,15
134,70666020.44019976,63564.01800854099,12,15, 4,15,156554.22484006523,12,20,20,15
170,5241013.419656067,348.4159749238097,12,15, 4,15,17476.39704006126,12,20,12,15
207,6509451.13922267,815.2532113832032,12,15, 3,15,22990.642799023623,12,20,10,15
244,12749673.399825225,1521.856143006317,12,15, 4,15,53038.631142310165,12,20,20,15
281,46165882.481495745,59938.60262432081,12,15, 5,15,81951.81706819107,12,15,19,15
318,0.0,0.0,12,15, 1,15,0.0,12,15, 1,15
355,197687796.27748066,18561.32405820678,12,15, 4,15,724774.895203776,12,20,18,15
403,197687796.27748066,18561.32405820678,12,15, 4,15,724774.895203776,12,20,18,15
476,106772067.24485716,7098.072629279515,12,15, 4,15,356036.3026282215,12,20,12,15
513,0.0,0.0,12,15, 1,15,0.0,12,15, 1,15
562,82535958.75693382,10780.13315991449,12,17,17,15,169857.84498249978,12,15,10,45
1046,0.0,0.0,12,15, 1,15,0.0,12,15, 1,15
1096,0.0,0.0,12,15, 1,15,0.0,12,15, 1,15
1134,968945938.9173766,270571.24095339037,12,17,17,15,5492893.054627184,12,18, 6,15
1326,257944717.8864444,0.0,12,15, 1,15,4050000.0,12,15, 8,45
1379,0.0,0.0,12,15, 1,15,0.0,12,15, 1,15
1,EXTREME_SUMMER,  43.57,-116.21,  -7.00, 857.70
5,7
1038,0.0,0.0, 7,20, 1,15,0.0, 7,20, 1,15
1039,11.0,0.0, 7,20, 1,15,0.25, 7,21,17,45
581,0.13320344976334267,0.0, 7,25,23, 3,0.38882590871047656, 7,26,13,52
582,2.8411252397004905,0.0656020543547046, 7,21,21,17,8.619544914920837, 7,26,18,48
583,0.04430847374301422,0.0, 7,25,23, 3,0.09021227688000347, 7,26,19,18
1115,0.0,0.0, 7,20, 1, 7,0.0, 7,20, 1, 7
1128,0.0,0.0, 7,20, 1, 7,0.0, 7,20, 1, 7
1153,0.0,0.0, 7,20, 1, 7,0.0, 7,20, 1, 7
1154,0.0,0.0, 7,20, 1, 7,0.0, 7,20, 1, 7
1155,0.0,0.0, 7,20, 1, 7,0.0, 7,20, 1, 7
1156,0.0,0.0, 7,20, 1, 7,0.0, 7,20, 1, 7
1292,-22043150.01886337,-34317.693165695666, 7,25, 6,30,-2685.4485410328634, 7,20, 8,31
1306,198395568.73904926,0.0, 7,20, 1, 7,4050000.0, 7,23, 6,60
1307,48501568.93068708,0.0, 7,20, 1, 7,1921104.8664518588, 7,23, 6,45
1308,198395568.73904926,0.0, 7,20, 1, 7,4050000.0, 7,23, 6,60
13,1203804702.3864515,162513.52439213762, 7,20, 4,60,6985488.219608821, 7,22,17,30
61,301924526.02383536,88139.10953165221, 7,20, 1,15,1282023.4113694867, 7,20,20,15
134,70666020.44019976,63564.01800854099, 7,20, 4,15,156554.22484006523, 7,25,20,15
170,5241013.419656067,348.4159749238097, 7,20, 4,15,17476.39704006126, 7,25,12,15
207,6509451.13922267,815.2532113832032, 7,20, 3,15,22990.642799023623, 7,25,10,15
244,12749673.399825225,1521.856143006317, 7,20, 4,15,53038.631142310165, 7,25,20,15
281,46165882.481495745,59938.60262432081, 7,20, 5,15,81951.81706819107, 7,20,19,15
318,0.0,0.0, 7,20, 1,15,0.0, 7,20, 1,15
355,197687796.27748066,18561.32405820678, 7,20, 4,15,724774.895203776, 7,25,18,15
403,197687796.27748066,18561.32405820678, 7,20, 4,15,724774.895203776, 7,25,18,15
476,106772067.24485716,7098.072629279515, 7,20, 4,15,356036.3026282215, 7,25,12,15
513,0.0,0.0, 7,20, 1,15,0.0, 7,20, 1,15
562,57790631.834140494,0.0, 7,20, 5,60,169857.84498249978, 7,21,16,45
1046,0.0,0.0, 7,20, 1,15,0.0, 7,20, 1,15
1096,575027955.3492255,0.0, 7,20, 5,60,2042209.5639381695, 7,22,15,60
1134,0.0,0.0, 7,20, 1,15,0.0, 7,20, 1,15
1326,198395568.73904935,0.0, 7,20, 1,15,4050000.0, 7,20, 8,45
1379,0.0,0.0, 7,20, 1,15,0.0, 7,20, 1,15
1,ANNUAL,  43.57,-116.21,  -7.00, 857.70
5,365
1038,1.5,0.0, 1, 1, 1,15,0.25, 1, 1, 6,15
1039,171.75,0.0, 1, 1, 1,15,0.25, 3,15,14,15
581,0.24520877939459573,0.0, 6, 8,23, 3,1.2869743575910482, 5,21,16,49
582,3.581953170024831,0.0, 1, 4, 6, 5,33.22517228765554,10,17, 9,52
583,0.028555467169816173,0.0, 6,30, 6, 7,0.10663451331250613, 8, 3,19,47
1115,21500547885.828293,0.0, 1, 1,23, 5,5095447.901149252,12,25,10,30
1128,6892554600.305422,0.0, 1, 1,23, 5,1612376.6181956064,12,25,10,30
1153,320093285.4794097,0.0, 1, 1,23, 5,133993.39179422762, 1,19, 6,45
1154,2181105263.039342,0.0, 1, 1, 1, 7,180000.0, 1, 7,14,15
1155,637666199.019456,0.0, 1, 1,12, 3,3648560.4986960706,12,27, 6,45
1156,637666199.019456,0.0, 1, 1,12, 3,3648560.4986960706,12,27, 6,45
1292,-1224184578.635682,-39786.05219864288, 4,26, 4,45,-1926.2027915780382, 4,30,10,31
1306,12251945111.713333,0.0, 1, 1, 1, 7,4050000.0, 1, 2, 8,45
1307,3630486135.1406503,0.0, 1, 1, 1, 7,14647321.824121714, 2, 6, 8,30
1308,12251945111.713333,0.0, 1, 1, 1, 7,4050000.0, 1, 2, 8,45
13,52526230198.56265,151703.1275401932, 3, 6, 4,15,9403479.581030894,12,27, 7,60
61,15743207428.383959,88139.10953165221, 1, 1, 1,15,1282023.4113694867, 1, 1,20,15
134,3685071073.4325233,63564.01800854099, 1, 2, 4,15,156554.22484006523, 1, 1,20,15
170,273393721.45532674,348.4159749238097, 1, 2, 4,15,17476.39704006126, 1, 1,12,15
207,339560869.0695816,815.2532113832032, 1, 2, 3,15,22990.642799023623, 1, 1,10,15
244,664895467.8009144,1521.856143006317, 1, 2, 4,15,53038.631142310165, 1, 1,20,15
281,2407221015.106824,59938.60262432081, 1, 1, 5,15,81951.81706819107, 1, 1,19,15
318,0.0,0.0, 1, 1, 1,15,0.0, 1, 1, 1,15
355,10310294493.051695,18561.32405820678, 1, 2, 4,15,724774.895203776, 1, 1,18,15
403,10310294493.051695,18561.32405820678, 1, 2, 4,15,724774.895203776, 1, 1,18,15
476,5569688622.066177,7098.072629279515, 1, 2, 4,15,356036.3026282215, 1, 1,12,15
513,0.0,0.0, 1, 1, 1,15,0.0, 1, 1, 1,15
562,1774777274.1548064,0.0, 1, 7,12,60,169857.84498249978, 1, 1, 1,15
1046,0.0,0.0, 1, 1, 1,15,0.0, 1, 1, 1,15
1096,9039809963.03238,0.0, 1, 1, 1,15,2065692.5891591453, 7,18,14,60
1134,10031419347.843666,0.0, 2, 7,14,60,5738000.239736015,12,27, 6,15
1326,12251945111.713339,0.0, 1, 1, 1,15,4050000.0000000014, 8,19, 9,45
1379,0.0,0.0, 1, 1, 1,15,0.0, 1, 1, 1,15
End of Data
 Number of Records Written=          99
