Program Version,EnergyPlus, Version 22.2.0-c249759bad, YMD=2023.09.01 15:53
1,5,Environment Title[],Latitude[deg],Longitude[deg],Time Zone[],Elevation[m]
2,8,Day of Simulation[],Month[],Day of Month[],DST Indicator[1=yes 0=no],Hour[],StartMinute[],EndMinute[],DayType
3,5,Cumulative Day of Simulation[],Month[],Day of Month[],DST Indicator[1=yes 0=no],DayType  ! When Daily Report Variables Requested
4,2,Cumulative Days of Simulation[],Month[]  ! When Monthly Report Variables Requested
5,1,Cumulative Days of Simulation[] ! When Run Period Report Variables Requested
6,1,Calendar Year of Simulation[] ! When Annual Report Variables Requested
581,11,LIVING,AFN Zone Infiltration Air Change Rate [ach] !RunPeriod [Value,Min,Month,Day,Hour,Minute,Max,Month,Day,Hour,Minute]
582,11,ATTIC,AFN Zone Infiltration Air Change Rate [ach] !RunPeriod [Value,Min,Month,Day,Hour,Minute,Max,Month,Day,Hour,Minute]
583,11,CRAWLSPACE,AFN Zone Infiltration Air Change Rate [ach] !RunPeriod [Value,Min,Month,Day,Hour,Minute,Max,Month,Day,Hour,Minute]
1038,11,Facility,Facility Heating Setpoint Not Met Time [hr] !RunPeriod [Value,Min,Month,Day,Hour,Minute,Max,Month,Day,Hour,Minute]
1039,11,Facility,Facility Cooling Setpoint Not Met Time [hr] !RunPeriod [Value,Min,Month,Day,Hour,Minute,Max,Month,Day,Hour,Minute]
1115,11,DX_HEATING_COIL,Heating Coil Heating Energy [J] !RunPeriod [Value,Min,Month,Day,Hour,Minute,Max,Month,Day,Hour,Minute]
1128,11,DX_HEATING_COIL,Heating Coil Electricity Energy [J] !RunPeriod [Value,Min,Month,Day,Hour,Minute,Max,Month,Day,Hour,Minute]
1153,11,DX_HEATING_COIL,Heating Coil Defrost Electricity Energy [J] !RunPeriod [Value,Min,Month,Day,Hour,Minute,Max,Month,Day,Hour,Minute]
1154,11,DX_HEATING_COIL,Heating Coil Crankcase Heater Electricity Energy [J] !RunPeriod [Value,Min,Month,Day,Hour,Minute,Max,Month,Day,Hour,Minute]
1155,11,HEATING_RESISTANCE_BACKUP,Heating Coil Heating Energy [J] !RunPeriod [Value,Min,Month,Day,Hour,Minute,Max,Month,Day,Hour,Minute]
1156,11,HEATING_RESISTANCE_BACKUP,Heating Coil Electricity Energy [J] !RunPeriod [Value,Min,Month,Day,Hour,Minute,Max,Month,Day,Hour,Minute]
1292,11,WATER HEATER,Water Heater Heat Loss Energy [J] !RunPeriod [Value,Min,Month,Day,Hour,Minute,Max,Month,Day,Hour,Minute]
1306,11,WATER HEATER,Water Heater Heating Energy [J] !RunPeriod [Value,Min,Month,Day,Hour,Minute,Max,Month,Day,Hour,Minute]
1307,11,WATER HEATER,Water Heater Unmet Demand Heat Transfer Energy [J] !RunPeriod [Value,Min,Month,Day,Hour,Minute,Max,Month,Day,Hour,Minute]
1308,11,WATER HEATER,Water Heater Electricity Energy [J] !RunPeriod [Value,Min,Month,Day,Hour,Minute,Max,Month,Day,Hour,Minute]
13,11,Electricity:Facility [J] !RunPeriod [Value,Min,Month,Day,Hour,Minute,Max,Month,Day,Hour,Minute]
1134,11,Heating:Electricity [J] !RunPeriod [Value,Min,Month,Day,Hour,Minute,Max,Month,Day,Hour,Minute]
1096,11,Cooling:Electricity [J] !RunPeriod [Value,Min,Month,Day,Hour,Minute,Max,Month,Day,Hour,Minute]
562,11,Fans:Electricity [J] !RunPeriod [Value,Min,Month,Day,Hour,Minute,Max,Month,Day,Hour,Minute]
1379,11,Pumps:Electricity [J] !RunPeriod [Value,Min,Month,Day,Hour,Minute,Max,Month,Day,Hour,Minute]
1326,11,WaterSystems:Electricity [J] !RunPeriod [Value,Min,Month,Day,Hour,Minute,Max,Month,Day,Hour,Minute]
61,11,InteriorLights:Electricity [J] !RunPeriod [Value,Min,Month,Day,Hour,Minute,Max,Month,Day,Hour,Minute]
1046,11,ExteriorLights:Electricity [J] !RunPeriod [Value,Min,Month,Day,Hour,Minute,Max,Month,Day,Hour,Minute]
134,11,InteriorEquipment:Electricity [J] !RunPeriod [Value,Min,Month,Day,Hour,Minute,Max,Month,Day,Hour,Minute]
170,11,gas_dryer:InteriorEquipment:Electricity [J] !RunPeriod [Value,Min,Month,Day,Hour,Minute,Max,Month,Day,Hour,Minute]
207,11,clotheswasher:InteriorEquipment:Electricity [J] !RunPeriod [Value,Min,Month,Day,Hour,Minute,Max,Month,Day,Hour,Minute]
244,11,dishwasher:InteriorEquipment:Electricity [J] !RunPeriod [Value,Min,Month,Day,Hour,Minute,Max,Month,Day,Hour,Minute]
281,11,refrigerator:InteriorEquipment:Electricity [J] !RunPeriod [Value,Min,Month,Day,Hour,Minute,Max,Month,Day,Hour,Minute]
318,11,electric_mels:InteriorEquipment:Electricity [J] !RunPeriod [Value,Min,Month,Day,Hour,Minute,Max,Month,Day,Hour,Minute]
355,11,NaturalGas:Facility [J] !RunPeriod [Value,Min,Month,Day,Hour,Minute,Max,Month,Day,Hour,Minute]
403,11,InteriorEquipment:NaturalGas [J] !RunPeriod [Value,Min,Month,Day,Hour,Minute,Max,Month,Day,Hour,Minute]
476,11,gas_dryer:InteriorEquipment:NaturalGas [J] !RunPeriod [Value,Min,Month,Day,Hour,Minute,Max,Month,Day,Hour,Minute]
513,11,gas_mels:InteriorEquipment:NaturalGas [J] !RunPeriod [Value,Min,Month,Day,Hour,Minute,Max,Month,Day,Hour,Minute]
End of Data Dictionary
1,EXTREME_WINTER,  32.90, -97.03,  -6.00, 170.70
5,7
1038,0.25,0.0,12,22, 1,15,0.25,12,25, 6,15
1039,0.0,0.0,12,22, 1,15,0.0,12,22, 1,15
581,0.34453452429794545,0.13154992283806666,12,28,24,15,0.7493231548799454,12,25,10,15
582,5.0295498038964315,0.0,12,26,20, 5,11.6898732918153,12,25,10,60
583,0.020759399234770617,0.00023690463776912808,12,28,23,60,0.09794350203150752,12,25, 6, 5
1115,752054222.385234,0.0,12,22, 1,15,4762143.386265393,12,26, 6,45
1128,227925064.33382407,0.0,12,22, 1,15,1561871.2499587776,12,26, 6,45
1153,7634783.261932172,0.0,12,22, 1,15,71786.8621333013,12,26, 6,45
1154,78291124.10473932,0.0,12,22, 1,50,180000.0,12,22, 1,15
1155,2051189.737052503,0.0,12,22, 1,15,1025594.8685262515,12,26, 6, 5
1156,2051189.737052503,0.0,12,22, 1,15,1025594.8685262515,12,26, 6, 5
1292,-25014261.155088432,-39735.94763746841,12,25, 5,45,-5693.832185077217,12,26,18,15
1306,199615017.78354087,0.0,12,22, 1,15,9851647.94222123,12,28,19,60
1307,3109681.4339772076,0.0,12,22, 1,15,3109681.4339772076,12,28,19,60
1308,199615017.78354087,0.0,12,22, 1,15,9851647.94222123,12,28,19,60
13,910656676.1879857,158004.1357532369,12,22, 2,15,11394354.60212368,12,28,19,60
61,301924526.02383536,88139.10953165221,12,22, 1,15,1282023.4113694867,12,22,20,15
134,70666020.44019976,63564.01800854099,12,22, 4,15,156554.22484006523,12,27,20,15
170,5241013.419656067,348.4159749238097,12,22, 4,15,17476.39704006126,12,27,12,15
207,6509451.13922267,815.2532113832032,12,22, 3,15,22990.642799023623,12,27,10,15
244,12749673.399825225,1521.856143006317,12,22, 4,15,53038.631142310165,12,27,20,15
281,46165882.481495745,59938.60262432081,12,22, 5,15,81951.81706819107,12,22,19,15
318,0.0,0.0,12,22, 1,15,0.0,12,22, 1,15
355,197687796.27748066,18561.32405820678,12,22, 4,15,724774.895203776,12,27,18,15
403,197687796.27748066,18561.32405820678,12,22, 4,15,724774.895203776,12,27,18,15
476,106772067.24485716,7098.072629279515,12,22, 4,15,356036.3026282215,12,27,12,15
513,0.0,0.0,12,22, 1,15,0.0,12,22, 1,15
562,22259809.45192709,0.0,12,22, 1,15,162465.94397853836,12,26, 6,45
1046,0.0,0.0,12,22, 1,15,0.0,12,22, 1,15
1096,289141.05093451747,0.0,12,22, 1,15,75446.76614693535,12,26,17,30
1134,315902161.43754804,0.0,12,22, 1,60,2540837.2285100697,12,26, 6,15
1326,199615017.78354087,0.0,12,22, 1,15,9851647.94222123,12,28,19,60
1379,0.0,0.0,12,22, 1,15,0.0,12,22, 1,15
1,EXTREME_SUMMER,  32.90, -97.03,  -6.00, 170.70
5,7
1038,0.0,0.0, 8, 3, 1,15,0.0, 8, 3, 1,15
1039,43.0,0.0, 8, 3, 1,15,0.25, 8, 3,14,60
581,0.20579978372330235,0.0, 8, 8,21,60,0.6772939731379026, 8, 4,18,52
582,4.452752671128796,0.20831000889515805, 8, 9, 9,47,11.514888746422015, 8, 4,18,48
583,0.061300418654205394,0.0, 8, 8,23, 3,0.0968176388368465, 8, 4,19,20
1115,0.0,0.0, 8, 3, 1,15,0.0, 8, 3, 1,15
1128,0.0,0.0, 8, 3, 1,15,0.0, 8, 3, 1,15
1153,0.0,0.0, 8, 3, 1,15,0.0, 8, 3, 1,15
1154,0.0,0.0, 8, 3, 1,15,0.0, 8, 3, 1,15
1155,0.0,0.0, 8, 3, 1,15,0.0, 8, 3, 1,15
1156,0.0,0.0, 8, 3, 1,15,0.0, 8, 3, 1,15
1292,-21826310.817134432,-34343.731033837685, 8, 7, 7,15,-2590.9288601773555, 8, 7,11,60
1306,133422857.03619732,0.0, 8, 3, 1,15,4490802.226895326, 8, 5, 7,60
1307,0.0,0.0, 8, 3, 1,15,0.0, 8, 3, 1,15
1308,133422857.03619732,0.0, 8, 3, 1,15,4490802.226895326, 8, 5, 7,60
13,1431160412.1909597,628546.6682968836, 8, 9, 4,60,11018818.555396313, 8, 9,19,60
61,301924526.02383536,88139.10953165221, 8, 3, 1,15,1282023.4113694867, 8, 3,20,15
134,70666020.44019976,63564.01800854099, 8, 3, 4,15,156554.22484006523, 8, 8,20,15
170,5241013.419656067,348.4159749238097, 8, 3, 4,15,17476.39704006126, 8, 8,12,15
207,6509451.13922267,815.2532113832032, 8, 3, 3,15,22990.642799023623, 8, 8,10,15
244,12749673.399825225,1521.856143006317, 8, 3, 4,15,53038.631142310165, 8, 8,20,15
281,46165882.481495745,59938.60262432081, 8, 3, 5,15,81951.81706819107, 8, 3,19,15
318,0.0,0.0, 8, 3, 1,15,0.0, 8, 3, 1,15
355,197687796.27748066,18561.32405820678, 8, 3, 4,15,724774.895203776, 8, 8,18,15
403,197687796.27748066,18561.32405820678, 8, 3, 4,15,724774.895203776, 8, 8,18,15
476,106772067.24485716,7098.072629279515, 8, 3, 4,15,356036.3026282215, 8, 8,12,15
513,0.0,0.0, 8, 3, 1,15,0.0, 8, 3, 1,15
562,76324083.91353011,38894.66525413825, 8, 9, 5,60,166265.0861825164, 8, 3,14,30
1046,0.0,0.0, 8, 3, 1,15,0.0, 8, 3, 1,15
1096,848822924.7771982,375087.719166723, 8, 4, 5,60,2124586.778556356, 8, 3,15,60
1134,0.0,0.0, 8, 3, 1,15,0.0, 8, 3, 1,15
1326,133422857.03619729,0.0, 8, 3, 1,15,7875413.668887639, 8, 9,19,60
1379,0.0,0.0, 8, 3, 1,15,0.0, 8, 3, 1,15
1,ANNUAL,  32.90, -97.03,  -6.00, 170.70
5,365
1038,0.75,0.0, 1, 1, 1,15,0.25, 1,22, 6,15
1039,534.25,0.0, 1, 1, 1,15,0.25, 1,23,16,30
581,0.29473767120023475,0.0, 5,12,23, 3,1.1597600762658056, 3, 4, 2,48
582,5.255785372336734,0.0, 1, 3, 9,52,31.404437379572116, 3, 4, 2,33
583,0.03313977398766726,0.0, 8, 8,23, 3,0.1079554250269452, 5,28,12, 5
1115,4919937971.611082,0.0, 1, 1, 1,15,5007575.72477458, 1,10, 6,60
1128,1497690092.4758182,0.0, 1, 1, 1,15,1569319.7919378174, 1,10, 6,60
1153,49619261.40526422,0.0, 1, 1, 1,15,86840.45743609223, 1,17, 6,45
1154,1016617217.3687354,0.0, 1, 1, 6, 5,180000.0, 1, 1, 1,15
1155,16883101.047500376,0.0, 1, 1, 1,15,1025594.8685262515, 1,10, 6, 5
1156,16883101.047500376,0.0, 1, 1, 1,15,1025594.8685262515, 1,10, 6, 5
1292,-1183484279.835693,-39823.438975366735, 3,20, 2,15,-2419.3913182496835, 6,14,14,44
1306,8846510317.69573,0.0, 1, 1, 1,15,10477334.139336115, 3,19,19,60
1307,72182020.23312221,0.0, 1, 1, 1,15,3433084.8499129564, 1,29,19,60
1308,8846510317.69573,0.0, 1, 1, 1,15,10477334.139336115, 3,19,19,60
13,50615823416.84915,151703.1275401932, 1,25, 4,15,13679813.099542491, 6,18,19,60
61,15743207428.383959,88139.10953165221, 1, 1, 1,15,1282023.4113694867, 1, 1,20,15
134,3685071073.4325233,63564.01800854099, 1, 2, 4,15,156554.22484006523, 1, 1,20,15
170,273393721.45532674,348.4159749238097, 1, 2, 4,15,17476.39704006126, 1, 1,12,15
207,339560869.0695816,815.2532113832032, 1, 2, 3,15,22990.642799023623, 1, 1,10,15
244,664895467.8009144,1521.856143006317, 1, 2, 4,15,53038.631142310165, 1, 1,20,15
281,2407221015.106824,59938.60262432081, 1, 1, 5,15,81951.81706819107, 1, 1,19,15
318,0.0,0.0, 1, 1, 1,15,0.0, 1, 1, 1,15
355,10310294493.051695,18561.32405820678, 1, 2, 4,15,724774.895203776, 1, 1,18,15
403,10310294493.051695,18561.32405820678, 1, 2, 4,15,724774.895203776, 1, 1,18,15
476,5569688622.066177,7098.072629279515, 1, 2, 4,15,356036.3026282215, 1, 1,12,15
513,0.0,0.0, 1, 1, 1,15,0.0, 1, 1, 1,15
562,1965823808.8357341,0.0, 1, 1, 1,15,166265.08618251642, 9,17,17,15
1046,0.0,0.0, 1, 1, 1,15,0.0, 1, 1, 1,15
1096,17794401116.202168,0.0, 1, 1, 1,15,2127253.599162685, 8,10,17,60
1134,2580809672.297319,0.0, 1, 2,14,45,2491237.463783988,12,26, 6,15
1326,8846510317.69572,0.0, 1, 1, 1,15,10540800.0, 5,14,19,60
1379,0.0,0.0, 1, 1, 1,15,0.0, 1, 1, 1,15
End of Data
 Number of Records Written=          99
