Program Version,EnergyPlus, Version 22.2.0-c249759bad, YMD=2023.09.01 20:48
1,5,Environment Title[],Latitude[deg],Longitude[deg],Time Zone[],Elevation[m]
2,8,Day of Simulation[],Month[],Day of Month[],DST Indicator[1=yes 0=no],Hour[],StartMinute[],EndMinute[],DayType
3,5,Cumulative Day of Simulation[],Month[],Day of Month[],DST Indicator[1=yes 0=no],DayType  ! When Daily Report Variables Requested
4,2,Cumulative Days of Simulation[],Month[]  ! When Monthly Report Variables Requested
5,1,Cumulative Days of Simulation[] ! When Run Period Report Variables Requested
6,1,Calendar Year of Simulation[] ! When Annual Report Variables Requested
581,11,LIVING,AFN Zone Infiltration Air Change Rate [ach] !RunPeriod [Value,Min,Month,Day,Hour,Minute,Max,Month,Day,Hour,Minute]
582,11,ATTIC,AFN Zone Infiltration Air Change Rate [ach] !RunPeriod [Value,Min,Month,Day,Hour,Minute,Max,Month,Day,Hour,Minute]
583,11,CRAWLSPACE,AFN Zone Infiltration Air Change Rate [ach] !RunPeriod [Value,Min,Month,Day,Hour,Minute,Max,Month,Day,Hour,Minute]
1038,11,Facility,Facility Heating Setpoint Not Met Time [hr] !RunPeriod [Value,Min,Month,Day,Hour,Minute,Max,Month,Day,Hour,Minute]
1039,11,Facility,Facility Cooling Setpoint Not Met Time [hr] !RunPeriod [Value,Min,Month,Day,Hour,Minute,Max,Month,Day,Hour,Minute]
1115,11,DX_HEATING_COIL,Heating Coil Heating Energy [J] !RunPeriod [Value,Min,Month,Day,Hour,Minute,Max,Month,Day,Hour,Minute]
1128,11,DX_HEATING_COIL,Heating Coil Electricity Energy [J] !RunPeriod [Value,Min,Month,Day,Hour,Minute,Max,Month,Day,Hour,Minute]
1153,11,DX_HEATING_COIL,Heating Coil Defrost Electricity Energy [J] !RunPeriod [Value,Min,Month,Day,Hour,Minute,Max,Month,Day,Hour,Minute]
1154,11,DX_HEATING_COIL,Heating Coil Crankcase Heater Electricity Energy [J] !RunPeriod [Value,Min,Month,Day,Hour,Minute,Max,Month,Day,Hour,Minute]
1155,11,HEATING_RESISTANCE_BACKUP,Heating Coil Heating Energy [J] !RunPeriod [Value,Min,Month,Day,Hour,Minute,Max,Month,Day,Hour,Minute]
1156,11,HEATING_RESISTANCE_BACKUP,Heating Coil Electricity Energy [J] !RunPeriod [Value,Min,Month,Day,Hour,Minute,Max,Month,Day,Hour,Minute]
1292,11,WATER HEATER,Water Heater Heat Loss Energy [J] !RunPeriod [Value,Min,Month,Day,Hour,Minute,Max,Month,Day,Hour,Minute]
1306,11,WATER HEATER,Water Heater Heating Energy [J] !RunPeriod [Value,Min,Month,Day,Hour,Minute,Max,Month,Day,Hour,Minute]
1307,11,WATER HEATER,Water Heater Unmet Demand Heat Transfer Energy [J] !RunPeriod [Value,Min,Month,Day,Hour,Minute,Max,Month,Day,Hour,Minute]
1308,11,WATER HEATER,Water Heater Electricity Energy [J] !RunPeriod [Value,Min,Month,Day,Hour,Minute,Max,Month,Day,Hour,Minute]
13,11,Electricity:Facility [J] !RunPeriod [Value,Min,Month,Day,Hour,Minute,Max,Month,Day,Hour,Minute]
1134,11,Heating:Electricity [J] !RunPeriod [Value,Min,Month,Day,Hour,Minute,Max,Month,Day,Hour,Minute]
1096,11,Cooling:Electricity [J] !RunPeriod [Value,Min,Month,Day,Hour,Minute,Max,Month,Day,Hour,Minute]
562,11,Fans:Electricity [J] !RunPeriod [Value,Min,Month,Day,Hour,Minute,Max,Month,Day,Hour,Minute]
1379,11,Pumps:Electricity [J] !RunPeriod [Value,Min,Month,Day,Hour,Minute,Max,Month,Day,Hour,Minute]
1326,11,WaterSystems:Electricity [J] !RunPeriod [Value,Min,Month,Day,Hour,Minute,Max,Month,Day,Hour,Minute]
61,11,InteriorLights:Electricity [J] !RunPeriod [Value,Min,Month,Day,Hour,Minute,Max,Month,Day,Hour,Minute]
1046,11,ExteriorLights:Electricity [J] !RunPeriod [Value,Min,Month,Day,Hour,Minute,Max,Month,Day,Hour,Minute]
134,11,InteriorEquipment:Electricity [J] !RunPeriod [Value,Min,Month,Day,Hour,Minute,Max,Month,Day,Hour,Minute]
170,11,gas_dryer:InteriorEquipment:Electricity [J] !RunPeriod [Value,Min,Month,Day,Hour,Minute,Max,Month,Day,Hour,Minute]
207,11,clotheswasher:InteriorEquipment:Electricity [J] !RunPeriod [Value,Min,Month,Day,Hour,Minute,Max,Month,Day,Hour,Minute]
244,11,dishwasher:InteriorEquipment:Electricity [J] !RunPeriod [Value,Min,Month,Day,Hour,Minute,Max,Month,Day,Hour,Minute]
281,11,refrigerator:InteriorEquipment:Electricity [J] !RunPeriod [Value,Min,Month,Day,Hour,Minute,Max,Month,Day,Hour,Minute]
318,11,electric_mels:InteriorEquipment:Electricity [J] !RunPeriod [Value,Min,Month,Day,Hour,Minute,Max,Month,Day,Hour,Minute]
355,11,NaturalGas:Facility [J] !RunPeriod [Value,Min,Month,Day,Hour,Minute,Max,Month,Day,Hour,Minute]
403,11,InteriorEquipment:NaturalGas [J] !RunPeriod [Value,Min,Month,Day,Hour,Minute,Max,Month,Day,Hour,Minute]
476,11,gas_dryer:InteriorEquipment:NaturalGas [J] !RunPeriod [Value,Min,Month,Day,Hour,Minute,Max,Month,Day,Hour,Minute]
513,11,gas_mels:InteriorEquipment:NaturalGas [J] !RunPeriod [Value,Min,Month,Day,Hour,Minute,Max,Month,Day,Hour,Minute]
End of Data Dictionary
1,EXTREME_WINTER,  32.83,-115.58,  -8.00, -16.00
5,7
1038,0.0,0.0, 1,13, 1,15,0.0, 1,13, 1,15
1039,8.0,0.0, 1,13, 1,15,0.25, 1,15,19,30
581,0.1970697074899189,0.07172900422401451, 1,14,13,18,0.6300977385847575, 1,16,13,60
582,2.9362236990330204,0.0, 1,13, 5,52,24.510307085347872, 1,16,13,60
583,0.010253533995045128,0.00011966972899368568, 1,14,13,47,0.09814116436060367, 1,16,14,16
1115,68603796.30512251,0.0, 1,13, 1, 7,1905751.614811604, 1,18, 6, 5
1128,21173127.815249287,0.0, 1,13, 1, 7,542205.2420718618, 1,18, 6, 5
1153,485027.56808408967,0.0, 1,13, 1, 7,23663.184668988502, 1,18, 6, 5
1154,48336540.06696962,0.0, 1,13,10, 1,180000.0, 1,13, 2,30
1155,0.0,0.0, 1,13, 1, 7,0.0, 1,13, 1, 7
1156,0.0,0.0, 1,13, 1, 7,0.0, 1,13, 1, 7
1292,-23230254.463497896,-39485.80816258279, 1,19, 5,45,-2365.0541626440827, 1,17,10, 1
1306,284321836.7264464,0.0, 1,13, 1, 7,4050000.0, 1,16,21,15
1307,103912911.4335805,0.0, 1,13, 1, 7,7817323.592348837, 1,16,20,60
1308,284321836.7264464,0.0, 1,13, 1, 7,4050000.0, 1,16,21,15
13,812346697.8529888,151703.1275401932, 1,16, 4,15,5789564.429100617, 1,18,21,45
61,301924526.02383536,88139.10953165221, 1,13, 1,15,1282023.4113694867, 1,13,20,15
134,70666020.44019976,63564.01800854099, 1,13, 4,15,156554.22484006523, 1,18,20,15
170,5241013.419656067,348.4159749238097, 1,13, 4,15,17476.39704006126, 1,18,12,15
207,6509451.13922267,815.2532113832032, 1,13, 3,15,22990.642799023623, 1,18,10,15
244,12749673.399825225,1521.856143006317, 1,13, 4,15,53038.631142310165, 1,18,20,15
281,46165882.481495745,59938.60262432081, 1,13, 5,15,81951.81706819107, 1,13,19,15
318,0.0,0.0, 1,13, 1,15,0.0, 1,13, 1,15
355,197687796.27748066,18561.32405820678, 1,13, 4,15,724774.895203776, 1,18,18,15
403,197687796.27748066,18561.32405820678, 1,13, 4,15,724774.895203776, 1,18,18,15
476,106772067.24485716,7098.072629279515, 1,13, 4,15,356036.3026282215, 1,18,12,15
513,0.0,0.0, 1,13, 1,15,0.0, 1,13, 1,15
562,11466107.919642756,0.0, 1,13, 1,15,124174.28765073852, 1,16,14,45
1046,0.0,0.0, 1,13, 1,15,0.0, 1,13, 1,15
1096,73973511.29256208,0.0, 1,13, 1,15,1028734.9281984633, 1,16,14,45
1134,69994695.45030296,0.0, 1,13,10,15,765268.6246801435, 1,18, 6,15
1326,284321836.7264465,0.0, 1,13, 1,15,4050000.0, 1,13, 9,60
1379,0.0,0.0, 1,13, 1,15,0.0, 1,13, 1,15
1,EXTREME_SUMMER,  32.83,-115.58,  -8.00, -16.00
5,7
1038,0.0,0.0, 8,17, 1,15,0.0, 8,17, 1,15
1039,67.0,0.0, 8,17, 1,15,0.25, 8,17,12,45
581,0.11100323964007586,0.0, 8,17, 6,60,0.6540176739405418, 8,21,17,50
582,3.654186219195244,0.008579660120078356, 8,23,19, 8,15.23727712057951, 8,21,17,47
583,0.06600577128082016,0.0004976173967409833, 8,20,23, 3,0.09868436838397501, 8,21,17,47
1115,0.0,0.0, 8,17, 1, 7,0.0, 8,17, 1, 7
1128,0.0,0.0, 8,17, 1, 7,0.0, 8,17, 1, 7
1153,0.0,0.0, 8,17, 1, 7,0.0, 8,17, 1, 7
1154,0.0,0.0, 8,17, 1, 7,0.0, 8,17, 1, 7
1155,0.0,0.0, 8,17, 1, 7,0.0, 8,17, 1, 7
1156,0.0,0.0, 8,17, 1, 7,0.0, 8,17, 1, 7
1292,-21461205.8590144,-34347.889847796534, 8,23, 6,45,-2840.732956228876, 8,21,16,45
1306,176632952.78461495,0.0, 8,17, 1, 7,2552186.429625783, 8,22, 8,45
1307,32395920.13369016,0.0, 8,17, 1, 7,1893025.701862114, 8,21,19,45
1308,176632952.78461495,0.0, 8,17, 1, 7,2552186.429625783, 8,22, 8,45
13,1624216199.5854893,543107.0440481245, 8,23, 4,60,7675300.99989007, 8,20,21,15
61,301924526.02383536,88139.10953165221, 8,17, 1,15,1282023.4113694867, 8,17,20,15
134,70666020.44019976,63564.01800854099, 8,17, 4,15,156554.22484006523, 8,22,20,15
170,5241013.419656067,348.4159749238097, 8,17, 4,15,17476.39704006126, 8,22,12,15
207,6509451.13922267,815.2532113832032, 8,17, 3,15,22990.642799023623, 8,22,10,15
244,12749673.399825225,1521.856143006317, 8,17, 4,15,53038.631142310165, 8,22,20,15
281,46165882.481495745,59938.60262432081, 8,17, 5,15,81951.81706819107, 8,17,19,15
318,0.0,0.0, 8,17, 1,15,0.0, 8,17, 1,15
355,197687796.27748066,18561.32405820678, 8,17, 4,15,724774.895203776, 8,22,18,15
403,197687796.27748066,18561.32405820678, 8,17, 4,15,724774.895203776, 8,22,18,15
476,106772067.24485716,7098.072629279515, 8,17, 4,15,356036.3026282215, 8,22,12,15
513,0.0,0.0, 8,17, 1,15,0.0, 8,17, 1,15
562,83286228.09853208,35071.19612519786, 8,17, 5,60,169211.2700381057, 8,21,16,30
1046,0.0,0.0, 8,17, 1,15,0.0, 8,17, 1,15
1096,991706472.23831,346919.59091414127, 8,17, 5,60,2338265.3697375637, 8,19,16,60
1134,0.0,0.0, 8,17, 1,15,0.0, 8,17, 1,15
1326,176632952.78461492,0.0, 8,17, 1,15,4050000.0, 8,17, 9,60
1379,0.0,0.0, 8,17, 1,15,0.0, 8,17, 1,15
1,ANNUAL,  32.83,-115.58,  -8.00, -16.00
5,365
1038,0.0,0.0, 1, 1, 1,15,0.0, 1, 1, 1,15
1039,1280.0,0.0, 1, 1, 1,15,0.25, 1,22,13,30
581,0.16380933526422228,0.0, 4,27,23, 3,1.3378596912458072, 2, 3,16,60
582,3.715889739962528,0.0, 1, 2,22,50,40.48226412336654, 5, 6,21,60
583,0.041671093303676576,0.0, 6,25,23, 3,0.11954989763811431, 8,27,16,48
1115,249027350.53195992,0.0, 1, 1, 1, 5,2080097.019026346,12,22, 6,45
1128,77296895.74052145,0.0, 1, 1, 1, 5,668927.4277744475,12,22, 6,45
1153,1766363.4009594682,0.0, 1, 1, 1, 5,23203.525894666935, 1,18, 6, 5
1154,501519948.96506095,0.0, 1, 1, 9, 3,180000.0, 1, 1, 2,30
1155,443373.9058625207,0.0, 1, 1, 1, 5,167203.37983778218,12,21, 6, 5
1156,443373.9058625207,0.0, 1, 1, 1, 5,167203.37983778218,12,21, 6, 5
1292,-1150188039.3060443,-39391.17227755557, 2,15, 5,15,-1618.2515246302505, 2,17,10, 1
1306,11862163590.578894,0.0, 1, 1, 1, 5,4050000.0, 1, 2,21,45
1307,3306433426.2121983,0.0, 1, 1, 1, 5,8400643.700922206, 2, 3,19,45
1308,11862163590.578894,0.0, 1, 1, 1, 5,4050000.0, 1, 2,21,45
13,61769505253.62428,151703.1275401932, 1,12, 4,15,7799373.354376263, 8,24,21,15
61,15743207428.383959,88139.10953165221, 1, 1, 1,15,1282023.4113694867, 1, 1,20,15
134,3685071073.4325233,63564.01800854099, 1, 2, 4,15,156554.22484006523, 1, 1,20,15
170,273393721.45532674,348.4159749238097, 1, 2, 4,15,17476.39704006126, 1, 1,12,15
207,339560869.0695816,815.2532113832032, 1, 2, 3,15,22990.642799023623, 1, 1,10,15
244,664895467.8009144,1521.856143006317, 1, 2, 4,15,53038.631142310165, 1, 1,20,15
281,2407221015.106824,59938.60262432081, 1, 1, 5,15,81951.81706819107, 1, 1,19,15
318,0.0,0.0, 1, 1, 1,15,0.0, 1, 1, 1,15
355,10310294493.051695,18561.32405820678, 1, 2, 4,15,724774.895203776, 1, 1,18,15
403,10310294493.051695,18561.32405820678, 1, 2, 4,15,724774.895203776, 1, 1,18,15
476,5569688622.066177,7098.072629279515, 1, 2, 4,15,356036.3026282215, 1, 1,12,15
513,0.0,0.0, 1, 1, 1,15,0.0, 1, 1, 1,15
562,2597378411.5583653,0.0, 1, 1, 1,15,169211.2700381057, 6,10,16,30
1046,0.0,0.0, 1, 1, 1,15,0.0, 1, 1, 1,15
1096,27300658167.656208,0.0, 1, 1, 1,15,2544780.783077004, 6,29,14,60
1134,581026582.0124046,0.0, 1, 1, 9,15,1040963.3071610695,12,22, 6,15
1326,11862163590.578901,0.0, 1, 1, 1,15,4050000.0000000014, 1, 3,11,30
1379,0.0,0.0, 1, 1, 1,15,0.0, 1, 1, 1,15
End of Data
 Number of Records Written=          99
