Program Version,EnergyPlus, Version 22.2.0-c249759bad, YMD=2023.09.01 20:52
1,5,Environment Title[],Latitude[deg],Longitude[deg],Time Zone[],Elevation[m]
2,8,Day of Simulation[],Month[],Day of Month[],DST Indicator[1=yes 0=no],Hour[],StartMinute[],EndMinute[],DayType
3,5,Cumulative Day of Simulation[],Month[],Day of Month[],DST Indicator[1=yes 0=no],DayType  ! When Daily Report Variables Requested
4,2,Cumulative Days of Simulation[],Month[]  ! When Monthly Report Variables Requested
5,1,Cumulative Days of Simulation[] ! When Run Period Report Variables Requested
6,1,Calendar Year of Simulation[] ! When Annual Report Variables Requested
581,11,LIVING,AFN Zone Infiltration Air Change Rate [ach] !RunPeriod [Value,Min,Month,Day,Hour,Minute,Max,Month,Day,Hour,Minute]
582,11,ATTIC,AFN Zone Infiltration Air Change Rate [ach] !RunPeriod [Value,Min,Month,Day,Hour,Minute,Max,Month,Day,Hour,Minute]
583,11,CRAWLSPACE,AFN Zone Infiltration Air Change Rate [ach] !RunPeriod [Value,Min,Month,Day,Hour,Minute,Max,Month,Day,Hour,Minute]
1038,11,Facility,Facility Heating Setpoint Not Met Time [hr] !RunPeriod [Value,Min,Month,Day,Hour,Minute,Max,Month,Day,Hour,Minute]
1039,11,Facility,Facility Cooling Setpoint Not Met Time [hr] !RunPeriod [Value,Min,Month,Day,Hour,Minute,Max,Month,Day,Hour,Minute]
1115,11,DX_HEATING_COIL,Heating Coil Heating Energy [J] !RunPeriod [Value,Min,Month,Day,Hour,Minute,Max,Month,Day,Hour,Minute]
1128,11,DX_HEATING_COIL,Heating Coil Electricity Energy [J] !RunPeriod [Value,Min,Month,Day,Hour,Minute,Max,Month,Day,Hour,Minute]
1153,11,DX_HEATING_COIL,Heating Coil Defrost Electricity Energy [J] !RunPeriod [Value,Min,Month,Day,Hour,Minute,Max,Month,Day,Hour,Minute]
1154,11,DX_HEATING_COIL,Heating Coil Crankcase Heater Electricity Energy [J] !RunPeriod [Value,Min,Month,Day,Hour,Minute,Max,Month,Day,Hour,Minute]
1155,11,HEATING_RESISTANCE_BACKUP,Heating Coil Heating Energy [J] !RunPeriod [Value,Min,Month,Day,Hour,Minute,Max,Month,Day,Hour,Minute]
1156,11,HEATING_RESISTANCE_BACKUP,Heating Coil Electricity Energy [J] !RunPeriod [Value,Min,Month,Day,Hour,Minute,Max,Month,Day,Hour,Minute]
1292,11,WATER HEATER,Water Heater Heat Loss Energy [J] !RunPeriod [Value,Min,Month,Day,Hour,Minute,Max,Month,Day,Hour,Minute]
1306,11,WATER HEATER,Water Heater Heating Energy [J] !RunPeriod [Value,Min,Month,Day,Hour,Minute,Max,Month,Day,Hour,Minute]
1307,11,WATER HEATER,Water Heater Unmet Demand Heat Transfer Energy [J] !RunPeriod [Value,Min,Month,Day,Hour,Minute,Max,Month,Day,Hour,Minute]
1308,11,WATER HEATER,Water Heater Electricity Energy [J] !RunPeriod [Value,Min,Month,Day,Hour,Minute,Max,Month,Day,Hour,Minute]
13,11,Electricity:Facility [J] !RunPeriod [Value,Min,Month,Day,Hour,Minute,Max,Month,Day,Hour,Minute]
1134,11,Heating:Electricity [J] !RunPeriod [Value,Min,Month,Day,Hour,Minute,Max,Month,Day,Hour,Minute]
1096,11,Cooling:Electricity [J] !RunPeriod [Value,Min,Month,Day,Hour,Minute,Max,Month,Day,Hour,Minute]
562,11,Fans:Electricity [J] !RunPeriod [Value,Min,Month,Day,Hour,Minute,Max,Month,Day,Hour,Minute]
1379,11,Pumps:Electricity [J] !RunPeriod [Value,Min,Month,Day,Hour,Minute,Max,Month,Day,Hour,Minute]
1326,11,WaterSystems:Electricity [J] !RunPeriod [Value,Min,Month,Day,Hour,Minute,Max,Month,Day,Hour,Minute]
61,11,InteriorLights:Electricity [J] !RunPeriod [Value,Min,Month,Day,Hour,Minute,Max,Month,Day,Hour,Minute]
1046,11,ExteriorLights:Electricity [J] !RunPeriod [Value,Min,Month,Day,Hour,Minute,Max,Month,Day,Hour,Minute]
134,11,InteriorEquipment:Electricity [J] !RunPeriod [Value,Min,Month,Day,Hour,Minute,Max,Month,Day,Hour,Minute]
170,11,gas_dryer:InteriorEquipment:Electricity [J] !RunPeriod [Value,Min,Month,Day,Hour,Minute,Max,Month,Day,Hour,Minute]
207,11,clotheswasher:InteriorEquipment:Electricity [J] !RunPeriod [Value,Min,Month,Day,Hour,Minute,Max,Month,Day,Hour,Minute]
244,11,dishwasher:InteriorEquipment:Electricity [J] !RunPeriod [Value,Min,Month,Day,Hour,Minute,Max,Month,Day,Hour,Minute]
281,11,refrigerator:InteriorEquipment:Electricity [J] !RunPeriod [Value,Min,Month,Day,Hour,Minute,Max,Month,Day,Hour,Minute]
318,11,electric_mels:InteriorEquipment:Electricity [J] !RunPeriod [Value,Min,Month,Day,Hour,Minute,Max,Month,Day,Hour,Minute]
355,11,NaturalGas:Facility [J] !RunPeriod [Value,Min,Month,Day,Hour,Minute,Max,Month,Day,Hour,Minute]
403,11,InteriorEquipment:NaturalGas [J] !RunPeriod [Value,Min,Month,Day,Hour,Minute,Max,Month,Day,Hour,Minute]
476,11,gas_dryer:InteriorEquipment:NaturalGas [J] !RunPeriod [Value,Min,Month,Day,Hour,Minute,Max,Month,Day,Hour,Minute]
513,11,gas_mels:InteriorEquipment:NaturalGas [J] !RunPeriod [Value,Min,Month,Day,Hour,Minute,Max,Month,Day,Hour,Minute]
End of Data Dictionary
1,EXTREME_WINTER,  40.28, -74.82,  -5.00,  65.00
5,7
1038,0.5,0.0, 1, 8, 1,15,0.25, 1,10, 6,15
1039,0.0,0.0, 1, 8, 1,15,0.0, 1, 8, 1,15
581,0.3488685627978244,0.18408310537827138, 1,14,24,60,0.619863663366076, 1, 8,16,60
582,3.2591897246292585,0.0, 1,10,21,52,11.033695351490643, 1, 8,16,52
583,0.038199435183151956,0.00026380439142234237, 1,14,19,55,0.06933405909734977, 1, 9, 9,52
1115,1351510431.223747,0.0, 1, 8,23, 3,3799313.218742489, 1,12, 9,45
1128,447194316.2956744,0.0, 1, 8,23, 3,1195115.8404898022, 1,13, 6,30
1153,4965577.734649136,0.0, 1, 8,23, 3,75170.78798247107, 1, 8, 6,45
1154,51700225.5091234,0.0, 1, 8, 6, 5,180000.0, 1, 9,14,45
1155,232626599.82405877,0.0, 1, 8, 1,15,3378638.110794814, 1,10, 6,45
1156,232626599.82405877,0.0, 1, 8, 1,15,3378638.110794814, 1,10, 6,45
1292,-24948655.274782438,-39781.62318689041, 1, 8, 1,15,-5083.841890906349, 1,14, 9,48
1306,351822608.49962944,0.0, 1, 8, 1,15,4050000.0, 1, 8, 9,60
1307,158596750.50158787,0.0, 1, 8, 1,15,12669225.755198076, 1,12,19,45
1308,351822608.49962944,0.0, 1, 8, 1,15,4050000.0, 1, 8, 9,60
13,1507971889.2145073,452017.0388981225, 1, 9,15,15,8240629.499889655, 1,10, 8,60
61,301924526.02383536,88139.10953165221, 1, 8, 1,15,1282023.4113694867, 1, 8,20,15
134,70666020.44019976,63564.01800854099, 1, 8, 4,15,156554.22484006523, 1,13,20,15
170,5241013.419656067,348.4159749238097, 1, 8, 4,15,17476.39704006126, 1,13,12,15
207,6509451.13922267,815.2532113832032, 1, 8, 3,15,22990.642799023623, 1,13,10,15
244,12749673.399825225,1521.856143006317, 1, 8, 4,15,53038.631142310165, 1,13,20,15
281,46165882.481495745,59938.60262432081, 1, 8, 5,15,81951.81706819107, 1, 8,19,15
318,0.0,0.0, 1, 8, 1,15,0.0, 1, 8, 1,15
355,197687796.27748066,18561.32405820678, 1, 8, 4,15,724774.895203776, 1,13,18,15
403,197687796.27748066,18561.32405820678, 1, 8, 4,15,724774.895203776, 1,13,18,15
476,106772067.24485716,7098.072629279515, 1, 8, 4,15,356036.3026282215, 1,13,12,15
513,0.0,0.0, 1, 8, 1,15,0.0, 1, 8, 1,15
562,47057113.792618774,0.0, 1, 9,14,45,122451.15472251672, 1, 8, 6,45
1046,0.0,0.0, 1, 8, 1,15,0.0, 1, 8, 1,15
1096,14901.094719522767,0.0, 1, 8, 1,15,9593.532046476466, 1,14,17,15
1134,736486719.3635058,177814.95823195943, 1,14,17,15,5045302.090190792, 1,10, 6,15
1326,351822608.4996294,0.0, 1, 8, 1,15,4050000.0, 1, 8, 9,60
1379,0.0,0.0, 1, 8, 1,15,0.0, 1, 8, 1,15
1,EXTREME_SUMMER,  40.28, -74.82,  -5.00,  65.00
5,7
1038,0.0,0.0, 7,29, 1,15,0.0, 7,29, 1,15
1039,39.0,0.0, 7,29, 1,15,0.25, 7,29,11,45
581,0.09386182232185394,0.0, 7,29, 7,47,0.4520584800268667, 7,30,13,55
582,2.3643680007537866,0.0, 8, 3,20,27,10.07480166696483, 7,30,13,50
583,0.035137022603352316,0.0, 8, 2,23, 5,0.0636514489459158, 7,30,13,50
1115,0.0,0.0, 7,29, 1,15,0.0, 7,29, 1,15
1128,0.0,0.0, 7,29, 1,15,0.0, 7,29, 1,15
1153,0.0,0.0, 7,29, 1,15,0.0, 7,29, 1,15
1154,0.0,0.0, 7,29, 1,15,0.0, 7,29, 1,15
1155,0.0,0.0, 7,29, 1,15,0.0, 7,29, 1,15
1156,0.0,0.0, 7,29, 1,15,0.0, 7,29, 1,15
1292,-21790646.712560162,-34345.967131234735, 8, 3,22,15,-2874.4756812806413, 8, 4,17,17
1306,260909210.7998622,0.0, 7,29, 1,15,4050000.0, 8, 2,10,15
1307,84862017.53038655,0.0, 7,29, 1,15,10450011.728813158, 8, 2, 9,60
1308,260909210.7998622,0.0, 7,29, 1,15,4050000.0, 8, 2,10,15
13,1133414128.5807843,155246.04139706356, 8, 3, 4,60,6728761.314634646, 7,29,21,45
61,301924526.02383536,88139.10953165221, 7,29, 1,15,1282023.4113694867, 7,29,20,15
134,70666020.44019976,63564.01800854099, 7,29, 4,15,156554.22484006523, 8, 3,20,15
170,5241013.419656067,348.4159749238097, 7,29, 4,15,17476.39704006126, 8, 3,12,15
207,6509451.13922267,815.2532113832032, 7,29, 3,15,22990.642799023623, 8, 3,10,15
244,12749673.399825225,1521.856143006317, 7,29, 4,15,53038.631142310165, 8, 3,20,15
281,46165882.481495745,59938.60262432081, 7,29, 5,15,81951.81706819107, 7,29,19,15
318,0.0,0.0, 7,29, 1,15,0.0, 7,29, 1,15
355,197687796.27748066,18561.32405820678, 7,29, 4,15,724774.895203776, 8, 3,18,15
403,197687796.27748066,18561.32405820678, 7,29, 4,15,724774.895203776, 8, 3,18,15
476,106772067.24485716,7098.072629279515, 7,29, 4,15,356036.3026282215, 8, 3,12,15
513,0.0,0.0, 7,29, 1,15,0.0, 7,29, 1,15
562,48825757.46192278,341.375173161014, 8, 3, 4,60,122451.15472251672, 7,29,11,15
1046,0.0,0.0, 7,29, 1,15,0.0, 7,29, 1,15
1096,451088613.8549659,2832.866025489859, 8, 3, 4,60,1283494.7433700897, 7,29,17,60
1134,0.0,0.0, 7,29, 1,15,0.0, 7,29, 1,15
1326,260909210.7998622,0.0, 7,29, 1,15,4050000.0, 7,29, 8,30
1379,0.0,0.0, 7,29, 1,15,0.0, 7,29, 1,15
1,ANNUAL,  40.28, -74.82,  -5.00,  65.00
5,365
1038,11.0,0.0, 1, 1, 1,15,0.25, 1, 3, 6,15
1039,668.75,0.0, 1, 1, 1,15,0.25, 3,25,17,15
581,0.22250286482023823,0.0, 5,29,20,48,1.0820792578712088,11,17, 4,60
582,3.338142214304616,0.0, 1, 1, 1,60,32.43620211767695,12,27,21,60
583,0.024287304635782922,0.0, 6,24,23, 3,0.08037560289778062,12,27,21,60
1115,17071757303.464725,0.0, 1, 1,13,60,4183272.9789074995, 3,22, 6,60
1128,5322861148.296399,0.0, 1, 1,13,60,1239554.9164985286, 3,22, 6,45
1153,126624079.46511976,0.0, 1, 1,13,60,112785.32199022658,12,28, 1,30
1154,1730173852.2021985,0.0, 1, 1, 6, 5,180000.0, 1, 1,13,60
1155,1844633707.0125625,0.0, 1, 1, 1,15,4057465.14335916, 1,31, 6,45
1156,1844633707.0125625,0.0, 1, 1, 1,15,4057465.14335916, 1,31, 6,45
1292,-1205281214.287848,-39803.29392488111, 1, 1, 1,15,-1800.6905440153034, 9,22, 9,60
1306,16112205098.797472,0.0, 1, 1, 1,15,4050000.0, 1, 1,21,15
1307,6416564219.999801,0.0, 1, 1, 1,15,16740040.47493153, 2, 3, 9,60
1308,16112205098.797472,0.0, 1, 1, 1,15,4050000.0, 1, 1,21,15
13,55282439401.265625,151703.1275401932, 3, 6, 4,15,9069194.425941374, 1, 3, 9,45
61,15743207428.383959,88139.10953165221, 1, 1, 1,15,1282023.4113694867, 1, 1,20,15
134,3685071073.4325233,63564.01800854099, 1, 2, 4,15,156554.22484006523, 1, 1,20,15
170,273393721.45532674,348.4159749238097, 1, 2, 4,15,17476.39704006126, 1, 1,12,15
207,339560869.0695816,815.2532113832032, 1, 2, 3,15,22990.642799023623, 1, 1,10,15
244,664895467.8009144,1521.856143006317, 1, 2, 4,15,53038.631142310165, 1, 1,20,15
281,2407221015.106824,59938.60262432081, 1, 1, 5,15,81951.81706819107, 1, 1,19,15
318,0.0,0.0, 1, 1, 1,15,0.0, 1, 1, 1,15
355,10310294493.051695,18561.32405820678, 1, 2, 4,15,724774.895203776, 1, 1,18,15
403,10310294493.051695,18561.32405820678, 1, 2, 4,15,724774.895203776, 1, 1,18,15
476,5569688622.066177,7098.072629279515, 1, 2, 4,15,356036.3026282215, 1, 1,12,15
513,0.0,0.0, 1, 1, 1,15,0.0, 1, 1, 1,15
562,1600383766.1618116,0.0, 1, 1,13,60,122451.15472251672, 1, 2, 6,45
1046,0.0,0.0, 1, 1, 1,15,0.0, 1, 1, 1,15
1096,9117279247.51166,0.0, 1, 1, 1,15,1319121.8141032346, 7,19,16,60
1134,9024292786.976286,0.0, 1,15,14,60,5200061.010452845, 1, 3, 6,15
1326,16112205098.797472,0.0, 1, 1, 1,15,4050000.0000000014, 5, 1,16,60
1379,0.0,0.0, 1, 1, 1,15,0.0, 1, 1, 1,15
End of Data
 Number of Records Written=          99
