Program Version,EnergyPlus, Version 22.2.0-c249759bad, YMD=2023.09.01 20:53
1,5,Environment Title[],Latitude[deg],Longitude[deg],Time Zone[],Elevation[m]
2,8,Day of Simulation[],Month[],Day of Month[],DST Indicator[1=yes 0=no],Hour[],StartMinute[],EndMinute[],DayType
3,5,Cumulative Day of Simulation[],Month[],Day of Month[],DST Indicator[1=yes 0=no],DayType  ! When Daily Report Variables Requested
4,2,Cumulative Days of Simulation[],Month[]  ! When Monthly Report Variables Requested
5,1,Cumulative Days of Simulation[] ! When Run Period Report Variables Requested
6,1,Calendar Year of Simulation[] ! When Annual Report Variables Requested
581,11,LIVING,AFN Zone Infiltration Air Change Rate [ach] !RunPeriod [Value,Min,Month,Day,Hour,Minute,Max,Month,Day,Hour,Minute]
582,11,ATTIC,AFN Zone Infiltration Air Change Rate [ach] !RunPeriod [Value,Min,Month,Day,Hour,Minute,Max,Month,Day,Hour,Minute]
583,11,CRAWLSPACE,AFN Zone Infiltration Air Change Rate [ach] !RunPeriod [Value,Min,Month,Day,Hour,Minute,Max,Month,Day,Hour,Minute]
1038,11,Facility,Facility Heating Setpoint Not Met Time [hr] !RunPeriod [Value,Min,Month,Day,Hour,Minute,Max,Month,Day,Hour,Minute]
1039,11,Facility,Facility Cooling Setpoint Not Met Time [hr] !RunPeriod [Value,Min,Month,Day,Hour,Minute,Max,Month,Day,Hour,Minute]
1115,11,DX_HEATING_COIL,Heating Coil Heating Energy [J] !RunPeriod [Value,Min,Month,Day,Hour,Minute,Max,Month,Day,Hour,Minute]
1128,11,DX_HEATING_COIL,Heating Coil Electricity Energy [J] !RunPeriod [Value,Min,Month,Day,Hour,Minute,Max,Month,Day,Hour,Minute]
1153,11,DX_HEATING_COIL,Heating Coil Defrost Electricity Energy [J] !RunPeriod [Value,Min,Month,Day,Hour,Minute,Max,Month,Day,Hour,Minute]
1154,11,DX_HEATING_COIL,Heating Coil Crankcase Heater Electricity Energy [J] !RunPeriod [Value,Min,Month,Day,Hour,Minute,Max,Month,Day,Hour,Minute]
1155,11,HEATING_RESISTANCE_BACKUP,Heating Coil Heating Energy [J] !RunPeriod [Value,Min,Month,Day,Hour,Minute,Max,Month,Day,Hour,Minute]
1156,11,HEATING_RESISTANCE_BACKUP,Heating Coil Electricity Energy [J] !RunPeriod [Value,Min,Month,Day,Hour,Minute,Max,Month,Day,Hour,Minute]
1292,11,WATER HEATER,Water Heater Heat Loss Energy [J] !RunPeriod [Value,Min,Month,Day,Hour,Minute,Max,Month,Day,Hour,Minute]
1306,11,WATER HEATER,Water Heater Heating Energy [J] !RunPeriod [Value,Min,Month,Day,Hour,Minute,Max,Month,Day,Hour,Minute]
1307,11,WATER HEATER,Water Heater Unmet Demand Heat Transfer Energy [J] !RunPeriod [Value,Min,Month,Day,Hour,Minute,Max,Month,Day,Hour,Minute]
1308,11,WATER HEATER,Water Heater Electricity Energy [J] !RunPeriod [Value,Min,Month,Day,Hour,Minute,Max,Month,Day,Hour,Minute]
13,11,Electricity:Facility [J] !RunPeriod [Value,Min,Month,Day,Hour,Minute,Max,Month,Day,Hour,Minute]
1134,11,Heating:Electricity [J] !RunPeriod [Value,Min,Month,Day,Hour,Minute,Max,Month,Day,Hour,Minute]
1096,11,Cooling:Electricity [J] !RunPeriod [Value,Min,Month,Day,Hour,Minute,Max,Month,Day,Hour,Minute]
562,11,Fans:Electricity [J] !RunPeriod [Value,Min,Month,Day,Hour,Minute,Max,Month,Day,Hour,Minute]
1379,11,Pumps:Electricity [J] !RunPeriod [Value,Min,Month,Day,Hour,Minute,Max,Month,Day,Hour,Minute]
1326,11,WaterSystems:Electricity [J] !RunPeriod [Value,Min,Month,Day,Hour,Minute,Max,Month,Day,Hour,Minute]
61,11,InteriorLights:Electricity [J] !RunPeriod [Value,Min,Month,Day,Hour,Minute,Max,Month,Day,Hour,Minute]
1046,11,ExteriorLights:Electricity [J] !RunPeriod [Value,Min,Month,Day,Hour,Minute,Max,Month,Day,Hour,Minute]
134,11,InteriorEquipment:Electricity [J] !RunPeriod [Value,Min,Month,Day,Hour,Minute,Max,Month,Day,Hour,Minute]
170,11,gas_dryer:InteriorEquipment:Electricity [J] !RunPeriod [Value,Min,Month,Day,Hour,Minute,Max,Month,Day,Hour,Minute]
207,11,clotheswasher:InteriorEquipment:Electricity [J] !RunPeriod [Value,Min,Month,Day,Hour,Minute,Max,Month,Day,Hour,Minute]
244,11,dishwasher:InteriorEquipment:Electricity [J] !RunPeriod [Value,Min,Month,Day,Hour,Minute,Max,Month,Day,Hour,Minute]
281,11,refrigerator:InteriorEquipment:Electricity [J] !RunPeriod [Value,Min,Month,Day,Hour,Minute,Max,Month,Day,Hour,Minute]
318,11,electric_mels:InteriorEquipment:Electricity [J] !RunPeriod [Value,Min,Month,Day,Hour,Minute,Max,Month,Day,Hour,Minute]
355,11,NaturalGas:Facility [J] !RunPeriod [Value,Min,Month,Day,Hour,Minute,Max,Month,Day,Hour,Minute]
403,11,InteriorEquipment:NaturalGas [J] !RunPeriod [Value,Min,Month,Day,Hour,Minute,Max,Month,Day,Hour,Minute]
476,11,gas_dryer:InteriorEquipment:NaturalGas [J] !RunPeriod [Value,Min,Month,Day,Hour,Minute,Max,Month,Day,Hour,Minute]
513,11,gas_mels:InteriorEquipment:NaturalGas [J] !RunPeriod [Value,Min,Month,Day,Hour,Minute,Max,Month,Day,Hour,Minute]
End of Data Dictionary
1,EXTREME_WINTER,  39.50,-119.77,  -8.00,1344.20
5,15
1038,0.75,0.0,12,22, 1,15,0.25, 1, 1, 4,30
1039,0.0,0.0,12,22, 1,15,0.0,12,22, 1,15
581,0.31966710810705556,0.16113969298738504, 1, 1, 2, 7,1.5356985419757065, 1, 1, 4,60
582,2.696757455395102,0.0,12,22,21,60,25.513628730390124, 1, 1, 4,60
583,0.03270154524456612,0.0001477801534102938,12,31,22,60,0.11244407388431327, 1, 1, 6, 5
1115,2217745697.102507,0.0,12,22,23, 7,4797964.065503436, 1, 3, 6,45
1128,746789526.6634741,0.0,12,22,23, 7,1652079.0766009034,12,26, 8,45
1153,27057454.80296028,0.0,12,22,23, 7,143475.47779791473, 1, 1,11,60
1154,172552383.01963833,0.0,12,22, 6, 5,180000.0,12,23,13,45
1155,63740629.57055846,0.0,12,22, 1,15,1876148.9580467162, 1, 4, 6,45
1156,63740629.57055846,0.0,12,22, 1,15,1876148.9580467162, 1, 4, 6,45
1292,-52949586.346296884,-39778.779138430364,12,22, 1,15,-3273.7907516267314,12,30,11,15
1306,745851374.0345166,0.0,12,22, 1,15,4050000.0,12,22, 9,60
1307,330076145.49172807,0.0,12,22, 1,15,13672696.435473382, 1, 1, 9,45
1308,745851374.0345166,0.0,12,22, 1,15,4050000.0,12,22, 9,60
13,2640217933.55842,295463.84359651885,12,24,14,60,6805073.231685527, 1, 4, 9,45
61,646981127.1939323,88139.10953165221,12,22, 1,15,1282023.4113694867,12,22,20,15
134,151290040.75163814,63564.01800854099,12,22, 4,15,156554.22484006523,12,27,20,15
170,11185820.069951689,348.4159749238097,12,22, 4,15,17476.39704006126,12,27,12,15
207,13893028.5742839,815.2532113832032,12,22, 3,15,22990.642799023623,12,27,10,15
244,27284301.07562584,1521.856143006317,12,22, 4,15,53038.631142310165,12,27,20,15
281,98926891.03177746,59938.60262432081,12,22, 5,15,81951.81706819107,12,22,19,15
318,0.0,0.0,12,22, 1,15,0.0,12,22, 1,15
355,422701517.16107386,18561.32405820678,12,22, 4,15,724774.895203776,12,27,18,15
403,422701517.16107386,18561.32405820678,12,22, 4,15,724774.895203776,12,27,18,15
476,227882097.80545202,7098.072629279515,12,22, 4,15,356036.3026282215,12,27,12,15
513,0.0,0.0,12,22, 1,15,0.0,12,22, 1,15
562,81926595.76654728,0.0,12,22,23,15,179971.29379427707,12,26, 6,30
1046,0.0,0.0,12,22, 1,15,0.0,12,22, 1,15
1096,4028801.7551575378,0.0,12,22, 1,15,175412.42749009214,12,29,16,30
1134,1010139994.0566318,0.0,12,29,14,60,4060602.5608718847, 1, 4, 6,15
1326,745851374.0345162,0.0,12,22, 1,15,4050000.0,12,22, 9,60
1379,0.0,0.0,12,22, 1,15,0.0,12,22, 1,15
1,EXTREME_SUMMER,  39.50,-119.77,  -8.00,1344.20
5,7
1038,0.0,0.0, 7,20, 1,15,0.0, 7,20, 1,15
1039,2.5,0.0, 7,20, 1,15,0.25, 7,26,17,15
581,0.14076682637722562,0.0, 7,20, 6, 7,0.5275341259177172, 7,25,21,52
582,3.6304236483691117,0.0, 7,22, 8,11,16.524176207072472, 7,24,18,48
583,0.044974585125119274,0.00005199361209782993, 7,20, 6,11,0.09329115102706688, 7,26,19,33
1115,0.0,0.0, 7,20, 1, 7,0.0, 7,20, 1, 7
1128,0.0,0.0, 7,20, 1, 7,0.0, 7,20, 1, 7
1153,0.0,0.0, 7,20, 1, 7,0.0, 7,20, 1, 7
1154,0.0,0.0, 7,20, 1, 7,0.0, 7,20, 1, 7
1155,0.0,0.0, 7,20, 1, 7,0.0, 7,20, 1, 7
1156,0.0,0.0, 7,20, 1, 7,0.0, 7,20, 1, 7
1292,-22003291.532229032,-34337.4537037591, 7,23, 7,60,-2195.299076663823, 7,26, 9,46
1306,268156885.66055164,0.0, 7,20, 1, 7,2218155.1023616963, 7,25,14,15
1307,89979308.83002178,0.0, 7,20, 1, 7,3327249.473198911, 7,23, 9,40
1308,268156885.66055164,0.0, 7,20, 1, 7,2218155.1023616963, 7,25,14,15
13,1273658078.464889,184738.2277541419, 7,22, 4,60,6986907.922222103, 7,24,18,30
61,301924526.02383536,88139.10953165221, 7,20, 1,15,1282023.4113694867, 7,20,20,15
134,70666020.44019976,63564.01800854099, 7,20, 4,15,156554.22484006523, 7,25,20,15
170,5241013.419656067,348.4159749238097, 7,20, 4,15,17476.39704006126, 7,25,12,15
207,6509451.13922267,815.2532113832032, 7,20, 3,15,22990.642799023623, 7,25,10,15
244,12749673.399825225,1521.856143006317, 7,20, 4,15,53038.631142310165, 7,25,20,15
281,46165882.481495745,59938.60262432081, 7,20, 5,15,81951.81706819107, 7,20,19,15
318,0.0,0.0, 7,20, 1,15,0.0, 7,20, 1,15
355,197687796.27748066,18561.32405820678, 7,20, 4,15,724774.895203776, 7,25,18,15
403,197687796.27748066,18561.32405820678, 7,20, 4,15,724774.895203776, 7,25,18,15
476,106772067.24485716,7098.072629279515, 7,20, 4,15,356036.3026282215, 7,25,12,15
513,0.0,0.0, 7,20, 1,15,0.0, 7,20, 1,15
562,58266489.77927719,3135.762468851035, 7,21, 5,45,179971.29379427707, 7,26,16,15
1046,0.0,0.0, 7,20, 1,15,0.0, 7,20, 1,15
1096,574644156.5610251,22936.153459825426, 7,21, 5,45,2026074.9339387335, 7,26,16,15
1134,0.0,0.0, 7,20, 1,15,0.0, 7,20, 1,15
1326,268156885.6605517,0.0, 7,20, 1,15,4050000.0, 7,20, 8,30
1379,0.0,0.0, 7,20, 1,15,0.0, 7,20, 1,15
1,ANNUAL,  39.50,-119.77,  -8.00,1344.20
5,365
1038,0.25,0.0, 1, 1, 1,15,0.25,12,17,19,60
1039,73.25,0.0, 1, 1, 1,15,0.25, 1,29,14,60
581,0.23573685623500362,0.0, 6,27,23, 3,1.6685292057668042, 3,29, 9,60
582,3.3183216923061125,0.0, 1, 3,19,45,32.13195184656009, 3,29, 9,60
583,0.024626353520429637,0.0, 6,27,23, 3,0.11560867482849622, 1, 1, 6, 5
1115,10450977740.629307,0.0, 1, 1,23, 5,4831604.973340751, 2, 1, 6,60
1128,3442088650.816028,0.0, 1, 1,23, 5,1655281.6582721293, 2, 1, 6,60
1153,128162058.2867422,0.0, 1, 1, 1,52,134592.2268176061, 1, 1,11,60
1154,2381172310.2999215,0.0, 1, 2, 6, 5,180000.0, 1, 2,13,15
1155,126922984.6643839,0.0, 1, 1, 1, 5,1666209.8481872345, 1, 4, 6,45
1156,126922984.6643839,0.0, 1, 1, 1, 5,1666209.8481872345, 1, 4, 6,45
1292,-1200799550.5479808,-39780.53153381271,12,21, 1,15,-1414.0652153723493, 4, 7,10, 1
1306,16282461330.799862,0.0, 1, 1, 1, 5,4050000.0, 1, 1, 9,60
1307,6556086538.521104,0.0, 1, 1, 1, 5,16358427.990625903, 1, 6, 9,60
1308,16282461330.799862,0.0, 1, 1, 1, 5,4050000.0, 1, 1, 9,60
13,53077690565.51621,151703.1275401932, 3,29, 4,15,7491241.28178442, 1, 4, 8,60
61,15743207428.383959,88139.10953165221, 1, 1, 1,15,1282023.4113694867, 1, 1,20,15
134,3685071073.4325233,63564.01800854099, 1, 2, 4,15,156554.22484006523, 1, 1,20,15
170,273393721.45532674,348.4159749238097, 1, 2, 4,15,17476.39704006126, 1, 1,12,15
207,339560869.0695816,815.2532113832032, 1, 2, 3,15,22990.642799023623, 1, 1,10,15
244,664895467.8009144,1521.856143006317, 1, 2, 4,15,53038.631142310165, 1, 1,20,15
281,2407221015.106824,59938.60262432081, 1, 1, 5,15,81951.81706819107, 1, 1,19,15
318,0.0,0.0, 1, 1, 1,15,0.0, 1, 1, 1,15
355,10310294493.051695,18561.32405820678, 1, 2, 4,15,724774.895203776, 1, 1,18,15
403,10310294493.051695,18561.32405820678, 1, 2, 4,15,724774.895203776, 1, 1,18,15
476,5569688622.066177,7098.072629279515, 1, 2, 4,15,356036.3026282215, 1, 1,12,15
513,0.0,0.0, 1, 1, 1,15,0.0, 1, 1, 1,15
562,1518361278.4803016,0.0, 1, 2,11,45,179971.29379427712, 7,31,15,30
1046,0.0,0.0, 1, 1, 1,15,0.0, 1, 1, 1,15
1096,9770243450.350374,0.0, 1, 1, 1,15,2109185.3243417135, 7,18,15,60
1134,6078346004.067082,0.0, 1, 7,17,60,3854832.6649411, 1, 4, 6,15
1326,16282461330.799875,0.0, 1, 1, 1,15,4050000.0000000014, 2,16,10,30
1379,0.0,0.0, 1, 1, 1,15,0.0, 1, 1, 1,15
End of Data
 Number of Records Written=          99
