Program Version,EnergyPlus, Version 22.2.0-c249759bad, YMD=2023.09.01 20:28
1,5,Environment Title[],Latitude[deg],Longitude[deg],Time Zone[],Elevation[m]
2,8,Day of Simulation[],Month[],Day of Month[],DST Indicator[1=yes 0=no],Hour[],StartMinute[],EndMinute[],DayType
3,5,Cumulative Day of Simulation[],Month[],Day of Month[],DST Indicator[1=yes 0=no],DayType  ! When Daily Report Variables Requested
4,2,Cumulative Days of Simulation[],Month[]  ! When Monthly Report Variables Requested
5,1,Cumulative Days of Simulation[] ! When Run Period Report Variables Requested
6,1,Calendar Year of Simulation[] ! When Annual Report Variables Requested
581,11,LIVING,AFN Zone Infiltration Air Change Rate [ach] !RunPeriod [Value,Min,Month,Day,Hour,Minute,Max,Month,Day,Hour,Minute]
582,11,ATTIC,AFN Zone Infiltration Air Change Rate [ach] !RunPeriod [Value,Min,Month,Day,Hour,Minute,Max,Month,Day,Hour,Minute]
583,11,CRAWLSPACE,AFN Zone Infiltration Air Change Rate [ach] !RunPeriod [Value,Min,Month,Day,Hour,Minute,Max,Month,Day,Hour,Minute]
1038,11,Facility,Facility Heating Setpoint Not Met Time [hr] !RunPeriod [Value,Min,Month,Day,Hour,Minute,Max,Month,Day,Hour,Minute]
1039,11,Facility,Facility Cooling Setpoint Not Met Time [hr] !RunPeriod [Value,Min,Month,Day,Hour,Minute,Max,Month,Day,Hour,Minute]
1115,11,DX_HEATING_COIL,Heating Coil Heating Energy [J] !RunPeriod [Value,Min,Month,Day,Hour,Minute,Max,Month,Day,Hour,Minute]
1128,11,DX_HEATING_COIL,Heating Coil Electricity Energy [J] !RunPeriod [Value,Min,Month,Day,Hour,Minute,Max,Month,Day,Hour,Minute]
1153,11,DX_HEATING_COIL,Heating Coil Defrost Electricity Energy [J] !RunPeriod [Value,Min,Month,Day,Hour,Minute,Max,Month,Day,Hour,Minute]
1154,11,DX_HEATING_COIL,Heating Coil Crankcase Heater Electricity Energy [J] !RunPeriod [Value,Min,Month,Day,Hour,Minute,Max,Month,Day,Hour,Minute]
1155,11,HEATING_RESISTANCE_BACKUP,Heating Coil Heating Energy [J] !RunPeriod [Value,Min,Month,Day,Hour,Minute,Max,Month,Day,Hour,Minute]
1156,11,HEATING_RESISTANCE_BACKUP,Heating Coil Electricity Energy [J] !RunPeriod [Value,Min,Month,Day,Hour,Minute,Max,Month,Day,Hour,Minute]
1292,11,WATER HEATER,Water Heater Heat Loss Energy [J] !RunPeriod [Value,Min,Month,Day,Hour,Minute,Max,Month,Day,Hour,Minute]
1306,11,WATER HEATER,Water Heater Heating Energy [J] !RunPeriod [Value,Min,Month,Day,Hour,Minute,Max,Month,Day,Hour,Minute]
1307,11,WATER HEATER,Water Heater Unmet Demand Heat Transfer Energy [J] !RunPeriod [Value,Min,Month,Day,Hour,Minute,Max,Month,Day,Hour,Minute]
1308,11,WATER HEATER,Water Heater Electricity Energy [J] !RunPeriod [Value,Min,Month,Day,Hour,Minute,Max,Month,Day,Hour,Minute]
13,11,Electricity:Facility [J] !RunPeriod [Value,Min,Month,Day,Hour,Minute,Max,Month,Day,Hour,Minute]
1134,11,Heating:Electricity [J] !RunPeriod [Value,Min,Month,Day,Hour,Minute,Max,Month,Day,Hour,Minute]
1096,11,Cooling:Electricity [J] !RunPeriod [Value,Min,Month,Day,Hour,Minute,Max,Month,Day,Hour,Minute]
562,11,Fans:Electricity [J] !RunPeriod [Value,Min,Month,Day,Hour,Minute,Max,Month,Day,Hour,Minute]
1379,11,Pumps:Electricity [J] !RunPeriod [Value,Min,Month,Day,Hour,Minute,Max,Month,Day,Hour,Minute]
1326,11,WaterSystems:Electricity [J] !RunPeriod [Value,Min,Month,Day,Hour,Minute,Max,Month,Day,Hour,Minute]
61,11,InteriorLights:Electricity [J] !RunPeriod [Value,Min,Month,Day,Hour,Minute,Max,Month,Day,Hour,Minute]
1046,11,ExteriorLights:Electricity [J] !RunPeriod [Value,Min,Month,Day,Hour,Minute,Max,Month,Day,Hour,Minute]
134,11,InteriorEquipment:Electricity [J] !RunPeriod [Value,Min,Month,Day,Hour,Minute,Max,Month,Day,Hour,Minute]
170,11,gas_dryer:InteriorEquipment:Electricity [J] !RunPeriod [Value,Min,Month,Day,Hour,Minute,Max,Month,Day,Hour,Minute]
207,11,clotheswasher:InteriorEquipment:Electricity [J] !RunPeriod [Value,Min,Month,Day,Hour,Minute,Max,Month,Day,Hour,Minute]
244,11,dishwasher:InteriorEquipment:Electricity [J] !RunPeriod [Value,Min,Month,Day,Hour,Minute,Max,Month,Day,Hour,Minute]
281,11,refrigerator:InteriorEquipment:Electricity [J] !RunPeriod [Value,Min,Month,Day,Hour,Minute,Max,Month,Day,Hour,Minute]
318,11,electric_mels:InteriorEquipment:Electricity [J] !RunPeriod [Value,Min,Month,Day,Hour,Minute,Max,Month,Day,Hour,Minute]
355,11,NaturalGas:Facility [J] !RunPeriod [Value,Min,Month,Day,Hour,Minute,Max,Month,Day,Hour,Minute]
403,11,InteriorEquipment:NaturalGas [J] !RunPeriod [Value,Min,Month,Day,Hour,Minute,Max,Month,Day,Hour,Minute]
476,11,gas_dryer:InteriorEquipment:NaturalGas [J] !RunPeriod [Value,Min,Month,Day,Hour,Minute,Max,Month,Day,Hour,Minute]
513,11,gas_mels:InteriorEquipment:NaturalGas [J] !RunPeriod [Value,Min,Month,Day,Hour,Minute,Max,Month,Day,Hour,Minute]
End of Data Dictionary
1,EXTREME_WINTER,  42.93, -71.43,  -5.00,  81.00
5,7
1038,1.0,0.0, 1,20, 1,15,0.25, 1,21, 6,15
1039,0.0,0.0, 1,20, 1,15,0.0, 1,20, 1,15
581,0.36533346796233407,0.2325387226726386, 1,23,17,37,0.7166205485739073, 1,20,15,60
582,3.707805724715837,0.0, 1,26, 8,45,14.671510883990528, 1,20,15,60
583,0.051344698820354515,0.000469276626692028, 1,21,23, 5,0.07497769392674795, 1,20,13,52
1115,1712172373.7528312,0.0, 1,20,23, 5,4008959.945500479, 1,23, 5,60
1128,591933543.6489092,0.0, 1,20,23, 5,1225203.1135218185, 1,23, 6,30
1153,3557868.0665229945,0.0, 1,20,23, 5,53297.997676044695, 1,23, 2,60
1154,28910533.19061837,0.0, 1,20, 1, 7,180000.0, 1,23,15,15
1155,580738156.5941956,0.0, 1,20,11,22,4374010.257017226, 1,25, 6,45
1156,580738156.5941956,0.0, 1,20,11,22,4374010.257017226, 1,25, 6,45
1292,-25381803.21355981,-39773.696558456744, 1,25,23,45,-4989.791720473733, 1,25,10,33
1306,193148749.36228985,0.0, 1,20, 1, 7,4050000.0, 1,20, 8,45
1307,40471775.74886561,0.0, 1,20, 1, 7,5130221.865914471, 1,23,10,22
1308,193148749.36228985,0.0, 1,20, 1, 7,4050000.0, 1,20, 8,45
13,1834810264.4303052,452017.0388981225, 1,23,15,15,9115306.896926122, 1,21, 7,30
61,301924526.02383536,88139.10953165221, 1,20, 1,15,1282023.4113694867, 1,20,20,15
134,70666020.44019976,63564.01800854099, 1,20, 4,15,156554.22484006523, 1,25,20,15
170,5241013.419656067,348.4159749238097, 1,20, 4,15,17476.39704006126, 1,25,12,15
207,6509451.13922267,815.2532113832032, 1,20, 3,15,22990.642799023623, 1,25,10,15
244,12749673.399825225,1521.856143006317, 1,20, 4,15,53038.631142310165, 1,25,20,15
281,46165882.481495745,59938.60262432081, 1,20, 5,15,81951.81706819107, 1,20,19,15
318,0.0,0.0, 1,20, 1,15,0.0, 1,20, 1,15
355,197687796.27748066,18561.32405820678, 1,20, 4,15,724774.895203776, 1,25,18,15
403,197687796.27748066,18561.32405820678, 1,20, 4,15,724774.895203776, 1,25,18,15
476,106772067.24485716,7098.072629279515, 1,20, 4,15,356036.3026282215, 1,25,12,15
513,0.0,0.0, 1,20, 1,15,0.0, 1,20, 1,15
562,63930867.10373522,0.0, 1,23,14,30,125088.41691048979, 1,20, 1,15
1046,0.0,0.0, 1,20, 1,15,0.0, 1,20, 1,15
1096,0.0,0.0, 1,20, 1,15,0.0, 1,20, 1,15
1134,1205140101.5002465,180000.0, 1,23,14,30,5871333.244969529, 1,25, 6,15
1326,193148749.3622898,0.0, 1,20, 1,15,4050000.0, 1,20, 8,45
1379,0.0,0.0, 1,20, 1,15,0.0, 1,20, 1,15
1,EXTREME_SUMMER,  42.93, -71.43,  -5.00,  81.00
5,7
1038,0.0,0.0, 7,27, 1,15,0.0, 7,27, 1,15
1039,26.5,0.0, 7,27, 1,15,0.25, 7,28,14,30
581,0.11352822185776451,0.0016688980238884618, 7,29, 4,60,0.4595800989412236, 7,30,13,52
582,2.346839252420171,0.0, 7,27, 6, 5,9.313692884335662, 7,31,15,48
583,0.032879018629392444,0.0001279113208310434, 7,27, 6,15,0.0664611354272416, 7,30,13,52
1115,0.0,0.0, 7,27, 1,15,0.0, 7,27, 1,15
1128,0.0,0.0, 7,27, 1,15,0.0, 7,27, 1,15
1153,0.0,0.0, 7,27, 1,15,0.0, 7,27, 1,15
1154,0.0,0.0, 7,27, 1,15,0.0, 7,27, 1,15
1155,0.0,0.0, 7,27, 1,15,0.0, 7,27, 1,15
1156,0.0,0.0, 7,27, 1,15,0.0, 7,27, 1,15
1292,-21965494.53803777,-34342.29697794966, 8, 1, 6,30,-3169.366163963954, 8, 1,10,31
1306,148049477.8954171,0.0, 7,27, 1,15,4050000.0, 7,30,10,45
1307,22185651.80303376,0.0, 7,27, 1,15,3341091.1456594104, 7,30,10,22
1308,148049477.8954171,0.0, 7,27, 1,15,4050000.0, 7,30,10,45
13,974260665.2105455,151703.1275401932, 7,27, 4,30,5493890.572390607, 7,30,19,30
61,301924526.02383536,88139.10953165221, 7,27, 1,15,1282023.4113694867, 7,27,20,15
134,70666020.44019976,63564.01800854099, 7,27, 4,15,156554.22484006523, 8, 1,20,15
170,5241013.419656067,348.4159749238097, 7,27, 4,15,17476.39704006126, 8, 1,12,15
207,6509451.13922267,815.2532113832032, 7,27, 3,15,22990.642799023623, 8, 1,10,15
244,12749673.399825225,1521.856143006317, 7,27, 4,15,53038.631142310165, 8, 1,20,15
281,46165882.481495745,59938.60262432081, 7,27, 5,15,81951.81706819107, 7,27,19,15
318,0.0,0.0, 7,27, 1,15,0.0, 7,27, 1,15
355,197687796.27748066,18561.32405820678, 7,27, 4,15,724774.895203776, 8, 1,18,15
403,197687796.27748066,18561.32405820678, 7,27, 4,15,724774.895203776, 8, 1,18,15
476,106772067.24485716,7098.072629279515, 7,27, 4,15,356036.3026282215, 8, 1,12,15
513,0.0,0.0, 7,27, 1,15,0.0, 7,27, 1,15
562,45117755.208905585,0.0, 7,27, 4,30,125088.41691048979, 7,28,13,45
1046,0.0,0.0, 7,27, 1,15,0.0, 7,27, 1,15
1096,408502885.6421869,0.0, 7,27, 4,30,1327158.0894701271, 7,29,17,60
1134,0.0,0.0, 7,27, 1,15,0.0, 7,27, 1,15
1326,148049477.89541703,0.0, 7,27, 1,15,4050000.0, 7,27, 8,45
1379,0.0,0.0, 7,27, 1,15,0.0, 7,27, 1,15
1,ANNUAL,  42.93, -71.43,  -5.00,  81.00
5,365
1038,50.5,0.0, 1, 1, 1,15,0.25, 1, 3, 2,45
1039,238.75,0.0, 1, 1, 1,15,0.25, 4,23,17,15
581,0.23466384718523892,0.0, 6,18,23, 3,0.9026679932686957, 3,23,19,60
582,2.990566907203375,0.0, 1, 1, 4,45,17.966091239424077,11,12,15,50
583,0.025771082694789595,0.0, 6,26,23, 5,0.07884560524322912, 3,23,19,52
1115,28545019738.303127,0.0, 1, 1,23, 3,4286718.487610579,12, 1, 6,45
1128,9088513674.567307,0.0, 1, 1,23, 3,1252624.9632946802,11,13, 6,45
1153,256684205.1690328,0.0, 1, 1,23, 3,119350.16113354539, 3,11, 8,60
1154,1618331661.0623548,0.0, 1, 1, 1,45,180000.0, 1, 8,21,30
1155,6132792754.718723,0.0, 1, 1, 1,15,4763082.417058814, 1, 3, 1,30
1156,6132792754.718723,0.0, 1, 1, 1,15,4763082.417058814, 1, 3, 1,30
1292,-1237479978.5839834,-41306.11857148479, 1, 4, 6,30,-2418.715262689129, 5,11,10,31
1306,8941997419.003124,0.0, 1, 1, 1,15,4050000.0, 1, 2, 8,45
1307,1628588218.9481769,0.0, 1, 1, 1,15,10202734.283058817, 3, 9,10,30
1308,8941997419.003124,0.0, 1, 1, 1,15,4050000.0, 1, 2, 8,45
13,53396375323.724495,151703.1275401932, 4,25, 4,15,10368186.575827431, 2, 5, 9,45
61,15743207428.383959,88139.10953165221, 1, 1, 1,15,1282023.4113694867, 1, 1,20,15
134,3685071073.4325233,63564.01800854099, 1, 2, 4,15,156554.22484006523, 1, 1,20,15
170,273393721.45532674,348.4159749238097, 1, 2, 4,15,17476.39704006126, 1, 1,12,15
207,339560869.0695816,815.2532113832032, 1, 2, 3,15,22990.642799023623, 1, 1,10,15
244,664895467.8009144,1521.856143006317, 1, 2, 4,15,53038.631142310165, 1, 1,20,15
281,2407221015.106824,59938.60262432081, 1, 1, 5,15,81951.81706819107, 1, 1,19,15
318,0.0,0.0, 1, 1, 1,15,0.0, 1, 1, 1,15
355,10310294493.051695,18561.32405820678, 1, 2, 4,15,724774.895203776, 1, 1,18,15
403,10310294493.051695,18561.32405820678, 1, 2, 4,15,724774.895203776, 1, 1,18,15
476,5569688622.066177,7098.072629279515, 1, 2, 4,15,356036.3026282215, 1, 1,12,15
513,0.0,0.0, 1, 1, 1,15,0.0, 1, 1, 1,15
562,1707011631.8433492,0.0, 1, 7,23,15,125088.41691048979, 1, 1, 1,60
1046,0.0,0.0, 1, 1, 1,15,0.0, 1, 1, 1,15
1096,6222765475.54288,0.0, 1, 1, 1,15,1346348.1595363163, 8,31,16,60
1134,17096322295.517418,0.0, 1, 8,13,15,5879323.646969408, 3, 3, 6,60
1326,8941997419.003136,0.0, 1, 1, 1,15,4050000.0000000014, 4,28, 8,45
1379,0.0,0.0, 1, 1, 1,15,0.0, 1, 1, 1,15
End of Data
 Number of Records Written=          99
