Program Version,EnergyPlus, Version 22.2.0-c249759bad, YMD=2023.09.01 20:31
1,5,Environment Title[],Latitude[deg],Longitude[deg],Time Zone[],Elevation[m]
2,8,Day of Simulation[],Month[],Day of Month[],DST Indicator[1=yes 0=no],Hour[],StartMinute[],EndMinute[],DayType
3,5,Cumulative Day of Simulation[],Month[],Day of Month[],DST Indicator[1=yes 0=no],DayType  ! When Daily Report Variables Requested
4,2,Cumulative Days of Simulation[],Month[]  ! When Monthly Report Variables Requested
5,1,Cumulative Days of Simulation[] ! When Run Period Report Variables Requested
6,1,Calendar Year of Simulation[] ! When Annual Report Variables Requested
581,11,LIVING,AFN Zone Infiltration Air Change Rate [ach] !RunPeriod [Value,Min,Month,Day,Hour,Minute,Max,Month,Day,Hour,Minute]
582,11,ATTIC,AFN Zone Infiltration Air Change Rate [ach] !RunPeriod [Value,Min,Month,Day,Hour,Minute,Max,Month,Day,Hour,Minute]
583,11,CRAWLSPACE,AFN Zone Infiltration Air Change Rate [ach] !RunPeriod [Value,Min,Month,Day,Hour,Minute,Max,Month,Day,Hour,Minute]
1038,11,Facility,Facility Heating Setpoint Not Met Time [hr] !RunPeriod [Value,Min,Month,Day,Hour,Minute,Max,Month,Day,Hour,Minute]
1039,11,Facility,Facility Cooling Setpoint Not Met Time [hr] !RunPeriod [Value,Min,Month,Day,Hour,Minute,Max,Month,Day,Hour,Minute]
1115,11,DX_HEATING_COIL,Heating Coil Heating Energy [J] !RunPeriod [Value,Min,Month,Day,Hour,Minute,Max,Month,Day,Hour,Minute]
1128,11,DX_HEATING_COIL,Heating Coil Electricity Energy [J] !RunPeriod [Value,Min,Month,Day,Hour,Minute,Max,Month,Day,Hour,Minute]
1153,11,DX_HEATING_COIL,Heating Coil Defrost Electricity Energy [J] !RunPeriod [Value,Min,Month,Day,Hour,Minute,Max,Month,Day,Hour,Minute]
1154,11,DX_HEATING_COIL,Heating Coil Crankcase Heater Electricity Energy [J] !RunPeriod [Value,Min,Month,Day,Hour,Minute,Max,Month,Day,Hour,Minute]
1155,11,HEATING_RESISTANCE_BACKUP,Heating Coil Heating Energy [J] !RunPeriod [Value,Min,Month,Day,Hour,Minute,Max,Month,Day,Hour,Minute]
1156,11,HEATING_RESISTANCE_BACKUP,Heating Coil Electricity Energy [J] !RunPeriod [Value,Min,Month,Day,Hour,Minute,Max,Month,Day,Hour,Minute]
1292,11,WATER HEATER,Water Heater Heat Loss Energy [J] !RunPeriod [Value,Min,Month,Day,Hour,Minute,Max,Month,Day,Hour,Minute]
1306,11,WATER HEATER,Water Heater Heating Energy [J] !RunPeriod [Value,Min,Month,Day,Hour,Minute,Max,Month,Day,Hour,Minute]
1307,11,WATER HEATER,Water Heater Unmet Demand Heat Transfer Energy [J] !RunPeriod [Value,Min,Month,Day,Hour,Minute,Max,Month,Day,Hour,Minute]
1308,11,WATER HEATER,Water Heater Electricity Energy [J] !RunPeriod [Value,Min,Month,Day,Hour,Minute,Max,Month,Day,Hour,Minute]
13,11,Electricity:Facility [J] !RunPeriod [Value,Min,Month,Day,Hour,Minute,Max,Month,Day,Hour,Minute]
1134,11,Heating:Electricity [J] !RunPeriod [Value,Min,Month,Day,Hour,Minute,Max,Month,Day,Hour,Minute]
1096,11,Cooling:Electricity [J] !RunPeriod [Value,Min,Month,Day,Hour,Minute,Max,Month,Day,Hour,Minute]
562,11,Fans:Electricity [J] !RunPeriod [Value,Min,Month,Day,Hour,Minute,Max,Month,Day,Hour,Minute]
1379,11,Pumps:Electricity [J] !RunPeriod [Value,Min,Month,Day,Hour,Minute,Max,Month,Day,Hour,Minute]
1326,11,WaterSystems:Electricity [J] !RunPeriod [Value,Min,Month,Day,Hour,Minute,Max,Month,Day,Hour,Minute]
61,11,InteriorLights:Electricity [J] !RunPeriod [Value,Min,Month,Day,Hour,Minute,Max,Month,Day,Hour,Minute]
1046,11,ExteriorLights:Electricity [J] !RunPeriod [Value,Min,Month,Day,Hour,Minute,Max,Month,Day,Hour,Minute]
134,11,InteriorEquipment:Electricity [J] !RunPeriod [Value,Min,Month,Day,Hour,Minute,Max,Month,Day,Hour,Minute]
170,11,gas_dryer:InteriorEquipment:Electricity [J] !RunPeriod [Value,Min,Month,Day,Hour,Minute,Max,Month,Day,Hour,Minute]
207,11,clotheswasher:InteriorEquipment:Electricity [J] !RunPeriod [Value,Min,Month,Day,Hour,Minute,Max,Month,Day,Hour,Minute]
244,11,dishwasher:InteriorEquipment:Electricity [J] !RunPeriod [Value,Min,Month,Day,Hour,Minute,Max,Month,Day,Hour,Minute]
281,11,refrigerator:InteriorEquipment:Electricity [J] !RunPeriod [Value,Min,Month,Day,Hour,Minute,Max,Month,Day,Hour,Minute]
318,11,electric_mels:InteriorEquipment:Electricity [J] !RunPeriod [Value,Min,Month,Day,Hour,Minute,Max,Month,Day,Hour,Minute]
355,11,NaturalGas:Facility [J] !RunPeriod [Value,Min,Month,Day,Hour,Minute,Max,Month,Day,Hour,Minute]
403,11,InteriorEquipment:NaturalGas [J] !RunPeriod [Value,Min,Month,Day,Hour,Minute,Max,Month,Day,Hour,Minute]
476,11,gas_dryer:InteriorEquipment:NaturalGas [J] !RunPeriod [Value,Min,Month,Day,Hour,Minute,Max,Month,Day,Hour,Minute]
513,11,gas_mels:InteriorEquipment:NaturalGas [J] !RunPeriod [Value,Min,Month,Day,Hour,Minute,Max,Month,Day,Hour,Minute]
End of Data Dictionary
1,EXTREME_WINTER,  41.15,-104.82,  -7.00,1872.00
5,7
1038,1.0,0.0,12,22, 1,15,0.25,12,26, 6,15
1039,0.0,0.0,12,22, 1,15,0.0,12,22, 1,15
581,0.473478130806773,0.21764482675315722,12,22,23,22,0.9915544691550392,12,25,23,52
582,6.599326480378122,0.0,12,25, 7,60,25.001357114779644,12,23,24,60
583,0.06528428813501538,0.0007747137758457462,12,22,23, 5,0.09889371604827904,12,25,23,52
1115,1875824356.4511433,0.0,12,22,14,30,4267689.414951081,12,23, 8,45
1128,692750940.7982352,0.0,12,22,14,30,1465417.4413089638,12,23, 8,45
1153,7522642.371786068,0.0,12,22,14,30,46130.915954944474,12,25,21,60
1154,30873340.611094754,0.0,12,22, 6, 5,180000.0,12,22,14,30
1155,791876701.2188156,0.0,12,22, 1,15,5989348.441443568,12,27, 6,45
1156,791876701.2188156,0.0,12,22, 1,15,5989348.441443568,12,27, 6,45
1292,-25386718.964980785,-39770.43883687522,12,22, 1,15,-4160.896869119452,12,27,10,32
1306,191750655.326276,0.0,12,22, 1,15,4050000.0,12,22, 8,45
1307,39842711.01064314,0.0,12,22, 1,15,4277829.466139352,12,24, 9,30
1308,191750655.326276,0.0,12,22, 1,15,4050000.0,12,22, 8,45
13,2164836942.297935,452017.0388981225,12,22,15,15,10336473.12214068,12,26, 8,30
61,301924526.02383536,88139.10953165221,12,22, 1,15,1282023.4113694867,12,22,20,15
134,70666020.44019976,63564.01800854099,12,22, 4,15,156554.22484006523,12,27,20,15
170,5241013.419656067,348.4159749238097,12,22, 4,15,17476.39704006126,12,27,12,15
207,6509451.13922267,815.2532113832032,12,22, 3,15,22990.642799023623,12,27,10,15
244,12749673.399825225,1521.856143006317,12,22, 4,15,53038.631142310165,12,27,20,15
281,46165882.481495745,59938.60262432081,12,22, 5,15,81951.81706819107,12,22,19,15
318,0.0,0.0,12,22, 1,15,0.0,12,22, 1,15
355,197687796.27748066,18561.32405820678,12,22, 4,15,724774.895203776,12,27,18,15
403,197687796.27748066,18561.32405820678,12,22, 4,15,724774.895203776,12,27,18,15
476,106772067.24485716,7098.072629279515,12,22, 4,15,356036.3026282215,12,27,12,15
513,0.0,0.0,12,22, 1,15,0.0,12,22, 1,15
562,77472115.50769402,0.0,12,22,14,30,154921.9152214225,12,27,10,30
1046,0.0,0.0,12,22, 1,15,0.0,12,22, 1,15
1096,0.0,0.0,12,22, 1,15,0.0,12,22, 1,15
1134,1523023624.9999301,180000.0,12,22,14,30,7392277.419177987,12,26, 6,15
1326,191750655.32627603,0.0,12,22, 1,15,4050000.0,12,22, 8,45
1379,0.0,0.0,12,22, 1,15,0.0,12,22, 1,15
1,EXTREME_SUMMER,  41.15,-104.82,  -7.00,1872.00
5,7
1038,0.0,0.0, 7,27, 1,15,0.0, 7,27, 1,15
1039,0.0,0.0, 7,27, 1,15,0.0, 7,27, 1,15
581,0.2027872612411356,0.017265959877134328, 7,31, 7,47,0.5042227601855449, 7,29,19,50
582,4.240954703550865,0.021113631167353968, 7,31, 3,40,10.604405082428679, 8, 1,18,48
583,0.0279888464587375,0.00012654117659445565, 8, 2, 2,60,0.07227227292506784, 7,30,18, 4
1115,0.0,0.0, 7,27, 1,15,0.0, 7,27, 1,15
1128,0.0,0.0, 7,27, 1,15,0.0, 7,27, 1,15
1153,0.0,0.0, 7,27, 1,15,0.0, 7,27, 1,15
1154,0.0,0.0, 7,27, 1,15,0.0, 7,27, 1,15
1155,0.0,0.0, 7,27, 1,15,0.0, 7,27, 1,15
1156,0.0,0.0, 7,27, 1,15,0.0, 7,27, 1,15
1292,-22184657.22790494,-34344.66986930073, 8, 2, 6,60,-2665.2257934493605, 7,31, 8,31
1306,159131790.61949784,0.0, 7,27, 1,15,2025000.0, 7,28, 7,15
1307,26713199.99055949,0.0, 7,27, 1,15,1516976.8251513636, 8, 1,10,18
1308,159131790.61949784,0.0, 7,27, 1,15,2025000.0, 7,28, 7,15
13,879190350.4757531,151703.1275401932, 7,27, 4,15,6738910.201413102, 7,30,19,30
61,301924526.02383536,88139.10953165221, 7,27, 1,15,1282023.4113694867, 7,27,20,15
134,70666020.44019976,63564.01800854099, 7,27, 4,15,156554.22484006523, 8, 1,20,15
170,5241013.419656067,348.4159749238097, 7,27, 4,15,17476.39704006126, 8, 1,12,15
207,6509451.13922267,815.2532113832032, 7,27, 3,15,22990.642799023623, 8, 1,10,15
244,12749673.399825225,1521.856143006317, 7,27, 4,15,53038.631142310165, 8, 1,20,15
281,46165882.481495745,59938.60262432081, 7,27, 5,15,81951.81706819107, 7,27,19,15
318,0.0,0.0, 7,27, 1,15,0.0, 7,27, 1,15
355,197687796.27748066,18561.32405820678, 7,27, 4,15,724774.895203776, 8, 1,18,15
403,197687796.27748066,18561.32405820678, 7,27, 4,15,724774.895203776, 8, 1,18,15
476,106772067.24485716,7098.072629279515, 7,27, 4,15,356036.3026282215, 8, 1,12,15
513,0.0,0.0, 7,27, 1,15,0.0, 7,27, 1,15
562,36308747.90217679,0.0, 7,27, 1,15,150468.93969847602, 7,30,17,30
1046,0.0,0.0, 7,27, 1,15,0.0, 7,27, 1,15
1096,311159265.49004275,0.0, 7,27, 1,15,1462134.9258106377, 7,30,17,15
1134,0.0,0.0, 7,27, 1,15,0.0, 7,27, 1,15
1326,159131790.61949775,0.0, 7,27, 1,15,4050000.0000000014, 7,31, 8,30
1379,0.0,0.0, 7,27, 1,15,0.0, 7,27, 1,15
1,ANNUAL,  41.15,-104.82,  -7.00,1872.00
5,365
1038,8.75,0.0, 1, 1, 1,15,0.25, 1, 5, 6,15
1039,20.25,0.0, 1, 1, 1,15,0.25, 5,12,10,45
581,0.3563731745720964,0.0066394053927973625, 8,22,23,20,1.3899548029951307, 3,22,14,60
582,6.876418920096781,0.0, 1, 2,23,52,43.022007218425166, 2, 7,14,60
583,0.03013643978437774,0.0000435328577169975, 6, 2, 7,57,0.1061552518608541, 4,23,22,60
1115,35684078868.935425,0.0, 1, 1,23, 3,5215218.236871391, 1,18, 6,45
1128,11688438677.715029,0.0, 1, 1,23, 3,1538200.722836493, 1,15, 7,60
1153,284885858.20875674,0.0, 1, 1,23, 3,140550.30733650553, 3,13, 6,45
1154,2101083432.0497906,0.0, 1, 1, 1, 5,180000.0, 1, 2,13,15
1155,5075989529.867605,0.0, 1, 1, 1,20,6049878.101102337, 1, 5, 6,15
1156,5075989529.867605,0.0, 1, 1, 1,20,6049878.101102337, 1, 5, 6,15
1292,-1249342780.9974926,-39833.37540531324,12,10, 5,45,-2058.0548521292553, 6, 3,10,29
1306,9349373301.073433,0.0, 1, 1, 1, 5,4050000.0, 1, 1, 9,45
1307,1805021144.1014676,0.0, 1, 1, 1, 5,10775654.32277147, 2,11,10,30
1308,9349373301.073433,0.0, 1, 1, 1, 5,4050000.0, 1, 1, 9,45
13,54461857507.81981,151703.1275401932, 4,13, 4,15,11203739.146003267, 1, 5,10,45
61,15743207428.383959,88139.10953165221, 1, 1, 1,15,1282023.4113694867, 1, 1,20,15
134,3685071073.4325233,63564.01800854099, 1, 2, 4,15,156554.22484006523, 1, 1,20,15
170,273393721.45532674,348.4159749238097, 1, 2, 4,15,17476.39704006126, 1, 1,12,15
207,339560869.0695816,815.2532113832032, 1, 2, 3,15,22990.642799023623, 1, 1,10,15
244,664895467.8009144,1521.856143006317, 1, 2, 4,15,53038.631142310165, 1, 1,20,15
281,2407221015.106824,59938.60262432081, 1, 1, 5,15,81951.81706819107, 1, 1,19,15
318,0.0,0.0, 1, 1, 1,15,0.0, 1, 1, 1,15
355,10310294493.051695,18561.32405820678, 1, 2, 4,15,724774.895203776, 1, 1,18,15
403,10310294493.051695,18561.32405820678, 1, 2, 4,15,724774.895203776, 1, 1,18,15
476,5569688622.066177,7098.072629279515, 1, 2, 4,15,356036.3026282215, 1, 1,12,15
513,0.0,0.0, 1, 1, 1,15,0.0, 1, 1, 1,15
562,1843153412.8277404,0.0, 1, 2,12,45,154921.9152214225, 1, 5,17,60
1046,0.0,0.0, 1, 1, 1,15,0.0, 1, 1, 1,15
1096,4690654794.259397,0.0, 1, 1, 1,15,1527888.7661622083, 7,30,16,60
1134,19150397497.841187,0.0, 1, 3,14,60,7397709.626555794,12,26, 6,30
1326,9349373301.0734,0.0, 1, 1, 1,15,4050000.0000000014, 6, 3,10,30
1379,0.0,0.0, 1, 1, 1,15,0.0, 1, 1, 1,15
End of Data
 Number of Records Written=          99
