Program Version,EnergyPlus, Version 22.2.0-c249759bad, YMD=2023.08.02 11:24
1,5,Environment Title[],Latitude[deg],Longitude[deg],Time Zone[],Elevation[m]
2,8,Day of Simulation[],Month[],Day of Month[],DST Indicator[1=yes 0=no],Hour[],StartMinute[],EndMinute[],DayType
3,5,Cumulative Day of Simulation[],Month[],Day of Month[],DST Indicator[1=yes 0=no],DayType  ! When Daily Report Variables Requested
4,2,Cumulative Days of Simulation[],Month[]  ! When Monthly Report Variables Requested
5,1,Cumulative Days of Simulation[] ! When Run Period Report Variables Requested
6,1,Calendar Year of Simulation[] ! When Annual Report Variables Requested
618,11,DX_HEATING_COIL,Heating Coil Heating Energy [J] !RunPeriod [Value,Min,Month,Day,Hour,Minute,Max,Month,Day,Hour,Minute]
631,11,DX_HEATING_COIL,Heating Coil Electricity Energy [J] !RunPeriod [Value,Min,Month,Day,Hour,Minute,Max,Month,Day,Hour,Minute]
656,11,DX_HEATING_COIL,Heating Coil Defrost Electricity Energy [J] !RunPeriod [Value,Min,Month,Day,Hour,Minute,Max,Month,Day,Hour,Minute]
657,11,DX_HEATING_COIL,Heating Coil Crankcase Heater Electricity Energy [J] !RunPeriod [Value,Min,Month,Day,Hour,Minute,Max,Month,Day,Hour,Minute]
711,11,LIVING,AFN Zone Infiltration Air Change Rate [ach] !RunPeriod [Value,Min,Month,Day,Hour,Minute,Max,Month,Day,Hour,Minute]
712,11,ATTIC,AFN Zone Infiltration Air Change Rate [ach] !RunPeriod [Value,Min,Month,Day,Hour,Minute,Max,Month,Day,Hour,Minute]
713,11,CRAWLSPACE,AFN Zone Infiltration Air Change Rate [ach] !RunPeriod [Value,Min,Month,Day,Hour,Minute,Max,Month,Day,Hour,Minute]
1156,11,Facility,Facility Heating Setpoint Not Met Time [hr] !RunPeriod [Value,Min,Month,Day,Hour,Minute,Max,Month,Day,Hour,Minute]
1157,11,Facility,Facility Cooling Setpoint Not Met Time [hr] !RunPeriod [Value,Min,Month,Day,Hour,Minute,Max,Month,Day,Hour,Minute]
1183,11,HEATING_RESISTANCE_BACKUP,Heating Coil Heating Energy [J] !RunPeriod [Value,Min,Month,Day,Hour,Minute,Max,Month,Day,Hour,Minute]
1184,11,HEATING_RESISTANCE_BACKUP,Heating Coil Electricity Energy [J] !RunPeriod [Value,Min,Month,Day,Hour,Minute,Max,Month,Day,Hour,Minute]
13,11,Electricity:Facility [J] !RunPeriod [Value,Min,Month,Day,Hour,Minute,Max,Month,Day,Hour,Minute]
637,11,Heating:Electricity [J] !RunPeriod [Value,Min,Month,Day,Hour,Minute,Max,Month,Day,Hour,Minute]
599,11,Cooling:Electricity [J] !RunPeriod [Value,Min,Month,Day,Hour,Minute,Max,Month,Day,Hour,Minute]
691,11,Fans:Electricity [J] !RunPeriod [Value,Min,Month,Day,Hour,Minute,Max,Month,Day,Hour,Minute]
1370,11,Pumps:Electricity [J] !RunPeriod [Value,Min,Month,Day,Hour,Minute,Max,Month,Day,Hour,Minute]
677,11,WaterSystems:Electricity [J] !RunPeriod [Value,Min,Month,Day,Hour,Minute,Max,Month,Day,Hour,Minute]
61,11,InteriorLights:Electricity [J] !RunPeriod [Value,Min,Month,Day,Hour,Minute,Max,Month,Day,Hour,Minute]
1164,11,ExteriorLights:Electricity [J] !RunPeriod [Value,Min,Month,Day,Hour,Minute,Max,Month,Day,Hour,Minute]
134,11,InteriorEquipment:Electricity [J] !RunPeriod [Value,Min,Month,Day,Hour,Minute,Max,Month,Day,Hour,Minute]
170,11,gas_dryer:InteriorEquipment:Electricity [J] !RunPeriod [Value,Min,Month,Day,Hour,Minute,Max,Month,Day,Hour,Minute]
207,11,clotheswasher:InteriorEquipment:Electricity [J] !RunPeriod [Value,Min,Month,Day,Hour,Minute,Max,Month,Day,Hour,Minute]
244,11,dishwasher:InteriorEquipment:Electricity [J] !RunPeriod [Value,Min,Month,Day,Hour,Minute,Max,Month,Day,Hour,Minute]
281,11,refrigerator:InteriorEquipment:Electricity [J] !RunPeriod [Value,Min,Month,Day,Hour,Minute,Max,Month,Day,Hour,Minute]
318,11,electric_mels:InteriorEquipment:Electricity [J] !RunPeriod [Value,Min,Month,Day,Hour,Minute,Max,Month,Day,Hour,Minute]
355,11,NaturalGas:Facility [J] !RunPeriod [Value,Min,Month,Day,Hour,Minute,Max,Month,Day,Hour,Minute]
403,11,InteriorEquipment:NaturalGas [J] !RunPeriod [Value,Min,Month,Day,Hour,Minute,Max,Month,Day,Hour,Minute]
476,11,gas_dryer:InteriorEquipment:NaturalGas [J] !RunPeriod [Value,Min,Month,Day,Hour,Minute,Max,Month,Day,Hour,Minute]
513,11,gas_mels:InteriorEquipment:NaturalGas [J] !RunPeriod [Value,Min,Month,Day,Hour,Minute,Max,Month,Day,Hour,Minute]
End of Data Dictionary
1,EXTREME_WINTER,  39.10, -84.42,  -5.00, 149.40
5,7
1156,0.6666666666666666,0.0, 1,15, 1,10,0.16666666666666666, 1,16, 6,10
1157,0.0,0.0, 1,15, 1,10,0.0, 1,15, 1,10
618,1667850704.9297698,0.0, 1,15,15,35,2773146.3262261758, 1,18,10,30
631,555951256.3219442,0.0, 1,15,15,35,857261.1188657959, 1,18,10,30
656,9848169.534513472,0.0, 1,15,15,35,49532.46759209992, 1,17, 9,20
657,38566403.5724186,0.0, 1,15, 4,43,120000.0, 1,15,16,10
711,0.27716111408733407,0.1781552822650837, 1,16,20,50,0.43270021906460293, 1,17,24,20
712,3.0469437214792845,0.0, 1,15,21,33,12.345466114054304, 1,17,24,60
713,3.575100238608018,0.00021830451711936336, 1,16,21,10,11.20600607184624, 1,17,24,20
1183,565602976.4693993,0.0, 1,15, 1,10,3450855.1745012295, 1,20, 6,30
1184,565602976.4693993,0.0, 1,15, 1,10,3450855.1745012295, 1,20, 6,30
13,1719619689.3623774,306444.6925987483, 1,15,15,40,5081542.856088979, 1,19,10,30
61,301924526.0238348,58759.40635443481, 1,15, 1,10,854682.2742463244, 1,15,20,10
134,70666020.44019979,42376.01200569399, 1,15, 4,10,104369.48322671017, 1,20,20,10
170,5241013.419656074,232.27731661587313, 1,15, 4,10,11650.931360040839, 1,20,12,10
207,6509451.13922266,543.5021409221355, 1,15, 3,10,15327.095199349082, 1,20,10,10
244,12749673.39982522,1014.5707620042115, 1,15, 4,10,35359.08742820678, 1,20,20,10
281,46165882.48149605,39959.06841621388, 1,15, 5,10,54634.54471212738, 1,15,19,10
318,0.0,0.0, 1,15, 1,10,0.0, 1,15, 1,10
355,197687796.27748126,12374.216038804521, 1,15, 4,10,483183.26346918393, 1,20,18,10
403,197687796.27748126,12374.216038804521, 1,15, 4,10,483183.26346918393, 1,20,18,10
476,106772067.24485692,4732.048419519677, 1,15, 4,10,237357.535085481, 1,20,12,10
513,0.0,0.0, 1,15, 1,10,0.0, 1,15, 1,10
599,0.0,0.0, 1,15, 1,10,0.0, 1,15, 1,10
637,1169968805.898276,120000.0, 1,15,15,40,4221750.664468433, 1,21, 6,10
677,93548106.6408342,5100.0, 1,15, 1,10,2705100.0, 1,16,11,20
691,83512230.35923596,0.0, 1,15,15,40,141777.84374265757, 1,15, 8,30
1164,0.0,0.0, 1,15, 1,10,0.0, 1,15, 1,10
1370,0.0,0.0, 1,15, 1,10,0.0, 1,15, 1,10
1,EXTREME_SUMMER,  39.10, -84.42,  -5.00, 149.40
5,7
1156,0.0,0.0, 7,15, 1,10,0.0, 7,15, 1,10
1157,35.33333333333333,0.0, 7,15, 1,10,0.16666666666666666, 7,15,13,60
618,0.0,0.0, 7,15, 1,10,0.0, 7,15, 1,10
631,0.0,0.0, 7,15, 1,10,0.0, 7,15, 1,10
656,0.0,0.0, 7,15, 1,10,0.0, 7,15, 1,10
657,0.0,0.0, 7,15, 1,10,0.0, 7,15, 1,10
711,0.039280143594139574,0.0, 7,15, 1,10,0.4025418483437804, 7,20,16,55
712,1.6789594897285638,0.0, 7,17,21,12,8.698471572408275, 7,20,16,52
713,1.774490179698372,0.0, 7,15, 6, 7,10.165589715052349, 7,20,16,52
1183,0.0,0.0, 7,15, 1,10,0.0, 7,15, 1,10
1184,0.0,0.0, 7,15, 1,10,0.0, 7,15, 1,10
13,956674892.3293158,139607.17834820098, 7,19, 4,60,2140208.0057123047, 7,19,20,10
61,301924526.0238348,58759.40635443481, 7,15, 1,10,854682.2742463244, 7,15,20,10
134,70666020.44019979,42376.01200569399, 7,15, 4,10,104369.48322671017, 7,20,20,10
170,5241013.419656074,232.27731661587313, 7,15, 4,10,11650.931360040839, 7,20,12,10
207,6509451.13922266,543.5021409221355, 7,15, 3,10,15327.095199349082, 7,20,10,10
244,12749673.39982522,1014.5707620042115, 7,15, 4,10,35359.08742820678, 7,20,20,10
281,46165882.48149605,39959.06841621388, 7,15, 5,10,54634.54471212738, 7,15,19,10
318,0.0,0.0, 7,15, 1,10,0.0, 7,15, 1,10
355,197687796.27748126,12374.216038804521, 7,15, 4,10,483183.26346918393, 7,20,18,10
403,197687796.27748126,12374.216038804521, 7,15, 4,10,483183.26346918393, 7,20,18,10
476,106772067.24485692,4732.048419519677, 7,15, 4,10,237357.535085481, 7,20,12,10
513,0.0,0.0, 7,15, 1,10,0.0, 7,15, 1,10
599,460843630.7525675,0.0, 7,15,23,10,959621.1665861781, 7,16,15,60
637,0.0,0.0, 7,15, 1,10,0.0, 7,15, 1,10
677,61241219.19866888,5100.0, 7,15, 1,10,262761.8323485084, 7,20,11,20
691,61999495.91404449,0.0, 7,19, 6,20,141777.84374265757, 7,15,16,50
1164,0.0,0.0, 7,15, 1,10,0.0, 7,15, 1,10
1370,0.0,0.0, 7,15, 1,10,0.0, 7,15, 1,10
1,ANNUAL,  39.10, -84.42,  -5.00, 149.40
5,365
1156,34.000000000000014,0.0, 1, 1, 1,10,0.16666666666666666, 1, 2, 6,10
1157,475.83333333333337,0.0, 1, 1, 1,10,0.16666666666666666, 5,12,16,30
618,26079558440.98294,0.0, 1, 1,23, 2,3242767.289146608, 1,22, 4,60
631,7957295519.740263,0.0, 1, 1,23, 2,883915.1189089792,12,12,10,10
656,273075564.8082486,0.0, 1, 1,23, 2,95631.18754964526, 2,22,11,60
657,1350160020.6451848,0.0, 1, 1, 1, 1,120000.0, 1, 4,15,10
711,0.18804251325043791,0.0, 5, 7, 8,41,1.2373754614917982, 2,18,22,60
712,3.0680570226321757,0.0, 1, 3,22,60,27.98940017817044, 1,29,21,60
713,3.5483311366567936,0.0, 4,21,10, 6,34.00584897111232, 2,18,22,55
1183,4013757285.040158,0.0, 1, 1, 1,42,3450855.1745012295, 1,20, 6,30
1184,4013757285.040158,0.0, 1, 1, 1,42,3450855.1745012295, 1,20, 6,30
13,48134680877.91653,106235.4183601288, 3, 6, 4,10,5280196.869307969, 1,24,11,20
61,15743207428.39043,58759.40635443481, 1, 1, 1,10,854682.2742463244, 1, 1,20,10
134,3685071073.433083,42376.01200569399, 1, 2, 4,10,104369.48322671017, 1, 1,20,10
170,273393721.45534325,232.27731661587313, 1, 2, 4,10,11650.931360040839, 1, 1,12,10
207,339560869.06955314,543.5021409221355, 1, 2, 3,10,15327.095199349082, 1, 1,10,10
244,664895467.8009839,1014.5707620042115, 1, 2, 4,10,35359.08742820678, 1, 1,20,10
281,2407221015.1057043,39959.06841621388, 1, 1, 5,10,54634.54471212738, 1, 1,19,10
318,0.0,0.0, 1, 1, 1,10,0.0, 1, 1, 1,10
355,10310294493.052883,12374.216038804521, 1, 2, 4,10,483183.26346918393, 1, 1,18,10
403,10310294493.052883,12374.216038804521, 1, 2, 4,10,483183.26346918393, 1, 1,18,10
476,5569688622.065564,4732.048419519677, 1, 2, 4,10,237357.535085481, 1, 1,12,10
513,0.0,0.0, 1, 1, 1,10,0.0, 1, 1, 1,10
599,8596366796.989635,0.0, 1, 1, 1,10,996479.7597718822, 8, 9,14,60
637,13594288390.233862,0.0, 1, 6,17,10,4232586.621077487, 1, 2, 6,20
677,3820423341.3781457,5100.0, 1, 1, 1,10,2705100.0000000005, 1, 3,11,20
691,2695323847.4968596,0.0, 1, 4,14,50,141777.84374265757, 1, 1, 9,40
1164,0.0,0.0, 1, 1, 1,10,0.0, 1, 1, 1,10
1370,0.0,0.0, 1, 1, 1,10,0.0, 1, 1, 1,10
End of Data
 Number of Records Written=          87
