Program Version,EnergyPlus, Version 22.2.0-c249759bad, YMD=2023.09.01 14:30
1,5,Environment Title[],Latitude[deg],Longitude[deg],Time Zone[],Elevation[m]
2,8,Day of Simulation[],Month[],Day of Month[],DST Indicator[1=yes 0=no],Hour[],StartMinute[],EndMinute[],DayType
3,5,Cumulative Day of Simulation[],Month[],Day of Month[],DST Indicator[1=yes 0=no],DayType  ! When Daily Report Variables Requested
4,2,Cumulative Days of Simulation[],Month[]  ! When Monthly Report Variables Requested
5,1,Cumulative Days of Simulation[] ! When Run Period Report Variables Requested
6,1,Calendar Year of Simulation[] ! When Annual Report Variables Requested
7,1,Environment,Site Outdoor Air Drybulb Temperature [C] !Hourly
619,1,DX_HEATING_COIL,Heating Coil Heating Rate [W] !Hourly
633,1,DX_HEATING_COIL,Heating Coil Electricity Rate [W] !Hourly
659,1,DX_HEATING_COIL,Heating Coil Defrost Electricity Rate [W] !Hourly
661,1,DX_HEATING_COIL,Heating Coil Crankcase Heater Electricity Rate [W] !Hourly
690,1,FAN,Fan Electricity Rate [W] !Hourly
716,1,HEAT PUMP WATER HEATER FAN,Fan Electricity Rate [W] !Hourly
718,1,LIVING,Zone Mean Air Temperature [C] !Hourly
719,1,ATTIC,Zone Mean Air Temperature [C] !Hourly
720,1,CRAWLSPACE,Zone Mean Air Temperature [C] !Hourly
843,1,LIVING,Zone Predicted Sensible Load to Heating Setpoint Heat Transfer Rate [W] !Hourly
844,1,LIVING,Zone System Predicted Sensible Load to Heating Setpoint Heat Transfer Rate [W] !Hourly
907,1,ATTIC,Zone Predicted Sensible Load to Heating Setpoint Heat Transfer Rate [W] !Hourly
908,1,ATTIC,Zone System Predicted Sensible Load to Heating Setpoint Heat Transfer Rate [W] !Hourly
971,1,CRAWLSPACE,Zone Predicted Sensible Load to Heating Setpoint Heat Transfer Rate [W] !Hourly
972,1,CRAWLSPACE,Zone System Predicted Sensible Load to Heating Setpoint Heat Transfer Rate [W] !Hourly
1195,1,HEATING_RESISTANCE_BACKUP,Heating Coil Heating Rate [W] !Hourly
1197,1,HEATING_RESISTANCE_BACKUP,Heating Coil Electricity Rate [W] !Hourly
End of Data Dictionary
1,EXTREME_WINTER,  45.81,-108.54,  -7.00,1088.00
2,1, 3, 5, 0, 1, 0.00,60.00,Monday
7,2.8
718,18.891127856350224
719,1.9449968141082183
720,17.67031613533629
619,2215.242426973354
633,673.1842112250902
659,51.63039634102945
661,111.1007048088343
690,74.00124904240033
716,0.0
843,1548.2572889245894
844,1548.2572889245894
907,0.0
908,0.0
971,0.0
972,0.0
1195,0.0
1197,0.0
2,1, 3, 5, 0, 2, 0.00,60.00,Monday
7,2.8
718,18.436327661071736
719,2.902847468683584
720,17.220725630021903
619,2303.4834239402835
633,703.3022918682317
659,35.68799896093666
661,110.72292963795547
690,74.47062785229993
716,0.0
843,1707.8564698153714
844,1707.8564698153714
907,0.0
908,0.0
971,0.0
972,0.0
1195,0.0
1197,0.0
2,1, 3, 5, 0, 3, 0.00,60.00,Monday
7,2.8
718,18.57103487881303
719,3.5661254003374645
720,16.947277753222664
619,2843.4672180600105
633,848.5511772074294
659,43.46121605092018
661,91.27745582919667
690,90.69194415498443
716,0.0
843,2132.442516154235
844,2132.442516154235
907,0.0
908,0.0
971,0.0
972,0.0
1195,0.0
1197,0.0
2,1, 3, 5, 0, 4, 0.00,60.00,Monday
7,0.0
718,18.793929857620135
719,2.7819213700572236
720,16.68687947094058
619,2894.217264569287
633,907.668857505936
659,60.319095417824684
661,78.78680977329249
690,100.59653824629737
716,0.0
843,2166.900471985082
844,2166.900471985082
907,0.0
908,0.0
971,0.0
972,0.0
1195,0.0
1197,0.0
2,1, 3, 5, 0, 5, 0.00,60.00,Monday
7,1.1
718,18.60971253452972
719,2.6946387932985956
720,16.478385256445907
619,2695.3818417861235
633,836.864975568977
659,47.874408844795646
661,90.98605973756358
690,90.7071196864533
716,0.0
843,1986.3435743189184
844,1986.3435743189184
907,0.0
908,0.0
971,0.0
972,0.0
1195,0.0
1197,0.0
2,1, 3, 5, 0, 6, 0.00,60.00,Monday
7,1.1
718,19.37051196105131
719,3.3563275373446753
720,16.26473642212394
619,3925.7506339949714
633,1180.6026570049296
659,67.80898119317447
661,45.59340985255875
690,128.4777731105098
716,0.0
843,2915.025201129456
844,2915.025201129456
907,0.0
908,0.0
971,0.0
972,0.0
1195,0.0
1197,0.0
2,1, 3, 5, 0, 7, 0.00,60.00,Monday
7,1.7
718,19.59571127115292
719,4.012029779857828
720,16.120179731301807
619,4733.960280472271
633,1410.8953863541417
659,72.86664209684034
661,20.252042722569442
690,149.74546828975025
716,85.44000000000004
843,2504.1135186292213
844,2504.1135186292213
907,0.0
908,0.0
971,0.0
972,0.0
1195,0.0
1197,0.0
2,1, 3, 5, 0, 8, 0.00,60.00,Monday
7,2.2
718,19.653893286122965
719,4.082620647559062
720,15.955695042191627
619,4558.357292208478
633,1359.1867524825425
659,85.31714114813842
661,25.66625794809747
690,145.1548038763932
716,85.44000000000004
843,2312.970307012345
844,2312.970307012345
907,0.0
908,0.0
971,0.0
972,0.0
1195,0.0
1197,0.0
2,1, 3, 5, 0, 9, 0.00,60.00,Monday
7,2.2
718,19.74158195464156
719,4.5583667891168735
720,15.78772320913784
619,2974.623763165946
633,918.8872300354342
659,57.60958071292735
661,82.28281388042178
690,98.01421523487996
716,9.554222167445651
843,2089.115856140974
844,2089.115856140974
907,0.0
908,0.0
971,0.0
972,0.0
1195,0.0
1197,0.0
2,1, 3, 5, 0,10, 0.00,60.00,Monday
7,2.8
718,19.753308721232372
719,4.931691377824021
720,15.645264734194837
619,2585.274618219822
633,798.8066046247471
659,21.796212781450215
661,103.18428536740099
690,80.91134020911521
716,0.0
843,1935.6304607658076
844,1935.6304607658076
907,0.0
908,0.0
971,0.0
972,0.0
1195,0.0
1197,0.0
2,1, 3, 5, 0,11, 0.00,60.00,Monday
7,3.3
718,19.73132521371506
719,6.301255442974547
720,15.512039961648936
619,2390.5892204290685
633,735.7980427066404
659,13.110683656551968
661,112.42755544357274
690,73.25768779091568
716,0.0
843,1800.7998978363776
844,1800.7998978363776
907,0.0
908,0.0
971,0.0
972,0.0
1195,0.0
1197,0.0
2,1, 3, 5, 0,12, 0.00,60.00,Monday
7,3.3
718,19.750064453341484
719,7.951962419319571
720,15.382560964984698
619,1835.446032670304
633,570.9846747883856
659,10.178851477129752
661,132.01064643310275
690,56.87569432850889
716,0.0
843,1391.5870991584234
844,1391.5870991584234
907,0.0
908,0.0
971,0.0
972,0.0
1195,0.0
1197,0.0
2,1, 3, 5, 0,13, 0.00,60.00,Monday
7,8.3
718,19.72832512755622
719,9.687311555750526
720,15.260197695925022
619,804.2932557453498
633,218.1768469845892
659,0.0
661,177.08012020414378
690,19.19855654166014
716,0.0
843,635.3349710778584
844,635.3349710778584
907,0.0
908,0.0
971,0.0
972,0.0
1195,0.0
1197,0.0
2,1, 3, 5, 0,14, 0.00,60.00,Monday
7,7.8
718,19.43312663162793
719,10.879062421802967
720,15.191338264778251
619,1315.3079358613834
633,355.9992168875886
659,0.0
661,162.36748795509547
690,31.522412714809633
716,77.40003143754437
843,152.39601595604472
844,152.39601595604472
907,0.0
908,0.0
971,0.0
972,0.0
1195,0.0
1197,0.0
2,1, 3, 5, 0,15, 0.00,60.00,Monday
7,7.8
718,19.73256807678252
719,10.873549581227097
720,15.11568590472319
619,357.6236958573266
633,97.62788015298707
659,0.0
661,189.6241939413621
690,8.691166841026527
716,0.0
843,288.8493535685975
844,288.8493535685975
907,0.0
908,0.0
971,0.0
972,0.0
1195,0.0
1197,0.0
2,1, 3, 5, 0,16, 0.00,60.00,Monday
7,5.6
718,19.75899518728914
719,9.661955676217428
720,15.089158791501362
619,470.9949703551566
633,133.31046328453098
659,0.0
661,185.57284317877932
690,12.08473117811375
716,0.0
843,371.0623412504392
844,371.0623412504392
907,0.0
908,0.0
971,0.0
972,0.0
1195,0.0
1197,0.0
2,1, 3, 5, 0,17, 0.00,60.00,Monday
7,6.1
718,20.493046686766476
719,10.020991201669299
720,15.058596410633582
619,37.90395142317253
633,10.733772582393723
659,0.0
661,198.84500303659703
690,0.9674690576407999
716,0.0
843,29.664979485676668
844,29.664979485676668
907,0.0
908,0.0
971,0.0
972,0.0
1195,0.0
1197,0.0
2,1, 3, 5, 0,18, 0.00,60.00,Monday
7,6.1
718,20.36988872603908
719,8.632646905306851
720,15.037724167330625
619,0.0
633,0.0
659,0.0
661,200.0
690,0.0
716,0.0
843,-420.4340576997274
844,-420.4340576997274
907,0.0
908,0.0
971,0.0
972,0.0
1195,0.0
1197,0.0
2,1, 3, 5, 0,19, 0.00,60.00,Monday
7,3.9
718,19.903499316263886
719,6.122262268743619
720,15.05572791917965
619,1485.9003177534626
633,467.76863578673544
659,0.021517121494478847
661,146.67464991054175
690,44.66719732842859
716,85.44000000000004
843,83.18468165736704
844,83.18468165736704
907,0.0
908,0.0
971,0.0
972,0.0
1195,0.0
1197,0.0
2,1, 3, 5, 0,20, 0.00,60.00,Monday
7,2.8
718,20.008628493798852
719,5.308936478460971
720,15.012042033952891
619,1590.2284322164883
633,502.771439119844
659,0.023580222210205882
661,141.5617184264589
690,48.949917531391286
716,85.44000000000004
843,135.02686718319455
844,135.02686718319455
907,0.0
908,0.0
971,0.0
972,0.0
1195,0.0
1197,0.0
2,1, 3, 5, 0,21, 0.00,60.00,Monday
7,2.8
718,19.83087427135975
719,3.811731788408486
720,14.947509192282176
619,865.5105467790476
633,278.4368730323287
659,0.013031299863915921
661,167.70485180639366
690,27.051528466922885
716,52.33962900419075
843,6.808642391790272
844,6.808642391790272
907,0.0
908,0.0
971,0.0
972,0.0
1195,0.0
1197,0.0
2,1, 3, 5, 0,22, 0.00,60.00,Monday
7,-3.9
718,17.604844412848482
719,-0.5230650417849612
720,14.869511947250995
619,1063.1347203223106
633,386.39815142467
659,19.758104719977176
661,148.91866494852604
690,42.270362218308165
716,0.0
843,757.9727444825276
844,757.9727444825276
907,0.0
908,0.0
971,0.0
972,0.0
1195,0.0
1197,0.0
2,1, 3, 5, 0,23, 0.00,60.00,Monday
7,-5.6
718,18.588719981430877
719,-1.213569908668946
720,14.743122524645997
619,3572.0328645884383
633,1188.7245287235687
659,54.050081973446055
661,35.20465848332799
690,136.3647456749419
716,0.0
843,2510.2451886107283
844,2510.2451886107283
907,0.0
908,0.0
971,0.0
972,0.0
1195,0.0
1197,0.0
2,1, 3, 5, 0,24, 0.00,60.00,Monday
7,-5.6
718,18.61461079484067
719,-2.0342832969422084
720,14.692122206934172
619,3302.489835653167
633,1133.5719706204425
659,50.56672723087427
661,45.825190653988756
690,127.56814017623113
716,0.0
843,2226.5228374840344
844,2226.5228374840344
907,0.0
908,0.0
971,0.0
972,0.0
1195,0.0
1197,0.0
2,2, 3, 6, 0, 1, 0.00,60.00,Tuesday
7,-6.7
718,18.449440535736212
719,-2.5655266618893946
720,14.554853487158088
619,4345.022483252198
633,1466.286881563468
659,58.79719558484185
661,0.0
690,167.52754999292037
716,0.0
843,3353.673353171609
844,3353.673353171609
907,0.0
908,0.0
971,0.0
972,0.0
1195,590.0876256727206
1197,590.0876256727206
2,2, 3, 6, 0, 2, 0.00,60.00,Tuesday
7,-7.2
718,18.551084710765746
719,-2.6457616862411872
720,14.419234881381206
619,4330.475375213929
633,1470.4854273735666
659,47.18587893400233
661,0.0
690,167.52754999292037
716,0.0
843,4070.2214015958634
844,4070.2214015958634
907,0.0
908,0.0
971,0.0
972,0.0
1195,1490.5907415186252
1197,1490.5907415186252
2,2, 3, 6, 0, 3, 0.00,60.00,Tuesday
7,-7.2
718,18.58689678904432
719,-2.7429753575937155
720,14.291632721652771
619,4328.126718925906
633,1473.1707750768269
659,47.18587893400233
661,0.0
690,167.52754999292037
716,0.0
843,4362.28122991141
844,4362.28122991141
907,0.0
908,0.0
971,0.0
972,0.0
1195,1851.287702511917
1197,1851.287702511917
2,2, 3, 6, 0, 4, 0.00,60.00,Tuesday
7,-8.0
718,18.600546571936565
719,-3.9209924735208492
720,14.147525419181905
619,4328.6658692364945
633,1499.7407417221073
659,19.84936530154597
661,0.0
690,167.52754999292037
716,0.0
843,4653.10962495069
844,4653.10962495069
907,0.0
908,0.0
971,0.0
972,0.0
1195,2201.752879593825
1197,2201.752879593825
2,2, 3, 6, 0, 5, 0.00,60.00,Tuesday
7,-8.9
718,18.603168693854734
719,-4.118721612825791
720,14.00022678022118
619,4221.609656173081
633,1491.4441590786992
659,17.44583022366293
661,0.0
690,167.52754999292037
716,0.0
843,4561.361805554241
844,4561.361805554241
907,0.0
908,0.0
971,0.0
972,0.0
1195,2262.933645979244
1197,2262.933645979244
2,2, 3, 6, 0, 6, 0.00,60.00,Tuesday
7,-8.9
718,19.371934189960932
719,-4.211862892401892
720,13.858134984551766
619,4221.741095539213
633,1491.2966719104184
659,17.44583022366293
661,0.0
690,167.52754999292037
716,0.0
843,5675.477859946144
844,5675.477859946144
907,0.0
908,0.0
971,0.0
972,0.0
1195,3619.213099360691
1197,3619.213099360691
2,2, 3, 6, 0, 7, 0.00,60.00,Tuesday
7,-10.0
718,19.57672945660402
719,-5.077602655327575
720,13.74879125527377
619,4072.4564919823215
633,1501.6861891948547
659,14.813535646698599
661,0.0
690,167.52754999292037
716,85.44000000000004
843,5273.475928393567
844,5273.475928393567
907,0.0
908,0.0
971,0.0
972,0.0
1195,4439.069884545765
1197,4439.069884545765
2,2, 3, 6, 0, 8, 0.00,60.00,Tuesday
7,-10.6
718,19.65402444318749
719,-4.837366250761162
720,13.610157936462997
619,3982.750028364234
633,1495.4522353499206
659,17.59681826716647
661,0.0
690,167.52754999292037
716,85.44000000000004
843,4445.257519112516
844,4445.257519112516
907,0.0
908,0.0
971,0.0
972,0.0
1195,3716.4537551565045
1197,3716.4537551565045
2,2, 3, 6, 0, 9, 0.00,60.00,Tuesday
7,-10.6
718,19.688659115853845
719,-4.5922310573107215
720,13.477816227454154
619,3980.974774514689
633,1497.389364510241
659,17.59681826716647
661,0.0
690,167.52754999292037
716,85.44000000000004
843,4303.638156490431
844,4303.638156490431
907,0.0
908,0.0
971,0.0
972,0.0
1195,3535.9502880312243
1197,3535.9502880312243
2,2, 3, 6, 0,10, 0.00,60.00,Tuesday
7,-10.6
718,19.70389179347842
719,-4.741202962824631
720,13.344260600547864
619,3961.7162958496524
633,1491.1295132537962
659,22.963650567290447
661,0.0
690,167.52754999292037
716,37.438567453508654
843,4682.294228022232
844,4682.294228022232
907,0.0
908,0.0
971,0.0
972,0.0
1195,3282.7154442251694
1197,3282.7154442251694
2,2, 3, 6, 0,11, 0.00,60.00,Tuesday
7,-10.0
718,19.71753435504264
719,-1.9157529052799125
720,13.227751879725949
619,4049.688063126058
633,1504.7022187435482
659,19.059702189880905
661,0.0
690,167.52754999292037
716,0.0
843,3792.205693610438
844,3792.205693610438
907,0.0
908,0.0
971,0.0
972,0.0
1195,1664.5664836300148
1197,1664.5664836300148
2,2, 3, 6, 0,12, 0.00,60.00,Tuesday
7,-10.0
718,19.72368696898203
719,-0.5754378428439303
720,13.113665310167246
619,4049.5027456317907
633,1504.9062385567538
659,19.059702189880905
661,0.0
690,167.52754999292037
716,0.0
843,3519.01303299927
844,3519.01303299927
907,0.0
908,0.0
971,0.0
972,0.0
1195,1194.2574961352684
1197,1194.2574961352684
2,2, 3, 6, 0,13, 0.00,60.00,Tuesday
7,-8.0
718,19.73570836239068
719,0.802226035624875
720,13.030079221259962
619,4169.775726530683
633,1493.5344250177043
659,9.173128764906357
661,6.634607316065955
690,161.61816956162457
716,0.0
843,2709.6664530940106
844,2709.6664530940106
907,0.0
908,0.0
971,0.0
972,0.0
1195,0.0
1197,0.0
2,2, 3, 6, 0,14, 0.00,60.00,Tuesday
7,-7.8
718,19.734013279150556
719,4.389131217816565
720,12.94623466276966
619,4020.087214650224
633,1440.4779767152413
659,9.131179164400566
661,13.808064822178888
690,155.6175935976237
716,0.0
843,2668.716345001849
844,2668.716345001849
907,0.0
908,0.0
971,0.0
972,0.0
1195,0.0
1197,0.0
2,2, 3, 6, 0,15, 0.00,60.00,Tuesday
7,-7.8
718,19.77462460796288
719,5.401268624853226
720,12.863694484066206
619,3309.191217976041
633,1207.6253886263482
659,7.655093960107331
661,43.90660475075654
690,130.4614963413519
716,0.0
843,2317.6869877167555
844,2317.6869877167555
907,0.0
908,0.0
971,0.0
972,0.0
1195,0.0
1197,0.0
2,2, 3, 6, 0,16, 0.00,60.00,Tuesday
7,-6.7
718,19.90085801570821
719,7.8341474197017025
720,12.793273967813937
619,2265.285552148668
633,834.1847032692945
659,12.700583397437915
661,92.01440801480724
690,90.01978204978631
716,0.0
843,1617.1663786681365
844,1617.1663786681365
907,0.0
908,0.0
971,0.0
972,0.0
1195,0.0
1197,0.0
2,2, 3, 6, 0,17, 0.00,60.00,Tuesday
7,-6.7
718,19.75719098096496
719,5.489738736859796
720,12.766080255846553
619,2157.0830190409115
633,799.0338493746611
659,12.13425178058784
661,96.81016533047261
690,86.0216894198784
716,0.0
843,1592.5213884167206
844,1592.5213884167206
907,0.0
908,0.0
971,0.0
972,0.0
1195,0.0
1197,0.0
2,2, 3, 6, 0,18, 0.00,60.00,Tuesday
7,-6.7
718,19.715044168068523
719,3.8283636768764073
720,12.760670445368925
619,2782.0664194979154
633,1010.100592689384
659,15.384182812247044
661,69.17270964649032
690,109.06143924925432
716,67.43876044802899
843,1281.2834524039008
844,1281.2834524039008
907,0.0
908,0.0
971,0.0
972,0.0
1195,0.0
1197,0.0
2,2, 3, 6, 0,19, 0.00,60.00,Tuesday
7,-7.2
718,19.676116550956664
719,0.1903435129877811
720,12.717119414114896
619,2502.3450715998188
633,923.7668956126712
659,16.54345457328256
661,79.33292191885583
690,100.48111873762052
716,0.0
843,1744.8867401312928
844,1744.8867401312928
907,0.0
908,0.0
971,0.0
972,0.0
1195,0.0
1197,0.0
2,2, 3, 6, 0,20, 0.00,60.00,Tuesday
7,-7.8
718,19.61813408780204
719,-0.7793626345227698
720,12.749035230652671
619,4301.327358755991
633,1521.832034165303
659,27.143305780926365
661,0.0
690,167.52754999292037
716,85.44000000000004
843,1929.2784348638143
844,1929.2784348638143
907,0.0
908,0.0
971,0.0
972,0.0
1195,192.35479032874537
1197,192.35479032874537
2,2, 3, 6, 0,21, 0.00,60.00,Tuesday
7,-7.8
718,19.64849412560187
719,-2.0839711983208784
720,12.683806633666723
619,4302.765879490205
633,1520.2002307237024
659,27.143305780926365
661,0.0
690,167.52754999292037
716,85.44000000000004
843,2227.1087669936423
844,2227.1087669936423
907,0.0
908,0.0
971,0.0
972,0.0
1195,578.7255838670094
1197,578.7255838670094
2,2, 3, 6, 0,22, 0.00,60.00,Tuesday
7,-8.9
718,19.686302918390574
719,-2.8338160947277258
720,12.616780853485869
619,4117.916114894012
633,1490.611884196053
659,39.06733929373003
661,0.0
690,167.52754999292037
716,77.43870609246373
843,2666.4185555288204
844,2666.4185555288204
907,0.0
908,0.0
971,0.0
972,0.0
1195,1086.2842278199778
1197,1086.2842278199778
2,2, 3, 6, 0,23, 0.00,60.00,Tuesday
7,-8.9
718,18.98352109850771
719,-4.058520685274331
720,12.520723973459136
619,3492.967983125334
633,1298.7633720038336
659,34.03717094580066
661,25.867517545945383
690,144.41302394346746
716,0.0
843,2126.93867589866
844,2126.93867589866
907,0.0
908,0.0
971,0.0
972,0.0
1195,0.0
1197,0.0
2,2, 3, 6, 0,24, 0.00,60.00,Tuesday
7,-8.9
718,18.70039711383769
719,-4.185689313960643
720,12.425309472979665
619,4134.69148851759
633,1471.6827663527506
659,39.09341952301343
661,0.0
690,167.52754999292037
716,0.0
843,2597.8626700892783
844,2597.8626700892783
907,0.0
908,0.0
971,0.0
972,0.0
1195,83.09851183744104
1197,83.09851183744104
2,3, 3, 7, 0, 1, 0.00,60.00,Wednesday
7,-8.9
718,18.634768447188947
719,-4.541663771018846
720,12.31382148555111
619,4141.613480297881
633,1463.5149979829462
659,39.168003995003126
661,0.0
690,167.52754999292037
716,0.0
843,3643.6199970483067
844,3643.6199970483067
907,0.0
908,0.0
971,0.0
972,0.0
1195,1311.2043098717977
1197,1311.2043098717977
2,3, 3, 7, 0, 2, 0.00,60.00,Wednesday
7,-8.3
718,18.61632679845407
719,-4.717453773775084
720,12.216136808296119
619,4209.0239397447185
633,1465.6220050275645
659,41.8480057685862
661,0.0
690,167.52754999292037
716,0.0
843,3862.422476035743
844,3862.422476035743
907,0.0
908,0.0
971,0.0
972,0.0
1195,1521.3930999463446
1197,1521.3930999463446
2,3, 3, 7, 0, 3, 0.00,60.00,Wednesday
7,-8.3
718,18.608513752528836
719,-4.642033646495096
720,12.107283749511325
619,4209.612077636137
633,1464.9572913495667
659,41.8480057685862
661,0.0
690,167.52754999292037
716,0.0
843,4112.880641602251
844,4112.880641602251
907,0.0
908,0.0
971,0.0
972,0.0
1195,1823.3824069159928
1197,1823.3824069159928
2,3, 3, 7, 0, 4, 0.00,60.00,Wednesday
7,-8.3
718,18.609483022833526
719,-4.476559446959926
720,12.000789457117623
619,4209.601113758521
633,1464.482148791382
659,41.93615880312489
661,0.0
690,167.52754999292037
716,0.0
843,3988.6295819342486
844,3988.6295819342486
907,0.0
908,0.0
971,0.0
972,0.0
1195,1677.782546727637
1197,1677.782546727637
2,3, 3, 7, 0, 5, 0.00,60.00,Wednesday
7,-7.8
718,18.607593860410567
719,-4.036451988268648
720,11.8979885668512
619,4264.309800323657
633,1467.5812041400466
659,44.27624524063306
661,0.0
690,167.52754999292037
716,0.0
843,3944.378677969682
844,3944.378677969682
907,0.0
908,0.0
971,0.0
972,0.0
1195,1557.661895041529
1197,1557.661895041529
2,3, 3, 7, 0, 6, 0.00,60.00,Wednesday
7,-7.8
718,19.264851228956015
719,-3.648418562461059
720,11.791697840085954
619,4264.495330058881
633,1467.3703612151542
659,44.27624524063306
661,0.0
690,167.52754999292037
716,77.75169960303711
843,5008.417428169045
844,5008.417428169045
907,0.0
908,0.0
971,0.0
972,0.0
1195,3708.4289193426816
1197,3708.4289193426816
2,3, 3, 7, 0, 7, 0.00,60.00,Wednesday
7,-7.8
718,19.53644973609996
719,-3.7789066992590925
720,11.722571529492468
619,4248.011920803036
633,1485.6901404630853
659,44.34814371434775
661,0.0
690,167.52754999292037
716,85.44000000000004
843,4816.112479027855
844,4816.112479027855
907,0.0
908,0.0
971,0.0
972,0.0
1195,3766.4413905571537
1197,3766.4413905571537
2,3, 3, 7, 0, 8, 0.00,60.00,Wednesday
7,-6.1
718,19.640601810222876
719,-2.270431921419263
720,11.649604387794257
619,4479.664985981029
633,1521.7546746353285
659,39.52387393805077
661,0.0
690,167.52754999292037
716,84.27847561861971
843,3848.093096321645
844,3848.093096321645
907,0.0
908,0.0
971,0.0
972,0.0
1195,2422.8546215353745
1197,2422.8546215353745
2,3, 3, 7, 0, 9, 0.00,60.00,Wednesday
7,-6.1
718,19.70110951482515
719,-0.32268322419564854
720,11.570775078029568
619,4477.11356399324
633,1524.702064686627
659,39.52387393805077
661,0.0
690,167.52754999292037
716,0.0
843,2973.114993621768
844,2973.114993621768
907,0.0
908,0.0
971,0.0
972,0.0
1195,166.30264206183938
1197,166.30264206183938
2,3, 3, 7, 0,10, 0.00,60.00,Wednesday
7,1.7
718,19.821459925422705
719,4.203660485222212
720,11.378048264558075
619,1932.219887008807
633,611.8233859301191
659,0.02920932889974415
661,127.61124252346407
690,60.6352488949252
716,0.0
843,1325.3179307164737
844,1325.3179307164737
907,0.0
908,0.0
971,0.0
972,0.0
1195,0.0
1197,0.0
2,3, 3, 7, 0,11, 0.00,60.00,Wednesday
7,6.1
718,19.51284554991863
719,7.911723612643385
720,11.30344958448346
619,848.1144700659585
633,236.15743434575012
659,0.0
661,174.51879239509657
690,21.344021404552198
716,0.0
843,634.9306077347846
844,634.9306077347846
907,0.0
908,0.0
971,0.0
972,0.0
1195,0.0
1197,0.0
2,3, 3, 7, 0,12, 0.00,60.00,Wednesday
7,6.1
718,19.70870640043388
719,9.439517968341864
720,11.299010967080644
619,631.4629600525599
633,175.20108110130056
659,0.0
661,180.98536459955875
690,15.927376413222877
716,0.0
843,491.6714473260963
844,491.6714473260963
907,0.0
908,0.0
971,0.0
972,0.0
1195,0.0
1197,0.0
2,3, 3, 7, 0,13, 0.00,60.00,Wednesday
7,8.3
718,20.27231142023677
719,12.65120571982694
720,11.316789152796717
619,205.35787857928307
633,55.913554929345125
659,0.0
661,194.09878170416533
690,4.943083215372887
716,0.0
843,151.37559097093254
844,151.37559097093254
907,0.0
908,0.0
971,0.0
972,0.0
1195,0.0
1197,0.0
2,3, 3, 7, 0,14, 0.00,60.00,Wednesday
7,8.9
718,20.847070125783908
719,14.007781323417689
720,11.369340432882053
619,0.0
633,0.0
659,0.0
661,200.0
690,0.0
716,0.0
843,-726.1421753805007
844,-726.1421753805007
907,0.0
908,0.0
971,0.0
972,0.0
1195,0.0
1197,0.0
2,3, 3, 7, 0,15, 0.00,60.00,Wednesday
7,8.9
718,20.571710947879467
719,14.239356549686974
720,11.450095403102008
619,0.0
633,0.0
659,0.0
661,200.0
690,0.0
716,73.84164950137365
843,-1405.2194636154163
844,-1405.2194636154163
907,0.0
908,0.0
971,0.0
972,0.0
1195,0.0
1197,0.0
2,3, 3, 7, 0,16, 0.00,60.00,Wednesday
7,8.9
718,20.799876509936666
719,12.881087933395975
720,11.547296781376183
619,0.0
633,0.0
659,0.0
661,200.0
690,0.0
716,85.44000000000004
843,-2008.1131796459576
844,-2008.1131796459576
907,0.0
908,0.0
971,0.0
972,0.0
1195,0.0
1197,0.0
2,3, 3, 7, 0,17, 0.00,60.00,Wednesday
7,7.8
718,22.040486490383074
719,11.405367999883238
720,11.651834275866994
619,0.0
633,0.0
659,0.0
661,200.0
690,0.0
716,7.461332989648398
843,-2289.602086932806
844,-2289.602086932806
907,0.0
908,0.0
971,0.0
972,0.0
1195,0.0
1197,0.0
2,3, 3, 7, 0,18, 0.00,60.00,Wednesday
7,7.8
718,22.37239815558453
719,9.95408038834654
720,11.757944965844347
619,0.0
633,0.0
659,0.0
661,200.0
690,0.0
716,0.0
843,-2022.8652900597226
844,-2022.8652900597226
907,0.0
908,0.0
971,0.0
972,0.0
1195,0.0
1197,0.0
2,3, 3, 7, 0,19, 0.00,60.00,Wednesday
7,3.3
718,21.61178058184882
719,7.22860991294999
720,11.862685814143795
619,0.0
633,0.0
659,0.0
661,200.0
690,0.0
716,0.0
843,-1461.9252024144953
844,-1461.9252024144953
907,0.0
908,0.0
971,0.0
972,0.0
1195,0.0
1197,0.0
2,3, 3, 7, 0,20, 0.00,60.00,Wednesday
7,1.7
718,19.985824278663397
719,4.303621779784919
720,11.934631136863047
619,0.0
633,0.0
659,0.0
661,200.0
690,0.0
716,85.44000000000004
843,-930.2571949073536
844,-930.2571949073536
907,0.0
908,0.0
971,0.0
972,0.0
1195,0.0
1197,0.0
2,3, 3, 7, 0,21, 0.00,60.00,Wednesday
7,1.7
718,19.255467024740685
719,3.137681345963756
720,11.973107147144386
619,0.0
633,0.0
659,0.0
661,200.0
690,0.0
716,85.44000000000004
843,-418.0909761561852
844,-418.0909761561852
907,0.0
908,0.0
971,0.0
972,0.0
1195,0.0
1197,0.0
2,3, 3, 7, 0,22, 0.00,60.00,Wednesday
7,1.1
718,19.471072236732727
719,1.717913474073412
720,11.983711625368857
619,0.0
633,0.0
659,0.0
661,200.0
690,0.0
716,26.975057174856556
843,-82.47848057870578
844,-82.47848057870578
907,0.0
908,0.0
971,0.0
972,0.0
1195,0.0
1197,0.0
2,3, 3, 7, 0,23, 0.00,60.00,Wednesday
7,0.0
718,18.89999307761236
719,0.3973658897057864
720,11.964213728231382
619,0.0
633,0.0
659,0.0
661,200.0
690,0.0
716,0.0
843,-218.36338040936062
844,-218.36338040936062
907,0.0
908,0.0
971,0.0
972,0.0
1195,0.0
1197,0.0
2,3, 3, 7, 0,24, 0.00,60.00,Wednesday
7,0.0
718,18.590967874615384
719,-0.15052113834068262
720,11.960413110102172
619,550.5681529201639
633,181.6530044259325
659,1.4892658140471609
661,177.59506241305388
690,18.745650459969962
716,0.0
843,392.41401463942566
844,392.41401463942566
907,0.0
908,0.0
971,0.0
972,0.0
1195,0.0
1197,0.0
2,4, 3, 8, 0, 1, 0.00,60.00,Thursday
7,-0.6
718,18.542555839769168
719,-0.4348319710403398
720,11.933876235295115
619,1117.519982971352
633,364.8795528744633
659,0.018159666770977915
661,154.9953469232036
690,37.69731016776901
716,0.0
843,791.9139797208281
844,791.9139797208281
907,0.0
908,0.0
971,0.0
972,0.0
1195,0.0
1197,0.0
2,4, 3, 8, 0, 2, 0.00,60.00,Thursday
7,0.6
718,18.17885170539757
719,0.7860034173094277
720,11.912447672722566
619,1956.6196590659094
633,613.5943661036758
659,0.030250526101363983
661,125.03086924710418
690,62.796583427318176
716,0.0
843,1387.906692105429
844,1387.906692105429
907,0.0
908,0.0
971,0.0
972,0.0
1195,0.0
1197,0.0
2,4, 3, 8, 0, 3, 0.00,60.00,Thursday
7,0.6
718,18.47560034766088
719,1.3322972713797185
720,11.882642512708228
619,3005.562912050165
633,913.963324180714
659,0.04538701805886849
661,87.5184755485647
690,94.21818609123953
716,0.0
843,2171.3100082638757
844,2171.3100082638757
907,0.0
908,0.0
971,0.0
972,0.0
1195,0.0
1197,0.0
2,4, 3, 8, 0, 4, 0.00,60.00,Thursday
7,0.0
718,18.67646429901132
719,1.1369417697742483
720,11.837282420633967
619,3308.6067667888287
633,1016.7639336015108
659,0.05047310343896462
661,74.91375592804788
690,104.77623800696125
716,0.0
843,2383.9759640019056
844,2383.9759640019056
907,0.0
908,0.0
971,0.0
972,0.0
1195,0.0
1197,0.0
2,4, 3, 8, 0, 5, 0.00,60.00,Thursday
7,-1.7
718,18.677998075374042
719,0.2966232271398546
720,11.765423693046268
619,3214.493548844463
633,1023.340341675311
659,0.051354539723858866
661,72.72931418078173
690,106.6057792312978
716,0.0
843,2271.024672764128
844,2271.024672764128
907,0.0
908,0.0
971,0.0
972,0.0
1195,0.0
1197,0.0
2,4, 3, 8, 0, 6, 0.00,60.00,Thursday
7,-1.7
718,19.37166512111245
719,0.2888308484642783
720,11.757469063143011
619,4466.766639237707
633,1383.8511996596148
659,0.06946261420310829
661,27.852521004718113
690,144.1959398024384
716,0.0
843,3138.4585070822777
844,3138.4585070822777
907,0.0
908,0.0
971,0.0
972,0.0
1195,0.0
1197,0.0
2,4, 3, 8, 0, 7, 0.00,60.00,Thursday
7,-2.2
718,19.50563918908119
719,0.8687497580063659
720,11.75346158921237
619,5065.190198818665
633,1584.2144207207975
659,27.67347575480542
661,0.0
690,167.52754999292037
716,85.44000000000004
843,3459.8019236159525
844,3459.8019236159525
907,0.0
908,0.0
971,0.0
972,0.0
1195,1214.4733079227026
1197,1214.4733079227026
2,4, 3, 8, 0, 8, 0.00,60.00,Thursday
7,-2.2
718,19.631492328413714
719,1.4926091840839897
720,11.684070491893197
619,5025.019337611718
633,1576.823964733911
659,35.93263547892959
661,0.0
690,167.52754999292037
716,85.44000000000004
843,3466.5736616707145
844,3466.5736616707145
907,0.0
908,0.0
971,0.0
972,0.0
1195,1293.3614199117665
1197,1293.3614199117665
2,4, 3, 8, 0, 9, 0.00,60.00,Thursday
7,-2.2
718,19.671834507273825
719,3.1911204357085223
720,11.633739431689769
619,5021.835178216666
633,1580.6009267835193
659,35.93263547892959
661,0.0
690,167.52754999292037
716,85.44000000000004
843,2787.9438355061593
844,2787.9438355061593
907,0.0
908,0.0
971,0.0
972,0.0
1195,336.13872520343557
1197,336.13872520343557
2,4, 3, 8, 0,10, 0.00,60.00,Thursday
7,-2.0
718,19.703231553109124
719,1.8829155570966567
720,11.58039607538304
619,4854.891810995606
633,1523.3603524458695
659,79.43351920129588
661,0.0
690,167.52754999292037
716,13.558668119247717
843,3809.533981561781
844,3809.533981561781
907,0.0
908,0.0
971,0.0
972,0.0
1195,671.1107917704999
1197,671.1107917704999
2,4, 3, 8, 0,11, 0.00,60.00,Thursday
7,-2.8
718,19.73032147413502
719,3.6463729790686763
720,11.520269902279766
619,4357.804946628066
633,1417.9196400532098
659,100.1865967216226
661,8.28685326914378
690,158.24670830456688
716,0.0
843,2958.282113847752
844,2958.282113847752
907,0.0
908,0.0
971,0.0
972,0.0
1195,0.0
1197,0.0
2,4, 3, 8, 0,12, 0.00,60.00,Thursday
7,-2.8
718,19.73068427207457
719,3.1683186858497394
720,11.469962119099504
619,4253.161170517534
633,1388.217583963001
659,98.04062718597626
661,12.393296505362873
690,154.85681365998502
716,0.0
843,2959.5681205963174
844,2959.5681205963174
907,0.0
908,0.0
971,0.0
972,0.0
1195,0.0
1197,0.0
2,4, 3, 8, 0,13, 0.00,60.00,Thursday
7,-2.8
718,19.757965525680635
719,3.1259460052199843
720,11.390980789613069
619,3831.7826622782086
633,1263.080962700715
659,80.48820156611998
661,30.8054915851804
690,139.85774471099933
716,0.0
843,2654.7542958249305
844,2654.7542958249305
907,0.0
908,0.0
971,0.0
972,0.0
1195,0.0
1197,0.0
2,4, 3, 8, 0,14, 0.00,60.00,Thursday
7,-3.0
718,19.752594912585447
719,3.4898031269976064
720,11.332001242456498
619,3586.879659090664
633,1194.034905912434
659,68.59790169241542
661,41.1625414919506
690,131.42843112777203
716,0.0