Program Version,EnergyPlus, Version 9.5.0-de239b2e5f, YMD=2022.11.02 12:58
1,5,Environment Title[],Latitude[deg],Longitude[deg],Time Zone[],Elevation[m]
2,8,Day of Simulation[],Month[],Day of Month[],DST Indicator[1=yes 0=no],Hour[],StartMinute[],EndMinute[],DayType
3,5,Cumulative Day of Simulation[],Month[],Day of Month[],DST Indicator[1=yes 0=no],DayType  ! When Daily Report Variables Requested
4,2,Cumulative Days of Simulation[],Month[]  ! When Monthly Report Variables Requested
5,1,Cumulative Days of Simulation[] ! When Run Period Report Variables Requested
6,1,Calendar Year of Simulation[] ! When Annual Report Variables Requested
7,1,Environment,Site Outdoor Air Drybulb Temperature [C] !Hourly
192,1,LIVING,Zone Mean Air Temperature [C] !Hourly
193,1,ATTIC,Zone Mean Air Temperature [C] !Hourly
194,1,FAN,Fan Electricity Rate [W] !Hourly
628,1,DX_HEATING_COIL,Heating Coil Electricity Rate [W] !Hourly
694,1,HEATING_FUEL_BACKUP,Heating Coil NaturalGas Rate [W] !Hourly
696,1,HEATING_FUEL_BACKUP,Heating Coil Electricity Rate [W] !Hourly
End of Data Dictionary
1,TACOMA-JB.LEWIS-MCCHORD-GRAY. ANN HTG 99.6% CONDNS DB,  47.08,-122.58,  -8.00,  87.00
2,1,12,21, 0, 1, 0.00,60.00,WinterDesignDay
7,-6.2
192,20.54617016548616
193,-2.4073917069323866
194,189.6217433053669
628,0.0
694,2932.3635249373658
696,0.0
2,1,12,21, 0, 2, 0.00,60.00,WinterDesignDay
7,-6.2
192,20.542903126885184
193,-2.3587563210735569
194,189.6217433053669
628,0.0
694,3342.137917365842
696,0.0
2,1,12,21, 0, 3, 0.00,60.00,WinterDesignDay
7,-6.2
192,20.542029496024008
193,-2.3364186458467568
194,189.6217433053669
628,0.0
694,3617.034749236799
696,0.0
2,1,12,21, 0, 4, 0.00,60.00,WinterDesignDay
7,-6.2
192,20.54180463606562
193,-2.307854094469525
194,189.6217433053669
628,0.0
694,3822.120647069534
696,0.0
2,1,12,21, 0, 5, 0.00,60.00,WinterDesignDay
7,-6.2
192,20.54175733526204
193,-2.2864235892341164
194,189.6217433053669
628,0.0
694,3978.550729655738
696,0.0
2,1,12,21, 0, 6, 0.00,60.00,WinterDesignDay
7,-6.2
192,20.541689616521209
193,-2.2672542758231066
194,189.6217433053669
628,0.0
694,4102.366350252235
696,0.0
2,1,12,21, 0, 7, 0.00,60.00,WinterDesignDay
7,-6.2
192,20.54158683237496
193,-2.253953574682127
194,189.6217433053669
628,0.0
694,4200.537894961778
696,0.0
2,1,12,21, 0, 8, 0.00,60.00,WinterDesignDay
7,-6.2
192,20.54143403434718
193,-2.2421002599664296
194,189.6217433053669
628,0.0
694,4282.469400687108
696,0.0
2,1,12,21, 0, 9, 0.00,60.00,WinterDesignDay
7,-6.2
192,20.54125398125378
193,-2.2310724228236649
194,189.6217433053669
628,0.0
694,4356.933724077594
696,0.0
2,1,12,21, 0,10, 0.00,60.00,WinterDesignDay
7,-6.2
192,20.541079935687095
193,-2.2209639974292587
194,189.6217433053669
628,0.0
694,4423.872465843769
696,0.0
2,1,12,21, 0,11, 0.00,60.00,WinterDesignDay
7,-6.2
192,20.540906661958624
193,-2.2115229768316344
194,189.6217433053669
628,0.0
694,4485.050775421955
696,0.0
2,1,12,21, 0,12, 0.00,60.00,WinterDesignDay
7,-6.2
192,20.540742632684244
193,-2.202885615412607
194,189.6217433053669
628,0.0
694,4539.838708225088
696,0.0
2,1,12,21, 0,13, 0.00,60.00,WinterDesignDay
7,-6.2
192,20.540574442111539
193,-2.194800737838858
194,189.6217433053669
628,0.0
694,4590.13784793631
696,0.0
2,1,12,21, 0,14, 0.00,60.00,WinterDesignDay
7,-6.2
192,20.540432068168984
193,-2.187341750838524
194,189.6217433053669
628,0.0
694,4635.936699936529
696,0.0
2,1,12,21, 0,15, 0.00,60.00,WinterDesignDay
7,-6.2
192,20.540298412331155
193,-2.1803979773129038
194,189.6217433053669
628,0.0
694,4677.9135409314089
696,0.0
2,1,12,21, 0,16, 0.00,60.00,WinterDesignDay
7,-6.2
192,20.540168016253455
193,-2.1739295177955726
194,189.6217433053669
628,0.0
694,4716.6817077922
696,0.0
2,1,12,21, 0,17, 0.00,60.00,WinterDesignDay
7,-6.2
192,20.540040127242205
193,-2.1678951851510446
194,189.6217433053669
628,0.0
694,4752.58816348997
696,0.0
2,1,12,21, 0,18, 0.00,60.00,WinterDesignDay
7,-6.2
192,20.53991156232382
193,-2.1622316789012627
194,189.6217433053669
628,0.0
694,4786.172202758383
696,0.0
2,1,12,21, 0,19, 0.00,60.00,WinterDesignDay
7,-6.2
192,20.539782756323775
193,-2.1569392004772447
194,189.6217433053669
628,0.0
694,4817.449351268261
696,0.0
2,1,12,21, 0,20, 0.00,60.00,WinterDesignDay
7,-6.2
192,20.53964051891785
193,-2.1520481978908565
194,189.6217433053669
628,0.0
694,4846.053168204364
696,0.0
2,1,12,21, 0,21, 0.00,60.00,WinterDesignDay
7,-6.2
192,20.539531441954755
193,-2.14735842730242
194,189.6217433053669
628,0.0
694,4873.646572211735
696,0.0
2,1,12,21, 0,22, 0.00,60.00,WinterDesignDay
7,-6.2
192,20.539434887988255
193,-2.142979134372698
194,189.6217433053669
628,0.0
694,4899.499153470998
696,0.0
2,1,12,21, 0,23, 0.00,60.00,WinterDesignDay
7,-6.2
192,20.53934685604132
193,-2.138888795780464
194,189.6217433053669
628,0.0
694,4923.417581072393
696,0.0
2,1,12,21, 0,24, 0.00,60.00,WinterDesignDay
7,-6.2
192,20.539253035977447
193,-2.134942509600086
194,189.6217433053669
628,0.0
694,4946.7068634832189
696,0.0
1,TACOMA-JB.LEWIS-MCCHORD-GRAY. ANN CLG .4% CONDNS DB=>MWB,  47.08,-122.58,  -8.00,  87.00
2,1, 7,21, 0, 1, 0.00,60.00,SummerDesignDay
7,19.560000000000004
192,23.437466426444656
193,18.91680847143093
194,0.0
628,0.0
694,0.0
696,0.0
2,1, 7,21, 0, 2, 0.00,60.00,SummerDesignDay
7,19.04
192,23.0921021526072
193,17.808853993263388
194,0.0
628,0.0
694,0.0
696,0.0
2,1, 7,21, 0, 3, 0.00,60.00,SummerDesignDay
7,18.65
192,22.796001372649064
193,17.000519956321115
194,0.0
628,0.0
694,0.0
696,0.0
2,1, 7,21, 0, 4, 0.00,60.00,SummerDesignDay
7,18.259999999999999
192,22.535914167275317
193,16.3615859316303
194,0.0
628,0.0
694,0.0
696,0.0
2,1, 7,21, 0, 5, 0.00,60.00,SummerDesignDay
7,18.0
192,22.320021529336139
193,15.883852477583539
194,0.0
628,0.0
694,0.0
696,0.0
2,1, 7,21, 0, 6, 0.00,60.00,SummerDesignDay
7,18.259999999999999
192,22.62968624469699
193,16.89580227865742
194,0.0
628,0.0
694,0.0
696,0.0
2,1, 7,21, 0, 7, 0.00,60.00,SummerDesignDay
7,19.17
192,23.014259381354628
193,20.148944812197976
194,0.0
628,0.0
694,0.0
696,0.0
2,1, 7,21, 0, 8, 0.00,60.00,SummerDesignDay
7,21.380000000000004
192,23.445755631846425
193,25.505379438854307
194,0.0
628,0.0
694,0.0
696,0.0
2,1, 7,21, 0, 9, 0.00,60.00,SummerDesignDay
7,23.85
192,23.987485257844385
193,32.035673076799
194,0.0
628,0.0
694,0.0
696,0.0
2,1, 7,21, 0,10, 0.00,60.00,SummerDesignDay
7,26.06
192,24.593772953495674
193,38.45548101632731
194,0.0
628,0.0
694,0.0
696,0.0
2,1, 7,21, 0,11, 0.00,60.00,SummerDesignDay
7,28.009999999999999
192,25.081629067745064
193,44.181535110196687
194,0.0
628,0.0
694,0.0
696,0.0
2,1, 7,21, 0,12, 0.00,60.00,SummerDesignDay
7,29.31
192,25.406655440678255
193,48.67993918787369
194,0.0
628,0.0
694,0.0
696,0.0
2,1, 7,21, 0,13, 0.00,60.00,SummerDesignDay
7,30.35
192,25.54538815618163
193,51.70805610269196
194,3.078709988711097
628,0.0
694,0.0
696,0.0
2,1, 7,21, 0,14, 0.00,60.00,SummerDesignDay
7,31.0
192,25.586029535494796
193,53.16064542179863
194,9.73290096057118
628,0.0
694,0.0
696,0.0
2,1, 7,21, 0,15, 0.00,60.00,SummerDesignDay
7,31.0
192,25.57753533822304
193,52.998456408361018
194,17.096238369248927
628,0.0
694,0.0
696,0.0
2,1, 7,21, 0,16, 0.00,60.00,SummerDesignDay
7,30.22
192,25.556014861114404
193,51.20492453195422
194,20.50556430217965
628,0.0
694,0.0
696,0.0
2,1, 7,21, 0,17, 0.00,60.00,SummerDesignDay
7,29.18
192,25.540259020439039
193,48.04196289276067
194,20.553702661697004
628,0.0
694,0.0
696,0.0
2,1, 7,21, 0,18, 0.00,60.00,SummerDesignDay
7,27.88
192,25.52836411966278
193,43.680198761403897
194,18.74358014801874
628,0.0
694,0.0
696,0.0
2,1, 7,21, 0,19, 0.00,60.00,SummerDesignDay
7,25.93
192,25.50947653045284
193,38.25022215329483
194,14.217242141367145
628,0.0
694,0.0
696,0.0
2,1, 7,21, 0,20, 0.00,60.00,SummerDesignDay
7,24.5
192,25.50999713539546
193,32.700388189135839
194,3.9217609656016094
628,0.0
694,0.0
696,0.0
2,1, 7,21, 0,21, 0.00,60.00,SummerDesignDay
7,23.33
192,25.208358731442634
193,27.975398988162408
194,0.0
628,0.0
694,0.0
696,0.0
2,1, 7,21, 0,22, 0.00,60.00,SummerDesignDay
7,22.16
192,24.788171283734884
193,24.635953002408827
194,0.0
628,0.0
694,0.0
696,0.0
2,1, 7,21, 0,23, 0.00,60.00,SummerDesignDay
7,21.25
192,24.360398473005835
193,22.213086340987187
194,0.0
628,0.0
694,0.0
696,0.0
2,1, 7,21, 0,24, 0.00,60.00,SummerDesignDay
7,20.34
192,23.93509579974752
193,20.36101520382634
194,0.0
628,0.0
694,0.0
696,0.0
1,TEST RUN,  47.08,-122.58,  -8.00,  87.00
2,1, 1, 1, 0, 1, 0.00,60.00,Sunday
7,8.0
192,21.166428768356299
193,4.434730677262827
194,0.0
628,0.0
694,0.0
696,0.0
2,1, 1, 1, 0, 2, 0.00,60.00,Sunday
7,7.0
192,20.894761712019528
193,6.5335732345262749
194,0.0
628,0.0
694,0.0
696,0.0
2,1, 1, 1, 0, 3, 0.00,60.00,Sunday
7,8.0
192,20.706214656815946
193,7.552056649349776
194,0.0
628,0.0
694,0.0
696,0.0
2,1, 1, 1, 0, 4, 0.00,60.00,Sunday
7,8.0
192,20.553617238999448
193,8.05272053845631
194,0.0
628,0.0
694,0.0
696,0.0
2,1, 1, 1, 0, 5, 0.00,60.00,Sunday
7,7.0
192,20.65385541068729
193,8.120098607332749
194,4.725304871399622
628,63.81710304882789
694,0.0
696,0.0
2,1, 1, 1, 0, 6, 0.00,60.00,Sunday
7,7.0
192,20.4897225749569
193,7.962033281363638
194,5.081898916689888
628,68.76762589500791
694,0.0
696,0.0
2,1, 1, 1, 0, 7, 0.00,60.00,Sunday
7,7.0
192,20.69123496528101
193,7.9889044830399229
194,8.33037802846757
628,112.3514939904243
694,0.0
696,0.0
2,1, 1, 1, 0, 8, 0.00,60.00,Sunday
7,7.0
192,20.509302566980588
193,7.913996265324716
194,6.978878652163803
628,94.4778577495665
694,0.0
696,0.0
2,1, 1, 1, 0, 9, 0.00,60.00,Sunday
7,6.0
192,20.583137212249605
193,7.666827357593982
194,10.611309159579314
628,141.64265532149205
694,0.0
696,0.0
2,1, 1, 1, 0,10, 0.00,60.00,Sunday
7,6.0
192,20.561808077271583
193,7.55339577094124
194,9.19221198058351
628,122.81870341241248
694,0.0
696,0.0
2,1, 1, 1, 0,11, 0.00,60.00,Sunday
7,7.0
192,20.581927608473835
193,7.700729144351495
194,8.903244971858412
628,120.15722373202724
694,0.0
696,0.0
2,1, 1, 1, 0,12, 0.00,60.00,Sunday
7,8.0
192,20.583413657343823
193,8.042144483902144
194,5.365541570836486
628,73.2596583455999
694,0.0
696,0.0
2,1, 1, 1, 0,13, 0.00,60.00,Sunday
7,8.0
192,20.556597483504548
193,8.38482859901266
194,5.717092410763468
628,78.10152612889454
694,0.0
696,0.0
2,1, 1, 1, 0,14, 0.00,60.00,Sunday
7,9.0
192,20.578476348792284
193,8.849267275800326
194,5.165140742506486
628,71.38033223250872
694,0.0
696,0.0
2,1, 1, 1, 0,15, 0.00,60.00,Sunday
7,9.0
192,20.556224938541676
193,9.148608244695139
194,4.109836365207266
628,56.857210912555867
694,0.0
696,0.0
2,1, 1, 1, 0,16, 0.00,60.00,Sunday
7,9.0
192,20.476028091370826
193,9.279397950327362
194,4.472360409212156
628,61.87646348521428
694,0.0
696,0.0
2,1, 1, 1, 0,17, 0.00,60.00,Sunday
7,7.0
192,20.458136637507736
193,8.530654164090342
194,7.82523438345065
628,105.73256939867324
694,0.0
696,0.0
2,1, 1, 1, 0,18, 0.00,60.00,Sunday
7,6.0
192,20.570957561414195
193,7.726894374132541
194,13.082606999032649
628,174.639365509014
694,0.0
696,0.0
2,1, 1, 1, 0,19, 0.00,60.00,Sunday
7,6.4
192,20.49302723582698
193,7.588805621637167
194,17.283532098702076
628,231.87465792865147
694,0.0
696,0.0
2,1, 1, 1, 0,20, 0.00,60.00,Sunday
7,4.9
192,20.54861451015334
193,7.225424675454885
194,31.04830394757665
628,336.7137566191984
694,0.0
696,0.0
2,1, 1, 1, 0,21, 0.00,60.00,Sunday
7,2.9
192,20.52479762957816
193,6.1462253084615539
194,37.68571571434971
628,412.50687659339436
694,0.0
696,0.0
2,1, 1, 1, 0,22, 0.00,60.00,Sunday
7,0.1
192,20.48925035960774
193,4.703019594486147
194,49.255336562068197
628,541.9604776350751
694,0.0
696,0.0
2,1, 1, 1, 0,23, 0.00,60.00,Sunday
7,-2.1
192,20.488040358724665
193,5.219209555466798
194,189.6217433053669
628,0.0
694,3117.3241008802576
696,0.0
2,1, 1, 1, 0,24, 0.00,60.00,Sunday
7,-3.8
192,20.518834801957707
193,3.6783340655654737
194,189.6217433053669
628,0.0
694,3421.969724834936
696,0.0
End of Data
 Number of Records Written=         504
