Program Version,EnergyPlus, Version 22.2.0-c249759bad, YMD=2023.09.01 14:31
1,5,Environment Title[],Latitude[deg],Longitude[deg],Time Zone[],Elevation[m]
2,8,Day of Simulation[],Month[],Day of Month[],DST Indicator[1=yes 0=no],Hour[],StartMinute[],EndMinute[],DayType
3,5,Cumulative Day of Simulation[],Month[],Day of Month[],DST Indicator[1=yes 0=no],DayType  ! When Daily Report Variables Requested
4,2,Cumulative Days of Simulation[],Month[]  ! When Monthly Report Variables Requested
5,1,Cumulative Days of Simulation[] ! When Run Period Report Variables Requested
6,1,Calendar Year of Simulation[] ! When Annual Report Variables Requested
7,1,Environment,Site Outdoor Air Drybulb Temperature [C] !Hourly
619,1,DX_HEATING_COIL,Heating Coil Heating Rate [W] !Hourly
633,1,DX_HEATING_COIL,Heating Coil Electricity Rate [W] !Hourly
659,1,DX_HEATING_COIL,Heating Coil Defrost Electricity Rate [W] !Hourly
661,1,DX_HEATING_COIL,Heating Coil Crankcase Heater Electricity Rate [W] !Hourly
690,1,FAN,Fan Electricity Rate [W] !Hourly
716,1,HEAT PUMP WATER HEATER FAN,Fan Electricity Rate [W] !Hourly
718,1,LIVING,Zone Mean Air Temperature [C] !Hourly
719,1,ATTIC,Zone Mean Air Temperature [C] !Hourly
720,1,CRAWLSPACE,Zone Mean Air Temperature [C] !Hourly
843,1,LIVING,Zone Predicted Sensible Load to Heating Setpoint Heat Transfer Rate [W] !Hourly
844,1,LIVING,Zone System Predicted Sensible Load to Heating Setpoint Heat Transfer Rate [W] !Hourly
907,1,ATTIC,Zone Predicted Sensible Load to Heating Setpoint Heat Transfer Rate [W] !Hourly
908,1,ATTIC,Zone System Predicted Sensible Load to Heating Setpoint Heat Transfer Rate [W] !Hourly
971,1,CRAWLSPACE,Zone Predicted Sensible Load to Heating Setpoint Heat Transfer Rate [W] !Hourly
972,1,CRAWLSPACE,Zone System Predicted Sensible Load to Heating Setpoint Heat Transfer Rate [W] !Hourly
1195,1,HEATING_RESISTANCE_BACKUP,Heating Coil Heating Rate [W] !Hourly
1197,1,HEATING_RESISTANCE_BACKUP,Heating Coil Electricity Rate [W] !Hourly
End of Data Dictionary
1,EXTREME_WINTER,  32.90, -97.03,  -6.00, 170.70
2,1,12,22, 0, 1, 0.00,60.00,Monday
7,10.6
718,19.62678763493018
719,9.22636379170803
720,20.20621414700044
619,0.0
633,0.0
659,0.0
661,0.0
690,0.0
716,0.0
843,-777.5422356696563
844,-777.5422356696563
907,0.0
908,0.0
971,0.0
972,0.0
1195,0.0
1197,0.0
2,1,12,22, 0, 2, 0.00,60.00,Monday
7,8.9
718,19.10768734871407
719,8.755491418934943
720,20.012526254383587
619,0.0
633,0.0
659,0.0
661,200.0
690,0.0
716,0.0
843,-323.3767189554219
844,-323.3767189554219
907,0.0
908,0.0
971,0.0
972,0.0
1195,0.0
1197,0.0
2,1,12,22, 0, 3, 0.00,60.00,Monday
7,8.3
718,18.68766760257099
719,8.527791951153622
720,19.905788618830638
619,0.0
633,0.0
659,0.0
661,200.0
690,0.0
716,0.0
843,-51.438772159350265
844,-51.438772159350265
907,0.0
908,0.0
971,0.0
972,0.0
1195,0.0
1197,0.0
2,1,12,22, 0, 4, 0.00,60.00,Monday
7,8.3
718,18.618918630996706
719,8.54158857731152
720,19.784320262448993
619,251.79108171791069
633,67.57356663051037
659,0.0
661,193.75228207453762
690,5.788914242978881
716,0.0
843,200.12143520616883
844,200.12143520616883
907,0.0
908,0.0
971,0.0
972,0.0
1195,0.0
1197,0.0
2,1,12,22, 0, 5, 0.00,60.00,Monday
7,7.2
718,18.33552109070917
719,8.07168003222026
720,19.674926203476442
619,365.90682737236
633,99.31145044237381
659,0.0
661,190.68891608130397
690,8.627320720552817
716,0.0
843,304.3762355404715
844,304.3762355404715
907,0.0
908,0.0
971,0.0
972,0.0
1195,0.0
1197,0.0
2,1,12,22, 0, 6, 0.00,60.00,Monday
7,6.7
718,19.35257471824484
719,7.95297970364059
720,19.544416742262314
619,1461.625224025447
633,390.7143565581506
659,0.0
661,162.9633287507597
690,34.31686837740603
716,0.0
843,1205.3107499784146
844,1205.3107499784146
907,0.0
908,0.0
971,0.0
972,0.0
1195,0.0
1197,0.0
2,1,12,22, 0, 7, 0.00,60.00,Monday
7,6.7
718,19.54409797659664
719,8.339165574665763
720,19.431859881781055
619,3167.1579824066876
633,846.1926880381646
659,0.0
661,121.28267183460255
690,72.93668946364696
716,85.44000000000005
843,1489.0206626858399
844,1489.0206626858399
907,0.0
908,0.0
971,0.0
972,0.0
1195,0.0
1197,0.0
2,1,12,22, 0, 8, 0.00,60.00,Monday
7,6.1
718,19.734658481023164
719,7.824878673173018
720,19.353514072575763
619,2424.5069449222838
633,662.7951612617203
659,0.0
661,138.17625324026403
690,57.283695013370306
716,41.743962203623056
843,1419.3694778300578
844,1419.3694778300578
907,0.0
908,0.0
971,0.0
972,0.0
1195,0.0
1197,0.0
2,1,12,22, 0, 9, 0.00,60.00,Monday
7,7.2
718,19.75033506366873
719,8.492816374646122
720,19.284355257138493
619,1315.1039372512753
633,361.2339044415032
659,0.0
661,166.81983333680074
690,30.743567759069627
716,0.0
843,1073.7097351270513
844,1073.7097351270513
907,0.0
908,0.0
971,0.0
972,0.0
1195,0.0
1197,0.0
2,1,12,22, 0,10, 0.00,60.00,Monday
7,7.2
718,19.754048967326884
719,9.807793314789134
720,19.21147715875709
619,647.5624504483883
633,179.60387434663622
659,0.0
661,183.5080340624764
690,15.280871775815148
716,0.0
843,521.6641782758343
844,521.6641782758343
907,0.0
908,0.0
971,0.0
972,0.0
1195,0.0
1197,0.0
2,1,12,22, 0,11, 0.00,60.00,Monday
7,10.6
718,20.378373675690952
719,13.20440594532918
720,19.158127969998446
619,0.0
633,0.0
659,0.0
661,0.0
690,0.0
716,0.0
843,-360.0351406120935
844,-360.0351406120935
907,0.0
908,0.0
971,0.0
972,0.0
1195,0.0
1197,0.0
2,1,12,22, 0,12, 0.00,60.00,Monday
7,11.0
718,21.07405242785149
719,16.278534351103133
720,19.12324517647623
619,0.0
633,0.0
659,0.0
661,0.0
690,0.0
716,0.0
843,-998.6763989641768
844,-998.6763989641768
907,0.0
908,0.0
971,0.0
972,0.0
1195,0.0
1197,0.0
2,1,12,22, 0,13, 0.00,60.00,Monday
7,11.1
718,20.947790043888734
719,16.08776606934448
720,19.113123855379527
619,0.0
633,0.0
659,0.0
661,0.0
690,0.0
716,0.0
843,-859.4542413703512
844,-859.4542413703512
907,0.0
908,0.0
971,0.0
972,0.0
1195,0.0
1197,0.0
2,1,12,22, 0,14, 0.00,60.00,Monday
7,11.1
718,19.841961039901612
719,15.10951274199108
720,19.118755047042324
619,0.0
633,0.0
659,0.0
661,0.0
690,0.0
716,66.27012418536573
843,-747.2688840677947
844,-747.2688840677947
907,0.0
908,0.0
971,0.0
972,0.0
1195,0.0
1197,0.0
2,1,12,22, 0,15, 0.00,60.00,Monday
7,11.1
718,20.46688938634018
719,14.40023984172523
720,19.127221055627054
619,0.0
633,0.0
659,0.0
661,0.0
690,0.0
716,0.0
843,-676.769938098787
844,-676.769938098787
907,0.0
908,0.0
971,0.0
972,0.0
1195,0.0
1197,0.0
2,1,12,22, 0,16, 0.00,60.00,Monday
7,11.1
718,20.44749752097021
719,13.69574858701102
720,19.13228338452085
619,0.0
633,0.0
659,0.0
661,0.0
690,0.0
716,0.0
843,-522.4812129965958
844,-522.4812129965958
907,0.0
908,0.0
971,0.0
972,0.0
1195,0.0
1197,0.0
2,1,12,22, 0,17, 0.00,60.00,Monday
7,11.1
718,21.410504288711458
719,13.738185714636693
720,19.13556361365562
619,0.0
633,0.0
659,0.0
661,0.0
690,0.0
716,0.0
843,-1195.6785310331343
844,-1195.6785310331343
907,0.0
908,0.0
971,0.0
972,0.0
1195,0.0
1197,0.0
2,1,12,22, 0,18, 0.00,60.00,Monday
7,11.1
718,21.59488659218117
719,12.699248862448236
720,19.137627963584507
619,0.0
633,0.0
659,0.0
661,0.0
690,0.0
716,0.0
843,-1169.6974277701884
844,-1169.6974277701884
907,0.0
908,0.0
971,0.0
972,0.0
1195,0.0
1197,0.0
2,1,12,22, 0,19, 0.00,60.00,Monday
7,11.1
718,20.370474499439766
719,11.872092756080828
720,19.138427367235636
619,0.0
633,0.0
659,0.0
661,0.0
690,0.0
716,78.6716212092766
843,-1133.10451274749
844,-1133.10451274749
907,0.0
908,0.0
971,0.0
972,0.0
1195,0.0
1197,0.0
2,1,12,22, 0,20, 0.00,60.00,Monday
7,10.6
718,20.211734871675432
719,11.281930187043555
720,19.132460803223708
619,0.0
633,0.0
659,0.0
661,0.0
690,0.0
716,71.9918639004064
843,-1381.627734466665
844,-1381.627734466665
907,0.0
908,0.0
971,0.0
972,0.0
1195,0.0
1197,0.0
2,1,12,22, 0,21, 0.00,60.00,Monday
7,10.6
718,21.1323784497469
719,10.909877435829351
720,19.118618802402338
619,0.0
633,0.0
659,0.0
661,0.0
690,0.0
716,0.0
843,-1219.4837275406117
844,-1219.4837275406117
907,0.0
908,0.0
971,0.0
972,0.0
1195,0.0
1197,0.0
2,1,12,22, 0,22, 0.00,60.00,Monday
7,10.6
718,21.139147349051047
719,10.65211323666932
720,19.09384741839836
619,0.0
633,0.0
659,0.0
661,0.0
690,0.0
716,0.0
843,-779.612289218745
844,-779.612289218745
907,0.0
908,0.0
971,0.0
972,0.0
1195,0.0
1197,0.0
2,1,12,22, 0,23, 0.00,60.00,Monday
7,7.2
718,20.149759330934877
719,8.854483011270341
720,19.059994006799784
619,0.0
633,0.0
659,0.0
661,200.0
690,0.0
716,0.0
843,-878.8459351043693
844,-878.8459351043693
907,0.0
908,0.0
971,0.0
972,0.0
1195,0.0
1197,0.0
2,1,12,22, 0,24, 0.00,60.00,Monday
7,6.1
718,19.570974671299698
719,7.699190796281455
720,19.02280524882023
619,0.0
633,0.0
659,0.0
661,200.0
690,0.0
716,0.0
843,-748.5040432188471
844,-748.5040432188471
907,0.0
908,0.0
971,0.0
972,0.0
1195,0.0
1197,0.0
2,2,12,23, 0, 1, 0.00,60.00,Tuesday
7,6.1
718,19.002285208615035
719,7.133585145665495
720,18.974429145770635
619,0.0
633,0.0
659,0.0
661,200.0
690,0.0
716,0.0
843,-299.2580507539624
844,-299.2580507539624
907,0.0
908,0.0
971,0.0
972,0.0
1195,0.0
1197,0.0
2,2,12,23, 0, 2, 0.00,60.00,Tuesday
7,6.0
718,18.62442994438702
719,6.939592927457499
720,18.91030253637145
619,239.144928363037
633,66.67917744199005
659,0.0
661,193.70848538237902
690,5.82949470740714
716,0.0
843,184.168985785298
844,184.168985785298
907,0.0
908,0.0
971,0.0
972,0.0
1195,0.0
1197,0.0
2,2,12,23, 0, 3, 0.00,60.00,Tuesday
7,6.0
718,18.641942331130924
719,6.89758130587474
720,18.83821366980675
619,623.0587907472838
633,171.22613490550515
659,0.0
661,183.72610574583618
690,15.078814274363792
716,0.0
843,511.27931575990624
844,511.27931575990624
907,0.0
908,0.0
971,0.0
972,0.0
1195,0.0
1197,0.0
2,2,12,23, 0, 4, 0.00,60.00,Tuesday
7,5.6
718,18.580791099708946
719,6.683190102136516
720,18.76408166089932
619,782.546243639495
633,215.87976970574843
659,0.0
661,179.40081164268597
690,19.086478662788597
716,0.0
843,630.6674580893105
844,630.6674580893105
907,0.0
908,0.0
971,0.0
972,0.0
1195,0.0
1197,0.0
2,2,12,23, 0, 5, 0.00,60.00,Tuesday
7,5.0
718,18.696031627621725
719,6.187266745140599
720,18.680958964803402
619,1033.249523250836
633,311.29305346684146
659,3.9059851591753354
661,168.05107692228918
690,29.588013339988596
716,0.0
843,839.6526434456609
844,839.6526434456609
907,0.0
908,0.0
971,0.0
972,0.0
1195,0.0
1197,0.0
2,2,12,23, 0, 6, 0.00,60.00,Tuesday
7,4.0
718,19.44622687509645
719,5.958217835439891
720,18.578883097998666
619,2082.294791572874
633,627.2685644452255
659,16.651138907439403
661,133.81171560773353
690,61.23250593542544
716,0.0
843,1668.17115765567
844,1668.17115765567
907,0.0
908,0.0
971,0.0
972,0.0
1195,0.0
1197,0.0
2,2,12,23, 0, 7, 0.00,60.00,Tuesday
7,5.6
718,19.688191819525624
719,6.784677920890808
720,18.521145278051474
619,3259.0028919475167
633,883.9708796213388
659,0.0
661,116.90539841126237
690,76.9925160499459
716,85.44000000000005
843,1589.3969966566165
844,1589.3969966566165
907,0.0
908,0.0
971,0.0
972,0.0
1195,0.0
1197,0.0
2,2,12,23, 0, 8, 0.00,60.00,Tuesday
7,7.2
718,19.748639034055543
719,7.228720406750684
720,18.464757926686374
619,2789.3910291865477
633,749.360512406249
659,0.0
661,131.05900104675672
690,63.87828892516537
716,85.44000000000005
843,1192.548053088747
844,1192.548053088747
907,0.0
908,0.0
971,0.0
972,0.0
1195,0.0
1197,0.0
2,2,12,23, 0, 9, 0.00,60.00,Tuesday
7,7.8
718,19.76554915602861
719,8.014637850215156
720,18.404619006454077
619,2100.791414663329
633,566.0146594976284
659,0.0
661,148.32918736961943
690,47.87634569148143
716,50.056216745322516
843,1078.1863304296057
844,1078.1863304296057
907,0.0
908,0.0
971,0.0
972,0.0
1195,0.0
1197,0.0
2,2,12,23, 0,10, 0.00,60.00,Tuesday
7,7.8
718,19.742171865152503
719,8.31324963993446
720,18.348568492980842
619,1221.6022815391125
633,333.23752148593684
659,0.0
661,169.58958969798087
690,28.17720957195119
716,0.0
843,997.8257691271538
844,997.8257691271538
907,0.0
908,0.0
971,0.0
972,0.0
1195,0.0
1197,0.0
2,2,12,23, 0,11, 0.00,60.00,Tuesday
7,9.0
718,19.78153440920463
719,9.841173182459643
720,18.296883430547002
619,883.1402391536803
633,238.17838324149187
659,0.0
661,178.55111041157903
690,19.87378174172321
716,0.0
843,715.0376799661026
844,715.0376799661026
907,0.0
908,0.0
971,0.0
972,0.0
1195,0.0
1197,0.0
2,2,12,23, 0,12, 0.00,60.00,Tuesday
7,9.0
718,19.59700085078052
719,10.323958543846821
720,18.25057100119814
619,679.7442460304902
633,183.97981570366315
659,0.0
661,183.44340632352257
690,15.340753550726397
716,0.0
843,562.674795551573
844,562.674795551573
907,0.0
908,0.0
971,0.0
972,0.0
1195,0.0
1197,0.0
2,2,12,23, 0,13, 0.00,60.00,Tuesday
7,10.0
718,19.800182863159222
719,11.610965649069012
720,18.21500521850548
619,547.4118915156079
633,146.03067676479296
659,0.0
661,0.0
690,12.071486262811822
716,0.0
843,447.44725429173013
844,447.44725429173013
907,0.0
908,0.0
971,0.0
972,0.0
1195,0.0
1197,0.0
2,2,12,23, 0,14, 0.00,60.00,Tuesday
7,10.0
718,19.708077618151517
719,12.982938707947941
720,18.190282096432576
619,218.9408612647197
633,58.920799628227364
659,0.0
661,0.0
690,4.85295901340699
716,0.0
843,183.0004828751462
844,183.0004828751462
907,0.0
908,0.0
971,0.0
972,0.0
1195,0.0
1197,0.0
2,2,12,23, 0,15, 0.00,60.00,Tuesday
7,11.0
718,19.883874442708873
719,14.225259462793147
720,18.177651418088168
619,40.97121117728162
633,10.903484575288124
659,0.0
661,0.0
690,0.888312479279994
716,0.0
843,27.96244630772344
844,27.96244630772344
907,0.0
908,0.0
971,0.0
972,0.0
1195,0.0
1197,0.0
2,2,12,23, 0,16, 0.00,60.00,Tuesday
7,10.0
718,20.119063384956146
719,13.945363374613724
720,18.176183123183232
619,0.0
633,0.0
659,0.0
661,0.0
690,0.0
716,0.0
843,-236.58333469412355
844,-236.58333469412355
907,0.0
908,0.0
971,0.0
972,0.0
1195,0.0
1197,0.0
2,2,12,23, 0,17, 0.00,60.00,Tuesday
7,10.6
718,20.149637113045408
719,13.223754968738103
720,18.182376529105753
619,0.0
633,0.0
659,0.0
661,0.0
690,0.0
716,0.0
843,-255.1461991596534
844,-255.1461991596534
907,0.0
908,0.0
971,0.0
972,0.0
1195,0.0
1197,0.0
2,2,12,23, 0,18, 0.00,60.00,Tuesday
7,10.0
718,19.25221614253098
719,11.658650843787738
720,18.19349566320912
619,0.0
633,0.0
659,0.0
661,0.0
690,0.0
716,63.493362339626614
843,-332.77544017477703
844,-332.77544017477703
907,0.0
908,0.0
971,0.0
972,0.0
1195,0.0
1197,0.0
2,2,12,23, 0,19, 0.00,60.00,Tuesday
7,10.0
718,20.138777626468286
719,10.737921296743291
720,18.2000372465005
619,0.0
633,0.0
659,0.0
661,0.0
690,0.0
716,0.0
843,-347.64173234137706
844,-347.64173234137706
907,0.0
908,0.0
971,0.0
972,0.0
1195,0.0
1197,0.0
2,2,12,23, 0,20, 0.00,60.00,Tuesday
7,10.0
718,18.857417871871213
719,10.299694661610218
720,18.19832282181808
619,0.0
633,0.0
659,0.0
661,0.0
690,0.0
716,85.44000000000005
843,-372.00837943870374
844,-372.00837943870374
907,0.0
908,0.0
971,0.0
972,0.0
1195,0.0
1197,0.0
2,2,12,23, 0,21, 0.00,60.00,Tuesday
7,10.0
718,18.75958167443583
719,10.07553795757009
720,18.18923491827222
619,0.0
633,0.0
659,0.0
661,0.0
690,0.0
716,83.45081404849664
843,-159.52762582597097
844,-159.52762582597097
907,0.0
908,0.0
971,0.0
972,0.0
1195,0.0
1197,0.0
2,2,12,23, 0,22, 0.00,60.00,Tuesday
7,10.0
718,19.706135803735194
719,10.002981534735198
720,18.171869377017416
619,191.5167030590942
633,50.399739157508755
659,0.0
661,0.0
690,4.228630533464318
716,0.0
843,160.56060900970624
844,160.56060900970624
907,0.0
908,0.0
971,0.0
972,0.0
1195,0.0
1197,0.0
2,2,12,23, 0,23, 0.00,60.00,Tuesday
7,10.0
718,19.072812756281913
719,10.0515531556323
720,18.148871236607615
619,0.0
633,0.0
659,0.0
661,0.0
690,0.0
716,0.0
843,-350.0360675097654
844,-350.0360675097654
907,0.0
908,0.0
971,0.0
972,0.0
1195,0.0
1197,0.0
2,2,12,23, 0,24, 0.00,60.00,Tuesday
7,10.0
718,18.836736624100155
719,10.07925191063735
720,18.1217996774192
619,0.0
633,0.0
659,0.0
661,0.0
690,0.0
716,0.0
843,-158.12982455348538
844,-158.12982455348538
907,0.0
908,0.0
971,0.0
972,0.0
1195,0.0
1197,0.0
2,3,12,24, 0, 1, 0.00,60.00,Wednesday
7,10.0
718,18.62490408783761
719,10.07827529342598
720,18.089252580520597
619,133.78134602632977
633,35.289785762642985
659,0.0
661,0.0
690,2.956982779210027
716,0.0
843,103.5781791522677
844,103.5781791522677
907,0.0
908,0.0
971,0.0
972,0.0
1195,0.0
1197,0.0
2,3,12,24, 0, 2, 0.00,60.00,Wednesday
7,10.0
718,18.62564984365243
719,10.04684510970524
720,18.052968561961023
619,306.0987040927946
633,80.19119184091745
659,0.0
661,0.0
690,6.744649929341626
716,0.0
843,256.6657942727961
844,256.6657942727961
907,0.0
908,0.0
971,0.0
972,0.0
1195,0.0
1197,0.0
2,3,12,24, 0, 3, 0.00,60.00,Wednesday
7,9.4
718,18.804592453365686
719,9.60669089381208
720,18.015601755281484
619,480.31893332038186
633,126.4140634331006
659,0.0
661,188.43818179237374
690,10.71277143036298
716,0.0
843,394.79073879608404
844,394.79073879608404
907,0.0
908,0.0
971,0.0
972,0.0
1195,0.0
1197,0.0
2,3,12,24, 0, 4, 0.00,60.00,Wednesday
7,9.4
718,18.61915229230821
719,9.440752409565533
720,17.977837649344536
619,461.2547739320192
633,121.89972362957695
659,0.0
661,188.88624932298336
690,10.297607919348579
716,0.0
843,384.7100645242135
844,384.7100645242135
907,0.0
908,0.0
971,0.0
972,0.0
1195,0.0
1197,0.0
2,3,12,24, 0, 5, 0.00,60.00,Wednesday
7,9.0
718,18.45743899970875
719,9.267969822654557
720,17.936368310433167
619,515.0646792588
633,136.1153073018003
659,0.0
661,187.4876418203413
690,11.593508116664651
716,0.0
843,421.6522487536895
844,421.6522487536895
907,0.0
908,0.0
971,0.0
972,0.0
1195,0.0
1197,0.0
2,3,12,24, 0, 6, 0.00,60.00,Wednesday
7,7.8
718,19.213661616208135
719,9.008170655093041
720,17.875267727038604
619,2559.688752545825
633,665.3597534312975
659,0.0
661,137.76748394830932
690,57.66244616771501
716,68.53284052973797
843,1331.0278653498226
844,1331.0278653498226
907,0.0
908,0.0
971,0.0
972,0.0
1195,0.0
1197,0.0
2,3,12,24, 0, 7, 0.00,60.00,Wednesday
7,7.8
718,19.535292503168204
719,8.996405474876239
720,17.850465927409417
619,3003.3061563409206
633,789.2709278835614
659,0.0
661,127.19077007403614
690,67.46245479825204
716,85.44000000000005
843,1399.6920666579354
844,1399.6920666579354
907,0.0
908,0.0
971,0.0
972,0.0
1195,0.0
1197,0.0
2,3,12,24, 0, 8, 0.00,60.00,Wednesday
7,7.8
718,19.843413750625682
719,8.70031887284604
720,17.820986017349814
619,1865.481637280335
633,501.4929396680971
659,0.0
661,154.0161266748029
690,42.60702906491548
716,28.277373044138635
843,1166.186510198786
844,1166.186510198786
907,0.0
908,0.0
971,0.0
972,0.0
1195,0.0
1197,0.0
2,3,12,24, 0, 9, 0.00,60.00,Wednesday
7,6.0
718,19.40935747293876
719,7.922461862913663
720,17.77995023930457
619,1391.798733618615
633,388.8085760458839
659,0.0
661,163.86096670972793
690,33.48514882352987
716,0.0
843,1128.076506924328
844,1128.076506924328
907,0.0
908,0.0
971,0.0
972,0.0
1195,0.0
1197,0.0
2,3,12,24, 0,10, 0.00,60.00,Wednesday
7,6.1
718,19.55390918966672
719,7.891568342183644
720,17.734368561798235
619,1859.920290405883
633,510.1501435661698
659,0.0
661,152.2351738856531
690,44.25719686861307
716,0.0
843,1517.0497473551459
844,1517.0497473551459
907,0.0
908,0.0
971,0.0
972,0.0
1195,0.0
1197,0.0
2,3,12,24, 0,11, 0.00,60.00,Wednesday
7,6.0
718,19.469543034775636
719,7.879294613389899
720,17.69231304203924
619,2166.824821298945
633,594.5394898424984
659,0.0
661,144.42418366079926
690,51.49458387997988
716,0.0
843,1751.1631669559338
844,1751.1631669559338
907,0.0
908,0.0
971,0.0
972,0.0
1195,0.0
1197,0.0
2,3,12,24, 0,12, 0.00,60.00,Wednesday
7,5.0
718,19.803409182197335
719,7.297689810610245
720,17.640204595497096
619,2413.3014954223427
633,723.2241745213239
659,71.95426374209184
661,117.60330753616097
690,76.03973743107026
716,0.0
843,1935.310651209109
844,1935.310651209109
907,0.0
908,0.0
971,0.0
972,0.0
1195,0.0
1197,0.0
2,3,12,24, 0,13, 0.00,60.00,Wednesday
7,4.4
718,19.86319156879509
719,7.247602784925465
720,17.60630828137317
619,2006.5675693660105
633,616.9129821240238
659,67.3777146052359
661,128.85491063442885
690,65.54615606266758
716,0.0
843,1581.4556415316492
844,1581.4556415316492
907,0.0
908,0.0
971,0.0
972,0.0
1195,0.0
1197,0.0
2,3,12,24, 0,14, 0.00,60.00,Wednesday
7,4.0
718,19.828306992616298
719,7.629754433904115
720,17.56344317867307
619,1787.8678871457519
633,556.6540250317228
659,59.7205829802248
661,135.81324925002212
690,59.09164774109735
716,0.0
843,1413.599393688637
844,1413.599393688637
907,0.0
908,0.0
971,0.0
972,0.0
1195,0.0
1197,0.0
2,3,12,24, 0,15, 0.00,60.00,Wednesday
7,4.0
718,19.675535784890275
719,7.540313290925477
720,17.514675602637272
619,2727.260469402662
633,832.6462206633936
659,103.40410301166565
661,101.83056403216439
690,90.28626100465074
716,60.79170526614369
843,1346.0166281054117
844,1346.0166281054117
907,0.0
908,0.0
971,0.0
972,0.0
1195,0.0
1197,0.0
2,3,12,24, 0,16, 0.00,60.00,Wednesday
7,5.0
718,19.75797205782085
719,7.964348677585057
720,17.47898298865577
619,1657.0048340571798
633,506.13624956287794
659,57.54442219947329
661,141.46486855068594
690,53.987012839464896
716,0.0
843,1315.883149585523
844,1315.883149585523
907,0.0
908,0.0
971,0.0
972,0.0
1195,0.0
1197,0.0
2,3,12,24, 0,17, 0.00,60.00,Wednesday
7,5.6
718,19.629510963068064
719,7.877569312495712
720,17.438845616334287
619,2746.5257310733246
633,755.0593060270306
659,0.0
661,129.38416675112606
690,65.4301310896607
716,76.18500396016243
843,1160.295948029141
844,1160.295948029141
907,0.0
908,0.0
971,0.0
972,0.0
1195,0.0
1197,0.0
2,3,12,24, 0,18, 0.00,60.00,Wednesday
7,6.0
718,19.624639406163322
719,7.676235986924645
720,17.40040434786045
619,1534.5502575951034
633,425.49707540551486
659,0.0
661,160.27552875197816
690,36.80728870061126
716,0.0
843,1243.763578401411
844,1243.763578401411
907,0.0
908,0.0
971,0.0
972,0.0
1195,0.0
1197,0.0
2,3,12,24, 0,19, 0.00,60.00,Wednesday
7,5.6
718,19.813472869600318
719,7.301923423035574
720,17.36457132722161
619,1418.1052662538702
633,396.1032944766388
659,0.0
661,162.86238211628248
690,34.410401955118374
716,0.0
843,1149.025332282008
844,1149.025332282008
907,0.0
908,0.0
971,0.0
972,0.0
1195,0.0
1197,0.0
2,3,12,24, 0,20, 0.00,60.00,Wednesday
7,6.0
718,19.946093322715498
719,7.722322340951228
720,17.333515571107952
619,2497.937895330574
633,686.0762097825472
659,0.0
661,136.16314247979363
690,59.14897217424959
716,85.44000000000005
843,852.5972892584214
844,852.5972892584214
907,0.0
908,0.0
971,0.0
972,0.0
1195,0.0
1197,0.0
2,3,12,24, 0,21, 0.00,60.00,Wednesday
7,5.0
718,19.669469793983527
719,6.949591892516305
720,17.291986955603154
619,1419.5322915712022
633,438.3445297166369
659,49.91405276450506
661,149.51321061133265
690,46.562334354404484
716,33.138937358953505
843,668.746539741267
844,668.746539741267
907,0.0
908,0.0
971,0.0
972,0.0
1195,0.0
1197,0.0
2,3,12,24, 0,22, 0.00,60.00,Wednesday
7,5.0
718,19.576162889711217
719,6.789161626010757
720,17.250648126382938
619,1220.1862439700276
633,375.74524178208446
659,38.78732935866151
661,157.11874387681098
690,39.56623922944054
716,0.0
843,963.7578796821508
844,963.7578796821508
907,0.0
908,0.0
971,0.0
972,0.0
1195,0.0
1197,0.0
2,3,12,24, 0,23, 0.00,60.00,Wednesday
7,4.4
718,18.339805793218037
719,6.139112381863133
720,17.20479142062615
619,860.1618763342058
633,268.7756250961587
659,22.83773349844581
661,169.84783902082052
690,27.815032762274896
716,0.0
843,666.2815392753691
844,666.2815392753691
907,0.0
908,0.0
971,0.0
972,0.0
1195,0.0
1197,0.0
2,3,12,24, 0,24, 0.00,60.00,Wednesday
7,4.4
718,18.514696132564634
719,6.174027740496273
720,17.135717816695944
619,1890.6619706056213
633,562.4782478906051
659,43.31359257416182
661,136.20758052452283
690,58.87891101867339
716,0.0
843,1510.199569722803
844,1510.199569722803
907,0.0
908,0.0
971,0.0
972,0.0
1195,0.0
1197,0.0
2,4,12,25, 0, 1, 0.00,60.00,Thursday
7,4.4
718,18.58750230806347
719,6.200237038494786
720,17.087099559734728
619,2232.417842081905
633,662.6025168441478
659,50.85792558824537
661,125.09625893481461
690,69.13419689915976
716,0.0
843,1777.2113234778371
844,1777.2113234778371
907,0.0
908,0.0
971,0.0
972,0.0
1195,0.0
1197,0.0
2,4,12,25, 0, 2, 0.00,60.00,Thursday
7,3.3
718,18.685179418133067
719,5.655324552058128
720,17.02528677942354
619,2553.2214721677224
633,768.123576780196
659,47.878839650697614
661,114.06685709295354
690,79.26778354546636
716,0.0
843,2023.4869459031615
844,2023.4869459031615
907,0.0
908,0.0
971,0.0
972,0.0
1195,0.0
1197,0.0
2,4,12,25, 0, 3, 0.00,60.00,Thursday
7,3.3
718,18.53610357541254
719,5.503882249434827
720,16.96744878069411
619,2745.9847136415106
633,825.011890051981
659,45.58212601728449
661,108.7234230323323
690,84.23865824353362
716,0.0
843,2169.2677906006993
844,2169.2677906006993
907,0.0
908,0.0
971,0.0
972,0.0
1195,0.0
1197,0.0
2,4,12,25, 0, 4, 0.00,60.00,Thursday
7,3.3
718,18.5897884298104
719,5.476077257791945
720,16.902300763418495
619,3037.2771515198406
633,904.4010751405701
659,50.11688680748744
661,99.64272674932072
690,92.61944192821635
716,0.0
843,2392.1231146111422
844,2392.1231146111422
907,0.0
908,0.0
971,0.0
972,0.0
1195,0.0
1197,0.0
2,4,12,25, 0, 5, 0.00,60.00,Thursday
7,2.8
718,18.487732200338314
719,5.142549135753018
720,16.83850551094616
619,3269.0083843777757
633,978.3064895777176
659,43.685381183852904
661,92.61822006276984
690,99.1348374700804
716,0.0
843,2575.953409661961
844,2575.953409661961
907,0.0
908,0.0
971,0.0
972,0.0
1195,0.0
1197,0.0
2,4,12,25, 0, 6, 0.00,60.00,Thursday
7,2.8
718,19.487029465502584
719,5.546838651989262
720,16.771716069319815
619,4384.945614963108
633,1283.2330558339002
659,48.71518066998159
661,60.13878585613816
690,129.1912033639756
716,0.0
843,3452.989851848459
844,3452.989851848459
907,0.0
908,0.0
971,0.0
972,0.0
1195,0.0
1197,0.0
2,4,12,25, 0, 7, 0.00,60.00,Thursday
7,2.8
718,19.589439699127702
719,5.846104111506606
720,16.75090594125031
619,5444.854023561599
633,1601.534156130158
659,59.63662035375171
661,28.78334811858947
690,158.15227366220742
716,85.44000000000005
843,3107.40347433205
844,3107.40347433205
907,0.0
908,0.0
971,0.0
972,0.0
1195,0.0
1197,0.0
2,4,12,25, 0, 8, 0.00,60.00,Thursday
7,2.2
718,19.612135786873516
719,5.3009921867286005
720,16.683862679312597
619,5729.157752777343
633,1696.3904389117968
659,60.63098572202589
661,18.39177399812961
690,167.69699043899465
716,85.44000000000005
843,3339.0178717880754
844,3339.0178717880754
907,0.0
908,0.0
971,0.0
972,0.0
1195,0.0
1197,0.0
2,4,12,25, 0, 9, 0.00,60.00,Thursday
7,2.2
718,19.689686975334514
719,5.144654846769425
720,16.634956297089587
619,5122.433316520213
633,1533.7967727799933
659,54.752368696360364
661,35.87816091202309
690,151.55041302569123
716,38.30269160715807
843,3501.6480051695107
844,3501.6480051695107
907,0.0
908,0.0
971,0.0
972,0.0
1195,0.0
1197,0.0
2,4,12,25, 0,10, 0.00,60.00,Thursday
7,2.2
718,19.732568340754096
719,5.1061587446827295
720,16.58430254755454
619,4425.730815819507
633,1344.2188882225682
659,47.91032003699197
661,56.38740344968183
690,132.6119680513893
716,0.0
843,3409.795403135311
844,3409.795403135311
907,0.0
908,0.0
971,0.0
972,0.0
1195,0.0
1197,0.0
2,4,12,25, 0,11, 0.00,60.00,Thursday
7,3.0
718,19.9018744232759
719,5.935159611478097
720,16.542526736274475
619,3582.7001663464407
633,1092.1327589895998
659,24.29531535129617
661,86.41521965164318
690,105.05709817347434
716,0.0
843,2777.424460109947
844,2777.424460109947
907,0.0
908,0.0
971,0.0
972,0.0
1195,0.0
1197,0.0
2,4,12,25, 0,12, 0.00,60.00,Thursday
7,2.8
718,19.739722074290093
719,6.34997216688351
720,16.49370862066405
619,2982.0983430011706
633,925.396456993331
659,21.944355585309847
661,103.69046821678822
690,89.05911951808847
716,0.0
843,2320.4622343521933
844,2320.4622343521933
907,0.0
908,0.0
971,0.0
972,0.0
1195,0.0
1197,0.0
2,4,12,25, 0,13, 0.00,60.00,Thursday
7,2.8
718,19.735281098480108
719,6.567593377516216
720,16.44897123084749
619,2759.5045068867826
633,856.3518793719196
659,20.371945038972612
661,110.59147394010509
690,82.67776546484043
716,0.0
843,2161.092696505997
844,2161.092696505997
907,0.0
908,0.0
971,0.0
972,0.0
1195,0.0
1197,0.0
2,4,12,25, 0,14, 0.00,60.00,Thursday
7,3.3
718,19.7814868023281
719,7.305467802164414
720,16.419172870474963
619,2352.0162657194323
633,729.212995992971
659,14.622578970150613
661,124.60972890441897
690,69.75076164329525
716,0.0
843,1840.1568994868485
844,1840.1568994868485
907,0.0
908,0.0
971,0.0
972,0.0
1195,0.0
1197,0.0
2,4,12,25, 0,15, 0.00,60.00,Thursday
7,5.0
718,19.681383577128383
719,8.26804537586313
720,16.4026886365113
619,2135.098102193831
633,647.9597882432104
659,4.691990717829457
661,135.36703944962247
690,59.86896311998012
716,0.0
843,1693.0818574711648
844,1693.0818574711648
907,0.0
908,0.0
971,0.0
972,0.0
1195,0.0
1197,0.0
2,4,12,25, 0,16, 0.00,60.00,Thursday
7,5.0
718,19.737368246981596
719,8.23493245412142
720,16.38944431448042
619,2069.441051265435
633,627.2352877087059
659,4.550686445465467
661,137.3135295453076
690,58.0659536244405
716,0.0
843,1648.7366138560592
844,1648.7366138560592
907,0.0
908,0.0
971,0.0
972,0.0
1195,0.0
1197,0.0
2,4,12,25, 0,17, 0.00,60.00,Thursday
7,3.3
718,19.566148775403988
719,7.221953126963572
720,16.38468951365016
619,2657.680047525317
633,819.4914315470731
659,12.727699327373559
661,115.82118689828336
690,77.90784068117101
716,71.6347372635636
843,1304.9047491766214
844,1304.9047491766214
907,0.0
908,0.0
971,0.0
972,0.0
1195,0.0
1197,0.0
2,4,12,25, 0,18, 0.00,60.00,Thursday
7,2.2
718,20.019150109348995
719,5.71181320176788
720,16.380926692310197
619,1993.1510763633055
633,630.5556386483194
659,10.484529617390137
661,134.2642309238902
690,60.81151070962123
716,0.0
843,1578.1200071311996
844,1578.1200071311996
907,0.0
908,0.0
971,0.0
972,0.0
1195,0.0
1197,0.0
2,4,12,25, 0,19, 0.00,60.00,Thursday
7,2.2
718,19.815890721698555
719,5.204653113206895
720,16.395104074037736
619,2911.8962736003155
633,915.9691550980717
659,15.097067222235902
661,105.3446019169677
690,87.56447413391052
716,85.44000000000005
843,1150.7089601856205
844,1150.7089601856205
907,0.0
908,0.0
971,0.0
972,0.0
1195,0.0
1197,0.0
2,4,12,25, 0,20, 0.00,60.00,Thursday
7,1.1
718,19.620052168131593
719,4.0277005162893325
720,16.36736407944959
619,2735.4933497490974
633,875.1576142133737
659,22.056309062285102
661,107.18990127938869
690,85.735573679807
716,57.69846336868107
843,1413.2545062234694
844,1413.2545062234694
907,0.0
908,0.0
971,0.0
972,0.0
1195,0.0
1197,0.0
2,4,12,25, 0,21, 0.00,60.00,Thursday
7,0.6
718,19.709556933155774
719,3.360446091127668
720,16.33811227977968
619,2183.190457897849