Program Version,EnergyPlus, Version 22.2.0-c249759bad, YMD=2023.09.01 20:55
1,5,Environment Title[],Latitude[deg],Longitude[deg],Time Zone[],Elevation[m]
2,8,Day of Simulation[],Month[],Day of Month[],DST Indicator[1=yes 0=no],Hour[],StartMinute[],EndMinute[],DayType
3,5,Cumulative Day of Simulation[],Month[],Day of Month[],DST Indicator[1=yes 0=no],DayType  ! When Daily Report Variables Requested
4,2,Cumulative Days of Simulation[],Month[]  ! When Monthly Report Variables Requested
5,1,Cumulative Days of Simulation[] ! When Run Period Report Variables Requested
6,1,Calendar Year of Simulation[] ! When Annual Report Variables Requested
581,11,LIVING,AFN Zone Infiltration Air Change Rate [ach] !RunPeriod [Value,Min,Month,Day,Hour,Minute,Max,Month,Day,Hour,Minute]
582,11,ATTIC,AFN Zone Infiltration Air Change Rate [ach] !RunPeriod [Value,Min,Month,Day,Hour,Minute,Max,Month,Day,Hour,Minute]
583,11,CRAWLSPACE,AFN Zone Infiltration Air Change Rate [ach] !RunPeriod [Value,Min,Month,Day,Hour,Minute,Max,Month,Day,Hour,Minute]
1038,11,Facility,Facility Heating Setpoint Not Met Time [hr] !RunPeriod [Value,Min,Month,Day,Hour,Minute,Max,Month,Day,Hour,Minute]
1039,11,Facility,Facility Cooling Setpoint Not Met Time [hr] !RunPeriod [Value,Min,Month,Day,Hour,Minute,Max,Month,Day,Hour,Minute]
1115,11,DX_HEATING_COIL,Heating Coil Heating Energy [J] !RunPeriod [Value,Min,Month,Day,Hour,Minute,Max,Month,Day,Hour,Minute]
1128,11,DX_HEATING_COIL,Heating Coil Electricity Energy [J] !RunPeriod [Value,Min,Month,Day,Hour,Minute,Max,Month,Day,Hour,Minute]
1153,11,DX_HEATING_COIL,Heating Coil Defrost Electricity Energy [J] !RunPeriod [Value,Min,Month,Day,Hour,Minute,Max,Month,Day,Hour,Minute]
1154,11,DX_HEATING_COIL,Heating Coil Crankcase Heater Electricity Energy [J] !RunPeriod [Value,Min,Month,Day,Hour,Minute,Max,Month,Day,Hour,Minute]
1155,11,HEATING_RESISTANCE_BACKUP,Heating Coil Heating Energy [J] !RunPeriod [Value,Min,Month,Day,Hour,Minute,Max,Month,Day,Hour,Minute]
1156,11,HEATING_RESISTANCE_BACKUP,Heating Coil Electricity Energy [J] !RunPeriod [Value,Min,Month,Day,Hour,Minute,Max,Month,Day,Hour,Minute]
1292,11,WATER HEATER,Water Heater Heat Loss Energy [J] !RunPeriod [Value,Min,Month,Day,Hour,Minute,Max,Month,Day,Hour,Minute]
1306,11,WATER HEATER,Water Heater Heating Energy [J] !RunPeriod [Value,Min,Month,Day,Hour,Minute,Max,Month,Day,Hour,Minute]
1307,11,WATER HEATER,Water Heater Unmet Demand Heat Transfer Energy [J] !RunPeriod [Value,Min,Month,Day,Hour,Minute,Max,Month,Day,Hour,Minute]
1308,11,WATER HEATER,Water Heater Electricity Energy [J] !RunPeriod [Value,Min,Month,Day,Hour,Minute,Max,Month,Day,Hour,Minute]
13,11,Electricity:Facility [J] !RunPeriod [Value,Min,Month,Day,Hour,Minute,Max,Month,Day,Hour,Minute]
1134,11,Heating:Electricity [J] !RunPeriod [Value,Min,Month,Day,Hour,Minute,Max,Month,Day,Hour,Minute]
1096,11,Cooling:Electricity [J] !RunPeriod [Value,Min,Month,Day,Hour,Minute,Max,Month,Day,Hour,Minute]
562,11,Fans:Electricity [J] !RunPeriod [Value,Min,Month,Day,Hour,Minute,Max,Month,Day,Hour,Minute]
1379,11,Pumps:Electricity [J] !RunPeriod [Value,Min,Month,Day,Hour,Minute,Max,Month,Day,Hour,Minute]
1326,11,WaterSystems:Electricity [J] !RunPeriod [Value,Min,Month,Day,Hour,Minute,Max,Month,Day,Hour,Minute]
61,11,InteriorLights:Electricity [J] !RunPeriod [Value,Min,Month,Day,Hour,Minute,Max,Month,Day,Hour,Minute]
1046,11,ExteriorLights:Electricity [J] !RunPeriod [Value,Min,Month,Day,Hour,Minute,Max,Month,Day,Hour,Minute]
134,11,InteriorEquipment:Electricity [J] !RunPeriod [Value,Min,Month,Day,Hour,Minute,Max,Month,Day,Hour,Minute]
170,11,gas_dryer:InteriorEquipment:Electricity [J] !RunPeriod [Value,Min,Month,Day,Hour,Minute,Max,Month,Day,Hour,Minute]
207,11,clotheswasher:InteriorEquipment:Electricity [J] !RunPeriod [Value,Min,Month,Day,Hour,Minute,Max,Month,Day,Hour,Minute]
244,11,dishwasher:InteriorEquipment:Electricity [J] !RunPeriod [Value,Min,Month,Day,Hour,Minute,Max,Month,Day,Hour,Minute]
281,11,refrigerator:InteriorEquipment:Electricity [J] !RunPeriod [Value,Min,Month,Day,Hour,Minute,Max,Month,Day,Hour,Minute]
318,11,electric_mels:InteriorEquipment:Electricity [J] !RunPeriod [Value,Min,Month,Day,Hour,Minute,Max,Month,Day,Hour,Minute]
355,11,NaturalGas:Facility [J] !RunPeriod [Value,Min,Month,Day,Hour,Minute,Max,Month,Day,Hour,Minute]
403,11,InteriorEquipment:NaturalGas [J] !RunPeriod [Value,Min,Month,Day,Hour,Minute,Max,Month,Day,Hour,Minute]
476,11,gas_dryer:InteriorEquipment:NaturalGas [J] !RunPeriod [Value,Min,Month,Day,Hour,Minute,Max,Month,Day,Hour,Minute]
513,11,gas_mels:InteriorEquipment:NaturalGas [J] !RunPeriod [Value,Min,Month,Day,Hour,Minute,Max,Month,Day,Hour,Minute]
End of Data Dictionary
1,EXTREME_WINTER,  33.65,-101.82,  -6.00, 991.80
5,15
1038,0.0,0.0,12,22, 1,15,0.0,12,22, 1,15
1039,2.0,0.0,12,22, 1,15,0.25,12,25,14,30
581,0.3867714682589855,0.1956951192660674, 1, 4,10, 3,1.3278009723010493,12,22,11,60
582,5.764162982044748,0.0, 1, 3,22,60,21.555180723882113,12,22,11,60
583,0.032827831961073445,0.00029482478886634324,12,24,13,48,0.1311974575887033,12,22,11,60
1115,2112488931.572816,0.0,12,22,16,45,5831479.2115606675,12,22,12,60
1128,692974865.150292,0.0,12,22,16,45,1839221.4204762091,12,22,12,60
1153,25431769.043788437,0.0,12,22,16,45,95484.943792545, 1, 5,11,45
1154,167344917.93039894,0.0,12,22, 6, 5,180000.0,12,22,16,45
1155,19871765.95175504,0.0,12,22, 1, 7,1445318.782594283,12,28, 6, 5
1156,19871765.95175504,0.0,12,22, 1, 7,1445318.782594283,12,28, 6, 5
1292,-52511009.86942513,-39797.73899818537,12,31, 2,60,-3458.6836291451095,12,26,19,47
1306,698405800.2008016,0.0,12,22, 1, 7,4050000.0,12,22, 9,60
1307,289525831.93550164,0.0,12,22, 1, 7,14748350.807952102, 1, 2, 9,60
1308,698405800.2008016,0.0,12,22, 1, 7,4050000.0,12,22, 9,60
13,2496301434.380073,272017.0388981225,12,25,15,30,6781505.266389899,12,22, 9,60
61,646981127.1939323,88139.10953165221,12,22, 1,15,1282023.4113694867,12,22,20,15
134,151290040.75163814,63564.01800854099,12,22, 4,15,156554.22484006523,12,27,20,15
170,11185820.069951689,348.4159749238097,12,22, 4,15,17476.39704006126,12,27,12,15
207,13893028.5742839,815.2532113832032,12,22, 3,15,22990.642799023623,12,27,10,15
244,27284301.07562584,1521.856143006317,12,22, 4,15,53038.631142310165,12,27,20,15
281,98926891.03177746,59938.60262432081,12,22, 5,15,81951.81706819107,12,22,19,15
318,0.0,0.0,12,22, 1,15,0.0,12,22, 1,15
355,422701517.16107386,18561.32405820678,12,22, 4,15,724774.895203776,12,27,18,15
403,422701517.16107386,18561.32405820678,12,22, 4,15,724774.895203776,12,27,18,15
476,227882097.80545202,7098.072629279515,12,22, 4,15,356036.3026282215,12,27,12,15
513,0.0,0.0,12,22, 1,15,0.0,12,22, 1,15
562,76999942.31323913,0.0,12,22,16,45,188962.75522650033,12,22, 9,45
1046,0.0,0.0,12,22, 1,15,0.0,12,22, 1,15
1096,17001205.844230186,0.0,12,22, 1,15,573045.3676803291,12,25,16,15
1134,905623318.0762342,0.0,12,23,11,30,3439324.430522652,12,28, 6,15
1326,698405800.2008014,0.0,12,22, 1,15,4050000.0,12,22, 9,60
1379,0.0,0.0,12,22, 1,15,0.0,12,22, 1,15
1,EXTREME_SUMMER,  33.65,-101.82,  -6.00, 991.80
5,7
1038,0.0,0.0, 7, 6, 1,15,0.0, 7, 6, 1,15
1039,10.0,0.0, 7, 6, 1,15,0.25, 7, 9,15,60
581,0.28313666546803723,0.02782048951683119, 7, 6, 7,55,0.6058383399938778, 7, 9,14,52
582,5.5944784925796505,0.01720691805400564, 7, 6, 4,52,11.718101143627857, 7,10, 1,60
583,0.05778518368056395,0.0005552645525003809, 7,12, 6,11,0.10879959899865298, 7, 9, 6, 3
1115,0.0,0.0, 7, 6, 1,15,0.0, 7, 6, 1,15
1128,0.0,0.0, 7, 6, 1,15,0.0, 7, 6, 1,15
1153,0.0,0.0, 7, 6, 1,15,0.0, 7, 6, 1,15
1154,0.0,0.0, 7, 6, 1,15,0.0, 7, 6, 1,15
1155,0.0,0.0, 7, 6, 1,15,0.0, 7, 6, 1,15
1156,0.0,0.0, 7, 6, 1,15,0.0, 7, 6, 1,15
1292,-22041444.086460397,-34346.86986948753, 7, 6,22,45,-3576.281873493836, 7,10,19,45
1306,239210964.07866272,0.0, 7, 6, 1,15,4050000.0, 7, 6,16,60
1307,68627845.42419806,0.0, 7, 6, 1,15,2779882.023405193, 7, 6,16,45
1308,239210964.07866272,0.0, 7, 6, 1,15,4050000.0, 7, 6,16,60
13,1399293768.3683999,249257.3380740301, 7, 6, 4,60,7523491.328704067, 7,10,19,60
61,301924526.02383536,88139.10953165221, 7, 6, 1,15,1282023.4113694867, 7, 6,20,15
134,70666020.44019976,63564.01800854099, 7, 6, 4,15,156554.22484006523, 7,11,20,15
170,5241013.419656067,348.4159749238097, 7, 6, 4,15,17476.39704006126, 7,11,12,15
207,6509451.13922267,815.2532113832032, 7, 6, 3,15,22990.642799023623, 7,11,10,15
244,12749673.399825225,1521.856143006317, 7, 6, 4,15,53038.631142310165, 7,11,20,15
281,46165882.481495745,59938.60262432081, 7, 6, 5,15,81951.81706819107, 7, 6,19,15
318,0.0,0.0, 7, 6, 1,15,0.0, 7, 6, 1,15
355,197687796.27748066,18561.32405820678, 7, 6, 4,15,724774.895203776, 7,11,18,15
403,197687796.27748066,18561.32405820678, 7, 6, 4,15,724774.895203776, 7,11,18,15
476,106772067.24485716,7098.072629279515, 7, 6, 4,15,356036.3026282215, 7,11,12,15
513,0.0,0.0, 7, 6, 1,15,0.0, 7, 6, 1,15
562,70098920.4066961,3248.1396520609037, 7, 6, 6,30,188962.75522650036, 7,10,19,45
1046,0.0,0.0, 7, 6, 1,15,0.0, 7, 6, 1,15
1096,717393337.4190058,25981.40492101657, 7, 6, 6,30,2324228.0667884788, 7, 9,14,60
1134,0.0,0.0, 7, 6, 1,15,0.0, 7, 6, 1,15
1326,239210964.07866263,0.0, 7, 6, 1,15,4050000.0, 7, 6, 9,60
1379,0.0,0.0, 7, 6, 1,15,0.0, 7, 6, 1,15
1,ANNUAL,  33.65,-101.82,  -6.00, 991.80
5,365
1038,0.0,0.0, 1, 1, 1,15,0.0, 1, 1, 1,15
1039,177.0,0.0, 1, 1, 1,15,0.25, 3,25,13,30
581,0.3328891712315743,0.0, 6,26, 6, 7,1.540865403411826, 2,24,12,52
582,6.433801937206092,0.0, 1, 3,22,60,46.368460087617045, 2,24,10,60
583,0.03484460630157049,0.0, 8, 3, 6, 7,0.13046297422803557,12,22,11,60
1115,10213502174.248682,0.0, 1, 1,16,45,5808410.552191437,12,22,12,45
1128,3342810268.925469,0.0, 1, 1,16,45,1829238.7711104495,12,22,12,45
1153,160466259.55941144,0.0, 1, 1,16,45,122234.63175560333, 2,11, 6,45
1154,1461099293.278979,0.0, 1, 1, 6, 5,180000.0, 1, 1,16,45
1155,110982942.49673913,0.0, 1, 1, 1,15,2115781.3443423025, 2,15, 6,45
1156,110982942.49673913,0.0, 1, 1, 1,15,2115781.3443423025, 2,15, 6,45
1292,-1190137955.8554602,-39783.09911398466,12,14, 4,60,-1697.8881432754592, 3,24,19,46
1306,14820516802.167887,0.0, 1, 1, 1,15,4050000.0, 1, 1, 9,60
1307,5385911234.32294,0.0, 1, 1, 1,15,15152342.214177033, 2,10, 9,60
1308,14820516802.167887,0.0, 1, 1, 1,15,4050000.0, 1, 1, 9,60
13,56364210542.87031,151703.1275401932, 1,31, 4,15,7630501.043171373, 6,27,20,15
61,15743207428.383959,88139.10953165221, 1, 1, 1,15,1282023.4113694867, 1, 1,20,15
134,3685071073.4325233,63564.01800854099, 1, 2, 4,15,156554.22484006523, 1, 1,20,15
170,273393721.45532674,348.4159749238097, 1, 2, 4,15,17476.39704006126, 1, 1,12,15
207,339560869.0695816,815.2532113832032, 1, 2, 3,15,22990.642799023623, 1, 1,10,15
244,664895467.8009144,1521.856143006317, 1, 2, 4,15,53038.631142310165, 1, 1,20,15
281,2407221015.106824,59938.60262432081, 1, 1, 5,15,81951.81706819107, 1, 1,19,15
318,0.0,0.0, 1, 1, 1,15,0.0, 1, 1, 1,15
355,10310294493.051695,18561.32405820678, 1, 2, 4,15,724774.895203776, 1, 1,18,15
403,10310294493.051695,18561.32405820678, 1, 2, 4,15,724774.895203776, 1, 1,18,15
476,5569688622.066177,7098.072629279515, 1, 2, 4,15,356036.3026282215, 1, 1,12,15
513,0.0,0.0, 1, 1, 1,15,0.0, 1, 1, 1,15
562,2022096479.7665167,0.0, 1, 1,16,45,188962.75522650036, 6,25,19,30
1046,0.0,0.0, 1, 1, 1,15,0.0, 1, 1, 1,15
1096,15017959994.856974,0.0, 1, 1, 1,15,2321119.4716104968, 7, 9,14,30
1134,5075358764.260599,0.0, 1, 3,13,60,4444892.947102956, 2,15, 6,15
1326,14820516802.1679,0.0, 1, 1, 1,15,4050000.0000000014, 2,22,10,45
1379,0.0,0.0, 1, 1, 1,15,0.0, 1, 1, 1,15
End of Data
 Number of Records Written=          99
