Program Version,EnergyPlus, Version 22.2.0-c249759bad, YMD=2023.09.01 15:32
1,5,Environment Title[],Latitude[deg],Longitude[deg],Time Zone[],Elevation[m]
2,8,Day of Simulation[],Month[],Day of Month[],DST Indicator[1=yes 0=no],Hour[],StartMinute[],EndMinute[],DayType
3,5,Cumulative Day of Simulation[],Month[],Day of Month[],DST Indicator[1=yes 0=no],DayType  ! When Daily Report Variables Requested
4,2,Cumulative Days of Simulation[],Month[]  ! When Monthly Report Variables Requested
5,1,Cumulative Days of Simulation[] ! When Run Period Report Variables Requested
6,1,Calendar Year of Simulation[] ! When Annual Report Variables Requested
581,11,LIVING,AFN Zone Infiltration Air Change Rate [ach] !RunPeriod [Value,Min,Month,Day,Hour,Minute,Max,Month,Day,Hour,Minute]
582,11,ATTIC,AFN Zone Infiltration Air Change Rate [ach] !RunPeriod [Value,Min,Month,Day,Hour,Minute,Max,Month,Day,Hour,Minute]
583,11,CRAWLSPACE,AFN Zone Infiltration Air Change Rate [ach] !RunPeriod [Value,Min,Month,Day,Hour,Minute,Max,Month,Day,Hour,Minute]
1038,11,Facility,Facility Heating Setpoint Not Met Time [hr] !RunPeriod [Value,Min,Month,Day,Hour,Minute,Max,Month,Day,Hour,Minute]
1039,11,Facility,Facility Cooling Setpoint Not Met Time [hr] !RunPeriod [Value,Min,Month,Day,Hour,Minute,Max,Month,Day,Hour,Minute]
1115,11,DX_HEATING_COIL,Heating Coil Heating Energy [J] !RunPeriod [Value,Min,Month,Day,Hour,Minute,Max,Month,Day,Hour,Minute]
1128,11,DX_HEATING_COIL,Heating Coil Electricity Energy [J] !RunPeriod [Value,Min,Month,Day,Hour,Minute,Max,Month,Day,Hour,Minute]
1153,11,DX_HEATING_COIL,Heating Coil Defrost Electricity Energy [J] !RunPeriod [Value,Min,Month,Day,Hour,Minute,Max,Month,Day,Hour,Minute]
1154,11,DX_HEATING_COIL,Heating Coil Crankcase Heater Electricity Energy [J] !RunPeriod [Value,Min,Month,Day,Hour,Minute,Max,Month,Day,Hour,Minute]
1155,11,HEATING_RESISTANCE_BACKUP,Heating Coil Heating Energy [J] !RunPeriod [Value,Min,Month,Day,Hour,Minute,Max,Month,Day,Hour,Minute]
1156,11,HEATING_RESISTANCE_BACKUP,Heating Coil Electricity Energy [J] !RunPeriod [Value,Min,Month,Day,Hour,Minute,Max,Month,Day,Hour,Minute]
1292,11,WATER HEATER,Water Heater Heat Loss Energy [J] !RunPeriod [Value,Min,Month,Day,Hour,Minute,Max,Month,Day,Hour,Minute]
1306,11,WATER HEATER,Water Heater Heating Energy [J] !RunPeriod [Value,Min,Month,Day,Hour,Minute,Max,Month,Day,Hour,Minute]
1307,11,WATER HEATER,Water Heater Unmet Demand Heat Transfer Energy [J] !RunPeriod [Value,Min,Month,Day,Hour,Minute,Max,Month,Day,Hour,Minute]
1308,11,WATER HEATER,Water Heater Electricity Energy [J] !RunPeriod [Value,Min,Month,Day,Hour,Minute,Max,Month,Day,Hour,Minute]
13,11,Electricity:Facility [J] !RunPeriod [Value,Min,Month,Day,Hour,Minute,Max,Month,Day,Hour,Minute]
1134,11,Heating:Electricity [J] !RunPeriod [Value,Min,Month,Day,Hour,Minute,Max,Month,Day,Hour,Minute]
1096,11,Cooling:Electricity [J] !RunPeriod [Value,Min,Month,Day,Hour,Minute,Max,Month,Day,Hour,Minute]
562,11,Fans:Electricity [J] !RunPeriod [Value,Min,Month,Day,Hour,Minute,Max,Month,Day,Hour,Minute]
1379,11,Pumps:Electricity [J] !RunPeriod [Value,Min,Month,Day,Hour,Minute,Max,Month,Day,Hour,Minute]
1326,11,WaterSystems:Electricity [J] !RunPeriod [Value,Min,Month,Day,Hour,Minute,Max,Month,Day,Hour,Minute]
61,11,InteriorLights:Electricity [J] !RunPeriod [Value,Min,Month,Day,Hour,Minute,Max,Month,Day,Hour,Minute]
1046,11,ExteriorLights:Electricity [J] !RunPeriod [Value,Min,Month,Day,Hour,Minute,Max,Month,Day,Hour,Minute]
134,11,InteriorEquipment:Electricity [J] !RunPeriod [Value,Min,Month,Day,Hour,Minute,Max,Month,Day,Hour,Minute]
170,11,gas_dryer:InteriorEquipment:Electricity [J] !RunPeriod [Value,Min,Month,Day,Hour,Minute,Max,Month,Day,Hour,Minute]
207,11,clotheswasher:InteriorEquipment:Electricity [J] !RunPeriod [Value,Min,Month,Day,Hour,Minute,Max,Month,Day,Hour,Minute]
244,11,dishwasher:InteriorEquipment:Electricity [J] !RunPeriod [Value,Min,Month,Day,Hour,Minute,Max,Month,Day,Hour,Minute]
281,11,refrigerator:InteriorEquipment:Electricity [J] !RunPeriod [Value,Min,Month,Day,Hour,Minute,Max,Month,Day,Hour,Minute]
318,11,electric_mels:InteriorEquipment:Electricity [J] !RunPeriod [Value,Min,Month,Day,Hour,Minute,Max,Month,Day,Hour,Minute]
355,11,NaturalGas:Facility [J] !RunPeriod [Value,Min,Month,Day,Hour,Minute,Max,Month,Day,Hour,Minute]
403,11,InteriorEquipment:NaturalGas [J] !RunPeriod [Value,Min,Month,Day,Hour,Minute,Max,Month,Day,Hour,Minute]
476,11,gas_dryer:InteriorEquipment:NaturalGas [J] !RunPeriod [Value,Min,Month,Day,Hour,Minute,Max,Month,Day,Hour,Minute]
513,11,gas_mels:InteriorEquipment:NaturalGas [J] !RunPeriod [Value,Min,Month,Day,Hour,Minute,Max,Month,Day,Hour,Minute]
End of Data Dictionary
1,EXTREME_WINTER,  37.37,-118.37,  -8.00,1252.00
5,7
1038,0.25,0.0, 1,13, 1,15,0.25, 1,17, 6,15
1039,0.0,0.0, 1,13, 1,15,0.0, 1,13, 1,15
581,0.30155647526678253,0.13750027015788646, 1,15,17,60,0.9265044912649467, 1,16, 9,52
582,2.384400609602511,0.0, 1,15,10,60,13.93317705200254, 1,16, 9,60
583,0.03277056918053841,0.00022741936419086814, 1,13,13, 2,0.09198492077191801, 1,14, 6,60
1115,1060506779.1679822,0.0, 1,13,10,46,4639977.524148333, 1,15, 8,45
1128,361978436.90588576,0.0, 1,13,10,46,1559035.992272343, 1,15, 8,45
1153,769472.1827816379,0.0, 1,13,10,32,24993.725546112, 1,19, 7,60
1154,63583637.49631209,0.0, 1,13, 6, 5,180000.0, 1,13,23,60
1155,94599955.32578373,0.0, 1,13, 1,15,2640619.387062067, 1,17, 6,45
1156,94599955.32578373,0.0, 1,13, 1,15,2640619.387062067, 1,17, 6,45
1292,-24757749.103690404,-39780.66087400833, 1,16, 2,30,-3676.8850447087348, 1,17,11,30
1306,224721751.73911983,0.0, 1,13, 1,15,9592500.097139683, 1,19,19,60
1307,4797407.9976155115,0.0, 1,13, 1,15,4789442.486566784, 1,19,19,60
1308,224721751.73911983,0.0, 1,13, 1,15,9592500.097139683, 1,19,19,60
13,1162692809.3975935,278150.8545527997, 1,19,15,15,13022305.906774566, 1,17, 6,60
61,301924526.02383536,88139.10953165221, 1,13, 1,15,1282023.4113694867, 1,13,20,15
134,70666020.44019976,63564.01800854099, 1,13, 4,15,156554.22484006523, 1,18,20,15
170,5241013.419656067,348.4159749238097, 1,13, 4,15,17476.39704006126, 1,18,12,15
207,6509451.13922267,815.2532113832032, 1,13, 3,15,22990.642799023623, 1,18,10,15
244,12749673.399825225,1521.856143006317, 1,13, 4,15,53038.631142310165, 1,18,20,15
281,46165882.481495745,59938.60262432081, 1,13, 5,15,81951.81706819107, 1,13,19,15
318,0.0,0.0, 1,13, 1,15,0.0, 1,13, 1,15
355,197687796.27748066,18561.32405820678, 1,13, 4,15,724774.895203776, 1,18,18,15
403,197687796.27748066,18561.32405820678, 1,13, 4,15,724774.895203776, 1,18,18,15
476,106772067.24485716,7098.072629279515, 1,13, 4,15,356036.3026282215, 1,18,12,15
513,0.0,0.0, 1,13, 1,15,0.0, 1,13, 1,15
562,39380019.42734032,0.0, 1,13,10,60,163396.24666865414, 1,13, 6,45
1046,0.0,0.0, 1,13, 1,15,0.0, 1,13, 1,15
1096,5068989.856335819,0.0, 1,13, 1,15,249514.53654309502, 1,13,17,15
1134,520931501.9107634,0.0, 1,13,12,45,4581864.921986457, 1,17, 6,15
1326,224721751.73911995,0.0, 1,13, 1,15,10275322.232420217, 1,19, 9,45
1379,0.0,0.0, 1,13, 1,15,0.0, 1,13, 1,15
1,EXTREME_SUMMER,  37.37,-118.37,  -8.00,1252.00
5,7
1038,0.0,0.0, 7,20, 1,15,0.0, 7,20, 1,15
1039,10.25,0.0, 7,20, 1,15,0.25, 7,21,15,45
581,0.16682368374333686,0.0, 7,21,23, 3,1.1454480587137268, 7,20,15,46
582,3.42508610996452,0.0, 7,21, 4,50,24.227162735970676, 7,20,15,46
583,0.042085732001936264,0.0, 7,21,23, 3,0.09861870988545911, 7,20,15,46
1115,0.0,0.0, 7,20, 1, 7,0.0, 7,20, 1, 7
1128,0.0,0.0, 7,20, 1, 7,0.0, 7,20, 1, 7
1153,0.0,0.0, 7,20, 1, 7,0.0, 7,20, 1, 7
1154,0.0,0.0, 7,20, 1, 7,0.0, 7,20, 1, 7
1155,0.0,0.0, 7,20, 1, 7,0.0, 7,20, 1, 7
1156,0.0,0.0, 7,20, 1, 7,0.0, 7,20, 1, 7
1292,-22077475.36089359,-34353.89296501046, 7,25, 6,30,-2273.4813583896284, 7,20,15,45
1306,160778084.44876924,0.0, 7,20, 1, 7,3513600.0, 7,26,19,55
1307,401432.2896397548,0.0, 7,20, 1, 7,152796.68547796263, 7,26,19,60
1308,160778084.44876924,0.0, 7,20, 1, 7,3513600.0, 7,26,19,55
13,1151818170.1513996,151703.1275401932, 7,20, 4,15,11773033.987667426, 7,26,19,60
61,301924526.02383536,88139.10953165221, 7,20, 1,15,1282023.4113694867, 7,20,20,15
134,70666020.44019976,63564.01800854099, 7,20, 4,15,156554.22484006523, 7,25,20,15
170,5241013.419656067,348.4159749238097, 7,20, 4,15,17476.39704006126, 7,25,12,15
207,6509451.13922267,815.2532113832032, 7,20, 3,15,22990.642799023623, 7,25,10,15
244,12749673.399825225,1521.856143006317, 7,20, 4,15,53038.631142310165, 7,25,20,15
281,46165882.481495745,59938.60262432081, 7,20, 5,15,81951.81706819107, 7,20,19,15
318,0.0,0.0, 7,20, 1,15,0.0, 7,20, 1,15
355,197687796.27748066,18561.32405820678, 7,20, 4,15,724774.895203776, 7,25,18,15
403,197687796.27748066,18561.32405820678, 7,20, 4,15,724774.895203776, 7,25,18,15
476,106772067.24485716,7098.072629279515, 7,20, 4,15,356036.3026282215, 7,25,12,15
513,0.0,0.0, 7,20, 1,15,0.0, 7,20, 1,15
562,55211422.026086144,0.0, 7,20, 3,45,163396.24666865417, 7,21,18,15
1046,0.0,0.0, 7,20, 1,15,0.0, 7,20, 1,15
1096,563238117.2125094,0.0, 7,20, 3,45,1970366.5496314846, 7,22,15,60
1134,0.0,0.0, 7,20, 1,15,0.0, 7,20, 1,15
1326,160778084.44876927,0.0, 7,20, 1,15,9223504.864409989, 7,26,19,60
1379,0.0,0.0, 7,20, 1,15,0.0, 7,20, 1,15
1,ANNUAL,  37.37,-118.37,  -8.00,1252.00
5,365
1038,0.5,0.0, 1, 1, 1,15,0.25, 1,17, 6,15
1039,289.0,0.0, 1, 1, 1,15,0.25, 1, 3,15,15
581,0.25377313710296556,0.0, 6,27,23, 3,1.545109837092474, 3,30,17,52
582,3.6553685248051795,0.0, 1, 1,10,46,28.90032149157177, 3,30,17,52
583,0.02732922671522293,0.0, 6,27,23, 3,0.11028593772396585, 7,20,15,46
1115,11912519488.88677,0.0, 1, 1,10,46,5061789.824957598,12,18, 6,45
1128,3895869540.133721,0.0, 1, 1,10,46,1602997.7687537402,12,18, 6,45
1153,71673999.22952893,0.0, 1, 1,10,32,122849.92270350074, 1,23,11,30
1154,1840692741.3250442,0.0, 1, 1, 6, 5,180000.0, 1, 1,22,60
1155,345009682.0301944,0.0, 1, 1, 1,15,2733522.897189088, 1,17, 6,45
1156,345009682.0301944,0.0, 1, 1, 1,15,2733522.897189088, 1,17, 6,45
1292,-1207682061.565921,-39819.340353647094,11,13, 2,15,-2098.197519481135, 7,28,15,15
1306,10138828335.580763,0.0, 1, 1, 1,15,10540800.0, 3, 5,19,60
1307,147604540.8398679,0.0, 1, 1, 1,15,5069414.120185231, 3, 5,19,60
1308,10138828335.580763,0.0, 1, 1, 1,15,10540800.0, 3, 5,19,60
13,49214721367.25337,151703.1275401932, 4,11, 4,15,13176727.816927211, 6, 4,19,60
61,15743207428.383959,88139.10953165221, 1, 1, 1,15,1282023.4113694867, 1, 1,20,15
134,3685071073.4325233,63564.01800854099, 1, 2, 4,15,156554.22484006523, 1, 1,20,15
170,273393721.45532674,348.4159749238097, 1, 2, 4,15,17476.39704006126, 1, 1,12,15
207,339560869.0695816,815.2532113832032, 1, 2, 3,15,22990.642799023623, 1, 1,10,15
244,664895467.8009144,1521.856143006317, 1, 2, 4,15,53038.631142310165, 1, 1,20,15
281,2407221015.106824,59938.60262432081, 1, 1, 5,15,81951.81706819107, 1, 1,19,15
318,0.0,0.0, 1, 1, 1,15,0.0, 1, 1, 1,15
355,10310294493.051695,18561.32405820678, 1, 2, 4,15,724774.895203776, 1, 1,18,15
403,10310294493.051695,18561.32405820678, 1, 2, 4,15,724774.895203776, 1, 1,18,15
476,5569688622.066177,7098.072629279515, 1, 2, 4,15,356036.3026282215, 1, 1,12,15
513,0.0,0.0, 1, 1, 1,15,0.0, 1, 1, 1,15
562,1717484053.7498693,0.0, 1, 1,10,60,163396.2466686542, 7,28,15,60
1046,0.0,0.0, 1, 1, 1,15,0.0, 1, 1, 1,15
1096,11776884513.3853,0.0, 1, 1, 1,15,1968050.6302894165, 7,17,13,60
1134,6153245962.718474,0.0, 1, 1,12,30,4674069.586182847, 1,17, 6,15
1326,10138828335.580778,0.0, 1, 1, 1,15,10540800.0, 1, 8,19,60
1379,0.0,0.0, 1, 1, 1,15,0.0, 1, 1, 1,15
End of Data
 Number of Records Written=          99
