Program Version,EnergyPlus, Version 22.2.0-c249759bad, YMD=2023.07.07 14:58
1,5,Environment Title[],Latitude[deg],Longitude[deg],Time Zone[],Elevation[m]
2,8,Day of Simulation[],Month[],Day of Month[],DST Indicator[1=yes 0=no],Hour[],StartMinute[],EndMinute[],DayType
3,5,Cumulative Day of Simulation[],Month[],Day of Month[],DST Indicator[1=yes 0=no],DayType  ! When Daily Report Variables Requested
4,2,Cumulative Days of Simulation[],Month[]  ! When Monthly Report Variables Requested
5,1,Cumulative Days of Simulation[] ! When Run Period Report Variables Requested
6,1,Calendar Year of Simulation[] ! When Annual Report Variables Requested
581,11,LIVING,AFN Zone Infiltration Air Change Rate [ach] !RunPeriod [Value,Min,Month,Day,Hour,Minute,Max,Month,Day,Hour,Minute]
582,11,ATTIC,AFN Zone Infiltration Air Change Rate [ach] !RunPeriod [Value,Min,Month,Day,Hour,Minute,Max,Month,Day,Hour,Minute]
583,11,CRAWLSPACE,AFN Zone Infiltration Air Change Rate [ach] !RunPeriod [Value,Min,Month,Day,Hour,Minute,Max,Month,Day,Hour,Minute]
989,11,Facility,Facility Heating Setpoint Not Met Time [hr] !RunPeriod [Value,Min,Month,Day,Hour,Minute,Max,Month,Day,Hour,Minute]
990,11,Facility,Facility Cooling Setpoint Not Met Time [hr] !RunPeriod [Value,Min,Month,Day,Hour,Minute,Max,Month,Day,Hour,Minute]
1066,11,DX_HEATING_COIL,Heating Coil Heating Energy [J] !RunPeriod [Value,Min,Month,Day,Hour,Minute,Max,Month,Day,Hour,Minute]
1079,11,DX_HEATING_COIL,Heating Coil Electricity Energy [J] !RunPeriod [Value,Min,Month,Day,Hour,Minute,Max,Month,Day,Hour,Minute]
1104,11,DX_HEATING_COIL,Heating Coil Defrost Electricity Energy [J] !RunPeriod [Value,Min,Month,Day,Hour,Minute,Max,Month,Day,Hour,Minute]
1105,11,DX_HEATING_COIL,Heating Coil Crankcase Heater Electricity Energy [J] !RunPeriod [Value,Min,Month,Day,Hour,Minute,Max,Month,Day,Hour,Minute]
1107,11,HEATING_RESISTANCE_BACKUP,Heating Coil Electricity Energy [J] !RunPeriod [Value,Min,Month,Day,Hour,Minute,Max,Month,Day,Hour,Minute]
13,11,Electricity:Facility [J] !RunPeriod [Value,Min,Month,Day,Hour,Minute,Max,Month,Day,Hour,Minute]
1085,11,Heating:Electricity [J] !RunPeriod [Value,Min,Month,Day,Hour,Minute,Max,Month,Day,Hour,Minute]
1047,11,Cooling:Electricity [J] !RunPeriod [Value,Min,Month,Day,Hour,Minute,Max,Month,Day,Hour,Minute]
562,11,Fans:Electricity [J] !RunPeriod [Value,Min,Month,Day,Hour,Minute,Max,Month,Day,Hour,Minute]
61,11,InteriorLights:Electricity [J] !RunPeriod [Value,Min,Month,Day,Hour,Minute,Max,Month,Day,Hour,Minute]
997,11,ExteriorLights:Electricity [J] !RunPeriod [Value,Min,Month,Day,Hour,Minute,Max,Month,Day,Hour,Minute]
134,11,InteriorEquipment:Electricity [J] !RunPeriod [Value,Min,Month,Day,Hour,Minute,Max,Month,Day,Hour,Minute]
170,11,gas_dryer:InteriorEquipment:Electricity [J] !RunPeriod [Value,Min,Month,Day,Hour,Minute,Max,Month,Day,Hour,Minute]
207,11,clotheswasher:InteriorEquipment:Electricity [J] !RunPeriod [Value,Min,Month,Day,Hour,Minute,Max,Month,Day,Hour,Minute]
244,11,dishwasher:InteriorEquipment:Electricity [J] !RunPeriod [Value,Min,Month,Day,Hour,Minute,Max,Month,Day,Hour,Minute]
281,11,refrigerator:InteriorEquipment:Electricity [J] !RunPeriod [Value,Min,Month,Day,Hour,Minute,Max,Month,Day,Hour,Minute]
318,11,electric_mels:InteriorEquipment:Electricity [J] !RunPeriod [Value,Min,Month,Day,Hour,Minute,Max,Month,Day,Hour,Minute]
355,11,NaturalGas:Facility [J] !RunPeriod [Value,Min,Month,Day,Hour,Minute,Max,Month,Day,Hour,Minute]
403,11,InteriorEquipment:NaturalGas [J] !RunPeriod [Value,Min,Month,Day,Hour,Minute,Max,Month,Day,Hour,Minute]
476,11,gas_dryer:InteriorEquipment:NaturalGas [J] !RunPeriod [Value,Min,Month,Day,Hour,Minute,Max,Month,Day,Hour,Minute]
513,11,gas_mels:InteriorEquipment:NaturalGas [J] !RunPeriod [Value,Min,Month,Day,Hour,Minute,Max,Month,Day,Hour,Minute]
End of Data Dictionary
1,EXTREME_WINTER,  33.57, -86.75,  -6.00, 192.00
5,7
989,0.16666666666666666,0.0, 1,13, 1,10,0.16666666666666666, 1,17, 6,10
990,0.0,0.0, 1,13, 1,10,0.0, 1,13, 1,10
581,0.39703462023575525,0.14400645575014645, 1,15, 2,60,0.7438583523298405, 1,18, 9,60
582,2.517625907221484,0.0, 1,13, 1,30,8.719465537112258, 1,17,13,60
583,2.975658153844561,0.0001479803089219946, 1,14,19,55,9.960680609977256, 1,17,14,20
1066,1838475267.4718277,0.0, 1,13,10,41,4716194.332089242, 1,18, 8,30
1079,563393761.0108051,0.0, 1,13,10,41,1493169.3516828634, 1,18,22,60
1104,16167338.734807357,0.0, 1,13,10,41,89372.3811162224, 1,13, 7,60
1105,50488857.430245586,0.0, 1,13, 6, 3,120000.0, 1,17,13,10
1107,84290760.74432784,0.0, 1,13, 1,10,2612404.8250339795, 1,19, 6,30
13,1169512091.4551075,188514.1410400855, 1,14,12,10,5270146.175190631, 1,19, 6,10
61,301924526.0238348,58759.40635443481, 1,13, 1,10,854682.2742463244, 1,13,20,10
134,70666020.44019979,42376.01200569399, 1,13, 4,10,104369.48322671017, 1,18,20,10
170,5241013.419656074,232.27731661587313, 1,13, 4,10,11650.931360040839, 1,18,12,10
207,6509451.13922266,543.5021409221355, 1,13, 3,10,15327.095199349082, 1,18,10,10
244,12749673.39982522,1014.5707620042115, 1,13, 4,10,35359.08742820678, 1,18,20,10
281,46165882.48149605,39959.06841621388, 1,13, 5,10,54634.54471212738, 1,13,19,10
318,0.0,0.0, 1,13, 1,10,0.0, 1,13, 1,10
355,197687796.27748126,12374.216038804521, 1,13, 4,10,483183.26346918393, 1,18,18,10
403,197687796.27748126,12374.216038804521, 1,13, 4,10,483183.26346918393, 1,18,18,10
476,106772067.24485692,4732.048419519677, 1,13, 4,10,237357.535085481, 1,18,12,10
513,0.0,0.0, 1,13, 1,10,0.0, 1,13, 1,10
562,61589960.0802075,0.0, 1,13,10,50,154553.64600563253, 1,13, 6,30
997,0.0,0.0, 1,13, 1,10,0.0, 1,13, 1,10
1047,20990866.990676925,0.0, 1,13, 1,10,391488.7462822347, 1,14,16,30
1085,714340717.9201858,0.0, 1,13,13,60,4702275.209808624, 1,19, 6,10
1,EXTREME_SUMMER,  33.57, -86.75,  -6.00, 192.00
5,7
989,0.0,0.0, 7, 6, 1,10,0.0, 7, 6, 1,10
990,12.0,0.0, 7, 6, 1,10,0.16666666666666666, 7, 9,14,20
581,0.0696445247185318,0.0, 7, 6, 1,20,1.0102898760419046, 7,10,14,52
582,2.2807816747580887,0.20935435151273424, 7, 6, 2,10,14.449560083028024, 7, 9,17,52
583,1.7190049161774437,0.0, 7, 6, 1,60,16.47865324874685, 7, 9,17,52
1066,0.0,0.0, 7, 6, 1,10,0.0, 7, 6, 1,10
1079,0.0,0.0, 7, 6, 1,10,0.0, 7, 6, 1,10
1104,0.0,0.0, 7, 6, 1,10,0.0, 7, 6, 1,10
1105,0.0,0.0, 7, 6, 1,10,0.0, 7, 6, 1,10
1107,0.0,0.0, 7, 6, 1,10,0.0, 7, 6, 1,10
13,1121957358.9998462,101135.4183601288, 7, 6, 4,10,2592124.6029076525, 7,11,19,10
61,301924526.0238348,58759.40635443481, 7, 6, 1,10,854682.2742463244, 7, 6,20,10
134,70666020.44019979,42376.01200569399, 7, 6, 4,10,104369.48322671017, 7,11,20,10
170,5241013.419656074,232.27731661587313, 7, 6, 4,10,11650.931360040839, 7,11,12,10
207,6509451.13922266,543.5021409221355, 7, 6, 3,10,15327.095199349082, 7,11,10,10
244,12749673.39982522,1014.5707620042115, 7, 6, 4,10,35359.08742820678, 7,11,20,10
281,46165882.48149605,39959.06841621388, 7, 6, 5,10,54634.54471212738, 7, 6,19,10
318,0.0,0.0, 7, 6, 1,10,0.0, 7, 6, 1,10
355,197687796.27748126,12374.216038804521, 7, 6, 4,10,483183.26346918393, 7,11,18,10
403,197687796.27748126,12374.216038804521, 7, 6, 4,10,483183.26346918393, 7,11,18,10
476,106772067.24485692,4732.048419519677, 7, 6, 4,10,237357.535085481, 7,11,12,10
513,0.0,0.0, 7, 6, 1,10,0.0, 7, 6, 1,10
562,69413213.77714866,0.0, 7, 6, 1,10,154553.64600563253, 7, 9,13,60
997,0.0,0.0, 7, 6, 1,10,0.0, 7, 6, 1,10
1047,679953598.7586627,0.0, 7, 6, 1,10,1679585.914547626, 7,12,15,60
1085,0.0,0.0, 7, 6, 1,10,0.0, 7, 6, 1,10
1,ANNUAL,  33.57, -86.75,  -6.00, 192.00
5,365
989,3.333333333333332,0.0, 1, 1, 1,10,0.16666666666666666, 1, 1, 6,10
990,262.49999999999994,0.0, 1, 1, 1,10,0.16666666666666666, 5,10,16,20
581,0.2494486788144012,0.0, 3,19, 8,31,1.839198732207494, 2,11,14,55
582,2.9889957863461314,0.0, 1, 2, 1,60,26.261917371884838, 7, 4,14,51
583,3.0180744752364284,0.0, 3,19, 8,51,30.069235783159527, 2,11,14,55
1066,26236874041.672962,0.0, 1, 1,23, 2,5015727.39938107, 1, 6, 6,30
1079,7601062822.757504,0.0, 1, 1,23, 2,1517437.0040373572, 1, 6, 6,30
1104,231824898.9989176,0.0, 1, 1,14,10,133659.7537422958, 3, 6, 6,60
1105,848077102.9537299,0.0, 1, 1, 6, 3,120000.0, 1, 2,13,60
1107,667892427.6510632,0.0, 1, 1, 1, 5,3138719.4439865137, 2, 4, 6,30
13,48473251763.54352,101135.4183601288, 3,20, 4,10,5789994.661987506, 2, 4, 6,10
61,15743207428.39043,58759.40635443481, 1, 1, 1,10,854682.2742463244, 1, 1,20,10
134,3685071073.433083,42376.01200569399, 1, 2, 4,10,104369.48322671017, 1, 1,20,10
170,273393721.45534325,232.27731661587313, 1, 2, 4,10,11650.931360040839, 1, 1,12,10
207,339560869.06955314,543.5021409221355, 1, 2, 3,10,15327.095199349082, 1, 1,10,10
244,664895467.8009839,1014.5707620042115, 1, 2, 4,10,35359.08742820678, 1, 1,20,10
281,2407221015.1057043,39959.06841621388, 1, 1, 5,10,54634.54471212738, 1, 1,19,10
318,0.0,0.0, 1, 1, 1,10,0.0, 1, 1, 1,10
355,10310294493.052883,12374.216038804521, 1, 2, 4,10,483183.26346918393, 1, 1,18,10
403,10310294493.052883,12374.216038804521, 1, 2, 4,10,483183.26346918393, 1, 1,18,10
476,5569688622.065564,4732.048419519677, 1, 2, 4,10,237357.535085481, 1, 1,12,10
513,0.0,0.0, 1, 1, 1,10,0.0, 1, 1, 1,10
562,2659588399.676535,0.0, 1, 2,13,60,154553.64600563256, 7, 3,17,10
997,0.0,0.0, 1, 1, 1,10,0.0, 1, 1, 1,10
1047,17036527609.688396,0.0, 1, 1, 1,10,1721503.546757368, 8, 4,15,60
1085,9348857252.361124,0.0, 1, 3,15,60,5222123.6966055, 2, 4, 6,10
End of Data
 Number of Records Written=          78
