Program Version,EnergyPlus, Version 22.2.0-c249759bad, YMD=2023.09.01 15:50
1,5,Environment Title[],Latitude[deg],Longitude[deg],Time Zone[],Elevation[m]
2,8,Day of Simulation[],Month[],Day of Month[],DST Indicator[1=yes 0=no],Hour[],StartMinute[],EndMinute[],DayType
3,5,Cumulative Day of Simulation[],Month[],Day of Month[],DST Indicator[1=yes 0=no],DayType  ! When Daily Report Variables Requested
4,2,Cumulative Days of Simulation[],Month[]  ! When Monthly Report Variables Requested
5,1,Cumulative Days of Simulation[] ! When Run Period Report Variables Requested
6,1,Calendar Year of Simulation[] ! When Annual Report Variables Requested
581,11,LIVING,AFN Zone Infiltration Air Change Rate [ach] !RunPeriod [Value,Min,Month,Day,Hour,Minute,Max,Month,Day,Hour,Minute]
582,11,ATTIC,AFN Zone Infiltration Air Change Rate [ach] !RunPeriod [Value,Min,Month,Day,Hour,Minute,Max,Month,Day,Hour,Minute]
583,11,CRAWLSPACE,AFN Zone Infiltration Air Change Rate [ach] !RunPeriod [Value,Min,Month,Day,Hour,Minute,Max,Month,Day,Hour,Minute]
1038,11,Facility,Facility Heating Setpoint Not Met Time [hr] !RunPeriod [Value,Min,Month,Day,Hour,Minute,Max,Month,Day,Hour,Minute]
1039,11,Facility,Facility Cooling Setpoint Not Met Time [hr] !RunPeriod [Value,Min,Month,Day,Hour,Minute,Max,Month,Day,Hour,Minute]
1115,11,DX_HEATING_COIL,Heating Coil Heating Energy [J] !RunPeriod [Value,Min,Month,Day,Hour,Minute,Max,Month,Day,Hour,Minute]
1128,11,DX_HEATING_COIL,Heating Coil Electricity Energy [J] !RunPeriod [Value,Min,Month,Day,Hour,Minute,Max,Month,Day,Hour,Minute]
1153,11,DX_HEATING_COIL,Heating Coil Defrost Electricity Energy [J] !RunPeriod [Value,Min,Month,Day,Hour,Minute,Max,Month,Day,Hour,Minute]
1154,11,DX_HEATING_COIL,Heating Coil Crankcase Heater Electricity Energy [J] !RunPeriod [Value,Min,Month,Day,Hour,Minute,Max,Month,Day,Hour,Minute]
1155,11,HEATING_RESISTANCE_BACKUP,Heating Coil Heating Energy [J] !RunPeriod [Value,Min,Month,Day,Hour,Minute,Max,Month,Day,Hour,Minute]
1156,11,HEATING_RESISTANCE_BACKUP,Heating Coil Electricity Energy [J] !RunPeriod [Value,Min,Month,Day,Hour,Minute,Max,Month,Day,Hour,Minute]
1292,11,WATER HEATER,Water Heater Heat Loss Energy [J] !RunPeriod [Value,Min,Month,Day,Hour,Minute,Max,Month,Day,Hour,Minute]
1306,11,WATER HEATER,Water Heater Heating Energy [J] !RunPeriod [Value,Min,Month,Day,Hour,Minute,Max,Month,Day,Hour,Minute]
1307,11,WATER HEATER,Water Heater Unmet Demand Heat Transfer Energy [J] !RunPeriod [Value,Min,Month,Day,Hour,Minute,Max,Month,Day,Hour,Minute]
1308,11,WATER HEATER,Water Heater Electricity Energy [J] !RunPeriod [Value,Min,Month,Day,Hour,Minute,Max,Month,Day,Hour,Minute]
13,11,Electricity:Facility [J] !RunPeriod [Value,Min,Month,Day,Hour,Minute,Max,Month,Day,Hour,Minute]
1134,11,Heating:Electricity [J] !RunPeriod [Value,Min,Month,Day,Hour,Minute,Max,Month,Day,Hour,Minute]
1096,11,Cooling:Electricity [J] !RunPeriod [Value,Min,Month,Day,Hour,Minute,Max,Month,Day,Hour,Minute]
562,11,Fans:Electricity [J] !RunPeriod [Value,Min,Month,Day,Hour,Minute,Max,Month,Day,Hour,Minute]
1379,11,Pumps:Electricity [J] !RunPeriod [Value,Min,Month,Day,Hour,Minute,Max,Month,Day,Hour,Minute]
1326,11,WaterSystems:Electricity [J] !RunPeriod [Value,Min,Month,Day,Hour,Minute,Max,Month,Day,Hour,Minute]
61,11,InteriorLights:Electricity [J] !RunPeriod [Value,Min,Month,Day,Hour,Minute,Max,Month,Day,Hour,Minute]
1046,11,ExteriorLights:Electricity [J] !RunPeriod [Value,Min,Month,Day,Hour,Minute,Max,Month,Day,Hour,Minute]
134,11,InteriorEquipment:Electricity [J] !RunPeriod [Value,Min,Month,Day,Hour,Minute,Max,Month,Day,Hour,Minute]
170,11,gas_dryer:InteriorEquipment:Electricity [J] !RunPeriod [Value,Min,Month,Day,Hour,Minute,Max,Month,Day,Hour,Minute]
207,11,clotheswasher:InteriorEquipment:Electricity [J] !RunPeriod [Value,Min,Month,Day,Hour,Minute,Max,Month,Day,Hour,Minute]
244,11,dishwasher:InteriorEquipment:Electricity [J] !RunPeriod [Value,Min,Month,Day,Hour,Minute,Max,Month,Day,Hour,Minute]
281,11,refrigerator:InteriorEquipment:Electricity [J] !RunPeriod [Value,Min,Month,Day,Hour,Minute,Max,Month,Day,Hour,Minute]
318,11,electric_mels:InteriorEquipment:Electricity [J] !RunPeriod [Value,Min,Month,Day,Hour,Minute,Max,Month,Day,Hour,Minute]
355,11,NaturalGas:Facility [J] !RunPeriod [Value,Min,Month,Day,Hour,Minute,Max,Month,Day,Hour,Minute]
403,11,InteriorEquipment:NaturalGas [J] !RunPeriod [Value,Min,Month,Day,Hour,Minute,Max,Month,Day,Hour,Minute]
476,11,gas_dryer:InteriorEquipment:NaturalGas [J] !RunPeriod [Value,Min,Month,Day,Hour,Minute,Max,Month,Day,Hour,Minute]
513,11,gas_mels:InteriorEquipment:NaturalGas [J] !RunPeriod [Value,Min,Month,Day,Hour,Minute,Max,Month,Day,Hour,Minute]
End of Data Dictionary
1,EXTREME_WINTER,  41.80, -78.63,  -5.00, 652.90
5,7
1038,5.25,0.0,12,15, 1,15,0.25,12,16, 6,15
1039,0.0,0.0,12,15, 1,15,0.0,12,15, 1,15
581,0.4110538153300439,0.14844861899499392,12,19, 3,60,0.7929508916504643,12,16, 9,60
582,4.806686489234834,0.08630680617580909,12,21, 4,60,15.663892854968383,12,16, 9,60
583,0.05582017972643879,0.0005120034809218237,12,20,23, 5,0.0715663887138492,12,16, 9,60
1115,1700593354.1388836,0.0,12,15,23, 5,3355214.8858403414,12,21,24,30
1128,610627635.0815147,0.0,12,15,23, 5,1069110.515862723,12,21,22,60
1153,15443297.606041046,0.0,12,15,23, 5,108942.7959016907,12,18,16,15
1154,10135115.699569087,0.0,12,15, 1, 7,168977.74929139763,12,15,16,15
1155,1295537323.3794787,0.0,12,15,12,22,5573790.422556093,12,16, 7,15
1156,1295537323.3794787,0.0,12,15,12,22,5573790.422556093,12,16, 7,15
1292,-25423666.320992775,-39783.12117796248,12,21, 5,60,-7348.402722421911,12,21,12,45
1306,243597088.70524716,0.0,12,15, 1, 7,9762816.041067922,12,21,19,60
1307,7039115.820797673,0.0,12,15, 1, 7,6136441.659449777,12,21,19,60
1308,243597088.70524716,0.0,12,15, 1, 7,9762816.041067922,12,21,19,60
13,2616962419.3524675,379717.73777812324,12,19, 3,60,15215488.002908466,12,17, 7,60
61,301924526.02383536,88139.10953165221,12,15, 1,15,1282023.4113694867,12,15,20,15
134,70666020.44019976,63564.01800854099,12,15, 4,15,156554.22484006523,12,20,20,15
170,5241013.419656067,348.4159749238097,12,15, 4,15,17476.39704006126,12,20,12,15
207,6509451.13922267,815.2532113832032,12,15, 3,15,22990.642799023623,12,20,10,15
244,12749673.399825225,1521.856143006317,12,15, 4,15,53038.631142310165,12,20,20,15
281,46165882.481495745,59938.60262432081,12,15, 5,15,81951.81706819107,12,15,19,15
318,0.0,0.0,12,15, 1,15,0.0,12,15, 1,15
355,197687796.27748066,18561.32405820678,12,15, 4,15,724774.895203776,12,20,18,15
403,197687796.27748066,18561.32405820678,12,15, 4,15,724774.895203776,12,20,18,15
476,106772067.24485716,7098.072629279515,12,15, 4,15,356036.3026282215,12,20,12,15
513,0.0,0.0,12,15, 1,15,0.0,12,15, 1,15
562,69031412.41658303,0.0,12,18,23,15,115788.60700090315,12,15, 1,15
1046,0.0,0.0,12,15, 1,15,0.0,12,15, 1,15
1096,0.0,0.0,12,15, 1,15,0.0,12,15, 1,15
1134,1931743371.7666023,0.0,12,18,23,15,6597911.331496636,12,16, 6,60
1326,243597088.70524713,0.0,12,15, 1,15,10408713.23177174,12,21, 9,45
1379,0.0,0.0,12,15, 1,15,0.0,12,15, 1,15
1,EXTREME_SUMMER,  41.80, -78.63,  -5.00, 652.90
5,7
1038,0.0,0.0, 6,29, 1,15,0.0, 6,29, 1,15
1039,14.75,0.0, 6,29, 1,15,0.25, 7, 1,14,15
581,0.09754287151315569,0.0, 7, 1, 5,15,0.42158619207680964, 6,30,17,48
582,1.7941624348471237,0.0, 6,29,22,15,10.53369099189211, 6,30,17,46
583,0.02318736411814765,0.0, 7, 2,23, 5,0.05575436898834764, 7, 2,18,17
1115,0.0,0.0, 6,29, 1,15,0.0, 6,29, 1,15
1128,0.0,0.0, 6,29, 1,15,0.0, 6,29, 1,15
1153,0.0,0.0, 6,29, 1,15,0.0, 6,29, 1,15
1154,0.0,0.0, 6,29, 1,15,0.0, 6,29, 1,15
1155,0.0,0.0, 6,29, 1,15,0.0, 6,29, 1,15
1156,0.0,0.0, 6,29, 1,15,0.0, 6,29, 1,15
1292,-22135640.250147678,-34340.98777652601, 6,29,14,15,-3100.0377861165625, 7, 1, 9,14
1306,208753364.86539403,0.0, 6,29, 1,15,6922545.002443644, 6,29, 7,45
1307,3888831.290285011,0.0, 6,29, 1,15,1029302.198997448, 7, 5,19,52
1308,208753364.86539403,0.0, 6,29, 1,15,6922545.002443644, 6,29, 7,45
13,902083956.3095727,151703.1275401932, 6,29, 4,15,12065973.447253872, 7, 5,19,60
61,301924526.02383536,88139.10953165221, 6,29, 1,15,1282023.4113694867, 6,29,20,15
134,70666020.44019976,63564.01800854099, 6,29, 4,15,156554.22484006523, 7, 4,20,15
170,5241013.419656067,348.4159749238097, 6,29, 4,15,17476.39704006126, 7, 4,12,15
207,6509451.13922267,815.2532113832032, 6,29, 3,15,22990.642799023623, 7, 4,10,15
244,12749673.399825225,1521.856143006317, 6,29, 4,15,53038.631142310165, 7, 4,20,15
281,46165882.481495745,59938.60262432081, 6,29, 5,15,81951.81706819107, 6,29,19,15
318,0.0,0.0, 6,29, 1,15,0.0, 6,29, 1,15
355,197687796.27748066,18561.32405820678, 6,29, 4,15,724774.895203776, 7, 4,18,15
403,197687796.27748066,18561.32405820678, 6,29, 4,15,724774.895203776, 7, 4,18,15
476,106772067.24485716,7098.072629279515, 6,29, 4,15,356036.3026282215, 7, 4,12,15
513,0.0,0.0, 6,29, 1,15,0.0, 6,29, 1,15
562,33253693.126144312,0.0, 6,29, 1,15,115788.60700090315, 7, 1,13,30
1046,0.0,0.0, 6,29, 1,15,0.0, 6,29, 1,15
1096,287486351.8539998,0.0, 6,29, 1,15,1122629.8286213735, 7, 1,16,60
1134,0.0,0.0, 6,29, 1,15,0.0, 6,29, 1,15
1326,208753364.865394,0.0, 6,29, 1,15,9956417.48381032, 7, 5,19,60
1379,0.0,0.0, 6,29, 1,15,0.0, 6,29, 1,15
1,ANNUAL,  41.80, -78.63,  -5.00, 652.90
5,365
1038,71.75,0.0, 1, 1, 1,15,0.25, 1, 5, 6,15
1039,223.25,0.0, 1, 1, 1,15,0.25, 4,19,14,60
581,0.2635072101005582,0.0, 6,23, 6, 7,1.1120212966157261,10,30,23,60
582,3.6572019506390276,0.0, 1, 6, 6,60,21.79090157012817, 5, 8,16,52
583,0.028073123040241527,0.0, 7, 2,23, 3,0.07938059384358113,10,30,19,60
1115,35050005141.04073,0.0, 1, 1,23, 5,4039216.7688477,11,21, 6,60
1128,11461397461.431602,0.0, 1, 1,23, 5,1170005.8547856999,11,21, 7,15
1153,451005139.00133264,0.0, 1, 1,23, 5,130804.2405866471, 3, 2, 7,45
1154,1455009784.2310748,0.0, 1, 1, 1,15,180000.0, 1, 6,14,45
1155,13283001005.931728,0.0, 1, 1, 6,10,5573790.422556093, 1, 5, 5,60
1156,13283001005.931728,0.0, 1, 1, 6,10,5573790.422556093, 1, 5, 5,60
1292,-1246977139.5334957,-42197.81752459372, 3, 6, 7,60,-2297.423259650753, 7,16, 9,31
1306,11975937534.83948,0.0, 1, 1, 1,15,10540800.0,11, 5,19,60
1307,308354520.81974953,0.0, 1, 1, 1,15,7236803.6294581685, 2,19,19,60
1308,11975937534.83948,0.0, 1, 1, 1,15,10540800.0,11, 5,19,60
13,64769679634.258446,151703.1275401932, 3,14, 4,15,17442896.596111752,12,17, 9,45
61,15743207428.383959,88139.10953165221, 1, 1, 1,15,1282023.4113694867, 1, 1,20,15
134,3685071073.4325233,63564.01800854099, 1, 2, 4,15,156554.22484006523, 1, 1,20,15
170,273393721.45532674,348.4159749238097, 1, 2, 4,15,17476.39704006126, 1, 1,12,15
207,339560869.0695816,815.2532113832032, 1, 2, 3,15,22990.642799023623, 1, 1,10,15
244,664895467.8009144,1521.856143006317, 1, 2, 4,15,53038.631142310165, 1, 1,20,15
281,2407221015.106824,59938.60262432081, 1, 1, 5,15,81951.81706819107, 1, 1,19,15
318,0.0,0.0, 1, 1, 1,15,0.0, 1, 1, 1,15
355,10310294493.051695,18561.32405820678, 1, 2, 4,15,724774.895203776, 1, 1,18,15
403,10310294493.051695,18561.32405820678, 1, 2, 4,15,724774.895203776, 1, 1,18,15
476,5569688622.066177,7098.072629279515, 1, 2, 4,15,356036.3026282215, 1, 1,12,15
513,0.0,0.0, 1, 1, 1,15,0.0, 1, 1, 1,15
562,1866976911.3693147,0.0, 1, 5,15,60,115788.60700090315, 1, 1, 1,15
1046,0.0,0.0, 1, 1, 1,15,0.0, 1, 1, 1,15
1096,4848073295.636032,0.0, 1, 1, 1,15,1127186.4751893952, 7, 1,16,60
1134,26650413390.595695,0.0, 1,31,19,15,6592474.698000945,12,18, 6,15
1326,11975937534.839483,0.0, 1, 1, 1,15,10540800.0, 5,28,19,60
1379,0.0,0.0, 1, 1, 1,15,0.0, 1, 1, 1,15
End of Data
 Number of Records Written=          99
