Program Version,EnergyPlus, Version 22.2.0-c249759bad, YMD=2023.09.01 20:41
1,5,Environment Title[],Latitude[deg],Longitude[deg],Time Zone[],Elevation[m]
2,8,Day of Simulation[],Month[],Day of Month[],DST Indicator[1=yes 0=no],Hour[],StartMinute[],EndMinute[],DayType
3,5,Cumulative Day of Simulation[],Month[],Day of Month[],DST Indicator[1=yes 0=no],DayType  ! When Daily Report Variables Requested
4,2,Cumulative Days of Simulation[],Month[]  ! When Monthly Report Variables Requested
5,1,Cumulative Days of Simulation[] ! When Run Period Report Variables Requested
6,1,Calendar Year of Simulation[] ! When Annual Report Variables Requested
581,11,LIVING,AFN Zone Infiltration Air Change Rate [ach] !RunPeriod [Value,Min,Month,Day,Hour,Minute,Max,Month,Day,Hour,Minute]
582,11,ATTIC,AFN Zone Infiltration Air Change Rate [ach] !RunPeriod [Value,Min,Month,Day,Hour,Minute,Max,Month,Day,Hour,Minute]
583,11,CRAWLSPACE,AFN Zone Infiltration Air Change Rate [ach] !RunPeriod [Value,Min,Month,Day,Hour,Minute,Max,Month,Day,Hour,Minute]
1038,11,Facility,Facility Heating Setpoint Not Met Time [hr] !RunPeriod [Value,Min,Month,Day,Hour,Minute,Max,Month,Day,Hour,Minute]
1039,11,Facility,Facility Cooling Setpoint Not Met Time [hr] !RunPeriod [Value,Min,Month,Day,Hour,Minute,Max,Month,Day,Hour,Minute]
1115,11,DX_HEATING_COIL,Heating Coil Heating Energy [J] !RunPeriod [Value,Min,Month,Day,Hour,Minute,Max,Month,Day,Hour,Minute]
1128,11,DX_HEATING_COIL,Heating Coil Electricity Energy [J] !RunPeriod [Value,Min,Month,Day,Hour,Minute,Max,Month,Day,Hour,Minute]
1153,11,DX_HEATING_COIL,Heating Coil Defrost Electricity Energy [J] !RunPeriod [Value,Min,Month,Day,Hour,Minute,Max,Month,Day,Hour,Minute]
1154,11,DX_HEATING_COIL,Heating Coil Crankcase Heater Electricity Energy [J] !RunPeriod [Value,Min,Month,Day,Hour,Minute,Max,Month,Day,Hour,Minute]
1155,11,HEATING_RESISTANCE_BACKUP,Heating Coil Heating Energy [J] !RunPeriod [Value,Min,Month,Day,Hour,Minute,Max,Month,Day,Hour,Minute]
1156,11,HEATING_RESISTANCE_BACKUP,Heating Coil Electricity Energy [J] !RunPeriod [Value,Min,Month,Day,Hour,Minute,Max,Month,Day,Hour,Minute]
1292,11,WATER HEATER,Water Heater Heat Loss Energy [J] !RunPeriod [Value,Min,Month,Day,Hour,Minute,Max,Month,Day,Hour,Minute]
1306,11,WATER HEATER,Water Heater Heating Energy [J] !RunPeriod [Value,Min,Month,Day,Hour,Minute,Max,Month,Day,Hour,Minute]
1307,11,WATER HEATER,Water Heater Unmet Demand Heat Transfer Energy [J] !RunPeriod [Value,Min,Month,Day,Hour,Minute,Max,Month,Day,Hour,Minute]
1308,11,WATER HEATER,Water Heater Electricity Energy [J] !RunPeriod [Value,Min,Month,Day,Hour,Minute,Max,Month,Day,Hour,Minute]
13,11,Electricity:Facility [J] !RunPeriod [Value,Min,Month,Day,Hour,Minute,Max,Month,Day,Hour,Minute]
1134,11,Heating:Electricity [J] !RunPeriod [Value,Min,Month,Day,Hour,Minute,Max,Month,Day,Hour,Minute]
1096,11,Cooling:Electricity [J] !RunPeriod [Value,Min,Month,Day,Hour,Minute,Max,Month,Day,Hour,Minute]
562,11,Fans:Electricity [J] !RunPeriod [Value,Min,Month,Day,Hour,Minute,Max,Month,Day,Hour,Minute]
1379,11,Pumps:Electricity [J] !RunPeriod [Value,Min,Month,Day,Hour,Minute,Max,Month,Day,Hour,Minute]
1326,11,WaterSystems:Electricity [J] !RunPeriod [Value,Min,Month,Day,Hour,Minute,Max,Month,Day,Hour,Minute]
61,11,InteriorLights:Electricity [J] !RunPeriod [Value,Min,Month,Day,Hour,Minute,Max,Month,Day,Hour,Minute]
1046,11,ExteriorLights:Electricity [J] !RunPeriod [Value,Min,Month,Day,Hour,Minute,Max,Month,Day,Hour,Minute]
134,11,InteriorEquipment:Electricity [J] !RunPeriod [Value,Min,Month,Day,Hour,Minute,Max,Month,Day,Hour,Minute]
170,11,gas_dryer:InteriorEquipment:Electricity [J] !RunPeriod [Value,Min,Month,Day,Hour,Minute,Max,Month,Day,Hour,Minute]
207,11,clotheswasher:InteriorEquipment:Electricity [J] !RunPeriod [Value,Min,Month,Day,Hour,Minute,Max,Month,Day,Hour,Minute]
244,11,dishwasher:InteriorEquipment:Electricity [J] !RunPeriod [Value,Min,Month,Day,Hour,Minute,Max,Month,Day,Hour,Minute]
281,11,refrigerator:InteriorEquipment:Electricity [J] !RunPeriod [Value,Min,Month,Day,Hour,Minute,Max,Month,Day,Hour,Minute]
318,11,electric_mels:InteriorEquipment:Electricity [J] !RunPeriod [Value,Min,Month,Day,Hour,Minute,Max,Month,Day,Hour,Minute]
355,11,NaturalGas:Facility [J] !RunPeriod [Value,Min,Month,Day,Hour,Minute,Max,Month,Day,Hour,Minute]
403,11,InteriorEquipment:NaturalGas [J] !RunPeriod [Value,Min,Month,Day,Hour,Minute,Max,Month,Day,Hour,Minute]
476,11,gas_dryer:InteriorEquipment:NaturalGas [J] !RunPeriod [Value,Min,Month,Day,Hour,Minute,Max,Month,Day,Hour,Minute]
513,11,gas_mels:InteriorEquipment:NaturalGas [J] !RunPeriod [Value,Min,Month,Day,Hour,Minute,Max,Month,Day,Hour,Minute]
End of Data Dictionary
1,EXTREME_WINTER,  41.17, -73.13,  -5.00,   5.00
5,7
1038,1.0,0.0, 1, 8, 1,15,0.25, 1, 9, 6,15
1039,0.0,0.0, 1, 8, 1,15,0.0, 1, 8, 1,15
581,0.35820074353082465,0.1942467864238112, 1,14,23,45,0.6476837192305497, 1,12,20,60
582,3.3445024260908798,0.0, 1, 8, 1,60,11.010888973617373, 1,12,19,52
583,0.04504175885989573,0.00032987118281003634, 1,14,20,10,0.06684229837908172, 1,12,22,60
1115,1627301618.9069643,0.0, 1, 8,23, 3,3732390.1316227876, 1,12, 4,45
1128,544230021.4707572,0.0, 1, 8,23, 3,1163981.5771122938, 1,13,12,60
1153,5070443.79185273,0.0, 1, 8,23, 3,63905.82159245737, 1, 8, 8,60
1154,33770699.17080282,0.0, 1, 8, 6, 5,180000.0, 1,12,16,15
1155,417487962.7183471,0.0, 1, 8, 1, 7,3768443.466884886, 1,10, 6,60
1156,417487962.7183471,0.0, 1, 8, 1, 7,3768443.466884886, 1,10, 6,60
1292,-25246249.814039297,-39750.79544564611, 1,12,24,45,-4164.632825789715, 1,14,10,33
1306,265215745.2049561,0.0, 1, 8, 1, 7,4050000.0, 1, 8, 8,45
1307,88499502.33191901,0.0, 1, 8, 1, 7,14054106.464359082, 1, 8, 8,30
1308,265215745.2049561,0.0, 1, 8, 1, 7,4050000.0, 1, 8, 8,45
13,1694748628.577044,458150.8545527997, 1,14,15,15,9361857.039603047, 1,10, 8,15
61,301924526.02383536,88139.10953165221, 1, 8, 1,15,1282023.4113694867, 1, 8,20,15
134,70666020.44019976,63564.01800854099, 1, 8, 4,15,156554.22484006523, 1,13,20,15
170,5241013.419656067,348.4159749238097, 1, 8, 4,15,17476.39704006126, 1,13,12,15
207,6509451.13922267,815.2532113832032, 1, 8, 3,15,22990.642799023623, 1,13,10,15
244,12749673.399825225,1521.856143006317, 1, 8, 4,15,53038.631142310165, 1,13,20,15
281,46165882.481495745,59938.60262432081, 1, 8, 5,15,81951.81706819107, 1, 8,19,15
318,0.0,0.0, 1, 8, 1,15,0.0, 1, 8, 1,15
355,197687796.27748066,18561.32405820678, 1, 8, 4,15,724774.895203776, 1,13,18,15
403,197687796.27748066,18561.32405820678, 1, 8, 4,15,724774.895203776, 1,13,18,15
476,106772067.24485716,7098.072629279515, 1, 8, 4,15,356036.3026282215, 1,13,12,15
513,0.0,0.0, 1, 8, 1,15,0.0, 1, 8, 1,15
562,56383209.75629291,0.0, 1,12,16,15,116490.71390580814, 1,10,10,30
1046,0.0,0.0, 1, 8, 1,15,0.0, 1, 8, 1,15
1096,0.0,0.0, 1, 8, 1,15,0.0, 1, 8, 1,15
1134,1000559127.1517595,180000.0, 1,12,16,15,5347561.573559567, 1,10, 6,15
1326,265215745.2049562,0.0, 1, 8, 1,15,4050000.0, 1, 8, 8,45
1379,0.0,0.0, 1, 8, 1,15,0.0, 1, 8, 1,15
1,EXTREME_SUMMER,  41.17, -73.13,  -5.00,   5.00
5,7
1038,0.0,0.0, 8, 5, 1,15,0.0, 8, 5, 1,15
1039,40.0,0.0, 8, 5, 1,15,0.25, 8, 5,13,30
581,0.14227994876025662,0.0, 8, 5, 4, 7,0.4383677046240086, 8, 6,18,52
582,3.1641776209490833,0.02513114728195555, 8, 6,23,11,12.11922892071852, 8, 5,16,50
583,0.034972237776307605,0.0, 8,10,23, 3,0.06151536617689119, 8, 6,18,48
1115,0.0,0.0, 8, 5, 1,15,0.0, 8, 5, 1,15
1128,0.0,0.0, 8, 5, 1,15,0.0, 8, 5, 1,15
1153,0.0,0.0, 8, 5, 1,15,0.0, 8, 5, 1,15
1154,0.0,0.0, 8, 5, 1,15,0.0, 8, 5, 1,15
1155,0.0,0.0, 8, 5, 1,15,0.0, 8, 5, 1,15
1156,0.0,0.0, 8, 5, 1,15,0.0, 8, 5, 1,15
1292,-21902523.72258739,-34335.53818506268, 8,10, 6,30,-3415.469470687072, 8, 5, 9,59
1306,196930665.93550465,0.0, 8, 5, 1,15,4050000.0, 8, 8, 6,60
1307,47637371.97153746,0.0, 8, 5, 1,15,2729158.1480499213, 8,10, 9,30
1308,196930665.93550465,0.0, 8, 5, 1,15,4050000.0, 8, 8, 6,60
13,1068829564.922567,158578.5491656248, 8, 7, 4,60,6095434.438204332, 8, 5,18,30
61,301924526.02383536,88139.10953165221, 8, 5, 1,15,1282023.4113694867, 8, 5,20,15
134,70666020.44019976,63564.01800854099, 8, 5, 4,15,156554.22484006523, 8,10,20,15
170,5241013.419656067,348.4159749238097, 8, 5, 4,15,17476.39704006126, 8,10,12,15
207,6509451.13922267,815.2532113832032, 8, 5, 3,15,22990.642799023623, 8,10,10,15
244,12749673.399825225,1521.856143006317, 8, 5, 4,15,53038.631142310165, 8,10,20,15
281,46165882.481495745,59938.60262432081, 8, 5, 5,15,81951.81706819107, 8, 5,19,15
318,0.0,0.0, 8, 5, 1,15,0.0, 8, 5, 1,15
355,197687796.27748066,18561.32405820678, 8, 5, 4,15,724774.895203776, 8,10,18,15
403,197687796.27748066,18561.32405820678, 8, 5, 4,15,724774.895203776, 8,10,18,15
476,106772067.24485716,7098.072629279515, 8, 5, 4,15,356036.3026282215, 8,10,12,15
513,0.0,0.0, 8, 5, 1,15,0.0, 8, 5, 1,15
562,48050135.31299011,0.0, 8, 7, 6,30,116490.71390580814, 8, 7,18,30
1046,0.0,0.0, 8, 5, 1,15,0.0, 8, 5, 1,15
1096,451258217.2100372,0.0, 8, 7, 6,30,1265258.4605076434, 8, 5,15,60
1134,0.0,0.0, 8, 5, 1,15,0.0, 8, 5, 1,15
1326,196930665.9355046,0.0, 8, 5, 1,15,4050000.0, 8, 5, 8,45
1379,0.0,0.0, 8, 5, 1,15,0.0, 8, 5, 1,15
1,ANNUAL,  41.17, -73.13,  -5.00,   5.00
5,365
1038,35.5,0.0, 1, 1, 1,15,0.25, 1, 3, 6,15
1039,414.0,0.0, 1, 1, 1,15,0.25, 3,19,15,45
581,0.2635423941368183,0.0, 6, 8,21,50,1.1532935178310633, 2,12,10,60
582,4.544430878015086,0.0, 1, 1, 6, 5,29.922179457593664, 2,12,10,60
583,0.024201515657825412,0.0, 6,25,23, 3,0.07450901305803992, 6, 9,17,47
1115,21590168831.90776,0.0, 1, 1,23, 7,4067707.2542209234,12,10, 6,60
1128,6712372337.72375,0.0, 1, 1,23, 7,1208975.533056115,12,10, 6,45
1153,164941911.03050312,0.0, 1, 1,23, 7,117487.69228498312, 2,19, 6,60
1154,1669701691.1938457,0.0, 1, 1, 6, 5,180000.0, 1, 6,15,30
1155,3078502335.605611,0.0, 1, 1, 1,15,4284892.5839599725, 1, 3, 6,15
1156,3078502335.605611,0.0, 1, 1, 1,15,4284892.5839599725, 1, 3, 6,15
1292,-1222158121.209536,-39839.25874870106, 1,18, 4,60,-2127.0830728427245, 4,17, 8,31
1306,12204758898.235708,0.0, 1, 1, 1,15,4050000.0, 1, 1,10,30
1307,3600991065.280557,0.0, 1, 1, 1,15,14462855.612915233, 2, 6, 8,30
1308,12204758898.235708,0.0, 1, 1, 1,15,4050000.0, 1, 1,10,30
13,52461604823.36362,151703.1275401932, 4,12, 4,15,10264792.391434971, 1, 3, 7,30
61,15743207428.383959,88139.10953165221, 1, 1, 1,15,1282023.4113694867, 1, 1,20,15
134,3685071073.4325233,63564.01800854099, 1, 2, 4,15,156554.22484006523, 1, 1,20,15
170,273393721.45532674,348.4159749238097, 1, 2, 4,15,17476.39704006126, 1, 1,12,15
207,339560869.0695816,815.2532113832032, 1, 2, 3,15,22990.642799023623, 1, 1,10,15
244,664895467.8009144,1521.856143006317, 1, 2, 4,15,53038.631142310165, 1, 1,20,15
281,2407221015.106824,59938.60262432081, 1, 1, 5,15,81951.81706819107, 1, 1,19,15
318,0.0,0.0, 1, 1, 1,15,0.0, 1, 1, 1,15
355,10310294493.051695,18561.32405820678, 1, 2, 4,15,724774.895203776, 1, 1,18,15
403,10310294493.051695,18561.32405820678, 1, 2, 4,15,724774.895203776, 1, 1,18,15
476,5569688622.066177,7098.072629279515, 1, 2, 4,15,356036.3026282215, 1, 1,12,15
513,0.0,0.0, 1, 1, 1,15,0.0, 1, 1, 1,15
562,1556395237.8368518,0.0, 1, 1,23,15,116490.71390580814, 1,10,10,30
1046,0.0,0.0, 1, 1, 1,15,0.0, 1, 1, 1,15
1096,7646653909.918953,0.0, 1, 1, 1,15,1280955.3183670053, 8,31,15,60
1134,11625518275.55372,0.0, 2, 8,11,15,5402224.638186862, 1, 3, 7,30
1326,12204758898.2357,0.0, 1, 1, 1,15,4050000.0000000014, 4,17, 8,60
1379,0.0,0.0, 1, 1, 1,15,0.0, 1, 1, 1,15
End of Data
 Number of Records Written=          99
