Program Version,EnergyPlus, Version 22.2.0-c249759bad, YMD=2023.09.01 15:32
1,5,Environment Title[],Latitude[deg],Longitude[deg],Time Zone[],Elevation[m]
2,8,Day of Simulation[],Month[],Day of Month[],DST Indicator[1=yes 0=no],Hour[],StartMinute[],EndMinute[],DayType
3,5,Cumulative Day of Simulation[],Month[],Day of Month[],DST Indicator[1=yes 0=no],DayType  ! When Daily Report Variables Requested
4,2,Cumulative Days of Simulation[],Month[]  ! When Monthly Report Variables Requested
5,1,Cumulative Days of Simulation[] ! When Run Period Report Variables Requested
6,1,Calendar Year of Simulation[] ! When Annual Report Variables Requested
581,11,LIVING,AFN Zone Infiltration Air Change Rate [ach] !RunPeriod [Value,Min,Month,Day,Hour,Minute,Max,Month,Day,Hour,Minute]
582,11,ATTIC,AFN Zone Infiltration Air Change Rate [ach] !RunPeriod [Value,Min,Month,Day,Hour,Minute,Max,Month,Day,Hour,Minute]
583,11,CRAWLSPACE,AFN Zone Infiltration Air Change Rate [ach] !RunPeriod [Value,Min,Month,Day,Hour,Minute,Max,Month,Day,Hour,Minute]
1038,11,Facility,Facility Heating Setpoint Not Met Time [hr] !RunPeriod [Value,Min,Month,Day,Hour,Minute,Max,Month,Day,Hour,Minute]
1039,11,Facility,Facility Cooling Setpoint Not Met Time [hr] !RunPeriod [Value,Min,Month,Day,Hour,Minute,Max,Month,Day,Hour,Minute]
1115,11,DX_HEATING_COIL,Heating Coil Heating Energy [J] !RunPeriod [Value,Min,Month,Day,Hour,Minute,Max,Month,Day,Hour,Minute]
1128,11,DX_HEATING_COIL,Heating Coil Electricity Energy [J] !RunPeriod [Value,Min,Month,Day,Hour,Minute,Max,Month,Day,Hour,Minute]
1153,11,DX_HEATING_COIL,Heating Coil Defrost Electricity Energy [J] !RunPeriod [Value,Min,Month,Day,Hour,Minute,Max,Month,Day,Hour,Minute]
1154,11,DX_HEATING_COIL,Heating Coil Crankcase Heater Electricity Energy [J] !RunPeriod [Value,Min,Month,Day,Hour,Minute,Max,Month,Day,Hour,Minute]
1155,11,HEATING_RESISTANCE_BACKUP,Heating Coil Heating Energy [J] !RunPeriod [Value,Min,Month,Day,Hour,Minute,Max,Month,Day,Hour,Minute]
1156,11,HEATING_RESISTANCE_BACKUP,Heating Coil Electricity Energy [J] !RunPeriod [Value,Min,Month,Day,Hour,Minute,Max,Month,Day,Hour,Minute]
1292,11,WATER HEATER,Water Heater Heat Loss Energy [J] !RunPeriod [Value,Min,Month,Day,Hour,Minute,Max,Month,Day,Hour,Minute]
1306,11,WATER HEATER,Water Heater Heating Energy [J] !RunPeriod [Value,Min,Month,Day,Hour,Minute,Max,Month,Day,Hour,Minute]
1307,11,WATER HEATER,Water Heater Unmet Demand Heat Transfer Energy [J] !RunPeriod [Value,Min,Month,Day,Hour,Minute,Max,Month,Day,Hour,Minute]
1308,11,WATER HEATER,Water Heater Electricity Energy [J] !RunPeriod [Value,Min,Month,Day,Hour,Minute,Max,Month,Day,Hour,Minute]
13,11,Electricity:Facility [J] !RunPeriod [Value,Min,Month,Day,Hour,Minute,Max,Month,Day,Hour,Minute]
1134,11,Heating:Electricity [J] !RunPeriod [Value,Min,Month,Day,Hour,Minute,Max,Month,Day,Hour,Minute]
1096,11,Cooling:Electricity [J] !RunPeriod [Value,Min,Month,Day,Hour,Minute,Max,Month,Day,Hour,Minute]
562,11,Fans:Electricity [J] !RunPeriod [Value,Min,Month,Day,Hour,Minute,Max,Month,Day,Hour,Minute]
1379,11,Pumps:Electricity [J] !RunPeriod [Value,Min,Month,Day,Hour,Minute,Max,Month,Day,Hour,Minute]
1326,11,WaterSystems:Electricity [J] !RunPeriod [Value,Min,Month,Day,Hour,Minute,Max,Month,Day,Hour,Minute]
61,11,InteriorLights:Electricity [J] !RunPeriod [Value,Min,Month,Day,Hour,Minute,Max,Month,Day,Hour,Minute]
1046,11,ExteriorLights:Electricity [J] !RunPeriod [Value,Min,Month,Day,Hour,Minute,Max,Month,Day,Hour,Minute]
134,11,InteriorEquipment:Electricity [J] !RunPeriod [Value,Min,Month,Day,Hour,Minute,Max,Month,Day,Hour,Minute]
170,11,gas_dryer:InteriorEquipment:Electricity [J] !RunPeriod [Value,Min,Month,Day,Hour,Minute,Max,Month,Day,Hour,Minute]
207,11,clotheswasher:InteriorEquipment:Electricity [J] !RunPeriod [Value,Min,Month,Day,Hour,Minute,Max,Month,Day,Hour,Minute]
244,11,dishwasher:InteriorEquipment:Electricity [J] !RunPeriod [Value,Min,Month,Day,Hour,Minute,Max,Month,Day,Hour,Minute]
281,11,refrigerator:InteriorEquipment:Electricity [J] !RunPeriod [Value,Min,Month,Day,Hour,Minute,Max,Month,Day,Hour,Minute]
318,11,electric_mels:InteriorEquipment:Electricity [J] !RunPeriod [Value,Min,Month,Day,Hour,Minute,Max,Month,Day,Hour,Minute]
355,11,NaturalGas:Facility [J] !RunPeriod [Value,Min,Month,Day,Hour,Minute,Max,Month,Day,Hour,Minute]
403,11,InteriorEquipment:NaturalGas [J] !RunPeriod [Value,Min,Month,Day,Hour,Minute,Max,Month,Day,Hour,Minute]
476,11,gas_dryer:InteriorEquipment:NaturalGas [J] !RunPeriod [Value,Min,Month,Day,Hour,Minute,Max,Month,Day,Hour,Minute]
513,11,gas_mels:InteriorEquipment:NaturalGas [J] !RunPeriod [Value,Min,Month,Day,Hour,Minute,Max,Month,Day,Hour,Minute]
End of Data Dictionary
1,EXTREME_WINTER,  35.14,-111.67,  -7.00,2135.00
5,7
1038,2.0,0.0, 1, 6, 1,15,0.25, 1, 9, 6,15
1039,0.0,0.0, 1, 6, 1,15,0.0, 1, 6, 1,15
581,0.3497342104388893,0.22760408954790043, 1,12,18,60,0.7162746694107992, 1, 6,22,60
582,3.05348091508604,0.0, 1, 9, 1,60,12.4803443487246, 1, 6,22,60
583,0.04909274243540392,0.0004149435536575656, 1,12,20,60,0.07935348831989189, 1, 6,22,60
1115,1524516318.774548,0.0, 1, 6,23, 5,3762377.961641476, 1, 6, 6,45
1128,533583415.47712976,0.0, 1, 6,23, 5,1195058.376080461, 1, 8, 7,60
1153,32927609.301348984,0.0, 1, 6,23, 5,132182.6061815246, 1, 6, 6,60
1154,39288348.04661916,0.0, 1, 6, 6, 5,180000.0, 1, 9,13,60
1155,427203066.0331437,0.0, 1, 6, 1,15,5166762.535207559, 1,12, 6,15
1156,427203066.0331437,0.0, 1, 6, 1,15,5166762.535207559, 1,12, 6,15
1292,-25279346.926295888,-39787.39529514246, 1,12, 5,60,-3636.222738700633, 1,12,11,10
1306,245204625.41946343,0.0, 1, 6, 1,15,7941391.58371356, 1, 8, 7,60
1307,7209780.933205858,0.0, 1, 6, 1,15,1681285.159214509, 1,12,19,52
1308,245204625.41946343,0.0, 1, 6, 1,15,7941391.58371356, 1, 8, 7,60
13,1712548039.6978192,452017.0388981225, 1, 9,15,15,15004830.885534117, 1,12, 9,45
61,301924526.02383536,88139.10953165221, 1, 6, 1,15,1282023.4113694867, 1, 6,20,15
134,70666020.44019976,63564.01800854099, 1, 6, 4,15,156554.22484006523, 1,11,20,15
170,5241013.419656067,348.4159749238097, 1, 6, 4,15,17476.39704006126, 1,11,12,15
207,6509451.13922267,815.2532113832032, 1, 6, 3,15,22990.642799023623, 1,11,10,15
244,12749673.399825225,1521.856143006317, 1, 6, 4,15,53038.631142310165, 1,11,20,15
281,46165882.481495745,59938.60262432081, 1, 6, 5,15,81951.81706819107, 1, 6,19,15
318,0.0,0.0, 1, 6, 1,15,0.0, 1, 6, 1,15
355,197687796.27748066,18561.32405820678, 1, 6, 4,15,724774.895203776, 1,11,18,15
403,197687796.27748066,18561.32405820678, 1, 6, 4,15,724774.895203776, 1,11,18,15
476,106772067.24485716,7098.072629279515, 1, 6, 4,15,356036.3026282215, 1,11,12,15
513,0.0,0.0, 1, 6, 1,15,0.0, 1, 6, 1,15
562,61750428.956081174,0.0, 1, 9,13,60,137151.43415184855, 1, 9, 9,60
1046,0.0,0.0, 1, 6, 1,15,0.0, 1, 6, 1,15
1096,0.0,0.0, 1, 6, 1,15,0.0, 1, 6, 1,15
1134,1033002438.8582408,179999.99999999997, 1,11,13,60,6306317.121178649, 1,12, 7,60
1326,245204625.4194633,0.0, 1, 6, 1,15,10418035.657904569, 1,12, 9,45
1379,0.0,0.0, 1, 6, 1,15,0.0, 1, 6, 1,15
1,EXTREME_SUMMER,  35.14,-111.67,  -7.00,2135.00
5,7
1038,0.0,0.0, 7,20, 1,15,0.0, 7,20, 1,15
1039,0.0,0.0, 7,20, 1,15,0.0, 7,20, 1,15
581,0.12684911843891394,0.0012661716902706314, 7,22, 8, 1,0.4687031613724965, 7,25,14,60
582,2.2708400911781514,0.0, 7,20, 8,40,11.058828461833043, 7,25,13,48
583,0.025209071887336676,0.00008905999369873718, 7,24,23, 3,0.06361815015279403, 7,23,17,17
1115,0.0,0.0, 7,20, 1,15,0.0, 7,20, 1,15
1128,0.0,0.0, 7,20, 1,15,0.0, 7,20, 1,15
1153,0.0,0.0, 7,20, 1,15,0.0, 7,20, 1,15
1154,0.0,0.0, 7,20, 1,15,0.0, 7,20, 1,15
1155,0.0,0.0, 7,20, 1,15,0.0, 7,20, 1,15
1156,0.0,0.0, 7,20, 1,15,0.0, 7,20, 1,15
1292,-22208654.1140158,-35238.671569686914, 7,22, 6,60,-2548.9712934851855, 7,25, 8,59
1306,201681537.26048687,0.0, 7,20, 1,15,5956205.871641072, 7,24, 6,60
1307,3368318.7650087513,0.0, 7,20, 1,15,718767.7138345438, 7,26,19,51
1308,201681537.26048687,0.0, 7,20, 1,15,5956205.871641072, 7,24, 6,60
13,914568514.3676786,151703.1275401932, 7,20, 4,15,12007566.546304336, 7,26,19,60
61,301924526.02383536,88139.10953165221, 7,20, 1,15,1282023.4113694867, 7,20,20,15
134,70666020.44019976,63564.01800854099, 7,20, 4,15,156554.22484006523, 7,25,20,15
170,5241013.419656067,348.4159749238097, 7,20, 4,15,17476.39704006126, 7,25,12,15
207,6509451.13922267,815.2532113832032, 7,20, 3,15,22990.642799023623, 7,25,10,15
244,12749673.399825225,1521.856143006317, 7,20, 4,15,53038.631142310165, 7,25,20,15
281,46165882.481495745,59938.60262432081, 7,20, 5,15,81951.81706819107, 7,20,19,15
318,0.0,0.0, 7,20, 1,15,0.0, 7,20, 1,15
355,197687796.27748066,18561.32405820678, 7,20, 4,15,724774.895203776, 7,25,18,15
403,197687796.27748066,18561.32405820678, 7,20, 4,15,724774.895203776, 7,25,18,15
476,106772067.24485716,7098.072629279515, 7,20, 4,15,356036.3026282215, 7,25,12,15
513,0.0,0.0, 7,20, 1,15,0.0, 7,20, 1,15
562,35683928.44325606,0.0, 7,20, 1,60,136277.16102835987, 7,23,17,15
1046,0.0,0.0, 7,20, 1,15,0.0, 7,20, 1,15
1096,304612502.19990075,0.0, 7,20, 1,60,1288608.4910311508, 7,23,16,15
1134,0.0,0.0, 7,20, 1,15,0.0, 7,20, 1,15
1326,201681537.26048687,0.0, 7,20, 1,15,9880877.769645134, 7,26,19,60
1379,0.0,0.0, 7,20, 1,15,0.0, 7,20, 1,15
1,ANNUAL,  35.14,-111.67,  -7.00,2135.00
5,365
1038,8.5,0.0, 1, 1, 1,15,0.25, 1, 9, 6,15
1039,27.0,0.0, 1, 1, 1,15,0.25, 1,14,17,45
581,0.2753681218063392,0.0, 4,24, 8,46,1.3836845394951502, 4,12,10,52
582,3.7961477834340043,0.0, 1, 2, 2,60,27.775864573633335, 4,12,10,52
583,0.02384851851266171,0.0, 4,18, 9,12,0.09645276520398566,12,14,20,60
1115,23243682722.37439,0.0, 1, 1,13,48,4441577.975929183, 2,26, 6,60
1128,7697403468.309031,0.0, 1, 1,13,48,1345495.7650607505,12,11, 6,45
1153,373264663.2259779,0.0, 1, 1,13,48,143299.01510226348,12,26,22,60
1154,2319506982.5595546,0.0, 1, 1, 1,15,180000.0, 1, 1,15,15
1155,3215965186.584844,0.0, 1, 1, 9,50,5166762.535207559, 1,12, 6,15
1156,3215965186.584844,0.0, 1, 1, 9,50,5166762.535207559, 1,12, 6,15
1292,-1233930927.6434672,-39817.199264647665, 2,10, 2,30,-2139.139165236367, 6,22, 8,49
1306,11761322681.866425,0.0, 1, 1, 1,15,10527312.288184311,11, 5,19,60
1307,283936727.22881347,0.0, 1, 1, 1,15,6201997.27485244,12,24,19,60
1308,11761322681.866425,0.0, 1, 1, 1,15,10527312.288184311,11, 5,19,60
13,51544060036.47184,151703.1275401932, 5, 5, 4,15,15872584.579924252, 2, 5, 9,45
61,15743207428.383959,88139.10953165221, 1, 1, 1,15,1282023.4113694867, 1, 1,20,15
134,3685071073.4325233,63564.01800854099, 1, 2, 4,15,156554.22484006523, 1, 1,20,15
170,273393721.45532674,348.4159749238097, 1, 2, 4,15,17476.39704006126, 1, 1,12,15
207,339560869.0695816,815.2532113832032, 1, 2, 3,15,22990.642799023623, 1, 1,10,15
244,664895467.8009144,1521.856143006317, 1, 2, 4,15,53038.631142310165, 1, 1,20,15
281,2407221015.106824,59938.60262432081, 1, 1, 5,15,81951.81706819107, 1, 1,19,15
318,0.0,0.0, 1, 1, 1,15,0.0, 1, 1, 1,15
355,10310294493.051695,18561.32405820678, 1, 2, 4,15,724774.895203776, 1, 1,18,15
403,10310294493.051695,18561.32405820678, 1, 2, 4,15,724774.895203776, 1, 1,18,15
476,5569688622.066177,7098.072629279515, 1, 2, 4,15,356036.3026282215, 1, 1,12,15
513,0.0,0.0, 1, 1, 1,15,0.0, 1, 1, 1,15
562,1541399974.4066956,0.0, 1, 1,13,60,137151.43415184855, 1, 2, 9,60
1046,0.0,0.0, 1, 1, 1,15,0.0, 1, 1, 1,15
1096,5206918577.70072,0.0, 1, 1, 1,15,1332556.6121067696, 7, 5,16,45
1134,13606140300.679354,0.0, 1,13,15,30,6322193.002380488,12,29, 6,30
1326,11761322681.866417,0.0, 1, 1, 1,15,10540800.0, 5,21,19,60
1379,0.0,0.0, 1, 1, 1,15,0.0, 1, 1, 1,15
End of Data
 Number of Records Written=          99
