Program Version,EnergyPlus, Version 22.2.0-c249759bad, YMD=2023.07.07 15:21
1,5,Environment Title[],Latitude[deg],Longitude[deg],Time Zone[],Elevation[m]
2,8,Day of Simulation[],Month[],Day of Month[],DST Indicator[1=yes 0=no],Hour[],StartMinute[],EndMinute[],DayType
3,5,Cumulative Day of Simulation[],Month[],Day of Month[],DST Indicator[1=yes 0=no],DayType  ! When Daily Report Variables Requested
4,2,Cumulative Days of Simulation[],Month[]  ! When Monthly Report Variables Requested
5,1,Cumulative Days of Simulation[] ! When Run Period Report Variables Requested
6,1,Calendar Year of Simulation[] ! When Annual Report Variables Requested
581,11,LIVING,AFN Zone Infiltration Air Change Rate [ach] !RunPeriod [Value,Min,Month,Day,Hour,Minute,Max,Month,Day,Hour,Minute]
582,11,ATTIC,AFN Zone Infiltration Air Change Rate [ach] !RunPeriod [Value,Min,Month,Day,Hour,Minute,Max,Month,Day,Hour,Minute]
583,11,CRAWLSPACE,AFN Zone Infiltration Air Change Rate [ach] !RunPeriod [Value,Min,Month,Day,Hour,Minute,Max,Month,Day,Hour,Minute]
1038,11,Facility,Facility Heating Setpoint Not Met Time [hr] !RunPeriod [Value,Min,Month,Day,Hour,Minute,Max,Month,Day,Hour,Minute]
1039,11,Facility,Facility Cooling Setpoint Not Met Time [hr] !RunPeriod [Value,Min,Month,Day,Hour,Minute,Max,Month,Day,Hour,Minute]
1115,11,DX_HEATING_COIL,Heating Coil Heating Energy [J] !RunPeriod [Value,Min,Month,Day,Hour,Minute,Max,Month,Day,Hour,Minute]
1128,11,DX_HEATING_COIL,Heating Coil Electricity Energy [J] !RunPeriod [Value,Min,Month,Day,Hour,Minute,Max,Month,Day,Hour,Minute]
1153,11,DX_HEATING_COIL,Heating Coil Defrost Electricity Energy [J] !RunPeriod [Value,Min,Month,Day,Hour,Minute,Max,Month,Day,Hour,Minute]
1154,11,DX_HEATING_COIL,Heating Coil Crankcase Heater Electricity Energy [J] !RunPeriod [Value,Min,Month,Day,Hour,Minute,Max,Month,Day,Hour,Minute]
1156,11,HEATING_RESISTANCE_BACKUP,Heating Coil Electricity Energy [J] !RunPeriod [Value,Min,Month,Day,Hour,Minute,Max,Month,Day,Hour,Minute]
13,11,Electricity:Facility [J] !RunPeriod [Value,Min,Month,Day,Hour,Minute,Max,Month,Day,Hour,Minute]
1134,11,Heating:Electricity [J] !RunPeriod [Value,Min,Month,Day,Hour,Minute,Max,Month,Day,Hour,Minute]
1096,11,Cooling:Electricity [J] !RunPeriod [Value,Min,Month,Day,Hour,Minute,Max,Month,Day,Hour,Minute]
562,11,Fans:Electricity [J] !RunPeriod [Value,Min,Month,Day,Hour,Minute,Max,Month,Day,Hour,Minute]
1388,11,Pumps:Electricity [J] !RunPeriod [Value,Min,Month,Day,Hour,Minute,Max,Month,Day,Hour,Minute]
1360,11,WaterSystems:Electricity [J] !RunPeriod [Value,Min,Month,Day,Hour,Minute,Max,Month,Day,Hour,Minute]
61,11,InteriorLights:Electricity [J] !RunPeriod [Value,Min,Month,Day,Hour,Minute,Max,Month,Day,Hour,Minute]
1046,11,ExteriorLights:Electricity [J] !RunPeriod [Value,Min,Month,Day,Hour,Minute,Max,Month,Day,Hour,Minute]
134,11,InteriorEquipment:Electricity [J] !RunPeriod [Value,Min,Month,Day,Hour,Minute,Max,Month,Day,Hour,Minute]
170,11,gas_dryer:InteriorEquipment:Electricity [J] !RunPeriod [Value,Min,Month,Day,Hour,Minute,Max,Month,Day,Hour,Minute]
207,11,clotheswasher:InteriorEquipment:Electricity [J] !RunPeriod [Value,Min,Month,Day,Hour,Minute,Max,Month,Day,Hour,Minute]
244,11,dishwasher:InteriorEquipment:Electricity [J] !RunPeriod [Value,Min,Month,Day,Hour,Minute,Max,Month,Day,Hour,Minute]
281,11,refrigerator:InteriorEquipment:Electricity [J] !RunPeriod [Value,Min,Month,Day,Hour,Minute,Max,Month,Day,Hour,Minute]
318,11,electric_mels:InteriorEquipment:Electricity [J] !RunPeriod [Value,Min,Month,Day,Hour,Minute,Max,Month,Day,Hour,Minute]
355,11,NaturalGas:Facility [J] !RunPeriod [Value,Min,Month,Day,Hour,Minute,Max,Month,Day,Hour,Minute]
1323,11,WaterSystems:NaturalGas [J] !RunPeriod [Value,Min,Month,Day,Hour,Minute,Max,Month,Day,Hour,Minute]
403,11,InteriorEquipment:NaturalGas [J] !RunPeriod [Value,Min,Month,Day,Hour,Minute,Max,Month,Day,Hour,Minute]
476,11,gas_dryer:InteriorEquipment:NaturalGas [J] !RunPeriod [Value,Min,Month,Day,Hour,Minute,Max,Month,Day,Hour,Minute]
513,11,gas_mels:InteriorEquipment:NaturalGas [J] !RunPeriod [Value,Min,Month,Day,Hour,Minute,Max,Month,Day,Hour,Minute]
End of Data Dictionary
1,EXTREME_WINTER,  40.78,-111.97,  -7.00,1287.80
5,7
1038,0.16666666666666666,0.0, 1, 6, 1,10,0.16666666666666666, 1,11, 6,10
1039,0.0,0.0, 1, 6, 1,10,0.0, 1, 6, 1,10
581,0.27336105972381597,0.20709877333577056, 1,12,23,10,0.37748716281682504, 1,11, 3,60
582,1.7388552425862853,0.0, 1, 7, 7,60,5.521165796247598, 1,11, 7,60
583,2.5212426958967535,0.0002507433392113696, 1,12,23,15,7.389623895516816, 1,11, 8,50
1115,1901292397.4785771,0.0, 1, 6,15, 5,3242482.853925882, 1,12,10,50
1128,670376261.337609,0.0, 1, 6,15, 5,1078845.1225148228, 1,12, 6,60
1153,22015881.27267794,0.0, 1, 6,15, 5,59771.18215709586, 1, 9, 7,10
1154,43585674.14887938,0.0, 1, 6, 5,50,120000.0, 1, 6,16,30
1156,155892641.95052245,0.0, 1, 6, 1, 3,2132892.344118692, 1,11, 6,40
13,1346114058.4113567,306324.6925987483, 1, 6,15,10,4274859.672450329, 1,11, 6,10
61,301924526.0238348,58759.40635443481, 1, 6, 1,10,854682.2742463244, 1, 6,20,10
134,70666020.44019979,42376.01200569399, 1, 6, 4,10,104369.48322671017, 1,11,20,10
170,5241013.419656074,232.27731661587313, 1, 6, 4,10,11650.931360040839, 1,11,12,10
207,6509451.13922266,543.5021409221355, 1, 6, 3,10,15327.095199349082, 1,11,10,10
244,12749673.39982522,1014.5707620042115, 1, 6, 4,10,35359.08742820678, 1,11,20,10
281,46165882.48149605,39959.06841621388, 1, 6, 5,10,54634.54471212738, 1, 6,19,10
318,0.0,0.0, 1, 6, 1,10,0.0, 1, 6, 1,10
355,738879410.5382471,12374.216038804521, 1, 6, 4,10,3829218.154066982, 1, 7,18,60
403,197687796.27748126,12374.216038804521, 1, 6, 4,10,483183.26346918393, 1,11,18,10
476,106772067.24485692,4732.048419519677, 1, 6, 4,10,237357.535085481, 1,11,12,10
513,0.0,0.0, 1, 6, 1,10,0.0, 1, 6, 1,10
562,76633213.23763335,0.0, 1, 6,15,10,119656.27672607865, 1, 6, 5,60
1046,0.0,0.0, 1, 6, 1,10,0.0, 1, 6, 1,10
1096,0.0,0.0, 1, 6, 1,10,0.0, 1, 6, 1,10
1134,891870458.7096881,120000.0, 1, 6,15,10,3736906.0763478773, 1,11, 6,10
1323,541191614.260763,0.0, 1, 6, 1,10,3375000.000000001, 1, 7,10,10
1360,5019840.0,4980.0, 1, 6, 1,20,4980.000000000001, 1, 6, 1,10
1388,0.0,0.0, 1, 6, 1,10,0.0, 1, 6, 1,10
1,EXTREME_SUMMER,  40.78,-111.97,  -7.00,1287.80
5,7
1038,0.0,0.0, 7,13, 1,10,0.0, 7,13, 1,10
1039,9.666666666666666,0.0, 7,13, 1,10,0.16666666666666666, 7,13,18,10
581,0.13680762966068716,0.0, 7,13, 1,25,1.1436253633070057, 7,14,19,52
582,3.6245521596059547,0.07551108042496171, 7,14, 2,30,22.84342828242021, 7,14,19,52
583,4.545777151113237,0.0, 7,13, 6, 5,28.301362843401424, 7,14,19,52
1115,0.0,0.0, 7,13, 1,10,0.0, 7,13, 1,10
1128,0.0,0.0, 7,13, 1,10,0.0, 7,13, 1,10
1153,0.0,0.0, 7,13, 1,10,0.0, 7,13, 1,10
1154,0.0,0.0, 7,13, 1,10,0.0, 7,13, 1,10
1156,0.0,0.0, 7,13, 1,10,0.0, 7,13, 1,10
13,1110121263.170432,184992.40307648605, 7,17, 4,60,2327478.808486392, 7,14,19,10
61,301924526.0238348,58759.40635443481, 7,13, 1,10,854682.2742463244, 7,13,20,10
134,70666020.44019979,42376.01200569399, 7,13, 4,10,104369.48322671017, 7,18,20,10
170,5241013.419656074,232.27731661587313, 7,13, 4,10,11650.931360040839, 7,18,12,10
207,6509451.13922266,543.5021409221355, 7,13, 3,10,15327.095199349082, 7,18,10,10
244,12749673.39982522,1014.5707620042115, 7,13, 4,10,35359.08742820678, 7,18,20,10
281,46165882.48149605,39959.06841621388, 7,13, 5,10,54634.54471212738, 7,13,19,10
318,0.0,0.0, 7,13, 1,10,0.0, 7,13, 1,10
355,643387246.4921318,12374.216038804521, 7,13, 4,10,3829218.154066982, 7,14,18,60
403,197687796.27748126,12374.216038804521, 7,13, 4,10,483183.26346918393, 7,18,18,10
476,106772067.24485692,4732.048419519677, 7,13, 4,10,237357.535085481, 7,18,12,10
513,0.0,0.0, 7,13, 1,10,0.0, 7,13, 1,10
562,67434406.93554032,2006.6947979380468, 7,17, 6,20,119656.27672607865, 7,13,17,10
1046,0.0,0.0, 7,13, 1,10,0.0, 7,13, 1,10
1096,665076469.770856,15402.495300850875, 7,17, 6,20,1402872.0439755186, 7,14,15,60
1134,0.0,0.0, 7,13, 1,10,0.0, 7,13, 1,10
1323,445699450.21464884,0.0, 7,13, 1,10,3375000.0, 7,13, 9,50
1360,5019840.0,4979.999999999998, 7,17,10,50,4980.000000000002, 7,14,19,20
1388,0.0,0.0, 7,13, 1,10,0.0, 7,13, 1,10
1,ANNUAL,  40.78,-111.97,  -7.00,1287.80
5,365
1038,2.333333333333333,0.0, 1, 1, 1,10,0.16666666666666666, 1, 1, 6,10
1039,78.16666666666666,0.0, 1, 1, 1,10,0.16666666666666666, 6,26,18,30
581,0.22719273607994833,0.0, 5,15,20,60,1.2430203835440592,11, 1,16,53
582,3.4547618365976227,0.0, 1, 2, 5,50,36.731792029883785, 8, 7,19,51
583,4.355804749523169,0.0, 7, 6,23, 2,32.22872822822109, 8, 7,19,41
1115,21742614243.488228,0.0, 1, 1,16,23,3630331.6667077914, 2,15, 9,30
1128,7040408353.073445,0.0, 1, 1,16,23,1112435.491435535, 2,15, 9,10
1153,308520518.9224201,0.0, 1, 1,16,23,95147.92326761885, 1,31, 6,30
1154,2075293960.4662354,0.0, 1, 1, 1, 3,120000.0, 1, 1,17,10
1156,813132767.1234295,0.0, 1, 1, 1, 6,2251998.8555295677, 1,11, 6,30
13,42307403212.27364,106115.41836012878, 5,29, 4,50,4347878.4079367, 1,11, 6,10
61,15743207428.39043,58759.40635443481, 1, 1, 1,10,854682.2742463244, 1, 1,20,10
134,3685071073.433083,42376.01200569399, 1, 2, 4,10,104369.48322671017, 1, 1,20,10
170,273393721.45534325,232.27731661587313, 1, 2, 4,10,11650.931360040839, 1, 1,12,10
207,339560869.06955314,543.5021409221355, 1, 2, 3,10,15327.095199349082, 1, 1,10,10
244,664895467.8009839,1014.5707620042115, 1, 2, 4,10,35359.08742820678, 1, 1,20,10
281,2407221015.1057043,39959.06841621388, 1, 1, 5,10,54634.54471212738, 1, 1,19,10
318,0.0,0.0, 1, 1, 1,10,0.0, 1, 1, 1,10
355,35732830944.29951,12374.216038804521, 1, 2, 4,10,3829218.154066983, 5, 9,18,60
403,10310294493.052883,12374.216038804521, 1, 2, 4,10,483183.26346918393, 1, 1,18,10
476,5569688622.065564,4732.048419519677, 1, 2, 4,10,237357.535085481, 1, 1,12,10
513,0.0,0.0, 1, 1, 1,10,0.0, 1, 1, 1,10
562,1973059400.99501,0.0, 1, 1,16,30,119656.27672607865, 1, 1, 1,20
1046,0.0,0.0, 1, 1, 1,10,0.0, 1, 1, 1,10
1096,10406960909.875704,0.0, 1, 1, 1,10,1401703.5704566117, 7,23,17,60
1134,10237355599.585567,0.0, 1,17,14,60,3810662.8081999687, 1,11, 6,10
1323,25422536451.250557,0.0, 1, 1, 1,10,3375000.0000000023, 1,31,20,30
1360,261748800.0,4979.999999999998, 3,14,10,50,4980.000000000002, 1,25, 8,20
1388,0.0,0.0, 1, 1, 1,10,0.0, 1, 1, 1,10
End of Data
 Number of Records Written=          87
