Program Version,EnergyPlus, Version 22.2.0-c249759bad, YMD=2023.09.01 14:30
1,5,Environment Title[],Latitude[deg],Longitude[deg],Time Zone[],Elevation[m]
2,8,Day of Simulation[],Month[],Day of Month[],DST Indicator[1=yes 0=no],Hour[],StartMinute[],EndMinute[],DayType
3,5,Cumulative Day of Simulation[],Month[],Day of Month[],DST Indicator[1=yes 0=no],DayType  ! When Daily Report Variables Requested
4,2,Cumulative Days of Simulation[],Month[]  ! When Monthly Report Variables Requested
5,1,Cumulative Days of Simulation[] ! When Run Period Report Variables Requested
6,1,Calendar Year of Simulation[] ! When Annual Report Variables Requested
7,1,Environment,Site Outdoor Air Drybulb Temperature [C] !Hourly
619,1,DX_HEATING_COIL,Heating Coil Heating Rate [W] !Hourly
633,1,DX_HEATING_COIL,Heating Coil Electricity Rate [W] !Hourly
659,1,DX_HEATING_COIL,Heating Coil Defrost Electricity Rate [W] !Hourly
661,1,DX_HEATING_COIL,Heating Coil Crankcase Heater Electricity Rate [W] !Hourly
690,1,FAN,Fan Electricity Rate [W] !Hourly
716,1,HEAT PUMP WATER HEATER FAN,Fan Electricity Rate [W] !Hourly
718,1,LIVING,Zone Mean Air Temperature [C] !Hourly
719,1,ATTIC,Zone Mean Air Temperature [C] !Hourly
720,1,CRAWLSPACE,Zone Mean Air Temperature [C] !Hourly
843,1,LIVING,Zone Predicted Sensible Load to Heating Setpoint Heat Transfer Rate [W] !Hourly
844,1,LIVING,Zone System Predicted Sensible Load to Heating Setpoint Heat Transfer Rate [W] !Hourly
907,1,ATTIC,Zone Predicted Sensible Load to Heating Setpoint Heat Transfer Rate [W] !Hourly
908,1,ATTIC,Zone System Predicted Sensible Load to Heating Setpoint Heat Transfer Rate [W] !Hourly
971,1,CRAWLSPACE,Zone Predicted Sensible Load to Heating Setpoint Heat Transfer Rate [W] !Hourly
972,1,CRAWLSPACE,Zone System Predicted Sensible Load to Heating Setpoint Heat Transfer Rate [W] !Hourly
1195,1,HEATING_RESISTANCE_BACKUP,Heating Coil Heating Rate [W] !Hourly
1197,1,HEATING_RESISTANCE_BACKUP,Heating Coil Electricity Rate [W] !Hourly
End of Data Dictionary
1,EXTREME_WINTER,  33.57, -86.75,  -6.00, 192.00
2,1, 1,13, 0, 1, 0.00,60.00,Monday
7,1.1
718,19.952556199918508
719,-1.3384457827567802
720,19.48108551589777
619,0.0
633,0.0
659,0.0
661,200.0
690,0.0
716,0.0
843,-958.9422158410271
844,-958.9422158410271
907,0.0
908,0.0
971,0.0
972,0.0
1195,0.0
1197,0.0
2,1, 1,13, 0, 2, 0.00,60.00,Monday
7,0.6
718,19.178264612037655
719,-2.369342217647772
720,19.2152550704655
619,0.0
633,0.0
659,0.0
661,200.0
690,0.0
716,0.0
843,-433.0438681615251
844,-433.0438681615251
907,0.0
908,0.0
971,0.0
972,0.0
1195,0.0
1197,0.0
2,1, 1,13, 0, 3, 0.00,60.00,Monday
7,-1.1
718,18.666012493499792
719,-2.957501336148731
720,19.012003504315974
619,498.6982379424325
633,171.8473657807775
659,12.475800086695672
661,172.66463306510013
690,19.07177931202808
716,0.0
843,279.13786570416414
844,279.13786570416414
907,0.0
908,0.0
971,0.0
972,0.0
1195,0.0
1197,0.0
2,1, 1,13, 0, 4, 0.00,60.00,Monday
7,-1.1
718,18.582520328597084
719,-3.3011191120545784
720,18.80270746816713
619,1126.4133413932186
633,375.68993867725055
659,24.95014012750157
661,140.14267472280125
690,41.81104087702496
716,0.0
843,740.5967907658851
844,740.5967907658851
907,0.0
908,0.0
971,0.0
972,0.0
1195,0.0
1197,0.0
2,1, 1,13, 0, 5, 0.00,60.00,Monday
7,-1.7
718,18.52911885536506
719,-3.420344975791926
720,18.609653398263113
619,1653.6417113651257
633,547.9098621797979
659,34.56283645156505
661,112.50587942615704
690,61.09742076365374
716,0.0
843,1075.0884699955677
844,1075.0884699955677
907,0.0
908,0.0
971,0.0
972,0.0
1195,0.0
1197,0.0
2,1, 1,13, 0, 6, 0.00,60.00,Monday
7,-1.7
718,19.23801918628451
719,-2.546013039635195
720,18.381578340896105
619,3445.2634699020014
633,1082.8958642885607
659,68.37551576912799
661,26.81615031704969
690,120.93616967016882
716,0.0
843,2237.719250640035
844,2237.719250640035
907,0.0
908,0.0
971,0.0
972,0.0
1195,0.0
1197,0.0
2,1, 1,13, 0, 7, 0.00,60.00,Monday
7,-2.2
718,19.458082879861045
719,-1.1470052998400109
720,18.237304909467902
619,4002.369398760487
633,1257.1276804386125
659,82.79401160788187
661,0.0
690,141.23648773451072
716,85.44000000000005
843,2701.2175030809176
844,2701.2175030809176
907,0.0
908,0.0
971,0.0
972,0.0
1195,1458.853154256411
1197,1458.853154256411
2,1, 1,13, 0, 8, 0.00,60.00,Monday
7,0.0
718,19.63686823522909
719,0.026463943804932184
720,18.112823128547415
619,3911.774326799145
633,1205.1519488816211
659,77.74726318365138
661,12.625508900617355
690,131.10966429871075
716,55.95415383724332
843,1834.183024980175
844,1834.183024980175
907,0.0
908,0.0
971,0.0
972,0.0
1195,0.0
1197,0.0
2,1, 1,13, 0, 9, 0.00,60.00,Monday
7,3.3
718,19.87072331949474
719,3.552494572494578
720,18.026564703284087
619,1206.2080501160267
633,378.720920103164
659,20.54722153460245
661,143.70141269218823
690,39.59868923595937
716,0.0
843,802.6001961424117
844,802.6001961424117
907,0.0
908,0.0
971,0.0
972,0.0
1195,0.0
1197,0.0
2,1, 1,13, 0,10, 0.00,60.00,Monday
7,5.6
718,20.1052578019137
719,9.288569320003019
720,17.915097056898826
619,0.0
633,0.0
659,0.0
661,200.0
690,0.0
716,0.0
843,-236.86358580049455
844,-236.86358580049455
907,0.0
908,0.0
971,0.0
972,0.0
1195,0.0
1197,0.0
2,1, 1,13, 0,11, 0.00,60.00,Monday
7,7.8
718,21.016386156411013
719,14.815708587111805
720,17.837625250030033
619,0.0
633,0.0
659,0.0
661,200.0
690,0.0
716,0.0
843,-1090.1015790148376
844,-1090.1015790148376
907,0.0
908,0.0
971,0.0
972,0.0
1195,0.0
1197,0.0
2,1, 1,13, 0,12, 0.00,60.00,Monday
7,8.9
718,21.774648457823623
719,21.362621527434772
720,17.7954809924816
619,0.0
633,0.0
659,0.0
661,200.0
690,0.0
716,0.0
843,-1724.6645835561703
844,-1724.6645835561703
907,0.0
908,0.0
971,0.0
972,0.0
1195,0.0
1197,0.0
2,1, 1,13, 0,13, 0.00,60.00,Monday
7,10.0
718,22.448864258829516
719,23.104684896898977
720,17.78164342158073
619,0.0
633,0.0
659,0.0
661,0.0
690,0.0
716,0.0
843,-2251.2078894532933
844,-2251.2078894532933
907,0.0
908,0.0
971,0.0
972,0.0
1195,0.0
1197,0.0
2,1, 1,13, 0,14, 0.00,60.00,Monday
7,11.7
718,22.337660418639064
719,22.983577847697777
720,17.78820186377464
619,0.0
633,0.0
659,0.0
661,0.0
690,0.0
716,67.09754623772434
843,-2666.908335384025
844,-2666.908335384025
907,0.0
908,0.0
971,0.0
972,0.0
1195,0.0
1197,0.0
2,1, 1,13, 0,15, 0.00,60.00,Monday
7,11.1
718,23.24696394486585
719,23.25647895446596
720,17.861019093735703
619,0.0
633,0.0
659,0.0
661,0.0
690,21.151187691956384
716,0.0
843,-4020.4782832656438
844,-4020.4782832656438
907,0.0
908,0.0
971,0.0
972,0.0
1195,0.0
1197,0.0
2,1, 1,13, 0,16, 0.00,60.00,Monday
7,11.7
718,23.365010783598493
719,23.735443899707068
720,17.950863660730338
619,0.0
633,0.0
659,0.0
661,0.0
690,35.373804932498956
716,0.0
843,-4461.4943731786825
844,-4461.4943731786825
907,0.0
908,0.0
971,0.0
972,0.0
1195,0.0
1197,0.0
2,1, 1,13, 0,17, 0.00,60.00,Monday
7,10.0
718,23.245494910363664
719,19.000858557704884
720,18.028743512110122
619,0.0
633,0.0
659,0.0
661,0.0
690,39.38577691458472
716,0.0
843,-5027.95950345018
844,-5027.95950345018
907,0.0
908,0.0
971,0.0
972,0.0
1195,0.0
1197,0.0
2,1, 1,13, 0,18, 0.00,60.00,Monday
7,4.4
718,23.18632445881915
719,14.230050786482467
720,18.055761134213224
619,0.0
633,0.0
659,0.0
661,182.71757846655595
690,12.204542584654574
716,0.0
843,-4072.179988203192
844,-4072.179988203192
907,0.0
908,0.0
971,0.0
972,0.0
1195,0.0
1197,0.0
2,1, 1,13, 0,19, 0.00,60.00,Monday
7,5.0
718,22.461909403228507
719,10.161875593560044
720,18.092665780620734
619,0.0
633,0.0
659,0.0
661,200.0
690,0.0
716,80.0139728411979
843,-3301.4655412030916
844,-3301.4655412030916
907,0.0
908,0.0
971,0.0
972,0.0
1195,0.0
1197,0.0
2,1, 1,13, 0,20, 0.00,60.00,Monday
7,3.3
718,22.068161791871347
719,7.105367222589603
720,18.10376533953529
619,0.0
633,0.0
659,0.0
661,200.0
690,0.0
716,74.88235946054279
843,-3179.9395592218916
844,-3179.9395592218916
907,0.0
908,0.0
971,0.0
972,0.0
1195,0.0
1197,0.0
2,1, 1,13, 0,21, 0.00,60.00,Monday
7,2.2
718,22.522364964891896
719,4.407021234274468
720,18.08133535935206
619,0.0
633,0.0
659,0.0
661,200.0
690,0.0
716,0.0
843,-2603.8016089664397
844,-2603.8016089664397
907,0.0
908,0.0
971,0.0
972,0.0
1195,0.0
1197,0.0
2,1, 1,13, 0,22, 0.00,60.00,Monday
7,1.7
718,22.037998926480903
719,2.4100537627889493
720,18.035954732005454
619,0.0
633,0.0
659,0.0
661,200.0
690,0.0
716,0.0
843,-1742.9358279606986
844,-1742.9358279606986
907,0.0
908,0.0
971,0.0
972,0.0
1195,0.0
1197,0.0
2,1, 1,13, 0,23, 0.00,60.00,Monday
7,1.1
718,21.29469088723203
719,0.7185350542812158
720,17.97307275195903
619,0.0
633,0.0
659,0.0
661,200.0
690,0.0
716,0.0
843,-2084.576489994277
844,-2084.576489994277
907,0.0
908,0.0
971,0.0
972,0.0
1195,0.0
1197,0.0
2,1, 1,13, 0,24, 0.00,60.00,Monday
7,3.3
718,20.73895886121869
719,-0.3684320727029012
720,17.896346825904907
619,0.0
633,0.0
659,0.0
661,200.0
690,0.0
716,0.0
843,-1648.1171038147968
844,-1648.1171038147968
907,0.0
908,0.0
971,0.0
972,0.0
1195,0.0
1197,0.0
2,2, 1,14, 0, 1, 0.00,60.00,Tuesday
7,3.3
718,19.983439078734357
719,-0.9362403810265033
720,17.808381531214774
619,0.0
633,0.0
659,0.0
661,200.0
690,0.0
716,0.0
843,-960.3330864395175
844,-960.3330864395175
907,0.0
908,0.0
971,0.0
972,0.0
1195,0.0
1197,0.0
2,2, 1,14, 0, 2, 0.00,60.00,Tuesday
7,2.2
718,19.14185614566691
719,-1.6623764727367023
720,17.712366500854962
619,0.0
633,0.0
659,0.0
661,200.0
690,0.0
716,0.0
843,-359.38398927739036
844,-359.38398927739036
907,0.0
908,0.0
971,0.0
972,0.0
1195,0.0
1197,0.0
2,2, 1,14, 0, 3, 0.00,60.00,Tuesday
7,1.7
718,18.670640065826326
719,-2.109592802717823
720,17.606337901080607
619,297.2732150398949
633,97.28076906641964
659,6.676404444031109
661,184.91908964888623
690,10.573410768395096
716,0.0
843,156.7883915647235
844,156.7883915647235
907,0.0
908,0.0
971,0.0
972,0.0
1195,0.0
1197,0.0
2,2, 1,14, 0, 4, 0.00,60.00,Tuesday
7,0.6
718,18.490582438520217
719,-2.385328250583581
720,17.48710242915753
619,852.4180774496084
633,277.0680555585226
659,18.9806455383293
661,156.2913103983462
690,30.59936380298252
716,0.0
843,570.4037461387034
844,570.4037461387034
907,0.0
908,0.0
971,0.0
972,0.0
1195,0.0
1197,0.0
2,2, 1,14, 0, 5, 0.00,60.00,Tuesday
7,0.6
718,18.553754296837685
719,-2.441339911849542
720,17.36763591316217
619,1441.3557126492183
633,458.7039083257997
659,31.541753685961936
661,127.36555147360494
690,50.849973707029555
716,0.0
843,961.3903268069243
844,961.3903268069243
907,0.0
908,0.0
971,0.0
972,0.0
1195,0.0
1197,0.0
2,2, 1,14, 0, 6, 0.00,60.00,Tuesday
7,1.1
718,19.33825686457966
719,-1.5343370347964687
720,17.239051645191164
619,3059.3913230513444
633,924.8840843009827
659,59.94054440412462
661,55.00124677048053
690,101.62979947819152
716,0.0
843,2043.703127800356
844,2043.703127800356
907,0.0
908,0.0
971,0.0
972,0.0
1195,0.0
1197,0.0
2,2, 1,14, 0, 7, 0.00,60.00,Tuesday
7,1.1
718,19.464558399752672
719,-0.30147144259278547
720,17.161507738137633
619,4379.972653213281
633,1294.9625814726735
659,82.68498361119883
661,0.0
690,141.23648773451072
716,85.44000000000005
843,2167.12618438569
844,2167.12618438569
907,0.0
908,0.0
971,0.0
972,0.0
1195,470.01070348140865
1197,470.01070348140865
2,2, 1,14, 0, 8, 0.00,60.00,Tuesday
7,3.9
718,19.648116979620664
719,1.40170412440431
720,17.089035310186212
619,3691.4933801012176
633,1072.6887401470965
659,71.2070621260209
661,38.05336263877837
690,113.89908408983939
716,85.44000000000005
843,1354.5061734733554
844,1354.5061734733554
907,0.0
908,0.0
971,0.0
972,0.0
1195,0.0
1197,0.0
2,2, 1,14, 0, 9, 0.00,60.00,Tuesday
7,8.9
718,19.82831394915046
719,6.050016259087541
720,17.001937746723183
619,1329.3306493735515
633,353.143452432724
659,0.0
661,156.24966906950516
690,30.89571538922809
716,50.64239867676179
843,293.62123610445633
844,293.62123610445633
907,0.0
908,0.0
971,0.0
972,0.0
1195,0.0
1197,0.0
2,2, 1,14, 0,10, 0.00,60.00,Tuesday
7,10.6
718,20.29311591311706
719,11.527210939470557
720,16.924773492955886
619,0.0
633,0.0
659,0.0
661,0.0
690,0.0
716,0.0
843,-578.4243427203728
844,-578.4243427203728
907,0.0
908,0.0
971,0.0
972,0.0
1195,0.0
1197,0.0
2,2, 1,14, 0,11, 0.00,60.00,Tuesday
7,12.2
718,21.254512815289463
719,16.815638012533917
720,16.897947967632227
619,0.0
633,0.0
659,0.0
661,0.0
690,0.0
716,0.0
843,-1292.7167237200392
844,-1292.7167237200392
907,0.0
908,0.0
971,0.0
972,0.0
1195,0.0
1197,0.0
2,2, 1,14, 0,12, 0.00,60.00,Tuesday
7,14.4
718,22.173793368098575
719,21.373269174972496
720,16.90021787883384
619,0.0
633,0.0
659,0.0
661,0.0
690,0.0
716,0.0
843,-2049.1649703827825
844,-2049.1649703827825
907,0.0
908,0.0
971,0.0
972,0.0
1195,0.0
1197,0.0
2,2, 1,14, 0,13, 0.00,60.00,Tuesday
7,15.0
718,23.142663377693918
719,25.119712509515164
720,16.927560640752077
619,0.0
633,0.0
659,0.0
661,0.0
690,0.0
716,0.0
843,-2759.6709387952997
844,-2759.6709387952997
907,0.0
908,0.0
971,0.0
972,0.0
1195,0.0
1197,0.0
2,2, 1,14, 0,14, 0.00,60.00,Tuesday
7,15.6
718,23.31023104654105
719,27.244248015867196
720,17.022696537127725
619,0.0
633,0.0
659,0.0
661,0.0
690,17.5393009612474
716,0.0
843,-3510.6074079129867
844,-3510.6074079129867
907,0.0
908,0.0
971,0.0
972,0.0
1195,0.0
1197,0.0
2,2, 1,14, 0,15, 0.00,60.00,Tuesday
7,16.1
718,23.251290570762603
719,25.76597107434574
720,17.15304673836666
619,0.0
633,0.0
659,0.0
661,0.0
690,37.16326657782278
716,0.0
843,-4197.702006843949
844,-4197.702006843949
907,0.0
908,0.0
971,0.0
972,0.0
1195,0.0
1197,0.0
2,2, 1,14, 0,16, 0.00,60.00,Tuesday
7,15.0
718,23.306569917168535
719,24.019745542963076
720,17.28972980330224
619,0.0
633,0.0
659,0.0
661,0.0
690,50.86029627317919
716,0.0
843,-5380.869560251418
844,-5380.869560251418
907,0.0
908,0.0
971,0.0
972,0.0
1195,0.0
1197,0.0
2,2, 1,14, 0,17, 0.00,60.00,Tuesday
7,13.9
718,23.27821693316207
719,20.492553671749437
720,17.40074842033913
619,0.0
633,0.0
659,0.0
661,0.0
690,49.534982677818476
716,0.0
843,-5556.232315510861
844,-5556.232315510861
907,0.0
908,0.0
971,0.0
972,0.0
1195,0.0
1197,0.0
2,2, 1,14, 0,18, 0.00,60.00,Tuesday
7,12.2
718,23.395069687762156
719,17.86798084925365
720,17.410784056407138
619,0.0
633,0.0
659,0.0
661,0.0
690,7.496775928231937
716,57.68882549242226
843,-4738.490705814789
844,-4738.490705814789
907,0.0
908,0.0
971,0.0
972,0.0
1195,0.0
1197,0.0
2,2, 1,14, 0,19, 0.00,60.00,Tuesday
7,11.7
718,23.366195374237787
719,15.327588402602982
720,17.539650608540615
619,0.0
633,0.0
659,0.0
661,0.0
690,25.792485058913822
716,0.0
843,-4210.386747629076
844,-4210.386747629076
907,0.0
908,0.0
971,0.0
972,0.0
1195,0.0
1197,0.0
2,2, 1,14, 0,20, 0.00,60.00,Tuesday
7,11.1
718,22.888348136533992
719,13.320512787046049
720,17.519228725922062
619,0.0
633,0.0
659,0.0
661,0.0
690,0.0
716,85.44000000000005
843,-4030.4838159368664
844,-4030.4838159368664
907,0.0
908,0.0
971,0.0
972,0.0
1195,0.0
1197,0.0
2,2, 1,14, 0,21, 0.00,60.00,Tuesday
7,11.1
718,22.716146782231203
719,12.39399420370756
720,17.550164180837356
619,0.0
633,0.0
659,0.0
661,0.0
690,0.0
716,73.69265334325604
843,-3804.5922504504997
844,-3804.5922504504997
907,0.0
908,0.0
971,0.0
972,0.0
1195,0.0
1197,0.0
2,2, 1,14, 0,22, 0.00,60.00,Tuesday
7,10.6
718,23.32860718695428
719,11.519118148105113
720,17.552585374388077
619,0.0
633,0.0
659,0.0
661,0.0
690,1.4232085357871118
716,0.0
843,-3248.7872736832524
844,-3248.7872736832524
907,0.0
908,0.0
971,0.0
972,0.0
1195,0.0
1197,0.0
2,2, 1,14, 0,23, 0.00,60.00,Tuesday
7,10.0
718,22.99014863741415
719,10.470150852517417
720,17.532448729345905
619,0.0
633,0.0
659,0.0
661,0.0
690,0.0
716,0.0
843,-2818.126108314167
844,-2818.126108314167
907,0.0
908,0.0
971,0.0
972,0.0
1195,0.0
1197,0.0
2,2, 1,14, 0,24, 0.00,60.00,Tuesday
7,9.4
718,22.49650220632145
719,8.12388558804275
720,17.504699732700242
619,0.0
633,0.0
659,0.0
661,200.0
690,0.0
716,0.0
843,-2457.0252477004624
844,-2457.0252477004624
907,0.0
908,0.0
971,0.0
972,0.0
1195,0.0
1197,0.0
2,3, 1,15, 0, 1, 0.00,60.00,Wednesday
7,9.4
718,21.935267828392448
719,6.104397129455183
720,17.46453355053397
619,0.0
633,0.0
659,0.0
661,200.0
690,0.0
716,0.0
843,-1981.808975351627
844,-1981.808975351627
907,0.0
908,0.0
971,0.0
972,0.0
1195,0.0
1197,0.0
2,3, 1,15, 0, 2, 0.00,60.00,Wednesday
7,10.0
718,21.584923196507322
719,5.946880877954743
720,17.41701167599663
619,0.0
633,0.0
659,0.0
661,0.0
690,0.0
716,0.0
843,-1665.8642892578955
844,-1665.8642892578955
907,0.0
908,0.0
971,0.0
972,0.0
1195,0.0
1197,0.0
2,3, 1,15, 0, 3, 0.00,60.00,Wednesday
7,9.4
718,20.8050339177423
719,7.5537108388081755
720,17.362249729123967
619,0.0
633,0.0
659,0.0
661,200.0
690,0.0
716,0.0
843,-928.0787024359415
844,-928.0787024359415
907,0.0
908,0.0
971,0.0
972,0.0
1195,0.0
1197,0.0
2,3, 1,15, 0, 4, 0.00,60.00,Wednesday
7,7.2
718,19.921465280977873
719,7.543790539880355
720,17.304297512167004
619,0.0
633,0.0
659,0.0
661,200.0
690,0.0
716,0.0
843,-748.7194421017657
844,-748.7194421017657
907,0.0
908,0.0
971,0.0
972,0.0
1195,0.0
1197,0.0
2,3, 1,15, 0, 5, 0.00,60.00,Wednesday
7,6.7
718,19.696865328899186
719,7.166008325265104
720,17.24433138799709
619,0.0
633,0.0
659,0.0
661,200.0
690,0.0
716,0.0
843,-740.3754008387823
844,-740.3754008387823
907,0.0
908,0.0
971,0.0
972,0.0
1195,0.0
1197,0.0
2,3, 1,15, 0, 6, 0.00,60.00,Wednesday
7,6.7
718,19.659729326286104
719,7.566196421342438
720,17.18884378258834
619,1218.980465741573
633,334.34872897477527
659,0.0
661,157.58928849364028
690,29.949699677399227
716,64.30849094789454
843,114.86091360567025
844,114.86091360567025
907,0.0
908,0.0
971,0.0
972,0.0
1195,0.0
1197,0.0
2,3, 1,15, 0, 7, 0.00,60.00,Wednesday
7,6.7
718,19.576329152165567
719,7.61474080452458
720,17.124709024376557
619,1794.4644108366995
633,486.343816250803
659,0.0
661,138.258517052303
690,43.60075099526454
716,85.44000000000005
843,252.41840474952187
844,252.41840474952187
907,0.0
908,0.0
971,0.0
972,0.0
1195,0.0
1197,0.0
2,3, 1,15, 0, 8, 0.00,60.00,Wednesday
7,7.0
718,19.85113538839079
719,8.07870846747502
720,17.052855883461188
619,938.5374860973352
633,257.0070886193635
659,0.0
661,167.42912718163814
690,23.000978396564378
716,28.219933677844217
843,349.8625547118372
844,349.8625547118372
907,0.0
908,0.0
971,0.0
972,0.0
1195,0.0
1197,0.0
2,3, 1,15, 0, 9, 0.00,60.00,Wednesday
7,7.2
718,19.75852666197043
719,10.70212558642856
720,16.983030613696872
619,58.253819659886986
633,16.281794574837292
659,0.0
661,197.95162924641326
690,1.4465234540734215
716,0.0
843,43.45936120380611
844,43.45936120380611
907,0.0
908,0.0
971,0.0
972,0.0
1195,0.0
1197,0.0
2,3, 1,15, 0,10, 0.00,60.00,Wednesday
7,7.2
718,19.74053540480655
719,11.7653087088917
720,16.929336188235308
619,0.0
633,0.0
659,0.0
661,200.0
690,0.0
716,0.0
843,-45.38401224001973
844,-45.38401224001973
907,0.0
908,0.0
971,0.0
972,0.0
1195,0.0
1197,0.0
2,3, 1,15, 0,11, 0.00,60.00,Wednesday
7,8.9
718,20.063912508114274
719,15.352173550893186
720,16.890845959455362
619,0.0
633,0.0
659,0.0
661,200.0
690,0.0
716,0.0
843,-198.901897966025
844,-198.901897966025
907,0.0
908,0.0
971,0.0
972,0.0
1195,0.0
1197,0.0
2,3, 1,15, 0,12, 0.00,60.00,Wednesday
7,10.0
718,20.07638692160019
719,16.6247719247675
720,16.86199044735991
619,0.0
633,0.0
659,0.0
661,0.0
690,0.0
716,0.0
843,-214.766034766144
844,-214.766034766144
907,0.0
908,0.0
971,0.0
972,0.0
1195,0.0
1197,0.0
2,3, 1,15, 0,13, 0.00,60.00,Wednesday
7,10.0
718,19.965659541416745
719,15.376059409267706
720,16.84070979428203
619,0.0
633,0.0
659,0.0
661,0.0
690,0.0
716,0.0
843,-122.85922218655014
844,-122.85922218655014
907,0.0
908,0.0
971,0.0
972,0.0
1195,0.0
1197,0.0
2,3, 1,15, 0,14, 0.00,60.00,Wednesday
7,10.0
718,19.833387260518816
719,13.763132241204081
720,16.822983408833547
619,0.0
633,0.0
659,0.0
661,0.0
690,0.0
716,0.0
843,-50.82068149318275
844,-50.82068149318275
907,0.0
908,0.0
971,0.0
972,0.0
1195,0.0
1197,0.0
2,3, 1,15, 0,15, 0.00,60.00,Wednesday
7,11.0
718,19.75537476817541
719,13.255153939024177
720,16.823799716370235
619,974.8368400453305
633,255.36385022262056
659,0.0
661,0.0
690,21.706637908720154
716,57.01172545886385
843,119.89534874932633
844,119.89534874932633
907,0.0
908,0.0
971,0.0
972,0.0
1195,0.0
1197,0.0
2,3, 1,15, 0,16, 0.00,60.00,Wednesday
7,11.1
718,20.27725692522223
719,13.330487517036564
720,16.787000582564016
619,0.0
633,0.0
659,0.0
661,0.0
690,0.0
716,0.0
843,-172.68936977985413
844,-172.68936977985413
907,0.0
908,0.0
971,0.0
972,0.0
1195,0.0
1197,0.0
2,3, 1,15, 0,17, 0.00,60.00,Wednesday
7,11.7
718,19.791032141113455
719,13.8128535687173
720,16.780092042839318
619,0.0
633,0.0
659,0.0
661,0.0
690,0.0
716,71.60168363692951
843,-805.3610646961442
844,-805.3610646961442
907,0.0
908,0.0
971,0.0
972,0.0
1195,0.0
1197,0.0
2,3, 1,15, 0,18, 0.00,60.00,Wednesday
7,12.0
718,20.647871212045025
719,13.1297308019551
720,16.777710085959185
619,0.0
633,0.0
659,0.0
661,0.0
690,0.0
716,0.0
843,-760.8117530019572
844,-760.8117530019572
907,0.0
908,0.0
971,0.0
972,0.0
1195,0.0
1197,0.0
2,3, 1,15, 0,19, 0.00,60.00,Wednesday
7,11.1
718,21.11933215532491
719,12.201038572332573
720,16.775069546050933
619,0.0
633,0.0
659,0.0
661,0.0
690,0.0
716,0.0
843,-601.4829185283734
844,-601.4829185283734
907,0.0
908,0.0
971,0.0
972,0.0
1195,0.0
1197,0.0
2,3, 1,15, 0,20, 0.00,60.00,Wednesday
7,11.7
718,20.208781015973134
719,11.947510448703277
720,16.768733283025966
619,0.0
633,0.0
659,0.0
661,0.0
690,0.0
716,85.44000000000005
843,-1047.3560470525917
844,-1047.3560470525917
907,0.0
908,0.0
971,0.0
972,0.0
1195,0.0
1197,0.0
2,3, 1,15, 0,21, 0.00,60.00,Wednesday
7,11.7
718,20.533421344545594
719,11.913665679900767
720,16.756549401703108
619,0.0
633,0.0
659,0.0
661,0.0
690,0.0
716,24.74824680130951
843,-962.4470689836489
844,-962.4470689836489
907,0.0
908,0.0
971,0.0
972,0.0
1195,0.0
1197,0.0
2,3, 1,15, 0,22, 0.00,60.00,Wednesday
7,11.1
718,20.9909045121424
719,11.427868311670808
720,16.742413166048514
619,0.0
633,0.0
659,0.0
661,0.0
690,0.0
716,0.0
843,-831.9327756349758
844,-831.9327756349758
907,0.0
908,0.0
971,0.0
972,0.0
1195,0.0
1197,0.0
2,3, 1,15, 0,23, 0.00,60.00,Wednesday
7,11.1
718,20.813702063870384
719,11.10819460124417
720,16.72138239414798
619,0.0
633,0.0
659,0.0
661,0.0
690,0.0
716,0.0
843,-1159.0195660737436
844,-1159.0195660737436
907,0.0
908,0.0
971,0.0
972,0.0
1195,0.0
1197,0.0
2,3, 1,15, 0,24, 0.00,60.00,Wednesday
7,10.6
718,20.31155339804886
719,10.368746608452359
720,16.69672505012948
619,0.0
633,0.0
659,0.0
661,0.0
690,0.0
716,0.0
843,-961.2260949564334
844,-961.2260949564334
907,0.0
908,0.0
971,0.0
972,0.0
1195,0.0
1197,0.0
2,4, 1,16, 0, 1, 0.00,60.00,Thursday
7,9.4
718,19.915021304700662
719,9.537088252790568
720,16.666681415460317
619,0.0
633,0.0
659,0.0
661,200.0
690,0.0
716,0.0
843,-598.7829559934444
844,-598.7829559934444
907,0.0
908,0.0
971,0.0
972,0.0
1195,0.0
1197,0.0
2,4, 1,16, 0, 2, 0.00,60.00,Thursday
7,10.6
718,19.597835616676797
719,9.909832808572661
720,16.629845877538568
619,0.0
633,0.0
659,0.0
661,0.0
690,0.0
716,0.0
843,-511.9694684534834
844,-511.9694684534834
907,0.0
908,0.0
971,0.0
972,0.0
1195,0.0
1197,0.0
2,4, 1,16, 0, 3, 0.00,60.00,Thursday
7,9.4
718,19.082592766171025
719,9.630282780418302
720,16.589862053011515
619,0.0
633,0.0
659,0.0
661,200.0
690,0.0
716,0.0
843,-267.6985122355045
844,-267.6985122355045
907,0.0
908,0.0
971,0.0
972,0.0
1195,0.0
1197,0.0
2,4, 1,16, 0, 4, 0.00,60.00,Thursday
7,8.9
718,18.612179940094776
719,8.978326631727331
720,16.54772753361008
619,42.16720268878902
633,11.321832085133853
659,0.0
661,198.58253307875555
690,1.0009902471820848
716,0.0
843,33.77609543904509
844,33.77609543904509
907,0.0
908,0.0
971,0.0
972,0.0
1195,0.0
1197,0.0
2,4, 1,16, 0, 5, 0.00,60.00,Thursday
7,8.3
718,18.211140994343662
719,8.772450863113248
720,16.502185111182282
619,179.290656732647
633,47.87942166626031
659,0.0
661,193.9113942396201
690,4.299666463980817
716,0.0
843,131.84334442190175
844,131.84334442190175
907,0.0
908,0.0
971,0.0
972,0.0
1195,0.0
1197,0.0
2,4, 1,16, 0, 6, 0.00,60.00,Thursday
7,6.1
718,19.374824783665936
719,7.549505410198849
720,16.45224609076097
619,1297.9961589053185
633,346.17261375953314
659,0.0
661,154.53250027858684
690,32.108349833611186
716,0.0
843,1037.7032428374741
844,1037.7032428374741
907,0.0
908,0.0
971,0.0
972,0.0
1195,0.0
1197,0.0
2,4, 1,16, 0, 7, 0.00,60.00,Thursday
7,2.8
718,19.503831471014834
719,6.329807666632133
720,16.436523956303933
619,3326.6618906489985
633,988.131367461534
659,97.73784575278592
661,42.51305667558603
690,110.30807158685417
716,85.44000000000005
843,1509.9824907718375
844,1509.9824907718375
907,0.0
908,0.0
971,0.0
972,0.0
1195,0.0
1197,0.0
2,4, 1,16, 0, 8, 0.00,60.00,Thursday
7,5.6
718,19.71448763906125
719,5.910610078933057
720,16.37535086040751
619,2416.009640326
633,653.9270575530772
659,0.0
661,115.7021085650844
690,59.52969054846287
716,85.44000000000005
843,837.1102628207918
844,837.1102628207918
907,0.0
908,0.0
971,0.0
972,0.0
1195,0.0
1197,0.0
2,4, 1,16, 0, 9, 0.00,60.00,Thursday
7,7.2
718,19.615337309325604
719,8.339072402090997
720,16.30308909945735
619,671.7942047928913
633,184.8072076728747
659,0.0
661,176.67251400934626
690,16.473460944979692
716,20.728323909976574
843,265.8643816577005
844,265.8643816577005
907,0.0
908,0.0
971,0.0
972,0.0
1195,0.0
1197,0.0
2,4, 1,16, 0,10, 0.00,60.00,Thursday
7,8.3
718,20.622338076294746
719,12.311496434914474
720,16.261853805022962
619,0.0
633,0.0
659,0.0
661,200.0
690,0.0
716,0.0
843,-379.93855871919186
844,-379.93855871919186
907,0.0
908,0.0
971,0.0
972,0.0
1195,0.0
1197,0.0
2,4, 1,16, 0,11, 0.00,60.00,Thursday
7,9.4
718,21.65486895670551
719,17.123877126583857
720,16.25423765467651
619,0.0
633,0.0
659,0.0
661,200.0
690,0.0
716,0.0
843,-1380.148206356278
844,-1380.148206356278
907,0.0
908,0.0
971,0.0
972,0.0
1195,0.0
1197,0.0
2,4, 1,16, 0,12, 0.00,60.00,Thursday
7,10.0
718,22.577177977855964
719,23.878867685049485
720,16.275647922287188
619,0.0
633,0.0
659,0.0
661,0.0
690,0.0
716,0.0
843,-2168.497812023472
844,-2168.497812023472
907,0.0
908,0.0
971,0.0
972,0.0
1195,0.0
1197,0.0
2,4, 1,16, 0,13, 0.00,60.00,Thursday
7,11.7
718,23.315775569611603
719,27.509137760666576
720,16.330316797104565
619,0.0
633,0.0
659,0.0
661,0.0
690,3.5013888718970807
716,0.0
843,-2868.0874479800004
844,-2868.0874479800004
907,0.0
908,0.0
971,0.0
972,0.0
1195,0.0
1197,0.0
2,4, 1,16, 0,14, 0.00,60.00,Thursday
7,12.8
718,23.22954882156757
719,25.809143118748366
720,16.444972961969416
619,0.0
633,0.0
659,0.0
661,0.0
690,22.247180870091363
716,0.0
843,-3187.7168671826457
844,-3187.7168671826457
907,0.0
908,0.0
971,0.0
972,0.0
1195,0.0
1197,0.0
2,4, 1,16, 0,15, 0.00,60.00,Thursday
7,12.8
718,23.273107363265165
719,23.909145730013805
720,16.589012310059562
619,0.0
633,0.0
659,0.0
661,0.0
690,41.58067243806199
716,0.0
843,-4659.722102696363
844,-4659.722102696363
907,0.0
908,0.0
971,0.0
972,0.0
1195,0.0
1197,0.0
2,4, 1,16, 0,16, 0.00,60.00,Thursday
7,11.7
718,23.333909402457593
719,22.874140951830547
720,16.726028256370608
619,0.0
633,0.0
659,0.0
661,0.0
690,50.41393306633336
716,0.0
843,-5406.04529855289
844,-5406.04529855289
907,0.0
908,0.0
971,0.0
972,0.0
1195,0.0
1197,0.0
2,4, 1,16, 0,17, 0.00,60.00,Thursday
7,8.9
718,23.23544051891254
719,18.402410651140542
720,16.74099133574719
619,0.0
633,0.0
659,0.0
661,173.41479679501802
690,18.774003631899564
716,63.68358973627966
843,-5273.925089258932
844,-5273.925089258932
907,0.0
908,0.0
971,0.0
972,0.0
1195,0.0
1197,0.0
2,4, 1,16, 0,18, 0.00,60.00,Thursday
7,7.2
718,23.305726688912205
719,14.56314545720926
720,16.83841515982972
619,0.0
633,0.0
659,0.0
661,176.9831057667894
690,16.254126500276886
716,0.0
843,-4288.756847460387
844,-4288.756847460387
907,0.0
908,0.0
971,0.0
972,0.0
1195,0.0
1197,0.0
2,4, 1,16, 0,19, 0.00,60.00,Thursday
7,6.7
718,22.235395373002316
719,11.30980103011784
720,16.85285170297277
619,0.0
633,0.0
659,0.0
661,200.0
690,0.0
716,85.44000000000005
843,-3529.4987908422445
844,-3529.4987908422445
907,0.0
908,0.0
971,0.0
972,0.0
1195,0.0
1197,0.0
2,4, 1,16, 0,20, 0.00,60.00,Thursday
7,6.1
718,22.24674010207212
719,9.55151917175999
720,16.88460247758912
619,0.0
633,0.0
659,0.0
661,200.0
690,0.0
716,41.43732734944255
843,-3181.359920686664
844,-3181.359920686664
907,0.0
908,0.0
971,0.0
972,0.0
1195,0.0
1197,0.0
2,4, 1,16, 0,21, 0.00,60.00,Thursday
7,6.1
718,22.626904293641243
719,8.688860041177646
720,16.883825590512068
619,0.0
633,0.0
659,0.0
661,200.0
690,0.0
716,0.0
843,-2681.0814062006357
844,-2681.0814062006357
907,0.0
908,0.0
971,0.0
972,0.0
1195,0.0
1197,0.0
2,4, 1,16, 0,22, 0.00,60.00,Thursday
7,5.6
718,22.157083310500813
719,7.919476729127904
720,16.858805690113538
619,0.0
633,0.0
659,0.0
661,200.0
690,0.0
716,0.0
843,-1915.5607940995542
844,-1915.5607940995542
907,0.0
908,0.0
971,0.0
972,0.0
1195,0.0
1197,0.0
2,4, 1,16, 0,23, 0.00,60.00,Thursday
7,5.0
718,21.425327588430022
719,7.120715736432415
720,16.821002070850973
619,0.0
633,0.0
659,0.0
661,200.0
690,0.0
716,0.0
843,-2292.710931739437
844,-2292.710931739437
907,0.0
908,0.0
971,0.0
972,0.0
1195,0.0
1197,0.0
2,4, 1,16, 0,24, 0.00,60.00,Thursday
7,4.4
718,20.69290146096942
719,6.464504246461144
720,16.77555212220327
619,0.0
633,0.0
659,0.0
661,200.0
690,0.0
716,0.0
843,-1711.9531377577387
844,-1711.9531377577387
907,0.0
908,0.0
971,0.0
972,0.0
1195,0.0
1197,0.0
2,5, 1,17, 0, 1, 0.00,60.00,Friday
7,3.9
718,19.73215553763876
719,5.7457589245493175
720,16.715452744258712
619,0.0
633,0.0
659,0.0
661,200.0
690,0.0
716,0.0
843,-910.9340115645828
844,-910.9340115645828
907,0.0
908,0.0
971,0.0
972,0.0
1195,0.0
1197,0.0
2,5, 1,17, 0, 2, 0.00,60.00,Friday
7,3.0
718,18.80505192781856
719,4.925229879370207
720,16.64701838006182
619,0.0
633,0.0
659,0.0
661,200.0
690,0.0
716,0.0
843,-163.98455184737213
844,-163.98455184737213
907,0.0
908,0.0
971,0.0
972,0.0
1195,0.0
1197,0.0
2,5, 1,17, 0, 3, 0.00,60.00,Friday
7,3.3
718,18.60565461726954
719,4.650124595034627
720,16.572181991687724
619,156.79462305250553
633,49.54213142673816
659,3.1196216898756894
661,192.42824225402066
690,5.32285804939226
716,0.0
843,116.68925169138856
844,116.68925169138856
907,0.0
908,0.0
971,0.0
972,0.0
1195,0.0
1197,0.0
2,5, 1,17, 0, 4, 0.00,60.00,Friday
7,2.2
718,18.221497576906472
719,4.254112714210572
720,16.483378375807586
619,804.5666770140123
633,253.383242471522
659,14.395359528764315
661,161.07464540770295
690,27.34294183321545
716,0.0
843,574.6525418266392
844,574.6525418266392
907,0.0