Program Version,EnergyPlus, Version 22.2.0-c249759bad, YMD=2023.09.01 20:55
1,5,Environment Title[],Latitude[deg],Longitude[deg],Time Zone[],Elevation[m]
2,8,Day of Simulation[],Month[],Day of Month[],DST Indicator[1=yes 0=no],Hour[],StartMinute[],EndMinute[],DayType
3,5,Cumulative Day of Simulation[],Month[],Day of Month[],DST Indicator[1=yes 0=no],DayType  ! When Daily Report Variables Requested
4,2,Cumulative Days of Simulation[],Month[]  ! When Monthly Report Variables Requested
5,1,Cumulative Days of Simulation[] ! When Run Period Report Variables Requested
6,1,Calendar Year of Simulation[] ! When Annual Report Variables Requested
581,11,LIVING,AFN Zone Infiltration Air Change Rate [ach] !RunPeriod [Value,Min,Month,Day,Hour,Minute,Max,Month,Day,Hour,Minute]
582,11,ATTIC,AFN Zone Infiltration Air Change Rate [ach] !RunPeriod [Value,Min,Month,Day,Hour,Minute,Max,Month,Day,Hour,Minute]
583,11,CRAWLSPACE,AFN Zone Infiltration Air Change Rate [ach] !RunPeriod [Value,Min,Month,Day,Hour,Minute,Max,Month,Day,Hour,Minute]
1038,11,Facility,Facility Heating Setpoint Not Met Time [hr] !RunPeriod [Value,Min,Month,Day,Hour,Minute,Max,Month,Day,Hour,Minute]
1039,11,Facility,Facility Cooling Setpoint Not Met Time [hr] !RunPeriod [Value,Min,Month,Day,Hour,Minute,Max,Month,Day,Hour,Minute]
1115,11,DX_HEATING_COIL,Heating Coil Heating Energy [J] !RunPeriod [Value,Min,Month,Day,Hour,Minute,Max,Month,Day,Hour,Minute]
1128,11,DX_HEATING_COIL,Heating Coil Electricity Energy [J] !RunPeriod [Value,Min,Month,Day,Hour,Minute,Max,Month,Day,Hour,Minute]
1153,11,DX_HEATING_COIL,Heating Coil Defrost Electricity Energy [J] !RunPeriod [Value,Min,Month,Day,Hour,Minute,Max,Month,Day,Hour,Minute]
1154,11,DX_HEATING_COIL,Heating Coil Crankcase Heater Electricity Energy [J] !RunPeriod [Value,Min,Month,Day,Hour,Minute,Max,Month,Day,Hour,Minute]
1155,11,HEATING_RESISTANCE_BACKUP,Heating Coil Heating Energy [J] !RunPeriod [Value,Min,Month,Day,Hour,Minute,Max,Month,Day,Hour,Minute]
1156,11,HEATING_RESISTANCE_BACKUP,Heating Coil Electricity Energy [J] !RunPeriod [Value,Min,Month,Day,Hour,Minute,Max,Month,Day,Hour,Minute]
1292,11,WATER HEATER,Water Heater Heat Loss Energy [J] !RunPeriod [Value,Min,Month,Day,Hour,Minute,Max,Month,Day,Hour,Minute]
1306,11,WATER HEATER,Water Heater Heating Energy [J] !RunPeriod [Value,Min,Month,Day,Hour,Minute,Max,Month,Day,Hour,Minute]
1307,11,WATER HEATER,Water Heater Unmet Demand Heat Transfer Energy [J] !RunPeriod [Value,Min,Month,Day,Hour,Minute,Max,Month,Day,Hour,Minute]
1308,11,WATER HEATER,Water Heater Electricity Energy [J] !RunPeriod [Value,Min,Month,Day,Hour,Minute,Max,Month,Day,Hour,Minute]
13,11,Electricity:Facility [J] !RunPeriod [Value,Min,Month,Day,Hour,Minute,Max,Month,Day,Hour,Minute]
1134,11,Heating:Electricity [J] !RunPeriod [Value,Min,Month,Day,Hour,Minute,Max,Month,Day,Hour,Minute]
1096,11,Cooling:Electricity [J] !RunPeriod [Value,Min,Month,Day,Hour,Minute,Max,Month,Day,Hour,Minute]
562,11,Fans:Electricity [J] !RunPeriod [Value,Min,Month,Day,Hour,Minute,Max,Month,Day,Hour,Minute]
1379,11,Pumps:Electricity [J] !RunPeriod [Value,Min,Month,Day,Hour,Minute,Max,Month,Day,Hour,Minute]
1326,11,WaterSystems:Electricity [J] !RunPeriod [Value,Min,Month,Day,Hour,Minute,Max,Month,Day,Hour,Minute]
61,11,InteriorLights:Electricity [J] !RunPeriod [Value,Min,Month,Day,Hour,Minute,Max,Month,Day,Hour,Minute]
1046,11,ExteriorLights:Electricity [J] !RunPeriod [Value,Min,Month,Day,Hour,Minute,Max,Month,Day,Hour,Minute]
134,11,InteriorEquipment:Electricity [J] !RunPeriod [Value,Min,Month,Day,Hour,Minute,Max,Month,Day,Hour,Minute]
170,11,gas_dryer:InteriorEquipment:Electricity [J] !RunPeriod [Value,Min,Month,Day,Hour,Minute,Max,Month,Day,Hour,Minute]
207,11,clotheswasher:InteriorEquipment:Electricity [J] !RunPeriod [Value,Min,Month,Day,Hour,Minute,Max,Month,Day,Hour,Minute]
244,11,dishwasher:InteriorEquipment:Electricity [J] !RunPeriod [Value,Min,Month,Day,Hour,Minute,Max,Month,Day,Hour,Minute]
281,11,refrigerator:InteriorEquipment:Electricity [J] !RunPeriod [Value,Min,Month,Day,Hour,Minute,Max,Month,Day,Hour,Minute]
318,11,electric_mels:InteriorEquipment:Electricity [J] !RunPeriod [Value,Min,Month,Day,Hour,Minute,Max,Month,Day,Hour,Minute]
355,11,NaturalGas:Facility [J] !RunPeriod [Value,Min,Month,Day,Hour,Minute,Max,Month,Day,Hour,Minute]
403,11,InteriorEquipment:NaturalGas [J] !RunPeriod [Value,Min,Month,Day,Hour,Minute,Max,Month,Day,Hour,Minute]
476,11,gas_dryer:InteriorEquipment:NaturalGas [J] !RunPeriod [Value,Min,Month,Day,Hour,Minute,Max,Month,Day,Hour,Minute]
513,11,gas_mels:InteriorEquipment:NaturalGas [J] !RunPeriod [Value,Min,Month,Day,Hour,Minute,Max,Month,Day,Hour,Minute]
End of Data Dictionary
1,EXTREME_WINTER,  37.04,-113.51,  -7.00, 879.00
5,15
1038,0.0,0.0,12,22, 1,15,0.0,12,22, 1,15
1039,1.5,0.0,12,22, 1,15,0.25, 1, 1,15,30
581,0.23335184572218634,0.13635121645818382, 1, 3, 4,52,0.563052163151862,12,25, 3,60
582,1.603626892928699,0.0,12,22, 1,15,11.712368741510351,12,25, 3,60
583,0.01834785881571952,0.0001403519008603995,12,31,23,60,0.10650917771388514, 1, 5, 6,37
1115,1277853210.9985855,0.0,12,22,20,30,4821914.540612059, 1, 5, 7,15
1128,412061249.7530939,0.0,12,22,20,30,1661676.1368902181, 1, 5, 7,15
1153,13816140.096651277,0.0,12,22,13,37,69815.47478516295, 1, 1, 6,60
1154,211383318.54255295,0.0,12,22, 6, 5,180000.0,12,22,20,30
1155,5694135.379443273,0.0,12,22, 1,15,1018268.4378734467, 1, 5, 6, 5
1156,5694135.379443273,0.0,12,22, 1,15,1018268.4378734467, 1, 5, 6, 5
1292,-52486115.724716745,-39772.903125281155,12,22, 1,15,-3084.3091165817837,12,30,11,14
1306,696229003.4481114,0.0,12,22, 1,15,4050000.0,12,22, 9,60
1307,287581297.2432579,0.0,12,22, 1,15,14443898.662348779,12,26, 9,60
1308,696229003.4481114,0.0,12,22, 1,15,4050000.0,12,22, 9,60
13,2195298670.5735416,291932.08247556817,12,25, 2,30,6311957.70790543, 1, 5,21,45
61,646981127.1939323,88139.10953165221,12,22, 1,15,1282023.4113694867,12,22,20,15
134,151290040.75163814,63564.01800854099,12,22, 4,15,156554.22484006523,12,27,20,15
170,11185820.069951689,348.4159749238097,12,22, 4,15,17476.39704006126,12,27,12,15
207,13893028.5742839,815.2532113832032,12,22, 3,15,22990.642799023623,12,27,10,15
244,27284301.07562584,1521.856143006317,12,22, 4,15,53038.631142310165,12,27,20,15
281,98926891.03177746,59938.60262432081,12,22, 5,15,81951.81706819107,12,22,19,15
318,0.0,0.0,12,22, 1,15,0.0,12,22, 1,15
355,422701517.16107386,18561.32405820678,12,22, 4,15,724774.895203776,12,27,18,15
403,422701517.16107386,18561.32405820678,12,22, 4,15,724774.895203776,12,27,18,15
476,227882097.80545202,7098.072629279515,12,22, 4,15,356036.3026282215,12,27,12,15
513,0.0,0.0,12,22, 1,15,0.0,12,22, 1,15
562,45134697.16328806,0.0,12,22,20,30,186243.7174196625, 1, 5, 6,45
1046,0.0,0.0,12,22, 1,15,0.0,12,22, 1,15
1096,12708958.244832281,0.0,12,22, 1,15,347769.08109427406, 1, 1,16,60
1134,642954843.7717409,0.0,12,29,17,60,2618745.594334661, 1, 5, 6,15
1326,696229003.4481115,0.0,12,22, 1,15,4050000.0,12,22, 9,60
1379,0.0,0.0,12,22, 1,15,0.0,12,22, 1,15
1,EXTREME_SUMMER,  37.04,-113.51,  -7.00, 879.00
5,7
1038,0.0,0.0, 6,29, 1,15,0.0, 6,29, 1,15
1039,25.5,0.0, 6,29, 1,15,0.25, 6,30,17,15
581,0.14876977646031697,0.0, 7, 2, 6, 7,0.7423533589450323, 7, 5,17,50
582,5.007125554932414,0.1591376934594466, 7, 3, 2,33,23.851836711803266, 7, 5,17,50
583,0.05889729134124262,0.0, 7, 2, 6, 7,0.10679439758065712, 7, 5,17,50
1115,0.0,0.0, 6,29, 1, 7,0.0, 6,29, 1, 7
1128,0.0,0.0, 6,29, 1, 7,0.0, 6,29, 1, 7
1153,0.0,0.0, 6,29, 1, 7,0.0, 6,29, 1, 7
1154,0.0,0.0, 6,29, 1, 7,0.0, 6,29, 1, 7
1155,0.0,0.0, 6,29, 1, 7,0.0, 6,29, 1, 7
1156,0.0,0.0, 6,29, 1, 7,0.0, 6,29, 1, 7
1292,-22004294.12495159,-34302.296985022236, 6,29,22,60,-2580.520470809492, 7, 5, 9,46
1306,215218223.94016472,0.0, 6,29, 1, 7,2025000.0, 6,29,21,30
1307,52430243.61510269,0.0, 6,29, 1, 7,1879057.5765995963, 7, 3,19,35
1308,215218223.94016472,0.0, 6,29, 1, 7,2025000.0, 6,29,21,30
13,1484333051.0869808,373710.8129063186, 6,29, 4,60,7736995.930515144, 7, 3,19,45
61,301924526.02383536,88139.10953165221, 6,29, 1,15,1282023.4113694867, 6,29,20,15
134,70666020.44019976,63564.01800854099, 6,29, 4,15,156554.22484006523, 7, 4,20,15
170,5241013.419656067,348.4159749238097, 6,29, 4,15,17476.39704006126, 7, 4,12,15
207,6509451.13922267,815.2532113832032, 6,29, 3,15,22990.642799023623, 7, 4,10,15
244,12749673.399825225,1521.856143006317, 6,29, 4,15,53038.631142310165, 7, 4,20,15
281,46165882.481495745,59938.60262432081, 6,29, 5,15,81951.81706819107, 6,29,19,15
318,0.0,0.0, 6,29, 1,15,0.0, 6,29, 1,15
355,197687796.27748066,18561.32405820678, 6,29, 4,15,724774.895203776, 7, 4,18,15
403,197687796.27748066,18561.32405820678, 6,29, 4,15,724774.895203776, 7, 4,18,15
476,106772067.24485716,7098.072629279515, 6,29, 4,15,356036.3026282215, 7, 4,12,15
513,0.0,0.0, 6,29, 1,15,0.0, 6,29, 1,15
562,74621883.32255434,22086.38789716436, 6,29, 5,45,187870.26175162353, 6,30,16,60
1046,0.0,0.0, 6,29, 1,15,0.0, 6,29, 1,15
1096,821902397.3602251,194647.59013360145, 6,29, 5,45,2412308.5108587, 7, 4,16,60
1134,0.0,0.0, 6,29, 1,15,0.0, 6,29, 1,15
1326,215218223.94016457,0.0, 6,29, 1,15,4050000.0, 6,29, 9,60
1379,0.0,0.0, 6,29, 1,15,0.0, 6,29, 1,15
1,ANNUAL,  37.04,-113.51,  -7.00, 879.00
5,365
1038,0.0,0.0, 1, 1, 1,15,0.0, 1, 1, 1,15
1039,419.5,0.0, 1, 1, 1,15,0.25, 2,16,14,60
581,0.1983436722319063,0.0, 6, 1,23, 3,1.8985969100488107, 2,18,23,52
582,3.2736748307064665,0.0, 1, 1, 6, 5,39.17358116495022, 6,16,17,52
583,0.03292467086341114,0.0, 6, 9, 6, 7,0.12068649960939226, 6,16,17,52
1115,4914368734.011879,0.0, 1, 1, 1,15,4952507.485151344, 1, 6, 6,30
1128,1589438572.7222018,0.0, 1, 1, 1,15,1695614.6135391437, 1, 6, 7,45
1153,43625231.98405469,0.0, 1, 1, 1,15,92856.5308424547, 2,23, 7,15
1154,1535116682.2760882,0.0, 1, 1, 6, 5,180000.0, 1, 1, 1,15
1155,23207278.692549516,0.0, 1, 1, 1,15,1018268.4378734467, 1, 5, 6, 5
1156,23207278.692549516,0.0, 1, 1, 1,15,1018268.4378734467, 1, 5, 6, 5
1292,-1181160296.6489773,-39797.54938215097, 2,19, 3,60,-1507.256952030934, 4, 7,10, 1
1306,14095705349.460222,0.0, 1, 1, 1,15,4050000.0, 1, 1,21,15
1307,4867572091.53582,0.0, 1, 1, 1,15,14276689.555184383,12,22, 9,60
1308,14095705349.460222,0.0, 1, 1, 1,15,4050000.0, 1, 1,21,15
13,56452625616.66987,151703.1275401932, 1,23, 4,15,7795378.573476687, 6, 6,20,15
61,15743207428.383959,88139.10953165221, 1, 1, 1,15,1282023.4113694867, 1, 1,20,15
134,3685071073.4325233,63564.01800854099, 1, 2, 4,15,156554.22484006523, 1, 1,20,15
170,273393721.45532674,348.4159749238097, 1, 2, 4,15,17476.39704006126, 1, 1,12,15
207,339560869.0695816,815.2532113832032, 1, 2, 3,15,22990.642799023623, 1, 1,10,15
244,664895467.8009144,1521.856143006317, 1, 2, 4,15,53038.631142310165, 1, 1,20,15
281,2407221015.106824,59938.60262432081, 1, 1, 5,15,81951.81706819107, 1, 1,19,15
318,0.0,0.0, 1, 1, 1,15,0.0, 1, 1, 1,15
355,10310294493.051695,18561.32405820678, 1, 2, 4,15,724774.895203776, 1, 1,18,15
403,10310294493.051695,18561.32405820678, 1, 2, 4,15,724774.895203776, 1, 1,18,15
476,5569688622.066177,7098.072629279515, 1, 2, 4,15,356036.3026282215, 1, 1,12,15
513,0.0,0.0, 1, 1, 1,15,0.0, 1, 1, 1,15
562,2034528433.2511637,0.0, 1, 1, 1,15,187870.2617516236, 8, 1,15,45
1046,0.0,0.0, 1, 1, 1,15,0.0, 1, 1, 1,15
1096,17702725566.465057,0.0, 1, 1, 1,15,2402531.8262025574, 7, 4,16,60
1134,3191387765.674884,0.0, 1, 2,15,30,2899266.630853135, 1, 6, 6,15
1326,14095705349.460192,0.0, 1, 1, 1,15,4050000.0000000014, 2,10,10,45
1379,0.0,0.0, 1, 1, 1,15,0.0, 1, 1, 1,15
End of Data
 Number of Records Written=          99
