Program Version,EnergyPlus, Version 22.2.0-c249759bad, YMD=2023.07.07 15:20
1,5,Environment Title[],Latitude[deg],Longitude[deg],Time Zone[],Elevation[m]
2,8,Day of Simulation[],Month[],Day of Month[],DST Indicator[1=yes 0=no],Hour[],StartMinute[],EndMinute[],DayType
3,5,Cumulative Day of Simulation[],Month[],Day of Month[],DST Indicator[1=yes 0=no],DayType  ! When Daily Report Variables Requested
4,2,Cumulative Days of Simulation[],Month[]  ! When Monthly Report Variables Requested
5,1,Cumulative Days of Simulation[] ! When Run Period Report Variables Requested
6,1,Calendar Year of Simulation[] ! When Annual Report Variables Requested
581,11,LIVING,AFN Zone Infiltration Air Change Rate [ach] !RunPeriod [Value,Min,Month,Day,Hour,Minute,Max,Month,Day,Hour,Minute]
582,11,ATTIC,AFN Zone Infiltration Air Change Rate [ach] !RunPeriod [Value,Min,Month,Day,Hour,Minute,Max,Month,Day,Hour,Minute]
583,11,CRAWLSPACE,AFN Zone Infiltration Air Change Rate [ach] !RunPeriod [Value,Min,Month,Day,Hour,Minute,Max,Month,Day,Hour,Minute]
1038,11,Facility,Facility Heating Setpoint Not Met Time [hr] !RunPeriod [Value,Min,Month,Day,Hour,Minute,Max,Month,Day,Hour,Minute]
1039,11,Facility,Facility Cooling Setpoint Not Met Time [hr] !RunPeriod [Value,Min,Month,Day,Hour,Minute,Max,Month,Day,Hour,Minute]
1115,11,DX_HEATING_COIL,Heating Coil Heating Energy [J] !RunPeriod [Value,Min,Month,Day,Hour,Minute,Max,Month,Day,Hour,Minute]
1128,11,DX_HEATING_COIL,Heating Coil Electricity Energy [J] !RunPeriod [Value,Min,Month,Day,Hour,Minute,Max,Month,Day,Hour,Minute]
1153,11,DX_HEATING_COIL,Heating Coil Defrost Electricity Energy [J] !RunPeriod [Value,Min,Month,Day,Hour,Minute,Max,Month,Day,Hour,Minute]
1154,11,DX_HEATING_COIL,Heating Coil Crankcase Heater Electricity Energy [J] !RunPeriod [Value,Min,Month,Day,Hour,Minute,Max,Month,Day,Hour,Minute]
1156,11,HEATING_RESISTANCE_BACKUP,Heating Coil Electricity Energy [J] !RunPeriod [Value,Min,Month,Day,Hour,Minute,Max,Month,Day,Hour,Minute]
13,11,Electricity:Facility [J] !RunPeriod [Value,Min,Month,Day,Hour,Minute,Max,Month,Day,Hour,Minute]
1134,11,Heating:Electricity [J] !RunPeriod [Value,Min,Month,Day,Hour,Minute,Max,Month,Day,Hour,Minute]
1096,11,Cooling:Electricity [J] !RunPeriod [Value,Min,Month,Day,Hour,Minute,Max,Month,Day,Hour,Minute]
562,11,Fans:Electricity [J] !RunPeriod [Value,Min,Month,Day,Hour,Minute,Max,Month,Day,Hour,Minute]
1388,11,Pumps:Electricity [J] !RunPeriod [Value,Min,Month,Day,Hour,Minute,Max,Month,Day,Hour,Minute]
1360,11,WaterSystems:Electricity [J] !RunPeriod [Value,Min,Month,Day,Hour,Minute,Max,Month,Day,Hour,Minute]
61,11,InteriorLights:Electricity [J] !RunPeriod [Value,Min,Month,Day,Hour,Minute,Max,Month,Day,Hour,Minute]
1046,11,ExteriorLights:Electricity [J] !RunPeriod [Value,Min,Month,Day,Hour,Minute,Max,Month,Day,Hour,Minute]
134,11,InteriorEquipment:Electricity [J] !RunPeriod [Value,Min,Month,Day,Hour,Minute,Max,Month,Day,Hour,Minute]
170,11,gas_dryer:InteriorEquipment:Electricity [J] !RunPeriod [Value,Min,Month,Day,Hour,Minute,Max,Month,Day,Hour,Minute]
207,11,clotheswasher:InteriorEquipment:Electricity [J] !RunPeriod [Value,Min,Month,Day,Hour,Minute,Max,Month,Day,Hour,Minute]
244,11,dishwasher:InteriorEquipment:Electricity [J] !RunPeriod [Value,Min,Month,Day,Hour,Minute,Max,Month,Day,Hour,Minute]
281,11,refrigerator:InteriorEquipment:Electricity [J] !RunPeriod [Value,Min,Month,Day,Hour,Minute,Max,Month,Day,Hour,Minute]
318,11,electric_mels:InteriorEquipment:Electricity [J] !RunPeriod [Value,Min,Month,Day,Hour,Minute,Max,Month,Day,Hour,Minute]
355,11,NaturalGas:Facility [J] !RunPeriod [Value,Min,Month,Day,Hour,Minute,Max,Month,Day,Hour,Minute]
1323,11,WaterSystems:NaturalGas [J] !RunPeriod [Value,Min,Month,Day,Hour,Minute,Max,Month,Day,Hour,Minute]
403,11,InteriorEquipment:NaturalGas [J] !RunPeriod [Value,Min,Month,Day,Hour,Minute,Max,Month,Day,Hour,Minute]
476,11,gas_dryer:InteriorEquipment:NaturalGas [J] !RunPeriod [Value,Min,Month,Day,Hour,Minute,Max,Month,Day,Hour,Minute]
513,11,gas_mels:InteriorEquipment:NaturalGas [J] !RunPeriod [Value,Min,Month,Day,Hour,Minute,Max,Month,Day,Hour,Minute]
End of Data Dictionary
1,EXTREME_WINTER,  45.60,-122.61,  -8.00,  12.00
5,15
1038,0.8333333333333333,0.0,12,22, 1,10,0.16666666666666666,12,22, 6,10
1039,0.0,0.0,12,22, 1,10,0.0,12,22, 1,10
581,0.31184296415965734,0.1397875199354656,12,25, 6, 2,0.757415157249435,12,26,11,60
582,5.9859053426285715,0.0,12,29,24,60,19.123979953287357, 1, 1, 2,60
583,6.4803835938709575,0.0001459328556443202, 1, 5,23, 5,20.552347423229108,12,24, 9,60
1115,2939576719.6719265,0.0,12,22,16,20,3399431.5979028773, 1, 1, 6,60
1128,868944300.9638011,0.0,12,22,16,20,1003072.5753091585, 1, 1, 6,60
1153,33905999.6983839,0.0,12,22,13,10,72830.53643416714,12,30, 7,10
1154,152843223.33695576,0.0,12,22, 6, 3,120000.0,12,22,16,20
1156,18712197.905608557,0.0,12,22, 1, 1,783681.397694304,12,30, 6, 3
13,1972655990.7518344,306324.6925987483, 1, 2,15,10,2833893.0933439233, 1, 1, 6,10
61,646981127.1939279,58759.40635443481,12,22, 1,10,854682.2742463244,12,22,20,10
134,151290040.75163832,42376.01200569399,12,22, 4,10,104369.48322671017,12,27,20,10
170,11185820.069951665,232.27731661587313,12,22, 4,10,11650.931360040839,12,27,12,10
207,13893028.574283868,543.5021409221355,12,22, 3,10,15327.095199349082,12,27,10,10
244,27284301.07562606,1014.5707620042115,12,22, 4,10,35359.08742820678,12,27,20,10
281,98926891.03177528,39959.06841621388,12,22, 5,10,54634.54471212738,12,22,19,10
318,0.0,0.0,12,22, 1,10,0.0,12,22, 1,10
355,1574552140.0666153,12374.216038804521,12,22, 4,10,3829218.1540669827,12,23,18,60
403,422701517.161075,12374.216038804521,12,22, 4,10,483183.26346918393,12,27,18,10
476,227882097.80545104,4732.048419519677,12,22, 4,10,237357.535085481,12,27,12,10
513,0.0,0.0,12,22, 1,10,0.0,12,22, 1,10
562,89222300.90151487,0.0,12,22,16,20,101090.5505236172,12,31, 6,30
1046,0.0,0.0,12,22, 1,10,0.0,12,22, 1,10
1096,0.0,0.0,12,22, 1,10,0.0,12,22, 1,10
1134,1074405721.9047506,120000.0,12,22,16,20,2317239.932173486, 1, 1, 6,10
1323,1151850622.9055398,0.0,12,22, 1,10,3375000.000000001,12,26,20,40
1360,10756800.0,4980.0,12,22, 1,30,4980.000000000002,12,22,21,10
1388,0.0,0.0,12,22, 1,10,0.0,12,22, 1,10
1,EXTREME_SUMMER,  45.60,-122.61,  -8.00,  12.00
5,7
1038,0.0,0.0, 7,20, 1,10,0.0, 7,20, 1,10
1039,25.666666666666664,0.0, 7,20, 1,10,0.16666666666666666, 7,20,17,30
581,0.13030397436652819,0.0, 7,21, 1,45,0.3905915955397203, 7,25,21,55
582,3.9121201872604003,0.07154757337344894, 7,23, 8,20,9.970099984612173, 7,26,18,52
583,4.4595465793232325,0.005113558913628474, 7,21, 6, 7,12.150854918816536, 7,23,17,55
1115,0.0,0.0, 7,20, 1, 5,0.0, 7,20, 1, 5
1128,0.0,0.0, 7,20, 1, 5,0.0, 7,20, 1, 5
1153,0.0,0.0, 7,20, 1, 5,0.0, 7,20, 1, 5
1154,0.0,0.0, 7,20, 1, 5,0.0, 7,20, 1, 5
1156,0.0,0.0, 7,20, 1, 5,0.0, 7,20, 1, 5
13,978355245.2871252,120997.13242029808, 7,20, 4,60,2176193.350529206, 7,21,20,10
61,301924526.0238348,58759.40635443481, 7,20, 1,10,854682.2742463244, 7,20,20,10
134,70666020.44019979,42376.01200569399, 7,20, 4,10,104369.48322671017, 7,25,20,10
170,5241013.419656074,232.27731661587313, 7,20, 4,10,11650.931360040839, 7,25,12,10
207,6509451.13922266,543.5021409221355, 7,20, 3,10,15327.095199349082, 7,25,10,10
244,12749673.39982522,1014.5707620042115, 7,20, 4,10,35359.08742820678, 7,25,20,10
281,46165882.48149605,39959.06841621388, 7,20, 5,10,54634.54471212738, 7,20,19,10
318,0.0,0.0, 7,20, 1,10,0.0, 7,20, 1,10
355,637447993.3163514,12374.216038804521, 7,20, 4,10,3829218.154066982, 7,21,18,60
403,197687796.27748126,12374.216038804521, 7,20, 4,10,483183.26346918393, 7,25,18,10
476,106772067.24485692,4732.048419519677, 7,20, 4,10,237357.535085481, 7,25,12,10
513,0.0,0.0, 7,20, 1,10,0.0, 7,20, 1,10
562,54968266.58113578,0.0, 7,20, 6,20,101090.5505236172, 7,20,16,40
1046,0.0,0.0, 7,20, 1,10,0.0, 7,20, 1,10
1096,545776592.2419554,0.0, 7,20, 6,20,1249246.2130643234, 7,21,15,60
1134,0.0,0.0, 7,20, 1,10,0.0, 7,20, 1,10
1323,439760197.0388685,0.0, 7,20, 1,10,3375000.0000000005, 7,22,10,30
1360,5019840.0,4980.0, 7,20, 1,10,4980.000000000002, 7,21,20,30
1388,0.0,0.0, 7,20, 1,10,0.0, 7,20, 1,10
1,ANNUAL,  45.60,-122.61,  -8.00,  12.00
5,365
1038,8.166666666666668,0.0, 1, 1, 1,10,0.16666666666666666, 1, 6, 6,10
1039,111.16666666666667,0.0, 1, 1, 1,10,0.16666666666666666, 4,20,16,60
581,0.2145879410703239,0.0, 5,16, 1,55,0.9170164328168909,11,22, 3,60
582,3.8281100943732587,0.0, 1, 2, 2,60,33.567503340186086,12,18, 4,60
583,4.262810024789827,0.0, 3, 9, 3,60,27.28307848866256,12,18, 4,60
1115,12911657571.45999,0.0, 1, 1,23, 3,3455727.72947156, 1,11, 7,60
1128,3672291801.693828,0.0, 1, 1,23, 3,1009224.5259502614, 1,11, 6,60
1153,165992331.0380825,0.0, 1, 1,23, 3,98912.1843680822,12,18, 6,60
1154,1979260314.893563,0.0, 1, 1, 6, 2,120000.0, 1, 3,15,10
1156,24104715.263461314,0.0, 1, 1, 1, 3,783681.397694304, 1, 2, 6, 3
13,33527079478.764347,106115.4183601288, 3, 9, 4,10,2777818.1822054535, 1,11, 6,10
61,15743207428.39043,58759.40635443481, 1, 1, 1,10,854682.2742463244, 1, 1,20,10
134,3685071073.433083,42376.01200569399, 1, 2, 4,10,104369.48322671017, 1, 1,20,10
170,273393721.45534325,232.27731661587313, 1, 2, 4,10,11650.931360040839, 1, 1,12,10
207,339560869.06955314,543.5021409221355, 1, 2, 3,10,15327.095199349082, 1, 1,10,10
244,664895467.8009839,1014.5707620042115, 1, 2, 4,10,35359.08742820678, 1, 1,20,10
281,2407221015.1057043,39959.06841621388, 1, 1, 5,10,54634.54471212738, 1, 1,19,10
318,0.0,0.0, 1, 1, 1,10,0.0, 1, 1, 1,10
355,35741245301.34685,12374.216038804521, 1, 2, 4,10,3829218.154066984, 5,19,18,30
403,10310294493.052883,12374.216038804521, 1, 2, 4,10,483183.26346918393, 1, 1,18,10
476,5569688622.065564,4732.048419519677, 1, 2, 4,10,237357.535085481, 1, 1,12,10
513,0.0,0.0, 1, 1, 1,10,0.0, 1, 1, 1,10
562,1152646150.5935512,0.0, 1, 2,13,40,101090.55052361722, 6,25,18,60
1046,0.0,0.0, 1, 1, 1,10,0.0, 1, 1, 1,10
1096,6842756863.463693,0.0, 1, 1, 1,10,1249819.1380989715, 7,21,15,60
1134,5841649162.888935,0.0, 1,12,20,40,2266291.984331176, 1,11, 6,10
1323,25430950808.29807,0.0, 1, 1, 1,10,3375000.000000002, 5,19,18,30
1360,261748800.0,4979.999999999998, 4,21,17,60,4980.000000000002, 3,15,16,40
1388,0.0,0.0, 1, 1, 1,10,0.0, 1, 1, 1,10
End of Data
 Number of Records Written=          87
