Program Version,EnergyPlus, Version 22.2.0-c249759bad, YMD=2023.09.01 14:31
1,5,Environment Title[],Latitude[deg],Longitude[deg],Time Zone[],Elevation[m]
2,8,Day of Simulation[],Month[],Day of Month[],DST Indicator[1=yes 0=no],Hour[],StartMinute[],EndMinute[],DayType
3,5,Cumulative Day of Simulation[],Month[],Day of Month[],DST Indicator[1=yes 0=no],DayType  ! When Daily Report Variables Requested
4,2,Cumulative Days of Simulation[],Month[]  ! When Monthly Report Variables Requested
5,1,Cumulative Days of Simulation[] ! When Run Period Report Variables Requested
6,1,Calendar Year of Simulation[] ! When Annual Report Variables Requested
7,1,Environment,Site Outdoor Air Drybulb Temperature [C] !Hourly
545,1,LIVING,Zone Mean Air Temperature [C] !Hourly
546,1,ATTIC,Zone Mean Air Temperature [C] !Hourly
547,1,CRAWLSPACE,Zone Mean Air Temperature [C] !Hourly
548,1,FAN,Fan Electricity Rate [W] !Hourly
720,1,LIVING,Zone Predicted Sensible Load to Heating Setpoint Heat Transfer Rate [W] !Hourly
721,1,LIVING,Zone System Predicted Sensible Load to Heating Setpoint Heat Transfer Rate [W] !Hourly
784,1,ATTIC,Zone Predicted Sensible Load to Heating Setpoint Heat Transfer Rate [W] !Hourly
785,1,ATTIC,Zone System Predicted Sensible Load to Heating Setpoint Heat Transfer Rate [W] !Hourly
848,1,CRAWLSPACE,Zone Predicted Sensible Load to Heating Setpoint Heat Transfer Rate [W] !Hourly
849,1,CRAWLSPACE,Zone System Predicted Sensible Load to Heating Setpoint Heat Transfer Rate [W] !Hourly
1121,1,DX_HEATING_COIL,Heating Coil Heating Rate [W] !Hourly
1135,1,DX_HEATING_COIL,Heating Coil Electricity Rate [W] !Hourly
1161,1,DX_HEATING_COIL,Heating Coil Defrost Electricity Rate [W] !Hourly
1163,1,DX_HEATING_COIL,Heating Coil Crankcase Heater Electricity Rate [W] !Hourly
1166,1,HEATING_RESISTANCE_BACKUP,Heating Coil Heating Rate [W] !Hourly
1168,1,HEATING_RESISTANCE_BACKUP,Heating Coil Electricity Rate [W] !Hourly
End of Data Dictionary
1,EXTREME_WINTER,  39.50,-119.77,  -8.00,1344.20
2,1,12,22, 0, 1, 0.00,60.00,Monday
7,3.3
545,18.625518980544637
546,3.1282020940034276
547,19.137724539264138
548,38.375343714425036
720,892.2865814155593
721,892.2865814155593
784,0.0
785,0.0
848,0.0
849,0.0
1121,1109.9586164293453
1135,343.4651122455771
1161,31.540036069477203
1163,160.14727447516165
1166,0.0
1168,0.0
2,1,12,22, 0, 2, 0.00,60.00,Monday
7,2.8
545,18.574198373532916
546,3.147787774472252
547,18.832268568740016
548,49.86585658150397
720,1103.1238039092277
721,1103.1238039092277
784,0.0
785,0.0
848,0.0
849,0.0
1121,1394.0446364372694
1135,435.081343468216
1161,49.320080706142285
1163,148.07545954149464
1166,0.0
1168,0.0
2,1,12,22, 0, 3, 0.00,60.00,Monday
7,2.8
545,18.547004497580982
546,3.4393308580202064
547,18.662423794868587
548,58.198739568506475
720,1285.0969908742318
721,1285.0969908742318
784,0.0
785,0.0
848,0.0
849,0.0
1121,1635.4592584371724
1135,507.1177093643297
1161,57.57668386413847
1163,139.39855995852898
1166,0.0
1168,0.0
2,1,12,22, 0, 4, 0.00,60.00,Monday
7,2.0
545,18.56775820511101
546,3.4501184689833035
547,18.484314261494003
548,68.68529505514054
720,1463.1044926784616
721,1463.1044926784616
784,0.0
785,0.0
848,0.0
849,0.0
1121,1867.4195816234721
1135,584.681634487065
1161,75.82005219740219
1163,128.23801449905133
1166,0.0
1168,0.0
2,1,12,22, 0, 5, 0.00,60.00,Monday
7,2.2
545,18.594988324524614
546,3.497370582281457
547,18.33948501345775
548,68.8356507917933
720,1480.5943882804313
721,1480.5943882804313
784,0.0
785,0.0
848,0.0
849,0.0
1121,1904.0027924951764
1135,593.4343275649229
1161,70.94860092035324
1163,128.1855713147421
1166,0.0
1168,0.0
2,1,12,22, 0, 6, 0.00,60.00,Monday
7,2.2
545,19.39798491060676
546,3.9669522263913786
547,18.17981589618394
548,101.78277352167598
720,2306.118099950705
721,2306.118099950705
784,0.0
785,0.0
848,0.0
849,0.0
1121,2907.2672465663622
1135,887.8298221777882
1161,97.18937835393153
1163,93.91175074746663
1166,0.0
1168,0.0
2,1,12,22, 0, 7, 0.00,60.00,Monday
7,2.2
545,19.6351269913829
546,3.8917230582399767
547,18.076107339671623
548,99.39620781319952
720,2179.688957850385
721,2179.688957850385
784,0.0
785,0.0
848,0.0
849,0.0
1121,2824.3680629417318
1135,880.7470650978399
1161,94.89009402020343
1163,96.39557251824824
1166,0.0
1168,0.0
2,1,12,22, 0, 8, 0.00,60.00,Monday
7,2.2
545,19.74093355149113
546,3.96718569212494
547,17.963344830780493
548,89.23946587367409
720,1882.4748371560654
721,1882.4748371560654
784,0.0
785,0.0
848,0.0
849,0.0
1121,2481.697058157116
1135,783.9679710480943
1161,93.01863041010084
1163,106.880109781498
1166,0.0
1168,0.0
2,1,12,22, 0, 9, 0.00,60.00,Monday
7,2.2
545,19.728310250354667
546,4.122541288692852
547,17.855377077906724
548,85.80718613126595
720,1808.7516753994332
721,1808.7516753994332
784,0.0
785,0.0
848,0.0
849,0.0
1121,2380.1414440295202
1135,755.3253154378141
1161,89.44149201384626
1163,110.46114224012516
1166,0.0
1168,0.0
2,1,12,22, 0,10, 0.00,60.00,Monday
7,3.3
545,19.7647334178291
546,4.882248273687894
547,17.756889654878645
548,77.79994528402393
720,1688.7929659449055
721,1688.7929659449055
784,0.0
785,0.0
848,0.0
849,0.0
1121,2218.0488950273343
1135,691.9740356491882
1161,79.29320331068863
1163,119.05383782560186
1166,0.0
1168,0.0
2,1,12,22, 0,11, 0.00,60.00,Monday
7,3.3
545,19.74488219960826
546,5.661738520119132
547,17.65881883850405
548,71.75397614947444
720,1559.7892941574191
721,1559.7892941574191
784,0.0
785,0.0
848,0.0
849,0.0
1121,2037.9804785423883
1135,638.6158837807999
1161,73.1312868430169
1163,125.34420659457322
1166,0.0
1168,0.0
2,1,12,22, 0,12, 0.00,60.00,Monday
7,4.4
545,19.7753105682648
546,6.64780622527573
547,17.570443764319315
548,60.312302485140115
720,1376.2509652122444
721,1376.2509652122444
784,0.0
785,0.0
848,0.0
849,0.0
1121,1784.1388468497853
1135,550.810164227678
1161,54.37093052644228
1163,137.4549073586971
1166,0.0
1168,0.0
2,1,12,22, 0,13, 0.00,60.00,Monday
7,3.9
545,19.686671905343164
546,6.204032471928636
547,17.482236571946807
548,58.07014918020529
720,1354.3808971432009
721,1354.3808971432009
784,0.0
785,0.0
848,0.0
849,0.0
1121,1727.8892011931057
1135,538.8524206902938
1161,45.10781782745553
1163,139.77788683274898
1166,0.0
1168,0.0
2,1,12,22, 0,14, 0.00,60.00,Monday
7,3.9
545,19.58824628623846
546,5.783266761694513
547,17.400609645553953
548,62.52359533237123
720,1490.155212249465
721,1490.155212249465
784,0.0
785,0.0
848,0.0
849,0.0
1121,1886.3541924341775
1135,585.1193739996423
1161,44.31580793274473
1163,135.19201889095388
1166,0.0
1168,0.0
2,1,12,22, 0,15, 0.00,60.00,Monday
7,3.3
545,19.806245103680503
546,5.714712759343143
547,17.32092582123818
548,71.87348953007663
720,1666.4266547517655
721,1666.4266547517655
784,0.0
785,0.0
848,0.0
849,0.0
1121,2112.5757018196014
1135,657.6627597609836
1161,58.48385229698773
1163,125.36257912064204
1166,0.0
1168,0.0
2,1,12,22, 0,16, 0.00,60.00,Monday
7,2.8
545,19.709873878013614
546,5.024729367413557
547,17.246930875833016
548,68.36397325276404
720,1526.0890595627825
721,1526.0890595627825
784,0.0
785,0.0
848,0.0
849,0.0
1121,1965.6538244931812
1135,622.4006114997757
1161,58.17979882854832
1163,128.91397107992356
1166,0.0
1168,0.0
2,1,12,22, 0,17, 0.00,60.00,Monday
7,2.8
545,19.739875531043367
546,4.642301392569668
547,17.16867644333942
548,61.27138369332563
720,1348.3515540599055
721,1348.3515540599055
784,0.0
785,0.0
848,0.0
849,0.0
1121,1755.133361237365
1135,556.7566073291653
1161,52.14360210237643
1163,136.28919862769183
1166,0.0
1168,0.0
2,1,12,22, 0,18, 0.00,60.00,Monday
7,2.8
545,19.773399046008468
546,4.243957793169393
547,17.093600887502465
548,50.72137070750395
720,1106.5972987857895
721,1106.5972987857895
784,0.0
785,0.0
848,0.0
849,0.0
1121,1456.2331972501242
1135,464.90648996010424
1161,40.42060553986495
1163,147.28848230478937
1166,0.0
1168,0.0
2,1,12,22, 0,19, 0.00,60.00,Monday
7,2.2
545,19.71865865755219
546,3.8006549513916497
547,17.018266403911042
548,40.57658910191827
720,863.9854904402837
721,863.9854904402837
784,0.0
785,0.0
848,0.0
849,0.0
1121,1150.2339572852882
1135,373.68517369435256
1161,30.014486693550552
1163,157.8126911901289
1166,0.0
1168,0.0
2,1,12,22, 0,20, 0.00,60.00,Monday
7,2.8
545,19.808532438436416
546,3.7675451402187212
547,16.94554110827263
548,34.85231532050475
720,747.4917593212122
721,747.4917593212122
784,0.0
785,0.0
848,0.0
849,0.0
1121,992.6866379093417
1135,319.6629804652203
1161,27.508064312856447
1163,163.78303554528117
1166,0.0
1168,0.0
2,1,12,22, 0,21, 0.00,60.00,Monday
7,2.8
545,19.783352027247634
546,3.4419075573846984
547,16.87379234266404
548,28.738985943752446
720,609.9680418876596
721,609.9680418876596
784,0.0
785,0.0
848,0.0
849,0.0
1121,814.3227615022524
1135,263.7470967374068
1161,22.902570347914686
1163,170.13332120991413
1166,0.0
1168,0.0
2,1,12,22, 0,22, 0.00,60.00,Monday
7,2.8
545,19.71767764700572
546,3.133659074241277
547,16.801668206891264
548,32.621833522668645
720,701.7131295710205
721,701.7131295710205
784,0.0
785,0.0
848,0.0
849,0.0
1121,918.4619010964964
1135,296.75552520485417
1161,27.78906054834022
1163,166.07901361855494
1166,0.0
1168,0.0
2,1,12,22, 0,23, 0.00,60.00,Monday
7,2.8
545,18.72185229848448
546,2.461351555081983
547,16.728278686315342
548,7.278631117676775
720,114.98694577927745
721,114.98694577927745
784,0.0
785,0.0
848,0.0
849,0.0
1121,202.00642836575844
1135,66.13065017547076
1161,6.200321241640414
1163,192.43151771782976
1166,0.0
1168,0.0
2,1,12,22, 0,24, 0.00,60.00,Monday
7,2.0
545,18.454045708864005
546,2.5853254248254496
547,16.649348590464907
548,23.713289881125892
720,541.1228287441836
721,541.1228287441836
784,0.0
785,0.0
848,0.0
849,0.0
1121,683.2047272279246
1135,218.8113638852035
1161,13.549652262834686
1163,175.38639437653072
1166,0.0
1168,0.0
2,2,12,23, 0, 1, 0.00,60.00,Tuesday
7,2.2
545,18.51930869442517
546,2.958643780793731
547,16.568660761393136
548,45.72004211733183
720,1078.3849436634719
721,1078.3849436634719
784,0.0
785,0.0
848,0.0
849,0.0
1121,1351.2800781953495
1135,422.6732670304496
1161,24.29770415868062
1163,152.57743727159118
1166,0.0
1168,0.0
2,2,12,23, 0, 2, 0.00,60.00,Tuesday
7,2.2
545,18.549551345208002
546,3.2614544365646387
547,16.490484236840445
548,59.467119766176914
720,1380.3223227890703
721,1380.3223227890703
784,0.0
785,0.0
848,0.0
849,0.0
1121,1753.9065005426355
1135,545.3371443152598
1161,35.430811588445025
1163,138.27500857242455
1166,0.0
1168,0.0
2,2,12,23, 0, 3, 0.00,60.00,Tuesday
7,2.2
545,18.609597437487803
546,3.2391985207879936
547,16.41288806187557
548,66.4916836207329
720,1514.9517048918551
721,1514.9517048918551
784,0.0
785,0.0
848,0.0
849,0.0
1121,1943.4316656915803
1135,602.6679923583669
1161,45.21712500891447
1163,130.91887530903716
1166,0.0
1168,0.0
2,2,12,23, 0, 4, 0.00,60.00,Tuesday
7,2.2
545,18.598402015070906
546,3.0258964239806208
547,16.337055218237047
548,69.61508647224628
720,1578.670130914099
721,1578.670130914099
784,0.0
785,0.0
848,0.0
849,0.0
1121,2037.8742727895149
1135,631.6385280200035
1161,47.36236581666947
1163,127.6734555632179
1166,0.0
1168,0.0
2,2,12,23, 0, 5, 0.00,60.00,Tuesday
7,2.2
545,18.609457563772885
546,2.874876021581785
547,16.26323908818455
548,68.85028952100613
720,1550.382100553552
721,1550.382100553552
784,0.0
785,0.0
848,0.0
849,0.0
1121,2014.7056360809984
1135,624.523281209162
1161,46.84201688569146
1163,128.468074654348
1166,0.0
1168,0.0
2,2,12,23, 0, 6, 0.00,60.00,Tuesday
7,1.7
545,19.31185080259357
546,3.4792695189361535
547,16.18623331045846
548,105.95042603029705
720,2499.09445196044
721,2499.09445196044
784,0.0
785,0.0
848,0.0
849,0.0
1121,3179.150329322162
1135,971.6054760491321
1161,61.19846052286877
1163,89.97568873364908
1166,0.0
1168,0.0
2,2,12,23, 0, 7, 0.00,60.00,Tuesday
7,1.0
545,19.59856869751351
546,3.4986016100430772
547,16.135759419903767
548,111.35671950805603
720,2483.689102299313
721,2483.689102299313
784,0.0
785,0.0
848,0.0
849,0.0
1121,3241.87748877092
1135,1018.9065689713083
1161,72.75064791010573
1163,84.12430327307925
1166,0.0
1168,0.0
2,2,12,23, 0, 8, 0.00,60.00,Tuesday
7,1.7
545,19.751182156701258
546,3.8210444487485895
547,16.076666394864123
548,90.27542070013517
720,1979.8933303838312
721,1979.8933303838312
784,0.0
785,0.0
848,0.0
849,0.0
1121,2645.2619102239646
1135,836.6453798549522
1161,57.72338728872765
1163,106.17899050225299
1166,0.0
1168,0.0
2,2,12,23, 0, 9, 0.00,60.00,Tuesday
7,1.7
545,19.864461652083154
546,5.5283286934057045
547,16.01352060648425
548,52.04284504751817
720,1064.9435745278115
721,1064.9435745278115
784,0.0
785,0.0
848,0.0
849,0.0
1121,1489.4592509440326
1135,483.8219898312416
1161,33.28032697331336
1163,145.91281505952873
1166,0.0
1168,0.0
2,2,12,23, 0,10, 0.00,60.00,Tuesday
7,2.8
545,19.81528162819335
546,7.252116869911371
547,15.971196852639128
548,38.88808312482806
720,858.947742095892
721,858.947742095892
784,0.0
785,0.0
848,0.0
849,0.0
1121,1151.3760135855455
1135,369.93967856361746
1161,21.542585221494484
1163,159.68255675549412
1166,0.0
1168,0.0
2,2,12,23, 0,11, 0.00,60.00,Tuesday
7,2.8
545,19.72927918692183
546,8.790918392323418
547,15.940039609638198
548,39.11173724341723
720,904.4444615770681
721,904.4444615770681
784,0.0
785,0.0
848,0.0
849,0.0
1121,1158.4302981699257
1135,371.69448380476564
1161,21.666455787605173
1163,159.4507301447376
1166,0.0
1168,0.0
2,2,12,23, 0,12, 0.00,60.00,Tuesday
7,3.3
545,19.826784785533416
546,12.810546642393714
547,15.910368429142823
548,22.71901817468258
720,521.155743029487
721,521.155743029487
784,0.0
785,0.0
848,0.0
849,0.0
1121,678.4387442984278
1135,217.30351887607833
1161,11.957318304844947
1163,176.46565911399702
1166,0.0
1168,0.0
2,2,12,23, 0,13, 0.00,60.00,Tuesday
7,3.3
545,19.708547110440854
546,13.037865246849591
547,15.889632114767723
548,8.45681101497134
720,188.20855066649165
721,188.20855066649165
784,0.0
785,0.0
848,0.0
849,0.0
1121,250.33782519642918
1135,81.03774431383677
1161,4.4558261239197705
1163,191.23963901955915
1166,0.0
1168,0.0
2,2,12,23, 0,14, 0.00,60.00,Tuesday
7,3.9
545,20.003282731279477
546,14.468075589038156
547,15.885087903634275
548,0.0
720,-217.4291377458976
721,-217.4291377458976
784,0.0
785,0.0
848,0.0
849,0.0
1121,0.0
1135,0.0
1161,0.0
1163,200.0
1166,0.0
1168,0.0
2,2,12,23, 0,15, 0.00,60.00,Tuesday
7,5.0
545,20.868478100747918
546,14.748028146286664
547,15.90081487788248
548,0.0
720,-798.7568387987794
721,-798.7568387987794
784,0.0
785,0.0
848,0.0
849,0.0
1121,0.0
1135,0.0
1161,0.0
1163,200.0
1166,0.0
1168,0.0
2,2,12,23, 0,16, 0.00,60.00,Tuesday
7,5.0
545,21.68591021856675
546,14.205994466058963
547,15.93362748695093
548,0.0
720,-1357.5059138684628
721,-1357.5059138684628
784,0.0
785,0.0
848,0.0
849,0.0
1121,0.0
1135,0.0
1161,0.0
1163,200.0
1166,0.0
1168,0.0
2,2,12,23, 0,17, 0.00,60.00,Tuesday
7,5.0
545,21.675094861417865
546,11.472980842210099
547,15.979050149047362
548,0.0
720,-1327.6731794689767
721,-1327.6731794689767
784,0.0
785,0.0
848,0.0
849,0.0
1121,0.0
1135,0.0
1161,0.0
1163,200.0
1166,0.0
1168,0.0
2,2,12,23, 0,18, 0.00,60.00,Tuesday
7,1.7
545,20.942358329427076
546,7.9109641419137375
547,16.021757326930896
548,0.0
720,-803.9006843515999
721,-803.9006843515999
784,0.0
785,0.0
848,0.0
849,0.0
1121,0.0
1135,0.0
1161,0.0
1163,200.0
1166,0.0
1168,0.0
2,2,12,23, 0,19, 0.00,60.00,Tuesday
7,1.7
545,20.90893212745178
546,5.035492150448097
547,16.044119746943842
548,0.0
720,-874.0834252130062
721,-874.0834252130062
784,0.0
785,0.0
848,0.0
849,0.0
1121,0.0
1135,0.0
1161,0.0
1163,200.0
1166,0.0
1168,0.0
2,2,12,23, 0,20, 0.00,60.00,Tuesday
7,1.1
545,20.71343342195802
546,3.2196936069265347
547,16.0426648998938
548,0.0
720,-672.37068844854
721,-672.37068844854
784,0.0
785,0.0
848,0.0
849,0.0
1121,0.0
1135,0.0
1161,0.0
1163,200.0
1166,0.0
1168,0.0
2,2,12,23, 0,21, 0.00,60.00,Tuesday
7,-0.6
545,20.273975168083386
546,1.5741482273999
547,16.024118266275085
548,0.0
720,-370.2781177574816
721,-370.2781177574816
784,0.0
785,0.0
848,0.0
849,0.0
1121,0.0
1135,0.0
1161,0.0
1163,200.0
1166,0.0
1168,0.0
2,2,12,23, 0,22, 0.00,60.00,Tuesday
7,-0.6
545,19.795106680977668
546,0.1348298333217402
547,15.99127260059675
548,0.0
720,-51.32481752046442
721,-51.32481752046442
784,0.0
785,0.0
848,0.0
849,0.0
1121,0.0
1135,0.0
1161,0.0
1163,200.0
1166,0.0
1168,0.0
2,2,12,23, 0,23, 0.00,60.00,Tuesday
7,-0.6
545,19.057257189589162
546,-1.2151575113478703
547,15.943664266510554
548,0.0
720,-306.5807718325723
721,-306.5807718325723
784,0.0
785,0.0
848,0.0
849,0.0
1121,0.0
1135,0.0
1161,0.0
1163,200.0
1166,0.0
1168,0.0
2,2,12,23, 0,24, 0.00,60.00,Tuesday
7,-2.2
545,18.561657400330606
546,-1.587580827407092
547,15.880329015770528
548,23.448054210228324
720,450.4448737821913
721,450.4448737821913
784,0.0
785,0.0
848,0.0
849,0.0
1121,591.7619960423915
1135,208.04444162267322
1161,16.060025731767738
1163,175.44885661679578
1166,0.0
1168,0.0
2,3,12,24, 0, 1, 0.00,60.00,Wednesday
7,-2.2
545,18.479073171799815
546,-1.5847832536259279
547,15.801716086835695
548,47.43456892973287
720,925.2697726298238
721,925.2697726298238
784,0.0
785,0.0
848,0.0
849,0.0
1121,1217.1845713415514
1135,416.6497285806442
1161,32.51424665837821
1163,150.3351728643615
1166,0.0
1168,0.0
2,3,12,24, 0, 2, 0.00,60.00,Wednesday
7,-1.1
545,18.608830425736038
546,-1.8160416765366088
547,15.723201237640001
548,64.59084879914991
720,1292.791287632208
721,1292.791287632208
784,0.0
785,0.0
848,0.0
849,0.0
1121,1725.6908564626033
1135,570.1864993417981
1161,44.43802550733366
1163,132.50895281737414
1166,0.0
1168,0.0
2,3,12,24, 0, 3, 0.00,60.00,Wednesday
7,-2.2
545,18.42259947907984
546,-1.2317555424298612
547,15.632386089114155
548,88.73679357431769
720,1724.665826829847
721,1724.665826829847
784,0.0
785,0.0
848,0.0
849,0.0
1121,2333.338944170095
1135,779.7956765791706
1161,60.919826577645026
1163,107.08849899931306
1166,0.0
1168,0.0
2,3,12,24, 0, 4, 0.00,60.00,Wednesday
7,-2.2
545,18.51870453202881
546,-0.9521924308873637
547,15.539158585609567
548,108.43987840166449
720,2108.283020129822
721,2108.283020129822
784,0.0
785,0.0
848,0.0
849,0.0
1121,2861.8972256181933
1135,941.6719285213183
1161,81.0822241258469
1163,86.29728146099696
1166,0.0
1168,0.0
2,3,12,24, 0, 5, 0.00,60.00,Wednesday
7,-2.2
545,18.557668229991723
546,-0.78357757855293
547,15.454106048956273
548,115.87922190533202
720,2237.521069366114
721,2237.521069366114
784,0.0
785,0.0
848,0.0
849,0.0
1121,3070.8710706188845
1135,1008.0729588466606
1161,86.64538476214044
1163,78.4959847546563
1166,0.0
1168,0.0
2,3,12,24, 0, 6, 0.00,60.00,Wednesday
7,-1.1
545,19.32706174402153
546,-0.03794591223616723
547,15.375038221030492
548,147.15279550306886
720,3071.3274481000735
721,3071.3274481000735
784,0.0
785,0.0
848,0.0
849,0.0
1121,4133.397528756777
1135,1299.8592226030296
1161,101.4718408825965
1163,46.2346031634427
1166,0.0
1168,0.0
2,3,12,24, 0, 7, 0.00,60.00,Wednesday
7,1.1
545,19.66691367746396
546,0.8679478335279276
547,15.332166926502541
548,127.12787410721891
720,2777.0737777808354
721,2777.0737777808354
784,0.0
785,0.0
848,0.0
849,0.0
1121,3813.2561471305307
1135,1182.1775259344197
1161,68.61993846630034
1163,67.94136331442273
1166,0.0
1168,0.0
2,3,12,24, 0, 8, 0.00,60.00,Wednesday
7,2.8
545,19.76233345845077
546,2.4569160706680098
547,15.26026710453608
548,105.31487106377546
720,2386.231456186466
721,2386.231456186466
784,0.0
785,0.0
848,0.0
849,0.0
1121,3279.150342001825
1135,1006.2230812597855
1161,51.669231601246715
1163,90.87996908843652
1166,0.0
1168,0.0
2,3,12,24, 0, 9, 0.00,60.00,Wednesday
7,4.4
545,19.280334401930446
546,5.564204945153352
547,15.201170026247265
548,113.05072168417168
720,2800.275937413795
721,2800.275937413795
784,0.0
785,0.0
848,0.0
849,0.0
1121,3728.283850426791
1135,1109.1418238817478
1161,46.753719447161956
1163,83.10966141227216
1166,0.0
1168,0.0
2,3,12,24, 0,10, 0.00,60.00,Wednesday
7,5.6
545,19.893791523787584
546,6.935588179621557
547,15.119725087494066
548,84.456363596249
720,2682.2105842633046
721,2682.2105842633046
784,0.0
785,0.0
848,0.0
849,0.0
1121,3436.5259090421227
1135,923.9864118671671
1161,0.0
1163,112.8667113020543
1166,0.0
1168,0.0
2,3,12,24, 0,11, 0.00,60.00,Wednesday
7,5.6
545,19.81220993617923
546,8.07077259101082
547,15.070827549685381
548,56.637125089779474
720,1741.4551647339104
721,1741.4551647339104
784,0.0
785,0.0
848,0.0
849,0.0
1121,2260.782697863668
1135,626.9243543234749
1161,0.0
1163,141.56770714091462
1166,0.0
1168,0.0
2,3,12,24, 0,12, 0.00,60.00,Wednesday
7,7.8
545,19.68007627440814
546,9.628063236836843
547,15.043595373631065
548,52.39003981209412
720,1751.2967453993406
721,1751.2967453993406
784,0.0
785,0.0
848,0.0
849,0.0
1121,2205.457708217273
1135,592.7386555335106
1161,0.0
1163,145.94940784252745
1166,0.0
1168,0.0
2,3,12,24, 0,13, 0.00,60.00,Wednesday
7,9.4
545,20.235566780665746
546,10.741480871244315
547,15.027953920612118
548,47.48290237038153
720,1679.1976450278944
721,1679.1976450278944
784,0.0
785,0.0
848,0.0
849,0.0
1121,2074.235501550369
1135,545.9741888870391
1161,0.0
1163,151.01208169186938
1166,0.0
1168,0.0
2,3,12,24, 0,14, 0.00,60.00,Wednesday
7,10.0
545,19.76443076555477
546,11.768661007879075
547,14.988349409362728
548,11.278441255052568
720,346.80388831640994
721,346.80388831640994
784,0.0
785,0.0
848,0.0
849,0.0
1121,488.4503876544448
1135,131.94854190458292
1161,0.0
1163,0.0
1166,0.0
1168,0.0
2,3,12,24, 0,15, 0.00,60.00,Wednesday
7,8.9
545,20.486670116911995
546,12.89425325721095
547,14.989773559585624
548,0.0
720,-108.70471538355741
721,-108.70471538355741
784,0.0
785,0.0
848,0.0
849,0.0
1121,0.0
1135,0.0
1161,0.0
1163,200.0
1166,0.0
1168,0.0
2,3,12,24, 0,16, 0.00,60.00,Wednesday
7,5.0
545,20.275225910146972
546,11.340085521272114
547,15.018689329430005
548,0.0
720,-376.4150404309912
721,-376.4150404309912
784,0.0
785,0.0
848,0.0
849,0.0
1121,0.0
1135,0.0
1161,0.0
1163,200.0
1166,0.0
1168,0.0
2,3,12,24, 0,17, 0.00,60.00,Wednesday
7,5.0
545,20.042773002734055
546,9.200703393393477
547,15.059660294273192
548,0.0
720,-223.88717660600742
721,-223.88717660600742
784,0.0
785,0.0
848,0.0
849,0.0
1121,0.0
1135,0.0
1161,0.0
1163,200.0
1166,0.0
1168,0.0
2,3,12,24, 0,18, 0.00,60.00,Wednesday
7,3.3
545,19.739162424461323
546,6.231422745620943
547,15.102506824472757
548,11.529221406358365
720,248.78420666836973
721,248.78420666836973
784,0.0
785,0.0
848,0.0
849,0.0
1121,329.2168253663163
1135,107.04880884496211
1161,8.798396781058338
1163,188.03269303685636
1166,0.0
1168,0.0
2,3,12,24, 0,19, 0.00,60.00,Wednesday
7,2.8
545,19.828848079783313
546,5.400479791561572
547,15.12299290499908
548,14.561453009337143
720,311.56593334882564
721,311.56593334882564
784,0.0
785,0.0
848,0.0
849,0.0
1121,399.5590880149215
1135,130.19841288068642
1161,13.83170889610825
1163,184.84312679729084
1166,0.0
1168,0.0
2,3,12,24, 0,20, 0.00,60.00,Wednesday
7,2.2
545,19.93777472197268
546,4.532395323313346
547,15.121974883493895
548,13.446617207671878
720,275.918907057634
721,275.918907057634
784,0.0
785,0.0
848,0.0
849,0.0
1121,361.4158816229805
1135,119.52347752437709
1161,13.102482140859246
1163,185.98047350904156
1166,0.0
1168,0.0
2,3,12,24, 0,21, 0.00,60.00,Wednesday
7,2.2
545,20.003680193042033
546,3.9207285230673135
547,15.10596787267657
548,9.606756903859075
720,192.2091487518719
721,192.2091487518719
784,0.0
785,0.0
848,0.0
849,0.0
1121,259.9514280943362
1135,86.32990059259461
1161,8.79992381765628
1163,189.99102518798406
1166,0.0
1168,0.0
2,3,12,24, 0,22, 0.00,60.00,Wednesday
7,2.2
545,19.635019575410276
546,3.376498086101483
547,15.081195553444724
548,11.676920874030184
720,240.70479473085106
721,240.70479473085106
784,0.0
785,0.0
848,0.0
849,0.0
1121,316.67400609804633
1135,105.19631948240347
1161,10.59896059547413
1163,187.83537776016684
1166,0.0
1168,0.0
2,3,12,24, 0,23, 0.00,60.00,Wednesday
7,2.2
545,18.823470521161706
546,2.4756430618421597
547,15.041485336789727
548,2.8229803310524972
720,45.69980707506784
721,45.69980707506784
784,0.0
785,0.0
848,0.0
849,0.0
1121,77.1815413323591
1135,25.51814028530395
1161,2.3612730480244712
1163,197.06166664118564
1166,0.0
1168,0.0
2,3,12,24, 0,24, 0.00,60.00,Wednesday
7,1.1
545,17.938918057958226
546,1.8372988628360276
547,14.99972265721433
548,18.571273795831694
720,430.9940085349508
721,430.9940085349508
784,0.0
785,0.0
848,0.0
849,0.0
1121,538.158035380946
1135,175.42802471822392
1161,6.6112193418197265
1163,180.75563483583602
1166,0.0
1168,0.0
2,4,12,25, 0, 1, 0.00,60.00,Thursday
7,0.6
545,18.51342189978713
546,1.6284298727462452
547,14.946279764546393
548,53.44354442616969
720,1274.4623771917786
721,1274.4623771917786
784,0.0
785,0.0
848,0.0
849,0.0
1121,1588.659849762886
1135,500.500312709546
1161,13.893462112668189
1163,144.67134988565667
1166,0.0
1168,0.0
2,4,12,25, 0, 2, 0.00,60.00,Thursday
7,0.6
545,18.11190656830892
546,1.8091437121682772
547,14.896549099040184
548,74.85353354171905
720,1798.3804785643151
721,1798.3804785643151
784,0.0
785,0.0
848,0.0
849,0.0
1121,2304.9230146766718
1135,725.3822995518298
1161,6.472317205791195
1163,122.68665444790415
1166,0.0
1168,0.0
2,4,12,25, 0, 3, 0.00,60.00,Thursday
7,0.0
545,18.487551627947415
546,1.6770793194524354
547,14.822393741250036
548,103.29183812010646
720,2470.4395047605103
721,2470.4395047605103
784,0.0
785,0.0
848,0.0
849,0.0
1121,3172.1510090510938
1135,982.8823178531801
1161,12.868800464864249
1163,93.24137793153933
1166,0.0
1168,0.0
2,4,12,25, 0, 4, 0.00,60.00,Thursday
7,-0.6
545,18.446848868647663
546,1.3801886972115451
547,14.762513941671097
548,120.76079214843433
720,2823.1770379946574
721,2823.1770379946574
784,0.0
785,0.0
848,0.0
849,0.0
1121,3687.45549944331
1135,1153.3898907713701
1161,13.58595876287106
1163,75.18743338884337
1166,0.0
1168,0.0
2,4,12,25, 0, 5, 0.00,60.00,Thursday
7,-0.6
545,18.54746599568805
546,1.3358207921040188
547,14.685479754520513
548,127.41209479827826
720,2960.13364634183
721,2960.13364634183
784,0.0
785,0.0
848,0.0
849,0.0
1121,3907.283205632921
1135,1215.8399551929012
1161,14.334244936590009
1163,68.31301844826932
1166,0.0
1168,0.0
2,4,12,25, 0, 6, 0.00,60.00,Thursday
7,-0.6
545,19.465503891893228
546,2.3554695006869686
547,14.626130658580626
548,152.24519593903582
720,3570.996063061635
721,3570.996063061635
784,0.0
785,0.0
848,0.0
849,0.0
1121,4698.248096446579
1135,1444.2699426487864
1161,26.19624288628868
1163,42.49360238245221
1166,0.0
1168,0.0
2,4,12,25, 0, 7, 0.00,60.00,Thursday
7,0.0
545,19.686138520633016
546,1.984492503069082
547,14.583074821851524
548,133.64226314671154
720,3055.750948777775
721,3055.750948777775
784,0.0
785,0.0
848,0.0
849,0.0
1121,4116.291601560979
1135,1294.9412264448486
1161,24.945358857808227
1163,61.74245238236304
1166,0.0
1168,0.0
2,4,12,25, 0, 8, 0.00,60.00,Thursday
7,-0.6
545,19.720077445789972
546,2.488194749431736
547,14.513166964588143
548,132.21296527800075
720,2845.2233821188856
721,2845.2233821188856
784,0.0
785,0.0
848,0.0
849,0.0
1121,3874.0038591634184
1135,1244.6491202548957
1161,53.093793857870295
1163,62.681263023365716
1166,0.0
1168,0.0
2,4,12,25, 0, 9, 0.00,60.00,Thursday
7,0.0
545,19.795204859780856
546,2.48762336535321
547,14.447097186374084
548,119.43778818422572
720,2646.8551872432345
721,2646.8551872432345
784,0.0
785,0.0
848,0.0
849,0.0
1121,3588.567303263046
1135,1147.5825987578403
1161,34.41247385983217
1163,76.24543813781897
1166,0.0
1168,0.0
2,4,12,25, 0,10, 0.00,60.00,Thursday
7,-0.6
545,19.685330687319983
546,2.541416856133154
547,14.38670479196047
548,123.2237435935258
720,2678.2271401739144
721,2678.2271401739144
784,0.0
785,0.0
848,0.0
849,0.0
1121,3619.077311117312
1135,1171.17743906929
1161,42.49865452804601
1163,72.14312238006795
1166,0.0
1168,0.0
2,4,12,25, 0,11, 0.00,60.00,Thursday
7,-0.6
545,19.735016145169592
546,3.5930524828952763
547,14.318568597361974
548,115.59343861059502
720,2493.552838363308
721,2493.552838363308
784,0.0
785,0.0
848,0.0
849,0.0
1121,3381.0532477922184
1135,1096.2479459099595
1161,39.86690969425328
1163,80.0607066160364
1166,0.0
1168,0.0
2,4,12,25, 0,12, 0.00,60.00,Thursday
7,1.1
545,19.686746818121158
546,5.125765309822797
547,14.256223019764443
548,90.85664843538586
720,2109.8955622234025
721,2109.8955622234025
784,0.0
785,0.0
848,0.0
849,0.0
1121,2844.9916886980145
1135,904.8406156122078
1161,8.121043060955747
1163,106.16306772310877
1166,0.0
1168,0.0
2,4,12,25, 0,13, 0.00,60.00,Thursday
7,0.6
545,19.707777543870552
546,5.754076253016624
547,14.202104473430191
548,76.4125041728071
720,1756.7642172345695
721,1756.7642172345695
784,0.0
785,0.0
848,0.0
849,0.0
1121,2342.1759349874433
1135,757.3069683230443
1161,6.573141270595728
1163,121.07642230021976
1166,0.0
1168,0.0
2,4,12,25, 0,14, 0.00,60.00,Thursday
7,0.6
545,19.788227011977447
546,6.56184962807835
547,14.168890515151984
548,58.86424123070048
720,1355.8145351592539
721,1355.8145351592539
784,0.0
785,0.0
848,0.0
849,0.0
1121,1802.748487935806
1135,588.7912131281554
1161,1.1297216440898736
1163,139.2548178849783
1166,0.0
1168,0.0
2,4,12,25, 0,15, 0.00,60.00,Thursday
7,0.6
545,19.5951701058567
546,6.132068095645039
547,14.153989274972187
548,41.85416810802375
720,951.4015335721797
721,951.4015335721797
784,0.0
785,0.0
848,0.0
849,0.0
1121,1268.617598428357
1135,419.32155082319775
1161,0.8031039007180907
1163,156.80842664130375
1166,0.0
1168,0.0
2,4,12,25, 0,16, 0.00,60.00,Thursday
7,-0.6
545,19.85846638355598
546,5.004278594601829
547,14.164062546731191
548,40.99426466507488
720,922.8214085337295
721,922.8214085337295
784,0.0
785,0.0
848,0.0
849,0.0
1121,1204.6545192087556
1135,405.327673793903
1161,0.4455491637592506
1163,157.69908770259832
1166,0.0
1168,0.0
2,4,12,25, 0,17, 0.00,60.00,Thursday
7,-0.6
545,19.716975387526347
546,3.697438710273056
547,14.192862417244761
548,48.15796241180421
720,1092.0687735174124
721,1092.0687735174124
784,0.0
785,0.0
848,0.0
849,0.0
1121,1419.1920779968416
1135,478.62633958121637
1161,0.5234084568444479
1163,150.30704346544596
1166,0.0
1168,0.0
2,4,12,25, 0,18, 0.00,60.00,Thursday
7,-2.2
545,20.084489792749437
546,2.4078955939325306
547,14.21132142862598
548,62.283469590582094
720,1331.4589328056409
721,1331.4589328056409
784,0.0
785,0.0
848,0.0
849,0.0
1121,1744.5884173108454
1135,600.7989886364185
1161,7.39117717845552
1163,135.58787924703944
1166,0.0
1168,0.0
2,4,12,25, 0,19, 0.00,60.00,Thursday
7,-2.2