Program Version,EnergyPlus, Version 22.2.0-c249759bad, YMD=2023.07.07 15:12
1,5,Environment Title[],Latitude[deg],Longitude[deg],Time Zone[],Elevation[m]
2,8,Day of Simulation[],Month[],Day of Month[],DST Indicator[1=yes 0=no],Hour[],StartMinute[],EndMinute[],DayType
3,5,Cumulative Day of Simulation[],Month[],Day of Month[],DST Indicator[1=yes 0=no],DayType  ! When Daily Report Variables Requested
4,2,Cumulative Days of Simulation[],Month[]  ! When Monthly Report Variables Requested
5,1,Cumulative Days of Simulation[] ! When Run Period Report Variables Requested
6,1,Calendar Year of Simulation[] ! When Annual Report Variables Requested
581,11,LIVING,AFN Zone Infiltration Air Change Rate [ach] !RunPeriod [Value,Min,Month,Day,Hour,Minute,Max,Month,Day,Hour,Minute]
582,11,ATTIC,AFN Zone Infiltration Air Change Rate [ach] !RunPeriod [Value,Min,Month,Day,Hour,Minute,Max,Month,Day,Hour,Minute]
583,11,CRAWLSPACE,AFN Zone Infiltration Air Change Rate [ach] !RunPeriod [Value,Min,Month,Day,Hour,Minute,Max,Month,Day,Hour,Minute]
1038,11,Facility,Facility Heating Setpoint Not Met Time [hr] !RunPeriod [Value,Min,Month,Day,Hour,Minute,Max,Month,Day,Hour,Minute]
1039,11,Facility,Facility Cooling Setpoint Not Met Time [hr] !RunPeriod [Value,Min,Month,Day,Hour,Minute,Max,Month,Day,Hour,Minute]
1115,11,DX_HEATING_COIL,Heating Coil Heating Energy [J] !RunPeriod [Value,Min,Month,Day,Hour,Minute,Max,Month,Day,Hour,Minute]
1128,11,DX_HEATING_COIL,Heating Coil Electricity Energy [J] !RunPeriod [Value,Min,Month,Day,Hour,Minute,Max,Month,Day,Hour,Minute]
1153,11,DX_HEATING_COIL,Heating Coil Defrost Electricity Energy [J] !RunPeriod [Value,Min,Month,Day,Hour,Minute,Max,Month,Day,Hour,Minute]
1154,11,DX_HEATING_COIL,Heating Coil Crankcase Heater Electricity Energy [J] !RunPeriod [Value,Min,Month,Day,Hour,Minute,Max,Month,Day,Hour,Minute]
1156,11,HEATING_RESISTANCE_BACKUP,Heating Coil Electricity Energy [J] !RunPeriod [Value,Min,Month,Day,Hour,Minute,Max,Month,Day,Hour,Minute]
13,11,Electricity:Facility [J] !RunPeriod [Value,Min,Month,Day,Hour,Minute,Max,Month,Day,Hour,Minute]
1134,11,Heating:Electricity [J] !RunPeriod [Value,Min,Month,Day,Hour,Minute,Max,Month,Day,Hour,Minute]
1096,11,Cooling:Electricity [J] !RunPeriod [Value,Min,Month,Day,Hour,Minute,Max,Month,Day,Hour,Minute]
562,11,Fans:Electricity [J] !RunPeriod [Value,Min,Month,Day,Hour,Minute,Max,Month,Day,Hour,Minute]
1388,11,Pumps:Electricity [J] !RunPeriod [Value,Min,Month,Day,Hour,Minute,Max,Month,Day,Hour,Minute]
1360,11,WaterSystems:Electricity [J] !RunPeriod [Value,Min,Month,Day,Hour,Minute,Max,Month,Day,Hour,Minute]
61,11,InteriorLights:Electricity [J] !RunPeriod [Value,Min,Month,Day,Hour,Minute,Max,Month,Day,Hour,Minute]
1046,11,ExteriorLights:Electricity [J] !RunPeriod [Value,Min,Month,Day,Hour,Minute,Max,Month,Day,Hour,Minute]
134,11,InteriorEquipment:Electricity [J] !RunPeriod [Value,Min,Month,Day,Hour,Minute,Max,Month,Day,Hour,Minute]
170,11,gas_dryer:InteriorEquipment:Electricity [J] !RunPeriod [Value,Min,Month,Day,Hour,Minute,Max,Month,Day,Hour,Minute]
207,11,clotheswasher:InteriorEquipment:Electricity [J] !RunPeriod [Value,Min,Month,Day,Hour,Minute,Max,Month,Day,Hour,Minute]
244,11,dishwasher:InteriorEquipment:Electricity [J] !RunPeriod [Value,Min,Month,Day,Hour,Minute,Max,Month,Day,Hour,Minute]
281,11,refrigerator:InteriorEquipment:Electricity [J] !RunPeriod [Value,Min,Month,Day,Hour,Minute,Max,Month,Day,Hour,Minute]
318,11,electric_mels:InteriorEquipment:Electricity [J] !RunPeriod [Value,Min,Month,Day,Hour,Minute,Max,Month,Day,Hour,Minute]
355,11,NaturalGas:Facility [J] !RunPeriod [Value,Min,Month,Day,Hour,Minute,Max,Month,Day,Hour,Minute]
1323,11,WaterSystems:NaturalGas [J] !RunPeriod [Value,Min,Month,Day,Hour,Minute,Max,Month,Day,Hour,Minute]
403,11,InteriorEquipment:NaturalGas [J] !RunPeriod [Value,Min,Month,Day,Hour,Minute,Max,Month,Day,Hour,Minute]
476,11,gas_dryer:InteriorEquipment:NaturalGas [J] !RunPeriod [Value,Min,Month,Day,Hour,Minute,Max,Month,Day,Hour,Minute]
513,11,gas_mels:InteriorEquipment:NaturalGas [J] !RunPeriod [Value,Min,Month,Day,Hour,Minute,Max,Month,Day,Hour,Minute]
End of Data Dictionary
1,EXTREME_WINTER,  25.79, -80.32,  -5.00,   8.80
5,7
1038,0.0,0.0, 1,15, 1,10,0.0, 1,15, 1,10
1039,0.0,0.0, 1,15, 1,10,0.0, 1,15, 1,10
581,0.2112558123591,0.0, 1,15,19,35,0.4043487648069403, 1,18, 8,60
582,3.981639580754978,0.0658565164634642, 1,15,19,50,8.326170482006685, 1,16,12,60
583,5.086772166185956,0.3004391084985012, 1,15,19,60,11.022432136346312, 1,16,12,60
1115,0.0,0.0, 1,15, 1,10,0.0, 1,15, 1,10
1128,0.0,0.0, 1,15, 1,10,0.0, 1,15, 1,10
1153,0.0,0.0, 1,15, 1,10,0.0, 1,15, 1,10
1154,0.0,0.0, 1,15, 1,10,0.0, 1,15, 1,10
1156,0.0,0.0, 1,15, 1,10,0.0, 1,15, 1,10
13,545759534.9039183,106115.4183601288, 1,16, 4,60,1374529.9731929628, 1,21,20,10
61,301924526.0238348,58759.40635443481, 1,15, 1,10,854682.2742463244, 1,15,20,10
134,70666020.44019979,42376.01200569399, 1,15, 4,10,104369.48322671017, 1,20,20,10
170,5241013.419656074,232.27731661587313, 1,15, 4,10,11650.931360040839, 1,20,12,10
207,6509451.13922266,543.5021409221355, 1,15, 3,10,15327.095199349082, 1,20,10,10
244,12749673.39982522,1014.5707620042115, 1,15, 4,10,35359.08742820678, 1,20,20,10
281,46165882.48149605,39959.06841621388, 1,15, 5,10,54634.54471212738, 1,15,19,10
318,0.0,0.0, 1,15, 1,10,0.0, 1,15, 1,10
355,737677700.3479187,12374.216038804521, 1,15, 4,10,3829218.154066982, 1,16,18,60
403,197687796.27748126,12374.216038804521, 1,15, 4,10,483183.26346918393, 1,20,18,10
476,106772067.24485692,4732.048419519677, 1,15, 4,10,237357.535085481, 1,20,12,10
513,0.0,0.0, 1,15, 1,10,0.0, 1,15, 1,10
562,18509668.374551732,0.0, 1,15, 6,20,79167.21269769064, 1,21,17,20
1046,0.0,0.0, 1,15, 1,10,0.0, 1,15, 1,10
1096,149639480.0653328,0.0, 1,15, 6,20,685644.7383873337, 1,21,17,20
1134,0.0,0.0, 1,15, 1,10,0.0, 1,15, 1,10
1323,539989904.0704339,0.0, 1,15, 1,10,3375000.000000001, 1,16,10,10
1360,5019840.0,4980.0, 1,15, 1,10,4980.000000000002, 1,21,10,30
1388,0.0,0.0, 1,15, 1,10,0.0, 1,15, 1,10
1,EXTREME_SUMMER,  25.79, -80.32,  -5.00,   8.80
5,7
1038,0.0,0.0, 7,23, 1,10,0.0, 7,23, 1,10
1039,79.99999999999999,0.0, 7,23, 1,10,0.16666666666666666, 7,23, 6,10
581,0.11828721925291803,0.0, 7,23, 1,45,0.3083193031685914, 7,27,11,60
582,5.211849376928567,0.0597492909464615, 7,26, 8,52,12.443763923310678, 7,29,13,55
583,5.2232530530423436,0.2106660877198654, 7,23, 3,60,11.441805663605535, 7,27,12,30
1115,0.0,0.0, 7,23, 1, 3,0.0, 7,23, 1, 3
1128,0.0,0.0, 7,23, 1, 3,0.0, 7,23, 1, 3
1153,0.0,0.0, 7,23, 1, 3,0.0, 7,23, 1, 3
1154,0.0,0.0, 7,23, 1, 3,0.0, 7,23, 1, 3
1156,0.0,0.0, 7,23, 1, 3,0.0, 7,23, 1, 3
13,1173363474.6910236,350975.35606770177, 7,23, 4,60,1975811.0914255974, 7,23,20,10
61,301924526.0238348,58759.40635443481, 7,23, 1,10,854682.2742463244, 7,23,20,10
134,70666020.44019979,42376.01200569399, 7,23, 4,10,104369.48322671017, 7,28,20,10
170,5241013.419656074,232.27731661587313, 7,23, 4,10,11650.931360040839, 7,28,12,10
207,6509451.13922266,543.5021409221355, 7,23, 3,10,15327.095199349082, 7,28,10,10
244,12749673.39982522,1014.5707620042115, 7,23, 4,10,35359.08742820678, 7,28,20,10
281,46165882.48149605,39959.06841621388, 7,23, 5,10,54634.54471212738, 7,23,19,10
318,0.0,0.0, 7,23, 1,10,0.0, 7,23, 1,10
355,634124725.5336505,12374.216038804521, 7,23, 4,10,3829218.154066982, 7,24,18,60
403,197687796.27748126,12374.216038804521, 7,23, 4,10,483183.26346918393, 7,28,18,10
476,106772067.24485692,4732.048419519677, 7,23, 4,10,237357.535085481, 7,28,12,10
513,0.0,0.0, 7,23, 1,10,0.0, 7,23, 1,10
562,71316922.72851817,23394.857670474838, 7,23, 4,60,90437.09914537387, 7,23,10,40
1046,0.0,0.0, 7,23, 1,10,0.0, 7,23, 1,10
1096,724436165.4984714,221465.08003709815, 7,23, 4,60,970893.6655882013, 7,23,17,60
1134,0.0,0.0, 7,23, 1,10,0.0, 7,23, 1,10
1323,436436929.2561676,0.0, 7,23, 1,10,3375000.0000000005, 7,26,21,20
1360,5019840.0,4980.0, 7,23, 1,30,4980.000000000002, 7,27,10,30
1388,0.0,0.0, 7,23, 1,10,0.0, 7,23, 1,10
1,ANNUAL,  25.79, -80.32,  -5.00,   8.80
5,365
1038,0.0,0.0, 1, 1, 1,10,0.0, 1, 1, 1,10
1039,1715.6666666666697,0.0, 1, 1, 1,10,0.16666666666666666, 1, 6,14,60
581,0.12662001014671337,0.0, 1, 4, 6, 7,0.7798366409080514, 5,26,15,53
582,4.077117856549838,0.0, 1, 4, 6, 2,22.19723878565988, 5,26,15,51
583,4.478002361399274,0.0, 2, 7,23, 3,25.69102567021235, 5,26,15,51
1115,4349955.4562819395,0.0, 1, 1, 1,10,652076.9585208681, 1,24, 6,10
1128,1208132.4087867348,0.0, 1, 1, 1,10,179080.95320904106, 1,24, 6,10
1153,0.0,0.0, 1, 1, 1,10,0.0, 1, 1, 1,10
1154,14499325.18804079,0.0, 1, 1, 1,10,120000.0, 1,23,24,30
1156,0.0,0.0, 1, 1, 1,10,0.0, 1, 1, 1,10
13,48921338255.031845,106115.4183601288, 1,17, 4,10,1981128.4853168689, 7,23,20,60
61,15743207428.39043,58759.40635443481, 1, 1, 1,10,854682.2742463244, 1, 1,20,10
134,3685071073.433083,42376.01200569399, 1, 2, 4,10,104369.48322671017, 1, 1,20,10
170,273393721.45534325,232.27731661587313, 1, 2, 4,10,11650.931360040839, 1, 1,12,10
207,339560869.06955314,543.5021409221355, 1, 2, 3,10,15327.095199349082, 1, 1,10,10
244,664895467.8009839,1014.5707620042115, 1, 2, 4,10,35359.08742820678, 1, 1,20,10
281,2407221015.1057043,39959.06841621388, 1, 1, 5,10,54634.54471212738, 1, 1,19,10
318,0.0,0.0, 1, 1, 1,10,0.0, 1, 1, 1,10
355,35559664247.7743,12374.216038804521, 1, 2, 4,10,3829218.154066983,11,21,18,60
403,10310294493.052883,12374.216038804521, 1, 2, 4,10,483183.26346918393, 1, 1,18,10
476,5569688622.065564,4732.048419519677, 1, 2, 4,10,237357.535085481, 1, 1,12,10
513,0.0,0.0, 1, 1, 1,10,0.0, 1, 1, 1,10
562,2810945412.740917,0.0, 1, 1, 6,20,90437.09914537388, 3,29,13,60
1046,0.0,0.0, 1, 1, 1,10,0.0, 1, 1, 1,10
1096,26404658082.87583,0.0, 1, 1, 6,20,993397.3281930916, 8,21,14,60
1134,15707457.596827522,0.0, 1, 1, 1,10,278088.6112324725, 1,24, 6,10
1323,25249369754.72564,0.0, 1, 1, 1,10,3375000.0000000023, 5,30, 9,60
1360,261748800.0,4979.999999999998, 5,26,15,30,4980.000000000002, 1, 2, 9,40
1388,0.0,0.0, 1, 1, 1,10,0.0, 1, 1, 1,10
End of Data
 Number of Records Written=          87
