Program Version,EnergyPlus, Version 22.2.0-c249759bad, YMD=2023.09.01 14:31
1,5,Environment Title[],Latitude[deg],Longitude[deg],Time Zone[],Elevation[m]
2,8,Day of Simulation[],Month[],Day of Month[],DST Indicator[1=yes 0=no],Hour[],StartMinute[],EndMinute[],DayType
3,5,Cumulative Day of Simulation[],Month[],Day of Month[],DST Indicator[1=yes 0=no],DayType  ! When Daily Report Variables Requested
4,2,Cumulative Days of Simulation[],Month[]  ! When Monthly Report Variables Requested
5,1,Cumulative Days of Simulation[] ! When Run Period Report Variables Requested
6,1,Calendar Year of Simulation[] ! When Annual Report Variables Requested
7,1,Environment,Site Outdoor Air Drybulb Temperature [C] !Hourly
545,1,LIVING,Zone Mean Air Temperature [C] !Hourly
546,1,ATTIC,Zone Mean Air Temperature [C] !Hourly
547,1,CRAWLSPACE,Zone Mean Air Temperature [C] !Hourly
548,1,FAN,Fan Electricity Rate [W] !Hourly
720,1,LIVING,Zone Predicted Sensible Load to Heating Setpoint Heat Transfer Rate [W] !Hourly
721,1,LIVING,Zone System Predicted Sensible Load to Heating Setpoint Heat Transfer Rate [W] !Hourly
784,1,ATTIC,Zone Predicted Sensible Load to Heating Setpoint Heat Transfer Rate [W] !Hourly
785,1,ATTIC,Zone System Predicted Sensible Load to Heating Setpoint Heat Transfer Rate [W] !Hourly
848,1,CRAWLSPACE,Zone Predicted Sensible Load to Heating Setpoint Heat Transfer Rate [W] !Hourly
849,1,CRAWLSPACE,Zone System Predicted Sensible Load to Heating Setpoint Heat Transfer Rate [W] !Hourly
1121,1,DX_HEATING_COIL,Heating Coil Heating Rate [W] !Hourly
1135,1,DX_HEATING_COIL,Heating Coil Electricity Rate [W] !Hourly
1161,1,DX_HEATING_COIL,Heating Coil Defrost Electricity Rate [W] !Hourly
1163,1,DX_HEATING_COIL,Heating Coil Crankcase Heater Electricity Rate [W] !Hourly
1166,1,HEATING_RESISTANCE_BACKUP,Heating Coil Heating Rate [W] !Hourly
1168,1,HEATING_RESISTANCE_BACKUP,Heating Coil Electricity Rate [W] !Hourly
End of Data Dictionary
1,EXTREME_WINTER,  37.65, -97.43,  -6.00, 409.00
2,1, 2,17, 0, 1, 0.00,60.00,Monday
7,0.0
545,20.953967409587197
546,6.198484842767569
547,19.022219833756925
548,0.0
720,-2097.8468830494094
721,-2097.8468830494094
784,0.0
785,0.0
848,0.0
849,0.0
1121,0.0
1135,0.0
1161,0.0
1163,200.0
1166,0.0
1168,0.0
2,1, 2,17, 0, 2, 0.00,60.00,Monday
7,-0.6
545,20.289787521386746
546,4.388060163993102
547,18.722504706010536
548,0.0
720,-1461.5190308697383
721,-1461.5190308697383
784,0.0
785,0.0
848,0.0
849,0.0
1121,0.0
1135,0.0
1161,0.0
1163,200.0
1166,0.0
1168,0.0
2,1, 2,17, 0, 3, 0.00,60.00,Monday
7,-1.1
545,19.485298755385003
546,1.4882954523562517
547,18.526199316875445
548,0.0
720,-731.9777157285971
721,-731.9777157285971
784,0.0
785,0.0
848,0.0
849,0.0
1121,0.0
1135,0.0
1161,0.0
1163,200.0
1166,0.0
1168,0.0
2,1, 2,17, 0, 4, 0.00,60.00,Monday
7,-2.2
545,18.654923089438174
546,-0.20469133475680285
547,18.32345450579296
548,0.0
720,-36.615447545405914
721,-36.615447545405914
784,0.0
785,0.0
848,0.0
849,0.0
1121,0.0
1135,0.0
1161,0.0
1163,200.0
1166,0.0
1168,0.0
2,1, 2,17, 0, 5, 0.00,60.00,Monday
7,-2.2
545,18.516144287540623
546,-1.1869656859931337
547,18.11312510606041
548,21.46358109338502
720,501.7538281499146
721,501.7538281499146
784,0.0
785,0.0
848,0.0
849,0.0
1121,607.9571232219657
1135,211.17986127892834
1161,11.792564477709872
1163,176.47559271601145
1166,0.0
1168,0.0
2,1, 2,17, 0, 6, 0.00,60.00,Monday
7,-2.8
545,19.124428727568638
546,-1.0841621040604248
547,17.883203657486213
548,68.84856809801273
720,1548.199713834183
721,1548.199713834183
784,0.0
785,0.0
848,0.0
849,0.0
1121,1968.9548075145208
1135,670.2416336865372
1161,39.79025283707861
1163,124.42970428443047
1166,0.0
1168,0.0
2,1, 2,17, 0, 7, 0.00,60.00,Monday
7,-2.8
545,19.461727148262607
546,-1.0921804258873558
547,17.708204807393376
548,90.02699759180214
720,1955.8301654719962
721,1955.8301654719962
784,0.0
785,0.0
848,0.0
849,0.0
1121,2601.2475731859327
1135,886.8478129134314
1161,52.032055302795335
1163,101.17987382435034
1166,0.0
1168,0.0
2,1, 2,17, 0, 8, 0.00,60.00,Monday
7,-2.2
545,19.683296430981677
546,-0.7365258082300197
547,17.54957628910405
548,92.08854102702898
720,1946.0189163948453
721,1946.0189163948453
784,0.0
785,0.0
848,0.0
849,0.0
1121,2669.883754662948
1135,906.8219983529004
1161,61.774869704801795
1163,98.80998620722983
1166,0.0
1168,0.0
2,1, 2,17, 0, 9, 0.00,60.00,Monday
7,2.2
545,19.81945722713079
546,2.444144349728949
547,17.422883003334103
548,58.273230516418636
720,1295.058831127939
721,1295.058831127939
784,0.0
785,0.0
848,0.0
849,0.0
1121,1843.6619971515013
1135,589.6581449449952
1161,42.736755212505635
1163,136.36503297357848
1166,0.0
1168,0.0
2,1, 2,17, 0,10, 0.00,60.00,Monday
7,6.7
545,20.073341772305568
546,7.536866961852209
547,17.292372438602147
548,14.169992833978347
720,401.8702734261042
721,401.8702734261042
784,0.0
785,0.0
848,0.0
849,0.0
1121,619.0210440599027
1135,173.03282756229945
1161,0.0
1163,184.63344622927892
1166,0.0
1168,0.0
2,1, 2,17, 0,11, 0.00,60.00,Monday
7,11.1
545,20.793475433786163
546,13.26880623578786
547,17.185525774463397
548,0.0
720,-792.7821675717896
721,-792.7821675717896
784,0.0
785,0.0
848,0.0
849,0.0
1121,0.0
1135,0.0
1161,0.0
1163,0.0
1166,0.0
1168,0.0
2,1, 2,17, 0,12, 0.00,60.00,Monday
7,14.4
545,21.832310487196064
546,18.593109090283676
547,17.12118501472038
548,0.0
720,-1710.5066113473895
721,-1710.5066113473895
784,0.0
785,0.0
848,0.0
849,0.0
1121,0.0
1135,0.0
1161,0.0
1163,0.0
1166,0.0
1168,0.0
2,1, 2,17, 0,13, 0.00,60.00,Monday
7,14.4
545,22.498301010614536
546,21.616171737228733
547,17.092318306142456
548,0.0
720,-2287.057625966301
721,-2287.057625966301
784,0.0
785,0.0
848,0.0
849,0.0
1121,0.0
1135,0.0
1161,0.0
1163,0.0
1166,0.0
1168,0.0
2,1, 2,17, 0,14, 0.00,60.00,Monday
7,18.9
545,23.348223975043002
546,24.716809587617462
547,17.10766962658909
548,7.156621001173819
720,-3087.641233721997
721,-3087.641233721997
784,0.0
785,0.0
848,0.0
849,0.0
1121,0.0
1135,0.0
1161,0.0
1163,0.0
1166,0.0
1168,0.0
2,1, 2,17, 0,15, 0.00,60.00,Monday
7,18.9
545,23.21026437770672
546,24.004123318192313
547,17.163681577582246
548,20.592738061796727
720,-3423.628480658401
721,-3423.628480658401
784,0.0
785,0.0
848,0.0
849,0.0
1121,0.0
1135,0.0
1161,0.0
1163,0.0
1166,0.0
1168,0.0
2,1, 2,17, 0,16, 0.00,60.00,Monday
7,19.4
545,23.349010995596174
546,23.400562120347733
547,17.25587738518643
548,36.30343615766595
720,-4892.84696578703
721,-4892.84696578703
784,0.0
785,0.0
848,0.0
849,0.0
1121,0.0
1135,0.0
1161,0.0
1163,0.0
1166,0.0
1168,0.0
2,1, 2,17, 0,17, 0.00,60.00,Monday
7,20.6
545,23.397060324440577
546,22.841210186772333
547,17.375871858217423
548,52.21470687347102
720,-5894.8911109805085
721,-5894.8911109805085
784,0.0
785,0.0
848,0.0
849,0.0
1121,0.0
1135,0.0
1161,0.0
1163,0.0
1166,0.0
1168,0.0
2,1, 2,17, 0,18, 0.00,60.00,Monday
7,17.8
545,23.20011844184703
546,20.244504859871917
547,17.468323010740807
548,53.49952138346163
720,-6186.449084315485
721,-6186.449084315485
784,0.0
785,0.0
848,0.0
849,0.0
1121,0.0
1135,0.0
1161,0.0
1163,0.0
1166,0.0
1168,0.0
2,1, 2,17, 0,19, 0.00,60.00,Monday
7,17.8
545,23.320460809189747
546,18.852540203709683
547,17.518501067609417
548,32.38854093669938
720,-5237.147196163376
721,-5237.147196163376
784,0.0
785,0.0
848,0.0
849,0.0
1121,0.0
1135,0.0
1161,0.0
1163,0.0
1166,0.0
1168,0.0
2,1, 2,17, 0,20, 0.00,60.00,Monday
7,13.3
545,23.197121685889947
546,15.757065977732216
547,17.556160843136382
548,21.41498958866217
720,-4485.894513009631
721,-4485.894513009631
784,0.0
785,0.0
848,0.0
849,0.0
1121,0.0
1135,0.0
1161,0.0
1163,0.0
1166,0.0
1168,0.0
2,1, 2,17, 0,21, 0.00,60.00,Monday
7,12.8
545,23.485891567169958
546,14.50929383606987
547,17.58385094345713
548,12.756163438706741
720,-3956.5466679419533
721,-3956.5466679419533
784,0.0
785,0.0
848,0.0
849,0.0
1121,0.0
1135,0.0
1161,0.0
1163,0.0
1166,0.0
1168,0.0
2,1, 2,17, 0,22, 0.00,60.00,Monday
7,12.8
545,22.912905042872435
546,13.85862890674622
547,17.59008279657331
548,8.735286818527648
720,-3404.473965052397
721,-3404.473965052397
784,0.0
785,0.0
848,0.0
849,0.0
1121,0.0
1135,0.0
1161,0.0
1163,0.0
1166,0.0
1168,0.0
2,1, 2,17, 0,23, 0.00,60.00,Monday
7,11.7
545,22.721098584785878
546,12.811644188894286
547,17.566787888258897
548,0.0
720,-3809.1536112635695
721,-3809.1536112635695
784,0.0
785,0.0
848,0.0
849,0.0
1121,0.0
1135,0.0
1161,0.0
1163,0.0
1166,0.0
1168,0.0
2,1, 2,17, 0,24, 0.00,60.00,Monday
7,12.2
545,21.716766229147627
546,12.919973473413767
547,17.542314772124605
548,0.0
720,-2726.432635831621
721,-2726.432635831621
784,0.0
785,0.0
848,0.0
849,0.0
1121,0.0
1135,0.0
1161,0.0
1163,0.0
1166,0.0
1168,0.0
2,2, 2,18, 0, 1, 0.00,60.00,Tuesday
7,12.2
545,21.112010722592768
546,12.865575869827175
547,17.502516943326338
548,0.0
720,-2374.153674895402
721,-2374.153674895402
784,0.0
785,0.0
848,0.0
849,0.0
1121,0.0
1135,0.0
1161,0.0
1163,0.0
1166,0.0
1168,0.0
2,2, 2,18, 0, 2, 0.00,60.00,Tuesday
7,12.2
545,20.368963648725824
546,12.939448341556405
547,17.452274625939065
548,0.0
720,-1648.4926460820043
721,-1648.4926460820043
784,0.0
785,0.0
848,0.0
849,0.0
1121,0.0
1135,0.0
1161,0.0
1163,0.0
1166,0.0
1168,0.0
2,2, 2,18, 0, 3, 0.00,60.00,Tuesday
7,12.2
545,19.82272183763397
546,12.877785485904385
547,17.395274769693973
548,0.0
720,-1149.3487604660131
721,-1149.3487604660131
784,0.0
785,0.0
848,0.0
849,0.0
1121,0.0
1135,0.0
1161,0.0
1163,0.0
1166,0.0
1168,0.0
2,2, 2,18, 0, 4, 0.00,60.00,Tuesday
7,12.8
545,19.503135489886436
546,13.172603896227008
547,17.33422837349397
548,0.0
720,-815.1389166139888
721,-815.1389166139888
784,0.0
785,0.0
848,0.0
849,0.0
1121,0.0
1135,0.0
1161,0.0
1163,0.0
1166,0.0
1168,0.0
2,2, 2,18, 0, 5, 0.00,60.00,Tuesday
7,11.7
545,18.8029234977314
546,12.450653635461245
547,17.26814724259136
548,0.0
720,-170.5764989816198
721,-170.5764989816198
784,0.0
785,0.0
848,0.0
849,0.0
1121,0.0
1135,0.0
1161,0.0
1163,0.0
1166,0.0
1168,0.0
2,2, 2,18, 0, 6, 0.00,60.00,Tuesday
7,10.0
545,19.597062976309953
546,11.245508499249587
547,17.204257752082242
548,25.292148609620742
720,1055.8125072215826
721,1055.8125072215826
784,0.0
785,0.0
848,0.0
849,0.0
1121,1211.728187092344
1135,314.9176289227329
1161,0.0
1163,0.0
1166,0.0
1168,0.0
2,2, 2,18, 0, 7, 0.00,60.00,Tuesday
7,10.0
545,19.705376892717556
546,11.013575544384961
547,17.146292710594032
548,22.605551756286324
720,896.6291434942486
721,896.6291434942486
784,0.0
785,0.0
848,0.0
849,0.0
1121,1077.784056351175
1135,285.42857903803815
1161,0.0
1163,0.0
1166,0.0
1168,0.0
2,2, 2,18, 0, 8, 0.00,60.00,Tuesday
7,6.1
545,20.43419808029579
546,7.859514380067859
547,17.077083241690406
548,25.081020086946214
720,902.9476746687724
721,902.9476746687724
784,0.0
785,0.0
848,0.0
849,0.0
1121,1086.970603380859
1135,303.59424635776315
1161,0.0
1163,172.80105584341442
1166,0.0
1168,0.0
2,2, 2,18, 0, 9, 0.00,60.00,Tuesday
7,6.0
545,18.92314393615873
546,7.6649416645195245
547,17.003470482497807
548,2.3901997877527696
720,50.725531879044865
721,50.725531879044865
784,0.0
785,0.0
848,0.0
849,0.0
1121,101.5940822683198
1135,29.306626820907184
1161,0.0
1163,197.40796385773774
1166,0.0
1168,0.0
2,2, 2,18, 0,10, 0.00,60.00,Tuesday
7,7.0
545,19.191862264340173
546,8.974425858206073
547,16.944627166245525
548,12.885768069220136
720,471.83508832721964
721,471.83508832721964
784,0.0
785,0.0
848,0.0
849,0.0
1121,568.9883367927488
1135,155.17152302325383
1161,0.0
1163,186.02611516938083
1166,0.0
1168,0.0
2,2, 2,18, 0,11, 0.00,60.00,Tuesday
7,8.0
545,19.579920128653157
546,10.417573247951838
547,16.899475909929386
548,13.117699425718454
720,484.54392304562134
721,484.54392304562134
784,0.0
785,0.0
848,0.0
849,0.0
1121,593.2104625655572
1135,160.53002390971517
1161,0.0
1163,185.7745987640795
1166,0.0
1168,0.0
2,2, 2,18, 0,12, 0.00,60.00,Tuesday
7,8.3
545,19.985150588699735
546,11.493900060478323
547,16.872119450520668
548,11.84699562583119
720,439.18804035662106
721,439.18804035662106
784,0.0
785,0.0
848,0.0
849,0.0
1121,538.4356697639854
1135,146.51422298860948
1161,0.0
1163,187.1526049844359
1166,0.0
1168,0.0
2,2, 2,18, 0,13, 0.00,60.00,Tuesday
7,8.3
545,19.878703700811904
546,12.124351088151474
547,16.847932144681415
548,0.0
720,-147.68046646769653
721,-147.68046646769653
784,0.0
785,0.0
848,0.0
849,0.0
1121,0.0
1135,0.0
1161,0.0
1163,200.0
1166,0.0
1168,0.0
2,2, 2,18, 0,14, 0.00,60.00,Tuesday
7,11.1
545,21.241056924927793
546,15.384653404707365
547,16.850694489642965
548,0.0
720,-1544.5266318302201
721,-1544.5266318302201
784,0.0
785,0.0
848,0.0
849,0.0
1121,0.0
1135,0.0
1161,0.0
1163,0.0
1166,0.0
1168,0.0
2,2, 2,18, 0,15, 0.00,60.00,Tuesday
7,11.1
545,21.89096991694192
546,15.637547851093565
547,16.8599119081444
548,0.0
720,-1867.6571976921114
721,-1867.6571976921114
784,0.0
785,0.0
848,0.0
849,0.0
1121,0.0
1135,0.0
1161,0.0
1163,0.0
1166,0.0
1168,0.0
2,2, 2,18, 0,16, 0.00,60.00,Tuesday
7,10.6
545,22.459215590320053
546,15.307558233274897
547,16.892090913694894
548,0.0
720,-2569.1496762667593
721,-2569.1496762667593
784,0.0
785,0.0
848,0.0
849,0.0
1121,0.0
1135,0.0
1161,0.0
1163,0.0
1166,0.0
1168,0.0
2,2, 2,18, 0,17, 0.00,60.00,Tuesday
7,10.0
545,23.33521397570167
546,14.746806409805284
547,16.946934096163062
548,2.6063175788854376
720,-3577.5232763486056
721,-3577.5232763486056
784,0.0
785,0.0
848,0.0
849,0.0
1121,0.0
1135,0.0
1161,0.0
1163,0.0
1166,0.0
1168,0.0
2,2, 2,18, 0,18, 0.00,60.00,Tuesday
7,8.3
545,23.14394648853249
546,12.427814279464059
547,17.014525491345577
548,8.495187248482242
720,-3712.6005614244896
721,-3712.6005614244896
784,0.0
785,0.0
848,0.0
849,0.0
1121,0.0
1135,0.0
1161,0.0
1163,190.78745111760963
1166,0.0
1168,0.0
2,2, 2,18, 0,19, 0.00,60.00,Tuesday
7,8.3
545,22.912053481705563
546,10.733683500162643
547,17.052127705538105
548,0.0
720,-3193.399042457335
721,-3193.399042457335
784,0.0
785,0.0
848,0.0
849,0.0
1121,0.0
1135,0.0
1161,0.0
1163,200.0
1166,0.0
1168,0.0
2,2, 2,18, 0,20, 0.00,60.00,Tuesday
7,5.0
545,22.66006112929223
546,8.115207207236104
547,17.081585750208642
548,0.0
720,-2621.979613325073
721,-2621.979613325073
784,0.0
785,0.0
848,0.0
849,0.0
1121,0.0
1135,0.0
1161,0.0
1163,200.0
1166,0.0
1168,0.0
2,2, 2,18, 0,21, 0.00,60.00,Tuesday
7,3.3
545,22.49487934028556
546,5.9870038515186135
547,17.080758480270305
548,0.0
720,-2353.4343521296614
721,-2353.4343521296614
784,0.0
785,0.0
848,0.0
849,0.0
1121,0.0
1135,0.0
1161,0.0
1163,200.0
1166,0.0
1168,0.0
2,2, 2,18, 0,22, 0.00,60.00,Tuesday
7,1.1
545,21.91502723091532
546,3.757349764301118
547,17.053056465550206
548,0.0
720,-1741.892287320612
721,-1741.892287320612
784,0.0
785,0.0
848,0.0
849,0.0
1121,0.0
1135,0.0
1161,0.0
1163,200.0
1166,0.0
1168,0.0
2,2, 2,18, 0,23, 0.00,60.00,Tuesday
7,-2.2
545,20.815455536218188
546,1.163551190876341
547,17.001179281382893
548,0.0
720,-1775.3093359646482
721,-1775.3093359646482
784,0.0
785,0.0
848,0.0
849,0.0
1121,0.0
1135,0.0
1161,0.0
1163,200.0
1166,0.0
1168,0.0
2,2, 2,18, 0,24, 0.00,60.00,Tuesday
7,0.6
545,20.048617961666068
546,0.7222698845526287
547,16.931544699790102
548,0.0
720,-1227.9352313094114
721,-1227.9352313094114
784,0.0
785,0.0
848,0.0
849,0.0
1121,0.0
1135,0.0
1161,0.0
1163,200.0
1166,0.0
1168,0.0
2,3, 2,19, 0, 1, 0.00,60.00,Wednesday
7,0.6
545,19.145266312170616
546,0.5244394869575002
547,16.84805341605232
548,0.0
720,-434.1881164162987
721,-434.1881164162987
784,0.0
785,0.0
848,0.0
849,0.0
1121,0.0
1135,0.0
1161,0.0
1163,200.0
1166,0.0
1168,0.0
2,3, 2,19, 0, 2, 0.00,60.00,Wednesday
7,-3.9
545,18.54261608091981
546,-0.952564310383536
547,16.73871413282828
548,23.006980608713448
720,521.9081130579398
721,521.9081130579398
784,0.0
785,0.0
848,0.0
849,0.0
1121,641.9320340844745
1135,232.0287113587403
1161,6.909170945455711
1163,174.87506488419712
1166,0.0
1168,0.0
2,3, 2,19, 0, 3, 0.00,60.00,Wednesday
7,-6.7
545,18.09399400561056
546,-3.0922783498484
547,16.582910195051834
548,62.56411228444436
720,1277.3160559517273
721,1277.3160559517273
784,0.0
785,0.0
848,0.0
849,0.0
1121,1653.4632749585126
1135,609.8584607817215
1161,19.336479551513683
1163,131.49063350676244
1166,0.0
1168,0.0
2,3, 2,19, 0, 4, 0.00,60.00,Wednesday
7,-3.3
545,18.727423199727365
546,-2.4425492643666544
547,16.477730437534206
548,74.67537133213375
720,1660.7392587797794
721,1660.7392587797794
784,0.0
785,0.0
848,0.0
849,0.0
1121,2221.0769053497315
1135,746.4157115390024
1161,17.261418591301986
1163,118.61700277333193
1166,0.0
1168,0.0
2,3, 2,19, 0, 5, 0.00,60.00,Wednesday
7,-3.9
545,18.566319623830637
546,-3.294785984958662
547,16.361954264130837
548,88.86223681828885
720,1892.3819582409578
721,1892.3819582409578
784,0.0
785,0.0
848,0.0
849,0.0
1121,2589.4365525947915
1135,888.3212044375291
1161,26.64496096580958
1163,102.96007033011567
1166,0.0
1168,0.0
2,3, 2,19, 0, 6, 0.00,60.00,Wednesday
7,-3.3
545,19.154412626294764
546,-2.0980116190157667
547,16.210177714390568
548,135.14036200158006
720,3070.326168149608
721,3070.326168149608
784,0.0
785,0.0
848,0.0
849,0.0
1121,4143.738755309771
1135,1356.1020040338572
1161,37.21347712211003
1163,52.575349392887816
1166,0.0
1168,0.0
2,3, 2,19, 0, 7, 0.00,60.00,Wednesday
7,-3.3
545,19.491417979126492
546,-1.4880908807807018
547,16.115896304724465
548,148.25903581175245
720,3307.6730370120003
721,3307.6730370120003
784,0.0
785,0.0
848,0.0
849,0.0
1121,4571.17251654195
1135,1504.8738744437114
1161,40.82669969445864
1163,38.261232129770264
1166,0.0
1168,0.0
2,3, 2,19, 0, 8, 0.00,60.00,Wednesday
7,-2.8
545,19.653892040272943
546,-0.7282059098845705
547,16.011773592385815
548,140.4167888550434
720,3123.60171077586
721,3123.60171077586
784,0.0
785,0.0
848,0.0
849,0.0
1121,4378.393263116141
1135,1445.3839553093785
1161,34.296095053818775
1163,46.969455541869905
1166,0.0
1168,0.0
2,3, 2,19, 0, 9, 0.00,60.00,Wednesday
7,-1.1
545,19.648483150184266
546,1.5056848920614458
547,15.912114622485552
548,122.73062686058582
720,2893.3333594733485
721,2893.3333594733485
784,0.0
785,0.0
848,0.0
849,0.0
1121,4040.3829097479006
1135,1306.7831865644832
1161,12.027672194185376
1163,66.69867211854694
1166,0.0
1168,0.0
2,3, 2,19, 0,10, 0.00,60.00,Wednesday
7,1.7
545,20.162252557093517
546,5.539980147529556
547,15.82427383810195
548,63.33361784459282
720,1522.5581641248482
721,1522.5581641248482
784,0.0
785,0.0
848,0.0
849,0.0
1121,2194.3285333124522
1135,699.1487436835424
1161,0.033268906027249044
1163,131.31793448263923
1166,0.0
1168,0.0
2,3, 2,19, 0,11, 0.00,60.00,Wednesday
7,2.8
545,20.091067632864387
546,10.046544537253258
547,15.742781637567633
548,12.640224423018097
720,226.08969030480876
721,226.08969030480876
784,0.0
785,0.0
848,0.0
849,0.0
1121,436.0668368331843
1135,142.40135910352905
1161,0.006639853894622878
1163,186.29233916370228
1166,0.0
1168,0.0
2,3, 2,19, 0,12, 0.00,60.00,Wednesday
7,4.4
545,20.415444859573938
546,14.512743916293857
547,15.703175694441809
548,0.0
720,-414.9748979271608
721,-414.9748979271608
784,0.0
785,0.0
848,0.0
849,0.0
1121,0.0
1135,0.0
1161,0.0
1163,200.0
1166,0.0
1168,0.0
2,3, 2,19, 0,13, 0.00,60.00,Wednesday
7,5.6
545,20.99162256540447
546,19.087100573541015
547,15.701142800064904
548,0.0
720,-982.6351699356419
721,-982.6351699356419
784,0.0
785,0.0
848,0.0
849,0.0
1121,0.0
1135,0.0
1161,0.0
1163,200.0
1166,0.0
1168,0.0
2,3, 2,19, 0,14, 0.00,60.00,Wednesday
7,6.1
545,21.666786459841017
546,20.62142268237041
547,15.722103036697781
548,0.0
720,-1425.2843828784044
721,-1425.2843828784044
784,0.0
785,0.0
848,0.0
849,0.0
1121,0.0
1135,0.0
1161,0.0
1163,200.0
1166,0.0
1168,0.0
2,3, 2,19, 0,15, 0.00,60.00,Wednesday
7,7.2
545,22.836052028103833
546,25.535368326029644
547,15.766436907179813
548,0.0
720,-2363.910486580464
721,-2363.910486580464
784,0.0
785,0.0
848,0.0
849,0.0
1121,0.0
1135,0.0
1161,0.0
1163,200.0
1166,0.0
1168,0.0
2,3, 2,19, 0,16, 0.00,60.00,Wednesday
7,7.8
545,23.35610835993892
546,24.46134289060854
547,15.834240801042327
548,5.969177289245659
720,-2952.813374397887
721,-2952.813374397887
784,0.0
785,0.0
848,0.0
849,0.0
1121,0.0
1135,0.0
1161,0.0
1163,193.52676569022597
1166,0.0
1168,0.0
2,3, 2,19, 0,17, 0.00,60.00,Wednesday
7,7.2
545,23.41077298964207
546,20.524121820128926
547,15.949003222925402
548,14.371130758771537
720,-3643.904161026605
721,-3643.904161026605
784,0.0
785,0.0
848,0.0
849,0.0
1121,0.0
1135,0.0
1161,0.0
1163,184.41532355463264
1166,0.0
1168,0.0
2,3, 2,19, 0,18, 0.00,60.00,Wednesday
7,5.6
545,23.24917093778346
546,15.62485174815426
547,16.0577390546949
548,20.906330151692487
720,-4080.754217990283
721,-4080.754217990283
784,0.0
785,0.0
848,0.0
849,0.0
1121,0.0
1135,0.0
1161,0.0
1163,177.32827036764039
1166,0.0
1168,0.0
2,3, 2,19, 0,19, 0.00,60.00,Wednesday
7,5.6
545,23.384263266137655
546,11.639211967052892
547,16.11832542209164
548,6.456713543341543
720,-3727.0467083993717
721,-3727.0467083993717
784,0.0
785,0.0
848,0.0
849,0.0
1121,0.0
1135,0.0
1161,0.0
1163,192.99806026662296
1166,0.0
1168,0.0
2,3, 2,19, 0,20, 0.00,60.00,Wednesday
7,2.8
545,23.152564478033874
546,7.863110214818163
547,16.16988775031074
548,0.7230474210382032
720,-2943.3575777395545
721,-2943.3575777395545
784,0.0
785,0.0
848,0.0
849,0.0
1121,0.0
1135,0.0
1161,0.0
1163,199.21589606964923
1166,0.0
1168,0.0
2,3, 2,19, 0,21, 0.00,60.00,Wednesday
7,2.8
545,22.766788583549495
546,5.722117056316241
547,16.19371587949843
548,0.0
720,-2534.0774685023935
721,-2534.0774685023935
784,0.0
785,0.0
848,0.0
849,0.0
1121,0.0
1135,0.0
1161,0.0
1163,200.0
1166,0.0
1168,0.0
2,3, 2,19, 0,22, 0.00,60.00,Wednesday
7,1.7
545,22.096810133777154
546,4.107979019486195
547,16.18952881980187
548,0.0
720,-1939.2813230552838
721,-1939.2813230552838
784,0.0
785,0.0
848,0.0
849,0.0
1121,0.0
1135,0.0
1161,0.0
1163,200.0
1166,0.0
1168,0.0
2,3, 2,19, 0,23, 0.00,60.00,Wednesday
7,1.1
545,21.160748988310306
546,2.9703349472961222
547,16.160839768403033
548,0.0
720,-2133.5157539947613
721,-2133.5157539947613
784,0.0
785,0.0
848,0.0
849,0.0
1121,0.0
1135,0.0
1161,0.0
1163,200.0
1166,0.0
1168,0.0
2,3, 2,19, 0,24, 0.00,60.00,Wednesday
7,0.6
545,20.216708193943322
546,2.0333197626262947
547,16.110537317712588
548,0.0
720,-1371.99985506343
721,-1371.99985506343
784,0.0
785,0.0
848,0.0
849,0.0
1121,0.0
1135,0.0
1161,0.0
1163,200.0
1166,0.0
1168,0.0
2,4, 2,20, 0, 1, 0.00,60.00,Thursday
7,0.6
545,19.278682455934945
546,1.6314546821785916
547,16.044759380861457
548,0.0
720,-564.0707641396984
721,-564.0707641396984
784,0.0
785,0.0
848,0.0
849,0.0
1121,0.0
1135,0.0
1161,0.0
1163,200.0
1166,0.0
1168,0.0
2,4, 2,20, 0, 2, 0.00,60.00,Thursday
7,0.0
545,18.596624232822958
546,1.199375779479489
547,15.966253715896375
548,12.198016344852444
720,318.56774350129126
721,318.56774350129126
784,0.0
785,0.0
848,0.0
849,0.0
1121,392.0113161379098
1135,131.7124783098868
1161,0.0064075830090795545
1163,186.7718512993161
1166,0.0
1168,0.0
2,4, 2,20, 0, 3, 0.00,60.00,Thursday
7,-0.6
545,18.605173240068183
546,0.7737425157198584
547,15.868069175664159
548,37.431103155916446
720,962.8405684796417
721,962.8405684796417
784,0.0
785,0.0
848,0.0
849,0.0
1121,1205.8130301638032
1135,396.61558228940805
1161,0.019662464384049737
1163,159.407782571751
1166,0.0
1168,0.0
2,4, 2,20, 0, 4, 0.00,60.00,Thursday
7,-1.1
545,18.209570986589597
546,0.35411129604238256
547,15.77080174560092
548,47.84773262258955
720,1181.813439438146
721,1181.813439438146
784,0.0
785,0.0
848,0.0
849,0.0
1121,1530.1419551123813
1135,504.8145515727537
1161,0.02513430866438169
1163,148.11142172794268
1166,0.0
1168,0.0
2,4, 2,20, 0, 5, 0.00,60.00,Thursday
7,-1.7
545,18.566598948456182
546,0.01099814532997415
547,15.657472246808515
548,72.39086257518032
720,1794.0979308827555
721,1794.0979308827555
784,0.0
785,0.0
848,0.0
849,0.0
1121,2316.670681269571
1135,753.7715772082546
1161,0.03802678816490568
1163,121.4955143394953
1166,0.0
1168,0.0
2,4, 2,20, 0, 6, 0.00,60.00,Thursday
7,-1.7
545,19.368487102613464
546,1.0275469729949587
547,15.56533644263081
548,112.5239259734271
720,2839.230896658537
721,2839.230896658537
784,0.0
785,0.0
848,0.0
849,0.0
1121,3686.9726058789574
1135,1179.6435781641885
1161,0.059108614139390364
1163,77.97309278408827
1166,0.0
1168,0.0
2,4, 2,20, 0, 7, 0.00,60.00,Thursday
7,-1.7
545,19.61236278878379
546,0.858775284418396
547,15.491824695834735
548,114.08292984300238
720,2788.171751741251
721,2788.171751741251
784,0.0
785,0.0
848,0.0
849,0.0
1121,3726.4818741271747
1135,1214.9903706792784
1161,0.0599275582410065
1163,76.28242184960709
1166,0.0
1168,0.0
2,4, 2,20, 0, 8, 0.00,60.00,Thursday
7,-1.7
545,19.473575799778256
546,0.3844199468845413
547,15.395098729021495
548,126.45947349897614
720,3099.143688615208
721,3099.143688615208
784,0.0
785,0.0
848,0.0
849,0.0
1121,4158.627132050924
1135,1353.116479528398
1161,0.06642893513684135
1163,62.86064015510069
1166,0.0
1168,0.0
2,4, 2,20, 0, 9, 0.00,60.00,Thursday
7,-3.0
545,19.517486790283435
546,-0.14066869419983102
547,15.288248240183938
548,157.12573874012767
720,3689.4817524550253
721,3689.4817524550253
784,0.0
785,0.0
848,0.0
849,0.0
1121,4979.71434124946
1135,1627.78748921548
1161,25.767456325367338
1163,29.028557959006495
1166,0.0
1168,0.0
2,4, 2,20, 0,10, 0.00,60.00,Thursday
7,-4.0
545,19.65994183420903
546,-0.3685619837676763
547,15.193066002525855
548,168.19938484003012
720,3539.9436757583426
721,3539.9436757583426
784,0.0
785,0.0
848,0.0
849,0.0
1121,4934.546524059261
1135,1650.742793486354
1161,98.3769600550405
1163,14.988433653446753
1166,0.0
1168,0.0
2,4, 2,20, 0,11, 0.00,60.00,Thursday
7,-4.0
545,19.726276861999178
546,-0.3100285526823898
547,15.103950998976904
548,159.12156181182266
720,3265.8099507878924
721,3265.8099507878924
784,0.0
785,0.0
848,0.0
849,0.0
1121,4636.306554873438
1135,1565.9737321520583
1161,93.0685025180252
1163,24.971726929208483
1166,0.0
1168,0.0
2,4, 2,20, 0,12, 0.00,60.00,Thursday
7,-2.8
545,19.766992558569218
546,0.5482084102906424
547,15.02053102447349
548,144.10068654489493
720,3001.4487517027155
721,3001.4487517027155
784,0.0
785,0.0
848,0.0
849,0.0
1121,4270.58483791077
1135,1423.7747394849248
1161,90.96841939272119
1163,41.63069511479076
1166,0.0
1168,0.0
2,4, 2,20, 0,13, 0.00,60.00,Thursday
7,-2.8
545,19.757213944654772
546,0.7469557991835046
547,14.930695840863557
548,138.6676414530233
720,2909.006781142134
721,2909.006781142134
784,0.0
785,0.0
848,0.0
849,0.0
1121,4094.0105157322155
1135,1371.1236027792568
1161,87.53886181424197
1163,47.601301764805996
1166,0.0
1168,0.0
2,4, 2,20, 0,14, 0.00,60.00,Thursday
7,-1.0
545,19.858366837450795
546,2.8048956671097844
547,14.851142643071713
548,111.04320898484104
720,2342.6841769627044
721,2342.6841769627044
784,0.0
785,0.0
848,0.0
849,0.0
1121,3322.7547890101487
1135,1093.6515444700538
1161,84.54326341314199
1163,78.02712992947363
1166,0.0
1168,0.0
2,4, 2,20, 0,15, 0.00,60.00,Thursday
7,-1.0
545,19.72043617994508
546,1.992815058404302
547,14.772529362284791
548,101.788821551997
720,2194.1804514242885
721,2194.1804514242885
784,0.0
785,0.0
848,0.0
849,0.0
1121,3026.160351392279
1135,1004.4655114143225
1161,77.49789172138378
1163,88.19167966725684
1166,0.0
1168,0.0
2,4, 2,20, 0,16, 0.00,60.00,Thursday
7,-0.6
545,19.658393368731605
546,2.473666406247623
547,14.704312131330415
548,96.29323191399821
720,2151.618234723237
721,2151.618234723237
784,0.0
785,0.0
848,0.0
849,0.0
1121,2938.2981774686095
1135,965.3512125216627
1161,60.981990379222275
1163,94.5375661616809
1166,0.0
1168,0.0
2,4, 2,20, 0,17, 0.00,60.00,Thursday
7,-0.6
545,19.871270393393253
546,2.9416444549195835
547,14.641614349855033
548,76.33801454617884
720,1640.2127477760077
721,1640.2127477760077
784,0.0
785,0.0
848,0.0
849,0.0
1121,2273.6531032212015
1135,756.4132904212947
1161,54.78405358535406
1163,116.27381298291857
1166,0.0
1168,0.0
2,4, 2,20, 0,18, 0.00,60.00,Thursday
7,-1.0
545,19.931844053152126
546,2.2794845534496493
547,14.58818648252314
548,46.750114386767855
720,930.3529914553528
721,930.3529914553528
784,0.0
785,0.0
848,0.0
849,0.0
1121,1342.2065382272133
1135,461.4778205823437
1161,35.59368228012827
1163,148.6480245874822
1166,0.0
1168,0.0
2,4, 2,20, 0,19, 0.00,60.00,Thursday
7,-0.6
545,19.684333181550844
546,1.7751255572973994
547,14.568921006086383
548,51.490409402760726
720,1096.7240437057299
721,1096.7240437057299
784,0.0
785,0.0
848,0.0
849,0.0
1121,1497.0940818755344
1135,509.7716072321212
1161,39.53561086869465
1163,143.47659123212796
1166,0.0
1168,0.0
2,4, 2,20, 0,20, 0.00,60.00,Thursday
7,-1.0
545,19.606010779388363
546,0.988116954672952
547,14.539430726512391
548,59.481751778239875
720,1300.4013092007353
721,1300.4013092007353
784,0.0
785,0.0
848,0.0
849,0.0
1121,1750.9897151457228
1135,593.2046273591612
1161,38.49271829496549
1163,134.7985881557516
1166,0.0
1168,0.0
2,4, 2,20, 0,21, 0.00,60.00,Thursday
7,-1.0
545,19.89991454367702
546,1.0625026610816974
547,14.50612227119927
548,63.5296333128227
720,1407.3647365572178
721,1407.3647365572178
784,0.0
785,0.0
848,0.0
849,0.0
1121,1906.522577198779
1135,641.7081047197291
1161,33.65540223965838
1163,130.50537483682945
1166,0.0
1168,0.0
2,4, 2,20, 0,22, 0.00,60.00,Thursday
7,-2.0
545,19.337666113357287
546,-0.08596805402960796
547,14.465596219660354
548,77.94419726624966
720,1701.539007212219
721,1701.539007212219
784,0.0
785,0.0
848,0.0
849,0.0
1121,2307.895020312083
1135,790.6048005586381
1161,37.57310897080573
1163,114.70537459233859
1166,0.0
1168,0.0
2,4, 2,20, 0,23, 0.00,60.00,Thursday
7,-3.3
545,18.752690020450004
546,-1.3195619733433297
547,14.388719654439925
548,79.38719434147498
720,1622.7601139527778
721,1622.7601139527778
784,0.0
785,0.0
848,0.0
849,0.0
1121,2254.3848588303026
1135,782.7551407589912
1161,43.71843434887842
1163,112.84746934663134
1166,0.0
1168,0.0
2,4, 2,20, 0,24, 0.00,60.00,Thursday
7,-3.0
545,18.72101000692776
546,-1.1029213760915955
547,14.320077051606235
548,95.22936009045509
720,2020.7031574628236
721,2020.7031574628236
784,0.0
785,0.0
848,0.0
849,0.0
1121,2772.9683388672984
1135,932.6663132225681
1161,50.03539398467367
1163,95.56520479407156
1166,0.0
1168,0.0
2,5, 2,21, 0, 1, 0.00,60.00,Friday
7,-3.3
545,18.586282094975395
546,-1.2267896532976006
547,14.247763797006654
548,112.63328962333016
720,2385.3332158229587
721,2385.3332158229587
784,0.0
785,0.0
848,0.0
849,0.0
1121,3278.0967853185193
1135,1096.7305144781722
1161,62.08770347258475