Program Version,EnergyPlus, Version 22.2.0-c249759bad, YMD=2023.09.01 18:12
1,5,Environment Title[],Latitude[deg],Longitude[deg],Time Zone[],Elevation[m]
2,8,Day of Simulation[],Month[],Day of Month[],DST Indicator[1=yes 0=no],Hour[],StartMinute[],EndMinute[],DayType
3,5,Cumulative Day of Simulation[],Month[],Day of Month[],DST Indicator[1=yes 0=no],DayType  ! When Daily Report Variables Requested
4,2,Cumulative Days of Simulation[],Month[]  ! When Monthly Report Variables Requested
5,1,Cumulative Days of Simulation[] ! When Run Period Report Variables Requested
6,1,Calendar Year of Simulation[] ! When Annual Report Variables Requested
581,11,LIVING,AFN Zone Infiltration Air Change Rate [ach] !RunPeriod [Value,Min,Month,Day,Hour,Minute,Max,Month,Day,Hour,Minute]
582,11,ATTIC,AFN Zone Infiltration Air Change Rate [ach] !RunPeriod [Value,Min,Month,Day,Hour,Minute,Max,Month,Day,Hour,Minute]
583,11,CRAWLSPACE,AFN Zone Infiltration Air Change Rate [ach] !RunPeriod [Value,Min,Month,Day,Hour,Minute,Max,Month,Day,Hour,Minute]
1038,11,Facility,Facility Heating Setpoint Not Met Time [hr] !RunPeriod [Value,Min,Month,Day,Hour,Minute,Max,Month,Day,Hour,Minute]
1039,11,Facility,Facility Cooling Setpoint Not Met Time [hr] !RunPeriod [Value,Min,Month,Day,Hour,Minute,Max,Month,Day,Hour,Minute]
1115,11,DX_HEATING_COIL,Heating Coil Heating Energy [J] !RunPeriod [Value,Min,Month,Day,Hour,Minute,Max,Month,Day,Hour,Minute]
1128,11,DX_HEATING_COIL,Heating Coil Electricity Energy [J] !RunPeriod [Value,Min,Month,Day,Hour,Minute,Max,Month,Day,Hour,Minute]
1153,11,DX_HEATING_COIL,Heating Coil Defrost Electricity Energy [J] !RunPeriod [Value,Min,Month,Day,Hour,Minute,Max,Month,Day,Hour,Minute]
1154,11,DX_HEATING_COIL,Heating Coil Crankcase Heater Electricity Energy [J] !RunPeriod [Value,Min,Month,Day,Hour,Minute,Max,Month,Day,Hour,Minute]
1155,11,HEATING_RESISTANCE_BACKUP,Heating Coil Heating Energy [J] !RunPeriod [Value,Min,Month,Day,Hour,Minute,Max,Month,Day,Hour,Minute]
1156,11,HEATING_RESISTANCE_BACKUP,Heating Coil Electricity Energy [J] !RunPeriod [Value,Min,Month,Day,Hour,Minute,Max,Month,Day,Hour,Minute]
1292,11,WATER HEATER,Water Heater Heat Loss Energy [J] !RunPeriod [Value,Min,Month,Day,Hour,Minute,Max,Month,Day,Hour,Minute]
1306,11,WATER HEATER,Water Heater Heating Energy [J] !RunPeriod [Value,Min,Month,Day,Hour,Minute,Max,Month,Day,Hour,Minute]
1307,11,WATER HEATER,Water Heater Unmet Demand Heat Transfer Energy [J] !RunPeriod [Value,Min,Month,Day,Hour,Minute,Max,Month,Day,Hour,Minute]
1308,11,WATER HEATER,Water Heater Electricity Energy [J] !RunPeriod [Value,Min,Month,Day,Hour,Minute,Max,Month,Day,Hour,Minute]
13,11,Electricity:Facility [J] !RunPeriod [Value,Min,Month,Day,Hour,Minute,Max,Month,Day,Hour,Minute]
1134,11,Heating:Electricity [J] !RunPeriod [Value,Min,Month,Day,Hour,Minute,Max,Month,Day,Hour,Minute]
1096,11,Cooling:Electricity [J] !RunPeriod [Value,Min,Month,Day,Hour,Minute,Max,Month,Day,Hour,Minute]
562,11,Fans:Electricity [J] !RunPeriod [Value,Min,Month,Day,Hour,Minute,Max,Month,Day,Hour,Minute]
1379,11,Pumps:Electricity [J] !RunPeriod [Value,Min,Month,Day,Hour,Minute,Max,Month,Day,Hour,Minute]
1326,11,WaterSystems:Electricity [J] !RunPeriod [Value,Min,Month,Day,Hour,Minute,Max,Month,Day,Hour,Minute]
61,11,InteriorLights:Electricity [J] !RunPeriod [Value,Min,Month,Day,Hour,Minute,Max,Month,Day,Hour,Minute]
1046,11,ExteriorLights:Electricity [J] !RunPeriod [Value,Min,Month,Day,Hour,Minute,Max,Month,Day,Hour,Minute]
134,11,InteriorEquipment:Electricity [J] !RunPeriod [Value,Min,Month,Day,Hour,Minute,Max,Month,Day,Hour,Minute]
170,11,gas_dryer:InteriorEquipment:Electricity [J] !RunPeriod [Value,Min,Month,Day,Hour,Minute,Max,Month,Day,Hour,Minute]
207,11,clotheswasher:InteriorEquipment:Electricity [J] !RunPeriod [Value,Min,Month,Day,Hour,Minute,Max,Month,Day,Hour,Minute]
244,11,dishwasher:InteriorEquipment:Electricity [J] !RunPeriod [Value,Min,Month,Day,Hour,Minute,Max,Month,Day,Hour,Minute]
281,11,refrigerator:InteriorEquipment:Electricity [J] !RunPeriod [Value,Min,Month,Day,Hour,Minute,Max,Month,Day,Hour,Minute]
318,11,electric_mels:InteriorEquipment:Electricity [J] !RunPeriod [Value,Min,Month,Day,Hour,Minute,Max,Month,Day,Hour,Minute]
355,11,NaturalGas:Facility [J] !RunPeriod [Value,Min,Month,Day,Hour,Minute,Max,Month,Day,Hour,Minute]
403,11,InteriorEquipment:NaturalGas [J] !RunPeriod [Value,Min,Month,Day,Hour,Minute,Max,Month,Day,Hour,Minute]
476,11,gas_dryer:InteriorEquipment:NaturalGas [J] !RunPeriod [Value,Min,Month,Day,Hour,Minute,Max,Month,Day,Hour,Minute]
513,11,gas_mels:InteriorEquipment:NaturalGas [J] !RunPeriod [Value,Min,Month,Day,Hour,Minute,Max,Month,Day,Hour,Minute]
End of Data Dictionary
1,EXTREME_WINTER,  35.04,-106.62,  -7.00,1619.00
5,15
1038,0.0,0.0,12,22, 1,15,0.0,12,22, 1,15
1039,0.0,0.0,12,22, 1,15,0.0,12,22, 1,15
581,0.3511849767681611,0.19065427257856368,12,22, 5,60,1.0574847186595298,12,27, 7,52
582,3.7147677812515587,0.0,12,22, 5,60,26.176282719394354,12,31,22,50
583,0.036898972817822284,0.00032767983809962555, 1, 4,12,47,0.11352851545450784,12,27, 7,52
1115,2502198778.3061585,0.0,12,22,23, 7,5042025.2796744425,12,27, 8,45
1128,851233086.4948447,0.0,12,22,23, 7,1658716.5934217134, 1, 3, 6,45
1153,25656324.334662985,0.0,12,22,13, 7,98959.83144970196,12,27, 6,45
1154,160298694.80260175,0.0,12,23, 6, 5,180000.0,12,23,13,45
1155,109730874.02673428,0.0,12,22, 1,15,2488767.864280155, 1, 2, 6,45
1156,109730874.02673428,0.0,12,22, 1,15,2488767.864280155, 1, 2, 6,45
1292,-53834414.095784314,-39770.837329839116, 1, 5, 3,45,-4043.4382688307023, 1, 4,11,59
1306,459411386.19271296,0.0,12,22, 1,15,4050000.0,12,22, 7,60
1307,68717743.04281482,0.0,12,22, 1,15,10867519.783832764, 1, 4,19,60
1308,459411386.19271296,0.0,12,22, 1,15,4050000.0,12,22, 7,60
13,2497879477.52825,272017.0388981225,12,25,15,15,8516710.846358169, 1, 1, 7,60
61,646981127.1939323,88139.10953165221,12,22, 1,15,1282023.4113694867,12,22,20,15
134,151290040.75163814,63564.01800854099,12,22, 4,15,156554.22484006523,12,27,20,15
170,11185820.069951689,348.4159749238097,12,22, 4,15,17476.39704006126,12,27,12,15
207,13893028.5742839,815.2532113832032,12,22, 3,15,22990.642799023623,12,27,10,15
244,27284301.07562584,1521.856143006317,12,22, 4,15,53038.631142310165,12,27,20,15
281,98926891.03177746,59938.60262432081,12,22, 5,15,81951.81706819107,12,22,19,15
318,0.0,0.0,12,22, 1,15,0.0,12,22, 1,15
355,422701517.16107386,18561.32405820678,12,22, 4,15,724774.895203776,12,27,18,15
403,422701517.16107386,18561.32405820678,12,22, 4,15,724774.895203776,12,27,18,15
476,227882097.80545202,7098.072629279515,12,22, 4,15,356036.3026282215,12,27,12,15
513,0.0,0.0,12,22, 1,15,0.0,12,22, 1,15
562,92639523.02041243,0.0,12,22,23,15,177830.8458559389,12,27, 7,30
1046,0.0,0.0,12,22, 1,15,0.0,12,22, 1,15
1096,638420.7107074081,0.0,12,22, 1,15,98266.57645340635,12,25,17,15
1134,1146918979.6588457,0.0,12,23,16,45,4699880.618900893, 1, 2, 6,15
1326,459411386.1927128,0.0,12,22, 1,15,4050000.0,12,22, 7,60
1379,0.0,0.0,12,22, 1,15,0.0,12,22, 1,15
1,EXTREME_SUMMER,  35.04,-106.62,  -7.00,1619.00
5,7
1038,0.0,0.0, 7,13, 1,15,0.0, 7,13, 1,15
1039,7.0,0.0, 7,13, 1,15,0.25, 7,18,16,30
581,0.14868486177810253,0.0, 7,13,23, 3,0.7864349183038204, 7,18,22,52
582,3.6648959893654167,0.01896137407852432, 7,17, 6, 3,20.099787110227417, 7,13,15,46
583,0.04662149328854074,0.0, 7,14, 6, 7,0.09492186584647234, 7,18,19,47
1115,0.0,0.0, 7,13, 1,15,0.0, 7,13, 1,15
1128,0.0,0.0, 7,13, 1,15,0.0, 7,13, 1,15
1153,0.0,0.0, 7,13, 1,15,0.0, 7,13, 1,15
1154,0.0,0.0, 7,13, 1,15,0.0, 7,13, 1,15
1155,0.0,0.0, 7,13, 1,15,0.0, 7,13, 1,15
1156,0.0,0.0, 7,13, 1,15,0.0, 7,13, 1,15
1292,-22094361.447538406,-34297.530711331594, 7,15,15,30,-2145.7108224897515, 7,15,16,37
1306,160111328.6888094,0.0, 7,13, 1,15,2571982.4322175365, 7,15, 6,45
1307,13035414.107220944,0.0, 7,13, 1,15,1185840.3028389015, 7,19,19,50
1308,160111328.6888094,0.0, 7,13, 1,15,2571982.4322175365, 7,15, 6,45
13,1180883641.1398866,208112.16922470287, 7,13, 4,60,7444452.936656874, 7,19,20,15
61,301924526.02383536,88139.10953165221, 7,13, 1,15,1282023.4113694867, 7,13,20,15
134,70666020.44019976,63564.01800854099, 7,13, 4,15,156554.22484006523, 7,18,20,15
170,5241013.419656067,348.4159749238097, 7,13, 4,15,17476.39704006126, 7,18,12,15
207,6509451.13922267,815.2532113832032, 7,13, 3,15,22990.642799023623, 7,18,10,15
244,12749673.399825225,1521.856143006317, 7,13, 4,15,53038.631142310165, 7,18,20,15
281,46165882.481495745,59938.60262432081, 7,13, 5,15,81951.81706819107, 7,13,19,15
318,0.0,0.0, 7,13, 1,15,0.0, 7,13, 1,15
355,197687796.27748066,18561.32405820678, 7,13, 4,15,724774.895203776, 7,18,18,15
403,197687796.27748066,18561.32405820678, 7,13, 4,15,724774.895203776, 7,18,18,15
476,106772067.24485716,7098.072629279515, 7,13, 4,15,356036.3026282215, 7,18,12,15
513,0.0,0.0, 7,13, 1,15,0.0, 7,13, 1,15
562,60027345.95153996,6426.5479476613355, 7,13, 4,60,177830.84585593894, 7,18,17,60
1046,0.0,0.0, 7,13, 1,15,0.0, 7,13, 1,15
1096,588154420.0355022,49982.49373684831, 7,13, 4,60,2032110.0784928894, 7,18,16,60
1134,0.0,0.0, 7,13, 1,15,0.0, 7,13, 1,15
1326,160111328.68880942,0.0, 7,13, 1,15,4050000.0, 7,18, 9,60
1379,0.0,0.0, 7,13, 1,15,0.0, 7,13, 1,15
1,ANNUAL,  35.04,-106.62,  -7.00,1619.00
5,365
1038,0.5,0.0, 1, 1, 1,15,0.25,12,12,22,45
1039,44.75,0.0, 1, 1, 1,15,0.25, 1,27,15,45
581,0.251086213891071,0.0, 7, 3, 6, 7,1.1628133456602618, 6, 6,23,52
582,4.230827379682376,0.0, 1, 1, 3,45,38.61974409272284, 4,29,17,52
583,0.027482120081760125,0.0, 7, 3, 6, 7,0.11385488130319997,12,27, 7,52
1115,9738466195.4704,0.0, 1, 1,14,33,5041091.7800962785,12,27, 8,45
1128,3227664768.6716967,0.0, 1, 1,14,33,1682318.204922081, 2,22,22,60
1153,72769657.91648617,0.0, 1, 1,14,33,105963.90408555804,12,13, 6,45
1154,1844619850.350824,0.0, 1, 1, 1,60,180000.0, 1, 1,15,15
1155,216900063.7866986,0.0, 1, 1, 1, 7,2273473.5000966974, 2,23, 6,45
1156,216900063.7866986,0.0, 1, 1, 1, 7,2273473.5000966974, 2,23, 6,45
1292,-1201195261.6465425,-39767.59797646525,12,18, 3,15,-2147.5161048660652, 8, 1,16,15
1306,9943556045.31116,0.0, 1, 1, 1, 7,4050000.0, 1, 1,20,15
1307,1230643415.8179765,0.0, 1, 1, 1, 7,9022752.482199028,11,12,19,60
1308,9943556045.31116,0.0, 1, 1, 1, 7,4050000.0, 1, 1,20,15
13,47724859958.85156,151703.1275401932, 3,14, 4,15,8382044.615088472, 2,23, 7,15
61,15743207428.383959,88139.10953165221, 1, 1, 1,15,1282023.4113694867, 1, 1,20,15
134,3685071073.4325233,63564.01800854099, 1, 2, 4,15,156554.22484006523, 1, 1,20,15
170,273393721.45532674,348.4159749238097, 1, 2, 4,15,17476.39704006126, 1, 1,12,15
207,339560869.0695816,815.2532113832032, 1, 2, 3,15,22990.642799023623, 1, 1,10,15
244,664895467.8009144,1521.856143006317, 1, 2, 4,15,53038.631142310165, 1, 1,20,15
281,2407221015.106824,59938.60262432081, 1, 1, 5,15,81951.81706819107, 1, 1,19,15
318,0.0,0.0, 1, 1, 1,15,0.0, 1, 1, 1,15
355,10310294493.051695,18561.32405820678, 1, 2, 4,15,724774.895203776, 1, 1,18,15
403,10310294493.051695,18561.32405820678, 1, 2, 4,15,724774.895203776, 1, 1,18,15
476,5569688622.066177,7098.072629279515, 1, 2, 4,15,356036.3026282215, 1, 1,12,15
513,0.0,0.0, 1, 1, 1,15,0.0, 1, 1, 1,15
562,1685881092.3432035,0.0, 1, 1,14,45,177830.84585593894, 6,21,17,30
1046,0.0,0.0, 1, 1, 1,15,0.0, 1, 1, 1,15
1096,11305189978.653261,0.0, 1, 1, 1,15,2030017.0565458536, 7,18,16,60
1134,5361954340.725734,0.0, 1, 9,15,60,4503997.5508828545, 2,23, 6,15
1326,9943556045.311146,0.0, 1, 1, 1,15,4050000.0000000014, 4, 9, 9,60
1379,0.0,0.0, 1, 1, 1,15,0.0, 1, 1, 1,15
End of Data
 Number of Records Written=          99
