Program Version,EnergyPlus, Version 22.2.0-c249759bad, YMD=2023.07.07 15:18
1,5,Environment Title[],Latitude[deg],Longitude[deg],Time Zone[],Elevation[m]
2,8,Day of Simulation[],Month[],Day of Month[],DST Indicator[1=yes 0=no],Hour[],StartMinute[],EndMinute[],DayType
3,5,Cumulative Day of Simulation[],Month[],Day of Month[],DST Indicator[1=yes 0=no],DayType  ! When Daily Report Variables Requested
4,2,Cumulative Days of Simulation[],Month[]  ! When Monthly Report Variables Requested
5,1,Cumulative Days of Simulation[] ! When Run Period Report Variables Requested
6,1,Calendar Year of Simulation[] ! When Annual Report Variables Requested
581,11,LIVING,AFN Zone Infiltration Air Change Rate [ach] !RunPeriod [Value,Min,Month,Day,Hour,Minute,Max,Month,Day,Hour,Minute]
582,11,ATTIC,AFN Zone Infiltration Air Change Rate [ach] !RunPeriod [Value,Min,Month,Day,Hour,Minute,Max,Month,Day,Hour,Minute]
583,11,CRAWLSPACE,AFN Zone Infiltration Air Change Rate [ach] !RunPeriod [Value,Min,Month,Day,Hour,Minute,Max,Month,Day,Hour,Minute]
1038,11,Facility,Facility Heating Setpoint Not Met Time [hr] !RunPeriod [Value,Min,Month,Day,Hour,Minute,Max,Month,Day,Hour,Minute]
1039,11,Facility,Facility Cooling Setpoint Not Met Time [hr] !RunPeriod [Value,Min,Month,Day,Hour,Minute,Max,Month,Day,Hour,Minute]
1115,11,DX_HEATING_COIL,Heating Coil Heating Energy [J] !RunPeriod [Value,Min,Month,Day,Hour,Minute,Max,Month,Day,Hour,Minute]
1128,11,DX_HEATING_COIL,Heating Coil Electricity Energy [J] !RunPeriod [Value,Min,Month,Day,Hour,Minute,Max,Month,Day,Hour,Minute]
1153,11,DX_HEATING_COIL,Heating Coil Defrost Electricity Energy [J] !RunPeriod [Value,Min,Month,Day,Hour,Minute,Max,Month,Day,Hour,Minute]
1154,11,DX_HEATING_COIL,Heating Coil Crankcase Heater Electricity Energy [J] !RunPeriod [Value,Min,Month,Day,Hour,Minute,Max,Month,Day,Hour,Minute]
1156,11,HEATING_RESISTANCE_BACKUP,Heating Coil Electricity Energy [J] !RunPeriod [Value,Min,Month,Day,Hour,Minute,Max,Month,Day,Hour,Minute]
13,11,Electricity:Facility [J] !RunPeriod [Value,Min,Month,Day,Hour,Minute,Max,Month,Day,Hour,Minute]
1134,11,Heating:Electricity [J] !RunPeriod [Value,Min,Month,Day,Hour,Minute,Max,Month,Day,Hour,Minute]
1096,11,Cooling:Electricity [J] !RunPeriod [Value,Min,Month,Day,Hour,Minute,Max,Month,Day,Hour,Minute]
562,11,Fans:Electricity [J] !RunPeriod [Value,Min,Month,Day,Hour,Minute,Max,Month,Day,Hour,Minute]
1388,11,Pumps:Electricity [J] !RunPeriod [Value,Min,Month,Day,Hour,Minute,Max,Month,Day,Hour,Minute]
1360,11,WaterSystems:Electricity [J] !RunPeriod [Value,Min,Month,Day,Hour,Minute,Max,Month,Day,Hour,Minute]
61,11,InteriorLights:Electricity [J] !RunPeriod [Value,Min,Month,Day,Hour,Minute,Max,Month,Day,Hour,Minute]
1046,11,ExteriorLights:Electricity [J] !RunPeriod [Value,Min,Month,Day,Hour,Minute,Max,Month,Day,Hour,Minute]
134,11,InteriorEquipment:Electricity [J] !RunPeriod [Value,Min,Month,Day,Hour,Minute,Max,Month,Day,Hour,Minute]
170,11,gas_dryer:InteriorEquipment:Electricity [J] !RunPeriod [Value,Min,Month,Day,Hour,Minute,Max,Month,Day,Hour,Minute]
207,11,clotheswasher:InteriorEquipment:Electricity [J] !RunPeriod [Value,Min,Month,Day,Hour,Minute,Max,Month,Day,Hour,Minute]
244,11,dishwasher:InteriorEquipment:Electricity [J] !RunPeriod [Value,Min,Month,Day,Hour,Minute,Max,Month,Day,Hour,Minute]
281,11,refrigerator:InteriorEquipment:Electricity [J] !RunPeriod [Value,Min,Month,Day,Hour,Minute,Max,Month,Day,Hour,Minute]
318,11,electric_mels:InteriorEquipment:Electricity [J] !RunPeriod [Value,Min,Month,Day,Hour,Minute,Max,Month,Day,Hour,Minute]
355,11,NaturalGas:Facility [J] !RunPeriod [Value,Min,Month,Day,Hour,Minute,Max,Month,Day,Hour,Minute]
1323,11,WaterSystems:NaturalGas [J] !RunPeriod [Value,Min,Month,Day,Hour,Minute,Max,Month,Day,Hour,Minute]
403,11,InteriorEquipment:NaturalGas [J] !RunPeriod [Value,Min,Month,Day,Hour,Minute,Max,Month,Day,Hour,Minute]
476,11,gas_dryer:InteriorEquipment:NaturalGas [J] !RunPeriod [Value,Min,Month,Day,Hour,Minute,Max,Month,Day,Hour,Minute]
513,11,gas_mels:InteriorEquipment:NaturalGas [J] !RunPeriod [Value,Min,Month,Day,Hour,Minute,Max,Month,Day,Hour,Minute]
End of Data Dictionary
1,EXTREME_WINTER,  39.77, -94.92,  -6.00, 249.00
5,7
1038,2.833333333333333,0.0,12,22, 1,10,0.16666666666666666,12,26, 6,10
1039,0.0,0.0,12,22, 1,10,0.0,12,22, 1,10
581,0.35269404988677744,0.23469687910202341,12,28,17,60,0.6002451803334217,12,25,23, 2
582,3.913903066376157,0.0,12,25, 2,55,12.420425041393294,12,24,14,60
583,5.2548462546526995,0.5201126716920813,12,28,17,60,15.146414035919772,12,24,11,55
1115,2321596919.1435485,0.0,12,22,23, 2,2918697.8127670684,12,28,15,50
1128,811076659.0009432,0.0,12,22,23, 2,917234.2528898026,12,28,15,50
1153,19063369.025701616,0.0,12,22,23, 2,72806.42963295049,12,22, 2,20
1154,9757826.316259855,0.0,12,22, 4,50,106946.90243019322,12,24,16,10
1156,1078000687.7205174,0.0,12,22, 1, 2,4478231.126003393,12,27, 7,10
13,2387433432.912333,447276.9287140635,12,24,15,60,5842884.348979571,12,26, 6,10
61,301924526.0238348,58759.40635443481,12,22, 1,10,854682.2742463244,12,22,20,10
134,70666020.44019979,42376.01200569399,12,22, 4,10,104369.48322671017,12,27,20,10
170,5241013.419656074,232.27731661587313,12,22, 4,10,11650.931360040839,12,27,12,10
207,6509451.13922266,543.5021409221355,12,22, 3,10,15327.095199349082,12,27,10,10
244,12749673.39982522,1014.5707620042115,12,22, 4,10,35359.08742820678,12,27,20,10
281,46165882.48149605,39959.06841621388,12,22, 5,10,54634.54471212738,12,22,19,10
318,0.0,0.0,12,22, 1,10,0.0,12,22, 1,10
355,732697894.4451627,12374.216038804521,12,22, 4,10,3829218.1540669827,12,23,18,60
403,197687796.27748126,12374.216038804521,12,22, 4,10,483183.26346918393,12,27,18,10
476,106772067.24485692,4732.048419519677,12,22, 4,10,237357.535085481,12,27,12,10
513,0.0,0.0,12,22, 1,10,0.0,12,22, 1,10
562,91924504.38487905,10773.081418992715,12,24,16,10,99389.00486977036,12,22, 4,50
1046,0.0,0.0,12,22, 1,10,0.0,12,22, 1,10
1096,0.0,0.0,12,22, 1,10,0.0,12,22, 1,10
1134,1917898542.0634203,209388.2849003548,12,24,16,10,5325936.021099148,12,26, 6,10
1323,535010098.16767937,0.0,12,22, 1,10,3375000.000000001,12,22,16,50
1360,5019840.0,4979.999999999999,12,23,10,60,4980.000000000001,12,22, 1,40
1388,0.0,0.0,12,22, 1,10,0.0,12,22, 1,10
1,EXTREME_SUMMER,  39.77, -94.92,  -6.00, 249.00
5,7
1038,0.0,0.0, 6, 1, 1,10,0.0, 6, 1, 1,10
1039,34.66666666666667,0.0, 6, 1, 1,10,0.16666666666666666, 6, 3,13,40
581,0.212398802034746,0.0, 6, 1, 6,45,0.6249149337816615, 6, 7,16,55
582,4.768373783782327,0.0, 6, 1, 8,18,13.34378132352686, 6, 7,16,55
583,6.1286346018155875,0.0, 6, 5, 6, 7,15.59568371781317, 6, 7,16,55
1115,0.0,0.0, 6, 1, 1, 5,0.0, 6, 1, 1, 5
1128,0.0,0.0, 6, 1, 1, 5,0.0, 6, 1, 1, 5
1153,0.0,0.0, 6, 1, 1, 5,0.0, 6, 1, 1, 5
1154,0.0,0.0, 6, 1, 1, 5,0.0, 6, 1, 1, 5
1156,0.0,0.0, 6, 1, 1, 5,0.0, 6, 1, 1, 5
13,1028295999.3104682,106115.4183601288, 6, 1, 4,10,2081432.6792769777, 6, 7,20,10
61,301924526.0238348,58759.40635443481, 6, 1, 1,10,854682.2742463244, 6, 1,20,10
134,70666020.44019979,42376.01200569399, 6, 1, 4,10,104369.48322671017, 6, 6,20,10
170,5241013.419656074,232.27731661587313, 6, 1, 4,10,11650.931360040839, 6, 6,12,10
207,6509451.13922266,543.5021409221355, 6, 1, 3,10,15327.095199349082, 6, 6,10,10
244,12749673.39982522,1014.5707620042115, 6, 1, 4,10,35359.08742820678, 6, 6,20,10
281,46165882.48149605,39959.06841621388, 6, 1, 5,10,54634.54471212738, 6, 1,19,10
318,0.0,0.0, 6, 1, 1,10,0.0, 6, 1, 1,10
355,669498124.0842319,12374.216038804521, 6, 1, 4,10,3829218.154066982, 6, 5,18,20
403,197687796.27748126,12374.216038804521, 6, 1, 4,10,483183.26346918393, 6, 6,18,10
476,106772067.24485692,4732.048419519677, 6, 1, 4,10,237357.535085481, 6, 6,12,10
513,0.0,0.0, 6, 1, 1,10,0.0, 6, 1, 1,10
562,59622915.397638015,0.0, 6, 1, 1,60,99389.00486977036, 6, 3,12,60
1046,0.0,0.0, 6, 1, 1,10,0.0, 6, 1, 1,10
1096,591062697.4487971,0.0, 6, 1, 1,60,1135159.1647047214, 6, 6,14,60
1134,0.0,0.0, 6, 1, 1,10,0.0, 6, 1, 1,10
1323,471810327.80674833,0.0, 6, 1, 1,10,3375000.0000000005, 6, 1, 9,60
1360,5019840.0,4980.0, 6, 1, 1,10,4980.000000000002, 6, 2, 9,40
1388,0.0,0.0, 6, 1, 1,10,0.0, 6, 1, 1,10
1,ANNUAL,  39.77, -94.92,  -6.00, 249.00
5,365
1038,23.166666666666654,0.0, 1, 1, 1,10,0.16666666666666666, 1, 7, 6,10
1039,387.1666666666666,0.0, 1, 1, 1,10,0.16666666666666666, 4,12,13,50
581,0.25005006164245686,0.0, 5,21, 7,15,1.3848909325131646, 3,23,17,60
582,4.247822237415944,0.0, 1, 1,20,53,33.44691435713627, 6,18, 6,55
583,5.252729080079629,0.0, 7,14,23, 2,32.25908919879764,12,13,11,60
1115,27180181013.659782,0.0, 1, 1,14,10,3274219.32858551, 1,12, 4,20
1128,8708453680.550266,0.0, 1, 1,14,10,957230.4650485576, 3, 2,13,20
1153,279042680.4566569,0.0, 1, 1,14,10,87078.0691347737, 1, 8, 6,40
1154,1414554200.4502249,0.0, 1, 1, 3,52,120000.0, 1, 1,14,10
1156,6919845386.73903,0.0, 1, 1, 1,10,4478231.126003393, 1,10, 6,10
13,49481612199.86397,106115.4183601288, 2, 7, 4,10,5928375.439711625,12,31,21,60
61,15743207428.39043,58759.40635443481, 1, 1, 1,10,854682.2742463244, 1, 1,20,10
134,3685071073.433083,42376.01200569399, 1, 2, 4,10,104369.48322671017, 1, 1,20,10
170,273393721.45534325,232.27731661587313, 1, 2, 4,10,11650.931360040839, 1, 1,12,10
207,339560869.06955314,543.5021409221355, 1, 2, 3,10,15327.095199349082, 1, 1,10,10
244,664895467.8009839,1014.5707620042115, 1, 2, 4,10,35359.08742820678, 1, 1,20,10
281,2407221015.1057043,39959.06841621388, 1, 1, 5,10,54634.54471212738, 1, 1,19,10
318,0.0,0.0, 1, 1, 1,10,0.0, 1, 1, 1,10
355,35730538651.36781,12374.216038804521, 1, 2, 4,10,3829218.154066983, 6,30,18,30
403,10310294493.052883,12374.216038804521, 1, 2, 4,10,483183.26346918393, 1, 1,18,10
476,5569688622.065564,4732.048419519677, 1, 2, 4,10,237357.535085481, 1, 1,12,10
513,0.0,0.0, 1, 1, 1,10,0.0, 1, 1, 1,10
562,2098911566.8330173,0.0, 1, 1,14,10,99389.00486977038, 6,26,19,20
1046,0.0,0.0, 1, 1, 1,10,0.0, 1, 1, 1,10
1096,10370777383.017612,0.0, 1, 1, 1,10,1151760.9599334272, 7, 9,16,60
1134,17321895948.19621,0.0, 1,14,12,40,5322078.728359615,12,30, 6,10
1323,25420244158.318905,0.0, 1, 1, 1,10,3375000.0000000023, 2,28, 9,60
1360,261748800.0,4979.999999999998, 4,23, 9,20,4980.000000000002, 1, 3,19,50
1388,0.0,0.0, 1, 1, 1,10,0.0, 1, 1, 1,10
End of Data
 Number of Records Written=          87
