Program Version,EnergyPlus, Version 22.2.0-c249759bad, YMD=2023.09.01 20:49
1,5,Environment Title[],Latitude[deg],Longitude[deg],Time Zone[],Elevation[m]
2,8,Day of Simulation[],Month[],Day of Month[],DST Indicator[1=yes 0=no],Hour[],StartMinute[],EndMinute[],DayType
3,5,Cumulative Day of Simulation[],Month[],Day of Month[],DST Indicator[1=yes 0=no],DayType  ! When Daily Report Variables Requested
4,2,Cumulative Days of Simulation[],Month[]  ! When Monthly Report Variables Requested
5,1,Cumulative Days of Simulation[] ! When Run Period Report Variables Requested
6,1,Calendar Year of Simulation[] ! When Annual Report Variables Requested
581,11,LIVING,AFN Zone Infiltration Air Change Rate [ach] !RunPeriod [Value,Min,Month,Day,Hour,Minute,Max,Month,Day,Hour,Minute]
582,11,ATTIC,AFN Zone Infiltration Air Change Rate [ach] !RunPeriod [Value,Min,Month,Day,Hour,Minute,Max,Month,Day,Hour,Minute]
583,11,CRAWLSPACE,AFN Zone Infiltration Air Change Rate [ach] !RunPeriod [Value,Min,Month,Day,Hour,Minute,Max,Month,Day,Hour,Minute]
1038,11,Facility,Facility Heating Setpoint Not Met Time [hr] !RunPeriod [Value,Min,Month,Day,Hour,Minute,Max,Month,Day,Hour,Minute]
1039,11,Facility,Facility Cooling Setpoint Not Met Time [hr] !RunPeriod [Value,Min,Month,Day,Hour,Minute,Max,Month,Day,Hour,Minute]
1115,11,DX_HEATING_COIL,Heating Coil Heating Energy [J] !RunPeriod [Value,Min,Month,Day,Hour,Minute,Max,Month,Day,Hour,Minute]
1128,11,DX_HEATING_COIL,Heating Coil Electricity Energy [J] !RunPeriod [Value,Min,Month,Day,Hour,Minute,Max,Month,Day,Hour,Minute]
1153,11,DX_HEATING_COIL,Heating Coil Defrost Electricity Energy [J] !RunPeriod [Value,Min,Month,Day,Hour,Minute,Max,Month,Day,Hour,Minute]
1154,11,DX_HEATING_COIL,Heating Coil Crankcase Heater Electricity Energy [J] !RunPeriod [Value,Min,Month,Day,Hour,Minute,Max,Month,Day,Hour,Minute]
1155,11,HEATING_RESISTANCE_BACKUP,Heating Coil Heating Energy [J] !RunPeriod [Value,Min,Month,Day,Hour,Minute,Max,Month,Day,Hour,Minute]
1156,11,HEATING_RESISTANCE_BACKUP,Heating Coil Electricity Energy [J] !RunPeriod [Value,Min,Month,Day,Hour,Minute,Max,Month,Day,Hour,Minute]
1292,11,WATER HEATER,Water Heater Heat Loss Energy [J] !RunPeriod [Value,Min,Month,Day,Hour,Minute,Max,Month,Day,Hour,Minute]
1306,11,WATER HEATER,Water Heater Heating Energy [J] !RunPeriod [Value,Min,Month,Day,Hour,Minute,Max,Month,Day,Hour,Minute]
1307,11,WATER HEATER,Water Heater Unmet Demand Heat Transfer Energy [J] !RunPeriod [Value,Min,Month,Day,Hour,Minute,Max,Month,Day,Hour,Minute]
1308,11,WATER HEATER,Water Heater Electricity Energy [J] !RunPeriod [Value,Min,Month,Day,Hour,Minute,Max,Month,Day,Hour,Minute]
13,11,Electricity:Facility [J] !RunPeriod [Value,Min,Month,Day,Hour,Minute,Max,Month,Day,Hour,Minute]
1134,11,Heating:Electricity [J] !RunPeriod [Value,Min,Month,Day,Hour,Minute,Max,Month,Day,Hour,Minute]
1096,11,Cooling:Electricity [J] !RunPeriod [Value,Min,Month,Day,Hour,Minute,Max,Month,Day,Hour,Minute]
562,11,Fans:Electricity [J] !RunPeriod [Value,Min,Month,Day,Hour,Minute,Max,Month,Day,Hour,Minute]
1379,11,Pumps:Electricity [J] !RunPeriod [Value,Min,Month,Day,Hour,Minute,Max,Month,Day,Hour,Minute]
1326,11,WaterSystems:Electricity [J] !RunPeriod [Value,Min,Month,Day,Hour,Minute,Max,Month,Day,Hour,Minute]
61,11,InteriorLights:Electricity [J] !RunPeriod [Value,Min,Month,Day,Hour,Minute,Max,Month,Day,Hour,Minute]
1046,11,ExteriorLights:Electricity [J] !RunPeriod [Value,Min,Month,Day,Hour,Minute,Max,Month,Day,Hour,Minute]
134,11,InteriorEquipment:Electricity [J] !RunPeriod [Value,Min,Month,Day,Hour,Minute,Max,Month,Day,Hour,Minute]
170,11,gas_dryer:InteriorEquipment:Electricity [J] !RunPeriod [Value,Min,Month,Day,Hour,Minute,Max,Month,Day,Hour,Minute]
207,11,clotheswasher:InteriorEquipment:Electricity [J] !RunPeriod [Value,Min,Month,Day,Hour,Minute,Max,Month,Day,Hour,Minute]
244,11,dishwasher:InteriorEquipment:Electricity [J] !RunPeriod [Value,Min,Month,Day,Hour,Minute,Max,Month,Day,Hour,Minute]
281,11,refrigerator:InteriorEquipment:Electricity [J] !RunPeriod [Value,Min,Month,Day,Hour,Minute,Max,Month,Day,Hour,Minute]
318,11,electric_mels:InteriorEquipment:Electricity [J] !RunPeriod [Value,Min,Month,Day,Hour,Minute,Max,Month,Day,Hour,Minute]
355,11,NaturalGas:Facility [J] !RunPeriod [Value,Min,Month,Day,Hour,Minute,Max,Month,Day,Hour,Minute]
403,11,InteriorEquipment:NaturalGas [J] !RunPeriod [Value,Min,Month,Day,Hour,Minute,Max,Month,Day,Hour,Minute]
476,11,gas_dryer:InteriorEquipment:NaturalGas [J] !RunPeriod [Value,Min,Month,Day,Hour,Minute,Max,Month,Day,Hour,Minute]
513,11,gas_mels:InteriorEquipment:NaturalGas [J] !RunPeriod [Value,Min,Month,Day,Hour,Minute,Max,Month,Day,Hour,Minute]
End of Data Dictionary
1,EXTREME_WINTER,  34.35, -85.17,  -5.00, 196.00
5,7
1038,0.25,0.0, 1,27, 1,15,0.25, 1,29, 6,15
1039,0.0,0.0, 1,27, 1,15,0.0, 1,27, 1,15
581,0.2799094765524675,0.1303764216716757, 2, 1,10,46,0.545045927254246, 1,31, 4,60
582,2.565401335938778,0.0, 1,27, 3,18,11.650668071097463, 1,28,14,60
583,0.021178349371665194,0.00023418389393128076, 2, 1,10,54,0.08022681050078989, 1,31, 4,60
1115,662506587.2735932,0.0, 1,27, 1, 7,4127042.685003677, 1,30, 6,45
1128,219504998.6799549,0.0, 1,27, 1, 7,1331430.946979815, 1,29, 9,15
1153,5202214.310849509,0.0, 1,27, 1, 7,62168.62811039866, 2, 1, 6,45
1154,79264019.60629976,0.0, 1,27, 6, 3,180000.0, 1,27,22,45
1155,39878205.43086535,0.0, 1,27, 1, 7,1815515.836564575, 1,29, 6,45
1156,39878205.43086535,0.0, 1,27, 1, 7,1815515.836564575, 1,29, 6,45
1292,-24195124.808371708,-39780.923244520054, 1,29, 2,45,-3398.1723928072397, 2, 1,11,29
1306,327901476.0029803,0.0, 1,27, 1, 7,4050000.0, 1,27,21,45
1307,137922300.1656146,0.0, 1,27, 1, 7,13016351.041112699, 2, 2, 9,45
1308,327901476.0029803,0.0, 1,27, 1, 7,4050000.0, 1,27,21,45
13,1080123004.6439946,272017.0388981225, 1,27,15,15,6685388.600470591, 1,29, 8,60
61,301924526.02383536,88139.10953165221, 1,27, 1,15,1282023.4113694867, 1,27,20,15
134,70666020.44019976,63564.01800854099, 1,27, 4,15,156554.22484006523, 2, 1,20,15
170,5241013.419656067,348.4159749238097, 1,27, 4,15,17476.39704006126, 2, 1,12,15
207,6509451.13922267,815.2532113832032, 1,27, 3,15,22990.642799023623, 2, 1,10,15
244,12749673.399825225,1521.856143006317, 1,27, 4,15,53038.631142310165, 2, 1,20,15
281,46165882.481495745,59938.60262432081, 1,27, 5,15,81951.81706819107, 1,27,19,15
318,0.0,0.0, 1,27, 1,15,0.0, 1,27, 1,15
355,197687796.27748066,18561.32405820678, 1,27, 4,15,724774.895203776, 2, 1,18,15
403,197687796.27748066,18561.32405820678, 1,27, 4,15,724774.895203776, 2, 1,18,15
476,106772067.24485716,7098.072629279515, 1,27, 4,15,356036.3026282215, 2, 1,12,15
513,0.0,0.0, 1,27, 1,15,0.0, 1,27, 1,15
562,24985010.462940644,0.0, 1,27, 1,15,141305.337124223, 1,29, 2,60
1046,0.0,0.0, 1,27, 1,15,0.0, 1,27, 1,15
1096,10796533.686070098,0.0, 1,27, 1,15,420504.913098999, 2, 1,17,45
1134,343849438.0279695,0.0, 1,27,12,30,3626986.6168176737, 1,29, 6,15
1326,327901476.00298023,0.0, 1,27, 1,15,4050000.0, 1,27, 9,60
1379,0.0,0.0, 1,27, 1,15,0.0, 1,27, 1,15
1,EXTREME_SUMMER,  34.35, -85.17,  -5.00, 196.00
5,7
1038,0.0,0.0, 6,15, 1,15,0.0, 6,15, 1,15
1039,55.25,0.0, 6,15, 1,15,0.25, 6,15,14,30
581,0.06999442027311742,0.0, 6,15, 8,46,0.34803099441016566, 6,18,14,46
582,2.0964993977360957,0.0, 6,15,21,32,9.678749774593232, 6,20,16,48
583,0.04525700559178557,0.0, 6,15,23, 3,0.07351853393808189, 6,18,14,46
1115,0.0,0.0, 6,15, 1, 7,0.0, 6,15, 1, 7
1128,0.0,0.0, 6,15, 1, 7,0.0, 6,15, 1, 7
1153,0.0,0.0, 6,15, 1, 7,0.0, 6,15, 1, 7
1154,0.0,0.0, 6,15, 1, 7,0.0, 6,15, 1, 7
1155,0.0,0.0, 6,15, 1, 7,0.0, 6,15, 1, 7
1156,0.0,0.0, 6,15, 1, 7,0.0, 6,15, 1, 7
1292,-21677316.978287708,-34196.191891132105, 6,20,10,60,-2302.4498692287507, 6,15, 9,45
1306,251356146.68879703,0.0, 6,15, 1, 7,2570865.3893589047, 6,17,16,30
1307,78670290.7368965,0.0, 6,15, 1, 7,1897113.789191962, 6,19,19,37
1308,251356146.68879703,0.0, 6,15, 1, 7,2570865.3893589047, 6,17,16,30
13,1283002812.1527622,229207.20015799458, 6,19, 4,60,7030334.7267556265, 6,16,20,15
61,301924526.02383536,88139.10953165221, 6,15, 1,15,1282023.4113694867, 6,15,20,15
134,70666020.44019976,63564.01800854099, 6,15, 4,15,156554.22484006523, 6,20,20,15
170,5241013.419656067,348.4159749238097, 6,15, 4,15,17476.39704006126, 6,20,12,15
207,6509451.13922267,815.2532113832032, 6,15, 3,15,22990.642799023623, 6,20,10,15
244,12749673.399825225,1521.856143006317, 6,15, 4,15,53038.631142310165, 6,20,20,15
281,46165882.481495745,59938.60262432081, 6,15, 5,15,81951.81706819107, 6,15,19,15
318,0.0,0.0, 6,15, 1,15,0.0, 6,15, 1,15
355,197687796.27748066,18561.32405820678, 6,15, 4,15,724774.895203776, 6,20,18,15
403,197687796.27748066,18561.32405820678, 6,15, 4,15,724774.895203776, 6,20,18,15
476,106772067.24485716,7098.072629279515, 6,15, 4,15,356036.3026282215, 6,20,12,15
513,0.0,0.0, 6,15, 1,15,0.0, 6,15, 1,15
562,61492977.0263658,3769.5008892153173, 6,19, 6,30,141305.337124223, 6,15,13,30
1046,0.0,0.0, 6,15, 1,15,0.0, 6,15, 1,15
1096,597563141.9735627,31502.850302990526, 6,19, 6,30,1553083.173026138, 6,17,15,60
1134,0.0,0.0, 6,15, 1,15,0.0, 6,15, 1,15
1326,251356146.68879706,0.0, 6,15, 1,15,4050000.0, 6,15, 9,60
1379,0.0,0.0, 6,15, 1,15,0.0, 6,15, 1,15
1,ANNUAL,  34.35, -85.17,  -5.00, 196.00
5,365
1038,1.25,0.0, 1, 1, 1,15,0.25, 1, 2, 6,15
1039,766.5,0.0, 1, 1, 1,15,0.25, 1, 6,16,45
581,0.15529122473858872,0.0, 4,26, 8,46,1.7482042826242685,11,17,23,48
582,1.922104608536331,0.0, 1, 2,21,50,46.74202470207661,11,17,23,48
583,0.026451940603699858,0.0, 5, 9,23, 3,0.08238384939975324, 8,19,17,47
1115,6208542817.595213,0.0, 1, 1, 1,15,4401038.382479473, 1,30, 6,45
1128,1965206234.697842,0.0, 1, 1, 1,15,1383967.0288623315, 3, 2, 8,30
1153,63234512.3759108,0.0, 1, 1, 1,15,88537.29150461993, 3,30, 6,45
1154,1361366122.1464765,0.0, 1, 1, 1,60,180000.0, 1, 1, 1,15
1155,254330750.77863067,0.0, 1, 1, 1,15,2937734.3000912447, 2, 5, 6,45
1156,254330750.77863067,0.0, 1, 1, 1,15,2937734.3000912447, 2, 5, 6,45
1292,-1181480436.7549415,-39786.78529756047, 1,11, 2,60,-1435.8600303700975, 4,14, 9,59
1306,14785783030.543755,0.0, 1, 1, 1,15,4050000.0, 1, 1,21,15
1307,5348166069.33086,0.0, 1, 1, 1,15,13861210.943423139,12,15, 9,60
1308,14785783030.543755,0.0, 1, 1, 1,15,4050000.0, 1, 1,21,15
13,53127302113.21335,151703.1275401932, 1, 5, 4,15,7025319.4575009085, 7,11,20,15
61,15743207428.383959,88139.10953165221, 1, 1, 1,15,1282023.4113694867, 1, 1,20,15
134,3685071073.4325233,63564.01800854099, 1, 2, 4,15,156554.22484006523, 1, 1,20,15
170,273393721.45532674,348.4159749238097, 1, 2, 4,15,17476.39704006126, 1, 1,12,15
207,339560869.0695816,815.2532113832032, 1, 2, 3,15,22990.642799023623, 1, 1,10,15
244,664895467.8009144,1521.856143006317, 1, 2, 4,15,53038.631142310165, 1, 1,20,15
281,2407221015.106824,59938.60262432081, 1, 1, 5,15,81951.81706819107, 1, 1,19,15
318,0.0,0.0, 1, 1, 1,15,0.0, 1, 1, 1,15
355,10310294493.051695,18561.32405820678, 1, 2, 4,15,724774.895203776, 1, 1,18,15
403,10310294493.051695,18561.32405820678, 1, 2, 4,15,724774.895203776, 1, 1,18,15
476,5569688622.066177,7098.072629279515, 1, 2, 4,15,356036.3026282215, 1, 1,12,15
513,0.0,0.0, 1, 1, 1,15,0.0, 1, 1, 1,15
562,1743086259.9714859,0.0, 1, 1, 1,15,141305.33712422304, 7,10,15,15
1046,0.0,0.0, 1, 1, 1,15,0.0, 1, 1, 1,15
1096,13526016700.880802,0.0, 1, 1, 1,15,1576920.7443570797, 6,24,15,60
1134,3644137619.998871,0.0, 1, 1, 1,60,4645804.819720389, 2, 5, 6,15
1326,14785783030.543764,0.0, 1, 1, 1,15,4050000.0000000014, 3,10,10,30
1379,0.0,0.0, 1, 1, 1,15,0.0, 1, 1, 1,15
End of Data
 Number of Records Written=          99
