Program Version,EnergyPlus, Version 22.2.0-c249759bad, YMD=2023.09.01 20:31
1,5,Environment Title[],Latitude[deg],Longitude[deg],Time Zone[],Elevation[m]
2,8,Day of Simulation[],Month[],Day of Month[],DST Indicator[1=yes 0=no],Hour[],StartMinute[],EndMinute[],DayType
3,5,Cumulative Day of Simulation[],Month[],Day of Month[],DST Indicator[1=yes 0=no],DayType  ! When Daily Report Variables Requested
4,2,Cumulative Days of Simulation[],Month[]  ! When Monthly Report Variables Requested
5,1,Cumulative Days of Simulation[] ! When Run Period Report Variables Requested
6,1,Calendar Year of Simulation[] ! When Annual Report Variables Requested
581,11,LIVING,AFN Zone Infiltration Air Change Rate [ach] !RunPeriod [Value,Min,Month,Day,Hour,Minute,Max,Month,Day,Hour,Minute]
582,11,ATTIC,AFN Zone Infiltration Air Change Rate [ach] !RunPeriod [Value,Min,Month,Day,Hour,Minute,Max,Month,Day,Hour,Minute]
583,11,CRAWLSPACE,AFN Zone Infiltration Air Change Rate [ach] !RunPeriod [Value,Min,Month,Day,Hour,Minute,Max,Month,Day,Hour,Minute]
1038,11,Facility,Facility Heating Setpoint Not Met Time [hr] !RunPeriod [Value,Min,Month,Day,Hour,Minute,Max,Month,Day,Hour,Minute]
1039,11,Facility,Facility Cooling Setpoint Not Met Time [hr] !RunPeriod [Value,Min,Month,Day,Hour,Minute,Max,Month,Day,Hour,Minute]
1115,11,DX_HEATING_COIL,Heating Coil Heating Energy [J] !RunPeriod [Value,Min,Month,Day,Hour,Minute,Max,Month,Day,Hour,Minute]
1128,11,DX_HEATING_COIL,Heating Coil Electricity Energy [J] !RunPeriod [Value,Min,Month,Day,Hour,Minute,Max,Month,Day,Hour,Minute]
1153,11,DX_HEATING_COIL,Heating Coil Defrost Electricity Energy [J] !RunPeriod [Value,Min,Month,Day,Hour,Minute,Max,Month,Day,Hour,Minute]
1154,11,DX_HEATING_COIL,Heating Coil Crankcase Heater Electricity Energy [J] !RunPeriod [Value,Min,Month,Day,Hour,Minute,Max,Month,Day,Hour,Minute]
1155,11,HEATING_RESISTANCE_BACKUP,Heating Coil Heating Energy [J] !RunPeriod [Value,Min,Month,Day,Hour,Minute,Max,Month,Day,Hour,Minute]
1156,11,HEATING_RESISTANCE_BACKUP,Heating Coil Electricity Energy [J] !RunPeriod [Value,Min,Month,Day,Hour,Minute,Max,Month,Day,Hour,Minute]
1292,11,WATER HEATER,Water Heater Heat Loss Energy [J] !RunPeriod [Value,Min,Month,Day,Hour,Minute,Max,Month,Day,Hour,Minute]
1306,11,WATER HEATER,Water Heater Heating Energy [J] !RunPeriod [Value,Min,Month,Day,Hour,Minute,Max,Month,Day,Hour,Minute]
1307,11,WATER HEATER,Water Heater Unmet Demand Heat Transfer Energy [J] !RunPeriod [Value,Min,Month,Day,Hour,Minute,Max,Month,Day,Hour,Minute]
1308,11,WATER HEATER,Water Heater Electricity Energy [J] !RunPeriod [Value,Min,Month,Day,Hour,Minute,Max,Month,Day,Hour,Minute]
13,11,Electricity:Facility [J] !RunPeriod [Value,Min,Month,Day,Hour,Minute,Max,Month,Day,Hour,Minute]
1134,11,Heating:Electricity [J] !RunPeriod [Value,Min,Month,Day,Hour,Minute,Max,Month,Day,Hour,Minute]
1096,11,Cooling:Electricity [J] !RunPeriod [Value,Min,Month,Day,Hour,Minute,Max,Month,Day,Hour,Minute]
562,11,Fans:Electricity [J] !RunPeriod [Value,Min,Month,Day,Hour,Minute,Max,Month,Day,Hour,Minute]
1379,11,Pumps:Electricity [J] !RunPeriod [Value,Min,Month,Day,Hour,Minute,Max,Month,Day,Hour,Minute]
1326,11,WaterSystems:Electricity [J] !RunPeriod [Value,Min,Month,Day,Hour,Minute,Max,Month,Day,Hour,Minute]
61,11,InteriorLights:Electricity [J] !RunPeriod [Value,Min,Month,Day,Hour,Minute,Max,Month,Day,Hour,Minute]
1046,11,ExteriorLights:Electricity [J] !RunPeriod [Value,Min,Month,Day,Hour,Minute,Max,Month,Day,Hour,Minute]
134,11,InteriorEquipment:Electricity [J] !RunPeriod [Value,Min,Month,Day,Hour,Minute,Max,Month,Day,Hour,Minute]
170,11,gas_dryer:InteriorEquipment:Electricity [J] !RunPeriod [Value,Min,Month,Day,Hour,Minute,Max,Month,Day,Hour,Minute]
207,11,clotheswasher:InteriorEquipment:Electricity [J] !RunPeriod [Value,Min,Month,Day,Hour,Minute,Max,Month,Day,Hour,Minute]
244,11,dishwasher:InteriorEquipment:Electricity [J] !RunPeriod [Value,Min,Month,Day,Hour,Minute,Max,Month,Day,Hour,Minute]
281,11,refrigerator:InteriorEquipment:Electricity [J] !RunPeriod [Value,Min,Month,Day,Hour,Minute,Max,Month,Day,Hour,Minute]
318,11,electric_mels:InteriorEquipment:Electricity [J] !RunPeriod [Value,Min,Month,Day,Hour,Minute,Max,Month,Day,Hour,Minute]
355,11,NaturalGas:Facility [J] !RunPeriod [Value,Min,Month,Day,Hour,Minute,Max,Month,Day,Hour,Minute]
403,11,InteriorEquipment:NaturalGas [J] !RunPeriod [Value,Min,Month,Day,Hour,Minute,Max,Month,Day,Hour,Minute]
476,11,gas_dryer:InteriorEquipment:NaturalGas [J] !RunPeriod [Value,Min,Month,Day,Hour,Minute,Max,Month,Day,Hour,Minute]
513,11,gas_mels:InteriorEquipment:NaturalGas [J] !RunPeriod [Value,Min,Month,Day,Hour,Minute,Max,Month,Day,Hour,Minute]
End of Data Dictionary
1,EXTREME_WINTER,  47.63,-117.53,  -8.00, 717.20
5,7
1038,1.0,0.0, 1, 1, 1,15,0.25, 1, 1, 6,15
1039,0.0,0.0, 1, 1, 1,15,0.0, 1, 1, 1,15
581,0.37527138042884556,0.22462952965953203, 1, 6,20,60,0.6634208996836825, 1, 7,21,60
582,1.6537105975985882,0.0076803402703432555, 1, 3, 4,15,10.096205728083365, 1, 7,21,60
583,0.06752107308930586,0.0004239124906952536, 1, 3,23, 5,0.08266017548797853, 1, 1, 1,52
1115,2142177341.0352747,0.0, 1, 1,23, 5,4212402.411073505, 1, 6, 6,45
1128,738161072.1772239,0.0, 1, 1,23, 5,1294362.2566782685, 1, 4,16,15
1153,38189517.74286221,0.0, 1, 1,23, 5,123017.03724003614, 1, 7, 6,45
1154,14136043.174082162,0.0, 1, 1, 1,15,108989.85126547191, 1, 6,23,60
1155,608713706.2318056,0.0, 1, 1,13,22,4549283.490312256, 1, 1, 7,60
1156,608713706.2318056,0.0, 1, 1,13,22,4549283.490312256, 1, 1, 7,60
1292,-25385178.182862584,-39765.86781556153, 1, 1, 1,15,-7286.035472906552, 1, 2,18,51
1306,193287877.88451022,0.0, 1, 1, 1,15,4050000.0, 1, 1, 8,45
1307,40531250.905992255,0.0, 1, 1, 1,15,10306735.121117525, 1, 6,10,30
1308,193287877.88451022,0.0, 1, 1, 1,15,4050000.0, 1, 1, 8,45
13,2049298596.0606852,1054120.467591211, 1, 7, 1,15,10335588.32199264, 1, 1, 8,45
61,301924526.02383536,88139.10953165221, 1, 1, 1,15,1282023.4113694867, 1, 1,20,15
134,70666020.44019976,63564.01800854099, 1, 1, 4,15,156554.22484006523, 1, 6,20,15
170,5241013.419656067,348.4159749238097, 1, 1, 4,15,17476.39704006126, 1, 6,12,15
207,6509451.13922267,815.2532113832032, 1, 1, 3,15,22990.642799023623, 1, 6,10,15
244,12749673.399825225,1521.856143006317, 1, 1, 4,15,53038.631142310165, 1, 6,20,15
281,46165882.481495745,59938.60262432081, 1, 1, 5,15,81951.81706819107, 1, 1,19,15
318,0.0,0.0, 1, 1, 1,15,0.0, 1, 1, 1,15
355,197687796.27748066,18561.32405820678, 1, 1, 4,15,724774.895203776, 1, 6,18,15
403,197687796.27748066,18561.32405820678, 1, 1, 4,15,724774.895203776, 1, 6,18,15
476,106772067.24485716,7098.072629279515, 1, 1, 4,15,356036.3026282215, 1, 6,12,15
513,0.0,0.0, 1, 1, 1,15,0.0, 1, 1, 1,15
562,84219832.38616721,25178.016527040963, 1, 6,23,15,142413.60552773645, 1, 1, 1,15
1046,0.0,0.0, 1, 1, 1,15,0.0, 1, 1, 1,15
1096,0.0,0.0, 1, 1, 1,15,0.0, 1, 1, 1,15
1134,1399200339.3259745,390189.9656588676, 1, 6,23,15,6025330.357479882, 1, 1, 6,15
1326,193287877.88451025,0.0, 1, 1, 1,15,4050000.0, 1, 1, 8,45
1379,0.0,0.0, 1, 1, 1,15,0.0, 1, 1, 1,15
1,EXTREME_SUMMER,  47.63,-117.53,  -8.00, 717.20
5,7
1038,0.0,0.0, 7,29, 1,15,0.0, 7,29, 1,15
1039,21.0,0.0, 7,29, 1,15,0.25, 7,30,16,15
581,0.13982105184825588,0.010302213314879615, 8, 4,21,45,0.3852061269089221, 8, 2,19,48
582,3.3266410200485916,0.13345989575767933, 8, 4,21,37,10.04299206660508, 7,29,11,52
583,0.03801271122959894,0.00009044721213412392, 7,30, 6,11,0.07358496125338274, 8, 4, 6, 3
1115,0.0,0.0, 7,29, 1,15,0.0, 7,29, 1,15
1128,0.0,0.0, 7,29, 1,15,0.0, 7,29, 1,15
1153,0.0,0.0, 7,29, 1,15,0.0, 7,29, 1,15
1154,0.0,0.0, 7,29, 1,15,0.0, 7,29, 1,15
1155,0.0,0.0, 7,29, 1,15,0.0, 7,29, 1,15
1156,0.0,0.0, 7,29, 1,15,0.0, 7,29, 1,15
1292,-22015165.19254059,-34240.92410752358, 7,29,16,15,-2921.918538200409, 7,30,12,47
1306,152439862.5404694,0.0, 7,29, 1,15,2368625.2602268457, 8, 2,22,15
1307,24116994.77693709,0.0, 7,29, 1,15,1411506.167223586, 8, 1,10,18
1308,152439862.5404694,0.0, 7,29, 1,15,2368625.2602268457, 8, 2,22,15
13,1056575281.7396635,152071.80019841267, 8, 3, 4,15,6452441.619515168, 8, 3,19,30
61,301924526.02383536,88139.10953165221, 7,29, 1,15,1282023.4113694867, 7,29,20,15
134,70666020.44019976,63564.01800854099, 7,29, 4,15,156554.22484006523, 8, 3,20,15
170,5241013.419656067,348.4159749238097, 7,29, 4,15,17476.39704006126, 8, 3,12,15
207,6509451.13922267,815.2532113832032, 7,29, 3,15,22990.642799023623, 8, 3,10,15
244,12749673.399825225,1521.856143006317, 7,29, 4,15,53038.631142310165, 8, 3,20,15
281,46165882.481495745,59938.60262432081, 7,29, 5,15,81951.81706819107, 7,29,19,15
318,0.0,0.0, 7,29, 1,15,0.0, 7,29, 1,15
355,197687796.27748066,18561.32405820678, 7,29, 4,15,724774.895203776, 8, 3,18,15
403,197687796.27748066,18561.32405820678, 7,29, 4,15,724774.895203776, 8, 3,18,15
476,106772067.24485716,7098.072629279515, 7,29, 4,15,356036.3026282215, 8, 3,12,15
513,0.0,0.0, 7,29, 1,15,0.0, 7,29, 1,15
562,51237632.84182785,0.0, 7,30, 6,30,142413.60552773645, 7,30,15,15
1046,0.0,0.0, 7,29, 1,15,0.0, 7,29, 1,15
1096,480307239.89333177,0.0, 7,30, 6,30,1520891.942789034, 8, 4,17,60
1134,0.0,0.0, 7,29, 1,15,0.0, 7,29, 1,15
1326,152439862.54046944,0.0, 7,29, 1,15,4050000.0, 7,29, 8,45
1379,0.0,0.0, 7,29, 1,15,0.0, 7,29, 1,15
1,ANNUAL,  47.63,-117.53,  -8.00, 717.20
5,365
1038,28.75,0.0, 1, 1, 1,15,0.25, 1, 1, 6,15
1039,148.25,0.0, 1, 1, 1,15,0.25, 5, 5,11,15
581,0.2900936892953663,0.0, 7,25,23, 3,1.015412133852757, 3,16,22,60
582,3.991146087874774,0.0, 1, 8,24,30,32.27542952036149, 4, 9,16,50
583,0.03027801036519879,0.0, 7,25,23, 3,0.0881356779481902,11, 8, 4,60
1115,35498082143.73464,0.0, 1, 1,23, 5,4625921.0172964, 1,23, 7,15
1128,11234749590.851164,0.0, 1, 1,23, 5,1380433.4198526365, 1,30, 9,60
1153,630715390.0427405,0.0, 1, 1,23, 5,152898.36114317417, 1,21,17,60
1154,1885068500.152343,0.0, 1, 1, 1,15,180000.0, 1,19,15,45
1155,3839618926.6594734,0.0, 1, 1,13,18,4809125.525356314,12, 7, 1,45
1156,3839618926.6594734,0.0, 1, 1,13,18,4809125.525356314,12, 7, 1,45
1292,-1245772885.0592215,-41469.432440894445,12, 7, 6,15,-2052.144282062805, 4,15,10,31
1306,9166296262.800701,0.0, 1, 1, 1,15,4050000.0, 1, 1, 9,45
1307,1730550760.399069,0.0, 1, 1, 1,15,10690830.618427252, 2,23,10,30
1308,9166296262.800701,0.0, 1, 1, 1,15,4050000.0, 1, 1, 9,45
13,53966298380.93471,151703.1275401932, 4,28, 4,15,10845115.726244532,12, 8, 8,45
61,15743207428.383959,88139.10953165221, 1, 1, 1,15,1282023.4113694867, 1, 1,20,15
134,3685071073.4325233,63564.01800854099, 1, 2, 4,15,156554.22484006523, 1, 1,20,15
170,273393721.45532674,348.4159749238097, 1, 2, 4,15,17476.39704006126, 1, 1,12,15
207,339560869.0695816,815.2532113832032, 1, 2, 3,15,22990.642799023623, 1, 1,10,15
244,664895467.8009144,1521.856143006317, 1, 2, 4,15,53038.631142310165, 1, 1,20,15
281,2407221015.106824,59938.60262432081, 1, 1, 5,15,81951.81706819107, 1, 1,19,15
318,0.0,0.0, 1, 1, 1,15,0.0, 1, 1, 1,15
355,10310294493.051695,18561.32405820678, 1, 2, 4,15,724774.895203776, 1, 1,18,15
403,10310294493.051695,18561.32405820678, 1, 2, 4,15,724774.895203776, 1, 1,18,15
476,5569688622.066177,7098.072629279515, 1, 2, 4,15,356036.3026282215, 1, 1,12,15
513,0.0,0.0, 1, 1, 1,15,0.0, 1, 1, 1,15
562,1935616219.9867034,0.0, 1,15,23,15,142413.60552773648, 7,28,18,30
1046,0.0,0.0, 1, 1, 1,15,0.0, 1, 1, 1,15
1096,5845954988.623129,0.0, 1, 1, 1,15,1582885.9684670188, 8,11,17,60
1134,17590152407.705772,0.0, 3, 2,13,45,6056200.053975398, 1,11, 6,30
1326,9166296262.800705,0.0, 1, 1, 1,15,4050000.0000000014, 5,10, 9,45
1379,0.0,0.0, 1, 1, 1,15,0.0, 1, 1, 1,15
End of Data
 Number of Records Written=          99
