Program Version,EnergyPlus, Version 22.2.0-c249759bad, YMD=2023.09.01 20:50
1,5,Environment Title[],Latitude[deg],Longitude[deg],Time Zone[],Elevation[m]
2,8,Day of Simulation[],Month[],Day of Month[],DST Indicator[1=yes 0=no],Hour[],StartMinute[],EndMinute[],DayType
3,5,Cumulative Day of Simulation[],Month[],Day of Month[],DST Indicator[1=yes 0=no],DayType  ! When Daily Report Variables Requested
4,2,Cumulative Days of Simulation[],Month[]  ! When Monthly Report Variables Requested
5,1,Cumulative Days of Simulation[] ! When Run Period Report Variables Requested
6,1,Calendar Year of Simulation[] ! When Annual Report Variables Requested
581,11,LIVING,AFN Zone Infiltration Air Change Rate [ach] !RunPeriod [Value,Min,Month,Day,Hour,Minute,Max,Month,Day,Hour,Minute]
582,11,ATTIC,AFN Zone Infiltration Air Change Rate [ach] !RunPeriod [Value,Min,Month,Day,Hour,Minute,Max,Month,Day,Hour,Minute]
583,11,CRAWLSPACE,AFN Zone Infiltration Air Change Rate [ach] !RunPeriod [Value,Min,Month,Day,Hour,Minute,Max,Month,Day,Hour,Minute]
1038,11,Facility,Facility Heating Setpoint Not Met Time [hr] !RunPeriod [Value,Min,Month,Day,Hour,Minute,Max,Month,Day,Hour,Minute]
1039,11,Facility,Facility Cooling Setpoint Not Met Time [hr] !RunPeriod [Value,Min,Month,Day,Hour,Minute,Max,Month,Day,Hour,Minute]
1115,11,DX_HEATING_COIL,Heating Coil Heating Energy [J] !RunPeriod [Value,Min,Month,Day,Hour,Minute,Max,Month,Day,Hour,Minute]
1128,11,DX_HEATING_COIL,Heating Coil Electricity Energy [J] !RunPeriod [Value,Min,Month,Day,Hour,Minute,Max,Month,Day,Hour,Minute]
1153,11,DX_HEATING_COIL,Heating Coil Defrost Electricity Energy [J] !RunPeriod [Value,Min,Month,Day,Hour,Minute,Max,Month,Day,Hour,Minute]
1154,11,DX_HEATING_COIL,Heating Coil Crankcase Heater Electricity Energy [J] !RunPeriod [Value,Min,Month,Day,Hour,Minute,Max,Month,Day,Hour,Minute]
1155,11,HEATING_RESISTANCE_BACKUP,Heating Coil Heating Energy [J] !RunPeriod [Value,Min,Month,Day,Hour,Minute,Max,Month,Day,Hour,Minute]
1156,11,HEATING_RESISTANCE_BACKUP,Heating Coil Electricity Energy [J] !RunPeriod [Value,Min,Month,Day,Hour,Minute,Max,Month,Day,Hour,Minute]
1292,11,WATER HEATER,Water Heater Heat Loss Energy [J] !RunPeriod [Value,Min,Month,Day,Hour,Minute,Max,Month,Day,Hour,Minute]
1306,11,WATER HEATER,Water Heater Heating Energy [J] !RunPeriod [Value,Min,Month,Day,Hour,Minute,Max,Month,Day,Hour,Minute]
1307,11,WATER HEATER,Water Heater Unmet Demand Heat Transfer Energy [J] !RunPeriod [Value,Min,Month,Day,Hour,Minute,Max,Month,Day,Hour,Minute]
1308,11,WATER HEATER,Water Heater Electricity Energy [J] !RunPeriod [Value,Min,Month,Day,Hour,Minute,Max,Month,Day,Hour,Minute]
13,11,Electricity:Facility [J] !RunPeriod [Value,Min,Month,Day,Hour,Minute,Max,Month,Day,Hour,Minute]
1134,11,Heating:Electricity [J] !RunPeriod [Value,Min,Month,Day,Hour,Minute,Max,Month,Day,Hour,Minute]
1096,11,Cooling:Electricity [J] !RunPeriod [Value,Min,Month,Day,Hour,Minute,Max,Month,Day,Hour,Minute]
562,11,Fans:Electricity [J] !RunPeriod [Value,Min,Month,Day,Hour,Minute,Max,Month,Day,Hour,Minute]
1379,11,Pumps:Electricity [J] !RunPeriod [Value,Min,Month,Day,Hour,Minute,Max,Month,Day,Hour,Minute]
1326,11,WaterSystems:Electricity [J] !RunPeriod [Value,Min,Month,Day,Hour,Minute,Max,Month,Day,Hour,Minute]
61,11,InteriorLights:Electricity [J] !RunPeriod [Value,Min,Month,Day,Hour,Minute,Max,Month,Day,Hour,Minute]
1046,11,ExteriorLights:Electricity [J] !RunPeriod [Value,Min,Month,Day,Hour,Minute,Max,Month,Day,Hour,Minute]
134,11,InteriorEquipment:Electricity [J] !RunPeriod [Value,Min,Month,Day,Hour,Minute,Max,Month,Day,Hour,Minute]
170,11,gas_dryer:InteriorEquipment:Electricity [J] !RunPeriod [Value,Min,Month,Day,Hour,Minute,Max,Month,Day,Hour,Minute]
207,11,clotheswasher:InteriorEquipment:Electricity [J] !RunPeriod [Value,Min,Month,Day,Hour,Minute,Max,Month,Day,Hour,Minute]
244,11,dishwasher:InteriorEquipment:Electricity [J] !RunPeriod [Value,Min,Month,Day,Hour,Minute,Max,Month,Day,Hour,Minute]
281,11,refrigerator:InteriorEquipment:Electricity [J] !RunPeriod [Value,Min,Month,Day,Hour,Minute,Max,Month,Day,Hour,Minute]
318,11,electric_mels:InteriorEquipment:Electricity [J] !RunPeriod [Value,Min,Month,Day,Hour,Minute,Max,Month,Day,Hour,Minute]
355,11,NaturalGas:Facility [J] !RunPeriod [Value,Min,Month,Day,Hour,Minute,Max,Month,Day,Hour,Minute]
403,11,InteriorEquipment:NaturalGas [J] !RunPeriod [Value,Min,Month,Day,Hour,Minute,Max,Month,Day,Hour,Minute]
476,11,gas_dryer:InteriorEquipment:NaturalGas [J] !RunPeriod [Value,Min,Month,Day,Hour,Minute,Max,Month,Day,Hour,Minute]
513,11,gas_mels:InteriorEquipment:NaturalGas [J] !RunPeriod [Value,Min,Month,Day,Hour,Minute,Max,Month,Day,Hour,Minute]
End of Data Dictionary
1,EXTREME_WINTER,  43.52,-112.07,  -7.00,1441.40
5,7
1038,1.0,0.0,12,15, 1,15,0.25,12,15, 6,15
1039,0.0,0.0,12,15, 1,15,0.0,12,15, 1,15
581,0.5311426031998568,0.2592123306344195,12,16,23, 3,1.1128078147129383,12,20,10,60
582,4.506621511491891,0.007717876412141109,12,18,22,60,19.453942194772758,12,20,10,60
583,0.091531582022125,0.00041732897447169877,12,16,23, 3,0.10726058507300373,12,20,10,60
1115,2469486988.2151823,0.0,12,16,23, 3,4975812.679226583,12,20, 4,60
1128,941531365.7728328,0.0,12,16,23, 3,1518063.226706502,12,20,13,15
1153,18732826.142215136,0.0,12,16,23, 3,88949.15979250915,12,20, 6,60
1154,3002790.9578571487,0.0,12,15, 1, 7,60000.0,12,18,23, 5
1155,1301549374.1909847,0.0,12,15,23, 5,5004031.430205664,12,19, 9,15
1156,1301549374.1909847,0.0,12,15,23, 5,5004031.430205664,12,19, 9,15
1292,-25026316.08548815,-39756.94629751573,12,21, 3,15,-4620.476035943934,12,19,12,60
1306,371735607.7703417,0.0,12,15, 1, 7,4050000.0,12,15, 9,60
1307,176372104.90162128,0.0,12,15, 1, 7,17794256.59885462,12,19, 9,60
1308,371735607.7703417,0.0,12,15, 1, 7,4050000.0,12,15, 9,60
13,3117601566.7010827,1412111.1086407206,12,16,23,15,10438113.125611529,12,21,21,45
61,301924526.02383536,88139.10953165221,12,15, 1,15,1282023.4113694867,12,15,20,15
134,70666020.44019976,63564.01800854099,12,15, 4,15,156554.22484006523,12,20,20,15
170,5241013.419656067,348.4159749238097,12,15, 4,15,17476.39704006126,12,20,12,15
207,6509451.13922267,815.2532113832032,12,15, 3,15,22990.642799023623,12,20,10,15
244,12749673.399825225,1521.856143006317,12,15, 4,15,53038.631142310165,12,20,20,15
281,46165882.481495745,59938.60262432081,12,15, 5,15,81951.81706819107,12,15,19,15
318,0.0,0.0,12,15, 1,15,0.0,12,15, 1,15
355,197687796.27748066,18561.32405820678,12,15, 4,15,724774.895203776,12,20,18,15
403,197687796.27748066,18561.32405820678,12,15, 4,15,724774.895203776,12,20,18,15
476,106772067.24485716,7098.072629279515,12,15, 4,15,356036.3026282215,12,20,12,15
513,0.0,0.0,12,15, 1,15,0.0,12,15, 1,15
562,108459055.40281633,64294.85374447169,12,16,23,15,165689.62044792765,12,15, 1,15
1046,0.0,0.0,12,15, 1,15,0.0,12,15, 1,15
1096,0.0,0.0,12,15, 1,15,0.0,12,15, 1,15
1134,2264816357.0638895,700971.7847040545,12,16,23,15,6696152.410966701,12,15, 6,15
1326,371735607.7703417,0.0,12,15, 1,15,4050000.0,12,15, 9,60
1379,0.0,0.0,12,15, 1,15,0.0,12,15, 1,15
1,EXTREME_SUMMER,  43.52,-112.07,  -7.00,1441.40
5,7
1038,0.0,0.0, 7, 6, 1,15,0.0, 7, 6, 1,15
1039,0.0,0.0, 7, 6, 1,15,0.0, 7, 6, 1,15
581,0.19027809777550525,0.028230390191847116, 7,10,21,60,0.537165503043472, 7, 9,11,52
582,3.0310380493463835,0.0, 7, 6, 3,50,11.040069085265591, 7, 9,11,52
583,0.03742289421703331,0.0002317615579846538, 7, 9, 6,15,0.08441265159390082, 7,11,18,18
1115,0.0,0.0, 7, 6, 1, 5,0.0, 7, 6, 1, 5
1128,0.0,0.0, 7, 6, 1, 5,0.0, 7, 6, 1, 5
1153,0.0,0.0, 7, 6, 1, 5,0.0, 7, 6, 1, 5
1154,0.0,0.0, 7, 6, 1, 5,0.0, 7, 6, 1, 5
1155,0.0,0.0, 7, 6, 1, 5,0.0, 7, 6, 1, 5
1156,0.0,0.0, 7, 6, 1, 5,0.0, 7, 6, 1, 5
1292,-21918463.1527938,-34535.42982248456, 7, 7, 6,30,-2331.1846746620454, 7,12, 9,46
1306,315745343.05828696,0.0, 7, 6, 1, 5,3554476.875335318, 7, 9,10,60
1307,128495321.98985426,0.0, 7, 6, 1, 5,3037028.6131882193, 7,10, 9,51
1308,315745343.05828696,0.0, 7, 6, 1, 5,3554476.875335318, 7, 9,10,60
13,1180903995.7452064,151703.1275401932, 7, 6, 4,30,7149060.075273523, 7, 7,20,15
61,301924526.02383536,88139.10953165221, 7, 6, 1,15,1282023.4113694867, 7, 6,20,15
134,70666020.44019976,63564.01800854099, 7, 6, 4,15,156554.22484006523, 7,11,20,15
170,5241013.419656067,348.4159749238097, 7, 6, 4,15,17476.39704006126, 7,11,12,15
207,6509451.13922267,815.2532113832032, 7, 6, 3,15,22990.642799023623, 7,11,10,15
244,12749673.399825225,1521.856143006317, 7, 6, 4,15,53038.631142310165, 7,11,20,15
281,46165882.481495745,59938.60262432081, 7, 6, 5,15,81951.81706819107, 7, 6,19,15
318,0.0,0.0, 7, 6, 1,15,0.0, 7, 6, 1,15
355,197687796.27748066,18561.32405820678, 7, 6, 4,15,724774.895203776, 7,11,18,15
403,197687796.27748066,18561.32405820678, 7, 6, 4,15,724774.895203776, 7,11,18,15
476,106772067.24485716,7098.072629279515, 7, 6, 4,15,356036.3026282215, 7,11,12,15
513,0.0,0.0, 7, 6, 1,15,0.0, 7, 6, 1,15
562,48731884.48124117,0.0, 7, 6, 4,30,165689.62044792765, 7, 6,19,30
1046,0.0,0.0, 7, 6, 1,15,0.0, 7, 6, 1,15
1096,443836221.74164265,0.0, 7, 6, 4,30,1688627.8641194012, 7, 6,18,60
1134,0.0,0.0, 7, 6, 1,15,0.0, 7, 6, 1,15
1326,315745343.05828685,0.0, 7, 6, 1,15,4050000.0, 7, 6, 8,30
1379,0.0,0.0, 7, 6, 1,15,0.0, 7, 6, 1,15
1,ANNUAL,  43.52,-112.07,  -7.00,1441.40
5,365
1038,24.25,0.0, 1, 1, 1,15,0.25, 1, 7, 3,15
1039,60.5,0.0, 1, 1, 1,15,0.25, 3,23,17,15
581,0.3366380917481804,0.012158286444106624, 8,23, 2,15,1.461195959488929, 3,17,10,60
582,4.303665405196874,0.0, 1, 1, 6, 5,34.50165554358765, 3,17,12,52
583,0.03499076004049933,0.00008464766561073873, 9, 7,24,60,0.11255037447468197,12,14,14,60
1115,38139571846.71215,0.0, 1, 1,23, 5,5056808.838819127, 2, 9,11,30
1128,12890025851.743986,0.0, 1, 1,23, 5,1570163.3114413621,11,21, 9,60
1153,543327552.5836953,0.0, 1, 1,23, 5,136908.9273509008, 1,19, 7,15
1154,2142620001.3880594,0.0, 1, 1, 6, 5,180000.0, 1,11,16,15
1155,6217514215.630652,0.0, 1, 1, 1,15,5298133.39283025, 1, 7, 2,30
1156,6217514215.630652,0.0, 1, 1, 1,15,5298133.39283025, 1, 7, 2,30
1292,-1229163585.7262669,-42041.15371342916, 1, 7, 8,60,-1352.3072918970045, 4,14,10, 1
1306,18254337547.424023,0.0, 1, 1, 1,15,4050000.0, 1, 1, 9,60
1307,8205742679.782126,0.0, 1, 1, 1,15,19226461.31793515, 2,17, 9,60
1308,18254337547.424023,0.0, 1, 1, 1,15,4050000.0, 1, 1, 9,60
13,67864847422.31405,151703.1275401932, 4,18, 4,15,11142735.958243292, 1, 7, 9,60
61,15743207428.383959,88139.10953165221, 1, 1, 1,15,1282023.4113694867, 1, 1,20,15
134,3685071073.4325233,63564.01800854099, 1, 2, 4,15,156554.22484006523, 1, 1,20,15
170,273393721.45532674,348.4159749238097, 1, 2, 4,15,17476.39704006126, 1, 1,12,15
207,339560869.0695816,815.2532113832032, 1, 2, 3,15,22990.642799023623, 1, 1,10,15
244,664895467.8009144,1521.856143006317, 1, 2, 4,15,53038.631142310165, 1, 1,20,15
281,2407221015.106824,59938.60262432081, 1, 1, 5,15,81951.81706819107, 1, 1,19,15
318,0.0,0.0, 1, 1, 1,15,0.0, 1, 1, 1,15
355,10310294493.051695,18561.32405820678, 1, 2, 4,15,724774.895203776, 1, 1,18,15
403,10310294493.051695,18561.32405820678, 1, 2, 4,15,724774.895203776, 1, 1,18,15
476,5569688622.066177,7098.072629279515, 1, 2, 4,15,356036.3026282215, 1, 1,12,15
513,0.0,0.0, 1, 1, 1,15,0.0, 1, 1, 1,15
562,2183397658.8567996,0.0, 1,11,15,30,165689.62044792768, 8, 3,18,30
1046,0.0,0.0, 1, 1, 1,15,0.0, 1, 1, 1,15
1096,6205346092.869284,0.0, 1, 1, 1,15,1792117.5742910076, 8,21,17,60
1134,21793487621.346485,0.0, 3, 4,14,60,6704037.48646154,12,15, 8,60
1326,18254337547.42401,0.0, 1, 1, 1,15,4050000.0000000014, 3,22,10,45
1379,0.0,0.0, 1, 1, 1,15,0.0, 1, 1, 1,15
End of Data
 Number of Records Written=          99
