Program Version,EnergyPlus, Version 22.2.0-c249759bad, YMD=2023.09.01 14:30
1,5,Environment Title[],Latitude[deg],Longitude[deg],Time Zone[],Elevation[m]
2,8,Day of Simulation[],Month[],Day of Month[],DST Indicator[1=yes 0=no],Hour[],StartMinute[],EndMinute[],DayType
3,5,Cumulative Day of Simulation[],Month[],Day of Month[],DST Indicator[1=yes 0=no],DayType  ! When Daily Report Variables Requested
4,2,Cumulative Days of Simulation[],Month[]  ! When Monthly Report Variables Requested
5,1,Cumulative Days of Simulation[] ! When Run Period Report Variables Requested
6,1,Calendar Year of Simulation[] ! When Annual Report Variables Requested
7,1,Environment,Site Outdoor Air Drybulb Temperature [C] !Hourly
619,1,DX_HEATING_COIL,Heating Coil Heating Rate [W] !Hourly
633,1,DX_HEATING_COIL,Heating Coil Electricity Rate [W] !Hourly
659,1,DX_HEATING_COIL,Heating Coil Defrost Electricity Rate [W] !Hourly
661,1,DX_HEATING_COIL,Heating Coil Crankcase Heater Electricity Rate [W] !Hourly
690,1,FAN,Fan Electricity Rate [W] !Hourly
716,1,HEAT PUMP WATER HEATER FAN,Fan Electricity Rate [W] !Hourly
718,1,LIVING,Zone Mean Air Temperature [C] !Hourly
719,1,ATTIC,Zone Mean Air Temperature [C] !Hourly
720,1,CRAWLSPACE,Zone Mean Air Temperature [C] !Hourly
843,1,LIVING,Zone Predicted Sensible Load to Heating Setpoint Heat Transfer Rate [W] !Hourly
844,1,LIVING,Zone System Predicted Sensible Load to Heating Setpoint Heat Transfer Rate [W] !Hourly
907,1,ATTIC,Zone Predicted Sensible Load to Heating Setpoint Heat Transfer Rate [W] !Hourly
908,1,ATTIC,Zone System Predicted Sensible Load to Heating Setpoint Heat Transfer Rate [W] !Hourly
971,1,CRAWLSPACE,Zone Predicted Sensible Load to Heating Setpoint Heat Transfer Rate [W] !Hourly
972,1,CRAWLSPACE,Zone System Predicted Sensible Load to Heating Setpoint Heat Transfer Rate [W] !Hourly
1195,1,HEATING_RESISTANCE_BACKUP,Heating Coil Heating Rate [W] !Hourly
1197,1,HEATING_RESISTANCE_BACKUP,Heating Coil Electricity Rate [W] !Hourly
End of Data Dictionary
1,EXTREME_WINTER,  35.43,-119.05,  -8.00, 149.10
2,1,12,22, 0, 1, 0.00,60.00,Monday
7,6.1
718,18.772086732634378
719,7.107734326873979
720,19.761243707524173
619,0.0
633,0.0
659,0.0
661,200.0
690,0.0
716,0.0
843,-90.8475415113835
844,-90.8475415113835
907,0.0
908,0.0
971,0.0
972,0.0
1195,0.0
1197,0.0
2,1,12,22, 0, 2, 0.00,60.00,Monday
7,6.1
718,18.622228373932096
719,5.931737681271597
720,19.519073437966068
619,257.3344433026641
633,71.25705869535302
659,0.0
661,192.40253693087556
690,6.521721375481745
716,0.0
843,197.61914994451035
844,197.61914994451035
907,0.0
908,0.0
971,0.0
972,0.0
1195,0.0
1197,0.0
2,1,12,22, 0, 3, 0.00,60.00,Monday
7,6.7
718,18.825739587914303
719,5.338193160338902
720,19.38007673178724
619,440.22430608154804
633,120.06426792248615
659,0.0
661,187.24284316331423
690,10.950842626705198
716,0.0
843,355.82657709856994
844,355.82657709856994
907,0.0
908,0.0
971,0.0
972,0.0
1195,0.0
1197,0.0
2,1,12,22, 0, 4, 0.00,60.00,Monday
7,6.7
718,18.67165857297662
719,3.8110800307575867
720,19.233062722577852
619,540.0594191752054
633,147.72573239533207
659,0.0
661,184.36142883747826
690,13.424271089528817
716,0.0
843,420.0712809335273
844,420.0712809335273
907,0.0
908,0.0
971,0.0
972,0.0
1195,0.0
1197,0.0
2,1,12,22, 0, 5, 0.00,60.00,Monday
7,7.2
718,18.660417451745886
719,3.2386808387510584
720,19.10051702696585
619,564.2544309321615
633,152.66898813169
659,0.0
661,183.87899047724568
690,13.83839992933427
716,0.0
843,448.13245434518285
844,448.13245434518285
907,0.0
908,0.0
971,0.0
972,0.0
1195,0.0
1197,0.0
2,1,12,22, 0, 6, 0.00,60.00,Monday
7,7.0
718,19.572181070874237
719,3.1029014228354104
720,18.957004470123
619,1600.4797499069564
633,427.009392914743
659,0.0
661,154.7911141789976
690,38.80765912752536
716,0.0
843,1250.923767598033
844,1250.923767598033
907,0.0
908,0.0
971,0.0
972,0.0
1195,0.0
1197,0.0
2,1,12,22, 0, 7, 0.00,60.00,Monday
7,6.7
718,19.594509825536747
719,4.081303676589232
720,18.836305002716692
619,2924.570521722668
633,783.5634149225359
659,0.0
661,118.16651662405579
690,70.24649845708677
716,85.44000000000005
843,1219.8927273923946
844,1219.8927273923946
907,0.0
908,0.0
971,0.0
972,0.0
1195,0.0
1197,0.0
2,1,12,22, 0, 8, 0.00,60.00,Monday
7,5.6
718,19.675208412761112
719,4.732685199981927
720,18.73498273386033
619,1975.764038651197
633,545.825813035216
659,0.0
661,142.35903392646506
690,49.479453486637595
716,37.25729338964814
843,1066.4049392332818
844,1066.4049392332818
907,0.0
908,0.0
971,0.0
972,0.0
1195,0.0
1197,0.0
2,1,12,22, 0, 9, 0.00,60.00,Monday
7,6.1
718,19.754940726274786
719,6.0662314038174205
720,18.647664924403674
619,977.9666091995758
633,273.0933088199861
659,0.0
661,171.35398894598478
690,24.589958636651428
716,0.0
843,768.2745932519556
844,768.2745932519556
907,0.0
908,0.0
971,0.0
972,0.0
1195,0.0
1197,0.0
2,1,12,22, 0,10, 0.00,60.00,Monday
7,6.7
718,19.834935222320556
719,9.755299675570022
720,18.566426596597992
619,331.4250721714184
633,92.88356729861877
659,0.0
661,190.33305441601163
690,8.298181258284293
716,0.0
843,262.68506851954226
844,262.68506851954226
907,0.0
908,0.0
971,0.0
972,0.0
1195,0.0
1197,0.0
2,1,12,22, 0,11, 0.00,60.00,Monday
7,7.2
718,20.020882181758733
719,12.83579385002972
720,18.49748705410599
619,0.0
633,0.0
659,0.0
661,200.0
690,0.0
716,0.0
843,-290.05065901250964
844,-290.05065901250964
907,0.0
908,0.0
971,0.0
972,0.0
1195,0.0
1197,0.0
2,1,12,22, 0,12, 0.00,60.00,Monday
7,11.0
718,19.98027781449807
719,13.605172672154833
720,18.44711721444196
619,0.0
633,0.0
659,0.0
661,0.0
690,0.0
716,0.0
843,-170.20758301620117
844,-170.20758301620117
907,0.0
908,0.0
971,0.0
972,0.0
1195,0.0
1197,0.0
2,1,12,22, 0,13, 0.00,60.00,Monday
7,10.0
718,20.03945609818339
719,13.162314418656294
720,18.412358300428256
619,0.0
633,0.0
659,0.0
661,0.0
690,0.0
716,0.0
843,-187.92133338330495
844,-187.92133338330495
907,0.0
908,0.0
971,0.0
972,0.0
1195,0.0
1197,0.0
2,1,12,22, 0,14, 0.00,60.00,Monday
7,11.0
718,18.87702310031878
719,13.406699290607953
720,18.381382045251154
619,0.0
633,0.0
659,0.0
661,0.0
690,0.0
716,64.86106947172537
843,-108.44321015406513
844,-108.44321015406513
907,0.0
908,0.0
971,0.0
972,0.0
1195,0.0
1197,0.0
2,1,12,22, 0,15, 0.00,60.00,Monday
7,10.0
718,19.787198333396493
719,13.821379848852388
720,18.355945003918077
619,0.0
633,0.0
659,0.0
661,0.0
690,0.0
716,0.0
843,-54.0152305675183
844,-54.0152305675183
907,0.0
908,0.0
971,0.0
972,0.0
1195,0.0
1197,0.0
2,1,12,22, 0,16, 0.00,60.00,Monday
7,10.0
718,19.772883906674576
719,12.606674436332437
720,18.330496290875118
619,0.0
633,0.0
659,0.0
661,0.0
690,0.0
716,0.0
843,-27.899622717635793
844,-27.899622717635793
907,0.0
908,0.0
971,0.0
972,0.0
1195,0.0
1197,0.0
2,1,12,22, 0,17, 0.00,60.00,Monday
7,10.0
718,20.02301800065181
719,11.54286288768839
720,18.30770126011993
619,0.0
633,0.0
659,0.0
661,0.0
690,0.0
716,0.0
843,-185.8942656373165
844,-185.8942656373165
907,0.0
908,0.0
971,0.0
972,0.0
1195,0.0
1197,0.0
2,1,12,22, 0,18, 0.00,60.00,Monday
7,10.0
718,20.45280255375928
719,9.432709225225345
720,18.284754142931902
619,0.0
633,0.0
659,0.0
661,0.0
690,0.0
716,0.0
843,-414.8121725631281
844,-414.8121725631281
907,0.0
908,0.0
971,0.0
972,0.0
1195,0.0
1197,0.0
2,1,12,22, 0,19, 0.00,60.00,Monday
7,11.1
718,19.51608456832471
719,9.490158194459642
720,18.256116393589476
619,0.0
633,0.0
659,0.0
661,0.0
690,0.0
716,76.28358967782218
843,-663.9974247601285
844,-663.9974247601285
907,0.0
908,0.0
971,0.0
972,0.0
1195,0.0
1197,0.0
2,1,12,22, 0,20, 0.00,60.00,Monday
7,10.0
718,19.32632448492375
719,9.322648194127357
720,18.224446194741162
619,0.0
633,0.0
659,0.0
661,0.0
690,0.0
716,69.02403185382944
843,-499.5257591597019
844,-499.5257591597019
907,0.0
908,0.0
971,0.0
972,0.0
1195,0.0
1197,0.0
2,1,12,22, 0,21, 0.00,60.00,Monday
7,10.0
718,20.07448247194137
719,9.071073962171134
720,18.188574087065025
619,0.0
633,0.0
659,0.0
661,0.0
690,0.0
716,0.0
843,-288.5663926607958
844,-288.5663926607958
907,0.0
908,0.0
971,0.0
972,0.0
1195,0.0
1197,0.0
2,1,12,22, 0,22, 0.00,60.00,Monday
7,10.6
718,20.132792448402018
719,9.265543995587986
720,18.146559108147486
619,0.0
633,0.0
659,0.0
661,0.0
690,0.0
716,0.0
843,-215.20574152994595
844,-215.20574152994595
907,0.0
908,0.0
971,0.0
972,0.0
1195,0.0
1197,0.0
2,1,12,22, 0,23, 0.00,60.00,Monday
7,10.6
718,19.8335341467568
719,9.69179488268344
720,18.10114862372652
619,0.0
633,0.0
659,0.0
661,0.0
690,0.0
716,0.0
843,-632.7860981392223
844,-632.7860981392223
907,0.0
908,0.0
971,0.0
972,0.0
1195,0.0
1197,0.0
2,1,12,22, 0,24, 0.00,60.00,Monday
7,8.3
718,19.25017764959589
719,8.962685908291192
720,18.05276431694704
619,0.0
633,0.0
659,0.0
661,200.0
690,0.0
716,0.0
843,-326.1764689384645
844,-326.1764689384645
907,0.0
908,0.0
971,0.0
972,0.0
1195,0.0
1197,0.0
2,2,12,23, 0, 1, 0.00,60.00,Tuesday
7,7.8
718,18.888286970127613
719,7.126596712799595
720,18.00278527235386
619,0.0
633,0.0
659,0.0
661,200.0
690,0.0
716,0.0
843,-146.88233144959668
844,-146.88233144959668
907,0.0
908,0.0
971,0.0
972,0.0
1195,0.0
1197,0.0
2,2,12,23, 0, 2, 0.00,60.00,Tuesday
7,7.2
718,18.608188519237522
719,6.396658063160851
720,17.942826519857164
619,245.213352427404
633,66.94255117594906
659,0.0
661,192.95369516388803
690,6.048602862524681
716,0.0
843,198.89041891287252
844,198.89041891287252
907,0.0
908,0.0
971,0.0
972,0.0
1195,0.0
1197,0.0
2,2,12,23, 0, 3, 0.00,60.00,Tuesday
7,6.7
718,18.579571493364256
719,5.943363192441341
720,17.878328875806773
619,539.3078049411869
633,146.60182315554755
659,0.0
661,184.40119652657222
690,13.390134195981856
716,0.0
843,423.70761911925274
844,423.70761911925274
907,0.0
908,0.0
971,0.0
972,0.0
1195,0.0
1197,0.0
2,2,12,23, 0, 4, 0.00,60.00,Tuesday
7,6.7
718,18.745823599720524
719,4.755710067320093
720,17.813263253649534
619,806.3315138907709
633,218.09750492371998
659,0.0
661,176.7797403811231
690,19.93245141474792
716,0.0
843,648.9739300187903
844,648.9739300187903
907,0.0
908,0.0
971,0.0
972,0.0
1195,0.0
1197,0.0
2,2,12,23, 0, 5, 0.00,60.00,Tuesday
7,6.7
718,18.64719671120498
719,3.5533857744427104
720,17.747375298823876
619,785.4074989042947
633,213.30567749976396
659,0.0
661,177.35906673414087
690,19.43515316854647
716,0.0
843,611.4076042940469
844,611.4076042940469
907,0.0
908,0.0
971,0.0
972,0.0
1195,0.0
1197,0.0
2,2,12,23, 0, 6, 0.00,60.00,Tuesday
7,6.7
718,19.475193330128132
719,4.439357657716296
720,17.669235785229844
619,1831.767888507047
633,488.17006367051385
659,0.0
661,148.08060564794877
690,44.56801183067278
716,0.0
843,1446.1250017937655
844,1446.1250017937655
907,0.0
908,0.0
971,0.0
972,0.0
1195,0.0
1197,0.0
2,2,12,23, 0, 7, 0.00,60.00,Tuesday
7,6.1
718,19.570712314848308
719,5.107195261245124
720,17.611001048363228
619,3191.6780813930427
633,855.42975048203
659,0.0
661,109.82863695452203
690,77.40379919974896
716,82.5342568728376
843,1480.5924742913812
844,1480.5924742913812
907,0.0
908,0.0
971,0.0
972,0.0
1195,0.0
1197,0.0
2,2,12,23, 0, 8, 0.00,60.00,Tuesday
7,6.1
718,19.67050765062437
719,5.73816648115402
720,17.548736772391635
619,2763.681004060289
633,747.3233182534028
659,0.0
661,121.3660997570618
690,67.49995141614659
716,85.44000000000005
843,1097.447532549495
844,1097.447532549495
907,0.0
908,0.0
971,0.0
972,0.0
1195,0.0
1197,0.0
2,2,12,23, 0, 9, 0.00,60.00,Tuesday
7,7.2
718,19.8483500267899
719,7.673964536971853
720,17.4967109920964
619,846.8330419151293
633,233.01611257352863
659,0.0
661,175.81731697542605
690,20.758603149885165
716,26.23371799125929
843,329.22625382708065
844,329.22625382708065
907,0.0
908,0.0
971,0.0
972,0.0
1195,0.0
1197,0.0
2,2,12,23, 0,10, 0.00,60.00,Tuesday
7,8.3
718,20.466501450089698
719,11.196571114489467
720,17.452593436816514
619,0.0
633,0.0
659,0.0
661,200.0
690,0.0
716,0.0
843,-590.4400644489506
844,-590.4400644489506
907,0.0
908,0.0
971,0.0
972,0.0
1195,0.0
1197,0.0
2,2,12,23, 0,11, 0.00,60.00,Tuesday
7,9.4
718,21.474790343272645
719,16.774254675397263
720,17.43876788312862
619,0.0
633,0.0
659,0.0
661,200.0
690,0.0
716,0.0
843,-1436.7441742381561
844,-1436.7441742381561
907,0.0
908,0.0
971,0.0
972,0.0
1195,0.0
1197,0.0
2,2,12,23, 0,12, 0.00,60.00,Tuesday
7,11.7
718,22.39504941312051
719,21.090234800696525
720,17.452750682674626
619,0.0
633,0.0
659,0.0
661,0.0
690,0.0
716,0.0
843,-2198.918301458494
844,-2198.918301458494
907,0.0
908,0.0
971,0.0
972,0.0
1195,0.0
1197,0.0
2,2,12,23, 0,13, 0.00,60.00,Tuesday
7,12.8
718,23.32406418525974
719,27.257278155464608
720,17.49620010859033
619,0.0
633,0.0
659,0.0
661,0.0
690,2.202644565454271
716,0.0
843,-3010.1402804269
844,-3010.1402804269
907,0.0
908,0.0
971,0.0
972,0.0
1195,0.0
1197,0.0
2,2,12,23, 0,14, 0.00,60.00,Tuesday
7,14.4
718,23.318912830348467
719,25.55026892634434
720,17.59971729708638
619,0.0
633,0.0
659,0.0
661,0.0
690,27.995378474426932
716,0.0
843,-3774.0494905118903
844,-3774.0494905118903
907,0.0
908,0.0
971,0.0
972,0.0
1195,0.0
1197,0.0
2,2,12,23, 0,15, 0.00,60.00,Tuesday
7,15.0
718,23.361460312303546
719,27.886417638647877
720,17.703583107330473
619,0.0
633,0.0
659,0.0
661,0.0
690,46.79183176440179
716,0.0
843,-4590.8936037077565
844,-4590.8936037077565
907,0.0
908,0.0
971,0.0
972,0.0
1195,0.0
1197,0.0
2,2,12,23, 0,16, 0.00,60.00,Tuesday
7,14.4
718,23.285023841147225
719,23.795595313829256
720,17.830717014105417
619,0.0
633,0.0
659,0.0
661,0.0
690,59.06674415744714
716,0.0
843,-5517.670833708056
844,-5517.670833708056
907,0.0
908,0.0
971,0.0
972,0.0
1195,0.0
1197,0.0
2,2,12,23, 0,17, 0.00,60.00,Tuesday
7,14.4
718,23.348427568543496
719,20.633740542035714
720,17.924374830170706
619,0.0
633,0.0
659,0.0
661,0.0
690,46.29256689215486
716,0.0
843,-5313.410828391141
844,-5313.410828391141
907,0.0
908,0.0
971,0.0
972,0.0
1195,0.0
1197,0.0
2,2,12,23, 0,18, 0.00,60.00,Tuesday
7,11.7
718,23.306131877263205
719,16.772865246051634
720,17.99670842918514
619,0.0
633,0.0
659,0.0
661,0.0
690,29.277471216498984
716,0.0
843,-4539.667647845119
844,-4539.667647845119
907,0.0
908,0.0
971,0.0
972,0.0
1195,0.0
1197,0.0
2,2,12,23, 0,19, 0.00,60.00,Tuesday
7,11.1
718,23.05981849777805
719,13.51632491340824
720,18.025392581195785
619,0.0
633,0.0
659,0.0
661,0.0
690,0.0
716,80.62825463455421
843,-4102.562284831638
844,-4102.562284831638
907,0.0
908,0.0
971,0.0
972,0.0
1195,0.0
1197,0.0
2,2,12,23, 0,20, 0.00,60.00,Tuesday
7,10.0
718,22.725483459941596
719,11.386621277577143
720,18.06894405482326
619,0.0
633,0.0
659,0.0
661,0.0
690,0.0
716,85.44000000000005
843,-3901.5799489653
844,-3901.5799489653
907,0.0
908,0.0
971,0.0
972,0.0
1195,0.0
1197,0.0
2,2,12,23, 0,21, 0.00,60.00,Tuesday
7,8.9
718,23.0902176970855
719,9.816254182775396
720,18.081192628809323
619,0.0
633,0.0
659,0.0
661,200.0
690,0.0
716,26.85344877846091
843,-3507.7037658834142
844,-3507.7037658834142
907,0.0
908,0.0
971,0.0
972,0.0
1195,0.0
1197,0.0
2,2,12,23, 0,22, 0.00,60.00,Tuesday
7,7.2
718,23.066902472153018
719,8.364359464411807
720,18.073461881726896
619,0.0
633,0.0
659,0.0
661,200.0
690,0.0
716,0.0
843,-2624.683168677988
844,-2624.683168677988
907,0.0
908,0.0
971,0.0
972,0.0
1195,0.0
1197,0.0
2,2,12,23, 0,23, 0.00,60.00,Tuesday
7,7.2
718,22.536658022099033
719,7.378296031561792
720,18.04982091099004
619,0.0
633,0.0
659,0.0
661,200.0
690,0.0
716,0.0
843,-2777.3156767229484
844,-2777.3156767229484
907,0.0
908,0.0
971,0.0
972,0.0
1195,0.0
1197,0.0
2,2,12,23, 0,24, 0.00,60.00,Tuesday
7,5.6
718,21.84259160050366
719,5.304076658627187
720,18.012906550363752
619,0.0
633,0.0
659,0.0
661,200.0
690,0.0
716,0.0
843,-2302.5366930081746
844,-2302.5366930081746
907,0.0
908,0.0
971,0.0
972,0.0
1195,0.0
1197,0.0
2,3,12,24, 0, 1, 0.00,60.00,Wednesday
7,6.7
718,21.22112483910405
719,4.956961305749835
720,17.960978818081216
619,0.0
633,0.0
659,0.0
661,200.0
690,0.0
716,0.0
843,-1855.543751918769
844,-1855.543751918769
907,0.0
908,0.0
971,0.0
972,0.0
1195,0.0
1197,0.0
2,3,12,24, 0, 2, 0.00,60.00,Wednesday
7,6.1
718,20.567332754559935
719,4.593051994874117
720,17.900905512069812
619,0.0
633,0.0
659,0.0
661,200.0
690,0.0
716,0.0
843,-1322.4928803605308
844,-1322.4928803605308
907,0.0
908,0.0
971,0.0
972,0.0
1195,0.0
1197,0.0
2,3,12,24, 0, 3, 0.00,60.00,Wednesday
7,5.6
718,19.834207061819487
719,4.237189057070757
720,17.833304715517933
619,0.0
633,0.0
659,0.0
661,200.0
690,0.0
716,0.0
843,-809.5716080388975
844,-809.5716080388975
907,0.0
908,0.0
971,0.0
972,0.0
1195,0.0
1197,0.0
2,3,12,24, 0, 4, 0.00,60.00,Wednesday
7,6.1
718,19.277488794878685
719,4.241820748573879
720,17.760237885388744
619,0.0
633,0.0
659,0.0
661,200.0
690,0.0
716,0.0
843,-449.224171513717
844,-449.224171513717
907,0.0
908,0.0
971,0.0
972,0.0
1195,0.0
1197,0.0
2,3,12,24, 0, 5, 0.00,60.00,Wednesday
7,6.1
718,18.830841434695948
719,4.215799508076986
720,17.68340983331432
619,0.0
633,0.0
659,0.0
661,200.0
690,0.0
716,0.0
843,-137.2968602775709
844,-137.2968602775709
907,0.0
908,0.0
971,0.0
972,0.0
1195,0.0
1197,0.0
2,3,12,24, 0, 6, 0.00,60.00,Wednesday
7,8.3
718,19.342320485300583
719,4.824546190623677
720,17.597770954950782
619,1697.5069994046976
633,445.9398524729744
659,0.0
661,153.57899233275782
690,39.84815394564909
716,71.04421013639536
843,481.63720662003834
844,481.63720662003834
907,0.0
908,0.0
971,0.0
972,0.0
1195,0.0
1197,0.0
2,3,12,24, 0, 7, 0.00,60.00,Wednesday
7,7.8
718,19.571713832430824
719,4.614549932554812
720,17.52791857247078
619,2226.0792994080675
633,590.4229968350295
659,0.0
661,138.75386691111453
690,52.57415688595307
716,85.44000000000005
843,670.8431658269401
844,670.8431658269401
907,0.0
908,0.0
971,0.0
972,0.0
1195,0.0
1197,0.0
2,3,12,24, 0, 8, 0.00,60.00,Wednesday
7,7.8
718,19.70727357314923
719,4.83608560582285
720,17.457788738197667
619,1276.439463822864
633,345.28958576332474
659,0.0
661,164.33488404292095
690,30.615212865144237
716,20.718087225996392
843,732.5422747824869
844,732.5422747824869
907,0.0
908,0.0
971,0.0
972,0.0
1195,0.0
1197,0.0
2,3,12,24, 0, 9, 0.00,60.00,Wednesday
7,9.4
718,19.78237019372915
719,6.583105828836391
720,17.39362181043532
619,835.2132265955786
633,223.58146907470694
659,0.0
661,177.38601268288556
690,19.412022556615625
716,0.0
843,645.4218084718759
844,645.4218084718759
907,0.0
908,0.0
971,0.0
972,0.0
1195,0.0
1197,0.0
2,3,12,24, 0,10, 0.00,60.00,Wednesday
7,11.7
718,19.791504402462866
719,10.256797917796618
720,17.332010599477123
619,374.9670011464015
633,98.62919008649109
659,0.0
661,0.0
690,8.30785691056785
716,0.0
843,299.8247342244431
844,299.8247342244431
907,0.0
908,0.0
971,0.0
972,0.0
1195,0.0
1197,0.0
2,3,12,24, 0,11, 0.00,60.00,Wednesday
7,11.7
718,19.7086309570301
719,11.855100367811742
720,17.283518747750687
619,346.9945021744088
633,91.32001752519582
659,0.0
661,0.0
690,7.6913395124351975
716,0.0
843,276.12978333255705
844,276.12978333255705
907,0.0
908,0.0
971,0.0
972,0.0
1195,0.0
1197,0.0
2,3,12,24, 0,12, 0.00,60.00,Wednesday
7,13.9
718,19.81031576795394
719,14.541743325340313
720,17.244848815032327
619,39.666909324072485
633,10.250892206502463
659,0.0
661,0.0
690,0.8384179717999658
716,0.0
843,32.68022283474056
844,32.68022283474056
907,0.0
908,0.0
971,0.0
972,0.0
1195,0.0
1197,0.0
2,3,12,24, 0,13, 0.00,60.00,Wednesday
7,16.7
718,19.972320781457217
719,16.555752730470708
720,17.222376582550297
619,0.0
633,0.0
659,0.0
661,0.0
690,0.0
716,0.0
843,-100.81581623543934
844,-100.81581623543934
907,0.0
908,0.0
971,0.0
972,0.0
1195,0.0
1197,0.0
2,3,12,24, 0,14, 0.00,60.00,Wednesday
7,15.6
718,19.963952432855617
719,16.461359978252784
720,17.211584867734697
619,0.0
633,0.0
659,0.0
661,0.0
690,0.0
716,0.0
843,-163.59867217658757
844,-163.59867217658757
907,0.0
908,0.0
971,0.0
972,0.0
1195,0.0
1197,0.0
2,3,12,24, 0,15, 0.00,60.00,Wednesday
7,12.8
718,20.04885021670476
719,15.550788015755899
720,17.208951514769566
619,0.0
633,0.0
659,0.0
661,0.0
690,0.0
716,0.0
843,-214.76308263061946
844,-214.76308263061946
907,0.0
908,0.0
971,0.0
972,0.0
1195,0.0
1197,0.0
2,3,12,24, 0,16, 0.00,60.00,Wednesday
7,12.8
718,18.965437696711266
719,16.662598513017116
720,17.213439959359473
619,0.0
633,0.0
659,0.0
661,0.0
690,0.0
716,85.44000000000005
843,-380.13505082189386
844,-380.13505082189386
907,0.0
908,0.0
971,0.0
972,0.0
1195,0.0
1197,0.0
2,3,12,24, 0,17, 0.00,60.00,Wednesday
7,12.8
718,19.550200025067944
719,16.439898245565193
720,17.221646764940942
619,0.0
633,0.0
659,0.0
661,0.0
690,0.0
716,46.22014122204095
843,-489.9240372305467
844,-489.9240372305467
907,0.0
908,0.0
971,0.0
972,0.0
1195,0.0
1197,0.0
2,3,12,24, 0,18, 0.00,60.00,Wednesday
7,12.8
718,20.288311898455138
719,14.244414060032636
720,17.2302327917106
619,0.0
633,0.0
659,0.0
661,0.0
690,0.0
716,0.0
843,-408.9904023624458
844,-408.9904023624458
907,0.0
908,0.0
971,0.0
972,0.0
1195,0.0
1197,0.0
2,3,12,24, 0,19, 0.00,60.00,Wednesday
7,12.2
718,20.59864183529088
719,13.410703668499583
720,17.23841890909322
619,0.0
633,0.0
659,0.0
661,0.0
690,0.0
716,0.0
843,-361.5198604365969
844,-361.5198604365969
907,0.0
908,0.0
971,0.0
972,0.0
1195,0.0
1197,0.0
2,3,12,24, 0,20, 0.00,60.00,Wednesday
7,11.1
718,19.35469752420322
719,11.851618573189292
720,17.241806061533655
619,0.0
633,0.0
659,0.0
661,0.0
690,0.0
716,83.50313238980303
843,-506.58210535566013
844,-506.58210535566013
907,0.0
908,0.0
971,0.0
972,0.0
1195,0.0
1197,0.0
2,3,12,24, 0,21, 0.00,60.00,Wednesday
7,10.6
718,20.67147126420104
719,11.731309915091101
720,17.244843812979006
619,0.0
633,0.0
659,0.0
661,0.0
690,0.0
716,0.0
843,-827.9711522737962
844,-827.9711522737962
907,0.0
908,0.0
971,0.0
972,0.0
1195,0.0
1197,0.0
2,3,12,24, 0,22, 0.00,60.00,Wednesday
7,10.6
718,20.939479528979632
719,10.951264186493644
720,17.2363408588401
619,0.0
633,0.0
659,0.0
661,0.0
690,0.0
716,0.0
843,-602.7056541420607
844,-602.7056541420607
907,0.0
908,0.0
971,0.0
972,0.0
1195,0.0
1197,0.0
2,3,12,24, 0,23, 0.00,60.00,Wednesday
7,10.6
718,20.683586875601662
719,10.776119012780386
720,17.2230335853275
619,0.0
633,0.0
659,0.0
661,0.0
690,0.0
716,0.0
843,-1287.6867825537738
844,-1287.6867825537738
907,0.0
908,0.0
971,0.0
972,0.0
1195,0.0
1197,0.0
2,3,12,24, 0,24, 0.00,60.00,Wednesday
7,10.0
718,20.24260779521068
719,10.392079675698705
720,17.204736898834796
619,0.0
633,0.0
659,0.0
661,0.0
690,0.0
716,0.0
843,-934.6816691505819
844,-934.6816691505819
907,0.0
908,0.0
971,0.0
972,0.0
1195,0.0
1197,0.0
2,4,12,25, 0, 1, 0.00,60.00,Thursday
7,10.0
718,18.838681812634245
719,10.708314853750842
720,17.178142833454356
619,0.0
633,0.0
659,0.0
661,0.0
690,0.0
716,0.0
843,-128.9581482709118
844,-128.9581482709118
907,0.0
908,0.0
971,0.0
972,0.0
1195,0.0
1197,0.0
2,4,12,25, 0, 2, 0.00,60.00,Thursday
7,8.3
718,18.640467720030752
719,9.429641446822929
720,17.14988817095442
619,0.0
633,0.0
659,0.0
661,200.0
690,0.0
716,0.0
843,-23.30031803165366
844,-23.30031803165366
907,0.0
908,0.0
971,0.0
972,0.0
1195,0.0
1197,0.0
2,4,12,25, 0, 3, 0.00,60.00,Thursday
7,8.3
718,18.618601970621608
719,9.055005766135485
720,17.113507806334315
619,305.9832655717964
633,81.72303108860983
659,0.0
661,191.46086999651388
690,7.330055594224905
716,0.0
843,243.37341574834682
844,243.37341574834682
907,0.0
908,0.0
971,0.0
972,0.0
1195,0.0
1197,0.0
2,4,12,25, 0, 4, 0.00,60.00,Thursday
7,7.8
718,18.74320792164072
719,8.611205900630464
720,17.07256063112909
619,434.631896547333
633,116.53850814949165
659,0.0
661,187.74668183628037
690,10.51834359204305
716,0.0
843,357.28854576604317
844,357.28854576604317
907,0.0
908,0.0
971,0.0
972,0.0
1195,0.0
1197,0.0
2,4,12,25, 0, 5, 0.00,60.00,Thursday
7,7.8
718,18.64616245169128
719,8.198866970757578
720,17.027340860415375
619,1353.492581150279
633,358.7619529233314
659,0.0
661,162.35955750696553
690,32.31084852350636
716,57.446724580750235
843,432.93545372372137
844,432.93545372372137
907,0.0
908,0.0
971,0.0
972,0.0
1195,0.0
1197,0.0
2,4,12,25, 0, 6, 0.00,60.00,Thursday
7,5.6
718,19.58166100457083
719,6.570255868755583
720,16.974114408175762
619,1591.5561558519712
633,431.96367481600157
659,0.0
661,153.4861188653661
690,39.92787725223089
716,0.0
843,1295.8779354998096
844,1295.8779354998096
907,0.0
908,0.0
971,0.0
972,0.0
1195,0.0
1197,0.0
2,4,12,25, 0, 7, 0.00,60.00,Thursday
7,5.0
718,19.60755062699491
719,6.895842990017934
720,16.943754924311953
619,2989.50425159984
633,881.3389739863815
659,92.05797335334694
661,86.2495073681549
690,97.23267617712727
716,85.44000000000005
843,1252.9196788159952
844,1252.9196788159952
907,0.0
908,0.0
971,0.0
972,0.0
1195,0.0
1197,0.0
2,4,12,25, 0, 8, 0.00,60.00,Thursday
7,6.1
718,19.773085353396464
719,7.068387006328802
720,16.890508835909877
619,1917.9139543388474
633,525.7121019811153
659,0.0
661,144.69580938286975
690,47.47354726437914
716,54.8439463625913
843,836.4569924461393
844,836.4569924461393
907,0.0
908,0.0
971,0.0
972,0.0
1195,0.0
1197,0.0
2,4,12,25, 0, 9, 0.00,60.00,Thursday
7,6.7
718,19.69280690990462
719,8.423789513481745
720,16.837480206767832
619,232.33235040911617
633,65.12467752987077
659,0.0
661,193.2143698676628
690,5.824837669829757
716,0.0
843,182.4372569873958
844,182.4372569873958
907,0.0
908,0.0
971,0.0
972,0.0
1195,0.0
1197,0.0
2,4,12,25, 0,10, 0.00,60.00,Thursday
7,7.2
718,20.24540531894543
719,10.688325822417518
720,16.808730958138145
619,0.0
633,0.0
659,0.0
661,200.0
690,0.0
716,0.0
843,-486.91078722137536
844,-486.91078722137536
907,0.0
908,0.0
971,0.0
972,0.0
1195,0.0
1197,0.0
2,4,12,25, 0,11, 0.00,60.00,Thursday
7,7.2
718,21.039429979627304
719,13.817787461690575
720,16.805439211403137
619,0.0
633,0.0
659,0.0
661,200.0
690,0.0
716,0.0
843,-971.9498717096285
844,-971.9498717096285
907,0.0
908,0.0
971,0.0
972,0.0
1195,0.0
1197,0.0
2,4,12,25, 0,12, 0.00,60.00,Thursday
7,8.9
718,20.72672714421914
719,14.19356294983924
720,16.824265747322706
619,0.0
633,0.0
659,0.0
661,200.0
690,0.0
716,0.0
843,-745.784202158944
844,-745.784202158944
907,0.0
908,0.0
971,0.0
972,0.0
1195,0.0
1197,0.0
2,4,12,25, 0,13, 0.00,60.00,Thursday
7,9.4
718,20.43699725589661
719,13.187537060475096
720,16.850589645757562
619,0.0
633,0.0
659,0.0
661,200.0
690,0.0
716,0.0
843,-514.9492374936181
844,-514.9492374936181
907,0.0
908,0.0
971,0.0
972,0.0
1195,0.0
1197,0.0
2,4,12,25, 0,14, 0.00,60.00,Thursday
7,9.4
718,20.104942370709686
719,12.394303600583791
720,16.87204850770231
619,0.0
633,0.0
659,0.0
661,200.0
690,0.0
716,0.0
843,-283.6055927110774
844,-283.6055927110774
907,0.0
908,0.0
971,0.0
972,0.0
1195,0.0
1197,0.0
2,4,12,25, 0,15, 0.00,60.00,Thursday
7,9.4
718,19.73255763932508
719,11.612485136531696
720,16.884618735581657
619,89.90389703198773
633,24.539505346136583
659,0.0
661,197.53465313913685
690,2.116272915601139
716,0.0
843,66.1822356430057
844,66.1822356430057
907,0.0
908,0.0
971,0.0
972,0.0
1195,0.0
1197,0.0
2,4,12,25, 0,16, 0.00,60.00,Thursday
7,8.9
718,20.036221925440348
719,11.128543650623275
720,16.895665933683144
619,322.43459431368143
633,87.52493099682462
659,0.0
661,191.09503540725999
690,7.644090850325565
716,0.0
843,266.59247346898155
844,266.59247346898155
907,0.0
908,0.0
971,0.0
972,0.0
1195,0.0
1197,0.0
2,4,12,25, 0,17, 0.00,60.00,Thursday
7,8.9
718,19.824566320708534
719,10.82998904152787
720,16.90720667752538
619,1337.8814190837293
633,360.0465880157068
659,0.0
661,163.56709079279767
690,31.274292561316642
716,80.11566350108876
843,6.8159359247429165
844,6.8159359247429165
907,0.0
908,0.0
971,0.0
972,0.0
1195,0.0
1197,0.0
2,4,12,25, 0,18, 0.00,60.00,Thursday
7,6.7
718,19.911511903989553
719,8.603809277697998
720,16.87912196798004
619,0.0
633,0.0
659,0.0
661,200.0
690,0.0
716,0.0
843,3.5236573611528
844,3.5236573611528
907,0.0
908,0.0
971,0.0
972,0.0
1195,0.0
1197,0.0
2,4,12,25, 0,19, 0.00,60.00,Thursday
7,6.7
718,18.6010254327595
719,7.553880446666045
720,16.864882827438905
619,0.0
633,0.0
659,0.0
661,200.0
690,0.0
716,85.44000000000005
843,-179.6171643094949
844,-179.6171643094949
907,0.0
908,0.0
971,0.0
972,0.0
1195,0.0
1197,0.0
2,4,12,25, 0,20, 0.00,60.00,Thursday
7,6.1
718,19.48798378286473
719,7.204172555032963
720,16.84104457368527
619,909.3037930461392
633,247.4779682237259
659,0.0
661,173.4684969403973
690,22.77484853209171
716,44.004116627399306
843,177.84346654393084
844,177.84346654393084
907,0.0
908,0.0
971,0.0
972,0.0
1195,0.0
1197,0.0
2,4,12,25, 0,21, 0.00,60.00,Thursday
7,6.7
718,19.917122773568966
719,6.11670111884758
720,16.81627698076282
619,0.0
633,0.0
659,0.0
661,200.0
690,0.0
716,0.0
843,3.0031866796753093
844,3.0031866796753093
907,0.0
908,0.0
971,0.0
972,0.0
1195,0.0
1197,0.0
2,4,12,25, 0,22, 0.00,60.00,Thursday
7,6.1
718,19.747249735448367
719,4.8660541687349514
720,16.780662549954812
619,52.12468747987703
633,14.83201622715221
659,0.0
661,198.4489677579621
690,1.3314181372026934
716,0.0
843,26.81105569588817
844,26.81105569588817
907,0.0
908,0.0
971,0.0
972,0.0
1195,0.0
1197,0.0
2,4,12,25, 0,23, 0.00,60.00,Thursday
7,6.1
718,19.24390946186547
719,3.705762491188752
720,16.741668107366166
619,0.0
633,0.0
659,0.0
661,200.0
690,0.0
716,0.0
843,-322.86572592756784
844,-322.86572592756784
907,0.0
908,0.0
971,0.0
972,0.0
1195,0.0
1197,0.0
2,4,12,25, 0,24, 0.00,60.00,Thursday
7,4.4
718,18.65835028091479
719,3.2690234948931334
720,16.698528473466123
619,134.33456620999723
633,42.214876502727044
659,3.944076761205851
661,194.57119032495265
690,4.637791363388883
716,0.0
843,81.27186120192891
844,81.27186120192891
907,0.0
908,0.0
971,0.0
972,0.0
1195,0.0
1197,0.0
2,5,12,26, 0, 1, 0.00,60.00,Friday
7,3.3
718,18.329100761205886
719,2.987126234006727
720,16.643658649790705
619,578.9110034775485
633,181.10399630279406
659,17.2610999344444
661,176.19501012080306
690,20.295270645350573
716,0.0
843,439.1857477068261
844,439.1857477068261
907,0.0
908,0.0
971,0.0
972,0.0
1195,0.0
1197,0.0
2,5,12,26, 0, 2, 0.00,60.00,Friday
7,2.2
718,18.575860063832224
719,1.6483032895202288
720,16.57620381746601
619,1319.3158564944179
633,410.4829501571572
659,36.747058048101465
661,145.62956682204268
690,46.28647621564861
716,0.0
843,982.115455035464
844,982.115455035464
907,0.0
908,0.0
971,0.0
972,0.0
1195,0.0
1197,0.0
2,5,12,26, 0, 3, 0.00,60.00,Friday
7,2.2
718,18.595105226976127
719,1.01192143470988
720,16.51640601479852
619,1722.4856358213046
633,534.1472659331338
659,47.579588372188915
661,129.5829525591119
690,59.946824595496544
716,0.0
843,1276.6275156531428
844,1276.6275156531428
907,0.0
908,0.0
971,0.0
972,0.0
1195,0.0