Program Version,EnergyPlus, Version 22.2.0-c249759bad, YMD=2023.09.01 14:30
1,5,Environment Title[],Latitude[deg],Longitude[deg],Time Zone[],Elevation[m]
2,8,Day of Simulation[],Month[],Day of Month[],DST Indicator[1=yes 0=no],Hour[],StartMinute[],EndMinute[],DayType
3,5,Cumulative Day of Simulation[],Month[],Day of Month[],DST Indicator[1=yes 0=no],DayType  ! When Daily Report Variables Requested
4,2,Cumulative Days of Simulation[],Month[]  ! When Monthly Report Variables Requested
5,1,Cumulative Days of Simulation[] ! When Run Period Report Variables Requested
6,1,Calendar Year of Simulation[] ! When Annual Report Variables Requested
7,1,Environment,Site Outdoor Air Drybulb Temperature [C] !Hourly
619,1,DX_HEATING_COIL,Heating Coil Heating Rate [W] !Hourly
633,1,DX_HEATING_COIL,Heating Coil Electricity Rate [W] !Hourly
659,1,DX_HEATING_COIL,Heating Coil Defrost Electricity Rate [W] !Hourly
661,1,DX_HEATING_COIL,Heating Coil Crankcase Heater Electricity Rate [W] !Hourly
690,1,FAN,Fan Electricity Rate [W] !Hourly
716,1,HEAT PUMP WATER HEATER FAN,Fan Electricity Rate [W] !Hourly
718,1,LIVING,Zone Mean Air Temperature [C] !Hourly
719,1,ATTIC,Zone Mean Air Temperature [C] !Hourly
720,1,CRAWLSPACE,Zone Mean Air Temperature [C] !Hourly
843,1,LIVING,Zone Predicted Sensible Load to Heating Setpoint Heat Transfer Rate [W] !Hourly
844,1,LIVING,Zone System Predicted Sensible Load to Heating Setpoint Heat Transfer Rate [W] !Hourly
907,1,ATTIC,Zone Predicted Sensible Load to Heating Setpoint Heat Transfer Rate [W] !Hourly
908,1,ATTIC,Zone System Predicted Sensible Load to Heating Setpoint Heat Transfer Rate [W] !Hourly
971,1,CRAWLSPACE,Zone Predicted Sensible Load to Heating Setpoint Heat Transfer Rate [W] !Hourly
972,1,CRAWLSPACE,Zone System Predicted Sensible Load to Heating Setpoint Heat Transfer Rate [W] !Hourly
1195,1,HEATING_RESISTANCE_BACKUP,Heating Coil Heating Rate [W] !Hourly
1197,1,HEATING_RESISTANCE_BACKUP,Heating Coil Electricity Rate [W] !Hourly
End of Data Dictionary
1,EXTREME_WINTER,  44.25,-121.15,  -8.00, 936.00
2,1,12,22, 0, 1, 0.00,60.00,Monday
7,-4.4
718,18.265448714600495
719,2.272603879778283
720,19.37214540366134
619,1297.4488845097517
633,463.4620583056591
659,24.433068986579816
661,139.23822629345347
690,51.8160991163969
716,0.0
843,984.8140781330931
844,984.8140781330931
907,0.0
908,0.0
971,0.0
972,0.0
1195,0.0
1197,0.0
2,1,12,22, 0, 2, 0.00,60.00,Monday
7,-3.3
718,18.486357668115456
719,0.9465807403612589
720,19.061793283607535
619,2110.6124577006576
633,715.6370631273056
659,47.909338846398086
661,104.4964695901655
690,81.32623524834418
716,0.0
843,1579.8856359971815
844,1579.8856359971815
907,0.0
908,0.0
971,0.0
972,0.0
1195,0.0
1197,0.0
2,1,12,22, 0, 3, 0.00,60.00,Monday
7,-3.3
718,18.5781838883395
719,0.6452797357427248
720,18.878308981553843
619,2628.35734803742
633,883.5842328719614
659,53.121497104646146
661,83.51767262700085
690,99.32878918220669
716,0.0
843,1922.1673723437707
844,1922.1673723437707
907,0.0
908,0.0
971,0.0
972,0.0
1195,0.0
1197,0.0
2,1,12,22, 0, 4, 0.00,60.00,Monday
7,-3.3
718,18.584741131115965
719,0.4526864429547303
720,18.689514365662173
619,2887.6899052493095
633,966.6242562633352
659,57.98578321974642
661,72.78258205862731
690,108.48320951585872
716,0.0
843,2094.8882837525416
844,2094.8882837525416
907,0.0
908,0.0
971,0.0
972,0.0
1195,0.0
1197,0.0
2,1,12,22, 0, 5, 0.00,60.00,Monday
7,-5.0
718,18.552210757064675
719,-0.5337609745707638
720,18.494685980038206
619,3225.8635558272863
633,1105.1670228065423
659,55.06336495872097
661,54.471737995718094
690,124.10041512990419
716,0.0
843,2317.002571120145
844,2317.002571120145
907,0.0
908,0.0
971,0.0
972,0.0
1195,0.0
1197,0.0
2,1,12,22, 0, 6, 0.00,60.00,Monday
7,-6.7
718,19.200786178433503
719,-1.0792442261739799
720,18.265180526863265
619,4430.017526473214
633,1499.4476925502888
659,72.90741505462387
661,0.0
690,172.77538977742657
716,0.0
843,3643.9926256118597
844,3643.9926256118597
907,0.0
908,0.0
971,0.0
972,0.0
1195,644.4875679682373
1197,644.4875679682373
2,1,12,22, 0, 7, 0.00,60.00,Monday
7,-8.9
718,19.496580896487405
719,-2.1147840786005454
720,18.127499767604405
619,4210.780581519266
633,1517.9818376023964
659,51.34276080018523
661,0.0
690,172.77538977742657
716,85.44000000000004
843,3940.1608122335147
844,3940.1608122335147
907,0.0
908,0.0
971,0.0
972,0.0
1195,2469.420830265616
1197,2469.420830265616
2,1,12,22, 0, 8, 0.00,60.00,Monday
7,-6.1
718,19.617914348890242
719,-2.568499337565529
720,18.005988990188428
619,4504.663832381878
633,1541.4615835739435
659,67.90085958131937
661,0.0
690,172.77538977742657
716,81.56170173382321
843,3349.3833118532693
844,3349.3833118532693
907,0.0
908,0.0
971,0.0
972,0.0
1195,1572.787916278905
1197,1572.787916278905
2,1,12,22, 0, 9, 0.00,60.00,Monday
7,-2.8
718,19.77094995340069
719,-1.287475903417734
720,17.911769062753645
619,3365.1796638820115
633,1130.3510716596024
659,61.7206926774908
661,55.50885947182127
690,123.40361156054816
716,0.0
843,2267.5734226757504
844,2267.5734226757504
907,0.0
908,0.0
971,0.0
972,0.0
1195,0.0
1197,0.0
2,1,12,22, 0,10, 0.00,60.00,Monday
7,0.6
718,19.844331178436942
719,1.9445183320135522
720,17.813796401692414
619,1745.2173628047813
633,573.4606595132437
659,29.772899254377126
661,129.13311600954862
690,60.80674248422035
716,0.0
843,1213.0545283923493
844,1213.0545283923493
907,0.0
908,0.0
971,0.0
972,0.0
1195,0.0
1197,0.0
2,1,12,22, 0,11, 0.00,60.00,Monday
7,2.8
718,19.88654740636696
719,5.19904622035931
720,17.71749167735995
619,412.04951601213753
633,133.96995346994373
659,2.8507117468692393
661,184.4541474928816
690,13.405652911863754
716,0.0
843,298.4263462167801
844,298.4263462167801
907,0.0
908,0.0
971,0.0
972,0.0
1195,0.0
1197,0.0
2,1,12,22, 0,12, 0.00,60.00,Monday
7,3.9
718,20.16364668028894
719,8.926120094441965
720,17.6447839010075
619,0.0
633,0.0
659,0.0
661,200.0
690,0.0
716,0.0
843,-321.3091800299226
844,-321.3091800299226
907,0.0
908,0.0
971,0.0
972,0.0
1195,0.0
1197,0.0
2,1,12,22, 0,13, 0.00,60.00,Monday
7,5.0
718,20.770231008386194
719,12.065482668040692
720,17.601174223489437
619,0.0
633,0.0
659,0.0
661,200.0
690,0.0
716,0.0
843,-765.3822570363664
844,-765.3822570363664
907,0.0
908,0.0
971,0.0
972,0.0
1195,0.0
1197,0.0
2,1,12,22, 0,14, 0.00,60.00,Monday
7,5.6
718,20.078357415205776
719,12.787426089077469
720,17.578718807408862
619,0.0
633,0.0
659,0.0
661,200.0
690,0.0
716,77.70743796042281
843,-1035.530705357989
844,-1035.530705357989
907,0.0
908,0.0
971,0.0
972,0.0
1195,0.0
1197,0.0
2,1,12,22, 0,15, 0.00,60.00,Monday
7,5.0
718,20.815530282508384
719,12.301971210043153
720,17.570965230558105
619,0.0
633,0.0
659,0.0
661,200.0
690,0.0
716,0.0
843,-932.5477497412576
844,-932.5477497412576
907,0.0
908,0.0
971,0.0
972,0.0
1195,0.0
1197,0.0
2,1,12,22, 0,16, 0.00,60.00,Monday
7,2.2
718,20.553698255669346
719,9.666805977674064
720,17.56152911209275
619,0.0
633,0.0
659,0.0
661,200.0
690,0.0
716,0.0
843,-561.5579244801029
844,-561.5579244801029
907,0.0
908,0.0
971,0.0
972,0.0
1195,0.0
1197,0.0
2,1,12,22, 0,17, 0.00,60.00,Monday
7,1.7
718,20.02967791973169
719,6.294286364483528
720,17.545840465812287
619,0.0
633,0.0
659,0.0
661,200.0
690,0.0
716,0.0
843,-225.90331586827597
844,-225.90331586827597
907,0.0
908,0.0
971,0.0
972,0.0
1195,0.0
1197,0.0
2,1,12,22, 0,18, 0.00,60.00,Monday
7,2.2
718,19.781174878768727
719,4.030292389016239
720,17.5226617816415
619,0.0
633,0.0
659,0.0
661,200.0
690,0.0
716,0.0
843,-42.765438859862115
844,-42.765438859862115
907,0.0
908,0.0
971,0.0
972,0.0
1195,0.0
1197,0.0
2,1,12,22, 0,19, 0.00,60.00,Monday
7,3.3
718,18.65822806931605
719,3.5367159058475917
720,17.480711347619494
619,0.0
633,0.0
659,0.0
661,200.0
690,0.0
716,85.44000000000004
843,-15.840564282350897
844,-15.840564282350897
907,0.0
908,0.0
971,0.0
972,0.0
1195,0.0
1197,0.0
2,1,12,22, 0,20, 0.00,60.00,Monday
7,2.2
718,19.3156136233679
719,3.9077278916315086
720,17.397114125506224
619,1924.0300082930437
633,594.7060020533011
659,6.882635785292058
661,129.96276801966644
690,60.437847545929074
716,85.44000000000004
843,433.1354612298237
844,433.1354612298237
907,0.0
908,0.0
971,0.0
972,0.0
1195,0.0
1197,0.0
2,1,12,22, 0,21, 0.00,60.00,Monday
7,2.8
718,19.625869813886045
719,3.9089732903903123
720,17.350528345214475
619,1235.8591932872525
633,389.5539681209323
659,2.7368043581638015
661,155.24185831947094
690,38.64294284440547
716,36.7259316849011
843,490.9257933609533
844,490.9257933609533
907,0.0
908,0.0
971,0.0
972,0.0
1195,0.0
1197,0.0
2,1,12,22, 0,22, 0.00,60.00,Monday
7,2.8
718,19.81201539965563
719,3.846408230006317
720,17.276462527773994
619,793.4900714309113
633,254.24154619878456
659,1.7771090414110564
661,170.96513687328465
690,25.067862675464333
716,0.0
843,601.295759201761
844,601.295759201761
907,0.0
908,0.0
971,0.0
972,0.0
1195,0.0
1197,0.0
2,1,12,22, 0,23, 0.00,60.00,Monday
7,3.3
718,18.55984496878473
719,3.9275807586131988
720,17.1982480729539
619,166.88698397705295
633,53.9175685395257
659,0.002515455958852131
661,193.95535754565336
690,5.221809240670019
716,0.0
843,106.3512565778401
844,106.3512565778401
907,0.0
908,0.0
971,0.0
972,0.0
1195,0.0
1197,0.0
2,1,12,22, 0,24, 0.00,60.00,Monday
7,3.3
718,18.72755549678233
719,4.1341654672858885
720,17.109317615849182
619,896.710863217726
633,277.19069869159273
659,2.754377472864431
661,167.70011829192566
690,27.883218230488605
716,0.0
843,694.1315527729057
844,694.1315527729057
907,0.0
908,0.0
971,0.0
972,0.0
1195,0.0
1197,0.0
2,2,12,23, 0, 1, 0.00,60.00,Tuesday
7,3.3
718,18.596701383956585
719,4.29536996973275
720,17.028059484306848
619,1170.3728262421075
633,361.3224490275896
659,6.347467463047854
661,157.5676426872673
690,36.60995273567013
716,0.0
843,902.5289296340561
844,902.5289296340561
907,0.0
908,0.0
971,0.0
972,0.0
1195,0.0
1197,0.0
2,2,12,23, 0, 2, 0.00,60.00,Tuesday
7,4.4
718,18.363281352729544
719,5.259781858764995
720,16.935049775083733
619,1630.663472367938
633,488.82177914026437
659,19.973816422954624
661,141.15584693565125
690,50.72877499667217
716,0.0
843,1243.9074377744182
844,1243.9074377744182
907,0.0
908,0.0
971,0.0
972,0.0
1195,0.0
1197,0.0
2,2,12,23, 0, 3, 0.00,60.00,Tuesday
7,5.0
718,18.778273187301497
719,5.793781945776469
720,16.8485987253825
619,2031.4321836147078
633,595.3834567871021
659,21.90768563611311
661,128.83386038047044
690,61.38974211317696
716,0.0
843,1591.0814344991886
844,1591.0814344991886
907,0.0
908,0.0
971,0.0
972,0.0
1195,0.0
1197,0.0
2,2,12,23, 0, 4, 0.00,60.00,Tuesday
7,6.1
718,18.417160547668885
719,6.705066249490294
720,16.772430511745018
619,2074.9792982353724
633,557.0188725369175
659,0.0
661,140.88291809617647
690,51.06988434218581
716,0.0
843,1630.5882389758463
844,1630.5882389758463
907,0.0
908,0.0
971,0.0
972,0.0
1195,0.0
1197,0.0
2,2,12,23, 0, 5, 0.00,60.00,Tuesday
7,5.6
718,18.45200712235972
719,6.850724536580995
720,16.681399401825804
619,2414.097864182645
633,643.6258255592014
659,0.0
661,130.85413699306753
690,59.73351716259648
716,0.0
843,1926.6367971162053
844,1926.6367971162053
907,0.0
908,0.0
971,0.0
972,0.0
1195,0.0
1197,0.0
2,2,12,23, 0, 6, 0.00,60.00,Tuesday
7,5.6
718,19.514480994608835
719,7.070157463447714
720,16.605486543280033
619,3713.628068167817
633,970.7495947362878
659,0.0
661,95.75622224707332
690,90.05379666566668
716,0.0
843,2960.3526870199767
844,2960.3526870199767
907,0.0
908,0.0
971,0.0
972,0.0
1195,0.0
1197,0.0
2,2,12,23, 0, 7, 0.00,60.00,Tuesday
7,5.0
718,19.672514849328216
719,7.251117473680389
720,16.572813677537354
619,4594.99027989102
633,1311.2685300430614
659,113.45026022105279
661,35.54814088832583
690,141.57053820008665
716,85.44000000000004
843,2537.6422413319942
844,2537.6422413319942
907,0.0
908,0.0
971,0.0
972,0.0
1195,0.0
1197,0.0
2,2,12,23, 0, 8, 0.00,60.00,Tuesday
7,5.6
718,19.678488232557303
719,7.413205862085297
720,16.494452868769173
619,4421.975626491955
633,1175.6679694436054
659,0.0
661,76.60419617355552
690,106.59879051506405
716,85.44000000000004
843,2392.086156957692
844,2392.086156957692
907,0.0
908,0.0
971,0.0
972,0.0
1195,0.0
1197,0.0
2,2,12,23, 0, 9, 0.00,60.00,Tuesday
7,5.0
718,19.644986773273807
719,7.324942440726852
720,16.44129065801271
619,4488.001592195857
633,1287.2649179239738
659,121.74549437918301
661,37.26345281846078
690,140.0464041862261
716,74.27231308107541
843,2508.3311733963055
844,2508.3311733963055
907,0.0
908,0.0
971,0.0
972,0.0
1195,0.0
1197,0.0
2,2,12,23, 0,10, 0.00,60.00,Tuesday
7,5.6
718,19.80745621233401
719,7.198055415128362
720,16.357622754450173
619,2920.3251879463646
633,794.2726741873996
659,0.0
661,116.59447177504472
690,72.052113243294
716,0.0
843,2305.7582382566234
844,2305.7582382566234
907,0.0
908,0.0
971,0.0
972,0.0
1195,0.0
1197,0.0
2,2,12,23, 0,11, 0.00,60.00,Tuesday
7,4.0
718,19.975372684939387
719,6.774973660012031
720,16.307458554186358
619,2443.386523373165
633,744.9022372726358
659,88.03160141244618
661,102.31315382974616
690,83.79489030455066
716,0.0
843,1881.595580451536
844,1881.595580451536
907,0.0
908,0.0
971,0.0
972,0.0
1195,0.0
1197,0.0
2,2,12,23, 0,12, 0.00,60.00,Tuesday
7,3.3
718,19.838544270508017
719,7.041063988658261
720,16.244365690742118
619,2006.701120821718
633,627.8231495930904
659,68.75376000853386
661,118.33171397019528
690,69.98247017051231
716,0.0
843,1522.774478753976
844,1522.774478753976
907,0.0
908,0.0
971,0.0
972,0.0
1195,0.0
1197,0.0
2,2,12,23, 0,13, 0.00,60.00,Tuesday
7,3.0
718,19.513711927798898
719,5.803926189783721
720,16.18336048960407
619,2075.724896194963
633,649.6802446593678
659,72.14846112092305
661,114.91563190269875
690,72.85487615291515
716,0.0
843,1589.9689145096017
844,1589.9689145096017
907,0.0
908,0.0
971,0.0
972,0.0
1195,0.0
1197,0.0
2,2,12,23, 0,14, 0.00,60.00,Tuesday
7,4.4
718,20.06802722842108
719,9.917439251825039
720,16.126030636989125
619,1506.4600801855247
633,462.36225363975734
659,47.190129893332156
661,140.5127878592805
690,51.11895361136386
716,0.0
843,1140.0549318878475
844,1140.0549318878475
907,0.0
908,0.0
971,0.0
972,0.0
1195,0.0
1197,0.0
2,2,12,23, 0,15, 0.00,60.00,Tuesday
7,3.0
718,19.664426280961706
719,7.901857762751869
720,16.081583673659942
619,1278.6656985516631
633,409.808558154573
659,45.30572230001486
661,146.5711576768381
690,45.74887675399882
716,0.0
843,1007.839983410171
844,1007.839983410171
907,0.0
908,0.0
971,0.0
972,0.0
1195,0.0
1197,0.0
2,2,12,23, 0,16, 0.00,60.00,Tuesday
7,4.0
718,19.796588129905416
719,7.76762397062721
720,16.039581701513264
619,1442.6409150070708
633,448.12127973503567
659,53.11036841218377
661,141.06452335430328
690,50.554560216244305
716,0.0
843,1112.5298930463196
844,1112.5298930463196
907,0.0
908,0.0
971,0.0
972,0.0
1195,0.0
1197,0.0
2,2,12,23, 0,17, 0.00,60.00,Tuesday
7,3.0
718,19.69550545469363
719,6.3699340240189395
720,15.996367921706298
619,1291.324556168476
633,411.00568611003365
659,45.68274988298351
661,146.12653067920368
690,46.130120959056484
716,0.0
843,998.7033068218534
844,998.7033068218534
907,0.0
908,0.0
971,0.0
972,0.0
1195,0.0
1197,0.0
2,2,12,23, 0,18, 0.00,60.00,Tuesday
7,2.0
718,19.661941060704688
719,6.054722528646134
720,15.963891810072626
619,2297.5436868157203
633,725.6375478634675
659,75.92581372303887
661,104.73061849566298
690,81.44607715176312
716,66.07829402316254
843,878.5926328256755
844,878.5926328256755
907,0.0
908,0.0
971,0.0
972,0.0
1195,0.0
1197,0.0
2,2,12,23, 0,19, 0.00,60.00,Tuesday
7,0.6
718,19.727163785601764
719,3.062889461938326
720,15.900857705821867
619,1209.5829913450139
633,401.6519858084825
659,36.29763015831851
661,147.61523625994343
690,44.72714775337456
716,0.0
843,912.0207327818553
844,912.0207327818553
907,0.0
908,0.0
971,0.0
972,0.0
1195,0.0
1197,0.0
2,2,12,23, 0,20, 0.00,60.00,Tuesday
7,-1.1
718,19.579258897789305
719,1.820820942373652
720,15.868555336720416
619,2907.355732175225
633,958.6410378277353
659,82.81505514589206
661,74.05563161681302
690,107.23258700390616
716,85.44000000000004
843,913.7094605324583
844,913.7094605324583
907,0.0
908,0.0
971,0.0
972,0.0
1195,0.0
1197,0.0
2,2,12,23, 0,21, 0.00,60.00,Tuesday
7,-1.1
718,19.634580426315495
719,0.42597474025502857
720,15.810185984423335
619,3207.850330168587
633,1045.848660893544
659,82.75770965815619
661,63.49338081740774
690,116.37225851557662
716,85.44000000000004
843,1119.0292252594372
844,1119.0292252594372
907,0.0
908,0.0
971,0.0
972,0.0
1195,0.0
1197,0.0
2,2,12,23, 0,22, 0.00,60.00,Tuesday
7,-2.2
718,19.68717785188543
719,-0.3667635783640737
720,15.74326093478662
619,2649.386143640285
633,895.1317773876169
659,70.43399779490598
661,82.35547289820329
690,100.09266929397354
716,28.74476760201554
843,1491.6591221908293
844,1491.6591221908293
907,0.0
908,0.0
971,0.0
972,0.0
1195,0.0
1197,0.0
2,2,12,23, 0,23, 0.00,60.00,Tuesday
7,-2.2
718,18.86564492866776
719,-1.3746688401069769
720,15.667951796669684
619,1268.9722391613193
633,443.93233639103295
659,31.799805307949644
661,142.23980666265982
690,49.20841134175644
716,0.0
843,865.0104005340891
844,865.0104005340891
907,0.0
908,0.0
971,0.0
972,0.0
1195,0.0
1197,0.0
2,2,12,23, 0,24, 0.00,60.00,Tuesday
7,-2.2
718,18.633610264301872
719,-1.5854312411989182
720,15.581620527980482
619,1799.3487624497752
633,608.5974183725335
659,44.309805095495356
661,119.51057639107403
690,68.57660108009081
716,0.0
843,1248.0192194035662
844,1248.0192194035662
907,0.0
908,0.0
971,0.0
972,0.0
1195,0.0
1197,0.0
2,3,12,24, 0, 1, 0.00,60.00,Wednesday
7,-2.8
718,18.55737036962521
719,-1.704401142411719
720,15.493419204765274
619,2555.5122656577773
633,853.0227445289448
659,59.145963060717555
661,86.65926775017535
690,96.54091223042919
716,0.0
843,1769.587980282704
844,1769.587980282704
907,0.0
908,0.0
971,0.0
972,0.0
1195,0.0
1197,0.0
2,3,12,24, 0, 2, 0.00,60.00,Wednesday
7,-3.9
718,18.533171994550692
719,-2.1822279525284585
720,15.397526937123244
619,3242.013411997538
633,1084.897519134045
659,76.69589968931498
661,54.15313697103461
690,123.96163615563822
716,0.0
843,2223.846458767015
844,2223.846458767015
907,0.0
908,0.0
971,0.0
972,0.0
1195,0.0
1197,0.0
2,3,12,24, 0, 3, 0.00,60.00,Wednesday
7,-3.9
718,18.56829649631214
719,-2.7632379062972063
720,15.309045902234265
619,3707.498638352045
633,1223.7519394799558
659,67.64176216021555
661,38.52707703474727
690,137.72884091418962
716,0.0
843,2532.9250163493725
844,2532.9250163493725
907,0.0
908,0.0
971,0.0
972,0.0
1195,0.0
1197,0.0
2,3,12,24, 0, 4, 0.00,60.00,Wednesday
7,-3.9
718,18.583407240205922
719,-3.0299684656647754
720,15.220045140070038
619,4018.71742978361
633,1318.449007945008
659,83.12192353765573
661,24.417864540525635
690,149.49606216936445
716,0.0
843,2708.468454011272
844,2708.468454011272
907,0.0
908,0.0
971,0.0
972,0.0
1195,0.0
1197,0.0
2,3,12,24, 0, 5, 0.00,60.00,Wednesday
7,-2.2
718,18.625690212985127
719,-2.52709971272424
720,15.142827817896801
619,3841.5439097215067
633,1227.4871367160142
659,90.04215341170708
661,36.61073549822238
690,139.2078011851735
716,0.0
843,2596.5327577415355
844,2596.5327577415355
907,0.0
908,0.0
971,0.0
972,0.0
1195,0.0
1197,0.0
2,3,12,24, 0, 6, 0.00,60.00,Wednesday
7,-1.7
718,19.22512397079513
719,-1.0967023018132418
720,15.062971431026659
619,4920.723437811269
633,1503.0420943235163
659,115.15409675968748
661,0.0
690,172.77538977742657
716,68.57989235800022
843,3527.4014941596542
844,3527.4014941596542
907,0.0
908,0.0
971,0.0
972,0.0
1195,1146.2707163735595
1197,1146.2707163735595
2,3,12,24, 0, 7, 0.00,60.00,Wednesday
7,-1.1
718,19.515353334839183
719,-0.3561172783515573
720,15.013964003420197
619,4959.739221240959
633,1520.0353332912582
659,121.26167254178691
661,0.0
690,172.77538977742657
716,85.44000000000004
843,3368.2739804948233
844,3368.2739804948233
907,0.0
908,0.0
971,0.0
972,0.0
1195,1253.3226799200756
1197,1253.3226799200756
2,3,12,24, 0, 8, 0.00,60.00,Wednesday
7,-1.7
718,19.63687327807199
719,-0.3136568988834427
720,14.939694434464492
619,4898.317401079512
633,1529.3517877669653
659,115.19435200872637
661,0.0
690,172.77538977742657
716,54.617709002007885
843,3108.82815872058
844,3108.82815872058
907,0.0
908,0.0
971,0.0
972,0.0
1195,537.2980217758209
1197,537.2980217758209
2,3,12,24, 0, 9, 0.00,60.00,Wednesday
7,0.6
718,19.721375924906503
719,1.515396493915228
720,14.88034968028697
619,4520.481835465468
633,1387.9825657405886
659,113.8683664966865
661,20.569200522336708
690,153.3703236307662
716,0.0
843,3130.6200523249136
844,3130.6200523249136
907,0.0
908,0.0
971,0.0
972,0.0
1195,0.0
1197,0.0
2,3,12,24, 0,10, 0.00,60.00,Wednesday
7,2.8
718,19.774667643391364
719,3.7384252151446744
720,14.804300080346453
619,3624.011262518828
633,1095.3634903235925
659,89.84943102704979
661,61.12573231833882
690,119.1521002820618
716,0.0
843,2592.4531663974267
844,2592.4531663974267
907,0.0
908,0.0
971,0.0
972,0.0
1195,0.0
1197,0.0
2,3,12,24, 0,11, 0.00,60.00,Wednesday
7,2.8
718,19.800194219318946
719,5.707195699191166
720,14.730527487888486
619,2859.4390711410115
633,879.5988301895928
659,72.1507219954542
661,88.58928430569138
690,95.5878937088389
716,0.0
843,2100.7230674050443
844,2100.7230674050443
907,0.0
908,0.0
971,0.0
972,0.0
1195,0.0
1197,0.0
2,3,12,24, 0,12, 0.00,60.00,Wednesday
7,3.3
718,19.728119991468578
719,6.604871804466396
720,14.676140833453278
619,2526.5044554288256
633,776.5899652879024
659,65.74358533444618
661,101.7502594759435
690,84.3489301454444
716,0.0
843,1900.6597402909156
844,1900.6597402909156
907,0.0
908,0.0
971,0.0
972,0.0
1195,0.0
1197,0.0
2,3,12,24, 0,13, 0.00,60.00,Wednesday
7,4.4
718,19.803080223413527
719,8.094100207806529
720,14.626681511927222
619,2115.2676246914334
633,642.9396478378951
659,48.014292404316144
661,120.39061459164606
690,68.50644428613867
716,0.0
843,1617.1408650061367
844,1617.1408650061367
907,0.0
908,0.0
971,0.0
972,0.0
1195,0.0
1197,0.0
2,3,12,24, 0,14, 0.00,60.00,Wednesday
7,4.4
718,19.53196205305902
719,7.234447856939259
720,14.59354253747659
619,1974.2623510739008
633,602.8610061960167
659,45.01240783376398
661,125.44755016390693
690,64.15441134092507
716,0.0
843,1529.5729538543
844,1529.5729538543
907,0.0
908,0.0
971,0.0
972,0.0
1195,0.0
1197,0.0
2,3,12,24, 0,15, 0.00,60.00,Wednesday
7,5.6
718,19.701710743047364
719,8.088741270291925
720,14.584917228189955
619,3244.403551492157
633,873.7516162355926
659,0.0
661,107.88816431235672
690,79.57329157023418
716,66.48428112544629
843,1712.414334903955
844,1712.414334903955
907,0.0
908,0.0
971,0.0
972,0.0
1195,0.0
1197,0.0
2,3,12,24, 0,16, 0.00,60.00,Wednesday
7,5.6
718,19.808862720889778
719,8.032141012351353
720,14.566143104366445
619,3047.2306430784283
633,826.458767611802
659,0.0
661,113.15618353425903
690,75.02237119813847
716,74.38454153818556
843,1468.8720312454734
844,1468.8720312454734
907,0.0
908,0.0
971,0.0
972,0.0
1195,0.0
1197,0.0
2,3,12,24, 0,17, 0.00,60.00,Wednesday
7,5.6
718,19.746488898563722
719,6.848526073086617
720,14.517725637844459
619,1602.0311149862866
633,445.75499896403477
659,0.0
661,153.2619309886052
690,40.375940454439984
716,0.0
843,1265.4012654330163
844,1265.4012654330163
907,0.0
908,0.0
971,0.0
972,0.0
1195,0.0
1197,0.0
2,3,12,24, 0,18, 0.00,60.00,Wednesday
7,7.2
718,19.777036579113183
719,6.780336587069147
720,14.4977892768819
619,1236.6917088522193
633,337.90055490537355
659,0.0
661,165.12403245135644
690,30.12854443540886
716,0.0
843,972.9291744988077
844,972.9291744988077
907,0.0
908,0.0
971,0.0
972,0.0
1195,0.0
1197,0.0
2,3,12,24, 0,19, 0.00,60.00,Wednesday
7,7.2
718,19.408481076887647
719,7.529461386901779
720,14.473202930852873
619,975.6980363742566
633,267.84797509447304
659,0.0
661,172.36912932281493
690,23.869672255701584
716,0.0
843,751.6867365026083
844,751.6867365026083
907,0.0
908,0.0
971,0.0
972,0.0
1195,0.0
1197,0.0
2,3,12,24, 0,20, 0.00,60.00,Wednesday
7,7.8
718,19.563996889507994
719,8.396131261525584
720,14.49927916758824
619,2723.3653067177015
633,716.1026017909978
659,0.0
661,126.1021260675296
690,63.83866986202852
716,85.44000000000004
843,972.191384509164
844,972.191384509164
907,0.0
908,0.0
971,0.0
972,0.0
1195,0.0
1197,0.0
2,3,12,24, 0,21, 0.00,60.00,Wednesday
7,8.9
718,19.732956679156313
719,9.24490961798509
720,14.477905418853087
619,2580.8967113145245
633,673.4268642915705
659,0.0
661,131.58008530107824
690,59.10638715322241
716,84.91939323168185
843,905.5029422586649
844,905.5029422586649
907,0.0
908,0.0
971,0.0
972,0.0
1195,0.0
1197,0.0
2,3,12,24, 0,22, 0.00,60.00,Wednesday
7,8.3
718,20.011822662590266
719,8.838134844033982
720,14.42334524610182
619,1000.6804586225351
633,270.36137892971
659,0.0
661,172.42882422699245
690,23.81810320401661
716,0.0
843,800.7500628994385
844,800.7500628994385
907,0.0
908,0.0
971,0.0
972,0.0
1195,0.0
1197,0.0
2,3,12,24, 0,23, 0.00,60.00,Wednesday
7,7.8
718,18.89472782147423
719,8.290926184652085
720,14.38409830993133
619,0.0
633,0.0
659,0.0
661,200.0
690,0.0
716,0.0
843,-187.57060062089113
844,-187.57060062089113
907,0.0
908,0.0
971,0.0
972,0.0
1195,0.0
1197,0.0
2,3,12,24, 0,24, 0.00,60.00,Wednesday
7,9.4
718,18.6375356260229
719,9.087794482428318
720,14.375584944884652
619,243.40616399877038
633,64.41249145992084
659,0.0
661,193.41800484169715
690,5.6860338949445355
716,0.0
843,184.25024405955537
844,184.25024405955537
907,0.0
908,0.0
971,0.0
972,0.0
1195,0.0
1197,0.0
2,4,12,25, 0, 1, 0.00,60.00,Thursday
7,8.9
718,18.486910791686576
719,9.219900271284232
720,14.364306143340674
619,658.2468046771411
633,173.17482857769605
659,0.0
661,182.11358929837945
690,15.451657903458118
716,0.0
843,534.1261471461039
844,534.1261471461039
907,0.0
908,0.0
971,0.0
972,0.0
1195,0.0
1197,0.0
2,4,12,25, 0, 2, 0.00,60.00,Thursday
7,8.3
718,18.72952975141258
719,8.999408530702826
720,14.352327135018855
619,1053.461306747721
633,276.6068589698419
659,0.0
661,171.14597578055702
690,24.926326405807824
716,0.0
843,847.9918045573413
844,847.9918045573413
907,0.0
908,0.0
971,0.0
972,0.0
1195,0.0
1197,0.0
2,4,12,25, 0, 3, 0.00,60.00,Thursday
7,7.8
718,18.355667330344428
719,8.839467447054217
720,14.335564091943338
619,1168.5383966928227
633,309.8524697425401
659,0.0
661,167.62891892042154
690,27.964630755204226
716,0.0
843,943.8129727829364
844,943.8129727829364
907,0.0
908,0.0
971,0.0
972,0.0
1195,0.0
1197,0.0
2,4,12,25, 0, 4, 0.00,60.00,Thursday
7,6.0
718,18.796424934545843
719,8.073542013327687
720,14.321517459223507
619,1610.1075508023584
633,430.63277088049955
659,0.0
661,153.78255245518758
690,39.926187570363645
716,0.0
843,1296.5973989018876
844,1296.5973989018876
907,0.0
908,0.0
971,0.0
972,0.0
1195,0.0
1197,0.0
2,4,12,25, 0, 5, 0.00,60.00,Thursday
7,4.4
718,18.659992417027034
719,6.950752823713728
720,14.312112146212284
619,1437.5927436690672
633,433.62712622089884
659,53.422689281805845
661,141.93043062417868
690,49.85236774432328
716,0.0
843,1127.0073184092907
844,1127.0073184092907
907,0.0
908,0.0
971,0.0
972,0.0
1195,0.0
1197,0.0
2,4,12,25, 0, 6, 0.00,60.00,Thursday
7,3.9
718,19.413398733589116
719,6.834740542416346
720,14.314115160363787
619,2524.3840848716377
633,747.2063257039796
659,89.52966911441564
661,99.6972903471954
690,86.02883551050846
716,0.0
843,1949.0228519525353
844,1949.0228519525353
907,0.0
908,0.0
971,0.0
972,0.0
1195,0.0
1197,0.0
2,4,12,25, 0, 7, 0.00,60.00,Thursday
7,4.0
718,19.540101577846897
719,7.04507838678635
720,14.357651632190136
619,4006.0250715461675
633,1166.6923569714143
659,139.2370452551762
661,45.49153255412628
690,132.5381364958215
716,85.44000000000004
843,1916.1682558208086
844,1916.1682558208086
907,0.0
908,0.0
971,0.0
972,0.0
1195,0.0
1197,0.0
2,4,12,25, 0, 8, 0.00,60.00,Thursday
7,3.9
718,19.65115799614011
719,6.859581258826516
720,14.327294390401107
619,3847.530934277048
633,1129.6559894254542
659,133.0032051385508
661,50.89203493996095
690,127.88580977737469
716,85.44000000000004
843,1779.0299820761375
844,1779.0299820761375
907,0.0
908,0.0
971,0.0
972,0.0
1195,0.0
1197,0.0
2,4,12,25, 0, 9, 0.00,60.00,Thursday
7,3.9
718,19.732045503295844
719,6.652614337873212
720,14.287545278148501
619,3063.851571575016
633,917.3460180417462
659,107.71168025925833
661,79.19437098127875
690,103.61165149956517
716,49.840375322331525
843,1681.8039533040828
844,1681.8039533040828
907,0.0
908,0.0
971,0.0
972,0.0
1195,0.0
1197,0.0
2,4,12,25, 0,10, 0.00,60.00,Thursday
7,4.4
718,19.772040423730036
719,6.780990750889775
720,14.23216190255874
619,2003.8066786533195
633,610.0651181562604
659,73.67465535480522
661,119.7683890083674
690,68.87748332744752
716,0.0
843,1518.7795135567703
844,1518.7795135567703
907,0.0
908,0.0
971,0.0
972,0.0
1195,0.0
1197,0.0
2,4,12,25, 0,11, 0.00,60.00,Thursday
7,4.4
718,19.735600527672524
719,7.678521097124125
720,14.206235585089086
619,1813.0799707701588
633,554.8323444936602
659,66.9479804730884
661,127.08753383634183
690,62.59409147793014
716,0.0
843,1377.1327828616159
844,1377.1327828616159
907,0.0
908,0.0
971,0.0
972,0.0
1195,0.0
1197,0.0
2,4,12,25, 0,12, 0.00,60.00,Thursday
7,5.0
718,19.743124629771742
719,8.733546559087094
720,14.172738209060595
619,1563.7106614814386
633,475.86534324824987
659,54.3336050336954
661,138.25672235280732
690,53.09258397848364
716,0.0
843,1193.9892725176105
844,1193.9892725176105
907,0.0
908,0.0
971,0.0
972,0.0
1195,0.0
1197,0.0
2,4,12,25, 0,13, 0.00,60.00,Thursday
7,5.6
718,19.69396003835627
719,9.325706275394511
720,14.135189822084117
619,1394.1362778692032
633,388.44402975119317
659,0.0
661,159.20590230355566
690,35.241080650607934
716,0.0
843,1108.8697598438757
844,1108.8697598438757
907,0.0
908,0.0
971,0.0
972,0.0
1195,0.0
1197,0.0
2,4,12,25, 0,14, 0.00,60.00,Thursday
7,6.0
718,19.81557039220252
719,10.73015107623727
720,14.120227049022839
619,1257.1935079494228
633,348.62592048683103
659,0.0
661,163.504450049155
690,31.527664339493935
716,0.0
843,997.5891539085278
844,997.5891539085278
907,0.0
908,0.0
971,0.0
972,0.0
1195,0.0
1197,0.0
2,4,12,25, 0,15, 0.00,60.00,Thursday
7,6.0
718,19.756004258824692
719,11.579395023257405
720,14.107848181229604
619,1084.7328117399786
633,302.48713453768323
659,0.0
661,168.40726694280258
690,27.292233840457357
716,0.0
843,876.2729844628666
844,876.2729844628666
907,0.0
908,0.0
971,0.0
972,0.0
1195,0.0
1197,0.0
2,4,12,25, 0,16, 0.00,60.00,Thursday
7,4.4
718,19.529123691850838
719,9.633465222272468
720,14.116571931302124