Program Version,EnergyPlus, Version 22.2.0-c249759bad, YMD=2023.09.01 14:32
1,5,Environment Title[],Latitude[deg],Longitude[deg],Time Zone[],Elevation[m]
2,8,Day of Simulation[],Month[],Day of Month[],DST Indicator[1=yes 0=no],Hour[],StartMinute[],EndMinute[],DayType
3,5,Cumulative Day of Simulation[],Month[],Day of Month[],DST Indicator[1=yes 0=no],DayType  ! When Daily Report Variables Requested
4,2,Cumulative Days of Simulation[],Month[]  ! When Monthly Report Variables Requested
5,1,Cumulative Days of Simulation[] ! When Run Period Report Variables Requested
6,1,Calendar Year of Simulation[] ! When Annual Report Variables Requested
7,1,Environment,Site Outdoor Air Drybulb Temperature [C] !Hourly
545,1,LIVING,Zone Mean Air Temperature [C] !Hourly
546,1,ATTIC,Zone Mean Air Temperature [C] !Hourly
547,1,CRAWLSPACE,Zone Mean Air Temperature [C] !Hourly
548,1,FAN,Fan Electricity Rate [W] !Hourly
720,1,LIVING,Zone Predicted Sensible Load to Heating Setpoint Heat Transfer Rate [W] !Hourly
721,1,LIVING,Zone System Predicted Sensible Load to Heating Setpoint Heat Transfer Rate [W] !Hourly
784,1,ATTIC,Zone Predicted Sensible Load to Heating Setpoint Heat Transfer Rate [W] !Hourly
785,1,ATTIC,Zone System Predicted Sensible Load to Heating Setpoint Heat Transfer Rate [W] !Hourly
848,1,CRAWLSPACE,Zone Predicted Sensible Load to Heating Setpoint Heat Transfer Rate [W] !Hourly
849,1,CRAWLSPACE,Zone System Predicted Sensible Load to Heating Setpoint Heat Transfer Rate [W] !Hourly
1121,1,DX_HEATING_COIL,Heating Coil Heating Rate [W] !Hourly
1135,1,DX_HEATING_COIL,Heating Coil Electricity Rate [W] !Hourly
1161,1,DX_HEATING_COIL,Heating Coil Defrost Electricity Rate [W] !Hourly
1163,1,DX_HEATING_COIL,Heating Coil Crankcase Heater Electricity Rate [W] !Hourly
1166,1,HEATING_RESISTANCE_BACKUP,Heating Coil Heating Rate [W] !Hourly
1168,1,HEATING_RESISTANCE_BACKUP,Heating Coil Electricity Rate [W] !Hourly
End of Data Dictionary
1,EXTREME_WINTER,  38.38, -81.59,  -5.00, 277.40
2,1, 1,15, 0, 1, 0.00,60.00,Monday
7,-1.7
545,18.526000990946045
546,-2.3328006303526916
547,18.454051844085555
548,83.06515298107423
720,1633.1228943578626
721,1633.1228943578626
784,0.0
785,0.0
848,0.0
849,0.0
1121,2371.3803902373334
1135,766.479357685808
1161,25.972281941484773
1163,88.18014509926027
1166,0.0
1168,0.0
2,1, 1,15, 0, 2, 0.00,60.00,Monday
7,-1.7
545,18.512144136256726
546,-0.847424866759318
547,18.064967281405686
548,99.91362814690747
720,2006.8265123862948
721,2006.8265123862948
784,0.0
785,0.0
848,0.0
849,0.0
1121,2888.691267184299
1135,924.5675079659788
1161,31.240492517139813
1163,65.49863627059813
1166,0.0
1168,0.0
2,1, 1,15, 0, 3, 0.00,60.00,Monday
7,-1.7
545,18.503912166164167
546,0.011134291439882045
547,17.84580192610265
548,114.12442911658675
720,2322.2174118496496
721,2322.2174118496496
784,0.0
785,0.0
848,0.0
849,0.0
1121,3315.9956347996376
1135,1049.2385335318295
1161,40.83444648565507
1163,46.22946052864465
1166,0.0
1168,0.0
2,1, 1,15, 0, 4, 0.00,60.00,Monday
7,-2.2
545,18.519556405436447
546,0.10740175520941854
547,17.615563880541107
548,129.72265278478145
720,2660.8810884798822
721,2660.8810884798822
784,0.0
785,0.0
848,0.0
849,0.0
1121,3775.273723666281
1135,1190.308989120459
1161,44.139461897105875
1163,25.193989188833687
1166,0.0
1168,0.0
2,1, 1,15, 0, 5, 0.00,60.00,Monday
7,-2.2
545,18.56875064251225
546,0.26656928058772644
547,17.4287219547083
548,133.39505199742752
720,2719.251391748354
721,2719.251391748354
784,0.0
785,0.0
848,0.0
849,0.0
1121,3893.801182846767
1135,1224.0964400789828
1161,45.38903946285119
1163,20.24527300429433
1166,0.0
1168,0.0
2,1, 1,15, 0, 6, 0.00,60.00,Monday
7,-4.0
545,19.23984346876168
546,-0.3944648930881056
547,17.224322161893156
548,149.46521509767214
720,4608.470082477852
721,4608.470082477852
784,0.0
785,0.0
848,0.0
849,0.0
1121,4195.590526945861
1135,1341.4579086625956
1161,51.19840245229494
1163,0.0
1166,1979.13251623232
1168,1979.13251623232
2,1, 1,15, 0, 7, 0.00,60.00,Monday
7,-3.9
545,19.57416601807327
546,0.6966125338222977
547,17.102444852611015
548,149.46521509767214
720,3735.2987816416007
721,3735.2987816416007
784,0.0
785,0.0
848,0.0
849,0.0
1121,4335.478925719607
1135,1406.4811937980473
1161,17.459281761622698
1163,0.0
1166,972.0729950301293
1168,972.0729950301293
2,1, 1,15, 0, 8, 0.00,60.00,Monday
7,-3.9
545,19.681464119576134
546,0.33342858422694266
547,16.952767908556623
548,149.46521509767214
720,3476.5084234394817
721,3476.5084234394817
784,0.0
785,0.0
848,0.0
849,0.0
1121,4327.765578320164
1135,1415.5502701138284
1161,17.459281761622698
1163,0.0
1166,655.5881364796019
1168,655.5881364796019
2,1, 1,15, 0, 9, 0.00,60.00,Monday
7,-4.0
545,19.7143685906793
546,0.28441907459911203
547,16.81030531684498
548,149.46521509767214
720,3077.195008710709
721,3077.195008710709
784,0.0
785,0.0
848,0.0
849,0.0
1121,4265.133712970557
1135,1401.3628705546876
1161,28.838572113361973
1163,0.0
1166,271.7643252472567
1168,271.7643252472567
2,1, 1,15, 0,10, 0.00,60.00,Monday
7,-3.9
545,19.776763817235903
546,0.9837657826085698
547,16.677583593661602
548,132.9590470440775
720,2448.946443481331
721,2448.946443481331
784,0.0
785,0.0
848,0.0
849,0.0
1121,3754.5865274350417
1135,1254.3456081217653
1161,25.91523989750958
1163,21.209024102350792
1166,0.0
1168,0.0
2,1, 1,15, 0,11, 0.00,60.00,Monday
7,-3.9
545,19.76417352642649
546,1.3601056615394653
547,16.55853512639876
548,130.15419944676668
720,2440.185352677281
721,2440.185352677281
784,0.0
785,0.0
848,0.0
849,0.0
1121,3665.822054335438
1135,1229.2353059460015
1161,25.368581178486636
1163,24.980459220976247
1166,0.0
1168,0.0
2,1, 1,15, 0,12, 0.00,60.00,Monday
7,-2.2
545,19.81073839232778
546,2.3111608656655895
547,16.459249608495703
548,99.32670141456136
720,1942.0555777879072
721,1942.0555777879072
784,0.0
785,0.0
848,0.0
849,0.0
1121,2932.98977620825
1135,970.7597243870636
1161,2.6266009652877997
1163,67.0201073984416
1166,0.0
1168,0.0
2,1, 1,15, 0,13, 0.00,60.00,Monday
7,-1.7
545,19.864280944296073
546,4.2351008587922525
547,16.36853513336604
548,74.14801091459599
720,1447.7590949468722
721,1447.7590949468722
784,0.0
785,0.0
848,0.0
849,0.0
1121,2184.209389266468
1135,730.8057384062841
1161,0.035718862845438445
1163,100.78135924308282
1166,0.0
1168,0.0
2,1, 1,15, 0,14, 0.00,60.00,Monday
7,-1.7
545,19.838543204509804
546,4.824970199066571
547,16.297398945308224
548,51.23482320214584
720,990.8441717681653
721,990.8441717681653
784,0.0
785,0.0
848,0.0
849,0.0
1121,1482.3759336692144
1135,505.51595411078586
1161,0.0246810346626417
1163,131.4418624607922
1166,0.0
1168,0.0
2,1, 1,15, 0,15, 0.00,60.00,Monday
7,-0.6
545,20.069440348382543
546,6.58066607986862
547,16.248511536532856
548,30.71911703001899
720,601.3363487682163
721,601.3363487682163
784,0.0
785,0.0
848,0.0
849,0.0
1121,902.1549754225525
1135,305.83526605874357
1161,0.014798110443426505
1163,158.89431278031225
1166,0.0
1168,0.0
2,1, 1,15, 0,16, 0.00,60.00,Monday
7,0.0
545,19.733687106181772
546,5.00651876524706
547,16.208190160294155
548,0.0
720,-63.9447979453671
721,-63.9447979453671
784,0.0
785,0.0
848,0.0
849,0.0
1121,0.0
1135,0.0
1161,0.0
1163,200.0
1166,0.0
1168,0.0
2,1, 1,15, 0,17, 0.00,60.00,Monday
7,0.0
545,20.011647894494633
546,3.9445252057752547
547,16.192593070014
548,0.0
720,-259.91006438964723
721,-259.91006438964723
784,0.0
785,0.0
848,0.0
849,0.0
1121,0.0
1135,0.0
1161,0.0
1163,200.0
1166,0.0
1168,0.0
2,1, 1,15, 0,18, 0.00,60.00,Monday
7,-0.6
545,19.78413468473301
546,3.0870515273977914
547,16.18631972573069
548,6.02482005451587
720,64.85070626745255
721,64.85070626745255
784,0.0
785,0.0
848,0.0
849,0.0
1121,173.55218719745466
1135,60.188374780522246
1161,0.002902295436620179
1163,191.93810257783076
1166,0.0
1168,0.0
2,1, 1,15, 0,19, 0.00,60.00,Monday
7,-1.1
545,19.67545671964933
546,1.0230594107671456
547,16.166309479719935
548,15.188349240939768
720,314.626994206812
721,314.626994206812
784,0.0
785,0.0
848,0.0
849,0.0
1121,434.9962332259885
1135,150.3970324340799
1161,0.007316584130291372
1163,179.67624177924105
1166,0.0
1168,0.0
2,1, 1,15, 0,20, 0.00,60.00,Monday
7,-1.1
545,19.698871843757562
546,-0.1635148952936057
547,16.129852187912086
548,23.48246385773567
720,491.61456766171614
721,491.61456766171614
784,0.0
785,0.0
848,0.0
849,0.0
1121,677.1058423033342
1135,232.01560798198713
1161,0.011312053658048032
1163,168.5777625962644
1166,0.0
1168,0.0
2,1, 1,15, 0,21, 0.00,60.00,Monday
7,-2.2
545,19.62407424010403
546,-1.6411879032925447
547,16.076759500574422
548,32.220276253317095
720,629.96312436874
721,629.96312436874
784,0.0
785,0.0
848,0.0
849,0.0
1121,893.7306813297903
1135,311.5101210584949
1161,3.307793564369742
1163,156.79640322572456
1166,0.0
1168,0.0
2,1, 1,15, 0,22, 0.00,60.00,Monday
7,-3.3
545,19.500369009029896
546,-2.787211549006812
547,16.007841278128275
548,51.5720986439922
720,963.178843242189
721,963.178843242189
784,0.0
785,0.0
848,0.0
849,0.0
1121,1386.764545839104
1135,487.01835879723967
1161,10.740455732962426
1163,130.6522854670923
1166,0.0
1168,0.0
2,1, 1,15, 0,23, 0.00,60.00,Monday
7,-3.3
545,18.78040572147075
546,-3.9688530279118237
547,15.926785694037289
548,42.984395972747386
720,731.8094309148655
721,731.8094309148655
784,0.0
785,0.0
848,0.0
849,0.0
1121,1149.0304597578468
1135,404.9258799456991
1161,8.951943059866881
1163,142.20014427085536
1166,0.0
1168,0.0
2,1, 1,15, 0,24, 0.00,60.00,Monday
7,-5.0
545,18.397504887024272
546,-4.370761075060455
547,15.818519299078252
548,74.11735608125825
720,1280.621281197682
721,1280.621281197682
784,0.0
785,0.0
848,0.0
849,0.0
1121,1906.7673914637783
1135,669.4741251443663
1161,24.557993668416643
1163,99.87012100608584
1166,0.0
1168,0.0
2,2, 1,16, 0, 1, 0.00,60.00,Tuesday
7,-5.6
545,18.32110243804448
546,-4.451200029632384
547,15.700739931548686
548,114.50434432232659
720,2020.6143410538225
721,2020.6143410538225
784,0.0
785,0.0
848,0.0
849,0.0
1121,3005.4652552374905
1135,1024.0998270773464
1161,35.67764050366638
1163,45.31070714521037
1166,0.0
1168,0.0
2,2, 1,16, 0, 2, 0.00,60.00,Tuesday
7,-6.1
545,18.340195882911466
546,-4.349202100113199
547,15.582959132881887
548,149.46521509767214
720,2643.5969032718003
721,2643.5969032718003
784,0.0
785,0.0
848,0.0
849,0.0
1121,3992.0608766366763
1135,1321.268401431757
1161,42.292966778248534
1163,0.0
1166,23.866030883454187
1168,23.866030883454187
2,2, 1,16, 0, 3, 0.00,60.00,Tuesday
7,-6.7
545,18.494906632615336
546,-4.502249872254785
547,15.471758869836991
548,149.46521509767214
720,3123.7786420840457
721,3123.7786420840457
784,0.0
785,0.0
848,0.0
849,0.0
1121,3881.4052134301314
1135,1301.274776288087
1161,52.68942252645552
1163,0.0
1166,841.2394022117369
1168,841.2394022117369
2,2, 1,16, 0, 4, 0.00,60.00,Tuesday
7,-7.2
545,18.558480184102972
546,-4.648763893223176
547,15.36404071419831
548,149.46521509767214
720,3390.928234889716
721,3390.928234889716
784,0.0
785,0.0
848,0.0
849,0.0
1121,3857.795865422208
1135,1311.9372671404997
1161,43.25171028276249
1163,0.0
1166,1227.6205517720155
1168,1227.6205517720155
2,2, 1,16, 0, 5, 0.00,60.00,Tuesday
7,-7.2
545,18.585133833524193
546,-4.83431579660635
547,15.25494270980315
548,149.46521509767214
720,3408.518353884825
721,3408.518353884825
784,0.0
785,0.0
848,0.0
849,0.0
1121,3856.513146905545
1135,1313.4038396365631
1161,43.25171028276249
1163,0.0
1166,1276.7776563344337
1168,1276.7776563344337
2,2, 1,16, 0, 6, 0.00,60.00,Tuesday
7,-7.8
545,19.33738628361495
546,-4.7684321020278455
547,15.13986534223641
548,149.46521509767214
720,4536.723180663259
721,4536.723180663259
784,0.0
785,0.0
848,0.0
849,0.0
1121,3772.9710566963013
1135,1302.1047413930528
1161,47.171623723367375
1163,0.0
1166,2677.244959678296
1168,2677.244959678296
2,2, 1,16, 0, 7, 0.00,60.00,Tuesday
7,-7.8
545,19.59114314172085
546,-4.831892427549852
547,15.066565939329845
548,149.46521509767214
720,4351.48571080677
721,4351.48571080677
784,0.0
785,0.0
848,0.0
849,0.0
1121,3756.5142039133393
1135,1320.8678840293073
1161,47.158397681901995
1163,0.0
1166,2563.18324750191
1168,2563.18324750191
2,2, 1,16, 0, 8, 0.00,60.00,Tuesday
7,-7.8
545,19.672467118941004
546,-4.904367405409609
547,14.965008743296888
548,149.46521509767214
720,4086.8020120581114
721,4086.8020120581114
784,0.0
785,0.0
848,0.0
849,0.0
1121,3750.947016960687
1135,1327.1843519376298
1161,47.158397681901995
1163,0.0
1166,2292.1137286499943
1168,2292.1137286499943
2,2, 1,16, 0, 9, 0.00,60.00,Tuesday
7,-6.7
545,19.70741727844553
546,-3.695915066788038
547,14.874494600260201
548,149.46521509767214
720,3535.7490153779636
721,3535.7490153779636
784,0.0
785,0.0
848,0.0
849,0.0
1121,3875.1793455852935
1135,1342.1457996821832
1161,46.90203293176274
1163,0.0
1166,1542.5977428060269
1168,1542.5977428060269
2,2, 1,16, 0,10, 0.00,60.00,Tuesday
7,-5.0
545,19.741056456854015
546,0.9502984956217706
547,14.79329474622521
548,149.46521509767214
720,2492.1001207198824
721,2492.1001207198824
784,0.0
785,0.0
848,0.0
849,0.0
1121,4063.802246219672
1135,1359.721291880825
1161,48.93815918965215
1163,0.0
1166,87.54805453202243
1168,87.54805453202243
2,2, 1,16, 0,11, 0.00,60.00,Tuesday
7,-5.0
545,19.9133948378246
546,6.008517412168844
547,14.697768815551187
548,113.77419224774872
720,1808.8126197461443
721,1808.8126197461443
784,0.0
785,0.0
848,0.0
849,0.0
1121,3006.7267854658426
1135,1045.78100290475
1161,37.61104647828479
1163,46.29153568065733
1166,0.0
1168,0.0
2,2, 1,16, 0,12, 0.00,60.00,Tuesday
7,0.6
545,20.13265593187561
546,8.751102046088711
547,14.627431694762143
548,47.03655606076212
720,883.6551864811117
721,883.6551864811117
784,0.0
785,0.0
848,0.0
849,0.0
1121,1441.771210129603
1135,472.1028174740052
1161,0.7763651768468436
1163,137.04665866870684
1166,0.0
1168,0.0
2,2, 1,16, 0,13, 0.00,60.00,Tuesday
7,1.7
545,19.96944999834197
546,15.228955144671158
547,14.571052438927975
548,7.12967088947523
720,65.3089660220885
721,65.3089660220885
784,0.0
785,0.0
848,0.0
849,0.0
1121,218.70403270122773
1135,72.74002056123527
1161,0.0034345188423019345
1163,190.45971052713014
1166,0.0
1168,0.0
2,2, 1,16, 0,14, 0.00,60.00,Tuesday
7,1.7
545,20.15425101028055
546,18.386411067337068
547,14.568569266679402
548,0.0
720,-356.7568863216238
721,-356.7568863216238
784,0.0
785,0.0
848,0.0
849,0.0
1121,0.0
1135,0.0
1161,0.0
1163,200.0
1166,0.0
1168,0.0
2,2, 1,16, 0,15, 0.00,60.00,Tuesday
7,2.2
545,20.67139092279486
546,19.359807972011247
547,14.590765749334262
548,0.0
720,-727.2315589028676
721,-727.2315589028676
784,0.0
785,0.0
848,0.0
849,0.0
1121,0.0
1135,0.0
1161,0.0
1163,200.0
1166,0.0
1168,0.0
2,2, 1,16, 0,16, 0.00,60.00,Tuesday
7,2.2
545,20.990833121924744
546,15.599066143304144
547,14.628607035658181
548,0.0
720,-984.3136262375974
721,-984.3136262375974
784,0.0
785,0.0
848,0.0
849,0.0
1121,0.0
1135,0.0
1161,0.0
1163,200.0
1166,0.0
1168,0.0
2,2, 1,16, 0,17, 0.00,60.00,Tuesday
7,2.2
545,21.134457271139876
546,12.436186198484199
547,14.675164523377108
548,0.0
720,-1108.458198513792
721,-1108.458198513792
784,0.0
785,0.0
848,0.0
849,0.0
1121,0.0
1135,0.0
1161,0.0
1163,200.0
1166,0.0
1168,0.0
2,2, 1,16, 0,18, 0.00,60.00,Tuesday
7,1.1
545,20.49160843250198
546,7.382332333098434
547,14.720845845968931
548,0.0
720,-592.1618108709608
721,-592.1618108709608
784,0.0
785,0.0
848,0.0
849,0.0
1121,0.0
1135,0.0
1161,0.0
1163,200.0
1166,0.0
1168,0.0
2,2, 1,16, 0,19, 0.00,60.00,Tuesday
7,1.1
545,20.47397479832037
546,5.213814044424416
547,14.757248826977875
548,0.0
720,-594.4914692005368
721,-594.4914692005368
784,0.0
785,0.0
848,0.0
849,0.0
1121,0.0
1135,0.0
1161,0.0
1163,200.0
1166,0.0
1168,0.0
2,2, 1,16, 0,20, 0.00,60.00,Tuesday
7,1.1
545,20.31964306903316
546,2.704944955311683
547,14.765920664475894
548,0.0
720,-434.81560521338906
721,-434.81560521338906
784,0.0
785,0.0
848,0.0
849,0.0
1121,0.0
1135,0.0
1161,0.0
1163,200.0
1166,0.0
1168,0.0
2,2, 1,16, 0,21, 0.00,60.00,Tuesday
7,0.6
545,19.981130075803875
546,1.4402247684180758
547,14.75513532103218
548,0.0
720,-184.04363278643723
721,-184.04363278643723
784,0.0
785,0.0
848,0.0
849,0.0
1121,0.0
1135,0.0
1161,0.0
1163,200.0
1166,0.0
1168,0.0
2,2, 1,16, 0,22, 0.00,60.00,Tuesday
7,0.0
545,19.72866008294518
546,0.3275739957514373
547,14.740232669781301
548,10.449262727126124
720,188.761638088974
721,188.761638088974
784,0.0
785,0.0
848,0.0
849,0.0
1121,296.22194670608184
1135,101.35616889261499
1161,2.607059094606304
1163,185.96582577646558
1166,0.0
1168,0.0
2,2, 1,16, 0,23, 0.00,60.00,Tuesday
7,0.0
545,18.782556331169918
546,-0.546567821374066
547,14.6901977862103
548,0.0
720,-81.71530672877998
721,-81.71530672877998
784,0.0
785,0.0
848,0.0
849,0.0
1121,0.0
1135,0.0
1161,0.0
1163,200.0
1166,0.0
1168,0.0
2,2, 1,16, 0,24, 0.00,60.00,Tuesday
7,0.0
545,18.552723820564573
546,-0.528529439722259
547,14.655963527905246
548,21.707203719892185
720,450.49385510810316
721,450.49385510810316
784,0.0
785,0.0
848,0.0
849,0.0
1121,624.2492487013551
1135,205.63074363397337
1161,5.422974184284422
1163,170.8460276670078
1166,0.0
1168,0.0
2,3, 1,17, 0, 1, 0.00,60.00,Wednesday
7,0.0
545,18.500280361365043
546,-0.4768363579205639
547,14.60362625792986
548,37.426519151344756
720,782.769316500915
721,782.769316500915
784,0.0
785,0.0
848,0.0
849,0.0
1121,1079.2458356748846
1135,349.65677588845045
1161,11.953177866140928
1163,149.68060091912415
1166,0.0
1168,0.0
2,3, 1,17, 0, 2, 0.00,60.00,Wednesday
7,0.0
545,18.481927922774585
546,0.14211874618005987
547,14.552767961176928
548,60.641880905606556
720,1289.0655721436306
721,1289.0655721436306
784,0.0
785,0.0
848,0.0
849,0.0
1121,1780.6538665176688
1135,565.8659618930475
1161,19.367608257703157
1163,118.46800741399241
1166,0.0
1168,0.0
2,3, 1,17, 0, 3, 0.00,60.00,Wednesday
7,0.0
545,18.475674325130274
546,0.8038645398820351
547,14.498025898819561
548,80.11894367005046
720,1698.4743587078228
721,1698.4743587078228
784,0.0
785,0.0
848,0.0
849,0.0
1121,2370.7245548299543
1135,742.1021403795237
1161,29.70837952302794
1163,92.195103000475
1166,0.0
1168,0.0
2,3, 1,17, 0, 4, 0.00,60.00,Wednesday
7,0.0
545,18.544548255365978
546,1.2574158903711699
547,14.438381662474939
548,92.96907092066056
720,1936.9477761768703
721,1936.9477761768703
784,0.0
785,0.0
848,0.0
849,0.0
1121,2730.683395946941
1135,847.349331801739
1161,45.414295024008744
1163,74.66989284801701
1166,0.0
1168,0.0
2,3, 1,17, 0, 5, 0.00,60.00,Wednesday
7,0.0
545,18.57561053694255
546,1.25058662558406
547,14.37712805076068
548,96.80761555780344
720,2005.9111984207066
721,2005.9111984207066
784,0.0
785,0.0
848,0.0
849,0.0
1121,2851.2516549384027
1135,883.4523600882391
1161,47.2894888615236
1163,69.49490896987402
1166,0.0
1168,0.0
2,3, 1,17, 0, 6, 0.00,60.00,Wednesday
7,1.7
545,19.365186025864105
546,1.9755999790727445
547,14.338202833674746
548,117.43459560136283
720,2834.7965948888796
721,2834.7965948888796
784,0.0
785,0.0
848,0.0
849,0.0
1121,3895.3633619917573
1135,1145.7490331188958
1161,11.961539916296362
1163,42.69058455930856
1166,0.0
1168,0.0
2,3, 1,17, 0, 7, 0.00,60.00,Wednesday
7,2.8
545,19.638114129974074
546,3.0886093467438482
547,14.304597964622157
548,108.5183369292913
720,2646.372589970242
721,2646.372589970242
784,0.0
785,0.0
848,0.0
849,0.0
1121,3719.3242862058014
1135,1100.958579228775
1161,0.05227560326370916
1163,54.79060957184232
1166,0.0
1168,0.0
2,3, 1,17, 0, 8, 0.00,60.00,Wednesday
7,2.8
545,19.73482700794081
546,3.7528709802747144
547,14.244828849799687
548,98.42639192814323
720,2369.056786568688
721,2369.056786568688
784,0.0
785,0.0
848,0.0
849,0.0
1121,3342.1550337836143
1135,1003.8743712104788
1161,0.04741409780655599
1163,68.2947338654485
1166,0.0
1168,0.0
2,3, 1,17, 0, 9, 0.00,60.00,Wednesday
7,1.0
545,19.697308357130442
546,3.7669531581135822
547,14.206545900005043
548,112.06877894780723
720,2377.788224869435
721,2377.788224869435
784,0.0
785,0.0
848,0.0
849,0.0
1121,3366.075572394661
1135,1041.3431837309518
1161,64.86052285759652
1163,48.90678270371352
1166,0.0
1168,0.0
2,3, 1,17, 0,10, 0.00,60.00,Wednesday
7,1.0
545,19.723980790329644
546,4.230401757784355
547,14.153159078946468
548,109.7697843544235
720,2265.6729137653
721,2265.6729137653
784,0.0
785,0.0
848,0.0
849,0.0
1121,3231.435226878909
1135,1002.1493391617405
1161,76.67169883631047
1163,51.75411413886866
1166,0.0
1168,0.0
2,3, 1,17, 0,11, 0.00,60.00,Wednesday
7,1.1
545,19.77151430410081
546,6.348445808165982
547,14.093833540535025
548,95.2964369644486
720,1918.8733161568598
721,1918.8733161568598
784,0.0
785,0.0
848,0.0
849,0.0
1121,2764.9013327205553
1135,866.7935665641468
1161,69.87529826074675
1163,71.25852293783046
1166,0.0
1168,0.0
2,3, 1,17, 0,12, 0.00,60.00,Wednesday
7,3.3
545,19.801765335039143
546,8.322296044154136
547,14.038879918829435
548,73.1750737588153
720,1585.8993597696826
721,1585.8993597696826
784,0.0
785,0.0
848,0.0
849,0.0
1121,2231.4172077283647
1135,683.4375804778638
1161,49.02475190222239
1163,101.56731206822789
1166,0.0
1168,0.0
2,3, 1,17, 0,13, 0.00,60.00,Wednesday
7,3.9
545,19.870130070500238
546,11.438810393055617
547,13.980574940708419
548,48.82434118482279
720,1088.466695785195
721,1088.466695785195
784,0.0
785,0.0
848,0.0
849,0.0
1121,1511.4834504258697
1135,466.7274082237342
1161,26.87662149011119
1163,134.43558873680618
1166,0.0
1168,0.0
2,3, 1,17, 0,14, 0.00,60.00,Wednesday
7,3.9
545,19.7606829502406
546,13.158531210278218
547,13.941102224009532
548,29.48739204243868
720,663.3335037064226
721,663.3335037064226
784,0.0
785,0.0
848,0.0
849,0.0
1121,899.2420205577345
1135,282.25954778718466
1161,16.232116143156
1163,160.40242115723586
1166,0.0
1168,0.0
2,3, 1,17, 0,15, 0.00,60.00,Wednesday
7,5.6
545,19.96442425066928
546,15.760573385147815
547,13.901613778697332
548,0.0
720,-107.83325754615907
721,-107.83325754615907
784,0.0
785,0.0
848,0.0
849,0.0
1121,0.0
1135,0.0
1161,0.0
1163,200.0
1166,0.0
1168,0.0
2,3, 1,17, 0,16, 0.00,60.00,Wednesday
7,6.1
545,20.994772334649717
546,16.736628202597075
547,13.932795539864538
548,0.0
720,-976.0945946106531
721,-976.0945946106531
784,0.0
785,0.0
848,0.0
849,0.0
1121,0.0
1135,0.0
1161,0.0
1163,200.0
1166,0.0
1168,0.0
2,3, 1,17, 0,17, 0.00,60.00,Wednesday
7,6.1
545,21.58487726430006
546,15.346218009689538
547,13.98291830245783
548,0.0
720,-1363.5258024237519
721,-1363.5258024237519
784,0.0
785,0.0
848,0.0
849,0.0
1121,0.0
1135,0.0
1161,0.0
1163,200.0
1166,0.0
1168,0.0
2,3, 1,17, 0,18, 0.00,60.00,Wednesday
7,5.6
545,21.08351499221296
546,12.270353329903813
547,14.046285611764436
548,0.0
720,-988.535108476779
721,-988.535108476779
784,0.0
785,0.0
848,0.0
849,0.0
1121,0.0
1135,0.0
1161,0.0
1163,200.0
1166,0.0
1168,0.0
2,3, 1,17, 0,19, 0.00,60.00,Wednesday
7,5.6
545,21.19233687566826
546,10.314168018463214
547,14.099935430102637
548,0.0
720,-966.2881961438634
721,-966.2881961438634
784,0.0
785,0.0
848,0.0
849,0.0
1121,0.0
1135,0.0
1161,0.0
1163,200.0
1166,0.0
1168,0.0
2,3, 1,17, 0,20, 0.00,60.00,Wednesday
7,5.6
545,21.22423838201827
546,8.326217419250808
547,14.136061861720542
548,0.0
720,-929.170017268938
721,-929.170017268938
784,0.0
785,0.0
848,0.0
849,0.0
1121,0.0
1135,0.0
1161,0.0
1163,200.0
1166,0.0
1168,0.0
2,3, 1,17, 0,21, 0.00,60.00,Wednesday
7,5.0
545,20.906207513423578
546,7.108915051166578
547,14.157447499645578
548,0.0
720,-716.5914833104252
721,-716.5914833104252
784,0.0
785,0.0
848,0.0
849,0.0
1121,0.0
1135,0.0
1161,0.0
1163,200.0
1166,0.0
1168,0.0
2,3, 1,17, 0,22, 0.00,60.00,Wednesday
7,5.6
545,20.563188715624285
546,6.706756566553385
547,14.165327152059113
548,0.0
720,-540.9495982884473
721,-540.9495982884473
784,0.0
785,0.0
848,0.0
849,0.0
1121,0.0
1135,0.0
1161,0.0
1163,200.0
1166,0.0
1168,0.0
2,3, 1,17, 0,23, 0.00,60.00,Wednesday
7,5.6
545,19.9668051973994
546,6.445522373793741
547,14.161457892354342
548,0.0
720,-856.0070292579676
721,-856.0070292579676
784,0.0
785,0.0
848,0.0
849,0.0
1121,0.0
1135,0.0
1161,0.0
1163,200.0
1166,0.0
1168,0.0
2,3, 1,17, 0,24, 0.00,60.00,Wednesday
7,6.1
545,19.356485887057946
546,6.304221284636509
547,14.146414947143208
548,0.0
720,-487.55432937485057
721,-487.55432937485057
784,0.0
785,0.0
848,0.0
849,0.0
1121,0.0
1135,0.0
1161,0.0
1163,200.0
1166,0.0
1168,0.0
2,4, 1,18, 0, 1, 0.00,60.00,Thursday
7,6.7
545,18.67968375445327
546,6.769605916627069
547,14.12671555304264
548,3.196872131792184
720,58.16426297759608
721,58.16426297759608
784,0.0
785,0.0
848,0.0
849,0.0
1121,127.64962533820224
1135,35.36501847102122
1161,0.0
1163,195.72225265965315
1166,0.0
1168,0.0
2,4, 1,18, 0, 2, 0.00,60.00,Thursday
7,6.7
545,18.59492345039305
546,6.984657578537629
547,14.107870966203608
548,13.270673671517391
720,427.2693657334694
721,427.2693657334694
784,0.0
785,0.0
848,0.0
849,0.0
1121,535.4114988566755
1135,144.97155276765088
1161,0.0
1163,182.24245867127638
1166,0.0
1168,0.0
2,4, 1,18, 0, 3, 0.00,60.00,Thursday
7,6.0
545,18.81610115278561
546,6.678415421936238
547,14.079621206872105
548,19.476395625109966
720,617.9806327320584
721,617.9806327320584
784,0.0
785,0.0
848,0.0
849,0.0
1121,775.9556267559336
1135,210.8141204869261
1161,0.0
1163,173.93855739292573
1166,0.0
1168,0.0
2,4, 1,18, 0, 4, 0.00,60.00,Thursday
7,6.1
545,18.524334431733067
546,6.65740151218225
547,14.04780113435602
548,23.83500041138644
720,751.5242632851932
721,751.5242632851932
784,0.0
785,0.0
848,0.0
849,0.0
1121,954.2166864304434
1135,259.316028297401
1161,0.0
1163,168.10629095765083
1166,0.0
1168,0.0
2,4, 1,18, 0, 5, 0.00,60.00,Thursday
7,6.1
545,18.58983529658175
546,6.671560718428866
547,14.01175361993927
548,29.258169095548254
720,928.9755014971397
721,928.9755014971397
784,0.0
785,0.0
848,0.0
849,0.0
1121,1177.595848238645
1135,316.5821366682504
1161,0.0
1163,160.84952732790876
1166,0.0
1168,0.0
2,4, 1,18, 0, 6, 0.00,60.00,Thursday
7,6.0
545,19.29226032984395
546,6.803283573459834
547,14.006428089608987
548,57.71795009216173
720,1894.7101694340927
721,1894.7101694340927
784,0.0
785,0.0
848,0.0
849,0.0
1121,2367.341670811569
1135,624.4910633793834
1161,0.0
1163,122.76738095289348
1166,0.0
1168,0.0
2,4, 1,18, 0, 7, 0.00,60.00,Thursday
7,3.0
545,19.51899058773201
546,5.78919326814716
547,14.019866629829714
548,93.77490096852516
720,2152.672057011734
721,2152.672057011734
784,0.0
785,0.0
848,0.0
849,0.0
1121,2826.5090954574202
1135,847.4355615789185
1161,76.13787186852119
1163,73.63240375369924
1166,0.0
1168,0.0
2,4, 1,18, 0, 8, 0.00,60.00,Thursday
7,2.8
545,19.596695681532186
546,5.08580996596856
547,13.990195061064606
548,97.77435862439455
720,2210.5087959560205
721,2210.5087959560205
784,0.0
785,0.0
848,0.0
849,0.0
1121,2987.86700522615
1135,900.245564327056
1161,68.99522627030991
1163,68.33416238202159
1166,0.0
1168,0.0
2,4, 1,18, 0, 9, 0.00,60.00,Thursday
7,2.8
545,19.687227310745534
546,5.036712983772184
547,13.953099059217688
548,95.1940711043264
720,2212.7070125718783
721,2212.7070125718783
784,0.0
785,0.0
848,0.0
849,0.0
1121,3027.8574135470094
1135,913.6372098273515
1161,40.91174296578115
1163,72.14537504561898
1166,0.0
1168,0.0
2,4, 1,18, 0,10, 0.00,60.00,Thursday
7,1.1
545,19.79528260147684
546,5.9425389980268655
547,13.883483987427697
548,75.97471195177891
720,1617.1397030902863
721,1617.1397030902863
784,0.0
785,0.0
848,0.0
849,0.0
1121,2297.1124361669827
1135,727.0283021429415
1161,27.666532794044922
1163,97.87743092844737
1166,0.0
1168,0.0
2,4, 1,18, 0,11, 0.00,60.00,Thursday
7,1.1
545,19.854976461164554
546,6.997378470540304
547,13.818309870934138
548,45.43832246642888
720,907.7444314573277
721,907.7444314573277
784,0.0
785,0.0
848,0.0
849,0.0
1121,1341.013535309448
1135,435.7712337379462
1161,16.546610036259253
1163,138.9232348373032
1166,0.0
1168,0.0
2,4, 1,18, 0,12, 0.00,60.00,Thursday
7,1.7
545,19.68038664327888
546,7.8369944721316305
547,13.773982086932152
548,20.627241295767128
720,409.0180000318105
721,409.0180000318105
784,0.0
785,0.0
848,0.0
849,0.0
1121,627.105504552245
1135,205.15711432164312
1161,2.942848589887475
1163,172.35636747019873
1166,0.0
1168,0.0
2,4, 1,18, 0,13, 0.00,60.00,Thursday
7,1.7
545,19.79930386253535
546,8.688812391043395
547,13.769317937587678
548,11.74963609203936
720,243.1879299249067
721,243.1879299249067
784,0.0
785,0.0
848,0.0
849,0.0
1121,357.26950969680206
1135,117.10899336673128
1161,1.1959693707830505
1163,184.26070797061422
1166,0.0
1168,0.0
2,4, 1,18, 0,14, 0.00,60.00,Thursday
7,1.7
545,19.92493653200155
546,9.252918307691163
547,13.772932426922003
548,0.0
720,-151.73381369051822
721,-151.73381369051822
784,0.0
785,0.0
848,0.0
849,0.0
1121,0.0
1135,0.0
1161,0.0
1163,200.0
1166,0.0
1168,0.0
2,4, 1,18, 0,15, 0.00,60.00,Thursday
7,2.2
545,20.882087488850587
546,10.901370938571215
547,13.808052144769361
548,0.0
720,-1005.5353863822711
721,-1005.5353863822711
784,0.0
785,0.0
848,0.0
849,0.0
1121,0.0
1135,0.0
1161,0.0
1163,200.0
1166,0.0
1168,0.0
2,4, 1,18, 0,16, 0.00,60.00,Thursday
7,2.8
545,21.57907713805511
546,10.715130312144643
547,13.847268130352042
548,0.0
720,-1486.158564573916
721,-1486.158564573916
784,0.0
785,0.0
848,0.0
849,0.0
1121,0.0
1135,0.0
1161,0.0
1163,200.0
1166,0.0
1168,0.0
2,4, 1,18, 0,17, 0.00,60.00,Thursday
7,2.8
545,22.08268926696973
546,9.051101109550867
547,13.912555545168175
548,0.0
720,-1899.078163295353
721,-1899.078163295353
784,0.0
785,0.0
848,0.0
849,0.0
1121,0.0
1135,0.0
1161,0.0
1163,200.0
1166,0.0
1168,0.0
2,4, 1,18, 0,18, 0.00,60.00,Thursday
7,1.1
545,21.23156189942018
546,6.514376383932045
547,13.983578736335412
548,0.0
720,-1217.5099371249544
721,-1217.5099371249544
784,0.0
785,0.0
848,0.0
849,0.0
1121,0.0
1135,0.0
1161,0.0
1163,200.0
1166,0.0
1168,0.0
2,4, 1,18, 0,19, 0.00,60.00,Thursday
7,0.0
545,20.90594745659041
546,3.9253727036031933
547,14.03372151258913
548,0.0
720,-969.5324770247516
721,-969.5324770247516
784,0.0
785,0.0
848,0.0
849,0.0
1121,0.0
1135,0.0
1161,0.0
1163,200.0
1166,0.0
1168,0.0
2,4, 1,18, 0,20, 0.00,60.00,Thursday
7,0.0
545,20.60676824721267
546,2.13217763156944
547,14.051615163837942
548,0.0
720,-703.8422067105057
721,-703.8422067105057
784,0.0
785,0.0
848,0.0
849,0.0
1121,0.0
1135,0.0
1161,0.0
1163,200.0
1166,0.0
1168,0.0
2,4, 1,18, 0,21, 0.00,60.00,Thursday
7,-0.6
545,20.28602201168277
546,0.9348341333590643
547,14.044063856322204
548,0.0
720,-434.16118888783785
721,-434.16118888783785
784,0.0
785,0.0
848,0.0
849,0.0
1121,0.0
1135,0.0
1161,0.0