Program Version,EnergyPlus, Version 22.2.0-c249759bad, YMD=2023.09.01 14:32
1,5,Environment Title[],Latitude[deg],Longitude[deg],Time Zone[],Elevation[m]
2,8,Day of Simulation[],Month[],Day of Month[],DST Indicator[1=yes 0=no],Hour[],StartMinute[],EndMinute[],DayType
3,5,Cumulative Day of Simulation[],Month[],Day of Month[],DST Indicator[1=yes 0=no],DayType  ! When Daily Report Variables Requested
4,2,Cumulative Days of Simulation[],Month[]  ! When Monthly Report Variables Requested
5,1,Cumulative Days of Simulation[] ! When Run Period Report Variables Requested
6,1,Calendar Year of Simulation[] ! When Annual Report Variables Requested
7,1,Environment,Site Outdoor Air Drybulb Temperature [C] !Hourly
545,1,LIVING,Zone Mean Air Temperature [C] !Hourly
546,1,ATTIC,Zone Mean Air Temperature [C] !Hourly
547,1,CRAWLSPACE,Zone Mean Air Temperature [C] !Hourly
548,1,FAN,Fan Electricity Rate [W] !Hourly
720,1,LIVING,Zone Predicted Sensible Load to Heating Setpoint Heat Transfer Rate [W] !Hourly
721,1,LIVING,Zone System Predicted Sensible Load to Heating Setpoint Heat Transfer Rate [W] !Hourly
784,1,ATTIC,Zone Predicted Sensible Load to Heating Setpoint Heat Transfer Rate [W] !Hourly
785,1,ATTIC,Zone System Predicted Sensible Load to Heating Setpoint Heat Transfer Rate [W] !Hourly
848,1,CRAWLSPACE,Zone Predicted Sensible Load to Heating Setpoint Heat Transfer Rate [W] !Hourly
849,1,CRAWLSPACE,Zone System Predicted Sensible Load to Heating Setpoint Heat Transfer Rate [W] !Hourly
1121,1,DX_HEATING_COIL,Heating Coil Heating Rate [W] !Hourly
1135,1,DX_HEATING_COIL,Heating Coil Electricity Rate [W] !Hourly
1161,1,DX_HEATING_COIL,Heating Coil Defrost Electricity Rate [W] !Hourly
1163,1,DX_HEATING_COIL,Heating Coil Crankcase Heater Electricity Rate [W] !Hourly
1166,1,HEATING_RESISTANCE_BACKUP,Heating Coil Heating Rate [W] !Hourly
1168,1,HEATING_RESISTANCE_BACKUP,Heating Coil Electricity Rate [W] !Hourly
End of Data Dictionary
1,EXTREME_WINTER,  43.58, -96.73,  -6.00, 435.30
2,1, 1,27, 0, 1, 0.00,60.00,Monday
7,-7.2
545,18.665965983858474
546,-7.663761641001109
547,17.22923244330738
548,169.1117494210965
720,3385.230575261414
721,3385.230575261414
784,0.0
785,0.0
848,0.0
849,0.0
1121,5242.289809271239
1135,1795.5935717298569
1161,30.213893476871643
1163,0.0
1166,219.99575501465688
1168,219.99575501465688
2,1, 1,27, 0, 2, 0.00,60.00,Monday
7,-8.3
545,18.63755727508674
546,-6.453541367766779
547,16.64104098285623
548,169.1117494210965
720,3797.201303571979
721,3797.201303571979
784,0.0
785,0.0
848,0.0
849,0.0
1121,5060.9923561264095
1135,1774.032056235289
1161,33.49044037266117
1163,0.0
1166,655.5921180440328
1168,655.5921180440328
2,1, 1,27, 0, 3, 0.00,60.00,Monday
7,-8.9
545,18.61526698786396
546,-5.893107518979294
547,16.401889853310955
548,169.1117494210965
720,4172.918638531337
721,4172.918638531337
784,0.0
785,0.0
848,0.0
849,0.0
1121,4980.365756591611
1135,1765.9649217197148
1161,31.156737254339273
1163,0.0
1166,1101.798290397629
1168,1101.798290397629
2,1, 1,27, 0, 4, 0.00,60.00,Monday
7,-7.8
545,18.601743385558546
546,-4.902994297481315
547,16.12490611524197
548,169.1117494210965
720,4597.798202831826
721,4597.798202831826
784,0.0
785,0.0
848,0.0
849,0.0
1121,5153.857565241911
1135,1783.3184970322732
1161,29.88028481741993
1163,0.0
1166,1393.8293537168574
1168,1393.8293537168574
2,1, 1,27, 0, 5, 0.00,60.00,Monday
7,-6.1
545,18.58959090308071
546,-3.657909169270216
547,15.899089498869298
548,169.1117494210965
720,5357.529030279617
721,5357.529030279617
784,0.0
785,0.0
848,0.0
849,0.0
1121,5367.236444227331
1135,1790.5439737431905
1161,43.15702093901535
1163,0.0
1166,2030.0973414477576
1168,2030.0973414477576
2,1, 1,27, 0, 6, 0.00,60.00,Monday
7,-7.2
545,19.33388671785979
546,-3.6577650678672327
547,15.67207466367779
548,169.1117494210965
720,6907.0237997248405
721,6907.0237997248405
784,0.0
785,0.0
848,0.0
849,0.0
1121,5247.224593335534
1135,1790.3020340873509
1161,30.152864377376233
1163,0.0
1166,3902.1373083574667
1168,3902.1373083574667
2,1, 1,27, 0, 7, 0.00,60.00,Monday
7,-7.2
545,19.585251599143994
546,-3.4710843597347085
547,15.512957652760468
548,169.1117494210965
720,6605.703373353783
721,6605.703373353783
784,0.0
785,0.0
848,0.0
849,0.0
1121,5224.896647022202
1135,1815.8208708661716
1161,30.152864377376233
1163,0.0
1166,3669.115954705587
1168,3669.115954705587
2,1, 1,27, 0, 8, 0.00,60.00,Monday
7,-9.0
545,19.66288129599025
546,-4.512972980866454
547,15.325037766568203
548,169.1117494210965
720,6407.585344873378
721,6407.585344873378
784,0.0
785,0.0
848,0.0
849,0.0
1121,4945.551993361786
1135,1797.136033689776
1161,29.183919711320996
1163,0.0
1166,3732.0432207253157
1168,3732.0432207253157
2,1, 1,27, 0, 9, 0.00,60.00,Monday
7,-10.6
545,19.676621548865505
546,-5.588934401177921
547,15.148197815202598
548,169.1117494210965
720,6432.426394317872
721,6432.426394317872
784,0.0
785,0.0
848,0.0
849,0.0
1121,4760.801297382862
1135,1794.3043217464478
1161,13.24910026754569
1163,0.0
1166,4011.161876151031
1168,4011.161876151031
2,1, 1,27, 0,10, 0.00,60.00,Monday
7,-12.0
545,19.655043407163085
546,-6.790728546003108
547,14.977097098685144
548,169.1117494210965
720,7358.808616206661
721,7358.808616206661
784,0.0
785,0.0
848,0.0
849,0.0
1121,4564.655529256493
1135,1774.4527072432782
1161,10.528969243578738
1163,0.0
1166,5353.858064748677
1168,5353.858064748677
2,1, 1,27, 0,11, 0.00,60.00,Monday
7,-13.0
545,19.678897696496872
546,-5.996809957418157
547,14.820979424232718
548,169.1117494210965
720,6540.525017040794
721,6540.525017040794
784,0.0
785,0.0
848,0.0
849,0.0
1121,4404.157024698263
1135,1749.2043409210492
1161,16.091051633365947
1163,0.0
1166,4684.685553260045
1168,4684.685553260045
2,1, 1,27, 0,12, 0.00,60.00,Monday
7,-13.3
545,19.70438420720656
546,-6.020197111272611
547,14.69167686510395
548,169.1117494210965
720,5701.497713376575
721,5701.497713376575
784,0.0
785,0.0
848,0.0
849,0.0
1121,4401.44977138478
1135,1760.5693160613725
1161,3.452855719580204
1163,0.0
1166,3677.202651732495
1168,3677.202651732495
2,1, 1,27, 0,13, 0.00,60.00,Monday
7,-13.3
545,19.705711777713212
546,-5.2489336728236
547,14.582922537788702
548,169.1117494210965
720,5354.919254635099
721,5354.919254635099
784,0.0
785,0.0
848,0.0
849,0.0
1121,4400.8811521044745
1135,1761.1599459030801
1161,3.452855719580204
1163,0.0
1166,3256.6266704064456
1168,3256.6266704064456
2,1, 1,27, 0,14, 0.00,60.00,Monday
7,-12.8
545,19.701118017625628
546,-5.1129096376971646
547,14.492905592946714
548,169.1117494210965
720,5403.15977443486
721,5403.15977443486
784,0.0
785,0.0
848,0.0
849,0.0
1121,4478.600348384125
1135,1772.1206980707536
1161,1.5616526454531228
1163,0.0
1166,3200.09589516331
1168,3200.09589516331
2,1, 1,27, 0,15, 0.00,60.00,Monday
7,-12.8
545,19.71937777249979
546,-5.346025804787276
547,14.428674774196885
548,169.1117494210965
720,4609.747706818325
721,4609.747706818325
784,0.0
785,0.0
848,0.0
849,0.0
1121,4466.759517073701
1135,1767.1305679295524
1161,5.293995751072696
1163,0.0
1166,2262.570300914752
1168,2262.570300914752
2,1, 1,27, 0,16, 0.00,60.00,Monday
7,-12.8
545,19.729400590121312
546,-5.033907722703957
547,14.370568980242533
548,169.1117494210965
720,3883.4954838211397
721,3883.4954838211397
784,0.0
785,0.0
848,0.0
849,0.0
1121,4466.294558909479
1135,1767.6254201290405
1161,5.292466875451442
1163,0.0
1166,1419.3785309469222
1168,1419.3785309469222
2,1, 1,27, 0,17, 0.00,60.00,Monday
7,-13.0
545,19.727642118915035
546,-6.317016614948757
547,14.323997815452715
548,169.1117494210965
720,3645.9121127980634
721,3645.9121127980634
784,0.0
785,0.0
848,0.0
849,0.0
1121,4426.256626725453
1135,1759.9833801937557
1161,8.771695635033359
1163,0.0
1166,1139.967181063013
1168,1139.967181063013
2,1, 1,27, 0,18, 0.00,60.00,Monday
7,-14.4
545,19.679244975336438
546,-7.623023799724231
547,14.261920433695247
548,169.1117494210965
720,4833.081702277566
721,4833.081702277566
784,0.0
785,0.0
848,0.0
849,0.0
1121,4226.550439696723
1135,1733.898882660127
1161,9.751074428833933
1163,0.0
1166,2765.940008036287
1168,2765.940008036287
2,1, 1,27, 0,19, 0.00,60.00,Monday
7,-14.4
545,19.669019105230834
546,-8.467055550069821
547,14.196068665009864
548,169.1117494210965
720,5060.142765981398
721,5060.142765981398
784,0.0
785,0.0
848,0.0
849,0.0
1121,4228.097260690956
1135,1732.3286945544191
1161,9.751074428833933
1163,0.0
1166,3122.869879684929
1168,3122.869879684929
2,1, 1,27, 0,20, 0.00,60.00,Monday
7,-16.1
545,19.698170969236568
546,-9.508677233438144
547,14.102541153262406
548,169.1117494210965
720,4337.231478371774
721,4337.231478371774
784,0.0
785,0.0
848,0.0
849,0.0
1121,3985.5813701953957
1135,1696.3922825703137
1161,13.513998565680364
1163,0.0
1166,2568.816199945951
1168,2568.816199945951
2,1, 1,27, 0,21, 0.00,60.00,Monday
7,-16.7
545,19.68472816363093
546,-10.224890462278355
547,13.989358718798103
548,169.1117494210965
720,4734.2831417940215
721,4734.2831417940215
784,0.0
785,0.0
848,0.0
849,0.0
1121,3917.990675761521
1135,1691.4585963024444
1161,8.95673081300453
1163,0.0
1166,3136.522378250068
1168,3136.522378250068
2,1, 1,27, 0,22, 0.00,60.00,Monday
7,-16.7
545,19.673951189948287
546,-10.662638709929233
547,13.864026261206345
548,169.1117494210965
720,5293.031289158089
721,5293.031289158089
784,0.0
785,0.0
848,0.0
849,0.0
1121,3935.735776476115
1135,1698.3012022974542
1161,2.915254689721648
1163,0.0
1166,3814.285667069382
1168,3814.285667069382
2,1, 1,27, 0,23, 0.00,60.00,Monday
7,-17.8
545,18.945542798194563
546,-11.293086364726305
547,13.722034917273877
548,169.1117494210965
720,4705.28788422558
721,4705.28788422558
784,0.0
785,0.0
848,0.0
849,0.0
1121,3793.913989265081
1135,1677.8497225529352
1161,1.943892808582828
1163,0.0
1166,3322.254281803738
1168,3322.254281803738
2,1, 1,27, 0,24, 0.00,60.00,Monday
7,-18.9
545,18.702698229262953
546,-11.104459975864636
547,13.545999909552355
548,169.1117494210965
720,4904.5270520752565
721,4904.5270520752565
784,0.0
785,0.0
848,0.0
849,0.0
1121,3675.680919904318
1135,1637.5597692912406
1161,1.1133873465936641
1163,0.0
1166,3631.4979387565954
1168,3631.4979387565954
2,2, 1,28, 0, 1, 0.00,60.00,Tuesday
7,-18.9
545,18.608170015192208
546,-11.468331212607394
547,13.392352765558174
548,169.1117494210965
720,5509.788224232172
721,5509.788224232172
784,0.0
785,0.0
848,0.0
849,0.0
1121,3682.9801039050835
1135,1630.8616314208184
1161,1.1133873465936641
1163,0.0
1166,4297.647845654054
1168,4297.647845654054
2,2, 1,28, 0, 2, 0.00,60.00,Tuesday
7,-20.0
545,18.568390925667103
546,-11.913615704627734
547,13.22505247996043
548,169.1117494210965
720,6112.700870927063
721,6112.700870927063
784,0.0
785,0.0
848,0.0
849,0.0
1121,3549.5947108987602
1135,1608.0476342082675
1161,0.0960196261843524
1163,0.0
1166,5147.902711468243
1168,5147.902711468243
2,2, 1,28, 0, 3, 0.00,60.00,Tuesday
7,-20.0
545,18.540608321598214
546,-13.054081684991193
547,13.064013092760765
548,169.1117494210965
720,7048.604461205228
721,7048.604461205228
784,0.0
785,0.0
848,0.0
849,0.0
1121,3545.3492672384295
1135,1604.2044820344438
1161,2.3148904830101396
1163,0.0
1166,6278.970828973055
1168,6278.970828973055
2,2, 1,28, 0, 4, 0.00,60.00,Tuesday
7,-21.1
545,18.555250897914345
546,-12.487913255064736
547,12.906581147482646
548,169.1117494210965
720,6602.34122942676
721,6602.34122942676
784,0.0
785,0.0
848,0.0
849,0.0
1121,3408.412242109231
1135,1580.4931047289751
1161,3.2445526860458758
1163,0.0
1166,5972.629849486613
1168,5972.629849486613
2,2, 1,28, 0, 5, 0.00,60.00,Tuesday
7,-21.7
545,18.56128251202767
546,-12.69756565162266
547,12.7481872243965
548,169.1117494210965
720,6577.318624004707
721,6577.318624004707
784,0.0
785,0.0
848,0.0
849,0.0
1121,3336.7822076841753
1135,1569.0626555240647
1161,2.7704551240921345
1163,0.0
1166,5990.497878750788
1168,5990.497878750788
2,2, 1,28, 0, 6, 0.00,60.00,Tuesday
7,-22.2
545,19.303616224705355
546,-12.168366803934997
547,12.59239319622917
548,169.1117494210965
720,7728.111772536693
721,7728.111772536693
784,0.0
785,0.0
848,0.0
849,0.0
1121,3282.790053075564
1135,1561.4820521909166
1161,0.34943962891114283
1163,0.0
1166,7372.872006844185
1168,7372.872006844185
2,2, 1,28, 0, 7, 0.00,60.00,Tuesday
7,-22.2
545,19.552798653797932
546,-12.585925871195379
547,12.47630515884166
548,169.1117494210965
720,7525.843838071953
721,7525.843838071953
784,0.0
785,0.0
848,0.0
849,0.0
1121,3261.896642172272
1135,1578.7006269191647
1161,0.34943962891114283
1163,0.0
1166,7222.966060784404
1168,7222.966060784404
2,2, 1,28, 0, 8, 0.00,60.00,Tuesday
7,-23.3
545,19.625164506061818
546,-12.842594135123827
547,12.32915738714073
548,169.1117494210965
720,7419.8951596633015
721,7419.8951596633015
784,0.0
785,0.0
848,0.0
849,0.0
1121,3122.7068174990845
1135,1558.7484109287211
1161,1.6842981867930396
1163,0.0
1166,7284.036848270704
1168,7284.036848270704
2,2, 1,28, 0, 9, 0.00,60.00,Tuesday
7,-22.2
545,19.650218401843777
546,-13.482511616427042
547,12.20611732211817
548,169.1117494210965
720,7298.833084786691
721,7298.833084786691
784,0.0
785,0.0
848,0.0
849,0.0
1121,3248.2448280324224
1135,1583.5421467593058
1161,2.4065490128699287
1163,0.0
1166,7046.638332279474
1168,7046.638332279474
2,2, 1,28, 0,10, 0.00,60.00,Tuesday
7,-20.0
545,19.693799095449002
546,-10.664498056392105
547,12.092538576119637
548,169.1117494210965
720,5736.0915817991445
721,5736.0915817991445
784,0.0
785,0.0
848,0.0
849,0.0
1121,3521.2026423646753
1135,1633.1381426124349
1161,0.0960196261843524
1163,0.0
1166,5017.042073846086
1168,5017.042073846086
2,2, 1,28, 0,11, 0.00,60.00,Tuesday
7,-17.8
545,19.734755555397694
546,-5.3943785346669255
547,11.998929377099177
548,169.1117494210965
720,4301.58670896906
721,4301.58670896906
784,0.0
785,0.0
848,0.0
849,0.0
1121,3801.024679729352
1135,1678.1664769548274
1161,0.0960196261843524
1163,0.0
1166,2930.704058404894
1168,2930.704058404894
2,2, 1,28, 0,12, 0.00,60.00,Tuesday
7,-15.0
545,19.743593430847223
546,-3.634864564750767
547,11.938932737711156
548,169.1117494210965
720,4237.221923424166
721,4237.221923424166
784,0.0
785,0.0
848,0.0
849,0.0
1121,4176.083665615412
1135,1731.9020696106
1161,0.0960196261843524
1163,0.0
1166,2180.5656723832262
1168,2180.5656723832262
2,2, 1,28, 0,13, 0.00,60.00,Tuesday
7,-15.0
545,19.722408719687962
546,-2.8793724313864253
547,11.874928663327596
548,169.1117494210965
720,4562.928109501681
721,4562.928109501681
784,0.0
785,0.0
848,0.0
849,0.0
1121,4175.913722743104
1135,1732.0724337548525
1161,0.0960196261843524
1163,0.0
1166,2426.624040948732
1168,2426.624040948732
2,2, 1,28, 0,14, 0.00,60.00,Tuesday
7,-13.3
545,19.698263318156492
546,-3.7003930663351916
547,11.828365119954032
548,169.1117494210965
720,5236.235973802171
721,5236.235973802171
784,0.0
785,0.0
848,0.0
849,0.0
1121,4415.271131522642
1135,1761.5580099314468
1161,0.0960196261843524
1163,0.0
1166,2931.559496133641
1168,2931.559496133641
2,2, 1,28, 0,15, 0.00,60.00,Tuesday
7,-12.8
545,19.72627968285336
546,-1.368379118925947
547,11.787590984180001
548,169.1117494210965
720,3871.2250111748963
721,3871.2250111748963
784,0.0
785,0.0
848,0.0
849,0.0
1121,4487.640236943047
1135,1769.4723801839898
1161,0.0960196261843524
1163,0.0
1166,1330.502203769981
1168,1330.502203769981
2,2, 1,28, 0,16, 0.00,60.00,Tuesday
7,-12.2
545,19.719072271063563
546,-2.4677692948276975
547,11.757977425010548
548,169.1117494210965
720,4302.37561535659
721,4302.37561535659
784,0.0
785,0.0
848,0.0
849,0.0
1121,4573.729411696596
1135,1780.5654832883552
1161,0.0960196261843524
1163,0.0
1166,1617.9405847306698
1168,1617.9405847306698
2,2, 1,28, 0,17, 0.00,60.00,Tuesday
7,-12.2
545,19.727522631945316
546,-2.4907686518883034
547,11.741101075152136
548,169.1117494210965
720,3510.122972011981
721,3510.122972011981
784,0.0
785,0.0
848,0.0
849,0.0
1121,4573.954554422973
1135,1780.326406382823
1161,0.0960196261843524
1163,0.0
1166,744.2152677249505
1168,744.2152677249505
2,2, 1,28, 0,18, 0.00,60.00,Tuesday
7,-11.7
545,19.720113617378786
546,-3.21294987783193
547,11.733748071085667
548,169.1117494210965
720,3580.217406986727
721,3580.217406986727
784,0.0
785,0.0
848,0.0
849,0.0
1121,4623.899486177938
1135,1780.3155366829806
1161,6.929857699831772
1163,0.0
1166,760.8362390538368
1168,760.8362390538368
2,2, 1,28, 0,19, 0.00,60.00,Tuesday
7,-11.7
545,19.70862622250658
546,-4.55722857220071
547,11.713158210899723
548,169.1117494210965
720,3829.5714833076963
721,3829.5714833076963
784,0.0
785,0.0
848,0.0
849,0.0
1121,4624.136190914621
1135,1780.0619306554672
1161,6.929857699831772
1163,0.0
1166,1080.0943565751022
1168,1080.0943565751022
2,2, 1,28, 0,20, 0.00,60.00,Tuesday
7,-11.7
545,19.703496740618068
546,-5.077375137973779
547,11.680405001693032
548,169.1117494210965
720,3882.7087252846122
721,3882.7087252846122
784,0.0
785,0.0
848,0.0
849,0.0
1121,4592.382466480068
1135,1767.2921671606998
1161,16.529351603656398
1163,0.0
1166,1245.9670584229198
1168,1245.9670584229198
2,2, 1,28, 0,21, 0.00,60.00,Tuesday
7,-11.1
545,19.721600487028844
546,-5.023975503244364
547,11.64453984563791
548,169.1117494210965
720,3217.1203402387946
721,3217.1203402387946
784,0.0
785,0.0
848,0.0
849,0.0
1121,4660.347684865458
1135,1769.63434626005
1161,22.307619062805273
1163,0.0
1166,443.8585719709399
1168,443.8585719709399
2,2, 1,28, 0,22, 0.00,60.00,Tuesday
7,-13.3
545,19.705431840900378
546,-6.046319364856247
547,11.574045622828372
548,169.1117494210965
720,3838.1930398683016
721,3838.1930398683016
784,0.0
785,0.0
848,0.0
849,0.0
1121,4337.184823855848
1135,1730.0249850565137
1161,24.734181236002296
1163,0.0
1166,1468.580403237229
1168,1468.580403237229
2,2, 1,28, 0,23, 0.00,60.00,Tuesday
7,-11.1
545,18.98485273849149
546,-6.354110885961479
547,11.536956128114017
548,169.1117494210965
720,2851.8346870316745
721,2851.8346870316745
784,0.0
785,0.0
848,0.0
849,0.0
1121,4641.154555428478
1135,1762.1737475028988
1161,27.96889014804303
1163,0.0
1166,95.37626047768163
1168,95.37626047768163
2,2, 1,28, 0,24, 0.00,60.00,Tuesday
7,-11.1
545,18.732923025478627
546,-6.140833215620804
547,11.436587390793672
548,169.1117494210965
720,3345.1777509060557
721,3345.1777509060557
784,0.0
785,0.0
848,0.0
849,0.0
1121,4662.687468941563
1135,1738.7304040195725
1161,27.985219220400737
1163,0.0
1166,588.5673525035586
1168,588.5673525035586
2,3, 1,29, 0, 1, 0.00,60.00,Wednesday
7,-11.1
545,18.640293031805385
546,-5.7436866248754495
547,11.363818254485679
548,169.1117494210965
720,3831.332222240968
721,3831.332222240968
784,0.0
785,0.0
848,0.0
849,0.0
1121,4670.313469882246
1135,1730.4333642944312
1161,27.985219220400737
1163,0.0
1166,1118.0706552945512
1168,1118.0706552945512
2,3, 1,29, 0, 2, 0.00,60.00,Wednesday
7,-8.9
545,18.61390539304693
546,-5.424533988854341
547,11.304042610411747
548,169.1117494210965
720,4018.4375786947967
721,4018.4375786947967
784,0.0
785,0.0
848,0.0
849,0.0
1121,4988.043688134112
1135,1757.137829373774
1161,31.195900297959728
1163,0.0
1166,1002.2603206803815
1168,1002.2603206803815
2,3, 1,29, 0, 3, 0.00,60.00,Wednesday
7,-7.8
545,18.609882148312135
546,-4.034331877268078
547,11.239724546936026
548,169.1117494210965
720,3978.041427893995
721,3978.041427893995
784,0.0
785,0.0
848,0.0
849,0.0
1121,5111.629855152996
1135,1757.396311105916
1161,43.023875509614015
1163,0.0
1166,817.8598009509988
1168,817.8598009509988
2,3, 1,29, 0, 4, 0.00,60.00,Wednesday
7,-7.2
545,18.611143427756442
546,-3.828732615780312
547,11.17602218135795
548,169.1117494210965
720,4073.9369839547962
721,4073.9369839547962
784,0.0
785,0.0
848,0.0
849,0.0
1121,5140.2092119830895
1135,1744.5291039733563
1161,59.47156344436099
1163,0.0
1166,831.7512539071049
1168,831.7512539071049
2,3, 1,29, 0, 5, 0.00,60.00,Wednesday
7,-7.0
545,18.61153897987843
546,-2.975553355298078
547,11.114907829481517
548,169.1117494210965
720,3925.3924453176096
721,3925.3924453176096
784,0.0
785,0.0
848,0.0
849,0.0
1121,5091.371383311985
1135,1720.6031750779566
1161,79.87277831454227
1163,0.0
1166,692.7425565357285
1168,692.7425565357285
2,3, 1,29, 0, 6, 0.00,60.00,Wednesday
7,-6.0
545,19.34887768506492
546,-2.244833302365777
547,11.064695208319593
548,169.1117494210965
720,4860.241535539904
721,4860.241535539904
784,0.0
785,0.0
848,0.0
849,0.0
1121,5276.951118155263
1135,1746.2606493175128
1161,71.40959150895868
1163,0.0
1166,1535.5594640644094
1168,1535.5594640644094
2,3, 1,29, 0, 7, 0.00,60.00,Wednesday
7,-6.7
545,19.600638125813024
546,-1.9566318354833931
547,11.040449104657833
548,169.1117494210965
720,4658.584303920854
721,4658.584303920854
784,0.0
785,0.0
848,0.0
849,0.0
1121,5206.006948693081
1135,1780.6439599568648
1161,56.63086710560866
1163,0.0
1166,1410.7770689984527
1168,1410.7770689984527
2,3, 1,29, 0, 8, 0.00,60.00,Wednesday
7,-6.0
545,19.676654281631787
546,-2.620332013988602
547,11.005797947050068
548,169.1117494210965
720,4716.841579548238
721,4716.841579548238
784,0.0
785,0.0
848,0.0
849,0.0
1121,5247.818304310973
1135,1779.9389423001066
1161,71.40959150895868
1163,0.0
1166,1442.540548652255
1168,1442.540548652255
2,3, 1,29, 0, 9, 0.00,60.00,Wednesday
7,-6.0
545,19.690157285648002
546,-2.7801843155690347
547,10.966397712225955
548,169.1117494210965
720,5084.122549852329
721,5084.122549852329
784,0.0
785,0.0
848,0.0
849,0.0
1121,5304.322235398408
1135,1802.3239270319384
1161,56.687433813473675
1163,0.0
1166,1855.6981253446916
1168,1855.6981253446916
2,3, 1,29, 0,10, 0.00,60.00,Wednesday
7,-7.8
545,19.691690902562794
546,-3.461705936808067
547,10.91650810392001
548,169.1117494210965
720,5390.934664779847
721,5390.934664779847
784,0.0
785,0.0
848,0.0
849,0.0
1121,5179.993777256999
1135,1828.3680189741272
1161,16.582832157743187
1163,0.0
1166,2377.220261213332
1168,2377.220261213332
2,3, 1,29, 0,11, 0.00,60.00,Wednesday
7,-8.9
545,19.696913068122797
546,-4.699073510905798
547,10.89295255138612
548,169.1117494210965
720,5272.368742226257
721,5272.368742226257
784,0.0
785,0.0
848,0.0
849,0.0
1121,5039.931707619989
1135,1821.3204765432733
1161,8.596247350415904
1163,0.0
1166,2423.6962947952907
1168,2423.6962947952907
2,3, 1,29, 0,12, 0.00,60.00,Wednesday
7,-9.0
545,19.726552401544204
546,-3.3702140237154925
547,10.89696157841944
548,169.1117494210965
720,3855.4540848441156
721,3855.4540848441156
784,0.0
785,0.0
848,0.0
849,0.0
1121,4986.90705447427
1135,1806.398412336428
1161,18.887209281970577
1163,0.0
1166,899.0869537679505
1168,899.0869537679505
2,3, 1,29, 0,13, 0.00,60.00,Wednesday
7,-10.0
545,19.68633678976922
546,-4.374181396411697
547,10.894367618030957
548,169.1117494210965
720,5507.674322614217
721,5507.674322614217
784,0.0
785,0.0
848,0.0
849,0.0
1121,4844.973064953779
1135,1794.538552265519
1161,16.22877879379051
1163,0.0
1166,2882.407782425076
1168,2882.407782425076
2,3, 1,29, 0,14, 0.00,60.00,Wednesday
7,-9.0
545,19.69235405347491
546,-2.8678842355445284
547,10.918370691599849
548,169.1117494210965
720,5049.535319324552
721,5049.535319324552
784,0.0
785,0.0
848,0.0
849,0.0
1121,4950.045001178734
1135,1792.1162460165247
1161,29.183919711320996
1163,0.0
1166,2350.5326981682065
1168,2350.5326981682065
2,3, 1,29, 0,15, 0.00,60.00,Wednesday
7,-10.0
545,19.753226033536638
546,-1.9593436273896767
547,10.939945866983544
548,169.1117494210965
720,3289.934753565223
721,3289.934753565223
784,0.0
785,0.0
848,0.0
849,0.0
1121,4879.479250698641
1135,1806.064199622088
1161,6.696604079211171
1163,0.0
1166,291.4160532149317
1168,291.4160532149317
2,3, 1,29, 0,16, 0.00,60.00,Wednesday
7,-11.0
545,19.750061302341695
546,-3.5285079519327898
547,10.961763406420738
548,169.1117494210965
720,3067.584220390643
721,3067.584220390643
784,0.0
785,0.0
848,0.0
849,0.0
1121,4708.379738550381
1135,1784.1593304234932
1161,12.499083441329422
1163,0.0
1166,100.15409373675675
1168,100.15409373675675
2,3, 1,29, 0,17, 0.00,60.00,Wednesday
7,-12.0
545,19.69723406726792
546,-5.853398913446262
547,10.978189015076005
548,169.1117494210965
720,4207.206323094495
721,4207.206323094495
784,0.0
785,0.0
848,0.0
849,0.0
1121,4569.050031147677
1135,1769.771115535481
1161,10.528969243578738
1163,0.0
1166,1612.632426653211
1168,1612.632426653211
2,3, 1,29, 0,18, 0.00,60.00,Wednesday
7,-14.0
545,19.65226934877356
546,-8.34319456353321
547,10.982903245692741
548,169.1117494210965
720,5570.426222138991
721,5570.426222138991
784,0.0
785,0.0
848,0.0
849,0.0
1121,4296.347414349917
1135,1737.8568553949726
1161,7.209453021062283
1163,0.0
1166,3595.2493356467703
1168,3595.2493356467703
2,3, 1,29, 0,19, 0.00,60.00,Wednesday
7,-15.0
545,19.669791301010722
546,-8.879185262102311
547,10.980145150991461
548,169.1117494210965
720,4889.234693125092
721,4889.234693125092
784,0.0
785,0.0
848,0.0
849,0.0
1121,4166.319325712212
1135,1721.8245208833223
1161,4.75576545246184
1163,0.0
1166,3104.008148285038
1168,3104.008148285038
2,3, 1,29, 0,20, 0.00,60.00,Wednesday
7,-17.0
545,19.67601288383534
546,-10.73871825797219
547,10.935925352861426
548,169.1117494210965
720,5082.155333251401
721,5082.155333251401
784,0.0
785,0.0
848,0.0
849,0.0
1121,3887.2689968681543
1135,1681.7744981516505
1161,7.7877252354982796
1163,0.0
1166,3626.5175711673824
1168,3626.5175711673824
2,3, 1,29, 0,21, 0.00,60.00,Wednesday
7,-17.0
545,19.64071527512085
546,-10.516773817360919
547,10.876084148042828
548,169.1117494210965
720,6287.080322562615
721,6287.080322562615
784,0.0
785,0.0
848,0.0
849,0.0
1121,3901.6641506958113
1135,1688.0035352183518
1161,2.6742895928382358
1163,0.0
1166,5128.867494521149
1168,5128.867494521149
2,3, 1,29, 0,22, 0.00,60.00,Wednesday
7,-17.2
545,19.649507075674077
546,-10.425264055262986
547,10.802619018119955
548,169.1117494210965
720,6698.643641577064
721,6698.643641577064
784,0.0
785,0.0
848,0.0
849,0.0
1121,3876.944936986734
1135,1683.3794335894243
1161,2.461555224602996
1163,0.0
1166,5663.552132798215
1168,5663.552132798215
2,3, 1,29, 0,23, 0.00,60.00,Wednesday
7,-17.8
545,18.95243438171422
546,-11.371094548233254
547,10.718477886772066
548,169.1117494210965
720,4952.549977185845
721,4952.549977185845
784,0.0
785,0.0
848,0.0
849,0.0
1121,3790.802282436155
1135,1668.9550665399124
1161,5.076410818214073
1163,0.0
1166,3724.8101944091313
1168,3724.8101944091313
2,3, 1,29, 0,24, 0.00,60.00,Wednesday
7,-18.3
545,18.6884778647568
546,-11.885799058296248
547,10.580513169487336
548,169.1117494210965
720,5677.285324265513
721,5677.285324265513
784,0.0
785,0.0
848,0.0
849,0.0
1121,3749.949446309577
1135,1641.8109707470019
1161,3.791441844185993
1163,0.0
1166,4551.536739502624
1168,4551.536739502624
2,4, 1,30, 0, 1, 0.00,60.00,Thursday
7,-18.3
545,18.593218173939032
546,-12.038289469071898
547,10.469685289739836
548,169.1117494210965
720,6284.534896834504
721,6284.534896834504
784,0.0
785,0.0
848,0.0
849,0.0
1121,3757.7880974917275
1135,1634.4772592186837
1161,3.791441844185993
1163,0.0
1166,5261.878432520303
1168,5261.878432520303
2,4, 1,30, 0, 2, 0.00,60.00,Thursday
7,-19.4
545,18.568538872290564
546,-12.720069377748231
547,10.343511692179954
548,169.1117494210965
720,6465.76635338298
721,6465.76635338298
784,0.0
785,0.0
848,0.0
849,0.0
1121,3617.5462188291804
1135,1609.8555063666263
1161,4.810173526409213
1163,0.0
1166,5619.630235072434
1168,5619.630235072434
2,4, 1,30, 0, 3, 0.00,60.00,Thursday
7,-19.4
545,18.54467824177079
546,-13.26950778836507
547,10.22193897411905
548,169.1117494210965
720,7190.510044992625
721,7190.510044992625
784,0.0
785,0.0
848,0.0
849,0.0
1121,3618.4783390945045
1135,1609.0165146565362
1161,4.807353377781664
1163,0.0
1166,6495.493880087388
1168,6495.493880087388
2,4, 1,30, 0, 4, 0.00,60.00,Thursday
7,-19.0
545,18.540392348038065
546,-13.298648305264269
547,10.103436650075809
548,169.1117494210965
720,7506.0613353485915
721,7506.0613353485915
784,0.0
785,0.0
848,0.0
849,0.0
1121,3668.6777493958093
1135,1615.2379787944253
1161,5.306384689097563
1163,0.0
1166,6857.242623723979
1168,6857.242623723979
2,4, 1,30, 0, 5, 0.00,60.00,Thursday
7,-20.0
545,18.555096212767143
546,-13.394175532751511
547,9.97881787382153
548,169.1117494210965
720,7098.640428875491
721,7098.640428875491
784,0.0
785,0.0
848,0.0
849,0.0
1121,3545.9324681667003
1135,1597.1516826509805
1161,4.211273705943506
1163,0.0
1166,6527.09276818311
1168,6527.09276818311
2,4, 1,30, 0, 6, 0.00,60.00,Thursday
7,-20.6
545,19.29250253085196
546,-14.0125553877875
547,9.854181727727283
548,169.1117494210965
720,8890.05466562149
721,8890.05466562149
784,0.0
785,0.0
848,0.0
849,0.0
1121,3471.3275443419716
1135,1585.5721007267416
1161,4.258081828460641
1163,0.0
1166,8666.710963335445
1168,8666.710963335445
2,4, 1,30, 0, 7, 0.00,60.00,Thursday
7,-20.6
545,19.537422505950662
546,-14.0713541823907
547,9.773087083154097
548,169.1117494210965
720,8664.586779799767
721,8664.586779799767
784,0.0
785,0.0
848,0.0
849,0.0
1121,3450.4828603218593
1135,1603.7704313549268
1161,4.258081828460641
1163,0.0
1166,8559.734320550582
1168,8559.734320550582
2,4, 1,30, 0, 8, 0.00,60.00,Thursday
7,-21.7
545,19.632589237336116
546,-13.487076135473776
547,9.660297514291308
548,169.1117494210965
720,7746.182369891292
721,7746.182369891292
784,0.0
785,0.0
848,0.0
849,0.0
1121,3308.4026223494593
1135,1586.1213710792458
1161,4.905201692118484
1163,0.0
1166,7673.559548951277
1168,7673.559548951277
2,4, 1,30, 0, 9, 0.00,60.00,Thursday
7,-21.1
545,19.66087121712685
546,-13.602868339781594
547,9.561419523167455
548,169.1117494210965
720,7389.606682374113
721,7389.606682374113
784,0.0
785,0.0
848,0.0
849,0.0
1121,3382.3240465776657
1135,1602.8313810818493
1161,3.2319972706380398
1163,0.0
1166,7151.565678130133
1168,7151.565678130133
2,4, 1,30, 0,10, 0.00,60.00,Thursday
7,-20.0
545,19.684376783229244
546,-12.627131943778329
547,9.46391253506088
548,169.1117494210965
720,6424.900414977952
721,6424.900414977952
784,0.0
785,0.0
848,0.0
849,0.0
1121,3514.613343410339
1135,1624.967686847778
1161,4.198669304793353
1163,0.0
1166,5908.405719359323
1168,5908.405719359323
2,4, 1,30, 0,11, 0.00,60.00,Thursday
7,-18.3
545,19.72316380294119
546,-8.735730744875907
547,9.396129448676282
548,169.1117494210965
720,4647.934576073769
721,4647.934576073769
784,0.0
785,0.0
848,0.0
849,0.0
1121,3730.5506936402335
1135,1659.8986095648897
1161,3.7720068046897763
1163,0.0
1166,3585.1003126880773
1168,3585.1003126880773