Program Version,EnergyPlus, Version 22.2.0-c249759bad, YMD=2023.09.01 15:42
1,5,Environment Title[],Latitude[deg],Longitude[deg],Time Zone[],Elevation[m]
2,8,Day of Simulation[],Month[],Day of Month[],DST Indicator[1=yes 0=no],Hour[],StartMinute[],EndMinute[],DayType
3,5,Cumulative Day of Simulation[],Month[],Day of Month[],DST Indicator[1=yes 0=no],DayType  ! When Daily Report Variables Requested
4,2,Cumulative Days of Simulation[],Month[]  ! When Monthly Report Variables Requested
5,1,Cumulative Days of Simulation[] ! When Run Period Report Variables Requested
6,1,Calendar Year of Simulation[] ! When Annual Report Variables Requested
581,11,LIVING,AFN Zone Infiltration Air Change Rate [ach] !RunPeriod [Value,Min,Month,Day,Hour,Minute,Max,Month,Day,Hour,Minute]
582,11,ATTIC,AFN Zone Infiltration Air Change Rate [ach] !RunPeriod [Value,Min,Month,Day,Hour,Minute,Max,Month,Day,Hour,Minute]
583,11,CRAWLSPACE,AFN Zone Infiltration Air Change Rate [ach] !RunPeriod [Value,Min,Month,Day,Hour,Minute,Max,Month,Day,Hour,Minute]
1038,11,Facility,Facility Heating Setpoint Not Met Time [hr] !RunPeriod [Value,Min,Month,Day,Hour,Minute,Max,Month,Day,Hour,Minute]
1039,11,Facility,Facility Cooling Setpoint Not Met Time [hr] !RunPeriod [Value,Min,Month,Day,Hour,Minute,Max,Month,Day,Hour,Minute]
1115,11,DX_HEATING_COIL,Heating Coil Heating Energy [J] !RunPeriod [Value,Min,Month,Day,Hour,Minute,Max,Month,Day,Hour,Minute]
1128,11,DX_HEATING_COIL,Heating Coil Electricity Energy [J] !RunPeriod [Value,Min,Month,Day,Hour,Minute,Max,Month,Day,Hour,Minute]
1153,11,DX_HEATING_COIL,Heating Coil Defrost Electricity Energy [J] !RunPeriod [Value,Min,Month,Day,Hour,Minute,Max,Month,Day,Hour,Minute]
1154,11,DX_HEATING_COIL,Heating Coil Crankcase Heater Electricity Energy [J] !RunPeriod [Value,Min,Month,Day,Hour,Minute,Max,Month,Day,Hour,Minute]
1155,11,HEATING_RESISTANCE_BACKUP,Heating Coil Heating Energy [J] !RunPeriod [Value,Min,Month,Day,Hour,Minute,Max,Month,Day,Hour,Minute]
1156,11,HEATING_RESISTANCE_BACKUP,Heating Coil Electricity Energy [J] !RunPeriod [Value,Min,Month,Day,Hour,Minute,Max,Month,Day,Hour,Minute]
1292,11,WATER HEATER,Water Heater Heat Loss Energy [J] !RunPeriod [Value,Min,Month,Day,Hour,Minute,Max,Month,Day,Hour,Minute]
1306,11,WATER HEATER,Water Heater Heating Energy [J] !RunPeriod [Value,Min,Month,Day,Hour,Minute,Max,Month,Day,Hour,Minute]
1307,11,WATER HEATER,Water Heater Unmet Demand Heat Transfer Energy [J] !RunPeriod [Value,Min,Month,Day,Hour,Minute,Max,Month,Day,Hour,Minute]
1308,11,WATER HEATER,Water Heater Electricity Energy [J] !RunPeriod [Value,Min,Month,Day,Hour,Minute,Max,Month,Day,Hour,Minute]
13,11,Electricity:Facility [J] !RunPeriod [Value,Min,Month,Day,Hour,Minute,Max,Month,Day,Hour,Minute]
1134,11,Heating:Electricity [J] !RunPeriod [Value,Min,Month,Day,Hour,Minute,Max,Month,Day,Hour,Minute]
1096,11,Cooling:Electricity [J] !RunPeriod [Value,Min,Month,Day,Hour,Minute,Max,Month,Day,Hour,Minute]
562,11,Fans:Electricity [J] !RunPeriod [Value,Min,Month,Day,Hour,Minute,Max,Month,Day,Hour,Minute]
1379,11,Pumps:Electricity [J] !RunPeriod [Value,Min,Month,Day,Hour,Minute,Max,Month,Day,Hour,Minute]
1326,11,WaterSystems:Electricity [J] !RunPeriod [Value,Min,Month,Day,Hour,Minute,Max,Month,Day,Hour,Minute]
61,11,InteriorLights:Electricity [J] !RunPeriod [Value,Min,Month,Day,Hour,Minute,Max,Month,Day,Hour,Minute]
1046,11,ExteriorLights:Electricity [J] !RunPeriod [Value,Min,Month,Day,Hour,Minute,Max,Month,Day,Hour,Minute]
134,11,InteriorEquipment:Electricity [J] !RunPeriod [Value,Min,Month,Day,Hour,Minute,Max,Month,Day,Hour,Minute]
170,11,gas_dryer:InteriorEquipment:Electricity [J] !RunPeriod [Value,Min,Month,Day,Hour,Minute,Max,Month,Day,Hour,Minute]
207,11,clotheswasher:InteriorEquipment:Electricity [J] !RunPeriod [Value,Min,Month,Day,Hour,Minute,Max,Month,Day,Hour,Minute]
244,11,dishwasher:InteriorEquipment:Electricity [J] !RunPeriod [Value,Min,Month,Day,Hour,Minute,Max,Month,Day,Hour,Minute]
281,11,refrigerator:InteriorEquipment:Electricity [J] !RunPeriod [Value,Min,Month,Day,Hour,Minute,Max,Month,Day,Hour,Minute]
318,11,electric_mels:InteriorEquipment:Electricity [J] !RunPeriod [Value,Min,Month,Day,Hour,Minute,Max,Month,Day,Hour,Minute]
355,11,NaturalGas:Facility [J] !RunPeriod [Value,Min,Month,Day,Hour,Minute,Max,Month,Day,Hour,Minute]
403,11,InteriorEquipment:NaturalGas [J] !RunPeriod [Value,Min,Month,Day,Hour,Minute,Max,Month,Day,Hour,Minute]
476,11,gas_dryer:InteriorEquipment:NaturalGas [J] !RunPeriod [Value,Min,Month,Day,Hour,Minute,Max,Month,Day,Hour,Minute]
513,11,gas_mels:InteriorEquipment:NaturalGas [J] !RunPeriod [Value,Min,Month,Day,Hour,Minute,Max,Month,Day,Hour,Minute]
End of Data Dictionary
1,EXTREME_WINTER,  46.68, -68.05,  -5.00, 146.00
5,15
1038,71.25,0.0,12,22, 1,15,0.25,12,23, 1,60
1039,0.0,0.0,12,22, 1,15,0.0,12,22, 1,15
581,0.4565248794619975,0.250024637808322,12,23,19,60,0.8791918373232183,12,31,13,60
582,4.37017286918913,0.0868281172661498, 1, 5,21,60,15.870027097159936,12,31,13,60
583,0.050174538907037915,0.0005286754489331281,12,27,23, 3,0.06308034442738997,12,31,11,60
1115,2989927444.9274697,0.0,12,22,23, 5,3004630.7353799865,12,23, 6,60
1128,1112321892.0178542,0.0,12,22,23, 5,862724.3361642545,12,29,11,60
1153,21824503.91568403,0.0,12,22,23, 5,78916.50939901626,12,23, 6,60
1154,5696032.040312475,0.0,12,22, 1,45,126336.25137587318,12,23,15,15
1155,5906241108.65658,0.0,12,22, 1,15,9334235.698409317, 1, 3, 4,30
1156,5906241108.65658,0.0,12,22, 1,15,9334235.698409317, 1, 3, 4,30
1292,-55166722.392679624,-44469.24134501108, 1, 3, 6,15,-7260.5350053017855, 1, 1,10,45
1306,552908514.3439649,0.0,12,22, 1,15,10161254.438857682, 1, 4,19,60
1307,18287869.556714684,0.0,12,22, 1,15,7678914.912255985, 1, 4,19,60
1308,552908514.3439649,0.0,12,22, 1,15,10161254.438857682, 1, 4,19,60
13,8528552265.933015,703280.7105145057,12,23,15,15,20046752.11580978, 1, 4, 9,45
61,646981127.1939323,88139.10953165221,12,22, 1,15,1282023.4113694867,12,22,20,15
134,151290040.75163814,63564.01800854099,12,22, 4,15,156554.22484006523,12,27,20,15
170,11185820.069951689,348.4159749238097,12,22, 4,15,17476.39704006126,12,27,12,15
207,13893028.5742839,815.2532113832032,12,22, 3,15,22990.642799023623,12,27,10,15
244,27284301.07562584,1521.856143006317,12,22, 4,15,53038.631142310165,12,27,20,15
281,98926891.03177746,59938.60262432081,12,22, 5,15,81951.81706819107,12,22,19,15
318,0.0,0.0,12,22, 1,15,0.0,12,22, 1,15
355,422701517.16107386,18561.32405820678,12,22, 4,15,724774.895203776,12,27,18,15
403,422701517.16107386,18561.32405820678,12,22, 4,15,724774.895203776,12,27,18,15
476,227882097.80545202,7098.072629279515,12,22, 4,15,356036.3026282215,12,27,12,15
513,0.0,0.0,12,22, 1,15,0.0,12,22, 1,15
562,131289047.01305158,21703.84187866761,12,22,23,15,93244.72570068817,12,22, 1,45
1046,0.0,0.0,12,22, 1,15,0.0,12,22, 1,15
1096,0.0,0.0,12,22, 1,15,0.0,12,22, 1,15
1134,7046083536.630423,349403.5343549143,12,22,23,15,9980697.384901479, 1, 3, 9,30
1326,552908514.3439653,0.0,12,22, 1,15,10161254.438857682, 1, 4,19,60
1379,0.0,0.0,12,22, 1,15,0.0,12,22, 1,15
1,EXTREME_SUMMER,  46.68, -68.05,  -5.00, 146.00
5,7
1038,0.0,0.0, 7, 6, 1,15,0.0, 7, 6, 1,15
1039,26.0,0.0, 7, 6, 1,15,0.25, 7, 6,12,30
581,0.18033522904642713,0.034183012309825865, 7,12, 2,60,0.6869014335905924, 7, 9,17,52
582,3.1798428815770667,0.0, 7, 6, 2,18,13.864450691290873, 7, 9,17,52
583,0.021577257247546777,0.00014148083643306304, 7,10,23, 3,0.04820672007966353, 7, 7,15,20
1115,0.0,0.0, 7, 6, 1, 7,0.0, 7, 6, 1, 7
1128,0.0,0.0, 7, 6, 1, 7,0.0, 7, 6, 1, 7
1153,0.0,0.0, 7, 6, 1, 7,0.0, 7, 6, 1, 7
1154,3420000.0,0.0, 7, 6, 1, 7,180000.0, 7, 8, 2,45
1155,0.0,0.0, 7, 6, 1, 7,0.0, 7, 6, 1, 7
1156,0.0,0.0, 7, 6, 1, 7,0.0, 7, 6, 1, 7
1292,-22199613.780894402,-36419.92977049107, 7,10, 5,15,-4008.7532268954997, 7,10, 7,46
1306,219645442.06553614,0.0, 7, 6, 1, 7,5270400.0, 7,12, 9,45
1307,4960106.118479408,0.0, 7, 6, 1, 7,2482530.7447027243, 7,12,19,60
1308,219645442.06553614,0.0, 7, 6, 1, 7,5270400.0, 7,12, 9,45
13,880864105.8777727,151703.1275401932, 7, 6, 4,15,12561850.885797897, 7,12,19,60
61,301924526.02383536,88139.10953165221, 7, 6, 1,15,1282023.4113694867, 7, 6,20,15
134,70666020.44019976,63564.01800854099, 7, 6, 4,15,156554.22484006523, 7,11,20,15
170,5241013.419656067,348.4159749238097, 7, 6, 4,15,17476.39704006126, 7,11,12,15
207,6509451.13922267,815.2532113832032, 7, 6, 3,15,22990.642799023623, 7,11,10,15
244,12749673.399825225,1521.856143006317, 7, 6, 4,15,53038.631142310165, 7,11,20,15
281,46165882.481495745,59938.60262432081, 7, 6, 5,15,81951.81706819107, 7, 6,19,15
318,0.0,0.0, 7, 6, 1,15,0.0, 7, 6, 1,15
355,197687796.27748066,18561.32405820678, 7, 6, 4,15,724774.895203776, 7,11,18,15
403,197687796.27748066,18561.32405820678, 7, 6, 4,15,724774.895203776, 7,11,18,15
476,106772067.24485716,7098.072629279515, 7, 6, 4,15,356036.3026282215, 7,11,12,15
513,0.0,0.0, 7, 6, 1,15,0.0, 7, 6, 1,15
562,30547757.119515948,0.0, 7, 6, 1,45,93244.72570068817, 7, 6,11,45
1046,0.0,0.0, 7, 6, 1,15,0.0, 7, 6, 1,15
1096,254660360.2286859,0.0, 7, 6, 1,45,880027.221019146, 7,11,16,15
1134,3420000.0,0.0, 7, 6, 1,15,180000.0, 7, 8, 2,45
1326,219645442.06553602,0.0, 7, 6, 1,15,10527141.97437096, 7,12,19,60
1379,0.0,0.0, 7, 6, 1,15,0.0, 7, 6, 1,15
1,ANNUAL,  46.68, -68.05,  -5.00, 146.00
5,365
1038,316.0,0.0, 1, 1, 1,15,0.25, 1, 1, 5,60
1039,344.5,0.0, 1, 1, 1,15,0.25, 4,27,13,60
581,0.2990633291769787,0.0, 8, 3,23, 3,1.1179531372989222, 2,10,14,60
582,3.638325146360013,0.0, 1,15,19,52,27.019021636665975, 4, 3,17,52
583,0.026799450496191098,0.000031032988813830245, 8, 3,23, 3,0.06854510731577117,12, 7, 8,60
1115,37160286742.1819,0.0, 1, 4,23, 3,4141168.1297939853, 1, 6,17,15
1128,12231826685.463882,0.0, 1, 4,23, 3,1011032.4869071393, 1, 6,17,15
1153,335020409.4123695,0.0, 1, 4,23, 3,101272.71327175165, 2,25,17,60
1154,1263283011.8388433,0.0, 1, 1, 1, 7,180000.0, 2,24,13,15
1155,34710896540.37917,0.0, 1, 4,23, 3,9334235.698409317, 1, 4, 4,45
1156,34710896540.37917,0.0, 1, 4,23, 3,9334235.698409317, 1, 4, 4,45
1292,-1260308189.0289598,-43961.40663136347, 1, 3, 5,60,-2641.592667336569, 8, 5,15,31
1306,12661897475.518414,0.0, 1, 1, 1, 7,10508901.208441062, 6,25, 9,45
1307,382564849.3437272,0.0, 1, 1, 1, 7,8435405.066733895, 2,19,19,60
1308,12661897475.518414,0.0, 1, 1, 1, 7,10508901.208441062, 6,25, 9,45
13,86032871295.30705,151703.1275401932, 5,11, 4,15,20156001.321807668, 1,22,19,60
61,15743207428.383959,88139.10953165221, 1, 1, 1,15,1282023.4113694867, 1, 1,20,15
134,3685071073.4325233,63564.01800854099, 1, 2, 4,15,156554.22484006523, 1, 1,20,15
170,273393721.45532674,348.4159749238097, 1, 2, 4,15,17476.39704006126, 1, 1,12,15
207,339560869.0695816,815.2532113832032, 1, 2, 3,15,22990.642799023623, 1, 1,10,15
244,664895467.8009144,1521.856143006317, 1, 2, 4,15,53038.631142310165, 1, 1,20,15
281,2407221015.106824,59938.60262432081, 1, 1, 5,15,81951.81706819107, 1, 1,19,15
318,0.0,0.0, 1, 1, 1,15,0.0, 1, 1, 1,15
355,10310294493.051695,18561.32405820678, 1, 2, 4,15,724774.895203776, 1, 1,18,15
403,10310294493.051695,18561.32405820678, 1, 2, 4,15,724774.895203776, 1, 1,18,15
476,5569688622.066177,7098.072629279515, 1, 2, 4,15,356036.3026282215, 1, 1,12,15
513,0.0,0.0, 1, 1, 1,15,0.0, 1, 1, 1,15
562,1810278587.9360375,0.0, 2,14,15,45,93244.72570068818, 2,12, 9,30
1046,0.0,0.0, 1, 1, 1,15,0.0, 1, 1, 1,15
1096,3591390082.939637,0.0, 1, 1, 1,15,921641.9558162563, 7,23,15,60
1134,48541026647.0941,0.0, 2,24,14,60,9952693.297389887, 2,12, 8,15
1326,12661897475.51842,0.0, 1, 1, 1,15,10540800.0, 7, 2,19,60
1379,0.0,0.0, 1, 1, 1,15,0.0, 1, 1, 1,15
End of Data
 Number of Records Written=          99
