Program Version,EnergyPlus, Version 22.2.0-c249759bad, YMD=2023.09.01 20:40
1,5,Environment Title[],Latitude[deg],Longitude[deg],Time Zone[],Elevation[m]
2,8,Day of Simulation[],Month[],Day of Month[],DST Indicator[1=yes 0=no],Hour[],StartMinute[],EndMinute[],DayType
3,5,Cumulative Day of Simulation[],Month[],Day of Month[],DST Indicator[1=yes 0=no],DayType  ! When Daily Report Variables Requested
4,2,Cumulative Days of Simulation[],Month[]  ! When Monthly Report Variables Requested
5,1,Cumulative Days of Simulation[] ! When Run Period Report Variables Requested
6,1,Calendar Year of Simulation[] ! When Annual Report Variables Requested
581,11,LIVING,AFN Zone Infiltration Air Change Rate [ach] !RunPeriod [Value,Min,Month,Day,Hour,Minute,Max,Month,Day,Hour,Minute]
582,11,ATTIC,AFN Zone Infiltration Air Change Rate [ach] !RunPeriod [Value,Min,Month,Day,Hour,Minute,Max,Month,Day,Hour,Minute]
583,11,CRAWLSPACE,AFN Zone Infiltration Air Change Rate [ach] !RunPeriod [Value,Min,Month,Day,Hour,Minute,Max,Month,Day,Hour,Minute]
1038,11,Facility,Facility Heating Setpoint Not Met Time [hr] !RunPeriod [Value,Min,Month,Day,Hour,Minute,Max,Month,Day,Hour,Minute]
1039,11,Facility,Facility Cooling Setpoint Not Met Time [hr] !RunPeriod [Value,Min,Month,Day,Hour,Minute,Max,Month,Day,Hour,Minute]
1115,11,DX_HEATING_COIL,Heating Coil Heating Energy [J] !RunPeriod [Value,Min,Month,Day,Hour,Minute,Max,Month,Day,Hour,Minute]
1128,11,DX_HEATING_COIL,Heating Coil Electricity Energy [J] !RunPeriod [Value,Min,Month,Day,Hour,Minute,Max,Month,Day,Hour,Minute]
1153,11,DX_HEATING_COIL,Heating Coil Defrost Electricity Energy [J] !RunPeriod [Value,Min,Month,Day,Hour,Minute,Max,Month,Day,Hour,Minute]
1154,11,DX_HEATING_COIL,Heating Coil Crankcase Heater Electricity Energy [J] !RunPeriod [Value,Min,Month,Day,Hour,Minute,Max,Month,Day,Hour,Minute]
1155,11,HEATING_RESISTANCE_BACKUP,Heating Coil Heating Energy [J] !RunPeriod [Value,Min,Month,Day,Hour,Minute,Max,Month,Day,Hour,Minute]
1156,11,HEATING_RESISTANCE_BACKUP,Heating Coil Electricity Energy [J] !RunPeriod [Value,Min,Month,Day,Hour,Minute,Max,Month,Day,Hour,Minute]
1292,11,WATER HEATER,Water Heater Heat Loss Energy [J] !RunPeriod [Value,Min,Month,Day,Hour,Minute,Max,Month,Day,Hour,Minute]
1306,11,WATER HEATER,Water Heater Heating Energy [J] !RunPeriod [Value,Min,Month,Day,Hour,Minute,Max,Month,Day,Hour,Minute]
1307,11,WATER HEATER,Water Heater Unmet Demand Heat Transfer Energy [J] !RunPeriod [Value,Min,Month,Day,Hour,Minute,Max,Month,Day,Hour,Minute]
1308,11,WATER HEATER,Water Heater Electricity Energy [J] !RunPeriod [Value,Min,Month,Day,Hour,Minute,Max,Month,Day,Hour,Minute]
13,11,Electricity:Facility [J] !RunPeriod [Value,Min,Month,Day,Hour,Minute,Max,Month,Day,Hour,Minute]
1134,11,Heating:Electricity [J] !RunPeriod [Value,Min,Month,Day,Hour,Minute,Max,Month,Day,Hour,Minute]
1096,11,Cooling:Electricity [J] !RunPeriod [Value,Min,Month,Day,Hour,Minute,Max,Month,Day,Hour,Minute]
562,11,Fans:Electricity [J] !RunPeriod [Value,Min,Month,Day,Hour,Minute,Max,Month,Day,Hour,Minute]
1379,11,Pumps:Electricity [J] !RunPeriod [Value,Min,Month,Day,Hour,Minute,Max,Month,Day,Hour,Minute]
1326,11,WaterSystems:Electricity [J] !RunPeriod [Value,Min,Month,Day,Hour,Minute,Max,Month,Day,Hour,Minute]
61,11,InteriorLights:Electricity [J] !RunPeriod [Value,Min,Month,Day,Hour,Minute,Max,Month,Day,Hour,Minute]
1046,11,ExteriorLights:Electricity [J] !RunPeriod [Value,Min,Month,Day,Hour,Minute,Max,Month,Day,Hour,Minute]
134,11,InteriorEquipment:Electricity [J] !RunPeriod [Value,Min,Month,Day,Hour,Minute,Max,Month,Day,Hour,Minute]
170,11,gas_dryer:InteriorEquipment:Electricity [J] !RunPeriod [Value,Min,Month,Day,Hour,Minute,Max,Month,Day,Hour,Minute]
207,11,clotheswasher:InteriorEquipment:Electricity [J] !RunPeriod [Value,Min,Month,Day,Hour,Minute,Max,Month,Day,Hour,Minute]
244,11,dishwasher:InteriorEquipment:Electricity [J] !RunPeriod [Value,Min,Month,Day,Hour,Minute,Max,Month,Day,Hour,Minute]
281,11,refrigerator:InteriorEquipment:Electricity [J] !RunPeriod [Value,Min,Month,Day,Hour,Minute,Max,Month,Day,Hour,Minute]
318,11,electric_mels:InteriorEquipment:Electricity [J] !RunPeriod [Value,Min,Month,Day,Hour,Minute,Max,Month,Day,Hour,Minute]
355,11,NaturalGas:Facility [J] !RunPeriod [Value,Min,Month,Day,Hour,Minute,Max,Month,Day,Hour,Minute]
403,11,InteriorEquipment:NaturalGas [J] !RunPeriod [Value,Min,Month,Day,Hour,Minute,Max,Month,Day,Hour,Minute]
476,11,gas_dryer:InteriorEquipment:NaturalGas [J] !RunPeriod [Value,Min,Month,Day,Hour,Minute,Max,Month,Day,Hour,Minute]
513,11,gas_mels:InteriorEquipment:NaturalGas [J] !RunPeriod [Value,Min,Month,Day,Hour,Minute,Max,Month,Day,Hour,Minute]
End of Data Dictionary
1,EXTREME_WINTER,  33.95,-117.43,  -8.00, 249.00
5,7
1038,0.0,0.0, 2,15, 1,15,0.0, 2,15, 1,15
1039,0.0,0.0, 2,15, 1,15,0.0, 2,15, 1,15
581,0.17639535770717393,0.09304504336285524, 2,17, 7,60,0.5701583070083586, 2,16,11,60
582,1.9399256409115455,0.0, 2,15, 1,15,10.656201748169641, 2,16,11,60
583,0.011125595948307759,0.00018745459506638978, 2,17, 7,55,0.07603629641834825, 2,15, 6, 3
1115,56721297.07958486,0.0, 2,15, 6, 7,1745625.037240563, 2,16, 6, 3
1128,15027594.921772322,0.0, 2,15, 6, 7,447686.2401362922, 2,16, 6,45
1153,21619.080685589513,0.0, 2,15, 1,15,9575.571279946735, 2,18, 7,15
1154,37263821.25054434,0.0, 2,15, 9,37,180000.0, 2,15,18,45
1155,0.0,0.0, 2,15, 1,15,0.0, 2,15, 1,15
1156,0.0,0.0, 2,15, 1,15,0.0, 2,15, 1,15
1292,-23397062.78677988,-39693.17954756239, 2,15, 1,30,-2476.8790490956403, 2,21,10,31
1306,218236535.1889369,0.0, 2,15, 1,15,4050000.0, 2,15,18,30
1307,58709249.76245016,0.0, 2,15, 1,15,10518274.160651276, 2,15, 8,30
1308,218236535.1889369,0.0, 2,15, 1,15,4050000.0, 2,15,18,30
13,746980806.4265535,151703.1275401932, 2,17, 4,15,5613104.296287286, 2,17,17,30
61,301924526.02383536,88139.10953165221, 2,15, 1,15,1282023.4113694867, 2,15,20,15
134,70666020.44019976,63564.01800854099, 2,15, 4,15,156554.22484006523, 2,20,20,15
170,5241013.419656067,348.4159749238097, 2,15, 4,15,17476.39704006126, 2,20,12,15
207,6509451.13922267,815.2532113832032, 2,15, 3,15,22990.642799023623, 2,20,10,15
244,12749673.399825225,1521.856143006317, 2,15, 4,15,53038.631142310165, 2,20,20,15
281,46165882.481495745,59938.60262432081, 2,15, 5,15,81951.81706819107, 2,15,19,15
318,0.0,0.0, 2,15, 1,15,0.0, 2,15, 1,15
355,197687796.27748066,18561.32405820678, 2,15, 4,15,724774.895203776, 2,20,18,15
403,197687796.27748066,18561.32405820678, 2,15, 4,15,724774.895203776, 2,20,18,15
476,106772067.24485716,7098.072629279515, 2,15, 4,15,356036.3026282215, 2,20,12,15
513,0.0,0.0, 2,15, 1,15,0.0, 2,15, 1,15
562,13427547.872458316,0.0, 2,15,12,60,101800.5262448419, 2,17,16,30
1046,0.0,0.0, 2,15, 1,15,0.0, 2,15, 1,15
1096,90413141.64812262,0.0, 2,15, 1,15,795455.4120047751, 2,17,16,30
1134,52313035.25300224,0.0, 2,15,12,60,670834.0544135445, 2,15, 6,15
1326,218236535.188937,0.0, 2,15, 1,15,4050000.0, 2,15, 8,45
1379,0.0,0.0, 2,15, 1,15,0.0, 2,15, 1,15
1,EXTREME_SUMMER,  33.95,-117.43,  -8.00, 249.00
5,7
1038,0.0,0.0, 9,26, 1,15,0.0, 9,26, 1,15
1039,32.5,0.0, 9,26, 1,15,0.25, 9,26,14,30
581,0.07490083166290604,0.0, 9,26,23, 3,0.36467166753489794, 9,30,16,50
582,2.494436311752575,0.02913106415136465, 9,26, 8,55,11.9448894921007, 9,30,16,47
583,0.03916232213307976,0.0, 9,26,23, 3,0.07965216601865178, 9,30,16,50
1115,0.0,0.0, 9,26, 1, 7,0.0, 9,26, 1, 7
1128,0.0,0.0, 9,26, 1, 7,0.0, 9,26, 1, 7
1153,0.0,0.0, 9,26, 1, 7,0.0, 9,26, 1, 7
1154,0.0,0.0, 9,26, 1, 7,0.0, 9,26, 1, 7
1155,0.0,0.0, 9,26, 1, 7,0.0, 9,26, 1, 7
1156,0.0,0.0, 9,26, 1, 7,0.0, 9,26, 1, 7
1292,-21895128.474894248,-34606.15571172345,10, 1, 6,30,-2476.2193846734513,10, 1, 9,29
1306,183401211.0776114,0.0, 9,26, 1, 7,3934116.342731046, 9,27, 7,15
1307,39300343.38745814,0.0, 9,26, 1, 7,3969240.4294563676, 9,28, 7,60
1308,183401211.0776114,0.0, 9,26, 1, 7,3934116.342731046, 9,27, 7,15
13,1130577176.3648274,162039.16346738898, 9,28, 4,60,6038114.090576775, 9,26,18,15
61,301924526.02383536,88139.10953165221, 9,26, 1,15,1282023.4113694867, 9,26,20,15
134,70666020.44019976,63564.01800854099, 9,26, 4,15,156554.22484006523,10, 1,20,15
170,5241013.419656067,348.4159749238097, 9,26, 4,15,17476.39704006126,10, 1,12,15
207,6509451.13922267,815.2532113832032, 9,26, 3,15,22990.642799023623,10, 1,10,15
244,12749673.399825225,1521.856143006317, 9,26, 4,15,53038.631142310165,10, 1,20,15
281,46165882.481495745,59938.60262432081, 9,26, 5,15,81951.81706819107, 9,26,19,15
318,0.0,0.0, 9,26, 1,15,0.0, 9,26, 1,15
355,197687796.27748066,18561.32405820678, 9,26, 4,15,724774.895203776,10, 1,18,15
403,197687796.27748066,18561.32405820678, 9,26, 4,15,724774.895203776,10, 1,18,15
476,106772067.24485716,7098.072629279515, 9,26, 4,15,356036.3026282215,10, 1,12,15
513,0.0,0.0, 9,26, 1,15,0.0, 9,26, 1,15
562,51949825.862123705,0.0, 9,26, 6,30,153397.5426086718, 9,26,13,45
1046,0.0,0.0, 9,26, 1,15,0.0, 9,26, 1,15
1096,522635592.96105784,0.0, 9,26, 6,30,1880603.1726516022,10, 2,13,60
1134,0.0,0.0, 9,26, 1,15,0.0, 9,26, 1,15
1326,183401211.07761133,0.0, 9,26, 1,15,4050000.0000000014,10, 1, 9,45
1379,0.0,0.0, 9,26, 1,15,0.0, 9,26, 1,15
1,ANNUAL,  33.95,-117.43,  -8.00, 249.00
5,365
1038,0.0,0.0, 1, 1, 1,15,0.0, 1, 1, 1,15
1039,506.25,0.0, 1, 1, 1,15,0.25, 1,10,12,30
581,0.14180657157397422,0.0, 5,22,23, 3,0.7357097884587348,12,23, 9,60
582,2.582587749911982,0.0, 1, 1, 6,52,16.699989561683278, 5, 4,16,48
583,0.027707853868228462,0.0, 7, 5, 6, 7,0.0849756221949766, 9,11, 6, 3
1115,422908038.8701834,0.0, 1, 1, 1, 7,2188522.5374519117,12, 8, 7,15
1128,123548604.64888161,0.0, 1, 1, 1, 7,690519.4426263473,12, 8, 7,15
1153,3858922.039426281,0.0, 1, 1, 1, 7,57651.933160461165,12,31, 6,60
1154,584595545.687211,0.0, 1, 1,11,18,180000.0, 1, 1, 1,30
1155,0.0,0.0, 1, 1, 1, 7,0.0, 1, 1, 1, 7
1156,0.0,0.0, 1, 1, 1, 7,0.0, 1, 1, 1, 7
1292,-1167406760.2895348,-39731.755156073334, 1, 4, 2,60,-1691.826145084525, 3,12,10,29
1306,10228315360.770739,0.0, 1, 1, 1, 7,4050000.0, 1, 3, 7,30
1307,2410039841.521396,0.0, 1, 1, 1, 7,11298909.65798123, 1,30, 8,30
1308,10228315360.770739,0.0, 1, 1, 1, 7,4050000.0, 1, 3, 7,30
13,47815991768.37781,151703.1275401932, 1, 6, 4,15,6512608.851451121,10,18,17,30
61,15743207428.383959,88139.10953165221, 1, 1, 1,15,1282023.4113694867, 1, 1,20,15
134,3685071073.4325233,63564.01800854099, 1, 2, 4,15,156554.22484006523, 1, 1,20,15
170,273393721.45532674,348.4159749238097, 1, 2, 4,15,17476.39704006126, 1, 1,12,15
207,339560869.0695816,815.2532113832032, 1, 2, 3,15,22990.642799023623, 1, 1,10,15
244,664895467.8009144,1521.856143006317, 1, 2, 4,15,53038.631142310165, 1, 1,20,15
281,2407221015.106824,59938.60262432081, 1, 1, 5,15,81951.81706819107, 1, 1,19,15
318,0.0,0.0, 1, 1, 1,15,0.0, 1, 1, 1,15
355,10310294493.051695,18561.32405820678, 1, 2, 4,15,724774.895203776, 1, 1,18,15
403,10310294493.051695,18561.32405820678, 1, 2, 4,15,724774.895203776, 1, 1,18,15
476,5569688622.066177,7098.072629279515, 1, 2, 4,15,356036.3026282215, 1, 1,12,15
513,0.0,0.0, 1, 1, 1,15,0.0, 1, 1, 1,15
562,1795537961.6542242,0.0, 1, 1, 1,15,153397.54260867182, 5,20,15,60
1046,0.0,0.0, 1, 1, 1,15,0.0, 1, 1, 1,15
1096,15651856871.759548,0.0, 1, 1, 1,15,1878456.0539633203,10, 2,13,60
1134,712003072.3755194,0.0, 1, 1,11,30,1090416.0834009072,12, 8, 6,15
1326,10228315360.770721,0.0, 1, 1, 1,15,4050000.0000000014, 1,22,10,30
1379,0.0,0.0, 1, 1, 1,15,0.0, 1, 1, 1,15
End of Data
 Number of Records Written=          99
