Program Version,EnergyPlus, Version 22.2.0-c249759bad, YMD=2023.09.01 14:30
1,5,Environment Title[],Latitude[deg],Longitude[deg],Time Zone[],Elevation[m]
2,8,Day of Simulation[],Month[],Day of Month[],DST Indicator[1=yes 0=no],Hour[],StartMinute[],EndMinute[],DayType
3,5,Cumulative Day of Simulation[],Month[],Day of Month[],DST Indicator[1=yes 0=no],DayType  ! When Daily Report Variables Requested
4,2,Cumulative Days of Simulation[],Month[]  ! When Monthly Report Variables Requested
5,1,Cumulative Days of Simulation[] ! When Run Period Report Variables Requested
6,1,Calendar Year of Simulation[] ! When Annual Report Variables Requested
7,1,Environment,Site Outdoor Air Drybulb Temperature [C] !Hourly
619,1,DX_HEATING_COIL,Heating Coil Heating Rate [W] !Hourly
633,1,DX_HEATING_COIL,Heating Coil Electricity Rate [W] !Hourly
659,1,DX_HEATING_COIL,Heating Coil Defrost Electricity Rate [W] !Hourly
661,1,DX_HEATING_COIL,Heating Coil Crankcase Heater Electricity Rate [W] !Hourly
690,1,FAN,Fan Electricity Rate [W] !Hourly
716,1,HEAT PUMP WATER HEATER FAN,Fan Electricity Rate [W] !Hourly
718,1,LIVING,Zone Mean Air Temperature [C] !Hourly
719,1,ATTIC,Zone Mean Air Temperature [C] !Hourly
720,1,CRAWLSPACE,Zone Mean Air Temperature [C] !Hourly
843,1,LIVING,Zone Predicted Sensible Load to Heating Setpoint Heat Transfer Rate [W] !Hourly
844,1,LIVING,Zone System Predicted Sensible Load to Heating Setpoint Heat Transfer Rate [W] !Hourly
907,1,ATTIC,Zone Predicted Sensible Load to Heating Setpoint Heat Transfer Rate [W] !Hourly
908,1,ATTIC,Zone System Predicted Sensible Load to Heating Setpoint Heat Transfer Rate [W] !Hourly
971,1,CRAWLSPACE,Zone Predicted Sensible Load to Heating Setpoint Heat Transfer Rate [W] !Hourly
972,1,CRAWLSPACE,Zone System Predicted Sensible Load to Heating Setpoint Heat Transfer Rate [W] !Hourly
1195,1,HEATING_RESISTANCE_BACKUP,Heating Coil Heating Rate [W] !Hourly
1197,1,HEATING_RESISTANCE_BACKUP,Heating Coil Electricity Rate [W] !Hourly
End of Data Dictionary
1,EXTREME_WINTER,  39.88, -75.25,  -5.00,   3.10
2,1, 1, 6, 0, 1, 0.00,60.00,Monday
7,-1.7
718,18.649086967046937
719,1.0470689898636896
720,19.138134276170764
619,2589.7708969711102
633,829.3251543873623
659,0.04153249112884378
661,78.30372295555944
690,86.21640039982876
716,0.0
843,1851.3236006764528
844,1851.3236006764528
907,0.0
908,0.0
971,0.0
972,0.0
1195,0.0
1197,0.0
2,1, 1, 6, 0, 2, 0.00,60.00,Monday
7,-1.7
718,18.607220482105593
719,1.0244410571347906
720,18.80784777492105
619,2978.701250199499
633,948.6240717839856
659,0.04733532436148307
661,61.3005723732549
690,98.26237562809447
716,0.0
843,2106.30544596087
844,2106.30544596087
907,0.0
908,0.0
971,0.0
972,0.0
1195,0.0
1197,0.0
2,1, 1, 6, 0, 3, 0.00,60.00,Monday
7,-1.7
718,18.580261739631716
719,0.8161169975027964
720,18.630387851216486
619,3357.9827431145477
633,1057.9604008380902
659,8.642492340236085
661,43.389842376084495
690,110.79041242853094
716,0.0
843,2365.628459013149
844,2365.628459013149
907,0.0
908,0.0
971,0.0
972,0.0
1195,0.0
1197,0.0
2,1, 1, 6, 0, 4, 0.00,60.00,Monday
7,-2.0
718,18.62149486084111
719,1.0750894984283192
720,18.441662423229687
619,3501.3569349795384
633,1104.1524959851447
659,19.125480677836407
661,33.974456778694375
690,117.24540614768257
716,0.0
843,2442.719004601773
844,2442.719004601773
907,0.0
908,0.0
971,0.0
972,0.0
1195,0.0
1197,0.0
2,1, 1, 6, 0, 5, 0.00,60.00,Monday
7,-2.0
718,18.64914815481858
719,0.8689925660015257
720,18.28641188949047
619,3347.215830380933
633,1061.1528424187334
659,26.870911452816852
661,38.82862571552219
690,113.64855898170107
716,0.0
843,2335.844077080099
844,2335.844077080099
907,0.0
908,0.0
971,0.0
972,0.0
1195,0.0
1197,0.0
2,1, 1, 6, 0, 6, 0.00,60.00,Monday
7,-1.1
718,19.235932930350522
719,1.3826194338252966
720,18.106414070926807
619,4477.1142185467215
633,1356.602489910561
659,12.318211171609933
661,0.0
690,141.69237146935674
716,0.0
843,3966.6437216450886
844,3966.6437216450886
907,0.0
908,0.0
971,0.0
972,0.0
1195,995.8069559588112
1197,995.8069559588112
2,1, 1, 6, 0, 7, 0.00,60.00,Monday
7,-1.1
718,19.50922375341935
719,1.749399584334846
720,18.000717254822316
619,4401.55149749455
633,1352.962135715807
659,25.95793297139033
661,0.0
690,141.69237146935674
716,85.44000000000004
843,3282.3207464876996
844,3282.3207464876996
907,0.0
908,0.0
971,0.0
972,0.0
1195,1415.3144542681966
1197,1415.3144542681966
2,1, 1, 6, 0, 8, 0.00,60.00,Monday
7,-1.1
718,19.633371969402088
719,1.8100060016413664
720,17.871982398281695
619,4395.543713279921
633,1360.1195520901776
659,25.95793297139033
661,0.0
690,141.69237146935674
716,79.64252411701594
843,3075.956587015229
844,3075.956587015229
907,0.0
908,0.0
971,0.0
972,0.0
1195,1164.201044084764
1197,1164.201044084764
2,1, 1, 6, 0, 9, 0.00,60.00,Monday
7,-1.0
718,19.697463498269936
719,2.179041786075103
720,17.74916462515732
619,4404.088700979789
633,1364.135671109365
659,26.16448140186433
661,0.0
690,141.69237146935674
716,0.0
843,3387.5542475186085
844,3387.5542475186085
907,0.0
908,0.0
971,0.0
972,0.0
1195,416.04499973249403
1197,416.04499973249403
2,1, 1, 6, 0,10, 0.00,60.00,Monday
7,-0.6
718,19.714797593959943
719,2.411411102386676
720,17.637849191825413
619,4532.762604618653
633,1395.4548262491082
659,8.609673191987342
661,0.0
690,141.69237146935674
716,0.0
843,3222.9248745059467
844,3222.9248745059467
907,0.0
908,0.0
971,0.0
972,0.0
1195,73.22096762314595
1197,73.22096762314595
2,1, 1, 6, 0,11, 0.00,60.00,Monday
7,0.0
718,19.71867953705202
719,2.7895993462303177
720,17.525780341748952
619,4601.719657965547
633,1401.3392336904449
659,9.812281017870232
661,0.0
690,141.69237146935674
716,0.0
843,3498.351164157575
844,3498.351164157575
907,0.0
908,0.0
971,0.0
972,0.0
1195,331.37545631913326
1197,331.37545631913326
2,1, 1, 6, 0,12, 0.00,60.00,Monday
7,1.1
718,19.747332598270336
719,3.6529575579968783
720,17.43838197426646
619,3802.6982162361332
633,1161.4599616982325
659,4.248934583323554
661,36.63014307388583
690,115.69068958015977
716,0.0
843,2692.6792465067556
844,2692.6792465067556
907,0.0
908,0.0
971,0.0
972,0.0
1195,0.0
1197,0.0
2,1, 1, 6, 0,13, 0.00,60.00,Monday
7,1.1
718,19.635784015242198
719,4.256704397639539
720,17.329862863553206
619,4228.290069483785
633,1279.1832248236408
659,4.68063169089676
661,20.138785627693267
690,127.36903856152529
716,0.0
843,3019.7872268512183
844,3019.7872268512183
907,0.0
908,0.0
971,0.0
972,0.0
1195,0.0
1197,0.0
2,1, 1, 6, 0,14, 0.00,60.00,Monday
7,1.1
718,19.6735101183986
719,5.286445951408413
720,17.241877289803643
619,4470.787114141486
633,1341.0897182326091
659,4.918594267774961
661,10.994669858935445
690,133.8444943491282
716,79.82169766691221
843,2337.8805497122376
844,2337.8805497122376
907,0.0
908,0.0
971,0.0
972,0.0
1195,0.0
1197,0.0
2,1, 1, 6, 0,15, 0.00,60.00,Monday
7,2.8
718,19.86015705079721
719,6.665041717552608
720,17.19253990902507
619,1380.6473788185824
633,434.3577317462975
659,0.020439204875246884
661,140.11013855755272
690,42.42951518017083
716,0.0
843,1007.2466743791956
844,1007.2466743791956
907,0.0
908,0.0
971,0.0
972,0.0
1195,0.0
1197,0.0
2,1, 1, 6, 0,16, 0.00,60.00,Monday
7,2.8
718,19.580498287041355
719,6.3749784798821025
720,17.147583007949127
619,914.1519313582057
633,292.1423688460483
659,0.013697269966905736
661,159.86499448169602
690,28.434008344132685
716,0.0
843,681.8208909667683
844,681.8208909667683
907,0.0
908,0.0
971,0.0
972,0.0
1195,0.0
1197,0.0
2,1, 1, 6, 0,17, 0.00,60.00,Monday
7,2.2
718,19.51029095631336
719,4.678060505385569
720,17.121347662504498
619,1464.6910388984459
633,463.2589113814271
659,0.021963136606582584
661,135.64479556625196
690,45.59300034432948
716,0.0
843,1098.7072913467528
844,1098.7072913467528
907,0.0
908,0.0
971,0.0
972,0.0
1195,0.0
1197,0.0
2,1, 1, 6, 0,18, 0.00,60.00,Monday
7,1.7
718,20.22367306255978
719,4.142838489998474
720,17.10391055143353
619,1837.9806558401162
633,579.8736570748
659,2.224255473132422
661,118.51425270941111
690,57.706038633678006
716,0.0
843,1349.628853643524
844,1349.628853643524
907,0.0
908,0.0
971,0.0
972,0.0
1195,0.0
1197,0.0
2,1, 1, 6, 0,19, 0.00,60.00,Monday
7,1.7
718,19.766031805768577
719,3.5792643299755387
720,17.08869456398689
619,2560.8488356494922
633,807.5464593817933
659,3.0532959039600827
661,88.07574115465584
690,79.26169204169055
716,85.44000000000004
843,815.058598381418
844,815.058598381418
907,0.0
908,0.0
971,0.0
972,0.0
1195,0.0
1197,0.0
2,1, 1, 6, 0,20, 0.00,60.00,Monday
7,1.7
718,19.718816596736286
719,3.4388282803528827
720,17.033585939695907
619,2900.798868879979
633,897.3309610558614
659,3.4234682707139985
661,74.50638230534707
690,88.87122082478017
716,85.44000000000004
843,1060.3457570835862
844,1060.3457570835862
907,0.0
908,0.0
971,0.0
972,0.0
1195,0.0
1197,0.0
2,1, 1, 6, 0,21, 0.00,60.00,Monday
7,0.6
718,19.890783115091313
719,2.569316365204989
720,16.980619571971154
619,1904.7736743186563
633,614.1998377309739
659,4.486365327000412
661,112.75186270188482
690,61.75310538091209
716,33.16944874153951
843,962.1481913755224
844,962.1481913755224
907,0.0
908,0.0
971,0.0
972,0.0
1195,0.0
1197,0.0
2,1, 1, 6, 0,22, 0.00,60.00,Monday
7,0.6
718,19.532834602836367
719,2.1735679592606463
720,16.920589204967122
619,1717.2973134200124
633,558.4835799599609
659,0.8987668468998365
661,121.57235830838913
690,55.55127589381637
716,0.0
843,1205.8945593554527
844,1205.8945593554527
907,0.0
908,0.0
971,0.0
972,0.0
1195,0.0
1197,0.0
2,1, 1, 6, 0,23, 0.00,60.00,Monday
7,0.6
718,18.819952045240065
719,1.6527055045953511
720,16.84702099782446
619,1358.7351467971573
633,441.9675486906892
659,0.021282713207388844
661,137.6385357018706
690,44.1804424269875
716,0.0
843,935.8661661218284
844,935.8661661218284
907,0.0
908,0.0
971,0.0
972,0.0
1195,0.0
1197,0.0
2,1, 1, 6, 0,24, 0.00,60.00,Monday
7,0.0
718,18.481305523282252
719,1.5932641374082925
720,16.75528334935547
619,1998.0663322931484
633,634.9481707934523
659,0.978782287757443
661,108.45737957344134
690,64.84038834839943
716,0.0
843,1415.450151035926
844,1415.450151035926
907,0.0
908,0.0
971,0.0
972,0.0
1195,0.0
1197,0.0
2,2, 1, 7, 0, 1, 0.00,60.00,Tuesday
7,0.0
718,18.57292725719338
719,1.6104964007784937
720,16.66320794256865
619,2793.2782405420903
633,862.9001435508029
659,1.3393132692236738
661,74.7379802737304
690,88.72414813078612
716,0.0
843,1990.1550731713796
844,1990.1550731713796
907,0.0
908,0.0
971,0.0
972,0.0
1195,0.0
1197,0.0
2,2, 1, 7, 0, 2, 0.00,60.00,Tuesday
7,0.0
718,18.585382314069
719,1.6646876163168038
720,16.57797711726286
619,3308.3088997121904
633,1011.1967520470977
659,1.5669435716237474
661,53.448389492581484
690,103.80373628147403
716,0.0
843,2348.2998191251536
844,2348.2998191251536
907,0.0
908,0.0
971,0.0
972,0.0
1195,0.0
1197,0.0
2,2, 1, 7, 0, 3, 0.00,60.00,Tuesday
7,-0.6
718,18.648151479437168
719,1.494048674762063
720,16.48798489074156
619,3390.059319022541
633,1044.6007168088513
659,10.29853457740516
661,46.073061391988745
690,108.8869689977268
716,0.0
843,2391.7530582612035
844,2391.7530582612035
907,0.0
908,0.0
971,0.0
972,0.0
1195,0.0
1197,0.0
2,2, 1, 7, 0, 4, 0.00,60.00,Tuesday
7,0.0
718,18.600039576055046
719,1.808348716086903
720,16.405326772971225
619,3624.3248824979696
633,1101.0456757270076
659,11.952510031292059
661,38.54748251320848
690,114.20933678323632
716,0.0
843,2541.933633002476
844,2541.933633002476
907,0.0
908,0.0
971,0.0
972,0.0
1195,0.0
1197,0.0
2,2, 1, 7, 0, 5, 0.00,60.00,Tuesday
7,0.0
718,18.62240264706294
719,1.895865568942164
720,16.319045276483394
619,3551.5756439280126
633,1079.5275363295216
659,11.727299759651892
661,41.54307675852535
690,112.09038744457283
716,0.0
843,2511.981656261358
844,2511.981656261358
907,0.0
908,0.0
971,0.0
972,0.0
1195,0.0
1197,0.0
2,2, 1, 7, 0, 6, 0.00,60.00,Tuesday
7,-0.6
718,19.334449353091266
719,1.7062441012089185
720,16.229616791298263
619,4503.629960681277
633,1347.755779326994
659,20.477345498958407
661,0.0
690,141.69237146935674
716,0.0
843,3633.243900213156
844,3633.243900213156
907,0.0
908,0.0
971,0.0
972,0.0
1195,550.3732097555448
1197,550.3732097555448
2,2, 1, 7, 0, 7, 0.00,60.00,Tuesday
7,-0.6
718,19.548634117569804
719,2.2216515891605964
720,16.187929029263703
619,4487.8198725649745
633,1366.6061140830918
659,20.469385666547616
661,0.0
690,141.69237146935674
716,85.44000000000004
843,3064.6926838995096
844,3064.6926838995096
907,0.0
908,0.0
971,0.0
972,0.0
1195,1121.6039564481916
1197,1121.6039564481916
2,2, 1, 7, 0, 8, 0.00,60.00,Tuesday
7,-0.6
718,19.649964774295714
719,2.0609371378802632
720,16.11553127869896
619,4483.0455203982465
633,1372.300182059838
659,20.469385666547616
661,0.0
690,141.69237146935674
716,85.44000000000004
843,2827.514881544417
844,2827.514881544417
907,0.0
908,0.0
971,0.0
972,0.0
1195,911.2000511428273
1197,911.2000511428273
2,2, 1, 7, 0, 9, 0.00,60.00,Tuesday
7,0.6
718,19.68530064991086
719,3.3167877416541858
720,16.056562315048104
619,4560.41486490132
633,1373.7088075422155
659,10.026625881052842
661,4.335960813243256
690,138.4890293169248
716,79.86268433518399
843,2214.122322042698
844,2214.122322042698
907,0.0
908,0.0
971,0.0
972,0.0
1195,0.0
1197,0.0
2,2, 1, 7, 0,10, 0.00,60.00,Tuesday
7,1.1
718,19.782055914274665
719,4.272681283771664
720,15.975633338249875
619,2401.8985681533873
633,756.9402065047178
659,5.712769315339796
661,92.72134024890755
690,75.93446124789408
716,0.0
843,1688.554049864637
844,1688.554049864637
907,0.0
908,0.0
971,0.0
972,0.0
1195,0.0
1197,0.0
2,2, 1, 7, 0,11, 0.00,60.00,Tuesday
7,1.7
718,19.856123882143915
719,5.485226088830847
720,15.933392833342879
619,1281.7612682672434
633,412.07636997433127
659,1.564980437763564
661,142.33705214412504
690,40.835444384964994
716,0.0
843,916.9132484954862
844,916.9132484954862
907,0.0
908,0.0
971,0.0
972,0.0
1195,0.0
1197,0.0
2,2, 1, 7, 0,12, 0.00,60.00,Tuesday
7,3.3
718,19.747319801048818
719,7.81316577697923
720,15.912606685153586
619,602.6500104193005
633,192.1431813655624
659,0.008978585176469283
661,173.69143146956878
690,18.638552959030136
716,0.0
843,439.4618303862462
844,439.4618303862462
907,0.0
908,0.0
971,0.0
972,0.0
1195,0.0
1197,0.0
2,2, 1, 7, 0,13, 0.00,60.00,Tuesday
7,3.9
718,20.12126073842853
719,10.370310386614388
720,15.91427328200577
619,80.54008679967608
633,25.685090119761032
659,0.001195772949772519
661,196.49621026279587
690,2.4822942401298795
716,0.0
843,59.33529175168769
844,59.33529175168769
907,0.0
908,0.0
971,0.0
972,0.0
1195,0.0
1197,0.0
2,2, 1, 7, 0,14, 0.00,60.00,Tuesday
7,3.9
718,20.57751568825095
719,11.341694375920527
720,15.939493010709072
619,0.0
633,0.0
659,0.0
661,200.0
690,0.0
716,0.0
843,-717.4611045611346
844,-717.4611045611346
907,0.0
908,0.0
971,0.0
972,0.0
1195,0.0
1197,0.0
2,2, 1, 7, 0,15, 0.00,60.00,Tuesday
7,3.3
718,21.180275331243358
719,10.727395388638621
720,15.98182446302527
619,0.0
633,0.0
659,0.0
661,200.0
690,0.0
716,0.0
843,-1212.9582050334193
844,-1212.9582050334193
907,0.0
908,0.0
971,0.0
972,0.0
1195,0.0
1197,0.0
2,2, 1, 7, 0,16, 0.00,60.00,Tuesday
7,2.8
718,21.43320554326985
719,8.742797457148223
720,16.03541739679783
619,0.0
633,0.0
659,0.0
661,200.0
690,0.0
716,0.0
843,-1415.3886307580688
844,-1415.3886307580688
907,0.0
908,0.0
971,0.0
972,0.0
1195,0.0
1197,0.0
2,2, 1, 7, 0,17, 0.00,60.00,Tuesday
7,2.2
718,21.325722641317856
719,6.9549796754839655
720,16.091865764625634
619,0.0
633,0.0
659,0.0
661,200.0
690,0.0
716,0.0
843,-1305.9788155330261
844,-1305.9788155330261
907,0.0
908,0.0
971,0.0
972,0.0
1195,0.0
1197,0.0
2,2, 1, 7, 0,18, 0.00,60.00,Tuesday
7,1.7
718,20.26767317230288
719,5.105735378546253
720,16.140004053272122
619,0.0
633,0.0
659,0.0
661,200.0
690,0.0
716,66.497289373097
843,-1030.301331830442
844,-1030.301331830442
907,0.0
908,0.0
971,0.0
972,0.0
1195,0.0
1197,0.0
2,2, 1, 7, 0,19, 0.00,60.00,Tuesday
7,1.1
718,20.442588535249765
719,3.21593675890317
720,16.173895423897637
619,0.0
633,0.0
659,0.0
661,200.0
690,0.0
716,0.0
843,-653.943535663886
844,-653.943535663886
907,0.0
908,0.0
971,0.0
972,0.0
1195,0.0
1197,0.0
2,2, 1, 7, 0,20, 0.00,60.00,Tuesday
7,1.1
718,19.155939240050387
719,2.205034317185505
720,16.179967939065413
619,0.0
633,0.0
659,0.0
661,200.0
690,0.0
716,85.44000000000004
843,-363.26228960743356
844,-363.26228960743356
907,0.0
908,0.0
971,0.0
972,0.0
1195,0.0
1197,0.0
2,2, 1, 7, 0,21, 0.00,60.00,Tuesday
7,-0.6
718,19.479944038693812
719,1.7796050467986835
720,16.170138504313233
619,2298.6012794544185
633,738.3158628992742
659,11.100964087193628
661,91.59917531028663
690,76.61899414852928
716,85.44000000000004
843,496.2049877724112
844,496.2049877724112
907,0.0
908,0.0
971,0.0
972,0.0
1195,0.0
1197,0.0
2,2, 1, 7, 0,22, 0.00,60.00,Tuesday
7,0.0
718,19.7569847596771
719,1.878540105512691
720,16.144521134666206
619,1749.7106381761423
633,568.4958245626423
659,6.071181934688192
661,117.98345843548685
690,58.017045016471656
716,36.25009136084021
843,809.2530440439459
844,809.2530440439459
907,0.0
908,0.0
971,0.0
972,0.0
1195,0.0
1197,0.0
2,2, 1, 7, 0,23, 0.00,60.00,Tuesday
7,0.0
718,19.021328695278303
719,1.3985248445230682
720,16.09065845781599
619,578.1471105558262
633,195.05921125825773
659,2.072482920945108
661,172.0162042716749
690,19.79518214383202
716,0.0
843,391.6640732593487
844,391.6640732593487
907,0.0
908,0.0
971,0.0
972,0.0
1195,0.0
1197,0.0
2,2, 1, 7, 0,24, 0.00,60.00,Tuesday
7,-0.6
718,18.551774534310024
719,1.312063477098571
720,16.032806269281924
619,922.5506359271582
633,306.7189722545867
659,7.88966905012857
661,154.19288028682394
690,32.323910566624896
716,0.0
843,641.2086857267623
844,641.2086857267623
907,0.0
908,0.0
971,0.0
972,0.0
1195,0.0
1197,0.0
2,3, 1, 8, 0, 1, 0.00,60.00,Wednesday
7,-1.0
718,18.54573551870641
719,1.0936214802953972
720,15.966603211886866
619,1600.2402329699223
633,520.2453296352589
659,15.619471978180911
661,120.87980212957561
690,55.78235007689816
716,0.0
843,1118.4883078124612
844,1118.4883078124612
907,0.0
908,0.0
971,0.0
972,0.0
1195,0.0
1197,0.0
2,3, 1, 8, 0, 2, 0.00,60.00,Wednesday
7,-1.1
718,18.555590341947948
719,1.4153928095227535
720,15.897196090195795
619,2311.449873748475
633,739.1099358391032
659,34.765892114549985
661,84.91853641169934
690,80.90594353666476
716,0.0
843,1598.8430992005888
844,1598.8430992005888
907,0.0
908,0.0
971,0.0
972,0.0
1195,0.0
1197,0.0
2,3, 1, 8, 0, 3, 0.00,60.00,Wednesday
7,-2.2
718,18.549297935784452
719,1.7819553648268402
720,15.819100358682118
619,2812.395479710959
633,906.1100459271013
659,60.08471642292664
661,54.125947630619045
690,102.06136891682807
716,0.0
843,1926.7268542741622
844,1926.7268542741622
907,0.0
908,0.0
971,0.0
972,0.0
1195,0.0
1197,0.0
2,3, 1, 8, 0, 4, 0.00,60.00,Wednesday
7,-2.0
718,18.579484498101465
719,1.5812054953598091
720,15.748159950134696
619,3131.45793532417
633,995.9765365517017
659,68.66204377919404
661,39.33931951136855
690,112.38827145572947
716,0.0
843,2154.6557557242304
844,2154.6557557242304
907,0.0
908,0.0
971,0.0
972,0.0
1195,0.0
1197,0.0
2,3, 1, 8, 0, 5, 0.00,60.00,Wednesday
7,-2.0
718,18.57279282685082
719,1.5307263496818664
720,15.6764101524787
619,3417.4982206317204
633,1078.8707027469252
659,74.3421470174513
661,26.048581262464033
690,121.68546464688315
716,0.0
843,2336.8669032654925
844,2336.8669032654925
907,0.0
908,0.0
971,0.0
972,0.0
1195,0.0
1197,0.0
2,3, 1, 8, 0, 6, 0.00,60.00,Wednesday
7,-2.0
718,19.209608247779954
719,2.0657392333637152
720,15.606311385528718
619,4043.7643889628844
633,1240.0487931557075
659,85.474608436073
661,0.0
690,141.69237146935674
716,69.02269436933919
843,3403.452215281286
844,3403.452215281286
907,0.0
908,0.0
971,0.0
972,0.0
1195,1677.6150765456532
1197,1677.6150765456532
2,3, 1, 8, 0, 7, 0.00,60.00,Wednesday
7,-2.0
718,19.506781922540135
719,2.119950402123326
720,15.570178591987142
619,4030.6731573309726
633,1255.54728407302
659,85.474608436073
661,0.0
690,141.69237146935674
716,85.44000000000004
843,3235.49517778291
844,3235.49517778291
907,0.0
908,0.0
971,0.0
972,0.0
1195,1858.9929563256164
1197,1858.9929563256164
2,3, 1, 8, 0, 8, 0.00,60.00,Wednesday
7,-1.7
718,19.633811172655072
719,1.6372149939036997
720,15.514800458178021
619,4054.9217529195794
633,1265.0352418271855
659,86.21102028574349
661,0.0
690,141.69237146935674
716,53.61631528358464
843,3069.7282327688317
844,3069.7282327688317
907,0.0
908,0.0
971,0.0
972,0.0
1195,1209.4025568310694
1197,1209.4025568310694
2,3, 1, 8, 0, 9, 0.00,60.00,Wednesday
7,-1.7
718,19.709332255448917
719,1.5357272481373685
720,15.453428569327372
619,3890.7285183376043
633,1235.99250233811
659,62.020017662717606
661,9.53087455526549
690,133.71407618148098
716,0.0
843,2601.307156787547
844,2601.307156787547
907,0.0
908,0.0
971,0.0
972,0.0
1195,0.0
1197,0.0
2,3, 1, 8, 0,10, 0.00,60.00,Wednesday
7,-2.0
718,19.748286512619696
719,2.348893160410137
720,15.383586135095722
619,2887.8658748713133
633,950.2843432730552
659,53.56679175244242
661,52.23155815817944
690,103.57695227284982
716,0.0
843,1909.9593721997826
844,1909.9593721997826
907,0.0
908,0.0
971,0.0
972,0.0
1195,0.0
1197,0.0
2,3, 1, 8, 0,11, 0.00,60.00,Wednesday
7,-1.0
718,19.717642378592664
719,3.3349682235615465
720,15.33911962991019
619,2494.421103544338
633,814.6510724804488
659,30.820974995847966
661,77.47410646467465
690,86.26103930575897
716,0.0
843,1695.0676543292411
844,1695.0676543292411
907,0.0
908,0.0
971,0.0
972,0.0
1195,0.0
1197,0.0
2,3, 1, 8, 0,12, 0.00,60.00,Wednesday
7,0.0
718,19.612679579469646
719,3.4697798530657864
720,15.313149685518205
619,2687.5867842349307
633,856.7359858646956
659,18.50422710674654
661,74.9378433776768
690,88.32790328784006
716,0.0
843,1877.5836851763834
844,1877.5836851763834
907,0.0
908,0.0
971,0.0
972,0.0
1195,0.0
1197,0.0
2,3, 1, 8, 0,13, 0.00,60.00,Wednesday
7,0.0
718,19.56350741579675
719,3.512468104699514
720,15.284029421736184
619,2603.8380170472938
633,829.1837557413706
659,5.841405727363057
661,81.1601660345908
690,84.10865218475958
716,0.0
843,1819.368157683486
844,1819.368157683486
907,0.0
908,0.0
971,0.0
972,0.0
1195,0.0
1197,0.0
2,3, 1, 8, 0,14, 0.00,60.00,Wednesday
7,0.0
718,19.694512982265376
719,3.7888662020057238
720,15.271152408758535
619,2380.8262689112084
633,761.5313626381251
659,5.369947775397467
661,90.75169029232369
690,77.32028917888958
716,0.0
843,1675.8165750499902
844,1675.8165750499902
907,0.0
908,0.0
971,0.0
972,0.0
1195,0.0
1197,0.0
2,3, 1, 8, 0,15, 0.00,60.00,Wednesday
7,0.0
718,19.71607106913152
719,3.9488877775640305
720,15.291737816706345
619,3024.204574420967
633,954.6225329699298
659,1.454763857001878
661,64.45321600789475
690,96.00873845866991
716,68.72846083039074
843,1347.9638438988459
844,1347.9638438988459
907,0.0
908,0.0
971,0.0
972,0.0
1195,0.0
1197,0.0
2,3, 1, 8, 0,16, 0.00,60.00,Wednesday
7,0.0
718,19.674328140421366
719,4.025662786489478
720,15.300441240974665
619,3011.384248911141
633,951.3527624904835
659,0.04598373505672059
661,65.26092683339095
690,95.45683180841358
716,76.28819473367089
843,1244.6602900379185
844,1244.6602900379185
907,0.0
908,0.0
971,0.0
972,0.0
1195,0.0
1197,0.0
2,3, 1, 8, 0,17, 0.00,60.00,Wednesday
7,-1.1
718,19.77845338870819
719,2.179170660547405
720,15.29429209771142
619,2038.320338421766
633,671.858690049986
659,0.032806909450859706
661,103.87095420984818
690,68.10320135234699
716,0.0
843,1433.9763958271105
844,1433.9763958271105
907,0.0
908,0.0
971,0.0
972,0.0
1195,0.0
1197,0.0
2,3, 1, 8, 0,18, 0.00,60.00,Wednesday
7,-1.7
718,19.938560355476163
719,1.1337608898466622
720,15.31584037817885
619,2337.672219596429
633,774.5451903243577
659,0.037940492718088206
661,88.82880396701162
690,78.75984448619957
716,0.0
843,1600.970047684148
844,1600.970047684148
907,0.0
908,0.0
971,0.0
972,0.0
1195,0.0
1197,0.0
2,3, 1, 8, 0,19, 0.00,60.00,Wednesday
7,-2.2
718,19.705584631813547
719,0.02319077815141795
720,15.30717666549526
619,2297.8774784810207
633,771.9489054579433
659,0.03785531611088878
661,89.07838389120377
690,78.58297755908214
716,0.0
843,1534.5262157779016
844,1534.5262157779016
907,0.0
908,0.0
971,0.0
972,0.0
1195,0.0
1197,0.0
2,3, 1, 8, 0,20, 0.00,60.00,Wednesday
7,-2.2
718,19.66297259565047
719,0.27012155456098197
720,15.309322004032502
619,4196.963704669529
633,1334.162792450068
659,0.0657455622883501
661,7.3558810169950695
690,136.47969800538777
716,85.44000000000004
843,1687.2635820108535
844,1687.2635820108535
907,0.0
908,0.0
971,0.0
972,0.0
1195,0.0
1197,0.0
2,3, 1, 8, 0,21, 0.00,60.00,Wednesday
7,-2.8
718,19.511237759609344
719,-0.0029324390320193705
720,15.261993462477534
619,4305.02554565066
633,1376.8886850363403
659,0.06825597649741924
661,0.0
690,141.69237146935674
716,85.44000000000004
843,1884.961420655016
844,1884.961420655016
907,0.0
908,0.0
971,0.0
972,0.0
1195,95.54990140887367
1197,95.54990140887367
2,3, 1, 8, 0,22, 0.00,60.00,Wednesday
7,-3.3
718,19.671287730512947
719,-0.3063724531917432
720,15.19323721442036
619,3605.75260693153
633,1180.381504885767
659,5.255779505178136
661,26.26151206883027
690,122.96575843369322
716,17.460489019856887
843,2158.536129407128
844,2158.536129407128
907,0.0
908,0.0
971,0.0
972,0.0
1195,0.0
1197,0.0
2,3, 1, 8, 0,23, 0.00,60.00,Wednesday
7,-3.3
718,18.900573214425254
719,-0.0837331581764856
720,15.12857544368262
619,3062.772223884786
633,1021.6282286229333
659,8.894980759502621
661,49.211802754154796
690,106.62114953780168
716,0.0
843,1969.6562623545287
844,1969.6562623545287
907,0.0
908,0.0
971,0.0
972,0.0
1195,0.0
1197,0.0
2,3, 1, 8, 0,24, 0.00,60.00,Wednesday
7,-4.4
718,18.616384246152847
719,-0.37011884174441406
720,15.029065647016777
619,4037.367864802945
633,1311.749274457366
659,9.601679220385355
661,2.002645877187037
690,140.02106235848925
716,0.0
843,2649.3703286521086
844,2649.3703286521086
907,0.0
908,0.0
971,0.0
972,0.0
1195,0.0
1197,0.0
2,4, 1, 9, 0, 1, 0.00,60.00,Thursday
7,-4.4
718,18.617214854977767
719,-0.5657914072245493
720,14.950850421728047
619,4081.3684543408694
633,1314.545266002662
659,0.06743376183553747
661,2.4092092856157654
690,139.98378205538526
716,0.0
843,2690.7152285363372
844,2690.7152285363372
907,0.0
908,0.0
971,0.0
972,0.0
1195,0.0
1197,0.0
2,4, 1, 9, 0, 2, 0.00,60.00,Thursday
7,-4.4
718,18.608745092526192
719,-0.8579124162519908
720,14.869067018963877
619,4137.420870041083
633,1330.4727458699263
659,0.06825597649741924
661,0.0
690,141.69237146935674
716,0.0
843,3041.8312900323017
844,3041.8312900323017
907,0.0
908,0.0
971,0.0
972,0.0
1195,386.5269854068638
1197,386.5269854068638
2,4, 1, 9, 0, 3, 0.00,60.00,Thursday
7,-5.0
718,18.60785533748651
719,-1.443874162201781
720,14.778870358735887
619,4052.3221696482296
633,1318.6656044178976
659,3.6510968814258336
661,0.0
690,141.69237146935674
716,0.0
843,3336.7603294338714
844,3336.7603294338714
907,0.0
908,0.0
971,0.0
972,0.0
1195,843.1608077929368
1197,843.1608077929368
2,4, 1, 9, 0, 4, 0.00,60.00,Thursday
7,-5.0
718,18.606058718952355
719,-1.420388909895708
720,14.69328865159063
619,4052.465551549927
633,1318.507456186746
659,3.6496595750239544
661,0.0
690,141.69237146935674
716,0.0
843,3722.9862759134285
844,3722.9862759134285
907,0.0
908,0.0
971,0.0
972,0.0
1195,1339.6106528828882
1197,1339.6106528828882
2,4, 1, 9, 0, 5, 0.00,60.00,Thursday
7,-5.6
718,18.608387963342427
719,-1.7256114901505013
720,14.603924905994218
619,3947.581004905312
633,1300.105267514264
659,12.37253187278191
661,0.0
690,141.69237146935674
716,0.0
843,3731.9535007024915
844,3731.9535007024915
907,0.0
908,0.0
971,0.0
972,0.0
1195,1459.4393636448822
1197,1459.4393636448822
2,4, 1, 9, 0, 6, 0.00,60.00,Thursday
7,-5.6
718,19.382483002601155
719,-1.71670609850459
720,14.513545206952504
619,3947.713680408997
633,1300.0168510940018
659,12.36168363248982
661,0.0
690,141.69237146935674
716,0.0
843,5309.0937355944225
844,5309.0937355944225
907,0.0
908,0.0
971,0.0
972,0.0
1195,3372.2718689622166
1197,3372.2718689622166
2,4, 1, 9, 0, 7, 0.00,60.00,Thursday
7,-5.6
718,19.571659006454418
719,-1.7584681183856397
720,14.466972265218901
619,3968.965425092464
633,1332.345600971177
659,2.915218717804302
661,0.0
690,141.69237146935674
716,85.44000000000004
843,4991.416198264022
844,4991.416198264022
907,0.0
908,0.0
971,0.0
972,0.0
1195,4265.425523623475
1197,4265.425523623475
2,4, 1, 9, 0, 8, 0.00,60.00,Thursday
7,-5.6
718,19.655182090260496
719,-1.766013842741796
720,14.386150372192168
619,3964.8110080246756
633,1337.166530948551
659,2.915218717804302
661,0.0
690,141.69237146935674
716,85.44000000000004
843,4740.854420456253
844,4740.854420456253
907,0.0
908,0.0
971,0.0
972,0.0
1195,4004.630528127412
1197,4004.630528127412
2,4, 1, 9, 0, 9, 0.00,60.00,Thursday
7,-5.0
718,19.689261389026566
719,-0.7363641341157726
720,14.314255739308848
619,4044.4173826120823
633,1349.8928745594762
659,0.06825597649741924
661,0.0
690,141.69237146935674
716,68.74399712805469
843,4159.867188004586
844,4159.867188004586
907,0.0
908,0.0
971,0.0
972,0.0
1195,2922.097016347245
1197,2922.097016347245
2,4, 1, 9, 0,10, 0.00,60.00,Thursday
7,-4.4
718,19.716217986198355
719,0.6715141579909449
720,14.254581353564689
619,4114.29357576173
633,1357.5467466667785
659,0.06825597649741924
661,0.0
690,141.69237146935674
716,0.0
843,3164.168714214504
844,3164.168714214504
907,0.0
908,0.0
971,0.0
972,0.0
1195,688.8334730474171
1197,688.8334730474171
2,4, 1, 9, 0,11, 0.00,60.00,Thursday
7,-3.3
718,19.773864061976376
719,2.4369079833080654
720,14.203395800717301
619,3484.7550976607918
633,1148.194637360529
659,0.057162023462414585
661,32.50690592764172
690,118.66115457734332
716,0.0
843,2254.819918209705
844,2254.819918209705
907,0.0
908,0.0
971,0.0
972,0.0
1195,0.0
1197,0.0
2,4, 1, 9, 0,12, 0.00,60.00,Thursday
7,-2.2
718,19.915319067485584
719,5.0545224065649155
720,14.15169337420723
619,1938.1249049904973
633,653.7702996247897
659,0.03220085681681216
661,105.64677711986239
690,66.84501668740738
716,0.0
843,1297.808303617725
844,1297.808303617725
907,0.0
908,0.0
971,0.0
972,0.0
1195,0.0
1197,0.0
2,4, 1, 9, 0,13, 0.00,60.00,Thursday
7,-2.2
718,19.71746225486752
719,5.381456577928666
720,14.140902986418416
619,1190.4396767014807
633,411.23297925206487
659,0.020197367996900476
661,140.818756002519
690,41.92725052663151
716,0.0
843,832.0993716556168
844,832.0993716556168
907,0.0
908,0.0
971,0.0
972,0.0
1195,0.0
1197,0.0