Program Version,EnergyPlus, Version 22.2.0-c249759bad, YMD=2023.09.01 15:32
1,5,Environment Title[],Latitude[deg],Longitude[deg],Time Zone[],Elevation[m]
2,8,Day of Simulation[],Month[],Day of Month[],DST Indicator[1=yes 0=no],Hour[],StartMinute[],EndMinute[],DayType
3,5,Cumulative Day of Simulation[],Month[],Day of Month[],DST Indicator[1=yes 0=no],DayType  ! When Daily Report Variables Requested
4,2,Cumulative Days of Simulation[],Month[]  ! When Monthly Report Variables Requested
5,1,Cumulative Days of Simulation[] ! When Run Period Report Variables Requested
6,1,Calendar Year of Simulation[] ! When Annual Report Variables Requested
581,11,LIVING,AFN Zone Infiltration Air Change Rate [ach] !RunPeriod [Value,Min,Month,Day,Hour,Minute,Max,Month,Day,Hour,Minute]
582,11,ATTIC,AFN Zone Infiltration Air Change Rate [ach] !RunPeriod [Value,Min,Month,Day,Hour,Minute,Max,Month,Day,Hour,Minute]
583,11,CRAWLSPACE,AFN Zone Infiltration Air Change Rate [ach] !RunPeriod [Value,Min,Month,Day,Hour,Minute,Max,Month,Day,Hour,Minute]
1038,11,Facility,Facility Heating Setpoint Not Met Time [hr] !RunPeriod [Value,Min,Month,Day,Hour,Minute,Max,Month,Day,Hour,Minute]
1039,11,Facility,Facility Cooling Setpoint Not Met Time [hr] !RunPeriod [Value,Min,Month,Day,Hour,Minute,Max,Month,Day,Hour,Minute]
1115,11,DX_HEATING_COIL,Heating Coil Heating Energy [J] !RunPeriod [Value,Min,Month,Day,Hour,Minute,Max,Month,Day,Hour,Minute]
1128,11,DX_HEATING_COIL,Heating Coil Electricity Energy [J] !RunPeriod [Value,Min,Month,Day,Hour,Minute,Max,Month,Day,Hour,Minute]
1153,11,DX_HEATING_COIL,Heating Coil Defrost Electricity Energy [J] !RunPeriod [Value,Min,Month,Day,Hour,Minute,Max,Month,Day,Hour,Minute]
1154,11,DX_HEATING_COIL,Heating Coil Crankcase Heater Electricity Energy [J] !RunPeriod [Value,Min,Month,Day,Hour,Minute,Max,Month,Day,Hour,Minute]
1155,11,HEATING_RESISTANCE_BACKUP,Heating Coil Heating Energy [J] !RunPeriod [Value,Min,Month,Day,Hour,Minute,Max,Month,Day,Hour,Minute]
1156,11,HEATING_RESISTANCE_BACKUP,Heating Coil Electricity Energy [J] !RunPeriod [Value,Min,Month,Day,Hour,Minute,Max,Month,Day,Hour,Minute]
1292,11,WATER HEATER,Water Heater Heat Loss Energy [J] !RunPeriod [Value,Min,Month,Day,Hour,Minute,Max,Month,Day,Hour,Minute]
1306,11,WATER HEATER,Water Heater Heating Energy [J] !RunPeriod [Value,Min,Month,Day,Hour,Minute,Max,Month,Day,Hour,Minute]
1307,11,WATER HEATER,Water Heater Unmet Demand Heat Transfer Energy [J] !RunPeriod [Value,Min,Month,Day,Hour,Minute,Max,Month,Day,Hour,Minute]
1308,11,WATER HEATER,Water Heater Electricity Energy [J] !RunPeriod [Value,Min,Month,Day,Hour,Minute,Max,Month,Day,Hour,Minute]
13,11,Electricity:Facility [J] !RunPeriod [Value,Min,Month,Day,Hour,Minute,Max,Month,Day,Hour,Minute]
1134,11,Heating:Electricity [J] !RunPeriod [Value,Min,Month,Day,Hour,Minute,Max,Month,Day,Hour,Minute]
1096,11,Cooling:Electricity [J] !RunPeriod [Value,Min,Month,Day,Hour,Minute,Max,Month,Day,Hour,Minute]
562,11,Fans:Electricity [J] !RunPeriod [Value,Min,Month,Day,Hour,Minute,Max,Month,Day,Hour,Minute]
1379,11,Pumps:Electricity [J] !RunPeriod [Value,Min,Month,Day,Hour,Minute,Max,Month,Day,Hour,Minute]
1326,11,WaterSystems:Electricity [J] !RunPeriod [Value,Min,Month,Day,Hour,Minute,Max,Month,Day,Hour,Minute]
61,11,InteriorLights:Electricity [J] !RunPeriod [Value,Min,Month,Day,Hour,Minute,Max,Month,Day,Hour,Minute]
1046,11,ExteriorLights:Electricity [J] !RunPeriod [Value,Min,Month,Day,Hour,Minute,Max,Month,Day,Hour,Minute]
134,11,InteriorEquipment:Electricity [J] !RunPeriod [Value,Min,Month,Day,Hour,Minute,Max,Month,Day,Hour,Minute]
170,11,gas_dryer:InteriorEquipment:Electricity [J] !RunPeriod [Value,Min,Month,Day,Hour,Minute,Max,Month,Day,Hour,Minute]
207,11,clotheswasher:InteriorEquipment:Electricity [J] !RunPeriod [Value,Min,Month,Day,Hour,Minute,Max,Month,Day,Hour,Minute]
244,11,dishwasher:InteriorEquipment:Electricity [J] !RunPeriod [Value,Min,Month,Day,Hour,Minute,Max,Month,Day,Hour,Minute]
281,11,refrigerator:InteriorEquipment:Electricity [J] !RunPeriod [Value,Min,Month,Day,Hour,Minute,Max,Month,Day,Hour,Minute]
318,11,electric_mels:InteriorEquipment:Electricity [J] !RunPeriod [Value,Min,Month,Day,Hour,Minute,Max,Month,Day,Hour,Minute]
355,11,NaturalGas:Facility [J] !RunPeriod [Value,Min,Month,Day,Hour,Minute,Max,Month,Day,Hour,Minute]
403,11,InteriorEquipment:NaturalGas [J] !RunPeriod [Value,Min,Month,Day,Hour,Minute,Max,Month,Day,Hour,Minute]
476,11,gas_dryer:InteriorEquipment:NaturalGas [J] !RunPeriod [Value,Min,Month,Day,Hour,Minute,Max,Month,Day,Hour,Minute]
513,11,gas_mels:InteriorEquipment:NaturalGas [J] !RunPeriod [Value,Min,Month,Day,Hour,Minute,Max,Month,Day,Hour,Minute]
End of Data Dictionary
1,EXTREME_WINTER,  34.65,-112.42,  -7.00,1539.80
5,7
1038,0.25,0.0, 1, 6, 1,15,0.25, 1, 7, 6,15
1039,0.0,0.0, 1, 6, 1,15,0.0, 1, 6, 1,15
581,0.29296321581205537,0.19869258198786344, 1,10,23,15,0.6212276429284608, 1, 7, 3,60
582,2.4276405969091877,0.0, 1, 9, 9,48,9.36506372857085, 1, 8,16,48
583,0.02913444549761458,0.000323681614848958, 1,10,21,50,0.08966982376422704, 1, 7, 6, 5
1115,916049134.8426037,0.0, 1, 6,23, 5,4411629.221147392, 1,12, 8,30
1128,301877895.1601836,0.0, 1, 6,23, 5,1491587.4971555765, 1,12, 8,30
1153,23216281.332692493,0.0, 1, 6,23, 5,121903.71121852318, 1, 6, 6,45
1154,79862023.4879741,0.0, 1, 6, 6, 5,180000.0, 1, 8,13,60
1155,25391661.14902413,0.0, 1, 6, 1,15,1176222.95119423, 1,12, 6,45
1156,25391661.14902413,0.0, 1, 6, 1,15,1176222.95119423, 1,12, 6,45
1292,-24925932.859187257,-39771.568209880235, 1, 7,23,45,-4026.9560211713765, 1,12,11,16
1306,221781853.32449803,0.0, 1, 6, 1,15,7228216.5520059345, 1,10, 6,60
1307,5036100.43721181,0.0, 1, 6, 1,15,1007736.9425024746, 1,12,19,51
1308,221781853.32449803,0.0, 1, 6, 1,15,7228216.5520059345, 1,10, 6,60
13,1063809137.53883,286601.99457735504, 1,12,14,30,12020910.284802387, 1,12,19,60
61,301924526.02383536,88139.10953165221, 1, 6, 1,15,1282023.4113694867, 1, 6,20,15
134,70666020.44019976,63564.01800854099, 1, 6, 4,15,156554.22484006523, 1,11,20,15
170,5241013.419656067,348.4159749238097, 1, 6, 4,15,17476.39704006126, 1,11,12,15
207,6509451.13922267,815.2532113832032, 1, 6, 3,15,22990.642799023623, 1,11,10,15
244,12749673.399825225,1521.856143006317, 1, 6, 4,15,53038.631142310165, 1,11,20,15
281,46165882.481495745,59938.60262432081, 1, 6, 5,15,81951.81706819107, 1, 6,19,15
318,0.0,0.0, 1, 6, 1,15,0.0, 1, 6, 1,15
355,197687796.27748066,18561.32405820678, 1, 6, 4,15,724774.895203776, 1,11,18,15
403,197687796.27748066,18561.32405820678, 1, 6, 4,15,724774.895203776, 1,11,18,15
476,106772067.24485716,7098.072629279515, 1, 6, 4,15,356036.3026282215, 1,11,12,15
513,0.0,0.0, 1, 6, 1,15,0.0, 1, 6, 1,15
562,34817504.39389449,0.0, 1, 6,23,15,163505.94288111306, 1, 9, 6,30
1046,0.0,0.0, 1, 6, 1,15,0.0, 1, 6, 1,15
1096,4271372.226529156,0.0, 1, 6, 1,15,229764.59824375086, 1,12,17,30
1134,430347861.1298743,0.0, 1,12,14,30,3139450.0205363724, 1,12, 6,15
1326,221781853.32449803,0.0, 1, 6, 1,15,10536442.18047157, 1,12,19,60
1379,0.0,0.0, 1, 6, 1,15,0.0, 1, 6, 1,15
1,EXTREME_SUMMER,  34.65,-112.42,  -7.00,1539.80
5,7
1038,0.0,0.0, 7,27, 1,15,0.0, 7,27, 1,15
1039,1.25,0.0, 7,27, 1,15,0.25, 8, 1,18,30
581,0.13125920608823916,0.003538350694225048, 8, 2,19,60,0.6180220377452211, 8, 2,17,46
582,2.9135624827336244,0.024227673115636266, 7,27,22,52,13.767831126531231, 8, 2,17,31
583,0.03821513166035101,0.00031043867323300164, 7,27,23, 3,0.0886285404766187, 8, 2,17,46
1115,0.0,0.0, 7,27, 1,15,0.0, 7,27, 1,15
1128,0.0,0.0, 7,27, 1,15,0.0, 7,27, 1,15
1153,0.0,0.0, 7,27, 1,15,0.0, 7,27, 1,15
1154,0.0,0.0, 7,27, 1,15,0.0, 7,27, 1,15
1155,0.0,0.0, 7,27, 1,15,0.0, 7,27, 1,15
1156,0.0,0.0, 7,27, 1,15,0.0, 7,27, 1,15
1292,-22120442.665927414,-34346.77889259513, 7,31,16,15,-2686.9476197876947, 8, 2,10,46
1306,166651694.51310995,0.0, 7,27, 1,15,5450243.435316279, 7,31, 6,60
1307,863325.8259441615,0.0, 7,27, 1,15,230734.9105493935, 8, 2,19,52
1308,166651694.51310995,0.0, 7,27, 1,15,5450243.435316279, 7,31, 6,60
13,1070099928.8312938,151703.1275401932, 7,28, 4,60,12388007.474904085, 8, 2,19,60
61,301924526.02383536,88139.10953165221, 7,27, 1,15,1282023.4113694867, 7,27,20,15
134,70666020.44019976,63564.01800854099, 7,27, 4,15,156554.22484006523, 8, 1,20,15
170,5241013.419656067,348.4159749238097, 7,27, 4,15,17476.39704006126, 8, 1,12,15
207,6509451.13922267,815.2532113832032, 7,27, 3,15,22990.642799023623, 8, 1,10,15
244,12749673.399825225,1521.856143006317, 7,27, 4,15,53038.631142310165, 8, 1,20,15
281,46165882.481495745,59938.60262432081, 7,27, 5,15,81951.81706819107, 7,27,19,15
318,0.0,0.0, 7,27, 1,15,0.0, 7,27, 1,15
355,197687796.27748066,18561.32405820678, 7,27, 4,15,724774.895203776, 8, 1,18,15
403,197687796.27748066,18561.32405820678, 7,27, 4,15,724774.895203776, 8, 1,18,15
476,106772067.24485716,7098.072629279515, 7,27, 4,15,356036.3026282215, 8, 1,12,15
513,0.0,0.0, 7,27, 1,15,0.0, 7,27, 1,15
562,50598641.34246185,0.0, 7,28, 4,60,163505.94288111306, 8, 1,18,15
1046,0.0,0.0, 7,27, 1,15,0.0, 7,27, 1,15
1096,480259046.511688,0.0, 7,28, 4,60,1778880.5946324822, 8, 2,16,30
1134,0.0,0.0, 7,27, 1,15,0.0, 7,27, 1,15
1326,166651694.51310995,0.0, 7,27, 1,15,9857986.328589704, 8, 2,19,60
1379,0.0,0.0, 7,27, 1,15,0.0, 7,27, 1,15
1,ANNUAL,  34.65,-112.42,  -7.00,1539.80
5,365
1038,0.5,0.0, 1, 1, 1,15,0.25, 1, 7, 6,15
1039,65.0,0.0, 1, 1, 1,15,0.25, 1,13,15,15
581,0.2253730529227978,0.0, 7, 6,23, 3,1.5063555756764018,12,27, 2,60
582,3.178820873327387,0.0, 1, 1, 9,48,32.090092428155046,12,27, 2,60
583,0.024727945121930446,0.0, 8, 5,23, 3,0.11120574690623528,12,27, 2,60
1115,9637567374.445902,0.0, 1, 1, 1, 7,4899554.098609473,12,27, 2,60
1128,3129912350.467935,0.0, 1, 1, 1, 7,1539796.1995755367, 1,27, 6,45
1153,131088205.13891843,0.0, 1, 1, 1, 7,170160.92011738068,12,27, 2,60
1154,1883030739.8619187,0.0, 1, 1, 6, 5,180000.0, 1, 1,21,15
1155,132235629.95929252,0.0, 1, 1, 1, 7,1528451.1440756542,12,28, 6,45
1156,132235629.95929252,0.0, 1, 1, 1, 7,1528451.1440756542,12,28, 6,45
1292,-1204239124.8355393,-39798.93419612984, 1,12, 3,15,-2142.036669845486, 7,16,17,28
1306,10260540615.529676,0.0, 1, 1, 1, 7,10375197.615586087, 6,25,19,60
1307,158545515.42146593,0.0, 1, 1, 1, 7,4279298.35271917,12,17,19,60
1308,10260540615.529676,0.0, 1, 1, 1, 7,10375197.615586087, 6,25,19,60
13,46803082939.25212,151703.1275401932, 3,21, 4,15,13532334.563821103, 6,18,19,60
61,15743207428.383959,88139.10953165221, 1, 1, 1,15,1282023.4113694867, 1, 1,20,15
134,3685071073.4325233,63564.01800854099, 1, 2, 4,15,156554.22484006523, 1, 1,20,15
170,273393721.45532674,348.4159749238097, 1, 2, 4,15,17476.39704006126, 1, 1,12,15
207,339560869.0695816,815.2532113832032, 1, 2, 3,15,22990.642799023623, 1, 1,10,15
244,664895467.8009144,1521.856143006317, 1, 2, 4,15,53038.631142310165, 1, 1,20,15
281,2407221015.106824,59938.60262432081, 1, 1, 5,15,81951.81706819107, 1, 1,19,15
318,0.0,0.0, 1, 1, 1,15,0.0, 1, 1, 1,15
355,10310294493.051695,18561.32405820678, 1, 2, 4,15,724774.895203776, 1, 1,18,15
403,10310294493.051695,18561.32405820678, 1, 2, 4,15,724774.895203776, 1, 1,18,15
476,5569688622.066177,7098.072629279515, 1, 2, 4,15,356036.3026282215, 1, 1,12,15
513,0.0,0.0, 1, 1, 1,15,0.0, 1, 1, 1,15
562,1566812726.8381736,0.0, 1, 1, 1,15,163505.94288111306, 1, 1, 6,45
1046,0.0,0.0, 1, 1, 1,15,0.0, 1, 1, 1,15
1096,10271184169.637075,0.0, 1, 1, 1,15,1839531.9034541273, 7, 5,17,60
1134,5276266925.428031,0.0, 1, 1,15,60,3590913.774040876,12,28, 6,15
1326,10260540615.529688,0.0, 1, 1, 1,15,10540800.0, 1,15,19,60
1379,0.0,0.0, 1, 1, 1,15,0.0, 1, 1, 1,15
End of Data
 Number of Records Written=          99
