Program Version,EnergyPlus, Version 22.2.0-c249759bad, YMD=2023.07.07 15:16
1,5,Environment Title[],Latitude[deg],Longitude[deg],Time Zone[],Elevation[m]
2,8,Day of Simulation[],Month[],Day of Month[],DST Indicator[1=yes 0=no],Hour[],StartMinute[],EndMinute[],DayType
3,5,Cumulative Day of Simulation[],Month[],Day of Month[],DST Indicator[1=yes 0=no],DayType  ! When Daily Report Variables Requested
4,2,Cumulative Days of Simulation[],Month[]  ! When Monthly Report Variables Requested
5,1,Cumulative Days of Simulation[] ! When Run Period Report Variables Requested
6,1,Calendar Year of Simulation[] ! When Annual Report Variables Requested
581,11,LIVING,AFN Zone Infiltration Air Change Rate [ach] !RunPeriod [Value,Min,Month,Day,Hour,Minute,Max,Month,Day,Hour,Minute]
582,11,ATTIC,AFN Zone Infiltration Air Change Rate [ach] !RunPeriod [Value,Min,Month,Day,Hour,Minute,Max,Month,Day,Hour,Minute]
583,11,CRAWLSPACE,AFN Zone Infiltration Air Change Rate [ach] !RunPeriod [Value,Min,Month,Day,Hour,Minute,Max,Month,Day,Hour,Minute]
1038,11,Facility,Facility Heating Setpoint Not Met Time [hr] !RunPeriod [Value,Min,Month,Day,Hour,Minute,Max,Month,Day,Hour,Minute]
1039,11,Facility,Facility Cooling Setpoint Not Met Time [hr] !RunPeriod [Value,Min,Month,Day,Hour,Minute,Max,Month,Day,Hour,Minute]
1115,11,DX_HEATING_COIL,Heating Coil Heating Energy [J] !RunPeriod [Value,Min,Month,Day,Hour,Minute,Max,Month,Day,Hour,Minute]
1128,11,DX_HEATING_COIL,Heating Coil Electricity Energy [J] !RunPeriod [Value,Min,Month,Day,Hour,Minute,Max,Month,Day,Hour,Minute]
1153,11,DX_HEATING_COIL,Heating Coil Defrost Electricity Energy [J] !RunPeriod [Value,Min,Month,Day,Hour,Minute,Max,Month,Day,Hour,Minute]
1154,11,DX_HEATING_COIL,Heating Coil Crankcase Heater Electricity Energy [J] !RunPeriod [Value,Min,Month,Day,Hour,Minute,Max,Month,Day,Hour,Minute]
1156,11,HEATING_RESISTANCE_BACKUP,Heating Coil Electricity Energy [J] !RunPeriod [Value,Min,Month,Day,Hour,Minute,Max,Month,Day,Hour,Minute]
13,11,Electricity:Facility [J] !RunPeriod [Value,Min,Month,Day,Hour,Minute,Max,Month,Day,Hour,Minute]
1134,11,Heating:Electricity [J] !RunPeriod [Value,Min,Month,Day,Hour,Minute,Max,Month,Day,Hour,Minute]
1096,11,Cooling:Electricity [J] !RunPeriod [Value,Min,Month,Day,Hour,Minute,Max,Month,Day,Hour,Minute]
562,11,Fans:Electricity [J] !RunPeriod [Value,Min,Month,Day,Hour,Minute,Max,Month,Day,Hour,Minute]
1388,11,Pumps:Electricity [J] !RunPeriod [Value,Min,Month,Day,Hour,Minute,Max,Month,Day,Hour,Minute]
1360,11,WaterSystems:Electricity [J] !RunPeriod [Value,Min,Month,Day,Hour,Minute,Max,Month,Day,Hour,Minute]
61,11,InteriorLights:Electricity [J] !RunPeriod [Value,Min,Month,Day,Hour,Minute,Max,Month,Day,Hour,Minute]
1046,11,ExteriorLights:Electricity [J] !RunPeriod [Value,Min,Month,Day,Hour,Minute,Max,Month,Day,Hour,Minute]
134,11,InteriorEquipment:Electricity [J] !RunPeriod [Value,Min,Month,Day,Hour,Minute,Max,Month,Day,Hour,Minute]
170,11,gas_dryer:InteriorEquipment:Electricity [J] !RunPeriod [Value,Min,Month,Day,Hour,Minute,Max,Month,Day,Hour,Minute]
207,11,clotheswasher:InteriorEquipment:Electricity [J] !RunPeriod [Value,Min,Month,Day,Hour,Minute,Max,Month,Day,Hour,Minute]
244,11,dishwasher:InteriorEquipment:Electricity [J] !RunPeriod [Value,Min,Month,Day,Hour,Minute,Max,Month,Day,Hour,Minute]
281,11,refrigerator:InteriorEquipment:Electricity [J] !RunPeriod [Value,Min,Month,Day,Hour,Minute,Max,Month,Day,Hour,Minute]
318,11,electric_mels:InteriorEquipment:Electricity [J] !RunPeriod [Value,Min,Month,Day,Hour,Minute,Max,Month,Day,Hour,Minute]
355,11,NaturalGas:Facility [J] !RunPeriod [Value,Min,Month,Day,Hour,Minute,Max,Month,Day,Hour,Minute]
1323,11,WaterSystems:NaturalGas [J] !RunPeriod [Value,Min,Month,Day,Hour,Minute,Max,Month,Day,Hour,Minute]
403,11,InteriorEquipment:NaturalGas [J] !RunPeriod [Value,Min,Month,Day,Hour,Minute,Max,Month,Day,Hour,Minute]
476,11,gas_dryer:InteriorEquipment:NaturalGas [J] !RunPeriod [Value,Min,Month,Day,Hour,Minute,Max,Month,Day,Hour,Minute]
513,11,gas_mels:InteriorEquipment:NaturalGas [J] !RunPeriod [Value,Min,Month,Day,Hour,Minute,Max,Month,Day,Hour,Minute]
End of Data Dictionary
1,EXTREME_WINTER,  46.68, -68.05,  -5.00, 146.00
5,15
1038,49.666666666666664,0.0,12,22, 1,10,0.16666666666666666,12,23, 1,60
1039,0.0,0.0,12,22, 1,10,0.0,12,22, 1,10
581,0.39049803534421457,0.20110974622748135,12,22,21,60,0.8094858809983965,12,31,13,60
582,4.294371465158999,0.0, 1, 5,21,40,15.844932173362608,12,31,13,60
583,5.2093108916101105,0.00044848377284225824,12,27,23, 2,21.154474913490162,12,31,13,60
1115,3149069658.1372485,0.0,12,22,23, 3,2107214.100468347,12,23, 6,60
1128,1126413132.0187063,0.0,12,22,23, 3,592179.2854369177,12,22, 9,10
1153,22555223.367333803,0.0,12,22,23, 3,55141.2692171574,12,23, 6,60
1154,6703781.233002076,0.0,12,22, 1,52,92581.10051876049,12,23,15,10
1156,6022848859.989743,0.0,12,22, 1, 2,6351166.2980652, 1, 2, 1,50
13,8124604081.102762,439723.8568827202,12,23,15,10,7683137.784962974, 1, 3,21,60
61,646981127.1939279,58759.40635443481,12,22, 1,10,854682.2742463244,12,22,20,10
134,151290040.75163832,42376.01200569399,12,22, 4,10,104369.48322671017,12,27,20,10
170,11185820.069951665,232.27731661587313,12,22, 4,10,11650.931360040839,12,27,12,10
207,13893028.574283868,543.5021409221355,12,22, 3,10,15327.095199349082,12,27,10,10
244,27284301.07562606,1014.5707620042115,12,22, 4,10,35359.08742820678,12,27,20,10
281,98926891.03177528,39959.06841621388,12,22, 5,10,54634.54471212738,12,22,19,10
318,0.0,0.0,12,22, 1,10,0.0,12,22, 1,10
355,1575822193.036829,12374.216038804521,12,22, 4,10,3829218.154066982,12,23,18,60
403,422701517.161075,12374.216038804521,12,22, 4,10,483183.26346918393,12,27,18,10
476,227882097.80545104,4732.048419519677,12,22, 4,10,237357.535085481,12,27,12,10
513,0.0,0.0,12,22, 1,10,0.0,12,22, 1,10
562,137055116.54841435,0.0,12,22,23,10,65152.81228348061,12,22, 2,10
1046,0.0,0.0,12,22, 1,10,0.0,12,22, 1,10
1096,0.0,0.0,12,22, 1,10,0.0,12,22, 1,10
1134,7178520996.608783,120000.0,12,22,23,10,6827374.456902289, 1, 3,15,30
1323,1153120675.8757522,0.0,12,22, 1,10,3375000.000000001,12,27, 9,50
1360,10756800.0,4980.0,12,22, 1,10,4980.000000000002,12,27, 2,20
1388,0.0,0.0,12,22, 1,10,0.0,12,22, 1,10
1,EXTREME_SUMMER,  46.68, -68.05,  -5.00, 146.00
5,7
1038,0.0,0.0, 7, 6, 1,10,0.0, 7, 6, 1,10
1039,30.166666666666664,0.0, 7, 6, 1,10,0.16666666666666666, 7, 6,12,10
581,0.1577710012048192,0.0, 7, 6,20,55,0.6649156542074639, 7, 9,17,60
582,3.116314246227399,0.0, 7, 6, 2,23,13.812793783668095, 7, 9,17,60
583,3.583994234915805,0.0000793355287464046, 7, 6, 2,26,19.079982172776223, 7, 9,17,60
1115,0.0,0.0, 7, 6, 1,10,0.0, 7, 6, 1,10
1128,0.0,0.0, 7, 6, 1,10,0.0, 7, 6, 1,10
1153,0.0,0.0, 7, 6, 1,10,0.0, 7, 6, 1,10
1154,3360000.0,0.0, 7, 6, 1,10,120000.0, 7, 8, 2,40
1156,0.0,0.0, 7, 6, 1,10,0.0, 7, 6, 1,10
13,699192666.9624808,106115.4183601288, 7, 6, 4,10,1571945.002600181, 7,11,20,10
61,301924526.0238348,58759.40635443481, 7, 6, 1,10,854682.2742463244, 7, 6,20,10
134,70666020.44019979,42376.01200569399, 7, 6, 4,10,104369.48322671017, 7,11,20,10
170,5241013.419656074,232.27731661587313, 7, 6, 4,10,11650.931360040839, 7,11,12,10
207,6509451.13922266,543.5021409221355, 7, 6, 3,10,15327.095199349082, 7,11,10,10
244,12749673.39982522,1014.5707620042115, 7, 6, 4,10,35359.08742820678, 7,11,20,10
281,46165882.48149605,39959.06841621388, 7, 6, 5,10,54634.54471212738, 7, 6,19,10
318,0.0,0.0, 7, 6, 1,10,0.0, 7, 6, 1,10
355,650352391.3590258,12374.216038804521, 7, 6, 4,10,3829218.154066982, 7, 7,18,60
403,197687796.27748126,12374.216038804521, 7, 6, 4,10,483183.26346918393, 7,11,18,10
476,106772067.24485692,4732.048419519677, 7, 6, 4,10,237357.535085481, 7,11,12,10
513,0.0,0.0, 7, 6, 1,10,0.0, 7, 6, 1,10
562,34064285.46291651,0.0, 7, 6, 2,20,65152.81228348061, 7, 6,11,20
1046,0.0,0.0, 7, 6, 1,10,0.0, 7, 6, 1,10
1096,284157995.03553,0.0, 7, 6, 2,20,618026.1730857329, 7,11,16,20
1134,3360000.0,0.0, 7, 6, 1,10,120000.0, 7, 8, 2,40
1323,452664595.0815431,0.0, 7, 6, 1,10,3375000.0000000005, 7, 6, 9,50
1360,5019840.0,4980.0, 7, 6, 1,10,4980.000000000001, 7, 6, 2,10
1388,0.0,0.0, 7, 6, 1,10,0.0, 7, 6, 1,10
1,ANNUAL,  46.68, -68.05,  -5.00, 146.00
5,365
1038,204.66666666666637,0.0, 1, 1, 1,10,0.16666666666666666, 1, 1, 6,10
1039,357.1666666666665,0.0, 1, 1, 1,10,0.16666666666666666, 5,21,14,30
581,0.2652077486442936,0.0, 6,22,19,53,1.038129074207561, 2,10,14,60
582,3.592702853302119,0.0, 1, 5,21,40,26.887726394763227, 4, 3,17,60
583,4.216036377794455,0.000057629854746997715, 8,17,23,10,26.68477254792343, 2,10,14,60
1115,37638256802.88156,0.0, 1, 3,23, 2,2898083.4258844755, 1, 6,17,10
1128,12053418121.367062,0.0, 1, 3,23, 2,694691.4470642032, 1, 6,17,10
1153,334953358.5465732,0.0, 1, 3,23, 2,65485.02290907941, 2,25,15,60
1154,1348461594.307891,0.0, 1, 1, 1, 1,120000.0, 1,15,15,40
1156,34086006300.751644,0.0, 1, 3,23, 2,6351166.2980652, 1, 3, 1,60
13,73381224765.696,106115.4183601288, 5,11, 4,10,7432078.999394555, 1, 3,21,60
61,15743207428.39043,58759.40635443481, 1, 1, 1,10,854682.2742463244, 1, 1,20,10
134,3685071073.433083,42376.01200569399, 1, 2, 4,10,104369.48322671017, 1, 1,20,10
170,273393721.45534325,232.27731661587313, 1, 2, 4,10,11650.931360040839, 1, 1,12,10
207,339560869.06955314,543.5021409221355, 1, 2, 3,10,15327.095199349082, 1, 1,10,10
244,664895467.8009839,1014.5707620042115, 1, 2, 4,10,35359.08742820678, 1, 1,20,10
281,2407221015.1057043,39959.06841621388, 1, 1, 5,10,54634.54471212738, 1, 1,19,10
318,0.0,0.0, 1, 1, 1,10,0.0, 1, 1, 1,10
355,35803573678.61753,12374.216038804521, 1, 2, 4,10,3829218.1540669827, 1,20,18,30
403,10310294493.052883,12374.216038804521, 1, 2, 4,10,483183.26346918393, 1, 1,18,10
476,5569688622.065564,4732.048419519677, 1, 2, 4,10,237357.535085481, 1, 1,12,10
513,0.0,0.0, 1, 1, 1,10,0.0, 1, 1, 1,10
562,1879147747.7458658,0.0, 1,11,23,10,65152.81228348061, 1, 1, 1,40
1046,0.0,0.0, 1, 1, 1,10,0.0, 1, 1, 1,10
1096,3989210341.1613965,0.0, 1, 1, 1,10,645517.6135696283, 7,23,15,60
1134,47822839374.97265,0.0, 2,24,14,60,6822440.375402957, 1, 3,14,20
1323,25493279185.568615,0.0, 1, 1, 1,10,3375000.000000002, 1,23,17,20
1360,261748800.0,4979.999999999998, 1, 1, 1,10,4980.000000000002, 1, 2,17,20
1388,0.0,0.0, 1, 1, 1,10,0.0, 1, 1, 1,10
End of Data
 Number of Records Written=          87
