Program Version,EnergyPlus, Version 22.2.0-c249759bad, YMD=2023.09.01 18:20
1,5,Environment Title[],Latitude[deg],Longitude[deg],Time Zone[],Elevation[m]
2,8,Day of Simulation[],Month[],Day of Month[],DST Indicator[1=yes 0=no],Hour[],StartMinute[],EndMinute[],DayType
3,5,Cumulative Day of Simulation[],Month[],Day of Month[],DST Indicator[1=yes 0=no],DayType  ! When Daily Report Variables Requested
4,2,Cumulative Days of Simulation[],Month[]  ! When Monthly Report Variables Requested
5,1,Cumulative Days of Simulation[] ! When Run Period Report Variables Requested
6,1,Calendar Year of Simulation[] ! When Annual Report Variables Requested
581,11,LIVING,AFN Zone Infiltration Air Change Rate [ach] !RunPeriod [Value,Min,Month,Day,Hour,Minute,Max,Month,Day,Hour,Minute]
582,11,ATTIC,AFN Zone Infiltration Air Change Rate [ach] !RunPeriod [Value,Min,Month,Day,Hour,Minute,Max,Month,Day,Hour,Minute]
583,11,CRAWLSPACE,AFN Zone Infiltration Air Change Rate [ach] !RunPeriod [Value,Min,Month,Day,Hour,Minute,Max,Month,Day,Hour,Minute]
1038,11,Facility,Facility Heating Setpoint Not Met Time [hr] !RunPeriod [Value,Min,Month,Day,Hour,Minute,Max,Month,Day,Hour,Minute]
1039,11,Facility,Facility Cooling Setpoint Not Met Time [hr] !RunPeriod [Value,Min,Month,Day,Hour,Minute,Max,Month,Day,Hour,Minute]
1115,11,DX_HEATING_COIL,Heating Coil Heating Energy [J] !RunPeriod [Value,Min,Month,Day,Hour,Minute,Max,Month,Day,Hour,Minute]
1128,11,DX_HEATING_COIL,Heating Coil Electricity Energy [J] !RunPeriod [Value,Min,Month,Day,Hour,Minute,Max,Month,Day,Hour,Minute]
1153,11,DX_HEATING_COIL,Heating Coil Defrost Electricity Energy [J] !RunPeriod [Value,Min,Month,Day,Hour,Minute,Max,Month,Day,Hour,Minute]
1154,11,DX_HEATING_COIL,Heating Coil Crankcase Heater Electricity Energy [J] !RunPeriod [Value,Min,Month,Day,Hour,Minute,Max,Month,Day,Hour,Minute]
1155,11,HEATING_RESISTANCE_BACKUP,Heating Coil Heating Energy [J] !RunPeriod [Value,Min,Month,Day,Hour,Minute,Max,Month,Day,Hour,Minute]
1156,11,HEATING_RESISTANCE_BACKUP,Heating Coil Electricity Energy [J] !RunPeriod [Value,Min,Month,Day,Hour,Minute,Max,Month,Day,Hour,Minute]
1292,11,WATER HEATER,Water Heater Heat Loss Energy [J] !RunPeriod [Value,Min,Month,Day,Hour,Minute,Max,Month,Day,Hour,Minute]
1306,11,WATER HEATER,Water Heater Heating Energy [J] !RunPeriod [Value,Min,Month,Day,Hour,Minute,Max,Month,Day,Hour,Minute]
1307,11,WATER HEATER,Water Heater Unmet Demand Heat Transfer Energy [J] !RunPeriod [Value,Min,Month,Day,Hour,Minute,Max,Month,Day,Hour,Minute]
1308,11,WATER HEATER,Water Heater Electricity Energy [J] !RunPeriod [Value,Min,Month,Day,Hour,Minute,Max,Month,Day,Hour,Minute]
13,11,Electricity:Facility [J] !RunPeriod [Value,Min,Month,Day,Hour,Minute,Max,Month,Day,Hour,Minute]
1134,11,Heating:Electricity [J] !RunPeriod [Value,Min,Month,Day,Hour,Minute,Max,Month,Day,Hour,Minute]
1096,11,Cooling:Electricity [J] !RunPeriod [Value,Min,Month,Day,Hour,Minute,Max,Month,Day,Hour,Minute]
562,11,Fans:Electricity [J] !RunPeriod [Value,Min,Month,Day,Hour,Minute,Max,Month,Day,Hour,Minute]
1379,11,Pumps:Electricity [J] !RunPeriod [Value,Min,Month,Day,Hour,Minute,Max,Month,Day,Hour,Minute]
1326,11,WaterSystems:Electricity [J] !RunPeriod [Value,Min,Month,Day,Hour,Minute,Max,Month,Day,Hour,Minute]
61,11,InteriorLights:Electricity [J] !RunPeriod [Value,Min,Month,Day,Hour,Minute,Max,Month,Day,Hour,Minute]
1046,11,ExteriorLights:Electricity [J] !RunPeriod [Value,Min,Month,Day,Hour,Minute,Max,Month,Day,Hour,Minute]
134,11,InteriorEquipment:Electricity [J] !RunPeriod [Value,Min,Month,Day,Hour,Minute,Max,Month,Day,Hour,Minute]
170,11,gas_dryer:InteriorEquipment:Electricity [J] !RunPeriod [Value,Min,Month,Day,Hour,Minute,Max,Month,Day,Hour,Minute]
207,11,clotheswasher:InteriorEquipment:Electricity [J] !RunPeriod [Value,Min,Month,Day,Hour,Minute,Max,Month,Day,Hour,Minute]
244,11,dishwasher:InteriorEquipment:Electricity [J] !RunPeriod [Value,Min,Month,Day,Hour,Minute,Max,Month,Day,Hour,Minute]
281,11,refrigerator:InteriorEquipment:Electricity [J] !RunPeriod [Value,Min,Month,Day,Hour,Minute,Max,Month,Day,Hour,Minute]
318,11,electric_mels:InteriorEquipment:Electricity [J] !RunPeriod [Value,Min,Month,Day,Hour,Minute,Max,Month,Day,Hour,Minute]
355,11,NaturalGas:Facility [J] !RunPeriod [Value,Min,Month,Day,Hour,Minute,Max,Month,Day,Hour,Minute]
403,11,InteriorEquipment:NaturalGas [J] !RunPeriod [Value,Min,Month,Day,Hour,Minute,Max,Month,Day,Hour,Minute]
476,11,gas_dryer:InteriorEquipment:NaturalGas [J] !RunPeriod [Value,Min,Month,Day,Hour,Minute,Max,Month,Day,Hour,Minute]
513,11,gas_mels:InteriorEquipment:NaturalGas [J] !RunPeriod [Value,Min,Month,Day,Hour,Minute,Max,Month,Day,Hour,Minute]
End of Data Dictionary
1,EXTREME_WINTER,  45.63, -89.48,  -6.00, 495.00
5,7
1038,28.25,0.0, 1,18, 1,15,0.25, 1,18, 6,15
1039,0.0,0.0, 1,18, 1,15,0.0, 1,18, 1,15
581,0.48167887134848425,0.40522739871155256, 1,21,23, 5,0.7189202257569521, 1,22,15,60
582,4.601564120644547,0.2900856674463197, 1,21, 7,60,13.667126018266849, 1,22,15,52
583,0.06959508667727314,0.05436675229896321, 1,21,23, 5,0.07461747726732491, 1,19, 7,52
1115,1430256929.9992676,357346.607648186, 1,23,10,35,2769609.0982353017, 1,22,13,60
1128,659592407.6032482,165740.17330999108, 1,23,10,32,1088752.9203830177, 1,18,13,15
1153,1582952.041389744,9.92294684369421, 1,21,11,32,12755.063186490843, 1,21,19,60
1154,11234.074942398447,0.0, 1,18, 1, 7,11234.074942398447, 1,21,23, 5
1155,3782163755.718442,0.0, 1,21,23, 5,8328131.734665148, 1,19, 4,15
1156,3782163755.718442,0.0, 1,21,23, 5,8328131.734665148, 1,19, 4,15
1292,-25584871.533977237,-43301.520965154195, 1,20, 8,45,-6213.910101605699, 1,23,10,60
1306,255398365.5026548,0.0, 1,18, 1, 7,4050000.0, 1,18, 7,60
1307,54169062.643663675,0.0, 1,18, 1, 7,4883223.920887521, 1,24,19,55
1308,255398365.5026548,0.0, 1,18, 1, 7,4050000.0, 1,18, 7,60
13,5154386494.865071,2947330.2680722056, 1,23,15,60,14146038.166827427, 1,21, 7,60
61,301924526.02383536,88139.10953165221, 1,18, 1,15,1282023.4113694867, 1,18,20,15
134,70666020.44019976,63564.01800854099, 1,18, 4,15,156554.22484006523, 1,23,20,15
170,5241013.419656067,348.4159749238097, 1,18, 4,15,17476.39704006126, 1,23,12,15
207,6509451.13922267,815.2532113832032, 1,18, 3,15,22990.642799023623, 1,23,10,15
244,12749673.399825225,1521.856143006317, 1,18, 4,15,53038.631142310165, 1,23,20,15
281,46165882.481495745,59938.60262432081, 1,18, 5,15,81951.81706819107, 1,18,19,15
318,0.0,0.0, 1,18, 1,15,0.0, 1,18, 1,15
355,197687796.27748066,18561.32405820678, 1,18, 4,15,724774.895203776, 1,23,18,15
403,197687796.27748066,18561.32405820678, 1,18, 4,15,724774.895203776, 1,23,18,15
476,106772067.24485716,7098.072629279515, 1,18, 4,15,356036.3026282215, 1,23,12,15
513,0.0,0.0, 1,18, 1,15,0.0, 1,18, 1,15
562,83047233.46035904,115599.86443274037, 1,21,23,15,123594.0888165797, 1,21,11,30
1046,0.0,0.0, 1,18, 1,15,0.0, 1,18, 1,15
1096,0.0,0.0, 1,18, 1,15,0.0, 1,18, 1,15
1134,4443350349.438026,2545585.3247028263, 1,23,15,60,9296733.571009617, 1,21, 8,60
1326,255398365.50265473,0.0, 1,18, 1,15,4050000.0, 1,18, 7,60
1379,0.0,0.0, 1,18, 1,15,0.0, 1,18, 1,15
1,EXTREME_SUMMER,  45.63, -89.48,  -6.00, 495.00
5,7
1038,0.0,0.0, 7,24, 1,15,0.0, 7,24, 1,15
1039,38.25,0.0, 7,24, 1,15,0.25, 7,24,14,60
581,0.09782771156955208,0.0, 7,24,23, 3,0.8905466389708129, 7,26,16,46
582,2.147503041343574,0.0, 7,27,21,48,27.038211164812648, 7,26,16,46
583,0.03261364909274052,0.0, 7,24,23, 3,0.07505304786434737, 7,26,16,46
1115,0.0,0.0, 7,24, 1,15,0.0, 7,24, 1,15
1128,0.0,0.0, 7,24, 1,15,0.0, 7,24, 1,15
1153,0.0,0.0, 7,24, 1,15,0.0, 7,24, 1,15
1154,0.0,0.0, 7,24, 1,15,0.0, 7,24, 1,15
1155,0.0,0.0, 7,24, 1,15,0.0, 7,24, 1,15
1156,0.0,0.0, 7,24, 1,15,0.0, 7,24, 1,15
1292,-21928753.174188122,-34315.91859433254, 7,26,20,30,-2096.173508061448, 7,26,16,34
1306,204266198.43756062,0.0, 7,24, 1,15,3880823.7918227115, 7,27, 7,60
1307,29562058.168875717,0.0, 7,24, 1,15,1776764.3211802975, 7,30,19,50
1308,204266198.43756062,0.0, 7,24, 1,15,3880823.7918227115, 7,27, 7,60
13,1028578084.3001643,151703.1275401932, 7,27, 4,15,6745668.349067572, 7,25,20,30
61,301924526.02383536,88139.10953165221, 7,24, 1,15,1282023.4113694867, 7,24,20,15
134,70666020.44019976,63564.01800854099, 7,24, 4,15,156554.22484006523, 7,29,20,15
170,5241013.419656067,348.4159749238097, 7,24, 4,15,17476.39704006126, 7,29,12,15
207,6509451.13922267,815.2532113832032, 7,24, 3,15,22990.642799023623, 7,29,10,15
244,12749673.399825225,1521.856143006317, 7,24, 4,15,53038.631142310165, 7,29,20,15
281,46165882.481495745,59938.60262432081, 7,24, 5,15,81951.81706819107, 7,24,19,15
318,0.0,0.0, 7,24, 1,15,0.0, 7,24, 1,15
355,197687796.27748066,18561.32405820678, 7,24, 4,15,724774.895203776, 7,29,18,15
403,197687796.27748066,18561.32405820678, 7,24, 4,15,724774.895203776, 7,29,18,15
476,106772067.24485716,7098.072629279515, 7,24, 4,15,356036.3026282215, 7,29,12,15
513,0.0,0.0, 7,24, 1,15,0.0, 7,24, 1,15
562,45604786.9009693,0.0, 7,27, 3,30,123594.0888165797, 7,24,17,30
1046,0.0,0.0, 7,24, 1,15,0.0, 7,24, 1,15
1096,406116552.49759895,0.0, 7,27, 3,30,1245637.9366871635, 7,25,15,60
1134,0.0,0.0, 7,24, 1,15,0.0, 7,24, 1,15
1326,204266198.4375606,0.0, 7,24, 1,15,4050000.0, 7,25,20,30
1379,0.0,0.0, 7,24, 1,15,0.0, 7,24, 1,15
1,ANNUAL,  45.63, -89.48,  -6.00, 495.00
5,365
1038,96.5,0.0, 1, 1, 1,15,0.25, 1, 3, 6,15
1039,175.25,0.0, 1, 1, 1,15,0.25, 4,12,15,15
581,0.27954858274196287,0.0, 7,24,23, 3,1.1046027656162838, 3, 7, 7,50
582,3.5679119337913034,0.0, 1, 7, 6, 5,33.61138178732149, 3, 8, 1,52
583,0.032401168823232906,0.0, 7,24,23, 3,0.08099282434377049, 3, 8,17,52
1115,40142108177.914986,0.0, 1, 1,23, 5,4242312.856864269, 3, 8, 1,45
1128,13637248078.441147,0.0, 1, 1,23, 5,1207917.9826336678, 3, 8, 1,45
1153,490777888.8633093,0.0, 1, 1,23, 5,133214.28544421008,12,14, 6,45
1154,1427719982.5928252,0.0, 1, 1, 1, 7,180000.0, 2,14,15,60
1155,21739649785.538387,0.0, 1, 1,13,15,8328131.734665148, 1,19, 3,15
1156,21739649785.538387,0.0, 1, 1,13,15,8328131.734665148, 1,19, 3,15
1292,-1250700718.0693243,-44811.104525979186, 1,30, 8,30,-2052.9241663473676, 7,26,16,34
1306,12083174895.191872,0.0, 1, 1, 1, 7,4050000.0, 1, 1, 9,60
1307,2171639910.6410728,0.0, 1, 1, 1, 7,14253676.687400298, 2,26,19,60
1308,12083174895.191872,0.0, 1, 1, 1, 7,4050000.0, 1, 1, 9,60
13,75874364216.59045,151703.1275401932, 4,24, 4,15,14151566.369010787, 1,23, 7,60
61,15743207428.383959,88139.10953165221, 1, 1, 1,15,1282023.4113694867, 1, 1,20,15
134,3685071073.4325233,63564.01800854099, 1, 2, 4,15,156554.22484006523, 1, 1,20,15
170,273393721.45532674,348.4159749238097, 1, 2, 4,15,17476.39704006126, 1, 1,12,15
207,339560869.0695816,815.2532113832032, 1, 2, 3,15,22990.642799023623, 1, 1,10,15
244,664895467.8009144,1521.856143006317, 1, 2, 4,15,53038.631142310165, 1, 1,20,15
281,2407221015.106824,59938.60262432081, 1, 1, 5,15,81951.81706819107, 1, 1,19,15
318,0.0,0.0, 1, 1, 1,15,0.0, 1, 1, 1,15
355,10310294493.051695,18561.32405820678, 1, 2, 4,15,724774.895203776, 1, 1,18,15
403,10310294493.051695,18561.32405820678, 1, 2, 4,15,724774.895203776, 1, 1,18,15
476,5569688622.066177,7098.072629279515, 1, 2, 4,15,356036.3026282215, 1, 1,12,15
513,0.0,0.0, 1, 1, 1,15,0.0, 1, 1, 1,15
562,2143992591.5983942,0.0, 2,14,13,45,123594.0888165797, 1, 2,18,30
1046,0.0,0.0, 1, 1, 1,15,0.0, 1, 1, 1,15
1096,4923522492.547381,0.0, 1, 1, 1,15,1264681.745800157, 7, 8,14,60
1134,37295395735.43566,0.0, 2,16,14,30,9359594.746655148,12,31,13,45
1326,12083174895.191864,0.0, 1, 1, 1,15,4050000.0000000014, 5,20, 9,45
1379,0.0,0.0, 1, 1, 1,15,0.0, 1, 1, 1,15
End of Data
 Number of Records Written=          99
