Program Version,EnergyPlus, Version 22.2.0-c249759bad, YMD=2023.09.01 20:27
1,5,Environment Title[],Latitude[deg],Longitude[deg],Time Zone[],Elevation[m]
2,8,Day of Simulation[],Month[],Day of Month[],DST Indicator[1=yes 0=no],Hour[],StartMinute[],EndMinute[],DayType
3,5,Cumulative Day of Simulation[],Month[],Day of Month[],DST Indicator[1=yes 0=no],DayType  ! When Daily Report Variables Requested
4,2,Cumulative Days of Simulation[],Month[]  ! When Monthly Report Variables Requested
5,1,Cumulative Days of Simulation[] ! When Run Period Report Variables Requested
6,1,Calendar Year of Simulation[] ! When Annual Report Variables Requested
581,11,LIVING,AFN Zone Infiltration Air Change Rate [ach] !RunPeriod [Value,Min,Month,Day,Hour,Minute,Max,Month,Day,Hour,Minute]
582,11,ATTIC,AFN Zone Infiltration Air Change Rate [ach] !RunPeriod [Value,Min,Month,Day,Hour,Minute,Max,Month,Day,Hour,Minute]
583,11,CRAWLSPACE,AFN Zone Infiltration Air Change Rate [ach] !RunPeriod [Value,Min,Month,Day,Hour,Minute,Max,Month,Day,Hour,Minute]
1038,11,Facility,Facility Heating Setpoint Not Met Time [hr] !RunPeriod [Value,Min,Month,Day,Hour,Minute,Max,Month,Day,Hour,Minute]
1039,11,Facility,Facility Cooling Setpoint Not Met Time [hr] !RunPeriod [Value,Min,Month,Day,Hour,Minute,Max,Month,Day,Hour,Minute]
1115,11,DX_HEATING_COIL,Heating Coil Heating Energy [J] !RunPeriod [Value,Min,Month,Day,Hour,Minute,Max,Month,Day,Hour,Minute]
1128,11,DX_HEATING_COIL,Heating Coil Electricity Energy [J] !RunPeriod [Value,Min,Month,Day,Hour,Minute,Max,Month,Day,Hour,Minute]
1153,11,DX_HEATING_COIL,Heating Coil Defrost Electricity Energy [J] !RunPeriod [Value,Min,Month,Day,Hour,Minute,Max,Month,Day,Hour,Minute]
1154,11,DX_HEATING_COIL,Heating Coil Crankcase Heater Electricity Energy [J] !RunPeriod [Value,Min,Month,Day,Hour,Minute,Max,Month,Day,Hour,Minute]
1155,11,HEATING_RESISTANCE_BACKUP,Heating Coil Heating Energy [J] !RunPeriod [Value,Min,Month,Day,Hour,Minute,Max,Month,Day,Hour,Minute]
1156,11,HEATING_RESISTANCE_BACKUP,Heating Coil Electricity Energy [J] !RunPeriod [Value,Min,Month,Day,Hour,Minute,Max,Month,Day,Hour,Minute]
1292,11,WATER HEATER,Water Heater Heat Loss Energy [J] !RunPeriod [Value,Min,Month,Day,Hour,Minute,Max,Month,Day,Hour,Minute]
1306,11,WATER HEATER,Water Heater Heating Energy [J] !RunPeriod [Value,Min,Month,Day,Hour,Minute,Max,Month,Day,Hour,Minute]
1307,11,WATER HEATER,Water Heater Unmet Demand Heat Transfer Energy [J] !RunPeriod [Value,Min,Month,Day,Hour,Minute,Max,Month,Day,Hour,Minute]
1308,11,WATER HEATER,Water Heater Electricity Energy [J] !RunPeriod [Value,Min,Month,Day,Hour,Minute,Max,Month,Day,Hour,Minute]
13,11,Electricity:Facility [J] !RunPeriod [Value,Min,Month,Day,Hour,Minute,Max,Month,Day,Hour,Minute]
1134,11,Heating:Electricity [J] !RunPeriod [Value,Min,Month,Day,Hour,Minute,Max,Month,Day,Hour,Minute]
1096,11,Cooling:Electricity [J] !RunPeriod [Value,Min,Month,Day,Hour,Minute,Max,Month,Day,Hour,Minute]
562,11,Fans:Electricity [J] !RunPeriod [Value,Min,Month,Day,Hour,Minute,Max,Month,Day,Hour,Minute]
1379,11,Pumps:Electricity [J] !RunPeriod [Value,Min,Month,Day,Hour,Minute,Max,Month,Day,Hour,Minute]
1326,11,WaterSystems:Electricity [J] !RunPeriod [Value,Min,Month,Day,Hour,Minute,Max,Month,Day,Hour,Minute]
61,11,InteriorLights:Electricity [J] !RunPeriod [Value,Min,Month,Day,Hour,Minute,Max,Month,Day,Hour,Minute]
1046,11,ExteriorLights:Electricity [J] !RunPeriod [Value,Min,Month,Day,Hour,Minute,Max,Month,Day,Hour,Minute]
134,11,InteriorEquipment:Electricity [J] !RunPeriod [Value,Min,Month,Day,Hour,Minute,Max,Month,Day,Hour,Minute]
170,11,gas_dryer:InteriorEquipment:Electricity [J] !RunPeriod [Value,Min,Month,Day,Hour,Minute,Max,Month,Day,Hour,Minute]
207,11,clotheswasher:InteriorEquipment:Electricity [J] !RunPeriod [Value,Min,Month,Day,Hour,Minute,Max,Month,Day,Hour,Minute]
244,11,dishwasher:InteriorEquipment:Electricity [J] !RunPeriod [Value,Min,Month,Day,Hour,Minute,Max,Month,Day,Hour,Minute]
281,11,refrigerator:InteriorEquipment:Electricity [J] !RunPeriod [Value,Min,Month,Day,Hour,Minute,Max,Month,Day,Hour,Minute]
318,11,electric_mels:InteriorEquipment:Electricity [J] !RunPeriod [Value,Min,Month,Day,Hour,Minute,Max,Month,Day,Hour,Minute]
355,11,NaturalGas:Facility [J] !RunPeriod [Value,Min,Month,Day,Hour,Minute,Max,Month,Day,Hour,Minute]
403,11,InteriorEquipment:NaturalGas [J] !RunPeriod [Value,Min,Month,Day,Hour,Minute,Max,Month,Day,Hour,Minute]
476,11,gas_dryer:InteriorEquipment:NaturalGas [J] !RunPeriod [Value,Min,Month,Day,Hour,Minute,Max,Month,Day,Hour,Minute]
513,11,gas_mels:InteriorEquipment:NaturalGas [J] !RunPeriod [Value,Min,Month,Day,Hour,Minute,Max,Month,Day,Hour,Minute]
End of Data Dictionary
1,EXTREME_WINTER,  35.22, -80.93,  -5.00, 221.90
5,7
1038,1.0,0.0, 1,20, 1,15,0.25, 1,21, 6,15
1039,0.0,0.0, 1,20, 1,15,0.0, 1,20, 1,15
581,0.286564684604188,0.1625598605351386, 1,20, 1,50,0.6976687027265658, 1,24,18,50
582,2.164607375132885,0.0, 1,20, 4,60,13.850746967556539, 1,24,18,47
583,0.02681072577883138,0.00021185061459163987, 1,26,20,25,0.07630388732791454, 1,25, 2,30
1115,957645585.1578654,0.0, 1,20,14,30,4174501.3170426097, 1,20, 6,45
1128,309419836.9967074,0.0, 1,20,14,30,1333036.8691606927, 1,20, 6,45
1153,8184111.433153175,0.0, 1,20,14,30,109193.45111945605, 1,24, 6,45
1154,77372483.10701984,0.0, 1,20, 6, 5,180000.0, 1,20,14,30
1155,72001594.97452366,0.0, 1,20, 1,15,2292351.469447887, 1,25, 6,60
1156,72001594.97452366,0.0, 1,20, 1,15,2292351.469447887, 1,25, 6,60
1292,-25002682.79811489,-39796.695160907366, 1,20, 1,15,-4034.842036017514, 1,21,11,21
1306,172344544.04551715,0.0, 1,20, 1,15,4050000.0, 1,20, 8,45
1307,31081659.461307652,0.0, 1,20, 1,15,4317473.92989064, 1,26, 9,30
1308,172344544.04551715,0.0, 1,20, 1,15,4050000.0, 1,20, 8,45
13,1044802697.4835593,452017.0388981225, 1,20,15,15,7149858.574162394, 1,21, 7,15
61,301924526.02383536,88139.10953165221, 1,20, 1,15,1282023.4113694867, 1,20,20,15
134,70666020.44019976,63564.01800854099, 1,20, 4,15,156554.22484006523, 1,25,20,15
170,5241013.419656067,348.4159749238097, 1,20, 4,15,17476.39704006126, 1,25,12,15
207,6509451.13922267,815.2532113832032, 1,20, 3,15,22990.642799023623, 1,25,10,15
244,12749673.399825225,1521.856143006317, 1,20, 4,15,53038.631142310165, 1,25,20,15
281,46165882.481495745,59938.60262432081, 1,20, 5,15,81951.81706819107, 1,20,19,15
318,0.0,0.0, 1,20, 1,15,0.0, 1,20, 1,15
355,197687796.27748066,18561.32405820678, 1,20, 4,15,724774.895203776, 1,25,18,15
403,197687796.27748066,18561.32405820678, 1,20, 4,15,724774.895203776, 1,25,18,15
476,106772067.24485716,7098.072629279515, 1,20, 4,15,356036.3026282215, 1,25,12,15
513,0.0,0.0, 1,20, 1,15,0.0, 1,20, 1,15
562,32842955.29840042,0.0, 1,20,14,30,135960.71413074151, 1,20, 6,45
1046,0.0,0.0, 1,20, 1,15,0.0, 1,20, 1,15
1096,46625.16420342484,0.0, 1,20, 1,15,17256.680734209374, 1,21,18,15
1134,466978026.5114046,176262.34112421394, 1,21,18,15,3948254.6872678758, 1,21, 6,15
1326,172344544.04551715,0.0, 1,20, 1,15,4050000.0, 1,20, 8,45
1379,0.0,0.0, 1,20, 1,15,0.0, 1,20, 1,15
1,EXTREME_SUMMER,  35.22, -80.93,  -5.00, 221.90
5,7
1038,0.0,0.0, 7,13, 1,15,0.0, 7,13, 1,15
1039,40.25,0.0, 7,13, 1,15,0.25, 7,13,15,15
581,0.10142704994282303,0.0, 7,13,23, 3,0.3651259365271222, 7,13,18,49
582,2.3367018412951177,0.07635647421374783, 7,18,21,45,6.662132048417147, 7,19,18,46
583,0.04017718951321535,0.0, 7,13,23, 3,0.07052149419025686, 7,13,18,47
1115,0.0,0.0, 7,13, 1,15,0.0, 7,13, 1,15
1128,0.0,0.0, 7,13, 1,15,0.0, 7,13, 1,15
1153,0.0,0.0, 7,13, 1,15,0.0, 7,13, 1,15
1154,0.0,0.0, 7,13, 1,15,0.0, 7,13, 1,15
1155,0.0,0.0, 7,13, 1,15,0.0, 7,13, 1,15
1156,0.0,0.0, 7,13, 1,15,0.0, 7,13, 1,15
1292,-21895607.603814956,-34352.061945522, 7,16, 6,45,-2730.0393053605376, 7,15,18,40
1306,125826919.95961308,0.0, 7,13, 1,15,2025000.0, 7,14, 7,15
1307,12626978.974719383,0.0, 7,13, 1,15,964740.784330196, 7,16,10,21
1308,125826919.95961308,0.0, 7,13, 1,15,2025000.0, 7,14, 7,15
13,1066766955.5829077,209958.94823541772, 7,17, 4,60,6281444.661529506, 7,19,20,60
61,301924526.02383536,88139.10953165221, 7,13, 1,15,1282023.4113694867, 7,13,20,15
134,70666020.44019976,63564.01800854099, 7,13, 4,15,156554.22484006523, 7,18,20,15
170,5241013.419656067,348.4159749238097, 7,13, 4,15,17476.39704006126, 7,18,12,15
207,6509451.13922267,815.2532113832032, 7,13, 3,15,22990.642799023623, 7,18,10,15
244,12749673.399825225,1521.856143006317, 7,13, 4,15,53038.631142310165, 7,18,20,15
281,46165882.481495745,59938.60262432081, 7,13, 5,15,81951.81706819107, 7,13,19,15
318,0.0,0.0, 7,13, 1,15,0.0, 7,13, 1,15
355,197687796.27748066,18561.32405820678, 7,13, 4,15,724774.895203776, 7,18,18,15
403,197687796.27748066,18561.32405820678, 7,13, 4,15,724774.895203776, 7,18,18,15
476,106772067.24485716,7098.072629279515, 7,13, 4,15,356036.3026282215, 7,18,12,15
513,0.0,0.0, 7,13, 1,15,0.0, 7,13, 1,15
562,54246969.4072681,2811.3605432294826, 7,18, 6,30,135960.71413074151, 7,13,14,30
1046,0.0,0.0, 7,13, 1,15,0.0, 7,13, 1,15
1096,514102519.7519927,22342.08628590936, 7,18, 6,30,1427093.3419391338, 7,15,17,60
1134,0.0,0.0, 7,13, 1,15,0.0, 7,13, 1,15
1326,125826919.95961307,0.0, 7,13, 1,15,4050000.0, 7,15, 9,45
1379,0.0,0.0, 7,13, 1,15,0.0, 7,13, 1,15
1,ANNUAL,  35.22, -80.93,  -5.00, 221.90
5,365
1038,4.75,0.0, 1, 1, 1,15,0.25, 1, 1, 6,15
1039,595.5,0.0, 1, 1, 1,15,0.25, 2,24,12,45
581,0.1924304525794384,0.0, 5,15,23, 3,1.0014876590457689, 3,20,12,60
582,2.9350643586093623,0.0, 1, 1, 3,45,19.45859695023651, 3,20,12,60
583,0.024541304036736454,0.0, 5,15,23, 3,0.08143162851605183, 6, 9,19,46
1115,8055255083.576867,0.0, 1, 1, 1,22,4250210.167461095, 1,22, 6,45
1128,2488516205.7744937,0.0, 1, 1, 1,22,1324649.9600739246, 1,20, 6,45
1153,95861842.5212501,0.0, 1, 1, 1,22,122434.03916565764, 1,24, 6,45
1154,1238856427.5589006,0.0, 1, 1, 6, 5,180000.0, 1, 1,20,45
1155,322150178.91897523,0.0, 1, 1, 1,15,2514892.7839529226, 1,25, 6,60
1156,322150178.91897523,0.0, 1, 1, 1,15,2514892.7839529226, 1,25, 6,60
1292,-1195091434.431043,-39786.211023512056,12,23, 4,15,-2033.472143915656,10,21,10,29
1306,7761041051.687092,0.0, 1, 1, 1,15,4050000.0, 1, 2, 8,45
1307,1145197909.6532881,0.0, 1, 1, 1,15,8530425.21591141, 2, 4,10,30
1308,7761041051.687092,0.0, 1, 1, 1,15,4050000.0, 1, 2, 8,45
13,44573993857.737175,151703.1275401932, 1, 9, 4,15,7295129.0182153005, 1, 2, 8,45
61,15743207428.383959,88139.10953165221, 1, 1, 1,15,1282023.4113694867, 1, 1,20,15
134,3685071073.4325233,63564.01800854099, 1, 2, 4,15,156554.22484006523, 1, 1,20,15
170,273393721.45532674,348.4159749238097, 1, 2, 4,15,17476.39704006126, 1, 1,12,15
207,339560869.0695816,815.2532113832032, 1, 2, 3,15,22990.642799023623, 1, 1,10,15
244,664895467.8009144,1521.856143006317, 1, 2, 4,15,53038.631142310165, 1, 1,20,15
281,2407221015.106824,59938.60262432081, 1, 1, 5,15,81951.81706819107, 1, 1,19,15
318,0.0,0.0, 1, 1, 1,15,0.0, 1, 1, 1,15
355,10310294493.051695,18561.32405820678, 1, 2, 4,15,724774.895203776, 1, 1,18,15
403,10310294493.051695,18561.32405820678, 1, 2, 4,15,724774.895203776, 1, 1,18,15
476,5569688622.066177,7098.072629279515, 1, 2, 4,15,356036.3026282215, 1, 1,12,15
513,0.0,0.0, 1, 1, 1,15,0.0, 1, 1, 1,15
562,1597353852.918116,0.0, 1, 1,10,45,135960.71413074154, 5,16,15,60
1046,0.0,0.0, 1, 1, 1,15,0.0, 1, 1, 1,15
1096,11641935796.539911,0.0, 1, 1, 1,15,1466093.488797034, 8,11,17,60
1134,4145384654.7736044,0.0, 1, 1,12,60,4296021.278692201, 1,21, 6,15
1326,7761041051.687088,0.0, 1, 1, 1,15,4050000.0000000014, 3,11,10,45
1379,0.0,0.0, 1, 1, 1,15,0.0, 1, 1, 1,15
End of Data
 Number of Records Written=          99
