Program Version,EnergyPlus, Version 22.2.0-c249759bad, YMD=2023.07.07 15:19
1,5,Environment Title[],Latitude[deg],Longitude[deg],Time Zone[],Elevation[m]
2,8,Day of Simulation[],Month[],Day of Month[],DST Indicator[1=yes 0=no],Hour[],StartMinute[],EndMinute[],DayType
3,5,Cumulative Day of Simulation[],Month[],Day of Month[],DST Indicator[1=yes 0=no],DayType  ! When Daily Report Variables Requested
4,2,Cumulative Days of Simulation[],Month[]  ! When Monthly Report Variables Requested
5,1,Cumulative Days of Simulation[] ! When Run Period Report Variables Requested
6,1,Calendar Year of Simulation[] ! When Annual Report Variables Requested
581,11,LIVING,AFN Zone Infiltration Air Change Rate [ach] !RunPeriod [Value,Min,Month,Day,Hour,Minute,Max,Month,Day,Hour,Minute]
582,11,ATTIC,AFN Zone Infiltration Air Change Rate [ach] !RunPeriod [Value,Min,Month,Day,Hour,Minute,Max,Month,Day,Hour,Minute]
583,11,CRAWLSPACE,AFN Zone Infiltration Air Change Rate [ach] !RunPeriod [Value,Min,Month,Day,Hour,Minute,Max,Month,Day,Hour,Minute]
1038,11,Facility,Facility Heating Setpoint Not Met Time [hr] !RunPeriod [Value,Min,Month,Day,Hour,Minute,Max,Month,Day,Hour,Minute]
1039,11,Facility,Facility Cooling Setpoint Not Met Time [hr] !RunPeriod [Value,Min,Month,Day,Hour,Minute,Max,Month,Day,Hour,Minute]
1115,11,DX_HEATING_COIL,Heating Coil Heating Energy [J] !RunPeriod [Value,Min,Month,Day,Hour,Minute,Max,Month,Day,Hour,Minute]
1128,11,DX_HEATING_COIL,Heating Coil Electricity Energy [J] !RunPeriod [Value,Min,Month,Day,Hour,Minute,Max,Month,Day,Hour,Minute]
1153,11,DX_HEATING_COIL,Heating Coil Defrost Electricity Energy [J] !RunPeriod [Value,Min,Month,Day,Hour,Minute,Max,Month,Day,Hour,Minute]
1154,11,DX_HEATING_COIL,Heating Coil Crankcase Heater Electricity Energy [J] !RunPeriod [Value,Min,Month,Day,Hour,Minute,Max,Month,Day,Hour,Minute]
1156,11,HEATING_RESISTANCE_BACKUP,Heating Coil Electricity Energy [J] !RunPeriod [Value,Min,Month,Day,Hour,Minute,Max,Month,Day,Hour,Minute]
13,11,Electricity:Facility [J] !RunPeriod [Value,Min,Month,Day,Hour,Minute,Max,Month,Day,Hour,Minute]
1134,11,Heating:Electricity [J] !RunPeriod [Value,Min,Month,Day,Hour,Minute,Max,Month,Day,Hour,Minute]
1096,11,Cooling:Electricity [J] !RunPeriod [Value,Min,Month,Day,Hour,Minute,Max,Month,Day,Hour,Minute]
562,11,Fans:Electricity [J] !RunPeriod [Value,Min,Month,Day,Hour,Minute,Max,Month,Day,Hour,Minute]
1388,11,Pumps:Electricity [J] !RunPeriod [Value,Min,Month,Day,Hour,Minute,Max,Month,Day,Hour,Minute]
1360,11,WaterSystems:Electricity [J] !RunPeriod [Value,Min,Month,Day,Hour,Minute,Max,Month,Day,Hour,Minute]
61,11,InteriorLights:Electricity [J] !RunPeriod [Value,Min,Month,Day,Hour,Minute,Max,Month,Day,Hour,Minute]
1046,11,ExteriorLights:Electricity [J] !RunPeriod [Value,Min,Month,Day,Hour,Minute,Max,Month,Day,Hour,Minute]
134,11,InteriorEquipment:Electricity [J] !RunPeriod [Value,Min,Month,Day,Hour,Minute,Max,Month,Day,Hour,Minute]
170,11,gas_dryer:InteriorEquipment:Electricity [J] !RunPeriod [Value,Min,Month,Day,Hour,Minute,Max,Month,Day,Hour,Minute]
207,11,clotheswasher:InteriorEquipment:Electricity [J] !RunPeriod [Value,Min,Month,Day,Hour,Minute,Max,Month,Day,Hour,Minute]
244,11,dishwasher:InteriorEquipment:Electricity [J] !RunPeriod [Value,Min,Month,Day,Hour,Minute,Max,Month,Day,Hour,Minute]
281,11,refrigerator:InteriorEquipment:Electricity [J] !RunPeriod [Value,Min,Month,Day,Hour,Minute,Max,Month,Day,Hour,Minute]
318,11,electric_mels:InteriorEquipment:Electricity [J] !RunPeriod [Value,Min,Month,Day,Hour,Minute,Max,Month,Day,Hour,Minute]
355,11,NaturalGas:Facility [J] !RunPeriod [Value,Min,Month,Day,Hour,Minute,Max,Month,Day,Hour,Minute]
1323,11,WaterSystems:NaturalGas [J] !RunPeriod [Value,Min,Month,Day,Hour,Minute,Max,Month,Day,Hour,Minute]
403,11,InteriorEquipment:NaturalGas [J] !RunPeriod [Value,Min,Month,Day,Hour,Minute,Max,Month,Day,Hour,Minute]
476,11,gas_dryer:InteriorEquipment:NaturalGas [J] !RunPeriod [Value,Min,Month,Day,Hour,Minute,Max,Month,Day,Hour,Minute]
513,11,gas_mels:InteriorEquipment:NaturalGas [J] !RunPeriod [Value,Min,Month,Day,Hour,Minute,Max,Month,Day,Hour,Minute]
End of Data Dictionary
1,EXTREME_WINTER,  32.28,-106.92,  -7.00,1358.00
5,7
1038,0.0,0.0, 1,13, 1,10,0.0, 1,13, 1,10
1039,1.3333333333333333,0.0, 1,13, 1,10,0.16666666666666666, 1,17,15,50
581,0.2587990776259366,0.13338409969178627, 1,13, 6, 2,0.6335142071668179, 1,17, 2,55
582,3.0837431814329004,0.0, 1,13, 4,35,10.744768104085221, 1,17, 2,55
583,3.6540095000889132,0.0002088941646721294, 1,14,24,50,15.246003157465587, 1,17, 2,55
1115,399248986.4830587,0.0, 1,13, 1, 3,2834738.778471792, 1,19, 6,30
1128,128100780.52773313,0.0, 1,13, 1, 3,911113.2997143785, 1,19, 6,30
1153,18130.680574624068,0.0, 1,13, 1, 3,3799.986206710304, 1,18, 4,60
1154,87584788.67891425,0.0, 1,13, 6, 2,120000.0, 1,13, 2,20
1156,2590288.4185285373,0.0, 1,13, 1, 3,660575.6750197256, 1,17, 6, 3
13,634998388.7517782,186324.6925987483, 1,13,15,10,2166373.5809128387, 1,18, 6,10
61,301924526.0238348,58759.40635443481, 1,13, 1,10,854682.2742463244, 1,13,20,10
134,70666020.44019979,42376.01200569399, 1,13, 4,10,104369.48322671017, 1,18,20,10
170,5241013.419656074,232.27731661587313, 1,13, 4,10,11650.931360040839, 1,18,12,10
207,6509451.13922266,543.5021409221355, 1,13, 3,10,15327.095199349082, 1,18,10,10
244,12749673.39982522,1014.5707620042115, 1,13, 4,10,35359.08742820678, 1,18,20,10
281,46165882.48149605,39959.06841621388, 1,13, 5,10,54634.54471212738, 1,13,19,10
318,0.0,0.0, 1,13, 1,10,0.0, 1,13, 1,10
355,739027238.3889668,12374.216038804521, 1,13, 4,10,3829218.154066982, 1,14,18,60
403,197687796.27748126,12374.216038804521, 1,13, 4,10,483183.26346918393, 1,18,18,10
476,106772067.24485692,4732.048419519677, 1,13, 4,10,237357.535085481, 1,18,12,10
513,0.0,0.0, 1,13, 1,10,0.0, 1,13, 1,10
562,17109268.406783447,0.0, 1,13, 1,10,107725.31404882105, 1,18, 6,30
1046,0.0,0.0, 1,13, 1,10,0.0, 1,13, 1,10
1096,21984745.57520919,0.0, 1,13, 1,10,221530.3763564974, 1,14,17,20
1134,218293988.30575055,0.0, 1,13,13,30,1645166.521741077, 1,18, 6,10
1323,541339442.1114823,0.0, 1,13, 1,10,3375000.0000000005, 1,17, 9,60
1360,5019840.0,4980.0, 1,13, 1,20,4980.000000000002, 1,14,24,60
1388,0.0,0.0, 1,13, 1,10,0.0, 1,13, 1,10
1,EXTREME_SUMMER,  32.28,-106.92,  -7.00,1358.00
5,7
1038,0.0,0.0, 7,20, 1,10,0.0, 7,20, 1,10
1039,4.666666666666666,0.0, 7,20, 1,10,0.16666666666666666, 7,25,18,30
581,0.09262945875222482,0.0, 7,21, 6,45,0.34361460487392553, 7,22,17,53
582,3.347689439028886,0.0, 7,25, 6, 2,15.874001379929831, 7,22,17,51
583,3.7304312716127623,0.00013646412611883807, 7,22, 6, 5,13.202279660937446, 7,22,17,51
1115,0.0,0.0, 7,20, 1, 5,0.0, 7,20, 1, 5
1128,0.0,0.0, 7,20, 1, 5,0.0, 7,20, 1, 5
1153,0.0,0.0, 7,20, 1, 5,0.0, 7,20, 1, 5
1154,0.0,0.0, 7,20, 1, 5,0.0, 7,20, 1, 5
1156,0.0,0.0, 7,20, 1, 5,0.0, 7,20, 1, 5
13,1069245631.5225966,206905.9665018907, 7,24, 4,60,2407060.8651624713, 7,26,20,10
61,301924526.0238348,58759.40635443481, 7,20, 1,10,854682.2742463244, 7,20,20,10
134,70666020.44019979,42376.01200569399, 7,20, 4,10,104369.48322671017, 7,25,20,10
170,5241013.419656074,232.27731661587313, 7,20, 4,10,11650.931360040839, 7,25,12,10
207,6509451.13922266,543.5021409221355, 7,20, 3,10,15327.095199349082, 7,25,10,10
244,12749673.39982522,1014.5707620042115, 7,20, 4,10,35359.08742820678, 7,25,20,10
281,46165882.48149605,39959.06841621388, 7,20, 5,10,54634.54471212738, 7,20,19,10
318,0.0,0.0, 7,20, 1,10,0.0, 7,20, 1,10
355,637740988.2737436,12374.216038804521, 7,20, 4,10,3829218.154066982, 7,21,18,60
403,197687796.27748126,12374.216038804521, 7,20, 4,10,483183.26346918393, 7,25,18,10
476,106772067.24485692,4732.048419519677, 7,20, 4,10,237357.535085481, 7,25,12,10
513,0.0,0.0, 7,20, 1,10,0.0, 7,20, 1,10
562,62806480.918524414,8783.254992033853, 7,24, 6,20,120023.09394873896, 7,26,18,20
1046,0.0,0.0, 7,20, 1,10,0.0, 7,20, 1,10
1096,628828764.1400378,71510.57068138554, 7,24, 6,20,1392499.707052658, 7,26,16,60
1134,0.0,0.0, 7,20, 1,10,0.0, 7,20, 1,10
1323,440053191.9962606,0.0, 7,20, 1,10,3375000.0, 7,20, 9,50
1360,5019840.0,4980.0, 7,20, 1,10,4980.000000000002, 7,24,20,20
1388,0.0,0.0, 7,20, 1,10,0.0, 7,20, 1,10
1,ANNUAL,  32.28,-106.92,  -7.00,1358.00
5,365
1038,0.5,0.0, 1, 1, 1,10,0.16666666666666666, 1,20, 6,10
1039,104.66666666666666,0.0, 1, 1, 1,10,0.16666666666666666, 1,25,13,40
581,0.18983119048619745,0.0, 6, 7, 2,35,1.3310164537422102,12,20,13,60
582,4.18771002644995,0.0, 1, 2, 4,50,49.016496528238285,12,20,12,60
583,4.381127294463298,0.0, 7, 9,23, 2,39.26042942732359,12,20,12,60
1115,3855394520.887472,0.0, 1, 1, 1,10,3181142.3833703776, 1,20, 7,20
1128,1219914152.3016353,0.0, 1, 1, 1,10,1101889.89230778, 1,20, 7,20
1153,26760775.861645542,0.0, 1, 1, 1,10,74439.83826210082, 2, 2, 6,30
1154,1483347414.6747246,0.0, 1, 1, 6, 3,120000.0, 1, 1, 1,10
1156,25277127.99267765,0.0, 1, 1, 1,10,660575.6750197256, 1, 1, 6, 3
13,38783706998.304436,106115.4183601288, 1, 6, 4,20,2686307.7770952242, 1,20, 6,10
61,15743207428.39043,58759.40635443481, 1, 1, 1,10,854682.2742463244, 1, 1,20,10
134,3685071073.433083,42376.01200569399, 1, 2, 4,10,104369.48322671017, 1, 1,20,10
170,273393721.45534325,232.27731661587313, 1, 2, 4,10,11650.931360040839, 1, 1,12,10
207,339560869.06955314,543.5021409221355, 1, 2, 3,10,15327.095199349082, 1, 1,10,10
244,664895467.8009839,1014.5707620042115, 1, 2, 4,10,35359.08742820678, 1, 1,20,10
281,2407221015.1057043,39959.06841621388, 1, 1, 5,10,54634.54471212738, 1, 1,19,10
318,0.0,0.0, 1, 1, 1,10,0.0, 1, 1, 1,10
355,35655169622.503365,12374.216038804521, 1, 2, 4,10,3829218.154066983, 5,30,18,60
403,10310294493.052883,12374.216038804521, 1, 2, 4,10,483183.26346918393, 1, 1,18,10
476,5569688622.065564,4732.048419519677, 1, 2, 4,10,237357.535085481, 1, 1,12,10
513,0.0,0.0, 1, 1, 1,10,0.0, 1, 1, 1,10
562,1786443291.3555913,0.0, 1, 1, 1,10,120023.09394873896, 6, 7,17,30
1046,0.0,0.0, 1, 1, 1,10,0.0, 1, 1, 1,10
1096,14551936934.300825,0.0, 1, 1, 1,10,1443551.9929486876, 6, 5,16,60
1134,2755299470.8306746,0.0, 1, 3,15,60,2149639.8623004146, 1,20, 6,10
1323,25344875129.45449,0.0, 1, 1, 1,10,3375000.000000001, 1, 4,16,10
1360,261748800.0,4979.999999999998, 1,21,10,30,4980.000000000002, 1, 8,21,20
1388,0.0,0.0, 1, 1, 1,10,0.0, 1, 1, 1,10
End of Data
 Number of Records Written=          87
