Program Version,EnergyPlus, Version 22.2.0-c249759bad, YMD=2023.09.01 20:18
1,5,Environment Title[],Latitude[deg],Longitude[deg],Time Zone[],Elevation[m]
2,8,Day of Simulation[],Month[],Day of Month[],DST Indicator[1=yes 0=no],Hour[],StartMinute[],EndMinute[],DayType
3,5,Cumulative Day of Simulation[],Month[],Day of Month[],DST Indicator[1=yes 0=no],DayType  ! When Daily Report Variables Requested
4,2,Cumulative Days of Simulation[],Month[]  ! When Monthly Report Variables Requested
5,1,Cumulative Days of Simulation[] ! When Run Period Report Variables Requested
6,1,Calendar Year of Simulation[] ! When Annual Report Variables Requested
581,11,LIVING,AFN Zone Infiltration Air Change Rate [ach] !RunPeriod [Value,Min,Month,Day,Hour,Minute,Max,Month,Day,Hour,Minute]
582,11,ATTIC,AFN Zone Infiltration Air Change Rate [ach] !RunPeriod [Value,Min,Month,Day,Hour,Minute,Max,Month,Day,Hour,Minute]
583,11,CRAWLSPACE,AFN Zone Infiltration Air Change Rate [ach] !RunPeriod [Value,Min,Month,Day,Hour,Minute,Max,Month,Day,Hour,Minute]
1038,11,Facility,Facility Heating Setpoint Not Met Time [hr] !RunPeriod [Value,Min,Month,Day,Hour,Minute,Max,Month,Day,Hour,Minute]
1039,11,Facility,Facility Cooling Setpoint Not Met Time [hr] !RunPeriod [Value,Min,Month,Day,Hour,Minute,Max,Month,Day,Hour,Minute]
1115,11,DX_HEATING_COIL,Heating Coil Heating Energy [J] !RunPeriod [Value,Min,Month,Day,Hour,Minute,Max,Month,Day,Hour,Minute]
1128,11,DX_HEATING_COIL,Heating Coil Electricity Energy [J] !RunPeriod [Value,Min,Month,Day,Hour,Minute,Max,Month,Day,Hour,Minute]
1153,11,DX_HEATING_COIL,Heating Coil Defrost Electricity Energy [J] !RunPeriod [Value,Min,Month,Day,Hour,Minute,Max,Month,Day,Hour,Minute]
1154,11,DX_HEATING_COIL,Heating Coil Crankcase Heater Electricity Energy [J] !RunPeriod [Value,Min,Month,Day,Hour,Minute,Max,Month,Day,Hour,Minute]
1155,11,HEATING_RESISTANCE_BACKUP,Heating Coil Heating Energy [J] !RunPeriod [Value,Min,Month,Day,Hour,Minute,Max,Month,Day,Hour,Minute]
1156,11,HEATING_RESISTANCE_BACKUP,Heating Coil Electricity Energy [J] !RunPeriod [Value,Min,Month,Day,Hour,Minute,Max,Month,Day,Hour,Minute]
1292,11,WATER HEATER,Water Heater Heat Loss Energy [J] !RunPeriod [Value,Min,Month,Day,Hour,Minute,Max,Month,Day,Hour,Minute]
1306,11,WATER HEATER,Water Heater Heating Energy [J] !RunPeriod [Value,Min,Month,Day,Hour,Minute,Max,Month,Day,Hour,Minute]
1307,11,WATER HEATER,Water Heater Unmet Demand Heat Transfer Energy [J] !RunPeriod [Value,Min,Month,Day,Hour,Minute,Max,Month,Day,Hour,Minute]
1308,11,WATER HEATER,Water Heater Electricity Energy [J] !RunPeriod [Value,Min,Month,Day,Hour,Minute,Max,Month,Day,Hour,Minute]
13,11,Electricity:Facility [J] !RunPeriod [Value,Min,Month,Day,Hour,Minute,Max,Month,Day,Hour,Minute]
1134,11,Heating:Electricity [J] !RunPeriod [Value,Min,Month,Day,Hour,Minute,Max,Month,Day,Hour,Minute]
1096,11,Cooling:Electricity [J] !RunPeriod [Value,Min,Month,Day,Hour,Minute,Max,Month,Day,Hour,Minute]
562,11,Fans:Electricity [J] !RunPeriod [Value,Min,Month,Day,Hour,Minute,Max,Month,Day,Hour,Minute]
1379,11,Pumps:Electricity [J] !RunPeriod [Value,Min,Month,Day,Hour,Minute,Max,Month,Day,Hour,Minute]
1326,11,WaterSystems:Electricity [J] !RunPeriod [Value,Min,Month,Day,Hour,Minute,Max,Month,Day,Hour,Minute]
61,11,InteriorLights:Electricity [J] !RunPeriod [Value,Min,Month,Day,Hour,Minute,Max,Month,Day,Hour,Minute]
1046,11,ExteriorLights:Electricity [J] !RunPeriod [Value,Min,Month,Day,Hour,Minute,Max,Month,Day,Hour,Minute]
134,11,InteriorEquipment:Electricity [J] !RunPeriod [Value,Min,Month,Day,Hour,Minute,Max,Month,Day,Hour,Minute]
170,11,gas_dryer:InteriorEquipment:Electricity [J] !RunPeriod [Value,Min,Month,Day,Hour,Minute,Max,Month,Day,Hour,Minute]
207,11,clotheswasher:InteriorEquipment:Electricity [J] !RunPeriod [Value,Min,Month,Day,Hour,Minute,Max,Month,Day,Hour,Minute]
244,11,dishwasher:InteriorEquipment:Electricity [J] !RunPeriod [Value,Min,Month,Day,Hour,Minute,Max,Month,Day,Hour,Minute]
281,11,refrigerator:InteriorEquipment:Electricity [J] !RunPeriod [Value,Min,Month,Day,Hour,Minute,Max,Month,Day,Hour,Minute]
318,11,electric_mels:InteriorEquipment:Electricity [J] !RunPeriod [Value,Min,Month,Day,Hour,Minute,Max,Month,Day,Hour,Minute]
355,11,NaturalGas:Facility [J] !RunPeriod [Value,Min,Month,Day,Hour,Minute,Max,Month,Day,Hour,Minute]
403,11,InteriorEquipment:NaturalGas [J] !RunPeriod [Value,Min,Month,Day,Hour,Minute,Max,Month,Day,Hour,Minute]
476,11,gas_dryer:InteriorEquipment:NaturalGas [J] !RunPeriod [Value,Min,Month,Day,Hour,Minute,Max,Month,Day,Hour,Minute]
513,11,gas_mels:InteriorEquipment:NaturalGas [J] !RunPeriod [Value,Min,Month,Day,Hour,Minute,Max,Month,Day,Hour,Minute]
End of Data Dictionary
1,EXTREME_WINTER,  35.22, -80.93,  -5.00, 221.90
5,7
1038,1.0,0.0, 1,20, 1,15,0.25, 1,21, 6,15
1039,0.0,0.0, 1,20, 1,15,0.0, 1,20, 1,15
581,0.287004923134479,0.1597911906709146, 1,26,23,60,0.696457766238892, 1,24,18,50
582,2.1649322273248495,0.0, 1,20, 4,60,13.850175905380945, 1,24,18,47
583,0.027963919488924065,0.00023200694093254267, 1,26,20,25,0.07530107024223136, 1,25, 2,15
1115,1008600122.3004974,0.0, 1,20,14,45,4122068.573688703, 1,20, 6,45
1128,324551631.1615914,0.0, 1,20,14,45,1316292.4955930442, 1,20, 6,45
1153,8760669.222655421,0.0, 1,20,14,45,115568.82996217643, 1,24, 6,45
1154,74675724.20714796,0.0, 1,20, 6, 5,180000.0, 1,20,14,45
1155,82115221.00631946,0.0, 1,20, 1,15,2433795.924882818, 1,25, 6,60
1156,82115221.00631946,0.0, 1,20, 1,15,2433795.924882818, 1,25, 6,60
1292,-25049600.720097914,-39798.60949577153, 1,20, 1,15,-4089.111815130687, 1,21,11,30
1306,118336432.64307806,0.0, 1,20, 1,15,4050000.0, 1,20, 7,15
1307,20640802.054856274,0.0, 1,20, 1,15,6356995.397923658, 1,20, 6,60
1308,118336432.64307806,0.0, 1,20, 1,15,4050000.0, 1,20, 7,15
13,1015465749.5253067,452017.0388981225, 1,20,15,15,7355488.465036975, 1,21, 7,15
61,301924526.02383536,88139.10953165221, 1,20, 1,15,1282023.4113694867, 1,20,20,15
134,70666020.44019976,63564.01800854099, 1,20, 4,15,156554.22484006523, 1,25,20,15
170,5241013.419656067,348.4159749238097, 1,20, 4,15,17476.39704006126, 1,25,12,15
207,6509451.13922267,815.2532113832032, 1,20, 3,15,22990.642799023623, 1,25,10,15
244,12749673.399825225,1521.856143006317, 1,20, 4,15,53038.631142310165, 1,25,20,15
281,46165882.481495745,59938.60262432081, 1,20, 5,15,81951.81706819107, 1,20,19,15
318,0.0,0.0, 1,20, 1,15,0.0, 1,20, 1,15
355,197687796.27748066,18561.32405820678, 1,20, 4,15,724774.895203776, 1,25,18,15
403,197687796.27748066,18561.32405820678, 1,20, 4,15,724774.895203776, 1,25,18,15
476,106772067.24485716,7098.072629279515, 1,20, 4,15,356036.3026282215, 1,25,12,15
513,0.0,0.0, 1,20, 1,15,0.0, 1,20, 1,15
562,34435524.82048118,0.0, 1,20,14,45,134252.9908052751, 1,20, 6,45
1046,0.0,0.0, 1,20, 1,15,0.0, 1,20, 1,15
1096,0.0,0.0, 1,20, 1,15,0.0, 1,20, 1,15
1134,490103245.59771365,180000.0, 1,20,14,45,4068208.090742303, 1,21, 6,15
1326,118336432.64307807,0.0, 1,20, 1,15,4050000.0, 1,20, 7,15
1379,0.0,0.0, 1,20, 1,15,0.0, 1,20, 1,15
1,EXTREME_SUMMER,  35.22, -80.93,  -5.00, 221.90
5,7
1038,0.0,0.0, 7,13, 1,15,0.0, 7,13, 1,15
1039,38.0,0.0, 7,13, 1,15,0.25, 7,13,15,30
581,0.10000528251584177,0.0, 7,13,23, 3,0.36314390151890025, 7,13,18,49
582,2.3408812751561237,0.08478233261249694, 7,18,21,42,6.663080536796214, 7,19,18,46
583,0.0388166646521053,0.0, 7,13,23, 3,0.06943409579773993, 7,13,18,47
1115,0.0,0.0, 7,13, 1,15,0.0, 7,13, 1,15
1128,0.0,0.0, 7,13, 1,15,0.0, 7,13, 1,15
1153,0.0,0.0, 7,13, 1,15,0.0, 7,13, 1,15
1154,0.0,0.0, 7,13, 1,15,0.0, 7,13, 1,15
1155,0.0,0.0, 7,13, 1,15,0.0, 7,13, 1,15
1156,0.0,0.0, 7,13, 1,15,0.0, 7,13, 1,15
1292,-21917976.042247966,-34326.91296611128, 7,18, 6,60,-2696.7222517005107, 7,15,18,31
1306,87326292.39018321,0.0, 7,13, 1,15,4050000.0, 7,13, 7,15
1307,7718216.153498806,0.0, 7,13, 1,15,3935907.7683684747, 7,13, 6,60
1308,87326292.39018321,0.0, 7,13, 1,15,4050000.0, 7,13, 7,15
13,1011326955.2422667,191991.1336335261, 7,17, 4,60,6620481.469169917, 7,13,19,30
61,301924526.02383536,88139.10953165221, 7,13, 1,15,1282023.4113694867, 7,13,20,15
134,70666020.44019976,63564.01800854099, 7,13, 4,15,156554.22484006523, 7,18,20,15
170,5241013.419656067,348.4159749238097, 7,13, 4,15,17476.39704006126, 7,18,12,15
207,6509451.13922267,815.2532113832032, 7,13, 3,15,22990.642799023623, 7,18,10,15
244,12749673.399825225,1521.856143006317, 7,13, 4,15,53038.631142310165, 7,18,20,15
281,46165882.481495745,59938.60262432081, 7,13, 5,15,81951.81706819107, 7,13,19,15
318,0.0,0.0, 7,13, 1,15,0.0, 7,13, 1,15
355,197687796.27748066,18561.32405820678, 7,13, 4,15,724774.895203776, 7,18,18,15
403,197687796.27748066,18561.32405820678, 7,13, 4,15,724774.895203776, 7,18,18,15
476,106772067.24485716,7098.072629279515, 7,13, 4,15,356036.3026282215, 7,18,12,15
513,0.0,0.0, 7,13, 1,15,0.0, 7,13, 1,15
562,52602279.75943698,0.0, 7,18, 6,30,134252.99080527513, 7,13,18,45
1046,0.0,0.0, 7,13, 1,15,0.0, 7,13, 1,15
1096,498807836.62861174,0.0, 7,18, 6,30,1408541.8003863434, 7,15,17,60
1134,0.0,0.0, 7,13, 1,15,0.0, 7,13, 1,15
1326,87326292.39018323,0.0, 7,13, 1,15,4050000.0, 7,13, 7,15
1379,0.0,0.0, 7,13, 1,15,0.0, 7,13, 1,15
1,ANNUAL,  35.22, -80.93,  -5.00, 221.90
5,365
1038,4.75,0.0, 1, 1, 1,15,0.25, 1, 1, 6,15
1039,588.5,0.0, 1, 1, 1,15,0.25, 2, 7,16,15
581,0.1910130691982276,0.0, 5,15,23, 3,0.9998277093888829, 3,20,12,60
582,2.9379269028189383,0.0, 1, 1, 3,45,19.458586847347682, 3,20,12,60
583,0.023972634814578828,0.0, 5,15,23, 3,0.0803772638687415, 6, 9,19,46
1115,8749503639.858334,0.0, 1, 1,10,48,4301453.815039886, 1,22, 6,45
1128,2686229660.232946,0.0, 1, 1,10,48,1324636.6534428848, 1,22, 6,45
1153,102296488.66688424,0.0, 1, 1, 9,15,118932.59687261573, 2, 5, 6,45
1154,1210629191.2465298,0.0, 1, 1, 6, 5,180000.0, 1, 1,20,45
1155,375400484.94982505,0.0, 1, 1, 1, 7,2653094.5902846036, 1,25, 6,60
1156,375400484.94982505,0.0, 1, 1, 1, 7,2653094.5902846036, 1,25, 6,60
1292,-1198247443.0356455,-39806.778850871524,11, 5, 5,15,-2148.466931772771, 8,27,15,59
1306,5390289432.222751,0.0, 1, 1, 1, 7,4050000.0, 1, 2, 7,15
1307,713770123.8207215,0.0, 1, 1, 1, 7,6392757.247830077, 1,30, 6,60
1308,5390289432.222751,0.0, 1, 1, 1, 7,4050000.0, 1, 2, 7,15
13,41938411581.877754,151703.1275401932, 1, 9, 4,15,7892016.580349575, 1,25, 8,60
61,15743207428.383959,88139.10953165221, 1, 1, 1,15,1282023.4113694867, 1, 1,20,15
134,3685071073.4325233,63564.01800854099, 1, 2, 4,15,156554.22484006523, 1, 1,20,15
170,273393721.45532674,348.4159749238097, 1, 2, 4,15,17476.39704006126, 1, 1,12,15
207,339560869.0695816,815.2532113832032, 1, 2, 3,15,22990.642799023623, 1, 1,10,15
244,664895467.8009144,1521.856143006317, 1, 2, 4,15,53038.631142310165, 1, 1,20,15
281,2407221015.106824,59938.60262432081, 1, 1, 5,15,81951.81706819107, 1, 1,19,15
318,0.0,0.0, 1, 1, 1,15,0.0, 1, 1, 1,15
355,10310294493.051695,18561.32405820678, 1, 2, 4,15,724774.895203776, 1, 1,18,15
403,10310294493.051695,18561.32405820678, 1, 2, 4,15,724774.895203776, 1, 1,18,15
476,5569688622.066177,7098.072629279515, 1, 2, 4,15,356036.3026282215, 1, 1,12,15
513,0.0,0.0, 1, 1, 1,15,0.0, 1, 1, 1,15
562,1563501659.4842327,0.0, 1, 1,10,60,134252.99080527513, 5,16,15,45
1046,0.0,0.0, 1, 1, 1,15,0.0, 1, 1, 1,15
1096,11181786163.256075,0.0, 1, 1, 1,15,1447179.8586897748, 8,11,17,60
1134,4374555825.09617,0.0, 1, 1,12,60,4415461.763365498, 1,21, 6,15
1326,5390289432.22275,0.0, 1, 1, 1,15,4050000.0, 1, 2, 7,15
1379,0.0,0.0, 1, 1, 1,15,0.0, 1, 1, 1,15
End of Data
 Number of Records Written=          99
