Program Version,EnergyPlus, Version 22.2.0-c249759bad, YMD=2023.09.01 20:53
1,5,Environment Title[],Latitude[deg],Longitude[deg],Time Zone[],Elevation[m]
2,8,Day of Simulation[],Month[],Day of Month[],DST Indicator[1=yes 0=no],Hour[],StartMinute[],EndMinute[],DayType
3,5,Cumulative Day of Simulation[],Month[],Day of Month[],DST Indicator[1=yes 0=no],DayType  ! When Daily Report Variables Requested
4,2,Cumulative Days of Simulation[],Month[]  ! When Monthly Report Variables Requested
5,1,Cumulative Days of Simulation[] ! When Run Period Report Variables Requested
6,1,Calendar Year of Simulation[] ! When Annual Report Variables Requested
581,11,LIVING,AFN Zone Infiltration Air Change Rate [ach] !RunPeriod [Value,Min,Month,Day,Hour,Minute,Max,Month,Day,Hour,Minute]
582,11,ATTIC,AFN Zone Infiltration Air Change Rate [ach] !RunPeriod [Value,Min,Month,Day,Hour,Minute,Max,Month,Day,Hour,Minute]
583,11,CRAWLSPACE,AFN Zone Infiltration Air Change Rate [ach] !RunPeriod [Value,Min,Month,Day,Hour,Minute,Max,Month,Day,Hour,Minute]
1038,11,Facility,Facility Heating Setpoint Not Met Time [hr] !RunPeriod [Value,Min,Month,Day,Hour,Minute,Max,Month,Day,Hour,Minute]
1039,11,Facility,Facility Cooling Setpoint Not Met Time [hr] !RunPeriod [Value,Min,Month,Day,Hour,Minute,Max,Month,Day,Hour,Minute]
1115,11,DX_HEATING_COIL,Heating Coil Heating Energy [J] !RunPeriod [Value,Min,Month,Day,Hour,Minute,Max,Month,Day,Hour,Minute]
1128,11,DX_HEATING_COIL,Heating Coil Electricity Energy [J] !RunPeriod [Value,Min,Month,Day,Hour,Minute,Max,Month,Day,Hour,Minute]
1153,11,DX_HEATING_COIL,Heating Coil Defrost Electricity Energy [J] !RunPeriod [Value,Min,Month,Day,Hour,Minute,Max,Month,Day,Hour,Minute]
1154,11,DX_HEATING_COIL,Heating Coil Crankcase Heater Electricity Energy [J] !RunPeriod [Value,Min,Month,Day,Hour,Minute,Max,Month,Day,Hour,Minute]
1155,11,HEATING_RESISTANCE_BACKUP,Heating Coil Heating Energy [J] !RunPeriod [Value,Min,Month,Day,Hour,Minute,Max,Month,Day,Hour,Minute]
1156,11,HEATING_RESISTANCE_BACKUP,Heating Coil Electricity Energy [J] !RunPeriod [Value,Min,Month,Day,Hour,Minute,Max,Month,Day,Hour,Minute]
1292,11,WATER HEATER,Water Heater Heat Loss Energy [J] !RunPeriod [Value,Min,Month,Day,Hour,Minute,Max,Month,Day,Hour,Minute]
1306,11,WATER HEATER,Water Heater Heating Energy [J] !RunPeriod [Value,Min,Month,Day,Hour,Minute,Max,Month,Day,Hour,Minute]
1307,11,WATER HEATER,Water Heater Unmet Demand Heat Transfer Energy [J] !RunPeriod [Value,Min,Month,Day,Hour,Minute,Max,Month,Day,Hour,Minute]
1308,11,WATER HEATER,Water Heater Electricity Energy [J] !RunPeriod [Value,Min,Month,Day,Hour,Minute,Max,Month,Day,Hour,Minute]
13,11,Electricity:Facility [J] !RunPeriod [Value,Min,Month,Day,Hour,Minute,Max,Month,Day,Hour,Minute]
1134,11,Heating:Electricity [J] !RunPeriod [Value,Min,Month,Day,Hour,Minute,Max,Month,Day,Hour,Minute]
1096,11,Cooling:Electricity [J] !RunPeriod [Value,Min,Month,Day,Hour,Minute,Max,Month,Day,Hour,Minute]
562,11,Fans:Electricity [J] !RunPeriod [Value,Min,Month,Day,Hour,Minute,Max,Month,Day,Hour,Minute]
1379,11,Pumps:Electricity [J] !RunPeriod [Value,Min,Month,Day,Hour,Minute,Max,Month,Day,Hour,Minute]
1326,11,WaterSystems:Electricity [J] !RunPeriod [Value,Min,Month,Day,Hour,Minute,Max,Month,Day,Hour,Minute]
61,11,InteriorLights:Electricity [J] !RunPeriod [Value,Min,Month,Day,Hour,Minute,Max,Month,Day,Hour,Minute]
1046,11,ExteriorLights:Electricity [J] !RunPeriod [Value,Min,Month,Day,Hour,Minute,Max,Month,Day,Hour,Minute]
134,11,InteriorEquipment:Electricity [J] !RunPeriod [Value,Min,Month,Day,Hour,Minute,Max,Month,Day,Hour,Minute]
170,11,gas_dryer:InteriorEquipment:Electricity [J] !RunPeriod [Value,Min,Month,Day,Hour,Minute,Max,Month,Day,Hour,Minute]
207,11,clotheswasher:InteriorEquipment:Electricity [J] !RunPeriod [Value,Min,Month,Day,Hour,Minute,Max,Month,Day,Hour,Minute]
244,11,dishwasher:InteriorEquipment:Electricity [J] !RunPeriod [Value,Min,Month,Day,Hour,Minute,Max,Month,Day,Hour,Minute]
281,11,refrigerator:InteriorEquipment:Electricity [J] !RunPeriod [Value,Min,Month,Day,Hour,Minute,Max,Month,Day,Hour,Minute]
318,11,electric_mels:InteriorEquipment:Electricity [J] !RunPeriod [Value,Min,Month,Day,Hour,Minute,Max,Month,Day,Hour,Minute]
355,11,NaturalGas:Facility [J] !RunPeriod [Value,Min,Month,Day,Hour,Minute,Max,Month,Day,Hour,Minute]
403,11,InteriorEquipment:NaturalGas [J] !RunPeriod [Value,Min,Month,Day,Hour,Minute,Max,Month,Day,Hour,Minute]
476,11,gas_dryer:InteriorEquipment:NaturalGas [J] !RunPeriod [Value,Min,Month,Day,Hour,Minute,Max,Month,Day,Hour,Minute]
513,11,gas_mels:InteriorEquipment:NaturalGas [J] !RunPeriod [Value,Min,Month,Day,Hour,Minute,Max,Month,Day,Hour,Minute]
End of Data Dictionary
1,EXTREME_WINTER,  45.60,-122.61,  -8.00,  12.00
5,15
1038,0.0,0.0,12,22, 1,15,0.0,12,22, 1,15
1039,0.0,0.0,12,22, 1,15,0.0,12,22, 1,15
581,0.34777306716721135,0.16481548184214495, 1, 5,23,22,0.8000722380609193,12,26,11,60
582,6.0313973586417005,0.0,12,29,24,60,19.368647751365724, 1, 1, 2,60
583,0.031886033634659035,0.0001506182863844295, 1, 5,23,22,0.08342209599447002, 1, 1, 6,15
1115,2626174977.3890395,0.0,12,22,16,15,4784629.20938798, 1, 1, 6,45
1128,801284005.4843137,0.0,12,22,16,15,1473262.4130042, 1, 1, 6,45
1153,31150170.476774,0.0,12,22,13,15,113676.42866454151,12,30, 6,60
1154,161461667.77177453,0.0,12,22, 6, 5,180000.0,12,22,16,15
1155,12406513.57621615,0.0,12,22, 1,15,1100336.3046710433,12,30, 6, 5
1156,12406513.57621615,0.0,12,22, 1,15,1100336.3046710433,12,30, 6, 5
1292,-53800657.76744886,-39812.11508251814,12,22, 1,15,-6020.915181124362, 1, 2,14,50
1306,718469447.6977324,0.0,12,22, 1,15,4050000.0,12,22, 9,60
1307,306940686.1336881,0.0,12,22, 1,15,15137777.202185933,12,26, 9,60
1308,718469447.6977324,0.0,12,22, 1,15,4050000.0,12,22, 9,60
13,2603360245.3500633,452017.0388981225, 1, 2,15,15,6346799.687681048,12,31, 8,60
61,646981127.1939323,88139.10953165221,12,22, 1,15,1282023.4113694867,12,22,20,15
134,151290040.75163814,63564.01800854099,12,22, 4,15,156554.22484006523,12,27,20,15
170,11185820.069951689,348.4159749238097,12,22, 4,15,17476.39704006126,12,27,12,15
207,13893028.5742839,815.2532113832032,12,22, 3,15,22990.642799023623,12,27,10,15
244,27284301.07562584,1521.856143006317,12,22, 4,15,53038.631142310165,12,27,20,15
281,98926891.03177746,59938.60262432081,12,22, 5,15,81951.81706819107,12,22,19,15
318,0.0,0.0,12,22, 1,15,0.0,12,22, 1,15
355,422701517.16107386,18561.32405820678,12,22, 4,15,724774.895203776,12,27,18,15
403,422701517.16107386,18561.32405820678,12,22, 4,15,724774.895203776,12,27,18,15
476,227882097.80545202,7098.072629279515,12,22, 4,15,356036.3026282215,12,27,12,15
513,0.0,0.0,12,22, 1,15,0.0,12,22, 1,15
562,80317272.39767855,0.0,12,22,16,15,148569.47921246878,12,31, 6,15
1046,0.0,0.0,12,22, 1,15,0.0,12,22, 1,15
1096,0.0,0.0,12,22, 1,15,0.0,12,22, 1,15
1134,1006302357.3090783,180000.0,12,22,16,15,2807003.857847313,12,31, 6,15
1326,718469447.6977328,0.0,12,22, 1,15,4050000.0,12,22, 9,60
1379,0.0,0.0,12,22, 1,15,0.0,12,22, 1,15
1,EXTREME_SUMMER,  45.60,-122.61,  -8.00,  12.00
5,7
1038,0.0,0.0, 7,20, 1,15,0.0, 7,20, 1,15
1039,23.75,0.0, 7,20, 1,15,0.25, 7,20,17,60
581,0.15984999125605281,0.0, 7,21, 6,11,0.4298775888446722, 7,25,21,52
582,4.011808971715983,0.06609708811267113, 7,23, 8,14,10.330497088304941, 7,26,18,47
583,0.04095293127947776,0.0000710136180534229, 7,23, 6, 7,0.07997447893981499, 7,25, 6, 3
1115,0.0,0.0, 7,20, 1, 7,0.0, 7,20, 1, 7
1128,0.0,0.0, 7,20, 1, 7,0.0, 7,20, 1, 7
1153,0.0,0.0, 7,20, 1, 7,0.0, 7,20, 1, 7
1154,0.0,0.0, 7,20, 1, 7,0.0, 7,20, 1, 7
1155,0.0,0.0, 7,20, 1, 7,0.0, 7,20, 1, 7
1156,0.0,0.0, 7,20, 1, 7,0.0, 7,20, 1, 7
1292,-21833500.76092668,-34335.86772506886, 7,22,10,60,-3599.2927845518348, 7,23, 9,45
1306,281547794.35010916,0.0, 7,20, 1, 7,4050000.0, 7,26,10,15
1307,99629478.25143018,0.0, 7,20, 1, 7,5372972.558206585, 7,26, 9,45
1308,281547794.35010916,0.0, 7,20, 1, 7,4050000.0, 7,26,10,15
13,1236917802.120513,164788.41315646752, 7,25, 4,60,7271451.678178498, 7,21,20,15
61,301924526.02383536,88139.10953165221, 7,20, 1,15,1282023.4113694867, 7,20,20,15
134,70666020.44019976,63564.01800854099, 7,20, 4,15,156554.22484006523, 7,25,20,15
170,5241013.419656067,348.4159749238097, 7,20, 4,15,17476.39704006126, 7,25,12,15
207,6509451.13922267,815.2532113832032, 7,20, 3,15,22990.642799023623, 7,25,10,15
244,12749673.399825225,1521.856143006317, 7,20, 4,15,53038.631142310165, 7,25,20,15
281,46165882.481495745,59938.60262432081, 7,20, 5,15,81951.81706819107, 7,20,19,15
318,0.0,0.0, 7,20, 1,15,0.0, 7,20, 1,15
355,197687796.27748066,18561.32405820678, 7,20, 4,15,724774.895203776, 7,25,18,15
403,197687796.27748066,18561.32405820678, 7,20, 4,15,724774.895203776, 7,25,18,15
476,106772067.24485716,7098.072629279515, 7,20, 4,15,356036.3026282215, 7,25,12,15
513,0.0,0.0, 7,20, 1,15,0.0, 7,20, 1,15
562,53086272.756038934,0.0, 7,20, 6,30,148569.47921246878, 7,20,17,15
1046,0.0,0.0, 7,20, 1,15,0.0, 7,20, 1,15
1096,529693188.55033046,0.0, 7,20, 6,30,1844683.4357081912, 7,21,15,60
1134,0.0,0.0, 7,20, 1,15,0.0, 7,20, 1,15
1326,281547794.35010916,0.0, 7,20, 1,15,4050000.0, 7,20, 8,30
1379,0.0,0.0, 7,20, 1,15,0.0, 7,20, 1,15
1,ANNUAL,  45.60,-122.61,  -8.00,  12.00
5,365
1038,3.25,0.0, 1, 1, 1,15,0.25, 1, 9, 6,15
1039,122.25,0.0, 1, 1, 1,15,0.25, 1,17,16,45
581,0.23297554859006425,0.0, 7,22,21,50,0.9678662394725991,12,18, 4,52
582,3.863146161043084,0.0, 1, 2, 2,60,33.83419089100155,12,18, 4,52
583,0.018525437510707406,0.0, 8, 5,23, 3,0.0926414831248895, 4, 7, 6, 3
1115,11396464932.431585,0.0, 1, 1,23, 5,4968723.151278236, 1,11, 6,45
1128,3331128140.8296795,0.0, 1, 1,23, 5,1511147.2590130726, 1,11, 6,45
1153,151691462.9617457,0.0, 1, 1,23, 5,128732.00834791061,12,18, 6,60
1154,2011306610.6168995,0.0, 1, 1, 6, 5,180000.0, 1, 2,14,15
1155,18871840.41928951,0.0, 1, 1, 1,15,1100336.3046710433, 1, 1, 6, 5
1156,18871840.41928951,0.0, 1, 1, 1,15,1100336.3046710433, 1, 1, 6, 5
1292,-1213329175.9420097,-39793.03439579211, 3,21, 4,60,-1838.2606094851042, 4,23, 9,46
1306,16222247186.060322,0.0, 1, 1, 1,15,4050000.0, 1, 1, 9,60
1307,6472453296.664367,0.0, 1, 1, 1,15,15672725.34914473, 2, 3, 9,60
1308,16222247186.060322,0.0, 1, 1, 1,15,4050000.0, 1, 1, 9,60
13,49315458825.607025,151703.1275401932, 3, 9, 4,15,7275252.081172299, 7,21,20,15
61,15743207428.383959,88139.10953165221, 1, 1, 1,15,1282023.4113694867, 1, 1,20,15
134,3685071073.4325233,63564.01800854099, 1, 2, 4,15,156554.22484006523, 1, 1,20,15
170,273393721.45532674,348.4159749238097, 1, 2, 4,15,17476.39704006126, 1, 1,12,15
207,339560869.0695816,815.2532113832032, 1, 2, 3,15,22990.642799023623, 1, 1,10,15
244,664895467.8009144,1521.856143006317, 1, 2, 4,15,53038.631142310165, 1, 1,20,15
281,2407221015.106824,59938.60262432081, 1, 1, 5,15,81951.81706819107, 1, 1,19,15
318,0.0,0.0, 1, 1, 1,15,0.0, 1, 1, 1,15
355,10310294493.051695,18561.32405820678, 1, 2, 4,15,724774.895203776, 1, 1,18,15
403,10310294493.051695,18561.32405820678, 1, 2, 4,15,724774.895203776, 1, 1,18,15
476,5569688622.066177,7098.072629279515, 1, 2, 4,15,356036.3026282215, 1, 1,12,15
513,0.0,0.0, 1, 1, 1,15,0.0, 1, 1, 1,15
562,1130021572.344552,0.0, 1, 2,13,45,148569.47921246878, 1, 3, 6,60
1046,0.0,0.0, 1, 1, 1,15,0.0, 1, 1, 1,15
1096,7021913510.555377,0.0, 1, 1, 1,15,1845049.8104521567, 7,21,15,60
1134,5512998054.827588,0.0, 1,12,20,30,2832919.826491774,12,31, 6,15
1326,16222247186.060272,0.0, 1, 1, 1,15,4050000.0000000014, 4,23, 9,60
1379,0.0,0.0, 1, 1, 1,15,0.0, 1, 1, 1,15
End of Data
 Number of Records Written=          99
