Program Version,EnergyPlus, Version 22.2.0-c249759bad, YMD=2023.09.01 20:18
1,5,Environment Title[],Latitude[deg],Longitude[deg],Time Zone[],Elevation[m]
2,8,Day of Simulation[],Month[],Day of Month[],DST Indicator[1=yes 0=no],Hour[],StartMinute[],EndMinute[],DayType
3,5,Cumulative Day of Simulation[],Month[],Day of Month[],DST Indicator[1=yes 0=no],DayType  ! When Daily Report Variables Requested
4,2,Cumulative Days of Simulation[],Month[]  ! When Monthly Report Variables Requested
5,1,Cumulative Days of Simulation[] ! When Run Period Report Variables Requested
6,1,Calendar Year of Simulation[] ! When Annual Report Variables Requested
581,11,LIVING,AFN Zone Infiltration Air Change Rate [ach] !RunPeriod [Value,Min,Month,Day,Hour,Minute,Max,Month,Day,Hour,Minute]
582,11,ATTIC,AFN Zone Infiltration Air Change Rate [ach] !RunPeriod [Value,Min,Month,Day,Hour,Minute,Max,Month,Day,Hour,Minute]
583,11,CRAWLSPACE,AFN Zone Infiltration Air Change Rate [ach] !RunPeriod [Value,Min,Month,Day,Hour,Minute,Max,Month,Day,Hour,Minute]
1038,11,Facility,Facility Heating Setpoint Not Met Time [hr] !RunPeriod [Value,Min,Month,Day,Hour,Minute,Max,Month,Day,Hour,Minute]
1039,11,Facility,Facility Cooling Setpoint Not Met Time [hr] !RunPeriod [Value,Min,Month,Day,Hour,Minute,Max,Month,Day,Hour,Minute]
1115,11,DX_HEATING_COIL,Heating Coil Heating Energy [J] !RunPeriod [Value,Min,Month,Day,Hour,Minute,Max,Month,Day,Hour,Minute]
1128,11,DX_HEATING_COIL,Heating Coil Electricity Energy [J] !RunPeriod [Value,Min,Month,Day,Hour,Minute,Max,Month,Day,Hour,Minute]
1153,11,DX_HEATING_COIL,Heating Coil Defrost Electricity Energy [J] !RunPeriod [Value,Min,Month,Day,Hour,Minute,Max,Month,Day,Hour,Minute]
1154,11,DX_HEATING_COIL,Heating Coil Crankcase Heater Electricity Energy [J] !RunPeriod [Value,Min,Month,Day,Hour,Minute,Max,Month,Day,Hour,Minute]
1155,11,HEATING_RESISTANCE_BACKUP,Heating Coil Heating Energy [J] !RunPeriod [Value,Min,Month,Day,Hour,Minute,Max,Month,Day,Hour,Minute]
1156,11,HEATING_RESISTANCE_BACKUP,Heating Coil Electricity Energy [J] !RunPeriod [Value,Min,Month,Day,Hour,Minute,Max,Month,Day,Hour,Minute]
1292,11,WATER HEATER,Water Heater Heat Loss Energy [J] !RunPeriod [Value,Min,Month,Day,Hour,Minute,Max,Month,Day,Hour,Minute]
1306,11,WATER HEATER,Water Heater Heating Energy [J] !RunPeriod [Value,Min,Month,Day,Hour,Minute,Max,Month,Day,Hour,Minute]
1307,11,WATER HEATER,Water Heater Unmet Demand Heat Transfer Energy [J] !RunPeriod [Value,Min,Month,Day,Hour,Minute,Max,Month,Day,Hour,Minute]
1308,11,WATER HEATER,Water Heater Electricity Energy [J] !RunPeriod [Value,Min,Month,Day,Hour,Minute,Max,Month,Day,Hour,Minute]
13,11,Electricity:Facility [J] !RunPeriod [Value,Min,Month,Day,Hour,Minute,Max,Month,Day,Hour,Minute]
1134,11,Heating:Electricity [J] !RunPeriod [Value,Min,Month,Day,Hour,Minute,Max,Month,Day,Hour,Minute]
1096,11,Cooling:Electricity [J] !RunPeriod [Value,Min,Month,Day,Hour,Minute,Max,Month,Day,Hour,Minute]
562,11,Fans:Electricity [J] !RunPeriod [Value,Min,Month,Day,Hour,Minute,Max,Month,Day,Hour,Minute]
1379,11,Pumps:Electricity [J] !RunPeriod [Value,Min,Month,Day,Hour,Minute,Max,Month,Day,Hour,Minute]
1326,11,WaterSystems:Electricity [J] !RunPeriod [Value,Min,Month,Day,Hour,Minute,Max,Month,Day,Hour,Minute]
61,11,InteriorLights:Electricity [J] !RunPeriod [Value,Min,Month,Day,Hour,Minute,Max,Month,Day,Hour,Minute]
1046,11,ExteriorLights:Electricity [J] !RunPeriod [Value,Min,Month,Day,Hour,Minute,Max,Month,Day,Hour,Minute]
134,11,InteriorEquipment:Electricity [J] !RunPeriod [Value,Min,Month,Day,Hour,Minute,Max,Month,Day,Hour,Minute]
170,11,gas_dryer:InteriorEquipment:Electricity [J] !RunPeriod [Value,Min,Month,Day,Hour,Minute,Max,Month,Day,Hour,Minute]
207,11,clotheswasher:InteriorEquipment:Electricity [J] !RunPeriod [Value,Min,Month,Day,Hour,Minute,Max,Month,Day,Hour,Minute]
244,11,dishwasher:InteriorEquipment:Electricity [J] !RunPeriod [Value,Min,Month,Day,Hour,Minute,Max,Month,Day,Hour,Minute]
281,11,refrigerator:InteriorEquipment:Electricity [J] !RunPeriod [Value,Min,Month,Day,Hour,Minute,Max,Month,Day,Hour,Minute]
318,11,electric_mels:InteriorEquipment:Electricity [J] !RunPeriod [Value,Min,Month,Day,Hour,Minute,Max,Month,Day,Hour,Minute]
355,11,NaturalGas:Facility [J] !RunPeriod [Value,Min,Month,Day,Hour,Minute,Max,Month,Day,Hour,Minute]
403,11,InteriorEquipment:NaturalGas [J] !RunPeriod [Value,Min,Month,Day,Hour,Minute,Max,Month,Day,Hour,Minute]
476,11,gas_dryer:InteriorEquipment:NaturalGas [J] !RunPeriod [Value,Min,Month,Day,Hour,Minute,Max,Month,Day,Hour,Minute]
513,11,gas_mels:InteriorEquipment:NaturalGas [J] !RunPeriod [Value,Min,Month,Day,Hour,Minute,Max,Month,Day,Hour,Minute]
End of Data Dictionary
1,EXTREME_WINTER,  42.41, -83.01,  -5.00, 190.80
5,7
1038,1.5,0.0,12,15, 1,15,0.25,12,15, 6,15
1039,0.0,0.0,12,15, 1,15,0.0,12,15, 1,15
581,0.4559202091768575,0.2894943029765191,12,19,23, 3,0.7608191231599565,12,15,10,52
582,5.756912653832047,0.11924350392028,12,18, 7,60,16.726322805975254,12,21,15,52
583,0.06819307657021818,0.0008610751537006711,12,19,23, 3,0.07959356082362193,12,15,10,52
1115,2082963802.6693969,0.0,12,15,23, 5,3952038.034732933,12,21,19,60
1128,745730864.5716028,0.0,12,15,23, 5,1255973.5861999248,12,21,19,60
1153,12412319.169252941,0.0,12,15,23, 5,69495.13961984048,12,18, 6,60
1154,6686341.480058719,0.0,12,15, 1,15,144894.1096159111,12,19,15,15
1155,1292728998.9606311,0.0,12,15,23, 5,5911864.06883758,12,16, 6,45
1156,1292728998.9606311,0.0,12,15,23, 5,5911864.06883758,12,16, 6,45
1292,-25413946.931610674,-39774.973452286205,12,15, 1,15,-9114.65519858858,12,19,18,30
1306,126171623.04680458,0.0,12,15, 1,15,4050000.0,12,15, 7,15
1307,23975059.469574682,0.0,12,15, 1,15,7196544.94888145,12,15, 6,60
1308,126171623.04680458,0.0,12,15, 1,15,4050000.0,12,15, 7,15
13,2639490768.0534983,658402.6190139793,12,19,15,60,10749263.14432893,12,16, 7,30
61,301924526.02383536,88139.10953165221,12,15, 1,15,1282023.4113694867,12,15,20,15
134,70666020.44019976,63564.01800854099,12,15, 4,15,156554.22484006523,12,20,20,15
170,5241013.419656067,348.4159749238097,12,15, 4,15,17476.39704006126,12,20,12,15
207,6509451.13922267,815.2532113832032,12,15, 3,15,22990.642799023623,12,20,10,15
244,12749673.399825225,1521.856143006317,12,15, 4,15,53038.631142310165,12,20,20,15
281,46165882.481495745,59938.60262432081,12,15, 5,15,81951.81706819107,12,15,19,15
318,0.0,0.0,12,15, 1,15,0.0,12,15, 1,15
355,197687796.27748066,18561.32405820678,12,15, 4,15,724774.895203776,12,20,18,15
403,197687796.27748066,18561.32405820678,12,15, 4,15,724774.895203776,12,20,18,15
476,106772067.24485716,7098.072629279515,12,15, 4,15,356036.3026282215,12,20,12,15
513,0.0,0.0,12,15, 1,15,0.0,12,15, 1,15
562,83170074.3611112,19864.335870059083,12,19,16,30,131087.88018804285,12,15, 1,15
1046,0.0,0.0,12,15, 1,15,0.0,12,15, 1,15
1096,0.0,0.0,12,15, 1,15,0.0,12,15, 1,15
1134,2057558524.181544,339894.1542081502,12,19,16,30,7054805.019273398,12,16, 6,45
1326,126171623.0468046,0.0,12,15, 1,15,4050000.0,12,15, 7,15
1379,0.0,0.0,12,15, 1,15,0.0,12,15, 1,15
1,EXTREME_SUMMER,  42.41, -83.01,  -5.00, 190.80
5,7
1038,0.0,0.0, 7,27, 1,15,0.0, 7,27, 1,15
1039,11.25,0.0, 7,27, 1,15,0.25, 7,30,17,15
581,0.1236225993090042,0.0, 7,30, 6,30,0.4170255884099097, 8, 1,11,60
582,3.6641068607074825,0.0, 8, 1,21, 7,12.625669857071637, 7,27,15,52
583,0.03223516250264423,0.0, 8, 1,23, 3,0.0675598705479826, 8, 1,11,60
1115,0.0,0.0, 7,27, 1,15,0.0, 7,27, 1,15
1128,0.0,0.0, 7,27, 1,15,0.0, 7,27, 1,15
1153,0.0,0.0, 7,27, 1,15,0.0, 7,27, 1,15
1154,0.0,0.0, 7,27, 1,15,0.0, 7,27, 1,15
1155,0.0,0.0, 7,27, 1,15,0.0, 7,27, 1,15
1156,0.0,0.0, 7,27, 1,15,0.0, 7,27, 1,15
1292,-22064255.99339789,-34494.89071820291, 7,27, 6,45,-3680.56238128504, 7,29,14,59
1306,100646632.37633716,0.0, 7,27, 1,15,4050000.0, 7,27, 7,15
1307,13198395.259751458,0.0, 7,27, 1,15,4715082.945676599, 7,27, 6,60
1308,100646632.37633716,0.0, 7,27, 1,15,4050000.0, 7,27, 7,15
13,912590774.5391092,151703.1275401932, 7,27, 4,45,5543013.089886267, 8, 1,10,30
61,301924526.02383536,88139.10953165221, 7,27, 1,15,1282023.4113694867, 7,27,20,15
134,70666020.44019976,63564.01800854099, 7,27, 4,15,156554.22484006523, 8, 1,20,15
170,5241013.419656067,348.4159749238097, 7,27, 4,15,17476.39704006126, 8, 1,12,15
207,6509451.13922267,815.2532113832032, 7,27, 3,15,22990.642799023623, 8, 1,10,15
244,12749673.399825225,1521.856143006317, 7,27, 4,15,53038.631142310165, 8, 1,20,15
281,46165882.481495745,59938.60262432081, 7,27, 5,15,81951.81706819107, 7,27,19,15
318,0.0,0.0, 7,27, 1,15,0.0, 7,27, 1,15
355,197687796.27748066,18561.32405820678, 7,27, 4,15,724774.895203776, 8, 1,18,15
403,197687796.27748066,18561.32405820678, 7,27, 4,15,724774.895203776, 8, 1,18,15
476,106772067.24485716,7098.072629279515, 7,27, 4,15,356036.3026282215, 8, 1,12,15
513,0.0,0.0, 7,27, 1,15,0.0, 7,27, 1,15
562,43307409.653076865,0.0, 7,27, 4,45,131087.88018804285, 7,27,17,15
1046,0.0,0.0, 7,27, 1,15,0.0, 7,27, 1,15
1096,396046186.04565984,0.0, 7,27, 4,45,1350802.7825366978, 8, 1,13,60
1134,0.0,0.0, 7,27, 1,15,0.0, 7,27, 1,15
1326,100646632.37633714,0.0, 7,27, 1,15,4050000.0, 7,27, 7,15
1379,0.0,0.0, 7,27, 1,15,0.0, 7,27, 1,15
1,ANNUAL,  42.41, -83.01,  -5.00, 190.80
5,365
1038,25.0,0.0, 1, 1, 1,15,0.25, 1,11, 6,15
1039,146.5,0.0, 1, 1, 1,15,0.25, 5, 2,14,30
581,0.2602601393553738,0.0, 4,21, 7,33,0.9051295393878998, 2,21,19,52
582,4.281945083964972,0.0, 1, 5, 8,60,24.722773395529874, 4, 1,12,52
583,0.02914791527020468,0.0, 8, 1,23, 3,0.0822585545575639, 2,21,19,52
1115,32829569411.42962,0.0, 1, 1,23, 5,4474073.172320102, 3,24, 8,45
1128,10451283906.878916,0.0, 1, 1,23, 5,1315047.8925830692, 3,24, 8,45
1153,323477959.1326002,0.0, 1, 1,23, 5,130556.99960644328,12,27, 7,45
1154,1373649395.9373817,0.0, 1, 1, 2,45,180000.0, 1, 7,14,30
1155,7103513875.234907,0.0, 1, 1, 1,15,5911864.06883758, 2, 5, 6,15
1156,7103513875.234907,0.0, 1, 1, 1,15,5911864.06883758, 2, 5, 6,15
1292,-1237984767.5772035,-39800.31832399523,10,29, 3,60,-2889.7861647937702, 4, 2,15,60
1306,6133400755.171188,0.0, 1, 1, 1,15,4050000.0, 1, 2, 7,15
1307,1059315606.9334265,0.0, 1, 1, 1,15,7989309.4602459865, 2,13, 6,60
1308,6133400755.171188,0.0, 1, 1, 1,15,4050000.0, 1, 2, 7,15
13,53102364434.97025,151703.1275401932, 4,14, 4,15,10545582.47713186, 3, 2, 8,30
61,15743207428.383959,88139.10953165221, 1, 1, 1,15,1282023.4113694867, 1, 1,20,15
134,3685071073.4325233,63564.01800854099, 1, 2, 4,15,156554.22484006523, 1, 1,20,15
170,273393721.45532674,348.4159749238097, 1, 2, 4,15,17476.39704006126, 1, 1,12,15
207,339560869.0695816,815.2532113832032, 1, 2, 3,15,22990.642799023623, 1, 1,10,15
244,664895467.8009144,1521.856143006317, 1, 2, 4,15,53038.631142310165, 1, 1,20,15
281,2407221015.106824,59938.60262432081, 1, 1, 5,15,81951.81706819107, 1, 1,19,15
318,0.0,0.0, 1, 1, 1,15,0.0, 1, 1, 1,15
355,10310294493.051695,18561.32405820678, 1, 2, 4,15,724774.895203776, 1, 1,18,15
403,10310294493.051695,18561.32405820678, 1, 2, 4,15,724774.895203776, 1, 1,18,15
476,5569688622.066177,7098.072629279515, 1, 2, 4,15,356036.3026282215, 1, 1,12,15
513,0.0,0.0, 1, 1, 1,15,0.0, 1, 1, 1,15
562,1883722163.7939446,0.0, 1, 6,16,30,131087.88018804285, 1, 1, 2,45
1046,0.0,0.0, 1, 1, 1,15,0.0, 1, 1, 1,15
1096,6405037877.003367,0.0, 1, 1, 1,15,1392108.36097292, 6, 8,16,60
1134,19251925137.183865,0.0, 2,10,11,60,7051794.778127112, 2, 4, 6,30
1326,6133400755.171189,0.0, 1, 1, 1,15,4050000.0, 1, 2, 7,15
1379,0.0,0.0, 1, 1, 1,15,0.0, 1, 1, 1,15
End of Data
 Number of Records Written=          99
