Program Version,EnergyPlus, Version 22.2.0-c249759bad, YMD=2023.09.01 14:32
1,5,Environment Title[],Latitude[deg],Longitude[deg],Time Zone[],Elevation[m]
2,8,Day of Simulation[],Month[],Day of Month[],DST Indicator[1=yes 0=no],Hour[],StartMinute[],EndMinute[],DayType
3,5,Cumulative Day of Simulation[],Month[],Day of Month[],DST Indicator[1=yes 0=no],DayType  ! When Daily Report Variables Requested
4,2,Cumulative Days of Simulation[],Month[]  ! When Monthly Report Variables Requested
5,1,Cumulative Days of Simulation[] ! When Run Period Report Variables Requested
6,1,Calendar Year of Simulation[] ! When Annual Report Variables Requested
7,1,Environment,Site Outdoor Air Drybulb Temperature [C] !Hourly
545,1,LIVING,Zone Mean Air Temperature [C] !Hourly
546,1,ATTIC,Zone Mean Air Temperature [C] !Hourly
547,1,CRAWLSPACE,Zone Mean Air Temperature [C] !Hourly
548,1,FAN,Fan Electricity Rate [W] !Hourly
720,1,LIVING,Zone Predicted Sensible Load to Heating Setpoint Heat Transfer Rate [W] !Hourly
721,1,LIVING,Zone System Predicted Sensible Load to Heating Setpoint Heat Transfer Rate [W] !Hourly
784,1,ATTIC,Zone Predicted Sensible Load to Heating Setpoint Heat Transfer Rate [W] !Hourly
785,1,ATTIC,Zone System Predicted Sensible Load to Heating Setpoint Heat Transfer Rate [W] !Hourly
848,1,CRAWLSPACE,Zone Predicted Sensible Load to Heating Setpoint Heat Transfer Rate [W] !Hourly
849,1,CRAWLSPACE,Zone System Predicted Sensible Load to Heating Setpoint Heat Transfer Rate [W] !Hourly
1121,1,DX_HEATING_COIL,Heating Coil Heating Rate [W] !Hourly
1135,1,DX_HEATING_COIL,Heating Coil Electricity Rate [W] !Hourly
1161,1,DX_HEATING_COIL,Heating Coil Defrost Electricity Rate [W] !Hourly
1163,1,DX_HEATING_COIL,Heating Coil Crankcase Heater Electricity Rate [W] !Hourly
1166,1,HEATING_RESISTANCE_BACKUP,Heating Coil Heating Rate [W] !Hourly
1168,1,HEATING_RESISTANCE_BACKUP,Heating Coil Electricity Rate [W] !Hourly
End of Data Dictionary
1,EXTREME_WINTER,  32.90, -80.03,  -5.00,  14.30
2,1, 1, 6, 0, 1, 0.00,60.00,Monday
7,3.9
545,23.35131124245544
546,5.509599879379388
547,20.60348903352394
548,0.0
720,-3612.140508174847
721,-3612.140508174847
784,0.0
785,0.0
848,0.0
849,0.0
1121,0.0
1135,0.0
1161,0.0
1163,200.0
1166,0.0
1168,0.0
2,1, 1, 6, 0, 2, 0.00,60.00,Monday
7,3.9
545,22.576123771410977
546,4.044487897362933
547,20.448552277080374
548,0.0
720,-3207.3510524548547
721,-3207.3510524548547
784,0.0
785,0.0
848,0.0
849,0.0
1121,0.0
1135,0.0
1161,0.0
1163,200.0
1166,0.0
1168,0.0
2,1, 1, 6, 0, 3, 0.00,60.00,Monday
7,2.8
545,21.68540126748711
546,2.8213469167786513
547,20.324752494190818
548,0.0
720,-2402.297056428397
721,-2402.297056428397
784,0.0
785,0.0
848,0.0
849,0.0
1121,0.0
1135,0.0
1161,0.0
1163,200.0
1166,0.0
1168,0.0
2,1, 1, 6, 0, 4, 0.00,60.00,Monday
7,2.2
545,20.871624161517218
546,1.711047836164792
547,20.196929282089673
548,0.0
720,-1780.108998383861
721,-1780.108998383861
784,0.0
785,0.0
848,0.0
849,0.0
1121,0.0
1135,0.0
1161,0.0
1163,200.0
1166,0.0
1168,0.0
2,1, 1, 6, 0, 5, 0.00,60.00,Monday
7,2.2
545,20.25120340877732
546,0.8190138396012019
547,20.069924737038743
548,0.0
720,-1270.927353615678
721,-1270.927353615678
784,0.0
785,0.0
848,0.0
849,0.0
1121,0.0
1135,0.0
1161,0.0
1163,200.0
1166,0.0
1168,0.0
2,1, 1, 6, 0, 6, 0.00,60.00,Monday
7,2.2
545,20.971427957591377
546,2.2197827513027213
547,19.886570850042457
548,53.17326632505105
720,67.36169782781326
721,67.36169782781326
784,0.0
785,0.0
848,0.0
849,0.0
1121,1680.2333521686985
1135,545.6844800573597
1161,53.482191577377975
1163,130.5107445198645
1166,0.0
1168,0.0
2,1, 1, 6, 0, 7, 0.00,60.00,Monday
7,2.8
545,20.36716570364733
546,1.1561227913406698
547,19.80983960276491
548,19.220277284645423
720,95.19823776552948
721,95.19823776552948
784,0.0
785,0.0
848,0.0
849,0.0
1121,602.9798922692959
1135,201.9527377018432
1161,18.571597465608374
1163,174.92208374227246
1166,0.0
1168,0.0
2,1, 1, 6, 0, 8, 0.00,60.00,Monday
7,2.8
545,19.93255576051703
546,0.6762724323070832
547,19.678551803186632
548,16.53704231098616
720,289.80397077824273
721,289.80397077824273
784,0.0
785,0.0
848,0.0
849,0.0
1121,519.3133926910214
1135,171.6926399369209
1161,15.978549973887146
1163,178.42357185981956
1166,0.0
1168,0.0
2,1, 1, 6, 0, 9, 0.00,60.00,Monday
7,7.8
545,20.17144304956142
546,4.2018436558142085
547,19.57408868401443
548,0.0
720,-33.871733291141936
721,-33.871733291141936
784,0.0
785,0.0
848,0.0
849,0.0
1121,0.0
1135,0.0
1161,0.0
1163,200.0
1166,0.0
1168,0.0
2,1, 1, 6, 0,10, 0.00,60.00,Monday
7,11.1
545,21.21277434198099
546,9.937070683659368
547,19.469203983087095
548,0.0
720,-1012.9734409457087
721,-1012.9734409457087
784,0.0
785,0.0
848,0.0
849,0.0
1121,0.0
1135,0.0
1161,0.0
1163,0.0
1166,0.0
1168,0.0
2,1, 1, 6, 0,11, 0.00,60.00,Monday
7,11.1
545,22.073485522464846
546,14.600062778652521
547,19.399351652339718
548,0.0
720,-1957.1383723905637
721,-1957.1383723905637
784,0.0
785,0.0
848,0.0
849,0.0
1121,0.0
1135,0.0
1161,0.0
1163,0.0
1166,0.0
1168,0.0
2,1, 1, 6, 0,12, 0.00,60.00,Monday
7,15.0
545,23.20715204755011
546,18.7218742298243
547,19.365975321580752
548,0.0
720,-2847.28054811487
721,-2847.28054811487
784,0.0
785,0.0
848,0.0
849,0.0
1121,0.0
1135,0.0
1161,0.0
1163,0.0
1166,0.0
1168,0.0
2,1, 1, 6, 0,13, 0.00,60.00,Monday
7,16.1
545,23.359033366022498
546,20.51330724938497
547,19.37693788506965
548,10.765492297069393
720,-3574.9830782174486
721,-3574.9830782174486
784,0.0
785,0.0
848,0.0
849,0.0
1121,0.0
1135,0.0
1161,0.0
1163,0.0
1166,0.0
1168,0.0
2,1, 1, 6, 0,14, 0.00,60.00,Monday
7,16.1
545,23.34253650414386
546,21.229348704872375
547,19.416277634745608
548,24.6171736786636
720,-3925.2060267460056
721,-3925.2060267460056
784,0.0
785,0.0
848,0.0
849,0.0
1121,0.0
1135,0.0
1161,0.0
1163,0.0
1166,0.0
1168,0.0
2,1, 1, 6, 0,15, 0.00,60.00,Monday
7,17.2
545,23.46689027977635
546,21.631812379583515
547,19.4964373775486
548,41.46033380122544
720,-5160.637533842839
721,-5160.637533842839
784,0.0
785,0.0
848,0.0
849,0.0
1121,0.0
1135,0.0
1161,0.0
1163,0.0
1166,0.0
1168,0.0
2,1, 1, 6, 0,16, 0.00,60.00,Monday
7,16.7
545,23.26697066901657
546,20.81489303693691
547,19.5896746161704
548,54.63654579236518
720,-6026.626084434654
721,-6026.626084434654
784,0.0
785,0.0
848,0.0
849,0.0
1121,0.0
1135,0.0
1161,0.0
1163,0.0
1166,0.0
1168,0.0
2,1, 1, 6, 0,17, 0.00,60.00,Monday
7,16.7
545,23.327084014494744
546,19.465040094585042
547,19.678038515524346
548,56.719971817502746
720,-6471.3729921273225
721,-6471.3729921273225
784,0.0
785,0.0
848,0.0
849,0.0
1121,0.0
1135,0.0
1161,0.0
1163,0.0
1166,0.0
1168,0.0
2,1, 1, 6, 0,18, 0.00,60.00,Monday
7,12.2
545,23.37470878496046
546,16.425989268694266
547,19.73249617799669
548,31.126056049799104
720,-5281.203864545696
721,-5281.203864545696
784,0.0
785,0.0
848,0.0
849,0.0
1121,0.0
1135,0.0
1161,0.0
1163,0.0
1166,0.0
1168,0.0
2,1, 1, 6, 0,19, 0.00,60.00,Monday
7,11.7
545,23.360166897961832
546,13.693611467449426
547,19.796790621264385
548,24.411401594597955
720,-4487.895320111687
721,-4487.895320111687
784,0.0
785,0.0
848,0.0
849,0.0
1121,0.0
1135,0.0
1161,0.0
1163,0.0
1166,0.0
1168,0.0
2,1, 1, 6, 0,20, 0.00,60.00,Monday
7,11.7
545,23.351441642977502
546,11.489784176392224
547,19.825397959160618
548,21.121815744886693
720,-4233.80802081416
721,-4233.80802081416
784,0.0
785,0.0
848,0.0
849,0.0
1121,0.0
1135,0.0
1161,0.0
1163,0.0
1166,0.0
1168,0.0
2,1, 1, 6, 0,21, 0.00,60.00,Monday
7,10.0
545,23.275280078667606
546,9.809197725245179
547,19.822214432149174
548,15.765661251758477
720,-3878.8097256106794
721,-3878.8097256106794
784,0.0
785,0.0
848,0.0
849,0.0
1121,0.0
1135,0.0
1161,0.0
1163,0.0
1166,0.0
1168,0.0
2,1, 1, 6, 0,22, 0.00,60.00,Monday
7,8.9
545,23.29758690185412
546,8.35755121521346
547,19.796835710616214
548,6.177714528409712
720,-3321.5000019096096
721,-3321.5000019096096
784,0.0
785,0.0
848,0.0
849,0.0
1121,0.0
1135,0.0
1161,0.0
1163,192.00335806681332
1166,0.0
1168,0.0
2,1, 1, 6, 0,23, 0.00,60.00,Monday
7,8.9
545,23.148924855692098
546,7.388356467110934
547,19.75927409981613
548,0.0
720,-3389.9573155196504
721,-3389.9573155196504
784,0.0
785,0.0
848,0.0
849,0.0
1121,0.0
1135,0.0
1161,0.0
1163,200.0
1166,0.0
1168,0.0
2,1, 1, 6, 0,24, 0.00,60.00,Monday
7,7.8
545,22.403460980721004
546,6.861064427681747
547,19.709889895523496
548,0.0
720,-2460.6036878347168
721,-2460.6036878347168
784,0.0
785,0.0
848,0.0
849,0.0
1121,0.0
1135,0.0
1161,0.0
1163,200.0
1166,0.0
1168,0.0
2,2, 1, 7, 0, 1, 0.00,60.00,Tuesday
7,7.2
545,21.702228896942014
546,6.304645659861451
547,19.64865900161962
548,0.0
720,-2161.848711683997
721,-2161.848711683997
784,0.0
785,0.0
848,0.0
849,0.0
1121,0.0
1135,0.0
1161,0.0
1163,200.0
1166,0.0
1168,0.0
2,2, 1, 7, 0, 2, 0.00,60.00,Tuesday
7,7.2
545,21.102204848707558
546,5.945425701739118
547,19.57720072540704
548,0.0
720,-1736.8585036586064
721,-1736.8585036586064
784,0.0
785,0.0
848,0.0
849,0.0
1121,0.0
1135,0.0
1161,0.0
1163,200.0
1166,0.0
1168,0.0
2,2, 1, 7, 0, 3, 0.00,60.00,Tuesday
7,6.1
545,20.376035981012805
546,5.531089024902033
547,19.49581091424111
548,0.0
720,-1189.4947033531262
721,-1189.4947033531262
784,0.0
785,0.0
848,0.0
849,0.0
1121,0.0
1135,0.0
1161,0.0
1163,200.0
1166,0.0
1168,0.0
2,2, 1, 7, 0, 4, 0.00,60.00,Tuesday
7,6.1
545,19.770547548467388
546,5.143973707972117
547,19.410210610045628
548,0.0
720,-802.1083848428134
721,-802.1083848428134
784,0.0
785,0.0
848,0.0
849,0.0
1121,0.0
1135,0.0
1161,0.0
1163,200.0
1166,0.0
1168,0.0
2,2, 1, 7, 0, 5, 0.00,60.00,Tuesday
7,6.1
545,19.31993955150511
546,4.878297550363412
547,19.31840952706519
548,0.0
720,-475.793001257789
721,-475.793001257789
784,0.0
785,0.0
848,0.0
849,0.0
1121,0.0
1135,0.0
1161,0.0
1163,200.0
1166,0.0
1168,0.0
2,2, 1, 7, 0, 6, 0.00,60.00,Tuesday
7,3.9
545,19.586740737552244
546,4.0905922962287695
547,19.20084908517996
548,21.99844183095009
720,625.3175964205093
721,625.3175964205093
784,0.0
785,0.0
848,0.0
849,0.0
1121,754.9941564903091
1135,236.78304219469953
1161,13.176862730273353
1163,171.42711026584726
1166,0.0
1168,0.0
2,2, 1, 7, 0, 7, 0.00,60.00,Tuesday
7,3.3
545,19.695167230104794
546,3.3768326998414193
547,19.104243866956715
548,29.230549884152627
720,771.318685598213
721,771.318685598213
784,0.0
785,0.0
848,0.0
849,0.0
1121,985.7844436802617
1135,312.8647898186919
1161,18.792975539717546
1163,161.99543498254687
1166,0.0
1168,0.0
2,2, 1, 7, 0, 8, 0.00,60.00,Tuesday
7,3.3
545,19.694273196183197
546,2.93557370684162
547,19.005226225824032
548,34.95837671720723
720,906.4202433094251
721,906.4202433094251
784,0.0
785,0.0
848,0.0
849,0.0
1121,1183.3330605917754
1135,374.9250344677496
1161,22.475571662924224
1163,154.54821282756436
1166,0.0
1168,0.0
2,2, 1, 7, 0, 9, 0.00,60.00,Tuesday
7,5.6
545,19.78836068026445
546,4.857495894630547
547,18.929830355933657
548,13.197203185549677
720,414.9530489343506
721,414.9530489343506
784,0.0
785,0.0
848,0.0
849,0.0
1121,580.5238922209406
1135,164.49008992977733
1161,0.0
1163,182.9170953256207
1166,0.0
1168,0.0
2,2, 1, 7, 0,10, 0.00,60.00,Tuesday
7,8.3
545,20.113190706584234
546,8.564566244509246
547,18.84978599566509
548,0.0
720,-367.30906660623805
721,-367.30906660623805
784,0.0
785,0.0
848,0.0
849,0.0
1121,0.0
1135,0.0
1161,0.0
1163,200.0
1166,0.0
1168,0.0
2,2, 1, 7, 0,11, 0.00,60.00,Tuesday
7,8.3
545,20.884825123485914
546,11.820512722239314
547,18.790588460964482
548,0.0
720,-895.3875824874067
721,-895.3875824874067
784,0.0
785,0.0
848,0.0
849,0.0
1121,0.0
1135,0.0
1161,0.0
1163,200.0
1166,0.0
1168,0.0
2,2, 1, 7, 0,12, 0.00,60.00,Tuesday
7,12.2
545,22.12224312421649
546,16.609698879931248
547,18.765589266725538
548,0.0
720,-1809.296300410586
721,-1809.296300410586
784,0.0
785,0.0
848,0.0
849,0.0
1121,0.0
1135,0.0
1161,0.0
1163,0.0
1166,0.0
1168,0.0
2,2, 1, 7, 0,13, 0.00,60.00,Tuesday
7,13.3
545,22.40317709177375
546,18.344034887514603
547,18.764696067431107
548,0.0
720,-2200.26481835664
721,-2200.26481835664
784,0.0
785,0.0
848,0.0
849,0.0
1121,0.0
1135,0.0
1161,0.0
1163,0.0
1166,0.0
1168,0.0
2,2, 1, 7, 0,14, 0.00,60.00,Tuesday
7,13.3
545,22.623654988584455
546,18.368623762485576
547,18.785163862224195
548,0.0
720,-2045.9072355527587
721,-2045.9072355527587
784,0.0
785,0.0
848,0.0
849,0.0
1121,0.0
1135,0.0
1161,0.0
1163,0.0
1166,0.0
1168,0.0
2,2, 1, 7, 0,15, 0.00,60.00,Tuesday
7,10.0
545,22.64888556923396
546,16.763494949469298
547,18.82246662381175
548,0.0
720,-2184.097582270777
721,-2184.097582270777
784,0.0
785,0.0
848,0.0
849,0.0
1121,0.0
1135,0.0
1161,0.0
1163,0.0
1166,0.0
1168,0.0
2,2, 1, 7, 0,16, 0.00,60.00,Tuesday
7,9.4
545,22.156030749390315
546,14.12908627844659
547,18.864828934933
548,0.0
720,-1923.3010474177827
721,-1923.3010474177827
784,0.0
785,0.0
848,0.0
849,0.0
1121,0.0
1135,0.0
1161,0.0
1163,200.0
1166,0.0
1168,0.0
2,2, 1, 7, 0,17, 0.00,60.00,Tuesday
7,9.4
545,22.03932023765011
546,12.424199119940193
547,18.90268383315915
548,0.0
720,-2070.871135591693
721,-2070.871135591693
784,0.0
785,0.0
848,0.0
849,0.0
1121,0.0
1135,0.0
1161,0.0
1163,200.0
1166,0.0
1168,0.0
2,2, 1, 7, 0,18, 0.00,60.00,Tuesday
7,7.8
545,22.01711721503093
546,10.676311249315116
547,18.926971660647354
548,0.0
720,-1951.9163166758772
721,-1951.9163166758772
784,0.0
785,0.0
848,0.0
849,0.0
1121,0.0
1135,0.0
1161,0.0
1163,200.0
1166,0.0
1168,0.0
2,2, 1, 7, 0,19, 0.00,60.00,Tuesday
7,7.2
545,22.06045139705799
546,9.321851037832245
547,18.931423252614334
548,0.0
720,-1867.6964721632394
721,-1867.6964721632394
784,0.0
785,0.0
848,0.0
849,0.0
1121,0.0
1135,0.0
1161,0.0
1163,200.0
1166,0.0
1168,0.0
2,2, 1, 7, 0,20, 0.00,60.00,Tuesday
7,7.2
545,22.010574960876664
546,8.628234496406453
547,18.917056243350885
548,0.0
720,-1756.0515739400398
721,-1756.0515739400398
784,0.0
785,0.0
848,0.0
849,0.0
1121,0.0
1135,0.0
1161,0.0
1163,200.0
1166,0.0
1168,0.0
2,2, 1, 7, 0,21, 0.00,60.00,Tuesday
7,6.1
545,20.983036619835726
546,7.924997314169015
547,18.88505872457574
548,0.0
720,-995.5580469529978
721,-995.5580469529978
784,0.0
785,0.0
848,0.0
849,0.0
1121,0.0
1135,0.0
1161,0.0
1163,200.0
1166,0.0
1168,0.0
2,2, 1, 7, 0,22, 0.00,60.00,Tuesday
7,4.4
545,19.757106136239656
546,6.575117242872097
547,18.83697827316342
548,4.128049318216089
720,88.28767494163549
721,88.28767494163549
784,0.0
785,0.0
848,0.0
849,0.0
1121,150.6238645723751
1135,49.23358777166355
1161,0.3296204474976422
1163,194.65458676767815
1166,0.0
1168,0.0
2,2, 1, 7, 0,23, 0.00,60.00,Tuesday
7,4.4
545,18.81126169444089
546,6.167488292508652
547,18.783342594137256
548,0.0
720,-191.69706174634484
721,-191.69706174634484
784,0.0
785,0.0
848,0.0
849,0.0
1121,0.0
1135,0.0
1161,0.0
1163,200.0
1166,0.0
1168,0.0
2,2, 1, 7, 0,24, 0.00,60.00,Tuesday
7,1.1
545,18.51750381470325
546,3.8664216306716157
547,18.660134424728195
548,40.28372368522255
720,1152.9186136107437
721,1152.9186136107437
784,0.0
785,0.0
848,0.0
849,0.0
1121,1411.9074299420013
1135,450.83158442494977
1161,0.021880448969109144
1163,147.85509346111118
1166,0.0
1168,0.0
2,3, 1, 8, 0, 1, 0.00,60.00,Wednesday
7,-1.7
545,18.209463957366225
546,2.025271711250538
547,18.510319533665054
548,81.06630128759053
720,2145.622586735779
721,2145.622586735779
784,0.0
785,0.0
848,0.0
849,0.0
1121,2718.2600842089573
1135,879.8723847384521
1161,0.044031997562582983
1163,95.06410947677404
1166,0.0
1168,0.0
2,3, 1, 8, 0, 2, 0.00,60.00,Wednesday
7,-1.7
545,18.36139868888426
546,1.5429249126194802
547,18.37378401962024
548,110.82242759610355
720,2920.6465775178713
721,2920.6465775178713
784,0.0
785,0.0
848,0.0
849,0.0
1121,3807.733174185628
1135,1195.1962498937935
1161,0.06019434355327323
1163,56.54643452761869
1166,0.0
1168,0.0
2,3, 1, 8, 0, 3, 0.00,60.00,Wednesday
7,-3.9
545,18.461040791634474
546,0.04997007367575357
547,18.230993211763717
548,129.2803543087331
720,3149.346814517384
721,3149.346814517384
784,0.0
785,0.0
848,0.0
849,0.0
1121,4233.823403989615
1135,1372.4596667186852
1161,0.07022016130835007
1163,32.653171160285744
1166,0.0
1168,0.0
2,3, 1, 8, 0, 4, 0.00,60.00,Wednesday
7,-5.0
545,18.430229247782123
546,-0.782242442394148
547,18.066630886124187
548,154.50771911573855
720,3896.243908720957
721,3896.243908720957
784,0.0
785,0.0
848,0.0
849,0.0
1121,4999.814596979904
1135,1628.0716728818954
1161,0.08392171132876063
1163,0.0
1166,336.462311542693
1168,336.462311542693
2,3, 1, 8, 0, 5, 0.00,60.00,Wednesday
7,-5.0
545,18.530830427627066
546,-1.0529919435545712
547,17.941578282384658
548,154.50771911573855
720,4209.224567909927
721,4209.224567909927
784,0.0
785,0.0
848,0.0
849,0.0
1121,5000.856254891436
1135,1626.8586014619736
1161,0.08392171132876063
1163,0.0
1166,802.411522022624
1168,802.411522022624
2,3, 1, 8, 0, 6, 0.00,60.00,Wednesday
7,-6.7
545,19.304879950588457
546,-1.7929714654281872
547,17.802435796300948
548,154.50771911573855
720,4987.100417029267
721,4987.100417029267
784,0.0
785,0.0
848,0.0
849,0.0
1121,4756.757071457795
1135,1606.7967116187394
1161,0.08392171132876063
1163,0.0
1166,1972.5689353915282
1168,1972.5689353915282
2,3, 1, 8, 0, 7, 0.00,60.00,Wednesday
7,-7.8
545,19.557660020870888
546,-2.5479358656852105
547,17.684151565137647
548,154.50771911573855
720,5643.8240412331415
721,5643.8240412331415
784,0.0
785,0.0
848,0.0
849,0.0
1121,4583.213762162321
1135,1615.5464855754144
1161,0.08392171132876063
1163,0.0
1166,3032.222555994824
1168,3032.222555994824
2,3, 1, 8, 0, 8, 0.00,60.00,Wednesday
7,-7.8
545,19.65076119034582
546,-2.7974315471728324
547,17.55568602958654
548,154.50771911573855
720,5491.552046526849
721,5491.552046526849
784,0.0
785,0.0
848,0.0
849,0.0
1121,4576.454632237436
1135,1623.2137080079383
1161,0.08392171132876063
1163,0.0
1166,2952.448794012632
1168,2952.448794012632
2,3, 1, 8, 0, 9, 0.00,60.00,Wednesday
7,-6.1
545,19.71657007257583
546,-1.6075066092255912
547,17.448935570114973
548,154.50771911573855
720,4068.8218423002254
721,4068.8218423002254
784,0.0
785,0.0
848,0.0
849,0.0
1121,4810.912766919894
1135,1649.9483357048982
1161,0.08392171132876063
1163,0.0
1166,1093.396398994922
1168,1093.396398994922
2,3, 1, 8, 0,10, 0.00,60.00,Wednesday
7,-5.0
545,19.796516602706372
546,0.8581166598134032
547,17.33503890841407
548,145.3411760876014
720,3042.906735800754
721,3042.906735800754
784,0.0
785,0.0
848,0.0
849,0.0
1121,4637.3907621732515
1135,1568.5783000693943
1161,0.07894392051315126
1163,11.862939248483695
1166,0.0
1168,0.0
2,3, 1, 8, 0,11, 0.00,60.00,Wednesday
7,-5.0
545,19.902107399804347
546,2.481760993161015
547,17.25376646026422
548,113.10409906734841
720,2318.6955899813
721,2318.6955899813
784,0.0
785,0.0
848,0.0
849,0.0
1121,3517.1004396031153
1135,1222.6214866101948
1161,0.06143393980000281
1163,53.59226157975423
1166,0.0
1168,0.0
2,3, 1, 8, 0,12, 0.00,60.00,Wednesday
7,-2.2
545,20.22335940452011
546,6.510809318017713
547,17.225123535859886
548,54.04744956488791
720,1088.9451653947144
721,1088.9451653947144
784,0.0
785,0.0
848,0.0
849,0.0
1121,1739.4467961662922
1135,599.6477515129956
1161,0.029356450131184406
1163,130.03848547324912
1166,0.0
1168,0.0
2,3, 1, 8, 0,13, 0.00,60.00,Wednesday
7,-1.1
545,20.066411335475436
546,9.208299970455526
547,17.194191598723993
548,20.203839781069608
720,390.2596761882105
721,390.2596761882105
784,0.0
785,0.0
848,0.0
849,0.0
1121,652.9191728286938
1135,227.74748665808175
1161,0.0109739166078989
1163,173.84725255444582
1166,0.0
1168,0.0
2,3, 1, 8, 0,14, 0.00,60.00,Wednesday
7,-1.1
545,19.92052020288357
546,10.40099183118026
547,17.18440035508594
548,0.0
720,-143.6123856759932
721,-143.6123856759932
784,0.0
785,0.0
848,0.0
849,0.0
1121,0.0
1135,0.0
1161,0.0
1163,200.0
1166,0.0
1168,0.0
2,3, 1, 8, 0,15, 0.00,60.00,Wednesday
7,0.6
545,21.225023038704883
546,16.76632211491419
547,17.201764935494314
548,0.0
720,-1309.4782096763029
721,-1309.4782096763029
784,0.0
785,0.0
848,0.0
849,0.0
1121,0.0
1135,0.0
1161,0.0
1163,200.0
1166,0.0
1168,0.0
2,3, 1, 8, 0,16, 0.00,60.00,Wednesday
7,0.6
545,21.747316248245884
546,14.408285683416862
547,17.231454399535245
548,0.0
720,-1633.2517079834943
721,-1633.2517079834943
784,0.0
785,0.0
848,0.0
849,0.0
1121,0.0
1135,0.0
1161,0.0
1163,200.0
1166,0.0
1168,0.0
2,3, 1, 8, 0,17, 0.00,60.00,Wednesday
7,0.6
545,22.364693874553474
546,12.003775977412689
547,17.281216176224863
548,0.0
720,-2205.601598851221
721,-2205.601598851221
784,0.0
785,0.0
848,0.0
849,0.0
1121,0.0
1135,0.0
1161,0.0
1163,200.0
1166,0.0
1168,0.0
2,3, 1, 8, 0,18, 0.00,60.00,Wednesday
7,-1.7
545,20.89771895301954
546,6.563939852603734
547,17.326640130156928
548,0.0
720,-970.8447706721636
721,-970.8447706721636
784,0.0
785,0.0
848,0.0
849,0.0
1121,0.0
1135,0.0
1161,0.0
1163,200.0
1166,0.0
1168,0.0
2,3, 1, 8, 0,19, 0.00,60.00,Wednesday
7,-2.8
545,20.555122764675016
546,3.4252518582753018
547,17.37744159700055
548,0.0
720,-783.7636064748913
721,-783.7636064748913
784,0.0
785,0.0
848,0.0
849,0.0
1121,0.0
1135,0.0
1161,0.0
1163,200.0
1166,0.0
1168,0.0
2,3, 1, 8, 0,20, 0.00,60.00,Wednesday
7,-2.8
545,20.145557233962208
546,0.9598814940765671
547,17.388277033833887
548,0.0
720,-378.93597028499244
721,-378.93597028499244
784,0.0
785,0.0
848,0.0
849,0.0
1121,0.0
1135,0.0
1161,0.0
1163,200.0
1166,0.0
1168,0.0
2,3, 1, 8, 0,21, 0.00,60.00,Wednesday
7,-3.3
545,19.75970971767281
546,-0.30529231536973694
547,17.366918187019273
548,9.653417513412471
720,161.68268530867863
721,161.68268530867863
784,0.0
785,0.0
848,0.0
849,0.0
1121,290.5915812699946
1135,106.46584246120963
1161,0.16434846418533874
1163,187.49993129421813
1166,0.0
1168,0.0
2,3, 1, 8, 0,22, 0.00,60.00,Wednesday
7,-2.8
545,19.687553839193427
546,-0.6852382533704848
547,17.31639746400623
548,32.21164233794752
720,748.5308543360115
721,748.5308543360115
784,0.0
785,0.0
848,0.0
849,0.0
1121,1003.8503865140215
1135,354.64962029032563
1161,0.017496111608304898
1163,158.30373015210705
1166,0.0
1168,0.0
2,3, 1, 8, 0,23, 0.00,60.00,Wednesday
7,-2.8
545,18.74807264536435
546,-1.4180674753150102
547,17.26182951725917
548,21.805684544683064
720,457.35136045682884
721,457.35136045682884
784,0.0
785,0.0
848,0.0
849,0.0
1121,674.7026619103538
1135,239.73994589637576
1161,0.01184399991028401
1163,171.7736930699959
1166,0.0
1168,0.0
2,3, 1, 8, 0,24, 0.00,60.00,Wednesday
7,-2.8
545,18.77661464635824
546,-1.7976392703600887
547,17.170528862776262
548,43.7328505431765
720,1024.741919919241
721,1024.741919919241
784,0.0
785,0.0
848,0.0
849,0.0
1121,1381.8726381932956
1135,471.92576542080684
1161,0.023753982586827174
1163,143.39013775881736
1166,0.0
1168,0.0
2,4, 1, 9, 0, 1, 0.00,60.00,Thursday
7,-3.3
545,18.524007281198195
546,-2.0676478850533413
547,17.087474711291605
548,54.974188288020144
720,1239.29411611674
721,1239.29411611674
784,0.0
785,0.0
848,0.0
849,0.0
1121,1716.6074294257558
1135,588.0117679123421
1161,2.6169969644727358
1163,128.77042691688558
1166,0.0
1168,0.0
2,4, 1, 9, 0, 2, 0.00,60.00,Thursday
7,-3.3
545,18.489651250298863
546,-1.8486860660659987
547,16.978046547688358
548,76.98734182325911
720,1776.8882516946578
721,1776.8882516946578
784,0.0
785,0.0
848,0.0
849,0.0
1121,2447.274034861817
1135,819.225886199784
1161,3.664908483177749
1163,100.24831125548093
1166,0.0
1168,0.0
2,4, 1, 9, 0, 3, 0.00,60.00,Thursday
7,-3.0
545,18.474357826216234
546,-1.0206557513579102
547,16.876185827622123
548,95.71339218173665
720,2183.895631752901
721,2183.895631752901
784,0.0
785,0.0
848,0.0
849,0.0
1121,3038.3419974173844
1135,999.2126378466412
1161,22.783896741996188
1163,75.5143668627492
1166,0.0
1168,0.0
2,4, 1, 9, 0, 4, 0.00,60.00,Thursday
7,-2.0
545,18.620076376103956
546,-0.6905698855829596
547,16.790368759349718
548,95.56630661113833
720,2309.52120750635
721,2309.52120750635
784,0.0
785,0.0
848,0.0
849,0.0
1121,3215.19653812707
1135,1032.0602027489197
1161,0.05190784427311598
1163,76.29460016665138
1166,0.0
1168,0.0
2,4, 1, 9, 0, 5, 0.00,60.00,Thursday
7,-1.1
545,18.573143798882345
546,0.19533596786867508
547,16.705808231340207
548,95.7031679893782
720,2369.959993367689
721,2369.959993367689
784,0.0
785,0.0
848,0.0
849,0.0
1121,3298.7495408878613
1135,1044.4412737048297
1161,0.051982124363517505
1163,76.11757782231301
1166,0.0
1168,0.0
2,4, 1, 9, 0, 6, 0.00,60.00,Thursday
7,-0.6
545,19.255357690105086
546,1.5498294185573747
547,16.60692407147259
548,130.07624583877427
720,3467.9360541925325
721,3467.9360541925325
784,0.0
785,0.0
848,0.0
849,0.0
1121,4669.277603321965
1135,1424.0544288293424
1161,0.07065215997436666
1163,31.623643379746923
1166,0.0
1168,0.0
2,4, 1, 9, 0, 7, 0.00,60.00,Thursday
7,-1.0
545,19.570211694046545
546,2.004699231338933
547,16.553799174007693
548,133.34054007304442
720,3451.059940713092
721,3451.059940713092
784,0.0
785,0.0
848,0.0
849,0.0
1121,4730.387693494604
1135,1474.2532336374404
1161,0.07242522917830678
1163,27.39811180784133
1166,0.0
1168,0.0
2,4, 1, 9, 0, 8, 0.00,60.00,Thursday
7,0.0
545,19.76121741881026
546,2.184540462475758
547,16.495459240717604
548,113.94863900308455
720,2938.469302639358
721,2938.469302639358
784,0.0
785,0.0
848,0.0
849,0.0
1121,4085.525352456954
1135,1278.7980540239284
1161,0.06189225471862916
1163,52.50001760291034
1166,0.0
1168,0.0
2,4, 1, 9, 0, 9, 0.00,60.00,Thursday
7,1.1
545,19.80216890245046
546,3.0772298346040925
547,16.43486445476489
548,95.51447707078204
720,2388.8541893849524
721,2388.8541893849524
784,0.0
785,0.0
848,0.0
849,0.0
1121,3355.3011826793368
1135,1051.9957861231242
1161,26.102251913536985
1163,75.99585754915633
1166,0.0
1168,0.0
2,4, 1, 9, 0,10, 0.00,60.00,Thursday
7,3.0
545,19.833847306681353
546,5.030703216397307
547,16.37358270015342
548,65.95686190697513
720,1662.898729436265
721,1662.898729436265
784,0.0
785,0.0
848,0.0
849,0.0
1121,2353.922605229175
1135,730.7862135860502
1161,23.987215818191668
1163,114.39928138388886
1166,0.0
1168,0.0
2,4, 1, 9, 0,11, 0.00,60.00,Thursday
7,3.3
545,19.870522334752568
546,7.582668677636706
547,16.31895316673369
548,35.611700838682886
720,875.14910567888
721,875.14910567888
784,0.0
785,0.0
848,0.0
849,0.0
1121,1263.6992816089262
1135,399.307391229145
1161,10.501446534367105
1163,153.81339841707518
1166,0.0
1168,0.0
2,4, 1, 9, 0,12, 0.00,60.00,Thursday
7,7.0
545,19.683584899868627
546,10.64035183643346
547,16.286524724096754
548,7.561224713559283
720,212.55584990483294
721,212.55584990483294
784,0.0
785,0.0
848,0.0
849,0.0
1121,343.10906193524823
1135,95.72633663687367
1161,0.0
1163,190.2124958457314
1166,0.0
1168,0.0
2,4, 1, 9, 0,13, 0.00,60.00,Thursday
7,10.0
545,20.55444444927226
546,14.836720634354801
547,16.29220151147094
548,0.0
720,-304.7713966129322
721,-304.7713966129322
784,0.0
785,0.0
848,0.0
849,0.0
1121,0.0
1135,0.0
1161,0.0
1163,0.0
1166,0.0
1168,0.0
2,4, 1, 9, 0,14, 0.00,60.00,Thursday
7,10.0
545,21.33757682734422
546,16.73340570246459
547,16.328135146817754
548,0.0
720,-1155.3898674923075
721,-1155.3898674923075
784,0.0
785,0.0
848,0.0
849,0.0
1121,0.0
1135,0.0
1161,0.0
1163,0.0
1166,0.0
1168,0.0
2,4, 1, 9, 0,15, 0.00,60.00,Thursday
7,12.2
545,22.588288088867344
546,17.83469044193355
547,16.392261124079006
548,0.0
720,-2108.324363668271
721,-2108.324363668271
784,0.0
785,0.0
848,0.0
849,0.0
1121,0.0
1135,0.0
1161,0.0
1163,0.0
1166,0.0
1168,0.0
2,4, 1, 9, 0,16, 0.00,60.00,Thursday
7,12.2
545,23.342611345490216
546,17.33652131677514
547,16.487141905720705
548,3.38293333820812
720,-2957.4166164124745
721,-2957.4166164124745
784,0.0
785,0.0
848,0.0
849,0.0
1121,0.0
1135,0.0
1161,0.0
1163,0.0
1166,0.0
1168,0.0
2,4, 1, 9, 0,17, 0.00,60.00,Thursday
7,12.2
545,23.336555825423584
546,15.800854417081352
547,16.601208156822434
548,8.454969545512162
720,-3103.543848114101
721,-3103.543848114101
784,0.0
785,0.0
848,0.0
849,0.0
1121,0.0
1135,0.0
1161,0.0
1163,0.0
1166,0.0
1168,0.0
2,4, 1, 9, 0,18, 0.00,60.00,Thursday
7,9.4
545,23.26243828138211
546,13.219209793635038
547,16.690775517456512
548,0.5894002740204236
720,-2770.9108115777562
721,-2770.9108115777562
784,0.0
785,0.0
848,0.0
849,0.0
1121,0.0
1135,0.0
1161,0.0
1163,199.23706041692466
1166,0.0
1168,0.0
2,4, 1, 9, 0,19, 0.00,60.00,Thursday
7,8.9
545,23.246688871890765
546,10.993386665402866
547,16.790190417698586
548,0.0
720,-2370.3800335878204
721,-2370.3800335878204
784,0.0
785,0.0
848,0.0
849,0.0
1121,0.0
1135,0.0
1161,0.0
1163,200.0
1166,0.0
1168,0.0
2,4, 1, 9, 0,20, 0.00,60.00,Thursday
7,8.9
545,23.24940738310922
546,9.827240392852323
547,16.860179763531825
548,0.0
720,-2314.068839869069
721,-2314.068839869069
784,0.0
785,0.0
848,0.0
849,0.0
1121,0.0
1135,0.0
1161,0.0
1163,200.0
1166,0.0
1168,0.0
2,4, 1, 9, 0,21, 0.00,60.00,Thursday
7,7.8
545,23.093764441932773
546,8.880320123344001
547,16.906450774557616
548,0.0
720,-2114.124910639348
721,-2114.124910639348
784,0.0
785,0.0
848,0.0
849,0.0
1121,0.0
1135,0.0
1161,0.0
1163,200.0
1166,0.0
1168,0.0
2,4, 1, 9, 0,22, 0.00,60.00,Thursday
7,7.8
545,22.776675809813952
546,8.291543092511072
547,16.933478833952993
548,0.0
720,-1924.4235377808636
721,-1924.4235377808636
784,0.0
785,0.0
848,0.0
849,0.0
1121,0.0
1135,0.0
1161,0.0
1163,200.0
1166,0.0
1168,0.0
2,4, 1, 9, 0,23, 0.00,60.00,Thursday
7,7.8
545,22.188550968960353
546,7.92161493676538
547,16.944176897817474
548,0.0
720,-2213.1122070522906
721,-2213.1122070522906
784,0.0
785,0.0
848,0.0
849,0.0
1121,0.0
1135,0.0
1161,0.0
1163,200.0
1166,0.0
1168,0.0
2,4, 1, 9, 0,24, 0.00,60.00,Thursday
7,6.1
545,20.974632233749077
546,6.991060738561022
547,16.938918255516782
548,0.0
720,-1546.1426550791057
721,-1546.1426550791057
784,0.0
785,0.0
848,0.0
849,0.0
1121,0.0
1135,0.0
1161,0.0
1163,200.0
1166,0.0
1168,0.0
2,5, 1,10, 0, 1, 0.00,60.00,Friday
7,6.1
545,20.343170894371756
546,6.209992917515796
547,16.922259677367766
548,0.0
720,-1378.205659616593
721,-1378.205659616593
784,0.0
785,0.0
848,0.0
849,0.0
1121,0.0
1135,0.0
1161,0.0
1163,200.0
1166,0.0
1168,0.0
2,5, 1,10, 0, 2, 0.00,60.00,Friday
7,6.1
545,19.684831320880757
546,5.738736578930748
547,16.892403725108128
548,0.0
720,-801.7515196182721
721,-801.7515196182721
784,0.0
785,0.0
848,0.0
849,0.0
1121,0.0
1135,0.0
1161,0.0
1163,200.0
1166,0.0
1168,0.0
2,5, 1,10, 0, 3, 0.00,60.00,Friday
7,5.0
545,18.943436101769205
546,5.023212100484957
547,16.853041175948867
548,0.0
720,-243.51915507505328
721,-243.51915507505328
784,0.0
785,0.0
848,0.0
849,0.0
1121,0.0
1135,0.0
1161,0.0
1163,200.0
1166,0.0
1168,0.0
2,5, 1,10, 0, 4, 0.00,60.00,Friday
7,2.8