Program Version,EnergyPlus, Version 22.2.0-c249759bad, YMD=2023.07.07 15:18
1,5,Environment Title[],Latitude[deg],Longitude[deg],Time Zone[],Elevation[m]
2,8,Day of Simulation[],Month[],Day of Month[],DST Indicator[1=yes 0=no],Hour[],StartMinute[],EndMinute[],DayType
3,5,Cumulative Day of Simulation[],Month[],Day of Month[],DST Indicator[1=yes 0=no],DayType  ! When Daily Report Variables Requested
4,2,Cumulative Days of Simulation[],Month[]  ! When Monthly Report Variables Requested
5,1,Cumulative Days of Simulation[] ! When Run Period Report Variables Requested
6,1,Calendar Year of Simulation[] ! When Annual Report Variables Requested
581,11,LIVING,AFN Zone Infiltration Air Change Rate [ach] !RunPeriod [Value,Min,Month,Day,Hour,Minute,Max,Month,Day,Hour,Minute]
582,11,ATTIC,AFN Zone Infiltration Air Change Rate [ach] !RunPeriod [Value,Min,Month,Day,Hour,Minute,Max,Month,Day,Hour,Minute]
583,11,CRAWLSPACE,AFN Zone Infiltration Air Change Rate [ach] !RunPeriod [Value,Min,Month,Day,Hour,Minute,Max,Month,Day,Hour,Minute]
1038,11,Facility,Facility Heating Setpoint Not Met Time [hr] !RunPeriod [Value,Min,Month,Day,Hour,Minute,Max,Month,Day,Hour,Minute]
1039,11,Facility,Facility Cooling Setpoint Not Met Time [hr] !RunPeriod [Value,Min,Month,Day,Hour,Minute,Max,Month,Day,Hour,Minute]
1115,11,DX_HEATING_COIL,Heating Coil Heating Energy [J] !RunPeriod [Value,Min,Month,Day,Hour,Minute,Max,Month,Day,Hour,Minute]
1128,11,DX_HEATING_COIL,Heating Coil Electricity Energy [J] !RunPeriod [Value,Min,Month,Day,Hour,Minute,Max,Month,Day,Hour,Minute]
1153,11,DX_HEATING_COIL,Heating Coil Defrost Electricity Energy [J] !RunPeriod [Value,Min,Month,Day,Hour,Minute,Max,Month,Day,Hour,Minute]
1154,11,DX_HEATING_COIL,Heating Coil Crankcase Heater Electricity Energy [J] !RunPeriod [Value,Min,Month,Day,Hour,Minute,Max,Month,Day,Hour,Minute]
1156,11,HEATING_RESISTANCE_BACKUP,Heating Coil Electricity Energy [J] !RunPeriod [Value,Min,Month,Day,Hour,Minute,Max,Month,Day,Hour,Minute]
13,11,Electricity:Facility [J] !RunPeriod [Value,Min,Month,Day,Hour,Minute,Max,Month,Day,Hour,Minute]
1134,11,Heating:Electricity [J] !RunPeriod [Value,Min,Month,Day,Hour,Minute,Max,Month,Day,Hour,Minute]
1096,11,Cooling:Electricity [J] !RunPeriod [Value,Min,Month,Day,Hour,Minute,Max,Month,Day,Hour,Minute]
562,11,Fans:Electricity [J] !RunPeriod [Value,Min,Month,Day,Hour,Minute,Max,Month,Day,Hour,Minute]
1388,11,Pumps:Electricity [J] !RunPeriod [Value,Min,Month,Day,Hour,Minute,Max,Month,Day,Hour,Minute]
1360,11,WaterSystems:Electricity [J] !RunPeriod [Value,Min,Month,Day,Hour,Minute,Max,Month,Day,Hour,Minute]
61,11,InteriorLights:Electricity [J] !RunPeriod [Value,Min,Month,Day,Hour,Minute,Max,Month,Day,Hour,Minute]
1046,11,ExteriorLights:Electricity [J] !RunPeriod [Value,Min,Month,Day,Hour,Minute,Max,Month,Day,Hour,Minute]
134,11,InteriorEquipment:Electricity [J] !RunPeriod [Value,Min,Month,Day,Hour,Minute,Max,Month,Day,Hour,Minute]
170,11,gas_dryer:InteriorEquipment:Electricity [J] !RunPeriod [Value,Min,Month,Day,Hour,Minute,Max,Month,Day,Hour,Minute]
207,11,clotheswasher:InteriorEquipment:Electricity [J] !RunPeriod [Value,Min,Month,Day,Hour,Minute,Max,Month,Day,Hour,Minute]
244,11,dishwasher:InteriorEquipment:Electricity [J] !RunPeriod [Value,Min,Month,Day,Hour,Minute,Max,Month,Day,Hour,Minute]
281,11,refrigerator:InteriorEquipment:Electricity [J] !RunPeriod [Value,Min,Month,Day,Hour,Minute,Max,Month,Day,Hour,Minute]
318,11,electric_mels:InteriorEquipment:Electricity [J] !RunPeriod [Value,Min,Month,Day,Hour,Minute,Max,Month,Day,Hour,Minute]
355,11,NaturalGas:Facility [J] !RunPeriod [Value,Min,Month,Day,Hour,Minute,Max,Month,Day,Hour,Minute]
1323,11,WaterSystems:NaturalGas [J] !RunPeriod [Value,Min,Month,Day,Hour,Minute,Max,Month,Day,Hour,Minute]
403,11,InteriorEquipment:NaturalGas [J] !RunPeriod [Value,Min,Month,Day,Hour,Minute,Max,Month,Day,Hour,Minute]
476,11,gas_dryer:InteriorEquipment:NaturalGas [J] !RunPeriod [Value,Min,Month,Day,Hour,Minute,Max,Month,Day,Hour,Minute]
513,11,gas_mels:InteriorEquipment:NaturalGas [J] !RunPeriod [Value,Min,Month,Day,Hour,Minute,Max,Month,Day,Hour,Minute]
End of Data Dictionary
1,EXTREME_WINTER,  45.81,-108.54,  -7.00,1088.00
5,7
1038,2.833333333333333,0.0, 3, 5, 1,10,0.16666666666666666, 3, 9, 6,10
1039,0.0,0.0, 3, 5, 1,10,0.0, 3, 5, 1,10
581,0.38285417450135867,0.18550601256680344, 3, 5, 7,60,0.6984211517664917, 3, 5,22,51
582,5.51088960821933,0.0, 3, 8, 6, 3,18.464914367759075, 3, 5,15,20
583,6.862842746575832,0.20179347434062317, 3, 8, 6, 6,18.755590187934413, 3, 5,22,51
1115,1844968704.2900898,0.0, 3, 5, 6, 5,3029182.859139676, 3, 8,11,10
1128,671577126.5123413,0.0, 3, 5, 6, 5,916680.2546094154, 3, 6,13,20
1153,13535762.86051461,0.0, 3, 5, 6, 5,59811.5578933124, 3, 8,12,30
1154,29297367.12414067,0.0, 3, 5, 6, 2,120000.0, 3, 5,17,60
1156,1230545465.8445094,0.0, 3, 5, 1, 1,4238569.585472964, 3,11, 6,10
13,2402237175.1385612,306324.6925987483, 3, 7,15,10,5618167.239407399, 3,11, 7,50
61,301924526.0238348,58759.40635443481, 3, 5, 1,10,854682.2742463244, 3, 5,20,10
134,70666020.44019979,42376.01200569399, 3, 5, 4,10,104369.48322671017, 3,10,20,10
170,5241013.419656074,232.27731661587313, 3, 5, 4,10,11650.931360040839, 3,10,12,10
207,6509451.13922266,543.5021409221355, 3, 5, 3,10,15327.095199349082, 3,10,10,10
244,12749673.39982522,1014.5707620042115, 3, 5, 4,10,35359.08742820678, 3,10,20,10
281,46165882.48149605,39959.06841621388, 3, 5, 5,10,54634.54471212738, 3, 5,19,10
318,0.0,0.0, 3, 5, 1,10,0.0, 3, 5, 1,10
355,734271847.6657442,12374.216038804521, 3, 5, 4,10,3829218.1540669827, 3, 9,18,30
403,197687796.27748126,12374.216038804521, 3, 5, 4,10,483183.26346918393, 3,10,18,10
476,106772067.24485692,4732.048419519677, 3, 5, 4,10,237357.535085481, 3,10,12,10
513,0.0,0.0, 3, 5, 1,10,0.0, 3, 5, 1,10
562,79667159.37929116,0.0, 3, 5,17,20,104438.68972212033, 3,11, 9,40
1046,0.0,0.0, 3, 5, 1,10,0.0, 3, 5, 1,10
1096,3906.9537280143522,0.0, 3, 5, 1,10,2415.4247948596485, 3, 7,18,30
1134,1944955722.3415058,119481.2349674144, 3, 7,18,30,5079633.878664233, 3,10, 6,20
1323,536584051.3882598,0.0, 3, 5, 1,10,3375000.000000002, 3, 6,20,30
1360,5019840.0,4979.999999999998, 3, 5, 1,10,4980.000000000001, 3, 5, 1,30
1388,0.0,0.0, 3, 5, 1,10,0.0, 3, 5, 1,10
1,EXTREME_SUMMER,  45.81,-108.54,  -7.00,1088.00
5,7
1038,0.0,0.0, 7, 8, 1,10,0.0, 7, 8, 1,10
1039,3.6666666666666665,0.0, 7, 8, 1,10,0.16666666666666666, 7,10,18,10
581,0.1619437040761247,0.0, 7,11, 6, 2,0.5385240479328145, 7,11, 7,60
582,4.164931582486138,0.13239238488497898, 7,13, 4,35,12.489887998309944, 7,13,16,52
583,4.827258854908834,0.022973234333930205, 7,13, 4,55,15.22444989759136, 7,11, 7,60
1115,0.0,0.0, 7, 8, 1,10,0.0, 7, 8, 1,10
1128,0.0,0.0, 7, 8, 1,10,0.0, 7, 8, 1,10
1153,0.0,0.0, 7, 8, 1,10,0.0, 7, 8, 1,10
1154,0.0,0.0, 7, 8, 1,10,0.0, 7, 8, 1,10
1156,0.0,0.0, 7, 8, 1,10,0.0, 7, 8, 1,10
13,857161334.7456713,106115.4183601288, 7, 8, 4,40,2086125.7883002276, 7,10,20,10
61,301924526.0238348,58759.40635443481, 7, 8, 1,10,854682.2742463244, 7, 8,20,10
134,70666020.44019979,42376.01200569399, 7, 8, 4,10,104369.48322671017, 7,13,20,10
170,5241013.419656074,232.27731661587313, 7, 8, 4,10,11650.931360040839, 7,13,12,10
207,6509451.13922266,543.5021409221355, 7, 8, 3,10,15327.095199349082, 7,13,10,10
244,12749673.39982522,1014.5707620042115, 7, 8, 4,10,35359.08742820678, 7,13,20,10
281,46165882.48149605,39959.06841621388, 7, 8, 5,10,54634.54471212738, 7, 8,19,10
318,0.0,0.0, 7, 8, 1,10,0.0, 7, 8, 1,10
355,648405784.9723805,12374.216038804521, 7, 8, 4,10,3829218.154066982, 7, 9,18,60
403,197687796.27748126,12374.216038804521, 7, 8, 4,10,483183.26346918393, 7,13,18,10
476,106772067.24485692,4732.048419519677, 7, 8, 4,10,237357.535085481, 7,13,12,10
513,0.0,0.0, 7, 8, 1,10,0.0, 7, 8, 1,10
562,48568813.99409235,0.0, 7, 8, 4,40,104438.68972212031, 7,10,17,10
1046,0.0,0.0, 7, 8, 1,10,0.0, 7, 8, 1,10
1096,430982134.2875446,0.0, 7, 8, 4,40,1068184.7520216973, 7,10,18,60
1134,0.0,0.0, 7, 8, 1,10,0.0, 7, 8, 1,10
1323,450717988.69489765,0.0, 7, 8, 1,10,3375000.0000000005, 7, 8,21,50
1360,5019840.0,4980.0, 7, 8, 1,10,4980.000000000001, 7, 8, 6,10
1388,0.0,0.0, 7, 8, 1,10,0.0, 7, 8, 1,10
1,ANNUAL,  45.81,-108.54,  -7.00,1088.00
5,365
1038,13.999999999999984,0.0, 1, 1, 1,10,0.16666666666666666, 1, 1, 6,10
1039,58.16666666666667,0.0, 1, 1, 1,10,0.16666666666666666, 6, 1,10,30
581,0.2971590317054661,0.0, 5,12,19,45,1.2597844235493187,12, 3,20,53
582,5.819034936389693,0.0, 1, 8,20,60,33.00982300347257, 6,11,16,51
583,6.769410368825159,0.00007223008064039332, 6,28,23, 3,36.945763169283595, 6,11,16,51
1115,37032704932.033714,0.0, 1, 1,23, 2,3636392.4541583834, 1,13, 7,20
1128,11750468960.731688,0.0, 1, 1,23, 2,1020090.1097478608,11,17, 6,30
1153,317393665.103493,0.0, 1, 1,23, 2,86192.69871701505, 5,23, 6,30
1154,1904948866.5622773,0.0, 1, 1, 1, 1,120000.0, 1, 5,16,10
1156,8316970416.40975,0.0, 1, 1,13,20,4238569.585472964, 3,10, 6,30
13,50416022048.5813,106115.4183601288, 4,20, 4,10,5676544.530421783, 3,12, 7,60
61,15743207428.39043,58759.40635443481, 1, 1, 1,10,854682.2742463244, 1, 1,20,10
134,3685071073.433083,42376.01200569399, 1, 2, 4,10,104369.48322671017, 1, 1,20,10
170,273393721.45534325,232.27731661587313, 1, 2, 4,10,11650.931360040839, 1, 1,12,10
207,339560869.06955314,543.5021409221355, 1, 2, 3,10,15327.095199349082, 1, 1,10,10
244,664895467.8009839,1014.5707620042115, 1, 2, 4,10,35359.08742820678, 1, 1,20,10
281,2407221015.1057043,39959.06841621388, 1, 1, 5,10,54634.54471212738, 1, 1,19,10
318,0.0,0.0, 1, 1, 1,10,0.0, 1, 1, 1,10
355,35781071944.60782,12374.216038804521, 1, 2, 4,10,3829218.154066983, 4,18,18,60
403,10310294493.052883,12374.216038804521, 1, 2, 4,10,483183.26346918393, 1, 1,18,10
476,5569688622.065564,4732.048419519677, 1, 2, 4,10,237357.535085481, 1, 1,12,10
513,0.0,0.0, 1, 1, 1,10,0.0, 1, 1, 1,10
562,2066344621.3230395,0.0, 1, 5,16,10,104438.68972212033, 1, 9,19,30
1046,0.0,0.0, 1, 1, 1,10,0.0, 1, 1, 1,10
1096,6369868216.63351,0.0, 1, 1, 1,10,1191529.4676511646, 8,21,15,10
1134,22289781908.807156,0.0, 1,27,14,30,5120352.600839548, 1,10, 6,10
1323,25470777451.559074,0.0, 1, 1, 1,10,3375000.000000002, 1, 3,10,10
1360,261748800.0,4979.999999999998, 1, 1, 1,10,4980.000000000002, 2,12,10,50
1388,0.0,0.0, 1, 1, 1,10,0.0, 1, 1, 1,10
End of Data
 Number of Records Written=          87
