Program Version,EnergyPlus, Version 22.2.0-c249759bad, YMD=2023.08.02 11:55
1,5,Environment Title[],Latitude[deg],Longitude[deg],Time Zone[],Elevation[m]
2,8,Day of Simulation[],Month[],Day of Month[],DST Indicator[1=yes 0=no],Hour[],StartMinute[],EndMinute[],DayType
3,5,Cumulative Day of Simulation[],Month[],Day of Month[],DST Indicator[1=yes 0=no],DayType  ! When Daily Report Variables Requested
4,2,Cumulative Days of Simulation[],Month[]  ! When Monthly Report Variables Requested
5,1,Cumulative Days of Simulation[] ! When Run Period Report Variables Requested
6,1,Calendar Year of Simulation[] ! When Annual Report Variables Requested
7,1,Environment,Site Mains Water Temperature [C] !Hourly
619,1,DX_HEATING_COIL,Heating Coil Heating Energy [J] !Hourly
1179,1,HEATING_RESISTANCE_BACKUP,Heating Coil Heating Energy [J] !Hourly
1316,1,WATER HEATER TANK,Water Heater Tank Temperature [C] !Hourly
1330,1,WATER HEATER TANK,Water Heater Heating Energy [J] !Hourly
1331,1,WATER HEATER TANK,Water Heater Electricity Rate [W] !Hourly
674,1,WaterSystems:Electricity [J] !Hourly
End of Data Dictionary
1,EXTREME_WINTER,  39.10, -84.42,  -5.00, 149.40
2,1, 1,15, 0, 1, 0.00,60.00,Monday
7,10.441413881398018
619,12470098.147241458
1179,0.0
1316,53.220759098454266
1330,0.0
1331,0.0
674,30600.0
2,1, 1,15, 0, 2, 0.00,60.00,Monday
7,10.441413881398018
619,12287960.174135624
1179,0.0
1316,52.996654652302546
1330,0.0
1331,0.0
674,30600.0
2,1, 1,15, 0, 3, 0.00,60.00,Monday
7,10.441413881398018
619,12652551.316408806
1179,0.0
1316,52.77402610481666
1330,0.0
1331,0.0
674,30600.0
2,1, 1,15, 0, 4, 0.00,60.00,Monday
7,10.441413881398018
619,14326482.676390452
1179,127943.70354867751
1316,52.55291601602698
1330,0.0
1331,0.0
674,30600.0
2,1, 1,15, 0, 5, 0.00,60.00,Monday
7,10.441413881398018
619,15105174.722466096
1179,2166375.9869859708
1316,52.333249748444956
1330,0.0
1331,0.0
674,30600.0
2,1, 1,15, 0, 6, 0.00,60.00,Monday
7,10.441413881398018
619,14618288.259863846
1179,8451934.487053242
1316,52.11816170300035
1330,0.0
1331,0.0
674,30600.0
2,1, 1,15, 0, 7, 0.00,60.00,Monday
7,10.441413881398018
619,14120411.2781206
1179,7137598.333522603
1316,51.908532767278764
1330,0.0
1331,0.0
674,30600.0
2,1, 1,15, 0, 8, 0.00,60.00,Monday
7,10.441413881398018
619,13983745.063791329
1179,7347712.249746524
1316,48.7626471449726
1330,0.0
1331,0.0
674,30600.0
2,1, 1,15, 0, 9, 0.00,60.00,Monday
7,10.441413881398018
619,14146172.276451085
1179,6924047.403974279
1316,39.378438379979066
1330,0.0
1331,0.0
674,30600.0
2,1, 1,15, 0,10, 0.00,60.00,Monday
7,10.441413881398018
619,14349420.511525135
1179,5419160.361868566
1316,29.16219749825761
1330,0.0
1331,0.0
674,30600.0
2,1, 1,15, 0,11, 0.00,60.00,Monday
7,10.441413881398018
619,14418839.705707254
1179,2606878.003062837
1316,29.10093367464836
1330,0.0
1331,0.0
674,30600.0
2,1, 1,15, 0,12, 0.00,60.00,Monday
7,10.441413881398018
619,12608117.977253009
1179,70670.99976445302
1316,29.04012879346777
1330,0.0
1331,0.0
674,30600.0
2,1, 1,15, 0,13, 0.00,60.00,Monday
7,10.441413881398018
619,8153373.218525102
1179,0.0
1316,28.979766642247537
1330,0.0
1331,0.0
674,30600.0
2,1, 1,15, 0,14, 0.00,60.00,Monday
7,10.441413881398018
619,5182033.996247787
1179,0.0
1316,28.919821365393137
1330,0.0
1331,0.0
674,30600.0
2,1, 1,15, 0,15, 0.00,60.00,Monday
7,10.441413881398018
619,1049325.1319506103
1179,0.0
1316,28.8603466767981
1330,0.0
1331,0.0
674,30600.0
2,1, 1,15, 0,16, 0.00,60.00,Monday
7,10.441413881398018
619,0.0
1179,0.0
1316,26.25164169424946
1330,0.0
1331,0.0
674,30600.0
2,1, 1,15, 0,17, 0.00,60.00,Monday
7,10.441413881398018
619,0.0
1179,0.0
1316,20.24372349394031
1330,0.0
1331,0.0
674,30600.0
2,1, 1,15, 0,18, 0.00,60.00,Monday
7,10.441413881398018
619,780168.6382629126
1179,0.0
1316,20.018108015087233
1330,0.0
1331,0.0
674,30600.0
2,1, 1,15, 0,19, 0.00,60.00,Monday
7,10.441413881398018
619,3453536.5829745745
1179,0.0
1316,19.855592262952612
1330,0.0
1331,0.0
674,30600.0
2,1, 1,15, 0,20, 0.00,60.00,Monday
7,10.441413881398018
619,4773777.356220031
1179,0.0
1316,19.85133741193148
1330,0.0
1331,0.0
674,30600.0
2,1, 1,15, 0,21, 0.00,60.00,Monday
7,10.441413881398018
619,6843011.153411031
1179,0.0
1316,20.011748758034184
1330,9315415.523276592
1331,2587.6154231323862
674,9346015.523276592
2,1, 1,15, 0,22, 0.00,60.00,Monday
7,10.441413881398018
619,9507562.669369275
1179,0.0
1316,20.555227942685924
1330,0.0
1331,0.0
674,30600.0
2,1, 1,15, 0,23, 0.00,60.00,Monday
7,10.441413881398018
619,6221437.185390114
1179,0.0
1316,20.103999429197483
1330,0.0
1331,0.0
674,30600.0
2,1, 1,15, 0,24, 0.00,60.00,Monday
7,10.441413881398018
619,12337885.127572464
1179,47819.85232372481
1316,20.08926603227421
1330,0.0
1331,0.0
674,30600.0
2,2, 1,16, 0, 1, 0.00,60.00,Tuesday
7,10.399162799698386
619,13556701.246633776
1179,2322057.9722428955
1316,20.07457534561131
1330,0.0
1331,0.0
674,30600.0
2,2, 1,16, 0, 2, 0.00,60.00,Tuesday
7,10.399162799698386
619,13407011.444213254
1179,4178716.6075716135
1316,20.06009131124936
1330,0.0
1331,0.0
674,30600.0
2,2, 1,16, 0, 3, 0.00,60.00,Tuesday
7,10.399162799698386
619,13438951.554434225
1179,5031922.248849566
1316,20.04575798864557
1330,0.0
1331,0.0
674,30600.0
2,2, 1,16, 0, 4, 0.00,60.00,Tuesday
7,10.399162799698386
619,13331318.897897303
1179,6295291.99091943
1316,20.031574446001287
1330,0.0
1331,0.0
674,30600.0
2,2, 1,16, 0, 5, 0.00,60.00,Tuesday
7,10.399162799698386
619,13336888.311792593
1179,6387366.8502903255
1316,20.017555585637194
1330,0.0
1331,0.0
674,30600.0
2,2, 1,16, 0, 6, 0.00,60.00,Tuesday
7,10.399162799698386
619,13527704.228515003
1179,10206210.120861802
1316,20.006790751488165
1330,0.0
1331,0.0
674,30600.0
2,2, 1,16, 0, 7, 0.00,60.00,Tuesday
7,10.399162799698386
619,13631160.84871125
1179,8111648.593662448
1316,20.000219408362295
1330,0.0
1331,0.0
674,30600.0
2,2, 1,16, 0, 8, 0.00,60.00,Tuesday
7,10.399162799698386
619,13657225.606564362
1179,7249269.515432983
1316,19.75308794788245
1330,3157654.4722859985
1331,877.1262423016661
674,3188254.4722859985
2,2, 1,16, 0, 9, 0.00,60.00,Tuesday
7,10.399162799698386
619,14041206.525657794
1179,5431908.281235577
1316,19.639769030458595
1330,10401202.913305935
1331,2889.2230314738713
674,10431802.913305935
2,2, 1,16, 0,10, 0.00,60.00,Tuesday
7,10.399162799698386
619,14105773.532102952
1179,975908.7583026043
1316,20.11884961878989
1330,6313990.5830765795
1331,1753.8862730768287
674,6344590.5830765795
2,2, 1,16, 0,11, 0.00,60.00,Tuesday
7,10.399162799698386
619,9130653.137544475
1179,0.0
1316,19.25747778301093
1330,9090000.0
1331,2524.9999999999995
674,9120600.0
2,2, 1,16, 0,12, 0.00,60.00,Tuesday
7,10.399162799698386
619,4853641.739797096
1179,0.0
1316,21.264009315455144
1330,0.0
1331,0.0
674,30600.0
2,2, 1,16, 0,13, 0.00,60.00,Tuesday
7,10.399162799698386
619,2564644.1441185134
1179,0.0
1316,21.249685334198407
1330,0.0
1331,0.0
674,30600.0
2,2, 1,16, 0,14, 0.00,60.00,Tuesday
7,10.399162799698386
619,936761.5736787771
1179,0.0
1316,21.235484448158246
1330,0.0
1331,0.0
674,30600.0
2,2, 1,16, 0,15, 0.00,60.00,Tuesday
7,10.399162799698386
619,30413.228977662406
1179,0.0
1316,21.22172383002994
1330,0.0
1331,0.0
674,30600.0
2,2, 1,16, 0,16, 0.00,60.00,Tuesday
7,10.399162799698386
619,0.0
1179,0.0
1316,21.21068531167277
1330,0.0
1331,0.0
674,30600.0
2,2, 1,16, 0,17, 0.00,60.00,Tuesday
7,10.399162799698386
619,0.0
1179,0.0
1316,21.201367830578963
1330,0.0
1331,0.0
674,30600.0
2,2, 1,16, 0,18, 0.00,60.00,Tuesday
7,10.399162799698386
619,0.0
1179,0.0
1316,20.7415779758467
1330,3118117.7137526884
1331,866.1438093757474
674,3148717.7137526884
2,2, 1,16, 0,19, 0.00,60.00,Tuesday
7,10.399162799698386
619,0.0
1179,0.0
1316,20.5139322240291
1330,3484189.600610763
1331,967.8304446141009
674,3514789.600610763
2,2, 1,16, 0,20, 0.00,60.00,Tuesday
7,10.399162799698386
619,0.0
1179,0.0
1316,20.073614512618985
1330,6946870.048370611
1331,1929.686124547392
674,6977470.048370611
2,2, 1,16, 0,21, 0.00,60.00,Tuesday
7,10.399162799698386
619,492842.30036641844
1179,0.0
1316,20.68057735913005
1330,3056670.8461732017
1331,849.0752350481115
674,3087270.8461732017
2,2, 1,16, 0,22, 0.00,60.00,Tuesday
7,10.399162799698386
619,2193548.709657293
1179,0.0
1316,21.390563246857823
1330,0.0
1331,0.0
674,30600.0
2,2, 1,16, 0,23, 0.00,60.00,Tuesday
7,10.399162799698386
619,1153178.8128645276
1179,0.0
1316,21.37325185135235
1330,0.0
1331,0.0
674,30600.0
2,2, 1,16, 0,24, 0.00,60.00,Tuesday
7,10.399162799698386
619,3865812.995265404
1179,0.0
1316,21.35134968809247
1330,0.0
1331,0.0
674,30600.0
2,3, 1,17, 0, 1, 0.00,60.00,Wednesday
7,10.358629861582711
619,6014911.858792068
1179,0.0
1316,21.329402740408224
1330,0.0
1331,0.0
674,30600.0
2,3, 1,17, 0, 2, 0.00,60.00,Wednesday
7,10.358629861582711
619,7625743.967186762
1179,0.0
1316,21.30763162238762
1330,0.0
1331,0.0
674,30600.0
2,3, 1,17, 0, 3, 0.00,60.00,Wednesday
7,10.358629861582711
619,8818354.432921391
1179,0.0
1316,21.286034972616182
1330,0.0
1331,0.0
674,30600.0
2,3, 1,17, 0, 4, 0.00,60.00,Wednesday
7,10.358629861582711
619,9429065.348730855
1179,0.0
1316,21.264626995116235
1330,0.0
1331,0.0
674,30600.0
2,3, 1,17, 0, 5, 0.00,60.00,Wednesday
7,10.358629861582711
619,9959050.255768504
1179,0.0
1316,21.243397177295723
1330,0.0
1331,0.0
674,30600.0
2,3, 1,17, 0, 6, 0.00,60.00,Wednesday
7,10.358629861582711
619,14586997.046926506
1179,904278.911467397
1316,21.225555247771414
1330,0.0
1331,0.0
674,30600.0
2,3, 1,17, 0, 7, 0.00,60.00,Wednesday
7,10.358629861582711
619,12687736.323291743
1179,0.0
1316,21.211865413502537
1330,0.0
1331,0.0
674,30600.0
2,3, 1,17, 0, 8, 0.00,60.00,Wednesday
7,10.358629861582711
619,11398490.77289529
1179,0.0
1316,20.355292244070476
1330,2215637.780020365
1331,615.4549388945459
674,2246237.780020365
2,3, 1,17, 0, 9, 0.00,60.00,Wednesday
7,10.358629861582711
619,9329755.16353643
1179,0.0
1316,20.48126454368938
1330,9495892.871988222
1331,2637.748019996728
674,9526492.871988222
2,3, 1,17, 0,10, 0.00,60.00,Wednesday
7,10.358629861582711
619,5595940.472254295
1179,0.0
1316,20.269137702783038
1330,6716013.58760573
1331,1865.5593298904814
674,6746613.58760573
2,3, 1,17, 0,11, 0.00,60.00,Wednesday
7,10.358629861582711
619,4237097.717716545
1179,0.0
1316,21.381734462280352
1330,0.0
1331,0.0
674,30600.0
2,3, 1,17, 0,12, 0.00,60.00,Wednesday
7,10.358629861582711
619,4209806.055546082
1179,0.0
1316,21.36671701504549
1330,0.0
1331,0.0
674,30600.0
2,3, 1,17, 0,13, 0.00,60.00,Wednesday
7,10.358629861582711
619,4698737.038639663
1179,0.0
1316,21.351827736480967
1330,0.0
1331,0.0
674,30600.0
2,3, 1,17, 0,14, 0.00,60.00,Wednesday
7,10.358629861582711
619,4432954.326102279
1179,0.0
1316,21.33706971793477
1330,0.0
1331,0.0
674,30600.0
2,3, 1,17, 0,15, 0.00,60.00,Wednesday
7,10.358629861582711
619,1158937.877831659
1179,0.0
1316,21.17320859438375
1330,0.0
1331,0.0
674,30600.0
2,3, 1,17, 0,16, 0.00,60.00,Wednesday
7,10.358629861582711
619,0.0
1179,0.0
1316,19.75393659184736
1330,10181652.210286537
1331,2828.236725079594
674,10212252.210286537
2,3, 1,17, 0,17, 0.00,60.00,Wednesday
7,10.358629861582711
619,0.0
1179,0.0
1316,21.40832832620009
1330,0.0
1331,0.0
674,30600.0
2,3, 1,17, 0,18, 0.00,60.00,Wednesday
7,10.358629861582711
619,0.0
1179,0.0
1316,21.39580540017246
1330,0.0
1331,0.0
674,30600.0
2,3, 1,17, 0,19, 0.00,60.00,Wednesday
7,10.358629861582711
619,251841.20248566038
1179,0.0
1316,21.381771194101905
1330,0.0
1331,0.0
674,30600.0
2,3, 1,17, 0,20, 0.00,60.00,Wednesday
7,10.358629861582711
619,969164.5864070891
1179,0.0
1316,21.366878167436905
1330,0.0
1331,0.0
674,30600.0
2,3, 1,17, 0,21, 0.00,60.00,Wednesday
7,10.358629861582711
619,1898726.4680845612
1179,0.0
1316,20.83059449262025
1330,3251966.657101062
1331,903.3240714169616
674,3282566.657101062
2,3, 1,17, 0,22, 0.00,60.00,Wednesday
7,10.358629861582711
619,2820967.1034406167
1179,0.0
1316,20.164869172066254
1330,0.0
1331,0.0
674,30600.0
2,3, 1,17, 0,23, 0.00,60.00,Wednesday
7,10.358629861582711
619,1806716.918183553
1179,0.0
1316,19.79000960663087
1330,0.0
1331,0.0
674,30600.0
2,3, 1,17, 0,24, 0.00,60.00,Wednesday
7,10.358629861582711
619,5929450.37567642
1179,0.0
1316,19.77720618508458
1330,0.0
1331,0.0
674,30600.0
2,4, 1,18, 0, 1, 0.00,60.00,Thursday
7,10.319827070496707
619,8407595.03120983
1179,0.0
1316,19.76433487817678
1330,0.0
1331,0.0
674,30600.0
2,4, 1,18, 0, 2, 0.00,60.00,Thursday
7,10.319827070496707
619,10275172.06670329
1179,0.0
1316,19.751651703810563
1330,0.0
1331,0.0
674,30600.0
2,4, 1,18, 0, 3, 0.00,60.00,Thursday
7,10.319827070496707
619,12295660.855417911
1179,0.0
1316,19.739077017551907
1330,0.0
1331,0.0
674,30600.0
2,4, 1,18, 0, 4, 0.00,60.00,Thursday
7,10.319827070496707
619,12984307.790011153
1179,0.0
1316,19.726681400221945
1330,0.0
1331,0.0
674,30600.0
2,4, 1,18, 0, 5, 0.00,60.00,Thursday
7,10.319827070496707
619,15162840.025827311
1179,189568.84858796658
1316,19.714437281371776
1330,0.0
1331,0.0
674,30600.0
2,4, 1,18, 0, 6, 0.00,60.00,Thursday
7,10.319827070496707
619,16309439.840242872
1179,4158258.7725752555
1316,19.70548784142699
1330,0.0
1331,0.0
674,30600.0
2,4, 1,18, 0, 7, 0.00,60.00,Thursday
7,10.319827070496707
619,16289649.178636199
1179,1025332.6297598104
1316,19.700690024122583
1330,0.0
1331,0.0
674,30600.0
2,4, 1,18, 0, 8, 0.00,60.00,Thursday
7,10.319827070496707
619,16324648.847399425
1179,1740013.8838366512
1316,19.696009714384093
1330,0.0
1331,0.0
674,30600.0
2,4, 1,18, 0, 9, 0.00,60.00,Thursday
7,10.319827070496707
619,15404006.191922288
1179,856216.0335011644
1316,18.158871846350966
1330,7872764.1145137055
1331,2186.8789206982515
674,7903364.1145137055
2,4, 1,18, 0,10, 0.00,60.00,Thursday
7,10.319827070496707
619,9643055.49316869
1179,0.0
1316,20.190344474841883
1330,8096165.14851346
1331,2248.934763475961
674,8126765.14851346
2,4, 1,18, 0,11, 0.00,60.00,Thursday
7,10.319827070496707
619,5146807.790001619
1179,0.0
1316,21.07070027293332
1330,1018652.571422293
1331,282.9590476173036
674,1049252.5714222929
2,4, 1,18, 0,12, 0.00,60.00,Thursday
7,10.319827070496707
619,2716397.6971633215
1179,0.0
1316,20.862063298884255
1330,0.0
1331,0.0
674,30600.0
2,4, 1,18, 0,13, 0.00,60.00,Thursday
7,10.319827070496707
619,1574657.6152135292
1179,0.0
1316,20.592420723845304
1330,0.0
1331,0.0
674,30600.0
2,4, 1,18, 0,14, 0.00,60.00,Thursday
7,10.319827070496707
619,1112400.9064512518
1179,0.0
1316,20.582069507657852
1330,0.0
1331,0.0
674,30600.0
2,4, 1,18, 0,15, 0.00,60.00,Thursday
7,10.319827070496707
619,0.0
1179,0.0
1316,20.572088909122055
1330,0.0
1331,0.0
674,30600.0
2,4, 1,18, 0,16, 0.00,60.00,Thursday
7,10.319827070496707
619,0.0
1179,0.0
1316,20.56511004844971
1330,0.0
1331,0.0
674,30600.0
2,4, 1,18, 0,17, 0.00,60.00,Thursday
7,10.319827070496707
619,0.0
1179,0.0
1316,20.41867457385923
1330,288517.1497358243
1331,80.14365270439565
674,319117.1497358243
2,4, 1,18, 0,18, 0.00,60.00,Thursday
7,10.319827070496707
619,4029.012374290477
1179,0.0
1316,21.479341215666437
1330,2984700.68070993
1331,829.0835224194251
674,3015300.68070993
2,4, 1,18, 0,19, 0.00,60.00,Thursday
7,10.319827070496707
619,2340757.172864602
1179,0.0
1316,20.88733600873866
1330,0.0
1331,0.0
674,30600.0
2,4, 1,18, 0,20, 0.00,60.00,Thursday
7,10.319827070496707
619,3710573.2639455185
1179,0.0
1316,19.341996206309975
1330,2476039.7429453307
1331,687.7888174848141
674,2506639.7429453307
2,4, 1,18, 0,21, 0.00,60.00,Thursday
7,10.319827070496707
619,4376442.144299016
1179,0.0
1316,19.342780068671075
1330,8805817.455108663
1331,2446.0604041968513
674,8836417.455108663
2,4, 1,18, 0,22, 0.00,60.00,Thursday
7,10.319827070496707
619,6661349.124848198
1179,0.0
1316,21.345674854654376
1330,0.0
1331,0.0
674,30600.0
2,4, 1,18, 0,23, 0.00,60.00,Thursday
7,10.319827070496707
619,3731433.353779309
1179,0.0
1316,21.328470412283405
1330,0.0
1331,0.0
674,30600.0
2,4, 1,18, 0,24, 0.00,60.00,Thursday
7,10.319827070496707
619,9982290.106979368
1179,0.0
1316,21.306794394338255
1330,0.0
1331,0.0
674,30600.0
2,5, 1,19, 0, 1, 0.00,60.00,Friday
7,10.282765917519429
619,14409675.54619736
1179,0.0
1316,21.285131242362542
1330,0.0
1331,0.0
674,30600.0
2,5, 1,19, 0, 2, 0.00,60.00,Friday
7,10.282765917519429
619,15892466.88962708
1179,764669.6255172975
1316,21.263636948514293
1330,0.0
1331,0.0
674,30600.0
2,5, 1,19, 0, 3, 0.00,60.00,Friday
7,10.282765917519429
619,15947976.1991328
1179,1916092.2218150012
1316,21.242329803966694
1330,0.0
1331,0.0
674,30600.0
2,5, 1,19, 0, 4, 0.00,60.00,Friday
7,10.282765917519429
619,16084619.38506245
1179,1837477.2702818075
1316,21.22119605055333
1330,0.0
1331,0.0
674,30600.0
2,5, 1,19, 0, 5, 0.00,60.00,Friday
7,10.282765917519429
619,16329221.321921483
1179,452368.38016122114
1316,21.200242114690585
1330,0.0
1331,0.0
674,30600.0
2,5, 1,19, 0, 6, 0.00,60.00,Friday
7,10.282765917519429
619,16436156.083184393
1179,3749922.6863076766
1316,21.182646592827012
1330,0.0
1331,0.0
674,30600.0
2,5, 1,19, 0, 7, 0.00,60.00,Friday
7,10.282765917519429
619,16079317.069474425
1179,3111631.7399318498
1316,21.169194293857164
1330,0.0
1331,0.0
674,30600.0
2,5, 1,19, 0, 8, 0.00,60.00,Friday
7,10.282765917519429
619,15526034.371007169
1179,4568037.480957152
1316,20.655292139755254
1330,3734124.878331255
1331,1037.256910647571
674,3764724.878331255
2,5, 1,19, 0, 9, 0.00,60.00,Friday
7,10.282765917519429
619,15102034.322014777
1179,4487276.073890162
1316,19.77905273222893
1330,4505608.934707265
1331,1251.558037418685
674,4536208.934707265
2,5, 1,19, 0,10, 0.00,60.00,Friday
7,10.282765917519429
619,15089117.766166192
1179,2326075.3819117863
1316,18.872245175692594
1330,9808058.053052451
1331,2724.4605702923477
674,9838658.053052451
2,5, 1,19, 0,11, 0.00,60.00,Friday
7,10.282765917519429
619,15141586.584126422
1179,1646007.1119418743
1316,20.896451134527684
1330,0.0
1331,0.0
674,30600.0
2,5, 1,19, 0,12, 0.00,60.00,Friday
7,10.282765917519429
619,15120064.958969647
1179,1331228.458147131
1316,20.7728864203666
1330,0.0
1331,0.0
674,30600.0
2,5, 1,19, 0,13, 0.00,60.00,Friday
7,10.282765917519429
619,12603445.391680917
1179,0.0
1316,20.761469226120155
1330,0.0
1331,0.0
674,30600.0
2,5, 1,19, 0,14, 0.00,60.00,Friday
7,10.282765917519429
619,10197596.846023913
1179,0.0
1316,20.75017532220841
1330,0.0
1331,0.0
674,30600.0
2,5, 1,19, 0,15, 0.00,60.00,Friday
7,10.282765917519429
619,8274986.421657165
1179,0.0
1316,20.738990873969012
1330,0.0
1331,0.0
674,30600.0
2,5, 1,19, 0,16, 0.00,60.00,Friday
7,10.282765917519429
619,6574683.367925176
1179,0.0
1316,20.7279084306516
1330,0.0
1331,0.0
674,30600.0
2,5, 1,19, 0,17, 0.00,60.00,Friday
7,10.282765917519429
619,4213337.689093709
1179,0.0
1316,20.716988213957386
1330,0.0
1331,0.0
674,30600.0
2,5, 1,19, 0,18, 0.00,60.00,Friday
7,10.282765917519429
619,9693046.145749927
1179,66156.58855944444
1316,20.48850114318668
1330,6538569.4800952105
1331,1816.2693000264471
674,6569169.4800952105
2,5, 1,19, 0,19, 0.00,60.00,Friday
7,10.282765917519429
619,13933519.633786479
1179,683847.8360856783
1316,18.356642818461374
1330,7902739.014576082
1331,2195.2052818266893
674,7933339.014576082
2,5, 1,19, 0,20, 0.00,60.00,Friday
7,10.282765917519429
619,13592399.054485418
1179,2418202.5957969613
1316,20.46789264143781
1330,3295169.3656437993
1331,915.3248237899443
674,3325769.3656437993
2,5, 1,19, 0,21, 0.00,60.00,Friday
7,10.282765917519429
619,13353434.373391142
1179,4890300.558078516
1316,20.529427663248537
1330,0.0
1331,0.0
674,30600.0
2,5, 1,19, 0,22, 0.00,60.00,Friday
7,10.282765917519429
619,13135842.739486752
1179,7384049.052214185
1316,20.519343237146064
1330,0.0
1331,0.0
674,30600.0
2,5, 1,19, 0,23, 0.00,60.00,Friday
7,10.282765917519429
619,12260181.027567452
1179,5404564.712123502
1316,20.50635460098984
1330,0.0
1331,0.0
674,30600.0
2,5, 1,19, 0,24, 0.00,60.00,Friday
7,10.282765917519429
619,12881173.490273084
1179,7951651.193521478
1316,20.489345235009264
1330,0.0
1331,0.0
674,30600.0
2,6, 1,20, 0, 1, 0.00,60.00,Saturday
7,10.247457377960314
619,12755599.398681723
1179,10106931.61190397
1316,20.47244644459919
1330,0.0
1331,0.0
674,30600.0
2,6, 1,20, 0, 2, 0.00,60.00,Saturday
7,10.247457377960314
619,12688405.57692341
1179,12934149.143602807
1316,20.45569860049207
1330,0.0
1331,0.0
674,30600.0
2,6, 1,20, 0, 3, 0.00,60.00,Saturday
7,10.247457377960314
619,12562217.209772108
1179,15307131.634767128
1316,20.439095097348943
1330,0.0
1331,0.0
674,30600.0
2,6, 1,20, 0, 4, 0.00,60.00,Saturday
7,10.247457377960314
619,12347266.69534082
1179,15984311.331750207
1316,20.42262582538129
1330,0.0
1331,0.0
674,30600.0
2,6, 1,20, 0, 5, 0.00,60.00,Saturday
7,10.247457377960314
619,12119400.71168209
1179,15627839.134912837
1316,20.406317740902413
1330,0.0
1331,0.0
674,30600.0
2,6, 1,20, 0, 6, 0.00,60.00,Saturday
7,10.247457377960314
619,11847126.891691789
1179,20613920.15485249
1316,20.39233251525083
1330,0.0
1331,0.0
674,30600.0
2,6, 1,20, 0, 7, 0.00,60.00,Saturday
7,10.247457377960314
619,11749996.032886218
1179,19131443.44975512
1316,20.38315222840976
1330,0.0
1331,0.0
674,30600.0
2,6, 1,20, 0, 8, 0.00,60.00,Saturday
7,10.247457377960314
619,11871709.722836247
1179,18668707.765683744
1316,20.34542192151876
1330,4443365.397347651
1331,1234.268165929903
674,4473965.397347651
2,6, 1,20, 0, 9, 0.00,60.00,Saturday
7,10.247457377960314
619,12182344.52090174
1179,14396367.992064666
1316,19.603974327468865
1330,7228645.195788454
1331,2007.9569988301266
674,7259245.195788454
2,6, 1,20, 0,10, 0.00,60.00,Saturday
7,10.247457377960314
619,12603094.146888267
1179,8755249.046512961
1316,21.22655911871902
1330,2459973.6908578197
1331,683.3260252382833
674,2490573.6908578197
2,6, 1,20, 0,11, 0.00,60.00,Saturday
7,10.247457377960314
619,13204235.780337283
1179,4014456.6253638184
1316,21.3755003132104
1330,0.0
1331,0.0
674,30600.0
2,6, 1,20, 0,12, 0.00,60.00,Saturday
7,10.247457377960314
619,13640424.872392764
1179,905024.3065261891
1316,21.36058891210237
1330,0.0
1331,0.0
674,30600.0
2,6, 1,20, 0,13, 0.00,60.00,Saturday
7,10.247457377960314
619,11342448.661468795
1179,10057.934557628096
1316,21.34581495816872
1330,0.0
1331,0.0
674,30600.0
2,6, 1,20, 0,14, 0.00,60.00,Saturday
7,10.247457377960314
619,7810880.086294514
1179,0.0
1316,20.028620229425055
1330,5066991.453772585
1331,1407.497626047941
674,5097591.453772585
2,6, 1,20, 0,15, 0.00,60.00,Saturday
7,10.247457377960314
619,6089294.27447742
1179,0.0
1316,21.46782236633503
1330,0.0
1331,0.0
674,30600.0
2,6, 1,20, 0,16, 0.00,60.00,Saturday
7,10.247457377960314
619,2117937.1370813013
1179,0.0
1316,21.452448215735703
1330,0.0
1331,0.0
674,30600.0
2,6, 1,20, 0,17, 0.00,60.00,Saturday
7,10.247457377960314
619,1443293.2750554825
1179,0.0
1316,21.437108550079177
1330,0.0
1331,0.0
674,30600.0
2,6, 1,20, 0,18, 0.00,60.00,Saturday
7,10.247457377960314
619,6581537.419923501
1179,0.0
1316,21.42184851152193
1330,0.0
1331,0.0
674,30600.0
2,6, 1,20, 0,19, 0.00,60.00,Saturday
7,10.247457377960314
619,11608745.20303661
1179,0.0
1316,21.406687336273134
1330,0.0
1331,0.0
674,30600.0
2,6, 1,20, 0,20, 0.00,60.00,Saturday
7,10.247457377960314
619,13513993.003755735
1179,658959.3324320056
1316,20.76787018900824
1330,0.0
1331,0.0
674,30600.0
2,6, 1,20, 0,21, 0.00,60.00,Saturday
7,10.247457377960314
619,13622020.15983715
1179,1759579.3526689145
1316,18.429856245639183
1330,10644284.942583583
1331,2956.7458173843283
674,10674884.942583583
2,6, 1,20, 0,22, 0.00,60.00,Saturday
7,10.247457377960314
619,13265546.646967264
1179,3672906.245103345
1316,20.982018486865424
1330,905238.2567423461
1331,251.45507131731836
674,935838.2567423461
2,6, 1,20, 0,23, 0.00,60.00,Saturday
7,10.247457377960314
619,11903906.60691579
1179,2881479.761111981
1316,20.876268176856723
1330,0.0
1331,0.0
674,30600.0
2,6, 1,20, 0,24, 0.00,60.00,Saturday
7,10.247457377960314
619,12607783.837696588
1179,6650695.583611086
1316,20.857009496925674
1330,0.0
1331,0.0
674,30600.0
2,7, 1,21, 0, 1, 0.00,60.00,Sunday
7,10.21391190810892
619,12482477.57235802
1179,9228949.771003472
1316,20.83787958763595
1330,0.0
1331,0.0
674,30600.0
2,7, 1,21, 0, 2, 0.00,60.00,Sunday
7,10.21391190810892
619,12329085.106394809
1179,11020122.083820526
1316,20.81890288718741
1330,0.0
1331,0.0
674,30600.0
2,7, 1,21, 0, 3, 0.00,60.00,Sunday
7,10.21391190810892
619,12173131.107171837
1179,12321636.44629835
1316,20.80008063530628
1330,0.0
1331,0.0
674,30600.0
2,7, 1,21, 0, 4, 0.00,60.00,Sunday
7,10.21391190810892
619,12065198.631878015
1179,13331551.929503016
1316,20.781416168267363
1330,0.0
1331,0.0
674,30600.0
2,7, 1,21, 0, 5, 0.00,60.00,Sunday
7,10.21391190810892
619,12086841.553133015
1179,13361053.47758029
1316,20.762911211639345
1330,0.0
1331,0.0
674,30600.0
2,7, 1,21, 0, 6, 0.00,60.00,Sunday
7,10.21391190810892
619,12253020.721384829
1179,17609869.81703657
1316,20.747208469170005
1330,0.0
1331,0.0
674,30600.0
2,7, 1,21, 0, 7, 0.00,60.00,Sunday
7,10.21391190810892
619,12343038.781257248
1179,15083460.551329756
1316,20.736110835687345
1330,0.0
1331,0.0
674,30600.0
2,7, 1,21, 0, 8, 0.00,60.00,Sunday
7,10.21391190810892
619,12577417.844295857
1179,13677126.97687334
1316,20.725221446513242
1330,0.0
1331,0.0
674,30600.0
2,7, 1,21, 0, 9, 0.00,60.00,Sunday
7,10.21391190810892
619,13292691.081807747
1179,9898640.070688913
1316,18.759984556475175
1330,7473174.5604180945
1331,2075.88182233836
674,7503774.5604180945
2,7, 1,21, 0,10, 0.00,60.00,Sunday
7,10.21391190810892
619,14569955.472896779
1179,4123794.6841757684
1316,20.107746800653715
1330,8057211.832595086
1331,2238.11439794308
674,8087811.832595086
2,7, 1,21, 0,11, 0.00,60.00,Sunday
7,10.21391190810892
619,13136815.64597362
1179,186263.9766723647
1316,20.994949348028644
1330,1035000.0
1331,287.5
674,1065600.0
2,7, 1,21, 0,12, 0.00,60.00,Sunday
7,10.21391190810892
619,8236610.333975147
1179,0.0
1316,20.78742639957847
1330,0.0
1331,0.0
674,30600.0
2,7, 1,21, 0,13, 0.00,60.00,Sunday
7,10.21391190810892
619,5093156.460180313
1179,0.0
1316,20.51597579666674
1330,0.0
1331,0.0
674,30600.0
2,7, 1,21, 0,14, 0.00,60.00,Sunday
7,10.21391190810892
619,2286280.6822608346
1179,0.0
1316,20.50607996003402
1330,0.0
1331,0.0
674,30600.0
2,7, 1,21, 0,15, 0.00,60.00,Sunday
7,10.21391190810892
619,199577.70946916114
1179,0.0
1316,20.496342871241126
1330,0.0
1331,0.0
674,30600.0
2,7, 1,21, 0,16, 0.00,60.00,Sunday
7,10.21391190810892
619,0.0
1179,0.0
1316,20.48845576250195
1330,0.0
1331,0.0
674,30600.0
2,7, 1,21, 0,17, 0.00,60.00,Sunday
7,10.21391190810892
619,0.0
1179,0.0
1316,20.34379815430094
1330,335245.4630549096
1331,93.12373973747496
674,365845.4630549096
2,7, 1,21, 0,18, 0.00,60.00,Sunday
7,10.21391190810892
619,0.0
1179,0.0
1316,21.428176803124444
1330,2973291.1204646495
1331,825.9142001290693
674,3003891.1204646495
2,7, 1,21, 0,19, 0.00,60.00,Sunday
7,10.21391190810892
619,231664.655684246
1179,0.0
1316,20.833602464808852
1330,0.0
1331,0.0
674,30600.0
2,7, 1,21, 0,20, 0.00,60.00,Sunday
7,10.21391190810892
619,1711047.8297976023
1179,0.0
1316,19.278057810182336
1330,2478903.2097153147
1331,688.5842249209207
674,2509503.2097153147
2,7, 1,21, 0,21, 0.00,60.00,Sunday
7,10.21391190810892
619,2994885.110828139
1179,0.0
1316,19.249695506381755
1330,8837164.126513094
1331,2454.7678129203036
674,8867764.126513094
2,7, 1,21, 0,22, 0.00,60.00,Sunday
7,10.21391190810892
619,6578576.828422985
1179,0.0
1316,21.268077570883154
1330,0.0
1331,0.0
674,30600.0
2,7, 1,21, 0,23, 0.00,60.00,Sunday
7,10.21391190810892
619,5803574.061335251
1179,0.0
1316,21.250841348218565
1330,0.0
1331,0.0
674,30600.0
2,7, 1,21, 0,24, 0.00,60.00,Sunday
7,10.21391190810892
619,9745205.640161747
1179,0.0
1316,21.229585244970053
1330,0.0
1331,0.0
674,30600.0
1,EXTREME_SUMMER,  39.10, -84.42,  -5.00, 149.40
2,1, 7,15, 0, 1, 0.00,60.00,Monday
7,21.891361446761014
619,0.0
1179,0.0
1316,53.23966731496575
1330,0.0
1331,0.0
674,30600.0
2,1, 7,15, 0, 2, 0.00,60.00,Monday
7,21.891361446761014
619,0.0
1179,0.0
1316,53.05321558216699
1330,0.0
1331,0.0
674,30600.0
2,1, 7,15, 0, 3, 0.00,60.00,Monday
7,21.891361446761014
619,0.0
1179,0.0
1316,52.86801169528892
1330,0.0
1331,0.0
674,30600.0
2,1, 7,15, 0, 4, 0.00,60.00,Monday
7,21.891361446761014
619,0.0
1179,0.0
1316,52.684037835118
1330,0.0
1331,0.0
674,30600.0
2,1, 7,15, 0, 5, 0.00,60.00,Monday
7,21.891361446761014
619,0.0
1179,0.0
1316,52.50127970423017
1330,0.0
1331,0.0
674,30600.0
2,1, 7,15, 0, 6, 0.00,60.00,Monday
7,21.891361446761014
619,0.0
1179,0.0
1316,52.31654870274705
1330,0.0
1331,0.0
674,30600.0
2,1, 7,15, 0, 7, 0.00,60.00,Monday
7,21.891361446761014
619,0.0
1179,0.0
1316,52.12906951377062
1330,0.0
1331,0.0
674,30600.0
2,1, 7,15, 0, 8, 0.00,60.00,Monday
7,21.891361446761014
619,0.0
1179,0.0
1316,49.817820123813156
1330,0.0
1331,0.0
674,30600.0
2,1, 7,15, 0, 9, 0.00,60.00,Monday
7,21.891361446761014
619,0.0
1179,0.0
1316,43.1529379185664
1330,0.0
1331,0.0
674,30600.0
2,1, 7,15, 0,10, 0.00,60.00,Monday
7,21.891361446761014
619,0.0
1179,0.0
1316,35.16712151036831
1330,0.0
1331,0.0
674,30600.0
2,1, 7,15, 0,11, 0.00,60.00,Monday
7,21.891361446761014
619,0.0
1179,0.0
1316,35.08971145570931
1330,0.0
1331,0.0
674,30600.0
2,1, 7,15, 0,12, 0.00,60.00,Monday
7,21.891361446761014
619,0.0
1179,0.0
1316,35.01285501180992
1330,0.0
1331,0.0
674,30600.0
2,1, 7,15, 0,13, 0.00,60.00,Monday
7,21.891361446761014
619,0.0
1179,0.0
1316,34.93681626442032
1330,0.0
1331,0.0
674,30600.0
2,1, 7,15, 0,14, 0.00,60.00,Monday
7,21.891361446761014
619,0.0
1179,0.0
1316,34.862284293438144
1330,0.0
1331,0.0
674,30600.0
2,1, 7,15, 0,15, 0.00,60.00,Monday
7,21.891361446761014
619,0.0
1179,0.0
1316,34.79049887406024
1330,0.0
1331,0.0
674,30600.0
2,1, 7,15, 0,16, 0.00,60.00,Monday
7,21.891361446761014
619,0.0
1179,0.0
1316,32.843511765243775
1330,0.0
1331,0.0
674,30600.0
2,1, 7,15, 0,17, 0.00,60.00,Monday
7,21.891361446761014
619,0.0
1179,0.0
1316,28.36560252852857
1330,0.0
1331,0.0
674,30600.0
2,1, 7,15, 0,18, 0.00,60.00,Monday
7,21.891361446761014
619,0.0
1179,0.0
1316,28.184911927696916
1330,0.0
1331,0.0
674,30600.0
2,1, 7,15, 0,19, 0.00,60.00,Monday
7,21.891361446761014
619,0.0
1179,0.0
1316,28.053051620402496
1330,0.0
1331,0.0
674,30600.0
2,1, 7,15, 0,20, 0.00,60.00,Monday
7,21.891361446761014
619,0.0
1179,0.0
1316,28.033855670897882
1330,0.0
1331,0.0
674,30600.0
2,1, 7,15, 0,21, 0.00,60.00,Monday
7,21.891361446761014
619,0.0
1179,0.0