Program Version,EnergyPlus, Version 22.2.0-c249759bad, YMD=2023.09.01 14:30
1,5,Environment Title[],Latitude[deg],Longitude[deg],Time Zone[],Elevation[m]
2,8,Day of Simulation[],Month[],Day of Month[],DST Indicator[1=yes 0=no],Hour[],StartMinute[],EndMinute[],DayType
3,5,Cumulative Day of Simulation[],Month[],Day of Month[],DST Indicator[1=yes 0=no],DayType  ! When Daily Report Variables Requested
4,2,Cumulative Days of Simulation[],Month[]  ! When Monthly Report Variables Requested
5,1,Cumulative Days of Simulation[] ! When Run Period Report Variables Requested
6,1,Calendar Year of Simulation[] ! When Annual Report Variables Requested
7,1,Environment,Site Outdoor Air Drybulb Temperature [C] !Hourly
619,1,DX_HEATING_COIL,Heating Coil Heating Rate [W] !Hourly
633,1,DX_HEATING_COIL,Heating Coil Electricity Rate [W] !Hourly
659,1,DX_HEATING_COIL,Heating Coil Defrost Electricity Rate [W] !Hourly
661,1,DX_HEATING_COIL,Heating Coil Crankcase Heater Electricity Rate [W] !Hourly
690,1,FAN,Fan Electricity Rate [W] !Hourly
716,1,HEAT PUMP WATER HEATER FAN,Fan Electricity Rate [W] !Hourly
718,1,LIVING,Zone Mean Air Temperature [C] !Hourly
719,1,ATTIC,Zone Mean Air Temperature [C] !Hourly
720,1,CRAWLSPACE,Zone Mean Air Temperature [C] !Hourly
843,1,LIVING,Zone Predicted Sensible Load to Heating Setpoint Heat Transfer Rate [W] !Hourly
844,1,LIVING,Zone System Predicted Sensible Load to Heating Setpoint Heat Transfer Rate [W] !Hourly
907,1,ATTIC,Zone Predicted Sensible Load to Heating Setpoint Heat Transfer Rate [W] !Hourly
908,1,ATTIC,Zone System Predicted Sensible Load to Heating Setpoint Heat Transfer Rate [W] !Hourly
971,1,CRAWLSPACE,Zone Predicted Sensible Load to Heating Setpoint Heat Transfer Rate [W] !Hourly
972,1,CRAWLSPACE,Zone System Predicted Sensible Load to Heating Setpoint Heat Transfer Rate [W] !Hourly
1195,1,HEATING_RESISTANCE_BACKUP,Heating Coil Heating Rate [W] !Hourly
1197,1,HEATING_RESISTANCE_BACKUP,Heating Coil Electricity Rate [W] !Hourly
End of Data Dictionary
1,EXTREME_WINTER,  44.36, -84.67,  -5.00, 351.00
2,1,12,15, 0, 1, 0.00,60.00,Monday
7,-13.3
718,18.631137522325716
719,-8.278194387122653
720,17.70544093956042
619,3093.6950771118486
633,1211.5637554750858
659,11.523790657250585
661,0.0
690,140.59774730376816
716,0.0
843,4193.243363299243
844,4193.243363299243
907,0.0
908,0.0
971,0.0
972,0.0
1195,3296.908089527614
1197,3296.908089527614
2,1,12,15, 0, 2, 0.00,60.00,Monday
7,-13.9
718,18.610447679052157
719,-8.416837515078583
720,17.233769399831285
619,3028.781545659846
633,1200.5082077247084
659,13.6834587650535
661,0.0
690,140.59774730376816
716,0.0
843,4816.623452564065
844,4816.623452564065
907,0.0
908,0.0
971,0.0
972,0.0
1195,4007.6168010050865
1197,4007.6168010050865
2,1,12,15, 0, 3, 0.00,60.00,Monday
7,-12.8
718,18.59895649148724
719,-7.881539781192132
720,16.99544025627119
619,3131.996292462283
633,1209.779989918651
659,15.783355651598384
661,0.0
690,140.59774730376816
716,0.0
843,5160.093890265192
844,5160.093890265192
907,0.0
908,0.0
971,0.0
972,0.0
1195,4322.843166661891
1197,4322.843166661891
2,1,12,15, 0, 4, 0.00,60.00,Monday
7,-12.2
718,18.60118531862679
719,-6.701623996238983
720,16.73142527230651
619,3191.620274356912
633,1215.6782665694877
659,16.14533942724418
661,0.0
690,140.59774730376816
716,0.0
843,5459.822403106073
844,5459.822403106073
907,0.0
908,0.0
971,0.0
972,0.0
1195,4626.564187642117
1197,4626.564187642117
2,1,12,15, 0, 5, 0.00,60.00,Monday
7,-11.7
718,18.597999881795758
719,-6.217034384573672
720,16.50381584328682
619,3235.845277447147
633,1218.535605207573
659,18.159320641638118
661,0.0
690,140.59774730376816
716,0.0
843,5379.3814409412225
844,5379.3814409412225
907,0.0
908,0.0
971,0.0
972,0.0
1195,4403.536457442309
1197,4403.536457442309
2,1,12,15, 0, 6, 0.00,60.00,Monday
7,-11.7
718,19.39943214817687
719,-6.173892107162543
720,16.279515356201532
619,3223.498616873246
633,1213.404355070086
659,21.925530295286723
661,0.0
690,140.59774730376816
716,0.0
843,6767.03740913969
844,6767.03740913969
907,0.0
908,0.0
971,0.0
972,0.0
1195,6105.8640684336315
1197,6105.8640684336315
2,1,12,15, 0, 7, 0.00,60.00,Monday
7,-11.1
718,19.588919631720103
719,-5.681777543391726
720,16.11754526329238
619,3249.462186628871
633,1230.9702150551757
659,27.39416704122268
661,0.0
690,140.59774730376816
716,85.44000000000005
843,5870.709475912072
844,5870.709475912072
907,0.0
908,0.0
971,0.0
972,0.0
1195,6106.592964331711
1197,6106.592964331711
2,1,12,15, 0, 8, 0.00,60.00,Monday
7,-9.4
718,19.657719785721216
719,-5.992177688029016
720,15.936897098843156
619,3385.1837541326618
633,1241.156265991457
659,37.44808264273269
661,0.0
690,140.59774730376816
716,85.44000000000005
843,5285.649636659917
844,5285.649636659917
907,0.0
908,0.0
971,0.0
972,0.0
1195,5344.409425305605
1197,5344.409425305605
2,1,12,15, 0, 9, 0.00,60.00,Monday
7,-10.0
718,19.693813401210992
719,-6.180095935594445
720,15.754735280350753
619,3330.071296197212
633,1238.7865899261453
659,35.169834939882115
661,0.0
690,140.59774730376816
716,20.174946520555807
843,5273.526211922415
844,5273.526211922415
907,0.0
908,0.0
971,0.0
972,0.0
1195,4477.976510036469
1197,4477.976510036469
2,1,12,15, 0,10, 0.00,60.00,Monday
7,-10.0
718,19.713732656564563
719,-5.615909003317532
720,15.588945571841334
619,3344.4807534116944
633,1244.9584882313045
659,30.92770649516496
661,0.0
690,140.59774730376816
716,0.0
843,4804.172006683602
844,4804.172006683602
907,0.0
908,0.0
971,0.0
972,0.0
1195,3683.5601615237388
1197,3683.5601615237388
2,1,12,15, 0,11, 0.00,60.00,Monday
7,-10.0
718,19.71063850828021
719,-5.356998169528754
720,15.42588145259642
619,3389.942244870949
633,1262.1909598699312
659,17.97515172243508
661,0.0
690,140.59774730376816
716,0.0
843,4943.5035966574505
844,4943.5035966574505
907,0.0
908,0.0
971,0.0
972,0.0
1195,3766.3618022997625
1197,3766.3618022997625
2,1,12,15, 0,12, 0.00,60.00,Monday
7,-10.0
718,19.71719068487598
719,-5.000604192898455
720,15.276651365105572
619,3390.2143189797875
633,1261.8915376074133
659,17.97515172243508
661,0.0
690,140.59774730376816
716,0.0
843,4647.415836051023
844,4647.415836051023
907,0.0
908,0.0
971,0.0
972,0.0
1195,3417.02069549389
1197,3417.02069549389
2,1,12,15, 0,13, 0.00,60.00,Monday
7,-9.4
718,19.71022038890455
719,-5.150485966991752
720,15.14255063289471
619,3460.8200941772743
633,1271.3797821199269
659,15.931753464181933
661,0.0
690,140.59774730376816
716,0.0
843,5100.055250329586
844,5100.055250329586
907,0.0
908,0.0
971,0.0
972,0.0
1195,3865.03576331677
1197,3865.03576331677
2,1,12,15, 0,14, 0.00,60.00,Monday
7,-11.1
718,19.70402164631697
719,-5.3087218787987895
720,15.010197437527184
619,3284.5090920488115
633,1251.8528440028588
659,15.601006459054693
661,0.0
690,140.59774730376816
716,80.75801702288199
843,4048.0881580928763
844,4048.0881580928763
907,0.0
908,0.0
971,0.0
972,0.0
1195,3810.739183977311
1197,3810.739183977311
2,1,12,15, 0,15, 0.00,60.00,Monday
7,-11.1
718,19.714550152847284
719,-5.349146921434721
720,14.898787504932887
619,3308.741675528522
633,1260.6556158939395
659,8.576978830620572
661,0.0
690,140.59774730376816
716,0.0
843,3530.9001026830047
844,3530.9001026830047
907,0.0
908,0.0
971,0.0
972,0.0
1195,2149.9080467495182
1197,2149.9080467495182
2,1,12,15, 0,16, 0.00,60.00,Monday
7,-11.7
718,19.72009442287309
719,-6.698395200331829
720,14.793365825977522
619,3214.6253150872626
633,1241.2135401720795
659,18.183141812100978
661,0.0
690,140.59774730376816
716,0.0
843,3078.9785261053567
844,3078.9785261053567
907,0.0
908,0.0
971,0.0
972,0.0
1195,1715.2720601542821
1197,1715.2720601542821
2,1,12,15, 0,17, 0.00,60.00,Monday
7,-12.2
718,19.717120162984205
719,-6.385768779475611
720,14.712907609692092
619,3144.1008960473514
633,1227.5353852355775
659,24.233572236705086
661,0.0
690,140.59774730376816
716,0.0
843,2913.5839528559045
844,2913.5839528559045
907,0.0
908,0.0
971,0.0
972,0.0
1195,1657.1894735477201
1197,1657.1894735477201
2,1,12,15, 0,18, 0.00,60.00,Monday
7,-12.8
718,19.716274277007976
719,-6.8400517053497625
720,14.629605798468116
619,3111.623386107957
633,1230.9609074095295
659,15.84239766094338
661,0.0
690,140.59774730376816
716,0.0
843,3223.901163538658
844,3223.901163538658
907,0.0
908,0.0
971,0.0
972,0.0
1195,2053.916892772764
1197,2053.916892772764
2,1,12,15, 0,19, 0.00,60.00,Monday
7,-12.8
718,19.707152072345455
719,-7.590356681282426
720,14.540721106263515
619,3111.70985527076
633,1230.822705545304
659,15.852577388387012
661,0.0
690,140.59774730376816
716,85.44000000000005
843,3407.563593362329
844,3407.563593362329
907,0.0
908,0.0
971,0.0
972,0.0
1195,3451.039048542292
1197,3451.039048542292
2,1,12,15, 0,20, 0.00,60.00,Monday
7,-13.3
718,19.696720101923475
719,-9.16431067451291
720,14.426915536340868
619,3068.1109052381394
633,1226.6999558238817
659,14.041666614101421
661,0.0
690,140.59774730376816
716,85.44000000000005
843,3783.1697746512327
844,3783.1697746512327
907,0.0
908,0.0
971,0.0
972,0.0
1195,4036.4399035464353
1197,4036.4399035464353
2,1,12,15, 0,21, 0.00,60.00,Monday
7,-13.3
718,19.699315323998988
719,-9.299766824598994
720,14.31214227956686
619,3058.1006851098637
633,1222.1624402775892
659,17.308424937103933
661,0.0
690,140.59774730376816
716,65.19854687938579
843,4628.877201028594
844,4628.877201028594
907,0.0
908,0.0
971,0.0
972,0.0
1195,4831.884352238602
1197,4831.884352238602
2,1,12,15, 0,22, 0.00,60.00,Monday
7,-13.3
718,19.715303878354558
719,-9.230614275448737
720,14.192240542946543
619,3058.1673850409056
633,1222.0931288817535
659,17.308424937103933
661,0.0
690,140.59774730376816
716,0.0
843,4614.0843270138685
844,4614.0843270138685
907,0.0
908,0.0
971,0.0
972,0.0
1195,3960.100421047015
1197,3960.100421047015
2,1,12,15, 0,23, 0.00,60.00,Monday
7,-14.4
718,18.916992161534733
719,-10.117258095957387
720,14.052665164536073
619,2982.3912594379353
633,1221.8207917674247
659,6.889505924656032
661,0.0
690,140.59774730376816
716,0.0
843,4477.7099003252515
844,4477.7099003252515
907,0.0
908,0.0
971,0.0
972,0.0
1195,3857.7756433236264
1197,3857.7756433236264
2,1,12,15, 0,24, 0.00,60.00,Monday
7,-15.0
718,18.696678533359492
719,-10.308052814674221
720,13.881908305495932
619,2927.8610776606606
633,1192.0787967330139
659,11.16698453639797
661,0.0
690,140.59774730376816
716,0.0
843,4794.642813077673
844,4794.642813077673
907,0.0
908,0.0
971,0.0
972,0.0
1195,4296.181212123174
1197,4296.181212123174
2,2,12,16, 0, 1, 0.00,60.00,Tuesday
7,-15.0
718,18.623663113651133
719,-10.580934180974353
720,13.736492612149682
619,2932.661615440456
633,1187.320371122367
659,11.143588755958945
661,0.0
690,140.59774730376816
716,0.0
843,5091.520294459167
844,5091.520294459167
907,0.0
908,0.0
971,0.0
972,0.0
1195,4625.535143186435
1197,4625.535143186435
2,2,12,16, 0, 2, 0.00,60.00,Tuesday
7,-15.0
718,18.60711489689354
719,-10.568675258825147
720,13.586832411529
619,2927.859323222602
633,1183.0168032697477
659,13.278256024520372
661,0.0
690,140.59774730376816
716,0.0
843,5436.172885103073
844,5436.172885103073
907,0.0
908,0.0
971,0.0
972,0.0
1195,5080.218086301562
1197,5080.218086301562
2,2,12,16, 0, 3, 0.00,60.00,Tuesday
7,-15.0
718,18.59962930331439
719,-10.525989430238019
720,13.441756287542251
619,2934.766318910496
633,1185.0857882109524
659,11.16698453639797
661,0.0
690,140.59774730376816
716,0.0
843,5215.118375124415
844,5215.118375124415
907,0.0
908,0.0
971,0.0
972,0.0
1195,4784.898568476001
1197,4784.898568476001
2,2,12,16, 0, 4, 0.00,60.00,Tuesday
7,-15.0
718,18.597628577589102
719,-10.691364680525774
720,13.29383049635291
619,2926.764088653955
633,1181.3648058261797
659,13.921017731736514
661,0.0
690,140.59774730376816
716,0.0
843,5968.532498914057
844,5968.532498914057
907,0.0
908,0.0
971,0.0
972,0.0
1195,5730.187046109637
1197,5730.187046109637
2,2,12,16, 0, 5, 0.00,60.00,Tuesday
7,-15.0
718,18.59509183547768
719,-10.426491290838575
720,13.15501473924549
619,2926.7828292402396
633,1181.092119039969
659,13.980016616640501
661,0.0
690,140.59774730376816
716,0.0
843,5697.238069788284
844,5697.238069788284
907,0.0
908,0.0
971,0.0
972,0.0
1195,5386.637729643208
1197,5386.637729643208
2,2,12,16, 0, 6, 0.00,60.00,Tuesday
7,-15.0
718,19.40131906483043
719,-10.453748633812415
720,13.015452119257693
619,2927.0003687839326
633,1180.8713508417206
659,13.980016616640501
661,0.0
690,140.59774730376816
716,0.0
843,6864.738839348218
844,6864.738839348218
907,0.0
908,0.0
971,0.0
972,0.0
1195,6812.491031687707
1197,6812.491031687707
2,2,12,16, 0, 7, 0.00,60.00,Tuesday
7,-14.4
718,19.41294832759214
719,-10.56689138182773
720,12.916992078780668
619,2974.5259326000873
633,1207.205849444493
659,12.057456936873164
661,0.0
690,140.59774730376816
716,85.44000000000005
843,6393.449062453847
844,6393.449062453847
907,0.0
908,0.0
971,0.0
972,0.0
1195,6906.980186329309
1197,6906.980186329309
2,2,12,16, 0, 8, 0.00,60.00,Tuesday
7,-14.4
718,19.241777232392494
719,-9.8939807019014
720,12.782621389435832
619,2974.1800093195466
633,1207.2665481321712
659,12.124073931317279
661,0.0
690,140.59774730376816
716,85.44000000000005
843,6626.684466364028
844,6626.684466364028
907,0.0
908,0.0
971,0.0
972,0.0
1195,6906.980186329309
1197,6906.980186329309
2,2,12,16, 0, 9, 0.00,60.00,Tuesday
7,-13.9
718,19.52676180208952
719,-9.491579329821699
720,12.657351647944495
619,3021.710407565923
633,1207.53799634131
659,13.745516841335775
661,0.0
690,140.59774730376816
716,85.44000000000005
843,5712.265515286428
844,5712.265515286428
907,0.0
908,0.0
971,0.0
972,0.0
1195,6489.934733329437
1197,6489.934733329437
2,2,12,16, 0,10, 0.00,60.00,Tuesday
7,-13.3
718,19.654196053454612
719,-9.266646956098553
720,12.552331617184816
619,3082.0692101289783
633,1223.4577905611238
659,11.577348313168011
661,0.0
690,140.59774730376816
716,35.18649394897287
843,5213.80201705449
844,5213.80201705449
907,0.0
908,0.0
971,0.0
972,0.0
1195,5131.027915608282
1197,5131.027915608282
2,2,12,16, 0,11, 0.00,60.00,Tuesday
7,-12.2
718,19.694783520392953
719,-8.558986300074729
720,12.457641162826908
619,3195.764853136649
633,1241.4993332405274
659,9.836398380429333
661,0.0
690,140.59774730376816
716,0.0
843,4639.323232085899
844,4639.323232085899
907,0.0
908,0.0
971,0.0
972,0.0
1195,3873.870727226173
1197,3873.870727226173
2,2,12,16, 0,12, 0.00,60.00,Tuesday
7,-11.1
718,19.71357649119063
719,-6.2653465689589085
720,12.392039522214159
619,3312.433110719104
633,1257.0248905486128
659,8.50397818860236
661,0.0
690,140.59774730376816
716,0.0
843,4209.476854279552
844,4209.476854279552
907,0.0
908,0.0
971,0.0
972,0.0
1195,3227.9678155899214
1197,3227.9678155899214
2,2,12,16, 0,13, 0.00,60.00,Tuesday
7,-11.1
718,19.713101118253874
719,-5.39440955765903
720,12.337470349150987
619,3312.1182661455455
633,1257.3657614372798
659,8.50397818860236
661,0.0
690,140.59774730376816
716,0.0
843,3892.017625387407
844,3892.017625387407
907,0.0
908,0.0
971,0.0
972,0.0
1195,2707.3411326685405
1197,2707.3411326685405
2,2,12,16, 0,14, 0.00,60.00,Tuesday
7,-10.6
718,19.722708325945476
719,-4.938225863067702
720,12.309526862835343
619,3361.8179017290154
633,1262.1675987940157
659,9.228022676580881
661,0.0
690,140.59774730376816
716,0.0
843,3154.410882315484
844,3154.410882315484
907,0.0
908,0.0
971,0.0
972,0.0
1195,1733.1550433287537
1197,1733.1550433287537
2,2,12,16, 0,15, 0.00,60.00,Tuesday
7,-10.6
718,19.719734588579893
719,-5.016602576586525
720,12.293349296461688
619,3347.250024534369
633,1256.9440782793151
659,13.383832792226283
661,0.0
690,140.59774730376816
716,0.0
843,2836.957830253059
844,2836.957830253059
907,0.0
908,0.0
971,0.0
972,0.0
1195,1335.722940997433
1197,1335.722940997433
2,2,12,16, 0,16, 0.00,60.00,Tuesday
7,-11.1
718,19.72797682006658
719,-4.834505121207747
720,12.290690169454399
619,3288.417020866208
633,1248.45984376007
659,15.433423198973955
661,0.0
690,140.59774730376816
716,0.0
843,1945.831070479433
844,1945.831070479433
907,0.0
908,0.0
971,0.0
972,0.0
1195,331.3957146381638
1197,331.3957146381638
2,2,12,16, 0,17, 0.00,60.00,Tuesday
7,-11.7
718,19.721954394167405
719,-4.039638185341179
720,12.291378070657581
619,3240.101026005815
633,1246.820421133634
659,11.43333519986564
661,0.0
690,140.59774730376816
716,0.0
843,2113.021063886885
844,2113.021063886885
907,0.0
908,0.0
971,0.0
972,0.0
1195,565.8816168946128
1197,565.8816168946128
2,2,12,16, 0,18, 0.00,60.00,Tuesday
7,-12.8
718,19.71550635372139
719,-5.673703520412947
720,12.280271988225719
619,3106.908414598334
633,1224.9472864120864
659,18.19135717220681
661,0.0
690,140.59774730376816
716,0.0
843,2862.195063729061
844,2862.195063729061
907,0.0
908,0.0
971,0.0
972,0.0
1195,1556.259212212702
1197,1556.259212212702
2,2,12,16, 0,19, 0.00,60.00,Tuesday
7,-12.8
718,19.70785997528724
719,-6.624730064979579
720,12.261304265086906
619,3107.055990293727
633,1224.792289307028
659,18.19135717220681
661,0.0
690,140.59774730376816
716,85.44000000000005
843,3056.874972835547
844,3056.874972835547
907,0.0
908,0.0
971,0.0
972,0.0
1195,2985.1198228168982
1197,2985.1198228168982
2,2,12,16, 0,20, 0.00,60.00,Tuesday
7,-12.8
718,19.697097706836534
719,-7.563421639082774
720,12.217647470972626
619,3107.2946250958166
633,1224.5988035608398
659,18.17911408673805
661,0.0
690,140.59774730376816
716,85.44000000000005
843,3268.9548647710126
844,3268.9548647710126
907,0.0
908,0.0
971,0.0
972,0.0
1195,3393.6910228774627
1197,3393.6910228774627
2,2,12,16, 0,21, 0.00,60.00,Tuesday
7,-13.3
718,19.701812716256864
719,-7.467710898297442
720,12.157388311497517
619,3051.198535702861
633,1215.6122262652455
659,20.308712973504726
661,0.0
690,140.59774730376816
716,85.44000000000005
843,3497.7769201116607
844,3497.7769201116607
907,0.0
908,0.0
971,0.0
972,0.0
1195,3771.2461315047462
1197,3771.2461315047462
2,2,12,16, 0,22, 0.00,60.00,Tuesday
7,-13.3
718,19.705629528476578
719,-7.8511082762150695
720,12.088010075496298
619,3051.1811588151077
633,1215.6396199331618
659,20.30667756742861
661,0.0
690,140.59774730376816
716,46.21471263849529
843,3842.9875157659626
844,3842.9875157659626
907,0.0
908,0.0
971,0.0
972,0.0
1195,3561.2380369410994
1197,3561.2380369410994
2,2,12,16, 0,23, 0.00,60.00,Tuesday
7,-13.3
718,18.933403954800887
719,-8.048053812717416
720,12.009441954539481
619,3051.169291342816
633,1215.6342639525974
659,20.31054518787065
661,0.0
690,140.59774730376816
716,0.0
843,3093.7191757332566
844,3093.7191757332566
907,0.0
908,0.0
971,0.0
972,0.0
1195,2097.3266289230774
1197,2097.3266289230774
2,2,12,16, 0,24, 0.00,60.00,Tuesday
7,-13.9
718,18.70416108686299
719,-8.070519409767034
720,11.883693514833057
619,3000.9168693852707
633,1188.9012868303557
659,22.69347918952298
661,0.0
690,140.59774730376816
716,0.0
843,3726.876567083127
844,3726.876567083127
907,0.0
908,0.0
971,0.0
972,0.0
1195,2866.7851363307345
1197,2866.7851363307345
2,3,12,17, 0, 1, 0.00,60.00,Wednesday
7,-13.9
718,18.628190498068307
719,-8.200187144534032
720,11.78785038419748
619,3005.7366967688904
633,1183.906060594528
659,22.69347918952298
661,0.0
690,140.59774730376816
716,0.0
843,4286.873293247474
844,4286.873293247474
907,0.0
908,0.0
971,0.0
972,0.0
1195,3506.7186981018995
1197,3506.7186981018995
2,3,12,17, 0, 2, 0.00,60.00,Wednesday
7,-15.0
718,18.60775452864708
719,-8.175043687587394
720,11.678440383032767
619,2920.0728631210773
633,1176.7643528205008
659,16.570088104511463
661,0.0
690,140.59774730376816
716,0.0
843,4857.266127644203
844,4857.266127644203
907,0.0
908,0.0
971,0.0
972,0.0
1195,4300.589376164495
1197,4300.589376164495
2,3,12,17, 0, 3, 0.00,60.00,Wednesday
7,-15.0
718,18.599242295967798
719,-8.367945599527395
720,11.579255071495265
619,2928.9697078877152
633,1179.5813155847693
659,13.815089172796648
661,0.0
690,140.59774730376816
716,0.0
843,4992.10354585196
844,4992.10354585196
907,0.0
908,0.0
971,0.0
972,0.0
1195,4432.619523810852
1197,4432.619523810852
2,3,12,17, 0, 4, 0.00,60.00,Wednesday
7,-13.3
718,18.601789621473312
719,-8.257130372970659
720,11.487530254419626
619,3074.5437410873215
633,1191.152393146023
659,20.320322583932178
661,0.0
690,140.59774730376816
716,0.0
843,5163.680183685365
844,5163.680183685365
907,0.0
908,0.0
971,0.0
972,0.0
1195,4529.749869548756
1197,4529.749869548756
2,3,12,17, 0, 5, 0.00,60.00,Wednesday
7,-12.8
718,18.599407811315736
719,-7.716558740355031
720,11.39074772540835
619,3117.4233735851544
633,1194.2264453000748
659,22.38044161422397
661,0.0
690,140.59774730376816
716,0.0
843,4956.575930719358
844,4956.575930719358
907,0.0
908,0.0
971,0.0
972,0.0
1195,4211.0184525098975
1197,4211.0184525098975
2,3,12,17, 0, 6, 0.00,60.00,Wednesday
7,-12.8
718,19.2733406355001
719,-6.603906357035001
720,11.293467691939071
619,3117.5795177509635
633,1194.0409218410534
659,22.38469937064816
661,0.0
690,140.59774730376816
716,81.32130048275681
843,6164.81338984598
844,6164.81338984598
907,0.0
908,0.0
971,0.0
972,0.0
1195,6624.876923826423
1197,6624.876923826423
2,3,12,17, 0, 7, 0.00,60.00,Wednesday
7,-12.8
718,19.541811088258886
719,-5.987243648591049
720,11.231719233395951
619,3103.870880052906
633,1208.5356530545182
659,22.38469937064816
661,0.0
690,140.59774730376816
716,85.44000000000005
843,5946.645296174136
844,5946.645296174136
907,0.0
908,0.0
971,0.0
972,0.0
1195,6538.205925128405
1197,6538.205925128405
2,3,12,17, 0, 8, 0.00,60.00,Wednesday
7,-11.7
718,19.638865373222085
719,-5.763278231920296
720,11.157915134825348
619,3198.6831533146806
633,1223.273600016132
659,25.366935220454813
661,0.0
690,140.59774730376816
716,80.22838089534996
843,5949.359621032612
844,5949.359621032612
907,0.0
908,0.0
971,0.0
972,0.0
1195,6418.84040914574
1197,6418.84040914574
2,3,12,17, 0, 9, 0.00,60.00,Wednesday
7,-11.1
718,19.69286605517789
719,-5.385519894527818
720,11.08680829796414
619,3264.8461565603384
633,1234.9945756706284
659,23.248312171789692
661,0.0
690,140.59774730376816
716,0.0
843,5526.971392862253
844,5526.971392862253
907,0.0
908,0.0
971,0.0
972,0.0
1195,4711.128259008559
1197,4711.128259008559
2,3,12,17, 0,10, 0.00,60.00,Wednesday
7,-10.0
718,19.713834927486552
719,-4.51739805025449
720,11.02118118609864
619,3366.3395506818883
633,1244.5919648346219
659,26.365123753594883
661,0.0
690,140.59774730376816
716,0.0
843,4977.129959180898
844,4977.129959180898
907,0.0
908,0.0
971,0.0
972,0.0
1195,3947.4289469534956
1197,3947.4289469534956
2,3,12,17, 0,11, 0.00,60.00,Wednesday
7,-8.9
718,19.713391724926776
719,-2.4103861557102397
720,10.960338662845093
619,3468.7085213287887
633,1252.7336937245332
659,29.829404026010362
661,0.0
690,140.59774730376816
716,0.0
843,4588.947762394677
844,4588.947762394677
907,0.0
908,0.0
971,0.0
972,0.0
1195,3317.8389175531142
1197,3317.8389175531142
2,3,12,17, 0,12, 0.00,60.00,Wednesday
7,-8.9
718,19.722038432425204
719,-0.20160625255892903
720,10.902166510439834
619,3467.7108072931956
633,1252.278388951022
659,30.120104035813053
661,0.0
690,140.59774730376816
716,0.0
843,4084.380159238681
844,4084.380159238681
907,0.0
908,0.0
971,0.0
972,0.0
1195,2606.4915458160995
1197,2606.4915458160995
2,3,12,17, 0,13, 0.00,60.00,Wednesday
7,-8.9
718,19.717562000079234
719,0.876515017021403
720,10.860077217314302
619,3451.5690484125
633,1246.5898028580766
659,34.512990917768875
661,0.0
690,140.59774730376816
716,0.0
843,3897.9884816938757
844,3897.9884816938757
907,0.0
908,0.0
971,0.0
972,0.0
1195,2269.63752300146
1197,2269.63752300146
2,3,12,17, 0,14, 0.00,60.00,Wednesday
7,-8.3
718,19.7201693415705
719,1.6464411577584686
720,10.833818787737735
619,3523.7824399083943
633,1256.1359293221815
659,32.16277098069161
661,0.0
690,140.59774730376816
716,0.0
843,3833.786905627754
844,3833.786905627754
907,0.0
908,0.0
971,0.0
972,0.0
1195,2072.6358662846264
1197,2072.6358662846264
2,3,12,17, 0,15, 0.00,60.00,Wednesday
7,-8.3
718,19.711900660777214
719,1.0772119179326654
720,10.81202900540842
619,3542.2432237769467
633,1262.7200735442038
659,27.19954300548763
661,0.0
690,140.59774730376816
716,74.41599634351955
843,3931.3821143973564
844,3931.3821143973564
907,0.0
908,0.0
971,0.0
972,0.0
1195,3078.162016030996
1197,3078.162016030996
2,3,12,17, 0,16, 0.00,60.00,Wednesday
7,-8.3
718,19.703684695440558
719,1.322564394683498
720,10.797046702582088
619,3556.3994299061383
633,1267.4925160474031
659,23.44368052065728
661,0.0
690,140.59774730376816
716,85.44000000000005
843,3676.666004468989
844,3676.666004468989
907,0.0
908,0.0
971,0.0
972,0.0
1195,2957.858047370221
1197,2957.858047370221
2,3,12,17, 0,17, 0.00,60.00,Wednesday
7,-9.4
718,19.71363547122423
719,-0.595621344436057
720,10.77491999836559
619,3421.4645814988567
633,1248.3681207424806
659,28.4992028015329
661,0.0
690,140.59774730376816
716,6.476479586209323
843,3804.961742912581
844,3804.961742912581
907,0.0
908,0.0
971,0.0
972,0.0
1195,2196.7833074402324
1197,2196.7833074402324
2,3,12,17, 0,18, 0.00,60.00,Wednesday
7,-10.0
718,19.71661520360007
719,-1.8021043202862141
720,10.75803477387933
619,3350.1690852567376
633,1238.6940946486548
659,30.92770649516496
661,0.0
690,140.59774730376816
716,0.0
843,3747.89315042809
844,3747.89315042809
907,0.0
908,0.0
971,0.0
972,0.0
1195,2226.0793378543526
1197,2226.0793378543526
2,3,12,17, 0,19, 0.00,60.00,Wednesday
7,-10.0
718,19.714850087300125
719,-3.0660752160464266
720,10.736555184109866
619,3350.6301901270913
633,1238.899303311274
659,30.790479911920748
661,0.0
690,140.59774730376816
716,0.0
843,3752.3787955657044
844,3752.3787955657044
907,0.0
908,0.0
971,0.0
972,0.0
1195,2292.106309425667
1197,2292.106309425667
2,3,12,17, 0,20, 0.00,60.00,Wednesday
7,-10.6
718,19.69845775096284
719,-3.753879971310529
720,10.704353862947478
619,3277.7699638362965
633,1227.930699680553
659,34.01116879055044
661,0.0
690,140.59774730376816
716,85.44000000000005
843,3398.7456025099564
844,3398.7456025099564
907,0.0
908,0.0
971,0.0
972,0.0
1195,3240.7078210256386
1197,3240.7078210256386
2,3,12,17, 0,21, 0.00,60.00,Wednesday
7,-10.6
718,19.705255330130587
719,-4.107094359713859
720,10.667801551483151
619,3295.739029405332
633,1234.1125865914207
659,28.936434020519012
661,0.0
690,140.59774730376816
716,85.44000000000005
843,3339.1488095898203
844,3339.1488095898203
907,0.0
908,0.0
971,0.0
972,0.0
1195,3167.3388063255443
1197,3167.3388063255443
2,3,12,17, 0,22, 0.00,60.00,Wednesday
7,-10.6
718,19.711133491589518
719,-4.784982539355818
720,10.62399441553259
619,3295.542915165105
633,1234.165442342589
659,28.968156974945913
661,0.0
690,140.59774730376816
716,31.46248535921289
843,3602.381225696312
844,3602.381225696312
907,0.0
908,0.0
971,0.0
972,0.0
1195,2706.6366339254264
1197,2706.6366339254264
2,3,12,17, 0,23, 0.00,60.00,Wednesday
7,-10.6
718,18.93545991981626
719,-5.10494179123883
720,10.57579663389128
619,3295.4728761071037
633,1234.2419270836092
659,28.968156974945913
661,0.0
690,140.59774730376816
716,0.0
843,2811.7809727731365
844,2811.7809727731365
907,0.0
908,0.0
971,0.0
972,0.0
1195,1381.0650218364021
1197,1381.0650218364021
2,3,12,17, 0,24, 0.00,60.00,Wednesday
7,-11.0
718,18.70693877629553
719,-5.121013710636067
720,10.482749224281607
619,3244.908282062247
633,1202.6211012573222
659,36.46692816402364
661,0.0
690,140.59774730376816
716,0.0
843,3342.4189883447943
844,3342.4189883447943
907,0.0
908,0.0
971,0.0
972,0.0
1195,2028.6992321242374
1197,2028.6992321242374
2,4,12,18, 0, 1, 0.00,60.00,Thursday
7,-10.6
718,18.632479877567857
719,-5.053851437380543
720,10.422613847805996
619,3298.4550774266627
633,1204.742614912996
659,34.117334054075926
661,0.0
690,140.59774730376816
716,0.0
843,3784.2923531053857
844,3784.2923531053857
907,0.0
908,0.0
971,0.0
972,0.0
1195,2479.2311378458335
1197,2479.2311378458335
2,4,12,18, 0, 2, 0.00,60.00,Thursday
7,-10.0
718,18.61400247858408
719,-4.39710633618313
720,10.360197786039658
619,3372.9652771988817
633,1213.511667701758
659,30.92770649516496
661,0.0
690,140.59774730376816
716,0.0
843,3954.5083363617923
844,3954.5083363617923
907,0.0
908,0.0
971,0.0
972,0.0
1195,2610.455418841761
1197,2610.455418841761
2,4,12,18, 0, 3, 0.00,60.00,Thursday
7,-10.0
718,18.604554546844284
719,-4.633505258225404
720,10.295420865310248
619,3358.337239816535
633,1207.5777443843585
659,35.169834939882115
661,0.0
690,140.59774730376816
716,0.0
843,4203.24701991123
844,4203.24701991123
907,0.0
908,0.0
971,0.0
972,0.0
1195,2876.1213872985068
1197,2876.1213872985068
2,4,12,18, 0, 4, 0.00,60.00,Thursday
7,-10.0
718,18.60521487620532
719,-4.709191616321457
720,10.23272180684375
619,3358.6131325373526
633,1207.2722478319904
659,35.169834939882115
661,0.0
690,140.59774730376816
716,0.0
843,4347.229343051626
844,4347.229343051626
907,0.0
908,0.0
971,0.0
972,0.0
1195,3075.79543668589
1197,3075.79543668589
2,4,12,18, 0, 5, 0.00,60.00,Thursday
7,-10.0
718,18.603475671094806
719,-3.558490031372586
720,10.173089772413668
619,3358.6615112425384
633,1207.2186764032838
659,35.169834939882115
661,0.0
690,140.59774730376816
716,0.0
843,4168.639138513619
844,4168.639138513619
907,0.0
908,0.0
971,0.0
972,0.0
1195,2852.65504622632
1197,2852.65504622632
2,4,12,18, 0, 6, 0.00,60.00,Thursday
7,-10.0
718,19.39686167856899
719,-3.7070625081013335
720,10.11450933534766
619,3358.774575535479
633,1207.0934745147033
659,35.169834939882115
661,0.0
690,140.59774730376816
716,0.0
843,5320.310595215182
844,5320.310595215182
907,0.0
908,0.0
971,0.0
972,0.0
1195,4188.565230323282
1197,4188.565230323282
2,4,12,18, 0, 7, 0.00,60.00,Thursday
7,-9.4
718,19.58699793089542
719,-3.385287140187357
720,10.101134040197142
619,3415.7252942135046
633,1235.6427207143881
659,32.094559527008066
661,0.0
690,140.59774730376816
716,85.44000000000005
843,5032.555478080347
844,5032.555478080347
907,0.0
908,0.0
971,0.0
972,0.0
1195,5054.9679946691995
1197,5054.9679946691995
2,4,12,18, 0, 8, 0.00,60.00,Thursday
7,-12.2
718,19.6526201281347
719,-4.352947251928028
720,10.032281902366966
619,3140.3146751645254
633,1213.7870911292132
659,27.949392770901984
661,0.0
690,140.59774730376816
716,85.44000000000005
843,5044.772468561685
844,5044.772468561685
907,0.0
908,0.0
971,0.0
972,0.0
1195,5411.380014297896
1197,5411.380014297896
2,4,12,18, 0, 9, 0.00,60.00,Thursday
7,-11.7
718,19.685271695617928
719,-5.016189838568468
720,9.994160130525295
619,3180.7958087966003
633,1217.7273402308426