Program Version,EnergyPlus, Version 22.2.0-c249759bad, YMD=2023.09.01 14:31
1,5,Environment Title[],Latitude[deg],Longitude[deg],Time Zone[],Elevation[m]
2,8,Day of Simulation[],Month[],Day of Month[],DST Indicator[1=yes 0=no],Hour[],StartMinute[],EndMinute[],DayType
3,5,Cumulative Day of Simulation[],Month[],Day of Month[],DST Indicator[1=yes 0=no],DayType  ! When Daily Report Variables Requested
4,2,Cumulative Days of Simulation[],Month[]  ! When Monthly Report Variables Requested
5,1,Cumulative Days of Simulation[] ! When Run Period Report Variables Requested
6,1,Calendar Year of Simulation[] ! When Annual Report Variables Requested
7,1,Environment,Site Outdoor Air Drybulb Temperature [C] !Hourly
545,1,LIVING,Zone Mean Air Temperature [C] !Hourly
546,1,ATTIC,Zone Mean Air Temperature [C] !Hourly
547,1,CRAWLSPACE,Zone Mean Air Temperature [C] !Hourly
548,1,FAN,Fan Electricity Rate [W] !Hourly
720,1,LIVING,Zone Predicted Sensible Load to Heating Setpoint Heat Transfer Rate [W] !Hourly
721,1,LIVING,Zone System Predicted Sensible Load to Heating Setpoint Heat Transfer Rate [W] !Hourly
784,1,ATTIC,Zone Predicted Sensible Load to Heating Setpoint Heat Transfer Rate [W] !Hourly
785,1,ATTIC,Zone System Predicted Sensible Load to Heating Setpoint Heat Transfer Rate [W] !Hourly
848,1,CRAWLSPACE,Zone Predicted Sensible Load to Heating Setpoint Heat Transfer Rate [W] !Hourly
849,1,CRAWLSPACE,Zone System Predicted Sensible Load to Heating Setpoint Heat Transfer Rate [W] !Hourly
1121,1,DX_HEATING_COIL,Heating Coil Heating Rate [W] !Hourly
1135,1,DX_HEATING_COIL,Heating Coil Electricity Rate [W] !Hourly
1161,1,DX_HEATING_COIL,Heating Coil Defrost Electricity Rate [W] !Hourly
1163,1,DX_HEATING_COIL,Heating Coil Crankcase Heater Electricity Rate [W] !Hourly
1166,1,HEATING_RESISTANCE_BACKUP,Heating Coil Heating Rate [W] !Hourly
1168,1,HEATING_RESISTANCE_BACKUP,Heating Coil Electricity Rate [W] !Hourly
End of Data Dictionary
1,EXTREME_WINTER,  32.32, -90.08,  -6.00,  91.10
2,1,12, 8, 0, 1, 0.00,60.00,Monday
7,-1.7
545,19.37828110950442
546,-1.650068806984513
547,20.131307368286663
548,0.0
720,-610.1998142441025
721,-610.1998142441025
784,0.0
785,0.0
848,0.0
849,0.0
1121,0.0
1135,0.0
1161,0.0
1163,200.0
1166,0.0
1168,0.0
2,1,12, 8, 0, 2, 0.00,60.00,Monday
7,-2.2
545,19.805305851039876
546,-1.644201039889268
547,19.807898880332477
548,73.96716796002134
720,91.43723511432654
721,91.43723511432654
784,0.0
785,0.0
848,0.0
849,0.0
1121,1970.3614514672327
1135,670.527583001609
1161,43.34070357805574
1163,103.18778726368446
1166,0.0
1168,0.0
2,1,12, 8, 0, 3, 0.00,60.00,Monday
7,-2.8
545,19.282485832586993
546,-2.7922627241689786
547,19.714660219844102
548,58.66980550793148
720,645.8575681740713
721,645.8575681740713
784,0.0
785,0.0
848,0.0
849,0.0
1121,1522.8888765454924
1135,536.2222042483492
1161,32.59555457025651
1163,123.18798126896479
1166,0.0
1168,0.0
2,1,12, 8, 0, 4, 0.00,60.00,Monday
7,-2.8
545,18.850635146060544
546,-3.345625222169704
547,19.53560477603766
548,63.356017979106824
720,1011.8977769932008
721,1011.8977769932008
784,0.0
785,0.0
848,0.0
849,0.0
1121,1655.0340014643994
1135,572.9931199247143
1161,35.19783391576489
1163,117.05566253820842
1166,0.0
1168,0.0
2,1,12, 8, 0, 5, 0.00,60.00,Monday
7,-3.3
545,18.612997774095536
546,-3.7365062996145704
547,19.363817044173928
548,76.30738679405206
720,1343.9159067731398
721,1343.9159067731398
784,0.0
785,0.0
848,0.0
849,0.0
1121,2011.7860923984038
1135,688.1158923482426
1161,36.776034385364106
1163,100.21110248514924
1166,0.0
1168,0.0
2,1,12, 8, 0, 6, 0.00,60.00,Monday
7,-3.3
545,19.14675966522945
546,-3.16480208538412
547,19.139694398650747
548,129.56138795495966
720,2486.587435067422
721,2486.587435067422
784,0.0
785,0.0
848,0.0
849,0.0
1121,3539.4695458573447
1135,1155.3411951268092
1161,68.71706972255079
1163,30.36225460821127
1166,0.0
1168,0.0
2,1,12, 8, 0, 7, 0.00,60.00,Monday
7,-3.3
545,19.432572256473247
546,-2.9107027807367323
547,19.005647373566546
548,148.55152247896774
720,2785.496815471737
721,2785.496815471737
784,0.0
785,0.0
848,0.0
849,0.0
1121,4108.965475730321
1135,1338.4508363980979
1161,78.79191092685598
1163,5.491092988847868
1166,0.0
1168,0.0
2,1,12, 8, 0, 8, 0.00,60.00,Monday
7,-1.1
545,19.75583215701026
546,-1.6581610111952962
547,18.92563791682742
548,112.85697069052247
720,2012.0974471254267
721,2012.0974471254267
784,0.0
785,0.0
848,0.0
849,0.0
1121,3164.994451181548
1135,1022.7913232219043
1161,72.65853548642015
1163,52.37773976609239
1166,0.0
1168,0.0
2,1,12, 8, 0, 9, 0.00,60.00,Monday
7,2.2
545,19.977500573600324
546,2.1578825260685677
547,18.85360544147472
548,64.96675304692744
720,1141.5635843967539
721,1141.5635843967539
784,0.0
785,0.0
848,0.0
849,0.0
1121,1895.3391488089471
1135,600.8370255591227
1161,46.16960527916296
1163,115.4024726149888
1166,0.0
1168,0.0
2,1,12, 8, 0,10, 0.00,60.00,Monday
7,2.2
545,19.955194760836083
546,8.869818632323303
547,18.77792574812274
548,15.526131757595135
720,155.100780343726
721,155.100780343726
784,0.0
785,0.0
848,0.0
849,0.0
1121,436.2552073039558
1135,144.24427256650603
1161,11.033970564987055
1163,179.7822263934715
1166,0.0
1168,0.0
2,1,12, 8, 0,11, 0.00,60.00,Monday
7,6.7
545,20.80847772315204
546,18.063400178313923
547,18.71719097682081
548,0.0
720,-744.1297855442808
721,-744.1297855442808
784,0.0
785,0.0
848,0.0
849,0.0
1121,0.0
1135,0.0
1161,0.0
1163,200.0
1166,0.0
1168,0.0
2,1,12, 8, 0,12, 0.00,60.00,Monday
7,7.8
545,21.38774627550954
546,20.71383161613152
547,18.68594771823021
548,0.0
720,-1408.1072921971245
721,-1408.1072921971245
784,0.0
785,0.0
848,0.0
849,0.0
1121,0.0
1135,0.0
1161,0.0
1163,200.0
1166,0.0
1168,0.0
2,1,12, 8, 0,13, 0.00,60.00,Monday
7,7.8
545,22.1511756691832
546,22.900063376485395
547,18.688933955359676
548,0.0
720,-1886.5554074717074
721,-1886.5554074717074
784,0.0
785,0.0
848,0.0
849,0.0
1121,0.0
1135,0.0
1161,0.0
1163,200.0
1166,0.0
1168,0.0
2,1,12, 8, 0,14, 0.00,60.00,Monday
7,10.0
545,23.12893371843059
546,26.215138463149984
547,18.71602676652115
548,0.0
720,-2336.618555890931
721,-2336.618555890931
784,0.0
785,0.0
848,0.0
849,0.0
1121,0.0
1135,0.0
1161,0.0
1163,0.0
1166,0.0
1168,0.0
2,1,12, 8, 0,15, 0.00,60.00,Monday
7,10.6
545,23.163559563533102
546,22.730386715639188
547,18.755277228873595
548,0.0
720,-2378.8134841562223
721,-2378.8134841562223
784,0.0
785,0.0
848,0.0
849,0.0
1121,0.0
1135,0.0
1161,0.0
1163,0.0
1166,0.0
1168,0.0
2,1,12, 8, 0,16, 0.00,60.00,Monday
7,10.6
545,23.5838980844097
546,20.128949519502417
547,18.807579081686203
548,0.0
720,-2796.817065852347
721,-2796.817065852347
784,0.0
785,0.0
848,0.0
849,0.0
1121,0.0
1135,0.0
1161,0.0
1163,0.0
1166,0.0
1168,0.0
2,1,12, 8, 0,17, 0.00,60.00,Monday
7,6.1
545,23.602069231097005
546,15.890335380816525
547,18.866342305605865
548,0.0
720,-2780.3970422618895
721,-2780.3970422618895
784,0.0
785,0.0
848,0.0
849,0.0
1121,0.0
1135,0.0
1161,0.0
1163,200.0
1166,0.0
1168,0.0
2,1,12, 8, 0,18, 0.00,60.00,Monday
7,4.4
545,23.199004717093477
546,12.107022130475952
547,18.917113712908453
548,0.0
720,-2660.0346710351077
721,-2660.0346710351077
784,0.0
785,0.0
848,0.0
849,0.0
1121,0.0
1135,0.0
1161,0.0
1163,200.0
1166,0.0
1168,0.0
2,1,12, 8, 0,19, 0.00,60.00,Monday
7,4.4
545,23.149323834584536
546,8.271062516996215
547,18.948311866978194
548,0.0
720,-2689.3198795020307
721,-2689.3198795020307
784,0.0
785,0.0
848,0.0
849,0.0
1121,0.0
1135,0.0
1161,0.0
1163,200.0
1166,0.0
1168,0.0
2,1,12, 8, 0,20, 0.00,60.00,Monday
7,2.8
545,22.865948784788706
546,5.550355322742318
547,18.952124589339892
548,0.0
720,-2393.4147781416486
721,-2393.4147781416486
784,0.0
785,0.0
848,0.0
849,0.0
1121,0.0
1135,0.0
1161,0.0
1163,200.0
1166,0.0
1168,0.0
2,1,12, 8, 0,21, 0.00,60.00,Monday
7,2.2
545,22.549998073206194
546,3.333249383463638
547,18.932708299411427
548,0.0
720,-2198.900403936701
721,-2198.900403936701
784,0.0
785,0.0
848,0.0
849,0.0
1121,0.0
1135,0.0
1161,0.0
1163,200.0
1166,0.0
1168,0.0
2,1,12, 8, 0,22, 0.00,60.00,Monday
7,2.2
545,22.0713724378287
546,1.9663426084564266
547,18.894905170220138
548,0.0
720,-1804.5024955127064
721,-1804.5024955127064
784,0.0
785,0.0
848,0.0
849,0.0
1121,0.0
1135,0.0
1161,0.0
1163,200.0
1166,0.0
1168,0.0
2,1,12, 8, 0,23, 0.00,60.00,Monday
7,1.1
545,21.223773188116834
546,0.9541848760708466
547,18.84203340975169
548,0.0
720,-1983.993959155172
721,-1983.993959155172
784,0.0
785,0.0
848,0.0
849,0.0
1121,0.0
1135,0.0
1161,0.0
1163,200.0
1166,0.0
1168,0.0
2,1,12, 8, 0,24, 0.00,60.00,Monday
7,0.6
545,20.320552211906453
546,-0.1180326309153441
547,18.77696068623193
548,0.0
720,-1341.3625389558674
721,-1341.3625389558674
784,0.0
785,0.0
848,0.0
849,0.0
1121,0.0
1135,0.0
1161,0.0
1163,200.0
1166,0.0
1168,0.0
2,2,12, 9, 0, 1, 0.00,60.00,Tuesday
7,0.6
545,19.465064489783174
546,-1.3730686675604404
547,18.701086958502987
548,0.0
720,-669.2479781556958
721,-669.2479781556958
784,0.0
785,0.0
848,0.0
849,0.0
1121,0.0
1135,0.0
1161,0.0
1163,200.0
1166,0.0
1168,0.0
2,2,12, 9, 0, 2, 0.00,60.00,Tuesday
7,0.6
545,18.69868007478816
546,-2.411695301288189
547,18.616924706231455
548,0.0
720,-66.96388485390708
721,-66.96388485390708
784,0.0
785,0.0
848,0.0
849,0.0
1121,0.0
1135,0.0
1161,0.0
1163,200.0
1166,0.0
1168,0.0
2,2,12, 9, 0, 3, 0.00,60.00,Tuesday
7,-1.1
545,19.536539073531586
546,-1.3050588860482648
547,18.421122580848753
548,92.93488615910994
720,640.3374557408097
721,640.3374557408097
784,0.0
785,0.0
848,0.0
849,0.0
1121,2574.89346129363
1135,829.4964979855481
1161,60.105967305666844
1163,78.43505795896377
1166,0.0
1168,0.0
2,2,12, 9, 0, 4, 0.00,60.00,Tuesday
7,-1.1
545,19.146206472258815
546,-2.307907843897072
547,18.383283406512074
548,71.340366804128
720,960.4540247789482
721,960.4540247789482
784,0.0
785,0.0
848,0.0
849,0.0
1121,1935.9489420691957
1135,647.4042264370213
1161,46.14197001571777
1163,106.67738725350956
1166,0.0
1168,0.0
2,2,12, 9, 0, 5, 0.00,60.00,Tuesday
7,-1.1
545,18.823999263750995
546,-2.6784222710683383
547,18.26555540513451
548,67.13006607951161
720,1149.4940335341562
721,1149.4940335341562
784,0.0
785,0.0
848,0.0
849,0.0
1121,1851.5998946556772
1135,613.8270600375992
1161,35.7117241741296
1163,112.38509108467363
1166,0.0
1168,0.0
2,2,12, 9, 0, 6, 0.00,60.00,Tuesday
7,-2.8
545,19.208680144485985
546,-2.3011564842665946
547,18.098463975726656
548,120.58480884755332
720,2310.034086544567
721,2310.034086544567
784,0.0
785,0.0
848,0.0
849,0.0
1121,3300.977830847551
1135,1078.959036269528
1161,67.1060948550339
1163,42.13487751902703
1166,0.0
1168,0.0
2,2,12, 9, 0, 7, 0.00,60.00,Tuesday
7,-2.8
545,19.469604733222805
546,-2.3317277838450186
547,18.006947539170724
548,139.34968451196838
720,2634.1668601337806
721,2634.1668601337806
784,0.0
785,0.0
848,0.0
849,0.0
1121,3864.348909940396
1135,1256.1039266281912
1161,77.55078455854158
1163,17.564050936405383
1166,0.0
1168,0.0
2,2,12, 9, 0, 8, 0.00,60.00,Tuesday
7,-0.6
545,19.768603736600724
546,-1.225923276162347
547,17.952856461997268
548,105.68151392497944
720,1903.7350760922036
721,1903.7350760922036
784,0.0
785,0.0
848,0.0
849,0.0
1121,2973.885667094593
1135,956.9492388807737
1161,71.21548847622053
1163,61.8040602879258
1166,0.0
1168,0.0
2,2,12, 9, 0, 9, 0.00,60.00,Tuesday
7,4.4
545,20.028216486995444
546,2.6705040586027637
547,17.905644401338726
548,51.80519769847687
720,913.2149469206688
721,913.2149469206688
784,0.0
785,0.0
848,0.0
849,0.0
1121,1552.894987785197
1135,477.6600362337183
1161,43.3727460585253
1163,132.72002146668055
1166,0.0
1168,0.0
2,2,12, 9, 0,10, 0.00,60.00,Tuesday
7,4.4
545,19.876563669180488
546,9.44031321788674
547,17.83999605789528
548,0.0
720,-102.81803853226666
721,-102.81803853226666
784,0.0
785,0.0
848,0.0
849,0.0
1121,0.0
1135,0.0
1161,0.0
1163,200.0
1166,0.0
1168,0.0
2,2,12, 9, 0,11, 0.00,60.00,Tuesday
7,10.0
545,20.726213645672704
546,14.915534784316726
547,17.80308088522457
548,0.0
720,-778.9246736227778
721,-778.9246736227778
784,0.0
785,0.0
848,0.0
849,0.0
1121,0.0
1135,0.0
1161,0.0
1163,0.0
1166,0.0
1168,0.0
2,2,12, 9, 0,12, 0.00,60.00,Tuesday
7,10.0
545,21.22192231250375
546,18.203580856304313
547,17.79972801956304
548,0.0
720,-1208.8364112321324
721,-1208.8364112321324
784,0.0
785,0.0
848,0.0
849,0.0
1121,0.0
1135,0.0
1161,0.0
1163,0.0
1166,0.0
1168,0.0
2,2,12, 9, 0,13, 0.00,60.00,Tuesday
7,10.0
545,21.584509610279905
546,19.431934573332324
547,17.823472088186474
548,0.0
720,-1325.942368720076
721,-1325.942368720076
784,0.0
785,0.0
848,0.0
849,0.0
1121,0.0
1135,0.0
1161,0.0
1163,0.0
1166,0.0
1168,0.0
2,2,12, 9, 0,14, 0.00,60.00,Tuesday
7,10.6
545,22.216088367573256
546,20.88421981707468
547,17.864334272406804
548,0.0
720,-1677.0013234555481
721,-1677.0013234555481
784,0.0
785,0.0
848,0.0
849,0.0
1121,0.0
1135,0.0
1161,0.0
1163,0.0
1166,0.0
1168,0.0
2,2,12, 9, 0,15, 0.00,60.00,Tuesday
7,10.6
545,22.586418524946843
546,20.77458382357344
547,17.912653311800092
548,0.0
720,-1931.840908069793
721,-1931.840908069793
784,0.0
785,0.0
848,0.0
849,0.0
1121,0.0
1135,0.0
1161,0.0
1163,0.0
1166,0.0
1168,0.0
2,2,12, 9, 0,16, 0.00,60.00,Tuesday
7,10.6
545,23.083816825171763
546,19.542960517872018
547,17.970734565500305
548,0.0
720,-2283.1489694478896
721,-2283.1489694478896
784,0.0
785,0.0
848,0.0
849,0.0
1121,0.0
1135,0.0
1161,0.0
1163,0.0
1166,0.0
1168,0.0
2,2,12, 9, 0,17, 0.00,60.00,Tuesday
7,8.3
545,23.228012586018902
546,16.26553617485296
547,18.035582448640685
548,0.0
720,-2388.7057317051804
721,-2388.7057317051804
784,0.0
785,0.0
848,0.0
849,0.0
1121,0.0
1135,0.0
1161,0.0
1163,200.0
1166,0.0
1168,0.0
2,2,12, 9, 0,18, 0.00,60.00,Tuesday
7,7.2
545,22.81474236869424
546,12.214544110300727
547,18.09585016523944
548,0.0
720,-2185.0826281734553
721,-2185.0826281734553
784,0.0
785,0.0
848,0.0
849,0.0
1121,0.0
1135,0.0
1161,0.0
1163,200.0
1166,0.0
1168,0.0
2,2,12, 9, 0,19, 0.00,60.00,Tuesday
7,7.2
545,22.8348130443692
546,9.634152274979087
547,18.13996204322455
548,0.0
720,-2341.6203776023267
721,-2341.6203776023267
784,0.0
785,0.0
848,0.0
849,0.0
1121,0.0
1135,0.0
1161,0.0
1163,200.0
1166,0.0
1168,0.0
2,2,12, 9, 0,20, 0.00,60.00,Tuesday
7,3.9
545,22.408995211040114
546,7.152160344520291
547,18.159439972560264
548,0.0
720,-1952.1124117249256
721,-1952.1124117249256
784,0.0
785,0.0
848,0.0
849,0.0
1121,0.0
1135,0.0
1161,0.0
1163,200.0
1166,0.0
1168,0.0
2,2,12, 9, 0,21, 0.00,60.00,Tuesday
7,3.3
545,22.103718002503154
546,5.314344999516575
547,18.15702331715628
548,0.0
720,-1887.4867778064472
721,-1887.4867778064472
784,0.0
785,0.0
848,0.0
849,0.0
1121,0.0
1135,0.0
1161,0.0
1163,200.0
1166,0.0
1168,0.0
2,2,12, 9, 0,22, 0.00,60.00,Tuesday
7,3.3
545,21.62154720472406
546,4.088129306575439
547,18.13499926249376
548,0.0
720,-1486.0156971656434
721,-1486.0156971656434
784,0.0
785,0.0
848,0.0
849,0.0
1121,0.0
1135,0.0
1161,0.0
1163,200.0
1166,0.0
1168,0.0
2,2,12, 9, 0,23, 0.00,60.00,Tuesday
7,2.8
545,20.950159587127413
546,2.912688297417345
547,18.096890531355925
548,0.0
720,-1811.4850153846091
721,-1811.4850153846091
784,0.0
785,0.0
848,0.0
849,0.0
1121,0.0
1135,0.0
1161,0.0
1163,200.0
1166,0.0
1168,0.0
2,2,12, 9, 0,24, 0.00,60.00,Tuesday
7,3.3
545,20.21859890424221
546,2.163590820534902
547,18.045946537973368
548,0.0
720,-1227.2582221898392
721,-1227.2582221898392
784,0.0
785,0.0
848,0.0
849,0.0
1121,0.0
1135,0.0
1161,0.0
1163,200.0
1166,0.0
1168,0.0
2,3,12,10, 0, 1, 0.00,60.00,Wednesday
7,3.3
545,19.454053210467983
546,1.6322092649841655
547,17.984668672176205
548,0.0
720,-625.6097626025439
721,-625.6097626025439
784,0.0
785,0.0
848,0.0
849,0.0
1121,0.0
1135,0.0
1161,0.0
1163,200.0
1166,0.0
1168,0.0
2,3,12,10, 0, 2, 0.00,60.00,Wednesday
7,1.7
545,18.79639668710947
546,1.5349854356406694
547,17.90898099507729
548,13.526076155190864
720,138.4406542835277
721,138.4406542835277
784,0.0
785,0.0
848,0.0
849,0.0
1121,377.8903165338149
1135,124.53320733362958
1161,9.076941644330285
1163,182.38114636321882
1166,0.0
1168,0.0
2,3,12,10, 0, 3, 0.00,60.00,Wednesday
7,2.2
545,18.5804207286135
546,1.8440321680416412
547,17.819358306556843
548,30.005836753227893
720,622.9142005336817
721,622.9142005336817
784,0.0
785,0.0
848,0.0
849,0.0
1121,857.0592199211683
1135,272.13087205323643
1161,21.32144158678486
1163,160.92879733630122
1166,0.0
1168,0.0
2,3,12,10, 0, 4, 0.00,60.00,Wednesday
7,2.2
545,18.543865637920273
546,2.042932633567677
547,17.72640865645753
548,42.329230972908434
720,914.6069972218984
721,914.6069972218984
784,0.0
785,0.0
848,0.0
849,0.0
1121,1221.3381839525832
1135,382.22563282598105
1161,30.077924392045702
1163,144.8826818373571
1166,0.0
1168,0.0
2,3,12,10, 0, 5, 0.00,60.00,Wednesday
7,3.3
545,18.455647695076177
546,3.116714125622897
547,17.63322306216129
548,55.842863302569675
720,1262.9350084767975
721,1262.9350084767975
784,0.0
785,0.0
848,0.0
849,0.0
1121,1676.4943492975729
1135,508.5396871876806
1161,39.35927045099595
1163,127.41775968042357
1166,0.0
1168,0.0
2,3,12,10, 0, 6, 0.00,60.00,Wednesday
7,1.7
545,19.338343707633495
546,2.9478262119292857
547,17.51139557677872
548,102.41950086803767
720,2340.5115923815756
721,2340.5115923815756
784,0.0
785,0.0
848,0.0
849,0.0
1121,3041.5085359449827
1135,915.1666048728154
1161,75.54107986017816
1163,66.48313245925578
1166,0.0
1168,0.0
2,3,12,10, 0, 7, 0.00,60.00,Wednesday
7,1.7
545,19.59081402112697
546,2.8250173200707027
547,17.460882101915054
548,106.51446593998662
720,2323.3690910995083
721,2323.3690910995083
784,0.0
785,0.0
848,0.0
849,0.0
1121,3159.9653694455374
1135,968.2328705584241
1161,78.56416889743453
1163,61.139902268499526
1166,0.0
1168,0.0
2,3,12,10, 0, 8, 0.00,60.00,Wednesday
7,2.2
545,19.724371033245276
546,3.4064408557442656
547,17.389205989035418
548,87.26315679844116
720,1814.533322393785
721,1814.533322393785
784,0.0
785,0.0
848,0.0
849,0.0
1121,2565.029906630173
1135,795.4051285079715
1161,67.85546603327711
1163,86.28207954355757
1166,0.0
1168,0.0
2,3,12,10, 0, 9, 0.00,60.00,Wednesday
7,3.9
545,19.78598854581815
546,5.721933255968594
547,17.328665192720237
548,55.353380497050175
720,1146.431501830093
721,1146.431501830093
784,0.0
785,0.0
848,0.0
849,0.0
1121,1671.4087628263094
1135,516.063195285192
1161,40.4079185493927
1163,128.10464637080594
1166,0.0
1168,0.0
2,3,12,10, 0,10, 0.00,60.00,Wednesday
7,3.9
545,19.855740308854763
546,8.084849940015761
547,17.27437246396464
548,22.888304552773977
720,425.940387574703
721,425.940387574703
784,0.0
785,0.0
848,0.0
849,0.0
1121,674.6155964737009
1135,213.6647038647095
1161,16.708466774051356
1163,170.27164054853017
1166,0.0
1168,0.0
2,3,12,10, 0,11, 0.00,60.00,Wednesday
7,7.8
545,20.602402692121387
546,13.086812878232884
547,17.249441574227305
548,0.0
720,-347.5381190027492
721,-347.5381190027492
784,0.0
785,0.0
848,0.0
849,0.0
1121,0.0
1135,0.0
1161,0.0
1163,200.0
1166,0.0
1168,0.0
2,3,12,10, 0,12, 0.00,60.00,Wednesday
7,8.9
545,21.086366729885302
546,16.092480034229048
547,17.252890901666913
548,0.0
720,-1039.6947919854829
721,-1039.6947919854829
784,0.0
785,0.0
848,0.0
849,0.0
1121,0.0
1135,0.0
1161,0.0
1163,200.0
1166,0.0
1168,0.0
2,3,12,10, 0,13, 0.00,60.00,Wednesday
7,8.9
545,21.735324771573428
546,17.926137142128095
547,17.283937390485683
548,0.0
720,-1555.5965120393375
721,-1555.5965120393375
784,0.0
785,0.0
848,0.0
849,0.0
1121,0.0
1135,0.0
1161,0.0
1163,200.0
1166,0.0
1168,0.0
2,3,12,10, 0,14, 0.00,60.00,Wednesday
7,11.1
545,22.928271850124744
546,19.762600678779048
547,17.338362697345435
548,0.0
720,-2531.7652209468706
721,-2531.7652209468706
784,0.0
785,0.0
848,0.0
849,0.0
1121,0.0
1135,0.0
1161,0.0
1163,0.0
1166,0.0
1168,0.0
2,3,12,10, 0,15, 0.00,60.00,Wednesday
7,11.1
545,23.352915423629188
546,19.639054019688647
547,17.419307759968998
548,7.966017861641524
720,-3107.209657638634
721,-3107.209657638634
784,0.0
785,0.0
848,0.0
849,0.0
1121,0.0
1135,0.0
1161,0.0
1163,0.0
1166,0.0
1168,0.0
2,3,12,10, 0,16, 0.00,60.00,Wednesday
7,11.1
545,23.32996638494098
546,18.0751800410552
547,17.53635441283497
548,22.108621080802337
720,-3972.6629794173896
721,-3972.6629794173896
784,0.0
785,0.0
848,0.0
849,0.0
1121,0.0
1135,0.0
1161,0.0
1163,0.0
1166,0.0
1168,0.0
2,3,12,10, 0,17, 0.00,60.00,Wednesday
7,6.7
545,23.181768240566825
546,14.40825439307502
547,17.634660684473396
548,18.79628206156454
720,-4229.322395539522
721,-4229.322395539522
784,0.0
785,0.0
848,0.0
849,0.0
1121,0.0
1135,0.0
1161,0.0
1163,175.70434043069568
1166,0.0
1168,0.0
2,3,12,10, 0,18, 0.00,60.00,Wednesday
7,6.1
545,23.144732284802366
546,10.764025510731953
547,17.707131140252695
548,0.0
720,-3375.494674963111
721,-3375.494674963111
784,0.0
785,0.0
848,0.0
849,0.0
1121,0.0
1135,0.0
1161,0.0
1163,200.0
1166,0.0
1168,0.0
2,3,12,10, 0,19, 0.00,60.00,Wednesday
7,6.1
545,22.944197296391692
546,8.731494684762097
547,17.7779283579355
548,0.0
720,-2734.242521793509
721,-2734.242521793509
784,0.0
785,0.0
848,0.0
849,0.0
1121,0.0
1135,0.0
1161,0.0
1163,200.0
1166,0.0
1168,0.0
2,3,12,10, 0,20, 0.00,60.00,Wednesday
7,2.8
545,22.83495876418169
546,6.303775777479708
547,17.812759054359397
548,0.0
720,-2596.1475138143105
721,-2596.1475138143105
784,0.0
785,0.0
848,0.0
849,0.0
1121,0.0
1135,0.0
1161,0.0
1163,200.0
1166,0.0
1168,0.0
2,3,12,10, 0,21, 0.00,60.00,Wednesday
7,1.1
545,22.31472149678642
546,4.101526365263785
547,17.81643458859988
548,0.0
720,-2053.4588897603207
721,-2053.4588897603207
784,0.0
785,0.0
848,0.0
849,0.0
1121,0.0
1135,0.0
1161,0.0
1163,200.0
1166,0.0
1168,0.0
2,3,12,10, 0,22, 0.00,60.00,Wednesday
7,1.1
545,21.765805195868044
546,2.5302448075593795
547,17.79615728340143
548,0.0
720,-1682.4594224572156
721,-1682.4594224572156
784,0.0
785,0.0
848,0.0
849,0.0
1121,0.0
1135,0.0
1161,0.0
1163,200.0
1166,0.0
1168,0.0
2,3,12,10, 0,23, 0.00,60.00,Wednesday
7,0.6
545,20.851334744094252
546,1.4814611613895787
547,17.755235452127486
548,0.0
720,-1820.7185877461561
721,-1820.7185877461561
784,0.0
785,0.0
848,0.0
849,0.0
1121,0.0
1135,0.0
1161,0.0
1163,200.0
1166,0.0
1168,0.0
2,3,12,10, 0,24, 0.00,60.00,Wednesday
7,1.1
545,20.0832626224992
546,0.6467118217568919
547,17.69975304081807
548,0.0
720,-1219.8709941610123
721,-1219.8709941610123
784,0.0
785,0.0
848,0.0
849,0.0
1121,0.0
1135,0.0
1161,0.0
1163,200.0
1166,0.0
1168,0.0
2,4,12,11, 0, 1, 0.00,60.00,Thursday
7,1.1
545,19.22076141932129
546,0.03672936344545011
547,17.630753665224198
548,0.0
720,-481.89253927881146
721,-481.89253927881146
784,0.0
785,0.0
848,0.0
849,0.0
1121,0.0
1135,0.0
1161,0.0
1163,200.0
1166,0.0
1168,0.0
2,4,12,11, 0, 2, 0.00,60.00,Thursday
7,-0.6
545,18.555181481362446
546,-1.3879388045694234
547,17.54774260176828
548,10.068666807919483
720,238.1123900791954
721,238.1123900791954
784,0.0
785,0.0
848,0.0
849,0.0
1121,275.26139809619053
1135,94.13185290845291
1161,4.033019791591793
1163,186.89853774112106
1166,0.0
1168,0.0
2,4,12,11, 0, 3, 0.00,60.00,Thursday
7,-1.7
545,18.32994398284633
546,-1.6053280528633367
547,17.433696811074014
548,40.90206511203448
720,842.5076186714086
721,842.5076186714086
784,0.0
785,0.0
848,0.0
849,0.0
1121,1103.818452103717
1135,371.3943004213348
1161,18.761319286081914
1163,146.65409922707923
1166,0.0
1168,0.0
2,4,12,11, 0, 4, 0.00,60.00,Thursday
7,-1.7
545,18.406391266155428
546,-1.626627040942072
547,17.32965517060443
548,61.07612661068505
720,1221.679789559451
721,1221.679789559451
784,0.0
785,0.0
848,0.0
849,0.0
1121,1675.2044416910944
1135,551.9979416116769
1161,28.014635473049395
1163,120.34323698954852
1166,0.0
1168,0.0
2,4,12,11, 0, 5, 0.00,60.00,Thursday
7,-1.1
545,18.374409224615796
546,-0.6338846919717923
547,17.22203835847516
548,85.85499057195541
720,1767.6328203855119
721,1767.6328203855119
784,0.0
785,0.0
848,0.0
849,0.0
1121,2450.1761303626695
1135,783.6896480384469
1161,36.6036561326069
1163,88.17596936377024
1166,0.0
1168,0.0
2,4,12,11, 0, 6, 0.00,60.00,Thursday
7,0.0
545,19.171686397808674
546,0.6374408618271354
547,17.105575687751497
548,129.4109628208368
720,2895.181429545766
721,2895.181429545766
784,0.0
785,0.0
848,0.0
849,0.0
1121,3946.9788412396674
1135,1192.8687983196453
1161,52.881694979905525
1163,31.69370598577459
1166,0.0
1168,0.0
2,4,12,11, 0, 7, 0.00,60.00,Thursday
7,0.0
545,19.51565622747454
546,1.261872409030339
547,17.04655781857445
548,137.19830771571856
720,2985.3981678022046
721,2985.3981678022046
784,0.0
785,0.0
848,0.0
849,0.0
1121,4194.007203229856
1135,1284.4745630190364
1161,56.065207321572316
1163,21.56155790734997
1166,0.0
1168,0.0
2,4,12,11, 0, 8, 0.00,60.00,Thursday
7,0.6
545,19.73811777614958
546,1.7455367792574012
547,16.974328967640542
548,115.38993143275417
720,2475.4182906315527
721,2475.4182906315527
784,0.0
785,0.0
848,0.0
849,0.0
1121,3562.896748000898
1135,1105.5609197613044
1161,37.26241314215416
1163,50.19669884222808
1166,0.0
1168,0.0
2,4,12,11, 0, 9, 0.00,60.00,Thursday
7,1.7
545,19.81943114976048
546,3.211262335066711
547,16.904392454731045
548,93.07260963737386
720,2012.567412619892
721,2012.567412619892
784,0.0
785,0.0
848,0.0
849,0.0
1121,2910.9058098837245
1135,905.2285500625878
1161,28.964684862463244
1163,79.285402326575
1166,0.0
1168,0.0
2,4,12,11, 0,10, 0.00,60.00,Thursday
7,1.7
545,19.861103127195996
546,6.344604364906875
547,16.83009919662691
548,59.84490827923537
720,1230.0714423887293
721,1230.0714423887293
784,0.0
785,0.0
848,0.0
849,0.0
1121,1824.5863063085583
1135,583.0374344343123
1161,18.624076095215234
1163,122.38141503874225
1166,0.0
1168,0.0
2,4,12,11, 0,11, 0.00,60.00,Thursday
7,5.0
545,19.973525066443326
546,10.038813262010239
547,16.77858367667651
548,26.19376256527459
720,590.835010050263
721,590.835010050263
784,0.0
785,0.0
848,0.0
849,0.0
1121,879.1292018423972
1135,272.0409285589214
1161,1.9439179276711818
1163,166.1326500219796
1166,0.0
1168,0.0
2,4,12,11, 0,12, 0.00,60.00,Thursday
7,6.7
545,19.710149848864166
546,12.765499348160757
547,16.741217953986236
548,2.468669217402822
720,29.51135246641934
721,29.51135246641934
784,0.0
785,0.0
848,0.0
849,0.0
1121,98.19245019859272
1135,27.696799003800542
1161,0.0
1163,196.80905262547185
1166,0.0
1168,0.0
2,4,12,11, 0,13, 0.00,60.00,Thursday
7,6.7
545,20.011318288449328
546,14.565252312677215
547,16.737173280298716
548,0.0
720,-228.55096103924734
721,-228.55096103924734
784,0.0
785,0.0
848,0.0
849,0.0
1121,0.0
1135,0.0
1161,0.0
1163,200.0
1166,0.0
1168,0.0
2,4,12,11, 0,14, 0.00,60.00,Thursday
7,7.2
545,20.137446768953883
546,15.32087103087572
547,16.75463883202101
548,0.0
720,-297.77236611375884
721,-297.77236611375884
784,0.0
785,0.0
848,0.0
849,0.0
1121,0.0
1135,0.0
1161,0.0
1163,200.0
1166,0.0
1168,0.0
2,4,12,11, 0,15, 0.00,60.00,Thursday
7,8.9
545,20.331365736654877
546,14.024893266274868
547,16.781271051538702
548,0.0
720,-400.3868079239801
721,-400.3868079239801
784,0.0
785,0.0
848,0.0
849,0.0
1121,0.0
1135,0.0
1161,0.0
1163,200.0
1166,0.0
1168,0.0
2,4,12,11, 0,16, 0.00,60.00,Thursday
7,8.9
545,21.12013218412486
546,13.540069926747105
547,16.812800790118878
548,0.0
720,-900.8767106659707
721,-900.8767106659707
784,0.0
785,0.0
848,0.0
849,0.0
1121,0.0
1135,0.0
1161,0.0
1163,200.0
1166,0.0
1168,0.0
2,4,12,11, 0,17, 0.00,60.00,Thursday
7,6.7
545,21.47967603090751
546,12.153399644078483
547,16.852356815806644
548,0.0
720,-1193.7872306900026
721,-1193.7872306900026
784,0.0
785,0.0
848,0.0
849,0.0
1121,0.0
1135,0.0
1161,0.0
1163,200.0
1166,0.0
1168,0.0
2,4,12,11, 0,18, 0.00,60.00,Thursday
7,3.9
545,20.94170763507035
546,8.83667285928021
547,16.893579943881015
548,0.0
720,-854.7786689636505
721,-854.7786689636505
784,0.0
785,0.0
848,0.0
849,0.0
1121,0.0
1135,0.0
1161,0.0
1163,200.0
1166,0.0
1168,0.0
2,4,12,11, 0,19, 0.00,60.00,Thursday
7,3.9
545,20.900758991120007
546,5.568397821433172
547,16.924143982411447
548,0.0
720,-845.2510323160895
721,-845.2510323160895
784,0.0
785,0.0
848,0.0
849,0.0
1121,0.0
1135,0.0
1161,0.0
1163,200.0
1166,0.0
1168,0.0
2,4,12,11, 0,20, 0.00,60.00,Thursday
7,1.1
545,20.50276743993003
546,2.9245375877913165
547,16.936554282232343
548,0.0
720,-544.1614544682543
721,-544.1614544682543
784,0.0
785,0.0
848,0.0
849,0.0
1121,0.0
1135,0.0
1161,0.0
1163,200.0
1166,0.0
1168,0.0
2,4,12,11, 0,21, 0.00,60.00,Thursday
7,0.0
545,20.157852990666903
546,0.6646256711816909
547,16.92998746606457
548,0.0
720,-331.8250221714352
721,-331.8250221714352
784,0.0
785,0.0
848,0.0
849,0.0
1121,0.0
1135,0.0
1161,0.0
1163,200.0
1166,0.0
1168,0.0
2,4,12,11, 0,22, 0.00,60.00,Thursday
7,0.0
545,19.73618314503575
546,-0.9583442281752915
547,16.90707159794431
548,2.514032870754585
720,33.1240924748181
721,33.1240924748181
784,0.0
785,0.0
848,0.0
849,0.0
1121,65.99107600314201
1135,23.049919688966277
1161,1.7791570100903573
1163,196.71390636168618
1166,0.0
1168,0.0
2,4,12,11, 0,23, 0.00,60.00,Thursday
7,0.0
545,18.99003438198001
546,-2.220831734738519
547,16.87036257618003
548,0.0
720,-245.9042990805683
721,-245.9042990805683
784,0.0
785,0.0
848,0.0
849,0.0
1121,0.0
1135,0.0
1161,0.0
1163,200.0
1166,0.0
1168,0.0
2,4,12,11, 0,24, 0.00,60.00,Thursday
7,-0.6
545,18.55303332340249
546,-2.8536691970438626
547,16.81115302363314
548,18.50158607535976
720,366.0841333720873
721,366.0841333720873
784,0.0
785,0.0
848,0.0
849,0.0
1121,492.18534279224326
1135,166.85078669215036
1161,11.642528728988378
1163,175.8268452053655
1166,0.0
1168,0.0
2,5,12,12, 0, 1, 0.00,60.00,Friday
7,-0.6
545,18.479070603076213
546,-3.097231503502129
547,16.734902074466614
548,42.22018124130234
720,837.3063258336133
721,837.3063258336133
784,0.0
785,0.0
848,0.0
849,0.0
1121,1145.4402048809786
1135,377.41389591031367
1161,26.567344150685656
1163,144.83874271765234
1166,0.0
1168,0.0
2,5,12,12, 0, 2, 0.00,60.00,Friday
7,-1.7
545,18.380822847771324
546,-3.1289187046058
547,16.647234633320352
548,67.94930262680839
720,1298.2356822554393
721,1298.2356822554393
784,0.0
785,0.0
848,0.0
849,0.0
1121,1829.4534672441278
1135,603.2636905706369
1161,41.58905524104602
1163,111.09251233581583
1166,0.0
1168,0.0
2,5,12,12, 0, 3, 0.00,60.00,Friday
7,-2.2
545,18.398319364384175
546,-3.0266338108742006
547,16.551391569607766
548,96.66729075292726
720,1843.1679661655107
721,1843.1679661655107
784,0.0
785,0.0
848,0.0
849,0.0
1121,2636.1257375023274
1135,856.4346842094626
1161,56.627065015926895
1163,73.48639419501173
1166,0.0
1168,0.0
2,5,12,12, 0, 4, 0.00,60.00,Friday
7,-2.2
545,18.456425036053066