Program Version,EnergyPlus, Version 22.2.0-c249759bad, YMD=2023.09.01 14:31
1,5,Environment Title[],Latitude[deg],Longitude[deg],Time Zone[],Elevation[m]
2,8,Day of Simulation[],Month[],Day of Month[],DST Indicator[1=yes 0=no],Hour[],StartMinute[],EndMinute[],DayType
3,5,Cumulative Day of Simulation[],Month[],Day of Month[],DST Indicator[1=yes 0=no],DayType  ! When Daily Report Variables Requested
4,2,Cumulative Days of Simulation[],Month[]  ! When Monthly Report Variables Requested
5,1,Cumulative Days of Simulation[] ! When Run Period Report Variables Requested
6,1,Calendar Year of Simulation[] ! When Annual Report Variables Requested
7,1,Environment,Site Outdoor Air Drybulb Temperature [C] !Hourly
619,1,DX_HEATING_COIL,Heating Coil Heating Rate [W] !Hourly
633,1,DX_HEATING_COIL,Heating Coil Electricity Rate [W] !Hourly
659,1,DX_HEATING_COIL,Heating Coil Defrost Electricity Rate [W] !Hourly
661,1,DX_HEATING_COIL,Heating Coil Crankcase Heater Electricity Rate [W] !Hourly
690,1,FAN,Fan Electricity Rate [W] !Hourly
716,1,HEAT PUMP WATER HEATER FAN,Fan Electricity Rate [W] !Hourly
718,1,LIVING,Zone Mean Air Temperature [C] !Hourly
719,1,ATTIC,Zone Mean Air Temperature [C] !Hourly
720,1,CRAWLSPACE,Zone Mean Air Temperature [C] !Hourly
843,1,LIVING,Zone Predicted Sensible Load to Heating Setpoint Heat Transfer Rate [W] !Hourly
844,1,LIVING,Zone System Predicted Sensible Load to Heating Setpoint Heat Transfer Rate [W] !Hourly
907,1,ATTIC,Zone Predicted Sensible Load to Heating Setpoint Heat Transfer Rate [W] !Hourly
908,1,ATTIC,Zone System Predicted Sensible Load to Heating Setpoint Heat Transfer Rate [W] !Hourly
971,1,CRAWLSPACE,Zone Predicted Sensible Load to Heating Setpoint Heat Transfer Rate [W] !Hourly
972,1,CRAWLSPACE,Zone System Predicted Sensible Load to Heating Setpoint Heat Transfer Rate [W] !Hourly
1195,1,HEATING_RESISTANCE_BACKUP,Heating Coil Heating Rate [W] !Hourly
1197,1,HEATING_RESISTANCE_BACKUP,Heating Coil Electricity Rate [W] !Hourly
End of Data Dictionary
1,EXTREME_WINTER,  39.64, -79.92,  -5.00, 378.00
2,1, 1, 6, 0, 1, 0.00,60.00,Monday
7,-7.8
718,18.605586395284377
719,-1.9685971331827914
720,18.014410714050207
619,3878.0602785910573
633,1343.4155726845634
659,0.07071981477977149
661,0.0
690,146.80704577420212
716,0.0
843,2653.5409635872074
844,2653.5409635872074
907,0.0
908,0.0
971,0.0
972,0.0
1195,246.70632039872362
1197,246.70632039872362
2,1, 1, 6, 0, 2, 0.00,60.00,Monday
7,-7.2
718,18.607224633168645
719,-2.408838787506179
720,17.60046742071111
619,3947.614189443978
633,1350.6784237200245
659,0.07071981477977149
661,0.0
690,146.80704577420212
716,0.0
843,3013.510919115266
844,3013.510919115266
907,0.0
908,0.0
971,0.0
972,0.0
1195,531.2239109716693
1197,531.2239109716693
2,1, 1, 6, 0, 3, 0.00,60.00,Monday
7,-7.8
718,18.607328125736224
719,-2.795958610727035
720,17.374777910062644
619,3864.658382841034
633,1338.63026800293
659,3.630057348834837
661,0.0
690,146.80704577420212
716,0.0
843,3280.00500375471
844,3280.00500375471
907,0.0
908,0.0
971,0.0
972,0.0
1195,965.442362794528
1197,965.442362794528
2,1, 1, 6, 0, 4, 0.00,60.00,Monday
7,-8.3
718,18.606945534949183
719,-2.3550275617183942
720,17.13654404557137
619,3714.509739500672
633,1300.08941977792
659,28.49668781226545
661,0.0
690,146.80704577420212
716,0.0
843,3375.461135775162
844,3375.461135775162
907,0.0
908,0.0
971,0.0
972,0.0
1195,1250.936138487863
1197,1250.936138487863
2,1, 1, 6, 0, 5, 0.00,60.00,Monday
7,-8.3
718,18.60892710686169
719,-2.882485845029196
720,16.93116886906552
619,3714.784299000316
633,1299.7792391516496
659,28.49668781226545
661,0.0
690,146.80704577420212
716,0.0
843,3409.269578670999
844,3409.269578670999
907,0.0
908,0.0
971,0.0
972,0.0
1195,1277.1129248947027
1197,1277.1129248947027
2,1, 1, 6, 0, 6, 0.00,60.00,Monday
7,-8.3
718,19.377780145450238
719,-2.7820138604878064
720,16.737355042981548
619,3695.544149166723
633,1292.770073897807
659,33.69603285278099
661,0.0
690,146.80704577420212
716,0.0
843,4428.350241502558
844,4428.350241502558
907,0.0
908,0.0
971,0.0
972,0.0
1195,2539.055899151856
1197,2539.055899151856
2,1, 1, 6, 0, 7, 0.00,60.00,Monday
7,-7.8
718,19.569489913759664
719,-2.501815294827667
720,16.5926890044427
619,3742.8366958611678
633,1320.2576556465967
659,31.512943233065528
661,0.0
690,146.80704577420212
716,85.44000000000005
843,4162.843210632927
844,4162.843210632927
907,0.0
908,0.0
971,0.0
972,0.0
1195,3355.4765940852894
1197,3355.4765940852894
2,1, 1, 6, 0, 8, 0.00,60.00,Monday
7,-7.8
718,19.65554937371713
719,-2.218825934686425
720,16.425574666452345
619,3723.4469099138705
633,1319.4847759506506
659,35.567350192324454
661,0.0
690,146.80704577420212
716,85.44000000000005
843,3906.246832109495
844,3906.246832109495
907,0.0
908,0.0
971,0.0
972,0.0
1195,3130.4090294066527
1197,3130.4090294066527
2,1, 1, 6, 0, 9, 0.00,60.00,Monday
7,-7.8
718,19.70339711050311
719,-1.8312590639664332
720,16.27187450191566
619,3701.5423339067943
633,1314.2560309080768
659,40.92313056357528
661,0.0
690,146.80704577420212
716,9.709951661314076
843,3856.2381847397173
844,3856.2381847397173
907,0.0
908,0.0
971,0.0
972,0.0
1195,2041.088551267313
1197,2041.088551267313
2,1, 1, 6, 0,10, 0.00,60.00,Monday
7,-6.7
718,19.713770111940622
719,-1.3117282577865519
720,16.1308713407083
619,3844.9452828366884
633,1335.0855433422971
659,35.55666073974181
661,0.0
690,146.80704577420212
716,0.0
843,3731.4437888980774
844,3731.4437888980774
907,0.0
908,0.0
971,0.0
972,0.0
1195,1606.062487307885
1197,1606.062487307885
2,1, 1, 6, 0,11, 0.00,60.00,Monday
7,-7.0
718,19.719446185027017
719,-0.424699533237753
720,15.98546541858088
619,3765.6142896674396
633,1315.9113887660278
659,47.268218627778445
661,0.0
690,146.80704577420212
716,0.0
843,3611.492247764303
844,3611.492247764303
907,0.0
908,0.0
971,0.0
972,0.0
1195,1523.6639028360628
1197,1523.6639028360628
2,1, 1, 6, 0,12, 0.00,60.00,Monday
7,-6.1
718,19.720384812622942
719,2.4874025932302626
720,15.859836811910363
619,3904.1397267781704
633,1338.7514717539934
659,37.9317801203094
661,0.0
690,146.80704577420212
716,0.0
843,3259.8722023992923
844,3259.8722023992923
907,0.0
908,0.0
971,0.0
972,0.0
1195,915.1546657277913
1197,915.1546657277913
2,1, 1, 6, 0,13, 0.00,60.00,Monday
7,-5.6
718,19.725322091686593
719,3.451228426810071
720,15.737802217622482
619,3999.484217592074
633,1357.0810274088333
659,28.575971515525605
661,0.0
690,146.80704577420212
716,0.0
843,2957.297527340732
844,2957.297527340732
907,0.0
908,0.0
971,0.0
972,0.0
1195,307.31006004823394
1197,307.31006004823394
2,1, 1, 6, 0,14, 0.00,60.00,Monday
7,-5.6
718,19.721168792987726
719,4.5384009332444295
720,15.627591778121609
619,4019.5562391378817
633,1363.8287896374673
659,23.597345313724652
661,0.0
690,146.80704577420212
716,77.49931923056788
843,2682.0707035311225
844,2682.0707035311225
907,0.0
908,0.0
971,0.0
972,0.0
1195,911.91224976886
1197,911.91224976886
2,1, 1, 6, 0,15, 0.00,60.00,Monday
7,-5.0
718,19.778266797572837
719,4.130516775082955
720,15.529883019517424
619,3220.4633798291566
633,1109.1838915885953
659,14.786225576270672
661,39.00373401638622
690,117.75615722761142
716,0.0
843,2250.5902828883536
844,2250.5902828883536
907,0.0
908,0.0
971,0.0
972,0.0
1195,0.0
1197,0.0
2,1, 1, 6, 0,16, 0.00,60.00,Monday
7,-5.6
718,19.704517207687385
719,2.593469939138317
720,15.445918907236537
619,3074.232839149768
633,1075.1619989392907
659,6.427145595121721
661,44.86100018187478
690,113.68376133463559
716,0.0
843,2134.020579224838
844,2134.020579224838
907,0.0
908,0.0
971,0.0
972,0.0
1195,0.0
1197,0.0
2,1, 1, 6, 0,17, 0.00,60.00,Monday
7,-5.6
718,19.8025548517354
719,3.103377579694669
720,15.373539486701075
619,2630.3432084400824
633,930.826756584906
659,12.494495834606175
661,64.1416452496199
690,99.34537373506605
716,0.0
843,1769.007580193871
844,1769.007580193871
907,0.0
908,0.0
971,0.0
972,0.0
1195,0.0
1197,0.0
2,1, 1, 6, 0,18, 0.00,60.00,Monday
7,-6.1
718,19.707640018898612
719,0.783464975859169
720,15.31352216818724
619,2863.370623360268
633,1018.0411940032303
659,11.558256589401195
661,51.45968774576699
690,108.6644376903691
716,0.0
843,1944.0446490263002
844,1944.0446490263002
907,0.0
908,0.0
971,0.0
972,0.0
1195,0.0
1197,0.0
2,1, 1, 6, 0,19, 0.00,60.00,Monday
7,-6.1
718,19.605794735893987
719,-0.21135028972781786
720,15.253836918898878
619,4013.1760590948697
633,1374.431305383724
659,10.717178220895876
661,0.0
690,146.80704577420212
716,85.44000000000005
843,2102.770515825907
844,2102.770515825907
907,0.0
908,0.0
971,0.0
972,0.0
1195,568.2064871959669
1197,568.2064871959669
2,1, 1, 6, 0,20, 0.00,60.00,Monday
7,-6.1
718,19.66793227046839
719,-1.003640612242821
720,15.173844791509918
619,4015.165200463477
633,1371.5061166438052
659,10.822815908515338
661,0.0
690,146.80704577420212
716,85.44000000000005
843,2267.220515859144
844,2267.220515859144
907,0.0
908,0.0
971,0.0
972,0.0
1195,829.7242893360894
1197,829.7242893360894
2,1, 1, 6, 0,21, 0.00,60.00,Monday
7,-6.7
718,19.692516639865843
719,-2.060164963362306
720,15.091621690484862
619,3959.9239150781814
633,1371.703030972224
659,6.605615739213738
661,0.0
690,146.80704577420212
716,49.61290178270639
843,2325.6108720819557
844,2325.6108720819557
907,0.0
908,0.0
971,0.0
972,0.0
1195,481.40604602277244
1197,481.40604602277244
2,1, 1, 6, 0,22, 0.00,60.00,Monday
7,-6.7
718,19.713456660143123
719,-1.9145631803073837
720,15.004016170638263
619,3959.4561240256485
633,1372.2401386018323
659,6.605615739213738
661,0.0
690,146.80704577420212
716,0.0
843,2486.7749191291496
844,2486.7749191291496
907,0.0
908,0.0
971,0.0
972,0.0
1195,52.14416963704389
1197,52.14416963704389
2,1, 1, 6, 0,23, 0.00,60.00,Monday
7,-6.7
718,18.971310488398306
719,-2.6077488648623017
720,14.896138162036275
619,2946.3238857819865
633,1052.7938441571828
659,5.023906192673018
661,46.640641137573915
690,112.40169256603893
716,0.0
843,1807.0369714362732
844,1807.0369714362732
907,0.0
908,0.0
971,0.0
972,0.0
1195,0.0
1197,0.0
2,1, 1, 6, 0,24, 0.00,60.00,Monday
7,-7.2
718,18.629695167008045
719,-3.1004698333242295
720,14.771491866491596
619,3926.5538838947396
633,1350.2780924140507
659,4.339321030858394
661,0.0
690,146.80704577420212
716,0.0
843,2456.1303019904553
844,2456.1303019904553
907,0.0
908,0.0
971,0.0
972,0.0
1195,14.56063419734619
1197,14.56063419734619
2,2, 1, 7, 0, 1, 0.00,60.00,Tuesday
7,-7.2
718,18.613437499260716
719,-3.4865589328001447
720,14.654209380607453
619,3934.3082374014803
633,1341.2210404202901
659,4.372921324916007
661,0.0
690,146.80704577420212
716,0.0
843,3094.9731456452373
844,3094.9731456452373
907,0.0
908,0.0
971,0.0
972,0.0
1195,782.7387822109945
1197,782.7387822109945
2,2, 1, 7, 0, 2, 0.00,60.00,Tuesday
7,-8.3
718,18.60780198007886
719,-3.3146303029865205
720,14.537803528863815
619,3812.773966191648
633,1329.8581420905077
659,3.0327202866876157
661,0.0
690,146.80704577420212
716,0.0
843,3441.622625751921
844,3441.622625751921
907,0.0
908,0.0
971,0.0
972,0.0
1195,1339.310705595079
1197,1339.310705595079
2,2, 1, 7, 0, 3, 0.00,60.00,Tuesday
7,-8.0
718,18.60885588069243
719,-3.4773711901294067
720,14.42740386925291
619,3858.6756690206503
633,1336.8609586072257
659,0.07071981477977149
661,0.0
690,146.80704577420212
716,0.0
843,3496.9653874731503
844,3496.9653874731503
907,0.0
908,0.0
971,0.0
972,0.0
1195,1354.9409169092614
1197,1354.9409169092614
2,2, 1, 7, 0, 4, 0.00,60.00,Tuesday
7,-8.9
718,18.605746614505694
719,-3.510673130261714
720,14.306997609861613
619,3747.1145541426204
633,1323.3855790275318
659,2.390766784304805
661,0.0
690,146.80704577420212
716,0.0
843,3764.684098539801
844,3764.684098539801
907,0.0
908,0.0
971,0.0
972,0.0
1195,1793.4069487992563
1197,1793.4069487992563
2,2, 1, 7, 0, 5, 0.00,60.00,Tuesday
7,-9.4
718,18.606906019620762
719,-4.173256218205638
720,14.191761309133902
619,3670.128743625254
633,1309.993236121959
659,8.114666349513517
661,0.0
690,146.80704577420212
716,0.0
843,3908.5626634325745
844,3908.5626634325745
907,0.0
908,0.0
971,0.0
972,0.0
1195,2054.33249273714
1197,2054.33249273714
2,2, 1, 7, 0, 6, 0.00,60.00,Tuesday
7,-10.6
718,19.380760731020324
719,-4.271122581684828
720,14.073183768424014
619,3516.2925256033277
633,1288.2722117832468
659,14.164899963356573
661,0.0
690,146.80704577420212
716,0.0
843,5109.070847831625
844,5109.070847831625
907,0.0
908,0.0
971,0.0
972,0.0
1195,3672.3585751161636
1197,3672.3585751161636
2,2, 1, 7, 0, 7, 0.00,60.00,Tuesday
7,-10.6
718,19.571316106187524
719,-4.055951824713278
720,14.001026338252933
619,3499.3734688878317
633,1306.7966526014993
659,14.164899963356573
661,0.0
690,146.80704577420212
716,85.44000000000005
843,4874.681385980668
844,4874.681385980668
907,0.0
908,0.0
971,0.0
972,0.0
1195,4595.588776819175
1197,4595.588776819175
2,2, 1, 7, 0, 8, 0.00,60.00,Tuesday
7,-10.6
718,19.65490939925681
719,-4.177143982027051
720,13.896688195882485
619,3510.493327590366
633,1317.0456126334166
659,9.76136517221576
661,0.0
690,146.80704577420212
716,85.44000000000005
843,4616.0316999161005
844,4616.0316999161005
907,0.0
908,0.0
971,0.0
972,0.0
1195,4354.189669768126
1197,4354.189669768126
2,2, 1, 7, 0, 9, 0.00,60.00,Tuesday
7,-11.1
718,19.68125939389598
719,-3.844986201249512
720,13.794674136295013
619,3467.885678232744
633,1317.9769499275117
659,5.800609577680478
661,0.0
690,146.80704577420212
716,85.44000000000005
843,4406.294053709173
844,4406.294053709173
907,0.0
908,0.0
971,0.0
972,0.0
1195,4173.283860089471
1197,4173.283860089471
2,2, 1, 7, 0,10, 0.00,60.00,Tuesday
7,-11.1
718,19.705703624987002
719,-4.417350045478555
720,13.696009714193517
619,3467.6657485168603
633,1318.526109297453
659,5.738217767466878
661,0.0
690,146.80704577420212
716,19.038147337860693
843,4242.152739101817
844,4242.152739101817
907,0.0
908,0.0
971,0.0
972,0.0
1195,3011.8624644022993
1197,3011.8624644022993
2,2, 1, 7, 0,11, 0.00,60.00,Tuesday
7,-11.1
718,19.719789325096745
719,-2.0891862171470774
720,13.607865648164267
619,3456.5077834134922
633,1314.9118443537855
659,8.884428604296838
661,0.0
690,146.80704577420212
716,0.0
843,3650.3094132427323
844,3650.3094132427323
907,0.0
908,0.0
971,0.0
972,0.0
1195,2119.471892404918
1197,2119.471892404918
2,2, 1, 7, 0,12, 0.00,60.00,Tuesday
7,-11.1
718,19.718948204649795
719,-0.8640329264051372
720,13.528411624342505
619,3455.9442789033683
633,1315.010793538643
659,8.986867124113505
661,0.0
690,146.80704577420212
716,0.0
843,3367.1970553192405
844,3367.1970553192405
907,0.0
908,0.0
971,0.0
972,0.0
1195,1646.0605288246347
1197,1646.0605288246347
2,2, 1, 7, 0,13, 0.00,60.00,Tuesday
7,-10.0
718,19.71786938461771
719,-0.3949110044977659
720,13.466822215870474
619,3607.5789796581444
633,1339.7886105155505
659,0.16581935685176624
661,0.0
690,146.80704577420212
716,0.0
843,3763.0374641563667
844,3763.0374641563667
907,0.0
908,0.0
971,0.0
972,0.0
1195,1920.0221873043133
1197,1920.0221873043133
2,2, 1, 7, 0,14, 0.00,60.00,Tuesday
7,-10.6
718,19.719565831855256
719,-0.8247892192866366
720,13.406873774758468
619,3541.4893182858013
633,1332.4712273479158
659,0.07071981477977149
661,0.0
690,146.80704577420212
716,0.0
843,3094.882997900695
844,3094.882997900695
907,0.0
908,0.0
971,0.0
972,0.0
1195,1150.4082337555233
1197,1150.4082337555233
2,2, 1, 7, 0,15, 0.00,60.00,Tuesday
7,-10.6
718,19.723835343750537
719,0.2261583518471823
720,13.367331349484054
619,3541.5235945005
633,1332.433835376107
659,0.07071981477977149
661,0.0
690,146.80704577420212
716,0.0
843,2410.84219629747
844,2410.84219629747
907,0.0
908,0.0
971,0.0
972,0.0
1195,362.3509916309986
1197,362.3509916309986
2,2, 1, 7, 0,16, 0.00,60.00,Tuesday
7,-10.6
718,19.71895945235441
719,-2.7395132817567123
720,13.332904253472902
619,3541.5017399264925
633,1332.457676599413
659,0.07071981477977149
661,0.0
690,146.80704577420212
716,0.0
843,2952.238463906644
844,2952.238463906644
907,0.0
908,0.0
971,0.0
972,0.0
1195,950.1084089423214
1197,950.1084089423214
2,2, 1, 7, 0,17, 0.00,60.00,Tuesday
7,-11.7
718,19.71460239918061
719,-2.3832192748241505
720,13.295731969475606
619,3404.707541187802
633,1312.221331565244
659,5.0890521800628985
661,0.0
690,146.80704577420212
716,0.0
843,3273.7453624674617
844,3273.7453624674617
907,0.0
908,0.0
971,0.0
972,0.0
1195,1640.8833483336
1197,1640.8833483336
2,2, 1, 7, 0,18, 0.00,60.00,Tuesday
7,-12.2
718,19.71552253618105
719,-4.144821414430428
720,13.255887837573129
619,3334.098395702604
633,1299.133855326873
659,10.306639203317618
661,0.0
690,146.80704577420212
716,0.0
843,3296.2359964267307
844,3296.2359964267307
907,0.0
908,0.0
971,0.0
972,0.0
1195,1708.9996432410007
1197,1708.9996432410007
2,2, 1, 7, 0,19, 0.00,60.00,Tuesday
7,-12.8
718,19.696836862852564
719,-5.413989879151878
720,13.199604241489904
619,3282.623678950769
633,1296.207596952198
659,6.657902410013983
661,0.0
690,146.80704577420212
716,85.44000000000005
843,3479.833840125755
844,3479.833840125755
907,0.0
908,0.0
971,0.0
972,0.0
1195,3196.747791021821
1197,3196.747791021821
2,2, 1, 7, 0,20, 0.00,60.00,Tuesday
7,-14.4
718,19.69690694077369
719,-7.505209018161044
720,13.116032295311557
619,3122.7109638246816
633,1277.2809103418222
659,4.850636953297121
661,0.0
690,146.80704577420212
716,85.44000000000005
843,4377.447087643766
844,4377.447087643766
907,0.0
908,0.0
971,0.0
972,0.0
1195,4584.848624967024
1197,4584.848624967024
2,2, 1, 7, 0,21, 0.00,60.00,Tuesday
7,-13.9
718,19.69788134662114
719,-6.507738586702634
720,13.053056771352
619,3180.2973326503593
633,1286.2470222272534
659,2.8900385502244474
661,0.0
690,146.80704577420212
716,85.44000000000005
843,3706.427839782038
844,3706.427839782038
907,0.0
908,0.0
971,0.0
972,0.0
1195,3837.541243447538
1197,3837.541243447538
2,2, 1, 7, 0,22, 0.00,60.00,Tuesday
7,-15.0
718,19.701072116544157
719,-8.913098500295401
720,12.945740705859984
619,3076.2015839257424
633,1275.1123937267082
659,0.07071981477977149
661,0.0
690,146.80704577420212
716,40.79996086042608
843,4958.676678822634
844,4958.676678822634
907,0.0
908,0.0
971,0.0
972,0.0
1195,4704.276669127753
1197,4704.276669127753
2,2, 1, 7, 0,23, 0.00,60.00,Tuesday
7,-15.6
718,18.945805255153335
719,-9.089123830451692
720,12.853419118550548
619,3015.558259864756
633,1267.0086402585741
659,0.07071981477977149
661,0.0
690,146.80704577420212
716,0.0
843,3532.443445272047
844,3532.443445272047
907,0.0
908,0.0
971,0.0
972,0.0
1195,2696.629258002031
1197,2696.629258002031
2,2, 1, 7, 0,24, 0.00,60.00,Tuesday
7,-15.6
718,18.706958185514427
719,-9.146785368321606
720,12.710911206118407
619,3032.1293986350465
633,1250.5471347325165
659,0.07071981477977149
661,0.0
690,146.80704577420212
716,0.0
843,4028.893716532719
844,4028.893716532719
907,0.0
908,0.0
971,0.0
972,0.0
1195,3209.404478408461
1197,3209.404478408461
2,3, 1, 8, 0, 1, 0.00,60.00,Wednesday
7,-16.1
718,18.633066695648587
719,-9.069143379324107
720,12.589412165674448
619,2985.996855277787
633,1238.1175619124942
659,0.5494228503276314
661,0.0
690,146.80704577420212
716,0.0
843,4577.348551477922
844,4577.348551477922
907,0.0
908,0.0
971,0.0
972,0.0
1195,3913.2539608759253
1197,3913.2539608759253
2,3, 1, 8, 0, 2, 0.00,60.00,Wednesday
7,-16.1
718,18.604469429745976
719,-9.591016039796878
720,12.466022539531995
619,2987.7484285151518
633,1236.3851140267234
659,0.5491047587272438
661,0.0
690,146.80704577420212
716,0.0
843,5245.447663145331
844,5245.447663145331
907,0.0
908,0.0
971,0.0
972,0.0
1195,4692.99703215768
1197,4692.99703215768
2,3, 1, 8, 0, 3, 0.00,60.00,Wednesday
7,-16.7
718,18.601281568789243
719,-10.04921779004229
720,12.34004965416165
619,2930.026427307742
633,1228.1334368301336
659,0.22516570188284105
661,0.0
690,146.80704577420212
716,0.0
843,5591.296017326593
844,5591.296017326593
907,0.0
908,0.0
971,0.0
972,0.0
1195,5217.973140917462
1197,5217.973140917462
2,3, 1, 8, 0, 4, 0.00,60.00,Wednesday
7,-17.2
718,18.594898510743366
719,-10.251352510001126
720,12.216084901149307
619,2876.8724022589613
633,1219.4034778539065
659,1.7803822688279733
661,0.0
690,146.80704577420212
716,0.0
843,5840.4946622088155
844,5840.4946622088155
907,0.0
908,0.0
971,0.0
972,0.0
1195,5577.189546562822
1197,5577.189546562822
2,3, 1, 8, 0, 5, 0.00,60.00,Wednesday
7,-17.2
718,18.59945458660566
719,-10.26345200951322
720,12.094922693977653
619,2877.161708132679
633,1219.123543718941
659,1.780562886778816
661,0.0
690,146.80704577420212
716,0.0
843,5985.6774219707095
844,5985.6774219707095
907,0.0
908,0.0
971,0.0
972,0.0
1195,5792.924854526682
1197,5792.924854526682
2,3, 1, 8, 0, 6, 0.00,60.00,Wednesday
7,-17.8
718,18.598526671400883
719,-9.762687679420216
720,11.969970832065895
619,2813.9151735990795
633,1208.756350416695
659,3.674531909244455
661,0.0
690,146.80704577420212
716,81.3038328801393
843,7122.263463132966
844,7122.263463132966
907,0.0
908,0.0
971,0.0
972,0.0
1195,6613.913354498943
1197,6613.913354498943
2,3, 1, 8, 0, 7, 0.00,60.00,Wednesday
7,-17.8
718,18.434819598453974
719,-10.429228055002381
720,11.8476241434482
619,2809.43491869902
633,1206.5775123242258
659,5.363683456023235
661,0.0
690,146.80704577420212
716,85.44000000000005
843,7308.85206415143
844,7308.85206415143
907,0.0
908,0.0
971,0.0
972,0.0
1195,6613.913354498943
1197,6613.913354498943
2,3, 1, 8, 0, 8, 0.00,60.00,Wednesday
7,-18.3
718,18.13387204211716
719,-10.971028960784208
720,11.714397929106951
619,2766.631963881267
633,1196.933513511061
659,4.898072727764536
661,0.0
690,146.80704577420212
716,81.56441383316826
843,7714.671000545133
844,7714.671000545133
907,0.0
908,0.0
971,0.0
972,0.0
1195,6613.913354498943
1197,6613.913354498943
2,3, 1, 8, 0, 9, 0.00,60.00,Wednesday
7,-17.8
718,19.258907247222215
719,-8.62153867142998
720,11.592973745412863
619,2823.93382042117
633,1198.8762343187373
659,3.7590636537523174
661,0.0
690,146.80704577420212
716,0.0
843,6531.798244694113
844,6531.798244694113
907,0.0
908,0.0
971,0.0
972,0.0
1195,6512.376165392821
1197,6512.376165392821
2,3, 1, 8, 0,10, 0.00,60.00,Wednesday
7,-17.2
718,19.585899760327756
719,-6.4603724309578086
720,11.541658890363815
619,2858.6683105849793
633,1229.885042802164
659,3.5773425527375675
661,0.0
690,146.80704577420212
716,0.0
843,5303.38093275611
844,5303.38093275611
907,0.0
908,0.0
971,0.0
972,0.0
1195,4941.6898847669945
1197,4941.6898847669945
2,3, 1, 8, 0,11, 0.00,60.00,Wednesday
7,-17.2
718,19.682319168278358
719,-6.26617322567438
720,11.460299545227015
619,2851.484531120695
633,1236.4251982702906
659,3.6592719408883365
661,0.0
690,146.80704577420212
716,0.0
843,4854.432368669559
844,4854.432368669559
907,0.0
908,0.0
971,0.0
972,0.0
1195,4345.825600727547
1197,4345.825600727547
2,3, 1, 8, 0,12, 0.00,60.00,Wednesday
7,-15.0
718,19.708142048641786
719,-0.9872470067452649
720,11.436922603228838
619,3078.492631446396
633,1272.8136863776454
659,0.07071981477977149
661,0.0
690,146.80704577420212
716,0.0
843,3649.0642762699717
844,3649.0642762699717
907,0.0
908,0.0
971,0.0
972,0.0
1195,2650.0150917223687
1197,2650.0150917223687
2,3, 1, 8, 0,13, 0.00,60.00,Wednesday
7,-13.3
718,19.721882931669526
719,-1.39598796935817
720,11.423889277907287
619,3253.706215276849
633,1295.5437721394653
659,0.07071981477977149
661,0.0
690,146.80704577420212
716,0.0
843,3461.4010677140795
844,3461.4010677140795
907,0.0
908,0.0
971,0.0
972,0.0
1195,1977.9486020736674
1197,1977.9486020736674
2,3, 1, 8, 0,14, 0.00,60.00,Wednesday
7,-12.2
718,19.722620719046926
719,1.0378799380241686
720,11.43410274624004
619,3370.07763862963
633,1309.8597848660113
659,0.07071981477977149
661,0.0
690,146.80704577420212
716,0.0
843,2716.1323428063624
844,2716.1323428063624
907,0.0
908,0.0
971,0.0
972,0.0
1195,981.722546024286
1197,981.722546024286
2,3, 1, 8, 0,15, 0.00,60.00,Wednesday
7,-11.7
718,19.70983709441491
719,2.0777124887547966
720,11.45016663744308
619,3423.8687539827965
633,1316.152641835059
659,0.07071981477977149
661,0.0
690,146.80704577420212
716,75.81543315359058
843,2450.6138869702518
844,2450.6138869702518
907,0.0
908,0.0
971,0.0
972,0.0
1195,1399.5427084367832
1197,1399.5427084367832
2,3, 1, 8, 0,16, 0.00,60.00,Wednesday
7,-11.7
718,19.713709577089325
719,2.3670328279552604
720,11.4713238602659
619,3424.1210973376906
633,1315.8821546673994
659,0.07071981477977149
661,0.0
690,146.80704577420212
716,85.44000000000005
843,2276.271860277844
844,2276.271860277844
907,0.0
908,0.0
971,0.0
972,0.0
1195,1261.7785287626734
1197,1261.7785287626734
2,3, 1, 8, 0,17, 0.00,60.00,Wednesday
7,-11.1
718,19.72113657402117
719,-0.26267411137838914
720,11.497466924991558
619,3489.2583758795645
633,1323.420259422623
659,0.07071981477977149
661,0.0
690,146.80704577420212
716,6.73063436336196
843,2578.5688439504393
844,2578.5688439504393
907,0.0
908,0.0
971,0.0
972,0.0
1195,578.3805815835899
1197,578.3805815835899
2,3, 1, 8, 0,18, 0.00,60.00,Wednesday
7,-11.1
718,19.718814941915273
719,-2.209269236784986
720,11.513346119626314
619,3489.042523792539
633,1323.6539896440913
659,0.07071981477977149
661,0.0
690,146.80704577420212
716,0.0
843,2768.4833529362677
844,2768.4833529362677
907,0.0
908,0.0
971,0.0
972,0.0
1195,857.9140234077338
1197,857.9140234077338
2,3, 1, 8, 0,19, 0.00,60.00,Wednesday
7,-11.1
718,19.716821080211016
719,-3.7835213937179306
720,11.511702589277013
619,3489.072762603623
633,1323.621247114852
659,0.07071981477977149
661,0.0
690,146.80704577420212
716,0.0
843,2972.996225379964
844,2972.996225379964
907,0.0
908,0.0
971,0.0
972,0.0
1195,1211.8029624393419
1197,1211.8029624393419
2,3, 1, 8, 0,20, 0.00,60.00,Wednesday
7,-10.0
718,19.712500960870603
719,-4.052424486685527
720,11.501658995908643
619,3610.537528094879
633,1337.024333545002
659,0.07071981477977149
661,0.0
690,146.80704577420212
716,85.44000000000005
843,2796.593945507466
844,2796.593945507466
907,0.0
908,0.0
971,0.0
972,0.0
1195,2117.670779053232
1197,2117.670779053232
2,3, 1, 8, 0,21, 0.00,60.00,Wednesday
7,-8.9
718,19.70305216856675
719,-4.158734977232422
720,11.475503743339114
619,3734.451173279296
633,1350.1334284600282
659,0.07071981477977149
661,0.0
690,146.80704577420212
716,85.44000000000005
843,2898.3593557816057
844,2898.3593557816057
907,0.0
908,0.0
971,0.0
972,0.0
1195,2127.242708828335
1197,2127.242708828335
2,3, 1, 8, 0,22, 0.00,60.00,Wednesday
7,-8.3
718,19.712575746111813
719,-4.205871158626933
720,11.43606582731978
619,3803.2386062346186
633,1356.9895035251272
659,0.07071981477977149
661,0.0
690,146.80704577420212
716,33.18791530543253
843,3153.6352699277923
844,3153.6352699277923
907,0.0
908,0.0
971,0.0
972,0.0
1195,1620.4706819319972
1197,1620.4706819319972
2,3, 1, 8, 0,23, 0.00,60.00,Wednesday
7,-7.0
718,18.95623580986253
719,-3.190370852440641
720,11.397170179801122
619,3953.960655356407
633,1372.558922932749
659,0.07071981477977149
661,0.0
690,146.80704577420212
716,0.0
843,2481.3313073893423
844,2481.3313073893423
907,0.0
908,0.0
971,0.0
972,0.0
1195,271.112483720427
1197,271.112483720427
2,3, 1, 8, 0,24, 0.00,60.00,Wednesday
7,-6.7
718,18.720988660737905
719,-2.553986796021464
720,11.309102326489693
619,4006.5865180868263
633,1356.182537484617
659,0.07071981477977149
661,0.0
690,146.80704577420212
716,0.0
843,2884.008220021511
844,2884.008220021511
907,0.0
908,0.0
971,0.0
972,0.0
1195,577.7357084422265
1197,577.7357084422265
2,4, 1, 9, 0, 1, 0.00,60.00,Thursday
7,-2.8
718,18.65105132772482
719,-1.4309979891737747
720,11.270795688658145
619,4345.987043756492
633,1355.6420956851596
659,0.06873158717651343
661,5.622830346628049
690,142.67821537110189
716,0.0
843,2756.4314428574
844,2756.4314428574
907,0.0
908,0.0
971,0.0
972,0.0
1195,0.0
1197,0.0
2,4, 1, 9, 0, 2, 0.00,60.00,Thursday
7,-3.9
718,18.614741666750955
719,-1.1451786034407891
720,11.206470954858153
619,4351.915661595756
633,1380.0302906548739
659,0.07071981477977149
661,0.0
690,146.80704577420212
716,0.0
843,3244.638197197859
844,3244.638197197859
907,0.0
908,0.0
971,0.0
972,0.0
1195,541.4015113165842
1197,541.4015113165842
2,4, 1, 9, 0, 3, 0.00,60.00,Thursday
7,-5.0
718,18.607419061597017
719,-1.2571793879039037
720,11.143454049560233
619,4202.0435795203975
633,1361.0452857248229
659,3.979949578948622
661,0.0
690,146.80704577420212
716,0.0
843,4001.013544881913
844,4001.013544881913
907,0.0
908,0.0
971,0.0
972,0.0
1195,1584.0179228724314
1197,1584.0179228724314
2,4, 1, 9, 0, 4, 0.00,60.00,Thursday
7,-5.6
718,18.61087304042598
719,-1.1187556118293904
720,11.093313955227247
619,4050.488828130645
633,1327.9457379244307
659,23.597345313724652
661,0.0
690,146.80704577420212
716,0.0
843,3632.1166983439925
844,3632.1166983439925
907,0.0
908,0.0
971,0.0
972,0.0
1195,1298.1437681258612
1197,1298.1437681258612
2,4, 1, 9, 0, 5, 0.00,60.00,Thursday
7,-5.0
718,18.60914766290299
719,-1.0582645722740924
720,11.049649061230854
619,4202.273697478609
633,1360.858119867122
659,3.966800934254879
661,0.0
690,146.80704577420212
716,0.0
843,3524.095026389279
844,3524.095026389279
907,0.0
908,0.0
971,0.0
972,0.0
1195,1007.2260773884573
1197,1007.2260773884573
2,4, 1, 9, 0, 6, 0.00,60.00,Thursday
7,-5.6
718,19.386692886523043
719,-1.6492198996474285
720,10.99711940087916
619,4112.347373932932
633,1348.0718883609204
659,8.36505123214908
661,0.0
690,146.80704577420212
716,0.0
843,4838.175177203013
844,4838.175177203013
907,0.0
908,0.0
971,0.0
972,0.0
1195,2669.0673960546
1197,2669.0673960546
2,4, 1, 9, 0, 7, 0.00,60.00,Thursday
7,-5.6
718,19.583630779758487
719,-0.9222258379484064
720,10.99268830278667
619,4074.061463094529
633,1361.5488695507286
659,13.492616869547215
661,0.0
690,146.80704577420212
716,85.44000000000005
843,4397.716885712878
844,4397.716885712878
907,0.0
908,0.0
971,0.0
972,0.0
1195,3434.2383886999182
1197,3434.2383886999182
2,4, 1, 9, 0, 8, 0.00,60.00,Thursday
7,-5.0
718,19.656307175945383
719,-0.3759289007463334
720,10.960835570952769
619,4196.102653106742
633,1391.9792613055938
659,0.07071981477977149
661,0.0
690,146.80704577420212
716,85.44000000000005
843,3824.0752199870713
844,3824.0752199870713
907,0.0
908,0.0
971,0.0
972,0.0
1195,2656.8421919660714
1197,2656.8421919660714
2,4, 1, 9, 0, 9, 0.00,60.00,Thursday
7,-5.0
718,19.691386562449104
719,-0.33054403366534957
720,10.926939077637051
619,4156.345086610073
633,1381.21100371564
659,9.365993518149201
661,0.0
690,146.80704577420212
716,83.82803884945045