Program Version,EnergyPlus, Version 22.2.0-c249759bad, YMD=2023.09.01 15:50
1,5,Environment Title[],Latitude[deg],Longitude[deg],Time Zone[],Elevation[m]
2,8,Day of Simulation[],Month[],Day of Month[],DST Indicator[1=yes 0=no],Hour[],StartMinute[],EndMinute[],DayType
3,5,Cumulative Day of Simulation[],Month[],Day of Month[],DST Indicator[1=yes 0=no],DayType  ! When Daily Report Variables Requested
4,2,Cumulative Days of Simulation[],Month[]  ! When Monthly Report Variables Requested
5,1,Cumulative Days of Simulation[] ! When Run Period Report Variables Requested
6,1,Calendar Year of Simulation[] ! When Annual Report Variables Requested
581,11,LIVING,AFN Zone Infiltration Air Change Rate [ach] !RunPeriod [Value,Min,Month,Day,Hour,Minute,Max,Month,Day,Hour,Minute]
582,11,ATTIC,AFN Zone Infiltration Air Change Rate [ach] !RunPeriod [Value,Min,Month,Day,Hour,Minute,Max,Month,Day,Hour,Minute]
583,11,CRAWLSPACE,AFN Zone Infiltration Air Change Rate [ach] !RunPeriod [Value,Min,Month,Day,Hour,Minute,Max,Month,Day,Hour,Minute]
1038,11,Facility,Facility Heating Setpoint Not Met Time [hr] !RunPeriod [Value,Min,Month,Day,Hour,Minute,Max,Month,Day,Hour,Minute]
1039,11,Facility,Facility Cooling Setpoint Not Met Time [hr] !RunPeriod [Value,Min,Month,Day,Hour,Minute,Max,Month,Day,Hour,Minute]
1115,11,DX_HEATING_COIL,Heating Coil Heating Energy [J] !RunPeriod [Value,Min,Month,Day,Hour,Minute,Max,Month,Day,Hour,Minute]
1128,11,DX_HEATING_COIL,Heating Coil Electricity Energy [J] !RunPeriod [Value,Min,Month,Day,Hour,Minute,Max,Month,Day,Hour,Minute]
1153,11,DX_HEATING_COIL,Heating Coil Defrost Electricity Energy [J] !RunPeriod [Value,Min,Month,Day,Hour,Minute,Max,Month,Day,Hour,Minute]
1154,11,DX_HEATING_COIL,Heating Coil Crankcase Heater Electricity Energy [J] !RunPeriod [Value,Min,Month,Day,Hour,Minute,Max,Month,Day,Hour,Minute]
1155,11,HEATING_RESISTANCE_BACKUP,Heating Coil Heating Energy [J] !RunPeriod [Value,Min,Month,Day,Hour,Minute,Max,Month,Day,Hour,Minute]
1156,11,HEATING_RESISTANCE_BACKUP,Heating Coil Electricity Energy [J] !RunPeriod [Value,Min,Month,Day,Hour,Minute,Max,Month,Day,Hour,Minute]
1292,11,WATER HEATER,Water Heater Heat Loss Energy [J] !RunPeriod [Value,Min,Month,Day,Hour,Minute,Max,Month,Day,Hour,Minute]
1306,11,WATER HEATER,Water Heater Heating Energy [J] !RunPeriod [Value,Min,Month,Day,Hour,Minute,Max,Month,Day,Hour,Minute]
1307,11,WATER HEATER,Water Heater Unmet Demand Heat Transfer Energy [J] !RunPeriod [Value,Min,Month,Day,Hour,Minute,Max,Month,Day,Hour,Minute]
1308,11,WATER HEATER,Water Heater Electricity Energy [J] !RunPeriod [Value,Min,Month,Day,Hour,Minute,Max,Month,Day,Hour,Minute]
13,11,Electricity:Facility [J] !RunPeriod [Value,Min,Month,Day,Hour,Minute,Max,Month,Day,Hour,Minute]
1134,11,Heating:Electricity [J] !RunPeriod [Value,Min,Month,Day,Hour,Minute,Max,Month,Day,Hour,Minute]
1096,11,Cooling:Electricity [J] !RunPeriod [Value,Min,Month,Day,Hour,Minute,Max,Month,Day,Hour,Minute]
562,11,Fans:Electricity [J] !RunPeriod [Value,Min,Month,Day,Hour,Minute,Max,Month,Day,Hour,Minute]
1379,11,Pumps:Electricity [J] !RunPeriod [Value,Min,Month,Day,Hour,Minute,Max,Month,Day,Hour,Minute]
1326,11,WaterSystems:Electricity [J] !RunPeriod [Value,Min,Month,Day,Hour,Minute,Max,Month,Day,Hour,Minute]
61,11,InteriorLights:Electricity [J] !RunPeriod [Value,Min,Month,Day,Hour,Minute,Max,Month,Day,Hour,Minute]
1046,11,ExteriorLights:Electricity [J] !RunPeriod [Value,Min,Month,Day,Hour,Minute,Max,Month,Day,Hour,Minute]
134,11,InteriorEquipment:Electricity [J] !RunPeriod [Value,Min,Month,Day,Hour,Minute,Max,Month,Day,Hour,Minute]
170,11,gas_dryer:InteriorEquipment:Electricity [J] !RunPeriod [Value,Min,Month,Day,Hour,Minute,Max,Month,Day,Hour,Minute]
207,11,clotheswasher:InteriorEquipment:Electricity [J] !RunPeriod [Value,Min,Month,Day,Hour,Minute,Max,Month,Day,Hour,Minute]
244,11,dishwasher:InteriorEquipment:Electricity [J] !RunPeriod [Value,Min,Month,Day,Hour,Minute,Max,Month,Day,Hour,Minute]
281,11,refrigerator:InteriorEquipment:Electricity [J] !RunPeriod [Value,Min,Month,Day,Hour,Minute,Max,Month,Day,Hour,Minute]
318,11,electric_mels:InteriorEquipment:Electricity [J] !RunPeriod [Value,Min,Month,Day,Hour,Minute,Max,Month,Day,Hour,Minute]
355,11,NaturalGas:Facility [J] !RunPeriod [Value,Min,Month,Day,Hour,Minute,Max,Month,Day,Hour,Minute]
403,11,InteriorEquipment:NaturalGas [J] !RunPeriod [Value,Min,Month,Day,Hour,Minute,Max,Month,Day,Hour,Minute]
476,11,gas_dryer:InteriorEquipment:NaturalGas [J] !RunPeriod [Value,Min,Month,Day,Hour,Minute,Max,Month,Day,Hour,Minute]
513,11,gas_mels:InteriorEquipment:NaturalGas [J] !RunPeriod [Value,Min,Month,Day,Hour,Minute,Max,Month,Day,Hour,Minute]
End of Data Dictionary
1,EXTREME_WINTER,  39.88, -75.25,  -5.00,   3.10
5,7
1038,0.75,0.0, 1, 6, 1,15,0.25, 1, 9, 6,15
1039,0.0,0.0, 1, 6, 1,15,0.0, 1, 6, 1,15
581,0.410028903748227,0.21290722595768938, 1, 7,18,52,0.6751169033627676, 1, 6,13,60
582,6.319175541948363,0.053655594640989034, 1, 8, 4,60,16.5558763809982, 1, 8,13,60
583,0.04461870202127226,0.0012908327579777522, 1, 7,18,60,0.07432337357885406, 1, 9, 9,52
1115,1557113088.402455,0.0, 1, 6,23, 3,4138768.6062351316, 1, 6,12,15
1128,507799984.785863,0.0, 1, 6,23, 3,1255525.215691073, 1, 6,12,15
1153,5130144.686210338,0.0, 1, 6,23, 3,77051.34970529638, 1, 8, 8,45
1154,45082065.21436417,0.0, 1, 6, 6, 5,180000.0, 1, 7,14,30
1155,247561684.96148798,0.0, 1, 6, 1,15,3708936.001362006, 1,10, 6,45
1156,247561684.96148798,0.0, 1, 6, 1,15,3708936.001362006, 1,10, 6,45
1292,-25368310.046619724,-39779.531665321956, 1, 6, 1,15,-9212.848113848742, 1,10,10,60
1306,227701539.76452073,0.0, 1, 6, 1,15,10313273.037268076, 1,12, 9,45
1307,5362833.212557951,0.0, 1, 6, 1,15,5214321.160616156, 1,12,19,60
1308,227701539.76452073,0.0, 1, 6, 1,15,10313273.037268076, 1,12, 9,45
13,1459299985.4592185,452017.0388981225, 1, 7,15,15,12764899.489125509, 1,12, 9,45
61,301924526.02383536,88139.10953165221, 1, 6, 1,15,1282023.4113694867, 1, 6,20,15
134,70666020.44019976,63564.01800854099, 1, 6, 4,15,156554.22484006523, 1,11,20,15
170,5241013.419656067,348.4159749238097, 1, 6, 4,15,17476.39704006126, 1,11,12,15
207,6509451.13922267,815.2532113832032, 1, 6, 3,15,22990.642799023623, 1,11,10,15
244,12749673.399825225,1521.856143006317, 1, 6, 4,15,53038.631142310165, 1,11,20,15
281,46165882.481495745,59938.60262432081, 1, 6, 5,15,81951.81706819107, 1, 6,19,15
318,0.0,0.0, 1, 6, 1,15,0.0, 1, 6, 1,15
355,197687796.27748066,18561.32405820678, 1, 6, 4,15,724774.895203776, 1,11,18,15
403,197687796.27748066,18561.32405820678, 1, 6, 4,15,724774.895203776, 1,11,18,15
476,106772067.24485716,7098.072629279515, 1, 6, 4,15,356036.3026282215, 1,11,12,15
513,0.0,0.0, 1, 6, 1,15,0.0, 1, 6, 1,15
562,53434019.58273846,0.0, 1, 7,13,30,126904.74386158751, 1, 6, 6,45
1046,0.0,0.0, 1, 6, 1,15,0.0, 1, 6, 1,15
1096,0.0,0.0, 1, 6, 1,15,0.0, 1, 6, 1,15
1134,805573879.6479254,180000.0, 1, 7,13,30,5524915.366805287, 1,10, 6,15
1326,227701539.76452062,0.0, 1, 6, 1,15,10313273.037268076, 1,12, 9,45
1379,0.0,0.0, 1, 6, 1,15,0.0, 1, 6, 1,15
1,EXTREME_SUMMER,  39.88, -75.25,  -5.00,   3.10
5,7
1038,0.0,0.0, 7,20, 1,15,0.0, 7,20, 1,15
1039,34.75,0.0, 7,20, 1,15,0.25, 7,20,13,30
581,0.174235236028179,0.0, 7,21, 7,48,0.41923851389400496, 7,26,10,60
582,4.073678855741224,0.04511009623824016, 7,25, 8, 5,11.479837285207546, 7,26,10,52
583,0.040675016455496045,0.00024560193003918555, 7,24, 6, 7,0.06720810012025943, 7,26,18,48
1115,0.0,0.0, 7,20, 1,15,0.0, 7,20, 1,15
1128,0.0,0.0, 7,20, 1,15,0.0, 7,20, 1,15
1153,0.0,0.0, 7,20, 1,15,0.0, 7,20, 1,15
1154,0.0,0.0, 7,20, 1,15,0.0, 7,20, 1,15
1155,0.0,0.0, 7,20, 1,15,0.0, 7,20, 1,15
1156,0.0,0.0, 7,20, 1,15,0.0, 7,20, 1,15
1292,-21902171.162843086,-34316.250754604815, 7,24,15,30,-3597.789750837609, 7,25, 8,44
1306,161987178.85644865,0.0, 7,20, 1,15,5270400.0, 7,26,19,60
1307,494303.07943404163,0.0, 7,20, 1,15,279918.4900445265, 7,26,19,60
1308,161987178.85644865,0.0, 7,20, 1,15,5270400.0, 7,26,19,60
13,1098068105.3429723,204540.20686045938, 7,24, 4,60,11908077.267131396, 7,26,19,60
61,301924526.02383536,88139.10953165221, 7,20, 1,15,1282023.4113694867, 7,20,20,15
134,70666020.44019976,63564.01800854099, 7,20, 4,15,156554.22484006523, 7,25,20,15
170,5241013.419656067,348.4159749238097, 7,20, 4,15,17476.39704006126, 7,25,12,15
207,6509451.13922267,815.2532113832032, 7,20, 3,15,22990.642799023623, 7,25,10,15
244,12749673.399825225,1521.856143006317, 7,20, 4,15,53038.631142310165, 7,25,20,15
281,46165882.481495745,59938.60262432081, 7,20, 5,15,81951.81706819107, 7,20,19,15
318,0.0,0.0, 7,20, 1,15,0.0, 7,20, 1,15
355,197687796.27748066,18561.32405820678, 7,20, 4,15,724774.895203776, 7,25,18,15
403,197687796.27748066,18561.32405820678, 7,20, 4,15,724774.895203776, 7,25,18,15
476,106772067.24485716,7098.072629279515, 7,20, 4,15,356036.3026282215, 7,25,12,15
513,0.0,0.0, 7,20, 1,15,0.0, 7,20, 1,15
562,54584460.814620525,5805.790354689174, 7,24, 4,60,126904.74386158751, 7,20,11,15
1046,0.0,0.0, 7,20, 1,15,0.0, 7,20, 1,15
1096,508905919.2078681,47031.28896557699, 7,24, 4,60,1348179.334251388, 7,20,16,60
1134,0.0,0.0, 7,20, 1,15,0.0, 7,20, 1,15
1326,161987178.85644865,0.0, 7,20, 1,15,9293682.17576177, 7,26,19,60
1379,0.0,0.0, 7,20, 1,15,0.0, 7,20, 1,15
1,ANNUAL,  39.88, -75.25,  -5.00,   3.10
5,365
1038,10.75,0.0, 1, 1, 1,15,0.25, 1, 3, 6,15
1039,639.25,0.0, 1, 1, 1,15,0.25, 4,26,12,15
581,0.25679864278530995,0.0, 5,21,23, 3,1.6760120695284215, 3, 9,18,52
582,4.7533295046522435,0.0, 1, 1, 6, 5,45.250303106172, 3, 9,18,48
583,0.026490029058159583,0.0, 5,21,23, 3,0.08530014063971976, 1, 2,13,60
1115,18166520880.366554,0.0, 1, 1,23, 5,4197599.9048445765, 1, 6,12,30
1128,5622750331.610312,0.0, 1, 1,23, 5,1259565.4900454856, 3,18, 6,45
1153,106444363.167231,0.0, 1, 1,14,37,115884.05808590347, 1,18, 6,60
1154,1484056908.691229,0.0, 1, 1, 6, 5,180000.0, 1, 7,14,30
1155,1980679767.0218732,0.0, 1, 1, 1, 5,3951825.8625081223, 1,31, 7,60
1156,1980679767.0218732,0.0, 1, 1, 1, 5,3951825.8625081223, 1,31, 7,60
1292,-1215949632.8177319,-39813.46404610176,11,17,23,60,-2605.3607660132952, 6,21,17,30
1306,10293658894.182957,0.0, 1, 1, 1, 5,10540800.0, 3,19,19,60
1307,159569342.60960037,0.0, 1, 1, 1, 5,5445847.70047144, 2, 5,19,60
1308,10293658894.182957,0.0, 1, 1, 1, 5,10540800.0, 3,19,19,60
13,50342205795.42927,151703.1275401932, 3, 6, 4,15,14655165.331656994, 1,29, 9,45
61,15743207428.383959,88139.10953165221, 1, 1, 1,15,1282023.4113694867, 1, 1,20,15
134,3685071073.4325233,63564.01800854099, 1, 2, 4,15,156554.22484006523, 1, 1,20,15
170,273393721.45532674,348.4159749238097, 1, 2, 4,15,17476.39704006126, 1, 1,12,15
207,339560869.0695816,815.2532113832032, 1, 2, 3,15,22990.642799023623, 1, 1,10,15
244,664895467.8009144,1521.856143006317, 1, 2, 4,15,53038.631142310165, 1, 1,20,15
281,2407221015.106824,59938.60262432081, 1, 1, 5,15,81951.81706819107, 1, 1,19,15
318,0.0,0.0, 1, 1, 1,15,0.0, 1, 1, 1,15
355,10310294493.051695,18561.32405820678, 1, 2, 4,15,724774.895203776, 1, 1,18,15
403,10310294493.051695,18561.32405820678, 1, 2, 4,15,724774.895203776, 1, 1,18,15
476,5569688622.066177,7098.072629279515, 1, 2, 4,15,356036.3026282215, 1, 1,12,15
513,0.0,0.0, 1, 1, 1,15,0.0, 1, 1, 1,15
562,1691845838.324467,0.0, 1, 7,13,45,126904.74386158753, 6,21,17,30
1046,0.0,0.0, 1, 1, 1,15,0.0, 1, 1, 1,15
1096,9734491190.612797,0.0, 1, 1, 1,15,1370943.1726440466, 7,19,16,60
1134,9193931370.49063,0.0, 1,15,15,30,5649248.07037146, 1,10, 6,15
1326,10293658894.182985,0.0, 1, 1, 1,15,10540800.0, 3,19,19,60
1379,0.0,0.0, 1, 1, 1,15,0.0, 1, 1, 1,15
End of Data
 Number of Records Written=          99
