Program Version,EnergyPlus, Version 22.2.0-c249759bad, YMD=2023.09.01 14:30
1,5,Environment Title[],Latitude[deg],Longitude[deg],Time Zone[],Elevation[m]
2,8,Day of Simulation[],Month[],Day of Month[],DST Indicator[1=yes 0=no],Hour[],StartMinute[],EndMinute[],DayType
3,5,Cumulative Day of Simulation[],Month[],Day of Month[],DST Indicator[1=yes 0=no],DayType  ! When Daily Report Variables Requested
4,2,Cumulative Days of Simulation[],Month[]  ! When Monthly Report Variables Requested
5,1,Cumulative Days of Simulation[] ! When Run Period Report Variables Requested
6,1,Calendar Year of Simulation[] ! When Annual Report Variables Requested
7,1,Environment,Site Outdoor Air Drybulb Temperature [C] !Hourly
619,1,DX_HEATING_COIL,Heating Coil Heating Rate [W] !Hourly
633,1,DX_HEATING_COIL,Heating Coil Electricity Rate [W] !Hourly
659,1,DX_HEATING_COIL,Heating Coil Defrost Electricity Rate [W] !Hourly
661,1,DX_HEATING_COIL,Heating Coil Crankcase Heater Electricity Rate [W] !Hourly
690,1,FAN,Fan Electricity Rate [W] !Hourly
716,1,HEAT PUMP WATER HEATER FAN,Fan Electricity Rate [W] !Hourly
718,1,LIVING,Zone Mean Air Temperature [C] !Hourly
719,1,ATTIC,Zone Mean Air Temperature [C] !Hourly
720,1,CRAWLSPACE,Zone Mean Air Temperature [C] !Hourly
843,1,LIVING,Zone Predicted Sensible Load to Heating Setpoint Heat Transfer Rate [W] !Hourly
844,1,LIVING,Zone System Predicted Sensible Load to Heating Setpoint Heat Transfer Rate [W] !Hourly
907,1,ATTIC,Zone Predicted Sensible Load to Heating Setpoint Heat Transfer Rate [W] !Hourly
908,1,ATTIC,Zone System Predicted Sensible Load to Heating Setpoint Heat Transfer Rate [W] !Hourly
971,1,CRAWLSPACE,Zone Predicted Sensible Load to Heating Setpoint Heat Transfer Rate [W] !Hourly
972,1,CRAWLSPACE,Zone System Predicted Sensible Load to Heating Setpoint Heat Transfer Rate [W] !Hourly
1195,1,HEATING_RESISTANCE_BACKUP,Heating Coil Heating Rate [W] !Hourly
1197,1,HEATING_RESISTANCE_BACKUP,Heating Coil Electricity Rate [W] !Hourly
End of Data Dictionary
1,EXTREME_WINTER,  43.20, -71.50,  -5.00, 105.50
2,1, 1,18, 0, 1, 0.00,60.00,Monday
7,-2.0
718,18.754046949981642
719,-0.2213182049772065
720,17.234259158372186
619,2047.1359345215815
633,668.3680653407133
659,23.684025826766046
661,87.32584254080098
690,72.4834163471844
716,0.0
843,1334.3479976908166
844,1334.3479976908166
907,0.0
908,0.0
971,0.0
972,0.0
1195,0.0
1197,0.0
2,1, 1,18, 0, 2, 0.00,60.00,Monday
7,-2.2
718,18.607262449409866
719,0.09377315177602136
720,16.729801963790685
619,2436.392240034271
633,792.2919797431814
659,37.34111498722643
661,64.48983930538543
690,86.96428081961464
716,0.0
843,1588.0707489498018
844,1588.0707489498018
907,0.0
908,0.0
971,0.0
972,0.0
1195,0.0
1197,0.0
2,1, 1,18, 0, 3, 0.00,60.00,Monday
7,-3.0
718,18.543649568105295
719,0.4309964069771766
720,16.451583514644394
619,3084.7920275619135
633,994.5532181771829
659,63.45696883206634
661,24.559544062618222
690,112.10426242502741
716,0.0
843,1997.140820941917
844,1997.140820941917
907,0.0
908,0.0
971,0.0
972,0.0
1195,0.0
1197,0.0
2,1, 1,18, 0, 4, 0.00,60.00,Monday
7,-3.0
718,18.573251944552617
719,0.9075817832929474
720,16.180723704839476
619,3471.1058410862724
633,1103.518049501692
659,70.52374536076982
661,5.021918502778577
690,124.58927048257894
716,0.0
843,2256.3274549957023
844,2256.3274549957023
907,0.0
908,0.0
971,0.0
972,0.0
1195,0.0
1197,0.0
2,1, 1,18, 0, 5, 0.00,60.00,Monday
7,-2.8
718,18.59677364515193
719,0.9350055336003188
720,15.95478709991504
619,3564.649346086022
633,1126.275820410552
659,71.3519603042383
661,1.4967310863204686
690,126.89470364195067
716,0.0
843,2330.992607362541
844,2330.992607362541
907,0.0
908,0.0
971,0.0
972,0.0
1195,0.0
1197,0.0
2,1, 1,18, 0, 6, 0.00,60.00,Monday
7,-2.0
718,19.383181550102194
719,1.3046292355243567
720,15.75096631022701
619,3691.2101383703093
633,1132.8616073149085
659,79.05456104641418
661,0.0
690,129.50702977412638
716,0.0
843,3278.78682768388
844,3278.78682768388
907,0.0
908,0.0
971,0.0
972,0.0
1195,1029.9928413073312
1197,1029.9928413073312
2,1, 1,18, 0, 7, 0.00,60.00,Monday
7,-1.0
718,19.56992201957851
719,2.0858521806538426
720,15.600332593982841
619,3746.721419278835
633,1149.9050226206618
659,86.2463130278522
661,0.0
690,129.50702977412638
716,85.44000000000004
843,3019.8653491322293
844,3019.8653491322293
907,0.0
908,0.0
971,0.0
972,0.0
1195,1952.4242607900032
1197,1952.4242607900032
2,1, 1,18, 0, 8, 0.00,60.00,Monday
7,-0.6
718,19.657632493809178
719,2.954502269909727
720,15.431671634363179
619,3734.9335412615674
633,1142.6923805587767
659,96.97027395256828
661,0.0
690,129.50702977412638
716,85.44000000000004
843,2752.667510618692
844,2752.667510618692
907,0.0
908,0.0
971,0.0
972,0.0
1195,1687.8173795311172
1197,1687.8173795311172
2,1, 1,18, 0, 9, 0.00,60.00,Monday
7,1.0
718,19.708899164652955
719,3.5047889273656483
720,15.288723168828852
619,3872.9635017524993
633,1152.8854497734853
659,102.35525500777804
661,0.0
690,129.50702977412638
716,5.35931542550881
843,2535.0688128667134
844,2535.0688128667134
907,0.0
908,0.0
971,0.0
972,0.0
1195,21.511580705267534
1197,21.511580705267534
2,1, 1,18, 0,10, 0.00,60.00,Monday
7,1.0
718,19.74094099759395
719,5.286850725182536
720,15.134091625236731
619,3328.8455765271115
633,1017.4036358899306
659,90.24345887827178
661,23.666193061774642
690,112.96636890764745
716,0.0
843,2229.8479064468647
844,2229.8479064468647
907,0.0
908,0.0
971,0.0
972,0.0
1195,0.0
1197,0.0
2,1, 1,18, 0,11, 0.00,60.00,Monday
7,0.6
718,19.75890847192008
719,6.996022973505543
720,14.979302378658042
619,2305.720472930814
633,732.0426490431404
659,60.76038953995966
661,73.71833924251455
690,80.89763509371686
716,0.0
843,1583.817882373125
844,1583.817882373125
907,0.0
908,0.0
971,0.0
972,0.0
1195,0.0
1197,0.0
2,1, 1,18, 0,12, 0.00,60.00,Monday
7,2.0
718,19.870049404832894
719,10.248937143056612
720,14.842804379644507
619,1060.507787561384
633,340.97354272152967
659,27.885857585868212
661,141.95222089592724
690,37.28246718920998
716,0.0
843,751.1710679901262
844,751.1710679901262
907,0.0
908,0.0
971,0.0
972,0.0
1195,0.0
1197,0.0
2,1, 1,18, 0,13, 0.00,60.00,Monday
7,5.0
718,19.50971818970555
719,9.627694027785035
720,14.733497913296137
619,122.35120560722665
633,38.425272838295946
659,2.4366786407692187
661,193.7921814097944
690,4.009437637425846
716,0.0
843,89.37774563953826
844,89.37774563953826
907,0.0
908,0.0
971,0.0
972,0.0
1195,0.0
1197,0.0
2,1, 1,18, 0,14, 0.00,60.00,Monday
7,5.0
718,18.83914242945292
719,9.493405553322402
720,14.679872119871773
619,0.0
633,0.0
659,0.0
661,200.0
690,0.0
716,73.91816152688318
843,-54.0038680617472
844,-54.0038680617472
907,0.0
908,0.0
971,0.0
972,0.0
1195,0.0
1197,0.0
2,1, 1,18, 0,15, 0.00,60.00,Monday
7,6.1
718,20.271772826731116
719,9.850959735929864
720,14.649584219236047
619,0.0
633,0.0
659,0.0
661,200.0
690,0.0
716,0.0
843,-530.126275589435
844,-530.126275589435
907,0.0
908,0.0
971,0.0
972,0.0
1195,0.0
1197,0.0
2,1, 1,18, 0,16, 0.00,60.00,Monday
7,5.0
718,21.055306849635787
719,9.501177299892573
720,14.632018557642107
619,0.0
633,0.0
659,0.0
661,200.0
690,0.0
716,0.0
843,-994.0353374318329
844,-994.0353374318329
907,0.0
908,0.0
971,0.0
972,0.0
1195,0.0
1197,0.0
2,1, 1,18, 0,17, 0.00,60.00,Monday
7,5.0
718,20.904979513644506
719,7.7178634609739785
720,14.619126523258076
619,0.0
633,0.0
659,0.0
661,200.0
690,0.0
716,0.0
843,-864.6826723111753
844,-864.6826723111753
907,0.0
908,0.0
971,0.0
972,0.0
1195,0.0
1197,0.0
2,1, 1,18, 0,18, 0.00,60.00,Monday
7,2.2
718,20.09966223401747
719,4.785032768795458
720,14.611267248109758
619,0.0
633,0.0
659,0.0
661,200.0
690,0.0
716,0.0
843,-262.8684406472403
844,-262.8684406472403
907,0.0
908,0.0
971,0.0
972,0.0
1195,0.0
1197,0.0
2,1, 1,18, 0,19, 0.00,60.00,Monday
7,1.7
718,19.817643754402788
719,3.462448011021629
720,14.66482875162868
619,2061.079038767446
633,650.3529729483537
659,0.030760027056210032
661,101.38813997112514
690,63.85432137790772
716,85.44000000000004
843,284.48213831430803
844,284.48213831430803
907,0.0
908,0.0
971,0.0
972,0.0
1195,0.0
1197,0.0
2,1, 1,18, 0,20, 0.00,60.00,Monday
7,1.7
718,19.733515099756367
719,3.0640948815027453
720,14.619259585488654
619,2427.1594675529823
633,753.4688880067937
659,0.03583254945879266
661,85.12642250765418
690,74.38430208175093
716,85.44000000000004
843,560.2649923303034
844,560.2649923303034
907,0.0
908,0.0
971,0.0
972,0.0
1195,0.0
1197,0.0
2,1, 1,18, 0,21, 0.00,60.00,Monday
7,-0.6
718,19.894069724111553
719,1.9476741950366534
720,14.540227953586149
619,1766.4612811418003
633,578.9049078158259
659,0.028141017435344782
661,109.78427725914162
690,58.41740532573159
716,40.60547704604763
843,676.6150590212164
844,676.6150590212164
907,0.0
908,0.0
971,0.0
972,0.0
1195,0.0
1197,0.0
2,1, 1,18, 0,22, 0.00,60.00,Monday
7,-1.1
718,19.49887269144254
719,0.5285562230128247
720,14.45678324747935
619,1334.4316150170757
633,448.3806112230348
659,0.0218227628071404
661,130.0396183836708
690,45.30143265387728
716,0.0
843,875.8634212527086
844,875.8634212527086
907,0.0
908,0.0
971,0.0
972,0.0
1195,0.0
1197,0.0
2,1, 1,18, 0,23, 0.00,60.00,Monday
7,-1.1
718,18.83808775505477
719,0.08438922658582655
720,14.365239058148198
619,1279.6199224652205
633,426.4668887928025
659,0.020918704034910085
661,132.93789012257858
690,43.42471602771998
716,0.0
843,830.805934261633
844,830.805934261633
907,0.0
908,0.0
971,0.0
972,0.0
1195,0.0
1197,0.0
2,1, 1,18, 0,24, 0.00,60.00,Monday
7,-2.8
718,18.696876848969353
719,-0.5185039102122578
720,14.275453145024349
619,1991.9787974335866
633,659.4597437435898
659,0.033253661781774586
661,93.39393508726211
690,69.0304595298139
716,0.0
843,1264.4822566206894
844,1264.4822566206894
907,0.0
908,0.0
971,0.0
972,0.0
1195,0.0
1197,0.0
2,2, 1,19, 0, 1, 0.00,60.00,Tuesday
7,-2.8
718,18.64746227590315
719,-0.737960213602431
720,14.186323279837241
619,2748.108077560794
633,886.6682743638567
659,0.04484476095875534
661,56.23467487164169
690,93.09213830920423
716,0.0
843,1768.8064609409848
844,1768.8064609409848
907,0.0
908,0.0
971,0.0
972,0.0
1195,0.0
1197,0.0
2,2, 1,19, 0, 2, 0.00,60.00,Tuesday
7,-2.8
718,18.590366687344705
719,-0.7908482978116279
720,14.088749860337817
619,3308.3600299495965
633,1048.9794048175377
659,0.05311586239944294
661,29.718810758022673
690,110.26191508128314
716,0.0
843,2116.16387101243
844,2116.16387101243
907,0.0
908,0.0
971,0.0
972,0.0
1195,0.0
1197,0.0
2,2, 1,19, 0, 3, 0.00,60.00,Tuesday
7,-3.9
718,18.559902451236567
719,-0.961000856994051
720,13.981020476354251
619,3837.6431759581105
633,1219.0863156323508
659,0.06238605994695383
661,0.0
690,129.50702977412638
716,0.0
843,2477.726758400615
844,2477.726758400615
907,0.0
908,0.0
971,0.0
972,0.0
1195,63.178138880598
1197,63.178138880598
2,2, 1,19, 0, 4, 0.00,60.00,Tuesday
7,-6.1
718,18.592233880140785
719,-1.9541955491526615
720,13.852318324272478
619,3566.321568647683
633,1183.8716148555727
659,9.199397638564283
661,0.0
690,129.50702977412638
716,0.0
843,2964.2603096188996
844,2964.2603096188996
907,0.0
908,0.0
971,0.0
972,0.0
1195,928.5717799330953
1197,928.5717799330953
2,2, 1,19, 0, 5, 0.00,60.00,Tuesday
7,-6.1
718,18.60329116994038
719,-2.933742907011487
720,13.744511523064809
619,3565.8327658293324
633,1184.4360459772774
659,9.199397638564283
661,0.0
690,129.50702977412638
716,0.0
843,3030.3651541476993
844,3030.3651541476993
907,0.0
908,0.0
971,0.0
972,0.0
1195,1072.5899233303485
1197,1072.5899233303485
2,2, 1,19, 0, 6, 0.00,60.00,Tuesday
7,-6.1
718,19.39296660162503
719,-3.0289816312488447
720,13.630775109986592
619,3565.757452071397
633,1184.5446656361214
659,9.195750998399577
661,0.0
690,129.50702977412638
716,0.0
843,4128.924881662138
844,4128.924881662138
907,0.0
908,0.0
971,0.0
972,0.0
1195,2444.850161897747
1197,2444.850161897747
2,2, 1,19, 0, 7, 0.00,60.00,Tuesday
7,-7.2
718,19.57356695089998
719,-2.833476850353125
720,13.54828968647723
619,3399.7767774784843
633,1178.489937783785
659,18.809799460114586
661,0.0
690,129.50702977412638
716,85.44000000000004
843,4135.160077019125
844,4135.160077019125
907,0.0
908,0.0
971,0.0
972,0.0
1195,3906.975745244706
1197,3906.975745244706
2,2, 1,19, 0, 8, 0.00,60.00,Tuesday
7,-7.2
718,19.65638327180397
719,-2.8064113579964585
720,13.441338387561855
619,3396.315122207982
633,1182.4448189414272
659,18.809799460114586
661,0.0
690,129.50702977412638
716,85.44000000000004
843,3906.5417295804345
844,3906.5417295804345
907,0.0
908,0.0
971,0.0
972,0.0
1195,3719.208494881285
1197,3719.208494881285
2,2, 1,19, 0, 9, 0.00,60.00,Tuesday
7,-7.8
718,19.68232846444814
719,-1.094085476971919
720,13.334571908560504
619,3304.4799303646714
633,1167.433725190671
659,26.761718326698464
661,0.0
690,129.50702977412638
716,85.44000000000004
843,3363.168160941059
844,3363.168160941059
907,0.0
908,0.0
971,0.0
972,0.0
1195,3169.827303381928
1197,3169.827303381928
2,2, 1,19, 0,10, 0.00,60.00,Tuesday
7,-3.9
718,19.714555719179668
719,2.119770547196472
720,13.265118552432579
619,3810.855899325867
633,1242.3655322201998
659,1.3500920723337657
661,0.0
690,129.50702977412638
716,20.272717687515538
843,2189.2729064889627
844,2189.2729064889627
907,0.0
908,0.0
971,0.0
972,0.0
1195,147.8658866602027
1197,147.8658866602027
2,2, 1,19, 0,11, 0.00,60.00,Tuesday
7,-3.9
718,19.81454843075618
719,5.371473851421178
720,13.126196014580783
619,2464.028213037029
633,836.8116044252185
659,0.9086547367645923
661,65.39366382710566
690,87.13985827916699
716,0.0
843,1560.561495211885
844,1560.561495211885
907,0.0
908,0.0
971,0.0
972,0.0
1195,0.0
1197,0.0
2,2, 1,19, 0,12, 0.00,60.00,Tuesday
7,-1.1
718,19.83823379152192
719,8.117489646624469
720,13.036511233888882
619,1374.4179789211364
633,459.43300622150855
659,0.022432755589260136
661,128.0840764480576
690,46.56770467419109
716,0.0
843,938.3022616192702
844,938.3022616192702
907,0.0
908,0.0
971,0.0
972,0.0
1195,0.0
1197,0.0
2,2, 1,19, 0,13, 0.00,60.00,Tuesday
7,-1.1
718,19.792229915735664
719,9.903083613506809
720,12.980915355393408
619,773.5704231883288
633,263.29257691818094
659,0.012849659453141888
661,158.80599138952576
690,26.674348747984045
716,0.0
843,553.0437275102195
844,553.0437275102195
907,0.0
908,0.0
971,0.0
972,0.0
1195,0.0
1197,0.0
2,2, 1,19, 0,14, 0.00,60.00,Tuesday
7,-1.1
718,19.741899658554903
719,10.124563946918794
720,12.948954120977316
619,370.9929362802506
633,127.63598867177932
659,0.0062346195003129415
661,180.01278008063287
690,12.942320828285522
716,0.0
843,272.69458657580435
844,272.69458657580435
907,0.0
908,0.0
971,0.0
972,0.0
1195,0.0
1197,0.0
2,2, 1,19, 0,15, 0.00,60.00,Tuesday
7,0.0
718,19.815556981167127
719,9.270730081326668
720,12.949513849811293
619,359.07793906443294
633,120.9508269236984
659,0.0058578352442002456
661,181.22069177254951
690,12.16017783110453
716,0.0
843,267.4956335852512
844,267.4956335852512
907,0.0
908,0.0
971,0.0
972,0.0
1195,0.0
1197,0.0
2,2, 1,19, 0,16, 0.00,60.00,Tuesday
7,0.6
718,19.935642747442643
719,8.144047228134111
720,12.952083807354335
619,367.90572428039013
633,122.78439471823266
659,0.005906735450969019
661,181.06392531924135
690,12.261697208083797
716,0.0
843,257.96244852615746
844,257.96244852615746
907,0.0
908,0.0
971,0.0
972,0.0
1195,0.0
1197,0.0
2,2, 1,19, 0,17, 0.00,60.00,Tuesday
7,0.6
718,19.741047658314013
719,5.887284702161711
720,12.958939012107308
619,400.13631976667614
633,133.80840484919196
659,0.006422061133402579
661,179.41187137362678
690,13.331453462656345
716,0.0
843,289.6430634980352
844,289.6430634980352
907,0.0
908,0.0
971,0.0
972,0.0
1195,0.0
1197,0.0
2,2, 1,19, 0,18, 0.00,60.00,Tuesday
7,-1.1
718,19.521313552329982
719,3.7048887824962042
720,13.04354945502887
619,1946.08261279474
633,638.6227703077136
659,0.03123593418096001
661,99.8624557873359
690,64.84204571925004
716,65.80909146030608
843,592.7804282520701
844,592.7804282520701
907,0.0
908,0.0
971,0.0
972,0.0
1195,0.0
1197,0.0
2,2, 1,19, 0,19, 0.00,60.00,Tuesday
7,-1.1
718,19.76605904958412
719,1.5290119892618976
720,12.980652295360409
619,1297.7003640475414
633,431.61736748679203
659,0.02119686956287833
661,132.04613472656618
690,44.002154352714214
716,0.0
843,874.2294570892973
844,874.2294570892973
907,0.0
908,0.0
971,0.0
972,0.0
1195,0.0
1197,0.0
2,2, 1,19, 0,20, 0.00,60.00,Tuesday
7,-1.1
718,19.636741128268653
719,1.428816194990839
720,13.05645049752712
619,2969.7907193695864
633,947.5124759875241
659,0.046328702398377296
661,51.47738953936161
690,96.1728187633331
716,85.44000000000004
843,843.5461177090965
844,843.5461177090965
907,0.0
908,0.0
971,0.0
972,0.0
1195,0.0
1197,0.0
2,2, 1,19, 0,21, 0.00,60.00,Tuesday
7,-1.1
718,19.667413974000212
719,1.299881511193133
720,13.00364873641306
619,3137.0273862739036
633,993.2683594086252
659,0.04868521722176893
661,43.92276972398825
690,101.06466087814181
716,85.44000000000004
843,959.1498393649672
844,959.1498393649672
907,0.0
908,0.0
971,0.0
972,0.0
1195,0.0
1197,0.0
2,2, 1,19, 0,22, 0.00,60.00,Tuesday
7,-1.7
718,19.672838407219054
719,1.4627477478637159
720,12.956088525697027
619,3062.7825494679428
633,982.4043269428058
659,4.7707653786311415
661,43.869127367720395
690,101.01086073489262
716,62.73784853727912
843,1283.5169255980945
844,1283.5169255980945
907,0.0
908,0.0
971,0.0
972,0.0
1195,0.0
1197,0.0
2,2, 1,19, 0,23, 0.00,60.00,Tuesday
7,-1.7
718,18.878329874223628
719,0.5715810116163992
720,12.797767660517314
619,1261.6002614386687
633,426.3935879360855
659,2.069860629144893
661,132.26052412824436
690,43.82491455060519
716,0.0
843,796.4777452584949
844,796.4777452584949
907,0.0
908,0.0
971,0.0
972,0.0
1195,0.0
1197,0.0
2,2, 1,19, 0,24, 0.00,60.00,Tuesday
7,-1.7
718,18.655220867205518
719,0.5915963360586737
720,12.760956910271409
619,1828.8161813566805
633,596.0724284340848
659,2.942201885525388
661,103.79748551778994
690,62.23961555943571
716,0.0
843,1190.430185472911
844,1190.430185472911
907,0.0
908,0.0
971,0.0
972,0.0
1195,0.0
1197,0.0
2,3, 1,20, 0, 1, 0.00,60.00,Wednesday
7,-2.2
718,18.26273342649904
719,0.04354299632505241
720,12.73168205871642
619,3146.486442698474
633,990.2474969734856
659,0.049963035812648035
661,39.82628216902606
690,103.71712109300977
716,0.0
843,2054.1297654806713
844,2054.1297654806713
907,0.0
908,0.0
971,0.0
972,0.0
1195,0.0
1197,0.0
2,3, 1,20, 0, 2, 0.00,60.00,Wednesday
7,-2.2
718,18.472209029301933
719,0.37187765996236294
720,12.67361412406171
619,4033.7533077297085
633,1226.826003166533
659,0.06238605994695383
661,0.0
690,129.50702977412638
716,0.0
843,2853.3642378109453
844,2853.3642378109453
907,0.0
908,0.0
971,0.0
972,0.0
1195,283.2636757579194
1197,283.2636757579194
2,3, 1,20, 0, 3, 0.00,60.00,Wednesday
7,-3.3
718,18.5692586343442
719,0.32926963808749515
720,12.601475153826655
619,3907.456659795124
633,1220.4023117074435
659,0.06238605994695383
661,0.0
690,129.50702977412638
716,0.0
843,2778.4465257961783
844,2778.4465257961783
907,0.0
908,0.0
971,0.0
972,0.0
1195,318.201842102696
1197,318.201842102696
2,3, 1,20, 0, 4, 0.00,60.00,Wednesday
7,-3.9
718,18.597254404207177
719,-0.5090883656557584
720,12.522058128363692
619,3839.891312292007
633,1216.4517208980583
659,0.06238605994695383
661,0.0
690,129.50702977412638
716,0.0
843,3018.0337135368463
844,3018.0337135368463
907,0.0
908,0.0
971,0.0
972,0.0
1195,688.3649931069676
1197,688.3649931069676
2,3, 1,20, 0, 5, 0.00,60.00,Wednesday
7,-3.9
718,18.60534563966707
719,-0.6046817798388923
720,12.442599542156385
619,3839.422959847387
633,1217.0004962952041
659,0.06238605994695383
661,0.0
690,129.50702977412638
716,0.0
843,3001.863446391535
844,3001.863446391535
907,0.0
908,0.0
971,0.0
972,0.0
1195,716.3556658899124
1197,716.3556658899124
2,3, 1,20, 0, 6, 0.00,60.00,Wednesday
7,-5.6
718,19.272076055226346
719,-1.4086981241231296
720,12.345803442989263
619,3645.8287258376195
633,1196.3322905477444
659,2.72043362685998
661,0.0
690,129.50702977412638
716,74.28217368837693
843,4698.050160285678
844,4698.050160285678
907,0.0
908,0.0
971,0.0
972,0.0
1195,3903.1294127287215
1197,3903.1294127287215
2,3, 1,20, 0, 7, 0.00,60.00,Wednesday
7,-6.1
718,19.541030949079936
719,-1.172073131703511
720,12.296413053658569
619,3520.949831540585
633,1186.7079796465964
659,17.546041577444797
661,0.0
690,129.50702977412638
716,85.44000000000004
843,4331.637672172303
844,4331.637672172303
907,0.0
908,0.0
971,0.0
972,0.0
1195,3971.1296559295843
1197,3971.1296559295843
2,3, 1,20, 0, 8, 0.00,60.00,Wednesday
7,-6.1
718,19.640722364478055
719,-1.3050910935658708
720,12.221411058122793
619,3515.6866295239984
633,1192.7878728463709
659,17.546041577444797
661,0.0
690,129.50702977412638
716,75.46047129346965
843,4069.727375030552
844,4069.727375030552
907,0.0
908,0.0
971,0.0
972,0.0
1195,3556.4306132388992
1197,3556.4306132388992
2,3, 1,20, 0, 9, 0.00,60.00,Wednesday
7,-8.3
718,19.694678374778402
719,-2.4795953246343636
720,12.124761725131474
619,3346.903791027092
633,1192.2798313289143
659,2.5971802400975217
661,0.0
690,129.50702977412638
716,0.0
843,4142.990723168825
844,4142.990723168825
907,0.0
908,0.0
971,0.0
972,0.0
1195,2736.7694540477996
1197,2736.7694540477996
2,3, 1,20, 0,10, 0.00,60.00,Wednesday
7,-7.8
718,19.717906196183606
719,-1.3179010636674466
720,12.066674497594374
619,3406.210028674908
633,1201.9675086153009
659,0.06238605994695383
661,0.0
690,129.50702977412638
716,0.0
843,3000.818809508186
844,3000.818809508186
907,0.0
908,0.0
971,0.0
972,0.0
1195,1376.2187626396376
1197,1376.2187626396376
2,3, 1,20, 0,11, 0.00,60.00,Wednesday
7,-7.8
718,19.71999880181694
719,-0.0010956196881487452
720,12.014685859319322
619,3405.8171033301164
633,1202.4132929202365
659,0.06238605994695383
661,0.0
690,129.50702977412638
716,0.0
843,2485.8880225564553
844,2485.8880225564553
907,0.0
908,0.0
971,0.0
972,0.0
1195,689.9260895263606
1197,689.9260895263606
2,3, 1,20, 0,12, 0.00,60.00,Wednesday
7,-7.2
718,19.725295657629932
719,0.06362630847141608
720,11.990939094990441
619,3467.4249771061695
633,1208.6478793701754
659,0.06238605994695383
661,0.0
690,129.50702977412638
716,0.0
843,2054.967244423002
844,2054.967244423002
907,0.0
908,0.0
971,0.0
972,0.0
1195,36.157068140430965
1197,36.157068140430965
2,3, 1,20, 0,13, 0.00,60.00,Wednesday
7,-7.2
718,19.752526816773116
719,1.781448532246609
720,11.950998374235077
619,3031.3333065407096
633,1071.700862033107
659,0.0553083280940546
661,22.690106921056863
690,114.81243819715874
716,0.0
843,1764.1907801728776
844,1764.1907801728776
907,0.0
908,0.0
971,0.0
972,0.0
1195,0.0
1197,0.0
2,3, 1,20, 0,14, 0.00,60.00,Wednesday
7,-7.2
718,19.75441125404298
719,1.5451297398026302
720,11.93147071793657
619,2661.063774206865
633,952.7986322602843
659,0.04914532568702061
661,42.44773358404639
690,102.01889745489899
716,0.0
843,1606.843032306062
844,1606.843032306062
907,0.0
908,0.0
971,0.0
972,0.0
1195,0.0
1197,0.0
2,3, 1,20, 0,15, 0.00,60.00,Wednesday
7,-7.8
718,19.76292184220155
719,2.590854212297085
720,11.971227088861667
619,3101.1242462546334
633,1106.6573687149535
659,0.05738072755784775
661,16.046316736021037
690,119.11433020929186
716,74.94044618328631
843,1078.670916779276
844,1078.670916779276
907,0.0
908,0.0
971,0.0
972,0.0
1195,0.0
1197,0.0
2,3, 1,20, 0,16, 0.00,60.00,Wednesday
7,-7.8
718,19.681224130930023
719,-1.0584432725671067
720,11.994296590108643
619,3405.0122959113514
633,1203.326310668129
659,0.06238605994695383
661,0.0
690,129.50702977412638
716,85.44000000000004
843,1729.281327083334
844,1729.281327083334
907,0.0
908,0.0
971,0.0
972,0.0
1195,703.0415624512189
1197,703.0415624512189
2,3, 1,20, 0,17, 0.00,60.00,Wednesday
7,-7.8
718,19.70717894797515
719,-2.5758973610370517
720,11.990340254171128
619,3406.620527166071
633,1201.501767551178
659,0.06238605994695383
661,0.0
690,129.50702977412638
716,8.614567957481295
843,2165.3065149758822
844,2165.3065149758822
907,0.0
908,0.0
971,0.0
972,0.0
1195,398.3988309591434
1197,398.3988309591434
2,3, 1,20, 0,18, 0.00,60.00,Wednesday
7,-8.9
718,19.715889005655093
719,-3.280044269619315
720,11.976818261106935
619,3294.7564799173792
633,1190.6059889372068
659,0.06238605994695383
661,0.0
690,129.50702977412638
716,0.0
843,2061.7081453504916
844,2061.7081453504916
907,0.0
908,0.0
971,0.0
972,0.0
1195,353.47648460625646
1197,353.47648460625646
2,3, 1,20, 0,19, 0.00,60.00,Wednesday
7,-8.9
718,19.717493455431498
719,-4.113488742120527
720,11.943692559247392
619,3294.600077525201
633,1190.7809998152468
659,0.06238605994695383
661,0.0
690,129.50702977412638
716,0.0
843,2232.347361717624
844,2232.347361717624
907,0.0
908,0.0
971,0.0
972,0.0
1195,596.4780528337005
1197,596.4780528337005
2,3, 1,20, 0,20, 0.00,60.00,Wednesday
7,-8.9
718,19.694607575381806
719,-4.0217875062356025
720,11.891970570113736
619,3294.608660856117
633,1190.7713953767354
659,0.06238605994695383
661,0.0
690,129.50702977412638
716,85.44000000000004
843,2370.1036496840534
844,2370.1036496840534
907,0.0
908,0.0
971,0.0
972,0.0
1195,2051.5890007678013
1197,2051.5890007678013
2,3, 1,20, 0,21, 0.00,60.00,Wednesday
7,-10.0
718,19.702060568054513
719,-4.349889583829494
720,11.81881656166481
619,3185.640605467661
633,1178.4303017881696
659,0.13981898258024922
661,0.0
690,129.50702977412638
716,85.44000000000004
843,2730.6356340998755
844,2730.6356340998755
907,0.0
908,0.0
971,0.0
972,0.0
1195,2577.4347096873976
1197,2577.4347096873976
2,3, 1,20, 0,22, 0.00,60.00,Wednesday
7,-10.6
718,19.70735155524559
719,-4.747935170626832
720,11.744843995339346
619,3127.161876785647
633,1172.167234544927
659,0.06238605994695383
661,0.0
690,129.50702977412638
716,36.40364315630007
843,3140.5512949211516
844,3140.5512949211516
907,0.0
908,0.0
971,0.0
972,0.0
1195,2403.936103757515
1197,2403.936103757515
2,3, 1,20, 0,23, 0.00,60.00,Wednesday
7,-10.6
718,18.93281952748349
719,-5.109682097532237
720,11.668758120522345
619,3127.147492641035
633,1172.1829394213867
659,0.06238605994695383
661,0.0
690,129.50702977412638
716,0.0
843,2481.9628746490234
844,2481.9628746490234
907,0.0
908,0.0
971,0.0
972,0.0
1195,1149.484501657315
1197,1149.484501657315
2,3, 1,20, 0,24, 0.00,60.00,Wednesday
7,-10.6
718,18.70458619443509
719,-5.41404124472793
720,11.53926251159747
619,3114.061210289512
633,1144.9821882538486
659,8.216008457489274
661,0.0
690,129.50702977412638
716,0.0
843,3072.9339463738324
844,3072.9339463738324
907,0.0
908,0.0
971,0.0
972,0.0
1195,1839.4142329391289
1197,1839.4142329391289
2,4, 1,21, 0, 1, 0.00,60.00,Thursday
7,-10.0
718,18.625367238372608
719,-6.862174670776319
720,11.435720655320617
619,3205.9241649626897
633,1156.4325266556943
659,0.06238605994695383
661,0.0
690,129.50702977412638
716,0.0
843,4430.6760127340585
844,4430.6760127340585
907,0.0
908,0.0
971,0.0
972,0.0
1195,3384.678424273773
1197,3384.678424273773
2,4, 1,21, 0, 2, 0.00,60.00,Thursday
7,-10.0
718,18.6072839548883
719,-6.908110068721456
720,11.328411367695493
619,3207.5937012065942
633,1154.5844891943223
659,0.06238605994695383
661,0.0
690,129.50702977412638
716,0.0
843,4806.882498989724
844,4806.882498989724
907,0.0
908,0.0
971,0.0
972,0.0
1195,3932.365923669638
1197,3932.365923669638
2,4, 1,21, 0, 3, 0.00,60.00,Thursday
7,-10.6
718,18.60174344559183
719,-6.664718677196902
720,11.222183821926116
619,3149.2471514446156
633,1147.9838317285278
659,0.06238605994695383
661,0.0
690,129.50702977412638
716,0.0
843,4395.706774667364
844,4395.706774667364
907,0.0
908,0.0
971,0.0
972,0.0
1195,3473.041743814865
1197,3473.041743814865
2,4, 1,21, 0, 4, 0.00,60.00,Thursday
7,-11.1
718,18.601484671886276
719,-7.380181528487912
720,11.106575091471507
619,3101.0103961007053
633,1142.5484240962892
659,0.06238605994695383
661,0.0
690,129.50702977412638
716,0.0
843,4897.014026624849
844,4897.014026624849
907,0.0
908,0.0
971,0.0
972,0.0
1195,4136.499032676695
1197,4136.499032676695
2,4, 1,21, 0, 5, 0.00,60.00,Thursday
7,-11.1
718,18.597656919265457
719,-7.467970756522797
720,10.998086175766911
619,3101.154369229095
633,1142.391483266857
659,0.06238605994695383
661,0.0
690,129.50702977412638
716,0.0
843,4916.05807457753
844,4916.05807457753
907,0.0
908,0.0
971,0.0
972,0.0
1195,4182.831160192098
1197,4182.831160192098
2,4, 1,21, 0, 6, 0.00,60.00,Thursday
7,-12.2
718,19.408941251402553
719,-7.129537070032548
720,10.88351475007176
619,2996.147614770597
633,1130.7433482045274
659,0.06238605994695383
661,0.0
690,129.50702977412638
716,0.0
843,5894.875174848148
844,5894.875174848148
907,0.0
908,0.0
971,0.0
972,0.0
1195,5503.323730523794
1197,5503.323730523794
2,4, 1,21, 0, 7, 0.00,60.00,Thursday
7,-13.3
718,19.327590154841097
719,-6.959770908240219
720,10.809627406231549
619,2877.5817337751755
633,1135.2675417800126
659,0.06238605994695383
661,0.0
690,129.50702977412638
716,85.44000000000004
843,5727.8162017459545
844,5727.8162017459545
907,0.0
908,0.0
971,0.0
972,0.0
1195,6055.418994476594
1197,6055.418994476594
2,4, 1,21, 0, 8, 0.00,60.00,Thursday
7,-13.3
718,19.55258685652039
719,-6.951434719542386
720,10.69585279302375
619,2879.244920640405
633,1133.5305299530282
659,0.06238605994695383
661,0.0
690,129.50702977412638
716,85.44000000000004
843,5229.9098520849875
844,5229.9098520849875
907,0.0
908,0.0
971,0.0
972,0.0
1195,6055.418994476594
1197,6055.418994476594
2,4, 1,21, 0, 9, 0.00,60.00,Thursday
7,-12.2
718,19.651165600564198
719,-3.456542398200525
720,10.623575903025712
619,2977.989568556514
633,1150.1351757321988
659,0.06238605994695383
661,0.0
690,129.50702977412638
716,85.44000000000004
843,4060.312350566288
844,4060.312350566288
907,0.0
908,0.0
971,0.0
972,0.0
1195,4454.884338047725
1197,4454.884338047725
2,4, 1,21, 0,10, 0.00,60.00,Thursday
7,-10.0
718,19.705243773809887
719,-4.271458311476067
720,10.558578124853883
619,3188.4249936190695
633,1175.7638688771199
659,0.06238605994695383
661,0.0
690,129.50702977412638
716,18.274751037505656
843,3427.254534533835
844,3427.254534533835
907,0.0
908,0.0
971,0.0
972,0.0
1195,2411.51077520979
1197,2411.51077520979
2,4, 1,21, 0,11, 0.00,60.00,Thursday
7,-10.0
718,19.714948304515044
719,-3.182245754266176
720,10.50988089913258
619,3187.4353300103953
633,1176.8548947842207
659,0.06238605994695383
661,0.0
690,129.50702977412638
716,0.0
843,2794.2713954133305
844,2794.2713954133305
907,0.0
908,0.0
971,0.0
972,0.0
1195,1474.0112443384387
1197,1474.0112443384387
2,4, 1,21, 0,12, 0.00,60.00,Thursday