Program Version,EnergyPlus, Version 22.2.0-c249759bad, YMD=2023.09.01 20:21
1,5,Environment Title[],Latitude[deg],Longitude[deg],Time Zone[],Elevation[m]
2,8,Day of Simulation[],Month[],Day of Month[],DST Indicator[1=yes 0=no],Hour[],StartMinute[],EndMinute[],DayType
3,5,Cumulative Day of Simulation[],Month[],Day of Month[],DST Indicator[1=yes 0=no],DayType  ! When Daily Report Variables Requested
4,2,Cumulative Days of Simulation[],Month[]  ! When Monthly Report Variables Requested
5,1,Cumulative Days of Simulation[] ! When Run Period Report Variables Requested
6,1,Calendar Year of Simulation[] ! When Annual Report Variables Requested
581,11,LIVING,AFN Zone Infiltration Air Change Rate [ach] !RunPeriod [Value,Min,Month,Day,Hour,Minute,Max,Month,Day,Hour,Minute]
582,11,ATTIC,AFN Zone Infiltration Air Change Rate [ach] !RunPeriod [Value,Min,Month,Day,Hour,Minute,Max,Month,Day,Hour,Minute]
583,11,CRAWLSPACE,AFN Zone Infiltration Air Change Rate [ach] !RunPeriod [Value,Min,Month,Day,Hour,Minute,Max,Month,Day,Hour,Minute]
1038,11,Facility,Facility Heating Setpoint Not Met Time [hr] !RunPeriod [Value,Min,Month,Day,Hour,Minute,Max,Month,Day,Hour,Minute]
1039,11,Facility,Facility Cooling Setpoint Not Met Time [hr] !RunPeriod [Value,Min,Month,Day,Hour,Minute,Max,Month,Day,Hour,Minute]
1115,11,DX_HEATING_COIL,Heating Coil Heating Energy [J] !RunPeriod [Value,Min,Month,Day,Hour,Minute,Max,Month,Day,Hour,Minute]
1128,11,DX_HEATING_COIL,Heating Coil Electricity Energy [J] !RunPeriod [Value,Min,Month,Day,Hour,Minute,Max,Month,Day,Hour,Minute]
1153,11,DX_HEATING_COIL,Heating Coil Defrost Electricity Energy [J] !RunPeriod [Value,Min,Month,Day,Hour,Minute,Max,Month,Day,Hour,Minute]
1154,11,DX_HEATING_COIL,Heating Coil Crankcase Heater Electricity Energy [J] !RunPeriod [Value,Min,Month,Day,Hour,Minute,Max,Month,Day,Hour,Minute]
1155,11,HEATING_RESISTANCE_BACKUP,Heating Coil Heating Energy [J] !RunPeriod [Value,Min,Month,Day,Hour,Minute,Max,Month,Day,Hour,Minute]
1156,11,HEATING_RESISTANCE_BACKUP,Heating Coil Electricity Energy [J] !RunPeriod [Value,Min,Month,Day,Hour,Minute,Max,Month,Day,Hour,Minute]
1292,11,WATER HEATER,Water Heater Heat Loss Energy [J] !RunPeriod [Value,Min,Month,Day,Hour,Minute,Max,Month,Day,Hour,Minute]
1306,11,WATER HEATER,Water Heater Heating Energy [J] !RunPeriod [Value,Min,Month,Day,Hour,Minute,Max,Month,Day,Hour,Minute]
1307,11,WATER HEATER,Water Heater Unmet Demand Heat Transfer Energy [J] !RunPeriod [Value,Min,Month,Day,Hour,Minute,Max,Month,Day,Hour,Minute]
1308,11,WATER HEATER,Water Heater Electricity Energy [J] !RunPeriod [Value,Min,Month,Day,Hour,Minute,Max,Month,Day,Hour,Minute]
13,11,Electricity:Facility [J] !RunPeriod [Value,Min,Month,Day,Hour,Minute,Max,Month,Day,Hour,Minute]
1134,11,Heating:Electricity [J] !RunPeriod [Value,Min,Month,Day,Hour,Minute,Max,Month,Day,Hour,Minute]
1096,11,Cooling:Electricity [J] !RunPeriod [Value,Min,Month,Day,Hour,Minute,Max,Month,Day,Hour,Minute]
562,11,Fans:Electricity [J] !RunPeriod [Value,Min,Month,Day,Hour,Minute,Max,Month,Day,Hour,Minute]
1379,11,Pumps:Electricity [J] !RunPeriod [Value,Min,Month,Day,Hour,Minute,Max,Month,Day,Hour,Minute]
1326,11,WaterSystems:Electricity [J] !RunPeriod [Value,Min,Month,Day,Hour,Minute,Max,Month,Day,Hour,Minute]
61,11,InteriorLights:Electricity [J] !RunPeriod [Value,Min,Month,Day,Hour,Minute,Max,Month,Day,Hour,Minute]
1046,11,ExteriorLights:Electricity [J] !RunPeriod [Value,Min,Month,Day,Hour,Minute,Max,Month,Day,Hour,Minute]
134,11,InteriorEquipment:Electricity [J] !RunPeriod [Value,Min,Month,Day,Hour,Minute,Max,Month,Day,Hour,Minute]
170,11,gas_dryer:InteriorEquipment:Electricity [J] !RunPeriod [Value,Min,Month,Day,Hour,Minute,Max,Month,Day,Hour,Minute]
207,11,clotheswasher:InteriorEquipment:Electricity [J] !RunPeriod [Value,Min,Month,Day,Hour,Minute,Max,Month,Day,Hour,Minute]
244,11,dishwasher:InteriorEquipment:Electricity [J] !RunPeriod [Value,Min,Month,Day,Hour,Minute,Max,Month,Day,Hour,Minute]
281,11,refrigerator:InteriorEquipment:Electricity [J] !RunPeriod [Value,Min,Month,Day,Hour,Minute,Max,Month,Day,Hour,Minute]
318,11,electric_mels:InteriorEquipment:Electricity [J] !RunPeriod [Value,Min,Month,Day,Hour,Minute,Max,Month,Day,Hour,Minute]
355,11,NaturalGas:Facility [J] !RunPeriod [Value,Min,Month,Day,Hour,Minute,Max,Month,Day,Hour,Minute]
403,11,InteriorEquipment:NaturalGas [J] !RunPeriod [Value,Min,Month,Day,Hour,Minute,Max,Month,Day,Hour,Minute]
476,11,gas_dryer:InteriorEquipment:NaturalGas [J] !RunPeriod [Value,Min,Month,Day,Hour,Minute,Max,Month,Day,Hour,Minute]
513,11,gas_mels:InteriorEquipment:NaturalGas [J] !RunPeriod [Value,Min,Month,Day,Hour,Minute,Max,Month,Day,Hour,Minute]
End of Data Dictionary
1,EXTREME_WINTER,  35.06, -89.99,  -6.00,  77.40
5,7
1038,0.5,0.0, 1, 6, 1,15,0.25, 1, 8, 6,15
1039,0.0,0.0, 1, 6, 1,15,0.0, 1, 6, 1,15
581,0.3600763851958007,0.14855935194844974, 1,11,23,15,0.9721981343082343, 1, 7,13,60
582,3.579230972183397,0.0, 1, 6, 1,15,15.378688030680989, 1, 7,13,60
583,0.03843482920722702,0.000293485715810124, 1,10,23,15,0.08433508978286948, 1, 7,13,60
1115,1368672110.940164,0.0, 1, 6,11, 6,4137887.993976103, 1, 7,11,15
1128,444378474.8145675,0.0, 1, 6,11, 6,1275212.0636171752, 1, 7,11,15
1153,5870751.3819942335,0.0, 1, 6,11, 6,87443.66059130803, 1,12,15,60
1154,55450089.13169042,0.0, 1, 6, 6, 5,180000.0, 1, 6,13,15
1155,301913213.5215484,0.0, 1, 6, 1,15,4085652.898642837, 1, 8, 6,60
1156,301913213.5215484,0.0, 1, 6, 1,15,4085652.898642837, 1, 8, 6,60
1292,-25237820.29456785,-39774.07282660027, 1, 6, 1,15,-4245.637669865878, 1,10,11,59
1306,116743474.21604833,0.0, 1, 6, 1,15,4050000.0, 1, 6, 7,15
1307,19743702.946895763,0.0, 1, 6, 1,15,6139629.482306145, 1, 6, 6,60
1308,116743474.21604833,0.0, 1, 6, 1,15,4050000.0, 1, 6, 7,15
13,1343812827.490339,452017.0388981225, 1, 6,15,15,8438106.257990792, 1, 8, 8,60
61,301924526.02383536,88139.10953165221, 1, 6, 1,15,1282023.4113694867, 1, 6,20,15
134,70666020.44019976,63564.01800854099, 1, 6, 4,15,156554.22484006523, 1,11,20,15
170,5241013.419656067,348.4159749238097, 1, 6, 4,15,17476.39704006126, 1,11,12,15
207,6509451.13922267,815.2532113832032, 1, 6, 3,15,22990.642799023623, 1,11,10,15
244,12749673.399825225,1521.856143006317, 1, 6, 4,15,53038.631142310165, 1,11,20,15
281,46165882.481495745,59938.60262432081, 1, 6, 5,15,81951.81706819107, 1, 6,19,15
318,0.0,0.0, 1, 6, 1,15,0.0, 1, 6, 1,15
355,197687796.27748066,18561.32405820678, 1, 6, 4,15,724774.895203776, 1,11,18,15
403,197687796.27748066,18561.32405820678, 1, 6, 4,15,724774.895203776, 1,11,18,15
476,106772067.24485716,7098.072629279515, 1, 6, 4,15,356036.3026282215, 1,11,12,15
513,0.0,0.0, 1, 6, 1,15,0.0, 1, 6, 1,15
562,46757650.46944879,0.0, 1, 6,11,30,128622.49315834744, 1, 6, 6,45
1046,0.0,0.0, 1, 6, 1,15,0.0, 1, 6, 1,15
1096,108627.49100815911,0.0, 1, 6, 1,15,32277.284812893045, 1, 6,17,15
1134,807612528.8498011,172857.67056355166, 1, 6,17,15,5771423.818663484, 1, 8, 6,15
1326,116743474.21604836,0.0, 1, 6, 1,15,4050000.0, 1, 6, 7,15
1379,0.0,0.0, 1, 6, 1,15,0.0, 1, 6, 1,15
1,EXTREME_SUMMER,  35.06, -89.99,  -6.00,  77.40
5,7
1038,0.0,0.0, 8, 3, 1,15,0.0, 8, 3, 1,15
1039,59.25,0.0, 8, 3, 1,15,0.25, 8, 3,13,60
581,0.11818456296143706,0.0, 8, 6,20,37,0.5354556245352049, 8, 6,16,47
582,3.073266019828396,0.2307594125158199, 8, 6,20,45,9.315341394723056, 8, 6,16,47
583,0.04259498522086442,0.000008383178552479941, 8, 6,23, 3,0.07042342065173862, 8, 6,16,47
1115,0.0,0.0, 8, 3, 1,15,0.0, 8, 3, 1,15
1128,0.0,0.0, 8, 3, 1,15,0.0, 8, 3, 1,15
1153,0.0,0.0, 8, 3, 1,15,0.0, 8, 3, 1,15
1154,0.0,0.0, 8, 3, 1,15,0.0, 8, 3, 1,15
1155,0.0,0.0, 8, 3, 1,15,0.0, 8, 3, 1,15
1156,0.0,0.0, 8, 3, 1,15,0.0, 8, 3, 1,15
1292,-21695804.30290157,-34341.98942500233, 8, 5, 7,15,-2711.381783350086, 8, 8,17,47
1306,80852811.56661344,0.0, 8, 3, 1,15,3657038.678097838, 8, 3, 7,15
1307,4303103.827997421,0.0, 8, 3, 1,15,2741117.0509128594, 8, 3, 6,60
1308,80852811.56661344,0.0, 8, 3, 1,15,3657038.678097838, 8, 3, 7,15
13,1094685420.2946463,283967.0047087935, 8, 8, 4,60,6037738.778256854, 8, 3,19,30
61,301924526.02383536,88139.10953165221, 8, 3, 1,15,1282023.4113694867, 8, 3,20,15
134,70666020.44019976,63564.01800854099, 8, 3, 4,15,156554.22484006523, 8, 8,20,15
170,5241013.419656067,348.4159749238097, 8, 3, 4,15,17476.39704006126, 8, 8,12,15
207,6509451.13922267,815.2532113832032, 8, 3, 3,15,22990.642799023623, 8, 8,10,15
244,12749673.399825225,1521.856143006317, 8, 3, 4,15,53038.631142310165, 8, 8,20,15
281,46165882.481495745,59938.60262432081, 8, 3, 5,15,81951.81706819107, 8, 3,19,15
318,0.0,0.0, 8, 3, 1,15,0.0, 8, 3, 1,15
355,197687796.27748066,18561.32405820678, 8, 3, 4,15,724774.895203776, 8, 8,18,15
403,197687796.27748066,18561.32405820678, 8, 3, 4,15,724774.895203776, 8, 8,18,15
476,106772067.24485716,7098.072629279515, 8, 3, 4,15,356036.3026282215, 8, 8,12,15
513,0.0,0.0, 8, 3, 1,15,0.0, 8, 3, 1,15
562,58337056.62650869,12633.56304237789, 8, 8, 5,60,128622.49315834747, 8, 6,15,60
1046,0.0,0.0, 8, 3, 1,15,0.0, 8, 3, 1,15
1096,582905005.6374893,107148.22930714532, 8, 8, 5,60,1416274.9499834133, 8, 9,16,60
1134,0.0,0.0, 8, 3, 1,15,0.0, 8, 3, 1,15
1326,80852811.56661347,0.0, 8, 3, 1,15,3657038.678097838, 8, 3, 7,15
1379,0.0,0.0, 8, 3, 1,15,0.0, 8, 3, 1,15
1,ANNUAL,  35.06, -89.99,  -6.00,  77.40
5,365
1038,7.25,0.0, 1, 1, 1,15,0.25, 1, 1, 6,15
1039,1073.75,0.0, 1, 1, 1,15,0.25, 3, 3,11,15
581,0.22463674725707775,0.0, 5,23,23, 3,1.045585551542665, 8,14,18,46
582,3.9017937900807507,0.0, 1, 1, 5,15,22.56762418905257, 8,14,18,46
583,0.02791106746770999,0.0, 5,23,23, 3,0.08800728186228582, 8,14,18,46
1115,10527668855.81415,0.0, 1, 1,23, 5,4423366.942222745, 3, 8, 7,15
1128,3188422797.3567696,0.0, 1, 1,23, 5,1278034.4870890758, 3, 8, 6,60
1153,119288832.34054923,0.0, 1, 1,12, 5,106897.58015603105,12,27, 6,45
1154,1107118110.8172462,0.0, 1, 1, 6, 5,180000.0, 1, 2,23,15
1155,595556493.6727145,0.0, 1, 1, 1,15,4238718.945948462, 1, 8, 6,60
1156,595556493.6727145,0.0, 1, 1, 1,15,4238718.945948462, 1, 8, 6,60
1292,-1193018735.8979893,-39770.89111237986, 1, 1, 1,15,-2147.105060709363, 6,30,11,30
1306,5211544274.803563,0.0, 1, 1, 1,15,4050000.0, 1, 2, 7,15
1307,632575656.9819251,0.0, 1, 1, 1,15,6287225.867494367, 1,23, 6,60
1308,5211544274.803563,0.0, 1, 1, 1,15,4050000.0, 1, 2, 7,15
13,44924687653.236946,151703.1275401932, 2, 3, 4,15,8819472.068238763, 2,13, 7,15
61,15743207428.383959,88139.10953165221, 1, 1, 1,15,1282023.4113694867, 1, 1,20,15
134,3685071073.4325233,63564.01800854099, 1, 2, 4,15,156554.22484006523, 1, 1,20,15
170,273393721.45532674,348.4159749238097, 1, 2, 4,15,17476.39704006126, 1, 1,12,15
207,339560869.0695816,815.2532113832032, 1, 2, 3,15,22990.642799023623, 1, 1,10,15
244,664895467.8009144,1521.856143006317, 1, 2, 4,15,53038.631142310165, 1, 1,20,15
281,2407221015.106824,59938.60262432081, 1, 1, 5,15,81951.81706819107, 1, 1,19,15
318,0.0,0.0, 1, 1, 1,15,0.0, 1, 1, 1,15
355,10310294493.051695,18561.32405820678, 1, 2, 4,15,724774.895203776, 1, 1,18,15
403,10310294493.051695,18561.32405820678, 1, 2, 4,15,724774.895203776, 1, 1,18,15
476,5569688622.066177,7098.072629279515, 1, 2, 4,15,356036.3026282215, 1, 1,12,15
513,0.0,0.0, 1, 1, 1,15,0.0, 1, 1, 1,15
562,1807646305.880363,0.0, 1, 1,23,15,128622.49315834747, 7,30, 9,45
1046,0.0,0.0, 1, 1, 1,15,0.0, 1, 1, 1,15
1096,13466832336.546879,0.0, 1, 1, 1,15,1475492.9733563575, 7,30,16,60
1134,5010386234.187289,0.0, 1, 3,13,45,5768486.674661589, 1, 8, 6,15
1326,5211544274.803557,0.0, 1, 1, 1,15,4050000.0, 1, 2, 7,15
1379,0.0,0.0, 1, 1, 1,15,0.0, 1, 1, 1,15
End of Data
 Number of Records Written=          99
