Program Version,EnergyPlus, Version 22.2.0-c249759bad, YMD=2023.09.01 20:29
1,5,Environment Title[],Latitude[deg],Longitude[deg],Time Zone[],Elevation[m]
2,8,Day of Simulation[],Month[],Day of Month[],DST Indicator[1=yes 0=no],Hour[],StartMinute[],EndMinute[],DayType
3,5,Cumulative Day of Simulation[],Month[],Day of Month[],DST Indicator[1=yes 0=no],DayType  ! When Daily Report Variables Requested
4,2,Cumulative Days of Simulation[],Month[]  ! When Monthly Report Variables Requested
5,1,Cumulative Days of Simulation[] ! When Run Period Report Variables Requested
6,1,Calendar Year of Simulation[] ! When Annual Report Variables Requested
581,11,LIVING,AFN Zone Infiltration Air Change Rate [ach] !RunPeriod [Value,Min,Month,Day,Hour,Minute,Max,Month,Day,Hour,Minute]
582,11,ATTIC,AFN Zone Infiltration Air Change Rate [ach] !RunPeriod [Value,Min,Month,Day,Hour,Minute,Max,Month,Day,Hour,Minute]
583,11,CRAWLSPACE,AFN Zone Infiltration Air Change Rate [ach] !RunPeriod [Value,Min,Month,Day,Hour,Minute,Max,Month,Day,Hour,Minute]
1038,11,Facility,Facility Heating Setpoint Not Met Time [hr] !RunPeriod [Value,Min,Month,Day,Hour,Minute,Max,Month,Day,Hour,Minute]
1039,11,Facility,Facility Cooling Setpoint Not Met Time [hr] !RunPeriod [Value,Min,Month,Day,Hour,Minute,Max,Month,Day,Hour,Minute]
1115,11,DX_HEATING_COIL,Heating Coil Heating Energy [J] !RunPeriod [Value,Min,Month,Day,Hour,Minute,Max,Month,Day,Hour,Minute]
1128,11,DX_HEATING_COIL,Heating Coil Electricity Energy [J] !RunPeriod [Value,Min,Month,Day,Hour,Minute,Max,Month,Day,Hour,Minute]
1153,11,DX_HEATING_COIL,Heating Coil Defrost Electricity Energy [J] !RunPeriod [Value,Min,Month,Day,Hour,Minute,Max,Month,Day,Hour,Minute]
1154,11,DX_HEATING_COIL,Heating Coil Crankcase Heater Electricity Energy [J] !RunPeriod [Value,Min,Month,Day,Hour,Minute,Max,Month,Day,Hour,Minute]
1155,11,HEATING_RESISTANCE_BACKUP,Heating Coil Heating Energy [J] !RunPeriod [Value,Min,Month,Day,Hour,Minute,Max,Month,Day,Hour,Minute]
1156,11,HEATING_RESISTANCE_BACKUP,Heating Coil Electricity Energy [J] !RunPeriod [Value,Min,Month,Day,Hour,Minute,Max,Month,Day,Hour,Minute]
1292,11,WATER HEATER,Water Heater Heat Loss Energy [J] !RunPeriod [Value,Min,Month,Day,Hour,Minute,Max,Month,Day,Hour,Minute]
1306,11,WATER HEATER,Water Heater Heating Energy [J] !RunPeriod [Value,Min,Month,Day,Hour,Minute,Max,Month,Day,Hour,Minute]
1307,11,WATER HEATER,Water Heater Unmet Demand Heat Transfer Energy [J] !RunPeriod [Value,Min,Month,Day,Hour,Minute,Max,Month,Day,Hour,Minute]
1308,11,WATER HEATER,Water Heater Electricity Energy [J] !RunPeriod [Value,Min,Month,Day,Hour,Minute,Max,Month,Day,Hour,Minute]
13,11,Electricity:Facility [J] !RunPeriod [Value,Min,Month,Day,Hour,Minute,Max,Month,Day,Hour,Minute]
1134,11,Heating:Electricity [J] !RunPeriod [Value,Min,Month,Day,Hour,Minute,Max,Month,Day,Hour,Minute]
1096,11,Cooling:Electricity [J] !RunPeriod [Value,Min,Month,Day,Hour,Minute,Max,Month,Day,Hour,Minute]
562,11,Fans:Electricity [J] !RunPeriod [Value,Min,Month,Day,Hour,Minute,Max,Month,Day,Hour,Minute]
1379,11,Pumps:Electricity [J] !RunPeriod [Value,Min,Month,Day,Hour,Minute,Max,Month,Day,Hour,Minute]
1326,11,WaterSystems:Electricity [J] !RunPeriod [Value,Min,Month,Day,Hour,Minute,Max,Month,Day,Hour,Minute]
61,11,InteriorLights:Electricity [J] !RunPeriod [Value,Min,Month,Day,Hour,Minute,Max,Month,Day,Hour,Minute]
1046,11,ExteriorLights:Electricity [J] !RunPeriod [Value,Min,Month,Day,Hour,Minute,Max,Month,Day,Hour,Minute]
134,11,InteriorEquipment:Electricity [J] !RunPeriod [Value,Min,Month,Day,Hour,Minute,Max,Month,Day,Hour,Minute]
170,11,gas_dryer:InteriorEquipment:Electricity [J] !RunPeriod [Value,Min,Month,Day,Hour,Minute,Max,Month,Day,Hour,Minute]
207,11,clotheswasher:InteriorEquipment:Electricity [J] !RunPeriod [Value,Min,Month,Day,Hour,Minute,Max,Month,Day,Hour,Minute]
244,11,dishwasher:InteriorEquipment:Electricity [J] !RunPeriod [Value,Min,Month,Day,Hour,Minute,Max,Month,Day,Hour,Minute]
281,11,refrigerator:InteriorEquipment:Electricity [J] !RunPeriod [Value,Min,Month,Day,Hour,Minute,Max,Month,Day,Hour,Minute]
318,11,electric_mels:InteriorEquipment:Electricity [J] !RunPeriod [Value,Min,Month,Day,Hour,Minute,Max,Month,Day,Hour,Minute]
355,11,NaturalGas:Facility [J] !RunPeriod [Value,Min,Month,Day,Hour,Minute,Max,Month,Day,Hour,Minute]
403,11,InteriorEquipment:NaturalGas [J] !RunPeriod [Value,Min,Month,Day,Hour,Minute,Max,Month,Day,Hour,Minute]
476,11,gas_dryer:InteriorEquipment:NaturalGas [J] !RunPeriod [Value,Min,Month,Day,Hour,Minute,Max,Month,Day,Hour,Minute]
513,11,gas_mels:InteriorEquipment:NaturalGas [J] !RunPeriod [Value,Min,Month,Day,Hour,Minute,Max,Month,Day,Hour,Minute]
End of Data Dictionary
1,EXTREME_WINTER,  41.73, -71.43,  -5.00,  19.00
5,7
1038,1.0,0.0, 1,27, 1,15,0.25, 1,29, 6,15
1039,0.0,0.0, 1,27, 1,15,0.0, 1,27, 1,15
581,0.4088335092943304,0.19862153173912853, 1,27,20,60,1.1024506840311283, 1,29,16,60
582,5.799778453302031,0.0, 1,27,19,52,24.98767029594397, 1,29,13,60
583,0.04820003619894752,0.00031384145534142546, 1,27,24,15,0.07979299215852528, 1,29,16,52
1115,1590971359.4954765,0.0, 1,27,11,35,3865243.790786523, 1,27, 6,45
1128,544328908.2196549,0.0, 1,27,11,35,1188446.5893377855, 1,27, 6,45
1153,3894825.704510109,0.0, 1,27,11,35,55747.742870727794, 1,28,14,60
1154,35582964.4442935,0.0, 1,27, 6, 5,180000.0, 1,27,13,60
1155,648381795.9382662,0.0, 1,27, 1,15,5672612.040061441, 1,30, 6,45
1156,648381795.9382662,0.0, 1,27, 1,15,5672612.040061441, 1,30, 6,45
1292,-25281598.619282693,-39610.98334609859, 1,27, 1,45,-6352.650174673608, 1,30,10,33
1306,190661514.08969173,0.0, 1,27, 1,15,4050000.0, 1,27, 8,45
1307,39315088.4209113,0.0, 1,27, 1,15,5040390.388511399, 2, 1,10,22
1308,190661514.08969173,0.0, 1,27, 1,15,4050000.0, 1,27, 8,45
13,1853666221.9373977,452017.0388981225, 1,27,15,15,9188884.495819286, 1,31, 8,30
61,301924526.02383536,88139.10953165221, 1,27, 1,15,1282023.4113694867, 1,27,20,15
134,70666020.44019976,63564.01800854099, 1,27, 4,15,156554.22484006523, 2, 1,20,15
170,5241013.419656067,348.4159749238097, 1,27, 4,15,17476.39704006126, 2, 1,12,15
207,6509451.13922267,815.2532113832032, 1,27, 3,15,22990.642799023623, 2, 1,10,15
244,12749673.399825225,1521.856143006317, 1,27, 4,15,53038.631142310165, 2, 1,20,15
281,46165882.481495745,59938.60262432081, 1,27, 5,15,81951.81706819107, 1,27,19,15
318,0.0,0.0, 1,27, 1,15,0.0, 1,27, 1,15
355,197687796.27748066,18561.32405820678, 1,27, 4,15,724774.895203776, 2, 1,18,15
403,197687796.27748066,18561.32405820678, 1,27, 4,15,724774.895203776, 2, 1,18,15
476,106772067.24485716,7098.072629279515, 1,27, 4,15,356036.3026282215, 2, 1,12,15
513,0.0,0.0, 1,27, 1,15,0.0, 1,27, 1,15
562,58225667.07694454,0.0, 1,27,11,45,122861.22834414644, 1,30,10,60
1046,0.0,0.0, 1,27, 1,15,0.0, 1,27, 1,15
1096,0.0,0.0, 1,27, 1,15,0.0, 1,27, 1,15
1134,1232188494.3067238,180000.0, 1,27,11,45,6779729.6550208535, 1,29, 6,15
1326,190661514.08969176,0.0, 1,27, 1,15,4050000.0, 1,27, 8,45
1379,0.0,0.0, 1,27, 1,15,0.0, 1,27, 1,15
1,EXTREME_SUMMER,  41.73, -71.43,  -5.00,  19.00
5,7
1038,0.0,0.0, 7,13, 1,15,0.0, 7,13, 1,15
1039,32.75,0.0, 7,13, 1,15,0.25, 7,13,17,30
581,0.1521251870732112,0.0033197174352095605, 7,19,21,60,0.9872112490461645, 7,19,16,48
582,3.8639724582540085,0.0646047882889703, 7,19,20,15,22.65683996266381, 7,19,16,46
583,0.03565887143095666,0.00010770613369740849, 7,13, 6,15,0.07764624494927673, 7,19,16,46
1115,0.0,0.0, 7,13, 1, 7,0.0, 7,13, 1, 7
1128,0.0,0.0, 7,13, 1, 7,0.0, 7,13, 1, 7
1153,0.0,0.0, 7,13, 1, 7,0.0, 7,13, 1, 7
1154,0.0,0.0, 7,13, 1, 7,0.0, 7,13, 1, 7
1155,0.0,0.0, 7,13, 1, 7,0.0, 7,13, 1, 7
1156,0.0,0.0, 7,13, 1, 7,0.0, 7,13, 1, 7
1292,-21950826.043482315,-34311.212648538385, 7,13,22,60,-3139.7572891180844, 7,19,15,16
1306,144473027.0961397,0.0, 7,13, 1, 7,3968992.84124286, 7,19, 9,45
1307,21117391.36690581,0.0, 7,13, 1, 7,1608906.2547358193, 7,19, 9,30
1308,144473027.0961397,0.0, 7,13, 1, 7,3968992.84124286, 7,19, 9,45
13,1020726610.2830244,151703.1275401932, 7,13, 4,15,6162021.434320876, 7,19,20,60
61,301924526.02383536,88139.10953165221, 7,13, 1,15,1282023.4113694867, 7,13,20,15
134,70666020.44019976,63564.01800854099, 7,13, 4,15,156554.22484006523, 7,18,20,15
170,5241013.419656067,348.4159749238097, 7,13, 4,15,17476.39704006126, 7,18,12,15
207,6509451.13922267,815.2532113832032, 7,13, 3,15,22990.642799023623, 7,18,10,15
244,12749673.399825225,1521.856143006317, 7,13, 4,15,53038.631142310165, 7,18,20,15
281,46165882.481495745,59938.60262432081, 7,13, 5,15,81951.81706819107, 7,13,19,15
318,0.0,0.0, 7,13, 1,15,0.0, 7,13, 1,15
355,197687796.27748066,18561.32405820678, 7,13, 4,15,724774.895203776, 7,18,18,15
403,197687796.27748066,18561.32405820678, 7,13, 4,15,724774.895203776, 7,18,18,15
476,106772067.24485716,7098.072629279515, 7,13, 4,15,356036.3026282215, 7,18,12,15
513,0.0,0.0, 7,13, 1,15,0.0, 7,13, 1,15
562,48619088.93688207,0.0, 7,13, 4,15,122861.22834414645, 7,19,12,30
1046,0.0,0.0, 7,13, 1,15,0.0, 7,13, 1,15
1096,455043947.7859679,0.0, 7,13, 4,15,1325963.5782938725, 7,18,14,60
1134,0.0,0.0, 7,13, 1,15,0.0, 7,13, 1,15
1326,144473027.09613964,0.0, 7,13, 1,15,4050000.0, 7,13, 8,45
1379,0.0,0.0, 7,13, 1,15,0.0, 7,13, 1,15
1,ANNUAL,  41.73, -71.43,  -5.00,  19.00
5,365
1038,24.75,0.0, 1, 1, 1,15,0.25, 1, 3, 6,15
1039,306.75,0.0, 1, 1, 1,15,0.25, 4,25,11,45
581,0.26760577399848207,0.0, 4,26, 5,37,1.2205986684798695, 8,28,11,60
582,4.337753853796256,0.0, 1, 7,22,60,26.742815555776016, 8,28, 7,60
583,0.025700323953016392,0.0, 7,28,23, 7,0.08603709018580635, 2,10,21,60
1115,25909693752.442177,0.0, 1, 1,23, 5,4200900.033252,12,24, 2,15
1128,8017970559.989962,0.0, 1, 1,23, 5,1238240.8795313693,12,24, 6,60
1153,239574577.50490507,0.0, 1, 1,23, 5,124052.49344040491, 2,25, 6,45
1154,1517716154.2958915,0.0, 1, 1, 4,60,180000.0, 1, 4,15,45
1155,3900060728.180547,0.0, 1, 1, 1,15,5672612.040061441, 1,30, 6,30
1156,3900060728.180547,0.0, 1, 1, 1,15,5672612.040061441, 1,30, 6,30
1292,-1233312801.5879552,-40695.57584829701, 1,18, 8,60,-2524.19292260224,10,14,10,31
1306,8715034615.27159,0.0, 1, 1, 1,15,4050000.0, 1, 2, 8,45
1307,1531013391.2038603,0.0, 1, 1, 1,15,10094360.032224234, 2,16,10,30
1308,8715034615.27159,0.0, 1, 1, 1,15,4050000.0, 1, 2, 8,45
13,50336855508.79782,151703.1275401932, 4,18, 4,15,10580402.201971445, 1,30, 8,45
61,15743207428.383959,88139.10953165221, 1, 1, 1,15,1282023.4113694867, 1, 1,20,15
134,3685071073.4325233,63564.01800854099, 1, 2, 4,15,156554.22484006523, 1, 1,20,15
170,273393721.45532674,348.4159749238097, 1, 2, 4,15,17476.39704006126, 1, 1,12,15
207,339560869.0695816,815.2532113832032, 1, 2, 3,15,22990.642799023623, 1, 1,10,15
244,664895467.8009144,1521.856143006317, 1, 2, 4,15,53038.631142310165, 1, 1,20,15
281,2407221015.106824,59938.60262432081, 1, 1, 5,15,81951.81706819107, 1, 1,19,15
318,0.0,0.0, 1, 1, 1,15,0.0, 1, 1, 1,15
355,10310294493.051695,18561.32405820678, 1, 2, 4,15,724774.895203776, 1, 1,18,15
403,10310294493.051695,18561.32405820678, 1, 2, 4,15,724774.895203776, 1, 1,18,15
476,5569688622.066177,7098.072629279515, 1, 2, 4,15,356036.3026282215, 1, 1,12,15
513,0.0,0.0, 1, 1, 1,15,0.0, 1, 1, 1,15
562,1649107063.3801076,0.0, 1, 4,15,45,122861.22834414645, 7,10,14,15
1046,0.0,0.0, 1, 1, 1,15,0.0, 1, 1, 1,15
1096,6869113308.356411,0.0, 1, 1, 1,15,1328187.7694531216, 7,18,14,60
1134,13675322019.97129,0.0, 1,25,23,15,6779632.876229463, 1,29, 6,30
1326,8715034615.271572,0.0, 1, 1, 1,15,4050000.0000000014, 5, 8, 8,45
1379,0.0,0.0, 1, 1, 1,15,0.0, 1, 1, 1,15
End of Data
 Number of Records Written=          99
