Program Version,EnergyPlus, Version 9.5.0-de239b2e5f, YMD=2022.08.10 16:06
1,5,Environment Title[],Latitude[deg],Longitude[deg],Time Zone[],Elevation[m]
2,8,Day of Simulation[],Month[],Day of Month[],DST Indicator[1=yes 0=no],Hour[],StartMinute[],EndMinute[],DayType
3,5,Cumulative Day of Simulation[],Month[],Day of Month[],DST Indicator[1=yes 0=no],DayType  ! When Daily Report Variables Requested
4,2,Cumulative Days of Simulation[],Month[]  ! When Monthly Report Variables Requested
5,1,Cumulative Days of Simulation[] ! When Run Period Report Variables Requested
6,1,Calendar Year of Simulation[] ! When Annual Report Variables Requested
191,1,UNHEATEDBSMT_UNIT1,Zone Windows Total Transmitted Solar Radiation Rate [W] !Hourly
192,1,UNHEATEDBSMT_UNIT1,Zone Windows Total Transmitted Solar Radiation Energy [J] !Hourly
193,1,UNHEATEDBSMT_UNIT1,Zone Windows Total Heat Gain Energy [J] !Hourly
194,1,LIVING_UNIT1,Zone Windows Total Transmitted Solar Radiation Rate [W] !Hourly
195,1,LIVING_UNIT1,Zone Windows Total Transmitted Solar Radiation Energy [J] !Hourly
196,1,LIVING_UNIT1,Zone Windows Total Heat Gain Energy [J] !Hourly
197,1,ATTIC_UNIT1,Zone Windows Total Transmitted Solar Radiation Rate [W] !Hourly
198,1,ATTIC_UNIT1,Zone Windows Total Transmitted Solar Radiation Energy [J] !Hourly
199,1,ATTIC_UNIT1,Zone Windows Total Heat Gain Energy [J] !Hourly
200,1,UNHEATEDBSMT_UNIT1,Zone Mean Air Temperature [C] !Hourly
201,1,LIVING_UNIT1,Zone Mean Air Temperature [C] !Hourly
202,1,ATTIC_UNIT1,Zone Mean Air Temperature [C] !Hourly
279,1,UNHEATEDBSMT_UNIT1,AFN Zone Infiltration Sensible Heat Gain Rate [W] !Hourly
280,1,LIVING_UNIT1,AFN Zone Infiltration Sensible Heat Gain Rate [W] !Hourly
281,1,ATTIC_UNIT1,AFN Zone Infiltration Sensible Heat Gain Rate [W] !Hourly
282,1,UNHEATEDBSMT_UNIT1,AFN Zone Infiltration Air Change Rate [ach] !Hourly
283,1,LIVING_UNIT1,AFN Zone Infiltration Air Change Rate [ach] !Hourly
284,1,ATTIC_UNIT1,AFN Zone Infiltration Air Change Rate [ach] !Hourly
618,1,Whole Building,Facility Total HVAC Electricity Demand Rate [W] !Hourly
End of Data Dictionary
1,TACOMA-JB.LEWIS-MCCHORD-GRAY. ANN HTG 99.6% CONDNS DB,  47.08,-122.58,  -8.00,  87.00
2,1,12,21, 0, 1, 0.00,60.00,WinterDesignDay
191,0.0
192,0.0
193,0.0
194,0.0
195,0.0
196,0.0
197,0.0
198,0.0
199,0.0
200,17.11609053603401
201,17.69485001801269
202,0.912699695222476
279,0.0
280,0.0
281,0.0
282,0.32073804556292537
283,0.36477674617113567
284,1.192165626716114
618,6271.125875555094
2,1,12,21, 0, 2, 0.00,60.00,WinterDesignDay
191,0.0
192,0.0
193,0.0
194,0.0
195,0.0
196,0.0
197,0.0
198,0.0
199,0.0
200,16.736764250745514
201,17.695698753769095
202,0.9145677159040604
279,0.0
280,0.0
281,0.0
282,0.3204519446092601
283,0.3647329644585057
284,1.1921208298138415
618,6271.125875555094
2,1,12,21, 0, 3, 0.00,60.00,WinterDesignDay
191,0.0
192,0.0
193,0.0
194,0.0
195,0.0
196,0.0
197,0.0
198,0.0
199,0.0
200,16.48882422560962
201,17.685825104151126
202,0.9083607713426414
279,0.0
280,0.0
281,0.0
282,0.3199034951950358
283,0.36477329652987269
284,1.1922277549132792
618,6271.125875555094
2,1,12,21, 0, 4, 0.00,60.00,WinterDesignDay
191,0.0
192,0.0
193,0.0
194,0.0
195,0.0
196,0.0
197,0.0
198,0.0
199,0.0
200,16.266401813865625
201,17.675708330517656
202,0.9028922428600216
279,0.0
280,0.0
281,0.0
282,0.31946585003366276
283,0.36470390190984727
284,1.1922792229392357
618,6271.125875555094
2,1,12,21, 0, 5, 0.00,60.00,WinterDesignDay
191,0.0
192,0.0
193,0.0
194,0.0
195,0.0
196,0.0
197,0.0
198,0.0
199,0.0
200,16.07198800297655
201,17.66390676704817
202,0.8962112798184424
279,0.0
280,0.0
281,0.0
282,0.3190774747087142
283,0.3646279317293923
284,1.1923267812770782
618,6271.125875555094
2,1,12,21, 0, 6, 0.00,60.00,WinterDesignDay
191,0.0
192,0.0
193,0.0
194,0.0
195,0.0
196,0.0
197,0.0
198,0.0
199,0.0
200,15.896728738462626
201,17.65085206608382
202,0.8892642273311587
279,0.0
280,0.0
281,0.0
282,0.3187286340807186
283,0.3645323631241869
284,1.1923622027425088
618,6271.125875555094
2,1,12,21, 0, 7, 0.00,60.00,WinterDesignDay
191,0.0
192,0.0
193,0.0
194,0.0
195,0.0
196,0.0
197,0.0
198,0.0
199,0.0
200,15.736594128912073
201,17.63670415333024
202,0.8819315075522458
279,0.0
280,0.0
281,0.0
282,0.31840899919172135
283,0.3644226708049243
284,1.192394976235549
618,6271.125875555094
2,1,12,21, 0, 8, 0.00,60.00,WinterDesignDay
191,0.0
192,0.0
193,0.0
194,0.0
195,0.0
196,0.0
197,0.0
198,0.0
199,0.0
200,15.588610673295749
201,17.621658482176004
202,0.8743749749986729
279,0.0
280,0.0
281,0.0
282,0.3181125279728319
283,0.364300792021957
284,1.1924248026557847
618,6271.125875555094
2,1,12,21, 0, 9, 0.00,60.00,WinterDesignDay
191,0.0
192,0.0
193,0.0
194,0.0
195,0.0
196,0.0
197,0.0
198,0.0
199,0.0
200,15.450702446374488
201,17.605892351554755
202,0.8666287167678169
279,0.0
280,0.0
281,0.0
282,0.317834997346647
283,0.36416901698356399
284,1.1924532387507883
618,6271.125875555094
2,1,12,21, 0,10, 0.00,60.00,WinterDesignDay
191,0.0
192,0.0
193,0.0
194,0.0
195,0.0
196,0.0
197,0.0
198,0.0
199,0.0
200,15.321323229987764
201,17.589561927604604
202,0.8587511667219573
279,0.0
280,0.0
281,0.0
282,0.3175733920330347
283,0.36402926200749438
284,1.1924804378480612
618,6271.125875555094
2,1,12,21, 0,11, 0.00,60.00,WinterDesignDay
191,0.0
192,0.0
193,0.0
194,0.0
195,0.0
196,0.0
197,0.0
198,0.0
199,0.0
200,15.199287371519369
201,17.572802039723955
202,0.8507803618598065
279,0.0
280,0.0
281,0.0
282,0.31732545803867148
283,0.3638831999433647
284,1.192506687822316
618,6271.125875555094
2,1,12,21, 0,12, 0.00,60.00,WinterDesignDay
191,0.0
192,0.0
193,0.0
194,0.0
195,0.0
196,0.0
197,0.0
198,0.0
199,0.0
200,15.08365814009332
201,17.555727003737986
202,0.8427524083788731
279,0.0
280,0.0
281,0.0
282,0.3170894529870954
283,0.36373224635930348
284,1.1925320746184974
618,6271.125875555094
2,1,12,21, 0,13, 0.00,60.00,WinterDesignDay
191,0.0
192,0.0
193,0.0
194,0.0
195,0.0
196,0.0
197,0.0
198,0.0
199,0.0
200,14.973689114831235
201,17.538433140503075
202,0.8346968687593885
279,0.0
280,0.0
281,0.0
282,0.3168640024284385
283,0.3635775960045553
284,1.1925566859233615
618,6271.125875555094
2,1,12,21, 0,14, 0.00,60.00,WinterDesignDay
191,0.0
192,0.0
193,0.0
194,0.0
195,0.0
196,0.0
197,0.0
198,0.0
199,0.0
200,14.868782161979118
201,17.521001424866019
202,0.8266395552229018
279,0.0
280,0.0
281,0.0
282,0.3166480133174901
283,0.3634202501747272
284,1.1925805773036574
618,6271.125875555094
2,1,12,21, 0,15, 0.00,60.00,WinterDesignDay
191,0.0
192,0.0
193,0.0
194,0.0
195,0.0
196,0.0
197,0.0
198,0.0
199,0.0
200,14.768413639545742
201,17.503500046295735
202,0.8186025154977059
279,0.0
280,0.0
281,0.0
282,0.31644056537174938
283,0.36326104853614718
284,1.1926037978544522
618,6271.125875555094
2,1,12,21, 0,16, 0.00,60.00,WinterDesignDay
191,0.0
192,0.0
193,0.0
194,0.0
195,0.0
196,0.0
197,0.0
198,0.0
199,0.0
200,14.672148615532285
201,17.485985720478714
202,0.8106041259616195
279,0.0
280,0.0
281,0.0
282,0.3162408756854409
283,0.363100700323244
284,1.1926263979627983
618,6271.125875555094
2,1,12,21, 0,17, 0.00,60.00,WinterDesignDay
191,0.0
192,0.0
193,0.0
194,0.0
195,0.0
196,0.0
197,0.0
198,0.0
199,0.0
200,14.579616397052837
201,17.468506057341398
202,0.8026599174486589
279,0.0
280,0.0
281,0.0
282,0.316048283668566
283,0.3629397963852555
284,1.1926484208113955
618,6271.125875555094
2,1,12,21, 0,18, 0.00,60.00,WinterDesignDay
191,0.0
192,0.0
193,0.0
194,0.0
195,0.0
196,0.0
197,0.0
198,0.0
199,0.0
200,14.490497822865527
201,17.451100918404877
202,0.7947828428251078
279,0.0
280,0.0
281,0.0
282,0.3158622219252497
283,0.3627788337405942
284,1.192669905206045
618,6271.125875555094
2,1,12,21, 0,19, 0.00,60.00,WinterDesignDay
191,0.0
192,0.0
193,0.0
194,0.0
195,0.0
196,0.0
197,0.0
198,0.0
199,0.0
200,14.405282382711274
201,17.437313543459667
202,0.7883468132373929
279,0.0
280,0.0
281,0.0
282,0.3156830396715457
283,0.3626226098724262
284,1.1926968205530895
618,6271.125875555094
2,1,12,21, 0,20, 0.00,60.00,WinterDesignDay
191,0.0
192,0.0
193,0.0
194,0.0
195,0.0
196,0.0
197,0.0
198,0.0
199,0.0
200,14.322737235954837
201,17.424567379684473
202,0.7823863311770566
279,0.0
280,0.0
281,0.0
282,0.31551388483632517
283,0.3624981108366775
284,1.1927170073355836
618,6271.125875555094
2,1,12,21, 0,21, 0.00,60.00,WinterDesignDay
191,0.0
192,0.0
193,0.0
194,0.0
195,0.0
196,0.0
197,0.0
198,0.0
199,0.0
200,14.242716896251384
201,17.41164554546891
202,0.7763789561831607
279,0.0
280,0.0
281,0.0
282,0.31535068559972875
283,0.36238200186836969
284,1.192734605904736
618,6271.125875555094
2,1,12,21, 0,22, 0.00,60.00,WinterDesignDay
191,0.0
192,0.0
193,0.0
194,0.0
195,0.0
196,0.0
197,0.0
198,0.0
199,0.0
200,14.165166094331918
201,17.398618354868533
202,0.770362496467689
279,0.0
280,0.0
281,0.0
282,0.3151918471505521
283,0.36226395948041376
284,1.1927519726873306
618,6271.125875555094
2,1,12,21, 0,23, 0.00,60.00,WinterDesignDay
191,0.0
192,0.0
193,0.0
194,0.0
195,0.0
196,0.0
197,0.0
198,0.0
199,0.0
200,14.089921028859138
201,17.385532834927486
202,0.7643537107091062
279,0.0
280,0.0
281,0.0
282,0.3150372315024732
283,0.36214465639924467
284,1.1927691544386859
618,6271.125875555094
2,1,12,21, 0,24, 0.00,60.00,WinterDesignDay
191,0.0
192,0.0
193,0.0
194,0.0
195,0.0
196,0.0
197,0.0
198,0.0
199,0.0
200,14.01683461476303
201,17.372423224000465
202,0.7583629265560158
279,0.0
280,0.0
281,0.0
282,0.3148866115997558
283,0.36202455468813879
284,1.192786129391768
618,6271.125875555094
1,TACOMA-JB.LEWIS-MCCHORD-GRAY. ANN CLG .4% CONDNS DB=>MWB,  47.08,-122.58,  -8.00,  87.00
2,1, 7,21, 0, 1, 0.00,60.00,SummerDesignDay
191,0.0
192,0.0
193,0.0
194,0.0
195,0.0
196,0.0
197,0.0
198,0.0
199,0.0
200,21.001335261333464
201,33.776774171556478
202,22.34708421248903
279,0.0
280,0.0
281,0.0
282,0.38967541333271918
283,0.3639138396362229
284,2.697669932963647
618,219.75985750701433
2,1, 7,21, 0, 2, 0.00,60.00,SummerDesignDay
191,0.0
192,0.0
193,0.0
194,0.0
195,0.0
196,0.0
197,0.0
198,0.0
199,0.0
200,20.80837184133909
201,32.863312337706947
202,21.4986134404713
279,0.0
280,0.0
281,0.0
282,0.38890116889690559
283,0.3599857336404556
284,2.6974396231717
618,219.75985750701433
2,1, 7,21, 0, 3, 0.00,60.00,SummerDesignDay
191,0.0
192,0.0
193,0.0
194,0.0
195,0.0
196,0.0
197,0.0
198,0.0
199,0.0
200,20.631157620360974
201,31.974915490993927
202,20.800351012879387
279,0.0
280,0.0
281,0.0
282,0.3878712897693114
283,0.35528954014318755
284,2.699497511811784
618,219.75985750701433
2,1, 7,21, 0, 4, 0.00,60.00,SummerDesignDay
191,0.0
192,0.0
193,0.0
194,0.0
195,0.0
196,0.0
197,0.0
198,0.0
199,0.0
200,20.453384702160578
201,31.106264638792653
202,20.182607408106994
279,0.0
280,0.0
281,0.0
282,0.38740826122814367
283,0.35090362311282766
284,2.703769567934783
618,219.75985750701433
2,1, 7,21, 0, 5, 0.00,60.00,SummerDesignDay
191,0.0
192,0.0
193,0.0
194,0.0
195,0.0
196,0.0
197,0.0
198,0.0
199,0.0
200,20.28989555737332
201,30.270882213209626
202,19.658466115354896
279,0.0
280,0.0
281,0.0
282,0.38756897058990438
283,0.34546465113233096
284,2.708484076412291
618,219.75985750701433
2,1, 7,21, 0, 6, 0.00,60.00,SummerDesignDay
191,0.0
192,0.0
193,0.0
194,1754.2557684806776
195,6315320.766530439
196,5814446.752609883
197,0.0
198,0.0
199,0.0
200,20.17417993225271
201,30.131752182449874
202,20.399847104640359
279,0.0
280,0.0
281,0.0
282,0.3869767777554201
283,0.33590448097489369
284,2.7211541136285826
618,219.75985750701433
2,1, 7,21, 0, 7, 0.00,60.00,SummerDesignDay
191,0.0
192,0.0
193,0.0
194,2503.2873819129147
195,9011834.574886492
196,9286052.247311207
197,0.0
198,0.0
199,0.0
200,20.17622683144106
201,30.37480840806199
202,23.194048475820435
279,0.0
280,0.0
281,0.0
282,0.38556366089317498
283,0.32676693717149277
284,2.7514517643008884
618,219.75985750701433
2,1, 7,21, 0, 8, 0.00,60.00,SummerDesignDay
191,0.0
192,0.0
193,0.0
194,2795.7489192420837
195,10064696.1092715
196,10720599.559580582
197,0.0
198,0.0
199,0.0
200,20.310660273798665
201,30.82618909830911
202,27.741691103579446
279,32.38251576772824
280,0.0
281,0.0
282,0.38238406551662737
283,0.3095485549173746
284,2.8071967089845399
618,219.75985750701433
2,1, 7,21, 0, 9, 0.00,60.00,SummerDesignDay
191,0.0
192,0.0
193,0.0
194,2927.880385801382
195,10540369.388884975
196,11898242.195908772
197,0.0
198,0.0
199,0.0
200,20.505635624684709
201,31.491880101725557
202,32.292463576397228
279,99.68040096697911
280,0.0
281,0.0
282,0.37893695143829556
283,0.29281157020353906
284,2.8793315427304648
618,219.75985750701433
2,1, 7,21, 0,10, 0.00,60.00,SummerDesignDay
191,0.0
192,0.0
193,0.0
194,2903.222506882547
195,10451601.024777169
196,12434374.12718178
197,0.0
198,0.0
199,0.0
200,20.70700813421127
201,32.298534057738198
202,37.55484959392734
279,158.0172359231444
280,0.0
281,0.0
282,0.3759673555920919
283,0.2801901235596743
284,2.9552450907514467
618,219.75985750701433
2,1, 7,21, 0,11, 0.00,60.00,SummerDesignDay
191,0.0
192,0.0
193,0.0
194,2619.6096463289488
195,9430594.726784215
196,11674215.160440809
197,0.0
198,0.0
199,0.0
200,20.921306471385937
201,33.16950040573503
202,41.84292682467903
279,207.61162174218664
280,0.0
281,0.0
282,0.3734543253554338
283,0.27209013867110767
284,3.0266991645242675
618,219.75985750701433
2,1, 7,21, 0,12, 0.00,60.00,SummerDesignDay
191,0.0
192,0.0
193,0.0
194,2251.3245007832595
195,8104768.202819733
196,9958375.415182598
197,0.0
198,0.0
199,0.0
200,21.11762817171961
201,33.95023252906653
202,45.25295485593202
279,238.722239737878
280,0.0
281,0.0
282,0.3718821051114631
283,0.27062090392577289
284,3.0789275801714397
618,219.75985750701433
2,1, 7,21, 0,13, 0.00,60.00,SummerDesignDay
191,0.0
192,0.0
193,0.0
194,2154.53800297265
195,7756336.810701539
196,9287635.279917088
197,0.0
198,0.0
199,0.0
200,21.30572799497383
201,34.7270436099321
202,47.4810024833884
279,262.49853509001039
280,0.0
281,0.0
282,0.3706818353005923
283,0.27025481666420006
284,3.1125414600335516
618,219.75985750701433
2,1, 7,21, 0,14, 0.00,60.00,SummerDesignDay
191,0.0
192,0.0
193,0.0
194,2398.8429030692529
195,8635834.45104931
196,10813909.37982739
197,0.0
198,0.0
199,0.0
200,21.48127564177884
201,35.65704834007045
202,48.61654748327056
279,275.5979181577763
280,0.0
281,0.0
282,0.37002172733063068
283,0.27324991509147636
284,3.125219751517453
618,219.75985750701433
2,1, 7,21, 0,15, 0.00,60.00,SummerDesignDay
191,0.0
192,0.0
193,0.0
194,2778.5345813879305
195,10002724.49299655
196,12215184.623904359
197,0.0
198,0.0
199,0.0
200,21.64126772152183
201,36.67459437239504
202,48.556313352594788
279,271.00322310751155
280,0.0
281,0.0
282,0.37026746197223167
283,0.2839520685219343
284,3.1156892555960269
618,219.75985750701433
2,1, 7,21, 0,16, 0.00,60.00,SummerDesignDay
191,0.0
192,0.0
193,0.0
194,2941.040468526401
195,10587745.686695045
196,12275658.03266954
197,0.0
198,0.0
199,0.0
200,21.772978883486869
201,37.588105928529177
202,47.193851178353387
279,245.47662049488344
280,0.0
281,0.0
282,0.37171479729619136
283,0.30214898722651997
284,3.0854880398623236
618,219.75985750701433
2,1, 7,21, 0,17, 0.00,60.00,SummerDesignDay
191,0.0
192,0.0
193,0.0
194,2887.1395190901519
195,10393702.268724546
196,11318567.560996293
197,0.0
198,0.0
199,0.0
200,21.88599009688579
201,38.290961507918257
202,44.71263917752453
279,214.18980132506318
280,0.0
281,0.0
282,0.37568424597870839
283,0.31986713797470425
284,3.037600534235781
618,219.75985750701433
2,1, 7,21, 0,18, 0.00,60.00,SummerDesignDay
191,0.0
192,0.0
193,0.0
194,2697.07216876383
195,9709459.80754979
196,10099549.884312783
197,0.0
198,0.0
199,0.0
200,21.967733573695278
201,38.765591472561357
202,41.229058308316748
279,175.5377741881411
280,0.0
281,0.0
282,0.37983241425231736
283,0.33648547870300979
284,2.976539891668331
618,219.75985750701433
2,1, 7,21, 0,19, 0.00,60.00,SummerDesignDay
191,0.0
192,0.0
193,0.0
194,2263.994952553694
195,8150381.829193299
196,7927501.683758352
197,0.0
198,0.0
199,0.0
200,21.994990710414255
201,38.89377104816423
202,36.91560659211684
279,118.45423134374697
280,0.0
281,0.0
282,0.38482327730521345
283,0.35568139612228197
284,2.9076401557127249
618,219.75985750701433
2,1, 7,21, 0,20, 0.00,60.00,SummerDesignDay
191,0.0
192,0.0
193,0.0
194,1003.807179748748
195,3613705.8470954929
196,1914328.3891421795
197,0.0
198,0.0
199,0.0
200,22.00970432775768
201,38.43366760577899
202,32.67471109819634
279,75.67716460926711
280,0.0
281,0.0
282,0.38794480912252307
283,0.3654789364558415
284,2.833132360578465
618,219.75985750701433
2,1, 7,21, 0,21, 0.00,60.00,SummerDesignDay
191,0.0
192,0.0
193,0.0
194,0.0
195,0.0
196,0.0
197,0.0
198,0.0
199,0.0
200,21.977179332088615
201,37.533524556517949
202,28.981716419624016
279,41.41682832506402
280,0.0
281,0.0
282,0.3895140283439651
283,0.368035825480969
284,2.770865550116367
618,219.75985750701433
2,1, 7,21, 0,22, 0.00,60.00,SummerDesignDay
191,0.0
192,0.0
193,0.0
194,0.0
195,0.0
196,0.0
197,0.0
198,0.0
199,0.0
200,21.8914905182556
201,36.59712049870159
202,26.500071090810306
279,8.478880271739329
280,0.0
281,0.0
282,0.39036228361604588
283,0.36794016585850328
284,2.731481436060046
618,219.75985750701433
2,1, 7,21, 0,23, 0.00,60.00,SummerDesignDay
191,0.0
192,0.0
193,0.0
194,0.0
195,0.0
196,0.0
197,0.0
198,0.0
199,0.0
200,21.792139886169708
201,35.67371855895313
202,24.784528525899114
279,0.0
280,0.0
281,0.0
282,0.39060427302055936
283,0.36635966775514008
284,2.7103480916031486
618,219.75985750701433
2,1, 7,21, 0,24, 0.00,60.00,SummerDesignDay
191,0.0
192,0.0
193,0.0
194,0.0
195,0.0
196,0.0
197,0.0
198,0.0
199,0.0
200,21.671324705134788
201,34.7373187523415
202,23.422788887595926
279,0.0
280,0.0
281,0.0
282,0.3909026946724924
283,0.36562466189153106
284,2.7008974006726915
618,219.75985750701433
1,SUB-ANNUAL,  47.08,-122.58,  -8.00,  87.00
2,1, 1, 1, 0, 1, 0.00,60.00,Sunday
191,0.0
192,0.0
193,0.0
194,0.0
195,0.0
196,0.0
197,0.0
198,0.0
199,0.0
200,19.06428827347905
201,20.559385795663528
202,10.30167420426843
279,0.0
280,0.0
281,0.0
282,0.2700176486562402
283,0.2271166782741553
284,0.261296704360836
618,3406.7477421956507
2,1, 1, 1, 0, 2, 0.00,60.00,Sunday
191,0.0
192,0.0
193,0.0
194,0.0
195,0.0
196,0.0
197,0.0
198,0.0
199,0.0
200,18.801120469266949
201,20.555006681162778
202,12.151940055780074
279,0.0
280,0.0
281,0.0
282,0.2770995520959177
283,0.2560614340139106
284,1.0993111333453154
618,3486.047975515315
2,1, 1, 1, 0, 3, 0.00,60.00,Sunday
191,0.0
192,0.0
193,0.0
194,0.0
195,0.0
196,0.0
197,0.0
198,0.0
199,0.0
200,18.37082763769791
201,20.55497529680927
202,12.670178968131662
279,0.0
280,0.0
281,0.0
282,0.47516677466884707
283,0.2844843229918554
284,3.0849984869447328
618,3460.5417250997709
2,1, 1, 1, 0, 4, 0.00,60.00,Sunday
191,0.0
192,0.0
193,0.0
194,0.0
195,0.0
196,0.0
197,0.0
198,0.0
199,0.0
200,18.213211491368658
201,20.554273673486489
202,13.30148643785162
279,0.0
280,0.0
281,0.0
282,0.4959198648730808
283,0.33076279435269098
284,2.754091049432066
618,3551.7063886059829
2,1, 1, 1, 0, 5, 0.00,60.00,Sunday
191,0.0
192,0.0
193,0.0
194,0.0
195,0.0
196,0.0
197,0.0
198,0.0
199,0.0
200,18.208957734107764
201,20.555317116520667
202,13.455506245950563
279,0.0
280,0.0
281,0.0
282,0.38043250193936675
283,0.3171773122504773
284,1.758789608554143
618,3509.234721454794
2,1, 1, 1, 0, 6, 0.00,60.00,Sunday
191,0.0
192,0.0
193,0.0
194,0.0
195,0.0
196,0.0
197,0.0
198,0.0
199,0.0
200,17.666109376684124
201,20.55529680593825
202,12.775167867206302
279,0.0
280,0.0
281,0.0
282,0.6247894039427338
283,0.38020238627989458
284,4.130505619951079
618,3650.61153795773
2,1, 1, 1, 0, 7, 0.00,60.00,Sunday
191,0.0
192,0.0
193,0.0
194,0.0
195,0.0
196,0.0
197,0.0
198,0.0
199,0.0
200,18.16097183962945
201,20.55566703573608
202,13.829048173766822
279,0.0
280,0.0
281,0.0
282,0.27317058477036329
283,0.2506735345390429
284,0.2132935401680594
618,3195.9345666388396
2,1, 1, 1, 0, 8, 0.00,60.00,Sunday
191,0.0
192,0.0
193,0.0
194,0.0
195,0.0
196,0.0
197,0.0
198,0.0
199,0.0
200,17.886952473625564
201,20.554377135656357
202,13.209848610145017
279,0.0
280,0.0
281,0.0
282,0.3801868401768829
283,0.3206329702772778
284,1.7629309291330074
618,3327.673451407521
2,1, 1, 1, 0, 9, 0.00,60.00,Sunday
191,0.0
192,0.0
193,0.0
194,53.71314523951178
195,193367.3228622424
196,0.0
197,0.0
198,0.0
199,0.0
200,17.97605166751907
201,20.55527456364302
202,13.602008433665823
279,0.0
280,0.0
281,0.0
282,0.2760358026121417
283,0.26519206401749598
284,0.0
618,3196.946163785426
2,1, 1, 1, 0,10, 0.00,60.00,Sunday
191,0.0
192,0.0
193,0.0
194,401.03980848022408
195,1443743.3105288067
196,0.0
197,0.0
198,0.0
199,0.0
200,17.907312879555414
201,20.55585334445874
202,13.419537280871142
279,0.0
280,0.0
281,0.0
282,0.2756629374754059
283,0.26278656390494728
284,0.0
618,2986.0998438294575
2,1, 1, 1, 0,11, 0.00,60.00,Sunday
191,0.0
192,0.0
193,0.0
194,372.0753194111225
195,1339471.1498800412
196,0.0
197,0.0
198,0.0
199,0.0
200,17.902599474657668
201,20.55520796885092
202,13.665669108079604
279,0.0
280,0.0
281,0.0
282,0.2732064966283162
283,0.2508885325178235
284,0.0
618,2751.4030768491868
2,1, 1, 1, 0,12, 0.00,60.00,Sunday
191,0.0
192,0.0
193,0.0
194,897.100147950106
195,3229560.5326203817
196,1908765.026040478
197,0.0
198,0.0
199,0.0
200,17.900298237305095
201,20.55637900843794
202,13.80040786812731
279,0.0
280,0.0
281,0.0
282,0.2707469516057372
283,0.2395655220994927
284,0.7645409452612524
618,2292.6287561770416
2,1, 1, 1, 0,13, 0.00,60.00,Sunday
191,0.0
192,0.0
193,0.0
194,562.4454143882899
195,2024803.4917978438
196,417835.8771095005
197,0.0
198,0.0
199,0.0
200,17.85632526951832
201,20.556575918463538
202,14.323831829623538
279,0.0
280,0.0
281,0.0
282,0.2706789934805451
283,0.23730670747111749
284,0.0
618,2209.337074183334
2,1, 1, 1, 0,14, 0.00,60.00,Sunday
191,0.0
192,0.0
193,0.0
194,571.2793543685986
195,2056605.6757269549
196,627614.5445107344
197,0.0
198,0.0
199,0.0
200,17.83310011720129
201,20.556533468976178
202,14.243182903788757
279,0.0
280,0.0
281,0.0
282,0.2902961333461755
283,0.24077719130485335
284,1.5071599201845552
618,2089.588434238234
2,1, 1, 1, 0,15, 0.00,60.00,Sunday
191,0.0
192,0.0
193,0.0
194,775.9083120740185
195,2793269.9234664665
196,1515398.701860941
197,0.0
198,0.0
199,0.0
200,17.83090958141177
201,20.556692439550333
202,14.797232820865205
279,0.0
280,0.0
281,0.0
282,0.26814751991366017
283,0.2261657122862077
284,0.6896028699993544
618,1924.246494191584
2,1, 1, 1, 0,16, 0.00,60.00,Sunday
191,0.0
192,0.0
193,0.0
194,685.939466735829
195,2469382.0802489847
196,1101614.7098364435
197,0.0
198,0.0
199,0.0
200,17.486592608171369
201,20.556487816749436
202,14.195748945310723
279,0.0
280,0.0
281,0.0
282,0.47117223639394248
283,0.2814412845670856
284,3.0978899252647458
618,1981.9740897692676
2,1, 1, 1, 0,17, 0.00,60.00,Sunday
191,0.0
192,0.0
193,0.0
194,0.0
195,0.0
196,0.0
197,0.0
198,0.0
199,0.0
200,17.197855338936426
201,20.556520607474118
202,13.623846847420193
279,0.0
280,0.0
281,0.0
282,0.5326201384457405
283,0.3517096197794498
284,3.364586465896737
618,2616.405153935114
2,1, 1, 1, 0,18, 0.00,60.00,Sunday
191,0.0
192,0.0
193,0.0
194,0.0
195,0.0
196,0.0
197,0.0
198,0.0
199,0.0
200,17.39915416913029
201,20.55455768522677
202,13.456392174559762
279,0.0
280,0.0
281,0.0
282,0.3381523628605151
283,0.30482143658147178
284,1.5743885526816184
618,2766.683358050551
2,1, 1, 1, 0,19, 0.00,60.00,Sunday
191,0.0
192,0.0
193,0.0
194,0.0
195,0.0
196,0.0
197,0.0
198,0.0
199,0.0
200,16.971905224477454
201,20.555128460496698
202,12.484749030053643
279,0.0
280,0.0
281,0.0
282,0.5511226859269053
283,0.35394485175845677
284,3.711541457780761
618,3075.406272145511
2,1, 1, 1, 0,20, 0.00,60.00,Sunday
191,0.0
192,0.0
193,0.0
194,0.0
195,0.0
196,0.0
197,0.0
198,0.0
199,0.0
200,16.962452200193657
201,20.55473944473863
202,12.04703514677129
279,0.0
280,0.0
281,0.0
282,0.46311940918666308
283,0.34341528116762679
284,2.755621696391031
618,3352.733340711875
2,1, 1, 1, 0,21, 0.00,60.00,Sunday
191,0.0
192,0.0
193,0.0
194,0.0
195,0.0
196,0.0
197,0.0
198,0.0
199,0.0
200,16.960608865711678
201,20.55543986318204
202,11.010389304743687
279,0.0
280,0.0
281,0.0
282,0.36503882275503088
283,0.3244414934650958
284,2.050505487819099
618,3628.7642293482824
2,1, 1, 1, 0,22, 0.00,60.00,Sunday
191,0.0
192,0.0
193,0.0
194,0.0
195,0.0
196,0.0
197,0.0
198,0.0
199,0.0
200,16.91273648332052
201,20.555030646884256
202,9.826697376149525
279,0.0
280,0.0
281,0.0
282,0.29974581217763648
283,0.338020841332942
284,1.1178909900414045
618,4171.534128298362
2,1, 1, 1, 0,23, 0.00,60.00,Sunday
191,0.0
192,0.0
193,0.0
194,0.0
195,0.0
196,0.0
197,0.0
198,0.0
199,0.0
200,16.7851091832392
201,20.554346580201206
202,8.548319114487619
279,0.0
280,0.0
281,0.0
282,0.28658892838540087
283,0.3611528605863543
284,0.5842845501460621
618,4763.198340650951
2,1, 1, 1, 0,24, 0.00,60.00,Sunday
191,0.0
192,0.0
193,0.0
194,0.0
195,0.0
196,0.0
197,0.0
198,0.0
199,0.0
200,16.632905419544124
201,20.553495564648693
202,7.483078388929597
279,0.0
280,0.0
281,0.0
282,0.2892274220360055
283,0.37699246920459059
284,0.17719383575111209
618,5312.110720615794
End of Data
 Number of Records Written=        1368
