Program Version,EnergyPlus, Version 22.2.0-c249759bad, YMD=2023.09.01 14:31
1,5,Environment Title[],Latitude[deg],Longitude[deg],Time Zone[],Elevation[m]
2,8,Day of Simulation[],Month[],Day of Month[],DST Indicator[1=yes 0=no],Hour[],StartMinute[],EndMinute[],DayType
3,5,Cumulative Day of Simulation[],Month[],Day of Month[],DST Indicator[1=yes 0=no],DayType  ! When Daily Report Variables Requested
4,2,Cumulative Days of Simulation[],Month[]  ! When Monthly Report Variables Requested
5,1,Cumulative Days of Simulation[] ! When Run Period Report Variables Requested
6,1,Calendar Year of Simulation[] ! When Annual Report Variables Requested
7,1,Environment,Site Outdoor Air Drybulb Temperature [C] !Hourly
545,1,LIVING,Zone Mean Air Temperature [C] !Hourly
546,1,ATTIC,Zone Mean Air Temperature [C] !Hourly
547,1,CRAWLSPACE,Zone Mean Air Temperature [C] !Hourly
548,1,FAN,Fan Electricity Rate [W] !Hourly
720,1,LIVING,Zone Predicted Sensible Load to Heating Setpoint Heat Transfer Rate [W] !Hourly
721,1,LIVING,Zone System Predicted Sensible Load to Heating Setpoint Heat Transfer Rate [W] !Hourly
784,1,ATTIC,Zone Predicted Sensible Load to Heating Setpoint Heat Transfer Rate [W] !Hourly
785,1,ATTIC,Zone System Predicted Sensible Load to Heating Setpoint Heat Transfer Rate [W] !Hourly
848,1,CRAWLSPACE,Zone Predicted Sensible Load to Heating Setpoint Heat Transfer Rate [W] !Hourly
849,1,CRAWLSPACE,Zone System Predicted Sensible Load to Heating Setpoint Heat Transfer Rate [W] !Hourly
1121,1,DX_HEATING_COIL,Heating Coil Heating Rate [W] !Hourly
1135,1,DX_HEATING_COIL,Heating Coil Electricity Rate [W] !Hourly
1161,1,DX_HEATING_COIL,Heating Coil Defrost Electricity Rate [W] !Hourly
1163,1,DX_HEATING_COIL,Heating Coil Crankcase Heater Electricity Rate [W] !Hourly
1166,1,HEATING_RESISTANCE_BACKUP,Heating Coil Heating Rate [W] !Hourly
1168,1,HEATING_RESISTANCE_BACKUP,Heating Coil Electricity Rate [W] !Hourly
End of Data Dictionary
1,EXTREME_WINTER,  42.40, -96.38,  -6.00, 336.00
2,1,12,22, 0, 1, 0.00,60.00,Monday
7,-6.7
545,18.19556508996334
546,-2.338657498963816
547,18.583638463515726
548,133.71864563463294
720,2724.270609979925
721,2724.270609979925
784,0.0
785,0.0
848,0.0
849,0.0
1121,3815.549593314642
1135,1335.3810913613793
1161,48.07848685677071
1163,34.76866835255659
1166,0.0
1168,0.0
2,1,12,22, 0, 2, 0.00,60.00,Monday
7,-7.8
545,18.34986194612886
546,-2.579579142310044
547,18.142425720437785
548,163.65543581870975
720,3715.334830309537
721,3715.334830309537
784,0.0
785,0.0
848,0.0
849,0.0
1121,4658.15082961597
1135,1598.4473382345184
1161,50.37180386597502
1163,0.0
1166,523.6189884175328
1168,523.6189884175328
2,1,12,22, 0, 3, 0.00,60.00,Monday
7,-7.8
545,18.50305725725606
546,-2.576873731699386
547,17.96195743517424
548,163.65543581870975
720,4164.8090203126085
721,4164.8090203126085
784,0.0
785,0.0
848,0.0
849,0.0
1121,4652.764701624578
1135,1602.184445028431
1161,50.795761429773115
1163,0.0
1166,1137.549733380988
1168,1137.549733380988
2,1,12,22, 0, 4, 0.00,60.00,Monday
7,-7.8
545,18.566625888546834
546,-2.4934501087774787
547,17.743128357801037
548,163.65543581870975
720,4197.0961739344875
721,4197.0961739344875
784,0.0
785,0.0
848,0.0
849,0.0
1121,4650.366958545064
1135,1607.2677435456135
1161,50.376271525309065
1163,0.0
1166,1212.4517694489823
1168,1212.4517694489823
2,1,12,22, 0, 5, 0.00,60.00,Monday
7,-8.3
545,18.591304769472377
546,-2.8596410088168076
547,17.5467835306917
548,163.65543581870975
720,4137.691824033991
721,4137.691824033991
784,0.0
785,0.0
848,0.0
849,0.0
1121,4589.33547680258
1135,1605.4073367967862
1161,47.80907551946649
1163,0.0
1166,1213.5295516009542
1168,1213.5295516009542
2,1,12,22, 0, 6, 0.00,60.00,Monday
7,-10.6
545,19.323385619207283
546,-3.6195380608500143
547,17.343522275764226
548,163.65543581870975
720,5329.482785404913
721,5329.482785404913
784,0.0
785,0.0
848,0.0
849,0.0
1121,4314.1922218931595
1135,1587.1181995045392
1161,37.34006010613775
1163,0.0
1166,2875.9210336997885
1168,2875.9210336997885
2,1,12,22, 0, 7, 0.00,60.00,Monday
7,-10.6
545,19.577976184273005
546,-4.212693242665733
547,17.199489459763825
548,163.65543581870975
720,5144.028319461075
721,5144.028319461075
784,0.0
785,0.0
848,0.0
849,0.0
1121,4294.421838595368
1135,1608.748389936613
1161,37.34006010613775
1163,0.0
1166,2805.13519271751
1168,2805.13519271751
2,1,12,22, 0, 8, 0.00,60.00,Monday
7,-10.0
545,19.673893597585288
546,-4.111595118897118
547,17.041784702695775
548,163.65543581870975
720,4413.996645867612
721,4413.996645867612
784,0.0
785,0.0
848,0.0
849,0.0
1121,4359.401697494691
1135,1621.8478476327348
1161,39.8252326295499
1163,0.0
1166,1958.2833975112408
1168,1958.2833975112408
2,1,12,22, 0, 9, 0.00,60.00,Monday
7,-9.4
545,19.709178953035277
546,-3.5511741590876578
547,16.888834278668988
548,163.65543581870975
720,3890.4317409797677
721,3890.4317409797677
784,0.0
785,0.0
848,0.0
849,0.0
1121,4408.108159238692
1135,1622.299178026111
1161,48.21139393130216
1163,0.0
1166,1305.865135434975
1168,1305.865135434975
2,1,12,22, 0,10, 0.00,60.00,Monday
7,-8.3
545,19.733217117782083
546,-1.2340905820552157
547,16.75036137084424
548,163.65543581870975
720,3078.5706498961317
721,3078.5706498961317
784,0.0
785,0.0
848,0.0
849,0.0
1121,4582.784571255713
1135,1648.2151011161395
1161,41.39688577712109
1163,0.0
1166,168.2460198762219
1168,168.2460198762219
2,1,12,22, 0,11, 0.00,60.00,Monday
7,-7.2
545,19.916514486412993
546,0.25489798733348507
547,16.648692816135213
548,117.92617609719377
720,2074.24583543516
721,2074.24583543516
784,0.0
785,0.0
848,0.0
849,0.0
1121,3305.6377335586
1135,1210.980579323573
1161,28.763729134020263
1163,54.748900130654675
1166,0.0
1168,0.0
2,1,12,22, 0,12, 0.00,60.00,Monday
7,-6.7
545,19.991968640953242
546,2.6617436998391724
547,16.567542664165497
548,79.6050651795474
720,1383.4264893462514
721,1383.4264893462514
784,0.0
785,0.0
848,0.0
849,0.0
1121,2205.8976886392275
1135,825.3079489077114
1161,17.81225740041376
1163,102.04757921513037
1166,0.0
1168,0.0
2,1,12,22, 0,13, 0.00,60.00,Monday
7,-6.7
545,19.904361852599354
546,4.319267312291106
547,16.506223913244632
548,50.955003275357406
720,883.9160422945442
721,883.9160422945442
784,0.0
785,0.0
848,0.0
849,0.0
1121,1382.9971870272573
1135,529.0780369003157
1161,11.401617308315192
1163,137.3007030436131
1166,0.0
1168,0.0
2,1,12,22, 0,14, 0.00,60.00,Monday
7,-4.4
545,20.06612356210909
546,6.297663554986043
547,16.4693481868619
548,21.566851734901554
720,390.50176255825863
721,390.50176255825863
784,0.0
785,0.0
848,0.0
849,0.0
1121,628.6879164727204
1135,232.20719928750327
1161,0.7847920952398973
1163,173.62100620637082
1166,0.0
1168,0.0
2,1,12,22, 0,15, 0.00,60.00,Monday
7,-3.9
545,20.06659977077679
546,6.913398657223203
547,16.444170361654013
548,0.0
720,-199.8128101046732
721,-199.8128101046732
784,0.0
785,0.0
848,0.0
849,0.0
1121,0.0
1135,0.0
1161,0.0
1163,200.0
1166,0.0
1168,0.0
2,1,12,22, 0,16, 0.00,60.00,Monday
7,-3.3
545,20.456577295677395
546,6.673999795401507
547,16.43424381322922
548,0.0
720,-625.3354362681894
721,-625.3354362681894
784,0.0
785,0.0
848,0.0
849,0.0
1121,0.0
1135,0.0
1161,0.0
1163,200.0
1166,0.0
1168,0.0
2,1,12,22, 0,17, 0.00,60.00,Monday
7,-6.1
545,19.89705919655139
546,2.5680180446209846
547,16.43115493839499
548,0.0
720,-145.00353566153353
721,-145.00353566153353
784,0.0
785,0.0
848,0.0
849,0.0
1121,0.0
1135,0.0
1161,0.0
1163,200.0
1166,0.0
1168,0.0
2,1,12,22, 0,18, 0.00,60.00,Monday
7,-7.2
545,19.62856916079619
546,0.27217536265400183
547,16.41653889757015
548,40.28230084074494
720,780.6790562028
721,780.6790562028
784,0.0
785,0.0
848,0.0
849,0.0
1121,1071.5458633474475
1135,416.30645100125076
1161,8.515752451864593
1163,150.43625362684244
1166,0.0
1168,0.0
2,1,12,22, 0,19, 0.00,60.00,Monday
7,-7.2
545,19.631831111233517
546,-2.073483647422007
547,16.380780595367654
548,59.06904696252601
720,1155.9488361303374
721,1155.9488361303374
784,0.0
785,0.0
848,0.0
849,0.0
1121,1594.683051622138
1135,607.2506423096175
1161,12.487168072728233
1163,127.32165069685917
1166,0.0
1168,0.0
2,1,12,22, 0,20, 0.00,60.00,Monday
7,-7.2
545,18.982491603698442
546,-3.3418808051569577
547,16.315929371603765
548,89.05049677318675
720,1729.1678509207595
721,1729.1678509207595
784,0.0
785,0.0
848,0.0
849,0.0
1121,2445.927881144566
1135,912.4522606847951
1161,21.712210905857937
1163,90.31633714316145
1166,0.0
1168,0.0
2,1,12,22, 0,21, 0.00,60.00,Monday
7,-6.7
545,19.415613162898584
546,-2.6611696942972975
547,16.22376191029932
548,123.5107526189191
720,2476.7696542596714
721,2476.7696542596714
784,0.0
785,0.0
848,0.0
849,0.0
1121,3531.5575033145165
1135,1250.8545669565317
1161,33.586160132255245
1163,47.80014153060159
1166,0.0
1168,0.0
2,1,12,22, 0,22, 0.00,60.00,Monday
7,-6.1
545,19.785937570094298
546,-2.2012596467053247
547,16.17192785314871
548,111.79801542134278
720,2133.2238049248645
721,2133.2238049248645
784,0.0
785,0.0
848,0.0
849,0.0
1121,3196.6780628419033
1135,1141.1958086423754
1161,36.03663068890801
1163,62.092700638941636
1166,0.0
1168,0.0
2,1,12,22, 0,23, 0.00,60.00,Monday
7,-6.1
545,19.03809655824189
546,-2.6011484589351497
547,16.090353563190913
548,78.96487134953729
720,1377.9750320155035
721,1377.9750320155035
784,0.0
785,0.0
848,0.0
849,0.0
1121,2200.0239319395937
1135,811.9774159078992
1161,25.43918592983422
1163,102.59227072180094
1166,0.0
1168,0.0
2,1,12,22, 0,24, 0.00,60.00,Monday
7,-6.1
545,18.629744217892682
546,-2.778391227918187
547,15.96625269449334
548,94.43073656036808
720,1818.4351756061842
721,1818.4351756061842
784,0.0
785,0.0
848,0.0
849,0.0
1121,2671.9821825587705
1135,956.836280625967
1161,30.408976505385457
1163,83.51933191816796
1166,0.0
1168,0.0
2,2,12,23, 0, 1, 0.00,60.00,Tuesday
7,-6.1
545,18.530422354360237
546,-2.5177003925333263
547,15.847322865320907
548,119.52829453845467
720,2410.739540467919
721,2410.739540467919
784,0.0
785,0.0
848,0.0
849,0.0
1121,3453.001895829217
1135,1201.2390772611489
1161,38.49014892326911
1163,52.56464451022917
1166,0.0
1168,0.0
2,2,12,23, 0, 2, 0.00,60.00,Tuesday
7,-7.2
545,18.30114984855161
546,-2.5814568366502257
547,15.708108847236712
548,163.65543581870975
720,3610.768202073361
721,3610.768202073361
784,0.0
785,0.0
848,0.0
849,0.0
1121,4798.397544248359
1135,1634.4261995400232
1161,34.26135300962511
1163,0.0
1166,313.8431353782571
1168,313.8431353782571
2,2,12,23, 0, 3, 0.00,60.00,Tuesday
7,-8.3
545,18.46820077028875
546,-3.3918153738729915
547,15.578802758331037
548,163.65543581870975
720,4819.488909678854
721,4819.488909678854
784,0.0
785,0.0
848,0.0
849,0.0
1121,4623.614865714825
1135,1602.6700481634346
1161,41.29870566535215
1163,0.0
1166,1980.9560929607933
1168,1980.9560929607933
2,2,12,23, 0, 4, 0.00,60.00,Tuesday
7,-8.9
545,18.538163939266273
546,-3.813435115960665
547,15.471186709903435
548,163.65543581870975
720,5160.390851590306
721,5160.390851590306
784,0.0
785,0.0
848,0.0
849,0.0
1121,4562.721839599124
1135,1608.597042504915
1161,34.136203934394175
1163,0.0
1166,2531.4711686440414
1168,2531.4711686440414
2,2,12,23, 0, 5, 0.00,60.00,Tuesday
7,-8.9
545,18.58296392394748
546,-3.621377220476093
547,15.364678394609568
548,163.65543581870975
720,4630.571928909016
721,4630.571928909016
784,0.0
785,0.0
848,0.0
849,0.0
1121,4544.284215932531
1135,1604.7357213410605
1161,38.667391595020334
1163,0.0
1166,1977.570225457921
1168,1977.570225457921
2,2,12,23, 0, 6, 0.00,60.00,Tuesday
7,-9.0
545,19.31930053814009
546,-3.9577677963531968
547,15.241807826708316
548,163.65543581870975
720,6269.454298411803
721,6269.454298411803
784,0.0
785,0.0
848,0.0
849,0.0
1121,4534.779760340677
1135,1606.4052612337962
1161,37.21871322075177
1163,0.0
1166,3873.0631923481806
1168,3873.0631923481806
2,2,12,23, 0, 7, 0.00,60.00,Tuesday
7,-8.9
545,19.577742405406774
546,-3.4586916798268432
547,15.166160905218765
548,163.65543581870975
720,5959.936976158951
721,5959.936976158951
784,0.0
785,0.0
848,0.0
849,0.0
1121,4539.836333474715
1135,1634.3747549880522
1161,34.11348396497677
1163,0.0
1166,3622.5111741429173
1168,3622.5111741429173
2,2,12,23, 0, 8, 0.00,60.00,Tuesday
7,-9.4
545,19.676713264822666
546,-3.622961904747188
547,15.061211523987808
548,163.65543581870975
720,5163.208755759817
721,5163.208755759817
784,0.0
785,0.0
848,0.0
849,0.0
1121,4476.195278324381
1135,1639.471626656528
1161,30.73294526417058
1163,0.0
1166,2759.319844096345
1168,2759.319844096345
2,2,12,23, 0, 9, 0.00,60.00,Tuesday
7,-8.9
545,19.70609924195697
546,-3.025302501393249
547,14.96485650573707
548,163.65543581870975
720,4640.068241236348
721,4640.068241236348
784,0.0
785,0.0
848,0.0
849,0.0
1121,4530.196288762745
1135,1645.2835737598505
1161,34.09079421871434
1163,0.0
1166,2096.7856694500406
1168,2096.7856694500406
2,2,12,23, 0,10, 0.00,60.00,Tuesday
7,-8.3
545,19.719554719079003
546,-2.545684513668518
547,14.865666017987973
548,163.65543581870975
720,4218.94966142142
721,4218.94966142142
784,0.0
785,0.0
848,0.0
849,0.0
1121,4627.714477116734
1135,1660.163025770956
1161,30.05619324343968
1163,0.0
1166,1480.0272013291496
1168,1480.0272013291496
2,2,12,23, 0,11, 0.00,60.00,Tuesday
7,-7.8
545,19.729043874868804
546,-1.7002964993591354
547,14.776124990043899
548,163.65543581870975
720,3689.7891592441138
721,3689.7891592441138
784,0.0
785,0.0
848,0.0
849,0.0
1121,4709.902639418923
1135,1672.0356416891764
1161,26.820526221288812
1163,0.0
1166,753.7316381089795
1168,753.7316381089795
2,2,12,23, 0,12, 0.00,60.00,Tuesday
7,-7.2
545,19.738376348557406
546,0.862371649593196
547,14.705212408993853
548,163.65543581870975
720,3164.292345995107
721,3164.292345995107
784,0.0
785,0.0
848,0.0
849,0.0
1121,4793.907337889417
1135,1680.5627978086466
1161,27.1076345903508
1163,0.0
1166,11.368687643484918
1168,11.368687643484918
2,2,12,23, 0,13, 0.00,60.00,Tuesday
7,-7.2
545,19.822159819372157
546,1.979504925562048
547,14.635405756635443
548,144.0613642106703
720,2773.913811215647
721,2773.913811215647
784,0.0
785,0.0
848,0.0
849,0.0
1121,4160.539283218789
1135,1487.5408723357682
1161,23.98946446277778
1163,23.00584447661811
1166,0.0
1168,0.0
2,2,12,23, 0,14, 0.00,60.00,Tuesday
7,-5.6
545,20.021397493249165
546,4.58390393235803
547,14.583419824920776
548,89.3240025214092
720,1692.9128065706063
721,1692.9128065706063
784,0.0
785,0.0
848,0.0
849,0.0
1121,2605.2482514272765
1135,938.5960561274236
1161,12.467789806672233
1163,90.4253395515072
1166,0.0
1168,0.0
2,2,12,23, 0,15, 0.00,60.00,Tuesday
7,-5.0
545,19.911054453055264
546,4.423411819960487
547,14.548603507189592
548,57.33050492572986
720,1114.7670000014696
721,1114.7670000014696
784,0.0
785,0.0
848,0.0
849,0.0
1121,1667.4787140039919
1135,609.5562346359661
1161,6.374884577211929
1163,129.73976197616054
1166,0.0
1168,0.0
2,2,12,23, 0,16, 0.00,60.00,Tuesday
7,-5.6
545,19.834590098926654
546,2.5495674711658394
547,14.535317671383874
548,43.43109759635856
720,848.8437033124319
721,848.8437033124319
784,0.0
785,0.0
848,0.0
849,0.0
1121,1231.7024859909939
1135,459.0008420129148
1161,4.398814674151108
1163,146.77829929791307
1166,0.0
1168,0.0
2,2,12,23, 0,17, 0.00,60.00,Tuesday
7,-7.8
545,19.58968530681891
546,0.49309346370959795
547,14.542649680804853
548,54.45262341665953
720,1027.2558575252078
721,1027.2558575252078
784,0.0
785,0.0
848,0.0
849,0.0
1121,1446.895343366639
1135,560.7848371823007
1161,8.985097175113358
1163,133.0812522588401
1166,0.0
1168,0.0
2,2,12,23, 0,18, 0.00,60.00,Tuesday
7,-8.9
545,19.47125419162191
546,-1.5522375398968422
547,14.54763652029823
548,91.11526818596337
720,1722.598013667115
721,1722.598013667115
784,0.0
785,0.0
848,0.0
849,0.0
1121,2405.359625794457
1135,924.8075004853636
1161,15.68573683562648
1163,87.92789326588002
1166,0.0
1168,0.0
2,2,12,23, 0,19, 0.00,60.00,Tuesday
7,-8.9
545,19.547264795931437
546,-3.534672181092622
547,14.532200617440614
548,104.65503695371329
720,1911.3940587045836
721,1911.3940587045836
784,0.0
785,0.0
848,0.0
849,0.0
1121,2792.107330121558
1135,1059.7876942131702
1161,18.016557874531163
1163,71.27454589765452
1166,0.0
1168,0.0
2,2,12,23, 0,20, 0.00,60.00,Tuesday
7,-11.1
545,19.41216030036213
546,-4.974286586662474
547,14.490932726792204
548,139.9580340422264
720,2339.8238345425507
721,2339.8238345425507
784,0.0
785,0.0
848,0.0
849,0.0
1121,3559.985131603852
1135,1387.8050583755196
1161,30.3810178621755
1163,27.25583568608865
1166,0.0
1168,0.0
2,2,12,23, 0,21, 0.00,60.00,Tuesday
7,-9.4
545,19.5669168939452
546,-4.980858241385091
547,14.44802739793216
548,144.66908203610106
720,2480.5675550934193
721,2480.5675550934193
784,0.0
785,0.0
848,0.0
849,0.0
1121,3891.1209734701984
1135,1450.020097169509
1161,32.60789684568647
1163,21.626453964748137
1166,0.0
1168,0.0
2,2,12,23, 0,22, 0.00,60.00,Tuesday
7,-8.9
545,19.604053028223486
546,-4.320648459765361
547,14.394333670875458
548,156.58282995740464
720,2725.8123005128637
721,2725.8123005128637
784,0.0
785,0.0
848,0.0
849,0.0
1121,4302.049505138998
1135,1577.9497766614181
1161,37.81713143295751
1163,6.892030556504869
1166,0.0
1168,0.0
2,2,12,23, 0,23, 0.00,60.00,Tuesday
7,-7.8
545,18.98693530135418
546,-3.6709971484177806
547,14.319397404773701
548,132.38745191875827
720,2272.98345277483
721,2272.98345277483
784,0.0
785,0.0
848,0.0
849,0.0
1121,3692.8926437991004
1135,1347.3326184921898
1161,31.46988894862651
1163,36.897432231327
1166,0.0
1168,0.0
2,2,12,23, 0,24, 0.00,60.00,Tuesday
7,-7.8
545,18.758522085076148
546,-3.3672998158937077
547,14.219826144058787
548,139.28031932028074
720,2531.99329775566
721,2531.99329775566
784,0.0
785,0.0
848,0.0
849,0.0
1121,3919.6362517296366
1135,1400.6380999212072
1161,33.10444083776255
1163,28.410575109876035
1166,0.0
1168,0.0
2,3,12,24, 0, 1, 0.00,60.00,Wednesday
7,-7.8
545,18.600386762148187
546,-2.967175319454803
547,14.135362207652564
548,157.23753833653106
720,2984.058428566037
721,2984.058428566037
784,0.0
785,0.0
848,0.0
849,0.0
1121,4491.518879470943
1135,1573.9910409309348
1161,37.37213147649076
1163,6.2899603592107
1166,0.0
1168,0.0
2,3,12,24, 0, 2, 0.00,60.00,Wednesday
7,-8.3
545,18.58247880004079
546,-3.3405122327583285
547,14.039584485530819
548,163.65543581870975
720,3469.2507446995824
721,3469.2507446995824
784,0.0
785,0.0
848,0.0
849,0.0
1121,4538.793308791003
1135,1582.0900418961003
1161,62.354325433584066
1163,0.0
1166,563.6511603268814
1168,563.6511603268814
2,3,12,24, 0, 3, 0.00,60.00,Wednesday
7,-7.8
545,18.587542679986957
546,-3.568156513478635
547,13.959237499494005
548,163.65543581870975
720,3867.8686820739204
721,3867.8686820739204
784,0.0
785,0.0
848,0.0
849,0.0
1121,4623.549582120132
1135,1593.5458246256549
1161,58.23598131882291
1163,0.0
1166,977.2528962736642
1168,977.2528962736642
2,3,12,24, 0, 4, 0.00,60.00,Wednesday
7,-7.8
545,18.596868198720884
546,-3.349846508744169
547,13.875212915419539
548,163.65543581870975
720,3836.7763206951986
721,3836.7763206951986
784,0.0
785,0.0
848,0.0
849,0.0
1121,4595.912859518602
1135,1584.087395374242
1161,65.50301840359397
1163,0.0
1166,994.5227193466126
1168,994.5227193466126
2,3,12,24, 0, 5, 0.00,60.00,Wednesday
7,-7.8
545,18.60233986978621
546,-3.3594601541178775
547,13.792507074857678
548,163.65543581870975
720,3834.66912265712
721,3834.66912265712
784,0.0
785,0.0
848,0.0
849,0.0
1121,4620.432781308738
1135,1592.739576925665
1161,59.009221774700386
1163,0.0
1166,963.1395878682142
1168,963.1395878682142
2,3,12,24, 0, 6, 0.00,60.00,Wednesday
7,-7.8
545,19.33722084256201
546,-3.0756214300135443
547,13.711311934225211
548,163.65543581870975
720,4860.446256129186
721,4860.446256129186
784,0.0
785,0.0
848,0.0
849,0.0
1121,4620.391470879601
1135,1592.7865196267855
1161,59.009221774700386
1163,0.0
1166,2141.663539379935
1168,2141.663539379935
2,3,12,24, 0, 7, 0.00,60.00,Wednesday
7,-9.4
545,19.587592395500707
546,-3.564165264309213
547,13.65281665107692
548,163.65543581870975
720,4823.492471743017
721,4823.492471743017
784,0.0
785,0.0
848,0.0
849,0.0
1121,4401.986520772684
1135,1599.663189776264
1161,53.75446662193811
1163,0.0
1166,2384.160272483696
1168,2384.160272483696
2,3,12,24, 0, 8, 0.00,60.00,Wednesday
7,-12.8
545,19.655536767473667
546,-5.5322702791137965
547,13.552569065370363
548,163.65543581870975
720,5113.264831964236
721,5113.264831964236
784,0.0
785,0.0
848,0.0
849,0.0
1121,4016.9847668053785
1135,1582.9474097592515
1161,33.35553765221702
1163,0.0
1166,3151.388103424086
1168,3151.388103424086
2,3,12,24, 0, 9, 0.00,60.00,Wednesday
7,-11.7
545,19.689223373584003
546,-5.885987975167118
547,13.491600836061364
548,163.65543581870975
720,4485.826111472497
721,4485.826111472497
784,0.0
785,0.0
848,0.0
849,0.0
1121,4175.856097823608
1135,1608.33574569218
1161,28.135299353776677
1163,0.0
1166,2387.4404478802826
1168,2387.4404478802826
2,3,12,24, 0,10, 0.00,60.00,Wednesday
7,-9.4
545,19.722155317002002
546,-4.13573139547368
547,13.435326146043307
548,163.65543581870975
720,3369.7471673900855
721,3369.7471673900855
784,0.0
785,0.0
848,0.0
849,0.0
1121,4496.561769425098
1135,1647.9925106969781
1161,24.86723509713375
1163,0.0
1166,809.3587080941661
1168,809.3587080941661
2,3,12,24, 0,11, 0.00,60.00,Wednesday
7,-7.8
545,19.72836375292006
546,-3.043228129582233
547,13.384879784968753
548,163.65543581870975
720,3402.626043631246
721,3402.626043631246
784,0.0
785,0.0
848,0.0
849,0.0
1121,4756.9737886977755
1135,1685.6785267273738
1161,14.882710369003275
1163,0.0
1166,492.1742943475492
1168,492.1742943475492
2,3,12,24, 0,12, 0.00,60.00,Wednesday
7,-7.2
545,19.870414101400776
546,-0.6371932543294175
547,13.330613684467211
548,130.90993739575157
720,2290.122062743494
721,2290.122062743494
784,0.0
785,0.0
848,0.0
849,0.0
1121,3761.1563147692477
1135,1354.1077082621682
1161,17.486641465559728
1163,39.335147364973544
1166,0.0
1168,0.0
2,3,12,24, 0,13, 0.00,60.00,Wednesday
7,-7.2
545,19.883441183039984
546,0.5433747868646789
547,13.303820123241886
548,105.53282035252725
720,1860.173738920139
721,1860.173738920139
784,0.0
785,0.0
848,0.0
849,0.0
1121,2973.5797029633068
1135,1094.6654900229403
1161,14.096877194195569
1163,70.47983447935351
1166,0.0
1168,0.0
2,3,12,24, 0,14, 0.00,60.00,Wednesday
7,-6.1
545,20.194275731082868
546,1.7011639379065078
547,13.27910304701499
548,62.125130951056526
720,1066.8868644497798
721,1066.8868644497798
784,0.0
785,0.0
848,0.0
849,0.0
1121,1756.2584378278332
1135,651.5320104909794
1161,7.344800152826644
1163,123.82185059500821
1166,0.0
1168,0.0
2,3,12,24, 0,15, 0.00,60.00,Wednesday
7,-6.1
545,19.921342288819336
546,0.24301141276533034
547,13.271584843381751
548,27.042787529342192
720,405.00078441773985
721,405.00078441773985
784,0.0
785,0.0
848,0.0
849,0.0
1121,744.6988571904564
1135,285.3551764518011
1161,3.1981153138210647
1163,166.83975962678096
1166,0.0
1168,0.0
2,3,12,24, 0,16, 0.00,60.00,Wednesday
7,-5.6
545,19.968566286698298
546,-0.04523163734776815
547,13.291820157203695
548,11.644216555202803
720,162.33463423082867
721,162.33463423082867
784,0.0
785,0.0
848,0.0
849,0.0
1121,321.58242612123723
1135,122.46294229323625
1161,1.6281304786215902
1163,185.71581157266544
1166,0.0
1168,0.0
2,3,12,24, 0,17, 0.00,60.00,Wednesday
7,-6.1
545,19.696516314568424
546,-1.1794340551451723
547,13.33120290013805
548,11.106618407791524
720,189.08451474789035
721,189.08451474789035
784,0.0
785,0.0
848,0.0
849,0.0
1121,301.4958715558914
1135,116.26931085260611
1161,1.7198128644865776
1163,186.3665615754779
1166,0.0
1168,0.0
2,3,12,24, 0,18, 0.00,60.00,Wednesday
7,-7.2
545,19.297914067169216
546,-2.6558052315399854
547,13.396598713657655
548,55.220001388940695
720,1099.071226325097
721,1099.071226325097
784,0.0
785,0.0
848,0.0
849,0.0
1121,1502.4304565905727
1135,571.0056214353332
1161,7.3847153209243945
1163,132.22856562244462
1166,0.0
1168,0.0
2,3,12,24, 0,19, 0.00,60.00,Wednesday
7,-7.2
545,19.462906470983114
546,-3.6471307721222224
547,13.419540465895071
548,87.00276927714424
720,1706.1822864748028
721,1706.1822864748028
784,0.0
785,0.0
848,0.0
849,0.0
1121,2426.853632476387
1135,892.7045484236801
1161,11.63499138843608
1163,93.22268752451876
1166,0.0
1168,0.0
2,3,12,24, 0,20, 0.00,60.00,Wednesday
7,-8.9
545,19.27995121297286
546,-5.201599565959711
547,13.422227740110134
548,117.37579247997506
720,2130.8200918189086
721,2130.8200918189086
784,0.0
785,0.0
848,0.0
849,0.0
1121,3177.2848405720238
1135,1191.1290810825128
1161,15.753784690931528
1163,55.835661304468665
1166,0.0
1168,0.0
2,3,12,24, 0,21, 0.00,60.00,Wednesday
7,-9.4
545,19.49486642438677
546,-4.924783989283685
547,13.396378063728221
548,140.04473349754386
720,2449.295797147588
721,2449.295797147588
784,0.0
785,0.0
848,0.0
849,0.0
1121,3791.322991518587
1135,1407.601631105048
1161,21.69905905600353
1163,27.812945412128908
1166,0.0
1168,0.0
2,3,12,24, 0,22, 0.00,60.00,Wednesday
7,-8.9
545,19.431416946188037
546,-4.634328056740388
547,13.368769295448473
548,163.65543581870975
720,3944.466534467001
721,3944.466534467001
784,0.0
785,0.0
848,0.0
849,0.0
1121,4581.454616001536
1135,1652.660924803179
1161,22.11807735250653
1163,0.0
1166,1235.3257057823507
1168,1235.3257057823507
2,3,12,24, 0,23, 0.00,60.00,Wednesday
7,-10.6
545,18.908024222508775
546,-5.653326545928442
547,13.294539912578838
548,163.65543581870975
720,2878.009898436949
721,2878.009898436949
784,0.0
785,0.0
848,0.0
849,0.0
1121,4385.081777413276
1135,1638.8670042974657
1161,11.946846034979314
1163,0.0
1166,252.36525745330346
1168,252.36525745330346
2,3,12,24, 0,24, 0.00,60.00,Wednesday
7,-13.9
545,18.697103655049414
546,-6.412147031806082
547,13.172599791550569
548,163.65543581870975
720,3519.942388335141
721,3519.942388335141
784,0.0
785,0.0
848,0.0
849,0.0
1121,3935.463017883357
1135,1562.2616551625586
1161,20.609694531088174
1163,0.0
1166,1428.8896150542369
1168,1428.8896150542369
2,4,12,25, 0, 1, 0.00,60.00,Thursday
7,-13.9
545,18.616563047291162
546,-7.155346051623628
547,13.087450459585236
548,163.65543581870975
720,4043.639523491487
721,4043.639523491487
784,0.0
785,0.0
848,0.0
849,0.0
1121,3941.316023368485
1135,1556.2006007860282
1161,20.609694531088174
1163,0.0
1166,2062.223060844575
1168,2062.223060844575
2,4,12,25, 0, 2, 0.00,60.00,Thursday
7,-13.3
545,18.587121414271646
546,-7.179497690576336
547,12.994344964805538
548,163.65543581870975
720,4492.835229772027
721,4492.835229772027
784,0.0
785,0.0
848,0.0
849,0.0
1121,4015.555715751685
1135,1560.9603684766435
1161,22.189839561311558
1163,0.0
1166,2555.4792913178117
1168,2555.4792913178117
2,4,12,25, 0, 3, 0.00,60.00,Thursday
7,-11.7
545,18.59043958595653
546,-6.930748631734157
547,12.911310052799404
548,163.65543581870975
720,4441.527690818226
721,4441.527690818226
784,0.0
785,0.0
848,0.0
849,0.0
1121,4222.043727382554
1135,1582.2794985801982
1161,23.30504192648457
1163,0.0
1166,2308.607589846722
1168,2308.607589846722
2,4,12,25, 0, 4, 0.00,60.00,Thursday
7,-11.1
545,18.591249111340346
546,-6.432763664341677
547,12.818076211328494
548,163.65543581870975
720,4553.828882516826
721,4553.828882516826
784,0.0
785,0.0
848,0.0
849,0.0
1121,4313.455248539628
1135,1595.1643556612735
1161,19.992700139827917
1163,0.0
1166,2338.6683989647386
1168,2338.6683989647386
2,4,12,25, 0, 5, 0.00,60.00,Thursday
7,-12.2
545,18.587541616971787
546,-7.440673819502413
547,12.712078619043377
548,163.65543581870975
720,4826.34735154259
721,4826.34735154259
784,0.0
785,0.0
848,0.0
849,0.0
1121,4164.714936918656
1135,1578.031415058697
1161,20.731968065234962
1163,0.0
1166,2780.7111318506245
1168,2780.7111318506245
2,4,12,25, 0, 6, 0.00,60.00,Thursday
7,-12.8
545,19.319169120302632
546,-7.982978681269558
547,12.612272750245218
548,163.65543581870975
720,6310.278653556979
721,6310.278653556979
784,0.0
785,0.0
848,0.0
849,0.0
1121,4087.8761152175507
1135,1569.4335908224944
1161,20.274897064854294
1163,0.0
1166,4615.013948885184
1168,4615.013948885184
2,4,12,25, 0, 7, 0.00,60.00,Thursday
7,-12.8
545,19.570549748364265
546,-8.14750745696387
547,12.55204894533454
548,163.65543581870975
720,6097.4329677114565
721,6097.4329677114565
784,0.0
785,0.0
848,0.0
849,0.0
1121,4068.1486237228005
1135,1590.2715392045172
1161,20.274897064854294
1163,0.0
1166,4514.8651640071
1168,4514.8651640071
2,4,12,25, 0, 8, 0.00,60.00,Thursday
7,-14.4
545,19.603637100834387
546,-8.16279643449714
547,12.435792111253967
548,163.65543581870975
720,7768.600733866944
721,7768.600733866944
784,0.0
785,0.0
848,0.0
849,0.0
1121,3918.3072795741127
1135,1597.202934398551
1161,0.08823589678219725
1163,0.0
1166,6677.155980658907
1168,6677.155980658907
2,4,12,25, 0, 9, 0.00,60.00,Thursday
7,-15.0
545,19.66350845164711
546,-8.104753946250634
547,12.350250223356454
548,163.65543581870975
720,6873.650561331255
721,6873.650561331255
784,0.0
785,0.0
848,0.0
849,0.0
1121,3809.1399438928224
1135,1574.9878089386705
1161,10.645567216298176
1163,0.0
1166,5788.278043781561
1168,5788.278043781561
2,4,12,25, 0,10, 0.00,60.00,Thursday
7,-15.6
545,19.6702105846828
546,-8.639449210886168
547,12.247479298376867
548,163.65543581870975
720,6857.514846987406
721,6857.514846987406
784,0.0
785,0.0
848,0.0
849,0.0
1121,3753.250837122991
1135,1575.1357999858574
1161,3.649091029396332
1163,0.0
1166,5822.983793191452
1168,5822.983793191452
2,4,12,25, 0,11, 0.00,60.00,Thursday
7,-15.6
545,19.65805871505028
546,-8.57167666445697
547,12.150904164742679
548,163.65543581870975
720,7179.415450342274
721,7179.415450342274
784,0.0
785,0.0
848,0.0
849,0.0
1121,3760.9888819280604
1135,1578.293949105122
1161,1.0474205886371868
1163,0.0
1166,6237.7907048123
1168,6237.7907048123
2,4,12,25, 0,12, 0.00,60.00,Thursday
7,-15.6
545,19.673959180150188
546,-7.943516465710867
547,12.074074981000486
548,163.65543581870975
720,6745.739240103518
721,6745.739240103518
784,0.0
785,0.0
848,0.0
849,0.0
1121,3753.749724153687
1135,1574.6553065197904
1161,3.645921295719407
1163,0.0
1166,5745.9446216255155
1168,5745.9446216255155
2,4,12,25, 0,13, 0.00,60.00,Thursday
7,-15.6
545,19.682554574992864
546,-7.683106601839365
547,11.999456669358471
548,163.65543581870975
720,6467.655460299075
721,6467.655460299075
784,0.0
785,0.0
848,0.0
849,0.0
1121,3753.4284055693665
1135,1574.9732770714527
1161,3.645921295719407
1163,0.0
1166,5388.102055626874
1168,5388.102055626874
2,4,12,25, 0,14, 0.00,60.00,Thursday
7,-15.0
545,19.70408206397643