Program Version,EnergyPlus, Version 22.2.0-c249759bad, YMD=2023.09.01 20:46
1,5,Environment Title[],Latitude[deg],Longitude[deg],Time Zone[],Elevation[m]
2,8,Day of Simulation[],Month[],Day of Month[],DST Indicator[1=yes 0=no],Hour[],StartMinute[],EndMinute[],DayType
3,5,Cumulative Day of Simulation[],Month[],Day of Month[],DST Indicator[1=yes 0=no],DayType  ! When Daily Report Variables Requested
4,2,Cumulative Days of Simulation[],Month[]  ! When Monthly Report Variables Requested
5,1,Cumulative Days of Simulation[] ! When Run Period Report Variables Requested
6,1,Calendar Year of Simulation[] ! When Annual Report Variables Requested
581,11,LIVING,AFN Zone Infiltration Air Change Rate [ach] !RunPeriod [Value,Min,Month,Day,Hour,Minute,Max,Month,Day,Hour,Minute]
582,11,ATTIC,AFN Zone Infiltration Air Change Rate [ach] !RunPeriod [Value,Min,Month,Day,Hour,Minute,Max,Month,Day,Hour,Minute]
583,11,CRAWLSPACE,AFN Zone Infiltration Air Change Rate [ach] !RunPeriod [Value,Min,Month,Day,Hour,Minute,Max,Month,Day,Hour,Minute]
1038,11,Facility,Facility Heating Setpoint Not Met Time [hr] !RunPeriod [Value,Min,Month,Day,Hour,Minute,Max,Month,Day,Hour,Minute]
1039,11,Facility,Facility Cooling Setpoint Not Met Time [hr] !RunPeriod [Value,Min,Month,Day,Hour,Minute,Max,Month,Day,Hour,Minute]
1115,11,DX_HEATING_COIL,Heating Coil Heating Energy [J] !RunPeriod [Value,Min,Month,Day,Hour,Minute,Max,Month,Day,Hour,Minute]
1128,11,DX_HEATING_COIL,Heating Coil Electricity Energy [J] !RunPeriod [Value,Min,Month,Day,Hour,Minute,Max,Month,Day,Hour,Minute]
1153,11,DX_HEATING_COIL,Heating Coil Defrost Electricity Energy [J] !RunPeriod [Value,Min,Month,Day,Hour,Minute,Max,Month,Day,Hour,Minute]
1154,11,DX_HEATING_COIL,Heating Coil Crankcase Heater Electricity Energy [J] !RunPeriod [Value,Min,Month,Day,Hour,Minute,Max,Month,Day,Hour,Minute]
1155,11,HEATING_RESISTANCE_BACKUP,Heating Coil Heating Energy [J] !RunPeriod [Value,Min,Month,Day,Hour,Minute,Max,Month,Day,Hour,Minute]
1156,11,HEATING_RESISTANCE_BACKUP,Heating Coil Electricity Energy [J] !RunPeriod [Value,Min,Month,Day,Hour,Minute,Max,Month,Day,Hour,Minute]
1292,11,WATER HEATER,Water Heater Heat Loss Energy [J] !RunPeriod [Value,Min,Month,Day,Hour,Minute,Max,Month,Day,Hour,Minute]
1306,11,WATER HEATER,Water Heater Heating Energy [J] !RunPeriod [Value,Min,Month,Day,Hour,Minute,Max,Month,Day,Hour,Minute]
1307,11,WATER HEATER,Water Heater Unmet Demand Heat Transfer Energy [J] !RunPeriod [Value,Min,Month,Day,Hour,Minute,Max,Month,Day,Hour,Minute]
1308,11,WATER HEATER,Water Heater Electricity Energy [J] !RunPeriod [Value,Min,Month,Day,Hour,Minute,Max,Month,Day,Hour,Minute]
13,11,Electricity:Facility [J] !RunPeriod [Value,Min,Month,Day,Hour,Minute,Max,Month,Day,Hour,Minute]
1134,11,Heating:Electricity [J] !RunPeriod [Value,Min,Month,Day,Hour,Minute,Max,Month,Day,Hour,Minute]
1096,11,Cooling:Electricity [J] !RunPeriod [Value,Min,Month,Day,Hour,Minute,Max,Month,Day,Hour,Minute]
562,11,Fans:Electricity [J] !RunPeriod [Value,Min,Month,Day,Hour,Minute,Max,Month,Day,Hour,Minute]
1379,11,Pumps:Electricity [J] !RunPeriod [Value,Min,Month,Day,Hour,Minute,Max,Month,Day,Hour,Minute]
1326,11,WaterSystems:Electricity [J] !RunPeriod [Value,Min,Month,Day,Hour,Minute,Max,Month,Day,Hour,Minute]
61,11,InteriorLights:Electricity [J] !RunPeriod [Value,Min,Month,Day,Hour,Minute,Max,Month,Day,Hour,Minute]
1046,11,ExteriorLights:Electricity [J] !RunPeriod [Value,Min,Month,Day,Hour,Minute,Max,Month,Day,Hour,Minute]
134,11,InteriorEquipment:Electricity [J] !RunPeriod [Value,Min,Month,Day,Hour,Minute,Max,Month,Day,Hour,Minute]
170,11,gas_dryer:InteriorEquipment:Electricity [J] !RunPeriod [Value,Min,Month,Day,Hour,Minute,Max,Month,Day,Hour,Minute]
207,11,clotheswasher:InteriorEquipment:Electricity [J] !RunPeriod [Value,Min,Month,Day,Hour,Minute,Max,Month,Day,Hour,Minute]
244,11,dishwasher:InteriorEquipment:Electricity [J] !RunPeriod [Value,Min,Month,Day,Hour,Minute,Max,Month,Day,Hour,Minute]
281,11,refrigerator:InteriorEquipment:Electricity [J] !RunPeriod [Value,Min,Month,Day,Hour,Minute,Max,Month,Day,Hour,Minute]
318,11,electric_mels:InteriorEquipment:Electricity [J] !RunPeriod [Value,Min,Month,Day,Hour,Minute,Max,Month,Day,Hour,Minute]
355,11,NaturalGas:Facility [J] !RunPeriod [Value,Min,Month,Day,Hour,Minute,Max,Month,Day,Hour,Minute]
403,11,InteriorEquipment:NaturalGas [J] !RunPeriod [Value,Min,Month,Day,Hour,Minute,Max,Month,Day,Hour,Minute]
476,11,gas_dryer:InteriorEquipment:NaturalGas [J] !RunPeriod [Value,Min,Month,Day,Hour,Minute,Max,Month,Day,Hour,Minute]
513,11,gas_mels:InteriorEquipment:NaturalGas [J] !RunPeriod [Value,Min,Month,Day,Hour,Minute,Max,Month,Day,Hour,Minute]
End of Data Dictionary
1,EXTREME_WINTER,  40.48, -80.21,  -5.00, 366.70
5,7
1038,1.5,0.0, 1,22, 1,15,0.25, 1,22, 6,15
1039,0.0,0.0, 1,22, 1,15,0.0, 1,22, 1,15
581,0.3822847233746919,0.1941389153211081, 1,28,24,60,0.613131131896693, 1,22, 1,60
582,3.542740504710154,0.03189994187004614, 1,24,23,11,15.94099731521562, 1,22, 1,60
583,0.059290718138362314,0.00046514574330379756, 1,23,23, 5,0.07813706387725837, 1,22, 1,60
1115,1814547569.3132014,0.0, 1,22,23, 5,3730074.279642271, 1,28, 6,45
1128,654155399.310654,0.0, 1,22,23, 5,1184871.822097123, 1,24,13,45
1153,12578629.754538,0.0, 1,22,23, 5,97898.63033820968, 1,28, 9,15
1154,17123133.531423397,0.0, 1,22, 1, 7,180000.0, 1,28,17,15
1155,929331074.469409,0.0, 1,22,23, 5,5028153.887289055, 1,23, 6,45
1156,929331074.469409,0.0, 1,22,23, 5,5028153.887289055, 1,23, 6,45
1292,-25272340.112229317,-39746.55003146899, 1,25, 3,30,-6257.862391173242, 1,27,13,60
1306,268410432.9340613,0.0, 1,22, 1, 7,4050000.0, 1,22, 8,45
1307,90793441.81551237,0.0, 1,22, 1, 7,14342559.51050312, 1,22, 8,30
1308,268410432.9340613,0.0, 1,22, 1, 7,4050000.0, 1,22, 8,45
13,2327490136.242712,492547.9437383946, 1,28,24,15,10986244.68573128, 1,23, 7,15
61,301924526.02383536,88139.10953165221, 1,22, 1,15,1282023.4113694867, 1,22,20,15
134,70666020.44019976,63564.01800854099, 1,22, 4,15,156554.22484006523, 1,27,20,15
170,5241013.419656067,348.4159749238097, 1,22, 4,15,17476.39704006126, 1,27,12,15
207,6509451.13922267,815.2532113832032, 1,22, 3,15,22990.642799023623, 1,27,10,15
244,12749673.399825225,1521.856143006317, 1,22, 4,15,53038.631142310165, 1,27,20,15
281,46165882.481495745,59938.60262432081, 1,22, 5,15,81951.81706819107, 1,22,19,15
318,0.0,0.0, 1,22, 1,15,0.0, 1,22, 1,15
355,197687796.27748066,18561.32405820678, 1,22, 4,15,724774.895203776, 1,27,18,15
403,197687796.27748066,18561.32405820678, 1,22, 4,15,724774.895203776, 1,27,18,15
476,106772067.24485716,7098.072629279515, 1,22, 4,15,356036.3026282215, 1,27,12,15
513,0.0,0.0, 1,22, 1,15,0.0, 1,22, 1,15
562,73300919.77858533,0.0, 1,28,17,15,127153.01714698238, 1,27,10,30
1046,0.0,0.0, 1,22, 1,15,0.0, 1,22, 1,15
1096,0.0,0.0, 1,22, 1,15,0.0, 1,22, 1,15
1134,1613188237.0660229,180000.0, 1,28,17,15,6138920.560220702, 1,22, 6,30
1326,268410432.9340613,0.0, 1,22, 1,15,4050000.0, 1,22, 8,45
1379,0.0,0.0, 1,22, 1,15,0.0, 1,22, 1,15
1,EXTREME_SUMMER,  40.48, -80.21,  -5.00, 366.70
5,7
1038,0.0,0.0, 7,29, 1,15,0.0, 7,29, 1,15
1039,34.25,0.0, 7,29, 1,15,0.25, 7,29,13,45
581,0.11768487588673716,0.0, 7,29,23, 3,0.36158238979335405, 7,30,16,50
582,3.4720181241600363,0.03668113469353819, 8, 2, 8,33,11.111926999066966, 7,30,13,50
583,0.03641931486119545,0.00009343411295158996, 8, 2, 6, 7,0.06384613423896579, 8, 4, 6, 3
1115,0.0,0.0, 7,29, 1,15,0.0, 7,29, 1,15
1128,0.0,0.0, 7,29, 1,15,0.0, 7,29, 1,15
1153,0.0,0.0, 7,29, 1,15,0.0, 7,29, 1,15
1154,0.0,0.0, 7,29, 1,15,0.0, 7,29, 1,15
1155,0.0,0.0, 7,29, 1,15,0.0, 7,29, 1,15
1156,0.0,0.0, 7,29, 1,15,0.0, 7,29, 1,15
1292,-21913241.411367897,-34345.532925906475, 8, 3,21,30,-3116.0186813355176, 8, 2, 8,46
1306,205809813.32672557,0.0, 7,29, 1,15,4050000.0, 7,30, 7,30
1307,51837159.455245115,0.0, 7,29, 1,15,4763889.367843629, 7,30, 7,15
1308,205809813.32672557,0.0, 7,29, 1,15,4050000.0, 7,30, 7,30
13,1083943253.2673728,196510.3165562649, 7,31, 4,60,6446168.585767323, 7,29,18,30
61,301924526.02383536,88139.10953165221, 7,29, 1,15,1282023.4113694867, 7,29,20,15
134,70666020.44019976,63564.01800854099, 7,29, 4,15,156554.22484006523, 8, 3,20,15
170,5241013.419656067,348.4159749238097, 7,29, 4,15,17476.39704006126, 8, 3,12,15
207,6509451.13922267,815.2532113832032, 7,29, 3,15,22990.642799023623, 8, 3,10,15
244,12749673.399825225,1521.856143006317, 7,29, 4,15,53038.631142310165, 8, 3,20,15
281,46165882.481495745,59938.60262432081, 7,29, 5,15,81951.81706819107, 7,29,19,15
318,0.0,0.0, 7,29, 1,15,0.0, 7,29, 1,15
355,197687796.27748066,18561.32405820678, 7,29, 4,15,724774.895203776, 8, 3,18,15
403,197687796.27748066,18561.32405820678, 7,29, 4,15,724774.895203776, 8, 3,18,15
476,106772067.24485716,7098.072629279515, 7,29, 4,15,356036.3026282215, 8, 3,12,15
513,0.0,0.0, 7,29, 1,15,0.0, 7,29, 1,15
562,49909760.01963767,1130.5303722083504, 7,31, 6,30,127153.01714698238, 7,29,18,30
1046,0.0,0.0, 7,29, 1,15,0.0, 7,29, 1,15
1096,455633133.4569759,8885.06292795698, 7,31, 6,30,1302430.6370890825, 7,29,17,60
1134,0.0,0.0, 7,29, 1,15,0.0, 7,29, 1,15
1326,205809813.32672557,0.0, 7,29, 1,15,4050000.0, 7,29, 8,45
1379,0.0,0.0, 7,29, 1,15,0.0, 7,29, 1,15
1,ANNUAL,  40.48, -80.21,  -5.00, 366.70
5,365
1038,15.75,0.0, 1, 1, 1,15,0.25, 1, 3, 6,15
1039,395.0,0.0, 1, 1, 1,15,0.25, 1,13,17,45
581,0.24649949226530088,0.0, 6, 9,23, 3,1.1416419128240307,10,30,24,60
582,3.8527556102865073,0.0, 1, 7,23, 6,25.891328897547172,12,31,12,60
583,0.027401449451975094,0.0, 6, 9,23, 3,0.0808053626708689, 2, 8,14,52
1115,24921633746.01156,0.0, 1, 1,23, 3,4311622.790090533, 2,13, 6,60
1128,7976682072.327924,0.0, 1, 1,23, 3,1258529.3867324858, 2,13, 6,60
1153,287273391.70303845,0.0, 1, 1,23, 3,124210.46390248035,12,30, 6,60
1154,1549638812.9966207,0.0, 1, 1, 6, 5,180000.0, 1, 3,17,15
1155,3654667799.8985267,0.0, 1, 1, 1,15,5028153.887289055, 1,22, 6,45
1156,3654667799.8985267,0.0, 1, 1, 1,15,5028153.887289055, 1,22, 6,45
1292,-1223318276.1539967,-39796.16605245831, 3,23, 4,15,-2275.8750002216375, 8,20,10,30
1306,12414779561.915733,0.0, 1, 1, 1,15,4050000.0, 1, 1,10,30
1307,3731130131.8932657,0.0, 1, 1, 1,15,14476130.162463823, 2,13, 8,30
1308,12414779561.915733,0.0, 1, 1, 1,15,4050000.0, 1, 1,10,30
13,54950544136.55268,151703.1275401932, 1,13, 4,15,10939317.14678372, 1,23, 8,45
61,15743207428.383959,88139.10953165221, 1, 1, 1,15,1282023.4113694867, 1, 1,20,15
134,3685071073.4325233,63564.01800854099, 1, 2, 4,15,156554.22484006523, 1, 1,20,15
170,273393721.45532674,348.4159749238097, 1, 2, 4,15,17476.39704006126, 1, 1,12,15
207,339560869.0695816,815.2532113832032, 1, 2, 3,15,22990.642799023623, 1, 1,10,15
244,664895467.8009144,1521.856143006317, 1, 2, 4,15,53038.631142310165, 1, 1,20,15
281,2407221015.106824,59938.60262432081, 1, 1, 5,15,81951.81706819107, 1, 1,19,15
318,0.0,0.0, 1, 1, 1,15,0.0, 1, 1, 1,15
355,10310294493.051695,18561.32405820678, 1, 2, 4,15,724774.895203776, 1, 1,18,15
403,10310294493.051695,18561.32405820678, 1, 2, 4,15,724774.895203776, 1, 1,18,15
476,5569688622.066177,7098.072629279515, 1, 2, 4,15,356036.3026282215, 1, 1,12,15
513,0.0,0.0, 1, 1, 1,15,0.0, 1, 1, 1,15
562,1787214679.1564965,0.0, 1, 3,17,15,127153.01714698238, 1, 3,10,30
1046,0.0,0.0, 1, 1, 1,15,0.0, 1, 1, 1,15
1096,7852009316.736333,0.0, 1, 1, 1,15,1333616.0554544278, 9, 2,17,60
1134,13468262076.926126,0.0, 1,11,19,15,6132863.009225958, 1,22, 7,15
1326,12414779561.915731,0.0, 1, 1, 1,15,4050000.0, 1, 1,10,30
1379,0.0,0.0, 1, 1, 1,15,0.0, 1, 1, 1,15
End of Data
 Number of Records Written=          99
