Program Version,EnergyPlus, Version 22.2.0-c249759bad, YMD=2023.07.07 15:20
1,5,Environment Title[],Latitude[deg],Longitude[deg],Time Zone[],Elevation[m]
2,8,Day of Simulation[],Month[],Day of Month[],DST Indicator[1=yes 0=no],Hour[],StartMinute[],EndMinute[],DayType
3,5,Cumulative Day of Simulation[],Month[],Day of Month[],DST Indicator[1=yes 0=no],DayType  ! When Daily Report Variables Requested
4,2,Cumulative Days of Simulation[],Month[]  ! When Monthly Report Variables Requested
5,1,Cumulative Days of Simulation[] ! When Run Period Report Variables Requested
6,1,Calendar Year of Simulation[] ! When Annual Report Variables Requested
581,11,LIVING,AFN Zone Infiltration Air Change Rate [ach] !RunPeriod [Value,Min,Month,Day,Hour,Minute,Max,Month,Day,Hour,Minute]
582,11,ATTIC,AFN Zone Infiltration Air Change Rate [ach] !RunPeriod [Value,Min,Month,Day,Hour,Minute,Max,Month,Day,Hour,Minute]
583,11,CRAWLSPACE,AFN Zone Infiltration Air Change Rate [ach] !RunPeriod [Value,Min,Month,Day,Hour,Minute,Max,Month,Day,Hour,Minute]
1038,11,Facility,Facility Heating Setpoint Not Met Time [hr] !RunPeriod [Value,Min,Month,Day,Hour,Minute,Max,Month,Day,Hour,Minute]
1039,11,Facility,Facility Cooling Setpoint Not Met Time [hr] !RunPeriod [Value,Min,Month,Day,Hour,Minute,Max,Month,Day,Hour,Minute]
1115,11,DX_HEATING_COIL,Heating Coil Heating Energy [J] !RunPeriod [Value,Min,Month,Day,Hour,Minute,Max,Month,Day,Hour,Minute]
1128,11,DX_HEATING_COIL,Heating Coil Electricity Energy [J] !RunPeriod [Value,Min,Month,Day,Hour,Minute,Max,Month,Day,Hour,Minute]
1153,11,DX_HEATING_COIL,Heating Coil Defrost Electricity Energy [J] !RunPeriod [Value,Min,Month,Day,Hour,Minute,Max,Month,Day,Hour,Minute]
1154,11,DX_HEATING_COIL,Heating Coil Crankcase Heater Electricity Energy [J] !RunPeriod [Value,Min,Month,Day,Hour,Minute,Max,Month,Day,Hour,Minute]
1156,11,HEATING_RESISTANCE_BACKUP,Heating Coil Electricity Energy [J] !RunPeriod [Value,Min,Month,Day,Hour,Minute,Max,Month,Day,Hour,Minute]
13,11,Electricity:Facility [J] !RunPeriod [Value,Min,Month,Day,Hour,Minute,Max,Month,Day,Hour,Minute]
1134,11,Heating:Electricity [J] !RunPeriod [Value,Min,Month,Day,Hour,Minute,Max,Month,Day,Hour,Minute]
1096,11,Cooling:Electricity [J] !RunPeriod [Value,Min,Month,Day,Hour,Minute,Max,Month,Day,Hour,Minute]
562,11,Fans:Electricity [J] !RunPeriod [Value,Min,Month,Day,Hour,Minute,Max,Month,Day,Hour,Minute]
1388,11,Pumps:Electricity [J] !RunPeriod [Value,Min,Month,Day,Hour,Minute,Max,Month,Day,Hour,Minute]
1360,11,WaterSystems:Electricity [J] !RunPeriod [Value,Min,Month,Day,Hour,Minute,Max,Month,Day,Hour,Minute]
61,11,InteriorLights:Electricity [J] !RunPeriod [Value,Min,Month,Day,Hour,Minute,Max,Month,Day,Hour,Minute]
1046,11,ExteriorLights:Electricity [J] !RunPeriod [Value,Min,Month,Day,Hour,Minute,Max,Month,Day,Hour,Minute]
134,11,InteriorEquipment:Electricity [J] !RunPeriod [Value,Min,Month,Day,Hour,Minute,Max,Month,Day,Hour,Minute]
170,11,gas_dryer:InteriorEquipment:Electricity [J] !RunPeriod [Value,Min,Month,Day,Hour,Minute,Max,Month,Day,Hour,Minute]
207,11,clotheswasher:InteriorEquipment:Electricity [J] !RunPeriod [Value,Min,Month,Day,Hour,Minute,Max,Month,Day,Hour,Minute]
244,11,dishwasher:InteriorEquipment:Electricity [J] !RunPeriod [Value,Min,Month,Day,Hour,Minute,Max,Month,Day,Hour,Minute]
281,11,refrigerator:InteriorEquipment:Electricity [J] !RunPeriod [Value,Min,Month,Day,Hour,Minute,Max,Month,Day,Hour,Minute]
318,11,electric_mels:InteriorEquipment:Electricity [J] !RunPeriod [Value,Min,Month,Day,Hour,Minute,Max,Month,Day,Hour,Minute]
355,11,NaturalGas:Facility [J] !RunPeriod [Value,Min,Month,Day,Hour,Minute,Max,Month,Day,Hour,Minute]
1323,11,WaterSystems:NaturalGas [J] !RunPeriod [Value,Min,Month,Day,Hour,Minute,Max,Month,Day,Hour,Minute]
403,11,InteriorEquipment:NaturalGas [J] !RunPeriod [Value,Min,Month,Day,Hour,Minute,Max,Month,Day,Hour,Minute]
476,11,gas_dryer:InteriorEquipment:NaturalGas [J] !RunPeriod [Value,Min,Month,Day,Hour,Minute,Max,Month,Day,Hour,Minute]
513,11,gas_mels:InteriorEquipment:NaturalGas [J] !RunPeriod [Value,Min,Month,Day,Hour,Minute,Max,Month,Day,Hour,Minute]
End of Data Dictionary
1,EXTREME_WINTER,  40.00, -82.88,  -5.00, 254.00
5,7
1038,1.6666666666666665,0.0, 1,20, 1,10,0.16666666666666666, 1,20, 6,10
1039,0.0,0.0, 1,20, 1,10,0.0, 1,20, 1,10
581,0.3388207093232104,0.21968039722852536, 1,24, 5,50,0.9275249442201936, 1,22, 6,60
582,4.705514382473817,0.0, 1,20,24,60,21.267435346555743, 1,22,17,55
583,5.721842590500676,0.4271435984392788, 1,25,23,60,26.398032967817443, 1,22, 6,60
1115,1909803296.8636596,0.0, 1,20,23, 2,2861976.7833960867, 1,22, 6,60
1128,633434841.1683545,0.0, 1,20,23, 2,813963.2527198367, 1,22, 6,40
1153,7956516.318436032,0.0, 1,20,23, 2,58029.98983240601, 1,22,14,60
1154,19357578.941990864,0.0, 1,20, 1, 5,120000.0, 1,21,17,30
1156,816014400.0000385,0.0, 1,20,14,40,3635435.1523493603, 1,20, 6,10
13,1925536167.0560396,306324.6925987483, 1,23,15,60,4900758.8662027465, 1,20, 7,10
61,301924526.0238348,58759.40635443481, 1,20, 1,10,854682.2742463244, 1,20,20,10
134,70666020.44019979,42376.01200569399, 1,20, 4,10,104369.48322671017, 1,25,20,10
170,5241013.419656074,232.27731661587313, 1,20, 4,10,11650.931360040839, 1,25,12,10
207,6509451.13922266,543.5021409221355, 1,20, 3,10,15327.095199349082, 1,25,10,10
244,12749673.39982522,1014.5707620042115, 1,20, 4,10,35359.08742820678, 1,25,20,10
281,46165882.48149605,39959.06841621388, 1,20, 5,10,54634.54471212738, 1,20,19,10
318,0.0,0.0, 1,20, 1,10,0.0, 1,20, 1,10
355,746259582.9426368,12374.216038804521, 1,20, 4,10,3829218.154066982, 1,24,18,20
403,197687796.27748126,12374.216038804521, 1,20, 4,10,483183.26346918393, 1,25,18,10
476,106772067.24485692,4732.048419519677, 1,20, 4,10,237357.535085481, 1,25,12,10
513,0.0,0.0, 1,20, 1,10,0.0, 1,20, 1,10
562,71162444.16318673,0.0, 1,21,17,10,84072.45453521388, 1,20, 1,30
1046,0.0,0.0, 1,20, 1,10,0.0, 1,20, 1,10
1096,0.0,0.0, 1,20, 1,10,0.0, 1,20, 1,10
1134,1476763336.42882,120000.0, 1,21,17,10,4354546.741254404, 1,23, 6,10
1323,548571786.6651523,0.0, 1,20, 1,10,3375000.000000001, 1,20,17,20
1360,5019840.0,4980.0, 1,20, 1,10,4980.000000000001, 1,20, 1,30
1388,0.0,0.0, 1,20, 1,10,0.0, 1,20, 1,10
1,EXTREME_SUMMER,  40.00, -82.88,  -5.00, 254.00
5,7
1038,0.0,0.0, 8, 3, 1,10,0.0, 8, 3, 1,10
1039,40.666666666666664,0.0, 8, 3, 1,10,0.16666666666666666, 8, 3,19,20
581,0.08781636279324469,0.0, 8, 3, 1,10,0.3289747385970407, 8, 9,12,60
582,3.1781846401277467,0.0, 8, 5,21,45,14.750729390750857, 8, 9,12,60
583,3.359299591611214,0.0, 8, 5, 6, 7,11.710684416603344, 8, 9,12,60
1115,0.0,0.0, 8, 3, 1,10,0.0, 8, 3, 1,10
1128,0.0,0.0, 8, 3, 1,10,0.0, 8, 3, 1,10
1153,0.0,0.0, 8, 3, 1,10,0.0, 8, 3, 1,10
1154,0.0,0.0, 8, 3, 1,10,0.0, 8, 3, 1,10
1156,0.0,0.0, 8, 3, 1,10,0.0, 8, 3, 1,10
13,913319890.5086482,158891.13138678015, 8, 8, 4,60,1854369.7464274224, 8, 5,20,10
61,301924526.0238348,58759.40635443481, 8, 3, 1,10,854682.2742463244, 8, 3,20,10
134,70666020.44019979,42376.01200569399, 8, 3, 4,10,104369.48322671017, 8, 8,20,10
170,5241013.419656074,232.27731661587313, 8, 3, 4,10,11650.931360040839, 8, 8,12,10
207,6509451.13922266,543.5021409221355, 8, 3, 3,10,15327.095199349082, 8, 8,10,10
244,12749673.39982522,1014.5707620042115, 8, 3, 4,10,35359.08742820678, 8, 8,20,10
281,46165882.48149605,39959.06841621388, 8, 3, 5,10,54634.54471212738, 8, 3,19,10
318,0.0,0.0, 8, 3, 1,10,0.0, 8, 3, 1,10
355,628815196.8200089,12374.216038804521, 8, 3, 4,10,3829218.154066982, 8, 7,18,20
403,197687796.27748126,12374.216038804521, 8, 3, 4,10,483183.26346918393, 8, 8,18,10
476,106772067.24485692,4732.048419519677, 8, 3, 4,10,237357.535085481, 8, 8,12,10
513,0.0,0.0, 8, 3, 1,10,0.0, 8, 3, 1,10
562,52943378.34518194,2924.6191751922142, 8, 4, 6,20,84072.45453521388, 8, 5,12,20
1046,0.0,0.0, 8, 3, 1,10,0.0, 8, 3, 1,10
1096,482766125.6994311,24502.669978923786, 8, 4, 6,20,842966.5773293921, 8, 6,15,60
1134,0.0,0.0, 8, 3, 1,10,0.0, 8, 3, 1,10
1323,431127400.5425262,0.0, 8, 3, 1,10,3375000.0000000005, 8, 3,16,50
1360,5019840.0,4980.0, 8, 3, 1,10,4980.000000000002, 8, 9,10,20
1388,0.0,0.0, 8, 3, 1,10,0.0, 8, 3, 1,10
1,ANNUAL,  40.00, -82.88,  -5.00, 254.00
5,365
1038,26.83333333333333,0.0, 1, 1, 1,10,0.16666666666666666, 1, 1, 2,60
1039,696.1666666666669,0.0, 1, 1, 1,10,0.16666666666666666, 4, 1,12,10
581,0.22223014123075763,0.0, 5,30, 2,40,1.3118567736198241, 2,11,21,55
582,4.17461552569488,0.0, 1, 9,19,55,40.561674408711895, 2,11,21,55
583,4.73902201469919,0.0, 6, 5,23, 2,38.98012980319677, 2,11,22,60
1115,25569334944.115597,0.0, 1, 1,23, 3,2967901.821091071, 1, 5, 6,30
1128,7908944848.879055,0.0, 1, 1,23, 3,830943.3753160924, 1, 5, 6,30
1153,270531049.41673,0.0, 1, 1,23, 3,94313.21167489511,12,25, 6,30
1154,1360828925.6619632,0.0, 1, 1, 1, 1,120000.0, 1, 4,17,10
1156,5231176621.050214,0.0, 1, 1, 1,34,3635435.1523493603, 1,20, 6,10
13,46084902252.41023,106115.4183601288, 3,21, 4,10,4886362.5214605145, 2, 5, 7,30
61,15743207428.39043,58759.40635443481, 1, 1, 1,10,854682.2742463244, 1, 1,20,10
134,3685071073.433083,42376.01200569399, 1, 2, 4,10,104369.48322671017, 1, 1,20,10
170,273393721.45534325,232.27731661587313, 1, 2, 4,10,11650.931360040839, 1, 1,12,10
207,339560869.06955314,543.5021409221355, 1, 2, 3,10,15327.095199349082, 1, 1,10,10
244,664895467.8009839,1014.5707620042115, 1, 2, 4,10,35359.08742820678, 1, 1,20,10
281,2407221015.1057043,39959.06841621388, 1, 1, 5,10,54634.54471212738, 1, 1,19,10
318,0.0,0.0, 1, 1, 1,10,0.0, 1, 1, 1,10
355,35726564314.89065,12374.216038804521, 1, 2, 4,10,3829218.154066984,12,19,18,60
403,10310294493.052883,12374.216038804521, 1, 2, 4,10,483183.26346918393, 1, 1,18,10
476,5569688622.065564,4732.048419519677, 1, 2, 4,10,237357.535085481, 1, 1,12,10
513,0.0,0.0, 1, 1, 1,10,0.0, 1, 1, 1,10
562,1989104952.129497,0.0, 1, 4,17,10,84072.4545352139, 1, 1, 1,10
1046,0.0,0.0, 1, 1, 1,10,0.0, 1, 1, 1,10
1096,9634288553.45604,0.0, 1, 1, 1,10,896110.3509827025, 6, 8,15,60
1134,14771481445.007975,0.0, 1, 6,17,20,4373232.267290636, 1,30, 6,30
1323,25416269821.841763,0.0, 1, 1, 1,10,3375000.000000002, 8, 3,10,30
1360,261748800.0,4979.999999999998, 9, 4,16,60,4980.000000000002, 1,16,16,60
1388,0.0,0.0, 1, 1, 1,10,0.0, 1, 1, 1,10
End of Data
 Number of Records Written=          87
