Program Version,EnergyPlus, Version 22.2.0-c249759bad, YMD=2023.08.02 11:32
1,5,Environment Title[],Latitude[deg],Longitude[deg],Time Zone[],Elevation[m]
2,8,Day of Simulation[],Month[],Day of Month[],DST Indicator[1=yes 0=no],Hour[],StartMinute[],EndMinute[],DayType
3,5,Cumulative Day of Simulation[],Month[],Day of Month[],DST Indicator[1=yes 0=no],DayType  ! When Daily Report Variables Requested
4,2,Cumulative Days of Simulation[],Month[]  ! When Monthly Report Variables Requested
5,1,Cumulative Days of Simulation[] ! When Run Period Report Variables Requested
6,1,Calendar Year of Simulation[] ! When Annual Report Variables Requested
581,11,LIVING,AFN Zone Infiltration Air Change Rate [ach] !RunPeriod [Value,Min,Month,Day,Hour,Minute,Max,Month,Day,Hour,Minute]
582,11,ATTIC,AFN Zone Infiltration Air Change Rate [ach] !RunPeriod [Value,Min,Month,Day,Hour,Minute,Max,Month,Day,Hour,Minute]
583,11,CRAWLSPACE,AFN Zone Infiltration Air Change Rate [ach] !RunPeriod [Value,Min,Month,Day,Hour,Minute,Max,Month,Day,Hour,Minute]
1038,11,Facility,Facility Heating Setpoint Not Met Time [hr] !RunPeriod [Value,Min,Month,Day,Hour,Minute,Max,Month,Day,Hour,Minute]
1039,11,Facility,Facility Cooling Setpoint Not Met Time [hr] !RunPeriod [Value,Min,Month,Day,Hour,Minute,Max,Month,Day,Hour,Minute]
1115,11,DX_HEATING_COIL,Heating Coil Heating Energy [J] !RunPeriod [Value,Min,Month,Day,Hour,Minute,Max,Month,Day,Hour,Minute]
1128,11,DX_HEATING_COIL,Heating Coil Electricity Energy [J] !RunPeriod [Value,Min,Month,Day,Hour,Minute,Max,Month,Day,Hour,Minute]
1153,11,DX_HEATING_COIL,Heating Coil Defrost Electricity Energy [J] !RunPeriod [Value,Min,Month,Day,Hour,Minute,Max,Month,Day,Hour,Minute]
1154,11,DX_HEATING_COIL,Heating Coil Crankcase Heater Electricity Energy [J] !RunPeriod [Value,Min,Month,Day,Hour,Minute,Max,Month,Day,Hour,Minute]
1155,11,HEATING_RESISTANCE_BACKUP,Heating Coil Heating Energy [J] !RunPeriod [Value,Min,Month,Day,Hour,Minute,Max,Month,Day,Hour,Minute]
1156,11,HEATING_RESISTANCE_BACKUP,Heating Coil Electricity Energy [J] !RunPeriod [Value,Min,Month,Day,Hour,Minute,Max,Month,Day,Hour,Minute]
13,11,Electricity:Facility [J] !RunPeriod [Value,Min,Month,Day,Hour,Minute,Max,Month,Day,Hour,Minute]
1134,11,Heating:Electricity [J] !RunPeriod [Value,Min,Month,Day,Hour,Minute,Max,Month,Day,Hour,Minute]
1096,11,Cooling:Electricity [J] !RunPeriod [Value,Min,Month,Day,Hour,Minute,Max,Month,Day,Hour,Minute]
562,11,Fans:Electricity [J] !RunPeriod [Value,Min,Month,Day,Hour,Minute,Max,Month,Day,Hour,Minute]
1352,11,Pumps:Electricity [J] !RunPeriod [Value,Min,Month,Day,Hour,Minute,Max,Month,Day,Hour,Minute]
1323,11,WaterSystems:Electricity [J] !RunPeriod [Value,Min,Month,Day,Hour,Minute,Max,Month,Day,Hour,Minute]
61,11,InteriorLights:Electricity [J] !RunPeriod [Value,Min,Month,Day,Hour,Minute,Max,Month,Day,Hour,Minute]
1046,11,ExteriorLights:Electricity [J] !RunPeriod [Value,Min,Month,Day,Hour,Minute,Max,Month,Day,Hour,Minute]
134,11,InteriorEquipment:Electricity [J] !RunPeriod [Value,Min,Month,Day,Hour,Minute,Max,Month,Day,Hour,Minute]
170,11,gas_dryer:InteriorEquipment:Electricity [J] !RunPeriod [Value,Min,Month,Day,Hour,Minute,Max,Month,Day,Hour,Minute]
207,11,clotheswasher:InteriorEquipment:Electricity [J] !RunPeriod [Value,Min,Month,Day,Hour,Minute,Max,Month,Day,Hour,Minute]
244,11,dishwasher:InteriorEquipment:Electricity [J] !RunPeriod [Value,Min,Month,Day,Hour,Minute,Max,Month,Day,Hour,Minute]
281,11,refrigerator:InteriorEquipment:Electricity [J] !RunPeriod [Value,Min,Month,Day,Hour,Minute,Max,Month,Day,Hour,Minute]
318,11,electric_mels:InteriorEquipment:Electricity [J] !RunPeriod [Value,Min,Month,Day,Hour,Minute,Max,Month,Day,Hour,Minute]
355,11,NaturalGas:Facility [J] !RunPeriod [Value,Min,Month,Day,Hour,Minute,Max,Month,Day,Hour,Minute]
403,11,InteriorEquipment:NaturalGas [J] !RunPeriod [Value,Min,Month,Day,Hour,Minute,Max,Month,Day,Hour,Minute]
476,11,gas_dryer:InteriorEquipment:NaturalGas [J] !RunPeriod [Value,Min,Month,Day,Hour,Minute,Max,Month,Day,Hour,Minute]
513,11,gas_mels:InteriorEquipment:NaturalGas [J] !RunPeriod [Value,Min,Month,Day,Hour,Minute,Max,Month,Day,Hour,Minute]
End of Data Dictionary
1,EXTREME_WINTER,  39.10, -84.42,  -5.00, 149.40
5,7
1038,0.8333333333333333,0.0, 1,15, 1,10,0.16666666666666666, 1,16, 6,10
1039,0.0,0.0, 1,15, 1,10,0.0, 1,15, 1,10
581,0.27545673933830084,0.17689386302634605, 1,17, 4,60,0.42993931047874134, 1,17,24,20
582,3.0476053784059984,0.0, 1,15, 3,60,12.310581206395266, 1,17,24,60
583,3.5536847942447025,0.00021813796249900557, 1,18,23, 8,11.247960921825086, 1,17,24,20
1115,1559124875.6099908,0.0, 1,15,16,30,2674000.8326544412, 1,19, 5,60
1128,521310366.8742464,0.0, 1,15,16,30,805892.4494604148, 1,19, 6,20
1153,9274375.99464723,0.0, 1,15,16,30,45464.25690288781, 1,17, 7,10
1154,39622574.96796504,0.0, 1,15, 1,10,120000.0, 1,15,16,30
1155,579952433.2854686,0.0, 1,15, 2, 5,3653193.0828871294, 1,20, 6,30
1156,579952433.2854686,0.0, 1,15, 2, 5,3653193.0828871294, 1,20, 6,30
13,1737137152.6471562,306324.6925987483, 1,16,15,40,6086970.711603884, 1,15, 6,10
61,301924526.0238348,58759.40635443481, 1,15, 1,10,854682.2742463244, 1,15,20,10
134,70666020.44019979,42376.01200569399, 1,15, 4,10,104369.48322671017, 1,20,20,10
170,5241013.419656074,232.27731661587313, 1,15, 4,10,11650.931360040839, 1,20,12,10
207,6509451.13922266,543.5021409221355, 1,15, 3,10,15327.095199349082, 1,20,10,10
244,12749673.39982522,1014.5707620042115, 1,15, 4,10,35359.08742820678, 1,20,20,10
281,46165882.48149605,39959.06841621388, 1,15, 5,10,54634.54471212738, 1,15,19,10
318,0.0,0.0, 1,15, 1,10,0.0, 1,15, 1,10
355,197687796.27748126,12374.216038804521, 1,15, 4,10,483183.26346918393, 1,20,18,10
403,197687796.27748126,12374.216038804521, 1,15, 4,10,483183.26346918393, 1,20,18,10
476,106772067.24485692,4732.048419519677, 1,15, 4,10,237357.535085481, 1,20,12,10
513,0.0,0.0, 1,15, 1,10,0.0, 1,15, 1,10
562,58337087.19500201,0.0, 1,15,16,30,86178.49984893281, 1,15, 1,30
1046,0.0,0.0, 1,15, 1,10,0.0, 1,15, 1,10
1096,0.0,0.0, 1,15, 1,10,0.0, 1,15, 1,10
1134,1150159751.122327,120000.0, 1,15,16,30,4386581.438622749, 1,21, 6,10
1323,156049767.86579162,4980.0, 1,15, 1,10,2704980.0000000005, 1,15, 7,30
1352,0.0,0.0, 1,15, 1,10,0.0, 1,15, 1,10
1,EXTREME_SUMMER,  39.10, -84.42,  -5.00, 149.40
5,7
1038,0.0,0.0, 7,15, 1,10,0.0, 7,15, 1,10
1039,34.33333333333333,0.0, 7,15, 1,10,0.16666666666666666, 7,15,14,30
581,0.03877523434117036,0.0, 7,15, 1,10,0.40533095718422496, 7,20,16,52
582,1.6862468531282575,0.0, 7,16,21,32,8.733903137097178, 7,20,16,52
583,1.7644654367427397,0.0, 7,15, 6, 7,10.12925450880451, 7,20,16,52
1115,0.0,0.0, 7,15, 1,10,0.0, 7,15, 1,10
1128,0.0,0.0, 7,15, 1,10,0.0, 7,15, 1,10
1153,0.0,0.0, 7,15, 1,10,0.0, 7,15, 1,10
1154,0.0,0.0, 7,15, 1,10,0.0, 7,15, 1,10
1155,0.0,0.0, 7,15, 1,10,0.0, 7,15, 1,10
1156,0.0,0.0, 7,15, 1,10,0.0, 7,15, 1,10
13,998182575.9021941,106115.4183601288, 7,19, 4,10,4066233.1101179533, 7,16,19,50
61,301924526.0238348,58759.40635443481, 7,15, 1,10,854682.2742463244, 7,15,20,10
134,70666020.44019979,42376.01200569399, 7,15, 4,10,104369.48322671017, 7,20,20,10
170,5241013.419656074,232.27731661587313, 7,15, 4,10,11650.931360040839, 7,20,12,10
207,6509451.13922266,543.5021409221355, 7,15, 3,10,15327.095199349082, 7,20,10,10
244,12749673.39982522,1014.5707620042115, 7,15, 4,10,35359.08742820678, 7,20,20,10
281,46165882.48149605,39959.06841621388, 7,15, 5,10,54634.54471212738, 7,15,19,10
318,0.0,0.0, 7,15, 1,10,0.0, 7,15, 1,10
355,197687796.27748126,12374.216038804521, 7,15, 4,10,483183.26346918393, 7,20,18,10
403,197687796.27748126,12374.216038804521, 7,15, 4,10,483183.26346918393, 7,20,18,10
476,106772067.24485692,4732.048419519677, 7,15, 4,10,237357.535085481, 7,20,12,10
513,0.0,0.0, 7,15, 1,10,0.0, 7,15, 1,10
562,48539367.47418626,0.0, 7,15, 6,20,86178.49984893283, 7,18,16,50
1046,0.0,0.0, 7,15, 1,10,0.0, 7,15, 1,10
1096,456571403.17330927,0.0, 7,15, 6,20,912306.3795463042, 7,16,15,60
1134,0.0,0.0, 7,15, 1,10,0.0, 7,15, 1,10
1323,120481258.79066463,4979.999999999998, 7,18,16,60,2704980.0, 7,15, 6,60
1352,0.0,0.0, 7,15, 1,10,0.0, 7,15, 1,10
1,ANNUAL,  39.10, -84.42,  -5.00, 149.40
5,365
1038,13.999999999999986,0.0, 1, 1, 1,10,0.16666666666666666, 1, 1, 2,50
1039,495.83333333333354,0.0, 1, 1, 1,10,0.16666666666666666, 4, 6,15,20
581,0.18544478169968326,0.0, 4,21, 9,41,1.2385653191054924, 2,18,22,55
582,3.072482877457681,0.0, 1, 3,22,60,28.046001614303, 1,29,21,60
583,3.5433293975586126,0.0, 4,21,10,31,33.743789167022044, 2,18,22,60
1115,24580321086.603313,0.0, 1, 1,23, 2,3092253.55027858, 1,22, 4,60
1128,7519055837.751028,0.0, 1, 1,23, 2,836674.9401916864, 1,22, 4,20
1153,268370692.4788828,0.0, 1, 1,23, 2,82980.0878443642, 2,19, 6,30
1154,1346808915.479282,0.0, 1, 1, 1, 1,120000.0, 1, 9, 2,10
1155,4324377613.590497,0.0, 1, 1, 1,52,3653193.0828871294, 1,20, 6,30
1156,4324377613.590497,0.0, 1, 1, 1,52,3653193.0828871294, 1,20, 6,30
13,50549445812.84908,106115.4183601288, 3, 6, 4,10,7305263.406540502, 1,30, 6,10
61,15743207428.39043,58759.40635443481, 1, 1, 1,10,854682.2742463244, 1, 1,20,10
134,3685071073.433083,42376.01200569399, 1, 2, 4,10,104369.48322671017, 1, 1,20,10
170,273393721.45534325,232.27731661587313, 1, 2, 4,10,11650.931360040839, 1, 1,12,10
207,339560869.06955314,543.5021409221355, 1, 2, 3,10,15327.095199349082, 1, 1,10,10
244,664895467.8009839,1014.5707620042115, 1, 2, 4,10,35359.08742820678, 1, 1,20,10
281,2407221015.1057043,39959.06841621388, 1, 1, 5,10,54634.54471212738, 1, 1,19,10
318,0.0,0.0, 1, 1, 1,10,0.0, 1, 1, 1,10
355,10310294493.052883,12374.216038804521, 1, 2, 4,10,483183.26346918393, 1, 1,18,10
403,10310294493.052883,12374.216038804521, 1, 2, 4,10,483183.26346918393, 1, 1,18,10
476,5569688622.065564,4732.048419519677, 1, 2, 4,10,237357.535085481, 1, 1,12,10
513,0.0,0.0, 1, 1, 1,10,0.0, 1, 1, 1,10
562,1802748959.1658032,0.0, 1, 4,23,10,86178.49984893283, 1, 1, 1,10
1046,0.0,0.0, 1, 1, 1,10,0.0, 1, 1, 1,10
1096,8592603837.855963,0.0, 1, 1, 1,10,947781.770043663, 8, 9,14,60
1134,13458613059.299711,0.0, 1, 6,18,50,4395571.364613065, 1, 2, 6,20
1323,7267201454.710266,4979.999999999998, 3, 9,10,40,2704980.000000001, 1,16, 6,20
1352,0.0,0.0, 1, 1, 1,10,0.0, 1, 1, 1,10
End of Data
 Number of Records Written=          87
