Program Version,EnergyPlus, Version 22.2.0-c249759bad, YMD=2023.07.07 15:16
1,5,Environment Title[],Latitude[deg],Longitude[deg],Time Zone[],Elevation[m]
2,8,Day of Simulation[],Month[],Day of Month[],DST Indicator[1=yes 0=no],Hour[],StartMinute[],EndMinute[],DayType
3,5,Cumulative Day of Simulation[],Month[],Day of Month[],DST Indicator[1=yes 0=no],DayType  ! When Daily Report Variables Requested
4,2,Cumulative Days of Simulation[],Month[]  ! When Monthly Report Variables Requested
5,1,Cumulative Days of Simulation[] ! When Run Period Report Variables Requested
6,1,Calendar Year of Simulation[] ! When Annual Report Variables Requested
581,11,LIVING,AFN Zone Infiltration Air Change Rate [ach] !RunPeriod [Value,Min,Month,Day,Hour,Minute,Max,Month,Day,Hour,Minute]
582,11,ATTIC,AFN Zone Infiltration Air Change Rate [ach] !RunPeriod [Value,Min,Month,Day,Hour,Minute,Max,Month,Day,Hour,Minute]
583,11,CRAWLSPACE,AFN Zone Infiltration Air Change Rate [ach] !RunPeriod [Value,Min,Month,Day,Hour,Minute,Max,Month,Day,Hour,Minute]
1038,11,Facility,Facility Heating Setpoint Not Met Time [hr] !RunPeriod [Value,Min,Month,Day,Hour,Minute,Max,Month,Day,Hour,Minute]
1039,11,Facility,Facility Cooling Setpoint Not Met Time [hr] !RunPeriod [Value,Min,Month,Day,Hour,Minute,Max,Month,Day,Hour,Minute]
1115,11,DX_HEATING_COIL,Heating Coil Heating Energy [J] !RunPeriod [Value,Min,Month,Day,Hour,Minute,Max,Month,Day,Hour,Minute]
1128,11,DX_HEATING_COIL,Heating Coil Electricity Energy [J] !RunPeriod [Value,Min,Month,Day,Hour,Minute,Max,Month,Day,Hour,Minute]
1153,11,DX_HEATING_COIL,Heating Coil Defrost Electricity Energy [J] !RunPeriod [Value,Min,Month,Day,Hour,Minute,Max,Month,Day,Hour,Minute]
1154,11,DX_HEATING_COIL,Heating Coil Crankcase Heater Electricity Energy [J] !RunPeriod [Value,Min,Month,Day,Hour,Minute,Max,Month,Day,Hour,Minute]
1156,11,HEATING_RESISTANCE_BACKUP,Heating Coil Electricity Energy [J] !RunPeriod [Value,Min,Month,Day,Hour,Minute,Max,Month,Day,Hour,Minute]
13,11,Electricity:Facility [J] !RunPeriod [Value,Min,Month,Day,Hour,Minute,Max,Month,Day,Hour,Minute]
1134,11,Heating:Electricity [J] !RunPeriod [Value,Min,Month,Day,Hour,Minute,Max,Month,Day,Hour,Minute]
1096,11,Cooling:Electricity [J] !RunPeriod [Value,Min,Month,Day,Hour,Minute,Max,Month,Day,Hour,Minute]
562,11,Fans:Electricity [J] !RunPeriod [Value,Min,Month,Day,Hour,Minute,Max,Month,Day,Hour,Minute]
1388,11,Pumps:Electricity [J] !RunPeriod [Value,Min,Month,Day,Hour,Minute,Max,Month,Day,Hour,Minute]
1360,11,WaterSystems:Electricity [J] !RunPeriod [Value,Min,Month,Day,Hour,Minute,Max,Month,Day,Hour,Minute]
61,11,InteriorLights:Electricity [J] !RunPeriod [Value,Min,Month,Day,Hour,Minute,Max,Month,Day,Hour,Minute]
1046,11,ExteriorLights:Electricity [J] !RunPeriod [Value,Min,Month,Day,Hour,Minute,Max,Month,Day,Hour,Minute]
134,11,InteriorEquipment:Electricity [J] !RunPeriod [Value,Min,Month,Day,Hour,Minute,Max,Month,Day,Hour,Minute]
170,11,gas_dryer:InteriorEquipment:Electricity [J] !RunPeriod [Value,Min,Month,Day,Hour,Minute,Max,Month,Day,Hour,Minute]
207,11,clotheswasher:InteriorEquipment:Electricity [J] !RunPeriod [Value,Min,Month,Day,Hour,Minute,Max,Month,Day,Hour,Minute]
244,11,dishwasher:InteriorEquipment:Electricity [J] !RunPeriod [Value,Min,Month,Day,Hour,Minute,Max,Month,Day,Hour,Minute]
281,11,refrigerator:InteriorEquipment:Electricity [J] !RunPeriod [Value,Min,Month,Day,Hour,Minute,Max,Month,Day,Hour,Minute]
318,11,electric_mels:InteriorEquipment:Electricity [J] !RunPeriod [Value,Min,Month,Day,Hour,Minute,Max,Month,Day,Hour,Minute]
355,11,NaturalGas:Facility [J] !RunPeriod [Value,Min,Month,Day,Hour,Minute,Max,Month,Day,Hour,Minute]
1323,11,WaterSystems:NaturalGas [J] !RunPeriod [Value,Min,Month,Day,Hour,Minute,Max,Month,Day,Hour,Minute]
403,11,InteriorEquipment:NaturalGas [J] !RunPeriod [Value,Min,Month,Day,Hour,Minute,Max,Month,Day,Hour,Minute]
476,11,gas_dryer:InteriorEquipment:NaturalGas [J] !RunPeriod [Value,Min,Month,Day,Hour,Minute,Max,Month,Day,Hour,Minute]
513,11,gas_mels:InteriorEquipment:NaturalGas [J] !RunPeriod [Value,Min,Month,Day,Hour,Minute,Max,Month,Day,Hour,Minute]
End of Data Dictionary
1,EXTREME_WINTER,  37.65, -97.43,  -6.00, 409.00
5,7
1038,0.3333333333333333,0.0, 2,17, 1,10,0.16666666666666666, 2,22, 6,10
1039,0.0,0.0, 2,17, 1,10,0.0, 2,17, 1,10
581,0.3934733657513187,0.2012382260997566, 2,17, 6, 2,1.1458238523106814, 2,18,11,60
582,6.600420061633541,0.0, 2,19, 5,60,21.408904021702682, 2,18,11,60
583,7.491894929522822,0.09304367008407054, 2,22,13,56,28.976612039691464, 2,18,11,60
1115,1268875620.742749,0.0, 2,17, 1, 3,3455150.315411639, 2,21, 3,40
1128,427923288.6194024,0.0, 2,17, 1, 3,1075359.6978115304, 2,20,10,10
1153,17151592.197564844,0.0, 2,17, 1, 3,77127.66198318441, 2,21, 6,60
1154,55859499.85190927,0.0, 2,17, 1, 3,120000.0, 2,17, 3,60
1156,186296900.19252777,0.0, 2,17, 1, 3,2460402.834712195, 2,23, 7,10
13,1121440597.2731469,106115.4183601288, 2,18, 4,10,4419867.1330808, 2,22, 6,10
61,301924526.0238348,58759.40635443481, 2,17, 1,10,854682.2742463244, 2,17,20,10
134,70666020.44019979,42376.01200569399, 2,17, 4,10,104369.48322671017, 2,22,20,10
170,5241013.419656074,232.27731661587313, 2,17, 4,10,11650.931360040839, 2,22,12,10
207,6509451.13922266,543.5021409221355, 2,17, 3,10,15327.095199349082, 2,22,10,10
244,12749673.39982522,1014.5707620042115, 2,17, 4,10,35359.08742820678, 2,22,20,10
281,46165882.48149605,39959.06841621388, 2,17, 5,10,54634.54471212738, 2,17,19,10
318,0.0,0.0, 2,17, 1,10,0.0, 2,17, 1,10
355,746779886.9769061,12374.216038804521, 2,17, 4,10,3829218.1540669827, 2,18,18,60
403,197687796.27748126,12374.216038804521, 2,17, 4,10,483183.26346918393, 2,22,18,10
476,106772067.24485692,4732.048419519677, 2,17, 4,10,237357.535085481, 2,22,12,10
513,0.0,0.0, 2,17, 1,10,0.0, 2,17, 1,10
562,46619049.411832474,0.0, 2,17, 1,10,114511.68562775507, 2,21, 6,10
1046,0.0,0.0, 2,17, 1,10,0.0, 2,17, 1,10
1096,9979880.535876492,0.0, 2,17, 1,10,290659.17743275315, 2,17,18,10
1134,687231280.8614043,0.0, 2,17, 1,10,3887058.1280766716, 2,22, 6,10
1323,549092090.6994222,0.0, 2,17, 1,10,3375000.0000000005, 2,17,16,50
1360,5019840.0,4980.0, 2,17, 1,20,4980.000000000001, 2,17, 1,10
1388,0.0,0.0, 2,17, 1,10,0.0, 2,17, 1,10
1,EXTREME_SUMMER,  37.65, -97.43,  -6.00, 409.00
5,7
1038,0.0,0.0, 7,20, 1,10,0.0, 7,20, 1,10
1039,36.99999999999999,0.0, 7,20, 1,10,0.16666666666666666, 7,20,13,40
581,0.2647732533193067,0.0, 7,24,21,40,0.778808022042791, 7,22,16,55
582,6.218941250862831,0.0839975945557612, 7,24,21,50,16.645588712130323, 7,22,16,55
583,7.842694281866967,0.04689170456117087, 7,26, 6, 7,21.41377376910165, 7,22,10,55
1115,0.0,0.0, 7,20, 1,10,0.0, 7,20, 1,10
1128,0.0,0.0, 7,20, 1,10,0.0, 7,20, 1,10
1153,0.0,0.0, 7,20, 1,10,0.0, 7,20, 1,10
1154,0.0,0.0, 7,20, 1,10,0.0, 7,20, 1,10
1156,0.0,0.0, 7,20, 1,10,0.0, 7,20, 1,10
13,1266356963.504928,219183.53515125945, 7,26, 4,60,2413431.5398268723, 7,23,20,10
61,301924526.0238348,58759.40635443481, 7,20, 1,10,854682.2742463244, 7,20,20,10
134,70666020.44019979,42376.01200569399, 7,20, 4,10,104369.48322671017, 7,25,20,10
170,5241013.419656074,232.27731661587313, 7,20, 4,10,11650.931360040839, 7,25,12,10
207,6509451.13922266,543.5021409221355, 7,20, 3,10,15327.095199349082, 7,25,10,10
244,12749673.39982522,1014.5707620042115, 7,20, 4,10,35359.08742820678, 7,25,20,10
281,46165882.48149605,39959.06841621388, 7,20, 5,10,54634.54471212738, 7,20,19,10
318,0.0,0.0, 7,20, 1,10,0.0, 7,20, 1,10
355,637299911.1172955,12374.216038804521, 7,20, 4,10,3829218.154066982, 7,21,18,60
403,197687796.27748126,12374.216038804521, 7,20, 4,10,483183.26346918393, 7,25,18,10
476,106772067.24485692,4732.048419519677, 7,20, 4,10,237357.535085481, 7,25,12,10
513,0.0,0.0, 7,20, 1,10,0.0, 7,20, 1,10
562,74619450.7765227,11233.032693766994, 7,26, 4,60,114511.68562775507, 7,20,20,50
1046,0.0,0.0, 7,20, 1,10,0.0, 7,20, 1,10
1096,814127126.264371,101589.30232521733, 7,26, 4,60,1431396.7292796427, 7,24,16,60
1134,0.0,0.0, 7,20, 1,10,0.0, 7,20, 1,10
1323,439612114.8398126,0.0, 7,20, 1,10,3375000.0, 7,20, 9,50
1360,5019840.0,4979.999999999998, 7,24,17,30,4980.000000000002, 7,26,19,30
1388,0.0,0.0, 7,20, 1,10,0.0, 7,20, 1,10
1,ANNUAL,  37.65, -97.43,  -6.00, 409.00
5,365
1038,3.8333333333333317,0.0, 1, 1, 1,10,0.16666666666666666, 1, 2, 6,10
1039,301.8333333333333,0.0, 1, 1, 1,10,0.16666666666666666, 2,18,17,40
581,0.31696948690826876,0.0, 5,20,21,25,1.636316093180265, 3, 6,14,60
582,5.891720779252053,0.0, 1, 3,20, 5,35.145805409502195, 5, 3,15,60
583,7.292782749667817,0.00005000265463126852,10, 2,23, 3,45.05063734657657, 3, 6,14,60
1115,19333217641.52487,0.0, 1, 1,23, 1,3993154.186867846,11,27, 6,30
1128,6068309482.385801,0.0, 1, 1,23, 1,1178895.4747636383,11,27, 6,30
1153,262482262.52244428,0.0, 1, 1,23, 1,112898.92338862318, 2,25,15,60
1154,1636853091.1902673,0.0, 1, 1, 6, 3,120000.0, 1, 2,16,10
1156,691945907.7995557,0.0, 1, 1, 1, 3,2524702.3882152424, 2,23, 7,10
13,43593207035.18727,106115.41836012878, 4, 3, 4,30,4572250.016401948, 1,13, 6,10
61,15743207428.39043,58759.40635443481, 1, 1, 1,10,854682.2742463244, 1, 1,20,10
134,3685071073.433083,42376.01200569399, 1, 2, 4,10,104369.48322671017, 1, 1,20,10
170,273393721.45534325,232.27731661587313, 1, 2, 4,10,11650.931360040839, 1, 1,12,10
207,339560869.06955314,543.5021409221355, 1, 2, 3,10,15327.095199349082, 1, 1,10,10
244,664895467.8009839,1014.5707620042115, 1, 2, 4,10,35359.08742820678, 1, 1,20,10
281,2407221015.1057043,39959.06841621388, 1, 1, 5,10,54634.54471212738, 1, 1,19,10
318,0.0,0.0, 1, 1, 1,10,0.0, 1, 1, 1,10
355,35714062032.323944,12374.216038804521, 1, 2, 4,10,3829218.154066983, 5,23,18,60
403,10310294493.052883,12374.216038804521, 1, 2, 4,10,483183.26346918393, 1, 1,18,10
476,5569688622.065564,4732.048419519677, 1, 2, 4,10,237357.535085481, 1, 1,12,10
513,0.0,0.0, 1, 1, 1,10,0.0, 1, 1, 1,10
562,1954559286.14429,0.0, 1, 2,14,20,114511.68562775507, 1, 2, 2,20
1046,0.0,0.0, 1, 1, 1,10,0.0, 1, 1, 1,10
1096,13289029703.327717,0.0, 1, 1, 1,10,1451026.5866975086, 8,31,16,60
1134,8659590743.89806,0.0, 1, 6,15,60,4040179.007763541, 1,13, 6,10
1323,25403767539.27502,0.0, 1, 1, 1,10,3375000.000000002, 7, 4, 9,60
1360,261748800.0,4979.999999999998, 3,10,12,60,4980.000000000002, 1, 1, 9,40
1388,0.0,0.0, 1, 1, 1,10,0.0, 1, 1, 1,10
End of Data
 Number of Records Written=          87
