Program Version,EnergyPlus, Version 22.2.0-c249759bad, YMD=2023.07.07 15:04
1,5,Environment Title[],Latitude[deg],Longitude[deg],Time Zone[],Elevation[m]
2,8,Day of Simulation[],Month[],Day of Month[],DST Indicator[1=yes 0=no],Hour[],StartMinute[],EndMinute[],DayType
3,5,Cumulative Day of Simulation[],Month[],Day of Month[],DST Indicator[1=yes 0=no],DayType  ! When Daily Report Variables Requested
4,2,Cumulative Days of Simulation[],Month[]  ! When Monthly Report Variables Requested
5,1,Cumulative Days of Simulation[] ! When Run Period Report Variables Requested
6,1,Calendar Year of Simulation[] ! When Annual Report Variables Requested
581,11,LIVING,AFN Zone Infiltration Air Change Rate [ach] !RunPeriod [Value,Min,Month,Day,Hour,Minute,Max,Month,Day,Hour,Minute]
582,11,ATTIC,AFN Zone Infiltration Air Change Rate [ach] !RunPeriod [Value,Min,Month,Day,Hour,Minute,Max,Month,Day,Hour,Minute]
583,11,CRAWLSPACE,AFN Zone Infiltration Air Change Rate [ach] !RunPeriod [Value,Min,Month,Day,Hour,Minute,Max,Month,Day,Hour,Minute]
1038,11,Facility,Facility Heating Setpoint Not Met Time [hr] !RunPeriod [Value,Min,Month,Day,Hour,Minute,Max,Month,Day,Hour,Minute]
1039,11,Facility,Facility Cooling Setpoint Not Met Time [hr] !RunPeriod [Value,Min,Month,Day,Hour,Minute,Max,Month,Day,Hour,Minute]
1115,11,DX_HEATING_COIL,Heating Coil Heating Energy [J] !RunPeriod [Value,Min,Month,Day,Hour,Minute,Max,Month,Day,Hour,Minute]
1128,11,DX_HEATING_COIL,Heating Coil Electricity Energy [J] !RunPeriod [Value,Min,Month,Day,Hour,Minute,Max,Month,Day,Hour,Minute]
1153,11,DX_HEATING_COIL,Heating Coil Defrost Electricity Energy [J] !RunPeriod [Value,Min,Month,Day,Hour,Minute,Max,Month,Day,Hour,Minute]
1154,11,DX_HEATING_COIL,Heating Coil Crankcase Heater Electricity Energy [J] !RunPeriod [Value,Min,Month,Day,Hour,Minute,Max,Month,Day,Hour,Minute]
1156,11,HEATING_RESISTANCE_BACKUP,Heating Coil Electricity Energy [J] !RunPeriod [Value,Min,Month,Day,Hour,Minute,Max,Month,Day,Hour,Minute]
13,11,Electricity:Facility [J] !RunPeriod [Value,Min,Month,Day,Hour,Minute,Max,Month,Day,Hour,Minute]
1134,11,Heating:Electricity [J] !RunPeriod [Value,Min,Month,Day,Hour,Minute,Max,Month,Day,Hour,Minute]
1096,11,Cooling:Electricity [J] !RunPeriod [Value,Min,Month,Day,Hour,Minute,Max,Month,Day,Hour,Minute]
562,11,Fans:Electricity [J] !RunPeriod [Value,Min,Month,Day,Hour,Minute,Max,Month,Day,Hour,Minute]
1388,11,Pumps:Electricity [J] !RunPeriod [Value,Min,Month,Day,Hour,Minute,Max,Month,Day,Hour,Minute]
1360,11,WaterSystems:Electricity [J] !RunPeriod [Value,Min,Month,Day,Hour,Minute,Max,Month,Day,Hour,Minute]
61,11,InteriorLights:Electricity [J] !RunPeriod [Value,Min,Month,Day,Hour,Minute,Max,Month,Day,Hour,Minute]
1046,11,ExteriorLights:Electricity [J] !RunPeriod [Value,Min,Month,Day,Hour,Minute,Max,Month,Day,Hour,Minute]
134,11,InteriorEquipment:Electricity [J] !RunPeriod [Value,Min,Month,Day,Hour,Minute,Max,Month,Day,Hour,Minute]
170,11,gas_dryer:InteriorEquipment:Electricity [J] !RunPeriod [Value,Min,Month,Day,Hour,Minute,Max,Month,Day,Hour,Minute]
207,11,clotheswasher:InteriorEquipment:Electricity [J] !RunPeriod [Value,Min,Month,Day,Hour,Minute,Max,Month,Day,Hour,Minute]
244,11,dishwasher:InteriorEquipment:Electricity [J] !RunPeriod [Value,Min,Month,Day,Hour,Minute,Max,Month,Day,Hour,Minute]
281,11,refrigerator:InteriorEquipment:Electricity [J] !RunPeriod [Value,Min,Month,Day,Hour,Minute,Max,Month,Day,Hour,Minute]
318,11,electric_mels:InteriorEquipment:Electricity [J] !RunPeriod [Value,Min,Month,Day,Hour,Minute,Max,Month,Day,Hour,Minute]
355,11,NaturalGas:Facility [J] !RunPeriod [Value,Min,Month,Day,Hour,Minute,Max,Month,Day,Hour,Minute]
1323,11,WaterSystems:NaturalGas [J] !RunPeriod [Value,Min,Month,Day,Hour,Minute,Max,Month,Day,Hour,Minute]
403,11,InteriorEquipment:NaturalGas [J] !RunPeriod [Value,Min,Month,Day,Hour,Minute,Max,Month,Day,Hour,Minute]
476,11,gas_dryer:InteriorEquipment:NaturalGas [J] !RunPeriod [Value,Min,Month,Day,Hour,Minute,Max,Month,Day,Hour,Minute]
513,11,gas_mels:InteriorEquipment:NaturalGas [J] !RunPeriod [Value,Min,Month,Day,Hour,Minute,Max,Month,Day,Hour,Minute]
End of Data Dictionary
1,EXTREME_WINTER,  33.43,-112.02,  -7.00, 337.40
5,7
1038,0.0,0.0,12,15, 1,10,0.0,12,15, 1,10
1039,0.8333333333333333,0.0,12,15, 1,10,0.16666666666666666,12,17,12,40
581,0.20287798112537325,0.10042011184275867,12,18,20,35,0.5655413238186291,12,20, 3,60
582,3.4778269682031784,0.0,12,16,21,60,21.44123173635893,12,20, 3,60
583,3.5570691883673375,0.00015706636929521507,12,16,23,10,17.369232275453623,12,20, 3,60
1115,18358975.373452667,0.0,12,15, 1, 5,1359872.0472814757,12,21, 6, 3
1128,5056344.235850273,0.0,12,15, 1, 5,343592.3909505801,12,21, 6, 3
1153,3.7953870019378515,0.0,12,15, 1, 5,3.7953870019378515,12,21, 8,60
1154,35963944.71826971,0.0,12,15, 1, 5,120000.0,12,17, 1,10
1156,0.0,0.0,12,15, 1, 5,0.0,12,15, 1, 5
13,485490949.16537976,106115.4183601288,12,15, 4,10,1168435.8236729882,12,18,20,10
61,301924526.0238348,58759.40635443481,12,15, 1,10,854682.2742463244,12,15,20,10
134,70666020.44019979,42376.01200569399,12,15, 4,10,104369.48322671017,12,20,20,10
170,5241013.419656074,232.27731661587313,12,15, 4,10,11650.931360040839,12,20,12,10
207,6509451.13922266,543.5021409221355,12,15, 3,10,15327.095199349082,12,20,10,10
244,12749673.39982522,1014.5707620042115,12,15, 4,10,35359.08742820678,12,20,20,10
281,46165882.48149605,39959.06841621388,12,15, 5,10,54634.54471212738,12,15,19,10
318,0.0,0.0,12,15, 1,10,0.0,12,15, 1,10
355,718603085.5122275,12374.216038804521,12,15, 4,10,3829218.154066983,12,16,18,60
403,197687796.27748126,12374.216038804521,12,15, 4,10,483183.26346918393,12,20,18,10
476,106772067.24485692,4732.048419519677,12,15, 4,10,237357.535085481,12,20,12,10
513,0.0,0.0,12,15, 1,10,0.0,12,15, 1,10
562,8529834.428670444,0.0,12,15, 1,10,50483.82649390486,12,18,17,10
1046,0.0,0.0,12,15, 1,10,0.0,12,15, 1,10
1096,58330435.5231681,0.0,12,15, 1,10,373549.2990759614,12,18,17,10
1134,41020292.749506995,0.0,12,15, 1,10,433756.8847713078,12,21, 6,10
1323,520915289.2347437,0.0,12,15, 1,10,3375000.000000001,12,16,18,60
1360,5019840.0,4980.0,12,15, 1,10,4980.000000000001,12,15, 8,30
1388,0.0,0.0,12,15, 1,10,0.0,12,15, 1,10
1,EXTREME_SUMMER,  33.43,-112.02,  -7.00, 337.40
5,7
1038,0.0,0.0, 7,13, 1,10,0.0, 7,13, 1,10
1039,61.16666666666666,0.0, 7,13, 1,10,0.16666666666666666, 7,13,15,40
581,0.07097398669090446,0.0, 7,13, 5, 5,0.5352512166180093, 7,16,19,53
582,3.931790024540219,0.09186050217500082, 7,14,19,59,14.833303802401405, 7,16,19,53
583,4.261350722561374,0.26195860733507315, 7,13, 6, 7,19.195531693056708, 7,16,19,53
1115,0.0,0.0, 7,13, 1, 5,0.0, 7,13, 1, 5
1128,0.0,0.0, 7,13, 1, 5,0.0, 7,13, 1, 5
1153,0.0,0.0, 7,13, 1, 5,0.0, 7,13, 1, 5
1154,0.0,0.0, 7,13, 1, 5,0.0, 7,13, 1, 5
1156,0.0,0.0, 7,13, 1, 5,0.0, 7,13, 1, 5
13,1652744369.6942275,542596.0321711485, 7,13, 4,60,2735958.161423777, 7,15,20,10
61,301924526.0238348,58759.40635443481, 7,13, 1,10,854682.2742463244, 7,13,20,10
134,70666020.44019979,42376.01200569399, 7,13, 4,10,104369.48322671017, 7,18,20,10
170,5241013.419656074,232.27731661587313, 7,13, 4,10,11650.931360040839, 7,18,12,10
207,6509451.13922266,543.5021409221355, 7,13, 3,10,15327.095199349082, 7,18,10,10
244,12749673.39982522,1014.5707620042115, 7,13, 4,10,35359.08742820678, 7,18,20,10
281,46165882.48149605,39959.06841621388, 7,13, 5,10,54634.54471212738, 7,13,19,10
318,0.0,0.0, 7,13, 1,10,0.0, 7,13, 1,10
355,642341561.8102494,12374.216038804521, 7,13, 4,10,3829218.154066982, 7,14,18,60
403,197687796.27748126,12374.216038804521, 7,13, 4,10,483183.26346918393, 7,18,18,10
476,106772067.24485692,4732.048419519677, 7,13, 4,10,237357.535085481, 7,18,12,10
513,0.0,0.0, 7,13, 1,10,0.0, 7,13, 1,10
562,97549645.64441459,35181.59268477998, 7,13, 5,60,124306.01962743235, 7,13,15,10
1046,0.0,0.0, 7,13, 1,10,0.0, 7,13, 1,10
1096,1177584337.5857775,373007.6205788921, 7,13, 5,60,1672219.5935925513, 7,15,18,60
1134,0.0,0.0, 7,13, 1,10,0.0, 7,13, 1,10
1323,444653765.5327666,0.0, 7,13, 1,10,3375000.0000000005, 7,13,16,50
1360,5019840.0,4980.0, 7,13, 1,10,4980.000000000001, 7,13, 7,50
1388,0.0,0.0, 7,13, 1,10,0.0, 7,13, 1,10
1,ANNUAL,  33.43,-112.02,  -7.00, 337.40
5,365
1038,0.0,0.0, 1, 1, 1,10,0.0, 1, 1, 1,10
1039,919.3333333333327,0.0, 1, 1, 1,10,0.16666666666666666, 5, 3,18,10
581,0.12190728865208181,0.0, 2, 5,18,53,1.201204034965513, 1,21,19,60
582,3.4101550764304953,0.0, 1, 1, 1,30,26.85598022078812, 2,14,20,53
583,3.6241442094287994,0.0, 4,19,23, 2,29.848160687760053, 8,17,19,53
1115,49602725.39820707,0.0, 1, 1, 1,10,1259461.4085403527,12,29, 6, 3
1128,14343465.458862817,0.0, 1, 1, 1,10,353907.5296207972,12,29, 6, 3
1153,331809.4120457656,0.0, 1, 1, 1,10,25023.13768763929,12,29, 6, 3
1154,306856484.615604,0.0, 1, 1, 1,10,120000.0, 1, 1, 1,40
1156,0.0,0.0, 1, 1, 1,10,0.0, 1, 1, 1,10
13,51590416524.156685,106115.4183601288, 1, 2, 4,10,2747513.839440905, 7,15,20,10
61,15743207428.39043,58759.40635443481, 1, 1, 1,10,854682.2742463244, 1, 1,20,10
134,3685071073.433083,42376.01200569399, 1, 2, 4,10,104369.48322671017, 1, 1,20,10
170,273393721.45534325,232.27731661587313, 1, 2, 4,10,11650.931360040839, 1, 1,12,10
207,339560869.06955314,543.5021409221355, 1, 2, 3,10,15327.095199349082, 1, 1,10,10
244,664895467.8009839,1014.5707620042115, 1, 2, 4,10,35359.08742820678, 1, 1,20,10
281,2407221015.1057043,39959.06841621388, 1, 1, 5,10,54634.54471212738, 1, 1,19,10
318,0.0,0.0, 1, 1, 1,10,0.0, 1, 1, 1,10
355,35583834532.98195,12374.216038804521, 1, 2, 4,10,3829218.154066983, 2,28,18,60
403,10310294493.052883,12374.216038804521, 1, 2, 4,10,483183.26346918393, 1, 1,18,10
476,5569688622.065564,4732.048419519677, 1, 2, 4,10,237357.535085481, 1, 1,12,10
513,0.0,0.0, 1, 1, 1,10,0.0, 1, 1, 1,10
562,2798746758.6391273,0.0, 1, 1, 1,10,124306.01962743237, 7,24,19,30
1046,0.0,0.0, 1, 1, 1,10,0.0, 1, 1, 1,10
1096,28780110704.212685,0.0, 1, 1, 1,10,1713395.0656453285, 6,22,15,60
1134,321531759.4865129,0.0, 1, 1, 1,10,463003.9388714845,12,29, 6,10
1323,25273540039.93316,0.0, 1, 1, 1,10,3375000.000000001, 1, 4,16,10
1360,261748800.0,4979.999999999998, 3, 1,13,50,4980.000000000002, 1,22,11,30
1388,0.0,0.0, 1, 1, 1,10,0.0, 1, 1, 1,10
End of Data
 Number of Records Written=          87
