Program Version,EnergyPlus, Version 22.2.0-c249759bad, YMD=2023.09.01 14:30
1,5,Environment Title[],Latitude[deg],Longitude[deg],Time Zone[],Elevation[m]
2,8,Day of Simulation[],Month[],Day of Month[],DST Indicator[1=yes 0=no],Hour[],StartMinute[],EndMinute[],DayType
3,5,Cumulative Day of Simulation[],Month[],Day of Month[],DST Indicator[1=yes 0=no],DayType  ! When Daily Report Variables Requested
4,2,Cumulative Days of Simulation[],Month[]  ! When Monthly Report Variables Requested
5,1,Cumulative Days of Simulation[] ! When Run Period Report Variables Requested
6,1,Calendar Year of Simulation[] ! When Annual Report Variables Requested
7,1,Environment,Site Outdoor Air Drybulb Temperature [C] !Hourly
619,1,DX_HEATING_COIL,Heating Coil Heating Rate [W] !Hourly
633,1,DX_HEATING_COIL,Heating Coil Electricity Rate [W] !Hourly
659,1,DX_HEATING_COIL,Heating Coil Defrost Electricity Rate [W] !Hourly
661,1,DX_HEATING_COIL,Heating Coil Crankcase Heater Electricity Rate [W] !Hourly
690,1,FAN,Fan Electricity Rate [W] !Hourly
716,1,HEAT PUMP WATER HEATER FAN,Fan Electricity Rate [W] !Hourly
718,1,LIVING,Zone Mean Air Temperature [C] !Hourly
719,1,ATTIC,Zone Mean Air Temperature [C] !Hourly
720,1,CRAWLSPACE,Zone Mean Air Temperature [C] !Hourly
843,1,LIVING,Zone Predicted Sensible Load to Heating Setpoint Heat Transfer Rate [W] !Hourly
844,1,LIVING,Zone System Predicted Sensible Load to Heating Setpoint Heat Transfer Rate [W] !Hourly
907,1,ATTIC,Zone Predicted Sensible Load to Heating Setpoint Heat Transfer Rate [W] !Hourly
908,1,ATTIC,Zone System Predicted Sensible Load to Heating Setpoint Heat Transfer Rate [W] !Hourly
971,1,CRAWLSPACE,Zone Predicted Sensible Load to Heating Setpoint Heat Transfer Rate [W] !Hourly
972,1,CRAWLSPACE,Zone System Predicted Sensible Load to Heating Setpoint Heat Transfer Rate [W] !Hourly
1195,1,HEATING_RESISTANCE_BACKUP,Heating Coil Heating Rate [W] !Hourly
1197,1,HEATING_RESISTANCE_BACKUP,Heating Coil Electricity Rate [W] !Hourly
End of Data Dictionary
1,EXTREME_WINTER,  34.92, -92.15,  -6.00,  95.00
2,1, 1,29, 0, 1, 0.00,60.00,Monday
7,-2.0
718,17.94959040933123
719,3.2635257711985086
720,19.32060414023397
619,759.3521696183512
633,260.83543789719266
659,17.91265431913471
661,160.7002601676421
690,29.074365469040448
716,0.0
843,566.0217145059696
844,566.0217145059696
907,0.0
908,0.0
971,0.0
972,0.0
1195,0.0
1197,0.0
2,1, 1,29, 0, 2, 0.00,60.00,Monday
7,0.0
718,18.600628315160936
719,1.6028651499721394
720,19.010489748708387
619,1658.1524063532406
633,525.4258088025363
659,29.584276682031074
661,122.37275654375605
690,57.71484497339451
716,0.0
843,1246.857196780461
844,1246.857196780461
907,0.0
908,0.0
971,0.0
972,0.0
1195,0.0
1197,0.0
2,1, 1,29, 0, 3, 0.00,60.00,Monday
7,-1.0
718,18.543424273827238
719,0.3550150146831908
720,18.838531285224498
619,2112.6664427265464
633,683.4090787971335
659,26.399958133002166
661,101.67775032247755
690,73.20973063739257
716,0.0
843,1526.8207536614682
844,1526.8207536614682
907,0.0
908,0.0
971,0.0
972,0.0
1195,0.0
1197,0.0
2,1, 1,29, 0, 4, 0.00,60.00,Monday
7,-2.0
718,18.530239599256955
719,-0.2721901743954571
720,18.6278752537394
619,2614.231914398542
633,849.9997994608209
659,48.96355222120433
661,73.48182172969489
690,93.79294042152624
716,0.0
843,1837.1665083880198
844,1837.1665083880198
907,0.0
908,0.0
971,0.0
972,0.0
1195,0.0
1197,0.0
2,1, 1,29, 0, 5, 0.00,60.00,Monday
7,-4.0
718,18.505317720658244
719,-0.8453553216670634
720,18.427704811299304
619,3158.664701417843
633,1050.0336072662215
659,60.617704399494784
661,41.137845015374296
690,117.43820742174637
716,0.0
843,2167.9108898346967
844,2167.9108898346967
907,0.0
908,0.0
971,0.0
972,0.0
1195,0.0
1197,0.0
2,1, 1,29, 0, 6, 0.00,60.00,Monday
7,-4.0
718,19.256876228176218
719,-0.8060960012997587
720,18.23558786710807
619,4133.714223074584
633,1320.8457801472316
659,76.35647489946399
661,0.0
690,149.85416961512607
716,0.0
843,3324.798772089731
844,3324.798772089731
907,0.0
908,0.0
971,0.0
972,0.0
1195,624.5560495415557
1197,624.5560495415557
2,1, 1,29, 0, 7, 0.00,60.00,Monday
7,-4.0
718,19.52060588826554
719,-0.6153666850388437
720,18.116391045323223
619,4117.002787033366
633,1340.3218913161622
659,76.37765960035648
661,0.0
690,149.85416961512607
716,85.44000000000005
843,3339.162416863999
844,3339.162416863999
907,0.0
908,0.0
971,0.0
972,0.0
1195,1997.619769884744
1197,1997.619769884744
2,1, 1,29, 0, 8, 0.00,60.00,Monday
7,-4.0
718,19.634990680912892
719,-0.317223790221814
720,17.970311581415316
619,4111.206433353576
633,1347.1329612626964
659,76.37765960035648
661,0.0
690,149.85416961512607
716,59.01775996609997
843,3142.0392075878462
844,3142.0392075878462
907,0.0
908,0.0
971,0.0
972,0.0
1195,1439.324583421927
1197,1439.324583421927
2,1, 1,29, 0, 9, 0.00,60.00,Monday
7,-2.0
718,19.75626595856828
719,2.205008592046553
720,17.86777837899848
619,3199.7905998010356
633,1051.9178030818744
659,71.11175344129173
661,44.40461944704999
690,115.09961907594445
716,0.0
843,2131.6458719306156
844,2131.6458719306156
907,0.0
908,0.0
971,0.0
972,0.0
1195,0.0
1197,0.0
2,1, 1,29, 0,10, 0.00,60.00,Monday
7,3.0
718,19.90247429711082
719,7.094493884718944
720,17.78526427203649
619,1240.9153062009404
633,392.9378676908545
659,17.266193254039365
661,146.08416445137405
690,40.25610795434966
716,0.0
843,877.1435358440267
844,877.1435358440267
907,0.0
908,0.0
971,0.0
972,0.0
1195,0.0
1197,0.0
2,1, 1,29, 0,11, 0.00,60.00,Monday
7,6.0
718,19.762146694176586
719,10.528470609955551
720,17.687587947046946
619,504.1796566546795
633,142.51420861943294
659,0.0
661,183.03903427225748
690,12.708357175007327
716,0.0
843,390.7398056330949
844,390.7398056330949
907,0.0
908,0.0
971,0.0
972,0.0
1195,0.0
1197,0.0
2,1, 1,29, 0,12, 0.00,60.00,Monday
7,8.0
718,19.701060666468933
719,11.905894283260498
720,17.619276145350288
619,425.1285540509728
633,116.61576328268394
659,0.0
661,186.3805173654203
690,10.204681303962841
716,0.0
843,342.55750584309135
844,342.55750584309135
907,0.0
908,0.0
971,0.0
972,0.0
1195,0.0
1197,0.0
2,1, 1,29, 0,13, 0.00,60.00,Monday
7,10.0
718,19.950746551255836
719,13.072683423588824
720,17.572563884001106
619,481.63797310767734
633,128.5389388144171
659,0.0
661,0.0
690,10.999421009566973
716,0.0
843,385.5175134160836
844,385.5175134160836
907,0.0
908,0.0
971,0.0
972,0.0
1195,0.0
1197,0.0
2,1, 1,29, 0,14, 0.00,60.00,Monday
7,10.0
718,19.767479504223683
719,12.937518132532913
720,17.543479586880746
619,1449.8599713347974
633,382.7652442668958
659,0.0
661,0.0
690,32.613807662884575
716,72.50550931396897
843,283.78753099452297
844,283.78753099452297
907,0.0
908,0.0
971,0.0
972,0.0
1195,0.0
1197,0.0
2,1, 1,29, 0,15, 0.00,60.00,Monday
7,9.0
718,19.60603851111142
719,11.757435011499572
720,17.502031275004345
619,410.38592640495915
633,111.1486242812528
659,0.0
661,187.16697962135623
690,9.615408062478277
716,0.0
843,336.5929051410749
844,336.5929051410749
907,0.0
908,0.0
971,0.0
972,0.0
1195,0.0
1197,0.0
2,1, 1,29, 0,16, 0.00,60.00,Monday
7,8.0
718,19.982627685610506
719,11.352973791195213
720,17.476138576183423
619,570.7371072459043
633,155.57395581518026
659,0.0
661,181.77523248447756
690,13.655287012336697
716,0.0
843,458.27246703304263
844,458.27246703304263
907,0.0
908,0.0
971,0.0
972,0.0
1195,0.0
1197,0.0
2,1, 1,29, 0,17, 0.00,60.00,Monday
7,7.0
718,19.767449614780475
719,10.174231884360804
720,17.446713175907465
619,255.11596475303656
633,71.51098498184587
659,0.0
661,191.58911807678226
690,6.302028631673353
716,0.0
843,206.17201433331866
844,206.17201433331866
907,0.0
908,0.0
971,0.0
972,0.0
1195,0.0
1197,0.0
2,1, 1,29, 0,18, 0.00,60.00,Monday
7,7.0
718,19.78157293712755
719,8.763626802440188
720,17.414618859534023
619,122.26008096986543
633,34.18278817060281
659,0.0
661,195.96326530752611
690,3.0246076264862287
716,0.0
843,88.03463626176563
844,88.03463626176563
907,0.0
908,0.0
971,0.0
972,0.0
1195,0.0
1197,0.0
2,1, 1,29, 0,19, 0.00,60.00,Monday
7,7.0
718,18.400788309124334
719,7.966980081834744
720,17.379495213782494
619,0.0
633,0.0
659,0.0
661,200.0
690,0.0
716,85.44000000000005
843,-59.31030804931561
844,-59.31030804931561
907,0.0
908,0.0
971,0.0
972,0.0
1195,0.0
1197,0.0
2,1, 1,29, 0,20, 0.00,60.00,Monday
7,6.0
718,19.27904847981559
719,7.707840971942184
720,17.32647166014469
619,1926.4760533881463
633,512.209384309591
659,0.0
661,137.26032337280557
690,47.00901071444878
716,84.3002049573364
843,430.6038393586259
844,430.6038393586259
907,0.0
908,0.0
971,0.0
972,0.0
1195,0.0
1197,0.0
2,1, 1,29, 0,21, 0.00,60.00,Monday
7,6.0
718,19.85440186165386
719,6.916114251511886
720,17.29736934202396
619,252.22912054543767
633,70.56357137186968
659,0.0
661,191.49915144816612
690,6.369438003795062
716,0.0
843,196.19687491944478
844,196.19687491944478
907,0.0
908,0.0
971,0.0
972,0.0
1195,0.0
1197,0.0
2,1, 1,29, 0,22, 0.00,60.00,Monday
7,6.0
718,19.723212630358486
719,6.647572306706739
720,17.24514956826209
619,240.90931222329633
633,68.31690200329439
659,0.0
661,191.85851113045968
690,6.100180269878778
716,0.0
843,187.68213549151915
844,187.68213549151915
907,0.0
908,0.0
971,0.0
972,0.0
1195,0.0
1197,0.0
2,1, 1,29, 0,23, 0.00,60.00,Monday
7,6.0
718,19.10244423691596
719,6.268469088938142
720,17.19036634584707
619,0.0
633,0.0
659,0.0
661,200.0
690,0.0
716,0.0
843,-293.5330302207276
844,-293.5330302207276
907,0.0
908,0.0
971,0.0
972,0.0
1195,0.0
1197,0.0
2,1, 1,29, 0,24, 0.00,60.00,Monday
7,6.0
718,18.612957295967497
719,6.286134126253953
720,17.13314309696966
619,159.26034413950285
633,44.44271053891446
659,0.0
661,194.62748930633398
690,4.025465643738535
716,0.0
843,124.92179774339729
844,124.92179774339729
907,0.0
908,0.0
971,0.0
972,0.0
1195,0.0
1197,0.0
2,2, 1,30, 0, 1, 0.00,60.00,Tuesday
7,6.0
718,18.619535448384134
719,6.3370693893482075
720,17.070568812956274
619,496.52475351470423
633,136.13688373660247
659,0.0
661,183.3897328827226
690,12.445588929725197
716,0.0
843,377.4854457373531
844,377.4854457373531
907,0.0
908,0.0
971,0.0
972,0.0
1195,0.0
1197,0.0
2,2, 1,30, 0, 2, 0.00,60.00,Tuesday
7,5.0
718,18.429865789776336
719,6.276778234593776
720,17.001914881619932
619,956.9525004555222
633,287.2637781935142
659,24.19399133845744
661,158.27213365506307
690,31.161462188737445
716,0.0
843,737.1031956235092
844,737.1031956235092
907,0.0
908,0.0
971,0.0
972,0.0
1195,0.0
1197,0.0
2,2, 1,30, 0, 3, 0.00,60.00,Tuesday
7,3.0
718,18.3119533548538
719,5.521943222772835
720,16.92027293358308
619,1622.4321540625826
633,493.1682795656249
659,43.61076479121655
661,126.44462643631773
690,54.73837502274779
716,0.0
843,1230.6634726080829
844,1230.6634726080829
907,0.0
908,0.0
971,0.0
972,0.0
1195,0.0
1197,0.0
2,2, 1,30, 0, 4, 0.00,60.00,Tuesday
7,2.0
718,18.466297228076836
719,4.969903512591576
720,16.83831734574899
619,2331.25314204458
633,705.8819975525374
659,48.132999476471504
661,96.3171887428911
690,77.17591468799189
716,0.0
843,1770.7554098527635
844,1770.7554098527635
907,0.0
908,0.0
971,0.0
972,0.0
1195,0.0
1197,0.0
2,2, 1,30, 0, 5, 0.00,60.00,Tuesday
7,-1.0
718,18.461532170077415
719,3.559384906549865
720,16.744736912378713
619,2864.864866836264
633,905.1439684421232
659,57.29987115986715
661,64.94614172631378
690,100.16601019833531
716,0.0
843,2131.8509317664157
844,2131.8509317664157
907,0.0
908,0.0
971,0.0
972,0.0
1195,0.0
1197,0.0
2,2, 1,30, 0, 6, 0.00,60.00,Tuesday
7,-1.0
718,19.28627683756105
719,3.713200319525162
720,16.652059697077043
619,4242.501179213796
633,1293.5434914793009
659,81.87910186373912
661,6.925170075067255
690,143.19955936318217
716,0.0
843,3095.17813574944
844,3095.17813574944
907,0.0
908,0.0
971,0.0
972,0.0
1195,0.0
1197,0.0
2,2, 1,30, 0, 7, 0.00,60.00,Tuesday
7,-2.0
718,19.508337744795764
719,3.1390707669985467
720,16.602012426719256
619,4352.264243983938
633,1360.4035766395693
659,77.41589853782698
661,0.0
690,149.85416961512607
716,85.44000000000005
843,3296.409360402813
844,3296.409360402813
907,0.0
908,0.0
971,0.0
972,0.0
1195,1575.2371856642658
1197,1575.2371856642658
2,2, 1,30, 0, 8, 0.00,60.00,Tuesday
7,-3.0
718,19.627986850746236
719,2.136759507130975
720,16.513967770022376
619,4264.954473572562
633,1366.8502289331273
659,68.70207089045206
661,0.0
690,149.85416961512607
716,85.44000000000005
843,3428.867582863895
844,3428.867582863895
907,0.0
908,0.0
971,0.0
972,0.0
1195,1907.0346028206422
1197,1907.0346028206422
2,2, 1,30, 0, 9, 0.00,60.00,Tuesday
7,-3.0
718,19.678097959753416
719,2.6669756501236255
720,16.44081759953568
619,4320.282552317254
633,1388.579514111091
659,55.337988190256745
661,0.0
690,149.85416961512607
716,56.59473255506338
843,3006.3489491446835
844,3006.3489491446835
907,0.0
908,0.0
971,0.0
972,0.0
1195,943.7889008629786
1197,943.7889008629786
2,2, 1,30, 0,10, 0.00,60.00,Tuesday
7,-3.0
718,19.795127317063624
719,4.643416286807092
720,16.361117521403
619,2909.179563217049
633,978.9399206923474
659,38.964882684501454
661,59.161655073104825
690,104.62932361340987
716,0.0
843,2008.9878508724505
844,2008.9878508724505
907,0.0
908,0.0
971,0.0
972,0.0
1195,0.0
1197,0.0
2,2, 1,30, 0,11, 0.00,60.00,Tuesday
7,-2.0
718,19.87739817338085
719,7.967419818649858
720,16.30116629800799
619,1441.91840871457
633,496.4227936343886
659,16.988160753494412
661,129.84662864648422
690,52.222359419040764
716,0.0
843,1026.964351543129
844,1026.964351543129
907,0.0
908,0.0
971,0.0
972,0.0
1195,0.0
1197,0.0
2,2, 1,30, 0,12, 0.00,60.00,Tuesday
7,0.0
718,20.01440716102158
719,11.367935788928321
720,16.258256985890256
619,389.4935319253569
633,132.64243450635672
659,1.647250613680174
661,182.14196032900853
690,13.356554063415507
716,0.0
843,291.8870571289972
844,291.8870571289972
907,0.0
908,0.0
971,0.0
972,0.0
1195,0.0
1197,0.0
2,2, 1,30, 0,13, 0.00,60.00,Tuesday
7,0.0
718,19.994641295975434
719,14.686744359682015
720,16.24448430790695
619,0.0
633,0.0
659,0.0
661,200.0
690,0.0
716,0.0
843,-221.64009839046776
844,-221.64009839046776
907,0.0
908,0.0
971,0.0
972,0.0
1195,0.0
1197,0.0
2,2, 1,30, 0,14, 0.00,60.00,Tuesday
7,2.0
718,20.931221607273642
719,19.531804593485038
720,16.257536853456084
619,0.0
633,0.0
659,0.0
661,200.0
690,0.0
716,0.0
843,-989.5401244126588
844,-989.5401244126588
907,0.0
908,0.0
971,0.0
972,0.0
1195,0.0
1197,0.0
2,2, 1,30, 0,15, 0.00,60.00,Tuesday
7,3.0
718,21.588147249401068
719,19.145303669670994
720,16.286611481915255
619,0.0
633,0.0
659,0.0
661,200.0
690,0.0
716,0.0
843,-1458.8385389831128
844,-1458.8385389831128
907,0.0
908,0.0
971,0.0
972,0.0
1195,0.0
1197,0.0
2,2, 1,30, 0,16, 0.00,60.00,Tuesday
7,3.0
718,22.38962359877864
719,15.38975691208418
720,16.33572466241464
619,0.0
633,0.0
659,0.0
661,200.0
690,0.0
716,0.0
843,-2198.6064951145454
844,-2198.6064951145454
907,0.0
908,0.0
971,0.0
972,0.0
1195,0.0
1197,0.0
2,2, 1,30, 0,17, 0.00,60.00,Tuesday
7,3.0
718,23.019036621859186
719,12.694328691858356
720,16.39468683185065
619,0.0
633,0.0
659,0.0
661,200.0
690,0.0
716,0.0
843,-2639.4721966670513
844,-2639.4721966670513
907,0.0
908,0.0
971,0.0
972,0.0
1195,0.0
1197,0.0
2,2, 1,30, 0,18, 0.00,60.00,Tuesday
7,3.0
718,21.65209625993156
719,8.849037067018758
720,16.460541918530343
619,0.0
633,0.0
659,0.0
661,200.0
690,0.0
716,62.896942920797
843,-2064.181365537921
844,-2064.181365537921
907,0.0
908,0.0
971,0.0
972,0.0
1195,0.0
1197,0.0
2,2, 1,30, 0,19, 0.00,60.00,Tuesday
7,0.0
718,21.613248678643444
719,4.961188698704127
720,16.510868608078088
619,0.0
633,0.0
659,0.0
661,200.0
690,0.0
716,0.0
843,-1736.1849520233918
844,-1736.1849520233918
907,0.0
908,0.0
971,0.0
972,0.0
1195,0.0
1197,0.0
2,2, 1,30, 0,20, 0.00,60.00,Tuesday
7,-1.0
718,20.019653860889974
719,2.240186722158946
720,16.526237920223842
619,0.0
633,0.0
659,0.0
661,200.0
690,0.0
716,85.44000000000005
843,-1013.8114749324559
844,-1013.8114749324559
907,0.0
908,0.0
971,0.0
972,0.0
1195,0.0
1197,0.0
2,2, 1,30, 0,21, 0.00,60.00,Tuesday
7,-2.0
718,19.352896663807034
719,0.4061016108777827
720,16.514703944330982
619,0.0
633,0.0
659,0.0
661,200.0
690,0.0
716,85.44000000000005
843,-562.266766076591
844,-562.266766076591
907,0.0
908,0.0
971,0.0
972,0.0
1195,0.0
1197,0.0
2,2, 1,30, 0,22, 0.00,60.00,Tuesday
7,-3.0
718,19.65105179364213
719,-0.5504721511712927
720,16.46634180577185
619,1068.4662155355534
633,374.13141453843855
659,8.418872255109152
661,147.100448976376
690,39.44640218140925
716,19.063209276220462
843,482.1051277443894
844,482.1051277443894
907,0.0
908,0.0
971,0.0
972,0.0
1195,0.0
1197,0.0
2,2, 1,30, 0,23, 0.00,60.00,Tuesday
7,-4.0
718,18.801298495811952
719,-1.8983868658248775
720,16.409638875465113
619,404.37033945258077
633,148.71128065310126
659,5.394125850774894
661,178.53221041843605
690,15.945713132593195
716,0.0
843,259.3233028346731
844,259.3233028346731
907,0.0
908,0.0
971,0.0
972,0.0
1195,0.0
1197,0.0
2,2, 1,30, 0,24, 0.00,60.00,Tuesday
7,-2.9
718,18.667105155601085
719,-1.814428063493091
720,16.316697821439043
619,1227.925308991345
633,422.70969719329236
659,17.967041337929295
661,138.03368167682007
690,46.02214162202042
716,0.0
843,821.6281764342166
844,821.6281764342166
907,0.0
908,0.0
971,0.0
972,0.0
1195,0.0
1197,0.0
2,3, 1,31, 0, 1, 0.00,60.00,Wednesday
7,-2.1
718,18.64859296734062
719,-1.5611568975669388
720,16.227649590533805
619,1628.0872280423257
633,543.6238331969408
659,20.630140560896752
661,121.07861847690997
690,58.71418976214441
716,0.0
843,1094.0285100366436
844,1094.0285100366436
907,0.0
908,0.0
971,0.0
972,0.0
1195,0.0
1197,0.0
2,3, 1,31, 0, 2, 0.00,60.00,Wednesday
7,-1.7
718,18.58797682492554
719,-0.9963603802894077
720,16.131695148321086
619,2302.360771667667
633,749.765177267203
659,35.78518939401932
661,90.05063136588079
690,81.68553818592997
716,0.0
843,1551.9899978346966
844,1551.9899978346966
907,0.0
908,0.0
971,0.0
972,0.0
1195,0.0
1197,0.0
2,3, 1,31, 0, 3, 0.00,60.00,Wednesday
7,-2.4
718,18.512840987750813
719,-0.8612479982807764
720,16.017672338501782
619,3006.3389359481475
633,972.4045630518989
659,54.17214986305172
661,54.93444998042916
690,107.52602612569183
716,0.0
843,2027.0514689461543
844,2027.0514689461543
907,0.0
908,0.0
971,0.0
972,0.0
1195,0.0
1197,0.0
2,3, 1,31, 0, 4, 0.00,60.00,Wednesday
7,-2.0
718,18.56345759811761
719,-0.46436478751610377
720,15.91567142983527
619,3514.600046732875
633,1110.9807474717074
659,55.25580355078944
661,35.79001594249025
690,121.91628315887222
716,0.0
843,2383.3622512974307
844,2383.3622512974307
907,0.0
908,0.0
971,0.0
972,0.0
1195,0.0
1197,0.0
2,3, 1,31, 0, 5, 0.00,60.00,Wednesday
7,-3.2
718,18.559082227525668
719,-0.7441243904735017
720,15.803060741179833
619,3926.2896704260584
633,1256.1141457114966
659,66.89571343940217
661,11.864598137033777
690,139.3746213064263
716,0.0
843,2646.140473824291
844,2646.140473824291
907,0.0
908,0.0
971,0.0
972,0.0
1195,0.0
1197,0.0
2,3, 1,31, 0, 6, 0.00,60.00,Wednesday
7,-2.1
718,19.224281379247202
719,0.19592317295148393
720,15.71356725619073
619,4369.630131176529
633,1342.5816722934842
659,74.68333274122467
661,0.0
690,149.85416961512607
716,68.66228201679071
843,3552.2127754790126
844,3552.2127754790126
907,0.0
908,0.0
971,0.0
972,0.0
1195,1622.801619062198
1197,1622.801619062198
2,3, 1,31, 0, 7, 0.00,60.00,Wednesday
7,-2.0
718,19.512838540584976
719,0.4539395797196495
720,15.646719363482156
619,4364.0120780646475
633,1360.3586096345462
659,75.34131871687423
661,0.0
690,149.85416961512607
716,85.44000000000005
843,3548.401695726412
844,3548.401695726412
907,0.0
908,0.0
971,0.0
972,0.0
1195,1966.7094420382055
1197,1966.7094420382055
2,3, 1,31, 0, 8, 0.00,60.00,Wednesday
7,-6.0
718,19.63933138745093
719,-0.24860743131705534
720,15.528181311500852
619,3981.8422462763974
633,1354.730410313923
659,51.533649098714285
661,0.0
690,149.85416961512607
716,46.69478631233907
843,3383.73798683699
844,3383.73798683699
907,0.0
908,0.0
971,0.0
972,0.0
1195,1618.454985003195
1197,1618.454985003195
2,3, 1,31, 0, 9, 0.00,60.00,Wednesday
7,-5.0
718,19.71104758536678
719,0.14213387324978358
720,15.460125384063634
619,3858.8735164280442
633,1309.3651477469555
659,43.08190785673638
661,9.959799128827429
690,141.14974621909428
716,0.0
843,2504.778576681065
844,2504.778576681065
907,0.0
908,0.0
971,0.0
972,0.0
1195,0.0
1197,0.0
2,3, 1,31, 0,10, 0.00,60.00,Wednesday
7,-3.0
718,19.872049147331584
719,3.008288070617319
720,15.380568256146198
619,2138.6804334021804
633,732.9538122352791
659,16.372711820496498
661,96.96565569054172
690,76.83117077807326
716,0.0
843,1409.9566374926326
844,1409.9566374926326
907,0.0
908,0.0
971,0.0
972,0.0
1195,0.0
1197,0.0
2,3, 1,31, 0,11, 0.00,60.00,Wednesday
7,-2.0
718,19.878654857113474
719,7.819201437613275
720,15.316509943766738
619,674.3863057324743
633,236.5827095320587
659,4.018803800253425
661,167.36314390683344
690,24.374653791701007
716,0.0
843,461.6550115031205
844,461.6550115031205
907,0.0
908,0.0
971,0.0
972,0.0
1195,0.0
1197,0.0
2,3, 1,31, 0,12, 0.00,60.00,Wednesday
7,-1.0
718,19.780543704015567
719,9.91582304562066
720,15.28633292568835
619,40.16722806762142
633,14.024780741347044
659,0.03151825208068009
661,198.1210315076783
690,1.407327121379953
716,0.0
843,27.65113397210189
844,27.65113397210189
907,0.0
908,0.0
971,0.0
972,0.0
1195,0.0
1197,0.0
2,3, 1,31, 0,13, 0.00,60.00,Wednesday
7,1.0
718,20.232030846489437
719,11.08483322268566
720,15.291636575853282
619,0.0
633,0.0
659,0.0
661,200.0
690,0.0
716,0.0
843,-276.2670635694849
844,-276.2670635694849
907,0.0
908,0.0
971,0.0
972,0.0
1195,0.0
1197,0.0
2,3, 1,31, 0,14, 0.00,60.00,Wednesday
7,3.0
718,21.03158748514783
719,15.421462094934078
720,15.318620492177597
619,0.0
633,0.0
659,0.0
661,200.0
690,0.0
716,0.0
843,-1037.9235394679818
844,-1037.9235394679818
907,0.0
908,0.0
971,0.0
972,0.0
1195,0.0
1197,0.0
2,3, 1,31, 0,15, 0.00,60.00,Wednesday
7,3.0
718,20.589514794413283
719,15.660514796607787
720,15.361334034830463
619,0.0
633,0.0
659,0.0
661,200.0
690,0.0
716,65.25827744799406
843,-1386.3263508201126
844,-1386.3263508201126
907,0.0
908,0.0
971,0.0
972,0.0
1195,0.0
1197,0.0
2,3, 1,31, 0,16, 0.00,60.00,Wednesday
7,5.0
718,21.026109579458048
719,14.931735242301796
720,15.420380306912504
619,0.0
633,0.0
659,0.0
661,200.0
690,0.0
716,71.00413419876632
843,-2192.368832394395
844,-2192.368832394395
907,0.0
908,0.0
971,0.0
972,0.0
1195,0.0
1197,0.0
2,3, 1,31, 0,17, 0.00,60.00,Wednesday
7,4.0
718,22.041130563391892
719,11.644094084488627
720,15.489465109419518
619,0.0
633,0.0
659,0.0
661,200.0
690,0.0
716,0.0
843,-2186.479101422423
844,-2186.479101422423
907,0.0
908,0.0
971,0.0
972,0.0
1195,0.0
1197,0.0
2,3, 1,31, 0,18, 0.00,60.00,Wednesday
7,3.0
718,22.1153721873745
719,9.002231673613775
720,15.576370849785272
619,0.0
633,0.0
659,0.0
661,200.0
690,0.0
716,0.0
843,-1948.2483604827357
844,-1948.2483604827357
907,0.0
908,0.0
971,0.0
972,0.0
1195,0.0
1197,0.0
2,3, 1,31, 0,19, 0.00,60.00,Wednesday
7,2.0
718,21.601349452023022
719,6.239562320405886
720,15.64517493968491
619,0.0
633,0.0
659,0.0
661,200.0
690,0.0
716,0.0
843,-1468.5227966196344
844,-1468.5227966196344
907,0.0
908,0.0
971,0.0
972,0.0
1195,0.0
1197,0.0
2,3, 1,31, 0,20, 0.00,60.00,Wednesday
7,2.0
718,20.34092349128187
719,4.654038746705046
720,15.689060699189644
619,0.0
633,0.0
659,0.0
661,200.0
690,0.0
716,85.44000000000005
843,-1324.4180460931548
844,-1324.4180460931548
907,0.0
908,0.0
971,0.0
972,0.0
1195,0.0
1197,0.0
2,3, 1,31, 0,21, 0.00,60.00,Wednesday
7,2.0
718,19.872428493307183
719,3.7338411594062966
720,15.704377841778888
619,0.0
633,0.0
659,0.0
661,200.0
690,0.0
716,73.72244400669418
843,-985.8432820479538
844,-985.8432820479538
907,0.0
908,0.0
971,0.0
972,0.0
1195,0.0
1197,0.0
2,3, 1,31, 0,22, 0.00,60.00,Wednesday
7,1.5
718,19.813512836009927
719,3.0240533603002686
720,15.692942405969731
619,0.0
633,0.0
659,0.0
661,200.0
690,0.0
716,0.0
843,-85.09628842423263
844,-85.09628842423263
907,0.0
908,0.0
971,0.0
972,0.0
1195,0.0
1197,0.0
2,3, 1,31, 0,23, 0.00,60.00,Wednesday
7,0.7
718,18.887285842958544
719,2.646060913788094
720,15.66259437748911
619,0.0
633,0.0
659,0.0
661,200.0
690,0.0
716,0.0
843,-227.8002659182239
844,-227.8002659182239
907,0.0
908,0.0
971,0.0
972,0.0
1195,0.0
1197,0.0
2,3, 1,31, 0,24, 0.00,60.00,Wednesday
7,-0.4
718,18.62595849979188
719,1.2160067137510608
720,15.622170740231022
619,559.1681627754436
633,185.9677124993553
659,0.009158365862434676
661,174.81243349649458
690,18.8721701634428
716,0.0
843,379.86156558477705
844,379.86156558477705
907,0.0
908,0.0
971,0.0
972,0.0
1195,0.0
1197,0.0
2,4, 2, 1, 0, 1, 0.00,60.00,Thursday
7,-1.7
718,18.234782743041524
719,0.8388775284533668
720,15.56011471434035
619,1416.9306842151443
633,469.1459551354588
659,0.02348958863505018
661,135.39834673868035
690,48.403703169616534
716,0.0
843,1005.8090698450087
844,1005.8090698450087
907,0.0
908,0.0
971,0.0
972,0.0
1195,0.0
1197,0.0
2,4, 2, 1, 0, 2, 0.00,60.00,Thursday
7,-2.7
718,18.478363695009087
719,0.0910099041613404
720,15.47864251413959
619,2227.3128189144113
633,728.5403127295176
659,0.037079516726791294
661,98.02298712429722
690,76.40762413370734
716,0.0
843,1574.1640472592007
844,1574.1640472592007
907,0.0
908,0.0
971,0.0
972,0.0
1195,0.0
1197,0.0
2,4, 2, 1, 0, 3, 0.00,60.00,Thursday
7,-3.3
718,18.525547935160695
719,-0.25520262144836253
720,15.406769964573366
619,3100.9688291044126
633,1008.6389801615343
659,0.05136087054537612
661,58.74605120921792
690,105.83630120083905
716,0.0
843,2146.1339240792877
844,2146.1339240792877
907,0.0
908,0.0
971,0.0
972,0.0
1195,0.0
1197,0.0
2,4, 2, 1, 0, 4, 0.00,60.00,Thursday
7,-3.9
718,18.581122123435513
719,-1.0663960118696736
720,15.323053026190362
619,3572.3801356588874
633,1161.564738522054
659,0.059400642314648845
661,36.6348701149819
690,122.40328078199516
716,0.0
843,2442.3444825881106
844,2442.3444825881106
907,0.0
908,0.0
971,0.0
972,0.0
1195,0.0
1197,0.0
2,4, 2, 1, 0, 5, 0.00,60.00,Thursday
7,-4.4
718,18.549263636421642
719,-0.925506946700903
720,15.233286383456734
619,4085.9824784623165
633,1324.4549965889132
659,0.06795295407960741
661,13.11408872513027
690,140.02640824779212
716,0.0
843,2739.4795064317495
844,2739.4795064317495
907,0.0
908,0.0
971,0.0
972,0.0
1195,0.0
1197,0.0
2,4, 2, 1, 0, 6, 0.00,60.00,Thursday
7,-4.6
718,19.32588263972799
719,-1.4195430494083676
720,15.140295654076768
619,4383.958941258634
633,1413.9419479042251
659,0.07272132352412908
661,0.0
690,149.85416961512607
716,0.0
843,3789.512356112489
844,3789.512356112489
907,0.0
908,0.0
971,0.0
972,0.0
1195,1013.2604996042905
1197,1013.2604996042905
2,4, 2, 1, 0, 7, 0.00,60.00,Thursday
7,-4.5
718,19.552854010701854
719,-0.876475979120708
720,15.091068336988927
619,4378.135901842789
633,1436.6363859373296
659,0.07272132352412908
661,0.0
690,149.85416961512607
716,85.44000000000005
843,3794.464098126986
844,3794.464098126986
907,0.0
908,0.0
971,0.0
972,0.0
1195,2359.0730946356207
1197,2359.0730946356207
2,4, 2, 1, 0, 8, 0.00,60.00,Thursday
7,-5.0
718,19.64104375269491
719,-0.6520346308613536
720,15.000623272817256
619,4310.16922889081
633,1436.8463585713002
659,0.07272132352412908
661,0.0
690,149.85416961512607
716,85.44000000000005
843,3403.621220203964
844,3403.621220203964
907,0.0
908,0.0
971,0.0
972,0.0
1195,1978.759058448194
1197,1978.759058448194
2,4, 2, 1, 0, 9, 0.00,60.00,Thursday
7,-5.0
718,19.690025631238186
719,0.647144366397128
720,14.922485191248086
619,4308.181805527855
633,1439.1646423232023
659,0.07272132352412908
661,0.0
690,149.85416961512607
716,62.92416273633631
843,2848.246117358931
844,2848.246117358931
907,0.0
908,0.0
971,0.0
972,0.0
1195,890.9039706967915
1197,890.9039706967915
2,4, 2, 1, 0,10, 0.00,60.00,Thursday
7,-2.7
718,19.887019386263542
719,4.087020002968111
720,14.829990747114596
619,2022.1085187768945
633,688.5324331206114
659,0.03407748115479113
661,106.27926032318662
690,70.22149702823859
716,0.0
843,1344.2827865478484
844,1344.2827865478484
907,0.0
908,0.0
971,0.0
972,0.0
1195,0.0
1197,0.0
2,4, 2, 1, 0,11, 0.00,60.00,Thursday
7,-1.6
718,19.78455725606294
719,8.561766994629359
720,14.764120430956154
619,700.0086902170441
633,242.81163863556492
659,0.011857885789800402
661,167.38814637809517
690,24.434894647460794
716,0.0
843,490.2375609905848
844,490.2375609905848
907,0.0
908,0.0
971,0.0
972,0.0
1195,0.0
1197,0.0
2,4, 2, 1, 0,12, 0.00,60.00,Thursday
7,0.0
718,20.027700308923286
719,16.278425766645256
720,14.737531867656172
619,69.54842268840368
633,23.735860749404953
659,0.0011454726042423964
661,196.8496926383296
690,2.3604170868223537
716,0.0
843,50.80434428225453
844,50.80434428225453
907,0.0
908,0.0
971,0.0
972,0.0
1195,0.0
1197,0.0
2,4, 2, 1, 0,13, 0.00,60.00,Thursday
7,1.3
718,20.121785369301925
719,17.17021700328655
720,14.747238803834033
619,0.0
633,0.0
659,0.0
661,200.0
690,0.0
716,0.0
843,-437.65963369991186
844,-437.65963369991186
907,0.0
908,0.0
971,0.0
972,0.0
1195,0.0
1197,0.0
2,4, 2, 1, 0,14, 0.00,60.00,Thursday
7,2.0
718,20.972845471074834
719,21.46561596460789
720,14.781764628263769
619,0.0
633,0.0
659,0.0
661,200.0
690,0.0
716,0.0
843,-1023.6814384498266
844,-1023.6814384498266
907,0.0
908,0.0
971,0.0
972,0.0
1195,0.0
1197,0.0
2,4, 2, 1, 0,15, 0.00,60.00,Thursday
7,2.8
718,21.548627476558778
719,17.44233363805476
720,14.829460333250037
619,0.0
633,0.0
659,0.0
661,200.0
690,0.0
716,0.0
843,-1462.9140244536757
844,-1462.9140244536757
907,0.0
908,0.0
971,0.0
972,0.0
1195,0.0
1197,0.0
2,4, 2, 1, 0,16, 0.00,60.00,Thursday
7,3.1
718,22.575661209265977
719,18.43448937694784
720,14.893001890133378
619,0.0
633,0.0
659,0.0
661,200.0
690,0.0
716,0.0
843,-2384.5480528049993
844,-2384.5480528049993
907,0.0
908,0.0
971,0.0
972,0.0
1195,0.0
1197,0.0
2,4, 2, 1, 0,17, 0.00,60.00,Thursday
7,2.7
718,22.165983693844886
719,13.47144441298252
720,14.985501713106526
619,0.0
633,0.0
659,0.0
661,200.0
690,0.0
716,72.43808865442858
843,-2694.166341598986
844,-2694.166341598986
907,0.0
908,0.0
971,0.0
972,0.0
1195,0.0
1197,0.0
2,4, 2, 1, 0,18, 0.00,60.00,Thursday
7,0.9
718,22.55998457039586
719,9.790154998345693
720,15.085363933056449
619,0.0
633,0.0
659,0.0
661,200.0
690,0.0
716,0.0
843,-2694.4377170094212
844,-2694.4377170094212
907,0.0
908,0.0
971,0.0
972,0.0
1195,0.0
1197,0.0
2,4, 2, 1, 0,19, 0.00,60.00,Thursday
7,-0.1
718,21.093307479295262
719,6.468353339976834
720,15.167472361612605
619,0.0
633,0.0
659,0.0
661,200.0
690,0.0