Program Version,EnergyPlus, Version 22.2.0-c249759bad, YMD=2023.07.07 15:22
1,5,Environment Title[],Latitude[deg],Longitude[deg],Time Zone[],Elevation[m]
2,8,Day of Simulation[],Month[],Day of Month[],DST Indicator[1=yes 0=no],Hour[],StartMinute[],EndMinute[],DayType
3,5,Cumulative Day of Simulation[],Month[],Day of Month[],DST Indicator[1=yes 0=no],DayType  ! When Daily Report Variables Requested
4,2,Cumulative Days of Simulation[],Month[]  ! When Monthly Report Variables Requested
5,1,Cumulative Days of Simulation[] ! When Run Period Report Variables Requested
6,1,Calendar Year of Simulation[] ! When Annual Report Variables Requested
581,11,LIVING,AFN Zone Infiltration Air Change Rate [ach] !RunPeriod [Value,Min,Month,Day,Hour,Minute,Max,Month,Day,Hour,Minute]
582,11,ATTIC,AFN Zone Infiltration Air Change Rate [ach] !RunPeriod [Value,Min,Month,Day,Hour,Minute,Max,Month,Day,Hour,Minute]
583,11,CRAWLSPACE,AFN Zone Infiltration Air Change Rate [ach] !RunPeriod [Value,Min,Month,Day,Hour,Minute,Max,Month,Day,Hour,Minute]
1038,11,Facility,Facility Heating Setpoint Not Met Time [hr] !RunPeriod [Value,Min,Month,Day,Hour,Minute,Max,Month,Day,Hour,Minute]
1039,11,Facility,Facility Cooling Setpoint Not Met Time [hr] !RunPeriod [Value,Min,Month,Day,Hour,Minute,Max,Month,Day,Hour,Minute]
1115,11,DX_HEATING_COIL,Heating Coil Heating Energy [J] !RunPeriod [Value,Min,Month,Day,Hour,Minute,Max,Month,Day,Hour,Minute]
1128,11,DX_HEATING_COIL,Heating Coil Electricity Energy [J] !RunPeriod [Value,Min,Month,Day,Hour,Minute,Max,Month,Day,Hour,Minute]
1153,11,DX_HEATING_COIL,Heating Coil Defrost Electricity Energy [J] !RunPeriod [Value,Min,Month,Day,Hour,Minute,Max,Month,Day,Hour,Minute]
1154,11,DX_HEATING_COIL,Heating Coil Crankcase Heater Electricity Energy [J] !RunPeriod [Value,Min,Month,Day,Hour,Minute,Max,Month,Day,Hour,Minute]
1156,11,HEATING_RESISTANCE_BACKUP,Heating Coil Electricity Energy [J] !RunPeriod [Value,Min,Month,Day,Hour,Minute,Max,Month,Day,Hour,Minute]
13,11,Electricity:Facility [J] !RunPeriod [Value,Min,Month,Day,Hour,Minute,Max,Month,Day,Hour,Minute]
1134,11,Heating:Electricity [J] !RunPeriod [Value,Min,Month,Day,Hour,Minute,Max,Month,Day,Hour,Minute]
1096,11,Cooling:Electricity [J] !RunPeriod [Value,Min,Month,Day,Hour,Minute,Max,Month,Day,Hour,Minute]
562,11,Fans:Electricity [J] !RunPeriod [Value,Min,Month,Day,Hour,Minute,Max,Month,Day,Hour,Minute]
1388,11,Pumps:Electricity [J] !RunPeriod [Value,Min,Month,Day,Hour,Minute,Max,Month,Day,Hour,Minute]
1360,11,WaterSystems:Electricity [J] !RunPeriod [Value,Min,Month,Day,Hour,Minute,Max,Month,Day,Hour,Minute]
61,11,InteriorLights:Electricity [J] !RunPeriod [Value,Min,Month,Day,Hour,Minute,Max,Month,Day,Hour,Minute]
1046,11,ExteriorLights:Electricity [J] !RunPeriod [Value,Min,Month,Day,Hour,Minute,Max,Month,Day,Hour,Minute]
134,11,InteriorEquipment:Electricity [J] !RunPeriod [Value,Min,Month,Day,Hour,Minute,Max,Month,Day,Hour,Minute]
170,11,gas_dryer:InteriorEquipment:Electricity [J] !RunPeriod [Value,Min,Month,Day,Hour,Minute,Max,Month,Day,Hour,Minute]
207,11,clotheswasher:InteriorEquipment:Electricity [J] !RunPeriod [Value,Min,Month,Day,Hour,Minute,Max,Month,Day,Hour,Minute]
244,11,dishwasher:InteriorEquipment:Electricity [J] !RunPeriod [Value,Min,Month,Day,Hour,Minute,Max,Month,Day,Hour,Minute]
281,11,refrigerator:InteriorEquipment:Electricity [J] !RunPeriod [Value,Min,Month,Day,Hour,Minute,Max,Month,Day,Hour,Minute]
318,11,electric_mels:InteriorEquipment:Electricity [J] !RunPeriod [Value,Min,Month,Day,Hour,Minute,Max,Month,Day,Hour,Minute]
355,11,NaturalGas:Facility [J] !RunPeriod [Value,Min,Month,Day,Hour,Minute,Max,Month,Day,Hour,Minute]
1323,11,WaterSystems:NaturalGas [J] !RunPeriod [Value,Min,Month,Day,Hour,Minute,Max,Month,Day,Hour,Minute]
403,11,InteriorEquipment:NaturalGas [J] !RunPeriod [Value,Min,Month,Day,Hour,Minute,Max,Month,Day,Hour,Minute]
476,11,gas_dryer:InteriorEquipment:NaturalGas [J] !RunPeriod [Value,Min,Month,Day,Hour,Minute,Max,Month,Day,Hour,Minute]
513,11,gas_mels:InteriorEquipment:NaturalGas [J] !RunPeriod [Value,Min,Month,Day,Hour,Minute,Max,Month,Day,Hour,Minute]
End of Data Dictionary
1,EXTREME_WINTER,  47.45,-122.30,  -8.00, 137.00
5,7
1038,1.0,0.0, 1, 1, 1,10,0.16666666666666666, 1, 1, 6,10
1039,0.0,0.0, 1, 1, 1,10,0.0, 1, 1, 1,10
581,0.25305481639230165,0.1326322437784559, 1, 6, 6, 2,0.6204516297263276, 1, 7,14,60
582,2.7374603513812934,0.0, 1, 1, 1,10,12.14710547820077, 1, 7,14,60
583,3.5918025970909646,0.0002001713600656231, 1, 1,19, 6,16.810297827254228, 1, 7,14,60
1115,997509802.1301965,0.0, 1, 1,12,23,2365134.037013516, 1, 1, 9,10
1128,291342432.8059446,0.0, 1, 1,12,23,728175.0001781717, 1, 1, 9,10
1153,11414347.405082678,0.0, 1, 1,12,23,71651.56592063243, 1, 5, 6,60
1154,72232232.88719481,0.0, 1, 1, 6, 2,120000.0, 1, 1,14,10
1156,37527891.25051448,0.0, 1, 1, 1,10,1075119.1730946708, 1, 3, 6,30
13,820843245.2809659,306324.6925987483, 1, 1,15,10,2952523.632890044, 1, 3, 6,10
61,301924526.0238348,58759.40635443481, 1, 1, 1,10,854682.2742463244, 1, 1,20,10
134,70666020.44019979,42376.01200569399, 1, 1, 4,10,104369.48322671017, 1, 6,20,10
170,5241013.419656074,232.27731661587313, 1, 1, 4,10,11650.931360040839, 1, 6,12,10
207,6509451.13922266,543.5021409221355, 1, 1, 3,10,15327.095199349082, 1, 6,10,10
244,12749673.39982522,1014.5707620042115, 1, 1, 4,10,35359.08742820678, 1, 6,20,10
281,46165882.48149605,39959.06841621388, 1, 1, 5,10,54634.54471212738, 1, 1,19,10
318,0.0,0.0, 1, 1, 1,10,0.0, 1, 1, 1,10
355,734409637.1657532,12374.216038804521, 1, 1, 4,10,3829218.154066982, 1, 5,18,20
403,197687796.27748126,12374.216038804521, 1, 1, 4,10,483183.26346918393, 1, 6,18,10
476,106772067.24485692,4732.048419519677, 1, 1, 4,10,237357.535085481, 1, 6,12,10
513,0.0,0.0, 1, 1, 1,10,0.0, 1, 1, 1,10
562,30715954.46819301,0.0, 1, 1,12,40,75878.42964599053, 1, 1, 6,20
1046,0.0,0.0, 1, 1, 1,10,0.0, 1, 1, 1,10
1096,0.0,0.0, 1, 1, 1,10,0.0, 1, 1, 1,10
1134,412516904.34873706,120000.0, 1, 1,12,40,2459085.8802334005, 1, 3, 6,10
1323,536721840.8882699,0.0, 1, 1, 1,10,3375000.000000001, 1, 6,21,40
1360,5019840.0,4979.999999999999, 1, 5, 3,40,4980.000000000001, 1, 1, 1,20
1388,0.0,0.0, 1, 1, 1,10,0.0, 1, 1, 1,10
1,EXTREME_SUMMER,  47.45,-122.30,  -8.00, 137.00
5,7
1038,0.0,0.0, 8, 5, 1,10,0.0, 8, 5, 1,10
1039,24.83333333333333,0.0, 8, 5, 1,10,0.16666666666666666, 8, 6,17,20
581,0.17378843164837393,0.03251289443702605, 8,10,21,55,0.4451086105471044, 8, 5,18,56
582,3.354656158256098,0.0, 8, 5, 1,55,9.977448437477854, 8, 8,14,53
583,4.0439605084026224,0.0003476253717723413, 8, 5, 1,55,12.006963561419505, 8, 5,19,45
1115,0.0,0.0, 8, 5, 1,10,0.0, 8, 5, 1,10
1128,0.0,0.0, 8, 5, 1,10,0.0, 8, 5, 1,10
1153,0.0,0.0, 8, 5, 1,10,0.0, 8, 5, 1,10
1154,0.0,0.0, 8, 5, 1,10,0.0, 8, 5, 1,10
1156,0.0,0.0, 8, 5, 1,10,0.0, 8, 5, 1,10
13,713495709.7698218,106115.4183601288, 8, 5, 4,10,1731233.2205181923, 8,11,20,10
61,301924526.0238348,58759.40635443481, 8, 5, 1,10,854682.2742463244, 8, 5,20,10
134,70666020.44019979,42376.01200569399, 8, 5, 4,10,104369.48322671017, 8,10,20,10
170,5241013.419656074,232.27731661587313, 8, 5, 4,10,11650.931360040839, 8,10,12,10
207,6509451.13922266,543.5021409221355, 8, 5, 3,10,15327.095199349082, 8,10,10,10
244,12749673.39982522,1014.5707620042115, 8, 5, 4,10,35359.08742820678, 8,10,20,10
281,46165882.48149605,39959.06841621388, 8, 5, 5,10,54634.54471212738, 8, 5,19,10
318,0.0,0.0, 8, 5, 1,10,0.0, 8, 5, 1,10
355,628125191.2613592,12374.216038804521, 8, 5, 4,10,3829218.154066982, 8, 6,18,60
403,197687796.27748126,12374.216038804521, 8, 5, 4,10,483183.26346918393, 8,10,18,10
476,106772067.24485692,4732.048419519677, 8, 5, 4,10,237357.535085481, 8,10,12,10
513,0.0,0.0, 8, 5, 1,10,0.0, 8, 5, 1,10
562,35507337.10473137,0.0, 8, 5, 1,50,75878.42964599053, 8, 6,15,20
1046,0.0,0.0, 8, 5, 1,10,0.0, 8, 5, 1,10
1096,300377986.20105517,0.0, 8, 5, 1,50,721484.0191595149, 8,11,17,60
1134,0.0,0.0, 8, 5, 1,10,0.0, 8, 5, 1,10
1323,430437394.98387635,0.0, 8, 5, 1,10,3375000.000000001, 8, 8,10,30
1360,5019840.0,4980.0, 8, 5, 1,10,4980.000000000001, 8, 5, 9,40
1388,0.0,0.0, 8, 5, 1,10,0.0, 8, 5, 1,10
1,ANNUAL,  47.45,-122.30,  -8.00, 137.00
5,365
1038,53.33333333333326,0.0, 1, 1, 1,10,0.16666666666666666, 1, 1, 6,10
1039,282.99999999999994,0.0, 1, 1, 1,10,0.16666666666666666, 2,17,17,20
581,0.23522438229114914,0.0, 7, 1,21,53,1.1651178011316266,12,14, 1,60
582,3.591230973366284,0.0, 1, 1, 1,10,27.07370049833942,12,14, 1,60
583,4.426867936960122,0.0, 7, 1,23, 3,34.256295525137915,12,14, 1,60
1115,16080281707.969118,0.0, 1, 1,12,23,3022933.955501281, 2, 7, 6,30
1128,4428446496.491389,0.0, 1, 1,12,23,745157.1263534878, 2, 7, 6,30
1153,178229844.23843157,0.0, 1, 1,12,23,82333.49980359523, 2, 5,14,60
1154,2018870781.6931539,0.0, 1, 1, 6, 2,120000.0, 1, 1,14,10
1156,125653959.55172217,0.0, 1, 1, 1,10,1662311.0363959395,12,31, 6,30
13,32635454554.289993,106115.4183601288, 3, 1, 4,10,3280221.5474663405,12,31, 6,10
61,15743207428.39043,58759.40635443481, 1, 1, 1,10,854682.2742463244, 1, 1,20,10
134,3685071073.433083,42376.01200569399, 1, 2, 4,10,104369.48322671017, 1, 1,20,10
170,273393721.45534325,232.27731661587313, 1, 2, 4,10,11650.931360040839, 1, 1,12,10
207,339560869.06955314,543.5021409221355, 1, 2, 3,10,15327.095199349082, 1, 1,10,10
244,664895467.8009839,1014.5707620042115, 1, 2, 4,10,35359.08742820678, 1, 1,20,10
281,2407221015.1057043,39959.06841621388, 1, 1, 5,10,54634.54471212738, 1, 1,19,10
318,0.0,0.0, 1, 1, 1,10,0.0, 1, 1, 1,10
355,35755758297.665504,12374.216038804521, 1, 2, 4,10,3829218.154066983, 2, 7,18,60
403,10310294493.052883,12374.216038804521, 1, 2, 4,10,483183.26346918393, 1, 1,18,10
476,5569688622.065564,4732.048419519677, 1, 2, 4,10,237357.535085481, 1, 1,12,10
513,0.0,0.0, 1, 1, 1,10,0.0, 1, 1, 1,10
562,1089119815.700576,0.0, 1, 1,12,30,75878.42964599053, 1, 1, 6,20
1046,0.0,0.0, 1, 1, 1,10,0.0, 1, 1, 1,10
1096,5105106354.796658,0.0, 1, 1, 1,10,786242.7513870471, 8, 1,17,60
1134,6751201081.974675,0.0, 1,13,23,10,2786045.798443976,12,31, 6,10
1323,25445463804.616615,0.0, 1, 1, 1,10,3375000.000000002, 2, 5,10,30
1360,261748800.0,4979.999999999999, 3,14,24,50,4980.000000000002, 1,16, 9,40
1388,0.0,0.0, 1, 1, 1,10,0.0, 1, 1, 1,10
End of Data
 Number of Records Written=          87
