Program Version,EnergyPlus, Version 22.2.0-c249759bad, YMD=2023.09.01 14:31
1,5,Environment Title[],Latitude[deg],Longitude[deg],Time Zone[],Elevation[m]
2,8,Day of Simulation[],Month[],Day of Month[],DST Indicator[1=yes 0=no],Hour[],StartMinute[],EndMinute[],DayType
3,5,Cumulative Day of Simulation[],Month[],Day of Month[],DST Indicator[1=yes 0=no],DayType  ! When Daily Report Variables Requested
4,2,Cumulative Days of Simulation[],Month[]  ! When Monthly Report Variables Requested
5,1,Cumulative Days of Simulation[] ! When Run Period Report Variables Requested
6,1,Calendar Year of Simulation[] ! When Annual Report Variables Requested
7,1,Environment,Site Outdoor Air Drybulb Temperature [C] !Hourly
619,1,DX_HEATING_COIL,Heating Coil Heating Rate [W] !Hourly
633,1,DX_HEATING_COIL,Heating Coil Electricity Rate [W] !Hourly
659,1,DX_HEATING_COIL,Heating Coil Defrost Electricity Rate [W] !Hourly
661,1,DX_HEATING_COIL,Heating Coil Crankcase Heater Electricity Rate [W] !Hourly
690,1,FAN,Fan Electricity Rate [W] !Hourly
716,1,HEAT PUMP WATER HEATER FAN,Fan Electricity Rate [W] !Hourly
718,1,LIVING,Zone Mean Air Temperature [C] !Hourly
719,1,ATTIC,Zone Mean Air Temperature [C] !Hourly
720,1,CRAWLSPACE,Zone Mean Air Temperature [C] !Hourly
843,1,LIVING,Zone Predicted Sensible Load to Heating Setpoint Heat Transfer Rate [W] !Hourly
844,1,LIVING,Zone System Predicted Sensible Load to Heating Setpoint Heat Transfer Rate [W] !Hourly
907,1,ATTIC,Zone Predicted Sensible Load to Heating Setpoint Heat Transfer Rate [W] !Hourly
908,1,ATTIC,Zone System Predicted Sensible Load to Heating Setpoint Heat Transfer Rate [W] !Hourly
971,1,CRAWLSPACE,Zone Predicted Sensible Load to Heating Setpoint Heat Transfer Rate [W] !Hourly
972,1,CRAWLSPACE,Zone System Predicted Sensible Load to Heating Setpoint Heat Transfer Rate [W] !Hourly
1195,1,HEATING_RESISTANCE_BACKUP,Heating Coil Heating Rate [W] !Hourly
1197,1,HEATING_RESISTANCE_BACKUP,Heating Coil Electricity Rate [W] !Hourly
End of Data Dictionary
1,EXTREME_WINTER,  37.04,-113.51,  -7.00, 879.00
2,1,12,22, 0, 1, 0.00,60.00,Monday
7,2.0
718,18.36014433267502
719,2.3840174659508078
720,19.41468965031264
619,677.6409327759113
633,216.05599395629147
659,1.9741356867686963
661,178.1800003936579
690,21.915641965003786
716,0.0
843,530.7867157849369
844,530.7867157849369
907,0.0
908,0.0
971,0.0
972,0.0
1195,0.0
1197,0.0
2,1,12,22, 0, 2, 0.00,60.00,Monday
7,0.0
718,18.381526999109465
719,0.8643932536347796
720,19.096382274695237
619,1392.9918735775059
633,452.00132157183197
659,11.152261102372302
661,152.3081762223885
690,47.779116081061574
716,0.0
843,1094.2946695722694
844,1094.2946695722694
907,0.0
908,0.0
971,0.0
972,0.0
1195,0.0
1197,0.0
2,1,12,22, 0, 3, 0.00,60.00,Monday
7,1.0
718,18.57297178525853
719,0.7182855472466341
720,18.94528166343781
619,1936.003865076636
633,610.8097288669734
659,10.669234066297303
661,136.7398629611876
690,63.46330680184557
716,0.0
843,1500.8423871792966
844,1500.8423871792966
907,0.0
908,0.0
971,0.0
972,0.0
1195,0.0
1197,0.0
2,1,12,22, 0, 4, 0.00,60.00,Monday
7,1.0
718,18.657168127338647
719,-0.38351857481987484
720,18.780672109017413
619,2087.8573720788627
633,659.8982800266468
659,11.484690257575533
661,131.90485136720994
690,68.31372069861155
716,0.0
843,1609.9093165197319
844,1609.9093165197319
907,0.0
908,0.0
971,0.0
972,0.0
1195,0.0
1197,0.0
2,1,12,22, 0, 5, 0.00,60.00,Monday
7,1.0
718,18.64103143807263
719,-1.2803093537505588
720,18.634952070418947
619,2058.216928840518
633,652.1314306833997
659,11.331855280346522
661,132.811042153142
690,67.40456798807189
716,0.0
843,1550.8278582069615
844,1550.8278582069615
907,0.0
908,0.0
971,0.0
972,0.0
1195,0.0
1197,0.0
2,1,12,22, 0, 6, 0.00,60.00,Monday
7,1.0
718,19.33452190379172
719,0.25176178886250516
720,18.45784358439285
619,3336.4877001025634
633,1033.0384868528768
659,29.394630631288695
661,91.87215084783134
690,108.33259545272874
716,0.0
843,2516.364022460164
844,2516.364022460164
907,0.0
908,0.0
971,0.0
972,0.0
1195,0.0
1197,0.0
2,1,12,22, 0, 7, 0.00,60.00,Monday
7,1.0
718,19.54671821042804
719,0.8234043475733411
720,18.325357298147694
619,4573.120343109065
633,1408.499066981831
659,39.54186737976768
661,54.545643901253804
690,145.72814372366292
716,85.44000000000005
843,2469.9218581351633
844,2469.9218581351633
907,0.0
908,0.0
971,0.0
972,0.0
1195,0.0
1197,0.0
2,1,12,22, 0, 8, 0.00,60.00,Monday
7,1.0
718,19.642434950069337
719,1.3336464716782346
720,18.212246253153193
619,4201.787258201964
633,1309.2475230788227
659,36.60366687267713
661,65.3537845169532
690,134.89918868623388
716,63.31592498974152
843,2404.709194215022
844,2404.709194215022
907,0.0
908,0.0
971,0.0
972,0.0
1195,0.0
1197,0.0
2,1,12,22, 0, 9, 0.00,60.00,Monday
7,2.0
718,19.80225842599789
719,1.4804897251905056
720,18.12136666885048
619,2888.6603650101915
633,908.0379739830458
659,18.626065822596264
661,108.56317998191716
690,91.73085935041033
716,0.0
843,2200.2427500321974
844,2200.2427500321974
907,0.0
908,0.0
971,0.0
972,0.0
1195,0.0
1197,0.0
2,1,12,22, 0,10, 0.00,60.00,Monday
7,3.0
718,19.79098935958129
719,2.1782053075835615
720,18.01771483552261
619,2420.5598786564688
633,757.5911926167968
659,18.365775755595713
661,124.22069590720561
690,76.03191592180934
716,0.0
843,1848.8128692285463
844,1848.8128692285463
907,0.0
908,0.0
971,0.0
972,0.0
1195,0.0
1197,0.0
2,1,12,22, 0,11, 0.00,60.00,Monday
7,4.0
718,19.715779381785712
719,3.7408717601231687
720,17.917361090533785
619,2158.634203875853
633,667.5824811933464
659,10.26067205382783
661,134.66299928915254
690,65.6215273715591
716,0.0
843,1666.1268420670476
844,1666.1268420670476
907,0.0
908,0.0
971,0.0
972,0.0
1195,0.0
1197,0.0
2,1,12,22, 0,12, 0.00,60.00,Monday
7,4.0
718,19.793254418091966
719,5.933752868009156
720,17.8231194230102
619,1855.5378982319382
633,575.6861991940945
659,8.86159419499678
661,143.57192363420785
690,56.67382567583957
716,0.0
843,1440.7701949516377
844,1440.7701949516377
907,0.0
908,0.0
971,0.0
972,0.0
1195,0.0
1197,0.0
2,1,12,22, 0,13, 0.00,60.00,Monday
7,6.0
718,19.790784395563335
719,7.492455764882737
720,17.746253546664306
619,1493.0507199173096
633,416.64747679907754
659,0.0
661,162.72315557568803
690,37.473786457781195
716,0.0
843,1204.4693591005944
844,1204.4693591005944
907,0.0
908,0.0
971,0.0
972,0.0
1195,0.0
1197,0.0
2,1,12,22, 0,14, 0.00,60.00,Monday
7,6.0
718,19.73771975026998
719,10.346974036573807
720,17.670139862259614
619,2227.1740350246273
633,615.1713972272638
659,0.0
661,144.95157997883243
690,55.33925332386971
716,73.30979591935218
843,934.6571895029228
844,934.6571895029228
907,0.0
908,0.0
971,0.0
972,0.0
1195,0.0
1197,0.0
2,1,12,22, 0,15, 0.00,60.00,Monday
7,7.0
718,19.773370084361563
719,10.613262562375064
720,17.611856698106884
619,1008.0278202312943
633,278.784540214166
659,0.0
661,175.2920162305724
690,24.83852165807204
716,0.0
843,837.0606080225152
844,837.0606080225152
907,0.0
908,0.0
971,0.0
972,0.0
1195,0.0
1197,0.0
2,1,12,22, 0,16, 0.00,60.00,Monday
7,7.0
718,19.72814613549495
719,10.013907535659142
720,17.559194919487453
619,965.449214667818
633,267.36831638709197
659,0.0
661,176.3186772375397
690,23.806436567883118
716,0.0
843,796.4703820118248
844,796.4703820118248
907,0.0
908,0.0
971,0.0
972,0.0
1195,0.0
1197,0.0
2,1,12,22, 0,17, 0.00,60.00,Monday
7,7.0
718,19.727457479901094
719,7.927192940904414
720,17.51187108269547
619,831.460443319067
633,230.42928698083213
659,0.0
661,179.57245418767704
690,20.535469175289833
716,0.0
843,689.876588546198
844,689.876588546198
907,0.0
908,0.0
971,0.0
972,0.0
1195,0.0
1197,0.0
2,1,12,22, 0,18, 0.00,60.00,Monday
7,6.0
718,19.720384637828264
719,5.629153227108001
720,17.466360015687613
619,621.3502732420475
633,175.1860176470432
659,0.0
661,184.30404124017906
690,15.778884073997805
716,0.0
843,498.1508434337884
844,498.1508434337884
907,0.0
908,0.0
971,0.0
972,0.0
1195,0.0
1197,0.0
2,1,12,22, 0,19, 0.00,60.00,Monday
7,6.0
718,19.701371547972226
719,5.063610808435305
720,17.420311940511247
619,1664.1866559429932
633,462.34977412213703
659,0.0
661,158.56390334653832
690,41.655012960890254
716,85.44000000000005
843,276.3137816667877
844,276.3137816667877
907,0.0
908,0.0
971,0.0
972,0.0
1195,0.0
1197,0.0
2,1,12,22, 0,20, 0.00,60.00,Monday
7,6.0
718,19.715915455459005
719,4.867336994568753
720,17.37474012575975
619,1541.8573756518053
633,428.8782315891894
659,0.0
661,161.54873292417122
690,38.65441385083968
716,85.44000000000005
843,177.81152542704876
844,177.81152542704876
907,0.0
908,0.0
971,0.0
972,0.0
1195,0.0
1197,0.0
2,1,12,22, 0,21, 0.00,60.00,Monday
7,6.0
718,19.71914271394826
719,4.830378586531785
720,17.32791075101393
619,325.45852478530713
633,92.10530273673925
659,0.0
661,191.74522338634597
690,8.298388472898932
716,7.697139685333239
843,162.75543748112614
844,162.75543748112614
907,0.0
908,0.0
971,0.0
972,0.0
1195,0.0
1197,0.0
2,1,12,22, 0,22, 0.00,60.00,Monday
7,6.0
718,19.64213755345012
719,5.111235394209613
720,17.279002518285036
619,440.52766933293907
633,124.47158585396947
659,0.0
661,188.84454826374886
690,11.214388520818986
716,0.0
843,338.8076993892337
844,338.8076993892337
907,0.0
908,0.0
971,0.0
972,0.0
1195,0.0
1197,0.0
2,1,12,22, 0,23, 0.00,60.00,Monday
7,7.0
718,18.902946438899423
719,5.460889060054662
720,17.229703237249606
619,0.0
633,0.0
659,0.0
661,200.0
690,0.0
716,0.0
843,-144.33017894237855
844,-144.33017894237855
907,0.0
908,0.0
971,0.0
972,0.0
1195,0.0
1197,0.0
2,1,12,22, 0,24, 0.00,60.00,Monday
7,5.0
718,18.63282288829403
719,4.773825548593195
720,17.176521613821578
619,262.92045628839566
633,80.86384299669834
659,1.5713881437826969
661,191.97943439850457
690,8.056685331383106
716,0.0
843,197.6965614251585
844,197.6965614251585
907,0.0
908,0.0
971,0.0
972,0.0
1195,0.0
1197,0.0
2,2,12,23, 0, 1, 0.00,60.00,Tuesday
7,5.0
718,18.609774461596956
719,4.359243107772839
720,17.118105016391535
619,647.2642661888335
633,196.57581711387618
659,6.068531997214039
661,180.08158568945544
690,19.999141601213697
716,0.0
843,518.2073416182538
844,518.2073416182538
907,0.0
908,0.0
971,0.0
972,0.0
1195,0.0
1197,0.0
2,2,12,23, 0, 2, 0.00,60.00,Tuesday
7,5.0
718,18.61481690127384
719,4.135461446094291
720,17.0587422562651
619,985.588717252744
633,297.37686301652906
659,5.8122449037325294
661,170.3335603448521
690,29.800070348626562
716,0.0
843,773.8730477991503
844,773.8730477991503
907,0.0
908,0.0
971,0.0
972,0.0
1195,0.0
1197,0.0
2,2,12,23, 0, 3, 0.00,60.00,Tuesday
7,5.0
718,18.60760642665857
719,4.044780275535783
720,16.999600706938267
619,1187.3754842474914
633,357.12214789329704
659,11.03032058855245
661,163.79577539316247
690,36.350961823079416
716,0.0
843,944.3826770061587
844,944.3826770061587
907,0.0
908,0.0
971,0.0
972,0.0
1195,0.0
1197,0.0
2,2,12,23, 0, 4, 0.00,60.00,Tuesday
7,6.0
718,18.66901372679882
719,4.097992366364935
720,16.945074053911476
619,1291.588025579661
633,351.30918951487456
659,0.0
661,167.83389828992125
690,32.33604252930295
716,0.0
843,1027.7995923888811
844,1027.7995923888811
907,0.0
908,0.0
971,0.0
972,0.0
1195,0.0
1197,0.0
2,2,12,23, 0, 5, 0.00,60.00,Tuesday
7,5.0
718,18.57248172112143
719,4.118130859889783
720,16.886718792275964
619,1256.8444894358163
633,378.05755973643755
659,17.02569389790131
661,160.94374439232578
690,39.19250293017103
716,0.0
843,996.3749618819656
844,996.3749618819656
907,0.0
908,0.0
971,0.0
972,0.0
1195,0.0
1197,0.0
2,2,12,23, 0, 6, 0.00,60.00,Tuesday
7,4.0
718,19.42823517828603
719,4.560350680572226
720,16.82105959777578
619,2424.4365756501043
633,724.2249079355068
659,63.766403860742024
661,119.87847561780909
690,80.13317018288102
716,0.0
843,1900.567680815151
844,1900.567680815151
907,0.0
908,0.0
971,0.0
972,0.0
1195,0.0
1197,0.0
2,2,12,23, 0, 7, 0.00,60.00,Tuesday
7,4.0
718,19.47236485785612
719,5.6024804473786
720,16.7872863099454
619,3869.2743117674154
633,1148.8841921075305
659,99.52196665100075
661,74.95215043009705
690,125.06355804842006
716,85.44000000000005
843,1966.3583738047382
844,1966.3583738047382
907,0.0
908,0.0
971,0.0
972,0.0
1195,0.0
1197,0.0
2,2,12,23, 0, 8, 0.00,60.00,Tuesday
7,4.0
718,19.656796304778485
719,5.845809079143873
720,16.737513301378115
619,3737.5354321849436
633,1113.5251426756204
659,96.3773320947556
661,78.9033363056799
690,121.11175077757574
716,85.44000000000005
843,1851.1327615275313
844,1851.1327615275313
907,0.0
908,0.0
971,0.0
972,0.0
1195,0.0
1197,0.0
2,2,12,23, 0, 9, 0.00,60.00,Tuesday
7,4.0
718,19.701930496477658
719,5.6573274771934745
720,16.694010376326542
619,3106.267386601838
633,940.1346012669673
659,81.07664801915071
661,98.12841499923495
690,101.88382731006942
716,51.54622826973456
843,1778.7975200221572
844,1778.7975200221572
907,0.0
908,0.0
971,0.0
972,0.0
1195,0.0
1197,0.0
2,2,12,23, 0,10, 0.00,60.00,Tuesday
7,4.0
718,19.74189333131644
719,5.596301019033267
720,16.643904814174036
619,2290.558714704188
633,704.422589912953
659,60.691753597776184
661,123.74172728476707
690,76.26734901451371
716,0.0
843,1797.9620514143026
844,1797.9620514143026
907,0.0
908,0.0
971,0.0
972,0.0
1195,0.0
1197,0.0
2,2,12,23, 0,11, 0.00,60.00,Tuesday
7,5.0
718,19.780901276853253
719,5.8848961914423095
720,16.59967865304045
619,2090.9774996849164
633,635.3443704460507
659,58.11686096015413
661,131.38085655426977
690,68.72571162643456
716,0.0
843,1643.2229874700097
844,1643.2229874700097
907,0.0
908,0.0
971,0.0
972,0.0
1195,0.0
1197,0.0
2,2,12,23, 0,12, 0.00,60.00,Tuesday
7,6.0
718,19.83267826025558
719,8.496906235961658
720,16.546685713021084
619,1226.7309855651297
633,343.0683965285998
659,0.0
661,169.26855788723847
690,30.893803299567935
716,0.0
843,975.2666374122018
844,975.2666374122018
907,0.0
908,0.0
971,0.0
972,0.0
1195,0.0
1197,0.0
2,2,12,23, 0,13, 0.00,60.00,Tuesday
7,6.0
718,19.75412840731913
719,10.55681860144181
720,16.509397700698432
619,1031.0371474666583
633,289.4622417977729
659,0.0
661,174.095415717655
690,26.041444083208766
716,0.0
843,842.8744447993668
844,842.8744447993668
907,0.0
908,0.0
971,0.0
972,0.0
1195,0.0
1197,0.0
2,2,12,23, 0,14, 0.00,60.00,Tuesday
7,6.0
718,19.713967003662187
719,10.036646534775555
720,16.480384145470854
619,1133.6033717068262
633,317.20612966836404
659,0.0
661,171.56883263687465
690,28.581375676110817
716,0.0
843,932.8972574720628
844,932.8972574720628
907,0.0
908,0.0
971,0.0
972,0.0
1195,0.0
1197,0.0
2,2,12,23, 0,15, 0.00,60.00,Tuesday
7,6.0
718,19.724279693269335
719,9.65510261613639
720,16.455319734916355
619,1156.3036971962852
633,323.1420474136082
659,0.0
661,171.01385154329668
690,29.13928886082457
716,0.0
843,956.1195590636125
844,956.1195590636125
907,0.0
908,0.0
971,0.0
972,0.0
1195,0.0
1197,0.0
2,2,12,23, 0,16, 0.00,60.00,Tuesday
7,6.0
718,19.709828481316393
719,9.146779523143826
720,16.430713010104558
619,1098.407117519972
633,307.2752452755074
659,0.0
661,172.44206553371419
690,27.703529291594098
716,0.0
843,897.8027027580811
844,897.8027027580811
907,0.0
908,0.0
971,0.0
972,0.0
1195,0.0
1197,0.0
2,2,12,23, 0,17, 0.00,60.00,Tuesday
7,6.0
718,19.621724657233386
719,8.39305499198948
720,16.405384179093545
619,918.8739960117044
633,257.60008882495634
659,0.0
661,176.89062654741238
690,23.231465519935018
716,0.0
843,754.9396744065398
844,754.9396744065398
907,0.0
908,0.0
971,0.0
972,0.0
1195,0.0
1197,0.0
2,2,12,23, 0,18, 0.00,60.00,Tuesday
7,5.0
718,19.689997850479156
719,7.918166622381239
720,16.39150307605067
619,1907.8270620128837
633,579.7686596327211
659,62.898489840634035
661,135.83657463877455
690,64.21961846648558
716,63.92341730136717
843,691.2730849099607
844,691.2730849099607
907,0.0
908,0.0
971,0.0
972,0.0
1195,0.0
1197,0.0
2,2,12,23, 0,19, 0.00,60.00,Tuesday
7,5.0
718,19.811378907318403
719,6.628370372122684
720,16.357303232646316
619,603.488658405039
633,188.19124919997392
659,17.23206110768443
661,179.6539377131106
690,20.377678750985467
716,0.0
843,482.48602264412875
844,482.48602264412875
907,0.0
908,0.0
971,0.0
972,0.0
1195,0.0
1197,0.0
2,2,12,23, 0,20, 0.00,60.00,Tuesday
7,5.0
718,19.66651150880606
719,6.840844566971544
720,16.346563150630573
619,1842.981174470802
633,563.2812297381574
659,51.46748947462365
661,139.2318341922808
690,60.862481630567395
716,85.44000000000005
843,300.95588272039276
844,300.95588272039276
907,0.0
908,0.0
971,0.0
972,0.0
1195,0.0
1197,0.0
2,2,12,23, 0,21, 0.00,60.00,Tuesday
7,5.0
718,19.703662704674706
719,6.520612058232018
720,16.315740165924105
619,1894.8615719652387
633,576.5415867647407
659,62.497601493973455
661,136.24552514894282
690,63.810256307554056
716,85.44000000000005
843,374.66275603087524
844,374.66275603087524
907,0.0
908,0.0
971,0.0
972,0.0
1195,0.0
1197,0.0
2,2,12,23, 0,22, 0.00,60.00,Tuesday
7,5.0
718,19.81830628221653
719,5.881384213835083
720,16.276614750649472
619,689.9711528198534
633,214.94753834751273
659,23.280696452363216
661,176.251111386564
690,23.76964663929242
716,4.762328068480705
843,485.3480093788203
844,485.3480093788203
907,0.0
908,0.0
971,0.0
972,0.0
1195,0.0
1197,0.0
2,2,12,23, 0,23, 0.00,60.00,Tuesday
7,5.0
718,18.92987266463623
719,5.116749440010425
720,16.239108119879514
619,0.0
633,0.0
659,0.0
661,200.0
690,0.0
716,0.0
843,-195.52685160204783
844,-195.52685160204783
907,0.0
908,0.0
971,0.0
972,0.0
1195,0.0
1197,0.0
2,2,12,23, 0,24, 0.00,60.00,Tuesday
7,6.0
718,18.637908021809707
719,4.7630963831186905
720,16.20444128468568
619,140.89023978496354
633,39.20302526854198
659,0.0
661,196.43044794640986
690,3.5884108076200345
716,0.0
843,100.1426827732812
844,100.1426827732812
907,0.0
908,0.0
971,0.0
972,0.0
1195,0.0
1197,0.0
2,3,12,24, 0, 1, 0.00,60.00,Wednesday
7,5.0
718,18.42288884887202
719,5.212239418939513
720,16.164912378900528
619,604.2590902252854
633,183.85030724739713
659,20.324657819500295
661,179.266598160017
690,20.75196007399818
716,0.0
843,478.4238173869744
844,478.4238173869744
907,0.0
908,0.0
971,0.0
972,0.0
1195,0.0
1197,0.0
2,3,12,24, 0, 2, 0.00,60.00,Wednesday
7,5.0
718,18.65240003404717
719,5.304401193233386
720,16.122976709672905
619,1115.2169070587322
633,334.34682135156964
659,37.11716060194677
661,162.1363856280524
690,37.89766709049621
716,0.0
843,876.2385239459181
844,876.2385239459181
907,0.0
908,0.0
971,0.0
972,0.0
1195,0.0
1197,0.0
2,3,12,24, 0, 3, 0.00,60.00,Wednesday
7,5.0
718,18.546077865506575
719,5.596669318068114
720,16.082350381842385
619,1323.5777404643359
633,397.3700088014591
659,43.92430879619636
661,155.19234060898793
690,44.84776106394388
716,0.0
843,1050.3028976821388
844,1050.3028976821388
907,0.0
908,0.0
971,0.0
972,0.0
1195,0.0
1197,0.0
2,3,12,24, 0, 4, 0.00,60.00,Wednesday
7,5.0
718,18.67062751553829
719,5.379891211436554
720,16.039638003797602
619,1489.5151224383458
633,444.6529647842295
659,41.631737886149935
661,150.845001834091
690,49.23233168519483
716,0.0
843,1178.36444858888
844,1178.36444858888
907,0.0
908,0.0
971,0.0
972,0.0
1195,0.0
1197,0.0
2,3,12,24, 0, 5, 0.00,60.00,Wednesday
7,5.0
718,18.621097769481302
719,5.052976150426766
720,15.999322962222557
619,1382.9981434665247
633,414.8500685840294
659,38.750246526034424
661,154.24720673144364
690,45.82468156273878
716,0.0
843,1098.8985638868253
844,1098.8985638868253
907,0.0
908,0.0
971,0.0
972,0.0
1195,0.0
1197,0.0
2,3,12,24, 0, 6, 0.00,60.00,Wednesday
7,5.0
718,19.263674144528476
719,6.122299635740573
720,15.964331735989617
619,3413.3714488870937
633,985.9335374841057
659,92.20704040297278
661,91.13024985200349
690,109.04092518439836
716,62.92585758981501
843,1943.6695566581511
844,1943.6695566581511
907,0.0
908,0.0
971,0.0
972,0.0
1195,0.0
1197,0.0
2,3,12,24, 0, 7, 0.00,60.00,Wednesday
7,5.0
718,19.527714529952878
719,6.485934300130883
720,15.948972566923112
619,3762.413308934073
633,1095.4017060924243
659,119.73047728837886
661,77.86165355604733
690,122.24625305259227
716,85.44000000000005
843,1891.968438231017
844,1891.968438231017
907,0.0
908,0.0
971,0.0
972,0.0
1195,0.0
1197,0.0
2,3,12,24, 0, 8, 0.00,60.00,Wednesday
7,5.0
718,19.713732866994853
719,6.083946226175864
720,15.906638775327322
619,2591.278529599556
633,775.7639166740921
659,71.30101643463192
661,115.8141958508593
690,84.31689927292621
716,30.5599053101097
843,1653.660370361562
844,1653.660370361562
907,0.0
908,0.0
971,0.0
972,0.0
1195,0.0
1197,0.0
2,3,12,24, 0, 9, 0.00,60.00,Wednesday
7,6.0
718,19.797677507640145
719,6.394887122060578
720,15.865715341145583
619,1734.9864461216446
633,480.7016460063187
659,0.0
661,156.8570872358725
690,43.37084656863193
716,0.0
843,1384.8447437544073
844,1384.8447437544073
907,0.0
908,0.0
971,0.0
972,0.0
1195,0.0
1197,0.0
2,3,12,24, 0,10, 0.00,60.00,Wednesday
7,6.0
718,19.73825895516976
719,8.608162609378748
720,15.833109099490603
619,1232.4468626784617
633,344.51077993228375
659,0.0
661,169.12995516756274
690,31.033138288883972
716,0.0
843,991.535039281478
844,991.535039281478
907,0.0
908,0.0
971,0.0
972,0.0
1195,0.0
1197,0.0
2,3,12,24, 0,11, 0.00,60.00,Wednesday
7,8.0
718,19.720166506044745
719,10.33383817026017
720,15.805813168659505
619,750.5816143261783
633,205.11639339442416
659,0.0
661,181.9937963392818
690,18.10133452328904
716,0.0
843,605.4721088460774
844,605.4721088460774
907,0.0
908,0.0
971,0.0
972,0.0
1195,0.0
1197,0.0
2,3,12,24, 0,12, 0.00,60.00,Wednesday
7,8.0
718,19.601861131318255
719,10.911349767429956
720,15.794177346411654
619,704.3584917031114
633,192.51690630461457
659,0.0
661,183.09375379175904
690,16.99556574582527
716,0.0
843,582.9144307514398
844,582.9144307514398
907,0.0
908,0.0
971,0.0
972,0.0
1195,0.0
1197,0.0
2,3,12,24, 0,13, 0.00,60.00,Wednesday
7,8.0
718,19.72379437697853
719,11.486485584022923
720,15.792007437125362
619,709.9076968673854
633,193.49692374813898
659,0.0
661,182.97034627751611
690,17.11962524998785
716,0.0
843,582.8521580814322
844,582.8521580814322
907,0.0
908,0.0
971,0.0
972,0.0
1195,0.0
1197,0.0
2,3,12,24, 0,14, 0.00,60.00,Wednesday
7,8.0
718,19.524128618540882
719,11.3919788442213
720,15.793852022286707
619,523.2962512131776
633,143.38230120284052
659,0.0
661,187.40939460010378
690,12.657124427146492
716,0.0
843,435.8034156347985
844,435.8034156347985
907,0.0
908,0.0
971,0.0
972,0.0
1195,0.0
1197,0.0
2,3,12,24, 0,15, 0.00,60.00,Wednesday
7,8.0
718,19.728263411983306
719,11.62835680797081
720,15.819797339037265
619,1609.3358655157667
633,432.7004164995671
659,0.0
661,161.86018931975443
690,38.34131196039685
716,61.500755044284034
843,554.7404288858424
844,554.7404288858424
907,0.0
908,0.0
971,0.0
972,0.0
1195,0.0
1197,0.0
2,3,12,24, 0,16, 0.00,60.00,Wednesday
7,9.0
718,19.886751115710354
719,12.366470485027977
720,15.836176590778956
619,1473.997979829837
633,393.8677376745447
659,0.0
661,165.81107796362772
690,34.36954987469789
716,64.34022920338036
843,403.7628754116231
844,403.7628754116231
907,0.0
908,0.0
971,0.0
972,0.0
1195,0.0
1197,0.0
2,3,12,24, 0,17, 0.00,60.00,Wednesday
7,9.0
718,19.758034357435935
719,11.560802039427744
720,15.832928480205974
619,100.31323020436888
633,27.38432338410942
659,0.0
661,197.63012191798825
690,2.3823986860423076
716,0.0
843,82.9596087011032
844,82.9596087011032
907,0.0
908,0.0
971,0.0
972,0.0
1195,0.0
1197,0.0
2,3,12,24, 0,18, 0.00,60.00,Wednesday
7,8.0
718,19.629394733861705
719,10.276842633579403
720,15.852277109536521
619,67.26077325764285
633,18.557684780969915
659,0.0
661,198.37159746605715
690,1.6370057542876486
716,0.0
843,48.446128528804365
844,48.446128528804365
907,0.0
908,0.0
971,0.0
972,0.0
1195,0.0
1197,0.0
2,3,12,24, 0,19, 0.00,60.00,Wednesday
7,7.0
718,19.94327806145792
719,8.87608993971784
720,15.865850566137798
619,33.794605120138286
633,9.430662819068731
659,0.0
661,199.1612986344499
690,0.8431324153064638
716,0.0
843,27.92122191292401
844,27.92122191292401
907,0.0
908,0.0
971,0.0
972,0.0
1195,0.0
1197,0.0
2,3,12,24, 0,20, 0.00,60.00,Wednesday
7,7.0
718,18.582030925806638
719,8.135705107307944
720,15.872144549710399
619,0.0
633,0.0
659,0.0
661,200.0
690,0.0
716,85.44000000000005
843,-179.13816775852683
844,-179.13816775852683
907,0.0
908,0.0
971,0.0
972,0.0
1195,0.0
1197,0.0
2,3,12,24, 0,21, 0.00,60.00,Wednesday
7,7.0
718,19.433557205522327
719,7.963252451253535
720,15.879227907054558
619,1086.7577499263648
633,291.86814031647395
659,0.0
661,173.52967508528468
690,26.610173651801425
716,60.21565590989662
843,167.82128817336525
844,167.82128817336525
907,0.0
908,0.0
971,0.0
972,0.0
1195,0.0
1197,0.0
2,3,12,24, 0,22, 0.00,60.00,Wednesday
7,8.0
718,19.727281069713335
719,7.721548145925943
720,15.864919785945718
619,75.77597691158294
633,20.75230339442193
659,0.0
661,198.16815992493494
690,1.8415181021337585
716,0.0
843,60.92851223156413
844,60.92851223156413
907,0.0
908,0.0
971,0.0
972,0.0
1195,0.0
1197,0.0
2,3,12,24, 0,23, 0.00,60.00,Wednesday
7,8.0
718,19.05455132075376
719,7.937217946247167
720,15.851008364170832
619,0.0
633,0.0
659,0.0
661,200.0
690,0.0
716,0.0
843,-401.9627935281387
844,-401.9627935281387
907,0.0
908,0.0
971,0.0
972,0.0
1195,0.0
1197,0.0
2,3,12,24, 0,24, 0.00,60.00,Wednesday
7,9.0
718,18.71569493245206
719,8.38864078655844
720,15.834791323871784
619,0.0
633,0.0
659,0.0
661,200.0
690,0.0
716,0.0
843,-53.255484796459314
844,-53.255484796459314
907,0.0
908,0.0
971,0.0
972,0.0
1195,0.0
1197,0.0
2,4,12,25, 0, 1, 0.00,60.00,Thursday
7,9.0
718,18.625279648400383
719,8.957785531210979
720,15.81694830334408
619,478.97838841819276
633,126.77366053542862
659,0.0
661,188.79399118606472
690,11.265212703024446
716,0.0
843,386.6103516383555
844,386.6103516383555
907,0.0
908,0.0
971,0.0
972,0.0
1195,0.0
1197,0.0
2,4,12,25, 0, 2, 0.00,60.00,Thursday
7,11.0
718,18.585897498049054
719,10.550583155908765
720,15.796429755904558
619,717.0818536526913
633,184.6600208822302
659,0.0
661,0.0
690,16.023060268789475
716,0.0
843,595.6467385634423
844,595.6467385634423
907,0.0
908,0.0
971,0.0
972,0.0
1195,0.0
1197,0.0
2,4,12,25, 0, 3, 0.00,60.00,Thursday
7,11.0
718,18.502990180263907
719,11.040788672800582
720,15.774052880239473
619,922.3206353694411
633,236.71130869927157
659,0.0
661,0.0
690,20.554161473261217
716,0.0
843,764.7688706999234
844,764.7688706999234
907,0.0
908,0.0
971,0.0
972,0.0
1195,0.0
1197,0.0
2,4,12,25, 0, 4, 0.00,60.00,Thursday
7,9.0
718,18.92556866462744
719,10.156770086993749
720,15.753943694585653
619,1173.1170687827741
633,306.28241150605004
659,0.0
661,172.8210719215227
690,27.322520526978604
716,0.0
843,986.5369479228011
844,986.5369479228011
907,0.0
908,0.0
971,0.0
972,0.0
1195,0.0
1197,0.0
2,4,12,25, 0, 5, 0.00,60.00,Thursday
7,8.0
718,18.68508498504582
719,9.13519307129006
720,15.732279692736537
619,801.756421807762
633,214.95618624067717
659,0.0
661,180.8447015424012
690,19.256500248904118
716,0.0
843,660.6147674513977
844,660.6147674513977
907,0.0
908,0.0
971,0.0
972,0.0
1195,0.0
1197,0.0
2,4,12,25, 0, 6, 0.00,60.00,Thursday
7,8.0
718,19.62675108986845
719,8.942679092741349
720,15.719707279222607
619,1641.0070341194146
633,432.785267837803
659,0.0
661,161.26031125331068
690,38.944359318878696
716,0.0
843,1362.1867827457845
844,1362.1867827457845
907,0.0
908,0.0
971,0.0
972,0.0
1195,0.0
1197,0.0
2,4,12,25, 0, 7, 0.00,60.00,Thursday
7,8.0
718,19.598453347974008
719,9.378636615193605
720,15.729376296873596
619,2843.6558949011055
633,754.0576902816279
659,0.0
661,133.64951384092763
690,66.70103084351774
716,85.44000000000005
843,1187.4836749857222
844,1187.4836749857222
907,0.0
908,0.0
971,0.0
972,0.0
1195,0.0
1197,0.0
2,4,12,25, 0, 8, 0.00,60.00,Thursday
7,7.0
718,19.544350072555204
719,8.933142452410618
720,15.704291817693932
619,2913.8883124207327
633,781.4635730540502
659,0.0
661,130.43458608502806
690,69.93294379275868
716,85.44000000000005
843,1265.6240251293475
844,1265.6240251293475
907,0.0
908,0.0
971,0.0
972,0.0
1195,0.0
1197,0.0
2,4,12,25, 0, 9, 0.00,60.00,Thursday
7,7.0
718,19.725844365103594
719,8.35670548815457
720,15.677223634912638
619,2218.798909947531
633,599.8223251651448
659,0.0
661,146.5526399441696
690,53.729734595186315
716,30.24516879824121
843,1436.5643988013908
844,1436.5643988013908
907,0.0
908,0.0
971,0.0
972,0.0
1195,0.0
1197,0.0
2,4,12,25, 0,10, 0.00,60.00,Thursday
7,7.0
718,19.821660273994617
719,8.082695977799071
720,15.653949283467725
619,1664.6115758989852
633,455.2477130272793
659,0.0
661,159.57412425177142
690,40.63945482922607
716,0.0
843,1350.5289568117914
844,1350.5289568117914
907,0.0
908,0.0
971,0.0
972,0.0
1195,0.0
1197,0.0
2,4,12,25, 0,11, 0.00,60.00,Thursday
7,6.0
718,19.477845687732138
719,7.621048935879783
720,15.629030699772596
619,1637.4459111762083
633,455.3010009342425
659,0.0
661,159.21121840335277
690,41.00427799164618
716,0.0
843,1330.1718318544026
844,1330.1718318544026
907,0.0
908,0.0
971,0.0
972,0.0
1195,0.0
1197,0.0
2,4,12,25, 0,12, 0.00,60.00,Thursday
7,6.0
718,19.877397143074887
719,7.63397259783065
720,15.606125389521285
619,1899.1558723035516
633,521.9647107556914
659,0.0
661,152.93124115441304
690,47.317433786373435
716,0.0
843,1535.8981176673897
844,1535.8981176673897
907,0.0
908,0.0
971,0.0
972,0.0
1195,0.0
1197,0.0
2,4,12,25, 0,13, 0.00,60.00,Thursday
7,6.0
718,19.862119766034464
719,8.641972683568474
720,15.578423237451588
619,1303.7764947580933
633,364.6683452500339
659,0.0
661,167.3657382579977
690,32.80667595697929
716,0.0
843,1055.734579522872
844,1055.734579522872
907,0.0
908,0.0
971,0.0
972,0.0
1195,0.0
1197,0.0
2,4,12,25, 0,14, 0.00,60.00,Thursday
7,7.0
718,19.890201250310145
719,10.3273132111475
720,15.55489491220198
619,1015.4491207532171
633,281.0180984659831
659,0.0
661,175.1091519317518
690,25.022352070505907
716,0.0
843,820.3151619778491
844,820.3151619778491
907,0.0
908,0.0
971,0.0
972,0.0
1195,0.0
1197,0.0
2,4,12,25, 0,15, 0.00,60.00,Thursday
7,6.0
718,19.50843520658598
719,9.58141488352583
720,15.535018464583773
619,883.4860235838353
633,248.622732857247
659,0.0
661,177.75593682560037
690,22.361583611063185
716,0.0
843,728.0025404967564
844,728.0025404967564
907,0.0
908,0.0
971,0.0
972,0.0
1195,0.0
1197,0.0
2,4,12,25, 0,16, 0.00,60.00,Thursday
7,6.0
718,19.877622738993352
719,10.21870696776492
720,15.525039973585553
619,1080.9164966350618
633,300.6477884861885
659,0.0
661,172.9046930789655
690,27.238457579973367
716,0.0
843,882.433167553685
844,882.433167553685
907,0.0
908,0.0
971,0.0
972,0.0
1195,0.0
1197,0.0
2,4,12,25, 0,17, 0.00,60.00,Thursday
7,6.0