Program Version,EnergyPlus, Version 22.2.0-c249759bad, YMD=2023.09.01 14:31
1,5,Environment Title[],Latitude[deg],Longitude[deg],Time Zone[],Elevation[m]
2,8,Day of Simulation[],Month[],Day of Month[],DST Indicator[1=yes 0=no],Hour[],StartMinute[],EndMinute[],DayType
3,5,Cumulative Day of Simulation[],Month[],Day of Month[],DST Indicator[1=yes 0=no],DayType  ! When Daily Report Variables Requested
4,2,Cumulative Days of Simulation[],Month[]  ! When Monthly Report Variables Requested
5,1,Cumulative Days of Simulation[] ! When Run Period Report Variables Requested
6,1,Calendar Year of Simulation[] ! When Annual Report Variables Requested
7,1,Environment,Site Outdoor Air Drybulb Temperature [C] !Hourly
545,1,LIVING,Zone Mean Air Temperature [C] !Hourly
546,1,ATTIC,Zone Mean Air Temperature [C] !Hourly
547,1,CRAWLSPACE,Zone Mean Air Temperature [C] !Hourly
548,1,FAN,Fan Electricity Rate [W] !Hourly
720,1,LIVING,Zone Predicted Sensible Load to Heating Setpoint Heat Transfer Rate [W] !Hourly
721,1,LIVING,Zone System Predicted Sensible Load to Heating Setpoint Heat Transfer Rate [W] !Hourly
784,1,ATTIC,Zone Predicted Sensible Load to Heating Setpoint Heat Transfer Rate [W] !Hourly
785,1,ATTIC,Zone System Predicted Sensible Load to Heating Setpoint Heat Transfer Rate [W] !Hourly
848,1,CRAWLSPACE,Zone Predicted Sensible Load to Heating Setpoint Heat Transfer Rate [W] !Hourly
849,1,CRAWLSPACE,Zone System Predicted Sensible Load to Heating Setpoint Heat Transfer Rate [W] !Hourly
1121,1,DX_HEATING_COIL,Heating Coil Heating Rate [W] !Hourly
1135,1,DX_HEATING_COIL,Heating Coil Electricity Rate [W] !Hourly
1161,1,DX_HEATING_COIL,Heating Coil Defrost Electricity Rate [W] !Hourly
1163,1,DX_HEATING_COIL,Heating Coil Crankcase Heater Electricity Rate [W] !Hourly
1166,1,HEATING_RESISTANCE_BACKUP,Heating Coil Heating Rate [W] !Hourly
1168,1,HEATING_RESISTANCE_BACKUP,Heating Coil Electricity Rate [W] !Hourly
End of Data Dictionary
1,EXTREME_WINTER,  30.48, -81.70,  -5.00,   7.90
2,1, 1,27, 0, 1, 0.00,60.00,Monday
7,6.1
545,21.215952361633967
546,5.084457993801563
547,20.427887556366578
548,0.0
720,-2040.059350305537
721,-2040.059350305537
784,0.0
785,0.0
848,0.0
849,0.0
1121,0.0
1135,0.0
1161,0.0
1163,200.0
1166,0.0
1168,0.0
2,1, 1,27, 0, 2, 0.00,60.00,Monday
7,6.1
545,20.520692207848374
546,5.309130764734623
547,20.252172893741278
548,0.0
720,-1566.709321691169
721,-1566.709321691169
784,0.0
785,0.0
848,0.0
849,0.0
1121,0.0
1135,0.0
1161,0.0
1163,200.0
1166,0.0
1168,0.0
2,1, 1,27, 0, 3, 0.00,60.00,Monday
7,4.4
545,19.856328749197658
546,4.459026907330975
547,20.119833523279905
548,0.0
720,-984.2542160681096
721,-984.2542160681096
784,0.0
785,0.0
848,0.0
849,0.0
1121,0.0
1135,0.0
1161,0.0
1163,200.0
1166,0.0
1168,0.0
2,1, 1,27, 0, 4, 0.00,60.00,Monday
7,4.4
545,19.081070385434426
546,4.132581981403078
547,19.981364587902476
548,0.0
720,-361.9389571000811
721,-361.9389571000811
784,0.0
785,0.0
848,0.0
849,0.0
1121,0.0
1135,0.0
1161,0.0
1163,200.0
1166,0.0
1168,0.0
2,1, 1,27, 0, 5, 0.00,60.00,Monday
7,4.4
545,18.60483557434233
546,3.9027663500355994
547,19.84571732654105
548,1.7635365063058273
720,45.89982454066376
721,45.89982454066376
784,0.0
785,0.0
848,0.0
849,0.0
1121,53.06825592478844
1135,16.685392846329794
1161,1.4135212511104427
1163,197.6066112261941
1166,0.0
1168,0.0
2,1, 1,27, 0, 6, 0.00,60.00,Monday
7,2.8
545,19.51229720041426
546,3.4970956483100664
547,19.649853786387308
548,48.55820301535213
720,1176.8259197492735
721,1176.8259197492735
784,0.0
785,0.0
848,0.0
849,0.0
1121,1448.5035908380094
1135,447.1297151700846
1161,40.64104983474279
1163,133.89707055032613
1166,0.0
1168,0.0
2,1, 1,27, 0, 7, 0.00,60.00,Monday
7,2.2
545,19.602693998880845
546,2.9052512491965676
547,19.54076423562918
548,52.1875947511984
720,1132.1221558200923
721,1132.1221558200923
784,0.0
785,0.0
848,0.0
849,0.0
1121,1509.0894746508993
1135,480.62546106891773
1161,48.41020161867715
1163,128.79917226319017
1166,0.0
1168,0.0
2,1, 1,27, 0, 8, 0.00,60.00,Monday
7,2.2
545,19.686770158246887
546,2.735424839091009
547,19.405167347626136
548,54.35272667521885
720,1151.436129701944
721,1151.436129701944
784,0.0
785,0.0
848,0.0
849,0.0
1121,1573.7046814414853
1135,501.4213277905474
1161,50.41882017825985
1163,125.84493329562036
1166,0.0
1168,0.0
2,1, 1,27, 0, 9, 0.00,60.00,Monday
7,6.1
545,19.938613335394475
546,5.222639003844662
547,19.322828903328872
548,18.27251874478267
720,507.9014474901287
721,507.9014474901287
784,0.0
785,0.0
848,0.0
849,0.0
1121,745.7726546400547
1135,208.87944324953347
1161,0.0
1163,175.30916963297628
1166,0.0
1168,0.0
2,1, 1,27, 0,10, 0.00,60.00,Monday
7,9.4
545,20.042699812582658
546,9.545748287499393
547,19.220836426344967
548,0.0
720,-417.7306695776697
721,-417.7306695776697
784,0.0
785,0.0
848,0.0
849,0.0
1121,0.0
1135,0.0
1161,0.0
1163,200.0
1166,0.0
1168,0.0
2,1, 1,27, 0,11, 0.00,60.00,Monday
7,9.4
545,20.847741952472955
546,12.452476424923722
547,19.145897903282783
548,0.0
720,-896.4922541452597
721,-896.4922541452597
784,0.0
785,0.0
848,0.0
849,0.0
1121,0.0
1135,0.0
1161,0.0
1163,200.0
1166,0.0
1168,0.0
2,1, 1,27, 0,12, 0.00,60.00,Monday
7,13.3
545,21.915171801738463
546,16.746900485824725
547,19.106298678877604
548,0.0
720,-1722.1637261315118
721,-1722.1637261315118
784,0.0
785,0.0
848,0.0
849,0.0
1121,0.0
1135,0.0
1161,0.0
1163,0.0
1166,0.0
1168,0.0
2,1, 1,27, 0,13, 0.00,60.00,Monday
7,15.0
545,23.123180503597066
546,21.18655052718499
547,19.098026990022092
548,0.0
720,-2362.6258452576167
721,-2362.6258452576167
784,0.0
785,0.0
848,0.0
849,0.0
1121,0.0
1135,0.0
1161,0.0
1163,0.0
1166,0.0
1168,0.0
2,1, 1,27, 0,14, 0.00,60.00,Monday
7,15.0
545,23.361936890873967
546,23.217106982573785
547,19.133042469502858
548,13.683116122335676
720,-3450.06567824348
721,-3450.06567824348
784,0.0
785,0.0
848,0.0
849,0.0
1121,0.0
1135,0.0
1161,0.0
1163,0.0
1166,0.0
1168,0.0
2,1, 1,27, 0,15, 0.00,60.00,Monday
7,16.7
545,23.116560347545658
546,22.138623382775332
547,19.200875420787884
548,32.178904619998214
720,-4118.347886062724
721,-4118.347886062724
784,0.0
785,0.0
848,0.0
849,0.0
1121,0.0
1135,0.0
1161,0.0
1163,0.0
1166,0.0
1168,0.0
2,1, 1,27, 0,16, 0.00,60.00,Monday
7,16.1
545,23.372043686330567
546,21.291700365529863
547,19.286985517721554
548,44.40564113892257
720,-5425.9736210921
721,-5425.9736210921
784,0.0
785,0.0
848,0.0
849,0.0
1121,0.0
1135,0.0
1161,0.0
1163,0.0
1166,0.0
1168,0.0
2,1, 1,27, 0,17, 0.00,60.00,Monday
7,16.1
545,23.344211398686728
546,19.85884433175628
547,19.39874461881071
548,56.60580886200949
720,-6024.747729663559
721,-6024.747729663559
784,0.0
785,0.0
848,0.0
849,0.0
1121,0.0
1135,0.0
1161,0.0
1163,0.0
1166,0.0
1168,0.0
2,1, 1,27, 0,18, 0.00,60.00,Monday
7,12.8
545,23.37682486800201
546,18.09094854721922
547,19.479626687863874
548,51.70430701709879
720,-5996.911640188173
721,-5996.911640188173
784,0.0
785,0.0
848,0.0
849,0.0
1121,0.0
1135,0.0
1161,0.0
1163,0.0
1166,0.0
1168,0.0
2,1, 1,27, 0,19, 0.00,60.00,Monday
7,10.6
545,23.34617150447761
546,15.325363336307989
547,19.544133985325253
548,33.226623641115296
720,-5072.6970892909485
721,-5072.6970892909485
784,0.0
785,0.0
848,0.0
849,0.0
1121,0.0
1135,0.0
1161,0.0
1163,0.0
1166,0.0
1168,0.0
2,1, 1,27, 0,20, 0.00,60.00,Monday
7,10.6
545,23.352500716308697
546,12.527504216378434
547,19.592596707507397
548,24.571314773911407
720,-4399.1920325493065
721,-4399.1920325493065
784,0.0
785,0.0
848,0.0
849,0.0
1121,0.0
1135,0.0
1161,0.0
1163,0.0
1166,0.0
1168,0.0
2,1, 1,27, 0,21, 0.00,60.00,Monday
7,7.2
545,23.207939798538856
546,9.87983704628351
547,19.60109111837211
548,15.917842947409431
720,-3908.776908544267
721,-3908.776908544267
784,0.0
785,0.0
848,0.0
849,0.0
1121,0.0
1135,0.0
1161,0.0
1163,178.4909368263403
1166,0.0
1168,0.0
2,1, 1,27, 0,22, 0.00,60.00,Monday
7,6.1
545,23.303476351511755
546,7.8525001125873155
547,19.588130877232103
548,2.402886533400308
720,-3249.2385073040205
721,-3249.2385073040205
784,0.0
785,0.0
848,0.0
849,0.0
1121,0.0
1135,0.0
1161,0.0
1163,196.7530878136692
1166,0.0
1168,0.0
2,1, 1,27, 0,23, 0.00,60.00,Monday
7,6.1
545,22.88248164386959
546,6.44326199302887
547,19.56114236834059
548,0.0
720,-3238.733455200434
721,-3238.733455200434
784,0.0
785,0.0
848,0.0
849,0.0
1121,0.0
1135,0.0
1161,0.0
1163,200.0
1166,0.0
1168,0.0
2,1, 1,27, 0,24, 0.00,60.00,Monday
7,4.4
545,22.084375787288664
546,4.470837000651104
547,19.516869225464518
548,0.0
720,-2574.80882944515
721,-2574.80882944515
784,0.0
785,0.0
848,0.0
849,0.0
1121,0.0
1135,0.0
1161,0.0
1163,200.0
1166,0.0
1168,0.0
2,2, 1,28, 0, 1, 0.00,60.00,Tuesday
7,2.8
545,21.140874268077546
546,3.204022531472521
547,19.45485989592026
548,0.0
720,-1948.2102480884314
721,-1948.2102480884314
784,0.0
785,0.0
848,0.0
849,0.0
1121,0.0
1135,0.0
1161,0.0
1163,200.0
1166,0.0
1168,0.0
2,2, 1,28, 0, 2, 0.00,60.00,Tuesday
7,2.8
545,20.422730291015718
546,2.5262700863811856
547,19.38164125128001
548,0.0
720,-1439.5896150041717
721,-1439.5896150041717
784,0.0
785,0.0
848,0.0
849,0.0
1121,0.0
1135,0.0
1161,0.0
1163,200.0
1166,0.0
1168,0.0
2,2, 1,28, 0, 3, 0.00,60.00,Tuesday
7,3.9
545,19.682811107836617
546,2.6793328455443324
547,19.294263720533653
548,0.0
720,-827.0170861694533
721,-827.0170861694533
784,0.0
785,0.0
848,0.0
849,0.0
1121,0.0
1135,0.0
1161,0.0
1163,200.0
1166,0.0
1168,0.0
2,2, 1,28, 0, 4, 0.00,60.00,Tuesday
7,3.3
545,18.966736472629094
546,2.388585567887487
547,19.198826780190313
548,0.0
720,-270.79036727727544
721,-270.79036727727544
784,0.0
785,0.0
848,0.0
849,0.0
1121,0.0
1135,0.0
1161,0.0
1163,200.0
1166,0.0
1168,0.0
2,2, 1,28, 0, 5, 0.00,60.00,Tuesday
7,3.3
545,18.58980050987687
546,2.2960267106625776
547,19.091612109397566
548,5.995528216055169
720,144.8638798028187
721,144.8638798028187
784,0.0
785,0.0
848,0.0
849,0.0
1121,178.14292222406527
1135,56.69969969322254
1161,4.349456085589142
1163,191.85337512453205
1166,0.0
1168,0.0
2,2, 1,28, 0, 6, 0.00,60.00,Tuesday
7,2.2
545,19.250926585354293
546,2.4014824139366104
547,18.935381749232555
548,47.345461275577186
720,1123.005701289674
721,1123.005701289674
784,0.0
785,0.0
848,0.0
849,0.0
1121,1412.5514973854538
1135,440.3286341392961
1161,34.5514310869744
1163,135.55311949575258
1166,0.0
1168,0.0
2,2, 1,28, 0, 7, 0.00,60.00,Tuesday
7,1.7
545,19.44114508267405
546,2.501598252418803
547,18.82964322010858
548,67.01892200951607
720,1499.3321564331563
721,1499.3321564331563
784,0.0
785,0.0
848,0.0
849,0.0
1121,1989.2624766315519
1135,626.5143291095511
1161,50.807668761168394
1163,108.66373075044974
1166,0.0
1168,0.0
2,2, 1,28, 0, 8, 0.00,60.00,Tuesday
7,1.7
545,19.623255309733363
546,2.671600206565263
547,18.72258563685008
548,74.0230215155706
720,1618.0032879182509
721,1618.0032879182509
784,0.0
785,0.0
848,0.0
849,0.0
1121,2207.414583978929
1135,694.5004855981409
1161,56.11796505988031
1163,99.11748184038878
1166,0.0
1168,0.0
2,2, 1,28, 0, 9, 0.00,60.00,Tuesday
7,5.0
545,19.750168657515783
546,5.384601312819112
547,18.655131495929783
548,47.09208598547689
720,1071.6078502744313
721,1071.6078502744313
784,0.0
785,0.0
848,0.0
849,0.0
1121,1531.1598593771914
1135,465.1562258265985
1161,28.59244928925614
1163,136.20760403754818
1166,0.0
1168,0.0
2,2, 1,28, 0,10, 0.00,60.00,Tuesday
7,7.2
545,19.96160358653717
546,8.896870208277047
547,18.583502180567283
548,10.090462955594653
720,247.92070834037258
721,247.92070834037258
784,0.0
785,0.0
848,0.0
849,0.0
1121,420.7297986323964
1135,116.77384338505315
1161,0.0
1163,186.36521255546876
1166,0.0
1168,0.0
2,2, 1,28, 0,11, 0.00,60.00,Tuesday
7,7.2
545,20.43303622630945
546,11.84827895459462
547,18.52501015725124
548,0.0
720,-542.8860591712346
721,-542.8860591712346
784,0.0
785,0.0
848,0.0
849,0.0
1121,0.0
1135,0.0
1161,0.0
1163,200.0
1166,0.0
1168,0.0
2,2, 1,28, 0,12, 0.00,60.00,Tuesday
7,11.1
545,21.630831825977978
546,17.266297489084337
547,18.4999857576391
548,0.0
720,-1516.291325383927
721,-1516.291325383927
784,0.0
785,0.0
848,0.0
849,0.0
1121,0.0
1135,0.0
1161,0.0
1163,0.0
1166,0.0
1168,0.0
2,2, 1,28, 0,13, 0.00,60.00,Tuesday
7,11.7
545,22.357840643083936
546,20.65328702814471
547,18.502674696879946
548,0.0
720,-1825.5083937019026
721,-1825.5083937019026
784,0.0
785,0.0
848,0.0
849,0.0
1121,0.0
1135,0.0
1161,0.0
1163,0.0
1166,0.0
1168,0.0
2,2, 1,28, 0,14, 0.00,60.00,Tuesday
7,11.7
545,23.213773236551024
546,22.659524703504932
547,18.532984011125905
548,0.0
720,-2561.8848572039296
721,-2561.8848572039296
784,0.0
785,0.0
848,0.0
849,0.0
1121,0.0
1135,0.0
1161,0.0
1163,0.0
1166,0.0
1168,0.0
2,2, 1,28, 0,15, 0.00,60.00,Tuesday
7,11.7
545,23.358173591735454
546,22.9154450455303
547,18.60483817466579
548,17.03364332606759
720,-3361.8797428148573
721,-3361.8797428148573
784,0.0
785,0.0
848,0.0
849,0.0
1121,0.0
1135,0.0
1161,0.0
1163,0.0
1166,0.0
1168,0.0
2,2, 1,28, 0,16, 0.00,60.00,Tuesday
7,11.7
545,23.406002690506888
546,22.38064621839416
547,18.710859269768957
548,36.436869001365125
720,-4706.442924698729
721,-4706.442924698729
784,0.0
785,0.0
848,0.0
849,0.0
1121,0.0
1135,0.0
1161,0.0
1163,0.0
1166,0.0
1168,0.0
2,2, 1,28, 0,17, 0.00,60.00,Tuesday
7,11.7
545,23.345930622448705
546,20.293553711294127
547,18.829722992044758
548,51.350558529016546
720,-5702.717146344723
721,-5702.717146344723
784,0.0
785,0.0
848,0.0
849,0.0
1121,0.0
1135,0.0
1161,0.0
1163,0.0
1166,0.0
1168,0.0
2,2, 1,28, 0,18, 0.00,60.00,Tuesday
7,7.8
545,23.241160847433974
546,16.186586417488474
547,18.911267009891265
548,44.15491546362305
720,-5634.33475900994
721,-5634.33475900994
784,0.0
785,0.0
848,0.0
849,0.0
1121,0.0
1135,0.0
1161,0.0
1163,140.33545441599946
1166,0.0
1168,0.0
2,2, 1,28, 0,19, 0.00,60.00,Tuesday
7,6.7
545,23.332994379854235
546,12.88016406577121
547,18.97486543092256
548,21.122978975036524
720,-4632.601222995763
721,-4632.601222995763
784,0.0
785,0.0
848,0.0
849,0.0
1121,0.0
1135,0.0
1161,0.0
1163,171.45747129865435
1166,0.0
1168,0.0
2,2, 1,28, 0,20, 0.00,60.00,Tuesday
7,7.0
545,23.380474626819673
546,10.041331054421898
547,19.026221750553926
548,13.032484444001653
720,-3870.696916223409
721,-3870.696916223409
784,0.0
785,0.0
848,0.0
849,0.0
1121,0.0
1135,0.0
1161,0.0
1163,182.3897916230296
1166,0.0
1168,0.0
2,2, 1,28, 0,21, 0.00,60.00,Tuesday
7,3.9
545,23.20183030013213
546,7.307050486758866
547,19.03928718282853
548,6.790135422338154
720,-3416.6448680504145
721,-3416.6448680504145
784,0.0
785,0.0
848,0.0
849,0.0
1121,0.0
1135,0.0
1161,0.0
1163,190.8247962843141
1166,0.0
1168,0.0
2,2, 1,28, 0,22, 0.00,60.00,Tuesday
7,2.8
545,22.983126812981062
546,4.770285467655709
547,19.024934655076365
548,0.0
720,-2775.76650682748
721,-2775.76650682748
784,0.0
785,0.0
848,0.0
849,0.0
1121,0.0
1135,0.0
1161,0.0
1163,200.0
1166,0.0
1168,0.0
2,2, 1,28, 0,23, 0.00,60.00,Tuesday
7,2.8
545,22.333272952480257
546,2.9052128876727585
547,18.99536262544846
548,0.0
720,-2917.164969556534
721,-2917.164969556534
784,0.0
785,0.0
848,0.0
849,0.0
1121,0.0
1135,0.0
1161,0.0
1163,200.0
1166,0.0
1168,0.0
2,2, 1,28, 0,24, 0.00,60.00,Tuesday
7,1.1
545,21.3583288120088
546,1.2100971612417282
547,18.947039161343508
548,0.0
720,-2165.28589794226
721,-2165.28589794226
784,0.0
785,0.0
848,0.0
849,0.0
1121,0.0
1135,0.0
1161,0.0
1163,200.0
1166,0.0
1168,0.0
2,3, 1,29, 0, 1, 0.00,60.00,Wednesday
7,1.1
545,20.539274311352273
546,-0.24096696215268024
547,18.881554960193828
548,0.0
720,-1568.5921492919097
721,-1568.5921492919097
784,0.0
785,0.0
848,0.0
849,0.0
1121,0.0
1135,0.0
1161,0.0
1163,200.0
1166,0.0
1168,0.0
2,3, 1,29, 0, 2, 0.00,60.00,Wednesday
7,1.1
545,19.76444626408172
546,-1.3427235158005904
547,18.80222498439042
548,0.0
720,-909.640840769569
721,-909.640840769569
784,0.0
785,0.0
848,0.0
849,0.0
1121,0.0
1135,0.0
1161,0.0
1163,200.0
1166,0.0
1168,0.0
2,3, 1,29, 0, 3, 0.00,60.00,Wednesday
7,0.0
545,18.88281328931102
546,-2.3552753903043198
547,18.71255955047882
548,0.0
720,-208.2412306834376
721,-208.2412306834376
784,0.0
785,0.0
848,0.0
849,0.0
1121,0.0
1135,0.0
1161,0.0
1163,200.0
1166,0.0
1168,0.0
2,3, 1,29, 0, 4, 0.00,60.00,Wednesday
7,0.0
545,18.532707575963986
546,-2.827287440929841
547,18.59431652033382
548,17.186590447659487
720,360.30084518702097
721,360.30084518702097
784,0.0
785,0.0
848,0.0
849,0.0
1121,462.78162410916696
1135,155.50743294349698
1161,14.757422637986656
1163,176.46510686617748
1166,0.0
1168,0.0
2,3, 1,29, 0, 5, 0.00,60.00,Wednesday
7,0.0
545,18.50008598051313
546,-3.011092756783614
547,18.473375184208987
548,33.92837344226699
720,678.4718428499864
721,678.4718428499864
784,0.0
785,0.0
848,0.0
849,0.0
1121,927.0624752386011
1135,304.7999891358503
1161,29.132218912563303
1163,153.540419917672
1166,0.0
1168,0.0
2,3, 1,29, 0, 6, 0.00,60.00,Wednesday
7,0.0
545,19.172470360616007
546,-2.3452529307107413
547,18.31894403539416
548,79.09149458669872
720,1657.722208135141
721,1657.722208135141
784,0.0
785,0.0
848,0.0
849,0.0
1121,2265.6805396590134
1135,717.1832560695618
1161,61.93865396271302
1163,91.83608418524261
1166,0.0
1168,0.0
2,3, 1,29, 0, 7, 0.00,60.00,Wednesday
7,0.6
545,19.4870952090715
546,-1.5917527033464425
547,18.229828709098694
548,98.69849840627438
720,1994.857935150243
721,1994.857935150243
784,0.0
785,0.0
848,0.0
849,0.0
1121,2861.53369471197
1135,896.876672177825
1161,87.97209289728777
1163,64.94618748950343
1166,0.0
1168,0.0
2,3, 1,29, 0, 8, 0.00,60.00,Wednesday
7,0.6
545,19.633073684396532
546,-0.35289161524842044
547,18.133777864192147
548,101.20085883392386
720,1984.470385813047
721,1984.470385813047
784,0.0
785,0.0
848,0.0
849,0.0
1121,2935.5914670434604
1135,925.2566869968773
1161,90.20421932593045
1163,61.519450961300095
1166,0.0
1168,0.0
2,3, 1,29, 0, 9, 0.00,60.00,Wednesday
7,5.6
545,19.91914834925996
546,2.577226870406659
547,18.08637380778964
548,49.93530001670483
720,1411.2431376172117
721,1411.2431376172117
784,0.0
785,0.0
848,0.0
849,0.0
1121,2062.6477644407764
1135,566.584130138557
1161,0.0
1163,132.5246815034223
1166,0.0
1168,0.0
2,3, 1,29, 0,10, 0.00,60.00,Wednesday
7,10.6
545,20.057174680699326
546,9.433518752038474
547,18.008448095306004
548,6.144548814308546
720,86.0383292980423
721,86.0383292980423
784,0.0
785,0.0
848,0.0
849,0.0
1121,277.4851208051142
1135,74.18059578238115
1161,0.0
1163,0.0
1166,0.0
1168,0.0
2,3, 1,29, 0,11, 0.00,60.00,Wednesday
7,10.6
545,20.84311466386912
546,17.473260999864276
547,17.954429058852696
548,0.0
720,-984.4817922433704
721,-984.4817922433704
784,0.0
785,0.0
848,0.0
849,0.0
1121,0.0
1135,0.0
1161,0.0
1163,0.0
1166,0.0
1168,0.0
2,3, 1,29, 0,12, 0.00,60.00,Wednesday
7,15.0
545,21.992061807087843
546,25.640158588020586
547,17.944275475536255
548,0.0
720,-1943.151215916403
721,-1943.151215916403
784,0.0
785,0.0
848,0.0
849,0.0
1121,0.0
1135,0.0
1161,0.0
1163,0.0
1166,0.0
1168,0.0
2,3, 1,29, 0,13, 0.00,60.00,Wednesday
7,17.2
545,22.990822337718427
546,32.45795240649695
547,17.973841386664535
548,0.0
720,-2791.3846127588895
721,-2791.3846127588895
784,0.0
785,0.0
848,0.0
849,0.0
1121,0.0
1135,0.0
1161,0.0
1163,0.0
1166,0.0
1168,0.0
2,3, 1,29, 0,14, 0.00,60.00,Wednesday
7,17.2
545,23.369629471052924
546,35.18536788325186
547,18.063784659672116
548,14.815028754721492
720,-3589.0625915549117
721,-3589.0625915549117
784,0.0
785,0.0
848,0.0
849,0.0
1121,0.0
1135,0.0
1161,0.0
1163,0.0
1166,0.0
1168,0.0
2,3, 1,29, 0,15, 0.00,60.00,Wednesday
7,18.3
545,23.29738998828184
546,30.89521147694374
547,18.1859268012831
548,31.862465680935067
720,-3688.8264198975576
721,-3688.8264198975576
784,0.0
785,0.0
848,0.0
849,0.0
1121,0.0
1135,0.0
1161,0.0
1163,0.0
1166,0.0
1168,0.0
2,3, 1,29, 0,16, 0.00,60.00,Wednesday
7,18.9
545,23.371838083688687
546,29.025030881970064
547,18.355810080778067
548,53.7866988902025
720,-5185.581187412676
721,-5185.581187412676
784,0.0
785,0.0
848,0.0
849,0.0
1121,0.0
1135,0.0
1161,0.0
1163,0.0
1166,0.0
1168,0.0
2,3, 1,29, 0,17, 0.00,60.00,Wednesday
7,18.9
545,23.356978180482777
546,26.568208878797318
547,18.540858640343536
548,72.81576333463029
720,-6288.1308707153075
721,-6288.1308707153075
784,0.0
785,0.0
848,0.0
849,0.0
1121,0.0
1135,0.0
1161,0.0
1163,0.0
1166,0.0
1168,0.0
2,3, 1,29, 0,18, 0.00,60.00,Wednesday
7,15.0
545,23.2769051602004
546,22.427544995968375
547,18.65919201838449
548,68.73078334069872
720,-6367.919856309774
721,-6367.919856309774
784,0.0
785,0.0
848,0.0
849,0.0
1121,0.0
1135,0.0
1161,0.0
1163,0.0
1166,0.0
1168,0.0
2,3, 1,29, 0,19, 0.00,60.00,Wednesday
7,11.1
545,23.28049836111352
546,18.592700345864067
547,18.717793610509062
548,42.12592254119729
720,-5406.746869498511
721,-5406.746869498511
784,0.0
785,0.0
848,0.0
849,0.0
1121,0.0
1135,0.0
1161,0.0
1163,0.0
1166,0.0
1168,0.0
2,3, 1,29, 0,20, 0.00,60.00,Wednesday
7,11.0
545,23.339102942830465
546,15.743191030662045
547,18.79763621355963
548,30.91621659274237
720,-4684.734680072917
721,-4684.734680072917
784,0.0
785,0.0
848,0.0
849,0.0
1121,0.0
1135,0.0
1161,0.0
1163,0.0
1166,0.0
1168,0.0
2,3, 1,29, 0,21, 0.00,60.00,Wednesday
7,10.0
545,23.33398466047504
546,13.770351958042456
547,18.840747599074763
548,24.100291402321808
720,-4290.865749070666
721,-4290.865749070666
784,0.0
785,0.0
848,0.0
849,0.0
1121,0.0
1135,0.0
1161,0.0
1163,0.0
1166,0.0
1168,0.0
2,3, 1,29, 0,22, 0.00,60.00,Wednesday
7,10.0
545,23.406784137819617
546,12.150476254201445
547,18.848317838526206
548,14.53931503599862
720,-3784.7023847293112
721,-3784.7023847293112
784,0.0
785,0.0
848,0.0
849,0.0
1121,0.0
1135,0.0
1161,0.0
1163,0.0
1166,0.0
1168,0.0
2,3, 1,29, 0,23, 0.00,60.00,Wednesday
7,10.0
545,23.622446325242898
546,11.274146298392012
547,18.82002328719404
548,0.0
720,-4034.1650818660983
721,-4034.1650818660983
784,0.0
785,0.0
848,0.0
849,0.0
1121,0.0
1135,0.0
1161,0.0
1163,0.0
1166,0.0
1168,0.0
2,3, 1,29, 0,24, 0.00,60.00,Wednesday
7,9.4
545,23.060627805835143
546,10.536525134526043
547,18.812874755060026
548,0.0
720,-2809.4442895950424
721,-2809.4442895950424
784,0.0
785,0.0
848,0.0
849,0.0
1121,0.0
1135,0.0
1161,0.0
1163,200.0
1166,0.0
1168,0.0
2,4, 1,30, 0, 1, 0.00,60.00,Thursday
7,7.8
545,22.318364103009927
546,9.416761379421786
547,18.79120613807229
548,0.0
720,-2498.439035822941
721,-2498.439035822941
784,0.0
785,0.0
848,0.0
849,0.0
1121,0.0
1135,0.0
1161,0.0
1163,200.0
1166,0.0
1168,0.0
2,4, 1,30, 0, 2, 0.00,60.00,Thursday
7,7.8
545,21.78419829903084
546,8.801786393295052
547,18.75773969587919
548,0.0
720,-2260.6790205496727
721,-2260.6790205496727
784,0.0
785,0.0
848,0.0
849,0.0
1121,0.0
1135,0.0
1161,0.0
1163,200.0
1166,0.0
1168,0.0
2,4, 1,30, 0, 3, 0.00,60.00,Thursday
7,6.7
545,21.15975640486055
546,7.235138777209152
547,18.716487101527918
548,0.0
720,-1742.8350127242647
721,-1742.8350127242647
784,0.0
785,0.0
848,0.0
849,0.0
1121,0.0
1135,0.0
1161,0.0
1163,200.0
1166,0.0
1168,0.0
2,4, 1,30, 0, 4, 0.00,60.00,Thursday
7,6.7
545,20.596099084339446
546,6.16584763779482
547,18.663581035719083
548,0.0
720,-1358.8934565394939
721,-1358.8934565394939
784,0.0
785,0.0
848,0.0
849,0.0
1121,0.0
1135,0.0
1161,0.0
1163,200.0
1166,0.0
1168,0.0
2,4, 1,30, 0, 5, 0.00,60.00,Thursday
7,6.7
545,20.198983305480628
546,5.701416816859151
547,18.60274848955087
548,0.0
720,-1053.5088989720607
721,-1053.5088989720607
784,0.0
785,0.0
848,0.0
849,0.0
1121,0.0
1135,0.0
1161,0.0
1163,200.0
1166,0.0
1168,0.0
2,4, 1,30, 0, 6, 0.00,60.00,Thursday
7,11.1
545,20.03632341041485
546,8.76583370120326
547,18.53596900512927
548,0.0
720,-196.31656828627274
721,-196.31656828627274
784,0.0
785,0.0
848,0.0
849,0.0
1121,0.0
1135,0.0
1161,0.0
1163,0.0
1166,0.0
1168,0.0
2,4, 1,30, 0, 7, 0.00,60.00,Thursday
7,11.1
545,19.984461031101716
546,9.681221840017137
547,18.47213859047999
548,0.0
720,-152.39233951984443
721,-152.39233951984443
784,0.0
785,0.0
848,0.0
849,0.0
1121,0.0
1135,0.0
1161,0.0
1163,0.0
1166,0.0
1168,0.0
2,4, 1,30, 0, 8, 0.00,60.00,Thursday
7,11.1
545,19.787221239251345
546,10.337906715490641
547,18.41026674208012
548,0.0
720,-33.28821185381548
721,-33.28821185381548
784,0.0
785,0.0
848,0.0
849,0.0
1121,0.0
1135,0.0
1161,0.0
1163,0.0
1166,0.0
1168,0.0
2,4, 1,30, 0, 9, 0.00,60.00,Thursday
7,12.2
545,19.84466637995575
546,11.623187581198922
547,18.354634365259525
548,0.0
720,-67.03417025299132
721,-67.03417025299132
784,0.0
785,0.0
848,0.0
849,0.0
1121,0.0
1135,0.0
1161,0.0
1163,0.0
1166,0.0
1168,0.0
2,4, 1,30, 0,10, 0.00,60.00,Thursday
7,15.0
545,20.27361139214911
546,15.015967897023694
547,18.3068053721511
548,0.0
720,-336.43993680205676
721,-336.43993680205676
784,0.0
785,0.0
848,0.0
849,0.0
1121,0.0
1135,0.0
1161,0.0
1163,0.0
1166,0.0
1168,0.0
2,4, 1,30, 0,11, 0.00,60.00,Thursday
7,15.0
545,21.3943431081991
546,16.882306251137305
547,18.2757978607754
548,0.0
720,-1122.472504062349
721,-1122.472504062349
784,0.0
785,0.0
848,0.0
849,0.0
1121,0.0
1135,0.0
1161,0.0
1163,0.0
1166,0.0
1168,0.0
2,4, 1,30, 0,12, 0.00,60.00,Thursday
7,16.7
545,22.58928649243205
546,20.800799913236443
547,18.275222571590746
548,0.0
720,-2091.3363159277815
721,-2091.3363159277815
784,0.0
785,0.0
848,0.0
849,0.0
1121,0.0
1135,0.0
1161,0.0
1163,0.0
1166,0.0
1168,0.0
2,4, 1,30, 0,13, 0.00,60.00,Thursday
7,18.3
545,23.296563891023297
546,25.29992585259127
547,18.32941775444474
548,11.894761048902325
720,-3123.785745703588
721,-3123.785745703588
784,0.0
785,0.0
848,0.0
849,0.0
1121,0.0
1135,0.0
1161,0.0
1163,0.0
1166,0.0
1168,0.0
2,4, 1,30, 0,14, 0.00,60.00,Thursday
7,18.3
545,23.336532796147164
546,27.65746082357474
547,18.444384367960886
548,34.34023372524022
720,-3713.6799994770136
721,-3713.6799994770136
784,0.0
785,0.0
848,0.0
849,0.0
1121,0.0
1135,0.0
1161,0.0
1163,0.0
1166,0.0
1168,0.0
2,4, 1,30, 0,15, 0.00,60.00,Thursday
7,18.3
545,23.268899482219066
546,26.833451022832993
547,18.594283361251893
548,58.15531209348014
720,-5215.78777607749
721,-5215.78777607749
784,0.0
785,0.0
848,0.0
849,0.0
1121,0.0
1135,0.0
1161,0.0
1163,0.0
1166,0.0
1168,0.0
2,4, 1,30, 0,16, 0.00,60.00,Thursday
7,18.3
545,23.362656584992976
546,26.290819882165888
547,18.745100319548715
548,71.91330457356776
720,-6339.615652184646
721,-6339.615652184646
784,0.0
785,0.0
848,0.0
849,0.0
1121,0.0
1135,0.0
1161,0.0
1163,0.0
1166,0.0
1168,0.0
2,4, 1,30, 0,17, 0.00,60.00,Thursday
7,18.3
545,23.348436785337324
546,24.508378569836555
547,18.916878814862457
548,82.01105808929084
720,-7020.928744629957
721,-7020.928744629957
784,0.0
785,0.0
848,0.0
849,0.0
1121,0.0
1135,0.0
1161,0.0
1163,0.0
1166,0.0
1168,0.0
2,4, 1,30, 0,18, 0.00,60.00,Thursday
7,13.3
545,23.314715526710838
546,22.112148566192143
547,19.00350824462817
548,71.97511816008686
720,-6808.97250271673
721,-6808.97250271673
784,0.0
785,0.0
848,0.0
849,0.0
1121,0.0
1135,0.0
1161,0.0
1163,0.0
1166,0.0
1168,0.0
2,4, 1,30, 0,19, 0.00,60.00,Thursday
7,12.2
545,23.311236342650897
546,18.307860089790204
547,19.066263353654954
548,45.87397785595398
720,-5692.204506940525
721,-5692.204506940525
784,0.0
785,0.0
848,0.0
849,0.0
1121,0.0
1135,0.0
1161,0.0
1163,0.0
1166,0.0
1168,0.0
2,4, 1,30, 0,20, 0.00,60.00,Thursday
7,12.2
545,23.34449021367316
546,15.775170089499776
547,19.15866235273875
548,34.232469433646294
720,-4940.6261896620235
721,-4940.6261896620235
784,0.0
785,0.0
848,0.0
849,0.0
1121,0.0
1135,0.0
1161,0.0
1163,0.0
1166,0.0
1168,0.0
2,4, 1,30, 0,21, 0.00,60.00,Thursday
7,9.4
545,23.209967463615786
546,13.199700000680426
547,19.197029937617728
548,24.46306900711915
720,-4429.866555424562
721,-4429.866555424562
784,0.0
785,0.0
848,0.0
849,0.0
1121,0.0
1135,0.0
1161,0.0
1163,166.9441582986999
1166,0.0
1168,0.0
2,4, 1,30, 0,22, 0.00,60.00,Thursday
7,8.3
545,23.297455146083035
546,11.440375267708987
547,19.19251306965099
548,9.893546186989552
720,-3754.903704480468
721,-3754.903704480468
784,0.0
785,0.0
848,0.0
849,0.0
1121,0.0
1135,0.0
1161,0.0
1163,186.6312973026216
1166,0.0
1168,0.0
2,4, 1,30, 0,23, 0.00,60.00,Thursday
7,8.3
545,23.252429270595773
546,10.318178977582658
547,19.162363229309825
548,0.0
720,-3863.126837579086
721,-3863.126837579086
784,0.0
785,0.0
848,0.0
849,0.0
1121,0.0
1135,0.0
1161,0.0
1163,200.0
1166,0.0
1168,0.0
2,4, 1,30, 0,24, 0.00,60.00,Thursday
7,6.7
545,22.50233960475072
546,9.054098652745767
547,19.118915451832006
548,0.0
720,-2889.9047518225034
721,-2889.9047518225034
784,0.0
785,0.0
848,0.0
849,0.0
1121,0.0
1135,0.0
1161,0.0
1163,200.0
1166,0.0
1168,0.0
2,5, 1,31, 0, 1, 0.00,60.00,Friday
7,6.7
545,21.94223198583326
546,8.196205974694264
547,19.054715709942638
548,0.0
720,-2602.232648715464
721,-2602.232648715464
784,0.0
785,0.0
848,0.0
849,0.0
1121,0.0
1135,0.0
1161,0.0
1163,200.0
1166,0.0
1168,0.0
2,5, 1,31, 0, 2, 0.00,60.00,Friday
7,6.7
545,21.350524421208476
546,7.567133131670167
547,18.968542241496554
548,0.0
720,-2042.0980229144952
721,-2042.0980229144952
784,0.0
785,0.0
848,0.0
849,0.0
1121,0.0
1135,0.0
1161,0.0
1163,200.0
1166,0.0
1168,0.0
2,5, 1,31, 0, 3, 0.00,60.00,Friday
7,4.4
545,20.44134567597638
546,6.4202709868852335
547,18.8888874398442
548,0.0
720,-1347.6179406253705
721,-1347.6179406253705
784,0.0
785,0.0
848,0.0
849,0.0
1121,0.0
1135,0.0
1161,0.0
1163,200.0
1166,0.0
1168,0.0
2,5, 1,31, 0, 4, 0.00,60.00,Friday
7,3.3
545,19.68215007144955
546,5.28821824908436
547,18.817405033921148
548,0.0
720,-848.1246193287043
721,-848.1246193287043
784,0.0
785,0.0
848,0.0
849,0.0
1121,0.0
1135,0.0
1161,0.0
1163,200.0
1166,0.0
1168,0.0
2,5, 1,31, 0, 5, 0.00,60.00,Friday
7,3.3
545,19.14770471109004
546,4.594509308093209
547,18.740651472919776
548,0.0
720,-424.7364051106779
721,-424.7364051106779
784,0.0
785,0.0
848,0.0
849,0.0
1121,0.0
1135,0.0
1161,0.0
1163,200.0
1166,0.0
1168,0.0
2,5, 1,31, 0, 6, 0.00,60.00,Friday
7,2.8
545,19.564088155368204
546,3.5795831296722738
547,18.628724734155494
548,24.794742939906648
720,615.6012063137878
721,615.6012063137878
784,0.0
785,0.0
848,0.0
849,0.0
1121,748.6440095824593
1135,237.7538826842519
1161,15.44603449400371
1163,166.3155506066393
1166,0.0
1168,0.0
2,5, 1,31, 0, 7, 0.00,60.00,Friday
7,2.2
545,19.489907160903847
546,3.270201193827609
547,18.5421593004535
548,30.57261562161274
720,680.1244228307187
721,680.1244228307187
784,0.0
785,0.0
848,0.0
849,0.0
1121,896.8115261312747
1135,289.8946214562712
1161,22.200283268142528
1163,158.38469479176126
1166,0.0
1168,0.0
2,5, 1,31, 0, 8, 0.00,60.00,Friday
7,2.2
545,19.64584507022505
546,3.6260220046075737
547,18.445088329737413
548,39.72089838419528