Program Version,EnergyPlus, Version 22.2.0-c249759bad, YMD=2023.09.01 20:16
1,5,Environment Title[],Latitude[deg],Longitude[deg],Time Zone[],Elevation[m]
2,8,Day of Simulation[],Month[],Day of Month[],DST Indicator[1=yes 0=no],Hour[],StartMinute[],EndMinute[],DayType
3,5,Cumulative Day of Simulation[],Month[],Day of Month[],DST Indicator[1=yes 0=no],DayType  ! When Daily Report Variables Requested
4,2,Cumulative Days of Simulation[],Month[]  ! When Monthly Report Variables Requested
5,1,Cumulative Days of Simulation[] ! When Run Period Report Variables Requested
6,1,Calendar Year of Simulation[] ! When Annual Report Variables Requested
581,11,LIVING,AFN Zone Infiltration Air Change Rate [ach] !RunPeriod [Value,Min,Month,Day,Hour,Minute,Max,Month,Day,Hour,Minute]
582,11,ATTIC,AFN Zone Infiltration Air Change Rate [ach] !RunPeriod [Value,Min,Month,Day,Hour,Minute,Max,Month,Day,Hour,Minute]
583,11,CRAWLSPACE,AFN Zone Infiltration Air Change Rate [ach] !RunPeriod [Value,Min,Month,Day,Hour,Minute,Max,Month,Day,Hour,Minute]
1038,11,Facility,Facility Heating Setpoint Not Met Time [hr] !RunPeriod [Value,Min,Month,Day,Hour,Minute,Max,Month,Day,Hour,Minute]
1039,11,Facility,Facility Cooling Setpoint Not Met Time [hr] !RunPeriod [Value,Min,Month,Day,Hour,Minute,Max,Month,Day,Hour,Minute]
1115,11,DX_HEATING_COIL,Heating Coil Heating Energy [J] !RunPeriod [Value,Min,Month,Day,Hour,Minute,Max,Month,Day,Hour,Minute]
1128,11,DX_HEATING_COIL,Heating Coil Electricity Energy [J] !RunPeriod [Value,Min,Month,Day,Hour,Minute,Max,Month,Day,Hour,Minute]
1153,11,DX_HEATING_COIL,Heating Coil Defrost Electricity Energy [J] !RunPeriod [Value,Min,Month,Day,Hour,Minute,Max,Month,Day,Hour,Minute]
1154,11,DX_HEATING_COIL,Heating Coil Crankcase Heater Electricity Energy [J] !RunPeriod [Value,Min,Month,Day,Hour,Minute,Max,Month,Day,Hour,Minute]
1155,11,HEATING_RESISTANCE_BACKUP,Heating Coil Heating Energy [J] !RunPeriod [Value,Min,Month,Day,Hour,Minute,Max,Month,Day,Hour,Minute]
1156,11,HEATING_RESISTANCE_BACKUP,Heating Coil Electricity Energy [J] !RunPeriod [Value,Min,Month,Day,Hour,Minute,Max,Month,Day,Hour,Minute]
1292,11,WATER HEATER,Water Heater Heat Loss Energy [J] !RunPeriod [Value,Min,Month,Day,Hour,Minute,Max,Month,Day,Hour,Minute]
1306,11,WATER HEATER,Water Heater Heating Energy [J] !RunPeriod [Value,Min,Month,Day,Hour,Minute,Max,Month,Day,Hour,Minute]
1307,11,WATER HEATER,Water Heater Unmet Demand Heat Transfer Energy [J] !RunPeriod [Value,Min,Month,Day,Hour,Minute,Max,Month,Day,Hour,Minute]
1308,11,WATER HEATER,Water Heater Electricity Energy [J] !RunPeriod [Value,Min,Month,Day,Hour,Minute,Max,Month,Day,Hour,Minute]
13,11,Electricity:Facility [J] !RunPeriod [Value,Min,Month,Day,Hour,Minute,Max,Month,Day,Hour,Minute]
1134,11,Heating:Electricity [J] !RunPeriod [Value,Min,Month,Day,Hour,Minute,Max,Month,Day,Hour,Minute]
1096,11,Cooling:Electricity [J] !RunPeriod [Value,Min,Month,Day,Hour,Minute,Max,Month,Day,Hour,Minute]
562,11,Fans:Electricity [J] !RunPeriod [Value,Min,Month,Day,Hour,Minute,Max,Month,Day,Hour,Minute]
1379,11,Pumps:Electricity [J] !RunPeriod [Value,Min,Month,Day,Hour,Minute,Max,Month,Day,Hour,Minute]
1326,11,WaterSystems:Electricity [J] !RunPeriod [Value,Min,Month,Day,Hour,Minute,Max,Month,Day,Hour,Minute]
61,11,InteriorLights:Electricity [J] !RunPeriod [Value,Min,Month,Day,Hour,Minute,Max,Month,Day,Hour,Minute]
1046,11,ExteriorLights:Electricity [J] !RunPeriod [Value,Min,Month,Day,Hour,Minute,Max,Month,Day,Hour,Minute]
134,11,InteriorEquipment:Electricity [J] !RunPeriod [Value,Min,Month,Day,Hour,Minute,Max,Month,Day,Hour,Minute]
170,11,gas_dryer:InteriorEquipment:Electricity [J] !RunPeriod [Value,Min,Month,Day,Hour,Minute,Max,Month,Day,Hour,Minute]
207,11,clotheswasher:InteriorEquipment:Electricity [J] !RunPeriod [Value,Min,Month,Day,Hour,Minute,Max,Month,Day,Hour,Minute]
244,11,dishwasher:InteriorEquipment:Electricity [J] !RunPeriod [Value,Min,Month,Day,Hour,Minute,Max,Month,Day,Hour,Minute]
281,11,refrigerator:InteriorEquipment:Electricity [J] !RunPeriod [Value,Min,Month,Day,Hour,Minute,Max,Month,Day,Hour,Minute]
318,11,electric_mels:InteriorEquipment:Electricity [J] !RunPeriod [Value,Min,Month,Day,Hour,Minute,Max,Month,Day,Hour,Minute]
355,11,NaturalGas:Facility [J] !RunPeriod [Value,Min,Month,Day,Hour,Minute,Max,Month,Day,Hour,Minute]
403,11,InteriorEquipment:NaturalGas [J] !RunPeriod [Value,Min,Month,Day,Hour,Minute,Max,Month,Day,Hour,Minute]
476,11,gas_dryer:InteriorEquipment:NaturalGas [J] !RunPeriod [Value,Min,Month,Day,Hour,Minute,Max,Month,Day,Hour,Minute]
513,11,gas_mels:InteriorEquipment:NaturalGas [J] !RunPeriod [Value,Min,Month,Day,Hour,Minute,Max,Month,Day,Hour,Minute]
End of Data Dictionary
1,EXTREME_WINTER,  37.26,-104.34,  -7.00,1749.90
5,7
1038,0.25,0.0, 1, 6, 1,15,0.25, 1,10, 6,15
1039,0.0,0.0, 1, 6, 1,15,0.0, 1, 6, 1,15
581,0.33869551872055376,0.17428541601413178, 1, 6,11,18,0.6693360684012565, 1,11,23,52
582,4.241455921905283,0.0, 1, 6,24,60,14.106278974691605, 1,11,23,60
583,0.044920344389440106,0.00035863255696548144, 1,11,16,60,0.08652473075036267, 1,10, 6,52
1115,1387489350.2032943,0.0, 1, 6,12, 3,4197175.638937037, 1,12, 5,60
1128,486412606.9922664,0.0, 1, 6,12, 3,1390123.0517242106, 1,12, 7,60
1153,16140946.885704389,0.0, 1, 6,10,47,102673.93520864027, 1, 7, 6,45
1154,54715779.077841096,0.0, 1, 6, 6, 5,180000.0, 1, 6,13,15
1155,334954097.7929741,0.0, 1, 6, 1,15,5352997.453246186, 1,10, 7,30
1156,334954097.7929741,0.0, 1, 6, 1,15,5352997.453246186, 1,10, 7,30
1292,-25180461.471877344,-39763.79054179345, 1, 6, 1,15,-3797.6436289881813, 1,10,12,15
1306,126350014.3041884,0.0, 1, 6, 1,15,4050000.0, 1, 6, 7,15
1307,24172043.38618632,0.0, 1, 6, 1,15,4089158.088575312, 1, 6, 6,60
1308,126350014.3041884,0.0, 1, 6, 1,15,4050000.0, 1, 6, 7,15
13,1446071432.754408,452017.0388981225, 1, 6,15,15,7780448.239416043, 1,10, 7,15
61,301924526.02383536,88139.10953165221, 1, 6, 1,15,1282023.4113694867, 1, 6,20,15
134,70666020.44019976,63564.01800854099, 1, 6, 4,15,156554.22484006523, 1,11,20,15
170,5241013.419656067,348.4159749238097, 1, 6, 4,15,17476.39704006126, 1,11,12,15
207,6509451.13922267,815.2532113832032, 1, 6, 3,15,22990.642799023623, 1,11,10,15
244,12749673.399825225,1521.856143006317, 1, 6, 4,15,53038.631142310165, 1,11,20,15
281,46165882.481495745,59938.60262432081, 1, 6, 5,15,81951.81706819107, 1, 6,19,15
318,0.0,0.0, 1, 6, 1,15,0.0, 1, 6, 1,15
355,197687796.27748066,18561.32405820678, 1, 6, 4,15,724774.895203776, 1,11,18,15
403,197687796.27748066,18561.32405820678, 1, 6, 4,15,724774.895203776, 1,11,18,15
476,106772067.24485716,7098.072629279515, 1, 6, 4,15,356036.3026282215, 1,11,12,15
513,0.0,0.0, 1, 6, 1,15,0.0, 1, 6, 1,15
562,54519088.62561932,0.0, 1, 6,12,15,148710.5749640615, 1, 8, 2,45
1046,0.0,0.0, 1, 6, 1,15,0.0, 1, 6, 1,15
1096,388352.6117818815,0.0, 1, 6, 1,15,60809.172030579975, 1,12,17,15
1134,892223430.7487856,165655.76972224656, 1,12,17,15,6935660.625109681, 1,10, 7,15
1326,126350014.30418833,0.0, 1, 6, 1,15,4050000.0, 1, 6, 7,15
1379,0.0,0.0, 1, 6, 1,15,0.0, 1, 6, 1,15
1,EXTREME_SUMMER,  37.26,-104.34,  -7.00,1749.90
5,7
1038,0.0,0.0, 7,20, 1,15,0.0, 7,20, 1,15
1039,0.0,0.0, 7,20, 1,15,0.0, 7,20, 1,15
581,0.22715777974675172,0.0, 7,22,23, 3,0.6594414920582047, 7,21,17,48
582,5.651952880260533,0.05934704228523639, 7,26, 8,46,17.578117677505148, 7,25,18,48
583,0.033735014141598366,0.00007713637576704658, 7,22,23, 7,0.07973222647919513, 7,21,17,18
1115,0.0,0.0, 7,20, 1, 7,0.0, 7,20, 1, 7
1128,0.0,0.0, 7,20, 1, 7,0.0, 7,20, 1, 7
1153,0.0,0.0, 7,20, 1, 7,0.0, 7,20, 1, 7
1154,0.0,0.0, 7,20, 1, 7,0.0, 7,20, 1, 7
1155,0.0,0.0, 7,20, 1, 7,0.0, 7,20, 1, 7
1156,0.0,0.0, 7,20, 1, 7,0.0, 7,20, 1, 7
1292,-22140062.217942897,-34337.96253060941, 7,26, 6,45,-2765.517417562114, 7,21,10,60
1306,99006471.50373755,0.0, 7,20, 1, 7,2227160.571727112, 7,20, 6,15
1307,12326767.35284768,0.0, 7,20, 1, 7,1770982.8132780364, 7,20, 6,55
1308,99006471.50373755,0.0, 7,20, 1, 7,2227160.571727112, 7,20, 6,15
13,921999533.7982398,151703.1275401932, 7,20, 4,15,5273698.884896949, 7,25,10,30
61,301924526.02383536,88139.10953165221, 7,20, 1,15,1282023.4113694867, 7,20,20,15
134,70666020.44019976,63564.01800854099, 7,20, 4,15,156554.22484006523, 7,25,20,15
170,5241013.419656067,348.4159749238097, 7,20, 4,15,17476.39704006126, 7,25,12,15
207,6509451.13922267,815.2532113832032, 7,20, 3,15,22990.642799023623, 7,25,10,15
244,12749673.399825225,1521.856143006317, 7,20, 4,15,53038.631142310165, 7,25,20,15
281,46165882.481495745,59938.60262432081, 7,20, 5,15,81951.81706819107, 7,20,19,15
318,0.0,0.0, 7,20, 1,15,0.0, 7,20, 1,15
355,197687796.27748066,18561.32405820678, 7,20, 4,15,724774.895203776, 7,25,18,15
403,197687796.27748066,18561.32405820678, 7,20, 4,15,724774.895203776, 7,25,18,15
476,106772067.24485716,7098.072629279515, 7,20, 4,15,356036.3026282215, 7,25,12,15
513,0.0,0.0, 7,20, 1,15,0.0, 7,20, 1,15
562,44043986.97194661,0.0, 7,20, 1,60,148710.57496406152, 7,22,17,30
1046,0.0,0.0, 7,20, 1,15,0.0, 7,20, 1,15
1096,406358528.85852075,0.0, 7,20, 1,60,1607204.2825200106, 7,24,15,60
1134,0.0,0.0, 7,20, 1,15,0.0, 7,20, 1,15
1326,99006471.50373757,0.0, 7,20, 1,15,4050000.0, 7,20, 7,15
1379,0.0,0.0, 7,20, 1,15,0.0, 7,20, 1,15
1,ANNUAL,  37.26,-104.34,  -7.00,1749.90
5,365
1038,3.0,0.0, 1, 1, 1,15,0.25, 1,10, 6,15
1039,55.5,0.0, 1, 1, 1,15,0.25, 1,24,16,30
581,0.28271814920593585,0.0, 7,22,23, 3,1.4429557408648659, 6,16,23,60
582,5.594274915505367,0.0, 1, 4, 1,60,44.23583256628647, 4,28,24,60
583,0.02593150816164535,0.0, 8,14,23, 3,0.09506547579110468, 4,13,15,46
1115,20215646268.182903,0.0, 1, 1,13,21,4739764.044882352,12,23, 7,15
1128,6651589586.339998,0.0, 1, 1,13,21,1463429.5441069526,12,23, 7,45
1153,179075597.42703894,0.0, 1, 1,13,21,118852.71412403334, 4, 7, 7,60
1154,1830397727.221307,0.0, 1, 1, 2,30,180000.0, 1, 1,15,30
1155,2463723960.441405,0.0, 1, 1, 1,15,5627324.058483554, 1,10, 7,30
1156,2463723960.441405,0.0, 1, 1, 1,15,5627324.058483554, 1,10, 7,30
1292,-1224433263.8031633,-39831.850139965696, 3,18, 5,45,-1989.8899563896473, 5, 7,15,60
1306,5965670889.080218,0.0, 1, 1, 1,15,4050000.0, 1, 2, 7,15
1307,982611471.820294,0.0, 1, 1, 1,15,7529920.389666913, 2, 6, 6,60
1308,5965670889.080218,0.0, 1, 1, 1,15,4050000.0, 1, 2, 7,15
13,45730495056.93899,151703.1275401932, 3,17, 4,15,11536489.998229425, 1,10, 7,30
61,15743207428.383959,88139.10953165221, 1, 1, 1,15,1282023.4113694867, 1, 1,20,15
134,3685071073.4325233,63564.01800854099, 1, 2, 4,15,156554.22484006523, 1, 1,20,15
170,273393721.45532674,348.4159749238097, 1, 2, 4,15,17476.39704006126, 1, 1,12,15
207,339560869.0695816,815.2532113832032, 1, 2, 3,15,22990.642799023623, 1, 1,10,15
244,664895467.8009144,1521.856143006317, 1, 2, 4,15,53038.631142310165, 1, 1,20,15
281,2407221015.106824,59938.60262432081, 1, 1, 5,15,81951.81706819107, 1, 1,19,15
318,0.0,0.0, 1, 1, 1,15,0.0, 1, 1, 1,15
355,10310294493.051695,18561.32405820678, 1, 2, 4,15,724774.895203776, 1, 1,18,15
403,10310294493.051695,18561.32405820678, 1, 2, 4,15,724774.895203776, 1, 1,18,15
476,5569688622.066177,7098.072629279515, 1, 2, 4,15,356036.3026282215, 1, 1,12,15
513,0.0,0.0, 1, 1, 1,15,0.0, 1, 1, 1,15
562,1629338514.6471846,0.0, 1, 1,13,45,148710.57496406152, 7, 6,18,45
1046,0.0,0.0, 1, 1, 1,15,0.0, 1, 1, 1,15
1096,7582420279.962725,0.0, 1, 1, 1,15,1628770.6868321402, 7, 6,15,60
1134,11124786871.42975,0.0, 1, 4,14,60,6982895.4219726175,12,21, 6,15
1326,5965670889.080225,0.0, 1, 1, 1,15,4050000.0000000014, 3,25,10,30
1379,0.0,0.0, 1, 1, 1,15,0.0, 1, 1, 1,15
End of Data
 Number of Records Written=          99
