Program Version,EnergyPlus, Version 22.2.0-c249759bad, YMD=2023.09.01 15:47
1,5,Environment Title[],Latitude[deg],Longitude[deg],Time Zone[],Elevation[m]
2,8,Day of Simulation[],Month[],Day of Month[],DST Indicator[1=yes 0=no],Hour[],StartMinute[],EndMinute[],DayType
3,5,Cumulative Day of Simulation[],Month[],Day of Month[],DST Indicator[1=yes 0=no],DayType  ! When Daily Report Variables Requested
4,2,Cumulative Days of Simulation[],Month[]  ! When Monthly Report Variables Requested
5,1,Cumulative Days of Simulation[] ! When Run Period Report Variables Requested
6,1,Calendar Year of Simulation[] ! When Annual Report Variables Requested
581,11,LIVING,AFN Zone Infiltration Air Change Rate [ach] !RunPeriod [Value,Min,Month,Day,Hour,Minute,Max,Month,Day,Hour,Minute]
582,11,ATTIC,AFN Zone Infiltration Air Change Rate [ach] !RunPeriod [Value,Min,Month,Day,Hour,Minute,Max,Month,Day,Hour,Minute]
583,11,CRAWLSPACE,AFN Zone Infiltration Air Change Rate [ach] !RunPeriod [Value,Min,Month,Day,Hour,Minute,Max,Month,Day,Hour,Minute]
1038,11,Facility,Facility Heating Setpoint Not Met Time [hr] !RunPeriod [Value,Min,Month,Day,Hour,Minute,Max,Month,Day,Hour,Minute]
1039,11,Facility,Facility Cooling Setpoint Not Met Time [hr] !RunPeriod [Value,Min,Month,Day,Hour,Minute,Max,Month,Day,Hour,Minute]
1115,11,DX_HEATING_COIL,Heating Coil Heating Energy [J] !RunPeriod [Value,Min,Month,Day,Hour,Minute,Max,Month,Day,Hour,Minute]
1128,11,DX_HEATING_COIL,Heating Coil Electricity Energy [J] !RunPeriod [Value,Min,Month,Day,Hour,Minute,Max,Month,Day,Hour,Minute]
1153,11,DX_HEATING_COIL,Heating Coil Defrost Electricity Energy [J] !RunPeriod [Value,Min,Month,Day,Hour,Minute,Max,Month,Day,Hour,Minute]
1154,11,DX_HEATING_COIL,Heating Coil Crankcase Heater Electricity Energy [J] !RunPeriod [Value,Min,Month,Day,Hour,Minute,Max,Month,Day,Hour,Minute]
1155,11,HEATING_RESISTANCE_BACKUP,Heating Coil Heating Energy [J] !RunPeriod [Value,Min,Month,Day,Hour,Minute,Max,Month,Day,Hour,Minute]
1156,11,HEATING_RESISTANCE_BACKUP,Heating Coil Electricity Energy [J] !RunPeriod [Value,Min,Month,Day,Hour,Minute,Max,Month,Day,Hour,Minute]
1292,11,WATER HEATER,Water Heater Heat Loss Energy [J] !RunPeriod [Value,Min,Month,Day,Hour,Minute,Max,Month,Day,Hour,Minute]
1306,11,WATER HEATER,Water Heater Heating Energy [J] !RunPeriod [Value,Min,Month,Day,Hour,Minute,Max,Month,Day,Hour,Minute]
1307,11,WATER HEATER,Water Heater Unmet Demand Heat Transfer Energy [J] !RunPeriod [Value,Min,Month,Day,Hour,Minute,Max,Month,Day,Hour,Minute]
1308,11,WATER HEATER,Water Heater Electricity Energy [J] !RunPeriod [Value,Min,Month,Day,Hour,Minute,Max,Month,Day,Hour,Minute]
13,11,Electricity:Facility [J] !RunPeriod [Value,Min,Month,Day,Hour,Minute,Max,Month,Day,Hour,Minute]
1134,11,Heating:Electricity [J] !RunPeriod [Value,Min,Month,Day,Hour,Minute,Max,Month,Day,Hour,Minute]
1096,11,Cooling:Electricity [J] !RunPeriod [Value,Min,Month,Day,Hour,Minute,Max,Month,Day,Hour,Minute]
562,11,Fans:Electricity [J] !RunPeriod [Value,Min,Month,Day,Hour,Minute,Max,Month,Day,Hour,Minute]
1379,11,Pumps:Electricity [J] !RunPeriod [Value,Min,Month,Day,Hour,Minute,Max,Month,Day,Hour,Minute]
1326,11,WaterSystems:Electricity [J] !RunPeriod [Value,Min,Month,Day,Hour,Minute,Max,Month,Day,Hour,Minute]
61,11,InteriorLights:Electricity [J] !RunPeriod [Value,Min,Month,Day,Hour,Minute,Max,Month,Day,Hour,Minute]
1046,11,ExteriorLights:Electricity [J] !RunPeriod [Value,Min,Month,Day,Hour,Minute,Max,Month,Day,Hour,Minute]
134,11,InteriorEquipment:Electricity [J] !RunPeriod [Value,Min,Month,Day,Hour,Minute,Max,Month,Day,Hour,Minute]
170,11,gas_dryer:InteriorEquipment:Electricity [J] !RunPeriod [Value,Min,Month,Day,Hour,Minute,Max,Month,Day,Hour,Minute]
207,11,clotheswasher:InteriorEquipment:Electricity [J] !RunPeriod [Value,Min,Month,Day,Hour,Minute,Max,Month,Day,Hour,Minute]
244,11,dishwasher:InteriorEquipment:Electricity [J] !RunPeriod [Value,Min,Month,Day,Hour,Minute,Max,Month,Day,Hour,Minute]
281,11,refrigerator:InteriorEquipment:Electricity [J] !RunPeriod [Value,Min,Month,Day,Hour,Minute,Max,Month,Day,Hour,Minute]
318,11,electric_mels:InteriorEquipment:Electricity [J] !RunPeriod [Value,Min,Month,Day,Hour,Minute,Max,Month,Day,Hour,Minute]
355,11,NaturalGas:Facility [J] !RunPeriod [Value,Min,Month,Day,Hour,Minute,Max,Month,Day,Hour,Minute]
403,11,InteriorEquipment:NaturalGas [J] !RunPeriod [Value,Min,Month,Day,Hour,Minute,Max,Month,Day,Hour,Minute]
476,11,gas_dryer:InteriorEquipment:NaturalGas [J] !RunPeriod [Value,Min,Month,Day,Hour,Minute,Max,Month,Day,Hour,Minute]
513,11,gas_mels:InteriorEquipment:NaturalGas [J] !RunPeriod [Value,Min,Month,Day,Hour,Minute,Max,Month,Day,Hour,Minute]
End of Data Dictionary
1,EXTREME_WINTER,  40.65, -73.78,  -5.00,   3.40
5,7
1038,0.5,0.0, 1, 6, 1,15,0.25, 1, 8, 6,15
1039,0.0,0.0, 1, 6, 1,15,0.0, 1, 6, 1,15
581,0.4858560398945227,0.2142770393465348, 1,12,19,30,1.315788862352168, 1, 7,19,52
582,9.2809908782181,0.31147614075874797, 1,12,17,60,26.295045083312125, 1, 7,19,52
583,0.05492846715923599,0.002536458735391745, 1,11,23,22,0.08894465584260032, 1, 7,18,60
1115,1925545175.3282413,0.0, 1, 6,23, 5,3941890.869242212, 1, 9, 5,60
1128,647741335.9712523,0.0, 1, 6,23, 5,1236550.3254396045, 1, 9, 6,45
1153,5343049.860809072,0.0, 1, 6,23, 5,66985.9730609559, 1,12,11,60
1154,22618584.035221606,0.0, 1, 6, 1, 7,176863.75826589778, 1,10,16,30
1155,796409987.9815519,0.0, 1, 6,13,45,6338886.700627682, 1, 7,24,60
1156,796409987.9815519,0.0, 1, 6,13,45,6338886.700627682, 1, 7,24,60
1292,-25404071.754935198,-39750.32520741824, 1,12, 5,60,-6394.31120151722, 1, 6,14,32
1306,232721314.8750235,0.0, 1, 6, 1, 7,10367350.384379212, 1,12, 9,45
1307,6030247.748171345,0.0, 1, 6, 1, 7,5623795.988575653, 1,12,19,60
1308,232721314.8750235,0.0, 1, 6, 1, 7,10367350.384379212, 1,12, 9,45
13,2142533900.64359,530381.5256158239, 1,10,15,60,14879511.651613142, 1, 7,20,15
61,301924526.02383536,88139.10953165221, 1, 6, 1,15,1282023.4113694867, 1, 6,20,15
134,70666020.44019976,63564.01800854099, 1, 6, 4,15,156554.22484006523, 1,11,20,15
170,5241013.419656067,348.4159749238097, 1, 6, 4,15,17476.39704006126, 1,11,12,15
207,6509451.13922267,815.2532113832032, 1, 6, 3,15,22990.642799023623, 1,11,10,15
244,12749673.399825225,1521.856143006317, 1, 6, 4,15,53038.631142310165, 1,11,20,15
281,46165882.481495745,59938.60262432081, 1, 6, 5,15,81951.81706819107, 1, 6,19,15
318,0.0,0.0, 1, 6, 1,15,0.0, 1, 6, 1,15
355,197687796.27748066,18561.32405820678, 1, 6, 4,15,724774.895203776, 1,11,18,15
403,197687796.27748066,18561.32405820678, 1, 6, 4,15,724774.895203776, 1,11,18,15
476,106772067.24485716,7098.072629279515, 1, 6, 4,15,356036.3026282215, 1,11,12,15
513,0.0,0.0, 1, 6, 1,15,0.0, 1, 6, 1,15
562,65109081.45569562,2077.8561141619457, 1,10,16,30,119257.06472088807, 1, 6, 1,15
1046,0.0,0.0, 1, 6, 1,15,0.0, 1, 6, 1,15
1096,0.0,0.0, 1, 6, 1,15,0.0, 1, 6, 1,15
1134,1472112957.8488352,197972.58610273487, 1,10,16,30,7449884.045478377, 1, 7,24,60
1326,232721314.8750234,0.0, 1, 6, 1,15,10367350.384379212, 1,12, 9,45
1379,0.0,0.0, 1, 6, 1,15,0.0, 1, 6, 1,15
1,EXTREME_SUMMER,  40.65, -73.78,  -5.00,   3.40
5,7
1038,0.0,0.0, 6,29, 1,15,0.0, 6,29, 1,15
1039,30.75,0.0, 6,29, 1,15,0.25, 6,29,17,15
581,0.24926419725111226,0.0, 7, 5,19,52,0.646969448907949, 7, 1,16,48
582,5.810088562980098,0.06746413171052279, 7, 5,20,22,14.128071098035571, 7, 2,18,20
583,0.038348414584610496,0.0014158487963105715, 7, 2,23, 3,0.06907544126318438, 7, 1,16,48
1115,0.0,0.0, 6,29, 1,15,0.0, 6,29, 1,15
1128,0.0,0.0, 6,29, 1,15,0.0, 6,29, 1,15
1153,0.0,0.0, 6,29, 1,15,0.0, 6,29, 1,15
1154,0.0,0.0, 6,29, 1,15,0.0, 6,29, 1,15
1155,0.0,0.0, 6,29, 1,15,0.0, 6,29, 1,15
1156,0.0,0.0, 6,29, 1,15,0.0, 6,29, 1,15
1292,-21970050.95965899,-34346.84601876422, 7, 1,20,60,-3705.964367366793, 7, 4,10,59
1306,174471479.53418738,0.0, 6,29, 1,15,5270400.0, 7, 5,19,60
1307,1452320.0198091906,0.0, 6,29, 1,15,738210.4742901254, 7, 5,19,60
1308,174471479.53418738,0.0, 6,29, 1,15,5270400.0, 7, 5,19,60
13,1089148883.6758897,151703.1275401932, 6,30, 4,30,12983924.654506633, 7, 5,19,60
61,301924526.02383536,88139.10953165221, 6,29, 1,15,1282023.4113694867, 6,29,20,15
134,70666020.44019976,63564.01800854099, 6,29, 4,15,156554.22484006523, 7, 4,20,15
170,5241013.419656067,348.4159749238097, 6,29, 4,15,17476.39704006126, 7, 4,12,15
207,6509451.13922267,815.2532113832032, 6,29, 3,15,22990.642799023623, 7, 4,10,15
244,12749673.399825225,1521.856143006317, 6,29, 4,15,53038.631142310165, 7, 4,20,15
281,46165882.481495745,59938.60262432081, 6,29, 5,15,81951.81706819107, 6,29,19,15
318,0.0,0.0, 6,29, 1,15,0.0, 6,29, 1,15
355,197687796.27748066,18561.32405820678, 6,29, 4,15,724774.895203776, 7, 4,18,15
403,197687796.27748066,18561.32405820678, 6,29, 4,15,724774.895203776, 7, 4,18,15
476,106772067.24485716,7098.072629279515, 6,29, 4,15,356036.3026282215, 7, 4,12,15
513,0.0,0.0, 6,29, 1,15,0.0, 6,29, 1,15
562,50268582.95189323,0.0, 6,30, 4,30,119257.06472088807, 6,29,15,45
1046,0.0,0.0, 6,29, 1,15,0.0, 6,29, 1,15
1096,491818274.7257741,0.0, 6,30, 4,30,1307409.2547679585, 7, 2,18,60
1134,0.0,0.0, 6,29, 1,15,0.0, 6,29, 1,15
1326,174471479.5341874,0.0, 6,29, 1,15,10365887.199106837, 7, 5,19,60
1379,0.0,0.0, 6,29, 1,15,0.0, 6,29, 1,15
1,ANNUAL,  40.65, -73.78,  -5.00,   3.40
5,365
1038,20.0,0.0, 1, 1, 1,15,0.25, 1, 2, 6,15
1039,466.5,0.0, 1, 1, 1,15,0.25, 4,25,11,30
581,0.3277857970449078,0.0, 5,30,23, 3,1.3813809283832772, 3, 2,14,60
582,6.339587032054083,0.0, 1, 4, 3,60,34.09058877018884, 2,12,15,60
583,0.026532010010856758,0.0, 5,30,23, 3,0.09438605639550081, 3, 2,14,60
1115,23739080247.072475,0.0, 1, 1,15,30,4446480.43061171, 3,12, 6,15
1128,7319477067.721206,0.0, 1, 1,15,30,1271960.9890734788,11,20, 6,45
1153,108350974.06034787,0.0, 1, 1,15,30,100569.02057959649,10,29,22,60
1154,1486127024.14878,0.0, 1, 1, 6, 5,180000.0, 1, 1,15,30
1155,3645247393.6337695,0.0, 1, 1, 1, 7,6338886.700627682, 1, 7,24,60
1156,3645247393.6337695,0.0, 1, 1, 1, 7,6338886.700627682, 1, 7,24,60
1292,-1226489935.7896218,-39790.25860063572, 2, 2, 1,45,-2911.006773101524, 4,10,10,45
1306,10623477655.617908,0.0, 1, 1, 1, 7,10540800.0,12,17,19,60
1307,188907547.36104253,0.0, 1, 1, 1, 7,5950395.1796712205, 2, 5,19,60
1308,10623477655.617908,0.0, 1, 1, 1, 7,10540800.0,12,17,19,60
13,52696149592.38927,151703.1275401932, 4,14, 4,15,15878879.83312457, 1, 8, 9,45
61,15743207428.383959,88139.10953165221, 1, 1, 1,15,1282023.4113694867, 1, 1,20,15
134,3685071073.4325233,63564.01800854099, 1, 2, 4,15,156554.22484006523, 1, 1,20,15
170,273393721.45532674,348.4159749238097, 1, 2, 4,15,17476.39704006126, 1, 1,12,15
207,339560869.0695816,815.2532113832032, 1, 2, 3,15,22990.642799023623, 1, 1,10,15
244,664895467.8009144,1521.856143006317, 1, 2, 4,15,53038.631142310165, 1, 1,20,15
281,2407221015.106824,59938.60262432081, 1, 1, 5,15,81951.81706819107, 1, 1,19,15
318,0.0,0.0, 1, 1, 1,15,0.0, 1, 1, 1,15
355,10310294493.051695,18561.32405820678, 1, 2, 4,15,724774.895203776, 1, 1,18,15
403,10310294493.051695,18561.32405820678, 1, 2, 4,15,724774.895203776, 1, 1,18,15
476,5569688622.066177,7098.072629279515, 1, 2, 4,15,356036.3026282215, 1, 1,12,15
513,0.0,0.0, 1, 1, 1,15,0.0, 1, 1, 1,15
562,1629999003.15976,0.0, 1, 1,15,30,119257.06472088807, 1, 1, 6,30
1046,0.0,0.0, 1, 1, 1,15,0.0, 1, 1, 1,15
1096,8455191972.229048,0.0, 1, 1, 1,15,1431421.8055705396, 7, 8,14,60
1134,12559202459.564178,0.0, 1, 4,19,15,7490302.982694842, 1,31, 7,15
1326,10623477655.6179,0.0, 1, 1, 1,15,10540800.0, 4, 2,19,60
1379,0.0,0.0, 1, 1, 1,15,0.0, 1, 1, 1,15
End of Data
 Number of Records Written=          99
