Program Version,EnergyPlus, Version 22.2.0-c249759bad, YMD=2023.09.01 14:31
1,5,Environment Title[],Latitude[deg],Longitude[deg],Time Zone[],Elevation[m]
2,8,Day of Simulation[],Month[],Day of Month[],DST Indicator[1=yes 0=no],Hour[],StartMinute[],EndMinute[],DayType
3,5,Cumulative Day of Simulation[],Month[],Day of Month[],DST Indicator[1=yes 0=no],DayType  ! When Daily Report Variables Requested
4,2,Cumulative Days of Simulation[],Month[]  ! When Monthly Report Variables Requested
5,1,Cumulative Days of Simulation[] ! When Run Period Report Variables Requested
6,1,Calendar Year of Simulation[] ! When Annual Report Variables Requested
7,1,Environment,Site Outdoor Air Drybulb Temperature [C] !Hourly
545,1,LIVING,Zone Mean Air Temperature [C] !Hourly
546,1,ATTIC,Zone Mean Air Temperature [C] !Hourly
547,1,CRAWLSPACE,Zone Mean Air Temperature [C] !Hourly
548,1,FAN,Fan Electricity Rate [W] !Hourly
720,1,LIVING,Zone Predicted Sensible Load to Heating Setpoint Heat Transfer Rate [W] !Hourly
721,1,LIVING,Zone System Predicted Sensible Load to Heating Setpoint Heat Transfer Rate [W] !Hourly
784,1,ATTIC,Zone Predicted Sensible Load to Heating Setpoint Heat Transfer Rate [W] !Hourly
785,1,ATTIC,Zone System Predicted Sensible Load to Heating Setpoint Heat Transfer Rate [W] !Hourly
848,1,CRAWLSPACE,Zone Predicted Sensible Load to Heating Setpoint Heat Transfer Rate [W] !Hourly
849,1,CRAWLSPACE,Zone System Predicted Sensible Load to Heating Setpoint Heat Transfer Rate [W] !Hourly
1121,1,DX_HEATING_COIL,Heating Coil Heating Rate [W] !Hourly
1135,1,DX_HEATING_COIL,Heating Coil Electricity Rate [W] !Hourly
1161,1,DX_HEATING_COIL,Heating Coil Defrost Electricity Rate [W] !Hourly
1163,1,DX_HEATING_COIL,Heating Coil Crankcase Heater Electricity Rate [W] !Hourly
1166,1,HEATING_RESISTANCE_BACKUP,Heating Coil Heating Rate [W] !Hourly
1168,1,HEATING_RESISTANCE_BACKUP,Heating Coil Electricity Rate [W] !Hourly
End of Data Dictionary
1,EXTREME_WINTER,  38.84, -99.27,  -6.00, 609.00
2,1, 1, 6, 0, 1, 0.00,60.00,Monday
7,-4.0
545,18.65765832914555
546,-1.1461599829906295
547,17.803320912435296
548,124.99904823859364
720,2371.0398722353784
721,2371.0398722353784
784,0.0
785,0.0
848,0.0
849,0.0
1121,3516.894046699932
1135,1155.7053930918364
1161,15.10872489087386
1163,53.26140787408833
1166,0.0
1168,0.0
2,1, 1, 6, 0, 2, 0.00,60.00,Monday
7,-3.0
545,18.380040442924894
546,-0.43220718061779373
547,17.28573298868762
548,157.4422105046005
720,3322.2332385835853
721,3322.2332385835853
784,0.0
785,0.0
848,0.0
849,0.0
1121,4629.650852684132
1135,1474.3539017841667
1161,24.268771371649226
1163,15.09895047484424
1166,0.0
1168,0.0
2,1, 1, 6, 0, 3, 0.00,60.00,Monday
7,-4.0
545,18.565961311742672
546,-0.48817864841916436
547,17.06627559999001
548,158.2433692491177
720,3284.6951876104176
721,3284.6951876104176
784,0.0
785,0.0
848,0.0
849,0.0
1121,4599.812273232496
1135,1479.3526518413262
1161,8.242282051937602
1163,14.558068293432068
1166,0.0
1168,0.0
2,1, 1, 6, 0, 4, 0.00,60.00,Monday
7,-6.0
545,18.564141896886653
546,-0.7789146630776623
547,16.795328691452262
548,170.88852558537974
720,3528.8862874471015
721,3528.8862874471015
784,0.0
785,0.0
848,0.0
849,0.0
1121,4762.2092920517
1135,1586.0565521268893
1161,0.08232033288084861
1163,0.0
1166,192.23516127958737
1168,192.23516127958737
2,1, 1, 6, 0, 5, 0.00,60.00,Monday
7,-7.0
545,18.587802221998835
546,-1.6294974738978751
547,16.57683946796018
548,170.88852558537974
720,3684.8752408078235
721,3684.8752408078235
784,0.0
785,0.0
848,0.0
849,0.0
1121,4610.635300058697
1135,1567.4924528762922
1161,3.713592912923162
1163,0.0
1166,558.202320621639
1168,558.202320621639
2,1, 1, 6, 0, 6, 0.00,60.00,Monday
7,-8.0
545,19.31320360868673
546,-2.387865953047966
547,16.36694982357786
548,170.88852558537974
720,5045.068420856127
721,5045.068420856127
784,0.0
785,0.0
848,0.0
849,0.0
1121,4488.819032000323
1135,1559.3433429375432
1161,0.08232033288084861
1163,0.0
1166,2297.393912551006
1168,2297.393912551006
2,1, 1, 6, 0, 7, 0.00,60.00,Monday
7,-9.0
545,19.574515110256055
546,-3.1594255504337365
547,16.20349856190888
548,170.88852558537974
720,4862.874805359541
721,4862.874805359541
784,0.0
785,0.0
848,0.0
849,0.0
1121,4336.576712826733
1135,1567.1257474516115
1161,0.08232033288084861
1163,0.0
1166,2368.367101665096
1168,2368.367101665096
2,1, 1, 6, 0, 8, 0.00,60.00,Monday
7,-9.0
545,19.668795687931766
546,-3.754940814333665
547,16.033725326011478
548,170.88852558537974
720,4334.76980879994
721,4334.76980879994
784,0.0
785,0.0
848,0.0
849,0.0
1121,4329.812845384313
1135,1574.6831853475373
1161,0.08232033288084861
1163,0.0
1166,1836.2094556713564
1168,1836.2094556713564
2,1, 1, 6, 0, 9, 0.00,60.00,Monday
7,-9.0
545,19.69770138009951
546,-3.0732241719648434
547,15.8668158817063
548,170.88852558537974
720,4100.92274824125
721,4100.92274824125
784,0.0
785,0.0
848,0.0
849,0.0
1121,4327.525952050183
1135,1577.2367858126133
1161,0.08232033288084861
1163,0.0
1166,1609.8940432639156
1168,1609.8940432639156
2,1, 1, 6, 0,10, 0.00,60.00,Monday
7,-8.0
545,19.735598694762512
546,-1.0947946384662222
547,15.723849386173857
548,170.88852558537974
720,2905.130900466602
721,2905.130900466602
784,0.0
785,0.0
848,0.0
849,0.0
1121,4460.100715054635
1135,1591.8653867507246
1161,0.08232033288084861
1163,0.0
1166,75.92512060325816
1168,75.92512060325816
2,1, 1, 6, 0,11, 0.00,60.00,Monday
7,-7.0
545,19.90749298703836
546,1.7187921081657416
547,15.599107637331276
548,129.08599597197625
720,2117.8579504846857
721,2117.8579504846857
784,0.0
785,0.0
848,0.0
849,0.0
1121,3368.69350998873
1135,1213.927851612391
1161,0.062184276780370085
1163,48.9212212725711
1166,0.0
1168,0.0
2,1, 1, 6, 0,12, 0.00,60.00,Monday
7,-6.0
545,20.06720091186067
546,6.660763098186892
547,15.501497952764467
548,73.86890576688668
720,1170.7270651478484
721,1170.7270651478484
784,0.0
785,0.0
848,0.0
849,0.0
1121,1909.4244756811172
1135,703.0908766881832
1161,0.03558462759688838
1163,113.54595796303697
1166,0.0
1168,0.0
2,1, 1, 6, 0,13, 0.00,60.00,Monday
7,-5.0
545,20.00259974447898
546,12.177433243449109
547,15.424649208579895
548,32.219099397551446
720,511.30089860285443
721,511.30089860285443
784,0.0
785,0.0
848,0.0
849,0.0
1121,833.2283575435065
1135,310.2851803510266
1161,0.015520778199432265
1163,162.29175063736145
1166,0.0
1168,0.0
2,1, 1, 6, 0,14, 0.00,60.00,Monday
7,-3.0
545,19.711577024814616
546,11.423187938779868
547,15.371353307476422
548,8.823536442553289
720,142.7165200167783
721,142.7165200167783
784,0.0
785,0.0
848,0.0
849,0.0
1121,238.06198118512387
1135,86.32216317470338
1161,0.0042505148909857526
1163,189.67323201392298
1166,0.0
1168,0.0
2,1, 1, 6, 0,15, 0.00,60.00,Monday
7,-2.0
545,19.9883395118325
546,10.714364588661697
547,15.34356772998468
548,0.0
720,-187.3186642132987
721,-187.3186642132987
784,0.0
785,0.0
848,0.0
849,0.0
1121,0.0
1135,0.0
1161,0.0
1163,200.0
1166,0.0
1168,0.0
2,1, 1, 6, 0,16, 0.00,60.00,Monday
7,-2.0
545,20.23081981056153
546,8.186342672353469
547,15.334349989782396
548,0.0
720,-440.8433845723248
721,-440.8433845723248
784,0.0
785,0.0
848,0.0
849,0.0
1121,0.0
1135,0.0
1161,0.0
1163,200.0
1166,0.0
1168,0.0
2,1, 1, 6, 0,17, 0.00,60.00,Monday
7,-2.0
545,20.81642036529808
546,6.627659650323224
547,15.340478661632353
548,0.0
720,-939.247784768826
721,-939.247784768826
784,0.0
785,0.0
848,0.0
849,0.0
1121,0.0
1135,0.0
1161,0.0
1163,200.0
1166,0.0
1168,0.0
2,1, 1, 6, 0,18, 0.00,60.00,Monday
7,-4.0
545,19.74599559342076
546,3.0013341595721523
547,15.344324114832856
548,0.0
720,-19.84467543259416
721,-19.84467543259416
784,0.0
785,0.0
848,0.0
849,0.0
1121,0.0
1135,0.0
1161,0.0
1163,200.0
1166,0.0
1168,0.0
2,1, 1, 6, 0,19, 0.00,60.00,Monday
7,-3.0
545,19.733435410754815
546,0.2651746819469353
547,15.346635054662785
548,3.4872710498839403
720,52.227760826554004
721,52.227760826554004
784,0.0
785,0.0
848,0.0
849,0.0
1121,93.84349849325773
1135,33.92785414432929
1161,0.014830655237401395
1163,195.91827494087917
1166,0.0
1168,0.0
2,1, 1, 6, 0,20, 0.00,60.00,Monday
7,-5.0
545,19.27588735845844
546,-2.286335554822263
547,15.317376650031518
548,22.024440039750598
720,424.2779603176641
721,424.2779603176641
784,0.0
785,0.0
848,0.0
849,0.0
1121,563.6111097004513
1135,209.7271574795385
1161,0.8968846795516787
1163,174.1940306566771
1166,0.0
1168,0.0
2,1, 1, 6, 0,21, 0.00,60.00,Monday
7,-5.0
545,19.263531008946753
546,-2.6723993251181906
547,15.266646892739434
548,59.1624144786349
720,1154.3188394486351
721,1154.3188394486351
784,0.0
785,0.0
848,0.0
849,0.0
1121,1564.6734403324529
1135,560.8484395987077
1161,0.028500072126799007
1163,130.75812225382924
1166,0.0
1168,0.0
2,1, 1, 6, 0,22, 0.00,60.00,Monday
7,-5.0
545,18.825587008589316
546,-2.333712571325575
547,15.197350180325897
548,106.74979513614235
720,2096.0053124451388
721,2096.0053124451388
784,0.0
785,0.0
848,0.0
849,0.0
1121,2916.541302325237
1135,1011.4089613504684
1161,0.05142414962729848
1163,75.06330981015255
1166,0.0
1168,0.0
2,1, 1, 6, 0,23, 0.00,60.00,Monday
7,-4.0
545,18.409447805344357
546,-1.2942744587308523
547,15.103614285983205
548,131.4941525008876
720,2661.25994754358
721,2661.25994754358
784,0.0
785,0.0
848,0.0
849,0.0
1121,3770.7094227977764
1135,1245.3628716592896
1161,0.063344055531955
1163,46.10350003409265
1166,0.0
1168,0.0
2,1, 1, 6, 0,24, 0.00,60.00,Monday
7,-6.0
545,18.295201281034654
546,-1.9032841020469473
547,14.971791961310894
548,170.88852558537974
720,3819.9055948077767
721,3819.9055948077767
784,0.0
785,0.0
848,0.0
849,0.0
1121,4769.020967835187
1135,1578.1839843820105
1161,0.08232033288084861
1163,0.0
1166,584.5453702579753
1168,584.5453702579753
2,2, 1, 7, 0, 1, 0.00,60.00,Tuesday
7,-7.0
545,18.452653087297918
546,-2.47157062305789
547,14.861910530309373
548,170.88852558537974
720,5109.659210363405
721,5109.659210363405
784,0.0
785,0.0
848,0.0
849,0.0
1121,4634.33252246511
1135,1561.3040957754615
1161,0.08232033288084861
1163,0.0
1166,2304.9905035646807
1168,2304.9905035646807
2,2, 1, 7, 0, 2, 0.00,60.00,Tuesday
7,-8.0
545,18.52237461261465
546,-3.1763361166997894
547,14.747312998563082
548,170.88852558537974
720,5740.550910746802
721,5740.550910746802
784,0.0
785,0.0
848,0.0
849,0.0
1121,4494.712813000355
1135,1552.6606716481378
1161,0.08232033288084861
1163,0.0
1166,3259.955172361263
1168,3259.955172361263
2,2, 1, 7, 0, 3, 0.00,60.00,Tuesday
7,-9.0
545,18.528173918102492
546,-3.7779613046687865
547,14.612885752295158
548,170.88852558537974
720,6845.693341113725
721,6845.693341113725
784,0.0
785,0.0
848,0.0
849,0.0
1121,4359.752731991828
1135,1541.1818354436396
1161,0.08232033288084861
1163,0.0
1166,4764.42421356231
1168,4764.42421356231
2,2, 1, 7, 0, 4, 0.00,60.00,Tuesday
7,-9.0
545,18.577939472653096
546,-3.9264269763538855
547,14.506777367371578
548,170.88852558537974
720,5847.165258188481
721,5847.165258188481
784,0.0
785,0.0
848,0.0
849,0.0
1121,4359.703478877102
1135,1541.2370431525567
1161,0.08232033288084861
1163,0.0
1166,3642.573907657239
1168,3642.573907657239
2,2, 1, 7, 0, 5, 0.00,60.00,Tuesday
7,-9.0
545,18.575874291136337
546,-3.857755331377001
547,14.377694586741784
548,170.88852558537974
720,6043.022520575203
721,6043.022520575203
784,0.0
785,0.0
848,0.0
849,0.0
1121,4358.548490839695
1135,1542.53158547075
1161,0.08232033288084861
1163,0.0
1166,3869.1312689664437
1168,3869.1312689664437
2,2, 1, 7, 0, 6, 0.00,60.00,Tuesday
7,-10.0
545,19.324222238479198
546,-4.39221973432712
547,14.247181478703075
548,170.88852558537974
720,6869.046505220742
721,6869.046505220742
784,0.0
785,0.0
848,0.0
849,0.0
1121,4227.709956248645
1135,1528.8320119085356
1161,0.08232033288084861
1163,0.0
1166,4939.677941982192
1168,4939.677941982192
2,2, 1, 7, 0, 7, 0.00,60.00,Tuesday
7,-11.0
545,19.54089770915137
546,-5.028494675905364
547,14.13545326446363
548,170.88852558537974
720,7861.330259059532
721,7861.330259059532
784,0.0
785,0.0
848,0.0
849,0.0
1121,4079.6900456838357
1135,1536.1499274964026
1161,0.08232033288084861
1163,0.0
1166,6367.929383156032
1168,6367.929383156032
2,2, 1, 7, 0, 8, 0.00,60.00,Tuesday
7,-11.0
545,19.643253265993444
546,-5.299218672977681
547,14.022861986632192
548,170.88852558537974
720,7019.344123114162
721,7019.344123114162
784,0.0
785,0.0
848,0.0
849,0.0
1121,4074.110025438505
1135,1542.205762383079
1161,0.08232033288084861
1163,0.0
1166,5470.508849608649
1168,5470.508849608649
2,2, 1, 7, 0, 9, 0.00,60.00,Tuesday
7,-11.0
545,19.68039602723567
546,-4.923456246277524
547,13.907210350186888
548,170.88852558537974
720,6408.951512005613
721,6408.951512005613
784,0.0
785,0.0
848,0.0
849,0.0
1121,4071.5295086989904
1135,1545.0036872626085
1161,0.08232033288084861
1163,0.0
1166,4768.384292548799
1168,4768.384292548799
2,2, 1, 7, 0,10, 0.00,60.00,Tuesday
7,-10.0
545,19.676901658759675
546,-4.368394979065861
547,13.789026748246021
548,170.88852558537974
720,6666.673342345433
721,6666.673342345433
784,0.0
785,0.0
848,0.0
849,0.0
1121,4199.3794592435515
1135,1560.1009726043646
1161,0.08232033288084861
1163,0.0
1166,4936.822500781656
1168,4936.822500781656
2,2, 1, 7, 0,11, 0.00,60.00,Tuesday
7,-11.0
545,19.66793971825722
546,-4.915944540433316
547,13.65825959025444
548,170.88852558537974
720,7062.199272223703
721,7062.199272223703
784,0.0
785,0.0
848,0.0
849,0.0
1121,4071.107587483455
1135,1545.4609945783193
1161,0.08232033288084861
1163,0.0
1166,5526.553717265863
1168,5526.553717265863
2,2, 1, 7, 0,12, 0.00,60.00,Tuesday
7,-9.0
545,19.74730024282686
546,-1.4878564781961359
547,13.598069410103832
548,170.88852558537974
720,4041.140658701148
721,4041.140658701148
784,0.0
785,0.0
848,0.0
849,0.0
1121,4330.834188414303
1135,1573.5424631756384
1161,0.08232033288084861
1163,0.0
1166,1767.5867078185543
1168,1767.5867078185543
2,2, 1, 7, 0,13, 0.00,60.00,Tuesday
7,-9.0
545,19.778296589636398
546,2.2223699588490975
547,13.523051150585065
548,170.88852558537974
720,2747.169221365728
721,2747.169221365728
784,0.0
785,0.0
848,0.0
849,0.0
1121,4328.739921652096
1135,1575.8813410213215
1161,0.08232033288084861
1163,0.0
1166,43.30332835447143
1168,43.30332835447143
2,2, 1, 7, 0,14, 0.00,60.00,Tuesday
7,-10.0
545,19.76044487264525
546,1.8570937870299904
547,13.466249604308112
548,170.88852558537974
720,2894.5967020359058
721,2894.5967020359058
784,0.0
785,0.0
848,0.0
849,0.0
1121,4197.1922423545275
1135,1562.5085401765432
1161,0.08232033288084861
1163,0.0
1166,116.9777644187202
1168,116.9777644187202
2,2, 1, 7, 0,15, 0.00,60.00,Tuesday
7,-9.0
545,20.0185122396773
546,4.475107686935344
547,13.41900797891966
548,101.23824164989138
720,1500.1982354563243
721,1500.1982354563243
784,0.0
785,0.0
848,0.0
849,0.0
1121,2441.09942501657
1135,934.02910668551
1161,0.04876941859141269
1163,81.51306758683276
1166,0.0
1168,0.0
2,2, 1, 7, 0,16, 0.00,60.00,Tuesday
7,-9.0
545,20.091917691937052
546,4.48957272145593
547,13.401331843429821
548,59.72214890065374
720,860.1681863640824
721,860.1681863640824
784,0.0
785,0.0
848,0.0
849,0.0
1121,1397.721338003461
1135,553.7747804172272
1161,0.02876990481361022
1163,130.10255472301816
1166,0.0
1168,0.0
2,2, 1, 7, 0,17, 0.00,60.00,Tuesday
7,-11.0
545,19.827748253258715
546,2.370005942539276
547,13.398955077702967
548,36.07474408024252
720,470.33740671410305
721,470.33740671410305
784,0.0
785,0.0
848,0.0
849,0.0
1121,780.8374381581308
1135,328.9004627059442
1161,0.017378327455840135
1163,157.77877263690436
1166,0.0
1168,0.0
2,2, 1, 7, 0,18, 0.00,60.00,Tuesday
7,-13.0
545,19.405246605933293
546,-1.648570026384997
547,13.447493389884745
548,108.69392694373326
720,1659.1528230728127
721,1659.1528230728127
784,0.0
785,0.0
848,0.0
849,0.0
1121,2323.10745868562
1135,967.0800268539157
1161,0.05236147731956434
1163,72.78604085492964
1166,0.0
1168,0.0
2,2, 1, 7, 0,19, 0.00,60.00,Tuesday
7,-14.0
545,19.224727756331333
546,-4.300841642315622
547,13.4449881571546
548,169.26869982675353
720,2458.7498410323897
721,2458.7498410323897
784,0.0
785,0.0
848,0.0
849,0.0
1121,3666.776571422054
1135,1479.531189173129
1161,0.08154254668408055
1163,1.8896575598007948
1166,0.0
1168,0.0
2,2, 1, 7, 0,20, 0.00,60.00,Tuesday
7,-15.0
545,19.430322246484966
546,-6.15065045085659
547,13.40351535453338
548,170.88852558537974
720,2952.389777740531
721,2952.389777740531
784,0.0
785,0.0
848,0.0
849,0.0
1121,3591.2981215755403
1135,1473.7299918816716
1161,0.08232033288084861
1163,0.0
1166,979.7243451712823
1168,979.7243451712823
2,2, 1, 7, 0,21, 0.00,60.00,Tuesday
7,-14.0
545,19.573306527353353
546,-7.02036880485417
547,13.37215629361971
548,170.88852558537974
720,3418.9427641569782
721,3418.9427641569782
784,0.0
785,0.0
848,0.0
849,0.0
1121,3705.619208498999
1135,1494.228732501835
1161,0.08232033288084861
1163,0.0
1166,1568.2462590793414
1168,1568.2462590793414
2,2, 1, 7, 0,22, 0.00,60.00,Tuesday
7,-14.0
545,19.637609049042137
546,-7.325733767622196
547,13.303761405726865
548,170.88852558537974
720,3983.448553016662
721,3983.448553016662
784,0.0
785,0.0
848,0.0
849,0.0
1121,3701.9712177028696
1135,1497.972821334271
1161,0.08232033288084861
1163,0.0
1166,2308.1790480460545
1168,2308.1790480460545
2,2, 1, 7, 0,23, 0.00,60.00,Tuesday
7,-14.0
545,18.948675190829103
546,-7.650366732320809
547,13.220187694165578
548,170.88852558537974
720,3639.7506840670594
721,3639.7506840670594
784,0.0
785,0.0
848,0.0
849,0.0
1121,3700.4113624992906
1135,1499.57215636599
1161,0.08232033288084861
1163,0.0
1166,1963.6005435868797
1168,1963.6005435868797
2,2, 1, 7, 0,24, 0.00,60.00,Tuesday
7,-13.0
545,18.707715791622817
546,-7.5239871202704105
547,13.098790136102071
548,170.88852558537974
720,4168.6199681786165
721,4168.6199681786165
784,0.0
785,0.0
848,0.0
849,0.0
1121,3840.1437740523133
1135,1495.7990142400859
1161,0.08232033288084861
1163,0.0
1166,2398.3262649614317
1168,2398.3262649614317
2,3, 1, 8, 0, 1, 0.00,60.00,Wednesday
7,-12.0
545,18.600148188001583
546,-7.135896768493165
547,12.986283059765281
548,170.88852558537974
720,5405.626035257414
721,5405.626035257414
784,0.0
785,0.0
848,0.0
849,0.0
1121,3970.743743712262
1135,1503.1912009788075
1161,0.08232033288084861
1163,0.0
1166,3694.802102201622
1168,3694.802102201622
2,3, 1, 8, 0, 2, 0.00,60.00,Wednesday
7,-11.0
545,18.56679421957264
546,-6.445684053876292
547,12.870448701443513
548,170.88852558537974
720,6184.1388682066245
721,6184.1388682066245
784,0.0
785,0.0
848,0.0
849,0.0
1121,4100.194249882543
1135,1513.833481999851
1161,0.08232033288084861
1163,0.0
1166,4482.6992764237075
1168,4482.6992764237075
2,3, 1, 8, 0, 3, 0.00,60.00,Wednesday
7,-11.0
545,18.57595402128499
546,-6.16762324624906
547,12.755826188842642
548,170.88852558537974
720,6073.432692979299
721,6073.432692979299
784,0.0
785,0.0
848,0.0
849,0.0
1121,4101.1804305229825
1135,1512.7577286676315
1161,0.08232033288084861
1163,0.0
1166,4331.807484993669
1168,4331.807484993669
2,3, 1, 8, 0, 4, 0.00,60.00,Wednesday
7,-10.0
545,18.568796037779382
546,-5.567565370467
547,12.64496707503535
548,170.88852558537974
720,6419.711616690725
721,6419.711616690725
784,0.0
785,0.0
848,0.0
849,0.0
1121,4229.897112608974
1135,1526.4119624947969
1161,0.08232033288084861
1163,0.0
1166,4597.771193870389
1168,4597.771193870389
2,3, 1, 8, 0, 5, 0.00,60.00,Wednesday
7,-9.0
545,18.57905060235141
546,-4.862530844247296
547,12.539331200478035
548,170.88852558537974
720,6222.222433178747
721,6222.222433178747
784,0.0
785,0.0
848,0.0
849,0.0
1121,4361.279024387524
1135,1539.4708786874303
1161,0.08232033288084861
1163,0.0
1166,4219.549378903593
1168,4219.549378903593
2,3, 1, 8, 0, 6, 0.00,60.00,Wednesday
7,-9.0
545,19.338454611198237
546,-4.482633697270123
547,12.433105667953404
548,170.88852558537974
720,6902.935677162801
721,6902.935677162801
784,0.0
785,0.0
848,0.0
849,0.0
1121,4361.115458373097
1135,1539.6542471695643
1161,0.08232033288084861
1163,0.0
1166,4951.595434570181
1168,4951.595434570181
2,3, 1, 8, 0, 7, 0.00,60.00,Wednesday
7,-8.0
545,19.599158594548214
546,-3.7381583562030247
547,12.378715601557168
548,170.88852558537974
720,5940.4315696779195
721,5940.4315696779195
784,0.0
785,0.0
848,0.0
849,0.0
1121,4474.44310537758
1135,1575.632694362465
1161,0.08232033288084861
1163,0.0
1166,3766.485820979292
1168,3766.485820979292
2,3, 1, 8, 0, 8, 0.00,60.00,Wednesday
7,-7.0
545,19.67469561476703
546,-3.145393780860275
547,12.295040566969334
548,170.88852558537974
720,5645.100894305684
721,5645.100894305684
784,0.0
785,0.0
848,0.0
849,0.0
1121,4603.046575104661
1135,1597.135993233647
1161,0.08232033288084861
1163,0.0
1166,3270.49375734595
1168,3270.49375734595
2,3, 1, 8, 0, 9, 0.00,60.00,Wednesday
7,-5.0
545,19.70377787101798
546,-2.2643187061995436
547,12.22924224733539
548,170.88852558537974
720,5227.793603981545
721,5227.793603981545
784,0.0
785,0.0
848,0.0
849,0.0
1121,4878.875116017296
1135,1626.7676267696183
1161,0.08232033288084861
1163,0.0
1166,2480.643217893628
1168,2480.643217893628
2,3, 1, 8, 0,10, 0.00,60.00,Wednesday
7,-3.0
545,19.72855908281883
546,-0.42282850199136995
547,12.170807375956842
548,170.88852558537974
720,4328.7920540400155
721,4328.7920540400155
784,0.0
785,0.0
848,0.0
849,0.0
1121,5164.983197406325
1135,1655.336059596964
1161,0.08232033288084861
1163,0.0
1166,1106.7816580808158
1168,1106.7816580808158
2,3, 1, 8, 0,11, 0.00,60.00,Wednesday
7,1.0
545,19.950398851892615
546,2.5467866455409536
547,12.04040443769763
548,100.12509588806225
720,2021.897869400922
721,2021.897869400922
784,0.0
785,0.0
848,0.0
849,0.0
1121,3213.185089033927
1135,1004.8594207092285
1161,0.04823249028636603
1163,82.81755284887322
1166,0.0
1168,0.0
2,3, 1, 8, 0,12, 0.00,60.00,Wednesday
7,3.0
545,19.94451347749721
546,6.682161448275321
547,11.95726877034973
548,53.92162681699787
720,1131.5789505641078
721,1131.5789505641078
784,0.0
785,0.0
848,0.0
849,0.0
1121,1766.6436603276006
1135,553.5956253583375
1161,0.02597519570438239
1163,136.8923939071549
1166,0.0
1168,0.0
2,3, 1, 8, 0,13, 0.00,60.00,Wednesday
7,7.0
545,20.041456415104705
546,11.763389367250802
547,11.900332897109667
548,15.288483573896809
720,390.11918659921685
721,390.11918659921685
784,0.0
785,0.0
848,0.0
849,0.0
1121,618.3664696966365
1135,171.28620513565988
1161,0.0
1163,182.10706831072946
1166,0.0
1168,0.0
2,3, 1, 8, 0,14, 0.00,60.00,Wednesday
7,7.0
545,19.946702456166395
546,12.863001994816011
547,11.911919278233112
548,0.0
720,-438.9458782769725
721,-438.9458782769725
784,0.0
785,0.0
848,0.0
849,0.0
1121,0.0
1135,0.0
1161,0.0
1163,200.0
1166,0.0
1168,0.0
2,3, 1, 8, 0,15, 0.00,60.00,Wednesday
7,8.0
545,20.15013654679034
546,12.906386846274312
547,11.978132304198715
548,0.0
720,-350.10128835134856
721,-350.10128835134856
784,0.0
785,0.0
848,0.0
849,0.0
1121,0.0
1135,0.0
1161,0.0
1163,200.0
1166,0.0
1168,0.0
2,3, 1, 8, 0,16, 0.00,60.00,Wednesday
7,8.0
545,21.081860647566597
546,13.012923132239107
547,12.06748122002483
548,0.0
720,-1150.0162556012674
721,-1150.0162556012674
784,0.0
785,0.0
848,0.0
849,0.0
1121,0.0
1135,0.0
1161,0.0
1163,200.0
1166,0.0
1168,0.0
2,3, 1, 8, 0,17, 0.00,60.00,Wednesday
7,6.0
545,21.22296629251037
546,10.598142015590042
547,12.172350965421234
548,0.0
720,-1221.141418237652
721,-1221.141418237652
784,0.0
785,0.0
848,0.0
849,0.0
1121,0.0
1135,0.0
1161,0.0
1163,200.0
1166,0.0
1168,0.0
2,3, 1, 8, 0,18, 0.00,60.00,Wednesday
7,4.0
545,20.002850240002772
546,7.630711556274105
547,12.283194440600719
548,0.0
720,-251.47287007072737
721,-251.47287007072737
784,0.0
785,0.0
848,0.0
849,0.0
1121,0.0
1135,0.0
1161,0.0
1163,200.0
1166,0.0
1168,0.0
2,3, 1, 8, 0,19, 0.00,60.00,Wednesday
7,1.0
545,19.626668167565434
546,4.5515093667438515
547,12.478980781250403
548,70.11742726264949
720,1711.700466376944
721,1711.700466376944
784,0.0
785,0.0
848,0.0
849,0.0
1121,2201.732298834696
1135,707.4743123394161
1161,0.03377712775787072
1163,117.93733923121978
1166,0.0
1168,0.0
2,3, 1, 8, 0,20, 0.00,60.00,Wednesday
7,-1.0
545,19.72999693175434
546,2.8573764150449543
547,12.550421770259302
548,96.7177366657074
720,2201.1635488646225
721,2201.1635488646225
784,0.0
785,0.0
848,0.0
849,0.0
1121,2934.1410512732677
1135,952.0158260251737
1161,0.046591196307111574
1163,86.8051314259183
1166,0.0
1168,0.0
2,3, 1, 8, 0,21, 0.00,60.00,Wednesday
7,-2.0
545,19.525568674319526
546,1.7395411744355311
547,12.609993085352714
548,118.52542918746305
720,2577.3288449548545
721,2577.3288449548545
784,0.0
785,0.0
848,0.0
849,0.0
1121,3548.858251130072
1135,1159.0153647026568
1161,0.05709654311798362
1163,61.28204024484252
1166,0.0
1168,0.0
2,3, 1, 8, 0,22, 0.00,60.00,Wednesday
7,-3.0
545,19.58137807628437
546,1.1891549562655845
547,12.634983363960165
548,145.61093221700824
720,3092.048337847451
721,3092.048337847451
784,0.0
785,0.0
848,0.0
849,0.0
1121,4325.588818483053
1135,1406.1476943930297
1161,0.0701443708380402
1163,29.581906721470695
1166,0.0
1168,0.0
2,3, 1, 8, 0,23, 0.00,60.00,Wednesday
7,-4.0
545,19.15575304685515
546,0.283762231093569
547,12.589391938345404
548,121.51651249495193
720,2342.8208923155207
721,2342.8208923155207
784,0.0
785,0.0
848,0.0
849,0.0
1121,3448.592874829397
1135,1165.1155731762226
1161,0.05853757663682591
1163,57.78100114936642
1166,0.0
1168,0.0
2,3, 1, 8, 0,24, 0.00,60.00,Wednesday
7,-5.0
545,18.68477969013156
546,-0.6449769441040147
547,12.565497311587885
548,144.91075219263053
720,2824.8676907915906
721,2824.8676907915906
784,0.0
785,0.0
848,0.0
849,0.0
1121,4072.157529716529
1135,1366.136915542092
1161,0.06980727271665148
1163,30.400897873697087
1166,0.0
1168,0.0
2,4, 1, 9, 0, 1, 0.00,60.00,Thursday
7,-5.0
545,18.60020223517766
546,-0.6698234271128669
547,12.517107432240666
548,161.05727290721413
720,3183.812658580495
721,3183.812658580495
784,0.0
785,0.0
848,0.0
849,0.0
1121,4590.313745135053
1135,1504.3474669610646
1161,0.07758546835996828
1163,11.50351159957923
1166,0.0
1168,0.0
2,4, 1, 9, 0, 2, 0.00,60.00,Thursday
7,-5.0
545,18.55370442501271
546,-0.8249446157488944
547,12.462778028908133
548,170.88852558537974
720,3918.7909761658902
721,3918.7909761658902
784,0.0
785,0.0
848,0.0
849,0.0
1121,4907.566974754291
1135,1593.3278636073612
1161,0.08232033288084861
1163,0.0
1166,638.4740700440975
1168,638.4740700440975
2,4, 1, 9, 0, 3, 0.00,60.00,Thursday
7,-6.0
545,18.57773587851843
546,-1.3386042999324268
547,12.387665967330081
548,170.88852558537974
720,4219.666663215106
721,4219.666663215106
784,0.0
785,0.0
848,0.0
849,0.0
1121,4768.700656613821
1135,1578.554138776229
1161,0.08232033288084861
1163,0.0
1166,1156.3361103091238
1168,1156.3361103091238
2,4, 1, 9, 0, 4, 0.00,60.00,Thursday
7,-6.0
545,18.570957742562804
546,-1.7630657506075498
547,12.317569596612815
548,170.88852558537974
720,5033.570260300807
721,5033.570260300807
784,0.0
785,0.0
848,0.0
849,0.0
1121,4768.224659459352
1135,1579.1042138099926
1161,0.08232033288084861
1163,0.0
1166,2147.842550943974
1168,2147.842550943974
2,4, 1, 9, 0, 5, 0.00,60.00,Thursday
7,-8.0
545,18.605689031099953
546,-2.530617316234798
547,12.237059131691176
548,170.88852558537974
720,4040.712072180686
721,4040.712072180686
784,0.0
785,0.0
848,0.0
849,0.0
1121,4494.87461844
1135,1552.4771768430521
1161,0.08232033288084861
1163,0.0
1166,1293.376476693932
1168,1293.376476693932
2,4, 1, 9, 0, 6, 0.00,60.00,Thursday
7,-9.0
545,19.324307070255394
546,-3.2878466751829944
547,12.155148996134628
548,170.88852558537974
720,5270.102468421397
721,5270.102468421397
784,0.0
785,0.0
848,0.0
849,0.0
1121,4360.747829823209
1135,1540.0663722806303
1161,0.08232033288084861
1163,0.0
1166,2858.605229269414
1168,2858.605229269414
2,4, 1, 9, 0, 7, 0.00,60.00,Thursday
7,-10.0
545,19.56655305558884
546,-4.163219187175346
547,12.10412797670428
548,170.88852558537974
720,5565.1953653239
721,5565.1953653239
784,0.0
785,0.0
848,0.0
849,0.0
1121,4211.038102379594
1135,1547.251468527373
1161,0.08232033288084861
1163,0.0
1166,3473.6317725895647
1168,3473.6317725895647
2,4, 1, 9, 0, 8, 0.00,60.00,Thursday
7,-11.0
545,19.660401961087942
546,-4.747140451700336
547,12.026552234647621
548,170.88852558537974
720,4981.432025769547
721,4981.432025769547
784,0.0
785,0.0
848,0.0
849,0.0
1121,4076.0533399023443
1135,1540.097617385304
1161,0.08232033288084861
1163,0.0
1166,3011.3499192491217
1168,3011.3499192491217
2,4, 1, 9, 0, 9, 0.00,60.00,Thursday
7,-9.0
545,19.703129901799638
546,-3.872332842919894
547,11.972009832498749
548,170.88852558537974
720,4158.220230379782
721,4158.220230379782
784,0.0
785,0.0
848,0.0
849,0.0
1121,4333.196743784174
1135,1570.9031426414706
1161,0.08232033288084861
1163,0.0
1166,1844.173335905818
1168,1844.173335905818
2,4, 1, 9, 0,10, 0.00,60.00,Thursday
7,-8.0
545,19.720194883302216
546,-2.426815232036827
547,11.905023569236054
548,170.88852558537974
720,3760.076998116927
721,3760.076998116927
784,0.0
785,0.0
848,0.0
849,0.0
1121,4465.356619725152
1135,1585.919186455137
1161,0.08232033288084861
1163,0.0
1166,1214.6969980791573
1168,1214.6969980791573
2,4, 1, 9, 0,11, 0.00,60.00,Thursday
7,-7.0
545,19.8343961407857
546,0.29530944905836304
547,11.844944715809524
548,154.64040008641203
720,2505.101413635084
721,2505.101413635084
784,0.0
785,0.0
848,0.0
849,0.0
1121,4114.554622287907
1135,1448.1527079234254
1161,0.07449453492635855
1163,19.01303768005218
1166,0.0
1168,0.0
2,4, 1, 9, 0,12, 0.00,60.00,Thursday
7,-6.0
545,19.93085851592435
546,2.6746107235113166
547,11.781817970163239
548,116.29454513730342
720,1927.7148119169415
721,1927.7148119169415
784,0.0
785,0.0
848,0.0
849,0.0
1121,3099.758597574794
1135,1100.9600851308462
1161,0.05602219144639906
1163,63.892213537362096
1166,0.0
1168,0.0
2,4, 1, 9, 0,13, 0.00,60.00,Thursday
7,-5.0
545,20.128583174837303
546,5.620650229998208
547,11.72998802928925
548,67.97458984009323
720,1112.7805077740177
721,1112.7805077740177
784,0.0
785,0.0
848,0.0
849,0.0
1121,1803.634628640318
1135,650.3509557003574
1161,0.03274512710834865
1163,120.4446193002054
1166,0.0
1168,0.0
2,4, 1, 9, 0,14, 0.00,60.00,Thursday
7,-4.0
545,20.08606429430855
546,7.3967954842355645
547,11.69612749994903
548,22.656566869010405
720,324.26034673271715
721,324.26034673271715
784,0.0
785,0.0
848,0.0
849,0.0
1121,599.724701239431
1135,219.4954989217312
1161,0.010914241516939252
1163,173.48348546467457
1166,0.0
1168,0.0
2,4, 1, 9, 0,15, 0.00,60.00,Thursday
7,-3.0
545,20.03885589034711
546,7.458807914058805