Program Version,EnergyPlus, Version 22.2.0-c249759bad, YMD=2023.09.01 20:51
1,5,Environment Title[],Latitude[deg],Longitude[deg],Time Zone[],Elevation[m]
2,8,Day of Simulation[],Month[],Day of Month[],DST Indicator[1=yes 0=no],Hour[],StartMinute[],EndMinute[],DayType
3,5,Cumulative Day of Simulation[],Month[],Day of Month[],DST Indicator[1=yes 0=no],DayType  ! When Daily Report Variables Requested
4,2,Cumulative Days of Simulation[],Month[]  ! When Monthly Report Variables Requested
5,1,Cumulative Days of Simulation[] ! When Run Period Report Variables Requested
6,1,Calendar Year of Simulation[] ! When Annual Report Variables Requested
581,11,LIVING,AFN Zone Infiltration Air Change Rate [ach] !RunPeriod [Value,Min,Month,Day,Hour,Minute,Max,Month,Day,Hour,Minute]
582,11,ATTIC,AFN Zone Infiltration Air Change Rate [ach] !RunPeriod [Value,Min,Month,Day,Hour,Minute,Max,Month,Day,Hour,Minute]
583,11,CRAWLSPACE,AFN Zone Infiltration Air Change Rate [ach] !RunPeriod [Value,Min,Month,Day,Hour,Minute,Max,Month,Day,Hour,Minute]
1038,11,Facility,Facility Heating Setpoint Not Met Time [hr] !RunPeriod [Value,Min,Month,Day,Hour,Minute,Max,Month,Day,Hour,Minute]
1039,11,Facility,Facility Cooling Setpoint Not Met Time [hr] !RunPeriod [Value,Min,Month,Day,Hour,Minute,Max,Month,Day,Hour,Minute]
1115,11,DX_HEATING_COIL,Heating Coil Heating Energy [J] !RunPeriod [Value,Min,Month,Day,Hour,Minute,Max,Month,Day,Hour,Minute]
1128,11,DX_HEATING_COIL,Heating Coil Electricity Energy [J] !RunPeriod [Value,Min,Month,Day,Hour,Minute,Max,Month,Day,Hour,Minute]
1153,11,DX_HEATING_COIL,Heating Coil Defrost Electricity Energy [J] !RunPeriod [Value,Min,Month,Day,Hour,Minute,Max,Month,Day,Hour,Minute]
1154,11,DX_HEATING_COIL,Heating Coil Crankcase Heater Electricity Energy [J] !RunPeriod [Value,Min,Month,Day,Hour,Minute,Max,Month,Day,Hour,Minute]
1155,11,HEATING_RESISTANCE_BACKUP,Heating Coil Heating Energy [J] !RunPeriod [Value,Min,Month,Day,Hour,Minute,Max,Month,Day,Hour,Minute]
1156,11,HEATING_RESISTANCE_BACKUP,Heating Coil Electricity Energy [J] !RunPeriod [Value,Min,Month,Day,Hour,Minute,Max,Month,Day,Hour,Minute]
1292,11,WATER HEATER,Water Heater Heat Loss Energy [J] !RunPeriod [Value,Min,Month,Day,Hour,Minute,Max,Month,Day,Hour,Minute]
1306,11,WATER HEATER,Water Heater Heating Energy [J] !RunPeriod [Value,Min,Month,Day,Hour,Minute,Max,Month,Day,Hour,Minute]
1307,11,WATER HEATER,Water Heater Unmet Demand Heat Transfer Energy [J] !RunPeriod [Value,Min,Month,Day,Hour,Minute,Max,Month,Day,Hour,Minute]
1308,11,WATER HEATER,Water Heater Electricity Energy [J] !RunPeriod [Value,Min,Month,Day,Hour,Minute,Max,Month,Day,Hour,Minute]
13,11,Electricity:Facility [J] !RunPeriod [Value,Min,Month,Day,Hour,Minute,Max,Month,Day,Hour,Minute]
1134,11,Heating:Electricity [J] !RunPeriod [Value,Min,Month,Day,Hour,Minute,Max,Month,Day,Hour,Minute]
1096,11,Cooling:Electricity [J] !RunPeriod [Value,Min,Month,Day,Hour,Minute,Max,Month,Day,Hour,Minute]
562,11,Fans:Electricity [J] !RunPeriod [Value,Min,Month,Day,Hour,Minute,Max,Month,Day,Hour,Minute]
1379,11,Pumps:Electricity [J] !RunPeriod [Value,Min,Month,Day,Hour,Minute,Max,Month,Day,Hour,Minute]
1326,11,WaterSystems:Electricity [J] !RunPeriod [Value,Min,Month,Day,Hour,Minute,Max,Month,Day,Hour,Minute]
61,11,InteriorLights:Electricity [J] !RunPeriod [Value,Min,Month,Day,Hour,Minute,Max,Month,Day,Hour,Minute]
1046,11,ExteriorLights:Electricity [J] !RunPeriod [Value,Min,Month,Day,Hour,Minute,Max,Month,Day,Hour,Minute]
134,11,InteriorEquipment:Electricity [J] !RunPeriod [Value,Min,Month,Day,Hour,Minute,Max,Month,Day,Hour,Minute]
170,11,gas_dryer:InteriorEquipment:Electricity [J] !RunPeriod [Value,Min,Month,Day,Hour,Minute,Max,Month,Day,Hour,Minute]
207,11,clotheswasher:InteriorEquipment:Electricity [J] !RunPeriod [Value,Min,Month,Day,Hour,Minute,Max,Month,Day,Hour,Minute]
244,11,dishwasher:InteriorEquipment:Electricity [J] !RunPeriod [Value,Min,Month,Day,Hour,Minute,Max,Month,Day,Hour,Minute]
281,11,refrigerator:InteriorEquipment:Electricity [J] !RunPeriod [Value,Min,Month,Day,Hour,Minute,Max,Month,Day,Hour,Minute]
318,11,electric_mels:InteriorEquipment:Electricity [J] !RunPeriod [Value,Min,Month,Day,Hour,Minute,Max,Month,Day,Hour,Minute]
355,11,NaturalGas:Facility [J] !RunPeriod [Value,Min,Month,Day,Hour,Minute,Max,Month,Day,Hour,Minute]
403,11,InteriorEquipment:NaturalGas [J] !RunPeriod [Value,Min,Month,Day,Hour,Minute,Max,Month,Day,Hour,Minute]
476,11,gas_dryer:InteriorEquipment:NaturalGas [J] !RunPeriod [Value,Min,Month,Day,Hour,Minute,Max,Month,Day,Hour,Minute]
513,11,gas_mels:InteriorEquipment:NaturalGas [J] !RunPeriod [Value,Min,Month,Day,Hour,Minute,Max,Month,Day,Hour,Minute]
End of Data Dictionary
1,EXTREME_WINTER,  42.36, -71.01,  -5.00,   3.70
5,7
1038,1.25,0.0, 1,27, 1,15,0.25, 1,29, 6,15
1039,0.0,0.0, 1,27, 1,15,0.0, 1,27, 1,15
581,0.4802780484529216,0.19840804977062004, 1,27,23,60,0.9649812080818263, 1,28,24,52
582,9.656580809070013,2.4268322600103582, 1,30,18,30,21.95483960657806, 1,29, 8,60
583,0.04921632778262059,0.0015627284400402917, 1,27,23,60,0.07699298317942191, 1,29, 7,60
1115,1600482228.760162,0.0, 1,27,10,50,3923631.179706124, 2, 1, 3,45
1128,545261226.5125008,0.0, 1,27,10,50,1203251.4557060099, 2, 1, 9,30
1153,2259762.7655339143,0.0, 1,27,10,50,48061.86056737954, 1,28,19,60
1154,35543947.539563194,0.0, 1,27, 6, 5,180000.0, 1,27,13,60
1155,660993532.811281,0.0, 1,27, 1,15,5596689.938578312, 1,30, 6,15
1156,660993532.811281,0.0, 1,27, 1,15,5596689.938578312, 1,30, 6,15
1292,-24993716.457760934,-39772.85571757708, 1,27, 1,15,-6692.233505315382, 1,30, 9,50
1306,366765356.7886981,0.0, 1,27, 1,15,4050000.0, 1,27, 9,60
1307,172006435.40551147,0.0, 1,27, 1,15,13632042.865222897, 1,31,19,45
1308,366765356.7886981,0.0, 1,27, 1,15,4050000.0, 1,27, 9,60
13,2040661511.8139381,452017.0388981225, 1,27,15,15,10102858.177579017, 1,29, 8,60
61,301924526.02383536,88139.10953165221, 1,27, 1,15,1282023.4113694867, 1,27,20,15
134,70666020.44019976,63564.01800854099, 1,27, 4,15,156554.22484006523, 2, 1,20,15
170,5241013.419656067,348.4159749238097, 1,27, 4,15,17476.39704006126, 2, 1,12,15
207,6509451.13922267,815.2532113832032, 1,27, 3,15,22990.642799023623, 2, 1,10,15
244,12749673.399825225,1521.856143006317, 1,27, 4,15,53038.631142310165, 2, 1,20,15
281,46165882.481495745,59938.60262432081, 1,27, 5,15,81951.81706819107, 1,27,19,15
318,0.0,0.0, 1,27, 1,15,0.0, 1,27, 1,15
355,197687796.27748066,18561.32405820678, 1,27, 4,15,724774.895203776, 2, 1,18,15
403,197687796.27748066,18561.32405820678, 1,27, 4,15,724774.895203776, 2, 1,18,15
476,106772067.24485716,7098.072629279515, 1,27, 4,15,356036.3026282215, 2, 1,12,15
513,0.0,0.0, 1,27, 1,15,0.0, 1,27, 1,15
562,57247138.93232562,0.0, 1,27,10,60,120697.0103242854, 1,30,12,45
1046,0.0,0.0, 1,27, 1,15,0.0, 1,27, 1,15
1096,0.0,0.0, 1,27, 1,15,0.0, 1,27, 1,15
1134,1244058469.6288793,180000.0, 1,27,10,60,6663925.25410852, 1,30, 6,60
1326,366765356.7886982,0.0, 1,27, 1,15,4050000.0, 1,27, 9,60
1379,0.0,0.0, 1,27, 1,15,0.0, 1,27, 1,15
1,EXTREME_SUMMER,  42.36, -71.01,  -5.00,   3.70
5,7
1038,0.0,0.0, 7,13, 1,15,0.0, 7,13, 1,15
1039,30.0,0.0, 7,13, 1,15,0.25, 7,14,15,15
581,0.19605527357207997,0.003885356096463361, 7,18,24,60,0.6800469132767007, 7,14,14,60
582,4.451454708608253,0.06966788059448652, 7,19, 8, 6,13.917153808029271, 7,14,12,60
583,0.03688363931287367,0.0005396776533244464, 7,18,23, 3,0.06954497231657204, 7,14,14,60
1115,0.0,0.0, 7,13, 1,15,0.0, 7,13, 1,15
1128,0.0,0.0, 7,13, 1,15,0.0, 7,13, 1,15
1153,0.0,0.0, 7,13, 1,15,0.0, 7,13, 1,15
1154,0.0,0.0, 7,13, 1,15,0.0, 7,13, 1,15
1155,0.0,0.0, 7,13, 1,15,0.0, 7,13, 1,15
1156,0.0,0.0, 7,13, 1,15,0.0, 7,13, 1,15
1292,-21840157.3234825,-34299.82862135374, 7,14,11,60,-2365.7324940985627, 7,19, 9,44
1306,280711083.02067953,0.0, 7,13, 1,15,4050000.0, 7,13,10,15
1307,98941942.88640206,0.0, 7,13, 1,15,4184927.248187757, 7,14,10,60
1308,280711083.02067953,0.0, 7,13, 1,15,4050000.0, 7,13,10,15
13,1151186826.1340399,168335.31701631166, 7,14, 4,60,6748918.0504153725, 7,19,21,15
61,301924526.02383536,88139.10953165221, 7,13, 1,15,1282023.4113694867, 7,13,20,15
134,70666020.44019976,63564.01800854099, 7,13, 4,15,156554.22484006523, 7,18,20,15
170,5241013.419656067,348.4159749238097, 7,13, 4,15,17476.39704006126, 7,18,12,15
207,6509451.13922267,815.2532113832032, 7,13, 3,15,22990.642799023623, 7,18,10,15
244,12749673.399825225,1521.856143006317, 7,13, 4,15,53038.631142310165, 7,18,20,15
281,46165882.481495745,59938.60262432081, 7,13, 5,15,81951.81706819107, 7,13,19,15
318,0.0,0.0, 7,13, 1,15,0.0, 7,13, 1,15
355,197687796.27748066,18561.32405820678, 7,13, 4,15,724774.895203776, 7,18,18,15
403,197687796.27748066,18561.32405820678, 7,13, 4,15,724774.895203776, 7,18,18,15
476,106772067.24485716,7098.072629279515, 7,13, 4,15,356036.3026282215, 7,18,12,15
513,0.0,0.0, 7,13, 1,15,0.0, 7,13, 1,15
562,49401420.13148976,1778.467381946573, 7,14, 4,60,120697.0103242854, 7,17,18,30
1046,0.0,0.0, 7,13, 1,15,0.0, 7,13, 1,15
1096,448483776.5178356,14853.722094171872, 7,14, 4,60,1261747.2142913237, 7,19,17,60
1134,0.0,0.0, 7,13, 1,15,0.0, 7,13, 1,15
1326,280711083.02067953,0.0, 7,13, 1,15,4050000.0, 7,13, 8,30
1379,0.0,0.0, 7,13, 1,15,0.0, 7,13, 1,15
1,ANNUAL,  42.36, -71.01,  -5.00,   3.70
5,365
1038,27.75,0.0, 1, 1, 1,15,0.25, 1, 3, 6,15
1039,368.0,0.0, 1, 1, 1,15,0.25, 3,31,17,45
581,0.3141090555164509,0.0, 6,24,23, 3,1.4476836768887036, 2, 8,21,60
582,6.230172872608088,0.0, 1,24, 3,60,34.91239608178611,12,28, 4,60
583,0.02645570666882145,0.0, 8,21,23, 3,0.09101737427183454, 2, 8,21,60
1115,25548545830.561527,0.0, 1, 1,23, 5,5000609.3103830125,12,28, 7,30
1128,7904669493.455257,0.0, 1, 1,23, 5,1261826.8887578337,12,28, 7,30
1153,245850203.29407728,0.0, 1, 1,23, 5,130870.02766374008, 2,27,10,15
1154,1604922646.3283818,0.0, 1, 1, 6, 5,180000.0, 1, 7,13,30
1155,3901613256.308358,0.0, 1, 1, 1,15,5596689.938578312, 1,30, 6,15
1156,3901613256.308358,0.0, 1, 1, 1,15,5596689.938578312, 1,30, 6,15
1292,-1219121559.0589154,-39831.14212738083, 1, 1, 1,15,-1665.795468073493, 5,12, 9,59
1306,16799778518.475334,0.0, 1, 1, 1,15,4050000.0, 1, 1,21,15
1307,6975708897.037513,0.0, 1, 1, 1,15,17458266.44633367, 2,17, 9,60
1308,16799778518.475334,0.0, 1, 1, 1,15,4050000.0, 1, 1,21,15
13,58702017668.72309,151703.1275401932, 4, 3, 4,15,10865046.413663425, 1,30, 8,30
61,15743207428.383959,88139.10953165221, 1, 1, 1,15,1282023.4113694867, 1, 1,20,15
134,3685071073.4325233,63564.01800854099, 1, 2, 4,15,156554.22484006523, 1, 1,20,15
170,273393721.45532674,348.4159749238097, 1, 2, 4,15,17476.39704006126, 1, 1,12,15
207,339560869.0695816,815.2532113832032, 1, 2, 3,15,22990.642799023623, 1, 1,10,15
244,664895467.8009144,1521.856143006317, 1, 2, 4,15,53038.631142310165, 1, 1,20,15
281,2407221015.106824,59938.60262432081, 1, 1, 5,15,81951.81706819107, 1, 1,19,15
318,0.0,0.0, 1, 1, 1,15,0.0, 1, 1, 1,15
355,10310294493.051695,18561.32405820678, 1, 2, 4,15,724774.895203776, 1, 1,18,15
403,10310294493.051695,18561.32405820678, 1, 2, 4,15,724774.895203776, 1, 1,18,15
476,5569688622.066177,7098.072629279515, 1, 2, 4,15,356036.3026282215, 1, 1,12,15
513,0.0,0.0, 1, 1, 1,15,0.0, 1, 1, 1,15
562,1653239222.2303348,0.0, 1, 7,13,30,120697.0103242854, 1,30,12,45
1046,0.0,0.0, 1, 1, 1,15,0.0, 1, 1, 1,15
1096,7163665826.813469,0.0, 1, 1, 1,15,1307048.6500898672, 6,24,15,60
1134,13657055599.386086,0.0, 1,25,23,15,6716876.312327812, 2,18, 6,45
1326,16799778518.475323,0.0, 1, 1, 1,15,4050000.0000000014, 5,18, 9,60
1379,0.0,0.0, 1, 1, 1,15,0.0, 1, 1, 1,15
End of Data
 Number of Records Written=          99
