Program Version,EnergyPlus, Version 22.2.0-c249759bad, YMD=2023.09.01 14:31
1,5,Environment Title[],Latitude[deg],Longitude[deg],Time Zone[],Elevation[m]
2,8,Day of Simulation[],Month[],Day of Month[],DST Indicator[1=yes 0=no],Hour[],StartMinute[],EndMinute[],DayType
3,5,Cumulative Day of Simulation[],Month[],Day of Month[],DST Indicator[1=yes 0=no],DayType  ! When Daily Report Variables Requested
4,2,Cumulative Days of Simulation[],Month[]  ! When Monthly Report Variables Requested
5,1,Cumulative Days of Simulation[] ! When Run Period Report Variables Requested
6,1,Calendar Year of Simulation[] ! When Annual Report Variables Requested
7,1,Environment,Site Outdoor Air Drybulb Temperature [C] !Hourly
545,1,LIVING,Zone Mean Air Temperature [C] !Hourly
546,1,ATTIC,Zone Mean Air Temperature [C] !Hourly
547,1,CRAWLSPACE,Zone Mean Air Temperature [C] !Hourly
548,1,FAN,Fan Electricity Rate [W] !Hourly
720,1,LIVING,Zone Predicted Sensible Load to Heating Setpoint Heat Transfer Rate [W] !Hourly
721,1,LIVING,Zone System Predicted Sensible Load to Heating Setpoint Heat Transfer Rate [W] !Hourly
784,1,ATTIC,Zone Predicted Sensible Load to Heating Setpoint Heat Transfer Rate [W] !Hourly
785,1,ATTIC,Zone System Predicted Sensible Load to Heating Setpoint Heat Transfer Rate [W] !Hourly
848,1,CRAWLSPACE,Zone Predicted Sensible Load to Heating Setpoint Heat Transfer Rate [W] !Hourly
849,1,CRAWLSPACE,Zone System Predicted Sensible Load to Heating Setpoint Heat Transfer Rate [W] !Hourly
1121,1,DX_HEATING_COIL,Heating Coil Heating Rate [W] !Hourly
1135,1,DX_HEATING_COIL,Heating Coil Electricity Rate [W] !Hourly
1161,1,DX_HEATING_COIL,Heating Coil Defrost Electricity Rate [W] !Hourly
1163,1,DX_HEATING_COIL,Heating Coil Crankcase Heater Electricity Rate [W] !Hourly
1166,1,HEATING_RESISTANCE_BACKUP,Heating Coil Heating Rate [W] !Hourly
1168,1,HEATING_RESISTANCE_BACKUP,Heating Coil Electricity Rate [W] !Hourly
End of Data Dictionary
1,EXTREME_WINTER,  35.14,-111.67,  -7.00,2135.00
2,1, 1, 6, 0, 1, 0.00,60.00,Monday
7,0.0
545,18.789439445869345
546,1.7483038884913902
547,17.46327450388026
548,98.35202968411727
720,1837.9782180166949
721,1837.9782180166949
784,0.0
785,0.0
848,0.0
849,0.0
1121,2640.4900197069073
1135,832.2296175707363
1161,104.61275891100169
1163,71.16633742111023
1166,0.0
1168,0.0
2,1, 1, 6, 0, 2, 0.00,60.00,Monday
7,0.0
545,18.696447756397433
546,2.0763372751350175
547,16.99151065169253
548,97.40507389448136
720,1831.0293272597592
721,1831.0293272597592
784,0.0
785,0.0
848,0.0
849,0.0
1121,2610.1743246361925
1135,827.9948029773598
1161,103.60757051729979
1163,72.40425623417374
1166,0.0
1168,0.0
2,1, 1, 6, 0, 3, 0.00,60.00,Monday
7,-1.0
545,18.54255859252005
546,1.899900135544244
547,16.741039338914597
548,108.40237388941406
720,2056.429633034497
721,2056.429633034497
784,0.0
785,0.0
848,0.0
849,0.0
1121,2891.295196225038
1135,924.577955481233
1161,106.66432745344966
1163,57.8356576346919
1166,0.0
1168,0.0
2,1, 1, 6, 0, 4, 0.00,60.00,Monday
7,-1.1
545,18.562120967299137
546,2.09339961342005
547,16.481737885686563
548,119.44260473855812
720,2289.880679345357
721,2289.880679345357
784,0.0
785,0.0
848,0.0
849,0.0
1121,3211.601284585264
1135,1015.8449871789633
1161,116.60033717677142
1163,43.34335313625686
1166,0.0
1168,0.0
2,1, 1, 6, 0, 5, 0.00,60.00,Monday
7,-1.1
545,18.645980134842027
546,2.124520233758242
547,16.272761280024735
548,113.73103473828165
720,2139.148200170832
721,2139.148200170832
784,0.0
785,0.0
848,0.0
849,0.0
1121,3044.1943525971938
1135,967.403456471392
1161,111.0247530504027
1163,50.83434617017444
1166,0.0
1168,0.0
2,1, 1, 6, 0, 6, 0.00,60.00,Monday
7,-1.1
545,19.281159678049587
546,2.366928927248643
547,16.07479359281581
548,154.3094172239019
720,3079.6878964617463
721,3079.6878964617463
784,0.0
785,0.0
848,0.0
849,0.0
1121,4254.809588727347
1135,1297.3630110681681
1161,149.7428616534946
1163,0.0
1166,0.0
1168,0.0
2,1, 1, 6, 0, 7, 0.00,60.00,Monday
7,-1.1
545,19.58475349657463
546,2.560678489243351
547,15.925302606890918
548,152.74951044449435
720,2939.1444606324894
721,2939.1444606324894
784,0.0
785,0.0
848,0.0
849,0.0
1121,4202.61002972365
1135,1314.5068508355723
1161,148.86101485140057
1163,0.0
1166,0.0
1168,0.0
2,1, 1, 6, 0, 8, 0.00,60.00,Monday
7,-1.7
545,19.68411892485823
546,1.9720281399416286
547,15.767449054922992
548,151.55995618942416
720,2843.787731019447
721,2843.787731019447
784,0.0
785,0.0
848,0.0
849,0.0
1121,4123.221214560169
1135,1318.0140509616756
1161,141.05664249718106
1163,1.0870582235881665
1166,0.0
1168,0.0
2,1, 1, 6, 0, 9, 0.00,60.00,Monday
7,-2.2
545,19.696898802448914
546,1.5098287132557644
547,15.619394388941972
548,155.37179076023685
720,3117.2221481233355
721,3117.2221481233355
784,0.0
785,0.0
848,0.0
849,0.0
1121,4194.487370470913
1135,1329.8468483812903
1161,136.15377653739017
1163,0.0
1166,302.04033816030505
1168,302.04033816030505
2,1, 1, 6, 0,10, 0.00,60.00,Monday
7,-2.2
545,19.72649993646589
546,2.0318475271086855
547,15.479015232247924
548,151.3142218399218
720,2737.629880751825
721,2737.629880751825
784,0.0
785,0.0
848,0.0
849,0.0
1121,4081.501421132728
1135,1321.1689234012024
1161,135.25220110430794
1163,1.3243487709423185
1166,0.0
1168,0.0
2,1, 1, 6, 0,11, 0.00,60.00,Monday
7,-2.2
545,19.75343607921919
546,2.386456498947063
547,15.340324670028613
548,142.4461736745729
720,2556.7912203922133
721,2556.7912203922133
784,0.0
785,0.0
848,0.0
849,0.0
1121,3814.397509519361
1135,1244.3206875756557
1161,127.32580724873543
1163,12.967645133560325
1166,0.0
1168,0.0
2,1, 1, 6, 0,12, 0.00,60.00,Monday
7,-2.2
545,19.742475194461182
546,3.271701550069172
547,15.213642211525102
548,138.92381881228067
720,2502.360999781753
721,2502.360999781753
784,0.0
785,0.0
848,0.0
849,0.0
1121,3708.2571268876527
1135,1213.7420424004451
1161,124.4038164022305
1163,17.58485613637233
1166,0.0
1168,0.0
2,1, 1, 6, 0,13, 0.00,60.00,Monday
7,-1.7
545,19.761402742099627
546,3.0745201799445825
547,15.096723221865885
548,127.52415810537738
720,2311.378419527953
721,2311.378419527953
784,0.0
785,0.0
848,0.0
849,0.0
1121,3400.8948262239464
1135,1111.6494740470891
1161,118.68798980914143
1163,32.63051786492852
1166,0.0
1168,0.0
2,1, 1, 6, 0,14, 0.00,60.00,Monday
7,-1.1
545,19.82314424538322
546,4.372861264277395
547,14.983264490637668
548,101.22515981797636
720,1831.9105073782575
721,1831.9105073782575
784,0.0
785,0.0
848,0.0
849,0.0
1121,2733.522755600351
1135,899.042613900866
1161,83.17428575334526
1163,67.65873734709945
1166,0.0
1168,0.0
2,1, 1, 6, 0,15, 0.00,60.00,Monday
7,-1.1
545,19.835619344251317
546,4.344084693261556
547,14.893723181983113
548,90.1531639311061
720,1656.838793107534
721,1656.838793107534
784,0.0
785,0.0
848,0.0
849,0.0
1121,2413.0800955377845
1135,801.6326946920984
1161,74.07703546012877
1163,82.13366285525527
1166,0.0
1168,0.0
2,1, 1, 6, 0,16, 0.00,60.00,Monday
7,-1.1
545,19.93808427294578
546,5.410589960734702
547,14.808114142938086
548,71.86682604950512
720,1272.2304339093062
721,1272.2304339093062
784,0.0
785,0.0
848,0.0
849,0.0
1121,1876.2805952855956
1135,633.1598285037932
1161,64.04609565487996
1163,105.90354535250901
1166,0.0
1168,0.0
2,1, 1, 6, 0,17, 0.00,60.00,Monday
7,-1.7
545,19.81203821772462
546,4.211350506455271
547,14.72969382308549
548,52.69246369098178
720,901.376822933682
721,901.376822933682
784,0.0
785,0.0
848,0.0
849,0.0
1121,1338.7166224862074
1135,465.2051655337799
1161,45.582812717112674
1163,130.94699338770965
1166,0.0
1168,0.0
2,1, 1, 6, 0,18, 0.00,60.00,Monday
7,-1.7
545,19.59176457917325
546,2.176808500075682
547,14.675144841261144
548,62.46073976411733
720,1131.491705433853
721,1131.491705433853
784,0.0
785,0.0
848,0.0
849,0.0
1121,1599.3230888096725
1135,549.8828614375287
1161,54.12662743516463
1163,118.14393606048155
1166,0.0
1168,0.0
2,1, 1, 6, 0,19, 0.00,60.00,Monday
7,-2.2
545,19.522301278046204
546,0.9605870873863878
547,14.613637075339037
548,76.0190466012372
720,1375.1202742832975
721,1375.1202742832975
784,0.0
785,0.0
848,0.0
849,0.0
1121,1958.0714781560575
1135,668.9908597970579
1161,61.87920528390204
1163,100.38194505132236
1166,0.0
1168,0.0
2,1, 1, 6, 0,20, 0.00,60.00,Monday
7,-1.7
545,19.934107190135848
546,0.9163993470231302
547,14.543478253894332
548,74.34961319878789
720,1304.8099665507962
721,1304.8099665507962
784,0.0
785,0.0
848,0.0
849,0.0
1121,1924.1947161377436
1135,650.7879000158431
1161,64.36381810679299
1163,102.56789745549506
1166,0.0
1168,0.0
2,1, 1, 6, 0,21, 0.00,60.00,Monday
7,-1.7
545,19.828158405152433
546,0.9320231063976845
547,14.465705401690341
548,64.38166938651419
720,1078.4596108770347
721,1078.4596108770347
784,0.0
785,0.0
848,0.0
849,0.0
1121,1650.3454192100867
1135,568.146007039481
1161,55.69470668310916
1163,115.6285731482628
1166,0.0
1168,0.0
2,1, 1, 6, 0,22, 0.00,60.00,Monday
7,-1.7
545,19.02591324459844
546,0.7691632459182193
547,14.39973286775449
548,95.72794922497225
720,1715.4634974305263
721,1715.4634974305263
784,0.0
785,0.0
848,0.0
849,0.0
1121,2489.38148492462
1135,835.2529557386803
1161,89.09536330454826
1163,74.36096237793244
1166,0.0
1168,0.0
2,1, 1, 6, 0,23, 0.00,60.00,Monday
7,-2.2
545,18.937256768543648
546,0.8699121444204994
547,14.288440898586277
548,94.48631047746082
720,1651.5848787768082
721,1651.5848787768082
784,0.0
785,0.0
848,0.0
849,0.0
1121,2445.549625065263
1135,813.311948057495
1161,84.45036381649875
1163,75.94855469424718
1166,0.0
1168,0.0
2,1, 1, 6, 0,24, 0.00,60.00,Monday
7,-2.2
545,18.568145891265647
546,0.6262278673768208
547,14.207258631141285
548,110.06412626323545
720,1979.886603148765
721,1979.886603148765
784,0.0
785,0.0
848,0.0
849,0.0
1121,2884.7803532827315
1135,945.4539416175297
1161,98.43755811570824
1163,55.49575383516281
1166,0.0
1168,0.0
2,2, 1, 7, 0, 1, 0.00,60.00,Tuesday
7,-2.2
545,18.59001577439597
546,0.8400427238030787
547,14.105065132042064
548,125.12737043873605
720,2329.7537407421332
721,2329.7537407421332
784,0.0
785,0.0
848,0.0
849,0.0
1121,3366.7519037042152
1135,1078.3577663215228
1161,101.84332480143703
1163,36.044534190795005
1166,0.0
1168,0.0
2,2, 1, 7, 0, 2, 0.00,60.00,Tuesday
7,-2.2
545,18.51786631150742
546,1.3491201738148129
547,14.019759880491188
548,146.83499929037757
720,2745.9516846451406
721,2745.9516846451406
784,0.0
785,0.0
848,0.0
849,0.0
1121,3970.6815372541146
1135,1252.3040236359939
1161,131.23262896167142
1163,7.228808044655777
1166,0.0
1168,0.0
2,2, 1, 7, 0, 3, 0.00,60.00,Tuesday
7,-2.2
545,18.543654900575493
546,1.1109911544128015
547,13.9138244037795
548,155.37179076023685
720,3299.067585657738
721,3299.067585657738
784,0.0
785,0.0
848,0.0
849,0.0
1121,4222.0351069344615
1135,1297.2169946909648
1161,136.15377653739017
1163,0.0
1166,479.7244216921549
1168,479.7244216921549
2,2, 1, 7, 0, 4, 0.00,60.00,Tuesday
7,-2.2
545,18.59475788025174
546,1.448955766478016
547,13.823516175556849
548,155.37179076023685
720,2964.689550609255
721,2964.689550609255
784,0.0
785,0.0
848,0.0
849,0.0
1121,4221.56458444119
1135,1297.7724926921455
1161,136.15377653739017
1163,0.0
1166,122.35133805931036
1168,122.35133805931036
2,2, 1, 7, 0, 5, 0.00,60.00,Tuesday
7,-2.2
545,18.672598758521392
546,1.5180683764568472
547,13.718291841281605
548,134.89999570243586
720,2448.0502938282025
721,2448.0502938282025
784,0.0
785,0.0
848,0.0
849,0.0
1121,3657.975525736028
1135,1162.6290138819695
1161,109.79745460877753
1163,23.239344845179776
1166,0.0
1168,0.0
2,2, 1, 7, 0, 6, 0.00,60.00,Tuesday
7,-2.8
545,19.343054689065966
546,1.154025403525262
547,13.636762323641362
548,155.37179076023685
720,3674.0703657295
721,3674.0703657295
784,0.0
785,0.0
848,0.0
849,0.0
1121,4175.253187965207
1135,1302.3666866241006
1161,130.15471234073584
1163,0.0
1166,951.2988234995182
1168,951.2988234995182
2,2, 1, 7, 0, 7, 0.00,60.00,Tuesday
7,-2.2
545,19.60901071590354
546,1.446438929879176
547,13.579961394033942
548,155.37179076023685
720,3472.5995614249587
721,3472.5995614249587
784,0.0
785,0.0
848,0.0
849,0.0
1121,4257.677937037129
1135,1334.3235921466103
1161,124.23291202740643
1163,0.0
1166,739.3970136402277
1168,739.3970136402277
2,2, 1, 7, 0, 8, 0.00,60.00,Tuesday
7,-2.2
545,19.695706247205734
546,1.6043248468233962
547,13.502541609037195
548,155.37179076023685
720,3101.3462139647345
721,3101.3462139647345
784,0.0
785,0.0
848,0.0
849,0.0
1121,4251.8983190905565
1135,1341.1797848849571
1161,124.23291202740643
1163,0.0
1166,326.59734792008203
1168,326.59734792008203
2,2, 1, 7, 0, 9, 0.00,60.00,Tuesday
7,-2.2
545,19.78717638443051
546,2.761438916346987
547,13.408799631219992
548,135.6566864738221
720,2377.807743056441
721,2377.807743056441
784,0.0
785,0.0
848,0.0
849,0.0
1121,3660.3877974787965
1135,1194.1615039374597
1161,110.42415784612244
1163,22.230428243101485
1166,0.0
1168,0.0
2,2, 1, 7, 0,10, 0.00,60.00,Tuesday
7,-2.2
545,19.668073161201686
546,2.375371184470017
547,13.348178479633889
548,142.47642458576127
720,2600.704858533163
721,2600.704858533163
784,0.0
785,0.0
848,0.0
849,0.0
1121,3863.8778027073186
1135,1256.1382805082194
1161,115.97624877190239
1163,13.29223169731797
1166,0.0
1168,0.0
2,2, 1, 7, 0,11, 0.00,60.00,Tuesday
7,-2.2
545,19.8482324770943
546,3.688353011468563
547,13.245718569895002
548,108.7966671302066
720,1888.442291425783
721,1888.442291425783
784,0.0
785,0.0
848,0.0
849,0.0
1121,2903.2636955986836
1135,965.4080906405164
1161,81.48329675428195
1163,57.65067828215222
1166,0.0
1168,0.0
2,2, 1, 7, 0,12, 0.00,60.00,Tuesday
7,-2.2
545,19.787356433111484
546,4.778307149942463
547,13.206045706253576
548,104.73912233733328
720,1822.8680428619355
721,1822.8680428619355
784,0.0
785,0.0
848,0.0
849,0.0
1121,2720.5471802037964
1135,914.4639606365474
1161,94.00235637810229
1163,62.464869296052036
1166,0.0
1168,0.0
2,2, 1, 7, 0,13, 0.00,60.00,Tuesday
7,-2.2
545,19.76172327435022
546,5.232756718108133
547,13.157193526185234
548,103.42417256634518
720,1851.5346668670118
721,1851.5346668670118
784,0.0
785,0.0
848,0.0
849,0.0
1121,2686.030196248995
1135,902.3080707928143
1161,92.44530234860956
1163,64.20457118466709
1166,0.0
1168,0.0
2,2, 1, 7, 0,14, 0.00,60.00,Tuesday
7,-1.7
545,19.738958716221592
546,5.814759072052518
547,13.10905935683418
548,94.9360126280576
720,1732.8101826991897
721,1732.8101826991897
784,0.0
785,0.0
848,0.0
849,0.0
1121,2494.539762052014
1135,833.3840572079937
1161,82.12436619708996
1163,75.59051177399529
1166,0.0
1168,0.0
2,2, 1, 7, 0,15, 0.00,60.00,Tuesday
7,-2.2
545,19.658813484311356
546,4.068926632883208
547,13.070393536493949
548,93.90073870184573
720,1726.787785740984
721,1726.787785740984
784,0.0
785,0.0
848,0.0
849,0.0
1121,2451.5255131885597
1135,827.082438180554
1161,76.43514789429727
1163,76.94863358361064
1166,0.0
1168,0.0
2,2, 1, 7, 0,16, 0.00,60.00,Tuesday
7,-2.2
545,19.771815019548722
546,4.3362428924577445
547,13.049869253236178
548,102.14055189871341
720,1882.707142280793
721,1882.707142280793
784,0.0
785,0.0
848,0.0
849,0.0
1121,2684.9118947960287
1135,898.1789037022983
1161,83.14170905275374
1163,66.15187924692252
1166,0.0
1168,0.0
2,2, 1, 7, 0,17, 0.00,60.00,Tuesday
7,-2.8
545,19.795399393485244
546,3.886764437244566
547,13.010109720915102
548,95.48320247711048
720,1694.561343100011
721,1694.561343100011
784,0.0
785,0.0
848,0.0
849,0.0
1121,2463.8152503578667
1135,841.2567648055978
1161,75.38344735730078
1163,74.77667922350757
1166,0.0
1168,0.0
2,2, 1, 7, 0,18, 0.00,60.00,Tuesday
7,-3.3
545,19.72577810797808
546,2.287145389565716
547,12.969738545557387
548,92.21139251465233
720,1608.7073648097412
721,1608.7073648097412
784,0.0
785,0.0
848,0.0
849,0.0
1121,2355.5092265331723
1135,814.7973742410863
1161,68.90146996948886
1163,79.06492464489953
1166,0.0
1168,0.0
2,2, 1, 7, 0,19, 0.00,60.00,Tuesday
7,-3.3
545,19.5589883038496
546,0.02003473925207938
547,12.93306236825625
548,98.88707209025311
720,1725.5167920057738
721,1725.5167920057738
784,0.0
785,0.0
848,0.0
849,0.0
1121,2542.2862038634853
1135,873.087348426173
1161,73.347475073775
1163,70.32999686341614
1166,0.0
1168,0.0
2,2, 1, 7, 0,20, 0.00,60.00,Tuesday
7,-3.9
545,19.721372824201
546,0.08665717922791527
547,12.882995195670963
548,103.47986937241261
720,1759.8720557216875
721,1759.8720557216875
784,0.0
785,0.0
848,0.0
849,0.0
1121,2666.030667047644
1135,918.2611681996901
1161,66.84404280884839
1163,64.49900218919717
1166,0.0
1168,0.0
2,2, 1, 7, 0,21, 0.00,60.00,Tuesday
7,-4.4
545,19.723437577147255
546,-0.8397935382091642
547,12.835700550025383
548,106.27658879392557
720,1743.5604239117547
721,1743.5604239117547
784,0.0
785,0.0
848,0.0
849,0.0
1121,2691.805495105896
1135,939.7907128452032
1161,71.66046805370773
1163,60.57713235741673
1166,0.0
1168,0.0
2,2, 1, 7, 0,22, 0.00,60.00,Tuesday
7,-4.4
545,19.7121197898228
546,-0.6885137337886891
547,12.782826651807218
548,113.39067761616302
720,1883.258607828866
721,1883.258607828866
784,0.0
785,0.0
848,0.0
849,0.0
1121,2918.7537532168417
1135,1011.3387367338626
1161,68.43851878408479
1163,51.558964491460046
1166,0.0
1168,0.0
2,2, 1, 7, 0,23, 0.00,60.00,Tuesday
7,-4.4
545,18.859691768591972
546,-0.8676684460320591
547,12.68319647140998
548,91.12305881682867
720,1391.6640991244403
721,1391.6640991244403
784,0.0
785,0.0
848,0.0
849,0.0
1121,2281.1163846292543
1135,805.6192187343734
1161,61.442635998575824
1163,80.45698361863232
1166,0.0
1168,0.0
2,2, 1, 7, 0,24, 0.00,60.00,Tuesday
7,-4.4
545,18.711032674834474
546,-1.0965445964366485
547,12.610687648146513
548,105.94552276673845
720,1760.157872099553
721,1760.157872099553
784,0.0
785,0.0
848,0.0
849,0.0
1121,2693.7993749962693
1135,920.6182535151939
1161,71.84987606116663
1163,61.00723816818905
1166,0.0
1168,0.0
2,3, 1, 8, 0, 1, 0.00,60.00,Wednesday
7,-5.0
545,18.562492642909557
546,-0.6979527970326428
547,12.546811422613033
548,125.03516713809306
720,2159.603484754709
721,2159.603484754709
784,0.0
785,0.0
848,0.0
849,0.0
1121,3251.145507940107
1135,1099.9085383554739
1161,64.97112514759156
1163,36.5726441060424
1166,0.0
1168,0.0
2,3, 1, 8, 0, 2, 0.00,60.00,Wednesday
7,-5.6
545,18.50730464566634
546,-1.3570412120858932
547,12.480500493296443
548,148.2920336745491
720,2586.6353325368473
721,2586.6353325368473
784,0.0
785,0.0
848,0.0
849,0.0
1121,3874.954400489615
1135,1298.0988014406632
1161,74.33756414996535
1163,6.099523310254007
1166,0.0
1168,0.0
2,3, 1, 8, 0, 3, 0.00,60.00,Wednesday
7,-8.0
545,18.53721717516316
546,-2.4978798003480382
547,12.383749699509162
548,155.37179076023685
720,3172.2406465288295
721,3172.2406465288295
784,0.0
785,0.0
848,0.0
849,0.0
1121,3827.046483818217
1135,1320.4247683273709
1161,69.09683807154305
1163,0.0
1166,862.7731409572461
1168,862.7731409572461
2,3, 1, 8, 0, 4, 0.00,60.00,Wednesday
7,-7.8
545,18.570268558722262
546,-2.6572641272123896
547,12.308717049088497
548,155.37179076023685
720,3296.239926030279
721,3296.239926030279
784,0.0
785,0.0
848,0.0
849,0.0
1121,3819.164178943889
1135,1312.8835481596323
1161,77.06584130738888
1163,0.0
1166,1106.0077962403766
1168,1106.0077962403766
2,3, 1, 8, 0, 5, 0.00,60.00,Wednesday
7,-6.7
545,18.593717365675
546,-2.857595651417577
547,12.231528613460627
548,155.37179076023685
720,3151.328095676108
721,3151.328095676108
784,0.0
785,0.0
848,0.0
849,0.0
1121,3882.7013941032433
1135,1304.9598974252942
1161,92.94752841522775
1163,0.0
1166,901.414290325918
1168,901.414290325918
2,3, 1, 8, 0, 6, 0.00,60.00,Wednesday
7,-6.7
545,19.37366990394573
546,-2.2678728013539233
547,12.146946841844972
548,155.37179076023685
720,4110.298016754543
721,4110.298016754543
784,0.0
785,0.0
848,0.0
849,0.0
1121,3882.2936843100865
1135,1305.4282520077631
1161,92.94752841522775
1163,0.0
1166,2029.5791637845223
1168,2029.5791637845223
2,3, 1, 8, 0, 7, 0.00,60.00,Wednesday
7,-6.0
545,19.616727905753507
546,-2.1826098739083832
547,12.106962798303506
548,155.37179076023685
720,3918.259292490444
721,3918.259292490444
784,0.0
785,0.0
848,0.0
849,0.0
1121,3983.683134826366
1135,1345.685471898926
1161,83.41389645236902
1163,0.0
1166,1764.2646791893635
1168,1764.2646791893635
2,3, 1, 8, 0, 8, 0.00,60.00,Wednesday
7,-7.2
545,19.679996196514207
546,-2.126726387681835
547,12.023332657983337
548,155.37179076023685
720,3891.6303388395336
721,3891.6303388395336
784,0.0
785,0.0
848,0.0
849,0.0
1121,3820.9381529783345
1135,1331.5173715985097
1161,88.33035244713315
1163,0.0
1166,1912.4324760020972
1168,1912.4324760020972
2,3, 1, 8, 0, 9, 0.00,60.00,Wednesday
7,-5.0
545,19.7117900137551
546,-1.213720153460428
547,11.9687874684346
548,155.37179076023685
720,3432.9569584895435
721,3432.9569584895435
784,0.0
785,0.0
848,0.0
849,0.0
1121,4035.4926848966093
1135,1345.277506973093
1161,97.80524377723346
1163,0.0
1166,1168.0491758305993
1168,1168.0491758305993
2,3, 1, 8, 0,10, 0.00,60.00,Wednesday
7,-3.3
545,19.732018196806465
546,0.8820693936480986
547,11.907855370822155
548,155.37179076023685
720,2960.8902973489403
721,2960.8902973489403
784,0.0
785,0.0
848,0.0
849,0.0
1121,4299.841351539268
1135,1386.0547326317399
1161,82.97306826594397
1163,0.0
1166,307.4243856725152
1168,307.4243856725152
2,3, 1, 8, 0,11, 0.00,60.00,Wednesday
7,-2.8
545,19.823493992970917
546,3.1132423168092878
547,11.814258913511352
548,133.49963361007076
720,2360.3040842148057
721,2360.3040842148057
784,0.0
785,0.0
848,0.0
849,0.0
1121,3726.971585419822
1135,1222.5651535377663
1161,62.56546527792199
1163,26.312511001680683
1166,0.0
1168,0.0
2,3, 1, 8, 0,12, 0.00,60.00,Wednesday
7,-2.8
545,19.85727209693792
546,4.807568703733878
547,11.735235786381633
548,109.04269906896606
720,1931.260936252398
721,1931.260936252398
784,0.0
785,0.0
848,0.0
849,0.0
1121,2984.94809223854
1135,1000.4144151205934
1161,51.10383102141656
1163,58.13106241796875
1166,0.0
1168,0.0
2,3, 1, 8, 0,13, 0.00,60.00,Wednesday
7,-1.7
545,19.891012513277428
546,6.620401467010416
547,11.65958308850421
548,77.51411635342367
720,1423.5343669643808
721,1423.5343669643808
784,0.0
785,0.0
848,0.0
849,0.0
1121,2159.617050773286
1135,724.4581168013078
1161,30.380081967931822
1163,99.45488259848439
1166,0.0
1168,0.0
2,3, 1, 8, 0,14, 0.00,60.00,Wednesday
7,-2.0
545,19.774555246533307
546,7.02150317511734
547,11.64084594477332
548,69.90422005852795
720,1298.3658757771063
721,1298.3658757771063
784,0.0
785,0.0
848,0.0
849,0.0
1121,1878.0787743660906
1135,639.9328031713475
1161,37.745685455042306
1163,109.00561212894608
1166,0.0
1168,0.0
2,3, 1, 8, 0,15, 0.00,60.00,Wednesday
7,-2.2
545,19.695436299317645
546,6.620139515069066
547,11.623182540457044
548,62.32826240314263
720,1137.17331795274
721,1137.17331795274
784,0.0
785,0.0
848,0.0
849,0.0
1121,1621.2588527890312
1135,558.0500207087268
1161,42.55964913536443
1163,118.57657075420873
1166,0.0
1168,0.0
2,3, 1, 8, 0,16, 0.00,60.00,Wednesday
7,-1.7
545,19.848362134982985
546,7.000718394268441
547,11.634261062350053
548,62.64262232057109
720,1201.343048949735
721,1201.343048949735
784,0.0
785,0.0
848,0.0
849,0.0
1121,1676.4625720225347
1135,568.6541587114539
1161,37.01433976987354
1163,118.40692799325558
1166,0.0
1168,0.0
2,3, 1, 8, 0,17, 0.00,60.00,Wednesday
7,-2.8
545,19.688650949433228
546,4.747217816418944
547,11.646458808717744
548,64.70476227980528
720,1205.0997802685342
721,1205.0997802685342
784,0.0
785,0.0
848,0.0
849,0.0
1121,1682.9222616422983
1135,585.3928669972685
1161,37.723557127000376
1163,115.58212764679752
1166,0.0
1168,0.0
2,3, 1, 8, 0,18, 0.00,60.00,Wednesday
7,-2.8
545,19.698167341188288
546,2.8154816547939796
547,11.659325754538699
548,71.0759849396926
720,1314.1408452041087
721,1314.1408452041087
784,0.0
785,0.0
848,0.0
849,0.0
1121,1859.1073697118225
1135,641.0184443341782
1161,41.43757957880284
1163,107.27087873149355
1166,0.0
1168,0.0
2,3, 1, 8, 0,19, 0.00,60.00,Wednesday
7,-3.3
545,19.664457232890243
546,1.7203754994989089
547,11.657548387608625
548,73.62242349224816
720,1291.7725967789102
721,1291.7725967789102
784,0.0
785,0.0
848,0.0
849,0.0
1121,1892.11877217407
1135,658.8902612613255
1161,45.60372658793661
1163,103.77491738661266
1166,0.0
1168,0.0
2,3, 1, 8, 0,20, 0.00,60.00,Wednesday
7,-5.0
545,19.64218328905299
546,-0.1340263233078311
547,11.65277231361069
548,83.53707139313406
720,1431.648090532226
721,1431.648090532226
784,0.0
785,0.0
848,0.0
849,0.0
1121,2124.6675730226407
1135,757.0593528904399
1161,34.849873043585234
1163,91.14877769965446
1166,0.0
1168,0.0
2,3, 1, 8, 0,21, 0.00,60.00,Wednesday
7,-4.4
545,19.66976592437292
546,-1.1671762242607255
547,11.639438897376635
548,90.69670823499176
720,1548.8933375339293
721,1548.8933375339293
784,0.0
785,0.0
848,0.0
849,0.0
1121,2350.717615057355
1135,822.3944688087923
1161,40.249379424212066
1163,81.82228807814289
1166,0.0
1168,0.0
2,3, 1, 8, 0,22, 0.00,60.00,Wednesday
7,-5.6
545,19.58914928176874
546,-1.9726370823679082
547,11.637370812115044
548,113.08957242055874
720,1871.3007447483487
721,1871.3007447483487
784,0.0
785,0.0
848,0.0
849,0.0
1121,2879.788553963515
1135,1016.9657192256263
1161,50.51525151559706
1163,52.38034845095905
1166,0.0
1168,0.0
2,3, 1, 8, 0,23, 0.00,60.00,Wednesday
7,-6.1
545,18.858190837524916
546,-3.1511401328312774
547,11.548434640167367
548,94.57937709470318
720,1415.5089917987298
721,1415.5089917987298
784,0.0
785,0.0
848,0.0
849,0.0
1121,2348.2114459283885
1135,848.4342835160276
1161,40.21858352275297
1163,76.54231453932319
1166,0.0
1168,0.0
2,3, 1, 8, 0,24, 0.00,60.00,Wednesday
7,-6.1
545,18.5887125571214
546,-3.4168781374968433
547,11.514220120206119
548,117.74198217824834
720,1896.7321400944365
721,1896.7321400944365
784,0.0
785,0.0
848,0.0
849,0.0
1121,2988.814961799396
1135,1041.169500258101
1161,50.06527459429407
1163,46.31624532803329
1166,0.0
1168,0.0
2,4, 1, 9, 0, 1, 0.00,60.00,Thursday
7,-7.2
545,18.45625435255389
546,-3.926826658417938
547,11.477965983377947
548,152.7969316866382
720,2472.546131484214
721,2472.546131484214
784,0.0
785,0.0
848,0.0
849,0.0
1121,3873.393151297241
1135,1334.9327843354442
1161,63.65291181643529
1163,0.31020851616645473
1166,0.0
1168,0.0
2,4, 1, 9, 0, 2, 0.00,60.00,Thursday
7,-7.8
545,18.53167449789947
546,-4.681715539461958
547,11.392839482576502
548,155.37179076023685
720,2977.9918320944653
721,2977.9918320944653
784,0.0
785,0.0
848,0.0
849,0.0
1121,3854.850370446974
1135,1320.6513182325082
1161,68.47266259496962
1163,0.0
1166,756.27109112873
1168,756.27109112873
2,4, 1, 9, 0, 3, 0.00,60.00,Thursday
7,-12.2
545,18.54877452601079
546,-5.770707855501333
547,11.294672720245844
548,155.37179076023685
720,3734.6724373459583
721,3734.6724373459583
784,0.0
785,0.0
848,0.0
849,0.0
1121,3447.7756676059257
1135,1302.6031932235785
1161,43.96626012848466
1163,0.0
1166,2120.3693774579347
1168,2120.3693774579347
2,4, 1, 9, 0, 4, 0.00,60.00,Thursday
7,-13.3
545,18.556079240268716
546,-6.793915661582146
547,11.212263422258697
548,155.37179076023685
720,4127.996720255131
721,4127.996720255131
784,0.0
785,0.0
848,0.0
849,0.0
1121,3347.851423176233
1135,1296.7196438739068
1161,38.049265939781485
1163,0.0
1166,2762.7527507554546
1168,2762.7527507554546
2,4, 1, 9, 0, 5, 0.00,60.00,Thursday
7,-13.3
545,18.567933166799772
546,-7.360996748502788
547,11.127805564316722
548,155.37179076023685
720,4098.4984253481725
721,4098.4984253481725
784,0.0
785,0.0
848,0.0
849,0.0
1121,3330.5641198378007
1135,1290.097932450059
1161,43.425595123452005
1163,0.0
1166,2816.246322350822
1168,2816.246322350822
2,4, 1, 9, 0, 6, 0.00,60.00,Thursday
7,-13.3
545,19.351882067952662
546,-7.79720266693312
547,11.038564665304799
548,155.37179076023685
720,5172.657326654502
721,5172.657326654502
784,0.0
785,0.0
848,0.0
849,0.0
1121,3330.4192693934356
1135,1290.2500938607845
1161,43.425595123452005
1163,0.0
1166,4105.065478029924
1168,4105.065478029924
2,4, 1, 9, 0, 7, 0.00,60.00,Thursday
7,-16.1
545,19.575237464004758
546,-8.513024499081281
547,10.964719389894862
548,155.37179076023685
720,5371.1293486353825
721,5371.1293486353825
784,0.0
785,0.0
848,0.0
849,0.0
1121,3079.840178504572
1135,1295.4591264747842
1161,23.584489019773756
1163,0.0
1166,4697.757879760849
1168,4697.757879760849
2,4, 1, 9, 0, 8, 0.00,60.00,Thursday
7,-16.7
545,19.643153774023116
546,-9.289614036237573
547,10.874619103079874
548,155.37179076023685
720,5212.725844697157
721,5212.725844697157
784,0.0
785,0.0
848,0.0
849,0.0
1121,3015.863382364673
1135,1292.762691760071
1161,22.742922908606076
1163,0.0
1166,4647.151052859446
1168,4647.151052859446
2,4, 1, 9, 0, 9, 0.00,60.00,Thursday
7,-12.2
545,19.709298111635036
546,-6.884742963933916
547,10.819094683984916
548,155.37179076023685
720,3670.8328269984995
721,3670.8328269984995
784,0.0
785,0.0
848,0.0
849,0.0
1121,3408.686237991143
1135,1322.489234347365
1161,48.515575081819826
1163,0.0
1166,2508.57768469556
1168,2508.57768469556
2,4, 1, 9, 0,10, 0.00,60.00,Thursday
7,-8.3
545,19.756451143694996
546,-1.7515853542061595
547,10.765346950273832
548,155.37179076023685
720,2413.6163963719555
721,2413.6163963719555
784,0.0
785,0.0
848,0.0
849,0.0
1121,3730.909425514716
1135,1331.3212526557043
1161,79.15661008362844
1163,0.0
1166,590.0922276885151
1168,590.0922276885151
2,4, 1, 9, 0,11, 0.00,60.00,Thursday
7,-4.4
545,20.04451487590294
546,3.3498373884724666
547,10.62940843376321
548,98.0721403648393
720,1319.4948072408442
721,1319.4948072408442
784,0.0
785,0.0
848,0.0
849,0.0
1121,2540.441751233368
1135,885.9078875691039
1161,47.46839696677323
1163,72.06322086089507
1166,0.0
1168,0.0
2,4, 1, 9, 0,12, 0.00,60.00,Thursday
7,-4.4
545,20.006358817671874
546,8.477381608008319
547,10.546626256001447
548,52.53777317402455
720,685.15925211801
721,685.15925211801
784,0.0
785,0.0
848,0.0
849,0.0
1121,1312.6203533757352
1135,477.3001774794297
1161,25.42961601477756
1163,131.46212268444341
1166,0.0
1168,0.0
2,4, 1, 9, 0,13, 0.00,60.00,Thursday
7,0.0
545,20.100978521777037
546,10.967459621462318
547,10.484154524934711
548,9.774862561643316
720,92.69222950979747
721,92.69222950979747
784,0.0
785,0.0
848,0.0
849,0.0
1121,276.35604077144365
1135,94.25407656308887
1161,2.62360410118302
1163,187.36705715787443
1166,0.0
1168,0.0
2,4, 1, 9, 0,14, 0.00,60.00,Thursday
7,-0.6
545,19.994783730716083
546,11.10342068938439
547,10.51273050316971
548,0.0
720,-415.7936779146112
721,-415.7936779146112
784,0.0
785,0.0
848,0.0
849,0.0
1121,0.0
1135,0.0
1161,0.0
1163,200.0
1166,0.0
1168,0.0