Program Version,EnergyPlus, Version 22.2.0-c249759bad, YMD=2023.07.07 15:16
1,5,Environment Title[],Latitude[deg],Longitude[deg],Time Zone[],Elevation[m]
2,8,Day of Simulation[],Month[],Day of Month[],DST Indicator[1=yes 0=no],Hour[],StartMinute[],EndMinute[],DayType
3,5,Cumulative Day of Simulation[],Month[],Day of Month[],DST Indicator[1=yes 0=no],DayType  ! When Daily Report Variables Requested
4,2,Cumulative Days of Simulation[],Month[]  ! When Monthly Report Variables Requested
5,1,Cumulative Days of Simulation[] ! When Run Period Report Variables Requested
6,1,Calendar Year of Simulation[] ! When Annual Report Variables Requested
581,11,LIVING,AFN Zone Infiltration Air Change Rate [ach] !RunPeriod [Value,Min,Month,Day,Hour,Minute,Max,Month,Day,Hour,Minute]
582,11,ATTIC,AFN Zone Infiltration Air Change Rate [ach] !RunPeriod [Value,Min,Month,Day,Hour,Minute,Max,Month,Day,Hour,Minute]
583,11,CRAWLSPACE,AFN Zone Infiltration Air Change Rate [ach] !RunPeriod [Value,Min,Month,Day,Hour,Minute,Max,Month,Day,Hour,Minute]
1038,11,Facility,Facility Heating Setpoint Not Met Time [hr] !RunPeriod [Value,Min,Month,Day,Hour,Minute,Max,Month,Day,Hour,Minute]
1039,11,Facility,Facility Cooling Setpoint Not Met Time [hr] !RunPeriod [Value,Min,Month,Day,Hour,Minute,Max,Month,Day,Hour,Minute]
1115,11,DX_HEATING_COIL,Heating Coil Heating Energy [J] !RunPeriod [Value,Min,Month,Day,Hour,Minute,Max,Month,Day,Hour,Minute]
1128,11,DX_HEATING_COIL,Heating Coil Electricity Energy [J] !RunPeriod [Value,Min,Month,Day,Hour,Minute,Max,Month,Day,Hour,Minute]
1153,11,DX_HEATING_COIL,Heating Coil Defrost Electricity Energy [J] !RunPeriod [Value,Min,Month,Day,Hour,Minute,Max,Month,Day,Hour,Minute]
1154,11,DX_HEATING_COIL,Heating Coil Crankcase Heater Electricity Energy [J] !RunPeriod [Value,Min,Month,Day,Hour,Minute,Max,Month,Day,Hour,Minute]
1156,11,HEATING_RESISTANCE_BACKUP,Heating Coil Electricity Energy [J] !RunPeriod [Value,Min,Month,Day,Hour,Minute,Max,Month,Day,Hour,Minute]
13,11,Electricity:Facility [J] !RunPeriod [Value,Min,Month,Day,Hour,Minute,Max,Month,Day,Hour,Minute]
1134,11,Heating:Electricity [J] !RunPeriod [Value,Min,Month,Day,Hour,Minute,Max,Month,Day,Hour,Minute]
1096,11,Cooling:Electricity [J] !RunPeriod [Value,Min,Month,Day,Hour,Minute,Max,Month,Day,Hour,Minute]
562,11,Fans:Electricity [J] !RunPeriod [Value,Min,Month,Day,Hour,Minute,Max,Month,Day,Hour,Minute]
1388,11,Pumps:Electricity [J] !RunPeriod [Value,Min,Month,Day,Hour,Minute,Max,Month,Day,Hour,Minute]
1360,11,WaterSystems:Electricity [J] !RunPeriod [Value,Min,Month,Day,Hour,Minute,Max,Month,Day,Hour,Minute]
61,11,InteriorLights:Electricity [J] !RunPeriod [Value,Min,Month,Day,Hour,Minute,Max,Month,Day,Hour,Minute]
1046,11,ExteriorLights:Electricity [J] !RunPeriod [Value,Min,Month,Day,Hour,Minute,Max,Month,Day,Hour,Minute]
134,11,InteriorEquipment:Electricity [J] !RunPeriod [Value,Min,Month,Day,Hour,Minute,Max,Month,Day,Hour,Minute]
170,11,gas_dryer:InteriorEquipment:Electricity [J] !RunPeriod [Value,Min,Month,Day,Hour,Minute,Max,Month,Day,Hour,Minute]
207,11,clotheswasher:InteriorEquipment:Electricity [J] !RunPeriod [Value,Min,Month,Day,Hour,Minute,Max,Month,Day,Hour,Minute]
244,11,dishwasher:InteriorEquipment:Electricity [J] !RunPeriod [Value,Min,Month,Day,Hour,Minute,Max,Month,Day,Hour,Minute]
281,11,refrigerator:InteriorEquipment:Electricity [J] !RunPeriod [Value,Min,Month,Day,Hour,Minute,Max,Month,Day,Hour,Minute]
318,11,electric_mels:InteriorEquipment:Electricity [J] !RunPeriod [Value,Min,Month,Day,Hour,Minute,Max,Month,Day,Hour,Minute]
355,11,NaturalGas:Facility [J] !RunPeriod [Value,Min,Month,Day,Hour,Minute,Max,Month,Day,Hour,Minute]
1323,11,WaterSystems:NaturalGas [J] !RunPeriod [Value,Min,Month,Day,Hour,Minute,Max,Month,Day,Hour,Minute]
403,11,InteriorEquipment:NaturalGas [J] !RunPeriod [Value,Min,Month,Day,Hour,Minute,Max,Month,Day,Hour,Minute]
476,11,gas_dryer:InteriorEquipment:NaturalGas [J] !RunPeriod [Value,Min,Month,Day,Hour,Minute,Max,Month,Day,Hour,Minute]
513,11,gas_mels:InteriorEquipment:NaturalGas [J] !RunPeriod [Value,Min,Month,Day,Hour,Minute,Max,Month,Day,Hour,Minute]
End of Data Dictionary
1,EXTREME_WINTER,  39.18, -76.67,  -5.00,  47.60
5,7
1038,0.5,0.0, 1, 6, 1,10,0.16666666666666666, 1, 9, 6,10
1039,0.0,0.0, 1, 6, 1,10,0.0, 1, 6, 1,10
581,0.2968753696055579,0.1986929306843764, 1, 7,23,40,0.6226906761879122, 1, 9,10,55
582,4.798541838820459,0.0, 1, 7, 7,60,16.379894892950407, 1, 6,15,60
583,5.23823196999722,0.00022800566465143682, 1, 7,19, 5,17.16412619408536, 1, 6,12,60
1115,1598617082.314273,0.0, 1, 6,23, 3,2936529.25063957, 1,12,12,60
1128,507626976.4333886,0.0, 1, 6,23, 3,871962.9273273036, 1,12,12,50
1153,6313868.648614263,0.0, 1, 6,23, 3,55452.537933348896, 1, 8, 6,30
1154,48613097.67034639,0.0, 1, 6, 6, 2,120000.0, 1, 7,14,20
1156,159035718.6276181,0.0, 1, 6, 1, 2,1728220.9559972535, 1,11, 6,30
13,1154256330.3826272,306324.6925987483, 1, 7,15,10,3697217.2058474217, 1,11, 6,10
61,301924526.0238348,58759.40635443481, 1, 6, 1,10,854682.2742463244, 1, 6,20,10
134,70666020.44019979,42376.01200569399, 1, 6, 4,10,104369.48322671017, 1,11,20,10
170,5241013.419656074,232.27731661587313, 1, 6, 4,10,11650.931360040839, 1,11,12,10
207,6509451.13922266,543.5021409221355, 1, 6, 3,10,15327.095199349082, 1,11,10,10
244,12749673.39982522,1014.5707620042115, 1, 6, 4,10,35359.08742820678, 1,11,20,10
281,46165882.48149605,39959.06841621388, 1, 6, 5,10,54634.54471212738, 1, 6,19,10
318,0.0,0.0, 1, 6, 1,10,0.0, 1, 6, 1,10
355,738853886.8469073,12374.216038804521, 1, 6, 4,10,3829218.154066982, 1, 7,18,60
403,197687796.27748126,12374.216038804521, 1, 6, 4,10,483183.26346918393, 1,11,18,10
476,106772067.24485692,4732.048419519677, 1, 6, 4,10,237357.535085481, 1,11,12,10
513,0.0,0.0, 1, 6, 1,10,0.0, 1, 6, 1,10
562,55056282.53862496,0.0, 1, 6,23,10,91451.78712316474, 1, 6, 6,30
1046,0.0,0.0, 1, 6, 1,10,0.0, 1, 6, 1,10
1096,0.0,0.0, 1, 6, 1,10,0.0, 1, 6, 1,10
1134,721589661.379966,120000.0, 1, 6,23,10,3187468.0993478834, 1,11, 6,10
1323,541166090.569423,0.0, 1, 6, 1,10,3375000.000000001, 1, 6,16,50
1360,5019840.0,4980.0, 1, 6, 1,10,4980.000000000002, 1, 7, 9,60
1388,0.0,0.0, 1, 6, 1,10,0.0, 1, 6, 1,10
1,EXTREME_SUMMER,  39.18, -76.67,  -5.00,  47.60
5,7
1038,0.0,0.0, 7,20, 1,10,0.0, 7,20, 1,10
1039,58.0,0.0, 7,20, 1,10,0.16666666666666666, 7,20,15,50
581,0.0711690163010285,0.0, 7,20, 3,60,0.28660718302358834, 7,22,16,51
582,2.8032416014643644,0.030910843054827507, 7,21,22,16,10.369524144254568, 7,23,15,53
583,3.0705394219765068,0.0, 7,21,23, 2,8.984147289784598, 7,22,16,51
1115,0.0,0.0, 7,20, 1,10,0.0, 7,20, 1,10
1128,0.0,0.0, 7,20, 1,10,0.0, 7,20, 1,10
1153,0.0,0.0, 7,20, 1,10,0.0, 7,20, 1,10
1154,0.0,0.0, 7,20, 1,10,0.0, 7,20, 1,10
1156,0.0,0.0, 7,20, 1,10,0.0, 7,20, 1,10
13,1043747403.1372491,142416.27515738652, 7,22, 4,60,1998430.437905672, 7,26,20,10
61,301924526.0238348,58759.40635443481, 7,20, 1,10,854682.2742463244, 7,20,20,10
134,70666020.44019979,42376.01200569399, 7,20, 4,10,104369.48322671017, 7,25,20,10
170,5241013.419656074,232.27731661587313, 7,20, 4,10,11650.931360040839, 7,25,12,10
207,6509451.13922266,543.5021409221355, 7,20, 3,10,15327.095199349082, 7,25,10,10
244,12749673.39982522,1014.5707620042115, 7,20, 4,10,35359.08742820678, 7,25,20,10
281,46165882.48149605,39959.06841621388, 7,20, 5,10,54634.54471212738, 7,20,19,10
318,0.0,0.0, 7,20, 1,10,0.0, 7,20, 1,10
355,636942069.1265773,12374.216038804521, 7,20, 4,10,3829218.154066982, 7,21,18,60
403,197687796.27748126,12374.216038804521, 7,20, 4,10,483183.26346918393, 7,25,18,10
476,106772067.24485692,4732.048419519677, 7,20, 4,10,237357.535085481, 7,25,12,10
513,0.0,0.0, 7,20, 1,10,0.0, 7,20, 1,10
562,62585015.46282837,1257.9546147140547, 7,22, 6,20,91451.78712316476, 7,22,16,30
1046,0.0,0.0, 7,20, 1,10,0.0, 7,20, 1,10
1096,603552001.2103856,10020.468929105195, 7,22, 6,20,1024434.4995721094, 7,26,15,60
1134,0.0,0.0, 7,20, 1,10,0.0, 7,20, 1,10
1323,439254272.8490948,0.0, 7,20, 1,10,3375000.0000000005, 7,20,16,60
1360,5019840.0,4979.999999999999, 7,25,22,20,4980.000000000001, 7,20, 7,40
1388,0.0,0.0, 7,20, 1,10,0.0, 7,20, 1,10
1,ANNUAL,  39.18, -76.67,  -5.00,  47.60
5,365
1038,11.66666666666666,0.0, 1, 1, 1,10,0.16666666666666666, 1, 2, 6,10
1039,615.0000000000002,0.0, 1, 1, 1,10,0.16666666666666666, 3, 4,14,20
581,0.1852503708089181,0.0, 5,20,21,35,1.143994157147278, 2,19,16,60
582,3.42465729601419,0.0, 1, 1, 1,52,35.741224367391766, 2,25,15,51
583,3.7856780843467726,0.0, 5,20,23, 3,32.51937853640888, 2,19,16,60
1115,16455895990.207123,0.0, 1, 1,23, 3,3027287.4556094343,12, 8,11,60
1128,5069132693.17876,0.0, 1, 1,23, 3,881699.5921271159,12, 8,13,10
1153,141535414.72613227,0.0, 1, 1,12,45,82943.30975513741, 1,17,12,60
1154,1630787522.7104995,0.0, 1, 1, 6, 2,120000.0, 1, 7,14,20
1156,1636675513.881196,0.0, 1, 1, 1, 1,2612040.664387525, 1, 2,24,50
13,40423566957.69518,106115.4183601288, 3, 6, 4,10,3979341.0720535135, 1, 3, 7,60
61,15743207428.39043,58759.40635443481, 1, 1, 1,10,854682.2742463244, 1, 1,20,10
134,3685071073.433083,42376.01200569399, 1, 2, 4,10,104369.48322671017, 1, 1,20,10
170,273393721.45534325,232.27731661587313, 1, 2, 4,10,11650.931360040839, 1, 1,12,10
207,339560869.06955314,543.5021409221355, 1, 2, 3,10,15327.095199349082, 1, 1,10,10
244,664895467.8009839,1014.5707620042115, 1, 2, 4,10,35359.08742820678, 1, 1,20,10
281,2407221015.1057043,39959.06841621388, 1, 1, 5,10,54634.54471212738, 1, 1,19,10
318,0.0,0.0, 1, 1, 1,10,0.0, 1, 1, 1,10
355,35707472836.855675,12374.216038804521, 1, 2, 4,10,3829218.154066983, 5,23,18,60
403,10310294493.052883,12374.216038804521, 1, 2, 4,10,483183.26346918393, 1, 1,18,10
476,5569688622.065564,4732.048419519677, 1, 2, 4,10,237357.535085481, 1, 1,12,10
513,0.0,0.0, 1, 1, 1,10,0.0, 1, 1, 1,10
562,1746413194.4946313,0.0, 1, 7,13,10,91451.78712316476, 5,30,16,30
1046,0.0,0.0, 1, 1, 1,10,0.0, 1, 1, 1,10
1096,10508995316.887094,0.0, 1, 1, 1,10,1025536.4743807222, 7,26,15,60
1134,8478131144.496551,0.0, 1,15,12,20,3420369.554787246, 1, 3, 8,40
1323,25397178343.80683,0.0, 1, 1, 1,10,3375000.000000002, 2,27,21,20
1360,261748800.0,4979.999999999998, 1, 1, 1,20,4980.000000000002, 2,17, 4,20
1388,0.0,0.0, 1, 1, 1,10,0.0, 1, 1, 1,10
End of Data
 Number of Records Written=          87
