Program Version,EnergyPlus, Version 22.2.0-c249759bad, YMD=2023.09.01 14:31
1,5,Environment Title[],Latitude[deg],Longitude[deg],Time Zone[],Elevation[m]
2,8,Day of Simulation[],Month[],Day of Month[],DST Indicator[1=yes 0=no],Hour[],StartMinute[],EndMinute[],DayType
3,5,Cumulative Day of Simulation[],Month[],Day of Month[],DST Indicator[1=yes 0=no],DayType  ! When Daily Report Variables Requested
4,2,Cumulative Days of Simulation[],Month[]  ! When Monthly Report Variables Requested
5,1,Cumulative Days of Simulation[] ! When Run Period Report Variables Requested
6,1,Calendar Year of Simulation[] ! When Annual Report Variables Requested
7,1,Environment,Site Outdoor Air Drybulb Temperature [C] !Hourly
545,1,LIVING,Zone Mean Air Temperature [C] !Hourly
546,1,ATTIC,Zone Mean Air Temperature [C] !Hourly
547,1,CRAWLSPACE,Zone Mean Air Temperature [C] !Hourly
548,1,FAN,Fan Electricity Rate [W] !Hourly
720,1,LIVING,Zone Predicted Sensible Load to Heating Setpoint Heat Transfer Rate [W] !Hourly
721,1,LIVING,Zone System Predicted Sensible Load to Heating Setpoint Heat Transfer Rate [W] !Hourly
784,1,ATTIC,Zone Predicted Sensible Load to Heating Setpoint Heat Transfer Rate [W] !Hourly
785,1,ATTIC,Zone System Predicted Sensible Load to Heating Setpoint Heat Transfer Rate [W] !Hourly
848,1,CRAWLSPACE,Zone Predicted Sensible Load to Heating Setpoint Heat Transfer Rate [W] !Hourly
849,1,CRAWLSPACE,Zone System Predicted Sensible Load to Heating Setpoint Heat Transfer Rate [W] !Hourly
1121,1,DX_HEATING_COIL,Heating Coil Heating Rate [W] !Hourly
1135,1,DX_HEATING_COIL,Heating Coil Electricity Rate [W] !Hourly
1161,1,DX_HEATING_COIL,Heating Coil Defrost Electricity Rate [W] !Hourly
1163,1,DX_HEATING_COIL,Heating Coil Crankcase Heater Electricity Rate [W] !Hourly
1166,1,HEATING_RESISTANCE_BACKUP,Heating Coil Heating Rate [W] !Hourly
1168,1,HEATING_RESISTANCE_BACKUP,Heating Coil Electricity Rate [W] !Hourly
End of Data Dictionary
1,EXTREME_WINTER,  44.88, -93.22,  -6.00, 255.00
2,1, 2, 5, 0, 1, 0.00,60.00,Monday
7,-5.6
545,18.294718105468462
546,-0.8528906013249088
547,18.100105891590065
548,113.33411500100306
720,2107.9083419958115
721,2107.9083419958115
784,0.0
785,0.0
848,0.0
849,0.0
1121,2906.7641248764658
1135,1008.4511072068059
1161,45.78941594649744
1163,58.45060782748015
1166,0.0
1168,0.0
2,1, 2, 5, 0, 2, 0.00,60.00,Monday
7,-6.7
545,18.39796837915816
546,-0.543040541640972
547,17.628084549085454
548,145.5438360547082
720,2667.4557245511787
721,2667.4557245511787
784,0.0
785,0.0
848,0.0
849,0.0
1121,3732.2887205399816
1135,1283.9410069673995
1161,52.858868909120005
1163,18.2216489030111
1166,0.0
1168,0.0
2,1, 2, 5, 0, 3, 0.00,60.00,Monday
7,-6.7
545,18.47611189543153
546,-1.0719879144856872
547,17.427720679639748
548,162.15120602042953
720,3005.2194257669544
721,3005.2194257669544
784,0.0
785,0.0
848,0.0
849,0.0
1121,4202.983129126681
1135,1414.8171041497797
1161,58.17973278130149
1163,0.0
1166,72.35940157223104
1168,72.35940157223104
2,1, 2, 5, 0, 4, 0.00,60.00,Monday
7,-7.8
545,18.549648813374038
546,-1.295696156297285
547,17.193506042361335
548,162.15120602042953
720,3321.4607772833624
721,3321.4607772833624
784,0.0
785,0.0
848,0.0
849,0.0
1121,4067.5172733870086
1135,1403.9066484993157
1161,57.91644150760448
1163,0.0
1166,661.4995363479065
1168,661.4995363479065
2,1, 2, 5, 0, 5, 0.00,60.00,Monday
7,-7.8
545,18.58426359858766
546,-1.5471003009003765
547,17.003676985888426
548,162.15120602042953
720,3328.6635632603866
721,3328.6635632603866
784,0.0
785,0.0
848,0.0
849,0.0
1121,4115.294418616286
1135,1422.645505549044
1161,44.92887980912855
1163,0.0
1166,662.7139547021443
1168,662.7139547021443
2,1, 2, 5, 0, 6, 0.00,60.00,Monday
7,-8.3
545,19.318768921489607
546,-1.5528111823387836
547,16.817320702977998
548,162.15120602042953
720,4405.713350056238
721,4405.713350056238
784,0.0
785,0.0
848,0.0
849,0.0
1121,4041.0236345750714
1135,1412.9035934761796
1161,48.2606979250518
1163,0.0
1166,1995.1893178487412
1168,1995.1893178487412
2,1, 2, 5, 0, 7, 0.00,60.00,Monday
7,-8.3
545,19.582058066141734
546,-1.6397117554026888
547,16.6791679307058
548,162.15120602042953
720,4221.211371325942
721,4221.211371325942
784,0.0
785,0.0
848,0.0
849,0.0
1121,4023.4921454367113
1135,1432.6949361255026
1161,48.2606979250518
1163,0.0
1166,1885.050016434021
1168,1885.050016434021
2,1, 2, 5, 0, 8, 0.00,60.00,Monday
7,-9.0
545,19.668453283021446
546,-1.8202933461622912
547,16.520509950586558
548,162.15120602042953
720,4070.4236423909297
721,4070.4236423909297
784,0.0
785,0.0
848,0.0
849,0.0
1121,3956.0518821552914
1135,1439.3007736639788
1161,41.86939026490685
1163,0.0
1166,1812.8482486560924
1168,1812.8482486560924
2,1, 2, 5, 0, 9, 0.00,60.00,Monday
7,-9.0
545,19.70959710073581
546,-0.8746655712110204
547,16.377467393936932
548,162.15120602042953
720,3365.1431361515024
721,3365.1431361515024
784,0.0
785,0.0
848,0.0
849,0.0
1121,3954.133734058361
1135,1441.4425296487632
1161,41.86939026490685
1163,0.0
1166,1025.456090666375
1168,1025.456090666375
2,1, 2, 5, 0,10, 0.00,60.00,Monday
7,-8.0
545,19.72083233575968
546,0.33394981634679793
547,16.253166636542275
548,162.15120602042953
720,3259.1163006238785
721,3259.1163006238785
784,0.0
785,0.0
848,0.0
849,0.0
1121,4015.6759000416114
1135,1434.0066307545417
1161,57.692318354244115
1163,0.0
1166,791.0997675221506
1168,791.0997675221506
2,1, 2, 5, 0,11, 0.00,60.00,Monday
7,-7.0
545,19.72630829671242
546,1.2353331341968
547,16.138551355544962
548,162.15120602042953
720,3179.6611066758487
721,3179.6611066758487
784,0.0
785,0.0
848,0.0
849,0.0
1121,4114.773636268872
1135,1438.7158490899558
1161,63.57792449107751
1163,0.0
1166,539.2749644582295
1168,539.2749644582295
2,1, 2, 5, 0,12, 0.00,60.00,Monday
7,-6.0
545,19.751180051690213
546,3.450060557096485
547,16.035867908083084
548,158.48444109824248
720,2750.9669904749717
721,2750.9669904749717
784,0.0
785,0.0
848,0.0
849,0.0
1121,4113.14690998764
1135,1430.0906081964395
1161,69.34298932035571
1163,1.714346546935852
1166,0.0
1168,0.0
2,1, 2, 5, 0,13, 0.00,60.00,Monday
7,-5.6
545,19.78880123009819
546,4.6989908814273695
547,15.938245498757384
548,147.22919972834507
720,2655.2174413330395
721,2655.2174413330395
784,0.0
785,0.0
848,0.0
849,0.0
1121,3850.0674275200377
1135,1337.9144221601869
1161,59.59058098843611
1163,16.09901671551508
1166,0.0
1168,0.0
2,1, 2, 5, 0,14, 0.00,60.00,Monday
7,-4.0
545,19.810053415494977
546,4.662109797344208
547,15.859208912744348
548,130.36099933216872
720,2521.6911755808887
721,2521.6911755808887
784,0.0
785,0.0
848,0.0
849,0.0
1121,3553.9592605384155
1135,1207.8528063104625
1161,44.93428337173492
1163,37.76458951682757
1166,0.0
1168,0.0
2,1, 2, 5, 0,15, 0.00,60.00,Monday
7,-4.0
545,19.764418039661816
546,3.195361229619004
547,15.775197853280222
548,128.63882712838355
720,2477.58412003362
721,2477.58412003362
784,0.0
785,0.0
848,0.0
849,0.0
1121,3458.4536396789586
1135,1179.919389179336
1161,55.3870701901946
1163,39.53349288360171
1166,0.0
1168,0.0
2,1, 2, 5, 0,16, 0.00,60.00,Monday
7,-3.3
545,19.794459707961675
546,3.675042153347611
547,15.699609932792626
548,110.70059015292924
720,2111.058111809136
721,2111.058111809136
784,0.0
785,0.0
848,0.0
849,0.0
1121,3010.036816476163
1135,1023.5597878478922
1161,44.1522388982796
1163,62.14456441628029
1166,0.0
1168,0.0
2,1, 2, 5, 0,17, 0.00,60.00,Monday
7,-3.3
545,19.791746334719875
546,3.210288274048058
547,15.625527983733893
548,85.2308142688675
720,1564.9299818073014
721,1564.9299818073014
784,0.0
785,0.0
848,0.0
849,0.0
1121,2274.26634563305
1135,788.5901323860709
1161,33.9680620304347
1163,93.86270436660044
1166,0.0
1168,0.0
2,1, 2, 5, 0,18, 0.00,60.00,Monday
7,-3.3
545,19.872094030201655
546,3.8444676932231303
547,15.569326483165641
548,83.39160108996126
720,1562.744349284114
721,1562.744349284114
784,0.0
785,0.0
848,0.0
849,0.0
1121,2222.395503677404
1135,771.5228116608444
1161,33.2062774217169
1163,96.15399173188455
1166,0.0
1168,0.0
2,1, 2, 5, 0,19, 0.00,60.00,Monday
7,-3.3
545,19.77627708217204
546,1.9003643035824889
547,15.512934878497452
548,77.23103752510056
720,1446.4497199285306
721,1446.4497199285306
784,0.0
785,0.0
848,0.0
849,0.0
1121,2048.172884142098
1135,715.6387400105523
1161,30.753285100498058
1163,103.8252358655109
1166,0.0
1168,0.0
2,1, 2, 5, 0,20, 0.00,60.00,Monday
7,-2.8
545,19.730854164595524
546,0.943331273805369
547,15.451799705232862
548,76.30944032351064
720,1432.4965055463163
721,1432.4965055463163
784,0.0
785,0.0
848,0.0
849,0.0
1121,2046.258864160602
1135,706.5754099170593
1161,31.85731214088062
1163,104.98461426491512
1166,0.0
1168,0.0
2,1, 2, 5, 0,21, 0.00,60.00,Monday
7,-3.3
545,19.711699923975026
546,0.6295437907073523
547,15.386462494943903
548,80.95151272442685
720,1484.7554269884877
721,1484.7554269884877
784,0.0
785,0.0
848,0.0
849,0.0
1121,2142.1732087337878
1135,744.3758389665013
1161,35.3354405984093
1163,99.09556315553823
1166,0.0
1168,0.0
2,1, 2, 5, 0,22, 0.00,60.00,Monday
7,-3.3
545,19.69128946333797
546,0.579284876307347
547,15.320895208219463
548,89.84596033595957
720,1660.0889494509047
721,1660.0889494509047
784,0.0
785,0.0
848,0.0
849,0.0
1121,2393.3651761473193
1135,825.7798852691268
1161,39.20325846523958
1163,88.00942755692571
1166,0.0
1168,0.0
2,1, 2, 5, 0,23, 0.00,60.00,Monday
7,-3.0
545,18.90880785065665
546,-0.22476126042037403
547,15.239978956741234
548,59.939684820758664
720,1009.9382997930206
721,1009.9382997930206
784,0.0
785,0.0
848,0.0
849,0.0
1121,1567.3395550193102
1135,549.3627555543642
1161,28.357554848501806
1163,125.24797121852755
1166,0.0
1168,0.0
2,1, 2, 5, 0,24, 0.00,60.00,Monday
7,-3.0
545,18.594069988063847
546,-0.1257549255258475
547,15.154339377198983
548,78.88920466678591
720,1470.66464302647
721,1470.66464302647
784,0.0
785,0.0
848,0.0
849,0.0
1121,2099.9794679131423
1135,711.8418739972162
1161,37.32088336852172
1163,101.62015862728362
1166,0.0
1168,0.0
2,2, 2, 6, 0, 1, 0.00,60.00,Tuesday
7,-2.8
545,18.529191417393573
546,0.26918970179904494
547,15.072620751275684
548,102.12139652778127
720,1969.9383867102024
721,1969.9383867102024
784,0.0
785,0.0
848,0.0
849,0.0
1121,2764.4888474785425
1135,911.0719540747574
1161,53.41493734699122
1163,72.53207562471971
1166,0.0
1168,0.0
2,2, 2, 6, 0, 2, 0.00,60.00,Tuesday
7,-2.8
545,18.47190309070557
546,0.6385747635195009
547,14.99103240001359
548,124.05696309672003
720,2436.7669045865787
721,2436.7669045865787
784,0.0
785,0.0
848,0.0
849,0.0
1121,3415.0757706330714
1135,1105.189368626191
1161,64.84555100526042
1163,45.154095376982426
1166,0.0
1168,0.0
2,2, 2, 6, 0, 3, 0.00,60.00,Tuesday
7,-2.0
545,18.509618757568138
546,1.1432670113906258
547,14.913892511462327
548,137.50714065877517
720,2784.2605716791277
721,2784.2605716791277
784,0.0
785,0.0
848,0.0
849,0.0
1121,3904.71862800655
1135,1228.6014451222975
1161,73.26296410737088
1163,28.52964563655349
1166,0.0
1168,0.0
2,2, 2, 6, 0, 4, 0.00,60.00,Tuesday
7,-2.0
545,18.53446147634217
546,1.4885916560986239
547,14.836047908818745
548,149.05535973874146
720,3044.337778942545
721,3044.337778942545
784,0.0
785,0.0
848,0.0
849,0.0
1121,4269.317776871418
1135,1332.5939608818278
1161,79.41592066134531
1163,14.12878629994987
1166,0.0
1168,0.0
2,2, 2, 6, 0, 5, 0.00,60.00,Tuesday
7,-2.2
545,18.589286066525926
546,1.6577071524682054
547,14.75733523263928
548,148.06496662198904
720,3033.9481181488663
721,3033.9481181488663
784,0.0
785,0.0
848,0.0
849,0.0
1121,4272.358127486225
1135,1338.325298949663
1161,65.18752387527897
1163,15.68804863147928
1166,0.0
1168,0.0
2,2, 2, 6, 0, 6, 0.00,60.00,Tuesday
7,-2.2
545,19.309649487373857
546,1.980387023063273
547,14.686813445079748
548,162.15120602042953
720,4018.210320884851
721,4018.210320884851
784,0.0
785,0.0
848,0.0
849,0.0
1121,4763.443949347631
1135,1466.0482213198657
1161,61.672436208809216
1163,0.0
1166,703.3797384079489
1168,703.3797384079489
2,2, 2, 6, 0, 7, 0.00,60.00,Tuesday
7,-2.2
545,19.587537021730917
546,2.0917959999516587
547,14.646937573174347
548,162.15120602042953
720,3810.393006554081
721,3810.393006554081
784,0.0
785,0.0
848,0.0
849,0.0
1121,4745.843178138725
1135,1486.8748763203369
1161,61.672436208809216
1163,0.0
1166,553.5658516966314
1168,553.5658516966314
2,2, 2, 6, 0, 8, 0.00,60.00,Tuesday
7,-2.2
545,19.68152244710333
546,2.1256765844473153
547,14.586165512002264
548,162.15120602042953
720,3519.3245330666796
721,3519.3245330666796
784,0.0
785,0.0
848,0.0
849,0.0
1121,4769.8179072797
1135,1504.6807068440917
1161,54.732944853559815
1163,0.0
1166,215.29474214817856
1168,215.29474214817856
2,2, 2, 6, 0, 9, 0.00,60.00,Tuesday
7,-2.0
545,19.781570440172985
546,2.864982647837876
547,14.514843698237275
548,139.59731443571377
720,2784.104253531157
721,2784.104253531157
784,0.0
785,0.0
848,0.0
849,0.0
1121,4064.6999299923473
1135,1310.2019397754043
1161,46.44920011020456
1163,26.657899754518755
1166,0.0
1168,0.0
2,2, 2, 6, 0,10, 0.00,60.00,Tuesday
7,-1.7
545,19.7707657650723
546,3.31161596267865
547,14.463534107466472
548,132.20143387492402
720,2730.9771989309957
721,2730.9771989309957
784,0.0
785,0.0
848,0.0
849,0.0
1121,3904.0114190922995
1135,1259.0586681067023
1161,33.247671239240994
1163,36.15124794218551
1166,0.0
1168,0.0
2,2, 2, 6, 0,11, 0.00,60.00,Tuesday
7,-1.7
545,19.74310969076616
546,3.5906413714455723
547,14.41744782837662
548,132.69528108413556
720,2825.9846271182523
721,2825.9846271182523
784,0.0
785,0.0
848,0.0
849,0.0
1121,3973.351974963201
1135,1278.424010094906
1161,21.056599460962534
1163,35.83744427522151
1166,0.0
1168,0.0
2,2, 2, 6, 0,12, 0.00,60.00,Tuesday
7,-1.7
545,19.753846359629833
546,4.3320521997522015
547,14.368672103910365
548,125.15776712677278
720,2652.01611169892
721,2652.01611169892
784,0.0
785,0.0
848,0.0
849,0.0
1121,3727.2125076049856
1135,1205.1432193762091
1161,19.85474488334617
1163,45.162605534602164
1166,0.0
1168,0.0
2,2, 2, 6, 0,13, 0.00,60.00,Tuesday
7,-1.7
545,19.756486057770445
546,4.824663719869549
547,14.325692062732696
548,118.84814424998312
720,2526.4571982113794
721,2526.4571982113794
784,0.0
785,0.0
848,0.0
849,0.0
1121,3522.6009928535473
1135,1144.6079400163146
1161,18.853803462358044
1163,52.96845559960559
1166,0.0
1168,0.0
2,2, 2, 6, 0,14, 0.00,60.00,Tuesday
7,-2.2
545,19.704586709469773
546,4.076673035380392
547,14.290976480265934
548,124.295364860798
720,2612.716773032991
721,2612.716773032991
784,0.0
785,0.0
848,0.0
849,0.0
1121,3606.556484764007
1135,1180.451754357938
1161,29.51982552056834
1163,45.94328547319157
1166,0.0
1168,0.0
2,2, 2, 6, 0,15, 0.00,60.00,Tuesday
7,-2.8
545,19.671878904412
546,3.849517541136675
547,14.260356573328385
548,135.37178077298435
720,2791.652431525901
721,2791.652431525901
784,0.0
785,0.0
848,0.0
849,0.0
1121,3873.4594105276315
1135,1271.8900207482266
1161,37.54525611606424
1163,31.99566869374044
1166,0.0
1168,0.0
2,2, 2, 6, 0,16, 0.00,60.00,Tuesday
7,-3.3
545,19.66904892129658
546,2.5954076128464187
547,14.229228041676343
548,145.15904330779657
720,2972.597011056396
721,2972.597011056396
784,0.0
785,0.0
848,0.0
849,0.0
1121,4143.556815071965
1135,1362.3788403297472
1161,36.16858475676504
1163,19.901544888744628
1166,0.0
1168,0.0
2,2, 2, 6, 0,17, 0.00,60.00,Tuesday
7,-3.3
545,19.689067446480077
546,2.1913154748489228
547,14.194088269337826
548,145.73491293705837
720,2947.3443006179496
721,2947.3443006179496
784,0.0
785,0.0
848,0.0
849,0.0
1121,4186.217325500571
1135,1374.450719581006
1161,30.424388070718507
1163,19.36352245632804
1166,0.0
1168,0.0
2,2, 2, 6, 0,18, 0.00,60.00,Tuesday
7,-3.0
545,19.870232823468474
546,2.120709552768016
547,14.137724374855623
548,111.41159373601796
720,2126.491928981819
721,2126.491928981819
784,0.0
785,0.0
848,0.0
849,0.0
1121,3141.296712697071
1135,1052.677077426326
1161,24.23130987213419
1163,61.903451128750596
1166,0.0
1168,0.0
2,2, 2, 6, 0,19, 0.00,60.00,Tuesday
7,-3.3
545,19.79033631804101
546,1.052381686698556
547,14.091811193757996
548,99.50273990472468
720,1872.897048915891
721,1872.897048915891
784,0.0
785,0.0
848,0.0
849,0.0
1121,2758.481482339277
1135,942.3044842869343
1161,20.766850101684547
1163,76.66718096599982
1166,0.0
1168,0.0
2,2, 2, 6, 0,20, 0.00,60.00,Tuesday
7,-3.3
545,19.765601905362264
546,0.4280390539322851
547,14.039970746808844
548,95.58254855660329
720,1783.6146185490634
721,1783.6146185490634
784,0.0
785,0.0
848,0.0
849,0.0
1121,2628.0486486232967
1135,899.3015725640453
1161,23.78183388558024
1163,81.41154137526179
1166,0.0
1168,0.0
2,2, 2, 6, 0,21, 0.00,60.00,Tuesday
7,-3.9
545,19.705870462068297
546,0.05291231099355667
547,13.991801977155957
548,99.52202004420924
720,1834.172114996465
721,1834.172114996465
784,0.0
785,0.0
848,0.0
849,0.0
1121,2704.6422899147624
1135,933.3376498101079
1161,23.1664279044552
1163,76.52142662263782
1166,0.0
1168,0.0
2,2, 2, 6, 0,22, 0.00,60.00,Tuesday
7,-5.0
545,19.624989150776603
546,-0.1673009174880113
547,13.94752834643775
548,119.64454297790344
720,2140.4452095436645
721,2140.4452095436645
784,0.0
785,0.0
848,0.0
849,0.0
1121,3153.3447714393715
1135,1098.2261315866792
1161,39.72737047195421
1163,51.000579724551564
1166,0.0
1168,0.0
2,2, 2, 6, 0,23, 0.00,60.00,Tuesday
7,-4.4
545,18.928392590939836
546,-0.7521473713407884
547,13.870976787387667
548,91.28452961503353
720,1535.6203649505806
721,1535.6203649505806
784,0.0
785,0.0
848,0.0
849,0.0
1121,2390.805003188223
1135,838.2974778229252
1161,32.18327582024658
1163,86.32416734025756
1166,0.0
1168,0.0
2,2, 2, 6, 0,24, 0.00,60.00,Tuesday
7,-4.0
545,18.674992094571518
546,-0.5393954599419157
547,13.804646642655632
548,105.35771986461073
720,1926.7554527969678
721,1926.7554527969678
784,0.0
785,0.0
848,0.0
849,0.0
1121,2834.033287941871
1135,957.9641311589227
1161,36.3141937681106
1163,68.88745763238784
1166,0.0
1168,0.0
2,3, 2, 7, 0, 1, 0.00,60.00,Wednesday
7,-5.0
545,18.478653499685645
546,-0.32179428435981394
547,13.741624809352885
548,138.2708757936098
720,2541.0526196072187
721,2541.0526196072187
784,0.0
785,0.0
848,0.0
849,0.0
1121,3674.814887131701
1135,1231.9750386548442
1161,56.79019786807344
1163,27.4059801361243
1166,0.0
1168,0.0
2,3, 2, 7, 0, 2, 0.00,60.00,Wednesday
7,-5.0
545,18.47564254960938
546,-0.24329466707250383
547,13.67436497348049
548,161.17721122737856
720,3073.988654540055
721,3073.988654540055
784,0.0
785,0.0
848,0.0
849,0.0
1121,4425.660193175298
1135,1442.9665231624615
1161,50.03964857451122
1163,0.0
1166,0.0
1168,0.0
2,3, 2, 7, 0, 3, 0.00,60.00,Wednesday
7,-6.1
545,18.54835286633818
546,-0.5034322501756174
547,13.59577481341305
548,162.15120602042953
720,3552.641828993841
721,3552.641828993841
784,0.0
785,0.0
848,0.0
849,0.0
1121,4403.390254004099
1135,1459.5647034027609
1161,27.378252770885027
1163,0.0
1166,650.6412039988468
1168,650.6412039988468
2,3, 2, 7, 0, 4, 0.00,60.00,Wednesday
7,-6.0
545,18.5751821586939
546,-0.9431497584896236
547,13.529061440854518
548,162.15120602042953
720,3958.3870762632505
721,3958.3870762632505
784,0.0
785,0.0
848,0.0
849,0.0
1121,4433.507243979318
1135,1469.0067446096978
1161,22.650396749156332
1163,0.0
1166,1130.928762658344
1168,1130.928762658344
2,3, 2, 7, 0, 5, 0.00,60.00,Wednesday
7,-8.0
545,18.58202515732411
546,-2.6128565586891987
547,13.438184608551722
548,162.15120602042953
720,4267.3700584066155
721,4267.3700584066155
784,0.0
785,0.0
848,0.0
849,0.0
1121,4126.649817184709
1135,1427.029630619307
1161,36.42153490805751
1163,0.0
1166,1831.3080768614636
1168,1831.3080768614636
2,3, 2, 7, 0, 6, 0.00,60.00,Wednesday
7,-8.0
545,19.316910550242607
546,-2.3080522510702033
547,13.36866192948824
548,162.15120602042953
720,5388.42087812108
721,5388.42087812108
784,0.0
785,0.0
848,0.0
849,0.0
1121,4165.136571521922
1135,1440.4261776273927
1161,26.210748720977925
1163,0.0
1166,3175.405515936876
1168,3175.405515936876
2,3, 2, 7, 0, 7, 0.00,60.00,Wednesday
7,-9.4
545,19.573159498708208
546,-3.1542015278816353
547,13.31462924951451
548,162.15120602042953
720,5428.636172149914
721,5428.636172149914
784,0.0
785,0.0
848,0.0
849,0.0
1121,3971.7700229250977
1135,1441.768706865339
1161,27.08764134864703
1163,0.0
1166,3497.294147348155
1168,3497.294147348155
2,3, 2, 7, 0, 8, 0.00,60.00,Wednesday
7,-13.0
545,19.632400171567284
546,-6.2877546794851105
547,13.206756277401823
548,162.15120602042953
720,6178.011692488482
721,6178.011692488482
784,0.0
785,0.0
848,0.0
849,0.0
1121,3588.0016032373996
1135,1418.8744999044793
1161,12.788906190929948
1163,0.0
1166,4817.230195636426
1168,4817.230195636426
2,3, 2, 7, 0, 9, 0.00,60.00,Wednesday
7,-13.0
545,19.672151825593037
546,-5.652122322336143
547,13.14152531051936
548,162.15120602042953
720,5265.970678181706
721,5265.970678181706
784,0.0
785,0.0
848,0.0
849,0.0
1121,3586.6432636791815
1135,1420.2960000427686
1161,12.788906190929948
1163,0.0
1166,3944.6655195967755
1168,3944.6655195967755
2,3, 2, 7, 0,10, 0.00,60.00,Wednesday
7,-13.0
545,19.702783938099316
546,-5.473641375753712
547,13.055433990503753
548,162.15120602042953
720,4583.742547515911
721,4583.742547515911
784,0.0
785,0.0
848,0.0
849,0.0
1121,3604.461539599197
1135,1428.6025714189325
1161,6.97076608351185
1163,0.0
1166,3126.3694327703056
1168,3126.3694327703056
2,3, 2, 7, 0,11, 0.00,60.00,Wednesday
7,-12.8
545,19.739718070356272
546,-2.9183272312724857
547,12.995530531163013
548,162.15120602042953
720,3028.5103895303055
721,3028.5103895303055
784,0.0
785,0.0
848,0.0
849,0.0
1121,3626.3718093095454
1135,1431.8702300693828
1161,7.1679818688016885
1163,0.0
1166,1286.844670768496
1168,1286.844670768496
2,3, 2, 7, 0,12, 0.00,60.00,Wednesday
7,-12.2
545,19.73599915285019
546,-1.180624582202274
547,12.94797076305076
548,162.15120602042953
720,3124.6545523028635
721,3124.6545523028635
784,0.0
785,0.0
848,0.0
849,0.0
1121,3703.284447080987
1135,1444.0121279471468
1161,4.881458401324107
1163,0.0
1166,1172.2570022994105
1168,1172.2570022994105
2,3, 2, 7, 0,13, 0.00,60.00,Wednesday
7,-12.2
545,19.73967217337682
546,0.101657164553804
547,12.923460259337888
548,162.15120602042953
720,2777.7312027482785
721,2777.7312027482785
784,0.0
785,0.0
848,0.0
849,0.0
1121,3703.438938001012
1135,1443.8481578281562
1161,4.881458401324107
1163,0.0
1166,672.2315171336086
1168,672.2315171336086
2,3, 2, 7, 0,14, 0.00,60.00,Wednesday
7,-12.8
545,19.76552462728568
546,0.6185529850100981
547,12.912587331499122
548,159.05992438875145
720,2148.712984670012
721,2148.712984670012
784,0.0
785,0.0
848,0.0
849,0.0
1121,3567.08137019131
1135,1413.3761997922052
1161,1.2201789591589363
1163,3.7251437568027512
1166,0.0
1168,0.0
2,3, 2, 7, 0,15, 0.00,60.00,Wednesday
7,-12.8
545,19.826701348125233
546,-0.23943840909308536
547,12.909946659896509
548,138.85534468870085
720,1839.4929664052834
721,1839.4929664052834
784,0.0
785,0.0
848,0.0
849,0.0
1121,3069.230021628403
1135,1235.2755476211917
1161,0.06689120224492556
1163,28.728698098144356
1166,0.0
1168,0.0
2,3, 2, 7, 0,16, 0.00,60.00,Wednesday
7,-13.3
545,19.705483033126068
546,-1.5537816358962835
547,12.932923499416066
548,146.32954332845455
720,1941.674979742129
721,1941.674979742129
784,0.0
785,0.0
848,0.0
849,0.0
1121,3199.418845390048
1135,1296.701258664479
1161,0.07049185352280228
1163,19.509425438064355
1166,0.0
1168,0.0
2,3, 2, 7, 0,17, 0.00,60.00,Wednesday
7,-14.4
545,19.635598659512333
546,-3.58940329772019
547,12.951463731632568
548,162.15120602042953
720,2334.6323362475705
721,2334.6323362475705
784,0.0
785,0.0
848,0.0
849,0.0
1121,3464.893250901006
1135,1417.8117087614444
1161,0.07811139578218017
1163,0.0
1166,344.7090879268385
1168,344.7090879268385
2,3, 2, 7, 0,18, 0.00,60.00,Wednesday
7,-15.6
545,19.64369139224756
546,-6.938209277084076
547,12.955476870952525
548,162.15120602042953
720,3609.6672734248405
721,3609.6672734248405
784,0.0
785,0.0
848,0.0
849,0.0
1121,3331.81294686993
1135,1398.3762139204387
1161,0.07811139578218017
1163,0.0
1166,2065.6033016081183
1168,2065.6033016081183
2,3, 2, 7, 0,19, 0.00,60.00,Wednesday
7,-15.6
545,19.641085669608735
546,-8.461411068682837
547,12.951412404703953
548,162.15120602042953
720,3718.5417109491
721,3718.5417109491
784,0.0
785,0.0
848,0.0
849,0.0
1121,3331.6091845106785
1135,1398.5778054144826
1161,0.07811139578218017
1163,0.0
1166,2397.4584276242604
1168,2397.4584276242604
2,3, 2, 7, 0,20, 0.00,60.00,Wednesday
7,-16.1
545,19.62532470559772
546,-8.87201946883532
547,12.900481093708855
548,162.15120602042953
720,5081.8823685675725
721,5081.8823685675725
784,0.0
785,0.0
848,0.0
849,0.0
1121,3276.4942948826233
1135,1390.923598634612
1161,0.07811139578218017
1163,0.0
1166,4143.773571862596
1168,4143.773571862596
2,3, 2, 7, 0,21, 0.00,60.00,Wednesday
7,-16.7
545,19.65084854851618
546,-9.344205661975497
547,12.835318544283172
548,162.15120602042953
720,5249.668423745636
721,5249.668423745636
784,0.0
785,0.0
848,0.0
849,0.0
1121,3211.344973756452
1135,1381.3542606893047
1161,0.07811139578218017
1163,0.0
1166,4465.999189003804
1168,4465.999189003804
2,3, 2, 7, 0,22, 0.00,60.00,Wednesday
7,-17.2
545,19.673666849489663
546,-9.280366173440104
547,12.75455649930764
548,162.15120602042953
720,5034.43440930068
721,5034.43440930068
784,0.0
785,0.0
848,0.0
849,0.0
1121,3156.714027436473
1135,1374.1719745047549
1161,0.07811139578218017
1163,0.0
1166,4298.656375018354
1168,4298.656375018354
2,3, 2, 7, 0,23, 0.00,60.00,Wednesday
7,-17.8
545,18.947707622533823
546,-9.740600390694603
547,12.652231161491326
548,162.15120602042953
720,4355.816708891396
721,4355.816708891396
784,0.0
785,0.0
848,0.0
849,0.0
1121,3092.1152310067
1135,1365.174518242214
1161,0.07811139578218017
1163,0.0
1166,3579.531644289948
1168,3579.531644289948
2,3, 2, 7, 0,24, 0.00,60.00,Wednesday
7,-17.2
545,18.694055210565605
546,-9.609374307811969
547,12.51447702636249
548,162.15120602042953
720,4869.880854734467
721,4869.880854734467
784,0.0
785,0.0
848,0.0
849,0.0
1121,3173.778827446705
1135,1357.8725411081257
1161,0.07811139578218017
1163,0.0
1166,4042.7138072429766
1168,4042.7138072429766
2,4, 2, 8, 0, 1, 0.00,60.00,Thursday
7,-17.2
545,18.60066919627713
546,-9.49390295431305
547,12.391615447990269
548,162.15120602042953
720,5480.133148909021
721,5480.133148909021
784,0.0
785,0.0
848,0.0
849,0.0
1121,3179.9791564487305
1135,1351.9094923413804
1161,0.07811139578218017
1163,0.0
1166,4723.327604094191
1168,4723.327604094191
2,4, 2, 8, 0, 2, 0.00,60.00,Thursday
7,-18.9
545,18.572844148344085
546,-11.145237668418268
547,12.253063558244413
548,162.15120602042953
720,5748.598283626245
721,5748.598283626245
784,0.0
785,0.0
848,0.0
849,0.0
1121,3000.227623200415
1135,1322.9637404585922
1161,0.8823344923895767
1163,0.0
1166,5206.793898684695
1168,5206.793898684695
2,4, 2, 8, 0, 3, 0.00,60.00,Thursday
7,-19.4
545,18.5450061710723
546,-11.852612311080918
547,12.125926390602888
548,162.15120602042953
720,6374.111743010639
721,6374.111743010639
784,0.0
785,0.0
848,0.0
849,0.0
1121,2951.452551482035
1135,1315.3670122512337
1161,0.07811139578218017
1163,0.0
1166,6065.211834781272
1168,6065.211834781272
2,4, 2, 8, 0, 4, 0.00,60.00,Thursday
7,-21.1
545,18.52953650864465
546,-12.677748153593937
547,11.98357689221157
548,162.15120602042953
720,7089.643060194343
721,7089.643060194343
784,0.0
785,0.0
848,0.0
849,0.0
1121,2780.3614449180227
1135,1287.4903781055607
1161,0.07811139578218017
1163,0.0
1166,7125.630345546475
1168,7125.630345546475
2,4, 2, 8, 0, 5, 0.00,60.00,Thursday
7,-21.7
545,18.536735134895757
546,-13.62623455176434
547,11.853264854298072
548,162.15120602042953
720,7063.325979502122
721,7063.325979502122
784,0.0
785,0.0
848,0.0
849,0.0
1121,2721.707255073933
1135,1277.1805055658124
1161,0.07811139578218017
1163,0.0
1166,7218.65642704908
1168,7218.65642704908
2,4, 2, 8, 0, 6, 0.00,60.00,Thursday
7,-22.2
545,18.9132167327323
546,-14.069613845277756
547,11.719802233316505
548,162.15120602042953
720,8100.261773444176
721,8100.261773444176
784,0.0
785,0.0
848,0.0
849,0.0
1121,2672.4976497945113
1135,1268.6455616164747
1161,0.2760029209272276
1163,0.0
1166,7754.820194034651
1168,7754.820194034651
2,4, 2, 8, 0, 7, 0.00,60.00,Thursday
7,-22.2
545,19.06785176175178
546,-14.339108816374898
547,11.605650353329883
548,162.15120602042953
720,7990.1571149107785
721,7990.1571149107785
784,0.0
785,0.0
848,0.0
849,0.0
1121,2663.9979382765446
1135,1275.6926810414923
1161,0.2760029209272276
1163,0.0
1166,7754.820194034651
1168,7754.820194034651
2,4, 2, 8, 0, 8, 0.00,60.00,Thursday
7,-22.8
545,19.09621522826703
546,-14.470037074609639
547,11.474435003337785
548,162.15120602042953
720,7937.353947992735
721,7937.353947992735
784,0.0
785,0.0
848,0.0
849,0.0
1121,2599.86119866503
1135,1266.6883958559959
1161,1.5760491574924693
1163,0.0
1166,7754.820194034651
1168,7754.820194034651
2,4, 2, 8, 0, 9, 0.00,60.00,Thursday
7,-21.1
545,19.504256268472275
546,-12.729490989891575
547,11.366261346609397
548,162.15120602042953
720,6649.850837845315
721,6649.850837845315
784,0.0
785,0.0
848,0.0
849,0.0
1121,2766.6839216336884
1135,1297.0309971146328
1161,0.7574507924332641
1163,0.0
1166,6870.623536463867
1168,6870.623536463867
2,4, 2, 8, 0,10, 0.00,60.00,Thursday
7,-18.9
545,19.65774100563296
546,-9.034902546487656
547,11.290713137058066
548,162.15120602042953
720,5169.833970513591
721,5169.833970513591
784,0.0
785,0.0
848,0.0
849,0.0
1121,2982.3153230589187
1135,1342.2667032496765
1161,0.07811139578218017
1163,0.0
1166,4890.60835688205
1168,4890.60835688205
2,4, 2, 8, 0,11, 0.00,60.00,Thursday
7,-16.7
545,19.71697987467114
546,-8.452658380918221
547,11.227480957293304
548,162.15120602042953
720,4181.566289457953
721,4181.566289457953
784,0.0
785,0.0
848,0.0
849,0.0
1121,3212.586573794533
1135,1380.15806585349
1161,0.07811139578218017
1163,0.0
1166,3318.438638186494
1168,3318.438638186494
2,4, 2, 8, 0,12, 0.00,60.00,Thursday
7,-16.7
545,19.711409391913
546,-6.093694199491972
547,11.182068979136412
548,162.15120602042953
720,4100.3381903865575
721,4100.3381903865575
784,0.0
785,0.0
848,0.0
849,0.0
1121,3211.244391083889
1135,1381.4511277442298
1161,0.07811139578218017
1163,0.0
1166,3150.4569866150264
1168,3150.4569866150264
2,4, 2, 8, 0,13, 0.00,60.00,Thursday
7,-16.7
545,19.719211365128473
546,-5.0276088766880225
547,11.163749598181141
548,162.15120602042953
720,3856.518140335027
721,3856.518140335027
784,0.0
785,0.0
848,0.0
849,0.0