Program Version,EnergyPlus, Version 22.2.0-c249759bad, YMD=2023.09.01 20:44
1,5,Environment Title[],Latitude[deg],Longitude[deg],Time Zone[],Elevation[m]
2,8,Day of Simulation[],Month[],Day of Month[],DST Indicator[1=yes 0=no],Hour[],StartMinute[],EndMinute[],DayType
3,5,Cumulative Day of Simulation[],Month[],Day of Month[],DST Indicator[1=yes 0=no],DayType  ! When Daily Report Variables Requested
4,2,Cumulative Days of Simulation[],Month[]  ! When Monthly Report Variables Requested
5,1,Cumulative Days of Simulation[] ! When Run Period Report Variables Requested
6,1,Calendar Year of Simulation[] ! When Annual Report Variables Requested
581,11,LIVING,AFN Zone Infiltration Air Change Rate [ach] !RunPeriod [Value,Min,Month,Day,Hour,Minute,Max,Month,Day,Hour,Minute]
582,11,ATTIC,AFN Zone Infiltration Air Change Rate [ach] !RunPeriod [Value,Min,Month,Day,Hour,Minute,Max,Month,Day,Hour,Minute]
583,11,CRAWLSPACE,AFN Zone Infiltration Air Change Rate [ach] !RunPeriod [Value,Min,Month,Day,Hour,Minute,Max,Month,Day,Hour,Minute]
1038,11,Facility,Facility Heating Setpoint Not Met Time [hr] !RunPeriod [Value,Min,Month,Day,Hour,Minute,Max,Month,Day,Hour,Minute]
1039,11,Facility,Facility Cooling Setpoint Not Met Time [hr] !RunPeriod [Value,Min,Month,Day,Hour,Minute,Max,Month,Day,Hour,Minute]
1115,11,DX_HEATING_COIL,Heating Coil Heating Energy [J] !RunPeriod [Value,Min,Month,Day,Hour,Minute,Max,Month,Day,Hour,Minute]
1128,11,DX_HEATING_COIL,Heating Coil Electricity Energy [J] !RunPeriod [Value,Min,Month,Day,Hour,Minute,Max,Month,Day,Hour,Minute]
1153,11,DX_HEATING_COIL,Heating Coil Defrost Electricity Energy [J] !RunPeriod [Value,Min,Month,Day,Hour,Minute,Max,Month,Day,Hour,Minute]
1154,11,DX_HEATING_COIL,Heating Coil Crankcase Heater Electricity Energy [J] !RunPeriod [Value,Min,Month,Day,Hour,Minute,Max,Month,Day,Hour,Minute]
1155,11,HEATING_RESISTANCE_BACKUP,Heating Coil Heating Energy [J] !RunPeriod [Value,Min,Month,Day,Hour,Minute,Max,Month,Day,Hour,Minute]
1156,11,HEATING_RESISTANCE_BACKUP,Heating Coil Electricity Energy [J] !RunPeriod [Value,Min,Month,Day,Hour,Minute,Max,Month,Day,Hour,Minute]
1292,11,WATER HEATER,Water Heater Heat Loss Energy [J] !RunPeriod [Value,Min,Month,Day,Hour,Minute,Max,Month,Day,Hour,Minute]
1306,11,WATER HEATER,Water Heater Heating Energy [J] !RunPeriod [Value,Min,Month,Day,Hour,Minute,Max,Month,Day,Hour,Minute]
1307,11,WATER HEATER,Water Heater Unmet Demand Heat Transfer Energy [J] !RunPeriod [Value,Min,Month,Day,Hour,Minute,Max,Month,Day,Hour,Minute]
1308,11,WATER HEATER,Water Heater Electricity Energy [J] !RunPeriod [Value,Min,Month,Day,Hour,Minute,Max,Month,Day,Hour,Minute]
13,11,Electricity:Facility [J] !RunPeriod [Value,Min,Month,Day,Hour,Minute,Max,Month,Day,Hour,Minute]
1134,11,Heating:Electricity [J] !RunPeriod [Value,Min,Month,Day,Hour,Minute,Max,Month,Day,Hour,Minute]
1096,11,Cooling:Electricity [J] !RunPeriod [Value,Min,Month,Day,Hour,Minute,Max,Month,Day,Hour,Minute]
562,11,Fans:Electricity [J] !RunPeriod [Value,Min,Month,Day,Hour,Minute,Max,Month,Day,Hour,Minute]
1379,11,Pumps:Electricity [J] !RunPeriod [Value,Min,Month,Day,Hour,Minute,Max,Month,Day,Hour,Minute]
1326,11,WaterSystems:Electricity [J] !RunPeriod [Value,Min,Month,Day,Hour,Minute,Max,Month,Day,Hour,Minute]
61,11,InteriorLights:Electricity [J] !RunPeriod [Value,Min,Month,Day,Hour,Minute,Max,Month,Day,Hour,Minute]
1046,11,ExteriorLights:Electricity [J] !RunPeriod [Value,Min,Month,Day,Hour,Minute,Max,Month,Day,Hour,Minute]
134,11,InteriorEquipment:Electricity [J] !RunPeriod [Value,Min,Month,Day,Hour,Minute,Max,Month,Day,Hour,Minute]
170,11,gas_dryer:InteriorEquipment:Electricity [J] !RunPeriod [Value,Min,Month,Day,Hour,Minute,Max,Month,Day,Hour,Minute]
207,11,clotheswasher:InteriorEquipment:Electricity [J] !RunPeriod [Value,Min,Month,Day,Hour,Minute,Max,Month,Day,Hour,Minute]
244,11,dishwasher:InteriorEquipment:Electricity [J] !RunPeriod [Value,Min,Month,Day,Hour,Minute,Max,Month,Day,Hour,Minute]
281,11,refrigerator:InteriorEquipment:Electricity [J] !RunPeriod [Value,Min,Month,Day,Hour,Minute,Max,Month,Day,Hour,Minute]
318,11,electric_mels:InteriorEquipment:Electricity [J] !RunPeriod [Value,Min,Month,Day,Hour,Minute,Max,Month,Day,Hour,Minute]
355,11,NaturalGas:Facility [J] !RunPeriod [Value,Min,Month,Day,Hour,Minute,Max,Month,Day,Hour,Minute]
403,11,InteriorEquipment:NaturalGas [J] !RunPeriod [Value,Min,Month,Day,Hour,Minute,Max,Month,Day,Hour,Minute]
476,11,gas_dryer:InteriorEquipment:NaturalGas [J] !RunPeriod [Value,Min,Month,Day,Hour,Minute,Max,Month,Day,Hour,Minute]
513,11,gas_mels:InteriorEquipment:NaturalGas [J] !RunPeriod [Value,Min,Month,Day,Hour,Minute,Max,Month,Day,Hour,Minute]
End of Data Dictionary
1,EXTREME_WINTER,  46.90, -96.80,  -6.00, 274.30
5,7
1038,14.0,0.0, 2, 5, 1,15,0.25, 2, 5, 6,15
1039,0.0,0.0, 2, 5, 1,15,0.0, 2, 5, 1,15
581,0.5775975130785134,0.3470311111075456, 2, 8,15,60,1.1676922146879563, 2, 9,15,55
582,5.718917117592842,0.15697100711369466, 2, 8, 8,60,22.309439324055088, 2, 9, 5,52
583,0.07714668497535307,0.0020717809475058477, 2, 8,23, 5,0.09588694258605766, 2, 9,10,60
1115,1795352406.980761,0.0, 2, 6,23, 5,3685087.0619615866, 2, 8,19,45
1128,741319107.9099307,0.0, 2, 6,23, 5,1225814.5936148856, 2, 8,19,60
1153,11185456.456176423,0.0, 2, 6,23, 5,66696.67567644693, 2, 8,11,60
1154,1748177.1943587488,0.0, 2, 5, 1, 7,64056.82868976815, 2, 7,16,15
1155,3023039107.2181764,0.0, 2, 6,15,15,9145449.714020638, 2, 9,22,60
1156,3023039107.2181764,0.0, 2, 6,15,15,9145449.714020638, 2, 9,22,60
1292,-25376242.11376264,-43344.97469612285, 2,10, 4,45,-4544.006435007337, 2,10,15,28
1306,303259981.256438,0.0, 2, 5, 1, 7,4050000.0, 2, 5, 9,15
1307,115308997.31067242,0.0, 2, 5, 1, 7,11193163.92494118, 2,11,10,30
1308,303259981.256438,0.0, 2, 5, 1, 7,4050000.0, 2, 5, 9,15
13,4542853587.01295,1219836.9223491692, 2, 7,12,60,14910337.872066867, 2,10, 8,15
61,301924526.02383536,88139.10953165221, 2, 5, 1,15,1282023.4113694867, 2, 5,20,15
134,70666020.44019976,63564.01800854099, 2, 5, 4,15,156554.22484006523, 2,10,20,15
170,5241013.419656067,348.4159749238097, 2, 5, 4,15,17476.39704006126, 2,10,12,15
207,6509451.13922267,815.2532113832032, 2, 5, 3,15,22990.642799023623, 2,10,10,15
244,12749673.399825225,1521.856143006317, 2, 5, 4,15,53038.631142310165, 2,10,20,15
281,46165882.481495745,59938.60262432081, 2, 5, 5,15,81951.81706819107, 2, 5,19,15
318,0.0,0.0, 2, 5, 1,15,0.0, 2, 5, 1,15
355,197687796.27748066,18561.32405820678, 2, 5, 4,15,724774.895203776, 2,10,18,15
403,197687796.27748066,18561.32405820678, 2, 5, 4,15,724774.895203776, 2,10,18,15
476,106772067.24485716,7098.072629279515, 2, 5, 4,15,356036.3026282215, 2,10,12,15
513,0.0,0.0, 2, 5, 1,15,0.0, 2, 5, 1,15
562,89711210.51383545,85365.42123445409, 2, 7,12,60,135484.95529624907, 2, 7,11,15
1046,0.0,0.0, 2, 5, 1,15,0.0, 2, 5, 1,15
1096,0.0,0.0, 2, 5, 1,15,0.0, 2, 5, 1,15
1134,3777291848.7786436,851700.2895545869, 2, 7,12,60,10198946.91195211, 2,11, 6,15
1326,303259981.2564381,0.0, 2, 5, 1,15,4050000.0, 2, 5, 8,45
1379,0.0,0.0, 2, 5, 1,15,0.0, 2, 5, 1,15
1,EXTREME_SUMMER,  46.90, -96.80,  -6.00, 274.30
5,7
1038,0.0,0.0, 7, 1, 1,15,0.0, 7, 1, 1,15
1039,28.75,0.0, 7, 1, 1,15,0.25, 7, 1,15,45
581,0.14335971845169201,0.0, 7, 1, 6,11,0.5384620181628209, 7, 4,16,60
582,2.6936572433739214,0.0, 7, 1, 7,55,9.237386690786536, 7, 4,15,60
583,0.03790365986027165,0.0, 7, 1,23, 3,0.0730391967925496, 7, 4,16,60
1115,0.0,0.0, 7, 1, 1, 7,0.0, 7, 1, 1, 7
1128,0.0,0.0, 7, 1, 1, 7,0.0, 7, 1, 1, 7
1153,0.0,0.0, 7, 1, 1, 7,0.0, 7, 1, 1, 7
1154,0.0,0.0, 7, 1, 1, 7,0.0, 7, 1, 1, 7
1155,0.0,0.0, 7, 1, 1, 7,0.0, 7, 1, 1, 7
1156,0.0,0.0, 7, 1, 1, 7,0.0, 7, 1, 1, 7
1292,-21922914.78323097,-34324.58158061203, 7, 6, 6,45,-2038.580213342245, 7, 1, 8,31
1306,237342792.80655938,0.0, 7, 1, 1, 7,4050000.0, 7, 4, 6,60
1307,71621747.86810629,0.0, 7, 1, 1, 7,7161579.029290198, 7, 6, 9,30
1308,237342792.80655938,0.0, 7, 1, 1, 7,4050000.0, 7, 4, 6,60
13,1125096570.8501434,162033.5445418638, 7, 1, 4,60,6447492.525635346, 7, 1,18,30
61,301924526.02383536,88139.10953165221, 7, 1, 1,15,1282023.4113694867, 7, 1,20,15
134,70666020.44019976,63564.01800854099, 7, 1, 4,15,156554.22484006523, 7, 6,20,15
170,5241013.419656067,348.4159749238097, 7, 1, 4,15,17476.39704006126, 7, 6,12,15
207,6509451.13922267,815.2532113832032, 7, 1, 3,15,22990.642799023623, 7, 6,10,15
244,12749673.399825225,1521.856143006317, 7, 1, 4,15,53038.631142310165, 7, 6,20,15
281,46165882.481495745,59938.60262432081, 7, 1, 5,15,81951.81706819107, 7, 1,19,15
318,0.0,0.0, 7, 1, 1,15,0.0, 7, 1, 1,15
355,197687796.27748066,18561.32405820678, 7, 1, 4,15,724774.895203776, 7, 6,18,15
403,197687796.27748066,18561.32405820678, 7, 1, 4,15,724774.895203776, 7, 6,18,15
476,106772067.24485716,7098.072629279515, 7, 1, 4,15,356036.3026282215, 7, 6,12,15
513,0.0,0.0, 7, 1, 1,15,0.0, 7, 1, 1,15
562,51047885.774050824,0.0, 7, 1, 6,30,135484.95529624907, 7, 1,15,60
1046,0.0,0.0, 7, 1, 1,15,0.0, 7, 1, 1,15
1096,464115345.8054982,0.0, 7, 1, 6,30,1382939.245632396, 7, 4,17,60
1134,0.0,0.0, 7, 1, 1,15,0.0, 7, 1, 1,15
1326,237342792.80655956,0.0, 7, 1, 1,15,4050000.0, 7, 1, 8,45
1379,0.0,0.0, 7, 1, 1,15,0.0, 7, 1, 1,15
1,ANNUAL,  46.90, -96.80,  -6.00, 274.30
5,365
1038,109.75,0.0, 1, 1, 1,15,0.25, 1,11, 6,15
1039,253.0,0.0, 1, 1, 1,15,0.25, 5,18,11,30
581,0.3895644105651836,0.0, 7, 1, 6,11,1.6025259224345885,10,27, 9,60
582,5.7061009567651135,0.0, 2, 1,19,37,42.45882672535202, 3, 7,18,60
583,0.03925770660780635,0.0, 7, 1,23, 3,0.10228685903300606, 1,19,16,60
1115,43296669943.64566,0.0, 1, 1,23, 5,4683356.659097102, 3,23, 8,60
1128,15258888899.170366,0.0, 1, 1,23, 5,1352937.8958055566, 4,10, 9,60
1153,359699498.58284223,0.0, 1, 1,23, 5,116129.48659825283, 3,24, 6,30
1154,1191841883.8085163,0.0, 1, 1, 1, 7,180000.0, 2,24,16,30
1155,36374245285.85597,0.0, 1, 1,23, 5,9145449.714020638, 1,21, 6,15
1156,36374245285.85597,0.0, 1, 1,23, 5,9145449.714020638, 1,21, 6,15
1292,-1243317264.2193398,-45552.35282709727, 2,20, 5,15,-1849.085833047453, 7,24, 8,31
1306,13851550845.337187,0.0, 1, 1, 1, 7,4050000.0, 1, 1, 9,45
1307,4674796711.881469,0.0, 1, 1, 1, 7,17303634.05868172, 2,20, 8,30
1308,13851550845.337187,0.0, 1, 1, 1, 7,4050000.0, 1, 1, 9,45
13,95122299880.2414,151703.1275401932, 4, 3, 4,15,15606288.906981746, 2,19,19,15
61,15743207428.383959,88139.10953165221, 1, 1, 1,15,1282023.4113694867, 1, 1,20,15
134,3685071073.4325233,63564.01800854099, 1, 2, 4,15,156554.22484006523, 1, 1,20,15
170,273393721.45532674,348.4159749238097, 1, 2, 4,15,17476.39704006126, 1, 1,12,15
207,339560869.0695816,815.2532113832032, 1, 2, 3,15,22990.642799023623, 1, 1,10,15
244,664895467.8009144,1521.856143006317, 1, 2, 4,15,53038.631142310165, 1, 1,20,15
281,2407221015.106824,59938.60262432081, 1, 1, 5,15,81951.81706819107, 1, 1,19,15
318,0.0,0.0, 1, 1, 1,15,0.0, 1, 1, 1,15
355,10310294493.051695,18561.32405820678, 1, 2, 4,15,724774.895203776, 1, 1,18,15
403,10310294493.051695,18561.32405820678, 1, 2, 4,15,724774.895203776, 1, 1,18,15
476,5569688622.066177,7098.072629279515, 1, 2, 4,15,356036.3026282215, 1, 1,12,15
513,0.0,0.0, 1, 1, 1,15,0.0, 1, 1, 1,15
562,2451725569.7446027,0.0, 2,24,16,30,135484.95529624907, 1,27,11,45
1046,0.0,0.0, 1, 1, 1,15,0.0, 1, 1, 1,15
1096,6206069395.923037,0.0, 1, 1, 1,15,1480019.2223806605, 9, 5,16,60
1134,53184675567.41765,0.0, 3, 5,14,45,10264970.87766697, 1,24,13,60
1326,13851550845.337225,0.0, 1, 1, 1,15,4050000.0000000014, 8,11, 8,60
1379,0.0,0.0, 1, 1, 1,15,0.0, 1, 1, 1,15
End of Data
 Number of Records Written=          99
