Program Version,EnergyPlus, Version 22.2.0-c249759bad, YMD=2023.07.07 15:20
1,5,Environment Title[],Latitude[deg],Longitude[deg],Time Zone[],Elevation[m]
2,8,Day of Simulation[],Month[],Day of Month[],DST Indicator[1=yes 0=no],Hour[],StartMinute[],EndMinute[],DayType
3,5,Cumulative Day of Simulation[],Month[],Day of Month[],DST Indicator[1=yes 0=no],DayType  ! When Daily Report Variables Requested
4,2,Cumulative Days of Simulation[],Month[]  ! When Monthly Report Variables Requested
5,1,Cumulative Days of Simulation[] ! When Run Period Report Variables Requested
6,1,Calendar Year of Simulation[] ! When Annual Report Variables Requested
581,11,LIVING,AFN Zone Infiltration Air Change Rate [ach] !RunPeriod [Value,Min,Month,Day,Hour,Minute,Max,Month,Day,Hour,Minute]
582,11,ATTIC,AFN Zone Infiltration Air Change Rate [ach] !RunPeriod [Value,Min,Month,Day,Hour,Minute,Max,Month,Day,Hour,Minute]
583,11,CRAWLSPACE,AFN Zone Infiltration Air Change Rate [ach] !RunPeriod [Value,Min,Month,Day,Hour,Minute,Max,Month,Day,Hour,Minute]
1038,11,Facility,Facility Heating Setpoint Not Met Time [hr] !RunPeriod [Value,Min,Month,Day,Hour,Minute,Max,Month,Day,Hour,Minute]
1039,11,Facility,Facility Cooling Setpoint Not Met Time [hr] !RunPeriod [Value,Min,Month,Day,Hour,Minute,Max,Month,Day,Hour,Minute]
1115,11,DX_HEATING_COIL,Heating Coil Heating Energy [J] !RunPeriod [Value,Min,Month,Day,Hour,Minute,Max,Month,Day,Hour,Minute]
1128,11,DX_HEATING_COIL,Heating Coil Electricity Energy [J] !RunPeriod [Value,Min,Month,Day,Hour,Minute,Max,Month,Day,Hour,Minute]
1153,11,DX_HEATING_COIL,Heating Coil Defrost Electricity Energy [J] !RunPeriod [Value,Min,Month,Day,Hour,Minute,Max,Month,Day,Hour,Minute]
1154,11,DX_HEATING_COIL,Heating Coil Crankcase Heater Electricity Energy [J] !RunPeriod [Value,Min,Month,Day,Hour,Minute,Max,Month,Day,Hour,Minute]
1156,11,HEATING_RESISTANCE_BACKUP,Heating Coil Electricity Energy [J] !RunPeriod [Value,Min,Month,Day,Hour,Minute,Max,Month,Day,Hour,Minute]
13,11,Electricity:Facility [J] !RunPeriod [Value,Min,Month,Day,Hour,Minute,Max,Month,Day,Hour,Minute]
1134,11,Heating:Electricity [J] !RunPeriod [Value,Min,Month,Day,Hour,Minute,Max,Month,Day,Hour,Minute]
1096,11,Cooling:Electricity [J] !RunPeriod [Value,Min,Month,Day,Hour,Minute,Max,Month,Day,Hour,Minute]
562,11,Fans:Electricity [J] !RunPeriod [Value,Min,Month,Day,Hour,Minute,Max,Month,Day,Hour,Minute]
1388,11,Pumps:Electricity [J] !RunPeriod [Value,Min,Month,Day,Hour,Minute,Max,Month,Day,Hour,Minute]
1360,11,WaterSystems:Electricity [J] !RunPeriod [Value,Min,Month,Day,Hour,Minute,Max,Month,Day,Hour,Minute]
61,11,InteriorLights:Electricity [J] !RunPeriod [Value,Min,Month,Day,Hour,Minute,Max,Month,Day,Hour,Minute]
1046,11,ExteriorLights:Electricity [J] !RunPeriod [Value,Min,Month,Day,Hour,Minute,Max,Month,Day,Hour,Minute]
134,11,InteriorEquipment:Electricity [J] !RunPeriod [Value,Min,Month,Day,Hour,Minute,Max,Month,Day,Hour,Minute]
170,11,gas_dryer:InteriorEquipment:Electricity [J] !RunPeriod [Value,Min,Month,Day,Hour,Minute,Max,Month,Day,Hour,Minute]
207,11,clotheswasher:InteriorEquipment:Electricity [J] !RunPeriod [Value,Min,Month,Day,Hour,Minute,Max,Month,Day,Hour,Minute]
244,11,dishwasher:InteriorEquipment:Electricity [J] !RunPeriod [Value,Min,Month,Day,Hour,Minute,Max,Month,Day,Hour,Minute]
281,11,refrigerator:InteriorEquipment:Electricity [J] !RunPeriod [Value,Min,Month,Day,Hour,Minute,Max,Month,Day,Hour,Minute]
318,11,electric_mels:InteriorEquipment:Electricity [J] !RunPeriod [Value,Min,Month,Day,Hour,Minute,Max,Month,Day,Hour,Minute]
355,11,NaturalGas:Facility [J] !RunPeriod [Value,Min,Month,Day,Hour,Minute,Max,Month,Day,Hour,Minute]
1323,11,WaterSystems:NaturalGas [J] !RunPeriod [Value,Min,Month,Day,Hour,Minute,Max,Month,Day,Hour,Minute]
403,11,InteriorEquipment:NaturalGas [J] !RunPeriod [Value,Min,Month,Day,Hour,Minute,Max,Month,Day,Hour,Minute]
476,11,gas_dryer:InteriorEquipment:NaturalGas [J] !RunPeriod [Value,Min,Month,Day,Hour,Minute,Max,Month,Day,Hour,Minute]
513,11,gas_mels:InteriorEquipment:NaturalGas [J] !RunPeriod [Value,Min,Month,Day,Hour,Minute,Max,Month,Day,Hour,Minute]
End of Data Dictionary
1,EXTREME_WINTER,  39.10, -84.42,  -5.00, 149.40
5,7
1038,0.6666666666666666,0.0, 1,15, 1,10,0.16666666666666666, 1,16, 6,10
1039,0.0,0.0, 1,15, 1,10,0.0, 1,15, 1,10
581,0.2778849929610332,0.18171210898991205, 1,17, 4,60,0.4328406753048901, 1,17,24,20
582,3.0534327115878765,0.0, 1,15,20,60,12.350658056376647, 1,17,24,60
583,3.535884098771199,0.0001992405789536865, 1,16,19,60,11.201932683094226, 1,17,24,20
1115,1413892773.6047375,0.0, 1,15,15,35,2773270.312564716, 1,19, 6,20
1128,478722554.8762272,0.0, 1,15,15,35,848030.6955221845, 1,19, 6,20
1153,8051370.317543289,0.0, 1,15,15,35,46117.54966950797, 1,17, 6,30
1154,49687947.92501718,0.0, 1,15, 4,43,120000.0, 1,15,16,10
1156,434295585.2453974,0.0, 1,15, 1,10,3444813.98059038, 1,20, 6,30
13,1402129797.496988,306324.6925987483, 1,15,15,40,4725718.610187712, 1,21, 6,10
61,301924526.0238348,58759.40635443481, 1,15, 1,10,854682.2742463244, 1,15,20,10
134,70666020.44019979,42376.01200569399, 1,15, 4,10,104369.48322671017, 1,20,20,10
170,5241013.419656074,232.27731661587313, 1,15, 4,10,11650.931360040839, 1,20,12,10
207,6509451.13922266,543.5021409221355, 1,15, 3,10,15327.095199349082, 1,20,10,10
244,12749673.39982522,1014.5707620042115, 1,15, 4,10,35359.08742820678, 1,20,20,10
281,46165882.48149605,39959.06841621388, 1,15, 5,10,54634.54471212738, 1,15,19,10
318,0.0,0.0, 1,15, 1,10,0.0, 1,15, 1,10
355,743555863.4615216,12374.216038804521, 1,15, 4,10,3829218.154066982, 1,16,18,60
403,197687796.27748126,12374.216038804521, 1,15, 4,10,483183.26346918393, 1,20,18,10
476,106772067.24485692,4732.048419519677, 1,15, 4,10,237357.535085481, 1,20,12,10
513,0.0,0.0, 1,15, 1,10,0.0, 1,15, 1,10
562,53761952.668766834,0.0, 1,15,15,40,90655.4315963848, 1,20, 9,40
1046,0.0,0.0, 1,15, 1,10,0.0, 1,15, 1,10
1096,0.0,0.0, 1,15, 1,10,0.0, 1,15, 1,10
1134,970757458.3641849,120000.0, 1,15,15,40,4216765.859214953, 1,21, 6,10
1323,545868067.1840373,0.0, 1,15, 1,10,3375000.000000001, 1,20,21,40
1360,5019840.0,4979.999999999999, 1,18, 9,40,4980.000000000002, 1,17, 8,20
1388,0.0,0.0, 1,15, 1,10,0.0, 1,15, 1,10
1,EXTREME_SUMMER,  39.10, -84.42,  -5.00, 149.40
5,7
1038,0.0,0.0, 7,15, 1,10,0.0, 7,15, 1,10
1039,37.833333333333336,0.0, 7,15, 1,10,0.16666666666666666, 7,15,13,60
581,0.03881873310460773,0.0, 7,15, 1,10,0.4032178660393248, 7,20,16,52
582,1.6603168868229676,0.0, 7,16,21,22,8.700314345368684, 7,20,16,52
583,1.8019299491827405,0.0, 7,15, 6, 7,10.175740047395884, 7,20,16,52
1115,0.0,0.0, 7,15, 1,10,0.0, 7,15, 1,10
1128,0.0,0.0, 7,15, 1,10,0.0, 7,15, 1,10
1153,0.0,0.0, 7,15, 1,10,0.0, 7,15, 1,10
1154,0.0,0.0, 7,15, 1,10,0.0, 7,15, 1,10
1156,0.0,0.0, 7,15, 1,10,0.0, 7,15, 1,10
13,947283605.6783377,140397.2448096453, 7,19, 4,60,1902789.9138052592, 7,15,20,10
61,301924526.0238348,58759.40635443481, 7,15, 1,10,854682.2742463244, 7,15,20,10
134,70666020.44019979,42376.01200569399, 7,15, 4,10,104369.48322671017, 7,20,20,10
170,5241013.419656074,232.27731661587313, 7,15, 4,10,11650.931360040839, 7,20,12,10
207,6509451.13922266,543.5021409221355, 7,15, 3,10,15327.095199349082, 7,20,10,10
244,12749673.39982522,1014.5707620042115, 7,15, 4,10,35359.08742820678, 7,20,20,10
281,46165882.48149605,39959.06841621388, 7,15, 5,10,54634.54471212738, 7,15,19,10
318,0.0,0.0, 7,15, 1,10,0.0, 7,15, 1,10
355,641104531.8024014,12374.216038804521, 7,15, 4,10,3829218.154066982, 7,16,18,60
403,197687796.27748126,12374.216038804521, 7,15, 4,10,483183.26346918393, 7,20,18,10
476,106772067.24485692,4732.048419519677, 7,15, 4,10,237357.535085481, 7,20,12,10
513,0.0,0.0, 7,15, 1,10,0.0, 7,15, 1,10
562,54877180.73682396,0.0, 7,19, 6,20,90655.4315963848, 7,16,18,60
1046,0.0,0.0, 7,15, 1,10,0.0, 7,15, 1,10
1096,514796038.47747797,0.0, 7,19, 6,20,960969.7802200422, 7,16,15,60
1134,0.0,0.0, 7,15, 1,10,0.0, 7,15, 1,10
1323,443416735.5249185,0.0, 7,15, 1,10,3375000.0, 7,15, 9,50
1360,5019840.0,4979.999999999998, 7,18,16,60,4980.000000000002, 7,18, 5,20
1388,0.0,0.0, 7,15, 1,10,0.0, 7,15, 1,10
1,ANNUAL,  39.10, -84.42,  -5.00, 149.40
5,365
1038,7.8333333333333375,0.0, 1, 1, 1,10,0.16666666666666666, 1, 2, 6,10
1039,562.1666666666664,0.0, 1, 1, 1,10,0.16666666666666666, 4,12,11,50
581,0.1887772693567315,0.0, 5, 7, 8,51,1.242379684588584, 2,18,22,55
582,3.0606276537128667,0.0, 1, 4, 3,50,28.069802489987516, 1,29,21,60
583,3.550875443582241,0.0, 4,21, 9,60,33.74906038613969, 4,29,17,52
1115,20421491035.768635,0.0, 1, 1,23, 2,3247943.5952926516, 1,22, 4,60
1128,6379841142.455734,0.0, 1, 1,23, 2,878487.2319552163, 1,22, 4,50
1153,224585862.12407005,0.0, 1, 1,23, 2,76756.6100331015, 2,14, 8,20
1154,1542741588.4358635,0.0, 1, 1, 1, 1,120000.0, 1, 4,15,10
1156,2979306592.191066,0.0, 1, 1, 1,42,3444813.98059038, 1,20, 6,30
13,42704098130.72397,106115.4183601288, 3, 6, 4,10,4735881.474993675, 1, 2, 6,20
61,15743207428.39043,58759.40635443481, 1, 1, 1,10,854682.2742463244, 1, 1,20,10
134,3685071073.433083,42376.01200569399, 1, 2, 4,10,104369.48322671017, 1, 1,20,10
170,273393721.45534325,232.27731661587313, 1, 2, 4,10,11650.931360040839, 1, 1,12,10
207,339560869.06955314,543.5021409221355, 1, 2, 3,10,15327.095199349082, 1, 1,10,10
244,664895467.8009839,1014.5707620042115, 1, 2, 4,10,35359.08742820678, 1, 1,20,10
281,2407221015.1057043,39959.06841621388, 1, 1, 5,10,54634.54471212738, 1, 1,19,10
318,0.0,0.0, 1, 1, 1,10,0.0, 1, 1, 1,10
355,35722382796.53625,12374.216038804521, 1, 2, 4,10,3829218.1540669827, 3,17,18,20
403,10310294493.052883,12374.216038804521, 1, 2, 4,10,483183.26346918393, 1, 1,18,10
476,5569688622.065564,4732.048419519677, 1, 2, 4,10,237357.535085481, 1, 1,12,10
513,0.0,0.0, 1, 1, 1,10,0.0, 1, 1, 1,10
562,1853590164.853521,0.0, 1, 4,14,50,90655.4315963848, 1,20, 9,40
1046,0.0,0.0, 1, 1, 1,10,0.0, 1, 1, 1,10
1096,10034005478.845634,0.0, 1, 1, 1,10,998076.5684302057, 8, 9,14,60
1134,11126475185.206732,0.0, 1, 6,17,10,4227666.720386637, 1, 2, 6,20
1323,25412088303.487137,0.0, 1, 1, 1,10,3375000.000000002,12,12,20,30
1360,261748800.0,4979.999999999998, 3, 9,10,50,4980.000000000002, 1, 8, 4,50
1388,0.0,0.0, 1, 1, 1,10,0.0, 1, 1, 1,10
End of Data
 Number of Records Written=          87
