Program Version,EnergyPlus, Version 9.5.0-de239b2e5f, YMD=2022.08.10 15:49
1,5,Environment Title[],Latitude[deg],Longitude[deg],Time Zone[],Elevation[m]
2,8,Day of Simulation[],Month[],Day of Month[],DST Indicator[1=yes 0=no],Hour[],StartMinute[],EndMinute[],DayType
3,5,Cumulative Day of Simulation[],Month[],Day of Month[],DST Indicator[1=yes 0=no],DayType  ! When Daily Report Variables Requested
4,2,Cumulative Days of Simulation[],Month[]  ! When Monthly Report Variables Requested
5,1,Cumulative Days of Simulation[] ! When Run Period Report Variables Requested
6,1,Calendar Year of Simulation[] ! When Annual Report Variables Requested
191,1,UNHEATEDBSMT_UNIT1,Zone Windows Total Transmitted Solar Radiation Rate [W] !Hourly
192,1,UNHEATEDBSMT_UNIT1,Zone Windows Total Transmitted Solar Radiation Energy [J] !Hourly
193,1,UNHEATEDBSMT_UNIT1,Zone Windows Total Heat Gain Energy [J] !Hourly
194,1,LIVING_UNIT1,Zone Windows Total Transmitted Solar Radiation Rate [W] !Hourly
195,1,LIVING_UNIT1,Zone Windows Total Transmitted Solar Radiation Energy [J] !Hourly
196,1,LIVING_UNIT1,Zone Windows Total Heat Gain Energy [J] !Hourly
197,1,ATTIC_UNIT1,Zone Windows Total Transmitted Solar Radiation Rate [W] !Hourly
198,1,ATTIC_UNIT1,Zone Windows Total Transmitted Solar Radiation Energy [J] !Hourly
199,1,ATTIC_UNIT1,Zone Windows Total Heat Gain Energy [J] !Hourly
200,1,UNHEATEDBSMT_UNIT1,Zone Mean Air Temperature [C] !Hourly
201,1,LIVING_UNIT1,Zone Mean Air Temperature [C] !Hourly
202,1,ATTIC_UNIT1,Zone Mean Air Temperature [C] !Hourly
279,1,UNHEATEDBSMT_UNIT1,AFN Zone Infiltration Sensible Heat Gain Rate [W] !Hourly
280,1,LIVING_UNIT1,AFN Zone Infiltration Sensible Heat Gain Rate [W] !Hourly
281,1,ATTIC_UNIT1,AFN Zone Infiltration Sensible Heat Gain Rate [W] !Hourly
282,1,UNHEATEDBSMT_UNIT1,AFN Zone Infiltration Air Change Rate [ach] !Hourly
283,1,LIVING_UNIT1,AFN Zone Infiltration Air Change Rate [ach] !Hourly
284,1,ATTIC_UNIT1,AFN Zone Infiltration Air Change Rate [ach] !Hourly
618,1,Whole Building,Facility Total HVAC Electricity Demand Rate [W] !Hourly
End of Data Dictionary
1,JEROME.COUNTY.AP ANN HTG 99.6% CONDNS DB,  42.73,-114.46,  -7.00,1235.00
2,1, 1,21, 0, 1, 0.00,60.00,WinterDesignDay
191,0.0
192,0.0
193,0.0
194,0.0
195,0.0
196,0.0
197,0.0
198,0.0
199,0.0
200,14.01022414603285
201,14.83487131709198
202,-5.606164523432416
279,0.0
280,0.0
281,0.0
282,0.9890734988775575
283,0.589809982968818
284,6.9151772436931389
618,8532.951692288498
2,1, 1,21, 0, 2, 0.00,60.00,WinterDesignDay
191,0.0
192,0.0
193,0.0
194,0.0
195,0.0
196,0.0
197,0.0
198,0.0
199,0.0
200,13.375924246919555
201,14.843881734211707
202,-5.599104014501851
279,0.0
280,0.0
281,0.0
282,0.9869146128364381
283,0.5896647331019558
284,6.915234002739237
618,8532.951692288498
2,1, 1,21, 0, 3, 0.00,60.00,WinterDesignDay
191,0.0
192,0.0
193,0.0
194,0.0
195,0.0
196,0.0
197,0.0
198,0.0
199,0.0
200,12.999585698649675
201,14.83007391135051
202,-5.606570044902671
279,0.0
280,0.0
281,0.0
282,0.9855946674258872
283,0.5898500146603791
284,6.915159441757342
618,8532.951692288498
2,1, 1,21, 0, 4, 0.00,60.00,WinterDesignDay
191,0.0
192,0.0
193,0.0
194,0.0
195,0.0
196,0.0
197,0.0
198,0.0
199,0.0
200,12.645189889477545
201,14.816711165824783
202,-5.6127773563704939
279,0.0
280,0.0
281,0.0
282,0.9843465370015887
283,0.5898444711353363
284,6.915137024572292
618,8532.951692288498
2,1, 1,21, 0, 5, 0.00,60.00,WinterDesignDay
191,0.0
192,0.0
193,0.0
194,0.0
195,0.0
196,0.0
197,0.0
198,0.0
199,0.0
200,12.338811581760073
201,14.800088783653765
202,-5.620573474271572
279,0.0
280,0.0
281,0.0
282,0.9832653876872746
283,0.5898302521246749
284,6.915068014492049
618,8532.951692288498
2,1, 1,21, 0, 6, 0.00,60.00,WinterDesignDay
191,0.0
192,0.0
193,0.0
194,0.0
195,0.0
196,0.0
197,0.0
198,0.0
199,0.0
200,12.062224246200128
201,14.781389793555274
202,-5.6286731332394439
279,0.0
280,0.0
281,0.0
282,0.9822869618551045
283,0.5897821327498833
284,6.9149918202260649
618,8532.951692288498
2,1, 1,21, 0, 7, 0.00,60.00,WinterDesignDay
191,0.0
192,0.0
193,0.0
194,0.0
195,0.0
196,0.0
197,0.0
198,0.0
199,0.0
200,11.81015539850597
201,14.76080576783966
202,-5.637175239298586
279,0.0
280,0.0
281,0.0
282,0.981393078551287
283,0.5897123129650149
284,6.914906556296964
618,8532.951692288498
2,1, 1,21, 0, 8, 0.00,60.00,WinterDesignDay
191,0.0
192,0.0
193,0.0
194,0.0
195,0.0
196,0.0
197,0.0
198,0.0
199,0.0
200,11.577740349837855
201,14.738697169852074
202,-5.6459088933230909
279,0.0
280,0.0
281,0.0
282,0.9805668376694507
283,0.589623660212633
284,6.914816966127352
618,8532.951692288498
2,1, 1,21, 0, 9, 0.00,60.00,WinterDesignDay
191,0.0
192,0.0
193,0.0
194,0.0
195,0.0
196,0.0
197,0.0
198,0.0
199,0.0
200,11.361728168532482
201,14.715362263216264
202,-5.654826372165964
279,0.0
280,0.0
281,0.0
282,0.9797970509614248
283,0.5895199356669187
284,6.914724102728169
618,8532.951692288498
2,1, 1,21, 0,10, 0.00,60.00,WinterDesignDay
191,0.0
192,0.0
193,0.0
194,0.0
195,0.0
196,0.0
197,0.0
198,0.0
199,0.0
200,11.15964449629201
201,14.691069110828062
202,-5.663867578247371
279,0.0
280,0.0
281,0.0
282,0.9790752359777653
283,0.5894039843689375
284,6.9146290949053139
618,8532.951692288498
2,1, 1,21, 0,11, 0.00,60.00,WinterDesignDay
191,0.0
192,0.0
193,0.0
194,0.0
195,0.0
196,0.0
197,0.0
198,0.0
199,0.0
200,10.969589048246413
201,14.666047813131963
202,-5.6729890236708508
279,0.0
280,0.0
281,0.0
282,0.9783949065058448
283,0.5892782481815312
284,6.914532599542989
618,8532.951692288498
2,1, 1,21, 0,12, 0.00,60.00,WinterDesignDay
191,0.0
192,0.0
193,0.0
194,0.0
195,0.0
196,0.0
197,0.0
198,0.0
199,0.0
200,10.790055411379133
201,14.64049405727354
202,-5.682151349288496
279,0.0
280,0.0
281,0.0
282,0.9777509349989182
283,0.5891447531867996
284,6.9144351728134449
618,8532.951692288498
2,1, 1,21, 0,13, 0.00,60.00,WinterDesignDay
191,0.0
192,0.0
193,0.0
194,0.0
195,0.0
196,0.0
197,0.0
198,0.0
199,0.0
200,10.619825205972039
201,14.614572847059139
202,-5.691321258154406
279,0.0
280,0.0
281,0.0
282,0.9771391821668121
283,0.5890051950570923
284,6.914337260143963
618,8532.951692288498
2,1, 1,21, 0,14, 0.00,60.00,WinterDesignDay
191,0.0
192,0.0
193,0.0
194,0.0
195,0.0
196,0.0
197,0.0
198,0.0
199,0.0
200,10.457895147407024
201,14.588422712941418
202,-5.70047001336716
279,0.0
280,0.0
281,0.0
282,0.9765562429528509
283,0.5888609899253424
284,6.914239242171136
618,8532.951692288498
2,1, 1,21, 0,15, 0.00,60.00,WinterDesignDay
191,0.0
192,0.0
193,0.0
194,0.0
195,0.0
196,0.0
197,0.0
198,0.0
199,0.0
200,10.303426811692099
201,14.562159682390499
202,-5.709573216301297
279,0.0
280,0.0
281,0.0
282,0.9759992728267336
283,0.5887133227471982
284,6.914141441605614
618,8532.951692288498
2,1, 1,21, 0,16, 0.00,60.00,WinterDesignDay
191,0.0
192,0.0
193,0.0
194,0.0
195,0.0
196,0.0
197,0.0
198,0.0
199,0.0
200,10.15571065275001
201,14.53588079426068
202,-5.718610273452954
279,0.0
280,0.0
281,0.0
282,0.9754658640584942
283,0.5885631862679291
284,6.914044132557556
618,8532.951692288498
2,1, 1,21, 0,17, 0.00,60.00,WinterDesignDay
191,0.0
192,0.0
193,0.0
194,0.0
195,0.0
196,0.0
197,0.0
198,0.0
199,0.0
200,10.014139543415832
201,14.509667111391855
202,-5.727563980907309
279,0.0
280,0.0
281,0.0
282,0.9749539552028212
283,0.5884114135538396
284,6.91394754569574
618,8532.951692288498
2,1, 1,21, 0,18, 0.00,60.00,WinterDesignDay
191,0.0
192,0.0
193,0.0
194,0.0
195,0.0
196,0.0
197,0.0
198,0.0
199,0.0
200,9.878188648211584
201,14.483586251673886
202,-5.736420099690768
279,0.0
280,0.0
281,0.0
282,0.9744617625158806
283,0.5882587045958744
284,6.9138518734477769
618,8532.951692288498
2,1, 1,21, 0,19, 0.00,60.00,WinterDesignDay
191,0.0
192,0.0
193,0.0
194,0.0
195,0.0
196,0.0
197,0.0
198,0.0
199,0.0
200,9.747399067505809
201,14.457694491452518
202,-5.745166974309301
279,0.0
280,0.0
281,0.0
282,0.9739877243525676
283,0.5881056481711503
284,6.913757274537798
618,8532.951692288498
2,1, 1,21, 0,20, 0.00,60.00,WinterDesignDay
191,0.0
192,0.0
193,0.0
194,0.0
195,0.0
196,0.0
197,0.0
198,0.0
199,0.0
200,9.62136090782135
201,14.432038490030287
202,-5.753795198493932
279,0.0
280,0.0
281,0.0
282,0.9735304434946769
283,0.5879527399015937
284,6.913663878210741
618,8532.951692288498
2,1, 1,21, 0,21, 0.00,60.00,WinterDesignDay
191,0.0
192,0.0
193,0.0
194,0.0
195,0.0
196,0.0
197,0.0
198,0.0
199,0.0
200,9.499663696864922
201,14.406656625970158
202,-5.762297378880053
279,0.0
280,0.0
281,0.0
282,0.9730885168070939
283,0.5878003978295452
284,6.913571787557388
618,8532.951692288498
2,1, 1,21, 0,22, 0.00,60.00,WinterDesignDay
191,0.0
192,0.0
193,0.0
194,0.0
195,0.0
196,0.0
197,0.0
198,0.0
199,0.0
200,9.382495734787815
201,14.381579311948928
202,-5.770668433368882
279,0.0
280,0.0
281,0.0
282,0.9726625973756373
283,0.5876489823745978
284,6.913481078302362
618,8532.951692288498
2,1, 1,21, 0,23, 0.00,60.00,WinterDesignDay
191,0.0
192,0.0
193,0.0
194,0.0
195,0.0
196,0.0
197,0.0
198,0.0
199,0.0
200,9.269218302349993
201,14.356842621060599
202,-5.778897215127308
279,0.0
280,0.0
281,0.0
282,0.9722505109710856
283,0.5874986709030368
284,6.913391871325988
618,8532.951692288498
2,1, 1,21, 0,24, 0.00,60.00,WinterDesignDay
191,0.0
192,0.0
193,0.0
194,0.0
195,0.0
196,0.0
197,0.0
198,0.0
199,0.0
200,9.159354750925492
201,14.33246226655462
202,-5.786983917100444
279,0.0
280,0.0
281,0.0
282,0.9718506112816271
283,0.5873498467139674
284,6.913304173478775
618,8532.951692288498
1,JEROME.COUNTY.AP ANN CLG .4% CONDNS DB=>MWB,  42.73,-114.46,  -7.00,1235.00
2,1, 7,21, 0, 1, 0.00,60.00,SummerDesignDay
191,0.0
192,0.0
193,0.0
194,0.0
195,0.0
196,0.0
197,0.0
198,0.0
199,0.0
200,20.828245632869149
201,36.157148652092569
202,22.955493366820517
279,0.0
280,0.0
281,0.0
282,0.5075037561395092
283,0.31235644506546275
284,3.352003005165626
618,274.06094544016096
2,1, 7,21, 0, 2, 0.00,60.00,SummerDesignDay
191,0.0
192,0.0
193,0.0
194,0.0
195,0.0
196,0.0
197,0.0
198,0.0
199,0.0
200,20.609389990950299
201,35.15217463868177
202,21.91049659230355
279,0.0
280,0.0
281,0.0
282,0.5070349020277731
283,0.30870817331918345
284,3.3488699309493969
618,274.06094544016096
2,1, 7,21, 0, 3, 0.00,60.00,SummerDesignDay
191,0.0
192,0.0
193,0.0
194,0.0
195,0.0
196,0.0
197,0.0
198,0.0
199,0.0
200,20.41175006642266
201,34.18535990606857
202,21.085162934545357
279,0.0
280,0.0
281,0.0
282,0.5062492707151667
283,0.3037599299803276
284,3.3473181134059017
618,274.06094544016096
2,1, 7,21, 0, 4, 0.00,60.00,SummerDesignDay
191,0.0
192,0.0
193,0.0
194,0.0
195,0.0
196,0.0
197,0.0
198,0.0
199,0.0
200,20.21787565482265
201,33.23994306021286
202,20.365049054502383
279,0.0
280,0.0
281,0.0
282,0.5055442763346558
283,0.2992696524844853
284,3.3475145678975886
618,274.06094544016096
2,1, 7,21, 0, 5, 0.00,60.00,SummerDesignDay
191,0.0
192,0.0
193,0.0
194,0.0
195,0.0
196,0.0
197,0.0
198,0.0
199,0.0
200,20.037054246205078
201,32.323806998342607
202,19.758645115796634
279,0.0
280,0.0
281,0.0
282,0.5045372119708895
283,0.293365821863627
284,3.3472891450304469
618,274.06094544016096
2,1, 7,21, 0, 6, 0.00,60.00,SummerDesignDay
191,0.0
192,0.0
193,0.0
194,525.303835178023
195,1891093.8066408826
196,0.0
197,0.0
198,0.0
199,0.0
200,19.906651020313779
201,31.663807676825465
202,19.74734639888332
279,0.0
280,0.0
281,0.0
282,0.5022292236024589
283,0.2811836871255471
284,3.3462954936160775
618,274.06094544016096
2,1, 7,21, 0, 7, 0.00,60.00,SummerDesignDay
191,0.0
192,0.0
193,0.0
194,2248.764730201536
195,8095553.02872553
196,8074907.17754291
197,0.0
198,0.0
199,0.0
200,19.86553269562432
201,31.74833702647328
202,21.79345189018185
279,0.0
280,0.0
281,0.0
282,0.4986782625157065
283,0.26316615684656166
284,3.35993244091427
618,274.06094544016096
2,1, 7,21, 0, 8, 0.00,60.00,SummerDesignDay
191,0.0
192,0.0
193,0.0
194,2782.46517666615
195,10016874.63599814
196,10709798.016614033
197,0.0
198,0.0
199,0.0
200,20.016956345096188
201,32.187508718644767
202,26.56721003855239
279,79.33343542695644
280,0.0
281,0.0
282,0.4929878748615019
283,0.2375844240085526
284,3.388154153902342
618,274.06094544016096
2,1, 7,21, 0, 9, 0.00,60.00,SummerDesignDay
191,0.0
192,0.0
193,0.0
194,2956.297385022601
195,10642670.586081364
196,11817427.704420653
197,0.0
198,0.0
199,0.0
200,20.222869367810416
201,32.812309369965138
202,32.668519792518797
279,172.89962182115
280,0.0
281,0.0
282,0.48770399665438476
283,0.21851865639672747
284,3.43686317688782
618,274.06094544016096
2,1, 7,21, 0,10, 0.00,60.00,SummerDesignDay
191,0.0
192,0.0
193,0.0
194,2958.978166779883
195,10652321.400407579
196,12521203.725371957
197,0.0
198,0.0
199,0.0
200,20.445548063381783
201,33.61832863924441
202,38.56957462308674
279,253.83636286042313
280,0.0
281,0.0
282,0.4836741281575688
283,0.20267102904041349
284,3.4904219015409185
618,274.06094544016096
2,1, 7,21, 0,11, 0.00,60.00,SummerDesignDay
191,0.0
192,0.0
193,0.0
194,2717.22865373046
195,9782023.153429656
196,12143783.098027559
197,0.0
198,0.0
199,0.0
200,20.682271089964155
201,34.53062803956158
202,44.10136966648835
279,323.03058241303065
280,0.0
281,0.0
282,0.4806911673502221
283,0.19629479951453264
284,3.540815340530256
618,274.06094544016096
2,1, 7,21, 0,12, 0.00,60.00,SummerDesignDay
191,0.0
192,0.0
193,0.0
194,2270.517270972208
195,8173862.175499948
196,10476854.39945434
197,0.0
198,0.0
199,0.0
200,20.897716924122638
201,35.38941152239441
202,48.43987340237999
279,367.2199121802792
280,0.0
281,0.0
282,0.47943916482657208
283,0.20049766019340604
284,3.5811733192858985
618,274.06094544016096
2,1, 7,21, 0,13, 0.00,60.00,SummerDesignDay
191,0.0
192,0.0
193,0.0
194,1990.8988367415787
195,7167235.812269683
196,8859982.769121703
197,0.0
198,0.0
199,0.0
200,21.106499282124177
201,36.1774373946406
202,51.57653920384576
279,401.33017887988219
280,0.0
281,0.0
282,0.4786914422749284
283,0.20357467272814115
284,3.6076476290343084
618,274.06094544016096
2,1, 7,21, 0,14, 0.00,60.00,SummerDesignDay
191,0.0
192,0.0
193,0.0
194,2095.9411276447538
195,7545388.059521113
196,9624725.247101969
197,0.0
198,0.0
199,0.0
200,21.29391160829653
201,37.086035830706958
202,53.34883368382825
279,421.06566743437846
280,0.0
281,0.0
282,0.4787152990581207
283,0.20689526512336066
284,3.620352614634638
618,274.06094544016096
2,1, 7,21, 0,15, 0.00,60.00,SummerDesignDay
191,0.0
192,0.0
193,0.0
194,2516.0143388056264
195,9057651.619700255
196,11475912.860558367
197,0.0
198,0.0
199,0.0
200,21.454449477979656
201,38.1561950570173
202,53.727328469952798
279,416.93837934731729
280,0.0
281,0.0
282,0.48025056271959906
283,0.210991078511233
284,3.6192674572839906
618,274.06094544016096
2,1, 7,21, 0,16, 0.00,60.00,SummerDesignDay
191,0.0
192,0.0
193,0.0
194,2881.0436168011794
195,10371757.020484245
196,12368903.827196306
197,0.0
198,0.0
199,0.0
200,21.579257832355386
201,39.213031135609167
202,52.547573970222817
279,384.12188886971048
280,0.0
281,0.0
282,0.4837829067228784
283,0.23088656838614894
284,3.6067793412372657
618,274.06094544016096
2,1, 7,21, 0,17, 0.00,60.00,SummerDesignDay
191,0.0
192,0.0
193,0.0
194,2983.453476423581
195,10740432.515124891
196,12021566.037763888
197,0.0
198,0.0
199,0.0
200,21.684537418808675
201,40.11981299631828
202,50.01338343914649
279,341.3810896418594
280,0.0
281,0.0
282,0.4880361237022841
283,0.25020310494295336
284,3.582715419941908
618,274.06094544016096
2,1, 7,21, 0,18, 0.00,60.00,SummerDesignDay
191,0.0
192,0.0
193,0.0
194,2890.869991165092
195,10407131.968194332
196,11048374.568740299
197,0.0
198,0.0
199,0.0
200,21.75954851422005
201,40.785746653422517
202,46.27187046805001
279,288.37604610185897
280,0.0
281,0.0
282,0.49258617189743839
283,0.27017214076149106
284,3.5471551610150038
618,274.06094544016096
2,1, 7,21, 0,19, 0.00,60.00,SummerDesignDay
191,0.0
192,0.0
193,0.0
194,2563.3414976107999
195,9228029.391398879
196,9264182.803150205
197,0.0
198,0.0
199,0.0
200,21.76928892033737
201,41.13067375265356
202,41.32703465045106
279,210.09133936873438
280,0.0
281,0.0
282,0.498350632805337
283,0.2911152683430246
284,3.506675825516589
618,274.06094544016096
2,1, 7,21, 0,20, 0.00,60.00,SummerDesignDay
191,0.0
192,0.0
193,0.0
194,1608.8017106914647
195,5791686.158489273
196,4608305.003884191
197,0.0
198,0.0
199,0.0
200,21.779036664808733
201,40.95654369664844
202,36.08932150030375
279,151.34606632393415
280,0.0
281,0.0
282,0.5024152960975482
283,0.3007363615422833
284,3.4552165540174348
618,274.06094544016096
2,1, 7,21, 0,21, 0.00,60.00,SummerDesignDay
191,0.0
192,0.0
193,0.0
194,0.0
195,0.0
196,0.0
197,0.0
198,0.0
199,0.0
200,21.750749288308798
201,40.06808600549148
202,31.56970395761638
279,103.66810535180356
280,0.0
281,0.0
282,0.5050167841620125
283,0.3095783492762135
284,3.4086770855613497
618,274.06094544016096
2,1, 7,21, 0,22, 0.00,60.00,SummerDesignDay
191,0.0
192,0.0
193,0.0
194,0.0
195,0.0
196,0.0
197,0.0
198,0.0
199,0.0
200,21.65041191301124
201,39.10283587654438
202,28.18937331686161
279,57.86164205239838
280,0.0
281,0.0
282,0.506557614384498
283,0.3123084482987596
284,3.3794795801756889
618,274.06094544016096
2,1, 7,21, 0,23, 0.00,60.00,SummerDesignDay
191,0.0
192,0.0
193,0.0
194,0.0
195,0.0
196,0.0
197,0.0
198,0.0
199,0.0
200,21.536527046788757
201,38.14356527288971
202,25.975323217455857
279,23.238977252853958
280,0.0
281,0.0
282,0.5073021059901026
283,0.3120698198645476
284,3.362736279651525
618,274.06094544016096
2,1, 7,21, 0,24, 0.00,60.00,SummerDesignDay
191,0.0
192,0.0
193,0.0
194,0.0
195,0.0
196,0.0
197,0.0
198,0.0
199,0.0
200,21.39786275570459
201,37.161413292403
202,24.32602137084302
279,0.0
280,0.0
281,0.0
282,0.508080027345307
283,0.31281669900966765
284,3.3558067496328305
618,274.06094544016096
1,SUB-ANNUAL,  42.73,-114.46,  -7.00,1235.00
2,1, 1, 1, 0, 1, 0.00,60.00,Sunday
191,0.0
192,0.0
193,0.0
194,0.0
195,0.0
196,0.0
197,0.0
198,0.0
199,0.0
200,18.0174158622422
201,20.5551944644115
202,5.9959924682565008
279,0.0
280,0.0
281,0.0
282,0.35411856735432659
283,0.361017447487232
284,0.0
618,5344.864104575347
2,1, 1, 1, 0, 2, 0.00,60.00,Sunday
191,0.0
192,0.0
193,0.0
194,0.0
195,0.0
196,0.0
197,0.0
198,0.0
199,0.0
200,17.528071952100789
201,20.554805109817449
202,5.94287221788853
279,0.0
280,0.0
281,0.0
282,0.36055178450274319
283,0.39291756231422889
284,0.0
618,5851.259593598101
2,1, 1, 1, 0, 3, 0.00,60.00,Sunday
191,0.0
192,0.0
193,0.0
194,0.0
195,0.0
196,0.0
197,0.0
198,0.0
199,0.0
200,17.33139078811665
201,20.554601969641398
202,4.938245063770889
279,0.0
280,0.0
281,0.0
282,0.35941997316279658
283,0.39193476266194646
284,0.0
618,5977.247982357866
2,1, 1, 1, 0, 4, 0.00,60.00,Sunday
191,0.0
192,0.0
193,0.0
194,0.0
195,0.0
196,0.0
197,0.0
198,0.0
199,0.0
200,17.18530912776247
201,20.554676320031466
202,4.229460468877707
279,0.0
280,0.0
281,0.0
282,0.3566963006131819
283,0.3806459269322155
284,0.0
618,5920.602949035519
2,1, 1, 1, 0, 5, 0.00,60.00,Sunday
191,0.0
192,0.0
193,0.0
194,0.0
195,0.0
196,0.0
197,0.0
198,0.0
199,0.0
200,17.067788449867274
201,20.554768577070928
202,3.911295852655167
279,0.0
280,0.0
281,0.0
282,0.3538020581179491
283,0.3693094906222662
284,0.0
618,5847.615773607035
2,1, 1, 1, 0, 6, 0.00,60.00,Sunday
191,0.0
192,0.0
193,0.0
194,0.0
195,0.0
196,0.0
197,0.0
198,0.0
199,0.0
200,16.751577817095865
201,20.554052556886615
202,3.394713723158785
279,0.0
280,0.0
281,0.0
282,0.3602736439393052
283,0.4016747155293885
284,0.0
618,6420.379537470572
2,1, 1, 1, 0, 7, 0.00,60.00,Sunday
191,0.0
192,0.0
193,0.0
194,0.0
195,0.0
196,0.0
197,0.0
198,0.0
199,0.0
200,16.559294332896437
201,20.55357043667478
202,2.743090089673531
279,0.0
280,0.0
281,0.0
282,0.3618594165556999
283,0.4123655780251814
284,0.0
618,6713.235147319237
2,1, 1, 1, 0, 8, 0.00,60.00,Sunday
191,0.0
192,0.0
193,0.0
194,0.0
195,0.0
196,0.0
197,0.0
198,0.0
199,0.0
200,16.414057305019808
201,20.55336910867986
202,3.1027694310213298
279,0.0
280,0.0
281,0.0
282,0.361084998834452
283,0.41162779023441717
284,0.0
618,6773.233444614117
2,1, 1, 1, 0, 9, 0.00,60.00,Sunday
191,0.0
192,0.0
193,0.0
194,4.813462727605312
195,17328.465819379126
196,0.0
197,0.0
198,0.0
199,0.0
200,16.386647426029155
201,20.55467368895099
202,3.84743017735215
279,0.0
280,0.0
281,0.0
282,0.35571151258057467
283,0.3890177018774467
284,0.0
618,6468.702568545863
2,1, 1, 1, 0,10, 0.00,60.00,Sunday
191,0.0
192,0.0
193,0.0
194,24.2388415326688
195,87259.82951760768
196,0.0
197,0.0
198,0.0
199,0.0
200,16.26220188047867
201,20.55387964516329
202,4.002871782086027
279,0.0
280,0.0
281,0.0
282,0.3554962721154433
283,0.38867291214618945
284,0.0
618,6486.395586368879
2,1, 1, 1, 0,11, 0.00,60.00,Sunday
191,0.0
192,0.0
193,0.0
194,327.9514043511681
195,1180625.0556642053
196,0.0
197,0.0
198,0.0
199,0.0
200,16.364891847615817
201,20.55484585612529
202,6.244473827581926
279,0.0
280,0.0
281,0.0
282,0.34635200602298707
283,0.34519647501582076
284,0.0
618,5608.257817888875
2,1, 1, 1, 0,12, 0.00,60.00,Sunday
191,0.0
192,0.0
193,0.0
194,177.1164051853312
195,637619.0586671922
196,0.0
197,0.0
198,0.0
199,0.0
200,16.212706805046066
201,20.554726819303388
202,7.696793733150706
279,0.0
280,0.0
281,0.0
282,0.3487005495132315
283,0.3546350329601011
284,0.0
618,5632.220615511605
2,1, 1, 1, 0,13, 0.00,60.00,Sunday
191,0.0
192,0.0
193,0.0
194,352.2832306420765
195,1268219.6303114754
196,0.0
197,0.0
198,0.0
199,0.0
200,16.186942775842654
201,20.555011544096656
202,9.036768455257123
279,0.0
280,0.0
281,0.0
282,0.34645194121352948
283,0.3452542857546951
284,0.0
618,5296.386437306953
2,1, 1, 1, 0,14, 0.00,60.00,Sunday
191,0.0
192,0.0
193,0.0
194,981.7053806000806
195,3534139.37016029
196,1677205.612915929
197,0.0
198,0.0
199,0.0
200,15.75291423438403
201,20.554248946593554
202,9.3343224060892
279,0.0
280,0.0
281,0.0
282,0.5508471009131439
283,0.4006284264485095
284,5.1345328974429409
618,4724.7874361756289
2,1, 1, 1, 0,15, 0.00,60.00,Sunday
191,0.0
192,0.0
193,0.0
194,931.7924744935191
195,3354452.908176669
196,1234978.9831703739
197,0.0
198,0.0
199,0.0
200,15.720736415789615
201,20.554901764747794
202,11.159713276427317
279,0.0
280,0.0
281,0.0
282,0.5006079946084165
283,0.37622726680110249
284,2.87327644037643
618,4400.791842518189
2,1, 1, 1, 0,16, 0.00,60.00,Sunday
191,0.0
192,0.0
193,0.0
194,819.9263346764623
195,2951734.804835264
196,926972.8967673739
197,0.0
198,0.0
199,0.0
200,14.564761398799668
201,20.554313186654654
202,10.09564586289324
279,0.0
280,0.0
281,0.0
282,1.1635726883319857
283,0.6476926166329349
284,7.739629755782683
618,5130.206668091051
2,1, 1, 1, 0,17, 0.00,60.00,Sunday
191,0.0
192,0.0
193,0.0
194,345.71848648425
195,1244586.5513433
196,0.0
197,0.0
198,0.0
199,0.0
200,15.746130078919052
201,20.55490996667981
202,12.517396210172004
279,0.0
280,0.0
281,0.0
282,0.3443841181139028
283,0.3518190136119079
284,0.0
618,4286.554544732562
2,1, 1, 1, 0,18, 0.00,60.00,Sunday
191,0.0
192,0.0
193,0.0
194,0.0
195,0.0
196,0.0
197,0.0
198,0.0
199,0.0
200,15.680335935844015
201,20.55510773268209
202,10.084436013406857
279,0.0
280,0.0
281,0.0
282,0.3454404325490088
283,0.3528507361959891
284,0.0
618,4485.900612520855
2,1, 1, 1, 0,19, 0.00,60.00,Sunday
191,0.0
192,0.0
193,0.0
194,0.0
195,0.0
196,0.0
197,0.0
198,0.0
199,0.0
200,15.512287170784605
201,20.555231873390637
202,8.170940424669487
279,0.0
280,0.0
281,0.0
282,0.3517821128109807
283,0.38482841223296557
284,0.0
618,5148.492154793579
2,1, 1, 1, 0,20, 0.00,60.00,Sunday
191,0.0
192,0.0
193,0.0
194,0.0
195,0.0
196,0.0
197,0.0
198,0.0
199,0.0
200,15.413456183773532
201,20.555040794356079
202,6.248914967647444
279,0.0
280,0.0
281,0.0
282,0.35334604911901687
283,0.3938365091241375
284,0.0
618,5471.987681885953
2,1, 1, 1, 0,21, 0.00,60.00,Sunday
191,0.0
192,0.0
193,0.0
194,0.0
195,0.0
196,0.0
197,0.0
198,0.0
199,0.0
200,15.456861620669832
201,20.555287382382969
202,6.049093918808014
279,0.0
280,0.0
281,0.0
282,0.34832997245843969
283,0.3710765393327558
284,0.0
618,5270.184435798296
2,1, 1, 1, 0,22, 0.00,60.00,Sunday
191,0.0
192,0.0
193,0.0
194,0.0
195,0.0
196,0.0
197,0.0
198,0.0
199,0.0
200,15.447097413313263
201,20.555293171963773
202,6.405821042312501
279,0.0
280,0.0
281,0.0
282,0.3457173370831816
283,0.3591336595776116
284,0.0
618,5207.749416403581
2,1, 1, 1, 0,23, 0.00,60.00,Sunday
191,0.0
192,0.0
193,0.0
194,0.0
195,0.0
196,0.0
197,0.0
198,0.0
199,0.0
200,15.39481747315102
201,20.555151588377929
202,6.76264074731577
279,0.0
280,0.0
281,0.0
282,0.3456506473459592
283,0.3592476940605154
284,0.0
618,5297.909878447459
2,1, 1, 1, 0,24, 0.00,60.00,Sunday
191,0.0
192,0.0
193,0.0
194,0.0
195,0.0
196,0.0
197,0.0
198,0.0
199,0.0
200,15.23771306186948
201,20.554726605530815
202,6.799338759247764
279,0.0
280,0.0
281,0.0
282,0.3501835273327668
283,0.3815783520003491
284,0.0
618,5680.73899995907
End of Data
 Number of Records Written=        1368
