Program Version,EnergyPlus, Version 22.2.0-c249759bad, YMD=2023.09.01 20:45
1,5,Environment Title[],Latitude[deg],Longitude[deg],Time Zone[],Elevation[m]
2,8,Day of Simulation[],Month[],Day of Month[],DST Indicator[1=yes 0=no],Hour[],StartMinute[],EndMinute[],DayType
3,5,Cumulative Day of Simulation[],Month[],Day of Month[],DST Indicator[1=yes 0=no],DayType  ! When Daily Report Variables Requested
4,2,Cumulative Days of Simulation[],Month[]  ! When Monthly Report Variables Requested
5,1,Cumulative Days of Simulation[] ! When Run Period Report Variables Requested
6,1,Calendar Year of Simulation[] ! When Annual Report Variables Requested
581,11,LIVING,AFN Zone Infiltration Air Change Rate [ach] !RunPeriod [Value,Min,Month,Day,Hour,Minute,Max,Month,Day,Hour,Minute]
582,11,ATTIC,AFN Zone Infiltration Air Change Rate [ach] !RunPeriod [Value,Min,Month,Day,Hour,Minute,Max,Month,Day,Hour,Minute]
583,11,CRAWLSPACE,AFN Zone Infiltration Air Change Rate [ach] !RunPeriod [Value,Min,Month,Day,Hour,Minute,Max,Month,Day,Hour,Minute]
1038,11,Facility,Facility Heating Setpoint Not Met Time [hr] !RunPeriod [Value,Min,Month,Day,Hour,Minute,Max,Month,Day,Hour,Minute]
1039,11,Facility,Facility Cooling Setpoint Not Met Time [hr] !RunPeriod [Value,Min,Month,Day,Hour,Minute,Max,Month,Day,Hour,Minute]
1115,11,DX_HEATING_COIL,Heating Coil Heating Energy [J] !RunPeriod [Value,Min,Month,Day,Hour,Minute,Max,Month,Day,Hour,Minute]
1128,11,DX_HEATING_COIL,Heating Coil Electricity Energy [J] !RunPeriod [Value,Min,Month,Day,Hour,Minute,Max,Month,Day,Hour,Minute]
1153,11,DX_HEATING_COIL,Heating Coil Defrost Electricity Energy [J] !RunPeriod [Value,Min,Month,Day,Hour,Minute,Max,Month,Day,Hour,Minute]
1154,11,DX_HEATING_COIL,Heating Coil Crankcase Heater Electricity Energy [J] !RunPeriod [Value,Min,Month,Day,Hour,Minute,Max,Month,Day,Hour,Minute]
1155,11,HEATING_RESISTANCE_BACKUP,Heating Coil Heating Energy [J] !RunPeriod [Value,Min,Month,Day,Hour,Minute,Max,Month,Day,Hour,Minute]
1156,11,HEATING_RESISTANCE_BACKUP,Heating Coil Electricity Energy [J] !RunPeriod [Value,Min,Month,Day,Hour,Minute,Max,Month,Day,Hour,Minute]
1292,11,WATER HEATER,Water Heater Heat Loss Energy [J] !RunPeriod [Value,Min,Month,Day,Hour,Minute,Max,Month,Day,Hour,Minute]
1306,11,WATER HEATER,Water Heater Heating Energy [J] !RunPeriod [Value,Min,Month,Day,Hour,Minute,Max,Month,Day,Hour,Minute]
1307,11,WATER HEATER,Water Heater Unmet Demand Heat Transfer Energy [J] !RunPeriod [Value,Min,Month,Day,Hour,Minute,Max,Month,Day,Hour,Minute]
1308,11,WATER HEATER,Water Heater Electricity Energy [J] !RunPeriod [Value,Min,Month,Day,Hour,Minute,Max,Month,Day,Hour,Minute]
13,11,Electricity:Facility [J] !RunPeriod [Value,Min,Month,Day,Hour,Minute,Max,Month,Day,Hour,Minute]
1134,11,Heating:Electricity [J] !RunPeriod [Value,Min,Month,Day,Hour,Minute,Max,Month,Day,Hour,Minute]
1096,11,Cooling:Electricity [J] !RunPeriod [Value,Min,Month,Day,Hour,Minute,Max,Month,Day,Hour,Minute]
562,11,Fans:Electricity [J] !RunPeriod [Value,Min,Month,Day,Hour,Minute,Max,Month,Day,Hour,Minute]
1379,11,Pumps:Electricity [J] !RunPeriod [Value,Min,Month,Day,Hour,Minute,Max,Month,Day,Hour,Minute]
1326,11,WaterSystems:Electricity [J] !RunPeriod [Value,Min,Month,Day,Hour,Minute,Max,Month,Day,Hour,Minute]
61,11,InteriorLights:Electricity [J] !RunPeriod [Value,Min,Month,Day,Hour,Minute,Max,Month,Day,Hour,Minute]
1046,11,ExteriorLights:Electricity [J] !RunPeriod [Value,Min,Month,Day,Hour,Minute,Max,Month,Day,Hour,Minute]
134,11,InteriorEquipment:Electricity [J] !RunPeriod [Value,Min,Month,Day,Hour,Minute,Max,Month,Day,Hour,Minute]
170,11,gas_dryer:InteriorEquipment:Electricity [J] !RunPeriod [Value,Min,Month,Day,Hour,Minute,Max,Month,Day,Hour,Minute]
207,11,clotheswasher:InteriorEquipment:Electricity [J] !RunPeriod [Value,Min,Month,Day,Hour,Minute,Max,Month,Day,Hour,Minute]
244,11,dishwasher:InteriorEquipment:Electricity [J] !RunPeriod [Value,Min,Month,Day,Hour,Minute,Max,Month,Day,Hour,Minute]
281,11,refrigerator:InteriorEquipment:Electricity [J] !RunPeriod [Value,Min,Month,Day,Hour,Minute,Max,Month,Day,Hour,Minute]
318,11,electric_mels:InteriorEquipment:Electricity [J] !RunPeriod [Value,Min,Month,Day,Hour,Minute,Max,Month,Day,Hour,Minute]
355,11,NaturalGas:Facility [J] !RunPeriod [Value,Min,Month,Day,Hour,Minute,Max,Month,Day,Hour,Minute]
403,11,InteriorEquipment:NaturalGas [J] !RunPeriod [Value,Min,Month,Day,Hour,Minute,Max,Month,Day,Hour,Minute]
476,11,gas_dryer:InteriorEquipment:NaturalGas [J] !RunPeriod [Value,Min,Month,Day,Hour,Minute,Max,Month,Day,Hour,Minute]
513,11,gas_mels:InteriorEquipment:NaturalGas [J] !RunPeriod [Value,Min,Month,Day,Hour,Minute,Max,Month,Day,Hour,Minute]
End of Data Dictionary
1,EXTREME_WINTER,  39.10, -84.42,  -5.00, 149.40
5,7
1038,0.75,0.0, 1,15, 1,15,0.25, 1,20, 6,15
1039,0.0,0.0, 1,15, 1,15,0.0, 1,15, 1,15
581,0.3322573493678212,0.18916459665443244, 1,16,20,60,0.47613192559018164, 1,18, 5,60
582,3.090831506909601,0.0, 1,15,20,52,12.447071118613476, 1,17,24,52
583,0.04253812367531699,0.0003089150620451625, 1,16,20,15,0.07428548080697145, 1,15, 6,15
1115,1382618329.7401843,0.0, 1,15,15,37,4024213.014929165, 1,19, 6,30
1128,480914622.4728281,0.0, 1,15,15,37,1275169.917412969, 1,18, 9,15
1153,8175779.364101587,0.0, 1,15,15,37,68838.38454989635, 1,17, 6,45
1154,49288549.575054646,0.0, 1,15, 1,15,180000.0, 1,15,16,15
1155,439057451.48442394,0.0, 1,15, 1,22,5022225.965572294, 1,20, 6,45
1156,439057451.48442394,0.0, 1,15, 1,22,5022225.965572294, 1,20, 6,45
1292,-25227381.352467194,-39794.15992586936, 1,15, 1,15,-4221.719070599199, 1,21,10,33
1306,262972132.3946952,0.0, 1,15, 1,15,4050000.0, 1,15, 8,45
1307,86917602.12015672,0.0, 1,15, 1,15,13895023.89984318, 1,15, 8,30
1308,262972132.3946952,0.0, 1,15, 1,15,4050000.0, 1,15, 8,45
13,1665834619.1282997,452017.0388981225, 1,15,15,45,9216078.316424992, 1,20, 8,15
61,301924526.02383536,88139.10953165221, 1,15, 1,15,1282023.4113694867, 1,15,20,15
134,70666020.44019976,63564.01800854099, 1,15, 4,15,156554.22484006523, 1,20,20,15
170,5241013.419656067,348.4159749238097, 1,15, 4,15,17476.39704006126, 1,20,12,15
207,6509451.13922267,815.2532113832032, 1,15, 3,15,22990.642799023623, 1,20,10,15
244,12749673.399825225,1521.856143006317, 1,15, 4,15,53038.631142310165, 1,20,20,15
281,46165882.481495745,59938.60262432081, 1,15, 5,15,81951.81706819107, 1,15,19,15
318,0.0,0.0, 1,15, 1,15,0.0, 1,15, 1,15
355,197687796.27748066,18561.32405820678, 1,15, 4,15,724774.895203776, 1,20,18,15
403,197687796.27748066,18561.32405820678, 1,15, 4,15,724774.895203776, 1,20,18,15
476,106772067.24485716,7098.072629279515, 1,15, 4,15,356036.3026282215, 1,20,12,15
513,0.0,0.0, 1,15, 1,15,0.0, 1,15, 1,15
562,52835537.373162925,0.0, 1,15,15,45,132889.93945515214, 1,15, 1,15
1046,0.0,0.0, 1,15, 1,15,0.0, 1,15, 1,15
1096,0.0,0.0, 1,15, 1,15,0.0, 1,15, 1,15
1134,977436402.8964084,180000.0, 1,15,15,45,6179874.500128599, 1,21, 6,15
1326,262972132.39469522,0.0, 1,15, 1,15,4050000.0, 1,15, 8,45
1379,0.0,0.0, 1,15, 1,15,0.0, 1,15, 1,15
1,EXTREME_SUMMER,  39.10, -84.42,  -5.00, 149.40
5,7
1038,0.0,0.0, 7,15, 1,15,0.0, 7,15, 1,15
1039,38.75,0.0, 7,15, 1,15,0.25, 7,15,14,45
581,0.06748808826628497,0.0, 7,15, 6, 7,0.47244864585980423, 7,20,16,51
582,1.7583152138069007,0.0, 7,16,21,47,8.873888759926013, 7,20,16,48
583,0.037748918893465294,0.0, 7,15, 6, 7,0.06761919400168569, 7,18,17, 2
1115,0.0,0.0, 7,15, 1, 7,0.0, 7,15, 1, 7
1128,0.0,0.0, 7,15, 1, 7,0.0, 7,15, 1, 7
1153,0.0,0.0, 7,15, 1, 7,0.0, 7,15, 1, 7
1154,0.0,0.0, 7,15, 1, 7,0.0, 7,15, 1, 7
1155,0.0,0.0, 7,15, 1, 7,0.0, 7,15, 1, 7
1156,0.0,0.0, 7,15, 1, 7,0.0, 7,15, 1, 7
1292,-21810272.244900543,-34320.61183770391, 7,20, 6,45,-2570.677931323436, 7,19,19,32
1306,195724910.14749828,0.0, 7,15, 1, 7,4050000.0, 7,18, 6,60
1307,46955938.276952535,0.0, 7,15, 1, 7,2215755.858311131, 7,16, 7,15
1308,195724910.14749828,0.0, 7,15, 1, 7,4050000.0, 7,18, 6,60
13,1110156307.5673947,173681.82642171343, 7,19, 4,60,6261447.6001585815, 7,17,17,30
61,301924526.02383536,88139.10953165221, 7,15, 1,15,1282023.4113694867, 7,15,20,15
134,70666020.44019976,63564.01800854099, 7,15, 4,15,156554.22484006523, 7,20,20,15
170,5241013.419656067,348.4159749238097, 7,15, 4,15,17476.39704006126, 7,20,12,15
207,6509451.13922267,815.2532113832032, 7,15, 3,15,22990.642799023623, 7,20,10,15
244,12749673.399825225,1521.856143006317, 7,15, 4,15,53038.631142310165, 7,20,20,15
281,46165882.481495745,59938.60262432081, 7,15, 5,15,81951.81706819107, 7,15,19,15
318,0.0,0.0, 7,15, 1,15,0.0, 7,15, 1,15
355,197687796.27748066,18561.32405820678, 7,15, 4,15,724774.895203776, 7,20,18,15
403,197687796.27748066,18561.32405820678, 7,15, 4,15,724774.895203776, 7,20,18,15
476,106772067.24485716,7098.072629279515, 7,15, 4,15,356036.3026282215, 7,20,12,15
513,0.0,0.0, 7,15, 1,15,0.0, 7,15, 1,15
562,52192333.56754698,0.0, 7,19, 6,30,132889.93945515217, 7,18,16,45
1046,0.0,0.0, 7,15, 1,15,0.0, 7,15, 1,15
1096,489648517.3883149,0.0, 7,19, 6,30,1407173.9565365575, 7,16,15,60
1134,0.0,0.0, 7,15, 1,15,0.0, 7,15, 1,15
1326,195724910.1474982,0.0, 7,15, 1,15,4050000.0, 7,15, 8,45
1379,0.0,0.0, 7,15, 1,15,0.0, 7,15, 1,15
1,ANNUAL,  39.10, -84.42,  -5.00, 149.40
5,365
1038,7.75,0.0, 1, 1, 1,15,0.25, 1, 2, 6,15
1039,524.5,0.0, 1, 1, 1,15,0.25, 2,11,16,60
581,0.2175470810623573,0.0, 5, 7, 8,32,1.2426552010557639, 2,18,22,50
582,3.113739221624152,0.0, 1, 9,19,60,28.113343069737446, 1,29,21,60
583,0.027278031573171418,0.0, 6, 8,23, 3,0.09391577882295853, 9,15,14,60
1115,19835743477.384605,0.0, 1, 1,23, 5,4631631.71790018, 1,22, 4,60
1128,6367689656.119732,0.0, 1, 1,23, 5,1296799.5287742286, 1,22, 4,60
1153,221712487.42167047,0.0, 1, 1,23, 5,113231.76717775557, 2,22, 7,60
1154,1540980760.121138,0.0, 1, 1, 1, 3,180000.0, 1, 4,15,15
1155,2822574238.2054715,0.0, 1, 1, 1,32,5022225.965572294, 1,20, 6,45
1156,2822574238.2054715,0.0, 1, 1, 1,32,5022225.965572294, 1,20, 6,45
1292,-1214804278.4880376,-39821.887908471894,12, 2, 4,60,-1850.0996270456135, 5, 8, 8,31
1306,11991984818.82922,0.0, 1, 1, 1, 3,4050000.0, 1, 1,10,30
1307,3464112199.740481,0.0, 1, 1, 1, 3,14120301.662781531, 2, 6, 8,30
1308,11991984818.82922,0.0, 1, 1, 1, 3,4050000.0, 1, 1,10,30
13,53718922514.63651,151703.1275401932, 3, 6, 4,15,10811674.772243593, 1,25, 7,60
61,15743207428.383959,88139.10953165221, 1, 1, 1,15,1282023.4113694867, 1, 1,20,15
134,3685071073.4325233,63564.01800854099, 1, 2, 4,15,156554.22484006523, 1, 1,20,15
170,273393721.45532674,348.4159749238097, 1, 2, 4,15,17476.39704006126, 1, 1,12,15
207,339560869.0695816,815.2532113832032, 1, 2, 3,15,22990.642799023623, 1, 1,10,15
244,664895467.8009144,1521.856143006317, 1, 2, 4,15,53038.631142310165, 1, 1,20,15
281,2407221015.106824,59938.60262432081, 1, 1, 5,15,81951.81706819107, 1, 1,19,15
318,0.0,0.0, 1, 1, 1,15,0.0, 1, 1, 1,15
355,10310294493.051695,18561.32405820678, 1, 2, 4,15,724774.895203776, 1, 1,18,15
403,10310294493.051695,18561.32405820678, 1, 2, 4,15,724774.895203776, 1, 1,18,15
476,5569688622.066177,7098.072629279515, 1, 2, 4,15,356036.3026282215, 1, 1,12,15
513,0.0,0.0, 1, 1, 1,15,0.0, 1, 1, 1,15
562,1784159643.432606,0.0, 1, 3,17,15,132889.93945515217, 6,21,16,60
1046,0.0,0.0, 1, 1, 1,15,0.0, 1, 1, 1,15
1096,9561542408.689005,0.0, 1, 1, 1,15,1462019.1322302143, 8, 9,14,60
1134,10952957141.868013,0.0, 1, 6,17,15,6179915.908956189, 1,21, 6,15
1326,11991984818.829214,0.0, 1, 1, 1,15,4050000.0000000014, 4,23,10,60
1379,0.0,0.0, 1, 1, 1,15,0.0, 1, 1, 1,15
End of Data
 Number of Records Written=          99
