Program Version,EnergyPlus, Version 22.2.0-c249759bad, YMD=2023.09.01 14:30
1,5,Environment Title[],Latitude[deg],Longitude[deg],Time Zone[],Elevation[m]
2,8,Day of Simulation[],Month[],Day of Month[],DST Indicator[1=yes 0=no],Hour[],StartMinute[],EndMinute[],DayType
3,5,Cumulative Day of Simulation[],Month[],Day of Month[],DST Indicator[1=yes 0=no],DayType  ! When Daily Report Variables Requested
4,2,Cumulative Days of Simulation[],Month[]  ! When Monthly Report Variables Requested
5,1,Cumulative Days of Simulation[] ! When Run Period Report Variables Requested
6,1,Calendar Year of Simulation[] ! When Annual Report Variables Requested
7,1,Environment,Site Outdoor Air Drybulb Temperature [C] !Hourly
619,1,DX_HEATING_COIL,Heating Coil Heating Rate [W] !Hourly
633,1,DX_HEATING_COIL,Heating Coil Electricity Rate [W] !Hourly
659,1,DX_HEATING_COIL,Heating Coil Defrost Electricity Rate [W] !Hourly
661,1,DX_HEATING_COIL,Heating Coil Crankcase Heater Electricity Rate [W] !Hourly
690,1,FAN,Fan Electricity Rate [W] !Hourly
716,1,HEAT PUMP WATER HEATER FAN,Fan Electricity Rate [W] !Hourly
718,1,LIVING,Zone Mean Air Temperature [C] !Hourly
719,1,ATTIC,Zone Mean Air Temperature [C] !Hourly
720,1,CRAWLSPACE,Zone Mean Air Temperature [C] !Hourly
843,1,LIVING,Zone Predicted Sensible Load to Heating Setpoint Heat Transfer Rate [W] !Hourly
844,1,LIVING,Zone System Predicted Sensible Load to Heating Setpoint Heat Transfer Rate [W] !Hourly
907,1,ATTIC,Zone Predicted Sensible Load to Heating Setpoint Heat Transfer Rate [W] !Hourly
908,1,ATTIC,Zone System Predicted Sensible Load to Heating Setpoint Heat Transfer Rate [W] !Hourly
971,1,CRAWLSPACE,Zone Predicted Sensible Load to Heating Setpoint Heat Transfer Rate [W] !Hourly
972,1,CRAWLSPACE,Zone System Predicted Sensible Load to Heating Setpoint Heat Transfer Rate [W] !Hourly
1195,1,HEATING_RESISTANCE_BACKUP,Heating Coil Heating Rate [W] !Hourly
1197,1,HEATING_RESISTANCE_BACKUP,Heating Coil Electricity Rate [W] !Hourly
End of Data Dictionary
1,EXTREME_WINTER,  41.20, -96.11,  -6.00, 320.00
2,1,12,15, 0, 1, 0.00,60.00,Monday
7,-8.6
718,18.64593237623779
719,-6.127722033544041
720,18.9286505659924
619,3911.6229659251367
633,1383.6325114704698
659,9.706345138932019
661,0.0
690,153.19720679005889
716,0.0
843,2693.3077198709816
844,2693.3077198709816
907,0.0
908,0.0
971,0.0
972,0.0
1195,404.98497576674936
1197,404.98497576674936
2,1,12,15, 0, 2, 0.00,60.00,Monday
7,-8.6
718,18.620289901253553
719,-5.393241366699633
720,18.557491938612106
619,3897.8399222672947
633,1376.7710407221919
659,13.795533170406918
661,0.0
690,153.19720679005889
716,0.0
843,3039.261472444312
844,3039.261472444312
907,0.0
908,0.0
971,0.0
972,0.0
1195,811.0336489906008
1197,811.0336489906008
2,1,12,15, 0, 3, 0.00,60.00,Monday
7,-8.5
718,18.611178460240613
719,-4.811106631159523
720,18.38417128970417
619,3899.6596242610176
633,1373.0667877941496
659,16.73293769029299
661,0.0
690,153.19720679005889
716,0.0
843,3295.5644826631615
844,3295.5644826631615
907,0.0
908,0.0
971,0.0
972,0.0
1195,1074.317813814162
1197,1074.317813814162
2,1,12,15, 0, 4, 0.00,60.00,Monday
7,-9.0
718,18.60902647456959
719,-4.8252458267664435
720,18.175645256184808
619,3826.5534302133806
633,1361.3767600345168
659,20.814309026687592
661,0.0
690,153.19720679005889
716,0.0
843,3566.2618457478857
844,3566.2618457478857
907,0.0
908,0.0
971,0.0
972,0.0
1195,1444.106621968756
1197,1444.106621968756
2,1,12,15, 0, 5, 0.00,60.00,Monday
7,-9.5
718,18.606884027715765
719,-5.021593207762262
720,17.993825575421095
619,3751.3637627789926
633,1348.792452595848
659,25.706092837478877
661,0.0
690,153.19720679005889
716,0.0
843,3664.1850266453093
844,3664.1850266453093
907,0.0
908,0.0
971,0.0
972,0.0
1195,1635.1593272487924
1197,1635.1593272487924
2,1,12,15, 0, 6, 0.00,60.00,Monday
7,-9.9
718,19.36910893023195
719,-4.981708093971499
720,17.81769799484943
619,3697.489301722612
633,1340.7069272045699
659,28.073480468505394
661,0.0
690,153.19720679005889
716,0.0
843,4779.949235050941
844,4779.949235050941
907,0.0
908,0.0
971,0.0
972,0.0
1195,3039.870049771179
1197,3039.870049771179
2,1,12,15, 0, 7, 0.00,60.00,Monday
7,-7.4
718,19.574154203703195
719,-4.365937910316283
720,17.704502133608145
619,4008.846986904836
633,1403.8158131586779
659,17.909202448438627
661,0.0
690,153.19720679005889
716,85.44000000000004
843,4333.701725743078
844,4333.701725743078
907,0.0
908,0.0
971,0.0
972,0.0
1195,3332.524891909415
1197,3332.524891909415
2,1,12,15, 0, 8, 0.00,60.00,Monday
7,-7.0
718,19.65069690783414
719,-3.542557653580779
720,17.550660659448898
619,4054.24549958907
633,1414.8295830676511
659,17.355879056519978
661,0.0
690,153.19720679005889
716,85.44000000000004
843,4073.8743575191147
844,4073.8743575191147
907,0.0
908,0.0
971,0.0
972,0.0
1195,3041.054707032101
1197,3041.054707032101
2,1,12,15, 0, 9, 0.00,60.00,Monday
7,-6.3
718,19.70024896312537
719,-2.484702384830437
720,17.414662580482517
619,4163.135408132785
633,1434.1159332279306
659,10.826210673455494
661,0.0
690,153.19720679005889
716,9.6167568196881
843,3598.8755295827086
844,3598.8755295827086
907,0.0
908,0.0
971,0.0
972,0.0
1195,1291.6601619930216
1197,1291.6601619930216
2,1,12,15, 0,10, 0.00,60.00,Monday
7,-5.6
718,19.716893594920258
719,-1.4385804796879016
720,17.27942050852946
619,4291.680826751827
633,1458.5760611609323
659,0.07379807986624
661,0.0
690,153.19720679005889
716,0.0
843,3348.5401843721793
844,3348.5401843721793
907,0.0
908,0.0
971,0.0
972,0.0
1195,708.0425646308145
1197,708.0425646308145
2,1,12,15, 0,11, 0.00,60.00,Monday
7,-5.3
718,19.721885882488603
719,0.5736816606241286
720,17.164652139694308
619,4329.118351516102
633,1462.57472885738
659,0.07379807986624
661,0.0
690,153.19720679005889
716,0.0
843,2860.4625705303715
844,2860.4625705303715
907,0.0
908,0.0
971,0.0
972,0.0
1195,38.65167099531209
1197,38.65167099531209
2,1,12,15, 0,12, 0.00,60.00,Monday
7,-3.9
718,19.782554922944588
719,1.596317186914368
720,17.09184098895046
619,3119.764265071119
633,1060.5884684328607
659,0.05287307578989245
661,56.70880357395313
690,109.75774714356807
716,0.0
843,2117.533866648493
844,2117.533866648493
907,0.0
908,0.0
971,0.0
972,0.0
1195,0.0
1197,0.0
2,1,12,15, 0,13, 0.00,60.00,Monday
7,-3.2
718,19.557545026423252
719,1.2650781671161444
720,17.011282668900453
619,3308.738774096135
633,1107.2467542386303
659,0.054814057277644185
661,51.44855427947341
690,113.78708664651248
716,0.0
843,2297.2911627306967
844,2297.2911627306967
907,0.0
908,0.0
971,0.0
972,0.0
1195,0.0
1197,0.0
2,1,12,15, 0,14, 0.00,60.00,Monday
7,-3.5
718,19.70916533986205
719,2.861674494540131
720,16.942327151989822
619,3927.897921501666
633,1293.9006656473696
659,0.06451270936625063
661,25.16426041658326
690,133.9202149891944
716,78.9498179325653
843,1887.8105479368478
844,1887.8105479368478
907,0.0
908,0.0
971,0.0
972,0.0
1195,0.0
1197,0.0
2,1,12,15, 0,15, 0.00,60.00,Monday
7,-3.1
718,19.83069004422081
719,1.8017623515619536
720,16.9209407686351
619,2036.5046181064056
633,701.1093747582464
659,0.034726279301907505
661,105.88839339763487
690,72.08739692598024
716,0.0
843,1431.9515625165677
844,1431.9515625165677
907,0.0
908,0.0
971,0.0
972,0.0
1195,0.0
1197,0.0
2,1,12,15, 0,16, 0.00,60.00,Monday
7,-3.7
718,19.922184449332004
719,1.8936335770782564
720,16.891344442353894
619,1256.3795460325425
633,447.7550538486517
659,0.022234911933853276
661,139.74121826975892
690,46.15684776108241
716,0.0
843,867.2230030553183
844,867.2230030553183
907,0.0
908,0.0
971,0.0
972,0.0
1195,0.0
1197,0.0
2,1,12,15, 0,17, 0.00,60.00,Monday
7,-4.2
718,19.841987021920517
719,0.37598031546433885
720,16.873057883959945
619,957.266237059775
633,348.0248203931723
659,0.017324284888357435
661,153.04949689813628
690,35.96298519161072
716,0.0
843,660.8571557906052
844,660.8571557906052
907,0.0
908,0.0
971,0.0
972,0.0
1195,0.0
1197,0.0
2,1,12,15, 0,18, 0.00,60.00,Monday
7,-5.3
718,19.955086705190002
719,-0.8493697589745994
720,16.843185301264292
619,1794.8782522815131
633,650.1859004228893
659,0.03272579536207059
661,111.30990014540613
690,67.93442811246105
716,0.0
843,1215.8158519777026
844,1215.8158519777026
907,0.0
908,0.0
971,0.0
972,0.0
1195,0.0
1197,0.0
2,1,12,15, 0,19, 0.00,60.00,Monday
7,-6.0
718,19.65405355221143
719,-1.6606404090237181
720,16.79446753640676
619,3249.3716726904618
633,1149.5844117816846
659,0.05809853440561833
661,42.54730065898003
690,120.60475056865474
716,85.44000000000004
843,1202.1147340711377
844,1202.1147340711377
907,0.0
908,0.0
971,0.0
972,0.0
1195,0.0
1197,0.0
2,1,12,15, 0,20, 0.00,60.00,Monday
7,-7.0
718,19.62873943658205
719,-2.3017993274326005
720,16.715480782658727
619,3800.2268696458927
633,1338.8506889828345
659,0.06865588453421666
661,13.935851288661283
690,142.52016330959023
716,85.44000000000004
843,1505.1637057182743
844,1505.1637057182743
907,0.0
908,0.0
971,0.0
972,0.0
1195,0.0
1197,0.0
2,1,12,15, 0,21, 0.00,60.00,Monday
7,-8.6
718,19.634350634472316
719,-3.3243383304914493
720,16.62895293252439
619,3894.689984322957
633,1407.7504039898809
659,0.07324834185168472
661,1.489843680355074
690,152.053048985459
716,53.0415842583419
843,1870.1436512853725
844,1870.1436512853725
907,0.0
908,0.0
971,0.0
972,0.0
1195,0.0
1197,0.0
2,1,12,15, 0,22, 0.00,60.00,Monday
7,-10.1
718,19.684774675625608
719,-4.5817318470697925
720,16.5327108453248
619,3721.3121465165646
633,1388.2366041427651
659,8.562435472617752
661,0.0
690,153.19720679005889
716,0.0
843,2455.33649704665
844,2455.33649704665
907,0.0
908,0.0
971,0.0
972,0.0
1195,268.32755509522804
1197,268.32755509522804
2,1,12,15, 0,23, 0.00,60.00,Monday
7,-10.5
718,18.986145980592582
719,-5.666481380457341
720,16.441032580026146
619,3461.352531186754
633,1316.103181512685
659,9.785788828786188
661,9.554179472754276
690,145.40638706230538
716,0.0
843,1996.2716965560194
844,1996.2716965560194
907,0.0
908,0.0
971,0.0
972,0.0
1195,0.0
1197,0.0
2,1,12,15, 0,24, 0.00,60.00,Monday
7,-9.9
718,18.731464365019708
719,-6.164624884987072
720,16.306548083380402
619,3767.434878434867
633,1376.4799525135168
659,6.424506266829054
661,0.0
690,153.19720679005889
716,0.0
843,2445.610259565332
844,2445.610259565332
907,0.0
908,0.0
971,0.0
972,0.0
1195,292.3064849640364
1197,292.3064849640364
2,2,12,16, 0, 1, 0.00,60.00,Tuesday
7,-9.7
718,18.648535593909973
719,-6.486826986836164
720,16.190626791230393
619,3813.7471971861837
633,1378.283102206934
659,1.6828956516338882
661,0.0
690,153.19720679005889
716,0.0
843,2968.934726404339
844,2968.934726404339
907,0.0
908,0.0
971,0.0
972,0.0
1195,876.1217801898788
1197,876.1217801898788
2,2,12,16, 0, 2, 0.00,60.00,Tuesday
7,-10.5
718,18.617357107440878
719,-6.58535247987891
720,16.060371391312895
619,3713.2574080218214
633,1362.6125260898227
659,4.469997602804945
661,0.0
690,153.19720679005889
716,0.0
843,3695.717250177282
844,3695.717250177282
907,0.0
908,0.0
971,0.0
972,0.0
1195,1862.2678533491835
1197,1862.2678533491835
2,2,12,16, 0, 3, 0.00,60.00,Tuesday
7,-11.1
718,18.606679859735152
719,-6.038486404777625
720,15.93516281679531
619,3647.8513709204967
633,1355.130374602227
659,3.796554521059657
661,0.0
690,153.19720679005889
716,0.0
843,4122.792986207316
844,4122.792986207316
907,0.0
908,0.0
971,0.0
972,0.0
1195,2435.8124682741545
1197,2435.8124682741545
2,2,12,16, 0, 4, 0.00,60.00,Tuesday
7,-12.0
718,18.60636923573269
719,-6.242794195073507
720,15.804943761948937
619,3559.0745504157007
633,1348.2119092055582
659,0.07379807986624
661,0.0
690,153.19720679005889
716,0.0
843,4386.20979216315
844,4386.20979216315
907,0.0
908,0.0
971,0.0
972,0.0
1195,2819.3336316374916
1197,2819.3336316374916
2,2,12,16, 0, 5, 0.00,60.00,Tuesday
7,-12.5
718,18.60426405068917
719,-6.731167745786254
720,15.67877504790411
619,3503.312425056907
633,1341.7271069598278
659,0.07379807986624
661,0.0
690,153.19720679005889
716,0.0
843,4312.284309972209
844,4312.284309972209
907,0.0
908,0.0
971,0.0
972,0.0
1195,2788.802641972795
1197,2788.802641972795
2,2,12,16, 0, 6, 0.00,60.00,Tuesday
7,-12.7
718,19.373372118185717
719,-6.698961822514625
720,15.552282438256485
619,3481.288070986703
633,1338.971668081211
659,0.07379807986624
661,0.0
690,153.19720679005889
716,0.0
843,5547.45982169604
844,5547.45982169604
907,0.0
908,0.0
971,0.0
972,0.0
1195,4328.863114497976
1197,4328.863114497976
2,2,12,16, 0, 7, 0.00,60.00,Tuesday
7,-12.8
718,19.574415839571675
719,-6.023124427845501
720,15.46437998254904
619,3452.5542105168583
633,1356.3159450827889
659,0.07379807986624
661,0.0
690,153.19720679005889
716,85.44000000000004
843,5233.423330465153
844,5233.423330465153
907,0.0
908,0.0
971,0.0
972,0.0
1195,5093.583396579755
1197,5093.583396579755
2,2,12,16, 0, 8, 0.00,60.00,Tuesday
7,-12.5
718,19.65049793974945
719,-5.730573169009575
720,15.35205908562933
619,3481.246335127995
633,1365.1108264729962
659,0.07379807986624
661,0.0
690,153.19720679005889
716,85.44000000000004
843,4924.21016516129
844,4924.21016516129
907,0.0
908,0.0
971,0.0
972,0.0
1195,4782.348052944952
1197,4782.348052944952
2,2,12,16, 0, 9, 0.00,60.00,Tuesday
7,-11.9
718,19.684503002628325
719,-5.3088808656422755
720,15.247030305213
619,3546.698167787711
633,1374.7603104319915
659,0.07379807986624
661,0.0
690,153.19720679005889
716,85.44000000000004
843,4991.906741423218
844,4991.906741423218
907,0.0
908,0.0
971,0.0
972,0.0
1195,4773.584435799178
1197,4773.584435799178
2,2,12,16, 0,10, 0.00,60.00,Tuesday
7,-11.1
718,19.710892306459257
719,-3.4146423037725016
720,15.147015737816748
619,3635.289816249938
633,1385.4159325607852
659,0.46243436540724514
661,0.0
690,153.19720679005889
716,20.55111527530423
843,4569.113315135051
844,4569.113315135051
907,0.0
908,0.0
971,0.0
972,0.0
1195,3276.0757917835667
1197,3276.0757917835667
2,2,12,16, 0,11, 0.00,60.00,Tuesday
7,-10.1
718,19.715048737993357
719,-2.187236155040111
720,15.051751652576765
619,3751.192162172565
633,1399.3234833112579
659,0.07379807986624
661,0.0
690,153.19720679005889
716,0.0
843,4354.7776938929055
844,4354.7776938929055
907,0.0
908,0.0
971,0.0
972,0.0
1195,2541.1752903211477
1197,2541.1752903211477
2,2,12,16, 0,12, 0.00,60.00,Tuesday
7,-9.6
718,19.72005314457348
719,-1.4720146335574518
720,14.959620859341394
619,3809.517373645502
633,1405.660419888933
659,0.07379807986624
661,0.0
690,153.19720679005889
716,0.0
843,4187.523587420317
844,4187.523587420317
907,0.0
908,0.0
971,0.0
972,0.0
1195,2227.026060905734
1197,2227.026060905734
2,2,12,16, 0,13, 0.00,60.00,Tuesday
7,-9.0
718,19.71828798338673
719,-0.95006079326439
720,14.876211454206928
619,3880.1622209234188
633,1413.2318419650983
659,0.07379807986624
661,0.0
690,153.19720679005889
716,0.0
843,4012.344847879878
844,4012.344847879878
907,0.0
908,0.0
971,0.0
972,0.0
1195,1905.5634214342372
1197,1905.5634214342372
2,2,12,16, 0,14, 0.00,60.00,Tuesday
7,-8.1
718,19.7197918369202
719,-0.5738019317640592
720,14.80363172882084
619,3987.6576118379962
633,1424.3274500358355
659,0.07379807986624
661,0.0
690,153.19720679005889
716,0.0
843,4029.906933222437
844,4029.906933222437
907,0.0
908,0.0
971,0.0
972,0.0
1195,1803.329390970625
1197,1803.329390970625
2,2,12,16, 0,15, 0.00,60.00,Tuesday
7,-7.5
718,19.719935662274263
719,-0.1904927467406332
720,14.740421676333105
619,4060.1803674629673
633,1431.7423500189627
659,0.07379807986624
661,0.0
690,153.19720679005889
716,0.0
843,3679.569145759053
844,3679.569145759053
907,0.0
908,0.0
971,0.0
972,0.0
1195,1285.2151475822411
1197,1285.2151475822411
2,2,12,16, 0,16, 0.00,60.00,Tuesday
7,-7.2
718,19.721722419140907
719,-0.6918186694305124
720,14.680277314201438
619,4096.769955999538
633,1435.3787682294856
659,0.07379807986624
661,0.0
690,153.19720679005889
716,0.0
843,3510.616541700545
844,3510.616541700545
907,0.0
908,0.0
971,0.0
972,0.0
1195,1029.7817599198543
1197,1029.7817599198543
2,2,12,16, 0,17, 0.00,60.00,Tuesday
7,-6.8
718,19.7189121911577
719,-1.682513477537814
720,14.62237959367501
619,4145.799000921858
633,1440.2673532061776
659,0.07379807986624
661,0.0
690,153.19720679005889
716,0.0
843,3757.654181148573
844,3757.654181148573
907,0.0
908,0.0
971,0.0
972,0.0
1195,1304.3230987851275
1197,1304.3230987851275
2,2,12,16, 0,18, 0.00,60.00,Tuesday
7,-6.3
718,19.72159647321201
719,-2.1137233005260962
720,14.571207746427277
619,4207.599022376887
633,1446.3056294088178
659,0.07379807986624
661,0.0
690,153.19720679005889
716,0.0
843,3336.313620055469
844,3336.313620055469
907,0.0
908,0.0
971,0.0
972,0.0
1195,797.3036337820758
1197,797.3036337820758
2,2,12,16, 0,19, 0.00,60.00,Tuesday
7,-6.0
718,19.717387316764636
719,-1.9537630405679254
720,14.514828149584103
619,4244.8547865811
633,1450.005508721191
659,0.07379807986624
661,0.0
690,153.19720679005889
716,85.44000000000004
843,3128.8859435228733
844,3128.8859435228733
907,0.0
908,0.0
971,0.0
972,0.0
1195,1638.0326930911942
1197,1638.0326930911942
2,2,12,16, 0,20, 0.00,60.00,Tuesday
7,-6.0
718,19.707602764770716
719,-2.490047724070533
720,14.456607644240348
619,4245.024900290099
633,1449.808811576307
659,0.07379807986624
661,0.0
690,153.19720679005889
716,85.44000000000004
843,3016.813404404078
844,3016.813404404078
907,0.0
908,0.0
971,0.0
972,0.0
1195,1574.7566027744338
1197,1574.7566027744338
2,2,12,16, 0,21, 0.00,60.00,Tuesday
7,-6.1
718,19.712802840581777
719,-2.6408812971290816
720,14.395263956111581
619,4232.8958927069725
633,1448.2177060193221
659,0.07379807986624
661,0.0
690,153.19720679005889
716,85.44000000000004
843,2905.9497681863595
844,2905.9497681863595
907,0.0
908,0.0
971,0.0
972,0.0
1195,1480.6414063305428
1197,1480.6414063305428
2,2,12,16, 0,22, 0.00,60.00,Tuesday
7,-6.2
718,19.715576410935377
719,-2.553761586689961
720,14.332420021921381
619,4220.428635575775
633,1447.0411369115561
659,0.07379807986624
661,0.0
690,153.19720679005889
716,35.21421837925351
843,2942.8781616110246
844,2942.8781616110246
907,0.0
908,0.0
971,0.0
972,0.0
1195,802.2613895065169
1197,802.2613895065169
2,2,12,16, 0,23, 0.00,60.00,Tuesday
7,-6.6
718,18.958021345344
719,-3.0031582677910187
720,14.254947623048942
619,3698.4883280287954
633,1294.9950601441583
659,0.06626613021149946
661,20.412318771416004
690,137.55945401006957
716,0.0
843,2288.962853899662
844,2288.962853899662
907,0.0
908,0.0
971,0.0
972,0.0
1195,0.0
1197,0.0
2,2,12,16, 0,24, 0.00,60.00,Tuesday
7,-6.2
718,18.733833404827845
719,-2.712247625517376
720,14.165972539454687
619,3997.3938550402167
633,1353.2295476683512
659,0.07003592508728779
661,10.195806681613305
690,145.38513783754792
716,0.0
843,2526.4312389132756
844,2526.4312389132756
907,0.0
908,0.0
971,0.0
972,0.0
1195,0.0
1197,0.0
2,3,12,17, 0, 1, 0.00,60.00,Wednesday
7,-6.1
718,18.63359031319857
719,-2.822397050370438
720,14.091783843094154
619,4256.6869471583805
633,1420.7361249657379
659,0.07379807986624
661,0.0
690,153.19720679005889
716,0.0
843,3128.0257686005734
844,3128.0257686005734
907,0.0
908,0.0
971,0.0
972,0.0
1195,486.7362707949437
1197,486.7362707949437
2,3,12,17, 0, 2, 0.00,60.00,Wednesday
7,-6.0
718,18.61644192303034
719,-2.102654010001569
720,14.01690523116025
619,4271.615266182327
633,1419.0667401531705
659,0.07379807986624
661,0.0
690,153.19720679005889
716,0.0
843,3310.803792607403
844,3310.803792607403
907,0.0
908,0.0
971,0.0
972,0.0
1195,688.1885567598429
1197,688.1885567598429
2,3,12,17, 0, 3, 0.00,60.00,Wednesday
7,-5.5
718,18.61171471778372
719,-2.009423033405678
720,13.94719654094163
619,4334.693202506903
633,1424.4312869890869
659,0.07379807986624
661,0.0
690,153.19720679005889
716,0.0
843,3553.6949971518134
844,3553.6949971518134
907,0.0
908,0.0
971,0.0
972,0.0
1195,878.0434845104128
1197,878.0434845104128
2,3,12,17, 0, 4, 0.00,60.00,Wednesday
7,-5.1
718,18.60982661145515
719,-1.5048994707127519
720,13.880990982257448
619,4385.30645090124
633,1428.982408703402
659,0.07379807986624
661,0.0
690,153.19720679005889
716,0.0
843,3522.922120302186
844,3522.922120302186
907,0.0
908,0.0
971,0.0
972,0.0
1195,783.5436232050697
1197,783.5436232050697
2,3,12,17, 0, 5, 0.00,60.00,Wednesday
7,-5.0
718,18.611800719607125
719,-1.141285157112881
720,13.816477323542943
619,4397.017279211938
633,1429.6986516864126
659,0.3311857344858022
661,0.0
690,153.19720679005889
716,0.0
843,3302.87877427081
844,3302.87877427081
907,0.0
908,0.0
971,0.0
972,0.0
1195,483.9730633889635
1197,483.9730633889635
2,3,12,17, 0, 6, 0.00,60.00,Wednesday
7,-4.8
718,19.263325223892668
719,-0.8471328494007994
720,13.753875851251381
619,4413.497791941059
633,1429.141785217982
659,2.486783080008608
661,0.0
690,153.19720679005889
716,79.44058793945412
843,4465.898078626844
844,4465.898078626844
907,0.0
908,0.0
971,0.0
972,0.0
1195,2760.0681764861615
1197,2760.0681764861615
2,3,12,17, 0, 7, 0.00,60.00,Wednesday
7,-4.3
718,19.526480507676794
719,-0.2858977056111926
720,13.72944315728523
619,4433.5786691754
633,1444.33465825956
659,9.152587112927963
661,0.0
690,153.19720679005889
716,85.44000000000004
843,4136.842811262748
844,4136.842811262748
907,0.0
908,0.0
971,0.0
972,0.0
1195,2595.5526215212813
1197,2595.5526215212813
2,3,12,17, 0, 8, 0.00,60.00,Wednesday
7,-3.8
718,19.64347934605173
719,0.13742844003383806
720,13.687011334451839
619,4469.3446204521615
633,1450.8622810813558
659,14.243089215127679
661,0.0
690,153.19720679005889
716,71.22227101211968
843,3738.8626817871154
844,3738.8626817871154
907,0.0
908,0.0
971,0.0
972,0.0
1195,1895.1725294820967
1197,1895.1725294820967
2,3,12,17, 0, 9, 0.00,60.00,Wednesday
7,-3.6
718,19.70242559876762
719,0.26622078100190183
720,13.646014466315743
619,4490.061390856154
633,1455.9346820715161
659,14.712330707173079
661,0.0
690,153.19720679005889
716,0.0
843,3536.4551962790465
844,3536.4551962790465
907,0.0
908,0.0
971,0.0
972,0.0
1195,667.3549030928007
1197,667.3549030928007
2,3,12,17, 0,10, 0.00,60.00,Wednesday
7,-3.1
718,19.715478365820715
719,0.577339597534398
720,13.607760414544481
619,4519.455028431961
633,1453.018912122219
659,22.408147599219912
661,0.0
690,153.19720679005889
716,0.0
843,3400.5842345964793
844,3400.5842345964793
907,0.0
908,0.0
971,0.0
972,0.0
1195,472.75950038883
1197,472.75950038883
2,3,12,17, 0,11, 0.00,60.00,Wednesday
7,-3.0
718,19.719519095283154
719,0.5689722393225864
720,13.566516605607513
619,4484.217941066039
633,1439.2096278278136
659,33.42026664983445
661,0.0
690,153.19720679005889
716,0.0
843,3501.6861876944004
844,3501.6861876944004
907,0.0
908,0.0
971,0.0
972,0.0
1195,615.2104477571634
1197,615.2104477571634
2,3,12,17, 0,12, 0.00,60.00,Wednesday
7,-3.0
718,19.72126820851889
719,1.2469224341349217
720,13.530276427904694
619,4402.8408003776585
633,1413.1817681340315
659,52.16680960461387
661,0.0
690,153.19720679005889
716,0.0
843,3221.522832594781
844,3221.522832594781
907,0.0
908,0.0
971,0.0
972,0.0
1195,363.47119254494464
1197,363.47119254494464
2,3,12,17, 0,13, 0.00,60.00,Wednesday
7,-2.7
718,19.722558916839787
719,1.261350810713898
720,13.4967326456678
619,4424.039659633951
633,1411.6086309103475
659,55.862239188016254
661,0.0
690,153.19720679005889
716,0.0
843,3152.607895277588
844,3152.607895277588
907,0.0
908,0.0
971,0.0
972,0.0
1195,225.75356693667436
1197,225.75356693667436
2,3,12,17, 0,14, 0.00,60.00,Wednesday
7,-2.7
718,19.72213908369473
719,1.7157893442880794
720,13.464164987106946
619,4387.87588957521
633,1400.0629138297759
659,64.13026491911418
661,0.0
690,153.19720679005889
716,0.0
843,3073.497671010031
844,3073.497671010031
907,0.0
908,0.0
971,0.0
972,0.0
1195,166.52737981973814
1197,166.52737981973814
2,3,12,17, 0,15, 0.00,60.00,Wednesday
7,-3.0
718,19.709275967051894
719,1.7326074649570151
720,13.430920131263292
619,4290.403888189471
633,1376.9961202376662
659,78.10275087018172
661,0.0
690,153.19720679005889
716,71.34978792722507
843,3097.4690886869394
844,3097.4690886869394
907,0.0
908,0.0
971,0.0
972,0.0
1195,1197.5972970140847
1197,1197.5972970140847
2,3,12,17, 0,16, 0.00,60.00,Wednesday
7,-2.7
718,19.71460932349825
719,2.6532199449637073
720,13.40389567946763
619,4300.305803113673
633,1371.5563352387205
659,84.23461416225773
661,0.0
690,153.19720679005889
716,79.72987381818446
843,2892.237513771168
844,2892.237513771168
907,0.0
908,0.0
971,0.0
972,0.0
1195,1069.389143137419
1197,1069.389143137419
2,3,12,17, 0,17, 0.00,60.00,Wednesday
7,-2.6
718,19.73603907777158
719,1.693355954721499
720,13.36829686758166
619,4023.1400784046664
633,1304.9746712631281
659,82.90771108736283
661,9.358784255923446
690,144.1542940161153
716,0.0
843,2727.171938706533
844,2727.171938706533
907,0.0
908,0.0
971,0.0
972,0.0
1195,0.0
1197,0.0
2,3,12,17, 0,18, 0.00,60.00,Wednesday
7,-2.8
718,19.743029957997518
719,1.5349947318134374
720,13.330998666707716
619,3683.030440388716
633,1210.350244532348
659,75.50435716512676
661,23.238335422031664
690,133.6482361067411
716,0.0
843,2458.109324058976
844,2458.109324058976
907,0.0
908,0.0
971,0.0
972,0.0
1195,0.0
1197,0.0
2,3,12,17, 0,19, 0.00,60.00,Wednesday
7,-3.1
718,19.754192451803664
719,1.4131833923107846
720,13.288922375352278
619,3210.821753249948
633,1074.4735657826295
659,63.617335719125364
661,43.37986615041605
690,118.44452902817189
716,0.0
843,2134.9652738419263
844,2134.9652738419263
907,0.0
908,0.0
971,0.0
972,0.0
1195,0.0
1197,0.0
2,3,12,17, 0,20, 0.00,60.00,Wednesday
7,-3.2
718,19.578505777420084
719,1.62917982219197
720,13.303091792559671
619,4239.00844084979
633,1366.6714461933125
659,84.29462949987943
661,0.0
690,153.19720679005889
716,85.44000000000004
843,1971.8776730434838
844,1971.8776730434838
907,0.0
908,0.0
971,0.0
972,0.0
1195,267.6375190773092
1197,267.6375190773092
2,3,12,17, 0,21, 0.00,60.00,Wednesday
7,-3.7
718,19.6570799041157
719,1.2936842431499993
720,13.26038527748138
619,4214.711989665753
633,1366.4524894812912
659,76.90042300251065
661,0.0
690,153.19720679005889
716,85.44000000000004
843,2256.634534866658
844,2256.634534866658
907,0.0
908,0.0
971,0.0
972,0.0
1195,589.5546399552832
1197,589.5546399552832
2,3,12,17, 0,22, 0.00,60.00,Wednesday
7,-4.0
718,19.697066137422002
719,0.9252064747028095
720,13.241364318381118
619,4189.860305735331
633,1370.4006587570955
659,73.00039699133056
661,0.0
690,153.06217886721305
716,20.47810983579336
843,2537.965738875024
844,2537.965738875024
907,0.0
908,0.0
971,0.0
972,0.0
1195,0.0
1197,0.0
2,3,12,17, 0,23, 0.00,60.00,Wednesday
7,-4.1
718,18.957636551890992
719,0.30302521349542677
720,13.157598338869121
619,2615.630632105197
633,905.2642591407083
659,49.00378642000942
661,67.75930588532975
690,99.9796772002819
716,0.0
843,1701.4967650789295
844,1701.4967650789295
907,0.0
908,0.0
971,0.0
972,0.0
1195,0.0
1197,0.0
2,3,12,17, 0,24, 0.00,60.00,Wednesday
7,-4.6
718,18.69237994439898
719,0.21878082989895312
720,13.122227924008577
619,3083.743405475798
633,1043.8492702026792
659,53.34545550115014
661,45.41237803282365
690,116.90927064716848
716,0.0
843,2037.872061845921
844,2037.872061845921
907,0.0
908,0.0
971,0.0
972,0.0
1195,0.0
1197,0.0
2,4,12,18, 0, 1, 0.00,60.00,Thursday
7,-4.7
718,18.554650148790895
719,0.04261412638125577
720,13.094684199505371
619,4022.036745214622
633,1319.9802069758753
659,59.990772522268855
661,4.777134622357426
690,147.8419800922755
716,0.0
843,2672.6826589372195
844,2672.6826589372195
907,0.0
908,0.0
971,0.0
972,0.0
1195,0.0
1197,0.0
2,4,12,18, 0, 2, 0.00,60.00,Thursday
7,-5.0
718,18.58460218743979
719,0.021927071827949483
720,13.045719710387688
619,4175.70268980295
633,1354.4215358786455
659,54.56968502440345
661,0.0
690,153.19720679005889
716,0.0
843,3112.756311953619
844,3112.756311953619
907,0.0
908,0.0
971,0.0
972,0.0
1195,411.4342551145264
1197,411.4342551145264
2,4,12,18, 0, 3, 0.00,60.00,Thursday
7,-6.7
718,18.59715102692596
719,-1.0509485352625882
720,12.988290856113087
619,4013.245444337445
633,1349.2625382620522
659,44.46032148077253
661,0.0
690,153.19720679005889
716,0.0
843,3959.968075138282
844,3959.968075138282
907,0.0
908,0.0
971,0.0
972,0.0
1195,1590.7574522914615
1197,1590.7574522914615
2,4,12,18, 0, 4, 0.00,60.00,Thursday
7,-7.8
718,18.603423568454556
719,-1.631917562233119
720,12.935341900303515
619,3907.942582161464
633,1345.1223073242309
659,38.24333022693419
661,0.0
690,153.19720679005889
716,0.0
843,4140.462905183249
844,4140.462905183249
907,0.0
908,0.0
971,0.0
972,0.0
1195,1977.6046423184998
1197,1977.6046423184998
2,4,12,18, 0, 5, 0.00,60.00,Thursday
7,-8.8
718,18.60103582021781
719,-2.8221403523016106
720,12.872760439216602
619,3820.8971958944876
633,1343.7372786028623
659,30.47383241624292
661,0.0
690,153.19720679005889
716,0.0
843,4748.313718786056
844,4748.313718786056
907,0.0
908,0.0
971,0.0
972,0.0
1195,2826.5430731433
1197,2826.5430731433
2,4,12,18, 0, 6, 0.00,60.00,Thursday
7,-9.2
718,19.374143889190726
719,-2.6676048075004837
720,12.81950236637601
619,3788.9761069862875
633,1343.9436900016208
659,26.620844007276364
661,0.0
690,153.19720679005889
716,0.0
843,5433.189942062003
844,5433.189942062003
907,0.0
908,0.0
971,0.0
972,0.0
1195,3744.716175723269
1197,3744.716175723269
2,4,12,18, 0, 7, 0.00,60.00,Thursday
7,-9.7
718,19.57243738909328
719,-3.3237550258211366
720,12.788923333777634
619,3732.4382724972456
633,1364.2705182549112
659,21.47830647394722
661,0.0
690,153.19720679005889
716,85.44000000000004
843,5803.70135393754
844,5803.70135393754
907,0.0
908,0.0
971,0.0
972,0.0
1195,5536.878043593462
1197,5536.878043593462
2,4,12,18, 0, 8, 0.00,60.00,Thursday
7,-10.5
718,19.64723104801523
719,-4.646442057230074
720,12.726954461130411
619,3632.1347186737344
633,1357.6379213360456
659,22.835873276680605
661,0.0
690,153.19720679005889
716,85.44000000000004
843,5552.60870456122
844,5552.60870456122
907,0.0
908,0.0
971,0.0
972,0.0
1195,5432.268708962787
1197,5432.268708962787
2,4,12,18, 0, 9, 0.00,60.00,Thursday
7,-11.5
718,19.680821159362072
719,-5.821287344805975
720,12.657189350787387
619,3534.4858019435396
633,1352.863622911358
659,18.148733307963642
661,0.0
690,153.19720679005889
716,70.08964434031292
843,6291.670728353487
844,6291.670728353487
907,0.0
908,0.0
971,0.0
972,0.0
1195,6156.370226687674
1197,6156.370226687674
2,4,12,18, 0,10, 0.00,60.00,Thursday
7,-12.5
718,19.711260660315308
719,-5.662456055057056
720,12.590931546802214
619,3430.5826412049937
633,1343.596452492833
659,15.952669896220916
661,0.0
690,153.19720679005889
716,0.0