Program Version,EnergyPlus, Version 22.2.0-c249759bad, YMD=2023.07.07 15:21
1,5,Environment Title[],Latitude[deg],Longitude[deg],Time Zone[],Elevation[m]
2,8,Day of Simulation[],Month[],Day of Month[],DST Indicator[1=yes 0=no],Hour[],StartMinute[],EndMinute[],DayType
3,5,Cumulative Day of Simulation[],Month[],Day of Month[],DST Indicator[1=yes 0=no],DayType  ! When Daily Report Variables Requested
4,2,Cumulative Days of Simulation[],Month[]  ! When Monthly Report Variables Requested
5,1,Cumulative Days of Simulation[] ! When Run Period Report Variables Requested
6,1,Calendar Year of Simulation[] ! When Annual Report Variables Requested
581,11,LIVING,AFN Zone Infiltration Air Change Rate [ach] !RunPeriod [Value,Min,Month,Day,Hour,Minute,Max,Month,Day,Hour,Minute]
582,11,ATTIC,AFN Zone Infiltration Air Change Rate [ach] !RunPeriod [Value,Min,Month,Day,Hour,Minute,Max,Month,Day,Hour,Minute]
583,11,CRAWLSPACE,AFN Zone Infiltration Air Change Rate [ach] !RunPeriod [Value,Min,Month,Day,Hour,Minute,Max,Month,Day,Hour,Minute]
1038,11,Facility,Facility Heating Setpoint Not Met Time [hr] !RunPeriod [Value,Min,Month,Day,Hour,Minute,Max,Month,Day,Hour,Minute]
1039,11,Facility,Facility Cooling Setpoint Not Met Time [hr] !RunPeriod [Value,Min,Month,Day,Hour,Minute,Max,Month,Day,Hour,Minute]
1115,11,DX_HEATING_COIL,Heating Coil Heating Energy [J] !RunPeriod [Value,Min,Month,Day,Hour,Minute,Max,Month,Day,Hour,Minute]
1128,11,DX_HEATING_COIL,Heating Coil Electricity Energy [J] !RunPeriod [Value,Min,Month,Day,Hour,Minute,Max,Month,Day,Hour,Minute]
1153,11,DX_HEATING_COIL,Heating Coil Defrost Electricity Energy [J] !RunPeriod [Value,Min,Month,Day,Hour,Minute,Max,Month,Day,Hour,Minute]
1154,11,DX_HEATING_COIL,Heating Coil Crankcase Heater Electricity Energy [J] !RunPeriod [Value,Min,Month,Day,Hour,Minute,Max,Month,Day,Hour,Minute]
1156,11,HEATING_RESISTANCE_BACKUP,Heating Coil Electricity Energy [J] !RunPeriod [Value,Min,Month,Day,Hour,Minute,Max,Month,Day,Hour,Minute]
13,11,Electricity:Facility [J] !RunPeriod [Value,Min,Month,Day,Hour,Minute,Max,Month,Day,Hour,Minute]
1134,11,Heating:Electricity [J] !RunPeriod [Value,Min,Month,Day,Hour,Minute,Max,Month,Day,Hour,Minute]
1096,11,Cooling:Electricity [J] !RunPeriod [Value,Min,Month,Day,Hour,Minute,Max,Month,Day,Hour,Minute]
562,11,Fans:Electricity [J] !RunPeriod [Value,Min,Month,Day,Hour,Minute,Max,Month,Day,Hour,Minute]
1388,11,Pumps:Electricity [J] !RunPeriod [Value,Min,Month,Day,Hour,Minute,Max,Month,Day,Hour,Minute]
1360,11,WaterSystems:Electricity [J] !RunPeriod [Value,Min,Month,Day,Hour,Minute,Max,Month,Day,Hour,Minute]
61,11,InteriorLights:Electricity [J] !RunPeriod [Value,Min,Month,Day,Hour,Minute,Max,Month,Day,Hour,Minute]
1046,11,ExteriorLights:Electricity [J] !RunPeriod [Value,Min,Month,Day,Hour,Minute,Max,Month,Day,Hour,Minute]
134,11,InteriorEquipment:Electricity [J] !RunPeriod [Value,Min,Month,Day,Hour,Minute,Max,Month,Day,Hour,Minute]
170,11,gas_dryer:InteriorEquipment:Electricity [J] !RunPeriod [Value,Min,Month,Day,Hour,Minute,Max,Month,Day,Hour,Minute]
207,11,clotheswasher:InteriorEquipment:Electricity [J] !RunPeriod [Value,Min,Month,Day,Hour,Minute,Max,Month,Day,Hour,Minute]
244,11,dishwasher:InteriorEquipment:Electricity [J] !RunPeriod [Value,Min,Month,Day,Hour,Minute,Max,Month,Day,Hour,Minute]
281,11,refrigerator:InteriorEquipment:Electricity [J] !RunPeriod [Value,Min,Month,Day,Hour,Minute,Max,Month,Day,Hour,Minute]
318,11,electric_mels:InteriorEquipment:Electricity [J] !RunPeriod [Value,Min,Month,Day,Hour,Minute,Max,Month,Day,Hour,Minute]
355,11,NaturalGas:Facility [J] !RunPeriod [Value,Min,Month,Day,Hour,Minute,Max,Month,Day,Hour,Minute]
1323,11,WaterSystems:NaturalGas [J] !RunPeriod [Value,Min,Month,Day,Hour,Minute,Max,Month,Day,Hour,Minute]
403,11,InteriorEquipment:NaturalGas [J] !RunPeriod [Value,Min,Month,Day,Hour,Minute,Max,Month,Day,Hour,Minute]
476,11,gas_dryer:InteriorEquipment:NaturalGas [J] !RunPeriod [Value,Min,Month,Day,Hour,Minute,Max,Month,Day,Hour,Minute]
513,11,gas_mels:InteriorEquipment:NaturalGas [J] !RunPeriod [Value,Min,Month,Day,Hour,Minute,Max,Month,Day,Hour,Minute]
End of Data Dictionary
1,EXTREME_WINTER,  36.12, -86.69,  -6.00, 182.90
5,7
1038,0.6666666666666666,0.0, 1,27, 1,10,0.16666666666666666, 1,27, 6,10
1039,0.0,0.0, 1,27, 1,10,0.0, 1,27, 1,10
581,0.29488356588573955,0.1686109273847113, 2, 2,23,30,0.5994038515821716, 1,28,14,55
582,3.809876513549367,0.0, 1,29, 2,50,13.846106388465858, 1,28,14,55
583,4.6758723982529835,0.00025497320470970635, 2, 1,20,40,15.684712674287004, 1,28,14,55
1115,1104632720.8298821,0.0, 1,27, 1, 3,2854977.88431228, 1,30, 6,30
1128,360929184.98580295,0.0, 1,27, 1, 3,860029.9161994967, 1,28, 9,20
1153,3176956.670919826,0.0, 1,27, 1, 3,50777.25511547248, 2, 2, 9,60
1154,62193089.21979834,0.0, 1,27, 6, 2,120000.0, 1,27, 1,49
1156,194627923.48784876,0.0, 1,27, 1, 3,2251533.228392246, 1,31, 6,30
13,1038035416.4440674,191104.27319791284, 1,27,15,60,4156512.2443132102, 1,29, 6,10
61,301924526.0238348,58759.40635443481, 1,27, 1,10,854682.2742463244, 1,27,20,10
134,70666020.44019979,42376.01200569399, 1,27, 4,10,104369.48322671017, 2, 1,20,10
170,5241013.419656074,232.27731661587313, 1,27, 4,10,11650.931360040839, 2, 1,12,10
207,6509451.13922266,543.5021409221355, 1,27, 3,10,15327.095199349082, 2, 1,10,10
244,12749673.39982522,1014.5707620042115, 1,27, 4,10,35359.08742820678, 2, 1,20,10
281,46165882.48149605,39959.06841621388, 1,27, 5,10,54634.54471212738, 1,27,19,10
318,0.0,0.0, 1,27, 1,10,0.0, 1,27, 1,10
355,744003703.1883007,12374.216038804521, 1,27, 4,10,3829218.154066982, 1,31,18,20
403,197687796.27748126,12374.216038804521, 1,27, 4,10,483183.26346918393, 2, 1,18,10
476,106772067.24485692,4732.048419519677, 1,27, 4,10,237357.535085481, 2, 1,12,10
513,0.0,0.0, 1,27, 1,10,0.0, 1,27, 1,10
562,39340139.018686436,0.0, 1,27, 1,10,90086.46989494933, 1,28, 9,20
1046,0.0,0.0, 1,27, 1,10,0.0, 1,27, 1,10
1096,157736.59697743997,0.0, 1,27, 1,10,9052.575934731369, 1,27,14,50
1134,620927154.3643707,0.0, 1,27,11,30,3648866.451407608, 1,29, 6,10
1323,546315906.9108167,0.0, 1,27, 1,10,3375000.0000000005, 1,27, 8,40
1360,5019840.0,4980.0, 1,27, 1,40,4980.000000000001, 1,27, 1,10
1388,0.0,0.0, 1,27, 1,10,0.0, 1,27, 1,10
1,EXTREME_SUMMER,  36.12, -86.69,  -6.00, 182.90
5,7
1038,0.0,0.0, 6, 1, 1,10,0.0, 6, 1, 1,10
1039,53.16666666666667,0.0, 6, 1, 1,10,0.16666666666666666, 6, 1,13,50
581,0.0412838475058334,0.0, 6, 1, 1,10,0.7002949290172322, 6, 5,14,51
582,1.727598324056677,0.0, 6, 6, 7,42,14.449485174421044, 6, 5,14,51
583,1.8925836728651046,0.0, 6, 2, 6, 7,16.63123772876908, 6, 5,14,51
1115,0.0,0.0, 6, 1, 1,10,0.0, 6, 1, 1,10
1128,0.0,0.0, 6, 1, 1,10,0.0, 6, 1, 1,10
1153,0.0,0.0, 6, 1, 1,10,0.0, 6, 1, 1,10
1154,0.0,0.0, 6, 1, 1,10,0.0, 6, 1, 1,10
1156,0.0,0.0, 6, 1, 1,10,0.0, 6, 1, 1,10
13,1012126485.7168264,144520.32685962523, 6, 6, 4,60,1967884.8472468404, 6, 7,20,10
61,301924526.0238348,58759.40635443481, 6, 1, 1,10,854682.2742463244, 6, 1,20,10
134,70666020.44019979,42376.01200569399, 6, 1, 4,10,104369.48322671017, 6, 6,20,10
170,5241013.419656074,232.27731661587313, 6, 1, 4,10,11650.931360040839, 6, 6,12,10
207,6509451.13922266,543.5021409221355, 6, 1, 3,10,15327.095199349082, 6, 6,10,10
244,12749673.39982522,1014.5707620042115, 6, 1, 4,10,35359.08742820678, 6, 6,20,10
281,46165882.48149605,39959.06841621388, 6, 1, 5,10,54634.54471212738, 6, 1,19,10
318,0.0,0.0, 6, 1, 1,10,0.0, 6, 1, 1,10
355,669182197.0590432,12374.216038804521, 6, 1, 4,10,3829218.154066982, 6, 2,18,60
403,197687796.27748126,12374.216038804521, 6, 1, 4,10,483183.26346918393, 6, 6,18,10
476,106772067.24485692,4732.048419519677, 6, 1, 4,10,237357.535085481, 6, 6,12,10
513,0.0,0.0, 6, 1, 1,10,0.0, 6, 1, 1,10
562,59786926.69540555,4213.010813557718, 6, 6, 4,60,90086.46989494933, 6, 1,12,40
1046,0.0,0.0, 6, 1, 1,10,0.0, 6, 1, 1,10
1096,574729172.5573851,33946.11591379241, 6, 6, 4,60,981112.0291553901, 6, 7,16,60
1134,0.0,0.0, 6, 1, 1,10,0.0, 6, 1, 1,10
1323,471494400.7815598,0.0, 6, 1, 1,10,3375000.0000000005, 6, 4,21,40
1360,5019840.0,4979.999999999998, 6, 5,14,30,4980.000000000001, 6, 1, 6,50
1388,0.0,0.0, 6, 1, 1,10,0.0, 6, 1, 1,10
1,ANNUAL,  36.12, -86.69,  -6.00, 182.90
5,365
1038,6.000000000000002,0.0, 1, 1, 1,10,0.16666666666666666, 1, 2, 6,10
1039,875.8333333333326,0.0, 1, 1, 1,10,0.16666666666666666, 1, 5,12,30
581,0.1754600902602743,0.0, 5, 5,20,43,1.0317328930902616, 3,28,18,60
582,2.934021785848081,0.0, 1, 2,20,55,21.221311954620436, 3,28,18,60
583,3.586003167252147,0.0, 6, 2, 6, 7,29.204649901205393, 3,28,18,60
1115,8902105502.718166,0.0, 1, 1, 6, 7,2983393.0757118287, 1,30, 6,30
1128,2720886972.907104,0.0, 1, 1, 6, 7,869176.863079763, 1,30, 6,30
1153,97393281.28268132,0.0, 1, 1, 1, 1,72405.23095115653, 3,14, 6,40
1154,1339166263.6672614,0.0, 1, 1, 1,55,120000.0, 1, 1,23,10
1156,433931490.5437719,0.0, 1, 1, 1, 1,2369223.3359084683, 1,31, 6,30
13,39380444654.13226,106115.4183601288, 1, 5, 4,10,4176150.1476373887, 2, 1, 6,10
61,15743207428.39043,58759.40635443481, 1, 1, 1,10,854682.2742463244, 1, 1,20,10
134,3685071073.433083,42376.01200569399, 1, 2, 4,10,104369.48322671017, 1, 1,20,10
170,273393721.45534325,232.27731661587313, 1, 2, 4,10,11650.931360040839, 1, 1,12,10
207,339560869.06955314,543.5021409221355, 1, 2, 3,10,15327.095199349082, 1, 1,10,10
244,664895467.8009839,1014.5707620042115, 1, 2, 4,10,35359.08742820678, 1, 1,20,10
281,2407221015.1057043,39959.06841621388, 1, 1, 5,10,54634.54471212738, 1, 1,19,10
318,0.0,0.0, 1, 1, 1,10,0.0, 1, 1, 1,10
355,35670042619.97873,12374.216038804521, 1, 2, 4,10,3829218.154066983, 1, 3,18,60
403,10310294493.052883,12374.216038804521, 1, 2, 4,10,483183.26346918393, 1, 1,18,10
476,5569688622.065564,4732.048419519677, 1, 2, 4,10,237357.535085481, 1, 1,12,10
513,0.0,0.0, 1, 1, 1,10,0.0, 1, 1, 1,10
562,1788942063.1527107,0.0, 1, 1,23,10,90086.46989494933, 1,10, 6,30
1046,0.0,0.0, 1, 1, 1,10,0.0, 1, 1, 1,10
1096,13310097280.761934,0.0, 1, 1, 1,10,984997.29936804, 7,22,16,60
1134,4591378008.400805,0.0, 1, 2,14,40,3668504.354731786, 2, 1, 6,10
1323,25359748126.929935,0.0, 1, 1, 1,10,3375000.000000002, 3,13,17,10
1360,261748800.0,4979.999999999998, 3,18, 9,50,4980.000000000002, 1, 1, 9,40
1388,0.0,0.0, 1, 1, 1,10,0.0, 1, 1, 1,10
End of Data
 Number of Records Written=          87
