Program Version,EnergyPlus, Version 22.2.0-c249759bad, YMD=2023.09.01 20:37
1,5,Environment Title[],Latitude[deg],Longitude[deg],Time Zone[],Elevation[m]
2,8,Day of Simulation[],Month[],Day of Month[],DST Indicator[1=yes 0=no],Hour[],StartMinute[],EndMinute[],DayType
3,5,Cumulative Day of Simulation[],Month[],Day of Month[],DST Indicator[1=yes 0=no],DayType  ! When Daily Report Variables Requested
4,2,Cumulative Days of Simulation[],Month[]  ! When Monthly Report Variables Requested
5,1,Cumulative Days of Simulation[] ! When Run Period Report Variables Requested
6,1,Calendar Year of Simulation[] ! When Annual Report Variables Requested
581,11,LIVING,AFN Zone Infiltration Air Change Rate [ach] !RunPeriod [Value,Min,Month,Day,Hour,Minute,Max,Month,Day,Hour,Minute]
582,11,ATTIC,AFN Zone Infiltration Air Change Rate [ach] !RunPeriod [Value,Min,Month,Day,Hour,Minute,Max,Month,Day,Hour,Minute]
583,11,CRAWLSPACE,AFN Zone Infiltration Air Change Rate [ach] !RunPeriod [Value,Min,Month,Day,Hour,Minute,Max,Month,Day,Hour,Minute]
1038,11,Facility,Facility Heating Setpoint Not Met Time [hr] !RunPeriod [Value,Min,Month,Day,Hour,Minute,Max,Month,Day,Hour,Minute]
1039,11,Facility,Facility Cooling Setpoint Not Met Time [hr] !RunPeriod [Value,Min,Month,Day,Hour,Minute,Max,Month,Day,Hour,Minute]
1115,11,DX_HEATING_COIL,Heating Coil Heating Energy [J] !RunPeriod [Value,Min,Month,Day,Hour,Minute,Max,Month,Day,Hour,Minute]
1128,11,DX_HEATING_COIL,Heating Coil Electricity Energy [J] !RunPeriod [Value,Min,Month,Day,Hour,Minute,Max,Month,Day,Hour,Minute]
1153,11,DX_HEATING_COIL,Heating Coil Defrost Electricity Energy [J] !RunPeriod [Value,Min,Month,Day,Hour,Minute,Max,Month,Day,Hour,Minute]
1154,11,DX_HEATING_COIL,Heating Coil Crankcase Heater Electricity Energy [J] !RunPeriod [Value,Min,Month,Day,Hour,Minute,Max,Month,Day,Hour,Minute]
1155,11,HEATING_RESISTANCE_BACKUP,Heating Coil Heating Energy [J] !RunPeriod [Value,Min,Month,Day,Hour,Minute,Max,Month,Day,Hour,Minute]
1156,11,HEATING_RESISTANCE_BACKUP,Heating Coil Electricity Energy [J] !RunPeriod [Value,Min,Month,Day,Hour,Minute,Max,Month,Day,Hour,Minute]
1292,11,WATER HEATER,Water Heater Heat Loss Energy [J] !RunPeriod [Value,Min,Month,Day,Hour,Minute,Max,Month,Day,Hour,Minute]
1306,11,WATER HEATER,Water Heater Heating Energy [J] !RunPeriod [Value,Min,Month,Day,Hour,Minute,Max,Month,Day,Hour,Minute]
1307,11,WATER HEATER,Water Heater Unmet Demand Heat Transfer Energy [J] !RunPeriod [Value,Min,Month,Day,Hour,Minute,Max,Month,Day,Hour,Minute]
1308,11,WATER HEATER,Water Heater Electricity Energy [J] !RunPeriod [Value,Min,Month,Day,Hour,Minute,Max,Month,Day,Hour,Minute]
13,11,Electricity:Facility [J] !RunPeriod [Value,Min,Month,Day,Hour,Minute,Max,Month,Day,Hour,Minute]
1134,11,Heating:Electricity [J] !RunPeriod [Value,Min,Month,Day,Hour,Minute,Max,Month,Day,Hour,Minute]
1096,11,Cooling:Electricity [J] !RunPeriod [Value,Min,Month,Day,Hour,Minute,Max,Month,Day,Hour,Minute]
562,11,Fans:Electricity [J] !RunPeriod [Value,Min,Month,Day,Hour,Minute,Max,Month,Day,Hour,Minute]
1379,11,Pumps:Electricity [J] !RunPeriod [Value,Min,Month,Day,Hour,Minute,Max,Month,Day,Hour,Minute]
1326,11,WaterSystems:Electricity [J] !RunPeriod [Value,Min,Month,Day,Hour,Minute,Max,Month,Day,Hour,Minute]
61,11,InteriorLights:Electricity [J] !RunPeriod [Value,Min,Month,Day,Hour,Minute,Max,Month,Day,Hour,Minute]
1046,11,ExteriorLights:Electricity [J] !RunPeriod [Value,Min,Month,Day,Hour,Minute,Max,Month,Day,Hour,Minute]
134,11,InteriorEquipment:Electricity [J] !RunPeriod [Value,Min,Month,Day,Hour,Minute,Max,Month,Day,Hour,Minute]
170,11,gas_dryer:InteriorEquipment:Electricity [J] !RunPeriod [Value,Min,Month,Day,Hour,Minute,Max,Month,Day,Hour,Minute]
207,11,clotheswasher:InteriorEquipment:Electricity [J] !RunPeriod [Value,Min,Month,Day,Hour,Minute,Max,Month,Day,Hour,Minute]
244,11,dishwasher:InteriorEquipment:Electricity [J] !RunPeriod [Value,Min,Month,Day,Hour,Minute,Max,Month,Day,Hour,Minute]
281,11,refrigerator:InteriorEquipment:Electricity [J] !RunPeriod [Value,Min,Month,Day,Hour,Minute,Max,Month,Day,Hour,Minute]
318,11,electric_mels:InteriorEquipment:Electricity [J] !RunPeriod [Value,Min,Month,Day,Hour,Minute,Max,Month,Day,Hour,Minute]
355,11,NaturalGas:Facility [J] !RunPeriod [Value,Min,Month,Day,Hour,Minute,Max,Month,Day,Hour,Minute]
403,11,InteriorEquipment:NaturalGas [J] !RunPeriod [Value,Min,Month,Day,Hour,Minute,Max,Month,Day,Hour,Minute]
476,11,gas_dryer:InteriorEquipment:NaturalGas [J] !RunPeriod [Value,Min,Month,Day,Hour,Minute,Max,Month,Day,Hour,Minute]
513,11,gas_mels:InteriorEquipment:NaturalGas [J] !RunPeriod [Value,Min,Month,Day,Hour,Minute,Max,Month,Day,Hour,Minute]
End of Data Dictionary
1,EXTREME_WINTER,  44.25,-121.15,  -8.00, 936.00
5,15
1038,1.0,0.0,12,22, 1,15,0.25,12,27, 6,15
1039,0.0,0.0,12,22, 1,15,0.0,12,22, 1,15
581,0.3331600746271285,0.17872310573891922, 1, 4,15,60,0.7926986796236686,12,27,12,60
582,2.6380286279619303,0.0,12,23,21,60,19.441655218235567,12,27, 6,60
583,0.04645716720261671,0.0003456283412954136,12,28,14,60,0.09105793530715839,12,23, 6, 5
1115,3292396896.911929,0.0,12,22,11,48,4471424.244110921,12,27, 6,60
1128,1102953033.0338182,0.0,12,22,11,48,1415864.7800073102,12,29, 9,15
1153,47110669.98739588,0.0,12,22,11,48,104683.66438952141,12,24, 6,60
1154,119004722.93088664,0.0,12,22, 6, 5,180000.0,12,22,14,15
1155,430877855.36594605,0.0,12,22, 1,15,4354036.057893218, 1, 1, 6,60
1156,430877855.36594605,0.0,12,22, 1,15,4354036.057893218, 1, 1, 6,60
1292,-54334573.46991143,-39751.537705263305, 1, 2, 5,30,-5398.933929156113, 1, 1,11,45
1306,492115483.6687392,0.0,12,22, 1,15,4050000.0,12,23,20,30
1307,84123502.79998581,0.0,12,22, 1,15,12104099.338797864, 1, 4,19,60
1308,492115483.6687392,0.0,12,22, 1,15,4050000.0,12,23,20,30
13,3112060281.8831644,452017.0388981225,12,22,15,15,10279878.393881282, 1, 1, 7,60
61,646981127.1939323,88139.10953165221,12,22, 1,15,1282023.4113694867,12,22,20,15
134,151290040.75163814,63564.01800854099,12,22, 4,15,156554.22484006523,12,27,20,15
170,11185820.069951689,348.4159749238097,12,22, 4,15,17476.39704006126,12,27,12,15
207,13893028.5742839,815.2532113832032,12,22, 3,15,22990.642799023623,12,27,10,15
244,27284301.07562584,1521.856143006317,12,22, 4,15,53038.631142310165,12,27,20,15
281,98926891.03177746,59938.60262432081,12,22, 5,15,81951.81706819107,12,22,19,15
318,0.0,0.0,12,22, 1,15,0.0,12,22, 1,15
355,422701517.16107386,18561.32405820678,12,22, 4,15,724774.895203776,12,27,18,15
403,422701517.16107386,18561.32405820678,12,22, 4,15,724774.895203776,12,27,18,15
476,227882097.80545202,7098.072629279515,12,22, 4,15,356036.3026282215,12,27,12,15
513,0.0,0.0,12,22, 1,15,0.0,12,22, 1,15
562,121727348.95080507,0.0,12,22,11,60,157065.71826075565,12,22, 6,30
1046,0.0,0.0,12,22, 1,15,0.0,12,22, 1,15
1096,0.0,0.0,12,22, 1,15,0.0,12,22, 1,15
1134,1699946281.318046,180000.0,12,22,11,60,5910732.49264653, 1, 1, 6,15
1326,492115483.668739,0.0,12,22, 1,15,4050000.0,12,22, 7,60
1379,0.0,0.0,12,22, 1,15,0.0,12,22, 1,15
1,EXTREME_SUMMER,  44.25,-121.15,  -8.00, 936.00
5,7
1038,0.0,0.0, 7,20, 1,15,0.0, 7,20, 1,15
1039,11.0,0.0, 7,20, 1,15,0.25, 7,21,16,15
581,0.1696953400998009,0.0, 7,22, 6, 7,0.5963047183338148, 7,24,18,51
582,2.88716240625515,0.0, 7,20, 4,50,9.768225984705843, 7,24,18,48
583,0.03657240506576679,0.000025068538683182436, 7,22, 6,11,0.08596676662275081, 7,24,18,48
1115,0.0,0.0, 7,20, 1, 5,0.0, 7,20, 1, 5
1128,0.0,0.0, 7,20, 1, 5,0.0, 7,20, 1, 5
1153,0.0,0.0, 7,20, 1, 5,0.0, 7,20, 1, 5
1154,1260000.0,0.0, 7,20, 1, 5,180000.0, 7,20, 5,45
1155,0.0,0.0, 7,20, 1, 5,0.0, 7,20, 1, 5
1156,0.0,0.0, 7,20, 1, 5,0.0, 7,20, 1, 5
1292,-22153642.285358574,-34300.58530540165, 7,22,17,15,-2678.376440284297, 7,25, 9, 2
1306,191489771.29098082,0.0, 7,20, 1, 5,3165358.078090887, 7,22, 6,45
1307,24019014.158538625,0.0, 7,20, 1, 5,1602317.7701290054, 7,26,19,50
1308,191489771.29098082,0.0, 7,20, 1, 5,3165358.078090887, 7,22, 6,45
13,1091833466.0451229,151703.1275401932, 7,20, 4,15,7139180.964041652, 7,26,20,15
61,301924526.02383536,88139.10953165221, 7,20, 1,15,1282023.4113694867, 7,20,20,15
134,70666020.44019976,63564.01800854099, 7,20, 4,15,156554.22484006523, 7,25,20,15
170,5241013.419656067,348.4159749238097, 7,20, 4,15,17476.39704006126, 7,25,12,15
207,6509451.13922267,815.2532113832032, 7,20, 3,15,22990.642799023623, 7,25,10,15
244,12749673.399825225,1521.856143006317, 7,20, 4,15,53038.631142310165, 7,25,20,15
281,46165882.481495745,59938.60262432081, 7,20, 5,15,81951.81706819107, 7,20,19,15
318,0.0,0.0, 7,20, 1,15,0.0, 7,20, 1,15
355,197687796.27748066,18561.32405820678, 7,20, 4,15,724774.895203776, 7,25,18,15
403,197687796.27748066,18561.32405820678, 7,20, 4,15,724774.895203776, 7,25,18,15
476,106772067.24485716,7098.072629279515, 7,20, 4,15,356036.3026282215, 7,25,12,15
513,0.0,0.0, 7,20, 1,15,0.0, 7,20, 1,15
562,48427650.71730575,0.0, 7,20, 2,15,157065.71826075565, 7,21,15,45
1046,0.0,0.0, 7,20, 1,15,0.0, 7,20, 1,15
1096,478065497.57280195,0.0, 7,20, 2,15,1839479.4671553345, 7,23,14,60
1134,1260000.0,0.0, 7,20, 1,15,180000.0, 7,20, 4,45
1326,191489771.2909808,0.0, 7,20, 1,15,4050000.0, 7,21,20,30
1379,0.0,0.0, 7,20, 1,15,0.0, 7,20, 1,15
1,ANNUAL,  44.25,-121.15,  -8.00, 936.00
5,365
1038,4.75,0.0, 1, 1, 1,15,0.25, 1, 1, 6,15
1039,69.25,0.0, 1, 1, 1,15,0.25, 4,10,17,45
581,0.25371598439799226,0.0, 7,22, 6, 7,1.049931456344606, 4,15,11,60
582,3.0653652686931276,0.0, 1, 1, 9,20,29.125148387253116, 1,19,20,52
583,0.02460746565021452,0.000040139901648189647, 7,22, 6,11,0.09262922290865976, 3,17, 5,60
1115,24854222941.206562,0.0, 1, 1,15,37,5089535.119744003, 3,17, 5,60
1128,7981980029.471351,0.0, 1, 1,15,37,1520369.2487350642,12,19, 8,45
1153,367160314.0241049,0.0, 1, 1,15,37,130681.69188357171, 3, 6, 6,45
1154,2529470830.4664636,0.0, 1, 1, 1,30,180000.0, 1, 8,14,30
1155,1542948172.8624878,0.0, 1, 1, 1,15,4261703.759939864, 1, 1, 6,60
1156,1542948172.8624878,0.0, 1, 1, 1,15,4261703.759939864, 1, 1, 6,60
1292,-1241722569.3393824,-39804.056964808064, 3,17, 5,30,-2127.6262495818078, 4,30, 9,46
1306,11210364410.549492,0.0, 1, 1, 1,15,4050000.0, 1, 1,20,15
1307,1729933302.0890396,0.0, 1, 1, 1,15,12469354.384287536, 1,29,19,60
1308,11210364410.549492,0.0, 1, 1, 1,15,4050000.0, 1, 1,20,15
13,50447002691.33911,151703.1275401932, 5,11, 4,15,9790405.379360745,12,18, 7,60
61,15743207428.383959,88139.10953165221, 1, 1, 1,15,1282023.4113694867, 1, 1,20,15
134,3685071073.4325233,63564.01800854099, 1, 2, 4,15,156554.22484006523, 1, 1,20,15
170,273393721.45532674,348.4159749238097, 1, 2, 4,15,17476.39704006126, 1, 1,12,15
207,339560869.0695816,815.2532113832032, 1, 2, 3,15,22990.642799023623, 1, 1,10,15
244,664895467.8009144,1521.856143006317, 1, 2, 4,15,53038.631142310165, 1, 1,20,15
281,2407221015.106824,59938.60262432081, 1, 1, 5,15,81951.81706819107, 1, 1,19,15
318,0.0,0.0, 1, 1, 1,15,0.0, 1, 1, 1,15
355,10310294493.051695,18561.32405820678, 1, 2, 4,15,724774.895203776, 1, 1,18,15
403,10310294493.051695,18561.32405820678, 1, 2, 4,15,724774.895203776, 1, 1,18,15
476,5569688622.066177,7098.072629279515, 1, 2, 4,15,356036.3026282215, 1, 1,12,15
513,0.0,0.0, 1, 1, 1,15,0.0, 1, 1, 1,15
562,1557527297.3106031,0.0, 1, 1,15,45,157065.71826075565, 1, 1, 1,30
1046,0.0,0.0, 1, 1, 1,15,0.0, 1, 1, 1,15
1096,5829273134.836103,0.0, 1, 1, 1,15,1837576.1711435288, 7,23,14,60
1134,12421559346.824356,0.0, 1,22,11,60,5916783.884493837, 1, 1, 6,15
1326,11210364410.549507,0.0, 1, 1, 1,15,4050000.0000000014, 4,29, 9,45
1379,0.0,0.0, 1, 1, 1,15,0.0, 1, 1, 1,15
End of Data
 Number of Records Written=          99
