Program Version,EnergyPlus, Version 22.2.0-c249759bad, YMD=2023.09.01 14:24
1,5,Environment Title[],Latitude[deg],Longitude[deg],Time Zone[],Elevation[m]
2,8,Day of Simulation[],Month[],Day of Month[],DST Indicator[1=yes 0=no],Hour[],StartMinute[],EndMinute[],DayType
3,5,Cumulative Day of Simulation[],Month[],Day of Month[],DST Indicator[1=yes 0=no],DayType  ! When Daily Report Variables Requested
4,2,Cumulative Days of Simulation[],Month[]  ! When Monthly Report Variables Requested
5,1,Cumulative Days of Simulation[] ! When Run Period Report Variables Requested
6,1,Calendar Year of Simulation[] ! When Annual Report Variables Requested
618,11,DX_HEATING_COIL,Heating Coil Heating Energy [J] !RunPeriod [Value,Min,Month,Day,Hour,Minute,Max,Month,Day,Hour,Minute]
631,11,DX_HEATING_COIL,Heating Coil Electricity Energy [J] !RunPeriod [Value,Min,Month,Day,Hour,Minute,Max,Month,Day,Hour,Minute]
656,11,DX_HEATING_COIL,Heating Coil Defrost Electricity Energy [J] !RunPeriod [Value,Min,Month,Day,Hour,Minute,Max,Month,Day,Hour,Minute]
657,11,DX_HEATING_COIL,Heating Coil Crankcase Heater Electricity Energy [J] !RunPeriod [Value,Min,Month,Day,Hour,Minute,Max,Month,Day,Hour,Minute]
684,11,HEAT PUMP WATER HEATER EVAPORATOR,Cooling Coil Total Water Heating Energy [J] !RunPeriod [Value,Min,Month,Day,Hour,Minute,Max,Month,Day,Hour,Minute]
685,11,HEAT PUMP WATER HEATER EVAPORATOR,Cooling Coil Water Heating Electricity Energy [J] !RunPeriod [Value,Min,Month,Day,Hour,Minute,Max,Month,Day,Hour,Minute]
712,11,LIVING,AFN Zone Infiltration Air Change Rate [ach] !RunPeriod [Value,Min,Month,Day,Hour,Minute,Max,Month,Day,Hour,Minute]
713,11,ATTIC,AFN Zone Infiltration Air Change Rate [ach] !RunPeriod [Value,Min,Month,Day,Hour,Minute,Max,Month,Day,Hour,Minute]
714,11,CRAWLSPACE,AFN Zone Infiltration Air Change Rate [ach] !RunPeriod [Value,Min,Month,Day,Hour,Minute,Max,Month,Day,Hour,Minute]
1157,11,Facility,Facility Heating Setpoint Not Met Time [hr] !RunPeriod [Value,Min,Month,Day,Hour,Minute,Max,Month,Day,Hour,Minute]
1158,11,Facility,Facility Cooling Setpoint Not Met Time [hr] !RunPeriod [Value,Min,Month,Day,Hour,Minute,Max,Month,Day,Hour,Minute]
1184,11,HEATING_RESISTANCE_BACKUP,Heating Coil Heating Energy [J] !RunPeriod [Value,Min,Month,Day,Hour,Minute,Max,Month,Day,Hour,Minute]
1185,11,HEATING_RESISTANCE_BACKUP,Heating Coil Electricity Energy [J] !RunPeriod [Value,Min,Month,Day,Hour,Minute,Max,Month,Day,Hour,Minute]
1321,11,WATER HEATER TANK,Water Heater Heat Loss Energy [J] !RunPeriod [Value,Min,Month,Day,Hour,Minute,Max,Month,Day,Hour,Minute]
1335,11,WATER HEATER TANK,Water Heater Heating Energy [J] !RunPeriod [Value,Min,Month,Day,Hour,Minute,Max,Month,Day,Hour,Minute]
1336,11,WATER HEATER TANK,Water Heater Unmet Demand Heat Transfer Energy [J] !RunPeriod [Value,Min,Month,Day,Hour,Minute,Max,Month,Day,Hour,Minute]
1337,11,WATER HEATER TANK,Water Heater Electricity Energy [J] !RunPeriod [Value,Min,Month,Day,Hour,Minute,Max,Month,Day,Hour,Minute]
13,11,Electricity:Facility [J] !RunPeriod [Value,Min,Month,Day,Hour,Minute,Max,Month,Day,Hour,Minute]
637,11,Heating:Electricity [J] !RunPeriod [Value,Min,Month,Day,Hour,Minute,Max,Month,Day,Hour,Minute]
599,11,Cooling:Electricity [J] !RunPeriod [Value,Min,Month,Day,Hour,Minute,Max,Month,Day,Hour,Minute]
692,11,Fans:Electricity [J] !RunPeriod [Value,Min,Month,Day,Hour,Minute,Max,Month,Day,Hour,Minute]
1374,11,Pumps:Electricity [J] !RunPeriod [Value,Min,Month,Day,Hour,Minute,Max,Month,Day,Hour,Minute]
677,11,WaterSystems:Electricity [J] !RunPeriod [Value,Min,Month,Day,Hour,Minute,Max,Month,Day,Hour,Minute]
61,11,InteriorLights:Electricity [J] !RunPeriod [Value,Min,Month,Day,Hour,Minute,Max,Month,Day,Hour,Minute]
1165,11,ExteriorLights:Electricity [J] !RunPeriod [Value,Min,Month,Day,Hour,Minute,Max,Month,Day,Hour,Minute]
134,11,InteriorEquipment:Electricity [J] !RunPeriod [Value,Min,Month,Day,Hour,Minute,Max,Month,Day,Hour,Minute]
170,11,gas_dryer:InteriorEquipment:Electricity [J] !RunPeriod [Value,Min,Month,Day,Hour,Minute,Max,Month,Day,Hour,Minute]
207,11,clotheswasher:InteriorEquipment:Electricity [J] !RunPeriod [Value,Min,Month,Day,Hour,Minute,Max,Month,Day,Hour,Minute]
244,11,dishwasher:InteriorEquipment:Electricity [J] !RunPeriod [Value,Min,Month,Day,Hour,Minute,Max,Month,Day,Hour,Minute]
281,11,refrigerator:InteriorEquipment:Electricity [J] !RunPeriod [Value,Min,Month,Day,Hour,Minute,Max,Month,Day,Hour,Minute]
318,11,electric_mels:InteriorEquipment:Electricity [J] !RunPeriod [Value,Min,Month,Day,Hour,Minute,Max,Month,Day,Hour,Minute]
355,11,NaturalGas:Facility [J] !RunPeriod [Value,Min,Month,Day,Hour,Minute,Max,Month,Day,Hour,Minute]
403,11,InteriorEquipment:NaturalGas [J] !RunPeriod [Value,Min,Month,Day,Hour,Minute,Max,Month,Day,Hour,Minute]
476,11,gas_dryer:InteriorEquipment:NaturalGas [J] !RunPeriod [Value,Min,Month,Day,Hour,Minute,Max,Month,Day,Hour,Minute]
513,11,gas_mels:InteriorEquipment:NaturalGas [J] !RunPeriod [Value,Min,Month,Day,Hour,Minute,Max,Month,Day,Hour,Minute]
End of Data Dictionary
1,EXTREME_WINTER,  37.43,-105.87,  -7.00,2299.00
5,7
1157,7.75,0.0, 1,27, 1,15,0.25, 1,27, 6,15
1158,0.0,0.0, 1,27, 1,15,0.0, 1,27, 1,15
618,1668655817.2274003,0.0, 1,27,15,22,4101706.2503561294, 2, 1,19,15
631,682353260.2810202,0.0, 1,27,15,22,1453477.4160346217, 2, 1,14,30
656,9054782.507860936,0.0, 1,27,15,22,66561.39727675801, 1,31,22,15
657,28183859.209314942,0.0, 1,27, 1,15,180000.0, 1,29,15,15
684,275043349.1326653,0.0, 1,27, 1,15,1310495.526359563, 1,29,20,60
685,66162478.668121316,0.0, 1,27, 1,15,308966.88506184745, 2, 1, 7,15
712,0.41302050545017044,0.20828685953456774, 1,30,18,60,0.6148025875107318, 1,31,15,52
713,2.239169391918154,0.0, 1,30, 9, 3,10.071973480127589, 1,31,15,52
714,0.06627527498919797,0.0004174510879155885, 1,27,15,60,0.09236277928826643, 1,27, 3,60
1184,1389616331.2881546,0.0, 1,27,11,17,6711598.294644052, 1,27, 8,15
1185,1389616331.2881546,0.0, 1,27,11,17,6711598.294644052, 1,27, 8,15
1321,-43763038.16393741,-80940.65631465103, 2, 1,15,30,-4452.888376910809, 2, 2,11,16
1335,0.0,0.0, 1,27, 1,15,0.0, 1,27, 1,15
1336,68077221.06453592,2949.941679488055, 1,28,10,46,1796548.7713002528, 1,27, 7,15
1337,0.0,0.0, 1,27, 1,15,0.0, 1,27, 1,15
13,2652400168.8949056,459667.0388981225, 1,27,15,45,9180313.436365465, 1,28, 7,45
61,301924526.02383536,88139.10953165221, 1,27, 1,15,1282023.4113694867, 1,27,20,15
134,70666020.44019976,63564.01800854099, 1,27, 4,15,156554.22484006523, 2, 1,20,15
170,5241013.419656067,348.4159749238097, 1,27, 4,15,17476.39704006126, 2, 1,12,15
207,6509451.13922267,815.2532113832032, 1,27, 3,15,22990.642799023623, 2, 1,10,15
244,12749673.399825225,1521.856143006317, 1,27, 4,15,53038.631142310165, 2, 1,20,15
281,46165882.481495745,59938.60262432081, 1,27, 5,15,81951.81706819107, 1,27,19,15
318,0.0,0.0, 1,27, 1,15,0.0, 1,27, 1,15
355,197687796.27748066,18561.32405820678, 1,27, 4,15,724774.895203776, 2, 1,18,15
403,197687796.27748066,18561.32405820678, 1,27, 4,15,724774.895203776, 2, 1,18,15
476,106772067.24485716,7098.072629279515, 1,27, 4,15,356036.3026282215, 2, 1,12,15
513,0.0,0.0, 1,27, 1,15,0.0, 1,27, 1,15
599,0.0,0.0, 1,27, 1,15,0.0, 1,27, 1,15
637,2109208233.2863505,179999.99999999997, 1,27,17,30,7961758.762397806, 1,28, 8,30
677,71303278.66812135,7650.0, 1,27, 1,15,327660.00948365807, 2, 1,14,15
692,99298110.47639893,0.0, 1,27,15,45,234175.33140657493, 1,27, 7,45
1165,0.0,0.0, 1,27, 1,15,0.0, 1,27, 1,15
1374,0.0,0.0, 1,27, 1,15,0.0, 1,27, 1,15
1,EXTREME_SUMMER,  37.43,-105.87,  -7.00,2299.00
5,7
1157,0.0,0.0, 7,27, 1,15,0.0, 7,27, 1,15
1158,0.0,0.0, 7,27, 1,15,0.0, 7,27, 1,15
618,0.0,0.0, 7,27, 1,15,0.0, 7,27, 1,15
631,0.0,0.0, 7,27, 1,15,0.0, 7,27, 1,15
656,0.0,0.0, 7,27, 1,15,0.0, 7,27, 1,15
657,6480000.0,0.0, 7,27, 1,15,180000.0, 7,27, 6,45
684,225348794.30765218,0.0, 7,27, 1,15,1550871.5965236882, 7,28,20,15
685,47023524.16228539,0.0, 7,27, 1,15,336293.03647881764, 7,29,22,15
712,0.1831615894092334,0.03060550669343592, 8, 1, 6,60,0.5802125268687338, 7,27,21,52
713,2.831750090829343,0.0, 7,27, 2,22,22.34294423596513, 8, 2,14,46
714,0.021464495523524137,0.00007655703134703949, 7,27, 3,60,0.06598934073543135, 8, 1,18,21
1184,0.0,0.0, 7,27, 1,15,0.0, 7,27, 1,15
1185,0.0,0.0, 7,27, 1,15,0.0, 7,27, 1,15
1321,-34411830.58361773,-62348.36556297494, 7,27, 1,45,-2435.886512111349, 8, 2,19,60
1335,0.0,0.0, 7,27, 1,15,0.0, 7,27, 1,15
1336,53908894.08077856,2068.3806391620305, 7,27, 8,31,941881.8734977996, 7,31, 6,52
1337,0.0,0.0, 7,27, 1,15,0.0, 7,27, 1,15
13,713050093.2361658,159353.1275401932, 7,27, 4,15,2744021.032146333, 8, 1,19,15
61,301924526.02383536,88139.10953165221, 7,27, 1,15,1282023.4113694867, 7,27,20,15
134,70666020.44019976,63564.01800854099, 7,27, 4,15,156554.22484006523, 8, 1,20,15
170,5241013.419656067,348.4159749238097, 7,27, 4,15,17476.39704006126, 8, 1,12,15
207,6509451.13922267,815.2532113832032, 7,27, 3,15,22990.642799023623, 8, 1,10,15
244,12749673.399825225,1521.856143006317, 7,27, 4,15,53038.631142310165, 8, 1,20,15
281,46165882.481495745,59938.60262432081, 7,27, 5,15,81951.81706819107, 7,27,19,15
318,0.0,0.0, 7,27, 1,15,0.0, 7,27, 1,15
355,197687796.27748066,18561.32405820678, 7,27, 4,15,724774.895203776, 8, 1,18,15
403,197687796.27748066,18561.32405820678, 7,27, 4,15,724774.895203776, 8, 1,18,15
476,106772067.24485716,7098.072629279515, 7,27, 4,15,356036.3026282215, 8, 1,12,15
513,0.0,0.0, 7,27, 1,15,0.0, 7,27, 1,15
599,241776917.71852455,0.0, 7,27, 1,15,1300608.7979811854, 8, 1,18,30
637,6480000.0,0.0, 7,27, 1,15,180000.0, 7,27, 5,60
677,52164324.16228538,7650.0, 7,27, 1,15,367670.16834056564, 8, 2,23,15
692,40038304.89132016,0.0, 7,27, 1,15,182107.3986685234, 8, 1,19,15
1165,0.0,0.0, 7,27, 1,15,0.0, 7,27, 1,15
1374,0.0,0.0, 7,27, 1,15,0.0, 7,27, 1,15
1,ANNUAL,  37.43,-105.87,  -7.00,2299.00
