Program Version,EnergyPlus, Version 22.2.0-c249759bad, YMD=2023.09.01 20:43
1,5,Environment Title[],Latitude[deg],Longitude[deg],Time Zone[],Elevation[m]
2,8,Day of Simulation[],Month[],Day of Month[],DST Indicator[1=yes 0=no],Hour[],StartMinute[],EndMinute[],DayType
3,5,Cumulative Day of Simulation[],Month[],Day of Month[],DST Indicator[1=yes 0=no],DayType  ! When Daily Report Variables Requested
4,2,Cumulative Days of Simulation[],Month[]  ! When Monthly Report Variables Requested
5,1,Cumulative Days of Simulation[] ! When Run Period Report Variables Requested
6,1,Calendar Year of Simulation[] ! When Annual Report Variables Requested
581,11,LIVING,AFN Zone Infiltration Air Change Rate [ach] !RunPeriod [Value,Min,Month,Day,Hour,Minute,Max,Month,Day,Hour,Minute]
582,11,ATTIC,AFN Zone Infiltration Air Change Rate [ach] !RunPeriod [Value,Min,Month,Day,Hour,Minute,Max,Month,Day,Hour,Minute]
583,11,CRAWLSPACE,AFN Zone Infiltration Air Change Rate [ach] !RunPeriod [Value,Min,Month,Day,Hour,Minute,Max,Month,Day,Hour,Minute]
1038,11,Facility,Facility Heating Setpoint Not Met Time [hr] !RunPeriod [Value,Min,Month,Day,Hour,Minute,Max,Month,Day,Hour,Minute]
1039,11,Facility,Facility Cooling Setpoint Not Met Time [hr] !RunPeriod [Value,Min,Month,Day,Hour,Minute,Max,Month,Day,Hour,Minute]
1115,11,DX_HEATING_COIL,Heating Coil Heating Energy [J] !RunPeriod [Value,Min,Month,Day,Hour,Minute,Max,Month,Day,Hour,Minute]
1128,11,DX_HEATING_COIL,Heating Coil Electricity Energy [J] !RunPeriod [Value,Min,Month,Day,Hour,Minute,Max,Month,Day,Hour,Minute]
1153,11,DX_HEATING_COIL,Heating Coil Defrost Electricity Energy [J] !RunPeriod [Value,Min,Month,Day,Hour,Minute,Max,Month,Day,Hour,Minute]
1154,11,DX_HEATING_COIL,Heating Coil Crankcase Heater Electricity Energy [J] !RunPeriod [Value,Min,Month,Day,Hour,Minute,Max,Month,Day,Hour,Minute]
1155,11,HEATING_RESISTANCE_BACKUP,Heating Coil Heating Energy [J] !RunPeriod [Value,Min,Month,Day,Hour,Minute,Max,Month,Day,Hour,Minute]
1156,11,HEATING_RESISTANCE_BACKUP,Heating Coil Electricity Energy [J] !RunPeriod [Value,Min,Month,Day,Hour,Minute,Max,Month,Day,Hour,Minute]
1292,11,WATER HEATER,Water Heater Heat Loss Energy [J] !RunPeriod [Value,Min,Month,Day,Hour,Minute,Max,Month,Day,Hour,Minute]
1306,11,WATER HEATER,Water Heater Heating Energy [J] !RunPeriod [Value,Min,Month,Day,Hour,Minute,Max,Month,Day,Hour,Minute]
1307,11,WATER HEATER,Water Heater Unmet Demand Heat Transfer Energy [J] !RunPeriod [Value,Min,Month,Day,Hour,Minute,Max,Month,Day,Hour,Minute]
1308,11,WATER HEATER,Water Heater Electricity Energy [J] !RunPeriod [Value,Min,Month,Day,Hour,Minute,Max,Month,Day,Hour,Minute]
13,11,Electricity:Facility [J] !RunPeriod [Value,Min,Month,Day,Hour,Minute,Max,Month,Day,Hour,Minute]
1134,11,Heating:Electricity [J] !RunPeriod [Value,Min,Month,Day,Hour,Minute,Max,Month,Day,Hour,Minute]
1096,11,Cooling:Electricity [J] !RunPeriod [Value,Min,Month,Day,Hour,Minute,Max,Month,Day,Hour,Minute]
562,11,Fans:Electricity [J] !RunPeriod [Value,Min,Month,Day,Hour,Minute,Max,Month,Day,Hour,Minute]
1379,11,Pumps:Electricity [J] !RunPeriod [Value,Min,Month,Day,Hour,Minute,Max,Month,Day,Hour,Minute]
1326,11,WaterSystems:Electricity [J] !RunPeriod [Value,Min,Month,Day,Hour,Minute,Max,Month,Day,Hour,Minute]
61,11,InteriorLights:Electricity [J] !RunPeriod [Value,Min,Month,Day,Hour,Minute,Max,Month,Day,Hour,Minute]
1046,11,ExteriorLights:Electricity [J] !RunPeriod [Value,Min,Month,Day,Hour,Minute,Max,Month,Day,Hour,Minute]
134,11,InteriorEquipment:Electricity [J] !RunPeriod [Value,Min,Month,Day,Hour,Minute,Max,Month,Day,Hour,Minute]
170,11,gas_dryer:InteriorEquipment:Electricity [J] !RunPeriod [Value,Min,Month,Day,Hour,Minute,Max,Month,Day,Hour,Minute]
207,11,clotheswasher:InteriorEquipment:Electricity [J] !RunPeriod [Value,Min,Month,Day,Hour,Minute,Max,Month,Day,Hour,Minute]
244,11,dishwasher:InteriorEquipment:Electricity [J] !RunPeriod [Value,Min,Month,Day,Hour,Minute,Max,Month,Day,Hour,Minute]
281,11,refrigerator:InteriorEquipment:Electricity [J] !RunPeriod [Value,Min,Month,Day,Hour,Minute,Max,Month,Day,Hour,Minute]
318,11,electric_mels:InteriorEquipment:Electricity [J] !RunPeriod [Value,Min,Month,Day,Hour,Minute,Max,Month,Day,Hour,Minute]
355,11,NaturalGas:Facility [J] !RunPeriod [Value,Min,Month,Day,Hour,Minute,Max,Month,Day,Hour,Minute]
403,11,InteriorEquipment:NaturalGas [J] !RunPeriod [Value,Min,Month,Day,Hour,Minute,Max,Month,Day,Hour,Minute]
476,11,gas_dryer:InteriorEquipment:NaturalGas [J] !RunPeriod [Value,Min,Month,Day,Hour,Minute,Max,Month,Day,Hour,Minute]
513,11,gas_mels:InteriorEquipment:NaturalGas [J] !RunPeriod [Value,Min,Month,Day,Hour,Minute,Max,Month,Day,Hour,Minute]
End of Data Dictionary
1,EXTREME_WINTER,  42.41, -83.01,  -5.00, 190.80
5,7
1038,1.5,0.0,12,15, 1,15,0.25,12,15, 6,15
1039,0.0,0.0,12,15, 1,15,0.0,12,15, 1,15
581,0.4573044929176162,0.2908532984445615,12,19,23, 3,0.7632374951006502,12,15,10,52
582,5.754069192396299,0.1115415051635614,12,18, 7,60,16.733227184296446,12,21,15,52
583,0.0691677345720033,0.000863021073390048,12,19,23, 3,0.08261005781817893,12,15,10,52
1115,2089860677.8731668,0.0,12,15,23, 5,3949947.183280596,12,21,12,60
1128,751498323.4332556,0.0,12,15,23, 5,1285800.927284376,12,21,12,15
1153,12479862.157209225,0.0,12,15,23, 5,72198.97451389364,12,18, 6,60
1154,10031692.971573034,0.0,12,15, 1,15,165129.3973591066,12,19,15,15
1155,1077884228.4402313,0.0,12,15,23, 5,5493787.906704476,12,16, 6,45
1156,1077884228.4402313,0.0,12,15,23, 5,5493787.906704476,12,16, 6,45
1292,-25293945.260635197,-39771.515800907466,12,15, 1,15,-9101.876354211618,12,19,18,37
1306,262004776.60319805,0.0,12,15, 1,15,4050000.0,12,15, 8,45
1307,86180021.48421434,0.0,12,15, 1,15,13744855.036341507,12,15, 8,30
1308,262004776.60319805,0.0,12,15, 1,15,4050000.0,12,15, 8,45
13,2570352780.9006877,522569.74117737415,12,19,15,60,10996543.547818467,12,16, 7,15
61,301924526.02383536,88139.10953165221,12,15, 1,15,1282023.4113694867,12,15,20,15
134,70666020.44019976,63564.01800854099,12,15, 4,15,156554.22484006523,12,20,20,15
170,5241013.419656067,348.4159749238097,12,15, 4,15,17476.39704006126,12,20,12,15
207,6509451.13922267,815.2532113832032,12,15, 3,15,22990.642799023623,12,20,10,15
244,12749673.399825225,1521.856143006317,12,15, 4,15,53038.631142310165,12,20,20,15
281,46165882.481495745,59938.60262432081,12,15, 5,15,81951.81706819107,12,15,19,15
318,0.0,0.0,12,15, 1,15,0.0,12,15, 1,15
355,197687796.27748066,18561.32405820678,12,15, 4,15,724774.895203776,12,20,18,15
403,197687796.27748066,18561.32405820678,12,15, 4,15,724774.895203776,12,20,18,15
476,106772067.24485716,7098.072629279515,12,15, 4,15,356036.3026282215,12,20,12,15
513,0.0,0.0,12,15, 1,15,0.0,12,15, 1,15
562,83863350.83118485,4090.949957079525,12,19,16,30,136188.09275799783,12,15, 1,15
1046,0.0,0.0,12,15, 1,15,0.0,12,15, 1,15
1096,0.0,0.0,12,15, 1,15,0.0,12,15, 1,15
1134,1851894107.0022702,213150.9845031216,12,19,16,30,6861196.9893304,12,16, 6,30
1326,262004776.60319808,0.0,12,15, 1,15,4050000.0,12,15, 8,45
1379,0.0,0.0,12,15, 1,15,0.0,12,15, 1,15
1,EXTREME_SUMMER,  42.41, -83.01,  -5.00, 190.80
5,7
1038,0.0,0.0, 7,27, 1,15,0.0, 7,27, 1,15
1039,13.75,0.0, 7,27, 1,15,0.25, 7,27,18,30
581,0.12726633709660456,0.0, 7,30, 6,30,0.4199762731872117, 8, 1,11,60
582,3.651991931907022,0.0, 8, 1,20,60,12.614353543369711, 7,27,15,52
583,0.036148629322273994,0.0, 8, 1,23, 3,0.0707313567080905, 8, 1,11,60
1115,0.0,0.0, 7,27, 1,15,0.0, 7,27, 1,15
1128,0.0,0.0, 7,27, 1,15,0.0, 7,27, 1,15
1153,0.0,0.0, 7,27, 1,15,0.0, 7,27, 1,15
1154,0.0,0.0, 7,27, 1,15,0.0, 7,27, 1,15
1155,0.0,0.0, 7,27, 1,15,0.0, 7,27, 1,15
1156,0.0,0.0, 7,27, 1,15,0.0, 7,27, 1,15
1292,-22019744.663060673,-34345.022863101614, 8, 2,11,15,-3580.717689696458, 8, 2, 9,44
1306,207544168.86004937,0.0, 7,27, 1,15,4050000.0, 7,30, 6,60
1307,52867394.27387507,0.0, 7,27, 1,15,7065811.778910166, 7,31, 8,45
1308,207544168.86004937,0.0, 7,27, 1,15,4050000.0, 7,30, 6,60
13,1068385814.0427021,151703.1275401932, 7,28, 4,15,6398261.288026763, 7,27,18,30
61,301924526.02383536,88139.10953165221, 7,27, 1,15,1282023.4113694867, 7,27,20,15
134,70666020.44019976,63564.01800854099, 7,27, 4,15,156554.22484006523, 8, 1,20,15
170,5241013.419656067,348.4159749238097, 7,27, 4,15,17476.39704006126, 8, 1,12,15
207,6509451.13922267,815.2532113832032, 7,27, 3,15,22990.642799023623, 8, 1,10,15
244,12749673.399825225,1521.856143006317, 7,27, 4,15,53038.631142310165, 8, 1,20,15
281,46165882.481495745,59938.60262432081, 7,27, 5,15,81951.81706819107, 7,27,19,15
318,0.0,0.0, 7,27, 1,15,0.0, 7,27, 1,15
355,197687796.27748066,18561.32405820678, 7,27, 4,15,724774.895203776, 8, 1,18,15
403,197687796.27748066,18561.32405820678, 7,27, 4,15,724774.895203776, 8, 1,18,15
476,106772067.24485716,7098.072629279515, 7,27, 4,15,356036.3026282215, 8, 1,12,15
513,0.0,0.0, 7,27, 1,15,0.0, 7,27, 1,15
562,48145113.86304854,0.0, 7,28, 4,15,136188.09275799783, 7,27,16,60
1046,0.0,0.0, 7,27, 1,15,0.0, 7,27, 1,15
1096,440105984.85556823,0.0, 7,28, 4,15,1404858.0887210225, 8, 1,13,60
1134,0.0,0.0, 7,27, 1,15,0.0, 7,27, 1,15
1326,207544168.86004943,0.0, 7,27, 1,15,4050000.0, 7,27, 8,45
1379,0.0,0.0, 7,27, 1,15,0.0, 7,27, 1,15
1,ANNUAL,  42.41, -83.01,  -5.00, 190.80
5,365
1038,13.5,0.0, 1, 1, 1,15,0.25, 1,11, 6,15
1039,181.75,0.0, 1, 1, 1,15,0.25, 4,23,15,15
581,0.2626989392627084,0.0, 4,21, 7,48,0.9070811758139, 2,21,19,52
582,4.276132153220888,0.0, 1, 5, 8,60,24.719551669853722, 4, 1,12,52
583,0.029612247933702925,0.0, 8, 1,23, 3,0.0850813306536931, 2,21,19,52
1115,29414846714.608948,0.0, 1, 1,23, 5,4537240.04035197, 3,24, 7,60
1128,9511442810.481516,0.0, 1, 1,23, 5,1346088.3702530116, 3,24, 7,60
1153,290240755.4820476,0.0, 1, 1,23, 5,132105.61692669263,12,27, 6,45
1154,1549074645.3168955,0.0, 1, 1, 6, 5,180000.0, 1, 6,15,15
1155,5554213729.752644,0.0, 1, 1, 1,15,5675930.361375575, 2, 5, 6,15
1156,5554213729.752644,0.0, 1, 1, 1,15,5675930.361375575, 2, 5, 6,15
1292,-1228092801.5640576,-39780.970434157534, 3,16, 3,60,-1944.849887916599, 4, 9,10,31
1306,12619078311.81709,0.0, 1, 1, 1,15,4050000.0, 1, 1, 9,45
1307,3860973157.8437824,0.0, 1, 1, 1,15,15004743.645094205, 2,13, 8,30
1308,12619078311.81709,0.0, 1, 1, 1,15,4050000.0, 1, 1, 9,45
13,58186579147.956924,151703.1275401932, 4,14, 4,15,10872924.885310285, 3, 2, 7,15
61,15743207428.383959,88139.10953165221, 1, 1, 1,15,1282023.4113694867, 1, 1,20,15
134,3685071073.4325233,63564.01800854099, 1, 2, 4,15,156554.22484006523, 1, 1,20,15
170,273393721.45532674,348.4159749238097, 1, 2, 4,15,17476.39704006126, 1, 1,12,15
207,339560869.0695816,815.2532113832032, 1, 2, 3,15,22990.642799023623, 1, 1,10,15
244,664895467.8009144,1521.856143006317, 1, 2, 4,15,53038.631142310165, 1, 1,20,15
281,2407221015.106824,59938.60262432081, 1, 1, 5,15,81951.81706819107, 1, 1,19,15
318,0.0,0.0, 1, 1, 1,15,0.0, 1, 1, 1,15
355,10310294493.051695,18561.32405820678, 1, 2, 4,15,724774.895203776, 1, 1,18,15
403,10310294493.051695,18561.32405820678, 1, 2, 4,15,724774.895203776, 1, 1,18,15
476,5569688622.066177,7098.072629279515, 1, 2, 4,15,356036.3026282215, 1, 1,12,15
513,0.0,0.0, 1, 1, 1,15,0.0, 1, 1, 1,15
562,1898339888.469465,0.0, 1, 6,15,15,136188.09275799786, 3, 3,10,15
1046,0.0,0.0, 1, 1, 1,15,0.0, 1, 1, 1,15
1096,7335910504.819287,0.0, 1, 1, 1,15,1447538.64113593, 6, 8,16,60
1134,16904971941.0331,0.0, 2,10,11,45,6857749.489136646, 3, 2, 6,15
1326,12619078311.817074,0.0, 1, 1, 1,15,4050000.0000000014, 4, 9,10,60
1379,0.0,0.0, 1, 1, 1,15,0.0, 1, 1, 1,15
End of Data
 Number of Records Written=          99
