Program Version,EnergyPlus, Version 22.2.0-c249759bad, YMD=2023.07.07 15:22
1,5,Environment Title[],Latitude[deg],Longitude[deg],Time Zone[],Elevation[m]
2,8,Day of Simulation[],Month[],Day of Month[],DST Indicator[1=yes 0=no],Hour[],StartMinute[],EndMinute[],DayType
3,5,Cumulative Day of Simulation[],Month[],Day of Month[],DST Indicator[1=yes 0=no],DayType  ! When Daily Report Variables Requested
4,2,Cumulative Days of Simulation[],Month[]  ! When Monthly Report Variables Requested
5,1,Cumulative Days of Simulation[] ! When Run Period Report Variables Requested
6,1,Calendar Year of Simulation[] ! When Annual Report Variables Requested
581,11,LIVING,AFN Zone Infiltration Air Change Rate [ach] !RunPeriod [Value,Min,Month,Day,Hour,Minute,Max,Month,Day,Hour,Minute]
582,11,ATTIC,AFN Zone Infiltration Air Change Rate [ach] !RunPeriod [Value,Min,Month,Day,Hour,Minute,Max,Month,Day,Hour,Minute]
583,11,CRAWLSPACE,AFN Zone Infiltration Air Change Rate [ach] !RunPeriod [Value,Min,Month,Day,Hour,Minute,Max,Month,Day,Hour,Minute]
1038,11,Facility,Facility Heating Setpoint Not Met Time [hr] !RunPeriod [Value,Min,Month,Day,Hour,Minute,Max,Month,Day,Hour,Minute]
1039,11,Facility,Facility Cooling Setpoint Not Met Time [hr] !RunPeriod [Value,Min,Month,Day,Hour,Minute,Max,Month,Day,Hour,Minute]
1115,11,DX_HEATING_COIL,Heating Coil Heating Energy [J] !RunPeriod [Value,Min,Month,Day,Hour,Minute,Max,Month,Day,Hour,Minute]
1128,11,DX_HEATING_COIL,Heating Coil Electricity Energy [J] !RunPeriod [Value,Min,Month,Day,Hour,Minute,Max,Month,Day,Hour,Minute]
1153,11,DX_HEATING_COIL,Heating Coil Defrost Electricity Energy [J] !RunPeriod [Value,Min,Month,Day,Hour,Minute,Max,Month,Day,Hour,Minute]
1154,11,DX_HEATING_COIL,Heating Coil Crankcase Heater Electricity Energy [J] !RunPeriod [Value,Min,Month,Day,Hour,Minute,Max,Month,Day,Hour,Minute]
1156,11,HEATING_RESISTANCE_BACKUP,Heating Coil Electricity Energy [J] !RunPeriod [Value,Min,Month,Day,Hour,Minute,Max,Month,Day,Hour,Minute]
13,11,Electricity:Facility [J] !RunPeriod [Value,Min,Month,Day,Hour,Minute,Max,Month,Day,Hour,Minute]
1134,11,Heating:Electricity [J] !RunPeriod [Value,Min,Month,Day,Hour,Minute,Max,Month,Day,Hour,Minute]
1096,11,Cooling:Electricity [J] !RunPeriod [Value,Min,Month,Day,Hour,Minute,Max,Month,Day,Hour,Minute]
562,11,Fans:Electricity [J] !RunPeriod [Value,Min,Month,Day,Hour,Minute,Max,Month,Day,Hour,Minute]
1388,11,Pumps:Electricity [J] !RunPeriod [Value,Min,Month,Day,Hour,Minute,Max,Month,Day,Hour,Minute]
1360,11,WaterSystems:Electricity [J] !RunPeriod [Value,Min,Month,Day,Hour,Minute,Max,Month,Day,Hour,Minute]
61,11,InteriorLights:Electricity [J] !RunPeriod [Value,Min,Month,Day,Hour,Minute,Max,Month,Day,Hour,Minute]
1046,11,ExteriorLights:Electricity [J] !RunPeriod [Value,Min,Month,Day,Hour,Minute,Max,Month,Day,Hour,Minute]
134,11,InteriorEquipment:Electricity [J] !RunPeriod [Value,Min,Month,Day,Hour,Minute,Max,Month,Day,Hour,Minute]
170,11,gas_dryer:InteriorEquipment:Electricity [J] !RunPeriod [Value,Min,Month,Day,Hour,Minute,Max,Month,Day,Hour,Minute]
207,11,clotheswasher:InteriorEquipment:Electricity [J] !RunPeriod [Value,Min,Month,Day,Hour,Minute,Max,Month,Day,Hour,Minute]
244,11,dishwasher:InteriorEquipment:Electricity [J] !RunPeriod [Value,Min,Month,Day,Hour,Minute,Max,Month,Day,Hour,Minute]
281,11,refrigerator:InteriorEquipment:Electricity [J] !RunPeriod [Value,Min,Month,Day,Hour,Minute,Max,Month,Day,Hour,Minute]
318,11,electric_mels:InteriorEquipment:Electricity [J] !RunPeriod [Value,Min,Month,Day,Hour,Minute,Max,Month,Day,Hour,Minute]
355,11,NaturalGas:Facility [J] !RunPeriod [Value,Min,Month,Day,Hour,Minute,Max,Month,Day,Hour,Minute]
1323,11,WaterSystems:NaturalGas [J] !RunPeriod [Value,Min,Month,Day,Hour,Minute,Max,Month,Day,Hour,Minute]
403,11,InteriorEquipment:NaturalGas [J] !RunPeriod [Value,Min,Month,Day,Hour,Minute,Max,Month,Day,Hour,Minute]
476,11,gas_dryer:InteriorEquipment:NaturalGas [J] !RunPeriod [Value,Min,Month,Day,Hour,Minute,Max,Month,Day,Hour,Minute]
513,11,gas_mels:InteriorEquipment:NaturalGas [J] !RunPeriod [Value,Min,Month,Day,Hour,Minute,Max,Month,Day,Hour,Minute]
End of Data Dictionary
1,EXTREME_WINTER,  39.64, -79.92,  -5.00, 378.00
5,7
1038,3.8333333333333326,0.0, 1, 6, 1,10,0.16666666666666666, 1, 8, 6,10
1039,0.0,0.0, 1, 6, 1,10,0.0, 1, 6, 1,10
581,0.2927840459979024,0.16899070560962107, 1,12, 6, 5,0.4942037380807175, 1, 7,20,60
582,2.7381624752206957,0.0, 1, 6, 1,53,8.915254296148195, 1, 9,15,60
583,3.563294733957268,0.00026377491603442863, 1,11,23,10,11.43230909112106, 1, 9,15,60
1115,1907184351.5252898,0.0, 1, 6,23, 2,2800326.0377887613, 1, 9, 1,60
1128,667529098.7496318,0.0, 1, 6,23, 2,843112.2035367037, 1, 9,10,60
1153,8527053.121390376,0.0, 1, 6,23, 2,58550.94790512578, 1,12, 6,40
1154,20317776.29287752,0.0, 1, 6, 1, 1,111582.97310677105, 1,11,15,10
1156,877160592.9188588,0.0, 1, 6, 1,50,3955140.7077073036, 1, 8, 6,10
13,2027302073.9162343,369958.7203093839, 1,11,14,60,5254574.403620744, 1, 8, 7,10
61,301924526.0238348,58759.40635443481, 1, 6, 1,10,854682.2742463244, 1, 6,20,10
134,70666020.44019979,42376.01200569399, 1, 6, 4,10,104369.48322671017, 1,11,20,10
170,5241013.419656074,232.27731661587313, 1, 6, 4,10,11650.931360040839, 1,11,12,10
207,6509451.13922266,543.5021409221355, 1, 6, 3,10,15327.095199349082, 1,11,10,10
244,12749673.39982522,1014.5707620042115, 1, 6, 4,10,35359.08742820678, 1,11,20,10
281,46165882.48149605,39959.06841621388, 1, 6, 5,10,54634.54471212738, 1, 6,19,10
318,0.0,0.0, 1, 6, 1,10,0.0, 1, 6, 1,10
355,739047518.5999113,12374.216038804521, 1, 6, 4,10,3829218.154066982, 1,10,18,20
403,197687796.27748126,12374.216038804521, 1, 6, 4,10,483183.26346918393, 1,11,18,10
476,106772067.24485692,4732.048419519677, 1, 6, 4,10,237357.535085481, 1,11,12,10
513,0.0,0.0, 1, 6, 1,10,0.0, 1, 6, 1,10
562,76157166.36944029,0.0, 1,11,23,10,90910.40349210243, 1, 6, 1,20
1046,0.0,0.0, 1, 6, 1,10,0.0, 1, 6, 1,10
1096,0.0,0.0, 1, 6, 1,10,0.0, 1, 6, 1,10
1134,1573534521.0827584,120000.0, 1,11,23,10,4702044.996838004, 1,10, 6,10
1323,541359722.3224272,0.0, 1, 6, 1,10,3375000.0000000005, 1, 6, 9,50
1360,5019840.0,4980.0, 1, 6, 1,10,4980.000000000001, 1, 6, 1,30
1388,0.0,0.0, 1, 6, 1,10,0.0, 1, 6, 1,10
1,EXTREME_SUMMER,  39.64, -79.92,  -5.00, 378.00
5,7
1038,0.0,0.0, 7,27, 1,10,0.0, 7,27, 1,10
1039,26.166666666666668,0.0, 7,27, 1,10,0.16666666666666666, 7,27,14,40
581,0.05011877224111389,0.0, 7,27, 1, 5,0.3453453526848067, 8, 2,18,51
582,1.5181469295412053,0.0, 7,29,20,29,8.751513263464913, 8, 2,18,51
583,1.7340619311675183,0.0, 7,28, 6, 7,11.150526750123825, 8, 2,18,51
1115,0.0,0.0, 7,27, 1, 5,0.0, 7,27, 1, 5
1128,0.0,0.0, 7,27, 1, 5,0.0, 7,27, 1, 5
1153,0.0,0.0, 7,27, 1, 5,0.0, 7,27, 1, 5
1154,0.0,0.0, 7,27, 1, 5,0.0, 7,27, 1, 5
1156,0.0,0.0, 7,27, 1, 5,0.0, 7,27, 1, 5
13,907093853.1866347,125488.42897568643, 8, 1, 4,60,1949637.423358675, 7,29,20,10
61,301924526.0238348,58759.40635443481, 7,27, 1,10,854682.2742463244, 7,27,20,10
134,70666020.44019979,42376.01200569399, 7,27, 4,10,104369.48322671017, 8, 1,20,10
170,5241013.419656074,232.27731661587313, 7,27, 4,10,11650.931360040839, 8, 1,12,10
207,6509451.13922266,543.5021409221355, 7,27, 3,10,15327.095199349082, 8, 1,10,10
244,12749673.39982522,1014.5707620042115, 7,27, 4,10,35359.08742820678, 8, 1,20,10
281,46165882.48149605,39959.06841621388, 7,27, 5,10,54634.54471212738, 7,27,19,10
318,0.0,0.0, 7,27, 1,10,0.0, 7,27, 1,10
355,632353747.9925841,12374.216038804521, 7,27, 4,10,3829218.154066982, 7,28,18,60
403,197687796.27748126,12374.216038804521, 7,27, 4,10,483183.26346918393, 8, 1,18,10
476,106772067.24485692,4732.048419519677, 7,27, 4,10,237357.535085481, 8, 1,12,10
513,0.0,0.0, 7,27, 1,10,0.0, 7,27, 1,10
562,52321338.913069785,0.0, 7,31, 6,20,90910.40349210243, 7,27,14,10
1046,0.0,0.0, 7,27, 1,10,0.0, 7,27, 1,10
1096,477162127.8095297,0.0, 7,31, 6,20,950954.1960297929, 7,29,15,60
1134,0.0,0.0, 7,27, 1,10,0.0, 7,27, 1,10
1323,434665951.71510124,0.0, 7,27, 1,10,3375000.0, 7,27, 9,50
1360,5019840.0,4980.0, 7,27, 1,10,4980.000000000001, 7,27, 7,50
1388,0.0,0.0, 7,27, 1,10,0.0, 7,27, 1,10
1,ANNUAL,  39.64, -79.92,  -5.00, 378.00
5,365
1038,9.333333333333334,0.0, 1, 1, 1,10,0.16666666666666666, 1, 8, 6,10
1039,348.8333333333332,0.0, 1, 1, 1,10,0.16666666666666666, 3,12,15,20
581,0.16305496353517315,0.0, 5,17,20,53,0.7643735531426037,11,17, 2,55
582,2.0525873229141705,0.0, 1, 2,18,60,17.2080328090729, 2,12,15,55
583,2.453338760762766,0.0, 5,29,23, 2,21.83544641739481,11,17, 2,55
1115,20355047346.598778,0.0, 1, 1,14,30,2958082.217664946, 1,29, 8,40
1128,6492800863.232322,0.0, 1, 1,14,30,877510.2773924612, 1,29, 8,40
1153,199444706.4008442,0.0, 1, 1,14,30,68407.07812554433, 1,26, 6,30
1154,1593370433.6110737,0.0, 1, 1, 3,60,120000.0, 1, 1,14,30
1156,2708682027.9217353,0.0, 1, 1, 1, 1,3955140.7077073036, 1, 8, 6,10
13,41482992986.89215,106115.4183601288, 1, 4, 4,10,5253927.610051319, 1, 8, 7,10
61,15743207428.39043,58759.40635443481, 1, 1, 1,10,854682.2742463244, 1, 1,20,10
134,3685071073.433083,42376.01200569399, 1, 2, 4,10,104369.48322671017, 1, 1,20,10
170,273393721.45534325,232.27731661587313, 1, 2, 4,10,11650.931360040839, 1, 1,12,10
207,339560869.06955314,543.5021409221355, 1, 2, 3,10,15327.095199349082, 1, 1,10,10
244,664895467.8009839,1014.5707620042115, 1, 2, 4,10,35359.08742820678, 1, 1,20,10
281,2407221015.1057043,39959.06841621388, 1, 1, 5,10,54634.54471212738, 1, 1,19,10
318,0.0,0.0, 1, 1, 1,10,0.0, 1, 1, 1,10
355,35724443200.97098,12374.216038804521, 1, 2, 4,10,3829218.1540669827, 1,24,18,60
403,10310294493.052883,12374.216038804521, 1, 2, 4,10,483183.26346918393, 1, 1,18,10
476,5569688622.065564,4732.048419519677, 1, 2, 4,10,237357.535085481, 1, 1,12,10
513,0.0,0.0, 1, 1, 1,10,0.0, 1, 1, 1,10
562,1779993157.84615,0.0, 1, 1,14,30,90910.40349210243, 1, 1, 3,60
1046,0.0,0.0, 1, 1, 1,10,0.0, 1, 1, 1,10
1096,9018674496.063278,0.0, 1, 1, 1,10,954174.7826986491, 7,29,15,60
1134,10994298031.165976,0.0, 1, 3,18,30,4702149.697179994, 1,10, 6,10
1323,25414148707.921974,0.0, 1, 1, 1,10,3375000.000000001, 1, 3,10,60
1360,261748800.0,4979.999999999998, 4,18, 9,10,4980.000000000002, 1,10,10,60
1388,0.0,0.0, 1, 1, 1,10,0.0, 1, 1, 1,10
End of Data
 Number of Records Written=          87
