Program Version,EnergyPlus, Version 22.2.0-c249759bad, YMD=2023.09.01 14:31
1,5,Environment Title[],Latitude[deg],Longitude[deg],Time Zone[],Elevation[m]
2,8,Day of Simulation[],Month[],Day of Month[],DST Indicator[1=yes 0=no],Hour[],StartMinute[],EndMinute[],DayType
3,5,Cumulative Day of Simulation[],Month[],Day of Month[],DST Indicator[1=yes 0=no],DayType  ! When Daily Report Variables Requested
4,2,Cumulative Days of Simulation[],Month[]  ! When Monthly Report Variables Requested
5,1,Cumulative Days of Simulation[] ! When Run Period Report Variables Requested
6,1,Calendar Year of Simulation[] ! When Annual Report Variables Requested
7,1,Environment,Site Outdoor Air Drybulb Temperature [C] !Hourly
545,1,LIVING,Zone Mean Air Temperature [C] !Hourly
546,1,ATTIC,Zone Mean Air Temperature [C] !Hourly
547,1,CRAWLSPACE,Zone Mean Air Temperature [C] !Hourly
548,1,FAN,Fan Electricity Rate [W] !Hourly
720,1,LIVING,Zone Predicted Sensible Load to Heating Setpoint Heat Transfer Rate [W] !Hourly
721,1,LIVING,Zone System Predicted Sensible Load to Heating Setpoint Heat Transfer Rate [W] !Hourly
784,1,ATTIC,Zone Predicted Sensible Load to Heating Setpoint Heat Transfer Rate [W] !Hourly
785,1,ATTIC,Zone System Predicted Sensible Load to Heating Setpoint Heat Transfer Rate [W] !Hourly
848,1,CRAWLSPACE,Zone Predicted Sensible Load to Heating Setpoint Heat Transfer Rate [W] !Hourly
849,1,CRAWLSPACE,Zone System Predicted Sensible Load to Heating Setpoint Heat Transfer Rate [W] !Hourly
1121,1,DX_HEATING_COIL,Heating Coil Heating Rate [W] !Hourly
1135,1,DX_HEATING_COIL,Heating Coil Electricity Rate [W] !Hourly
1161,1,DX_HEATING_COIL,Heating Coil Defrost Electricity Rate [W] !Hourly
1163,1,DX_HEATING_COIL,Heating Coil Crankcase Heater Electricity Rate [W] !Hourly
1166,1,HEATING_RESISTANCE_BACKUP,Heating Coil Heating Rate [W] !Hourly
1168,1,HEATING_RESISTANCE_BACKUP,Heating Coil Electricity Rate [W] !Hourly
End of Data Dictionary
1,EXTREME_WINTER,  43.57,-116.21,  -7.00, 857.70
2,1,12,15, 0, 1, 0.00,60.00,Monday
7,-2.0
545,18.8182173535765
546,-0.1405349098977236
547,18.74904342141918
548,108.27742134323071
720,2138.0819380388984
721,2138.0819380388984
784,0.0
785,0.0
848,0.0
849,0.0
1121,2955.79631056526
1135,971.5145563132696
1161,61.901572878726675
1163,80.58121595660248
1166,0.0
1168,0.0
2,1,12,15, 0, 2, 0.00,60.00,Monday
7,-2.0
545,18.615446155812585
546,0.2168622000459758
547,18.39105557293682
548,111.84288648111425
720,2234.5421496453273
721,2234.5421496453273
784,0.0
785,0.0
848,0.0
849,0.0
1121,3058.821245686998
1135,1005.2576952687097
1161,63.940270601120645
1163,76.64821729892218
1166,0.0
1168,0.0
2,1,12,15, 0, 3, 0.00,60.00,Monday
7,-2.0
545,18.639685896957822
546,0.67079684787816
547,18.21357481974689
548,115.69758124882485
720,2336.737120018195
721,2336.737120018195
784,0.0
785,0.0
848,0.0
849,0.0
1121,3175.782088135555
1135,1035.404510921368
1161,66.14311095221474
1163,72.39855927028438
1166,0.0
1168,0.0
2,1,12,15, 0, 4, 0.00,60.00,Monday
7,-2.0
545,18.601759049943926
546,0.8714020180743097
547,18.022467251569534
548,119.44695579742991
720,2428.651604843699
721,2428.651604843699
784,0.0
785,0.0
848,0.0
849,0.0
1121,3286.4591278095336
1135,1069.307899788426
1161,68.28665775752341
1163,68.2632886927246
1166,0.0
1168,0.0
2,1,12,15, 0, 5, 0.00,60.00,Monday
7,-2.2
545,18.597284846335008
546,0.8340541854573322
547,17.857650623243998
548,120.78982027209437
720,2460.6621006617006
721,2460.6621006617006
784,0.0
785,0.0
848,0.0
849,0.0
1121,3326.9910842217596
1135,1083.970472271862
1161,64.65853376330506
1163,66.84972485894856
1166,0.0
1168,0.0
2,1,12,15, 0, 6, 0.00,60.00,Monday
7,-2.2
545,19.277535887456605
546,1.446579892364577
547,17.678854290750355
548,158.73754112923476
720,3380.6799035283457
721,3380.6799035283457
784,0.0
785,0.0
848,0.0
849,0.0
1121,4484.282654781143
1135,1424.0269479699223
1161,84.90011913259212
1163,25.02078371915435
1166,0.0
1168,0.0
2,1,12,15, 0, 7, 0.00,60.00,Monday
7,-2.2
545,19.54225286474682
546,1.6286328470175597
547,17.565624405121376
548,164.0618216651747
720,3457.670900943396
721,3457.670900943396
784,0.0
785,0.0
848,0.0
849,0.0
1121,4676.868767976913
1135,1503.191852004019
1161,77.85293343863655
1163,19.388712710513566
1166,0.0
1168,0.0
2,1,12,15, 0, 8, 0.00,60.00,Monday
7,-2.0
545,19.65621661574785
546,1.7703543264031905
547,17.440630018322583
548,163.54839653486604
720,3367.5023156267125
721,3367.5023156267125
784,0.0
785,0.0
848,0.0
849,0.0
1121,4612.719926690229
1135,1489.4671743913827
1161,93.50397689671466
1163,19.614741517093282
1166,0.0
1168,0.0
2,1,12,15, 0, 9, 0.00,60.00,Monday
7,-4.0
545,19.64772660830158
546,0.5371256205657279
547,17.296968189900724
548,178.69813290445623
720,3620.9701884184797
721,3620.9701884184797
784,0.0
785,0.0
848,0.0
849,0.0
1121,4957.010366227017
1135,1649.2747613436889
1161,66.24656744959844
1163,3.342500270907811
1166,0.0
1168,0.0
2,1,12,15, 0,10, 0.00,60.00,Monday
7,-4.0
545,19.667744856648905
546,-0.3564949691680004
547,17.175168400336922
548,183.49834054458287
720,4229.846896069528
721,4229.846896069528
784,0.0
785,0.0
848,0.0
849,0.0
1121,5101.140137884989
1135,1676.7660701515579
1161,67.3725309646031
1163,0.0
1166,662.9604609917724
1168,662.9604609917724
2,1,12,15, 0,11, 0.00,60.00,Monday
7,-4.0
545,19.697850458450944
546,-0.25625128436066225
547,17.057682279060252
548,183.49834054458287
720,4037.734174716694
721,4037.734174716694
784,0.0
785,0.0
848,0.0
849,0.0
1121,5030.346762150452
1135,1654.1018210134157
1161,84.08180372224076
1163,0.0
1166,586.7030364574621
1168,586.7030364574621
2,1,12,15, 0,12, 0.00,60.00,Monday
7,-2.8
545,19.758672015784253
546,0.954765051458734
547,16.958538705076116
548,168.2583865626562
720,3332.1222825870573
721,3332.1222825870573
784,0.0
785,0.0
848,0.0
849,0.0
1121,4770.195827620923
1135,1560.923675379598
1161,67.9472270120295
1163,14.92821650076639
1166,0.0
1168,0.0
2,1,12,15, 0,13, 0.00,60.00,Monday
7,-2.8
545,19.842920396417338
546,2.045198114314058
547,16.85504865049458
548,135.00520996035547
720,2599.031537414452
721,2599.031537414452
784,0.0
785,0.0
848,0.0
849,0.0
1121,3742.3027848745323
1135,1254.0221943322565
1161,54.524056785107966
1163,51.50365273437518
1166,0.0
1168,0.0
2,1,12,15, 0,14, 0.00,60.00,Monday
7,-3.0
545,19.79365944439496
546,2.5765373060570567
547,16.756120448890677
548,123.7339779370891
720,2406.152669061241
721,2406.152669061241
784,0.0
785,0.0
848,0.0
849,0.0
1121,3381.3747965504567
1135,1148.7468715514385
1161,50.636550466844454
1163,63.85139070405928
1166,0.0
1168,0.0
2,1,12,15, 0,15, 0.00,60.00,Monday
7,-2.0
545,19.78348411816776
546,2.7370982674554303
547,16.67317023168396
548,117.5330182241065
720,2417.944617185194
721,2417.944617185194
784,0.0
785,0.0
848,0.0
849,0.0
1121,3315.5985339069243
1135,1105.2897268133984
1161,42.03847474312218
1163,70.96516040486138
1166,0.0
1168,0.0
2,1,12,15, 0,16, 0.00,60.00,Monday
7,-2.0
545,19.816875118595114
546,2.4711741338684936
547,16.593364845524025
548,111.46563413842756
720,2249.47149427743
721,2249.47149427743
784,0.0
785,0.0
848,0.0
849,0.0
1121,3082.3053561702
1135,1033.4716398035985
1161,51.9565133230167
1163,77.34212502028069
1166,0.0
1168,0.0
2,1,12,15, 0,17, 0.00,60.00,Monday
7,-2.2
545,19.656480195089603
546,1.26620593771264
547,16.514264562471862
548,110.69178361067384
720,2219.902869323574
721,2219.902869323574
784,0.0
785,0.0
848,0.0
849,0.0
1121,3038.671824755335
1135,1024.475056621737
1161,52.39992873367854
1163,78.14231483734595
1166,0.0
1168,0.0
2,1,12,15, 0,18, 0.00,60.00,Monday
7,-5.6
545,19.52927317440568
546,-0.22594636078270255
547,16.40609771080934
548,141.09112046439284
720,2665.360807812156
721,2665.360807812156
784,0.0
785,0.0
848,0.0
849,0.0
1121,3662.3662124406173
1135,1291.0003530288843
1161,47.86997529343375
1163,44.596540224645096
1166,0.0
1168,0.0
2,1,12,15, 0,19, 0.00,60.00,Monday
7,-5.0
545,19.680816484481113
546,-1.346483237215152
547,16.3332689478247
548,136.15916689881638
720,2569.856988007754
721,2569.856988007754
784,0.0
785,0.0
848,0.0
849,0.0
1121,3627.97245009749
1135,1259.6971404455803
1161,35.53899988728357
1163,50.47711168367266
1166,0.0
1168,0.0
2,1,12,15, 0,20, 0.00,60.00,Monday
7,-5.0
545,19.76794143989261
546,-1.5642791733564505
547,16.252671642033338
548,129.1659147857347
720,2362.8051836028844
721,2362.8051836028844
784,0.0
785,0.0
848,0.0
849,0.0
1121,3422.999246522156
1135,1198.522067394982
1161,33.710637524084824
1163,58.155947167023925
1166,0.0
1168,0.0
2,1,12,15, 0,21, 0.00,60.00,Monday
7,-3.3
545,19.68993225187287
546,-1.6217366256530616
547,16.172608290759825
548,120.24107289635099
720,2331.5002149015345
721,2331.5002149015345
784,0.0
785,0.0
848,0.0
849,0.0
1121,3361.9817038731067
1135,1143.1278137591235
1161,21.951816433888883
1163,68.38293248673546
1166,0.0
1168,0.0
2,1,12,15, 0,22, 0.00,60.00,Monday
7,-2.8
545,19.69377713982867
546,-0.8947533911580555
547,16.076676530146436
548,127.22895482436654
720,2565.6067234710335
721,2565.6067234710335
784,0.0
785,0.0
848,0.0
849,0.0
1121,3644.011290658835
1135,1217.5488091099426
1161,18.83942006635454
1163,60.877883925258416
1166,0.0
1168,0.0
2,1,12,15, 0,23, 0.00,60.00,Monday
7,-2.8
545,18.933344287997418
546,-1.029643676367031
547,15.980663781644019
548,97.19090100186379
720,1858.6194681684465
721,1858.6194681684465
784,0.0
785,0.0
848,0.0
849,0.0
1121,2730.1800776077
1135,930.2060324527014
1161,14.391538545602891
1163,93.72383603191724
1166,0.0
1168,0.0
2,1,12,15, 0,24, 0.00,60.00,Monday
7,-2.8
545,18.738302399471205
546,-1.1477344635261346
547,15.863465192520529
548,108.4755257125738
720,2221.028875777696
721,2221.028875777696
784,0.0
785,0.0
848,0.0
849,0.0
1121,3095.6098204715877
1135,1026.5256657028408
1161,12.694359302482711
1163,81.46748998620825
1166,0.0
1168,0.0
2,2,12,16, 0, 1, 0.00,60.00,Tuesday
7,-2.8
545,18.606638209211567
546,-1.164201076753594
547,15.75932611149513
548,123.787293832243
720,2593.0620903996296
721,2593.0620903996296
784,0.0
785,0.0
848,0.0
849,0.0
1121,3571.496373531792
1135,1166.7061394494388
1161,14.49045429443954
1163,64.7364032382731
1166,0.0
1168,0.0
2,2,12,16, 0, 2, 0.00,60.00,Tuesday
7,-2.2
545,18.513557002313352
546,-0.7581109911612697
547,15.654651530171423
548,138.8349787816242
720,3023.3557935921344
721,3023.3557935921344
784,0.0
785,0.0
848,0.0
849,0.0
1121,4139.07531136594
1135,1317.5765776131702
1161,10.93872309871407
1163,48.44080603827305
1166,0.0
1168,0.0
2,2,12,16, 0, 3, 0.00,60.00,Tuesday
7,-2.2
545,18.70446724108494
546,-0.3897992493717059
547,15.556955039806954
548,133.74358807308897
720,2875.995367411968
721,2875.995367411968
784,0.0
785,0.0
848,0.0
849,0.0
1121,3975.989092778793
1135,1266.8518690976698
1161,10.53965008364521
1163,53.998890190274885
1166,0.0
1168,0.0
2,2,12,16, 0, 4, 0.00,60.00,Tuesday
7,-4.4
545,18.44528567221113
546,-0.7217412649766402
547,15.44183170061962
548,167.9671929172151
720,3419.868891804592
721,3419.868891804592
784,0.0
785,0.0
848,0.0
849,0.0
1121,4714.435956831298
1135,1545.8458853067536
1161,33.473452748885244
1163,15.953998685102988
1166,0.0
1168,0.0
2,2,12,16, 0, 5, 0.00,60.00,Tuesday
7,-4.4
545,18.513529236419224
546,-0.7890034497653993
547,15.336722616557973
548,179.33982109479925
720,3659.8474950614545
721,3659.8474950614545
784,0.0
785,0.0
848,0.0
849,0.0
1121,5079.655711647335
1135,1641.848966906145
1161,35.73958109713024
1163,3.494218569509311
1166,0.0
1168,0.0
2,2,12,16, 0, 6, 0.00,60.00,Tuesday
7,-7.2
545,19.286596504252884
546,-1.6405892332651695
547,15.225340700472024
548,183.49834054458287
720,4411.741276227087
721,4411.741276227087
784,0.0
785,0.0
848,0.0
849,0.0
1121,4826.245681822505
1135,1643.352588179961
1161,29.449234554386248
1163,0.0
1166,1173.9037072228966
1168,1173.9037072228966
2,2,12,16, 0, 7, 0.00,60.00,Tuesday
7,-6.7
545,19.569445973414947
546,-1.8293987399709906
547,15.17405297021937
548,183.49834054458287
720,4164.568519944987
721,4164.568519944987
784,0.0
785,0.0
848,0.0
849,0.0
1121,4861.266323471669
1135,1669.8897215447596
1161,33.337055220328836
1163,0.0
1166,980.4236957574576
1168,980.4236957574576
2,2,12,16, 0, 8, 0.00,60.00,Tuesday
7,-5.0
545,19.674192109061234
546,-0.8521651983838198
547,15.104041106060857
548,183.49834054458287
720,3695.1388294643584
721,3695.1388294643584
784,0.0
785,0.0
848,0.0
849,0.0
1121,5070.663053241426
1135,1693.3739412528253
1161,40.699136464355895
1163,0.0
1166,275.6220277683806
1168,275.6220277683806
2,2,12,16, 0, 9, 0.00,60.00,Tuesday
7,-5.0
545,19.7129657468143
546,-0.4397906498783859
547,15.02139131740135
548,183.49834054458287
720,3493.634498284022
721,3493.634498284022
784,0.0
785,0.0
848,0.0
849,0.0
1121,5067.745775584417
1135,1696.7288602523988
1161,40.70699691696337
1163,0.0
1166,5.205819831376175
1168,5.205819831376175
2,2,12,16, 0,10, 0.00,60.00,Tuesday
7,-2.0
545,19.707665826013127
546,0.567901188868681
547,14.960271646124491
548,183.49834054458287
720,4259.395974011024
721,4259.395974011024
784,0.0
785,0.0
848,0.0
849,0.0
1121,5485.615910588321
1135,1731.3637735401708
1161,47.88859735572299
1163,0.0
1166,457.1509509421767
1168,457.1509509421767
2,2,12,16, 0,11, 0.00,60.00,Tuesday
7,-2.2
545,19.731194859908427
546,1.2767228861049167
547,14.883001048103718
548,182.34078025222445
720,3764.6236822575793
721,3764.6236822575793
784,0.0
785,0.0
848,0.0
849,0.0
1121,5337.574451446853
1135,1701.61904093444
1161,66.79436251825017
1163,0.0
1166,0.0
1168,0.0
2,2,12,16, 0,12, 0.00,60.00,Tuesday
7,-1.0
545,19.832384303883767
546,3.198685007990008
547,14.813325699543197
548,145.4362418809309
720,3037.6979388558066
721,3037.6979388558066
784,0.0
785,0.0
848,0.0
849,0.0
1121,4328.903770246802
1135,1382.2784036046603
1161,45.14182378296792
1163,40.62197254785054
1166,0.0
1168,0.0
2,2,12,16, 0,13, 0.00,60.00,Tuesday
7,-1.0
545,19.925114826515276
546,4.383460725674564
547,14.745729053521428
548,115.8325024191697
720,2315.317911548882
721,2315.317911548882
784,0.0
785,0.0
848,0.0
849,0.0
1121,3279.889126094932
1135,1074.328018980576
1161,59.30435168557007
1163,72.58606400601455
1166,0.0
1168,0.0
2,2,12,16, 0,14, 0.00,60.00,Tuesday
7,-1.0
545,19.837045783810552
546,5.9195054859289495
547,14.69146596722514
548,96.81297818608094
720,1953.493590709255
721,1953.493590709255
784,0.0
785,0.0
848,0.0
849,0.0
1121,2706.5255088065715
1135,899.593686691869
1161,49.56688409546559
1163,93.50677280740534
1166,0.0
1168,0.0
2,2,12,16, 0,15, 0.00,60.00,Tuesday
7,-3.0
545,19.614732215888278
546,4.524521516461361
547,14.642752224394394
548,97.86154052996935
720,1926.116542853797
721,1926.116542853797
784,0.0
785,0.0
848,0.0
849,0.0
1121,2592.9075069533437
1135,895.4979432021922
1161,49.722264837046446
1163,92.05863799005157
1166,0.0
1168,0.0
2,2,12,16, 0,16, 0.00,60.00,Tuesday
7,-3.3
545,19.77600810243261
546,4.943041270276989
547,14.614049344014857
548,102.39729133771945
720,2000.5489864287556
721,2000.5489864287556
784,0.0
785,0.0
848,0.0
849,0.0
1121,2690.016649781775
1135,927.611163607944
1161,54.945539313645696
1163,86.9239308922938
1166,0.0
1168,0.0
2,2,12,16, 0,17, 0.00,60.00,Tuesday
7,-3.3
545,19.771915799385816
546,3.8779600481062677
547,14.588818215157644
548,88.74043491949625
720,1693.1280540848165
721,1693.1280540848165
784,0.0
785,0.0
848,0.0
849,0.0
1121,2308.7783643530656
1135,806.4864427977085
1161,47.61792772349407
1163,102.00390871965925
1166,0.0
1168,0.0
2,2,12,16, 0,18, 0.00,60.00,Tuesday
7,-3.3
545,19.763614577610873
546,3.2694519395113284
547,14.56537537049031
548,84.7900439537219
720,1626.754369844759
721,1626.754369844759
784,0.0
785,0.0
848,0.0
849,0.0
1121,2223.2404007226946
1135,777.1891720199982
1161,39.65255817058544
1163,106.53203406441267
1166,0.0
1168,0.0
2,2,12,16, 0,19, 0.00,60.00,Tuesday
7,-3.3
545,19.715979185608926
546,1.6269841959969469
547,14.53803051828127
548,81.13572804947256
720,1541.9308446055802
721,1541.9308446055802
784,0.0
785,0.0
848,0.0
849,0.0
1121,2122.5648972160593
1135,743.5655267741106
1161,37.94357590423693
1163,110.56040205944603
1166,0.0
1168,0.0
2,2,12,16, 0,20, 0.00,60.00,Tuesday
7,-3.3
545,19.76603312091525
546,0.9937022618212478
547,14.505909690916639
548,78.32802328177073
720,1462.5974066124854
721,1462.5974066124854
784,0.0
785,0.0
848,0.0
849,0.0
1121,2046.010074323334
1135,717.1598884471391
1161,36.62352365417576
1163,113.65590952061527
1166,0.0
1168,0.0
2,2,12,16, 0,21, 0.00,60.00,Tuesday
7,-3.3
545,19.732778611926083
546,0.3039461010328255
547,14.470977842333133
548,77.83319263561935
720,1440.517036645857
721,1440.517036645857
784,0.0
785,0.0
848,0.0
849,0.0
1121,2031.858179259846
1135,713.297564003436
1161,36.40599285044529
1163,114.20074174650787
1166,0.0
1168,0.0
2,2,12,16, 0,22, 0.00,60.00,Tuesday
7,-5.0
545,19.596084567626807
546,-0.13646141402637685
547,14.431265821289703
548,97.10636858179052
720,1743.6435648879924
721,1743.6435648879924
784,0.0
785,0.0
848,0.0
849,0.0
1121,2453.7665534890025
1135,881.1257130080868
1161,43.27742345663073
1163,92.76723735447139
1166,0.0
1168,0.0
2,2,12,16, 0,23, 0.00,60.00,Tuesday
7,-5.0
545,18.87336126126325
546,-1.0740683246189637
547,14.372636695483637
548,74.21194659748363
720,1245.5766486440116
721,1245.5766486440116
784,0.0
785,0.0
848,0.0
849,0.0
1121,1849.3250838178071
1135,671.6274620672398
1161,33.07373865752604
1163,118.04991878001125
1166,0.0
1168,0.0
2,2,12,16, 0,24, 0.00,60.00,Tuesday
7,-4.4
545,18.65705022862992
546,-1.2302699988703485
547,14.314818088513112
548,89.75663022068142
720,1641.463096047597
721,1641.463096047597
784,0.0
785,0.0
848,0.0
849,0.0
1121,2315.862911613449
1135,806.4954383336132
1161,37.77160621946035
1163,101.04248888247011
1166,0.0
1168,0.0
2,3,12,17, 0, 1, 0.00,60.00,Wednesday
7,-4.4
545,18.53412177480107
546,-1.1552094074785344
547,14.257765052618868
548,113.5556723302195
720,2117.3016193133553
721,2117.3016193133553
784,0.0
785,0.0
848,0.0
849,0.0
1121,2956.7797662377325
1135,1009.6257593209435
1161,53.54370177565591
1163,74.62381585534996
1166,0.0
1168,0.0
2,3,12,17, 0, 2, 0.00,60.00,Wednesday
7,-5.0
545,18.491930562993904
546,-1.1116862150908116
547,14.193062292429167
548,137.4062315733697
720,2563.390037189427
721,2563.390037189427
784,0.0
785,0.0
848,0.0
849,0.0
1121,3589.152741382269
1135,1217.3600337798227
1161,61.180327984997014
1163,48.27988105488066
1166,0.0
1168,0.0
2,3,12,17, 0, 3, 0.00,60.00,Wednesday
7,-5.0
545,18.479625009976807
546,-1.108066065702698
547,14.131072870424124
548,158.26541249267893
720,2999.9049815360977
721,2999.9049815360977
784,0.0
785,0.0
848,0.0
849,0.0
1121,4215.541400851408
1135,1406.8684691647888
1161,64.6713367648817
1163,25.442719536697144
1166,0.0
1168,0.0
2,3,12,17, 0, 4, 0.00,60.00,Wednesday
7,-5.0
545,18.542067994754834
546,-1.1178533120421958
547,14.066641439512095
548,165.42599709337864
720,3159.6373536015
721,3159.6373536015
784,0.0
785,0.0
848,0.0
849,0.0
1121,4475.389911580713
1135,1482.8699894934966
1161,55.43219119550265
1163,17.94784109592591
1166,0.0
1168,0.0
2,3,12,17, 0, 5, 0.00,60.00,Wednesday
7,-5.0
545,18.58599787613796
546,-0.9616808077150699
547,14.004148667895318
548,167.4473701381273
720,3161.994350454126
721,3161.994350454126
784,0.0
785,0.0
848,0.0
849,0.0
1121,4518.633261917608
1135,1498.3601951892374
1161,60.241463269262546
1163,15.586729141777699
1166,0.0
1168,0.0
2,3,12,17, 0, 6, 0.00,60.00,Wednesday
7,-6.7
545,19.27878999243161
546,-1.3383399992840357
547,13.927602478287719
548,183.49834054458287
720,4355.564785396391
721,4355.564785396391
784,0.0
785,0.0
848,0.0
849,0.0
1121,4798.175956471814
1135,1617.0125131233929
1161,54.84959356343374
1163,0.0
1166,1170.1351477214967
1168,1170.1351477214967
2,3,12,17, 0, 7, 0.00,60.00,Wednesday
7,-7.2
545,19.564315082779032
546,-1.8225500855119021
547,13.8927328638617
548,183.49834054458287
720,4293.2981675095725
721,4293.2981675095725
784,0.0
785,0.0
848,0.0
849,0.0
1121,4755.860271654356
1135,1648.0333020288476
1161,42.665298610988316
1163,0.0
1166,1250.275831652346
1168,1250.275831652346
2,3,12,17, 0, 8, 0.00,60.00,Wednesday
7,-7.0
545,19.66608885687789
546,-1.9740928381388887
547,13.837804642656948
548,183.49834054458287
720,3995.246338402969
721,3995.246338402969
784,0.0
785,0.0
848,0.0
849,0.0
1121,4802.083452777753
1135,1668.9160309816427
1161,35.981561618924
1163,0.0
1166,919.469410642897
1168,919.469410642897
2,3,12,17, 0, 9, 0.00,60.00,Wednesday
7,-8.9
545,19.69342081444387
546,-2.5308863260682437
547,13.760170943067385
548,183.49834054458287
720,4163.1400443926705
721,4163.1400443926705
784,0.0
785,0.0
848,0.0
849,0.0
1121,4529.811938637559
1135,1643.5124442825654
1161,36.794902004298024
1163,0.0
1166,1400.0408058977605
1168,1400.0408058977605
2,3,12,17, 0,10, 0.00,60.00,Wednesday
7,-8.3
545,19.72175433781729
546,-1.0622566853873303
547,13.706496420617047
548,183.49834054458287
720,3247.856928043393
721,3247.856928043393
784,0.0
785,0.0
848,0.0
849,0.0
1121,4628.590921769707
1135,1658.8120180840986
1161,32.41884918391773
1163,0.0
1166,289.74062191505527
1168,289.74062191505527
2,3,12,17, 0,11, 0.00,60.00,Wednesday
7,-8.3
545,19.847579013222948
546,0.9391577437334623
547,13.636001868174638
548,152.81853166065235
720,2411.3183559953195
721,2411.3183559953195
784,0.0
785,0.0
848,0.0
849,0.0
1121,3778.6435603413383
1135,1392.1617489629668
1161,27.190746554763855
1163,32.253474511041055
1166,0.0
1168,0.0
2,3,12,17, 0,12, 0.00,60.00,Wednesday
7,-7.0
545,19.8696434753228
546,2.155173796278964
547,13.597448973037272
548,120.8354533781839
720,1986.6136055319548
721,1986.6136055319548
784,0.0
785,0.0
848,0.0
849,0.0
1121,3030.7452207190577
1135,1112.75907810976
1161,23.859732445881924
1163,67.37800488718516
1166,0.0
1168,0.0
2,3,12,17, 0,13, 0.00,60.00,Wednesday
7,-5.0
545,19.905533385909177
546,2.7724035900777553
547,13.581123457683836
548,99.02114910615278
720,1806.6131073415127
721,1806.6131073415127
784,0.0
785,0.0
848,0.0
849,0.0
1121,2630.178587195467
1135,936.6427618154992
1161,10.575724965020829
1163,91.74657194192098
1166,0.0
1168,0.0
2,3,12,17, 0,14, 0.00,60.00,Wednesday
7,-5.0
545,19.797877987055507
546,2.6112348169141497
547,13.565842494445553
548,76.35757915318308
720,1375.5293750530273
721,1375.5293750530273
784,0.0
785,0.0
848,0.0
849,0.0
1121,1998.7803415719861
1135,722.835638846548
1161,8.153607343449348
1163,116.52318246009594
1166,0.0
1168,0.0
2,3,12,17, 0,15, 0.00,60.00,Wednesday
7,-4.4
545,19.924300171428108
546,3.668182467537571
547,13.556346402668972
548,45.14551406763249
720,799.6359666886729
721,799.6359666886729
784,0.0
785,0.0
848,0.0
849,0.0
1121,1197.9918901770036
1135,434.0095591824935
1161,0.021747748557233996
1163,150.7940135692126
1166,0.0
1168,0.0
2,3,12,17, 0,16, 0.00,60.00,Wednesday
7,-6.1
545,19.845639817238276
546,2.962049165792143
547,13.567712987451062
548,25.568996816019883
720,408.26769517279536
721,408.26769517279536
784,0.0
785,0.0
848,0.0
849,0.0
1121,633.8121572636065
1135,241.76421342990102
1161,1.08305817092861
1163,172.0941538912029
1166,0.0
1168,0.0
2,3,12,17, 0,17, 0.00,60.00,Wednesday
7,-6.1
545,19.785590653997723
546,1.272984540221845
547,13.596790756604905
548,17.47150195792473
720,286.03097800702017
721,286.03097800702017
784,0.0
785,0.0
848,0.0
849,0.0
1121,431.15116086903373
1135,164.95551615403826
1161,0.7400619552708049
1163,180.93172131552677
1166,0.0
1168,0.0
2,3,12,17, 0,18, 0.00,60.00,Wednesday
7,-7.2
545,19.735199730523313
546,-1.1048808107217514
547,13.658711690375158
548,62.15585741280918
720,1132.6728696425635
721,1132.6728696425635
784,0.0
785,0.0
848,0.0
849,0.0
1121,1515.050868196583
1135,577.2659237364801
1161,5.96920732827682
1163,132.02245723595186
1166,0.0
1168,0.0
2,3,12,17, 0,19, 0.00,60.00,Wednesday
7,-8.9
545,19.50703125078564
546,-3.392589622967644
547,13.669843148182398
548,81.70728186366676
720,1341.0802770026967
721,1341.0802770026967
784,0.0
785,0.0
848,0.0
849,0.0
1121,1914.9313901572682
1135,746.9621912908751
1161,8.247007397093016
1163,110.56774920407058
1166,0.0
1168,0.0
2,3,12,17, 0,20, 0.00,60.00,Wednesday
7,-9.4
545,19.550526050329903
546,-4.461864113287497
547,13.658476148144036
548,97.60264128122115
720,1524.5951411413516
721,1524.5951411413516
784,0.0
785,0.0
848,0.0
849,0.0
1121,2272.768927534106
1135,882.8941237125082
1161,11.733284516254171
1163,93.05816901786257
1166,0.0
1168,0.0
2,3,12,17, 0,21, 0.00,60.00,Wednesday
7,-10.6
545,19.44945171239443
546,-5.760270525160633
547,13.632115836366896
548,130.11897722748637
720,1953.5278206678086
721,1953.5278206678086
784,0.0
785,0.0
848,0.0
849,0.0
1121,2975.7036921239633
1135,1164.2735699918544
1161,17.395823912181577
1163,57.2517823454539
1166,0.0
1168,0.0
2,3,12,17, 0,22, 0.00,60.00,Wednesday
7,-11.1
545,19.40783369475383
546,-6.146766346436203
547,13.58827988430844
548,170.33503144295565
720,2527.153505007409
721,2527.153505007409
784,0.0
785,0.0
848,0.0
849,0.0
1121,3933.9339285742835
1135,1512.3546740254706
1161,25.22111202892901
1163,12.941809131569503
1166,0.0
1168,0.0
2,3,12,17, 0,23, 0.00,60.00,Wednesday
7,-11.1
545,18.8855083421872
546,-6.962414885213715
547,13.520924281483499
548,161.27090531742505
720,2238.9758722130846
721,2238.9758722130846
784,0.0
785,0.0
848,0.0
849,0.0
1121,3703.0012312321664
1135,1430.768806497705
1161,23.87895959047549
1163,22.896192059602093
1166,0.0
1168,0.0
2,3,12,17, 0,24, 0.00,60.00,Wednesday
7,-12.2
545,18.640110648659398
546,-7.186981217214895
547,13.419428241345093
548,183.49834054458287
720,2912.765439432498
721,2912.765439432498
784,0.0
785,0.0
848,0.0
849,0.0
1121,4104.472016802109
1135,1569.3607484828465
1161,38.23912392729216
1163,0.0
1166,539.4077792753737
1168,539.4077792753737
2,4,12,18, 0, 1, 0.00,60.00,Thursday
7,-12.2
545,18.5998415784546
546,-7.365454659907597
547,13.330599006059625
548,183.49834054458287
720,3615.298769800507
721,3615.298769800507
784,0.0
785,0.0
848,0.0
849,0.0
1121,4083.2697013576076
1135,1551.5304062958094
1161,46.6695624870581
1163,0.0
1166,1401.1878039381827
1168,1401.1878039381827
2,4,12,18, 0, 2, 0.00,60.00,Thursday
7,-12.2
545,18.588595745453475
546,-6.980262221703506
547,13.240523930831612
548,183.49834054458287
720,4044.835988654462
721,4044.835988654462
784,0.0
785,0.0
848,0.0
849,0.0
1121,4060.8891530890214
1135,1541.308061344164
1161,53.77760228075524
1163,0.0
1166,1943.7240402953257
1168,1943.7240402953257
2,4,12,18, 0, 3, 0.00,60.00,Thursday
7,-12.2
545,18.590558829262267
546,-6.517613048280491
547,13.146203426525688
548,183.49834054458287
720,4230.771399173365
721,4230.771399173365
784,0.0
785,0.0
848,0.0
849,0.0
1121,4057.4072754153767
1135,1539.3870467364723
1161,54.95222955423407
1163,0.0
1166,2155.5043672784045
1168,2155.5043672784045
2,4,12,18, 0, 4, 0.00,60.00,Thursday
7,-11.1
545,18.58352359791104
546,-6.549234867535765
547,13.056951806489153
548,183.49834054458287
720,4801.725334307963
721,4801.725334307963
784,0.0
785,0.0
848,0.0
849,0.0
1121,4209.046203485568
1135,1558.2821718335474
1161,52.34605136124148
1163,0.0
1166,2647.458185363878
1168,2647.458185363878
2,4,12,18, 0, 5, 0.00,60.00,Thursday
7,-11.1
545,18.586744809414963
546,-6.379207046303627
547,12.9593460658864
548,183.49834054458287
720,4840.923333421493
721,4840.923333421493
784,0.0
785,0.0
848,0.0
849,0.0
1121,4182.568717194327
1135,1548.037092744032
1161,60.14623449923893
1163,0.0
1166,2732.0459915735382
1168,2732.0459915735382
2,4,12,18, 0, 6, 0.00,60.00,Thursday
7,-11.7
545,19.31955709678543
546,-6.0858739443086804
547,12.86029879042785
548,183.49834054458287
720,5781.291266397557
721,5781.291266397557
784,0.0
785,0.0
848,0.0
849,0.0
1121,4112.631181391565
1135,1542.4666552016133
1161,57.82127884559459
1163,0.0
1166,3872.03110723549
1168,3872.03110723549
2,4,12,18, 0, 7, 0.00,60.00,Thursday
7,-11.7
545,19.56966399240745
546,-5.921794040099337
547,12.8000035618118
548,183.49834054458287
720,5863.919392899526
721,5863.919392899526
784,0.0
785,0.0
848,0.0
849,0.0
1121,4093.2319359386897
1135,1563.3229448253244
1161,57.82611971317159
1163,0.0
1166,4053.0514102159946
1168,4053.0514102159946
2,4,12,18, 0, 8, 0.00,60.00,Thursday
7,-10.0
545,19.6702644316918
546,-5.553663041137067
547,12.731378649449901
548,183.49834054458287
720,5046.459000895062
721,5046.459000895062
784,0.0
785,0.0
848,0.0
849,0.0
1121,4442.079406819105
1135,1644.4804962951148
1161,20.242050444149452
1163,0.0
1166,2786.7166144001426
1168,2786.7166144001426
2,4,12,18, 0, 9, 0.00,60.00,Thursday
7,-7.8
545,19.699970040456755
546,-5.022461066137191
547,12.664168089865203
548,183.49834054458287
720,4824.874768755808
721,4824.874768755808
784,0.0
785,0.0
848,0.0
849,0.0
1121,4762.900427131671
1135,1685.6229729838196
1161,15.992288187357879
1163,0.0
1166,2189.1176570512225
1168,2189.1176570512225
2,4,12,18, 0,10, 0.00,60.00,Thursday
7,-6.7
545,19.734644777504332
546,-2.3828727991203236
547,12.59391222616244
548,183.49834054458287
720,3478.192891778279
721,3478.192891778279
784,0.0
785,0.0
848,0.0
849,0.0
1121,4933.201903033161
1135,1706.9003682660486
1161,12.803406473141168
1163,0.0
1166,447.30090046549003
1168,447.30090046549003
2,4,12,18, 0,11, 0.00,60.00,Thursday
7,-6.7
545,19.77181986378046
546,-0.753820131340379
547,12.526150273603376
548,178.72272125774487
720,3096.145637799218
721,3096.145637799218
784,0.0
785,0.0
848,0.0
849,0.0
1121,4789.8715320797955
1135,1667.443459362731
1161,12.499686289988665
1163,4.744365240448212
1166,0.0
1168,0.0
2,4,12,18, 0,12, 0.00,60.00,Thursday
7,-5.0
545,19.86148033750923
546,1.4329407145984214
547,12.464490255371347
548,145.33313094627798
720,2631.9125873642624
721,2631.9125873642624
784,0.0
785,0.0
848,0.0
849,0.0
1121,4003.8099425894056
1135,1376.6256372254963
1161,9.847053599857315
1163,41.29405755402846
1166,0.0
1168,0.0
2,4,12,18, 0,13, 0.00,60.00,Thursday
7,-5.3
545,19.821079399738544
546,3.9945839843043798
547,12.422631120771555
548,128.65297216122005
720,2339.6017853510093
721,2339.6017853510093
784,0.0
785,0.0
848,0.0
849,0.0
1121,3456.899776130679
1135,1212.9816835206957
1161,13.10189351863697
1163,59.358643687052215
1166,0.0
1168,0.0
2,4,12,18, 0,14, 0.00,60.00,Thursday
7,-5.6
545,19.86420107457375
546,4.317019074768929
547,12.38668621106832
548,108.9613220152137
720,1989.193549566653
721,1989.193549566653
784,0.0
785,0.0
848,0.0
849,0.0
1121,2853.0657314622026