Program Version,EnergyPlus, Version 22.2.0-c249759bad, YMD=2023.09.01 19:22
1,5,Environment Title[],Latitude[deg],Longitude[deg],Time Zone[],Elevation[m]
2,8,Day of Simulation[],Month[],Day of Month[],DST Indicator[1=yes 0=no],Hour[],StartMinute[],EndMinute[],DayType
3,5,Cumulative Day of Simulation[],Month[],Day of Month[],DST Indicator[1=yes 0=no],DayType  ! When Daily Report Variables Requested
4,2,Cumulative Days of Simulation[],Month[]  ! When Monthly Report Variables Requested
5,1,Cumulative Days of Simulation[] ! When Run Period Report Variables Requested
6,1,Calendar Year of Simulation[] ! When Annual Report Variables Requested
618,11,DX_HEATING_COIL,Heating Coil Heating Energy [J] !RunPeriod [Value,Min,Month,Day,Hour,Minute,Max,Month,Day,Hour,Minute]
631,11,DX_HEATING_COIL,Heating Coil Electricity Energy [J] !RunPeriod [Value,Min,Month,Day,Hour,Minute,Max,Month,Day,Hour,Minute]
656,11,DX_HEATING_COIL,Heating Coil Defrost Electricity Energy [J] !RunPeriod [Value,Min,Month,Day,Hour,Minute,Max,Month,Day,Hour,Minute]
657,11,DX_HEATING_COIL,Heating Coil Crankcase Heater Electricity Energy [J] !RunPeriod [Value,Min,Month,Day,Hour,Minute,Max,Month,Day,Hour,Minute]
684,11,HEAT PUMP WATER HEATER EVAPORATOR,Cooling Coil Total Water Heating Energy [J] !RunPeriod [Value,Min,Month,Day,Hour,Minute,Max,Month,Day,Hour,Minute]
685,11,HEAT PUMP WATER HEATER EVAPORATOR,Cooling Coil Water Heating Electricity Energy [J] !RunPeriod [Value,Min,Month,Day,Hour,Minute,Max,Month,Day,Hour,Minute]
712,11,LIVING,AFN Zone Infiltration Air Change Rate [ach] !RunPeriod [Value,Min,Month,Day,Hour,Minute,Max,Month,Day,Hour,Minute]
713,11,ATTIC,AFN Zone Infiltration Air Change Rate [ach] !RunPeriod [Value,Min,Month,Day,Hour,Minute,Max,Month,Day,Hour,Minute]
714,11,CRAWLSPACE,AFN Zone Infiltration Air Change Rate [ach] !RunPeriod [Value,Min,Month,Day,Hour,Minute,Max,Month,Day,Hour,Minute]
1157,11,Facility,Facility Heating Setpoint Not Met Time [hr] !RunPeriod [Value,Min,Month,Day,Hour,Minute,Max,Month,Day,Hour,Minute]
1158,11,Facility,Facility Cooling Setpoint Not Met Time [hr] !RunPeriod [Value,Min,Month,Day,Hour,Minute,Max,Month,Day,Hour,Minute]
1184,11,HEATING_RESISTANCE_BACKUP,Heating Coil Heating Energy [J] !RunPeriod [Value,Min,Month,Day,Hour,Minute,Max,Month,Day,Hour,Minute]
1185,11,HEATING_RESISTANCE_BACKUP,Heating Coil Electricity Energy [J] !RunPeriod [Value,Min,Month,Day,Hour,Minute,Max,Month,Day,Hour,Minute]
1321,11,WATER HEATER TANK,Water Heater Heat Loss Energy [J] !RunPeriod [Value,Min,Month,Day,Hour,Minute,Max,Month,Day,Hour,Minute]
1335,11,WATER HEATER TANK,Water Heater Heating Energy [J] !RunPeriod [Value,Min,Month,Day,Hour,Minute,Max,Month,Day,Hour,Minute]
1336,11,WATER HEATER TANK,Water Heater Unmet Demand Heat Transfer Energy [J] !RunPeriod [Value,Min,Month,Day,Hour,Minute,Max,Month,Day,Hour,Minute]
1337,11,WATER HEATER TANK,Water Heater Electricity Energy [J] !RunPeriod [Value,Min,Month,Day,Hour,Minute,Max,Month,Day,Hour,Minute]
13,11,Electricity:Facility [J] !RunPeriod [Value,Min,Month,Day,Hour,Minute,Max,Month,Day,Hour,Minute]
637,11,Heating:Electricity [J] !RunPeriod [Value,Min,Month,Day,Hour,Minute,Max,Month,Day,Hour,Minute]
599,11,Cooling:Electricity [J] !RunPeriod [Value,Min,Month,Day,Hour,Minute,Max,Month,Day,Hour,Minute]
692,11,Fans:Electricity [J] !RunPeriod [Value,Min,Month,Day,Hour,Minute,Max,Month,Day,Hour,Minute]
1374,11,Pumps:Electricity [J] !RunPeriod [Value,Min,Month,Day,Hour,Minute,Max,Month,Day,Hour,Minute]
677,11,WaterSystems:Electricity [J] !RunPeriod [Value,Min,Month,Day,Hour,Minute,Max,Month,Day,Hour,Minute]
61,11,InteriorLights:Electricity [J] !RunPeriod [Value,Min,Month,Day,Hour,Minute,Max,Month,Day,Hour,Minute]
1165,11,ExteriorLights:Electricity [J] !RunPeriod [Value,Min,Month,Day,Hour,Minute,Max,Month,Day,Hour,Minute]
134,11,InteriorEquipment:Electricity [J] !RunPeriod [Value,Min,Month,Day,Hour,Minute,Max,Month,Day,Hour,Minute]
170,11,gas_dryer:InteriorEquipment:Electricity [J] !RunPeriod [Value,Min,Month,Day,Hour,Minute,Max,Month,Day,Hour,Minute]
207,11,clotheswasher:InteriorEquipment:Electricity [J] !RunPeriod [Value,Min,Month,Day,Hour,Minute,Max,Month,Day,Hour,Minute]
244,11,dishwasher:InteriorEquipment:Electricity [J] !RunPeriod [Value,Min,Month,Day,Hour,Minute,Max,Month,Day,Hour,Minute]
281,11,refrigerator:InteriorEquipment:Electricity [J] !RunPeriod [Value,Min,Month,Day,Hour,Minute,Max,Month,Day,Hour,Minute]
318,11,electric_mels:InteriorEquipment:Electricity [J] !RunPeriod [Value,Min,Month,Day,Hour,Minute,Max,Month,Day,Hour,Minute]
355,11,NaturalGas:Facility [J] !RunPeriod [Value,Min,Month,Day,Hour,Minute,Max,Month,Day,Hour,Minute]
403,11,InteriorEquipment:NaturalGas [J] !RunPeriod [Value,Min,Month,Day,Hour,Minute,Max,Month,Day,Hour,Minute]
476,11,gas_dryer:InteriorEquipment:NaturalGas [J] !RunPeriod [Value,Min,Month,Day,Hour,Minute,Max,Month,Day,Hour,Minute]
513,11,gas_mels:InteriorEquipment:NaturalGas [J] !RunPeriod [Value,Min,Month,Day,Hour,Minute,Max,Month,Day,Hour,Minute]
End of Data Dictionary
1,EXTREME_WINTER,  43.60,-110.73,  -7.00,1966.00
5,7
1157,6.25,0.0, 1, 1, 1,15,0.25, 1, 1, 6,15
1158,0.0,0.0, 1, 1, 1,15,0.0, 1, 1, 1,15
618,2066292908.908912,0.0, 1, 5,23, 5,4096317.210279031, 1, 7, 4,60
631,830277583.8783159,0.0, 1, 5,23, 5,1366109.2105418579, 1, 6,14,15
656,17082332.07562881,0.0, 1, 5,23, 5,80476.25299827599, 1, 7, 1,60
657,4492238.577156507,0.0, 1, 1, 1,15,117008.09068748954, 1, 7,13,30
684,307033527.5554085,0.0, 1, 1, 1,15,1195392.833560231, 1, 7, 9,45
685,97543566.32251275,0.0, 1, 1, 1,15,348953.12581926334, 1, 7, 5,60
712,0.44994581909888137,0.26876651559867926, 1, 7,15,60,0.8692221399375963, 1, 6, 5,60
713,1.9866522101743653,0.05225674480607613, 1, 7,18,60,12.274882096003328, 1, 6, 5,60
714,0.08111461638959086,0.0004372447411593294, 1, 5,23, 5,0.09263449392432964, 1, 6, 5,60
1184,1815088351.7822993,0.0, 1, 1,15,37,6115338.142497156, 1, 1, 8,30
1185,1815088351.7822993,0.0, 1, 1,15,37,6115338.142497156, 1, 1, 8,30
1321,-132888217.54538566,-256209.60230857716, 1, 1, 1,15,-11046.196091681775, 1, 4,10,33
1335,4343773.349426187,0.0, 1, 1, 1,15,617808.6903275856, 1, 6,11,45
1336,141998271.87204856,11930.637173086394, 1, 3,18, 3,2295357.383207064, 1, 7, 9,30
1337,4343773.349426187,0.0, 1, 1, 1,15,617808.6903275856, 1, 6,11,45
13,3253172830.726351,877928.0276834746, 1, 7,12,45,8819707.821860299, 1, 3,22,60
61,301924526.02383536,88139.10953165221, 1, 1, 1,15,1282023.4113694867, 1, 1,20,15
134,70666020.44019976,63564.01800854099, 1, 1, 4,15,156554.22484006523, 1, 6,20,15
170,5241013.419656067,348.4159749238097, 1, 1, 4,15,17476.39704006126, 1, 6,12,15
207,6509451.13922267,815.2532113832032, 1, 1, 3,15,22990.642799023623, 1, 6,10,15
244,12749673.399825225,1521.856143006317, 1, 1, 4,15,53038.631142310165, 1, 6,20,15
281,46165882.481495745,59938.60262432081, 1, 1, 5,15,81951.81706819107, 1, 1,19,15
318,0.0,0.0, 1, 1, 1,15,0.0, 1, 1, 1,15
355,197687796.27748066,18561.32405820678, 1, 1, 4,15,724774.895203776, 1, 6,18,15
403,197687796.27748066,18561.32405820678, 1, 1, 4,15,724774.895203776, 1, 6,18,15
476,106772067.24485716,7098.072629279515, 1, 1, 4,15,356036.3026282215, 1, 6,12,15
513,0.0,0.0, 1, 1, 1,15,0.0, 1, 1, 1,15
599,0.0,0.0, 1, 1, 1,15,0.0, 1, 1, 1,15
637,2666940506.3133984,536273.490121372, 1, 7,12,45,7373873.941394377, 1, 1, 9,15
677,107028139.67193894,7650.0, 1, 1, 1,15,1265876.493993414, 1, 6,11,45
692,106613638.27697673,42868.419347334595, 1, 7,12,45,178433.89044199284, 1, 1, 4,15
1165,0.0,0.0, 1, 1, 1,15,0.0, 1, 1, 1,15
1374,0.0,0.0, 1, 1, 1,15,0.0, 1, 1, 1,15
1,EXTREME_SUMMER,  43.60,-110.73,  -7.00,1966.00
5,7
1157,0.0,0.0, 7, 8, 1,15,0.0, 7, 8, 1,15
1158,0.0,0.0, 7, 8, 1,15,0.0, 7, 8, 1,15
618,0.0,0.0, 7, 8, 1, 5,0.0, 7, 8, 1, 5
631,0.0,0.0, 7, 8, 1, 5,0.0, 7, 8, 1, 5
656,0.0,0.0, 7, 8, 1, 5,0.0, 7, 8, 1, 5
657,10797130.00464514,0.0, 7, 8, 1, 5,180000.0, 7, 8, 6,45
684,273985889.2529774,0.0, 7, 8, 1, 5,1448768.7031493546, 7,11,19,45
685,71582277.46172424,0.0, 7, 8, 1, 5,382030.2822300024, 7, 9, 6,30
712,0.18895724360478564,0.012068058998171175, 7,11, 9,47,0.9471192340684305, 7,12,19,48
713,2.6336190093860767,0.0, 7, 8, 6,60,16.359035493233893, 7,12,19,48
714,0.020989432428433267,0.00004304761808445564, 7, 9, 8, 8,0.07134349468030898, 7, 8,18,18
1184,0.0,0.0, 7, 8, 1, 5,0.0, 7, 8, 1, 5
1185,0.0,0.0, 7, 8, 1, 5,0.0, 7, 8, 1, 5
1321,-119595024.981781,-236865.15031441022, 7,12, 5,45,-5093.941331989119, 7,13,10,30
1335,1070770.0469916756,0.0, 7, 8, 1, 5,168687.82525794953, 7,11,11,40
1336,133819200.48204385,6864.854456638117, 7, 8, 9,15,1575435.972621512, 7, 9, 7, 7
1337,1070770.0469916756,0.0, 7, 8, 1, 5,168687.82525794953, 7,11,11,40
13,718156736.9972059,159353.1275401932, 7, 8, 4,15,3021634.05074116, 7, 8,19,15
61,301924526.02383536,88139.10953165221, 7, 8, 1,15,1282023.4113694867, 7, 8,20,15
134,70666020.44019976,63564.01800854099, 7, 8, 4,15,156554.22484006523, 7,13,20,15
170,5241013.419656067,348.4159749238097, 7, 8, 4,15,17476.39704006126, 7,13,12,15
207,6509451.13922267,815.2532113832032, 7, 8, 3,15,22990.642799023623, 7,13,10,15
244,12749673.399825225,1521.856143006317, 7, 8, 4,15,53038.631142310165, 7,13,20,15
281,46165882.481495745,59938.60262432081, 7, 8, 5,15,81951.81706819107, 7, 8,19,15
318,0.0,0.0, 7, 8, 1,15,0.0, 7, 8, 1,15
355,197687796.27748066,18561.32405820678, 7, 8, 4,15,724774.895203776, 7,13,18,15
403,197687796.27748066,18561.32405820678, 7, 8, 4,15,724774.895203776, 7,13,18,15
476,106772067.24485716,7098.072629279515, 7, 8, 4,15,356036.3026282215, 7,13,12,15
513,0.0,0.0, 7, 8, 1,15,0.0, 7, 8, 1,15
599,224294510.72640112,0.0, 7, 8, 3,15,1416443.6966845733, 7, 8,18,30
637,10797130.00464514,0.0, 7, 8, 1,15,180000.0, 7, 8, 5,45
677,77793847.50871597,7650.0, 7, 8, 1,15,603701.6657324976, 7,11,11,45
692,32680702.293409284,0.0, 7, 8, 3,15,156473.32827973022, 7, 8,19,15
1165,0.0,0.0, 7, 8, 1,15,0.0, 7, 8, 1,15
1374,0.0,0.0, 7, 8, 1,15,0.0, 7, 8, 1,15
1,ANNUAL,  43.60,-110.73,  -7.00,1966.00
5,365
1157,67.75,0.0, 1, 1, 1,15,0.25, 1, 1, 6,15
1158,0.25,0.0, 1, 1, 1,15,0.25, 7, 8,18,30
618,50909741233.15202,0.0, 1, 5,23, 3,5442752.653436891,12, 3,10,60
631,17391568518.33218,0.0, 1, 5,23, 3,1553057.2673513205,12, 3,10,60
656,702790656.6183337,0.0, 1, 5,23, 3,166986.73405093185, 3, 3, 4,60
657,2078304579.6079519,0.0, 1, 1, 1,15,180000.0, 1,29,15,45
684,15620481781.355328,0.0, 1, 1, 1,15,1517668.6443113927, 7,29,19,45
685,4518835711.916614,0.0, 1, 1, 1,15,395800.4372673567, 7,29,18,15
712,0.3217244742723317,0.009798363841692843, 7,11, 9,46,1.8230541612546083, 5,10,17,48
713,3.3979565177056394,0.0, 1,12,22,15,42.239921342661944, 5,10,17,48
714,0.03625707612784211,0.00001744163513027743, 7,12, 7,39,0.10168064345022636, 3,17,14,50
1184,16043969118.133419,0.0, 1, 1,16,22,6115338.142497156, 1, 2, 9,30
1185,16043969118.133419,0.0, 1, 1,16,22,6115338.142497156, 1, 2, 9,30
1321,-6697529490.1012745,-256156.00913237612, 1, 1, 1,15,-4492.379459615568, 4,15,10,29
1335,114086234.55098522,0.0, 1, 1, 1,15,1272866.8178867316, 2,18,11,45
1336,7233830097.691352,2790.0820412853973, 3,30,13,38,2825916.2469516895, 1, 1, 9,30
1337,114086234.55098522,0.0, 1, 1, 1,15,1272866.8178867316, 2,18,11,45
13,66157675742.31644,159353.1275401932, 6,27, 4,15,8559144.960284805, 2,25, 8,45
61,15743207428.383959,88139.10953165221, 1, 1, 1,15,1282023.4113694867, 1, 1,20,15
134,3685071073.4325233,63564.01800854099, 1, 2, 4,15,156554.22484006523, 1, 1,20,15
170,273393721.45532674,348.4159749238097, 1, 2, 4,15,17476.39704006126, 1, 1,12,15
207,339560869.0695816,815.2532113832032, 1, 2, 3,15,22990.642799023623, 1, 1,10,15
244,664895467.8009144,1521.856143006317, 1, 2, 4,15,53038.631142310165, 1, 1,20,15
281,2407221015.106824,59938.60262432081, 1, 1, 5,15,81951.81706819107, 1, 1,19,15
318,0.0,0.0, 1, 1, 1,15,0.0, 1, 1, 1,15
355,10310294493.051695,18561.32405820678, 1, 2, 4,15,724774.895203776, 1, 1,18,15
403,10310294493.051695,18561.32405820678, 1, 2, 4,15,724774.895203776, 1, 1,18,15
476,5569688622.066177,7098.072629279515, 1, 2, 4,15,356036.3026282215, 1, 1,12,15
513,0.0,0.0, 1, 1, 1,15,0.0, 1, 1, 1,15
599,2918228743.0767817,0.0, 1, 1, 1,15,1463290.299152745, 7,23,18,15
637,36216632872.69192,0.0, 4, 4,14,60,7411736.036996812, 1,23, 7,45
677,4900977946.467532,7650.0, 1, 1, 1,15,1533917.6556697844, 2,18,11,45
692,2693557678.2623835,0.0, 1,29,16,30,178433.89044199284, 1, 1, 4,15
1165,0.0,0.0, 1, 1, 1,15,0.0, 1, 1, 1,15
1374,0.0,0.0, 1, 1, 1,15,0.0, 1, 1, 1,15
End of Data
 Number of Records Written=         105
