Program Version,EnergyPlus, Version 22.2.0-c249759bad, YMD=2023.09.01 14:30
1,5,Environment Title[],Latitude[deg],Longitude[deg],Time Zone[],Elevation[m]
2,8,Day of Simulation[],Month[],Day of Month[],DST Indicator[1=yes 0=no],Hour[],StartMinute[],EndMinute[],DayType
3,5,Cumulative Day of Simulation[],Month[],Day of Month[],DST Indicator[1=yes 0=no],DayType  ! When Daily Report Variables Requested
4,2,Cumulative Days of Simulation[],Month[]  ! When Monthly Report Variables Requested
5,1,Cumulative Days of Simulation[] ! When Run Period Report Variables Requested
6,1,Calendar Year of Simulation[] ! When Annual Report Variables Requested
7,1,Environment,Site Outdoor Air Drybulb Temperature [C] !Hourly
619,1,DX_HEATING_COIL,Heating Coil Heating Rate [W] !Hourly
633,1,DX_HEATING_COIL,Heating Coil Electricity Rate [W] !Hourly
659,1,DX_HEATING_COIL,Heating Coil Defrost Electricity Rate [W] !Hourly
661,1,DX_HEATING_COIL,Heating Coil Crankcase Heater Electricity Rate [W] !Hourly
690,1,FAN,Fan Electricity Rate [W] !Hourly
716,1,HEAT PUMP WATER HEATER FAN,Fan Electricity Rate [W] !Hourly
718,1,LIVING,Zone Mean Air Temperature [C] !Hourly
719,1,ATTIC,Zone Mean Air Temperature [C] !Hourly
720,1,CRAWLSPACE,Zone Mean Air Temperature [C] !Hourly
843,1,LIVING,Zone Predicted Sensible Load to Heating Setpoint Heat Transfer Rate [W] !Hourly
844,1,LIVING,Zone System Predicted Sensible Load to Heating Setpoint Heat Transfer Rate [W] !Hourly
907,1,ATTIC,Zone Predicted Sensible Load to Heating Setpoint Heat Transfer Rate [W] !Hourly
908,1,ATTIC,Zone System Predicted Sensible Load to Heating Setpoint Heat Transfer Rate [W] !Hourly
971,1,CRAWLSPACE,Zone Predicted Sensible Load to Heating Setpoint Heat Transfer Rate [W] !Hourly
972,1,CRAWLSPACE,Zone System Predicted Sensible Load to Heating Setpoint Heat Transfer Rate [W] !Hourly
1195,1,HEATING_RESISTANCE_BACKUP,Heating Coil Heating Rate [W] !Hourly
1197,1,HEATING_RESISTANCE_BACKUP,Heating Coil Electricity Rate [W] !Hourly
End of Data Dictionary
1,EXTREME_WINTER,  32.28,-106.92,  -7.00,1358.00
2,1, 1,13, 0, 1, 0.00,60.00,Monday
7,2.0
718,20.031568277804404
719,3.6931776409401924
720,18.93607161651737
619,0.0
633,0.0
659,0.0
661,200.0
690,0.0
716,0.0
843,-1077.361329132098
844,-1077.361329132098
907,0.0
908,0.0
971,0.0
972,0.0
1195,0.0
1197,0.0
2,1, 1,13, 0, 2, 0.00,60.00,Monday
7,4.0
718,19.550898761391384
719,3.1044119544854007
720,18.604609274373637
619,0.0
633,0.0
659,0.0
661,200.0
690,0.0
716,0.0
843,-725.8408191347171
844,-725.8408191347171
907,0.0
908,0.0
971,0.0
972,0.0
1195,0.0
1197,0.0
2,1, 1,13, 0, 3, 0.00,60.00,Monday
7,4.0
718,19.07893661430944
719,1.9377448312812842
720,18.416881028245715
619,0.0
633,0.0
659,0.0
661,200.0
690,0.0
716,0.0
843,-322.48954804429195
844,-322.48954804429195
907,0.0
908,0.0
971,0.0
972,0.0
1195,0.0
1197,0.0
2,1, 1,13, 0, 4, 0.00,60.00,Monday
7,2.0
718,18.639666731174707
719,-0.04698441701693735
720,18.214087839323128
619,227.12168039796325
633,73.76827348418622
659,0.003528522035933636
661,192.39200487979303
690,7.324813273148294
716,0.0
843,156.83374185403773
844,156.83374185403773
907,0.0
908,0.0
971,0.0
972,0.0
1195,0.0
1197,0.0
2,1, 1,13, 0, 5, 0.00,60.00,Monday
7,2.0
718,18.636521706441744
719,-1.5433121440099686
720,18.030606514221706
619,523.3926755188302
633,167.23003864466608
659,0.008070028732899253
661,182.59987082563816
690,16.75246847731463
716,0.0
843,398.57130828649406
844,398.57130828649406
907,0.0
908,0.0
971,0.0
972,0.0
1195,0.0
1197,0.0
2,1, 1,13, 0, 6, 0.00,60.00,Monday
7,4.0
718,19.399358835059743
719,1.1986114532873409
720,17.8454522723014
619,1690.419618460334
633,512.1083637487394
659,0.024254828885636227
661,147.70314088330502
690,50.3503850138466
716,0.0
843,1252.1090502133848
844,1252.1090502133848
907,0.0
908,0.0
971,0.0
972,0.0
1195,0.0
1197,0.0
2,1, 1,13, 0, 7, 0.00,60.00,Monday
7,3.0
718,19.635544140935167
719,0.9426429228548112
720,17.685129357939196
619,3201.916979728323
633,977.1253151126463
659,0.046056686296052175
661,100.69523697885792
690,95.60857555604787
716,85.44000000000007
843,1543.2005328344185
844,1543.2005328344185
907,0.0
908,0.0
971,0.0
972,0.0
1195,0.0
1197,0.0
2,1, 1,13, 0, 8, 0.00,60.00,Monday
7,-1.0
718,19.59587445124982
719,0.8946857251733243
720,17.524403691333188
619,3051.5662647140052
633,1002.6128993447467
659,0.04876321658438741
661,94.85957291989777
690,101.22658898502013
716,75.08681071324717
843,1443.910577678851
844,1443.910577678851
907,0.0
908,0.0
971,0.0
972,0.0
1195,0.0
1197,0.0
2,1, 1,13, 0, 9, 0.00,60.00,Monday
7,3.0
718,19.922034192268764
719,2.681567175870934
720,17.42170780641101
619,1018.692748632879
633,324.436772155865
659,0.015233629426452955
661,167.15412936089854
690,31.62332599436031
716,0.0
843,763.1078976207737
844,763.1078976207737
907,0.0
908,0.0
971,0.0
972,0.0
1195,0.0
1197,0.0
2,1, 1,13, 0,10, 0.00,60.00,Monday
7,6.0
718,19.657942940427617
719,7.251040427928188
720,17.306557978745765
619,29.116374618244464
633,8.318327553770104
659,0.0
661,199.22493652810996
690,0.7462179005504403
716,0.0
843,20.02589475676359
844,20.02589475676359
907,0.0
908,0.0
971,0.0
972,0.0
1195,0.0
1197,0.0
2,1, 1,13, 0,11, 0.00,60.00,Monday
7,7.0
718,19.777360120532403
719,9.902406473398742
720,17.223693399963828
619,65.88523003261223
633,18.423940010491545
659,0.0
661,198.29270451859426
690,1.6437549903456279
716,0.0
843,53.29517032131116
844,53.29517032131116
907,0.0
908,0.0
971,0.0
972,0.0
1195,0.0
1197,0.0
2,1, 1,13, 0,12, 0.00,60.00,Monday
7,9.0
718,20.534280210156933
719,14.323032700507543
720,17.15863971723753
619,0.0
633,0.0
659,0.0
661,200.0
690,0.0
716,0.0
843,-340.8392320511866
844,-340.8392320511866
907,0.0
908,0.0
971,0.0
972,0.0
1195,0.0
1197,0.0
2,1, 1,13, 0,13, 0.00,60.00,Monday
7,11.0
718,20.573979765100695
719,15.572681097321066
720,17.110841110192386
619,0.0
633,0.0
659,0.0
661,0.0
690,0.0
716,0.0
843,-617.5467534439977
844,-617.5467534439977
907,0.0
908,0.0
971,0.0
972,0.0
1195,0.0
1197,0.0
2,1, 1,13, 0,14, 0.00,60.00,Monday
7,12.0
718,20.317944377317673
719,18.725537368385837
720,17.0820853836517
619,0.0
633,0.0
659,0.0
661,0.0
690,0.0
716,76.54735523885235
843,-1130.2930316154252
844,-1130.2930316154252
907,0.0
908,0.0
971,0.0
972,0.0
1195,0.0
1197,0.0
2,1, 1,13, 0,15, 0.00,60.00,Monday
7,12.0
718,22.532357336520448
719,21.199867347408258
720,17.073339008507297
619,0.0
633,0.0
659,0.0
661,0.0
690,0.0
716,0.0
843,-2410.6534923973923
844,-2410.6534923973923
907,0.0
908,0.0
971,0.0
972,0.0
1195,0.0
1197,0.0
2,1, 1,13, 0,16, 0.00,60.00,Monday
7,13.0
718,23.291302657296228
719,21.360719831604868
720,17.102802750464367
619,0.0
633,0.0
659,0.0
661,0.0
690,11.363973134107523
716,0.0
843,-3054.7519695803167
844,-3054.7519695803167
907,0.0
908,0.0
971,0.0
972,0.0
1195,0.0
1197,0.0
2,1, 1,13, 0,17, 0.00,60.00,Monday
7,13.0
718,23.356139375098383
719,20.543241941840392
720,17.172699669464986
619,0.0
633,0.0
659,0.0
661,0.0
690,27.630034524986094
716,0.0
843,-3756.6275171355883
844,-3756.6275171355883
907,0.0
908,0.0
971,0.0
972,0.0
1195,0.0
1197,0.0
2,1, 1,13, 0,18, 0.00,60.00,Monday
7,12.0
718,23.17964164853822
719,16.346430151485098
720,17.210159641280207
619,0.0
633,0.0
659,0.0
661,0.0
690,14.103525438596154
716,0.0
843,-3659.810564919011
844,-3659.810564919011
907,0.0
908,0.0
971,0.0
972,0.0
1195,0.0
1197,0.0
2,1, 1,13, 0,19, 0.00,60.00,Monday
7,8.0
718,22.305373082631327
719,12.567689376122654
720,17.2429245582796
619,0.0
633,0.0
659,0.0
661,200.0
690,0.0
716,85.44000000000007
843,-3047.1568440912215
844,-3047.1568440912215
907,0.0
908,0.0
971,0.0
972,0.0
1195,0.0
1197,0.0
2,1, 1,13, 0,20, 0.00,60.00,Monday
7,7.0
718,21.945008122115375
719,9.68316853830947
720,17.26641804946313
619,0.0
633,0.0
659,0.0
661,200.0
690,0.0
716,85.44000000000007
843,-2955.2224370930508
844,-2955.2224370930508
907,0.0
908,0.0
971,0.0
972,0.0
1195,0.0
1197,0.0
2,1, 1,13, 0,21, 0.00,60.00,Monday
7,7.0
718,22.347465458400674
719,8.152208044681577
720,17.262628940150734
619,0.0
633,0.0
659,0.0
661,200.0
690,0.0
716,9.07870646307066
843,-2461.993280308052
844,-2461.993280308052
907,0.0
908,0.0
971,0.0
972,0.0
1195,0.0
1197,0.0
2,1, 1,13, 0,22, 0.00,60.00,Monday
7,7.0
718,22.160808401108593
719,7.681320531184228
720,17.238430152461245
619,0.0
633,0.0
659,0.0
661,200.0
690,0.0
716,0.0
843,-1798.338890058838
844,-1798.338890058838
907,0.0
908,0.0
971,0.0
972,0.0
1195,0.0
1197,0.0
2,1, 1,13, 0,23, 0.00,60.00,Monday
7,6.0
718,21.332256655477615
719,6.954344776458485
720,17.197558071201374
619,0.0
633,0.0
659,0.0
661,200.0
690,0.0
716,0.0
843,-1949.8756142319653
844,-1949.8756142319653
907,0.0
908,0.0
971,0.0
972,0.0
1195,0.0
1197,0.0
2,1, 1,13, 0,24, 0.00,60.00,Monday
7,4.0
718,20.624136881187
719,5.633812854197929
720,17.144562643177274
619,0.0
633,0.0
659,0.0
661,200.0
690,0.0
716,0.0
843,-1549.80915961541
844,-1549.80915961541
907,0.0
908,0.0
971,0.0
972,0.0
1195,0.0
1197,0.0
2,2, 1,14, 0, 1, 0.00,60.00,Tuesday
7,4.0
718,19.929123693424412
719,4.688840047875215
720,17.079535021168578
619,0.0
633,0.0
659,0.0
661,200.0
690,0.0
716,0.0
843,-981.9766539769334
844,-981.9766539769334
907,0.0
908,0.0
971,0.0
972,0.0
1195,0.0
1197,0.0
2,2, 1,14, 0, 2, 0.00,60.00,Tuesday
7,3.0
718,19.156397837546308
719,3.598155021955832
720,17.001046786398028
619,0.0
633,0.0
659,0.0
661,200.0
690,0.0
716,0.0
843,-392.92252411511254
844,-392.92252411511254
907,0.0
908,0.0
971,0.0
972,0.0
1195,0.0
1197,0.0
2,2, 1,14, 0, 3, 0.00,60.00,Tuesday
7,2.0
718,18.631287414896164
719,2.6479965329397346
720,16.91313036418736
619,320.30456265013277
633,103.89091855897257
659,0.004967997239403135
661,189.2882917069328
690,10.31300123337561
716,0.0
843,233.42687517075865
844,233.42687517075865
907,0.0
908,0.0
971,0.0
972,0.0
1195,0.0
1197,0.0
2,2, 1,14, 0, 4, 0.00,60.00,Tuesday
7,2.0
718,18.668863512629326
719,2.273758558358494
720,16.81547639642902
619,829.7095123814162
633,263.19857632673387
659,0.012717814327467897
661,172.57858435976235
690,26.40074663822475
716,0.0
843,643.8053832582173
844,643.8053832582173
907,0.0
908,0.0
971,0.0
972,0.0
1195,0.0
1197,0.0
2,2, 1,14, 0, 5, 0.00,60.00,Tuesday
7,2.0
718,18.575634114247688
719,2.5363682229740765
720,16.71854640591979
619,1001.3893218980725
633,316.9145200817256
659,0.015303841514755438
661,167.00274211724667
690,31.76904708081162
716,0.0
843,755.2166839505426
844,755.2166839505426
907,0.0
908,0.0
971,0.0
972,0.0
1195,0.0
1197,0.0
2,2, 1,14, 0, 6, 0.00,60.00,Tuesday
7,1.0
718,19.412628072158377
719,2.4631133538404737
720,16.6067305240638
619,2349.707487558959
633,735.9470624497594
659,0.0359403127379338
661,122.50757650247677
690,74.60795258249703
716,0.0
843,1814.8932513798372
844,1814.8932513798372
907,0.0
908,0.0
971,0.0
972,0.0
1195,0.0
1197,0.0
2,2, 1,14, 0, 7, 0.00,60.00,Tuesday
7,1.0
718,19.567939161792705
719,2.775159523664791
720,16.526606415657486
619,3830.215095787155
633,1191.7227377324064
659,0.057265989459626056
661,76.52638585623043
690,118.87760016171427
716,85.44000000000007
843,2001.5160484533335
844,2001.5160484533335
907,0.0
908,0.0
971,0.0
972,0.0
1195,0.0
1197,0.0
2,2, 1,14, 0, 8, 0.00,60.00,Tuesday
7,1.0
718,19.64216789233115
719,2.5915135752347984
720,16.431248202639203
619,3859.7930305859827
633,1204.7057926276425
659,0.05771777779258992
661,75.55226598463778
690,119.81546020318646
716,85.44000000000007
843,1971.8805561999834
844,1971.8805561999834
907,0.0
908,0.0
971,0.0
972,0.0
1195,0.0
1197,0.0
2,2, 1,14, 0, 9, 0.00,60.00,Tuesday
7,4.0
718,19.777009848173286
719,4.93651206180278
720,16.35117594966108
619,2670.131994651136
633,813.3070513629189
659,0.0378369331402114
661,118.41819329373766
690,78.54535432446727
716,80.79218126098267
843,1140.3592981758175
844,1140.3592981758175
907,0.0
908,0.0
971,0.0
972,0.0
1195,0.0
1197,0.0
2,2, 1,14, 0,10, 0.00,60.00,Tuesday
7,8.0
718,19.949876226527874
719,9.301487268521996
720,16.25368984255722
619,138.51301824360894
633,38.227014616079096
659,0.0
661,196.50128080350376
690,3.3685072102009874
716,0.0
843,104.83661624241358
844,104.83661624241358
907,0.0
908,0.0
971,0.0
972,0.0
1195,0.0
1197,0.0
2,2, 1,14, 0,11, 0.00,60.00,Tuesday
7,9.0
718,20.956478059696778
719,14.916225021227596
720,16.206234505852702
619,0.0
633,0.0
659,0.0
661,200.0
690,0.0
716,0.0
843,-949.1051107721323
844,-949.1051107721323
907,0.0
908,0.0
971,0.0
972,0.0
1195,0.0
1197,0.0
2,2, 1,14, 0,12, 0.00,60.00,Tuesday
7,11.0
718,21.78070924988968
719,19.899604255006796
720,16.191472488451275
619,0.0
633,0.0
659,0.0
661,0.0
690,0.0
716,0.0
843,-1685.5293812606087
844,-1685.5293812606087
907,0.0
908,0.0
971,0.0
972,0.0
1195,0.0
1197,0.0
2,2, 1,14, 0,13, 0.00,60.00,Tuesday
7,13.0
718,22.66138647363165
719,22.41781265841835
720,16.209019373541604
619,0.0
633,0.0
659,0.0
661,0.0
690,0.0
716,0.0
843,-2344.754310574661
844,-2344.754310574661
907,0.0
908,0.0
971,0.0
972,0.0
1195,0.0
1197,0.0
2,2, 1,14, 0,14, 0.00,60.00,Tuesday
7,12.0
718,23.29880686234003
719,27.08566961045855
720,16.267884957280305
619,0.0
633,0.0
659,0.0
661,0.0
690,10.221113911619087
716,0.0
843,-3162.4420047433614
844,-3162.4420047433614
907,0.0
908,0.0
971,0.0
972,0.0
1195,0.0
1197,0.0
2,2, 1,14, 0,15, 0.00,60.00,Tuesday
7,13.0
718,23.333047253923795
719,30.191874272080135
720,16.36844533648406
619,0.0
633,0.0
659,0.0
661,0.0
690,29.657116142188592
716,0.0
843,-3728.2195002222234
844,-3728.2195002222234
907,0.0
908,0.0
971,0.0
972,0.0
1195,0.0
1197,0.0
2,2, 1,14, 0,16, 0.00,60.00,Tuesday
7,13.0
718,23.298486254356114
719,27.241059663870427
720,16.50681189135304
619,0.0
633,0.0
659,0.0
661,0.0
690,49.382723011792194
716,0.0
843,-5114.502535276792
844,-5114.502535276792
907,0.0
908,0.0
971,0.0
972,0.0
1195,0.0
1197,0.0
2,2, 1,14, 0,17, 0.00,60.00,Tuesday
7,13.0
718,23.322924709176547
719,21.085025675116135
720,16.629443898957014
619,0.0
633,0.0
659,0.0
661,0.0
690,56.231428049794
716,0.0
843,-5769.112796748208
844,-5769.112796748208
907,0.0
908,0.0
971,0.0
972,0.0
1195,0.0
1197,0.0
2,2, 1,14, 0,18, 0.00,60.00,Tuesday
7,11.0
718,23.327034699169065
719,17.739882416449596
720,16.69029329139348
619,0.0
633,0.0
659,0.0
661,0.0
690,30.54615019178685
716,0.0
843,-4843.247810629227
844,-4843.247810629227
907,0.0
908,0.0
971,0.0
972,0.0
1195,0.0
1197,0.0
2,2, 1,14, 0,19, 0.00,60.00,Tuesday
7,8.0
718,23.071641670654692
719,12.842763415082143
720,16.727149543610466
619,0.0
633,0.0
659,0.0
661,200.0
690,0.0
716,85.44000000000007
843,-4015.6027830644525
844,-4015.6027830644525
907,0.0
908,0.0
971,0.0
972,0.0
1195,0.0
1197,0.0
2,2, 1,14, 0,20, 0.00,60.00,Tuesday
7,7.0
718,22.756525528974592
719,9.959452953214138
720,16.77671766232292
619,0.0
633,0.0
659,0.0
661,200.0
690,0.0
716,85.44000000000007
843,-3685.767590698819
844,-3685.767590698819
907,0.0
908,0.0
971,0.0
972,0.0
1195,0.0
1197,0.0
2,2, 1,14, 0,21, 0.00,60.00,Tuesday
7,6.0
718,22.594377566024583
719,7.673356855691067
720,16.794146836246682
619,0.0
633,0.0
659,0.0
661,200.0
690,0.0
716,61.12719103462853
843,-3268.312532785403
844,-3268.312532785403
907,0.0
908,0.0
971,0.0
972,0.0
1195,0.0
1197,0.0
2,2, 1,14, 0,22, 0.00,60.00,Tuesday
7,6.0
718,22.966824164709383
719,6.795134735673642
720,16.785614479787228
619,0.0
633,0.0
659,0.0
661,200.0
690,0.0
716,0.0
843,-2689.989608105212
844,-2689.989608105212
907,0.0
908,0.0
971,0.0
972,0.0
1195,0.0
1197,0.0
2,2, 1,14, 0,23, 0.00,60.00,Tuesday
7,4.0
718,22.24664582919009
719,4.955953879744249
720,16.75811036215748
619,0.0
633,0.0
659,0.0
661,200.0
690,0.0
716,0.0
843,-2240.5825871513425
844,-2240.5825871513425
907,0.0
908,0.0
971,0.0
972,0.0
1195,0.0
1197,0.0
2,2, 1,14, 0,24, 0.00,60.00,Tuesday
7,-1.0
718,20.918890695699094
719,1.7638083662754545
720,16.714131932162452
619,0.0
633,0.0
659,0.0
661,200.0
690,0.0
716,0.0
843,-1603.6820142468569
844,-1603.6820142468569
907,0.0
908,0.0
971,0.0
972,0.0
1195,0.0
1197,0.0
2,3, 1,15, 0, 1, 0.00,60.00,Wednesday
7,2.0
718,20.226581860377234
719,1.1551745714912638
720,16.654285654985593
619,0.0
633,0.0
659,0.0
661,200.0
690,0.0
716,0.0
843,-1295.290870200126
844,-1295.290870200126
907,0.0
908,0.0
971,0.0
972,0.0
1195,0.0
1197,0.0
2,3, 1,15, 0, 2, 0.00,60.00,Wednesday
7,-1.0
718,19.129512704625355
719,-0.12904200231987387
720,16.582998189796058
619,0.0
633,0.0
659,0.0
661,200.0
690,0.0
716,0.0
843,-387.31973040693447
844,-387.31973040693447
907,0.0
908,0.0
971,0.0
972,0.0
1195,0.0
1197,0.0
2,3, 1,15, 0, 3, 0.00,60.00,Wednesday
7,0.0
718,18.638017283436202
719,-0.009406851971155787
720,16.49412536068484
619,317.5921885315162
633,106.60614875567842
659,0.005194825596642857
661,188.79921752305918
690,10.783847804026959
716,0.0
843,212.4689983166736
844,212.4689983166736
907,0.0
908,0.0
971,0.0
972,0.0
1195,0.0
1197,0.0
2,3, 1,15, 0, 4, 0.00,60.00,Wednesday
7,1.0
718,18.70727248685617
719,0.11051680808212248
720,16.394562412842554
619,943.2610833765995
633,303.63038426439346
659,0.014809857380937897
661,168.06784213398757
690,30.743559283182734
716,0.0
843,711.4500443369088
844,711.4500443369088
907,0.0
908,0.0
971,0.0
972,0.0
1195,0.0
1197,0.0
2,3, 1,15, 0, 5, 0.00,60.00,Wednesday
7,-1.0
718,18.318173833469583
719,-0.155334606565006
720,16.286240410703606
619,1261.4415012410059
633,418.790337327747
659,0.02076456867670117
661,155.22863806524464
690,43.10475581035026
716,0.0
843,942.3872326952569
844,942.3872326952569
907,0.0
908,0.0
971,0.0
972,0.0
1195,0.0
1197,0.0
2,3, 1,15, 0, 6, 0.00,60.00,Wednesday
7,1.0
718,19.083217201623903
719,1.533846326692211
720,16.163804392188123
619,3998.936126971158
633,1207.6976846106932
659,0.059313226951782726
661,72.11225079015553
690,123.12743330001946
716,85.20594097331112
843,2115.1270043430977
844,2115.1270043430977
907,0.0
908,0.0
971,0.0
972,0.0
1195,0.0
1197,0.0
2,3, 1,15, 0, 7, 0.00,60.00,Wednesday
7,2.0
718,19.48716997830443
719,2.163881475637944
720,16.103565260774737
619,4355.730384996373
633,1310.7625772830693
659,0.06285161724420463
661,64.48297830609961
690,130.47285998188534
716,85.44000000000007
843,2355.353448941807
844,2355.353448941807
907,0.0
908,0.0
971,0.0
972,0.0
1195,0.0
1197,0.0
2,3, 1,15, 0, 8, 0.00,60.00,Wednesday
7,2.0
718,19.659723264699423
719,2.9357479776592337
720,16.012458269092228
619,3402.2009470563385
633,1051.045142420851
659,0.049998117742492326
661,92.19695047086036
690,103.79044551998795
716,55.50150276947412
843,1952.619102720766
844,1952.619102720766
907,0.0
908,0.0
971,0.0
972,0.0
1195,0.0
1197,0.0
2,3, 1,15, 0, 9, 0.00,60.00,Wednesday
7,4.0
718,19.937540294866906
719,4.84179982178248
720,15.913135228545478
619,1214.683771264869
633,379.33039878742176
659,0.017644741231434072
661,161.95542954841002
690,36.628562011511605
716,0.0
843,925.1848979442002
844,925.1848979442002
907,0.0
908,0.0
971,0.0
972,0.0
1195,0.0
1197,0.0
2,3, 1,15, 0,10, 0.00,60.00,Wednesday
7,4.0
718,19.92298902838297
719,9.150886958923468
720,15.83152822046103
619,0.0
633,0.0
659,0.0
661,200.0
690,0.0
716,0.0
843,-70.59104774598563
844,-70.59104774598563
907,0.0
908,0.0
971,0.0
972,0.0
1195,0.0
1197,0.0
2,3, 1,15, 0,11, 0.00,60.00,Wednesday
7,7.0
718,21.30707118819649
719,18.197172514488546
720,15.799471722664235
619,0.0
633,0.0
659,0.0
661,200.0
690,0.0
716,0.0
843,-1167.6018819830351
844,-1167.6018819830351
907,0.0
908,0.0
971,0.0
972,0.0
1195,0.0
1197,0.0
2,3, 1,15, 0,12, 0.00,60.00,Wednesday
7,10.0
718,21.938702456266647
719,19.571799543285067
720,15.796628470194548
619,0.0
633,0.0
659,0.0
661,0.0
690,0.0
716,0.0
843,-1836.6382156915333
844,-1836.6382156915333
907,0.0
908,0.0
971,0.0
972,0.0
1195,0.0
1197,0.0
2,3, 1,15, 0,13, 0.00,60.00,Wednesday
7,11.0
718,22.727235550593168
719,21.617094818619695
720,15.82399438337124
619,0.0
633,0.0
659,0.0
661,0.0
690,0.0
716,0.0
843,-2317.6650839041013
844,-2317.6650839041013
907,0.0
908,0.0
971,0.0
972,0.0
1195,0.0
1197,0.0
2,3, 1,15, 0,14, 0.00,60.00,Wednesday
7,12.0
718,23.307690172110416
719,22.850630584016688
720,15.889856186777564
619,0.0
633,0.0
659,0.0
661,0.0
690,8.779381188520727
716,0.0
843,-2611.7209303132804
844,-2611.7209303132804
907,0.0
908,0.0
971,0.0
972,0.0
1195,0.0
1197,0.0
2,3, 1,15, 0,15, 0.00,60.00,Wednesday
7,12.0
718,23.37683067933287
719,23.11134540748001
720,16.018306181211045
619,0.0
633,0.0
659,0.0
661,0.0
690,29.130442687188076
716,0.0
843,-3998.618351986601
844,-3998.618351986601
907,0.0
908,0.0
971,0.0
972,0.0
1195,0.0
1197,0.0
2,3, 1,15, 0,16, 0.00,60.00,Wednesday
7,12.0
718,23.140067477097674
719,19.105235675180182
720,16.091896326841272
619,0.0
633,0.0
659,0.0
661,0.0
690,16.638114203795258
716,85.44000000000007
843,-5064.6537059283
844,-5064.6537059283
907,0.0
908,0.0
971,0.0
972,0.0
1195,0.0
1197,0.0
2,3, 1,15, 0,17, 0.00,60.00,Wednesday
7,12.0
718,23.408128769301396
719,16.697717838041623
720,16.211382505778477
619,0.0
633,0.0
659,0.0
661,0.0
690,17.354846497274192
716,63.980123258522575
843,-5178.011430890696
844,-5178.011430890696
907,0.0
908,0.0
971,0.0
972,0.0
1195,0.0
1197,0.0
2,3, 1,15, 0,18, 0.00,60.00,Wednesday
7,11.0
718,23.376207699160194
719,13.948200541313392
720,16.320570944976907
619,0.0
633,0.0
659,0.0
661,0.0
690,19.703426093271123
716,0.0
843,-4259.816445256707
844,-4259.816445256707
907,0.0
908,0.0
971,0.0
972,0.0
1195,0.0
1197,0.0
2,3, 1,15, 0,19, 0.00,60.00,Wednesday
7,9.0
718,23.26123006317826
719,11.17482992507653
720,16.38369728947311
619,0.0
633,0.0
659,0.0
661,185.43729809804336
690,14.020721184447632
716,0.0
843,-3642.970113992689
844,-3642.970113992689
907,0.0
908,0.0
971,0.0
972,0.0
1195,0.0
1197,0.0
2,3, 1,15, 0,20, 0.00,60.00,Wednesday
7,8.0
718,22.597744324479574
719,9.627290889362609
720,16.398566470568834
619,0.0
633,0.0
659,0.0
661,200.0
690,0.0
716,85.44000000000007
843,-3301.4637072682763
844,-3301.4637072682763
907,0.0
908,0.0
971,0.0
972,0.0
1195,0.0
1197,0.0
2,3, 1,15, 0,21, 0.00,60.00,Wednesday
7,9.0
718,22.513446947556435
719,9.253859937991184
720,16.414044127021764
619,0.0
633,0.0
659,0.0
661,200.0
690,0.0
716,46.020697667405
843,-3053.2291792059677
844,-3053.2291792059677
907,0.0
908,0.0
971,0.0
972,0.0
1195,0.0
1197,0.0
2,3, 1,15, 0,22, 0.00,60.00,Wednesday
7,8.0
718,22.724553093572737
719,8.283304904748451
720,16.406181819165884
619,0.0
633,0.0
659,0.0
661,200.0
690,0.0
716,0.0
843,-2460.1099536793336
844,-2460.1099536793336
907,0.0
908,0.0
971,0.0
972,0.0
1195,0.0
1197,0.0
2,3, 1,15, 0,23, 0.00,60.00,Wednesday
7,8.0
718,22.191331482129627
719,7.436787420264707
720,16.380790959763488
619,0.0
633,0.0
659,0.0
661,200.0
690,0.0
716,0.0
843,-2300.036296273389
844,-2300.036296273389
907,0.0
908,0.0
971,0.0
972,0.0
1195,0.0
1197,0.0
2,3, 1,15, 0,24, 0.00,60.00,Wednesday
7,7.0
718,21.504879605193544
719,6.426774537884396
720,16.343069411171978
619,0.0
633,0.0
659,0.0
661,200.0
690,0.0
716,0.0
843,-1869.4256339984586
844,-1869.4256339984586
907,0.0
908,0.0
971,0.0
972,0.0
1195,0.0
1197,0.0
2,4, 1,16, 0, 1, 0.00,60.00,Thursday
7,7.0
718,20.862800708998538
719,6.271309487958845
720,16.29348778140457
619,0.0
633,0.0
659,0.0
661,200.0
690,0.0
716,0.0
843,-1431.2353170086808
844,-1431.2353170086808
907,0.0
908,0.0
971,0.0
972,0.0
1195,0.0
1197,0.0
2,4, 1,16, 0, 2, 0.00,60.00,Thursday
7,6.0
718,19.89560372702227
719,5.879297083560167
720,16.23411432670356
619,0.0
633,0.0
659,0.0
661,200.0
690,0.0
716,0.0
843,-787.65626422889
844,-787.65626422889
907,0.0
908,0.0
971,0.0
972,0.0
1195,0.0
1197,0.0
2,4, 1,16, 0, 3, 0.00,60.00,Thursday
7,4.0
718,19.05883936439821
719,4.559815487840282
720,16.169201566872577
619,0.0
633,0.0
659,0.0
661,200.0
690,0.0
716,0.0
843,-315.12194663967057
844,-315.12194663967057
907,0.0
908,0.0
971,0.0
972,0.0
1195,0.0
1197,0.0
2,4, 1,16, 0, 4, 0.00,60.00,Thursday
7,4.0
718,18.610649274654964
719,3.903206829020551
720,16.097212322671673
619,72.47461100986571
633,22.76648135701724
659,0.001071036236948685
661,197.69069361582876
690,2.22335465280442
716,0.0
843,57.03987531546227
844,57.03987531546227
907,0.0
908,0.0
971,0.0
972,0.0
1195,0.0
1197,0.0
2,4, 1,16, 0, 5, 0.00,60.00,Thursday
7,2.0
718,18.447645697824875
719,2.5796070356054766
720,16.017354647320737
619,542.5057117341236
633,172.7617890736828
659,0.008357002130565908
661,181.9811153844526
690,17.348192896877826
716,0.0
843,408.57612838053865
844,408.57612838053865
907,0.0
908,0.0
971,0.0
972,0.0
1195,0.0
1197,0.0
2,4, 1,16, 0, 6, 0.00,60.00,Thursday
7,4.0
718,19.784159560858697
719,3.235764599597693
720,15.937655085720571
619,1341.8139347334672
633,406.26954003618664
659,0.01934419209066904
661,158.29117190387188
690,40.15643761103624
716,0.0
843,1044.5122421041951
844,1044.5122421041951
907,0.0
908,0.0
971,0.0
972,0.0
1195,0.0
1197,0.0
2,4, 1,16, 0, 7, 0.00,60.00,Thursday
7,1.0
718,19.567096176281222
719,2.7059256201204036
720,15.88345768617429
619,3212.071747669697
633,1018.9533043123212
659,0.04863348486421728
661,95.13929295110037
690,100.9575136300836
716,85.44000000000007
843,1433.3076326240262
844,1433.3076326240262
907,0.0
908,0.0
971,0.0
972,0.0
1195,0.0
1197,0.0
2,4, 1,16, 0, 8, 0.00,60.00,Thursday
7,3.0
718,19.71133675502844
719,3.113896864873344
720,15.799134008934782
619,2977.669950480231
633,913.8918692130156
659,0.043010551498794916
661,107.26313663684994
690,89.28513724573398
716,85.44000000000007
843,1262.6064859061735
844,1262.6064859061735
907,0.0
908,0.0
971,0.0
972,0.0
1195,0.0
1197,0.0
2,4, 1,16, 0, 9, 0.00,60.00,Thursday
7,4.0
718,19.735007727263934
719,4.676752528710411
720,15.71787329172706
619,1772.4651790795767
633,548.7387576994395
659,0.025506407850631962
661,145.00455871171266
690,52.94852607616504
716,71.27010986961908
843,604.2174542846569
844,604.2174542846569
907,0.0
908,0.0
971,0.0
972,0.0
1195,0.0
1197,0.0
2,4, 1,16, 0,10, 0.00,60.00,Thursday
7,7.0
718,19.992808518642693
719,7.830372923782396
720,15.631860749302572
619,0.0
633,0.0
659,0.0
661,200.0
690,0.0
716,0.0
843,-132.52696579210715
844,-132.52696579210715
907,0.0
908,0.0
971,0.0
972,0.0
1195,0.0
1197,0.0
2,4, 1,16, 0,11, 0.00,60.00,Thursday
7,8.0
718,21.302744792683733
719,13.574234173370838
720,15.602986244858323
619,0.0
633,0.0
659,0.0
661,200.0
690,0.0
716,0.0
843,-1042.6862971122373
844,-1042.6862971122373
907,0.0
908,0.0
971,0.0
972,0.0
1195,0.0
1197,0.0
2,4, 1,16, 0,12, 0.00,60.00,Thursday
7,9.0
718,22.12362151150916
719,21.258944125226293
720,15.59931054550884
619,0.0
633,0.0
659,0.0
661,200.0
690,0.0
716,0.0
843,-1929.0529684144894
844,-1929.0529684144894
907,0.0
908,0.0
971,0.0
972,0.0
1195,0.0
1197,0.0
2,4, 1,16, 0,13, 0.00,60.00,Thursday
7,11.0
718,23.091278315456634
719,29.021309403239933
720,15.6274953961562
619,0.0
633,0.0
659,0.0
661,0.0
690,0.0
716,0.0
843,-2648.312415335051
844,-2648.312415335051
907,0.0
908,0.0
971,0.0
972,0.0
1195,0.0
1197,0.0
2,4, 1,16, 0,14, 0.00,60.00,Thursday
7,12.0
718,23.308277035847208
719,28.630247716210135
720,15.716233354317353
619,0.0
633,0.0
659,0.0
661,0.0
690,15.830126800483175
716,0.0
843,-3447.2306392095907
844,-3447.2306392095907
907,0.0
908,0.0
971,0.0
972,0.0
1195,0.0
1197,0.0
2,4, 1,16, 0,15, 0.00,60.00,Thursday
7,13.0
718,23.339951380794638
719,29.995555172229547
720,15.845164176382807
619,0.0
633,0.0
659,0.0
661,0.0
690,34.61152667144652
716,0.0
843,-4148.302812019203
844,-4148.302812019203
907,0.0
908,0.0
971,0.0
972,0.0
1195,0.0
1197,0.0
2,4, 1,16, 0,16, 0.00,60.00,Thursday
7,14.0
718,23.314782419154064
719,24.76703068664216
720,15.988672971650079
619,0.0
633,0.0
659,0.0
661,0.0
690,48.52730189866944
716,0.0
843,-5188.760245556212
844,-5188.760245556212
907,0.0
908,0.0
971,0.0
972,0.0
1195,0.0
1197,0.0
2,4, 1,16, 0,17, 0.00,60.00,Thursday
7,13.0
718,23.24517448385129
719,19.627088897346752
720,16.06601738173699
619,0.0
633,0.0
659,0.0
661,0.0
690,28.879749016175705
716,67.96281810156859
843,-5478.040674410329
844,-5478.040674410329
907,0.0
908,0.0
971,0.0
972,0.0
1195,0.0
1197,0.0
2,4, 1,16, 0,18, 0.00,60.00,Thursday
7,12.0
718,23.36651848588049
719,15.86705249491761
720,16.176242564891872
619,0.0
633,0.0
659,0.0
661,0.0
690,24.817356900675144
716,0.0
843,-4615.211699049905
844,-4615.211699049905
907,0.0
908,0.0
971,0.0
972,0.0
1195,0.0
1197,0.0
2,4, 1,16, 0,19, 0.00,60.00,Thursday
7,9.0
718,22.982468222496458
719,12.54041738516762
720,16.199638156682802
619,0.0
633,0.0
659,0.0
661,200.0
690,0.0
716,85.44000000000007
843,-3869.794917951387
844,-3869.794917951387
907,0.0
908,0.0
971,0.0
972,0.0
1195,0.0
1197,0.0
2,4, 1,16, 0,20, 0.00,60.00,Thursday
7,7.0
718,22.53153767330411
719,9.709193691141559
720,16.24666183054986
619,0.0
633,0.0
659,0.0
661,200.0
690,0.0
716,61.1594498802461
843,-3253.5180511143135
844,-3253.5180511143135
907,0.0
908,0.0
971,0.0
972,0.0
1195,0.0
1197,0.0
2,4, 1,16, 0,21, 0.00,60.00,Thursday
7,6.0
718,22.577543169359128
719,7.916122463085914
720,16.25694618947175
619,0.0
633,0.0
659,0.0
661,200.0
690,0.0
716,0.0
843,-2646.6816250133616
844,-2646.6816250133616
907,0.0
908,0.0
971,0.0
972,0.0
1195,0.0
1197,0.0
2,4, 1,16, 0,22, 0.00,60.00,Thursday
7,5.0
718,22.077761970410762
719,6.93635561938275
720,16.247218124919545
619,0.0
633,0.0
659,0.0
661,200.0
690,0.0
716,0.0
843,-1960.0087126070612
844,-1960.0087126070612
907,0.0
908,0.0
971,0.0
972,0.0
1195,0.0
1197,0.0
2,4, 1,16, 0,23, 0.00,60.00,Thursday
7,4.0
718,21.22714196369317
719,5.934558439733717
720,16.21315384240636
619,0.0
633,0.0
659,0.0
661,200.0
690,0.0
716,0.0
843,-2186.917649877416
844,-2186.917649877416
907,0.0
908,0.0
971,0.0
972,0.0
1195,0.0
1197,0.0
2,4, 1,16, 0,24, 0.00,60.00,Thursday
7,2.0
718,20.208268084771923
719,4.402664065982326
720,16.163975456345216
619,0.0
633,0.0
659,0.0
661,200.0
690,0.0
716,0.0
843,-1359.197165789401
844,-1359.197165789401
907,0.0
908,0.0
971,0.0
972,0.0
1195,0.0
1197,0.0
2,5, 1,17, 0, 1, 0.00,60.00,Friday
7,1.0
718,19.018706395591643
719,3.2041071606491722
720,16.09641097875912
619,0.0
633,0.0
659,0.0
661,200.0
690,0.0
716,0.0
843,-355.17438291345206
844,-355.17438291345206
907,0.0
908,0.0
971,0.0
972,0.0
1195,0.0
1197,0.0
2,5, 1,17, 0, 2, 0.00,60.00,Friday
7,0.0
718,18.60922744210307
719,2.4598976673379065
720,16.006712803502168
619,1330.4164243435341
633,436.44753860115685
659,0.021327504473251335
661,154.01486846156118
690,44.27339457809526
716,0.0
843,1001.3199832607279
844,1001.3199832607279
907,0.0
908,0.0
971,0.0
972,0.0
1195,0.0
1197,0.0
2,5, 1,17, 0, 3, 0.00,60.00,Friday
7,-1.0