Program Version,EnergyPlus, Version 22.2.0-c249759bad, YMD=2023.09.01 20:29
1,5,Environment Title[],Latitude[deg],Longitude[deg],Time Zone[],Elevation[m]
2,8,Day of Simulation[],Month[],Day of Month[],DST Indicator[1=yes 0=no],Hour[],StartMinute[],EndMinute[],DayType
3,5,Cumulative Day of Simulation[],Month[],Day of Month[],DST Indicator[1=yes 0=no],DayType  ! When Daily Report Variables Requested
4,2,Cumulative Days of Simulation[],Month[]  ! When Monthly Report Variables Requested
5,1,Cumulative Days of Simulation[] ! When Run Period Report Variables Requested
6,1,Calendar Year of Simulation[] ! When Annual Report Variables Requested
581,11,LIVING,AFN Zone Infiltration Air Change Rate [ach] !RunPeriod [Value,Min,Month,Day,Hour,Minute,Max,Month,Day,Hour,Minute]
582,11,ATTIC,AFN Zone Infiltration Air Change Rate [ach] !RunPeriod [Value,Min,Month,Day,Hour,Minute,Max,Month,Day,Hour,Minute]
583,11,CRAWLSPACE,AFN Zone Infiltration Air Change Rate [ach] !RunPeriod [Value,Min,Month,Day,Hour,Minute,Max,Month,Day,Hour,Minute]
1038,11,Facility,Facility Heating Setpoint Not Met Time [hr] !RunPeriod [Value,Min,Month,Day,Hour,Minute,Max,Month,Day,Hour,Minute]
1039,11,Facility,Facility Cooling Setpoint Not Met Time [hr] !RunPeriod [Value,Min,Month,Day,Hour,Minute,Max,Month,Day,Hour,Minute]
1115,11,DX_HEATING_COIL,Heating Coil Heating Energy [J] !RunPeriod [Value,Min,Month,Day,Hour,Minute,Max,Month,Day,Hour,Minute]
1128,11,DX_HEATING_COIL,Heating Coil Electricity Energy [J] !RunPeriod [Value,Min,Month,Day,Hour,Minute,Max,Month,Day,Hour,Minute]
1153,11,DX_HEATING_COIL,Heating Coil Defrost Electricity Energy [J] !RunPeriod [Value,Min,Month,Day,Hour,Minute,Max,Month,Day,Hour,Minute]
1154,11,DX_HEATING_COIL,Heating Coil Crankcase Heater Electricity Energy [J] !RunPeriod [Value,Min,Month,Day,Hour,Minute,Max,Month,Day,Hour,Minute]
1155,11,HEATING_RESISTANCE_BACKUP,Heating Coil Heating Energy [J] !RunPeriod [Value,Min,Month,Day,Hour,Minute,Max,Month,Day,Hour,Minute]
1156,11,HEATING_RESISTANCE_BACKUP,Heating Coil Electricity Energy [J] !RunPeriod [Value,Min,Month,Day,Hour,Minute,Max,Month,Day,Hour,Minute]
1292,11,WATER HEATER,Water Heater Heat Loss Energy [J] !RunPeriod [Value,Min,Month,Day,Hour,Minute,Max,Month,Day,Hour,Minute]
1306,11,WATER HEATER,Water Heater Heating Energy [J] !RunPeriod [Value,Min,Month,Day,Hour,Minute,Max,Month,Day,Hour,Minute]
1307,11,WATER HEATER,Water Heater Unmet Demand Heat Transfer Energy [J] !RunPeriod [Value,Min,Month,Day,Hour,Minute,Max,Month,Day,Hour,Minute]
1308,11,WATER HEATER,Water Heater Electricity Energy [J] !RunPeriod [Value,Min,Month,Day,Hour,Minute,Max,Month,Day,Hour,Minute]
13,11,Electricity:Facility [J] !RunPeriod [Value,Min,Month,Day,Hour,Minute,Max,Month,Day,Hour,Minute]
1134,11,Heating:Electricity [J] !RunPeriod [Value,Min,Month,Day,Hour,Minute,Max,Month,Day,Hour,Minute]
1096,11,Cooling:Electricity [J] !RunPeriod [Value,Min,Month,Day,Hour,Minute,Max,Month,Day,Hour,Minute]
562,11,Fans:Electricity [J] !RunPeriod [Value,Min,Month,Day,Hour,Minute,Max,Month,Day,Hour,Minute]
1379,11,Pumps:Electricity [J] !RunPeriod [Value,Min,Month,Day,Hour,Minute,Max,Month,Day,Hour,Minute]
1326,11,WaterSystems:Electricity [J] !RunPeriod [Value,Min,Month,Day,Hour,Minute,Max,Month,Day,Hour,Minute]
61,11,InteriorLights:Electricity [J] !RunPeriod [Value,Min,Month,Day,Hour,Minute,Max,Month,Day,Hour,Minute]
1046,11,ExteriorLights:Electricity [J] !RunPeriod [Value,Min,Month,Day,Hour,Minute,Max,Month,Day,Hour,Minute]
134,11,InteriorEquipment:Electricity [J] !RunPeriod [Value,Min,Month,Day,Hour,Minute,Max,Month,Day,Hour,Minute]
170,11,gas_dryer:InteriorEquipment:Electricity [J] !RunPeriod [Value,Min,Month,Day,Hour,Minute,Max,Month,Day,Hour,Minute]
207,11,clotheswasher:InteriorEquipment:Electricity [J] !RunPeriod [Value,Min,Month,Day,Hour,Minute,Max,Month,Day,Hour,Minute]
244,11,dishwasher:InteriorEquipment:Electricity [J] !RunPeriod [Value,Min,Month,Day,Hour,Minute,Max,Month,Day,Hour,Minute]
281,11,refrigerator:InteriorEquipment:Electricity [J] !RunPeriod [Value,Min,Month,Day,Hour,Minute,Max,Month,Day,Hour,Minute]
318,11,electric_mels:InteriorEquipment:Electricity [J] !RunPeriod [Value,Min,Month,Day,Hour,Minute,Max,Month,Day,Hour,Minute]
355,11,NaturalGas:Facility [J] !RunPeriod [Value,Min,Month,Day,Hour,Minute,Max,Month,Day,Hour,Minute]
403,11,InteriorEquipment:NaturalGas [J] !RunPeriod [Value,Min,Month,Day,Hour,Minute,Max,Month,Day,Hour,Minute]
476,11,gas_dryer:InteriorEquipment:NaturalGas [J] !RunPeriod [Value,Min,Month,Day,Hour,Minute,Max,Month,Day,Hour,Minute]
513,11,gas_mels:InteriorEquipment:NaturalGas [J] !RunPeriod [Value,Min,Month,Day,Hour,Minute,Max,Month,Day,Hour,Minute]
End of Data Dictionary
1,EXTREME_WINTER,  41.80, -78.63,  -5.00, 652.90
5,7
1038,6.0,0.0,12,15, 1,15,0.25,12,16, 6,15
1039,0.0,0.0,12,15, 1,15,0.0,12,15, 1,15
581,0.4104369596426916,0.14857048572783169,12,19, 3,60,0.7918359006414094,12,16, 9,60
582,4.808237857095763,0.08743647679052274,12,21, 4,60,15.6670745572845,12,16, 9,60
583,0.05540751817343167,0.0005112617951640967,12,20,23, 5,0.07052780778317037,12,16, 9,60
1115,1697093255.2989237,0.0,12,15,23, 5,3363890.2267916505,12,21,22,30
1128,607724343.8896801,0.0,12,15,23, 5,1073495.2970468046,12,21,22,30
1153,15342028.786274137,0.0,12,15,23, 5,113339.75982063355,12,18,16,15
1154,9080563.903944775,0.0,12,15, 1, 7,160050.8303473604,12,15,16,15
1155,1368426208.7438626,0.0,12,15,12,22,5651384.934692158,12,16, 7,15
1156,1368426208.7438626,0.0,12,15,12,22,5651384.934692158,12,16, 7,15
1292,-25402805.759463996,-39730.49662727666,12,20,23,30,-7276.0627362853065,12,20,18,21
1306,192113421.63025644,0.0,12,15, 1, 7,4050000.0,12,15, 8,45
1307,40072956.04276737,0.0,12,15, 1, 7,5118216.835922473,12,20,10,22
1308,192113421.63025644,0.0,12,15, 1, 7,4050000.0,12,15, 8,45
13,2633927949.595178,408218.2645728467,12,19, 3,60,10967601.489795,12,17, 9,30
61,301924526.02383536,88139.10953165221,12,15, 1,15,1282023.4113694867,12,15,20,15
134,70666020.44019976,63564.01800854099,12,15, 4,15,156554.22484006523,12,20,20,15
170,5241013.419656067,348.4159749238097,12,15, 4,15,17476.39704006126,12,20,12,15
207,6509451.13922267,815.2532113832032,12,15, 3,15,22990.642799023623,12,20,10,15
244,12749673.399825225,1521.856143006317,12,15, 4,15,53038.631142310165,12,20,20,15
281,46165882.481495745,59938.60262432081,12,15, 5,15,81951.81706819107,12,15,19,15
318,0.0,0.0,12,15, 1,15,0.0,12,15, 1,15
355,197687796.27748066,18561.32405820678,12,15, 4,15,724774.895203776,12,20,18,15
403,197687796.27748066,18561.32405820678,12,15, 4,15,724774.895203776,12,20,18,15
476,106772067.24485716,7098.072629279515,12,15, 4,15,356036.3026282215,12,20,12,15
513,0.0,0.0,12,15, 1,15,0.0,12,15, 1,15
562,68650836.17712522,0.0,12,18,23,15,113932.82006687889,12,20,18,15
1046,0.0,0.0,12,15, 1,15,0.0,12,15, 1,15
1096,0.0,0.0,12,15, 1,15,0.0,12,15, 1,15
1134,2000573145.3237617,0.0,12,18,23,15,6658604.857902071,12,16, 6,60
1326,192113421.63025644,0.0,12,15, 1,15,4050000.0,12,15, 8,45
1379,0.0,0.0,12,15, 1,15,0.0,12,15, 1,15
1,EXTREME_SUMMER,  41.80, -78.63,  -5.00, 652.90
5,7
1038,0.0,0.0, 6,29, 1,15,0.0, 6,29, 1,15
1039,14.0,0.0, 6,29, 1,15,0.25, 7, 1,14,30
581,0.09521036998415867,0.0, 7, 1, 5,15,0.4206633652004195, 6,30,17,48
582,1.7992716392423496,0.0, 6,29,22,15,10.537378679645126, 6,30,17,46
583,0.021997353693949468,0.0, 7, 3,23, 5,0.05462553057916233, 7, 2,18,17
1115,0.0,0.0, 6,29, 1,15,0.0, 6,29, 1,15
1128,0.0,0.0, 6,29, 1,15,0.0, 6,29, 1,15
1153,0.0,0.0, 6,29, 1,15,0.0, 6,29, 1,15
1154,0.0,0.0, 6,29, 1,15,0.0, 6,29, 1,15
1155,0.0,0.0, 6,29, 1,15,0.0, 6,29, 1,15
1156,0.0,0.0, 6,29, 1,15,0.0, 6,29, 1,15
1292,-22143328.97622204,-34828.92650102693, 6,29, 8,15,-3029.714893550611, 7, 1, 9,14
1306,166525803.27904445,0.0, 6,29, 1,15,2210639.077508983, 6,29, 8,30
1307,29702306.71338122,0.0, 6,29, 1,15,2257087.121245667, 7, 5, 9,30
1308,166525803.27904445,0.0, 6,29, 1,15,2210639.077508983, 6,29, 8,30
13,844758106.1056547,151703.1275401932, 6,29, 4,15,6464161.892008619, 7, 4,19,30
61,301924526.02383536,88139.10953165221, 6,29, 1,15,1282023.4113694867, 6,29,20,15
134,70666020.44019976,63564.01800854099, 6,29, 4,15,156554.22484006523, 7, 4,20,15
170,5241013.419656067,348.4159749238097, 6,29, 4,15,17476.39704006126, 7, 4,12,15
207,6509451.13922267,815.2532113832032, 6,29, 3,15,22990.642799023623, 7, 4,10,15
244,12749673.399825225,1521.856143006317, 6,29, 4,15,53038.631142310165, 7, 4,20,15
281,46165882.481495745,59938.60262432081, 6,29, 5,15,81951.81706819107, 6,29,19,15
318,0.0,0.0, 6,29, 1,15,0.0, 6,29, 1,15
355,197687796.27748066,18561.32405820678, 6,29, 4,15,724774.895203776, 7, 4,18,15
403,197687796.27748066,18561.32405820678, 6,29, 4,15,724774.895203776, 7, 4,18,15
476,106772067.24485716,7098.072629279515, 6,29, 4,15,356036.3026282215, 7, 4,12,15
513,0.0,0.0, 6,29, 1,15,0.0, 6,29, 1,15
562,31686007.566111054,0.0, 6,29, 1,15,113932.82006687889, 7, 1,17,15
1046,0.0,0.0, 6,29, 1,15,0.0, 6,29, 1,15
1096,273955748.796464,0.0, 6,29, 1,15,1103698.2294497734, 7, 1,16,60
1134,0.0,0.0, 6,29, 1,15,0.0, 6,29, 1,15
1326,166525803.27904448,0.0, 6,29, 1,15,4050000.0, 6,29, 8,45
1379,0.0,0.0, 6,29, 1,15,0.0, 6,29, 1,15
1,ANNUAL,  41.80, -78.63,  -5.00, 652.90
5,365
1038,84.75,0.0, 1, 1, 1,15,0.25, 1, 4, 6,15
1039,201.0,0.0, 1, 1, 1,15,0.25, 5,19,12,60
581,0.26245091625735095,0.0, 5,28, 7,47,1.114530716038904,10,30,23,60
582,3.6593500582639886,0.0, 1, 6, 7,15,21.79267456935758, 5, 8,16,52
583,0.02787195236786459,0.0, 7, 2,23, 3,0.08171842738524385,10,30,19,60
1115,35917224534.40509,0.0, 1, 1,23, 5,3987337.2585241613,11,21, 8,15
1128,11681814958.51993,0.0, 1, 1,23, 5,1153717.1938294014,11,21, 8,15
1153,461746693.6602419,0.0, 1, 1,23, 5,133776.64859580112, 2,28, 7,60
1154,1389990586.5511088,0.0, 1, 1, 1,15,180000.0, 1, 6,14,45
1155,14306216855.242615,0.0, 1, 1,13,45,5651384.934692158, 1, 5, 5,45
1156,14306216855.242615,0.0, 1, 1,13,45,5651384.934692158, 1, 5, 5,45
1292,-1248081464.2258158,-42787.53328040456, 3, 6, 7,15,-1958.6422639031985, 7,16, 9,31
1306,9477317247.914803,0.0, 1, 1, 1,15,4050000.0, 1, 1, 9,45
1307,1869150717.0564783,0.0, 1, 1, 1,15,11007578.820549976, 2,25,10,30
1308,9477317247.914803,0.0, 1, 1, 1,15,4050000.0, 1, 1, 9,45
13,63196812448.57191,151703.1275401932, 3,14, 4,15,11426617.071897216, 2,10, 8,45
61,15743207428.383959,88139.10953165221, 1, 1, 1,15,1282023.4113694867, 1, 1,20,15
134,3685071073.4325233,63564.01800854099, 1, 2, 4,15,156554.22484006523, 1, 1,20,15
170,273393721.45532674,348.4159749238097, 1, 2, 4,15,17476.39704006126, 1, 1,12,15
207,339560869.0695816,815.2532113832032, 1, 2, 3,15,22990.642799023623, 1, 1,10,15
244,664895467.8009144,1521.856143006317, 1, 2, 4,15,53038.631142310165, 1, 1,20,15
281,2407221015.106824,59938.60262432081, 1, 1, 5,15,81951.81706819107, 1, 1,19,15
318,0.0,0.0, 1, 1, 1,15,0.0, 1, 1, 1,15
355,10310294493.051695,18561.32405820678, 1, 2, 4,15,724774.895203776, 1, 1,18,15
403,10310294493.051695,18561.32405820678, 1, 2, 4,15,724774.895203776, 1, 1,18,15
476,5569688622.066177,7098.072629279515, 1, 2, 4,15,356036.3026282215, 1, 1,12,15
513,0.0,0.0, 1, 1, 1,15,0.0, 1, 1, 1,15
562,1858346261.029607,0.0, 1, 5,16,15,113932.8200668789, 3, 7,11,45
1046,0.0,0.0, 1, 1, 1,15,0.0, 1, 1, 1,15
1096,4593101343.836174,0.0, 1, 1, 1,15,1108202.459654901, 7, 1,16,60
1134,27839769093.97378,0.0, 1,31,19,45,6653396.075583711,12,18, 6,15
1326,9477317247.914814,0.0, 1, 1, 1,15,4050000.0000000014, 9,27, 9,45
1379,0.0,0.0, 1, 1, 1,15,0.0, 1, 1, 1,15
End of Data
 Number of Records Written=          99
