Program Version,EnergyPlus, Version 22.2.0-c249759bad, YMD=2023.09.01 15:45
1,5,Environment Title[],Latitude[deg],Longitude[deg],Time Zone[],Elevation[m]
2,8,Day of Simulation[],Month[],Day of Month[],DST Indicator[1=yes 0=no],Hour[],StartMinute[],EndMinute[],DayType
3,5,Cumulative Day of Simulation[],Month[],Day of Month[],DST Indicator[1=yes 0=no],DayType  ! When Daily Report Variables Requested
4,2,Cumulative Days of Simulation[],Month[]  ! When Monthly Report Variables Requested
5,1,Cumulative Days of Simulation[] ! When Run Period Report Variables Requested
6,1,Calendar Year of Simulation[] ! When Annual Report Variables Requested
581,11,LIVING,AFN Zone Infiltration Air Change Rate [ach] !RunPeriod [Value,Min,Month,Day,Hour,Minute,Max,Month,Day,Hour,Minute]
582,11,ATTIC,AFN Zone Infiltration Air Change Rate [ach] !RunPeriod [Value,Min,Month,Day,Hour,Minute,Max,Month,Day,Hour,Minute]
583,11,CRAWLSPACE,AFN Zone Infiltration Air Change Rate [ach] !RunPeriod [Value,Min,Month,Day,Hour,Minute,Max,Month,Day,Hour,Minute]
1038,11,Facility,Facility Heating Setpoint Not Met Time [hr] !RunPeriod [Value,Min,Month,Day,Hour,Minute,Max,Month,Day,Hour,Minute]
1039,11,Facility,Facility Cooling Setpoint Not Met Time [hr] !RunPeriod [Value,Min,Month,Day,Hour,Minute,Max,Month,Day,Hour,Minute]
1115,11,DX_HEATING_COIL,Heating Coil Heating Energy [J] !RunPeriod [Value,Min,Month,Day,Hour,Minute,Max,Month,Day,Hour,Minute]
1128,11,DX_HEATING_COIL,Heating Coil Electricity Energy [J] !RunPeriod [Value,Min,Month,Day,Hour,Minute,Max,Month,Day,Hour,Minute]
1153,11,DX_HEATING_COIL,Heating Coil Defrost Electricity Energy [J] !RunPeriod [Value,Min,Month,Day,Hour,Minute,Max,Month,Day,Hour,Minute]
1154,11,DX_HEATING_COIL,Heating Coil Crankcase Heater Electricity Energy [J] !RunPeriod [Value,Min,Month,Day,Hour,Minute,Max,Month,Day,Hour,Minute]
1155,11,HEATING_RESISTANCE_BACKUP,Heating Coil Heating Energy [J] !RunPeriod [Value,Min,Month,Day,Hour,Minute,Max,Month,Day,Hour,Minute]
1156,11,HEATING_RESISTANCE_BACKUP,Heating Coil Electricity Energy [J] !RunPeriod [Value,Min,Month,Day,Hour,Minute,Max,Month,Day,Hour,Minute]
1292,11,WATER HEATER,Water Heater Heat Loss Energy [J] !RunPeriod [Value,Min,Month,Day,Hour,Minute,Max,Month,Day,Hour,Minute]
1306,11,WATER HEATER,Water Heater Heating Energy [J] !RunPeriod [Value,Min,Month,Day,Hour,Minute,Max,Month,Day,Hour,Minute]
1307,11,WATER HEATER,Water Heater Unmet Demand Heat Transfer Energy [J] !RunPeriod [Value,Min,Month,Day,Hour,Minute,Max,Month,Day,Hour,Minute]
1308,11,WATER HEATER,Water Heater Electricity Energy [J] !RunPeriod [Value,Min,Month,Day,Hour,Minute,Max,Month,Day,Hour,Minute]
13,11,Electricity:Facility [J] !RunPeriod [Value,Min,Month,Day,Hour,Minute,Max,Month,Day,Hour,Minute]
1134,11,Heating:Electricity [J] !RunPeriod [Value,Min,Month,Day,Hour,Minute,Max,Month,Day,Hour,Minute]
1096,11,Cooling:Electricity [J] !RunPeriod [Value,Min,Month,Day,Hour,Minute,Max,Month,Day,Hour,Minute]
562,11,Fans:Electricity [J] !RunPeriod [Value,Min,Month,Day,Hour,Minute,Max,Month,Day,Hour,Minute]
1379,11,Pumps:Electricity [J] !RunPeriod [Value,Min,Month,Day,Hour,Minute,Max,Month,Day,Hour,Minute]
1326,11,WaterSystems:Electricity [J] !RunPeriod [Value,Min,Month,Day,Hour,Minute,Max,Month,Day,Hour,Minute]
61,11,InteriorLights:Electricity [J] !RunPeriod [Value,Min,Month,Day,Hour,Minute,Max,Month,Day,Hour,Minute]
1046,11,ExteriorLights:Electricity [J] !RunPeriod [Value,Min,Month,Day,Hour,Minute,Max,Month,Day,Hour,Minute]
134,11,InteriorEquipment:Electricity [J] !RunPeriod [Value,Min,Month,Day,Hour,Minute,Max,Month,Day,Hour,Minute]
170,11,gas_dryer:InteriorEquipment:Electricity [J] !RunPeriod [Value,Min,Month,Day,Hour,Minute,Max,Month,Day,Hour,Minute]
207,11,clotheswasher:InteriorEquipment:Electricity [J] !RunPeriod [Value,Min,Month,Day,Hour,Minute,Max,Month,Day,Hour,Minute]
244,11,dishwasher:InteriorEquipment:Electricity [J] !RunPeriod [Value,Min,Month,Day,Hour,Minute,Max,Month,Day,Hour,Minute]
281,11,refrigerator:InteriorEquipment:Electricity [J] !RunPeriod [Value,Min,Month,Day,Hour,Minute,Max,Month,Day,Hour,Minute]
318,11,electric_mels:InteriorEquipment:Electricity [J] !RunPeriod [Value,Min,Month,Day,Hour,Minute,Max,Month,Day,Hour,Minute]
355,11,NaturalGas:Facility [J] !RunPeriod [Value,Min,Month,Day,Hour,Minute,Max,Month,Day,Hour,Minute]
403,11,InteriorEquipment:NaturalGas [J] !RunPeriod [Value,Min,Month,Day,Hour,Minute,Max,Month,Day,Hour,Minute]
476,11,gas_dryer:InteriorEquipment:NaturalGas [J] !RunPeriod [Value,Min,Month,Day,Hour,Minute,Max,Month,Day,Hour,Minute]
513,11,gas_mels:InteriorEquipment:NaturalGas [J] !RunPeriod [Value,Min,Month,Day,Hour,Minute,Max,Month,Day,Hour,Minute]
End of Data Dictionary
1,EXTREME_WINTER,  30.41, -89.07,  -6.00,  16.00
5,7
1038,0.5,0.0, 1, 6, 1,15,0.25, 1, 8, 6,15
1039,5.25,0.0, 1, 6, 1,15,0.25, 1, 6,13,45
581,0.27767816723863714,0.08775276697632738, 1,12, 8, 7,0.6747406831179201, 1, 7,20,52
582,3.668007696070599,0.0, 1, 6, 6, 3,12.880934529740406, 1,11,24,52
583,0.01673071163408532,0.00014839054046111614, 1,12, 7,52,0.07218284808129029, 1, 8, 4,60
1115,515039230.9628131,0.0, 1, 6, 1,15,4242193.979432581, 1,10, 6,60
1128,159041738.09841818,0.0, 1, 6, 1,15,1288138.368234618, 1,10, 6,60
1153,2743459.88236607,0.0, 1, 6, 1,15,62402.878071936546, 1, 6, 7,30
1154,57931815.09340314,0.0, 1, 6, 6, 3,180000.0, 1, 6, 1,15
1155,28570260.25955589,0.0, 1, 6, 1,15,1929411.1083210472, 1, 8, 6,45
1156,28570260.25955589,0.0, 1, 6, 1,15,1929411.1083210472, 1, 8, 6,45
1292,-24310538.630780444,-39742.613500659754, 1,10, 2,60,-3393.2337138284083, 1, 8,11,60
1306,195147354.57278487,0.0, 1, 6, 1,15,6585841.690772176, 1,10, 6,60
1307,2734131.016627539,0.0, 1, 6, 1,15,1492136.760133702, 1,12,19,60
1308,195147354.57278487,0.0, 1, 6, 1,15,6585841.690772176, 1,10, 6,60
13,868594193.1290792,152071.80019841267, 1,12, 4,15,11382193.264569456, 1,12,19,60
61,301924526.02383536,88139.10953165221, 1, 6, 1,15,1282023.4113694867, 1, 6,20,15
134,70666020.44019976,63564.01800854099, 1, 6, 4,15,156554.22484006523, 1,11,20,15
170,5241013.419656067,348.4159749238097, 1, 6, 4,15,17476.39704006126, 1,11,12,15
207,6509451.13922267,815.2532113832032, 1, 6, 3,15,22990.642799023623, 1,11,10,15
244,12749673.399825225,1521.856143006317, 1, 6, 4,15,53038.631142310165, 1,11,20,15
281,46165882.481495745,59938.60262432081, 1, 6, 5,15,81951.81706819107, 1, 6,19,15
318,0.0,0.0, 1, 6, 1,15,0.0, 1, 6, 1,15
355,197687796.27748066,18561.32405820678, 1, 6, 4,15,724774.895203776, 1,11,18,15
403,197687796.27748066,18561.32405820678, 1, 6, 4,15,724774.895203776, 1,11,18,15
476,106772067.24485716,7098.072629279515, 1, 6, 4,15,356036.3026282215, 1,11,12,15
513,0.0,0.0, 1, 6, 1,15,0.0, 1, 6, 1,15
562,19660142.26637311,0.0, 1, 6, 1,15,127431.16016955992, 1, 8, 4,30
1046,0.0,0.0, 1, 6, 1,15,0.0, 1, 6, 1,15
1096,32908876.492143836,0.0, 1, 6, 1,15,840498.9633215063, 1,12,15,30
1134,248287273.33374324,0.0, 1, 6,10,60,3676446.0612882455, 1, 8, 6,15
1326,195147354.57278487,0.0, 1, 6, 1,15,9652063.886549972, 1,12,19,60
1379,0.0,0.0, 1, 6, 1,15,0.0, 1, 6, 1,15
1,EXTREME_SUMMER,  30.41, -89.07,  -6.00,  16.00
5,7
1038,0.0,0.0, 7, 6, 1,15,0.0, 7, 6, 1,15
1039,56.0,0.0, 7, 6, 1,15,0.25, 7, 6,12,45
581,0.08938198895271465,0.0, 7, 8, 5,37,0.31356844128617306, 7,10,15,52
582,2.5778647208131042,0.034138516089639, 7,10,19,57,9.285252041699607, 7, 9,12,46
583,0.043999658586687244,0.0, 7, 9,23, 3,0.06535802846709636, 7,12,15,48
1115,0.0,0.0, 7, 6, 1,15,0.0, 7, 6, 1,15
1128,0.0,0.0, 7, 6, 1,15,0.0, 7, 6, 1,15
1153,0.0,0.0, 7, 6, 1,15,0.0, 7, 6, 1,15
1154,0.0,0.0, 7, 6, 1,15,0.0, 7, 6, 1,15
1155,0.0,0.0, 7, 6, 1,15,0.0, 7, 6, 1,15
1156,0.0,0.0, 7, 6, 1,15,0.0, 7, 6, 1,15
1292,-21761096.987592787,-34320.416115579676, 7,10,22,30,-3237.576004783515, 7, 9,10,59
1306,135393647.35883796,0.0, 7, 6, 1,15,2268793.7404452963, 7,10, 6,52
1307,0.0,0.0, 7, 6, 1,15,0.0, 7, 6, 1,15
1308,135393647.35883796,0.0, 7, 6, 1,15,2268793.7404452963, 7,10, 6,52
13,1182507236.4930613,240468.30753615237, 7,12, 4,60,10737036.370651498, 7,12,19,60
61,301924526.02383536,88139.10953165221, 7, 6, 1,15,1282023.4113694867, 7, 6,20,15
134,70666020.44019976,63564.01800854099, 7, 6, 4,15,156554.22484006523, 7,11,20,15
170,5241013.419656067,348.4159749238097, 7, 6, 4,15,17476.39704006126, 7,11,12,15
207,6509451.13922267,815.2532113832032, 7, 6, 3,15,22990.642799023623, 7,11,10,15
244,12749673.399825225,1521.856143006317, 7, 6, 4,15,53038.631142310165, 7,11,20,15
281,46165882.481495745,59938.60262432081, 7, 6, 5,15,81951.81706819107, 7, 6,19,15
318,0.0,0.0, 7, 6, 1,15,0.0, 7, 6, 1,15
355,197687796.27748066,18561.32405820678, 7, 6, 4,15,724774.895203776, 7,11,18,15
403,197687796.27748066,18561.32405820678, 7, 6, 4,15,724774.895203776, 7,11,18,15
476,106772067.24485716,7098.072629279515, 7, 6, 4,15,356036.3026282215, 7,11,12,15
513,0.0,0.0, 7, 6, 1,15,0.0, 7, 6, 1,15
562,60589184.72374292,8862.216928160065, 7,12, 4,60,127431.16016955994, 7, 6,10,60
1046,0.0,0.0, 7, 6, 1,15,0.0, 7, 6, 1,15
1096,613933857.9464451,79534.29040957963, 7,12, 4,60,1390876.4355997953, 7,10,15,60
1134,0.0,0.0, 7, 6, 1,15,0.0, 7, 6, 1,15
1326,135393647.3588379,0.0, 7, 6, 1,15,8072974.756379301, 7,12,19,60
1379,0.0,0.0, 7, 6, 1,15,0.0, 7, 6, 1,15
1,ANNUAL,  30.41, -89.07,  -6.00,  16.00
5,365
1038,2.25,0.0, 1, 1, 1,15,0.25, 1, 5, 6,15
1039,1211.25,0.0, 1, 1, 1,15,0.25, 1, 2,17,45
581,0.17752999791861754,0.0, 3,26, 7,50,1.0824098571507548, 8,29,14,49
582,3.311149239997999,0.0, 1, 5,21,52,23.620113206568075, 8,29,14,47
583,0.028555563921343886,0.0, 4,28,23, 7,0.07692934491758299, 8,29,14,60
1115,2265260363.2019763,0.0, 1, 1, 1, 7,4243209.991909782, 1,10, 6,60
1128,682524678.2921989,0.0, 1, 1, 1, 7,1286923.5202750347, 1,10, 6,60
1153,28727561.235889416,0.0, 1, 1, 1, 7,98150.22419295508, 1,16, 6,45
1154,669241471.9974765,0.0, 1, 1, 1, 7,180000.0, 1, 1, 3,45
1155,45298485.63811921,0.0, 1, 1, 1, 7,2049577.6231633849, 1, 8, 6,45
1156,45298485.63811921,0.0, 1, 1, 1, 7,2049577.6231633849, 1, 8, 6,45
1292,-1167089736.8449883,-39774.831211040364, 1,23, 2,15,-2292.638677022345, 7,30,13,32
1306,8647779330.311693,0.0, 1, 1, 1, 7,10233167.78083207,10, 1,19,60
1307,58462716.51920916,0.0, 1, 1, 1, 7,2794474.9888788546, 1,15,19,60
1308,8647779330.311693,0.0, 1, 1, 1, 7,10233167.78083207,10, 1,19,60
13,48374794987.74079,151703.1275401932, 1, 2, 4,15,13123222.200425183, 9,10,19,60
61,15743207428.383959,88139.10953165221, 1, 1, 1,15,1282023.4113694867, 1, 1,20,15
134,3685071073.4325233,63564.01800854099, 1, 2, 4,15,156554.22484006523, 1, 1,20,15
170,273393721.45532674,348.4159749238097, 1, 2, 4,15,17476.39704006126, 1, 1,12,15
207,339560869.0695816,815.2532113832032, 1, 2, 3,15,22990.642799023623, 1, 1,10,15
244,664895467.8009144,1521.856143006317, 1, 2, 4,15,53038.631142310165, 1, 1,20,15
281,2407221015.106824,59938.60262432081, 1, 1, 5,15,81951.81706819107, 1, 1,19,15
318,0.0,0.0, 1, 1, 1,15,0.0, 1, 1, 1,15
355,10310294493.051695,18561.32405820678, 1, 2, 4,15,724774.895203776, 1, 1,18,15
403,10310294493.051695,18561.32405820678, 1, 2, 4,15,724774.895203776, 1, 1,18,15
476,5569688622.066177,7098.072629279515, 1, 2, 4,15,356036.3026282215, 1, 1,12,15
513,0.0,0.0, 1, 1, 1,15,0.0, 1, 1, 1,15
562,1888161682.5373302,0.0, 1, 1, 1,15,127431.16016955995, 7,30,13,30
1046,0.0,0.0, 1, 1, 1,15,0.0, 1, 1, 1,15
1096,16984783275.910177,0.0, 1, 1, 1,15,1511581.3346542898, 6,27,15,60
1134,1425792197.1636868,0.0, 1, 1, 1,15,3801021.8358418224, 1, 8, 6,15
1326,8647779330.3117,0.0, 1, 1, 1,15,10540800.0, 5, 7,19,60
1379,0.0,0.0, 1, 1, 1,15,0.0, 1, 1, 1,15
End of Data
 Number of Records Written=          99
