Program Version,EnergyPlus, Version 22.2.0-c249759bad, YMD=2023.09.01 14:31
1,5,Environment Title[],Latitude[deg],Longitude[deg],Time Zone[],Elevation[m]
2,8,Day of Simulation[],Month[],Day of Month[],DST Indicator[1=yes 0=no],Hour[],StartMinute[],EndMinute[],DayType
3,5,Cumulative Day of Simulation[],Month[],Day of Month[],DST Indicator[1=yes 0=no],DayType  ! When Daily Report Variables Requested
4,2,Cumulative Days of Simulation[],Month[]  ! When Monthly Report Variables Requested
5,1,Cumulative Days of Simulation[] ! When Run Period Report Variables Requested
6,1,Calendar Year of Simulation[] ! When Annual Report Variables Requested
7,1,Environment,Site Outdoor Air Drybulb Temperature [C] !Hourly
545,1,LIVING,Zone Mean Air Temperature [C] !Hourly
546,1,ATTIC,Zone Mean Air Temperature [C] !Hourly
547,1,CRAWLSPACE,Zone Mean Air Temperature [C] !Hourly
548,1,FAN,Fan Electricity Rate [W] !Hourly
720,1,LIVING,Zone Predicted Sensible Load to Heating Setpoint Heat Transfer Rate [W] !Hourly
721,1,LIVING,Zone System Predicted Sensible Load to Heating Setpoint Heat Transfer Rate [W] !Hourly
784,1,ATTIC,Zone Predicted Sensible Load to Heating Setpoint Heat Transfer Rate [W] !Hourly
785,1,ATTIC,Zone System Predicted Sensible Load to Heating Setpoint Heat Transfer Rate [W] !Hourly
848,1,CRAWLSPACE,Zone Predicted Sensible Load to Heating Setpoint Heat Transfer Rate [W] !Hourly
849,1,CRAWLSPACE,Zone System Predicted Sensible Load to Heating Setpoint Heat Transfer Rate [W] !Hourly
1121,1,DX_HEATING_COIL,Heating Coil Heating Rate [W] !Hourly
1135,1,DX_HEATING_COIL,Heating Coil Electricity Rate [W] !Hourly
1161,1,DX_HEATING_COIL,Heating Coil Defrost Electricity Rate [W] !Hourly
1163,1,DX_HEATING_COIL,Heating Coil Crankcase Heater Electricity Rate [W] !Hourly
1166,1,HEATING_RESISTANCE_BACKUP,Heating Coil Heating Rate [W] !Hourly
1168,1,HEATING_RESISTANCE_BACKUP,Heating Coil Electricity Rate [W] !Hourly
End of Data Dictionary
1,EXTREME_WINTER,  35.04,-106.62,  -7.00,1619.00
2,1,12,22, 0, 1, 0.00,60.00,Monday
7,2.8
545,18.846661586289095
546,4.726122478241801
547,19.01427762790122
548,25.900903418092494
720,663.3447455498927
721,663.3447455498927
784,0.0
785,0.0
848,0.0
849,0.0
1121,802.1536100243864
1135,252.2892870634891
1161,6.070900100565143
1163,174.89392901389184
1166,0.0
1168,0.0
2,1,12,22, 0, 2, 0.00,60.00,Monday
7,1.7
545,18.43211373322985
546,3.5449312054438478
547,18.681102999856208
548,35.556497693770446
720,853.7831794291269
721,853.7831794291269
784,0.0
785,0.0
848,0.0
849,0.0
1121,1051.0735754335994
1135,337.7751648684267
1161,13.512394604277034
1163,165.45811884539953
1166,0.0
1168,0.0
2,1,12,22, 0, 3, 0.00,60.00,Monday
7,1.7
545,18.55402148486106
546,3.291704748601662
547,18.500918616566683
548,50.15363994011255
720,1210.9784682949703
721,1210.9784682949703
784,0.0
785,0.0
848,0.0
849,0.0
1121,1497.543788412514
1135,472.41315330068704
1161,19.059524330362763
1163,151.27793085067094
1166,0.0
1168,0.0
2,1,12,22, 0, 4, 0.00,60.00,Monday
7,2.8
545,18.701083905557862
546,3.739948465554774
547,18.320415252926036
548,54.05964640247737
720,1359.9813437757894
721,1359.9813437757894
784,0.0
785,0.0
848,0.0
849,0.0
1121,1700.5623884831937
1135,525.726273918747
1161,12.706602510895854
1163,147.59904390316402
1166,0.0
1168,0.0
2,1,12,22, 0, 5, 0.00,60.00,Monday
7,3.3
545,18.70194716219044
546,3.027305966271211
547,18.167207949586537
548,46.582711727890036
720,1205.1914932608834
721,1205.1914932608834
784,0.0
785,0.0
848,0.0
849,0.0
1121,1523.4496750594749
1135,469.79734075626243
1161,1.1778475652527831
1163,154.92753135633163
1166,0.0
1168,0.0
2,1,12,22, 0, 6, 0.00,60.00,Monday
7,3.3
545,19.480515550154912
546,2.288185430908741
547,18.00242556585261
548,74.11634619552353
720,1987.3083281390373
721,1987.3083281390373
784,0.0
785,0.0
848,0.0
849,0.0
1121,2461.0164090864073
1135,747.3185700317107
1161,1.874037681785965
1163,128.28655664689265
1166,0.0
1168,0.0
2,1,12,22, 0, 7, 0.00,60.00,Monday
7,1.1
545,19.532168037833067
546,2.3287559800256914
547,17.868185056981137
548,84.6965095120427
720,2013.8201645055178
721,2013.8201645055178
784,0.0
785,0.0
848,0.0
849,0.0
1121,2580.9413174628285
1135,826.5745679617236
1161,19.586170558751643
1163,117.8326854400857
1166,0.0
1168,0.0
2,1,12,22, 0, 8, 0.00,60.00,Monday
7,0.6
545,19.529536727558888
546,2.587970074967234
547,17.733242190961896
548,93.60244633890626
720,2132.3350701357867
721,2132.3350701357867
784,0.0
785,0.0
848,0.0
849,0.0
1121,2759.8371333322248
1135,890.5551838494038
1161,36.991200059561585
1163,108.95845257188661
1166,0.0
1168,0.0
2,1,12,22, 0, 9, 0.00,60.00,Monday
7,0.6
545,19.662354132574574
546,3.1531179928944084
547,17.611168140800864
548,99.7939433993089
720,2279.8761702782976
721,2279.8761702782976
784,0.0
785,0.0
848,0.0
849,0.0
1121,2952.8309988920582
1135,949.2773937176327
1161,39.438037118955485
1163,102.93637619066646
1166,0.0
1168,0.0
2,1,12,22, 0,10, 0.00,60.00,Monday
7,4.4
545,19.87788170004097
546,6.0823092822215825
547,17.52201489355165
548,60.74056572617502
720,1537.9026584336934
721,1537.9026584336934
784,0.0
785,0.0
848,0.0
849,0.0
1121,2032.6544250309105
1135,624.9138984041249
1161,5.326398957517375
1163,141.2131813086899
1166,0.0
1168,0.0
2,1,12,22, 0,11, 0.00,60.00,Monday
7,5.0
545,19.933671035727695
546,7.787484094695156
547,17.420571156339484
548,45.45935649419601
720,1185.6922608560162
721,1185.6922608560162
784,0.0
785,0.0
848,0.0
849,0.0
1121,1529.711562714875
1135,472.1401552074842
1161,4.158012366960983
1163,156.00658098368012
1166,0.0
1168,0.0
2,1,12,22, 0,12, 0.00,60.00,Monday
7,5.0
545,19.782184139999988
546,9.55088828141557
547,17.335583081178108
548,28.443238689609085
720,736.0025617906849
721,736.0025617906849
784,0.0
785,0.0
848,0.0
849,0.0
1121,948.0781511205219
1135,295.7245193535221
1161,2.6016063143739716
1163,172.47397395611648
1166,0.0
1168,0.0
2,1,12,22, 0,13, 0.00,60.00,Monday
7,6.7
545,19.786206817705253
546,10.916119732803741
547,17.266560360511207
548,18.896379537829056
720,611.8093878615891
721,611.8093878615891
784,0.0
785,0.0
848,0.0
849,0.0
1121,758.196242243635
1135,211.6644327235723
1161,0.0
1163,181.7195640222728
1166,0.0
1168,0.0
2,1,12,22, 0,14, 0.00,60.00,Monday
7,7.8
545,19.371329776287464
546,9.828649889014628
547,17.20860609716327
548,18.54037175484293
720,633.3558046539583
721,633.3558046539583
784,0.0
785,0.0
848,0.0
849,0.0
1121,764.4857578451705
1135,210.17995825458618
1161,0.0
1163,182.0639674288313
1166,0.0
1168,0.0
2,1,12,22, 0,15, 0.00,60.00,Monday
7,7.8
545,19.66324876456609
546,9.363114574696086
547,17.160442797326553
548,29.054463524245637
720,1014.5560022851805
721,1014.5560022851805
784,0.0
785,0.0
848,0.0
849,0.0
1121,1206.9909238407217
1135,326.81848757995033
1161,0.0
1163,171.89259142160506
1166,0.0
1168,0.0
2,1,12,22, 0,16, 0.00,60.00,Monday
7,7.8
545,19.866644583759534
546,9.01546819186706
547,17.119529454532007
548,32.447517073769035
720,1120.1373537636046
721,1120.1373537636046
784,0.0
785,0.0
848,0.0
849,0.0
1121,1348.7578420757477
1135,366.9427788544509
1161,0.0
1163,168.61013733790665
1166,0.0
1168,0.0
2,1,12,22, 0,17, 0.00,60.00,Monday
7,7.8
545,19.798560137864886
546,8.628460910707101
547,17.074247954076874
548,23.808592255212606
720,799.5312770057553
721,799.5312770057553
784,0.0
785,0.0
848,0.0
849,0.0
1121,984.1926677072769
1135,270.26797525793967
1161,0.0
1163,176.9674690556502
1166,0.0
1168,0.0
2,1,12,22, 0,18, 0.00,60.00,Monday
7,7.8
545,19.745087482039605
546,8.28987241103795
547,17.029332719553963
548,16.774843736325924
720,556.5861032811699
721,556.5861032811699
784,0.0
785,0.0
848,0.0
849,0.0
1121,691.0186341636589
1135,190.1802106397867
1161,0.0
1163,183.77194656021848
1166,0.0
1168,0.0
2,1,12,22, 0,19, 0.00,60.00,Monday
7,6.1
545,19.920475152093307
546,7.083663781543652
547,16.983417188566136
548,12.556139594118035
720,397.07725998467686
721,397.07725998467686
784,0.0
785,0.0
848,0.0
849,0.0
1121,494.65752281702817
1135,139.62885377435015
1161,0.0
1163,187.8531384534177
1166,0.0
1168,0.0
2,1,12,22, 0,20, 0.00,60.00,Monday
7,6.1
545,19.432717869337612
546,6.604906031231149
547,16.93238127654902
548,6.09477234562834
720,184.1796988725855
721,184.1796988725855
784,0.0
785,0.0
848,0.0
849,0.0
1121,239.0943390869146
1135,68.00113113645726
1161,0.0
1163,194.10389194183801
1166,0.0
1168,0.0
2,1,12,22, 0,21, 0.00,60.00,Monday
7,6.1
545,19.69048652665673
546,6.526025118614261
547,16.881594522442793
548,13.442424101753748
720,439.3481025611045
721,439.3481025611045
784,0.0
785,0.0
848,0.0
849,0.0
1121,530.5690572262423
1135,148.58704145236214
1161,0.0
1163,186.99574314298525
1166,0.0
1168,0.0
2,1,12,22, 0,22, 0.00,60.00,Monday
7,5.6
545,20.09900141682937
546,6.280157486501257
547,16.830212606778343
548,17.87942450485614
720,572.0512078095544
721,572.0512078095544
784,0.0
785,0.0
848,0.0
849,0.0
1121,697.6739896784202
1135,197.56686906036964
1161,0.0
1163,182.70337054114972
1166,0.0
1168,0.0
2,1,12,22, 0,23, 0.00,60.00,Monday
7,5.6
545,18.71126332746777
546,5.839371643606252
547,16.767009792617063
548,0.0
720,-282.5708016789504
721,-282.5708016789504
784,0.0
785,0.0
848,0.0
849,0.0
1121,0.0
1135,0.0
1161,0.0
1163,200.0
1166,0.0
1168,0.0
2,1,12,22, 0,24, 0.00,60.00,Monday
7,5.6
545,18.60913808705533
546,5.906454428664842
547,16.706070014180327
548,14.745108370610232
720,465.45608190548774
721,465.45608190548774
784,0.0
785,0.0
848,0.0
849,0.0
1121,576.9146675809045
1135,159.91367009576618
1161,0.0
1163,185.73552097564624
1166,0.0
1168,0.0
2,2,12,23, 0, 1, 0.00,60.00,Tuesday
7,5.0
545,18.423113845558433
546,5.437703339680705
547,16.637268406259434
548,29.986127420584975
720,759.1328352719675
721,759.1328352719675
784,0.0
785,0.0
848,0.0
849,0.0
1121,926.0844517164945
1135,280.1539339144744
1161,19.26532718483561
1163,170.9121395917077
1166,0.0
1168,0.0
2,2,12,23, 0, 2, 0.00,60.00,Tuesday
7,5.0
545,18.419292056538023
546,5.534415683943093
547,16.56463014935863
548,47.229103560406095
720,1206.512574145574
721,1206.512574145574
784,0.0
785,0.0
848,0.0
849,0.0
1121,1473.5693245823315
1135,439.61492198525104
1161,30.357401999003923
1163,154.18573915445396
1166,0.0
1168,0.0
2,2,12,23, 0, 3, 0.00,60.00,Tuesday
7,5.0
545,18.548560842387012
546,5.5539759232498485
547,16.49126614651564
548,60.73498571932443
720,1552.9112676953591
721,1552.9112676953591
784,0.0
785,0.0
848,0.0
849,0.0
1121,1909.1549925584861
1135,565.2223624199761
1161,39.03855920395247
1163,141.0844599131752
1166,0.0
1168,0.0
2,2,12,23, 0, 4, 0.00,60.00,Tuesday
7,4.4
545,18.78487016871324
546,5.2063465655932015
547,16.420116167901206
548,66.61321119458246
720,1628.9962191266204
721,1628.9962191266204
784,0.0
785,0.0
848,0.0
849,0.0
1121,2026.3424465938351
1135,606.2356365024515
1161,51.343906926733766
1163,135.28099747285682
1166,0.0
1168,0.0
2,2,12,23, 0, 5, 0.00,60.00,Tuesday
7,3.9
545,18.65485546958669
546,4.7244905760015925
547,16.34917208241629
548,59.63328697458443
720,1395.6496959092237
721,1395.6496959092237
784,0.0
785,0.0
848,0.0
849,0.0
1121,1768.4953964735957
1135,538.9799250649435
1161,48.84681955717728
1163,141.9937737746697
1166,0.0
1168,0.0
2,2,12,23, 0, 6, 0.00,60.00,Tuesday
7,3.9
545,19.450348817319338
546,4.988727412506523
547,16.274057977272676
548,90.22551696960852
720,2194.3523054417583
721,2194.3523054417583
784,0.0
785,0.0
848,0.0
849,0.0
1121,2723.491156469245
1135,813.2807273528674
1161,73.9052709066365
1163,112.23654063215717
1166,0.0
1168,0.0
2,2,12,23, 0, 7, 0.00,60.00,Tuesday
7,3.9
545,19.66670094084637
546,4.968084281232042
547,16.223054200177152
548,86.55925655344944
720,2066.767225416019
721,2066.767225416019
784,0.0
785,0.0
848,0.0
849,0.0
1121,2628.428527016876
1135,801.1481682525512
1161,64.58596250465406
1163,115.84682061739322
1166,0.0
1168,0.0
2,2,12,23, 0, 8, 0.00,60.00,Tuesday
7,3.3
545,19.78743871733464
546,4.964337582772285
547,16.15562567012875
548,78.10340524117727
720,1788.4153746795491
721,1788.4153746795491
784,0.0
785,0.0
848,0.0
849,0.0
1121,2306.7470632464933
1135,718.0887460973989
1161,61.50259609345417
1163,123.96517237674524
1166,0.0
1168,0.0
2,2,12,23, 0, 9, 0.00,60.00,Tuesday
7,3.3
545,19.82722680187489
546,6.352349575766808
547,16.087734162199986
548,39.34364778689248
720,830.0526461108329
721,830.0526461108329
784,0.0
785,0.0
848,0.0
849,0.0
1121,1136.6884335414302
1135,362.6214607807305
1161,30.981305753749492
1163,161.69823077142576
1166,0.0
1168,0.0
2,2,12,23, 0,10, 0.00,60.00,Tuesday
7,3.9
545,19.182060312864248
546,7.061109174462376
547,16.036406877995752
548,29.244952203310046
720,653.1982474005199
721,653.1982474005199
784,0.0
785,0.0
848,0.0
849,0.0
1121,860.0351107551865
1135,273.02530079558085
1161,21.575090961133366
1163,171.56948284253795
1166,0.0
1168,0.0
2,2,12,23, 0,11, 0.00,60.00,Tuesday
7,5.6
545,20.63425473147339
546,12.34406725813258
547,16.00596646262876
548,17.549180792468434
720,544.4227094418438
721,544.4227094418438
784,0.0
785,0.0
848,0.0
849,0.0
1121,686.3332374449211
1135,191.91023438130495
1161,0.0
1163,183.02284967890014
1166,0.0
1168,0.0
2,2,12,23, 0,12, 0.00,60.00,Tuesday
7,5.6
545,20.611098255509912
546,17.537596306468757
547,15.99346451514025
548,0.0
720,-657.9522363552023
721,-657.9522363552023
784,0.0
785,0.0
848,0.0
849,0.0
1121,0.0
1135,0.0
1161,0.0
1163,200.0
1166,0.0
1168,0.0
2,2,12,23, 0,13, 0.00,60.00,Tuesday
7,7.8
545,21.50830148963284
546,18.8940309279026
547,16.00842602992143
548,0.0
720,-1216.9659029105678
721,-1216.9659029105678
784,0.0
785,0.0
848,0.0
849,0.0
1121,0.0
1135,0.0
1161,0.0
1163,200.0
1166,0.0
1168,0.0
2,2,12,23, 0,14, 0.00,60.00,Tuesday
7,8.3
545,21.429582880136273
546,17.233093196900874
547,16.041455377852575
548,0.0
720,-1043.8006766312283
721,-1043.8006766312283
784,0.0
785,0.0
848,0.0
849,0.0
1121,0.0
1135,0.0
1161,0.0
1163,200.0
1166,0.0
1168,0.0
2,2,12,23, 0,15, 0.00,60.00,Tuesday
7,8.3
545,21.432439645317938
546,15.166552561215369
547,16.08718589719879
548,0.0
720,-1205.4409669024517
721,-1205.4409669024517
784,0.0
785,0.0
848,0.0
849,0.0
1121,0.0
1135,0.0
1161,0.0
1163,200.0
1166,0.0
1168,0.0
2,2,12,23, 0,16, 0.00,60.00,Tuesday
7,10.6
545,21.624111626203348
546,13.001950584775615
547,16.132100056801722
548,0.0
720,-1318.7377681136459
721,-1318.7377681136459
784,0.0
785,0.0
848,0.0
849,0.0
1121,0.0
1135,0.0
1161,0.0
1163,0.0
1166,0.0
1168,0.0
2,2,12,23, 0,17, 0.00,60.00,Tuesday
7,7.2
545,21.86479894961173
546,12.042159814187013
547,16.170592742491607
548,0.0
720,-1452.8368430876071
721,-1452.8368430876071
784,0.0
785,0.0
848,0.0
849,0.0
1121,0.0
1135,0.0
1161,0.0
1163,200.0
1166,0.0
1168,0.0
2,2,12,23, 0,18, 0.00,60.00,Tuesday
7,7.2
545,21.711946117245567
546,10.203598529180677
547,16.206345061100386
548,0.0
720,-1228.0867732747192
721,-1228.0867732747192
784,0.0
785,0.0
848,0.0
849,0.0
1121,0.0
1135,0.0
1161,0.0
1163,200.0
1166,0.0
1168,0.0
2,2,12,23, 0,19, 0.00,60.00,Tuesday
7,5.6
545,21.70617363975116
546,8.362410986118546
547,16.22856464736298
548,0.0
720,-1209.5870150935516
721,-1209.5870150935516
784,0.0
785,0.0
848,0.0
849,0.0
1121,0.0
1135,0.0
1161,0.0
1163,200.0
1166,0.0
1168,0.0
2,2,12,23, 0,20, 0.00,60.00,Tuesday
7,6.1
545,21.222340829311534
546,7.163404581572657
547,16.23248169324696
548,0.0
720,-919.4242858017878
721,-919.4242858017878
784,0.0
785,0.0
848,0.0
849,0.0
1121,0.0
1135,0.0
1161,0.0
1163,200.0
1166,0.0
1168,0.0
2,2,12,23, 0,21, 0.00,60.00,Tuesday
7,6.1
545,21.04780256775173
546,6.7922559204989215
547,16.225352373136577
548,0.0
720,-968.528563583297
721,-968.528563583297
784,0.0
785,0.0
848,0.0
849,0.0
1121,0.0
1135,0.0
1161,0.0
1163,200.0
1166,0.0
1168,0.0
2,2,12,23, 0,22, 0.00,60.00,Tuesday
7,4.4
545,20.31070700743999
546,5.607006295183439
547,16.204124263250137
548,0.0
720,-415.23993083532696
721,-415.23993083532696
784,0.0
785,0.0
848,0.0
849,0.0
1121,0.0
1135,0.0
1161,0.0
1163,200.0
1166,0.0
1168,0.0
2,2,12,23, 0,23, 0.00,60.00,Tuesday
7,5.0
545,20.058752436960898
546,5.859267317321576
547,16.175187671461153
548,0.0
720,-1099.3769399501762
721,-1099.3769399501762
784,0.0
785,0.0
848,0.0
849,0.0
1121,0.0
1135,0.0
1161,0.0
1163,200.0
1166,0.0
1168,0.0
2,2,12,23, 0,24, 0.00,60.00,Tuesday
7,5.0
545,19.355933124892957
546,5.698915232819844
547,16.134037265979973
548,0.0
720,-482.5029838414612
721,-482.5029838414612
784,0.0
785,0.0
848,0.0
849,0.0
1121,0.0
1135,0.0
1161,0.0
1163,200.0
1166,0.0
1168,0.0
2,3,12,24, 0, 1, 0.00,60.00,Wednesday
7,2.2
545,18.62349359568993
546,4.514818229390319
547,16.08494320782588
548,20.374474926616358
720,471.6185413985222
721,471.6185413985222
784,0.0
785,0.0
848,0.0
849,0.0
1121,600.7523872033388
1135,194.8269364477225
1161,8.507459641887118
1163,180.20744529915078
1166,0.0
1168,0.0
2,3,12,24, 0, 2, 0.00,60.00,Wednesday
7,2.2
545,18.51713104776838
546,4.157214810343876
547,16.022129993092353
548,37.35523327875532
720,934.5363528824728
721,934.5363528824728
784,0.0
785,0.0
848,0.0
849,0.0
1121,1152.3437215818158
1135,362.90894883343395
1161,7.460342976577385
1163,163.79270100977172
1166,0.0
1168,0.0
2,3,12,24, 0, 3, 0.00,60.00,Wednesday
7,1.7
545,18.558974694792024
546,3.6698461151462767
547,15.95299023585424
548,47.78103850767403
720,1187.4299807164152
721,1187.4299807164152
784,0.0
785,0.0
848,0.0
849,0.0
1121,1480.6117548560965
1135,466.1033346508087
1161,5.780644755211393
1163,153.71694088412357
1166,0.0
1168,0.0
2,3,12,24, 0, 4, 0.00,60.00,Wednesday
7,0.6
545,18.325753356394145
546,3.1995881873660643
547,15.875326570298219
548,67.7910591223652
720,1677.1706274982243
721,1677.1706274982243
784,0.0
785,0.0
848,0.0
849,0.0
1121,2098.2300065410896
1135,665.8537995003111
1161,0.03265647759596385
1163,134.41823968036877
1166,0.0
1168,0.0
2,3,12,24, 0, 5, 0.00,60.00,Wednesday
7,0.6
545,18.737947943753205
546,3.0865633805239185
547,15.795490838994514
548,79.26486428607461
720,1960.1709412151995
721,1960.1709412151995
784,0.0
785,0.0
848,0.0
849,0.0
1121,2471.852058449525
1135,774.9106787202302
1161,0.038183667280053256
1163,123.31836437881788
1166,0.0
1168,0.0
2,3,12,24, 0, 6, 0.00,60.00,Wednesday
7,0.6
545,19.410655339483675
546,3.2771548760597344
547,15.72496170251897
548,109.86829494708799
720,2759.0165615753103
721,2759.0165615753103
784,0.0
785,0.0
848,0.0
849,0.0
1121,3478.6740709610885
1135,1082.6176078579058
1161,0.052926028545144076
1163,93.71229311190035
1166,0.0
1168,0.0
2,3,12,24, 0, 7, 0.00,60.00,Wednesday
7,0.6
545,19.801203699966642
546,3.0085900150543297
547,15.665766618110617
548,100.82670505047841
720,2443.4292628309904
721,2443.4292628309904
784,0.0
785,0.0
848,0.0
849,0.0
1121,3165.7205052499257
1135,1006.7637157776916
1161,0.04857049235134439
1163,102.45921720638853
1166,0.0
1168,0.0
2,3,12,24, 0, 8, 0.00,60.00,Wednesday
7,0.6
545,19.757466887743885
546,2.5905873504500945
547,15.593882144316423
548,87.80404191329907
720,2075.158700346725
721,2075.158700346725
784,0.0
785,0.0
848,0.0
849,0.0
1121,2731.511737705491
1135,883.5131859225916
1161,0.042297183029761806
1163,115.05747331438303
1166,0.0
1168,0.0
2,3,12,24, 0, 9, 0.00,60.00,Wednesday
7,1.0
545,19.78525797804631
546,2.796879192146529
547,15.522618325016884
548,82.40328022402404
720,1967.1033156926442
721,1967.1033156926442
784,0.0
785,0.0
848,0.0
849,0.0
1121,2584.0772367935756
1135,831.3704986600002
1161,0.03969549699885614
1163,120.28226062355922
1166,0.0
1168,0.0
2,3,12,24, 0,10, 0.00,60.00,Wednesday
7,0.6
545,19.73750243217803
546,3.311310409450814
547,15.453230430167256
548,79.66744420434097
720,1880.3146909879233
721,1880.3146909879233
784,0.0
785,0.0
848,0.0
849,0.0
1121,2467.4369047607356
1135,801.314168116496
1161,0.03837760077366305
1163,122.92890106764196
1166,0.0
1168,0.0
2,3,12,24, 0,11, 0.00,60.00,Wednesday
7,0.6
545,19.72451599119588
546,4.249896292480758
547,15.385930801673524
548,74.75566366663182
720,1759.582976941747
721,1759.582976941747
784,0.0
785,0.0
848,0.0
849,0.0
1121,2303.2412067668556
1135,749.2869113671821
1161,1.4713862454477946
1163,127.66250770157548
1166,0.0
1168,0.0
2,3,12,24, 0,12, 0.00,60.00,Wednesday
7,0.6
545,19.725418585057046
546,4.745737642844889
547,15.326807085690485
548,73.95985742305879
720,1759.4763058444896
721,1759.4763058444896
784,0.0
785,0.0
848,0.0
849,0.0
1121,2277.8978795054577
1135,741.0771381704817
1161,1.455722675451558
1163,128.4325729223658
1166,0.0
1168,0.0
2,3,12,24, 0,13, 0.00,60.00,Wednesday
7,2.8
545,19.89044250255963
546,11.899654260184366
547,15.268380104408948
548,43.889156721466556
720,1050.7323700611742
721,1050.7323700611742
784,0.0
785,0.0
848,0.0
849,0.0
1121,1398.0907814527204
1135,445.10783338909823
1161,3.4115141898910717
1163,157.5141420546521
1166,0.0
1168,0.0
2,3,12,24, 0,14, 0.00,60.00,Wednesday
7,3.9
545,19.755394218691407
546,13.406679886433082
547,15.223576252782498
548,25.74503256332251
720,653.5456547266604
721,653.5456547266604
784,0.0
785,0.0
848,0.0
849,0.0
1121,830.8708366195426
1135,263.35445722551765
1161,2.9026562101226974
1163,175.07709072046487
1166,0.0
1168,0.0
2,3,12,24, 0,15, 0.00,60.00,Wednesday
7,3.9
545,19.729188135933796
546,13.298101643298558
547,15.199403710430381
548,22.421304264787956
720,596.0537914691577
721,596.0537914691577
784,0.0
785,0.0
848,0.0
849,0.0
1121,722.7647265066591
1135,228.74861573532442
1161,2.5279171720804645
1163,178.2946908675495
1166,0.0
1168,0.0
2,3,12,24, 0,16, 0.00,60.00,Wednesday
7,5.0
545,20.013983506961768
546,12.648077722070102
547,15.178922707978465
548,0.0
720,-115.02435705024982
721,-115.02435705024982
784,0.0
785,0.0
848,0.0
849,0.0
1121,0.0
1135,0.0
1161,0.0
1163,200.0
1166,0.0
1168,0.0
2,3,12,24, 0,17, 0.00,60.00,Wednesday
7,4.4
545,20.52006942781496
546,10.678621521086828
547,15.191789448193799
548,0.0
720,-554.9788672613813
721,-554.9788672613813
784,0.0
785,0.0
848,0.0
849,0.0
1121,0.0
1135,0.0
1161,0.0
1163,200.0
1166,0.0
1168,0.0
2,3,12,24, 0,18, 0.00,60.00,Wednesday
7,4.4
545,20.022326633665365
546,8.292136600326534
547,15.215693764074818
548,0.0
720,-204.0337928756162
721,-204.0337928756162
784,0.0
785,0.0
848,0.0
849,0.0
1121,0.0
1135,0.0
1161,0.0
1163,200.0
1166,0.0
1168,0.0
2,3,12,24, 0,19, 0.00,60.00,Wednesday
7,2.8
545,19.938820061428643
546,6.2909622024623575
547,15.235585194366179
548,0.0
720,-135.0347615889823
721,-135.0347615889823
784,0.0
785,0.0
848,0.0
849,0.0
1121,0.0
1135,0.0
1161,0.0
1163,200.0
1166,0.0
1168,0.0
2,3,12,24, 0,20, 0.00,60.00,Wednesday
7,2.2
545,19.756614631158683
546,4.202407230813886
547,15.237411210579136
548,0.0
720,-21.208077436664098
721,-21.208077436664098
784,0.0
785,0.0
848,0.0
849,0.0
1121,0.0
1135,0.0
1161,0.0
1163,200.0
1166,0.0
1168,0.0
2,3,12,24, 0,21, 0.00,60.00,Wednesday
7,2.2
545,19.750684200855325
546,3.3173341328991843
547,15.226650138181235
548,3.434061716646112
720,58.54615521390406
721,58.54615521390406
784,0.0
785,0.0
848,0.0
849,0.0
1121,103.4761538275873
1135,34.09142268734111
1161,0.6849377865037598
1163,196.6714427411714
1166,0.0
1168,0.0
2,3,12,24, 0,22, 0.00,60.00,Wednesday
7,0.0
545,19.318467488784577
546,2.3874939009341984
547,15.204763715589852
548,16.31216033784216
720,360.69821161473556
721,360.69821161473556
784,0.0
785,0.0
848,0.0
849,0.0
1121,454.4810197966712
1135,155.21726329064066
1161,6.1437311444559635
1163,184.12953703671928
1166,0.0
1168,0.0
2,3,12,24, 0,23, 0.00,60.00,Wednesday
7,0.0
545,18.93240383760143
546,1.296912537497161
547,15.16634200040796
548,13.525916961806805
720,283.20562426259494
721,283.20562426259494
784,0.0
785,0.0
848,0.0
849,0.0
1121,373.70939207858504
1135,126.5819384581613
1161,5.907117404029378
1163,186.82791189882536
1166,0.0
1168,0.0
2,3,12,24, 0,24, 0.00,60.00,Wednesday
7,0.0
545,18.62278747544354
546,0.4287307583811447
547,15.119299317318385
548,21.678690666664824
720,468.8607693093127
721,468.8607693093127
784,0.0
785,0.0
848,0.0
849,0.0
1121,602.7756434212602
1135,201.32338711082537
1161,9.467523275639497
1163,178.88867917174295
1166,0.0
1168,0.0
2,4,12,25, 0, 1, 0.00,60.00,Thursday
7,-1.1
545,18.46611823097218
546,-0.01503700977617433
547,15.061664940416996
548,44.01274507411674
720,929.0902707313162
721,929.0902707313162
784,0.0
785,0.0
848,0.0
849,0.0
1121,1189.4886763792363
1135,398.52679109009404
1161,22.80136840884596
1163,157.02047094907533
1166,0.0
1168,0.0
2,4,12,25, 0, 2, 0.00,60.00,Thursday
7,0.0
545,18.455457675469408
546,0.7570593731435297
547,15.000819243924226
548,65.30049442159996
720,1398.390585560377
721,1398.390585560377
784,0.0
785,0.0
848,0.0
849,0.0
1121,1809.6387308135702
1135,584.9545466285265
1161,41.23072087502721
1163,136.20667781959773
1166,0.0
1168,0.0
2,4,12,25, 0, 3, 0.00,60.00,Thursday
7,0.0
545,18.52146145908916
546,1.433271431611686
547,14.936942427421378
548,82.38759519803287
720,1772.1888525892864
721,1772.1888525892864
784,0.0
785,0.0
848,0.0
849,0.0
1121,2305.2926797437203
1135,737.767099080978
1161,52.01947039003515
1163,119.5140234316066
1166,0.0
1168,0.0
2,4,12,25, 0, 4, 0.00,60.00,Thursday
7,0.0
545,18.637323579478135
546,0.8251727369272552
547,14.874032183609938
548,89.02343370225046
720,1928.8913605444886
721,1928.8913605444886
784,0.0
785,0.0
848,0.0
849,0.0
1121,2521.2010342702542
1135,804.3636918529326
1161,51.19436841044119
1163,113.11263521538586
1166,0.0
1168,0.0
2,4,12,25, 0, 5, 0.00,60.00,Thursday
7,-0.6
545,18.591091333270846
546,-0.19242478763232027
547,14.807417654621732
548,91.7884425932706
720,1917.7514167084864
721,1917.7514167084864
784,0.0
785,0.0
848,0.0
849,0.0
1121,2543.913165341725
1135,822.9139129664801
1161,56.657998777173255
1163,110.26557792583912
1166,0.0
1168,0.0
2,4,12,25, 0, 6, 0.00,60.00,Thursday
7,-0.6
545,19.323454933333817
546,-0.31211404843685875
547,14.748077264130162
548,131.673040111141
720,2848.8644013064713
721,2848.8644013064713
784,0.0
785,0.0
848,0.0
849,0.0
1121,3734.6207494354194
1135,1179.1333635193116
1161,81.27720782906908
1163,71.27389901244842
1166,0.0
1168,0.0
2,4,12,25, 0, 7, 0.00,60.00,Thursday
7,-1.1
545,19.551856526994833
546,0.05583825628954982
547,14.707288936319328
548,141.15799494169383
720,2878.758519939589
721,2878.758519939589
784,0.0
785,0.0
848,0.0
849,0.0
1121,3900.950910282484
1135,1262.061025664198
1161,100.31676292976327
1163,61.624958197411274
1166,0.0
1168,0.0
2,4,12,25, 0, 8, 0.00,60.00,Thursday
7,0.6
545,19.754645540520407
546,1.1085717275579803
547,14.64637832385655
548,113.28398119711504
720,2314.946405251503
721,2314.946405251503
784,0.0
785,0.0
848,0.0
849,0.0
1121,3208.769168497539
1135,1025.5858921679637
1161,83.29501435289944
1163,89.25236610265806
1166,0.0
1168,0.0
2,4,12,25, 0, 9, 0.00,60.00,Thursday
7,0.6
545,19.84526705263067
546,2.772403576740326
547,14.573745293529402
548,73.64975800080899
720,1425.8738558600817
721,1425.8738558600817
784,0.0
785,0.0
848,0.0
849,0.0
1121,2037.733684374661
1135,669.5254475682883
1161,54.1534981570666
1163,127.9984302211669
1166,0.0
1168,0.0
2,4,12,25, 0,10, 0.00,60.00,Thursday
7,7.8
545,19.672382901689726
546,7.9525007076948775
547,14.510156875588935
548,18.309595218045366
720,504.15605123512614
721,504.15605123512614
784,0.0
785,0.0
848,0.0
849,0.0
1121,755.0933463503753
1135,207.3055924881394
1161,0.0
1163,182.28722160816463
1166,0.0
1168,0.0
2,4,12,25, 0,11, 0.00,60.00,Thursday
7,10.6
545,19.853059425411914
546,11.635230573597545
547,14.487829452095983
548,0.0
720,-100.14110607760267
721,-100.14110607760267
784,0.0
785,0.0
848,0.0
849,0.0
1121,0.0
1135,0.0
1161,0.0
1163,0.0
1166,0.0
1168,0.0
2,4,12,25, 0,12, 0.00,60.00,Thursday
7,10.6
545,20.245482067517077
546,12.93992988093152
547,14.512074574997776
548,0.0
720,-427.71177303408695
721,-427.71177303408695
784,0.0
785,0.0
848,0.0
849,0.0
1121,0.0
1135,0.0
1161,0.0
1163,0.0
1166,0.0
1168,0.0
2,4,12,25, 0,13, 0.00,60.00,Thursday
7,13.9
545,21.116839208420686
546,15.344836377601064
547,14.563034949943729
548,0.0
720,-1137.6206014893323
721,-1137.6206014893323
784,0.0
785,0.0
848,0.0
849,0.0
1121,0.0
1135,0.0
1161,0.0
1163,0.0
1166,0.0
1168,0.0
2,4,12,25, 0,14, 0.00,60.00,Thursday
7,13.9
545,21.800314761994706
546,16.030589661846015
547,14.635625668644906
548,0.0
720,-1674.2429429409603
721,-1674.2429429409603
784,0.0
785,0.0
848,0.0
849,0.0
1121,0.0
1135,0.0
1161,0.0
1163,0.0
1166,0.0
1168,0.0
2,4,12,25, 0,15, 0.00,60.00,Thursday
7,13.9
545,22.564388062997462
546,16.053575418178315
547,14.725035441078626
548,0.0
720,-2417.764630341935
721,-2417.764630341935
784,0.0
785,0.0
848,0.0
849,0.0
1121,0.0
1135,0.0
1161,0.0
1163,0.0
1166,0.0
1168,0.0
2,4,12,25, 0,16, 0.00,60.00,Thursday
7,12.8
545,23.34574132583229
546,15.230247007577736
547,14.838868507299841
548,7.897598353388532
720,-3249.034350792939
721,-3249.034350792939
784,0.0
785,0.0
848,0.0
849,0.0
1121,0.0
1135,0.0
1161,0.0
1163,0.0
1166,0.0
1168,0.0
2,4,12,25, 0,17, 0.00,60.00,Thursday
7,9.4
545,22.89803949236029
546,11.771049514497706
547,14.963397909706167
548,11.711295351963903
720,-3328.071050219074
721,-3328.071050219074
784,0.0
785,0.0
848,0.0
849,0.0
1121,0.0
1135,0.0
1161,0.0
1163,188.6704442790618
1166,0.0
1168,0.0
2,4,12,25, 0,18, 0.00,60.00,Thursday
7,3.9
545,21.350210263716434
546,7.865270372132711
547,15.047136916319666
548,0.0
720,-2648.5526106005855
721,-2648.5526106005855
784,0.0
785,0.0
848,0.0
849,0.0
1121,0.0
1135,0.0
1161,0.0
1163,200.0
1166,0.0
1168,0.0
2,4,12,25, 0,19, 0.00,60.00,Thursday
7,0.6
545,21.416749139256943
546,4.915440184033633
547,15.133827442124751
548,0.0
720,-1690.8742293386422
721,-1690.8742293386422
784,0.0
785,0.0
848,0.0
849,0.0
1121,0.0
1135,0.0
1161,0.0
1163,200.0
1166,0.0
1168,0.0
2,4,12,25, 0,20, 0.00,60.00,Thursday
7,1.1
545,21.57629665323139
546,3.913939411736
547,15.170446991460679
548,0.0
720,-1573.2087437291939
721,-1573.2087437291939
784,0.0
785,0.0
848,0.0
849,0.0
1121,0.0
1135,0.0
1161,0.0
1163,200.0
1166,0.0
1168,0.0
2,4,12,25, 0,21, 0.00,60.00,Thursday
7,1.1
545,21.231445521738497
546,3.0695717048626006
547,15.168949596938049
548,0.0
720,-1116.3476181112019
721,-1116.3476181112019
784,0.0
785,0.0
848,0.0
849,0.0
1121,0.0
1135,0.0
1161,0.0
1163,200.0
1166,0.0
1168,0.0
2,4,12,25, 0,22, 0.00,60.00,Thursday
7,1.7
545,20.635092652765422
546,2.7659111769674505
547,15.14660919988225
548,0.0
720,-677.0374694656093
721,-677.0374694656093
784,0.0
785,0.0
848,0.0
849,0.0
1121,0.0
1135,0.0
1161,0.0
1163,200.0
1166,0.0
1168,0.0