Program Version,EnergyPlus, Version 22.2.0-c249759bad, YMD=2023.09.01 20:46
1,5,Environment Title[],Latitude[deg],Longitude[deg],Time Zone[],Elevation[m]
2,8,Day of Simulation[],Month[],Day of Month[],DST Indicator[1=yes 0=no],Hour[],StartMinute[],EndMinute[],DayType
3,5,Cumulative Day of Simulation[],Month[],Day of Month[],DST Indicator[1=yes 0=no],DayType  ! When Daily Report Variables Requested
4,2,Cumulative Days of Simulation[],Month[]  ! When Monthly Report Variables Requested
5,1,Cumulative Days of Simulation[] ! When Run Period Report Variables Requested
6,1,Calendar Year of Simulation[] ! When Annual Report Variables Requested
581,11,LIVING,AFN Zone Infiltration Air Change Rate [ach] !RunPeriod [Value,Min,Month,Day,Hour,Minute,Max,Month,Day,Hour,Minute]
582,11,ATTIC,AFN Zone Infiltration Air Change Rate [ach] !RunPeriod [Value,Min,Month,Day,Hour,Minute,Max,Month,Day,Hour,Minute]
583,11,CRAWLSPACE,AFN Zone Infiltration Air Change Rate [ach] !RunPeriod [Value,Min,Month,Day,Hour,Minute,Max,Month,Day,Hour,Minute]
1038,11,Facility,Facility Heating Setpoint Not Met Time [hr] !RunPeriod [Value,Min,Month,Day,Hour,Minute,Max,Month,Day,Hour,Minute]
1039,11,Facility,Facility Cooling Setpoint Not Met Time [hr] !RunPeriod [Value,Min,Month,Day,Hour,Minute,Max,Month,Day,Hour,Minute]
1115,11,DX_HEATING_COIL,Heating Coil Heating Energy [J] !RunPeriod [Value,Min,Month,Day,Hour,Minute,Max,Month,Day,Hour,Minute]
1128,11,DX_HEATING_COIL,Heating Coil Electricity Energy [J] !RunPeriod [Value,Min,Month,Day,Hour,Minute,Max,Month,Day,Hour,Minute]
1153,11,DX_HEATING_COIL,Heating Coil Defrost Electricity Energy [J] !RunPeriod [Value,Min,Month,Day,Hour,Minute,Max,Month,Day,Hour,Minute]
1154,11,DX_HEATING_COIL,Heating Coil Crankcase Heater Electricity Energy [J] !RunPeriod [Value,Min,Month,Day,Hour,Minute,Max,Month,Day,Hour,Minute]
1155,11,HEATING_RESISTANCE_BACKUP,Heating Coil Heating Energy [J] !RunPeriod [Value,Min,Month,Day,Hour,Minute,Max,Month,Day,Hour,Minute]
1156,11,HEATING_RESISTANCE_BACKUP,Heating Coil Electricity Energy [J] !RunPeriod [Value,Min,Month,Day,Hour,Minute,Max,Month,Day,Hour,Minute]
1292,11,WATER HEATER,Water Heater Heat Loss Energy [J] !RunPeriod [Value,Min,Month,Day,Hour,Minute,Max,Month,Day,Hour,Minute]
1306,11,WATER HEATER,Water Heater Heating Energy [J] !RunPeriod [Value,Min,Month,Day,Hour,Minute,Max,Month,Day,Hour,Minute]
1307,11,WATER HEATER,Water Heater Unmet Demand Heat Transfer Energy [J] !RunPeriod [Value,Min,Month,Day,Hour,Minute,Max,Month,Day,Hour,Minute]
1308,11,WATER HEATER,Water Heater Electricity Energy [J] !RunPeriod [Value,Min,Month,Day,Hour,Minute,Max,Month,Day,Hour,Minute]
13,11,Electricity:Facility [J] !RunPeriod [Value,Min,Month,Day,Hour,Minute,Max,Month,Day,Hour,Minute]
1134,11,Heating:Electricity [J] !RunPeriod [Value,Min,Month,Day,Hour,Minute,Max,Month,Day,Hour,Minute]
1096,11,Cooling:Electricity [J] !RunPeriod [Value,Min,Month,Day,Hour,Minute,Max,Month,Day,Hour,Minute]
562,11,Fans:Electricity [J] !RunPeriod [Value,Min,Month,Day,Hour,Minute,Max,Month,Day,Hour,Minute]
1379,11,Pumps:Electricity [J] !RunPeriod [Value,Min,Month,Day,Hour,Minute,Max,Month,Day,Hour,Minute]
1326,11,WaterSystems:Electricity [J] !RunPeriod [Value,Min,Month,Day,Hour,Minute,Max,Month,Day,Hour,Minute]
61,11,InteriorLights:Electricity [J] !RunPeriod [Value,Min,Month,Day,Hour,Minute,Max,Month,Day,Hour,Minute]
1046,11,ExteriorLights:Electricity [J] !RunPeriod [Value,Min,Month,Day,Hour,Minute,Max,Month,Day,Hour,Minute]
134,11,InteriorEquipment:Electricity [J] !RunPeriod [Value,Min,Month,Day,Hour,Minute,Max,Month,Day,Hour,Minute]
170,11,gas_dryer:InteriorEquipment:Electricity [J] !RunPeriod [Value,Min,Month,Day,Hour,Minute,Max,Month,Day,Hour,Minute]
207,11,clotheswasher:InteriorEquipment:Electricity [J] !RunPeriod [Value,Min,Month,Day,Hour,Minute,Max,Month,Day,Hour,Minute]
244,11,dishwasher:InteriorEquipment:Electricity [J] !RunPeriod [Value,Min,Month,Day,Hour,Minute,Max,Month,Day,Hour,Minute]
281,11,refrigerator:InteriorEquipment:Electricity [J] !RunPeriod [Value,Min,Month,Day,Hour,Minute,Max,Month,Day,Hour,Minute]
318,11,electric_mels:InteriorEquipment:Electricity [J] !RunPeriod [Value,Min,Month,Day,Hour,Minute,Max,Month,Day,Hour,Minute]
355,11,NaturalGas:Facility [J] !RunPeriod [Value,Min,Month,Day,Hour,Minute,Max,Month,Day,Hour,Minute]
403,11,InteriorEquipment:NaturalGas [J] !RunPeriod [Value,Min,Month,Day,Hour,Minute,Max,Month,Day,Hour,Minute]
476,11,gas_dryer:InteriorEquipment:NaturalGas [J] !RunPeriod [Value,Min,Month,Day,Hour,Minute,Max,Month,Day,Hour,Minute]
513,11,gas_mels:InteriorEquipment:NaturalGas [J] !RunPeriod [Value,Min,Month,Day,Hour,Minute,Max,Month,Day,Hour,Minute]
End of Data Dictionary
1,EXTREME_WINTER,  36.90, -76.20,  -5.00,   9.00
5,7
1038,0.75,0.0, 1,15, 1,15,0.25, 1,17, 6,15
1039,0.0,0.0, 1,15, 1,15,0.0, 1,15, 1,15
581,0.28284031026392703,0.10649540227122155, 1,17,19,60,0.5801017855535242, 1,19,15,60
582,3.3607572241474473,0.0, 1,15, 3,52,12.454407132497984, 1,17,13,60
583,0.02220809027415494,0.0002722841524628318, 1,19, 2,60,0.06917123732432902, 1,21, 3,60
1115,827573304.3628604,0.0, 1,15,11, 3,3928822.629377398, 1,16, 6,45
1128,256291154.21445182,0.0, 1,15,11, 3,1251312.081141774, 1,21, 6,30
1153,10254077.478927987,0.0, 1,15,11, 3,105225.49999100964, 1,20, 6,60
1154,77146893.86888719,0.0, 1,15, 6, 5,180000.0, 1,15,13,45
1155,27458603.303525433,0.0, 1,15, 1,15,1673774.285354292, 1,21, 6,45
1156,27458603.303525433,0.0, 1,15, 1,15,1673774.285354292, 1,21, 6,45
1292,-24969043.5205334,-39758.44215058311, 1,15, 1,15,-5947.823250853011, 1,21,18,17
1306,242613675.58714405,0.0, 1,15, 1,15,4050000.0, 1,15, 8,45
1307,72765557.24656944,0.0, 1,15, 1,15,12282243.102126168, 1,15, 8,30
1308,242613675.58714405,0.0, 1,15, 1,15,4050000.0, 1,15, 8,45
13,1014559568.47602,272017.0388981225, 1,18,15,15,5956925.93850024, 1,16, 7,30
61,301924526.02383536,88139.10953165221, 1,15, 1,15,1282023.4113694867, 1,15,20,15
134,70666020.44019976,63564.01800854099, 1,15, 4,15,156554.22484006523, 1,20,20,15
170,5241013.419656067,348.4159749238097, 1,15, 4,15,17476.39704006126, 1,20,12,15
207,6509451.13922267,815.2532113832032, 1,15, 3,15,22990.642799023623, 1,20,10,15
244,12749673.399825225,1521.856143006317, 1,15, 4,15,53038.631142310165, 1,20,20,15
281,46165882.481495745,59938.60262432081, 1,15, 5,15,81951.81706819107, 1,15,19,15
318,0.0,0.0, 1,15, 1,15,0.0, 1,15, 1,15
355,197687796.27748066,18561.32405820678, 1,15, 4,15,724774.895203776, 1,20,18,15
403,197687796.27748066,18561.32405820678, 1,15, 4,15,724774.895203776, 1,20,18,15
476,106772067.24485716,7098.072629279515, 1,15, 4,15,356036.3026282215, 1,20,12,15
513,0.0,0.0, 1,15, 1,15,0.0, 1,15, 1,15
562,26763326.893698025,0.0, 1,15,11,15,127878.51670408442, 1,21, 2,15
1046,0.0,0.0, 1,15, 1,15,0.0, 1,15, 1,15
1096,1441290.6653511277,0.0, 1,15, 1,15,172445.45714827345, 1,18,17,30
1134,371150728.8657927,0.0, 1,17,19,45,3608981.5832030023, 1,21, 6,15
1326,242613675.58714405,0.0, 1,15, 1,15,4050000.0, 1,15, 8,45
1379,0.0,0.0, 1,15, 1,15,0.0, 1,15, 1,15
1,EXTREME_SUMMER,  36.90, -76.20,  -5.00,   9.00
5,7
1038,0.0,0.0, 7,15, 1,15,0.0, 7,15, 1,15
1039,68.5,0.0, 7,15, 1,15,0.25, 7,15,14,30
581,0.1714124085305376,0.0, 7,15, 6, 7,0.5401027513741132, 7,19,15,48
582,4.0806303786416835,0.08651483938475554, 7,15, 8,34,11.364900173061553, 7,19,15,48
583,0.04577532204220479,0.0, 7,16,23, 3,0.0705881843663427, 7,20,22,60
1115,0.0,0.0, 7,15, 1, 7,0.0, 7,15, 1, 7
1128,0.0,0.0, 7,15, 1, 7,0.0, 7,15, 1, 7
1153,0.0,0.0, 7,15, 1, 7,0.0, 7,15, 1, 7
1154,0.0,0.0, 7,15, 1, 7,0.0, 7,15, 1, 7
1155,0.0,0.0, 7,15, 1, 7,0.0, 7,15, 1, 7
1156,0.0,0.0, 7,15, 1, 7,0.0, 7,15, 1, 7
1292,-21643611.098130643,-34320.52327921013, 7,20, 7,15,-2394.2610806782745, 7,15, 8,31
1306,175286073.8190908,0.0, 7,15, 1, 7,3903750.2170762294, 7,16, 7,15
1307,34681341.480774395,0.0, 7,15, 1, 7,3302609.1871688147, 7,16, 7,15
1308,175286073.8190908,0.0, 7,15, 1, 7,3903750.2170762294, 7,16, 7,15
13,1213222121.4009542,268479.819722513, 7,15, 4,60,5859448.802345738, 7,17,17,15
61,301924526.02383536,88139.10953165221, 7,15, 1,15,1282023.4113694867, 7,15,20,15
134,70666020.44019976,63564.01800854099, 7,15, 4,15,156554.22484006523, 7,20,20,15
170,5241013.419656067,348.4159749238097, 7,15, 4,15,17476.39704006126, 7,20,12,15
207,6509451.13922267,815.2532113832032, 7,15, 3,15,22990.642799023623, 7,20,10,15
244,12749673.399825225,1521.856143006317, 7,15, 4,15,53038.631142310165, 7,20,20,15
281,46165882.481495745,59938.60262432081, 7,15, 5,15,81951.81706819107, 7,15,19,15
318,0.0,0.0, 7,15, 1,15,0.0, 7,15, 1,15
355,197687796.27748066,18561.32405820678, 7,15, 4,15,724774.895203776, 7,20,18,15
403,197687796.27748066,18561.32405820678, 7,15, 4,15,724774.895203776, 7,20,18,15
476,106772067.24485716,7098.072629279515, 7,15, 4,15,356036.3026282215, 7,20,12,15
513,0.0,0.0, 7,15, 1,15,0.0, 7,15, 1,15
562,61735284.12864925,11160.352714313029, 7,15, 5,60,127878.51670408444, 7,15,18,30
1046,0.0,0.0, 7,15, 1,15,0.0, 7,15, 1,15
1096,603610216.9891797,97053.33981944964, 7,15, 5,60,1353595.1445188047, 7,19,17,60
1134,0.0,0.0, 7,15, 1,15,0.0, 7,15, 1,15
1326,175286073.81909084,0.0, 7,15, 1,15,4050000.0, 7,15, 8,45
1379,0.0,0.0, 7,15, 1,15,0.0, 7,15, 1,15
1,ANNUAL,  36.90, -76.20,  -5.00,   9.00
5,365
1038,12.25,0.0, 1, 1, 1,15,0.25, 1, 3, 6,15
1039,858.25,0.0, 1, 1, 1,15,0.25, 1,18,15,60
581,0.2533856924218473,0.0, 6, 2,23, 3,1.1017243272153072,10, 2,17,30
582,4.457572930495783,0.0, 1, 3,24,60,22.35933381160535,10, 2,16,60
583,0.02613691449537417,0.0, 6, 2,23, 3,0.08567582259166652, 3, 3, 3,60
1115,8225059447.913207,0.0, 1, 1, 1,15,4466290.341004131, 1,31, 6,45
1128,2472788192.2010593,0.0, 1, 1, 1,15,1298520.4407897834, 1,31, 6,45
1153,77578000.23671368,0.0, 1, 1, 1,15,113638.03232442582, 3, 3,10,45
1154,1378174257.8131993,0.0, 1, 1, 6, 3,180000.0, 1, 1, 1,15
1155,153799058.17828396,0.0, 1, 1, 1,15,1883234.6674120282, 1, 4, 6,45
1156,153799058.17828396,0.0, 1, 1, 1,15,1883234.6674120282, 1, 4, 6,45
1292,-1191667511.9243867,-40532.92462892149, 3, 3, 6,15,-1989.3790282503944, 3,26,10,29
1306,10910191628.786657,0.0, 1, 1, 1,15,4050000.0, 1, 2, 8,45
1307,2805872160.052633,0.0, 1, 1, 1,15,12392300.142571276, 1,30, 8,30
1308,10910191628.786657,0.0, 1, 1, 1,15,4050000.0, 1, 2, 8,45
13,48683395507.6604,151703.1275401932, 1, 9, 4,15,7527508.637028756, 1, 4, 8,15
61,15743207428.383959,88139.10953165221, 1, 1, 1,15,1282023.4113694867, 1, 1,20,15
134,3685071073.4325233,63564.01800854099, 1, 2, 4,15,156554.22484006523, 1, 1,20,15
170,273393721.45532674,348.4159749238097, 1, 2, 4,15,17476.39704006126, 1, 1,12,15
207,339560869.0695816,815.2532113832032, 1, 2, 3,15,22990.642799023623, 1, 1,10,15
244,664895467.8009144,1521.856143006317, 1, 2, 4,15,53038.631142310165, 1, 1,20,15
281,2407221015.106824,59938.60262432081, 1, 1, 5,15,81951.81706819107, 1, 1,19,15
318,0.0,0.0, 1, 1, 1,15,0.0, 1, 1, 1,15
355,10310294493.051695,18561.32405820678, 1, 2, 4,15,724774.895203776, 1, 1,18,15
403,10310294493.051695,18561.32405820678, 1, 2, 4,15,724774.895203776, 1, 1,18,15
476,5569688622.066177,7098.072629279515, 1, 2, 4,15,356036.3026282215, 1, 1,12,15
513,0.0,0.0, 1, 1, 1,15,0.0, 1, 1, 1,15
562,1656329905.9580917,0.0, 1, 1, 1,15,127878.51670408445, 7,22,15,60
1046,0.0,0.0, 1, 1, 1,15,0.0, 1, 1, 1,15
1096,12606255962.667967,0.0, 1, 1, 1,15,1398866.0228015555, 9,24,14,60
1134,4082339508.4292593,0.0, 1, 1, 9,60,3897429.0273171077, 1, 3, 6,15
1326,10910191628.786676,0.0, 1, 1, 1,15,4050000.0, 1, 1,10,30
1379,0.0,0.0, 1, 1, 1,15,0.0, 1, 1, 1,15
End of Data
 Number of Records Written=          99
