Program Version,EnergyPlus, Version 22.2.0-c249759bad, YMD=2023.09.01 20:40
1,5,Environment Title[],Latitude[deg],Longitude[deg],Time Zone[],Elevation[m]
2,8,Day of Simulation[],Month[],Day of Month[],DST Indicator[1=yes 0=no],Hour[],StartMinute[],EndMinute[],DayType
3,5,Cumulative Day of Simulation[],Month[],Day of Month[],DST Indicator[1=yes 0=no],DayType  ! When Daily Report Variables Requested
4,2,Cumulative Days of Simulation[],Month[]  ! When Monthly Report Variables Requested
5,1,Cumulative Days of Simulation[] ! When Run Period Report Variables Requested
6,1,Calendar Year of Simulation[] ! When Annual Report Variables Requested
581,11,LIVING,AFN Zone Infiltration Air Change Rate [ach] !RunPeriod [Value,Min,Month,Day,Hour,Minute,Max,Month,Day,Hour,Minute]
582,11,ATTIC,AFN Zone Infiltration Air Change Rate [ach] !RunPeriod [Value,Min,Month,Day,Hour,Minute,Max,Month,Day,Hour,Minute]
583,11,CRAWLSPACE,AFN Zone Infiltration Air Change Rate [ach] !RunPeriod [Value,Min,Month,Day,Hour,Minute,Max,Month,Day,Hour,Minute]
1038,11,Facility,Facility Heating Setpoint Not Met Time [hr] !RunPeriod [Value,Min,Month,Day,Hour,Minute,Max,Month,Day,Hour,Minute]
1039,11,Facility,Facility Cooling Setpoint Not Met Time [hr] !RunPeriod [Value,Min,Month,Day,Hour,Minute,Max,Month,Day,Hour,Minute]
1115,11,DX_HEATING_COIL,Heating Coil Heating Energy [J] !RunPeriod [Value,Min,Month,Day,Hour,Minute,Max,Month,Day,Hour,Minute]
1128,11,DX_HEATING_COIL,Heating Coil Electricity Energy [J] !RunPeriod [Value,Min,Month,Day,Hour,Minute,Max,Month,Day,Hour,Minute]
1153,11,DX_HEATING_COIL,Heating Coil Defrost Electricity Energy [J] !RunPeriod [Value,Min,Month,Day,Hour,Minute,Max,Month,Day,Hour,Minute]
1154,11,DX_HEATING_COIL,Heating Coil Crankcase Heater Electricity Energy [J] !RunPeriod [Value,Min,Month,Day,Hour,Minute,Max,Month,Day,Hour,Minute]
1155,11,HEATING_RESISTANCE_BACKUP,Heating Coil Heating Energy [J] !RunPeriod [Value,Min,Month,Day,Hour,Minute,Max,Month,Day,Hour,Minute]
1156,11,HEATING_RESISTANCE_BACKUP,Heating Coil Electricity Energy [J] !RunPeriod [Value,Min,Month,Day,Hour,Minute,Max,Month,Day,Hour,Minute]
1292,11,WATER HEATER,Water Heater Heat Loss Energy [J] !RunPeriod [Value,Min,Month,Day,Hour,Minute,Max,Month,Day,Hour,Minute]
1306,11,WATER HEATER,Water Heater Heating Energy [J] !RunPeriod [Value,Min,Month,Day,Hour,Minute,Max,Month,Day,Hour,Minute]
1307,11,WATER HEATER,Water Heater Unmet Demand Heat Transfer Energy [J] !RunPeriod [Value,Min,Month,Day,Hour,Minute,Max,Month,Day,Hour,Minute]
1308,11,WATER HEATER,Water Heater Electricity Energy [J] !RunPeriod [Value,Min,Month,Day,Hour,Minute,Max,Month,Day,Hour,Minute]
13,11,Electricity:Facility [J] !RunPeriod [Value,Min,Month,Day,Hour,Minute,Max,Month,Day,Hour,Minute]
1134,11,Heating:Electricity [J] !RunPeriod [Value,Min,Month,Day,Hour,Minute,Max,Month,Day,Hour,Minute]
1096,11,Cooling:Electricity [J] !RunPeriod [Value,Min,Month,Day,Hour,Minute,Max,Month,Day,Hour,Minute]
562,11,Fans:Electricity [J] !RunPeriod [Value,Min,Month,Day,Hour,Minute,Max,Month,Day,Hour,Minute]
1379,11,Pumps:Electricity [J] !RunPeriod [Value,Min,Month,Day,Hour,Minute,Max,Month,Day,Hour,Minute]
1326,11,WaterSystems:Electricity [J] !RunPeriod [Value,Min,Month,Day,Hour,Minute,Max,Month,Day,Hour,Minute]
61,11,InteriorLights:Electricity [J] !RunPeriod [Value,Min,Month,Day,Hour,Minute,Max,Month,Day,Hour,Minute]
1046,11,ExteriorLights:Electricity [J] !RunPeriod [Value,Min,Month,Day,Hour,Minute,Max,Month,Day,Hour,Minute]
134,11,InteriorEquipment:Electricity [J] !RunPeriod [Value,Min,Month,Day,Hour,Minute,Max,Month,Day,Hour,Minute]
170,11,gas_dryer:InteriorEquipment:Electricity [J] !RunPeriod [Value,Min,Month,Day,Hour,Minute,Max,Month,Day,Hour,Minute]
207,11,clotheswasher:InteriorEquipment:Electricity [J] !RunPeriod [Value,Min,Month,Day,Hour,Minute,Max,Month,Day,Hour,Minute]
244,11,dishwasher:InteriorEquipment:Electricity [J] !RunPeriod [Value,Min,Month,Day,Hour,Minute,Max,Month,Day,Hour,Minute]
281,11,refrigerator:InteriorEquipment:Electricity [J] !RunPeriod [Value,Min,Month,Day,Hour,Minute,Max,Month,Day,Hour,Minute]
318,11,electric_mels:InteriorEquipment:Electricity [J] !RunPeriod [Value,Min,Month,Day,Hour,Minute,Max,Month,Day,Hour,Minute]
355,11,NaturalGas:Facility [J] !RunPeriod [Value,Min,Month,Day,Hour,Minute,Max,Month,Day,Hour,Minute]
403,11,InteriorEquipment:NaturalGas [J] !RunPeriod [Value,Min,Month,Day,Hour,Minute,Max,Month,Day,Hour,Minute]
476,11,gas_dryer:InteriorEquipment:NaturalGas [J] !RunPeriod [Value,Min,Month,Day,Hour,Minute,Max,Month,Day,Hour,Minute]
513,11,gas_mels:InteriorEquipment:NaturalGas [J] !RunPeriod [Value,Min,Month,Day,Hour,Minute,Max,Month,Day,Hour,Minute]
End of Data Dictionary
1,EXTREME_WINTER,  35.43,-119.05,  -8.00, 149.10
5,15
1038,0.0,0.0,12,22, 1,15,0.0,12,22, 1,15
1039,0.0,0.0,12,22, 1,15,0.0,12,22, 1,15
581,0.2026495429380275,0.11727669033793589,12,24,14,45,0.4890209955248136,12,25, 1,52
582,1.8928928394278848,0.0,12,23, 1,52,10.824919501566137,12,24,20,52
583,0.009351965226530682,0.0001904259007445152,12,24,16,60,0.08386648468132124, 1, 1, 6, 5
1115,505920973.792182,0.0,12,22, 1,15,3204156.4604258756, 1, 1, 6,60
1128,153370949.24588948,0.0,12,22, 1,15,1026226.0347722342, 1, 1, 6,60
1153,7148858.879528239,0.0,12,22, 1,15,72185.67353777534,12,26, 6,60
1154,161033054.5773333,0.0,12,22,12,37,180000.0,12,22, 1,15
1155,2177542.2727412907,0.0,12,22, 1,15,748061.2686074649, 1, 2, 6, 5
1156,2177542.2727412907,0.0,12,22, 1,15,748061.2686074649, 1, 2, 6, 5
1292,-51611443.50227619,-39744.908997859806, 1, 5, 5,60,-4027.0786689737433,12,26,13,14
1306,485552610.01545954,0.0,12,22, 1,15,4050000.0,12,23, 7,30
1307,141224750.81590763,0.0,12,22, 1,15,12084473.565504704, 1, 5, 8,30
1308,485552610.01545954,0.0,12,22, 1,15,4050000.0,12,23, 7,30
13,1679169342.320973,158004.1357532369,12,31, 2,60,5890127.715033874, 1, 1, 6,60
61,646981127.1939323,88139.10953165221,12,22, 1,15,1282023.4113694867,12,22,20,15
134,151290040.75163814,63564.01800854099,12,22, 4,15,156554.22484006523,12,27,20,15
170,11185820.069951689,348.4159749238097,12,22, 4,15,17476.39704006126,12,27,12,15
207,13893028.5742839,815.2532113832032,12,22, 3,15,22990.642799023623,12,27,10,15
244,27284301.07562584,1521.856143006317,12,22, 4,15,53038.631142310165,12,27,20,15
281,98926891.03177746,59938.60262432081,12,22, 5,15,81951.81706819107,12,22,19,15
318,0.0,0.0,12,22, 1,15,0.0,12,22, 1,15
355,422701517.16107386,18561.32405820678,12,22, 4,15,724774.895203776,12,27,18,15
403,422701517.16107386,18561.32405820678,12,22, 4,15,724774.895203776,12,27,18,15
476,227882097.80545202,7098.072629279515,12,22, 4,15,356036.3026282215,12,27,12,15
513,0.0,0.0,12,22, 1,15,0.0,12,22, 1,15
562,22808798.07653582,0.0,12,22, 1,15,114547.89529446635,12,26, 6,15
1046,0.0,0.0,12,22, 1,15,0.0,12,22, 1,15
1096,48806361.30791518,0.0,12,22, 1,15,420170.9643619375,12,23,16,30
1134,323730404.9754924,0.0,12,22,12,45,1748532.568189742, 1, 2, 6,15
1326,485552610.0154597,0.0,12,22, 1,15,4050000.0,12,22, 8,45
1379,0.0,0.0,12,22, 1,15,0.0,12,22, 1,15
1,EXTREME_SUMMER,  35.43,-119.05,  -8.00, 149.10
5,7
1038,0.0,0.0, 7,13, 1,15,0.0, 7,13, 1,15
1039,49.0,0.0, 7,13, 1,15,0.25, 7,13,18,15
581,0.10067452700899025,0.0, 7,13, 6, 7,0.35690379268972716, 7,19,14,52
582,2.9354648532589134,0.11328843227242626, 7,16, 8,33,10.150654726635606, 7,14,15,52
583,0.05308862171742993,0.0, 7,13,23, 3,0.08214134286232254, 7,19,14,52
1115,0.0,0.0, 7,13, 1,15,0.0, 7,13, 1,15
1128,0.0,0.0, 7,13, 1,15,0.0, 7,13, 1,15
1153,0.0,0.0, 7,13, 1,15,0.0, 7,13, 1,15
1154,0.0,0.0, 7,13, 1,15,0.0, 7,13, 1,15
1155,0.0,0.0, 7,13, 1,15,0.0, 7,13, 1,15
1156,0.0,0.0, 7,13, 1,15,0.0, 7,13, 1,15
1292,-21732698.050943412,-33967.86222966694, 7,15,14,15,-2592.086172943705, 7,13, 8,31
1306,155959989.101674,0.0, 7,13, 1,15,4050000.0, 7,18,15,60
1307,24853869.733158316,0.0, 7,13, 1,15,823382.6948568056, 7,14, 7,10
1308,155959989.101674,0.0, 7,13, 1,15,4050000.0, 7,18,15,60
13,1346725185.7346401,236659.59464093862, 7,13, 4,60,6380812.462878287, 7,18,15,60
61,301924526.02383536,88139.10953165221, 7,13, 1,15,1282023.4113694867, 7,13,20,15
134,70666020.44019976,63564.01800854099, 7,13, 4,15,156554.22484006523, 7,18,20,15
170,5241013.419656067,348.4159749238097, 7,13, 4,15,17476.39704006126, 7,18,12,15
207,6509451.13922267,815.2532113832032, 7,13, 3,15,22990.642799023623, 7,18,10,15
244,12749673.399825225,1521.856143006317, 7,13, 4,15,53038.631142310165, 7,18,20,15
281,46165882.481495745,59938.60262432081, 7,13, 5,15,81951.81706819107, 7,13,19,15
318,0.0,0.0, 7,13, 1,15,0.0, 7,13, 1,15
355,197687796.27748066,18561.32405820678, 7,13, 4,15,724774.895203776, 7,18,18,15
403,197687796.27748066,18561.32405820678, 7,13, 4,15,724774.895203776, 7,18,18,15
476,106772067.24485716,7098.072629279515, 7,13, 4,15,356036.3026282215, 7,18,12,15
513,0.0,0.0, 7,13, 1,15,0.0, 7,13, 1,15
562,69822013.0081451,8887.944288885566, 7,13, 5,45,156457.99573548292, 7,14,20,30
1046,0.0,0.0, 7,13, 1,15,0.0, 7,13, 1,15
1096,748352637.160786,73036.69501172449, 7,13, 5,45,2003890.523770559, 7,19,17,15
1134,0.0,0.0, 7,13, 1,15,0.0, 7,13, 1,15
1326,155959989.1016739,0.0, 7,13, 1,15,4050000.0, 7,13, 8,45
1379,0.0,0.0, 7,13, 1,15,0.0, 7,13, 1,15
1,ANNUAL,  35.43,-119.05,  -8.00, 149.10
5,365
1038,0.0,0.0, 1, 1, 1,15,0.0, 1, 1, 1,15
1039,723.0,0.0, 1, 1, 1,15,0.25, 2,21,13,45
581,0.1660394079489305,0.0, 5,17,23, 3,0.8889106590777135,12,17, 7,52
582,2.6216348213599656,0.0, 1, 1, 1, 7,20.722203472864564, 3,12,13,47
583,0.029875752798739552,0.0, 5,17,23, 3,0.09090234128363893, 5,14,19,48
1115,1171453957.2899146,0.0, 1, 1, 1, 7,3010340.03937225, 1, 3, 6,45
1128,348221631.81274104,0.0, 1, 1, 1, 7,962391.6743700597, 1, 3, 6,45
1153,15948703.700562142,0.0, 1, 1, 1, 7,83265.19017723844, 1,25, 6,60
1154,893996604.5665164,0.0, 1, 1, 6, 5,180000.0, 1, 1, 2,30
1155,3815454.0602492853,0.0, 1, 1, 1, 7,733877.3628099031, 1, 3, 6, 5
1156,3815454.0602492853,0.0, 1, 1, 1, 7,733877.3628099031, 1, 3, 6, 5
1292,-1171556428.5164876,-39752.355764783286,12,18, 5,30,-1847.5184607897968, 3,26,10,31
1306,10042082969.192196,0.0, 1, 1, 1, 7,4050000.0, 1, 2, 8,45
1307,2323421058.4517837,0.0, 1, 1, 1, 7,12236989.62780169, 1,16, 8,30
1308,10042082969.192196,0.0, 1, 1, 1, 7,4050000.0, 1, 2, 8,45
13,49871891652.37707,151703.1275401932, 1, 9, 4,15,6496792.973851962, 5, 3,17,30
61,15743207428.383959,88139.10953165221, 1, 1, 1,15,1282023.4113694867, 1, 1,20,15
134,3685071073.4325233,63564.01800854099, 1, 2, 4,15,156554.22484006523, 1, 1,20,15
170,273393721.45532674,348.4159749238097, 1, 2, 4,15,17476.39704006126, 1, 1,12,15
207,339560869.0695816,815.2532113832032, 1, 2, 3,15,22990.642799023623, 1, 1,10,15
244,664895467.8009144,1521.856143006317, 1, 2, 4,15,53038.631142310165, 1, 1,20,15
281,2407221015.106824,59938.60262432081, 1, 1, 5,15,81951.81706819107, 1, 1,19,15
318,0.0,0.0, 1, 1, 1,15,0.0, 1, 1, 1,15
355,10310294493.051695,18561.32405820678, 1, 2, 4,15,724774.895203776, 1, 1,18,15
403,10310294493.051695,18561.32405820678, 1, 2, 4,15,724774.895203776, 1, 1,18,15
476,5569688622.066177,7098.072629279515, 1, 2, 4,15,356036.3026282215, 1, 1,12,15
513,0.0,0.0, 1, 1, 1,15,0.0, 1, 1, 1,15
562,1910380422.1676416,0.0, 1, 1, 1,15,156457.99573548292, 5, 3,17,15
1046,0.0,0.0, 1, 1, 1,15,0.0, 1, 1, 1,15
1096,17229167365.05866,0.0, 1, 1, 1,15,2005384.3528575054, 7,19,17,60
1134,1261982394.1400673,0.0, 1, 1,12,60,1659306.910255087, 1, 3, 6,15
1326,10042082969.192207,0.0, 1, 1, 1,15,4050000.0000000014, 2, 5,10,45
1379,0.0,0.0, 1, 1, 1,15,0.0, 1, 1, 1,15
End of Data
 Number of Records Written=          99
