Program Version,EnergyPlus, Version 22.2.0-c249759bad, YMD=2023.07.31 20:15
1,5,Environment Title[],Latitude[deg],Longitude[deg],Time Zone[],Elevation[m]
2,8,Day of Simulation[],Month[],Day of Month[],DST Indicator[1=yes 0=no],Hour[],StartMinute[],EndMinute[],DayType
3,5,Cumulative Day of Simulation[],Month[],Day of Month[],DST Indicator[1=yes 0=no],DayType  ! When Daily Report Variables Requested
4,2,Cumulative Days of Simulation[],Month[]  ! When Monthly Report Variables Requested
5,1,Cumulative Days of Simulation[] ! When Run Period Report Variables Requested
6,1,Calendar Year of Simulation[] ! When Annual Report Variables Requested
581,11,LIVING,AFN Zone Infiltration Air Change Rate [ach] !RunPeriod [Value,Min,Month,Day,Hour,Minute,Max,Month,Day,Hour,Minute]
582,11,ATTIC,AFN Zone Infiltration Air Change Rate [ach] !RunPeriod [Value,Min,Month,Day,Hour,Minute,Max,Month,Day,Hour,Minute]
583,11,CRAWLSPACE,AFN Zone Infiltration Air Change Rate [ach] !RunPeriod [Value,Min,Month,Day,Hour,Minute,Max,Month,Day,Hour,Minute]
1038,11,Facility,Facility Heating Setpoint Not Met Time [hr] !RunPeriod [Value,Min,Month,Day,Hour,Minute,Max,Month,Day,Hour,Minute]
1039,11,Facility,Facility Cooling Setpoint Not Met Time [hr] !RunPeriod [Value,Min,Month,Day,Hour,Minute,Max,Month,Day,Hour,Minute]
1127,11,HEATING_FUEL_MAIN,Heating Coil Electricity Energy [J] !RunPeriod [Value,Min,Month,Day,Hour,Minute,Max,Month,Day,Hour,Minute]
13,11,Electricity:Facility [J] !RunPeriod [Value,Min,Month,Day,Hour,Minute,Max,Month,Day,Hour,Minute]
1133,11,Heating:Electricity [J] !RunPeriod [Value,Min,Month,Day,Hour,Minute,Max,Month,Day,Hour,Minute]
1172,11,Cooling:Electricity [J] !RunPeriod [Value,Min,Month,Day,Hour,Minute,Max,Month,Day,Hour,Minute]
562,11,Fans:Electricity [J] !RunPeriod [Value,Min,Month,Day,Hour,Minute,Max,Month,Day,Hour,Minute]
1422,11,Pumps:Electricity [J] !RunPeriod [Value,Min,Month,Day,Hour,Minute,Max,Month,Day,Hour,Minute]
1394,11,WaterSystems:Electricity [J] !RunPeriod [Value,Min,Month,Day,Hour,Minute,Max,Month,Day,Hour,Minute]
61,11,InteriorLights:Electricity [J] !RunPeriod [Value,Min,Month,Day,Hour,Minute,Max,Month,Day,Hour,Minute]
1046,11,ExteriorLights:Electricity [J] !RunPeriod [Value,Min,Month,Day,Hour,Minute,Max,Month,Day,Hour,Minute]
134,11,InteriorEquipment:Electricity [J] !RunPeriod [Value,Min,Month,Day,Hour,Minute,Max,Month,Day,Hour,Minute]
170,11,gas_dryer:InteriorEquipment:Electricity [J] !RunPeriod [Value,Min,Month,Day,Hour,Minute,Max,Month,Day,Hour,Minute]
207,11,clotheswasher:InteriorEquipment:Electricity [J] !RunPeriod [Value,Min,Month,Day,Hour,Minute,Max,Month,Day,Hour,Minute]
244,11,dishwasher:InteriorEquipment:Electricity [J] !RunPeriod [Value,Min,Month,Day,Hour,Minute,Max,Month,Day,Hour,Minute]
281,11,refrigerator:InteriorEquipment:Electricity [J] !RunPeriod [Value,Min,Month,Day,Hour,Minute,Max,Month,Day,Hour,Minute]
318,11,electric_mels:InteriorEquipment:Electricity [J] !RunPeriod [Value,Min,Month,Day,Hour,Minute,Max,Month,Day,Hour,Minute]
355,11,NaturalGas:Facility [J] !RunPeriod [Value,Min,Month,Day,Hour,Minute,Max,Month,Day,Hour,Minute]
1108,11,Heating:NaturalGas [J] !RunPeriod [Value,Min,Month,Day,Hour,Minute,Max,Month,Day,Hour,Minute]
1357,11,WaterSystems:NaturalGas [J] !RunPeriod [Value,Min,Month,Day,Hour,Minute,Max,Month,Day,Hour,Minute]
403,11,InteriorEquipment:NaturalGas [J] !RunPeriod [Value,Min,Month,Day,Hour,Minute,Max,Month,Day,Hour,Minute]
476,11,gas_dryer:InteriorEquipment:NaturalGas [J] !RunPeriod [Value,Min,Month,Day,Hour,Minute,Max,Month,Day,Hour,Minute]
513,11,gas_mels:InteriorEquipment:NaturalGas [J] !RunPeriod [Value,Min,Month,Day,Hour,Minute,Max,Month,Day,Hour,Minute]
End of Data Dictionary
1,EXTREME_WINTER,  39.10, -84.42,  -5.00, 149.40
5,7
1038,28.499999999999996,0.0, 1,15, 1,10,0.16666666666666666, 1,15, 6,10
1039,0.0,0.0, 1,15, 1,10,0.0, 1,15, 1,10
581,0.2748570356039674,0.17746733391137767, 1,16,22, 1,0.4257053744222648, 1,17,24,15
582,3.021321432351724,0.0, 1,15, 3,60,12.169005082948969, 1,17,24,55
583,3.6339605199472733,0.0002390755729097049, 1,18,23,14,11.452790559969749, 1,17,24,15
1127,0.0,0.0, 1,15, 1,10,0.0, 1,15, 1,10
13,421282880.7340598,133342.49077119955, 1,17, 1,10,1028573.3892290891, 1,19,21,60
61,301924526.0238348,58759.40635443481, 1,15, 1,10,854682.2742463244, 1,15,20,10
134,70666020.44019979,42376.01200569399, 1,15, 4,10,104369.48322671017, 1,20,20,10
170,5241013.419656074,232.27731661587313, 1,15, 4,10,11650.931360040839, 1,20,12,10
207,6509451.13922266,543.5021409221355, 1,15, 3,10,15327.095199349082, 1,20,10,10
244,12749673.39982522,1014.5707620042115, 1,15, 4,10,35359.08742820678, 1,20,20,10
281,46165882.48149605,39959.06841621388, 1,15, 5,10,54634.54471212738, 1,15,19,10
318,0.0,0.0, 1,15, 1,10,0.0, 1,15, 1,10
355,2793271120.39894,137769.5713143841, 1,16,23,10,8000963.985893726, 1,21,11,10
403,197687796.27748126,12374.216038804521, 1,15, 4,10,483183.26346918393, 1,20,18,10
476,106772067.24485692,4732.048419519677, 1,15, 4,10,237357.535085481, 1,20,12,10
513,0.0,0.0, 1,15, 1,10,0.0, 1,15, 1,10
562,43672494.27002488,0.0, 1,15,15,50,90655.4315963848, 1,20, 9,40
1046,0.0,0.0, 1,15, 1,10,0.0, 1,15, 1,10
1108,2074387824.5823092,0.0, 1,15,15,50,4306017.475737974, 1,15, 6,10
1133,0.0,0.0, 1,15, 1,10,0.0, 1,15, 1,10
1172,0.0,0.0, 1,15, 1,10,0.0, 1,15, 1,10
1357,521195499.5391583,0.0, 1,15, 1,10,3375000.000000002, 1,16,20,30
1394,5019840.0,4980.0, 1,15, 1,10,4980.000000000001, 1,15, 1,30
1422,0.0,0.0, 1,15, 1,10,0.0, 1,15, 1,10
1,EXTREME_SUMMER,  39.10, -84.42,  -5.00, 149.40
5,7
1038,0.0,0.0, 7,15, 1,10,0.0, 7,15, 1,10
1039,38.166666666666664,0.0, 7,15, 1,10,0.16666666666666666, 7,15,13,60
581,0.03875028202870099,0.0, 7,15, 1,10,0.4030254562642766, 7,20,16,52
582,1.6604421490847006,0.0, 7,16,21,22,8.699425215866762, 7,20,16,52
583,1.8025590096110073,0.0, 7,15, 6, 7,10.177477184375418, 7,20,16,52
1127,0.0,0.0, 7,15, 1,10,0.0, 7,15, 1,10
13,911107325.0002394,138253.85613956288, 7,19, 4,60,1840995.3378108554, 7,15,20,10
61,301924526.0238348,58759.40635443481, 7,15, 1,10,854682.2742463244, 7,15,20,10
134,70666020.44019979,42376.01200569399, 7,15, 4,10,104369.48322671017, 7,20,20,10
170,5241013.419656074,232.27731661587313, 7,15, 4,10,11650.931360040839, 7,20,12,10
207,6509451.13922266,543.5021409221355, 7,15, 3,10,15327.095199349082, 7,20,10,10
244,12749673.39982522,1014.5707620042115, 7,15, 4,10,35359.08742820678, 7,20,20,10
281,46165882.48149605,39959.06841621388, 7,15, 5,10,54634.54471212738, 7,15,19,10
318,0.0,0.0, 7,15, 1,10,0.0, 7,15, 1,10
355,585105990.0694659,12374.216038804521, 7,15, 4,10,3829218.154066982, 7,19,18,20
403,197687796.27748126,12374.216038804521, 7,15, 4,10,483183.26346918393, 7,20,18,10
476,106772067.24485692,4732.048419519677, 7,15, 4,10,237357.535085481, 7,20,12,10
513,0.0,0.0, 7,15, 1,10,0.0, 7,15, 1,10
562,55001779.89087428,0.0, 7,19, 6,20,90655.4315963848, 7,16,18,60
1046,0.0,0.0, 7,15, 1,10,0.0, 7,15, 1,10
1108,0.0,0.0, 7,15, 1,10,0.0, 7,15, 1,10
1133,0.0,0.0, 7,15, 1,10,0.0, 7,15, 1,10
1172,478495158.6453295,0.0, 7,19, 6,20,891415.5915197419, 7,16,15,60
1357,387418193.7919853,0.0, 7,15, 1,10,3375000.0000000005, 7,21,21,30
1394,5019840.0,4979.999999999998, 7,18,16,60,4980.000000000002, 7,18, 5,20
1422,0.0,0.0, 7,15, 1,10,0.0, 7,15, 1,10
1,ANNUAL,  39.10, -84.42,  -5.00, 149.40
5,365
1038,212.99999999999946,0.0, 1, 1, 1,30,0.16666666666666666, 1, 1, 1,10
1039,567.9999999999997,0.0, 1, 1, 1,10,0.16666666666666666, 4,10,12,40
581,0.1878653948576546,0.0, 5, 7, 8,51,1.2424620534084658, 2,18,22,55
582,3.0431088413094485,0.0, 1, 3,22,60,27.715034908774534, 1,29,21,60
583,3.600770237315106,0.0, 4,21, 9,60,33.750314825364136, 4,29,17,52
1127,0.0,0.0, 1, 1, 1, 1,0.0, 1, 1, 1, 1
13,30798323830.374733,106115.41836012878, 5,19, 4,20,1869980.295392776, 8, 5,20,10
61,15743207428.39043,58759.40635443481, 1, 1, 1,10,854682.2742463244, 1, 1,20,10
134,3685071073.433083,42376.01200569399, 1, 2, 4,10,104369.48322671017, 1, 1,20,10
170,273393721.45534325,232.27731661587313, 1, 2, 4,10,11650.931360040839, 1, 1,12,10
207,339560869.06955314,543.5021409221355, 1, 2, 3,10,15327.095199349082, 1, 1,10,10
244,664895467.8009839,1014.5707620042115, 1, 2, 4,10,35359.08742820678, 1, 1,20,10
281,2407221015.1057043,39959.06841621388, 1, 1, 5,10,54634.54471212738, 1, 1,19,10
318,0.0,0.0, 1, 1, 1,10,0.0, 1, 1, 1,10
355,60638139819.48108,12374.216038804521, 1, 9, 4,10,8000963.985893726, 1,15,11,10
403,10310294493.052883,12374.216038804521, 1, 2, 4,10,483183.26346918393, 1, 1,18,10
476,5569688622.065564,4732.048419519677, 1, 2, 4,10,237357.535085481, 1, 1,12,10
513,0.0,0.0, 1, 1, 1,10,0.0, 1, 1, 1,10
562,1718411907.9270997,0.0, 1, 4,14,60,90655.4315963848, 1,20, 9,40
1046,0.0,0.0, 1, 1, 1,10,0.0, 1, 1, 1,10
1108,26644138592.962223,0.0, 1, 4,14,60,4306017.475737975, 1, 1, 1,10
1133,0.0,0.0, 1, 1, 1,10,0.0, 1, 1, 1,10
1172,9389884620.629135,0.0, 1, 1, 1,10,925897.6178830233, 8, 9,14,60
1357,23683706733.465298,0.0, 1, 1, 1,10,3375000.000000002, 2,27,17,10
1394,261748800.0,4979.999999999998, 3, 9,10,60,4980.000000000002, 1, 8,11,20
1422,0.0,0.0, 1, 1, 1,10,0.0, 1, 1, 1,10
End of Data
 Number of Records Written=          78
