Program Version,EnergyPlus, Version 22.2.0-c249759bad, YMD=2023.09.01 20:50
1,5,Environment Title[],Latitude[deg],Longitude[deg],Time Zone[],Elevation[m]
2,8,Day of Simulation[],Month[],Day of Month[],DST Indicator[1=yes 0=no],Hour[],StartMinute[],EndMinute[],DayType
3,5,Cumulative Day of Simulation[],Month[],Day of Month[],DST Indicator[1=yes 0=no],DayType  ! When Daily Report Variables Requested
4,2,Cumulative Days of Simulation[],Month[]  ! When Monthly Report Variables Requested
5,1,Cumulative Days of Simulation[] ! When Run Period Report Variables Requested
6,1,Calendar Year of Simulation[] ! When Annual Report Variables Requested
581,11,LIVING,AFN Zone Infiltration Air Change Rate [ach] !RunPeriod [Value,Min,Month,Day,Hour,Minute,Max,Month,Day,Hour,Minute]
582,11,ATTIC,AFN Zone Infiltration Air Change Rate [ach] !RunPeriod [Value,Min,Month,Day,Hour,Minute,Max,Month,Day,Hour,Minute]
583,11,CRAWLSPACE,AFN Zone Infiltration Air Change Rate [ach] !RunPeriod [Value,Min,Month,Day,Hour,Minute,Max,Month,Day,Hour,Minute]
1038,11,Facility,Facility Heating Setpoint Not Met Time [hr] !RunPeriod [Value,Min,Month,Day,Hour,Minute,Max,Month,Day,Hour,Minute]
1039,11,Facility,Facility Cooling Setpoint Not Met Time [hr] !RunPeriod [Value,Min,Month,Day,Hour,Minute,Max,Month,Day,Hour,Minute]
1115,11,DX_HEATING_COIL,Heating Coil Heating Energy [J] !RunPeriod [Value,Min,Month,Day,Hour,Minute,Max,Month,Day,Hour,Minute]
1128,11,DX_HEATING_COIL,Heating Coil Electricity Energy [J] !RunPeriod [Value,Min,Month,Day,Hour,Minute,Max,Month,Day,Hour,Minute]
1153,11,DX_HEATING_COIL,Heating Coil Defrost Electricity Energy [J] !RunPeriod [Value,Min,Month,Day,Hour,Minute,Max,Month,Day,Hour,Minute]
1154,11,DX_HEATING_COIL,Heating Coil Crankcase Heater Electricity Energy [J] !RunPeriod [Value,Min,Month,Day,Hour,Minute,Max,Month,Day,Hour,Minute]
1155,11,HEATING_RESISTANCE_BACKUP,Heating Coil Heating Energy [J] !RunPeriod [Value,Min,Month,Day,Hour,Minute,Max,Month,Day,Hour,Minute]
1156,11,HEATING_RESISTANCE_BACKUP,Heating Coil Electricity Energy [J] !RunPeriod [Value,Min,Month,Day,Hour,Minute,Max,Month,Day,Hour,Minute]
1292,11,WATER HEATER,Water Heater Heat Loss Energy [J] !RunPeriod [Value,Min,Month,Day,Hour,Minute,Max,Month,Day,Hour,Minute]
1306,11,WATER HEATER,Water Heater Heating Energy [J] !RunPeriod [Value,Min,Month,Day,Hour,Minute,Max,Month,Day,Hour,Minute]
1307,11,WATER HEATER,Water Heater Unmet Demand Heat Transfer Energy [J] !RunPeriod [Value,Min,Month,Day,Hour,Minute,Max,Month,Day,Hour,Minute]
1308,11,WATER HEATER,Water Heater Electricity Energy [J] !RunPeriod [Value,Min,Month,Day,Hour,Minute,Max,Month,Day,Hour,Minute]
13,11,Electricity:Facility [J] !RunPeriod [Value,Min,Month,Day,Hour,Minute,Max,Month,Day,Hour,Minute]
1134,11,Heating:Electricity [J] !RunPeriod [Value,Min,Month,Day,Hour,Minute,Max,Month,Day,Hour,Minute]
1096,11,Cooling:Electricity [J] !RunPeriod [Value,Min,Month,Day,Hour,Minute,Max,Month,Day,Hour,Minute]
562,11,Fans:Electricity [J] !RunPeriod [Value,Min,Month,Day,Hour,Minute,Max,Month,Day,Hour,Minute]
1379,11,Pumps:Electricity [J] !RunPeriod [Value,Min,Month,Day,Hour,Minute,Max,Month,Day,Hour,Minute]
1326,11,WaterSystems:Electricity [J] !RunPeriod [Value,Min,Month,Day,Hour,Minute,Max,Month,Day,Hour,Minute]
61,11,InteriorLights:Electricity [J] !RunPeriod [Value,Min,Month,Day,Hour,Minute,Max,Month,Day,Hour,Minute]
1046,11,ExteriorLights:Electricity [J] !RunPeriod [Value,Min,Month,Day,Hour,Minute,Max,Month,Day,Hour,Minute]
134,11,InteriorEquipment:Electricity [J] !RunPeriod [Value,Min,Month,Day,Hour,Minute,Max,Month,Day,Hour,Minute]
170,11,gas_dryer:InteriorEquipment:Electricity [J] !RunPeriod [Value,Min,Month,Day,Hour,Minute,Max,Month,Day,Hour,Minute]
207,11,clotheswasher:InteriorEquipment:Electricity [J] !RunPeriod [Value,Min,Month,Day,Hour,Minute,Max,Month,Day,Hour,Minute]
244,11,dishwasher:InteriorEquipment:Electricity [J] !RunPeriod [Value,Min,Month,Day,Hour,Minute,Max,Month,Day,Hour,Minute]
281,11,refrigerator:InteriorEquipment:Electricity [J] !RunPeriod [Value,Min,Month,Day,Hour,Minute,Max,Month,Day,Hour,Minute]
318,11,electric_mels:InteriorEquipment:Electricity [J] !RunPeriod [Value,Min,Month,Day,Hour,Minute,Max,Month,Day,Hour,Minute]
355,11,NaturalGas:Facility [J] !RunPeriod [Value,Min,Month,Day,Hour,Minute,Max,Month,Day,Hour,Minute]
403,11,InteriorEquipment:NaturalGas [J] !RunPeriod [Value,Min,Month,Day,Hour,Minute,Max,Month,Day,Hour,Minute]
476,11,gas_dryer:InteriorEquipment:NaturalGas [J] !RunPeriod [Value,Min,Month,Day,Hour,Minute,Max,Month,Day,Hour,Minute]
513,11,gas_mels:InteriorEquipment:NaturalGas [J] !RunPeriod [Value,Min,Month,Day,Hour,Minute,Max,Month,Day,Hour,Minute]
End of Data Dictionary
1,EXTREME_WINTER,  39.73, -86.27,  -5.00, 241.10
5,7
1038,2.0,0.0,12,15, 1,15,0.25,12,15, 6,15
1039,0.0,0.0,12,15, 1,15,0.0,12,15, 1,15
581,0.4382823579447088,0.23729594834816342,12,21,23,22,0.7560003035191118,12,19, 5,60
582,5.065982610905174,0.1344391127948557,12,20, 9,22,16.31269242065731,12,19, 6,60
583,0.06381209366134187,0.0008072509369718849,12,20,16,60,0.08112301822437314,12,15, 1,15
1115,1871135300.976904,0.0,12,15,23, 5,4045448.1027620034,12,17,18,60
1128,684960151.7159389,0.0,12,15,23, 5,1323737.3843818335,12,17,18,15
1153,12255386.687672915,0.0,12,15,23, 5,115031.93528520054,12,18, 6,45
1154,20597320.448669482,0.0,12,15, 1, 7,178438.10514441287,12,21,16,15
1155,939081924.9829859,0.0,12,15,13,20,5488814.888768165,12,20, 6,30
1156,939081924.9829859,0.0,12,15,13,20,5488814.888768165,12,20, 6,30
1292,-25102978.52119939,-39771.826498455535,12,20, 5,60,-4761.494076251492,12,20,11,60
1306,346572092.1290231,0.0,12,15, 1, 7,4050000.0,12,15,21,45
1307,153290691.2881752,0.0,12,15, 1, 7,16064142.878596757,12,19, 9,60
1308,346572092.1290231,0.0,12,15, 1, 7,4050000.0,12,15,21,45
13,2452908835.0077653,525890.1504144978,12,20,15,60,9943525.085763024,12,20, 8,45
61,301924526.02383536,88139.10953165221,12,15, 1,15,1282023.4113694867,12,15,20,15
134,70666020.44019976,63564.01800854099,12,15, 4,15,156554.22484006523,12,20,20,15
170,5241013.419656067,348.4159749238097,12,15, 4,15,17476.39704006126,12,20,12,15
207,6509451.13922267,815.2532113832032,12,15, 3,15,22990.642799023623,12,20,10,15
244,12749673.399825225,1521.856143006317,12,15, 4,15,53038.631142310165,12,20,20,15
281,46165882.481495745,59938.60262432081,12,15, 5,15,81951.81706819107,12,15,19,15
318,0.0,0.0,12,15, 1,15,0.0,12,15, 1,15
355,197687796.27748066,18561.32405820678,12,15, 4,15,724774.895203776,12,20,18,15
403,197687796.27748066,18561.32405820678,12,15, 4,15,724774.895203776,12,20,18,15
476,106772067.24485716,7098.072629279515,12,15, 4,15,356036.3026282215,12,20,12,15
513,0.0,0.0,12,15, 1,15,0.0,12,15, 1,15
562,76851412.57944088,0.0,12,20,16,30,138077.13488468932,12,15, 1,15
1046,0.0,0.0,12,15, 1,15,0.0,12,15, 1,15
1096,0.0,0.0,12,15, 1,15,0.0,12,15, 1,15
1134,1656894783.8352683,180000.0,12,20,16,30,6651827.110607311,12,16, 6,15
1326,346572092.12902296,0.0,12,15, 1,15,4050000.0,12,15, 9,60
1379,0.0,0.0,12,15, 1,15,0.0,12,15, 1,15
1,EXTREME_SUMMER,  39.73, -86.27,  -5.00, 241.10
5,7
1038,0.0,0.0, 7,13, 1,15,0.0, 7,13, 1,15
1039,52.0,0.0, 7,13, 1,15,0.25, 7,13,16,60
581,0.1251490574361568,0.0, 7,16, 6,60,0.4144877804816409, 7,18, 6, 3
582,3.2601061416304837,0.06734997162389914, 7,13, 2,60,11.833188066508571, 7,14,17,50
583,0.04474810680553184,0.00003109872657855908, 7,16,23, 3,0.07424303481300204, 7,18, 6, 3
1115,0.0,0.0, 7,13, 1,15,0.0, 7,13, 1,15
1128,0.0,0.0, 7,13, 1,15,0.0, 7,13, 1,15
1153,0.0,0.0, 7,13, 1,15,0.0, 7,13, 1,15
1154,0.0,0.0, 7,13, 1,15,0.0, 7,13, 1,15
1155,0.0,0.0, 7,13, 1,15,0.0, 7,13, 1,15
1156,0.0,0.0, 7,13, 1,15,0.0, 7,13, 1,15
1292,-21707835.78849181,-34300.82369204984, 7,18, 6,60,-2211.6393605361204, 7,16, 9,46
1306,267727769.89337546,0.0, 7,13, 1,15,3751081.5189714273, 7,13,16,45
1307,89794512.82384413,0.0, 7,13, 1,15,3721124.1932946597, 7,13,16,45
1308,267727769.89337546,0.0, 7,13, 1,15,3751081.5189714273, 7,13,16,45
13,1261249462.7607257,278196.0400455004, 7,15, 4,60,6922932.754932484, 7,19,21,15
61,301924526.02383536,88139.10953165221, 7,13, 1,15,1282023.4113694867, 7,13,20,15
134,70666020.44019976,63564.01800854099, 7,13, 4,15,156554.22484006523, 7,18,20,15
170,5241013.419656067,348.4159749238097, 7,13, 4,15,17476.39704006126, 7,18,12,15
207,6509451.13922267,815.2532113832032, 7,13, 3,15,22990.642799023623, 7,18,10,15
244,12749673.399825225,1521.856143006317, 7,13, 4,15,53038.631142310165, 7,18,20,15
281,46165882.481495745,59938.60262432081, 7,13, 5,15,81951.81706819107, 7,13,19,15
318,0.0,0.0, 7,13, 1,15,0.0, 7,13, 1,15
355,197687796.27748066,18561.32405820678, 7,13, 4,15,724774.895203776, 7,18,18,15
403,197687796.27748066,18561.32405820678, 7,13, 4,15,724774.895203776, 7,18,18,15
476,106772067.24485716,7098.072629279515, 7,13, 4,15,356036.3026282215, 7,18,12,15
513,0.0,0.0, 7,13, 1,15,0.0, 7,13, 1,15
562,59837878.583654895,13534.008894428984, 7,15, 4,60,138077.13488468935, 7,18,19,60
1046,0.0,0.0, 7,13, 1,15,0.0, 7,13, 1,15
1096,561093267.8196623,112958.90361087819, 7,15, 4,60,1412977.1799111948, 7,16,16,60
1134,0.0,0.0, 7,13, 1,15,0.0, 7,13, 1,15
1326,267727769.89337552,0.0, 7,13, 1,15,4050000.0, 7,13, 8,30
1379,0.0,0.0, 7,13, 1,15,0.0, 7,13, 1,15
1,ANNUAL,  39.73, -86.27,  -5.00, 241.10
5,365
1038,14.75,0.0, 1, 1, 1,15,0.25, 1,11, 6,15
1039,485.5,0.0, 1, 1, 1,15,0.25, 2,25,15,60
581,0.2793744059745421,0.0, 6, 1,23, 3,1.1949019631442335, 2,11,19,37
582,5.040909732656336,0.0, 1, 9, 9,60,39.374150188375154, 2,11,19,52
583,0.03142202100519147,0.0, 6, 1,23, 3,0.09303642500579079, 1,12,10,60
1115,23893923354.481598,0.0, 1, 1,23, 5,4537631.711348082, 2,21, 6,60
1128,7792233169.8370695,0.0, 1, 1,23, 5,1357330.1723131835, 2,21, 6,45
1153,255525893.78067634,0.0, 1, 1,23, 5,115270.08668711304,12,18, 6,60
1154,1512557079.0989952,0.0, 1, 1, 3,15,180000.0, 1, 2,13,60
1155,4511297851.146103,0.0, 1, 1, 1,15,5488814.888768165, 1,11, 6,45
1156,4511297851.146103,0.0, 1, 1, 1,15,5488814.888768165, 1,11, 6,45
1292,-1209389231.5913239,-39933.08221310242, 1,18, 2,15,-1788.8147375809983, 4,17, 9,46
1306,16405557202.063143,0.0, 1, 1, 1,15,4050000.0, 1, 1, 9,60
1307,6661572694.292167,0.0, 1, 1, 1,15,17319143.987017494, 2,10, 9,60
1308,16405557202.063143,0.0, 1, 1, 1,15,4050000.0, 1, 1, 9,60
13,61769997379.05411,151703.1275401932, 2,10, 4,15,11488417.068515839, 1,18, 8,60
61,15743207428.383959,88139.10953165221, 1, 1, 1,15,1282023.4113694867, 1, 1,20,15
134,3685071073.4325233,63564.01800854099, 1, 2, 4,15,156554.22484006523, 1, 1,20,15
170,273393721.45532674,348.4159749238097, 1, 2, 4,15,17476.39704006126, 1, 1,12,15
207,339560869.0695816,815.2532113832032, 1, 2, 3,15,22990.642799023623, 1, 1,10,15
244,664895467.8009144,1521.856143006317, 1, 2, 4,15,53038.631142310165, 1, 1,20,15
281,2407221015.106824,59938.60262432081, 1, 1, 5,15,81951.81706819107, 1, 1,19,15
318,0.0,0.0, 1, 1, 1,15,0.0, 1, 1, 1,15
355,10310294493.051695,18561.32405820678, 1, 2, 4,15,724774.895203776, 1, 1,18,15
403,10310294493.051695,18561.32405820678, 1, 2, 4,15,724774.895203776, 1, 1,18,15
476,5569688622.066177,7098.072629279515, 1, 2, 4,15,356036.3026282215, 1, 1,12,15
513,0.0,0.0, 1, 1, 1,15,0.0, 1, 1, 1,15
562,1984746697.6221778,0.0, 1, 2,13,30,138077.13488468935, 5,26,20,60
1046,0.0,0.0, 1, 1, 1,15,0.0, 1, 1, 1,15
1096,9879800983.687607,0.0, 1, 1, 1,15,1488842.526912536, 8,31,15,60
1134,14071613993.862867,0.0, 1,30,11,45,6685437.347009692, 1,11, 6,60
1326,16405557202.063131,0.0, 1, 1, 1,15,4050000.0000000014, 4,11, 9,60
1379,0.0,0.0, 1, 1, 1,15,0.0, 1, 1, 1,15
End of Data
 Number of Records Written=          99
