Program Version,EnergyPlus, Version 22.2.0-c249759bad, YMD=2023.09.01 20:16
1,5,Environment Title[],Latitude[deg],Longitude[deg],Time Zone[],Elevation[m]
2,8,Day of Simulation[],Month[],Day of Month[],DST Indicator[1=yes 0=no],Hour[],StartMinute[],EndMinute[],DayType
3,5,Cumulative Day of Simulation[],Month[],Day of Month[],DST Indicator[1=yes 0=no],DayType  ! When Daily Report Variables Requested
4,2,Cumulative Days of Simulation[],Month[]  ! When Monthly Report Variables Requested
5,1,Cumulative Days of Simulation[] ! When Run Period Report Variables Requested
6,1,Calendar Year of Simulation[] ! When Annual Report Variables Requested
581,11,LIVING,AFN Zone Infiltration Air Change Rate [ach] !RunPeriod [Value,Min,Month,Day,Hour,Minute,Max,Month,Day,Hour,Minute]
582,11,ATTIC,AFN Zone Infiltration Air Change Rate [ach] !RunPeriod [Value,Min,Month,Day,Hour,Minute,Max,Month,Day,Hour,Minute]
583,11,CRAWLSPACE,AFN Zone Infiltration Air Change Rate [ach] !RunPeriod [Value,Min,Month,Day,Hour,Minute,Max,Month,Day,Hour,Minute]
1038,11,Facility,Facility Heating Setpoint Not Met Time [hr] !RunPeriod [Value,Min,Month,Day,Hour,Minute,Max,Month,Day,Hour,Minute]
1039,11,Facility,Facility Cooling Setpoint Not Met Time [hr] !RunPeriod [Value,Min,Month,Day,Hour,Minute,Max,Month,Day,Hour,Minute]
1115,11,DX_HEATING_COIL,Heating Coil Heating Energy [J] !RunPeriod [Value,Min,Month,Day,Hour,Minute,Max,Month,Day,Hour,Minute]
1128,11,DX_HEATING_COIL,Heating Coil Electricity Energy [J] !RunPeriod [Value,Min,Month,Day,Hour,Minute,Max,Month,Day,Hour,Minute]
1153,11,DX_HEATING_COIL,Heating Coil Defrost Electricity Energy [J] !RunPeriod [Value,Min,Month,Day,Hour,Minute,Max,Month,Day,Hour,Minute]
1154,11,DX_HEATING_COIL,Heating Coil Crankcase Heater Electricity Energy [J] !RunPeriod [Value,Min,Month,Day,Hour,Minute,Max,Month,Day,Hour,Minute]
1155,11,HEATING_RESISTANCE_BACKUP,Heating Coil Heating Energy [J] !RunPeriod [Value,Min,Month,Day,Hour,Minute,Max,Month,Day,Hour,Minute]
1156,11,HEATING_RESISTANCE_BACKUP,Heating Coil Electricity Energy [J] !RunPeriod [Value,Min,Month,Day,Hour,Minute,Max,Month,Day,Hour,Minute]
1292,11,WATER HEATER,Water Heater Heat Loss Energy [J] !RunPeriod [Value,Min,Month,Day,Hour,Minute,Max,Month,Day,Hour,Minute]
1306,11,WATER HEATER,Water Heater Heating Energy [J] !RunPeriod [Value,Min,Month,Day,Hour,Minute,Max,Month,Day,Hour,Minute]
1307,11,WATER HEATER,Water Heater Unmet Demand Heat Transfer Energy [J] !RunPeriod [Value,Min,Month,Day,Hour,Minute,Max,Month,Day,Hour,Minute]
1308,11,WATER HEATER,Water Heater Electricity Energy [J] !RunPeriod [Value,Min,Month,Day,Hour,Minute,Max,Month,Day,Hour,Minute]
13,11,Electricity:Facility [J] !RunPeriod [Value,Min,Month,Day,Hour,Minute,Max,Month,Day,Hour,Minute]
1134,11,Heating:Electricity [J] !RunPeriod [Value,Min,Month,Day,Hour,Minute,Max,Month,Day,Hour,Minute]
1096,11,Cooling:Electricity [J] !RunPeriod [Value,Min,Month,Day,Hour,Minute,Max,Month,Day,Hour,Minute]
562,11,Fans:Electricity [J] !RunPeriod [Value,Min,Month,Day,Hour,Minute,Max,Month,Day,Hour,Minute]
1379,11,Pumps:Electricity [J] !RunPeriod [Value,Min,Month,Day,Hour,Minute,Max,Month,Day,Hour,Minute]
1326,11,WaterSystems:Electricity [J] !RunPeriod [Value,Min,Month,Day,Hour,Minute,Max,Month,Day,Hour,Minute]
61,11,InteriorLights:Electricity [J] !RunPeriod [Value,Min,Month,Day,Hour,Minute,Max,Month,Day,Hour,Minute]
1046,11,ExteriorLights:Electricity [J] !RunPeriod [Value,Min,Month,Day,Hour,Minute,Max,Month,Day,Hour,Minute]
134,11,InteriorEquipment:Electricity [J] !RunPeriod [Value,Min,Month,Day,Hour,Minute,Max,Month,Day,Hour,Minute]
170,11,gas_dryer:InteriorEquipment:Electricity [J] !RunPeriod [Value,Min,Month,Day,Hour,Minute,Max,Month,Day,Hour,Minute]
207,11,clotheswasher:InteriorEquipment:Electricity [J] !RunPeriod [Value,Min,Month,Day,Hour,Minute,Max,Month,Day,Hour,Minute]
244,11,dishwasher:InteriorEquipment:Electricity [J] !RunPeriod [Value,Min,Month,Day,Hour,Minute,Max,Month,Day,Hour,Minute]
281,11,refrigerator:InteriorEquipment:Electricity [J] !RunPeriod [Value,Min,Month,Day,Hour,Minute,Max,Month,Day,Hour,Minute]
318,11,electric_mels:InteriorEquipment:Electricity [J] !RunPeriod [Value,Min,Month,Day,Hour,Minute,Max,Month,Day,Hour,Minute]
355,11,NaturalGas:Facility [J] !RunPeriod [Value,Min,Month,Day,Hour,Minute,Max,Month,Day,Hour,Minute]
403,11,InteriorEquipment:NaturalGas [J] !RunPeriod [Value,Min,Month,Day,Hour,Minute,Max,Month,Day,Hour,Minute]
476,11,gas_dryer:InteriorEquipment:NaturalGas [J] !RunPeriod [Value,Min,Month,Day,Hour,Minute,Max,Month,Day,Hour,Minute]
513,11,gas_mels:InteriorEquipment:NaturalGas [J] !RunPeriod [Value,Min,Month,Day,Hour,Minute,Max,Month,Day,Hour,Minute]
End of Data Dictionary
1,EXTREME_WINTER,  39.87,-104.67,  -7.00,1650.20
5,15
1038,0.25,0.0,12,22, 1,15,0.25,12,28, 6,15
1039,0.0,0.0,12,22, 1,15,0.0,12,22, 1,15
581,0.4299959408568947,0.15576084280372707, 1, 3,16,52,1.0363344408073127,12,26, 2,60
582,4.586178547578704,0.0,12,28, 1,60,22.73745883327631, 1, 3,13,60
583,0.06654535788826445,0.0003036620824824053, 1, 2,18,60,0.11123972853724644,12,26, 2,60
1115,4177060896.1098065,0.0,12,22,13, 7,5190046.412756675,12,24, 4,45
1128,1512570436.982266,0.0,12,22,13, 7,1676162.270358079,12,24, 6,45
1153,32030281.816529308,0.0,12,22,11, 5,129886.81164500988, 1, 1, 9,60
1154,77795736.16254173,0.0,12,22, 6, 5,180000.0,12,22,15,15
1155,1102345933.2134097,0.0,12,22, 1,15,5670339.201174263, 1, 5,24,60
1156,1102345933.2134097,0.0,12,22, 1,15,5670339.201174263, 1, 5,24,60
1292,-54166043.41121528,-39747.16288110767,12,25, 4,45,-3804.227770755073,12,24,16,46
1306,287228274.7272203,0.0,12,22, 1,15,4050000.0,12,22, 7,15
1307,57415413.075095154,0.0,12,22, 1,15,7569790.972594195, 1, 5, 6,60
1308,287228274.7272203,0.0,12,22, 1,15,4050000.0,12,22, 7,15
13,3979857496.2447443,278150.8545527997, 1, 3,15,15,10897780.68765458, 1, 5, 7,30
61,646981127.1939323,88139.10953165221,12,22, 1,15,1282023.4113694867,12,22,20,15
134,151290040.75163814,63564.01800854099,12,22, 4,15,156554.22484006523,12,27,20,15
170,11185820.069951689,348.4159749238097,12,22, 4,15,17476.39704006126,12,27,12,15
207,13893028.5742839,815.2532113832032,12,22, 3,15,22990.642799023623,12,27,10,15
244,27284301.07562584,1521.856143006317,12,22, 4,15,53038.631142310165,12,27,20,15
281,98926891.03177746,59938.60262432081,12,22, 5,15,81951.81706819107,12,22,19,15
318,0.0,0.0,12,22, 1,15,0.0,12,22, 1,15
355,422701517.16107386,18561.32405820678,12,22, 4,15,724774.895203776,12,27,18,15
403,422701517.16107386,18561.32405820678,12,22, 4,15,724774.895203776,12,27,18,15
476,227882097.80545202,7098.072629279515,12,22, 4,15,356036.3026282215,12,27,12,15
513,0.0,0.0,12,22, 1,15,0.0,12,22, 1,15
562,169580181.15140048,0.0,12,22,13,15,175291.3767228983,12,23, 6,45
1046,0.0,0.0,12,22, 1,15,0.0,12,22, 1,15
1096,35484.2458049964,0.0,12,22, 1,15,8968.94398455323, 1, 3,17,15
1134,2724742388.174753,0.0, 1, 3,11,60,7363062.1962905545, 1, 5, 7,60
1326,287228274.7272203,0.0,12,22, 1,15,4050000.0,12,22, 7,15
1379,0.0,0.0,12,22, 1,15,0.0,12,22, 1,15
1,EXTREME_SUMMER,  39.87,-104.67,  -7.00,1650.20
5,7
1038,0.0,0.0, 7,27, 1,15,0.0, 7,27, 1,15
1039,0.0,0.0, 7,27, 1,15,0.0, 7,27, 1,15
581,0.2446472082496052,0.030447867767160897, 8, 2, 7,47,0.9193902063707656, 8, 2,17,50
582,5.228861683983359,0.025520824413722106, 8, 2, 7,52,18.818240237376376, 8, 2,17,50
583,0.038114265646793564,0.0012137819678646293, 8, 2, 6,11,0.09485887255656772, 7,31,18,20
1115,0.0,0.0, 7,27, 1,15,0.0, 7,27, 1,15
1128,0.0,0.0, 7,27, 1,15,0.0, 7,27, 1,15
1153,0.0,0.0, 7,27, 1,15,0.0, 7,27, 1,15
1154,0.0,0.0, 7,27, 1,15,0.0, 7,27, 1,15
1155,0.0,0.0, 7,27, 1,15,0.0, 7,27, 1,15
1156,0.0,0.0, 7,27, 1,15,0.0, 7,27, 1,15
1292,-22125970.590650756,-34392.949697218835, 7,27, 6,30,-2777.2382646726055, 7,31,16,60
1306,100512348.41431135,0.0, 7,27, 1,15,3476200.1951989164, 8, 2,15,60
1307,13101864.379984496,0.0, 7,27, 1,15,4693029.059655347, 7,27, 6,60
1308,100512348.41431135,0.0, 7,27, 1,15,3476200.1951989164, 8, 2,15,60
13,962597748.4189364,151703.1275401932, 7,27, 4,15,5138436.340420486, 8, 1,10,30
61,301924526.02383536,88139.10953165221, 7,27, 1,15,1282023.4113694867, 7,27,20,15
134,70666020.44019976,63564.01800854099, 7,27, 4,15,156554.22484006523, 8, 1,20,15
170,5241013.419656067,348.4159749238097, 7,27, 4,15,17476.39704006126, 8, 1,12,15
207,6509451.13922267,815.2532113832032, 7,27, 3,15,22990.642799023623, 8, 1,10,15
244,12749673.399825225,1521.856143006317, 7,27, 4,15,53038.631142310165, 8, 1,20,15
281,46165882.481495745,59938.60262432081, 7,27, 5,15,81951.81706819107, 7,27,19,15
318,0.0,0.0, 7,27, 1,15,0.0, 7,27, 1,15
355,197687796.27748066,18561.32405820678, 7,27, 4,15,724774.895203776, 8, 1,18,15
403,197687796.27748066,18561.32405820678, 7,27, 4,15,724774.895203776, 8, 1,18,15
476,106772067.24485716,7098.072629279515, 7,27, 4,15,356036.3026282215, 8, 1,12,15
513,0.0,0.0, 7,27, 1,15,0.0, 7,27, 1,15
562,47643914.233657226,0.0, 7,27, 2,60,173912.40961202385, 7,31,18,30
1046,0.0,0.0, 7,27, 1,15,0.0, 7,27, 1,15
1096,441850939.3069329,0.0, 7,27, 2,60,1821753.5835179088, 7,31,18,30
1134,0.0,0.0, 7,27, 1,15,0.0, 7,27, 1,15
1326,100512348.41431133,0.0, 7,27, 1,15,4050000.0, 7,27, 7,15
1379,0.0,0.0, 7,27, 1,15,0.0, 7,27, 1,15
1,ANNUAL,  39.87,-104.67,  -7.00,1650.20
5,365
1038,7.0,0.0, 1, 1, 1,15,0.25, 1, 6, 3,30
1039,24.75,0.0, 1, 1, 1,15,0.25, 2,13,15,15
581,0.3094926547008679,0.008885062198443873, 7, 5, 6,11,1.3773672668691448, 7,14,16,46
582,5.1214797026567105,0.0, 1,19,18,32,43.30611933401431, 7,14,16,46
583,0.030742881628628708,0.00005667622376400424, 7, 5, 6,11,0.12103844720691219, 3,26,13,52
1115,26667338004.353085,0.0, 1, 1,23, 3,5418054.458497275, 1,10, 6,45
1128,8936092681.110443,0.0, 1, 1,23, 3,1709909.4810717981, 1,10, 6,45
1153,243241233.53229922,0.0, 1, 1,23, 3,137286.5643110328, 4,17, 6,45
1154,1930801985.730709,0.0, 1, 1, 1, 7,180000.0, 1, 2,14,30
1155,2880519785.7340503,0.0, 1, 1, 1, 7,5868013.486892428, 1, 6, 2,60
1156,2880519785.7340503,0.0, 1, 1, 1, 7,5868013.486892428, 1, 6, 2,60
1292,-1232689572.9917295,-40882.22466180749, 1, 6, 6,15,-2011.68177599843, 5,28,16, 1
1306,6104061958.0272045,0.0, 1, 1, 1, 7,4050000.0, 1, 2, 7,15
1307,1048798068.8145418,0.0, 1, 1, 1, 7,7899394.933909713, 2,13, 6,60
1308,6104061958.0272045,0.0, 1, 1, 1, 7,4050000.0, 1, 2, 7,15
13,48895298220.6605,151703.1275401932, 3, 3, 4,30,10858789.620550493, 1, 5, 8,30
61,15743207428.383959,88139.10953165221, 1, 1, 1,15,1282023.4113694867, 1, 1,20,15
134,3685071073.4325233,63564.01800854099, 1, 2, 4,15,156554.22484006523, 1, 1,20,15
170,273393721.45532674,348.4159749238097, 1, 2, 4,15,17476.39704006126, 1, 1,12,15
207,339560869.0695816,815.2532113832032, 1, 2, 3,15,22990.642799023623, 1, 1,10,15
244,664895467.8009144,1521.856143006317, 1, 2, 4,15,53038.631142310165, 1, 1,20,15
281,2407221015.106824,59938.60262432081, 1, 1, 5,15,81951.81706819107, 1, 1,19,15
318,0.0,0.0, 1, 1, 1,15,0.0, 1, 1, 1,15
355,10310294493.051695,18561.32405820678, 1, 2, 4,15,724774.895203776, 1, 1,18,15
403,10310294493.051695,18561.32405820678, 1, 2, 4,15,724774.895203776, 1, 1,18,15
476,5569688622.066177,7098.072629279515, 1, 2, 4,15,356036.3026282215, 1, 1,12,15
513,0.0,0.0, 1, 1, 1,15,0.0, 1, 1, 1,15
562,1861189223.9729486,0.0, 1, 2,13,30,175291.3767228983, 1, 1,23,60
1046,0.0,0.0, 1, 1, 1,15,0.0, 1, 1, 1,15
1096,7511112850.734389,0.0, 1, 1, 1,15,1917958.5242279926, 7, 4,16,45
1134,13990655686.10743,0.0, 1, 3,11,45,7342618.274699465, 1, 6, 9,15
1326,6104061958.02722,0.0, 1, 1, 1,15,4050000.0000000014, 6, 7, 9,15
1379,0.0,0.0, 1, 1, 1,15,0.0, 1, 1, 1,15
End of Data
 Number of Records Written=          99
