Program Version,EnergyPlus, Version 22.2.0-c249759bad, YMD=2023.09.01 20:22
1,5,Environment Title[],Latitude[deg],Longitude[deg],Time Zone[],Elevation[m]
2,8,Day of Simulation[],Month[],Day of Month[],DST Indicator[1=yes 0=no],Hour[],StartMinute[],EndMinute[],DayType
3,5,Cumulative Day of Simulation[],Month[],Day of Month[],DST Indicator[1=yes 0=no],DayType  ! When Daily Report Variables Requested
4,2,Cumulative Days of Simulation[],Month[]  ! When Monthly Report Variables Requested
5,1,Cumulative Days of Simulation[] ! When Run Period Report Variables Requested
6,1,Calendar Year of Simulation[] ! When Annual Report Variables Requested
581,11,LIVING,AFN Zone Infiltration Air Change Rate [ach] !RunPeriod [Value,Min,Month,Day,Hour,Minute,Max,Month,Day,Hour,Minute]
582,11,ATTIC,AFN Zone Infiltration Air Change Rate [ach] !RunPeriod [Value,Min,Month,Day,Hour,Minute,Max,Month,Day,Hour,Minute]
583,11,CRAWLSPACE,AFN Zone Infiltration Air Change Rate [ach] !RunPeriod [Value,Min,Month,Day,Hour,Minute,Max,Month,Day,Hour,Minute]
1038,11,Facility,Facility Heating Setpoint Not Met Time [hr] !RunPeriod [Value,Min,Month,Day,Hour,Minute,Max,Month,Day,Hour,Minute]
1039,11,Facility,Facility Cooling Setpoint Not Met Time [hr] !RunPeriod [Value,Min,Month,Day,Hour,Minute,Max,Month,Day,Hour,Minute]
1115,11,DX_HEATING_COIL,Heating Coil Heating Energy [J] !RunPeriod [Value,Min,Month,Day,Hour,Minute,Max,Month,Day,Hour,Minute]
1128,11,DX_HEATING_COIL,Heating Coil Electricity Energy [J] !RunPeriod [Value,Min,Month,Day,Hour,Minute,Max,Month,Day,Hour,Minute]
1153,11,DX_HEATING_COIL,Heating Coil Defrost Electricity Energy [J] !RunPeriod [Value,Min,Month,Day,Hour,Minute,Max,Month,Day,Hour,Minute]
1154,11,DX_HEATING_COIL,Heating Coil Crankcase Heater Electricity Energy [J] !RunPeriod [Value,Min,Month,Day,Hour,Minute,Max,Month,Day,Hour,Minute]
1155,11,HEATING_RESISTANCE_BACKUP,Heating Coil Heating Energy [J] !RunPeriod [Value,Min,Month,Day,Hour,Minute,Max,Month,Day,Hour,Minute]
1156,11,HEATING_RESISTANCE_BACKUP,Heating Coil Electricity Energy [J] !RunPeriod [Value,Min,Month,Day,Hour,Minute,Max,Month,Day,Hour,Minute]
1292,11,WATER HEATER,Water Heater Heat Loss Energy [J] !RunPeriod [Value,Min,Month,Day,Hour,Minute,Max,Month,Day,Hour,Minute]
1306,11,WATER HEATER,Water Heater Heating Energy [J] !RunPeriod [Value,Min,Month,Day,Hour,Minute,Max,Month,Day,Hour,Minute]
1307,11,WATER HEATER,Water Heater Unmet Demand Heat Transfer Energy [J] !RunPeriod [Value,Min,Month,Day,Hour,Minute,Max,Month,Day,Hour,Minute]
1308,11,WATER HEATER,Water Heater Electricity Energy [J] !RunPeriod [Value,Min,Month,Day,Hour,Minute,Max,Month,Day,Hour,Minute]
13,11,Electricity:Facility [J] !RunPeriod [Value,Min,Month,Day,Hour,Minute,Max,Month,Day,Hour,Minute]
1134,11,Heating:Electricity [J] !RunPeriod [Value,Min,Month,Day,Hour,Minute,Max,Month,Day,Hour,Minute]
1096,11,Cooling:Electricity [J] !RunPeriod [Value,Min,Month,Day,Hour,Minute,Max,Month,Day,Hour,Minute]
562,11,Fans:Electricity [J] !RunPeriod [Value,Min,Month,Day,Hour,Minute,Max,Month,Day,Hour,Minute]
1379,11,Pumps:Electricity [J] !RunPeriod [Value,Min,Month,Day,Hour,Minute,Max,Month,Day,Hour,Minute]
1326,11,WaterSystems:Electricity [J] !RunPeriod [Value,Min,Month,Day,Hour,Minute,Max,Month,Day,Hour,Minute]
61,11,InteriorLights:Electricity [J] !RunPeriod [Value,Min,Month,Day,Hour,Minute,Max,Month,Day,Hour,Minute]
1046,11,ExteriorLights:Electricity [J] !RunPeriod [Value,Min,Month,Day,Hour,Minute,Max,Month,Day,Hour,Minute]
134,11,InteriorEquipment:Electricity [J] !RunPeriod [Value,Min,Month,Day,Hour,Minute,Max,Month,Day,Hour,Minute]
170,11,gas_dryer:InteriorEquipment:Electricity [J] !RunPeriod [Value,Min,Month,Day,Hour,Minute,Max,Month,Day,Hour,Minute]
207,11,clotheswasher:InteriorEquipment:Electricity [J] !RunPeriod [Value,Min,Month,Day,Hour,Minute,Max,Month,Day,Hour,Minute]
244,11,dishwasher:InteriorEquipment:Electricity [J] !RunPeriod [Value,Min,Month,Day,Hour,Minute,Max,Month,Day,Hour,Minute]
281,11,refrigerator:InteriorEquipment:Electricity [J] !RunPeriod [Value,Min,Month,Day,Hour,Minute,Max,Month,Day,Hour,Minute]
318,11,electric_mels:InteriorEquipment:Electricity [J] !RunPeriod [Value,Min,Month,Day,Hour,Minute,Max,Month,Day,Hour,Minute]
355,11,NaturalGas:Facility [J] !RunPeriod [Value,Min,Month,Day,Hour,Minute,Max,Month,Day,Hour,Minute]
403,11,InteriorEquipment:NaturalGas [J] !RunPeriod [Value,Min,Month,Day,Hour,Minute,Max,Month,Day,Hour,Minute]
476,11,gas_dryer:InteriorEquipment:NaturalGas [J] !RunPeriod [Value,Min,Month,Day,Hour,Minute,Max,Month,Day,Hour,Minute]
513,11,gas_mels:InteriorEquipment:NaturalGas [J] !RunPeriod [Value,Min,Month,Day,Hour,Minute,Max,Month,Day,Hour,Minute]
End of Data Dictionary
1,EXTREME_WINTER,  41.15,-104.82,  -7.00,1872.00
5,7
1038,1.0,0.0,12,22, 1,15,0.25,12,26, 6,15
1039,0.0,0.0,12,22, 1,15,0.0,12,22, 1,15
581,0.4736299280026923,0.21689528469067176,12,22,23,22,0.9900007624109803,12,25,23,52
582,6.5999362007795686,0.0,12,25, 7,60,25.005026360839793,12,23,24,60
583,0.06557705337628686,0.0007742513272423195,12,22,23, 5,0.09764856470517534,12,25,23,52
1115,1897486553.4167166,0.0,12,22,14,30,4209469.094135734,12,23, 8,45
1128,698587640.8972833,0.0,12,22,14,30,1445325.6758626325,12,23, 8,45
1153,7606616.08921371,0.0,12,22,14,30,45500.868298485846,12,25,21,60
1154,28954284.667013697,0.0,12,22, 6, 5,180000.0,12,22,14,30
1155,843570401.3563013,0.0,12,22, 1,15,6129431.6387285525,12,27, 6,45
1156,843570401.3563013,0.0,12,22, 1,15,6129431.6387285525,12,27, 6,45
1292,-25406572.91684725,-39770.40164680847,12,22, 1,15,-5432.959983607668,12,27,10,32
1306,130752791.23330817,0.0,12,22, 1,15,4050000.0,12,22, 7,15
1307,26683943.825546946,0.0,12,22, 1,15,7737523.407468866,12,22, 6,60
1308,130752791.23330817,0.0,12,22, 1,15,4050000.0,12,22, 7,15
13,2160109303.8086753,452017.0388981225,12,22,15,15,8710659.120377019,12,28, 6,45
61,301924526.02383536,88139.10953165221,12,22, 1,15,1282023.4113694867,12,22,20,15
134,70666020.44019976,63564.01800854099,12,22, 4,15,156554.22484006523,12,27,20,15
170,5241013.419656067,348.4159749238097,12,22, 4,15,17476.39704006126,12,27,12,15
207,6509451.13922267,815.2532113832032,12,22, 3,15,22990.642799023623,12,27,10,15
244,12749673.399825225,1521.856143006317,12,22, 4,15,53038.631142310165,12,27,20,15
281,46165882.481495745,59938.60262432081,12,22, 5,15,81951.81706819107,12,22,19,15
318,0.0,0.0,12,22, 1,15,0.0,12,22, 1,15
355,197687796.27748066,18561.32405820678,12,22, 4,15,724774.895203776,12,27,18,15
403,197687796.27748066,18561.32405820678,12,22, 4,15,724774.895203776,12,27,18,15
476,106772067.24485716,7098.072629279515,12,22, 4,15,356036.3026282215,12,27,12,15
513,0.0,0.0,12,22, 1,15,0.0,12,22, 1,15
562,78047023.10151665,0.0,12,22,14,30,152806.01989182032,12,23, 9,15
1046,0.0,0.0,12,22, 1,15,0.0,12,22, 1,15
1096,0.0,0.0,12,22, 1,15,0.0,12,22, 1,15
1134,1578718943.0098128,180000.0,12,22,14,30,7464774.211440656,12,26, 6,30
1326,130752791.2333082,0.0,12,22, 1,15,4050000.0,12,22, 7,15
1379,0.0,0.0,12,22, 1,15,0.0,12,22, 1,15
1,EXTREME_SUMMER,  41.15,-104.82,  -7.00,1872.00
5,7
1038,0.0,0.0, 7,27, 1,15,0.0, 7,27, 1,15
1039,0.0,0.0, 7,27, 1,15,0.0, 7,27, 1,15
581,0.20094691747962662,0.01493996380389933, 7,31, 7,47,0.5025133998782705, 7,29,19,50
582,4.245142105619483,0.04966563623907939, 7,31, 3,40,10.607977434005855, 8, 1,18,48
583,0.02675257810339926,0.00011925470901338837, 8, 2, 2,60,0.07054157901663949, 7,30,18, 4
1115,0.0,0.0, 7,27, 1,15,0.0, 7,27, 1,15
1128,0.0,0.0, 7,27, 1,15,0.0, 7,27, 1,15
1153,0.0,0.0, 7,27, 1,15,0.0, 7,27, 1,15
1154,0.0,0.0, 7,27, 1,15,0.0, 7,27, 1,15
1155,0.0,0.0, 7,27, 1,15,0.0, 7,27, 1,15
1156,0.0,0.0, 7,27, 1,15,0.0, 7,27, 1,15
1292,-22210521.5470308,-34593.807482674674, 7,27, 6,30,-2678.6850484422444, 7,31, 8,59
1306,108705633.30255215,0.0, 7,27, 1,15,3516947.169616837, 7,27, 6,60
1307,17312633.97169608,0.0, 7,27, 1,15,5614386.499582329, 7,27, 6,60
1308,108705633.30255215,0.0, 7,27, 1,15,3516947.169616837, 7,27, 6,60
13,813504472.4010136,151703.1275401932, 7,27, 4,15,5090240.801287025, 7,31,19,30
61,301924526.02383536,88139.10953165221, 7,27, 1,15,1282023.4113694867, 7,27,20,15
134,70666020.44019976,63564.01800854099, 7,27, 4,15,156554.22484006523, 8, 1,20,15
170,5241013.419656067,348.4159749238097, 7,27, 4,15,17476.39704006126, 8, 1,12,15
207,6509451.13922267,815.2532113832032, 7,27, 3,15,22990.642799023623, 8, 1,10,15
244,12749673.399825225,1521.856143006317, 7,27, 4,15,53038.631142310165, 8, 1,20,15
281,46165882.481495745,59938.60262432081, 7,27, 5,15,81951.81706819107, 7,27,19,15
318,0.0,0.0, 7,27, 1,15,0.0, 7,27, 1,15
355,197687796.27748066,18561.32405820678, 7,27, 4,15,724774.895203776, 8, 1,18,15
403,197687796.27748066,18561.32405820678, 7,27, 4,15,724774.895203776, 8, 1,18,15
476,106772067.24485716,7098.072629279515, 7,27, 4,15,356036.3026282215, 8, 1,12,15
513,0.0,0.0, 7,27, 1,15,0.0, 7,27, 1,15
562,34748078.67674912,0.0, 7,27, 1,15,147371.76672679058, 7,30,17,30
1046,0.0,0.0, 7,27, 1,15,0.0, 7,27, 1,15
1096,297460213.9576774,0.0, 7,27, 1,15,1429961.7846932546, 7,30,17,15
1134,0.0,0.0, 7,27, 1,15,0.0, 7,27, 1,15
1326,108705633.30255213,0.0, 7,27, 1,15,4050000.0, 7,27, 7,15
1379,0.0,0.0, 7,27, 1,15,0.0, 7,27, 1,15
1,ANNUAL,  41.15,-104.82,  -7.00,1872.00
5,365
1038,9.5,0.0, 1, 1, 1,15,0.25, 1, 5, 6,15
1039,17.0,0.0, 1, 1, 1,15,0.25, 5, 9,16,15
581,0.35587710807169726,0.005206267313803403, 8,22,23,20,1.3911601880983693, 3,22,14,60
582,6.878047304794155,0.0, 1, 2,23,52,43.0213144399784, 2, 7,14,60
583,0.030252160228548913,0.00008336900958749956,11,10,18,45,0.10499988170705198, 4,23,22,60
1115,37162651785.89176,0.0, 1, 1,23, 3,5386524.032031321, 1,12, 6,45
1128,12108124169.518936,0.0, 1, 1,23, 3,1534333.913011119, 1,18, 6,60
1153,296431706.49592954,0.0, 1, 1,23, 3,143577.04729077918, 3,18, 5,60
1154,2032074813.5287256,0.0, 1, 1, 1, 5,180000.0, 1, 2,16,15
1155,5539245291.492276,0.0, 1, 1, 1,20,6129431.6387285525, 1, 5, 6,15
1156,5539245291.492276,0.0, 1, 1, 1,20,6129431.6387285525, 1, 5, 6,15
1292,-1251860107.7336125,-39817.57100810222,12, 5, 5,45,-2169.340267453721, 8,16,17,45
1306,6429467466.868984,0.0, 1, 1, 1, 5,4050000.0, 1, 1,14,15
1307,1208577082.849978,0.0, 1, 1, 1, 5,8343992.738301968, 2,13, 6,60
1308,6429467466.868984,0.0, 1, 1, 1, 5,4050000.0, 1, 1,14,15
13,52138281524.56465,151703.1275401932, 4,13, 4,15,11463436.072030611, 1, 5, 8,30
61,15743207428.383959,88139.10953165221, 1, 1, 1,15,1282023.4113694867, 1, 1,20,15
134,3685071073.4325233,63564.01800854099, 1, 2, 4,15,156554.22484006523, 1, 1,20,15
170,273393721.45532674,348.4159749238097, 1, 2, 4,15,17476.39704006126, 1, 1,12,15
207,339560869.0695816,815.2532113832032, 1, 2, 3,15,22990.642799023623, 1, 1,10,15
244,664895467.8009144,1521.856143006317, 1, 2, 4,15,53038.631142310165, 1, 1,20,15
281,2407221015.106824,59938.60262432081, 1, 1, 5,15,81951.81706819107, 1, 1,19,15
318,0.0,0.0, 1, 1, 1,15,0.0, 1, 1, 1,15
355,10310294493.051695,18561.32405820678, 1, 2, 4,15,724774.895203776, 1, 1,18,15
403,10310294493.051695,18561.32405820678, 1, 2, 4,15,724774.895203776, 1, 1,18,15
476,5569688622.066177,7098.072629279515, 1, 2, 4,15,356036.3026282215, 1, 1,12,15
513,0.0,0.0, 1, 1, 1,15,0.0, 1, 1, 1,15
562,1856412694.3228364,0.0, 1, 2,12,60,152806.01989182032, 1, 1, 1,15
1046,0.0,0.0, 1, 1, 1,15,0.0, 1, 1, 1,15
1096,4448246880.518587,0.0, 1, 1, 1,15,1505924.5348784863, 7,30,16,60
1134,19975875981.035835,0.0, 1, 3,14,60,7457837.549962932,12,26, 6,30
1326,6429467466.868987,0.0, 1, 1, 1,15,4050000.0000000014, 6, 3,10,30
1379,0.0,0.0, 1, 1, 1,15,0.0, 1, 1, 1,15
End of Data
 Number of Records Written=          99
