Program Version,EnergyPlus, Version 22.2.0-c249759bad, YMD=2023.09.01 14:30
1,5,Environment Title[],Latitude[deg],Longitude[deg],Time Zone[],Elevation[m]
2,8,Day of Simulation[],Month[],Day of Month[],DST Indicator[1=yes 0=no],Hour[],StartMinute[],EndMinute[],DayType
3,5,Cumulative Day of Simulation[],Month[],Day of Month[],DST Indicator[1=yes 0=no],DayType  ! When Daily Report Variables Requested
4,2,Cumulative Days of Simulation[],Month[]  ! When Monthly Report Variables Requested
5,1,Cumulative Days of Simulation[] ! When Run Period Report Variables Requested
6,1,Calendar Year of Simulation[] ! When Annual Report Variables Requested
7,1,Environment,Site Outdoor Air Drybulb Temperature [C] !Hourly
619,1,DX_HEATING_COIL,Heating Coil Heating Rate [W] !Hourly
633,1,DX_HEATING_COIL,Heating Coil Electricity Rate [W] !Hourly
659,1,DX_HEATING_COIL,Heating Coil Defrost Electricity Rate [W] !Hourly
661,1,DX_HEATING_COIL,Heating Coil Crankcase Heater Electricity Rate [W] !Hourly
690,1,FAN,Fan Electricity Rate [W] !Hourly
716,1,HEAT PUMP WATER HEATER FAN,Fan Electricity Rate [W] !Hourly
718,1,LIVING,Zone Mean Air Temperature [C] !Hourly
719,1,ATTIC,Zone Mean Air Temperature [C] !Hourly
720,1,CRAWLSPACE,Zone Mean Air Temperature [C] !Hourly
843,1,LIVING,Zone Predicted Sensible Load to Heating Setpoint Heat Transfer Rate [W] !Hourly
844,1,LIVING,Zone System Predicted Sensible Load to Heating Setpoint Heat Transfer Rate [W] !Hourly
907,1,ATTIC,Zone Predicted Sensible Load to Heating Setpoint Heat Transfer Rate [W] !Hourly
908,1,ATTIC,Zone System Predicted Sensible Load to Heating Setpoint Heat Transfer Rate [W] !Hourly
971,1,CRAWLSPACE,Zone Predicted Sensible Load to Heating Setpoint Heat Transfer Rate [W] !Hourly
972,1,CRAWLSPACE,Zone System Predicted Sensible Load to Heating Setpoint Heat Transfer Rate [W] !Hourly
1195,1,HEATING_RESISTANCE_BACKUP,Heating Coil Heating Rate [W] !Hourly
1197,1,HEATING_RESISTANCE_BACKUP,Heating Coil Electricity Rate [W] !Hourly
End of Data Dictionary
1,EXTREME_WINTER,  41.78, -87.75,  -6.00, 190.00
2,1, 1,20, 0, 1, 0.00,60.00,Monday
7,-19.4
718,18.629895948665077
719,-10.32223096691724
720,17.22329753292989
619,3047.650226993844
633,1370.6231430752546
659,0.08511530343620087
661,0.0
690,148.9539776049718
716,0.0
843,5100.695512476672
844,5100.695512476672
907,0.0
908,0.0
971,0.0
972,0.0
1195,4261.699680009468
1197,4261.699680009468
2,1, 1,20, 0, 2, 0.00,60.00,Monday
7,-19.4
718,18.604426346164846
719,-11.548597804162037
720,16.69422274315647
619,3049.4210030769714
633,1369.0220473308734
659,0.08505766430859849
661,0.0
690,148.9539776049718
716,0.0
843,5482.75916065443
844,5482.75916065443
907,0.0
908,0.0
971,0.0
972,0.0
1195,4860.8928431884
1197,4860.8928431884
2,1, 1,20, 0, 3, 0.00,60.00,Monday
7,-19.4
718,18.601237374450758
719,-12.311899933026693
720,16.435589968412383
619,3050.6990638421294
633,1367.8651940154305
659,0.08501617860169829
661,0.0
690,148.9539776049718
716,0.0
843,5746.2824801269635
844,5746.2824801269635
907,0.0
908,0.0
971,0.0
972,0.0
1195,5276.712873466922
1197,5276.712873466922
2,1, 1,20, 0, 4, 0.00,60.00,Monday
7,-19.4
718,18.59550736126958
719,-12.606562782566403
720,16.137108723170314
619,3051.1024666088633
633,1367.4997835965762
659,0.08501617860169829
661,0.0
690,148.9539776049718
716,0.0
843,5944.126855111692
844,5944.126855111692
907,0.0
908,0.0
971,0.0
972,0.0
1195,5541.11377110057
1197,5541.11377110057
2,1, 1,20, 0, 5, 0.00,60.00,Monday
7,-20.0
718,18.599447211456315
719,-12.949432293429613
720,15.868943305744752
619,2983.478312787227
633,1355.0527317009478
659,1.8804321977669898
661,0.0
690,148.9539776049718
716,0.0
843,6112.895613417428
844,6112.895613417428
907,0.0
908,0.0
971,0.0
972,0.0
1195,5859.383198907668
1197,5859.383198907668
2,1, 1,20, 0, 6, 0.00,60.00,Monday
7,-20.0
718,19.38035713668507
719,-12.770855414851898
720,15.617668448052214
619,2983.725517461889
633,1354.8364006558274
659,1.8793490464139082
661,0.0
690,148.9539776049718
716,0.0
843,7262.687413364849
844,7262.687413364849
907,0.0
908,0.0
971,0.0
972,0.0
1195,7237.974702836318
1197,7237.974702836318
2,1, 1,20, 0, 7, 0.00,60.00,Monday
7,-20.0
718,19.1979726304207
719,-12.434950076643487
720,15.409113287402443
619,2961.1680850652947
633,1369.505741867496
659,3.4210735723310233
661,0.0
690,148.9539776049718
716,85.44000000000005
843,7038.9830200320885
844,7038.9830200320885
907,0.0
908,0.0
971,0.0
972,0.0
1195,7239.156917691631
1197,7239.156917691631
2,1, 1,20, 0, 8, 0.00,60.00,Monday
7,-20.0
718,19.09704446980455
719,-13.596670464440711
720,15.16459718903505
619,2965.912273639473
633,1365.3494074351252
659,3.4167721890383196
661,0.0
690,148.9539776049718
716,85.44000000000005
843,7046.588824681046
844,7046.588824681046
907,0.0
908,0.0
971,0.0
972,0.0
1195,7239.156917691631
1197,7239.156917691631
2,1, 1,20, 0, 9, 0.00,60.00,Monday
7,-18.9
718,19.51710339232217
719,-12.082565816247996
720,14.958439911063723
619,3081.5188500759537
633,1379.5218951973181
659,4.889639946908242
661,0.0
690,148.9539776049718
716,25.143998269908952
843,6279.261361911416
844,6279.261361911416
907,0.0
908,0.0
971,0.0
972,0.0
1195,6386.312574462798
1197,6386.312574462798
2,1, 1,20, 0,10, 0.00,60.00,Monday
7,-18.9
718,19.656040026174484
719,-10.626146749491012
720,14.773311228966703
619,3071.5149295991837
633,1388.6201838560978
659,4.889639946908242
661,0.0
690,148.9539776049718
716,0.0
843,5487.407271619499
844,5487.407271619499
907,0.0
908,0.0
971,0.0
972,0.0
1195,5076.7224437235
1197,5076.7224437235
2,1, 1,20, 0,11, 0.00,60.00,Monday
7,-16.1
718,19.699660307376035
719,-9.459246365859656
720,14.617087965342442
619,3391.0477556545393
633,1442.9398502805998
659,0.08089995236846793
661,0.0
690,148.9539776049718
716,0.0
843,5400.595839499734
844,5400.595839499734
907,0.0
908,0.0
971,0.0
972,0.0
1195,4609.332068410503
1197,4609.332068410503
2,1, 1,20, 0,12, 0.00,60.00,Monday
7,-14.4
718,19.718137030962687
719,-5.6707789831693685
720,14.489286731289914
619,3586.897031362451
633,1470.145608689262
659,0.08089995236846793
661,0.0
690,148.9539776049718
716,0.0
843,3570.842892507706
844,3570.842892507706
907,0.0
908,0.0
971,0.0
972,0.0
1195,2146.755247721911
1197,2146.755247721911
2,1, 1,20, 0,13, 0.00,60.00,Monday
7,-13.3
718,19.725682039409204
719,-5.3312097658311535
720,14.377565446208761
619,3717.3864599367475
633,1486.9155400057366
659,0.08089995236846793
661,0.0
690,148.9539776049718
716,0.0
843,3214.7922753935927
844,3214.7922753935927
907,0.0
908,0.0
971,0.0
972,0.0
1195,1391.4432711584109
1197,1391.4432711584109
2,1, 1,20, 0,14, 0.00,60.00,Monday
7,-12.8
718,19.717275145658263
719,-5.131002580356585
720,14.289136628303144
619,3777.7045585187875
633,1494.2989768296652
659,0.08089995236846793
661,0.0
690,148.9539776049718
716,82.41708396566655
843,3081.1386444481104
844,3081.1386444481104
907,0.0
908,0.0
971,0.0
972,0.0
1195,2155.326704789027
1197,2155.326704789027
2,1, 1,20, 0,15, 0.00,60.00,Monday
7,-12.2
718,19.755330116605418
719,-3.638317043846027
720,14.228560531246101
619,3635.2987717580927
633,1427.3979586954385
659,0.07684218435797911
661,10.031570827155157
690,141.4789880314458
716,0.0
843,2046.8682878291147
844,2046.8682878291147
907,0.0
908,0.0
971,0.0
972,0.0
1195,0.0
1197,0.0
2,1, 1,20, 0,16, 0.00,60.00,Monday
7,-12.2
718,19.770513691427663
719,-4.6274066414669806
720,14.176509172579575
619,3270.837111067726
633,1299.0806027447993
659,0.06988620080575803
661,27.228079226911127
690,128.67188749268718
716,0.0
843,1901.8472553119536
844,1901.8472553119536
907,0.0
908,0.0
971,0.0
972,0.0
1195,0.0
1197,0.0
2,1, 1,20, 0,17, 0.00,60.00,Monday
7,-13.3
718,19.672651835578677
719,-5.6330318356480955
720,14.139274268543758
619,3716.470930417085
633,1487.866440983636
659,0.08089995236846793
661,0.0
690,148.9539776049718
716,0.0
843,2365.570960998595
844,2365.570960998595
907,0.0
908,0.0
971,0.0
972,0.0
1195,329.6154548645882
1197,329.6154548645882
2,1, 1,20, 0,18, 0.00,60.00,Monday
7,-13.9
718,19.698318820665868
719,-6.386246490154184
720,14.089153892305312
619,3647.3425558924205
633,1476.309894949311
659,0.08089995236846793
661,0.0
690,148.9539776049718
716,0.0
843,3046.9042927143073
844,3046.9042927143073
907,0.0
908,0.0
971,0.0
972,0.0
1195,1256.0560354939366
1197,1256.0560354939366
2,1, 1,20, 0,19, 0.00,60.00,Monday
7,-13.9
718,19.6895019332351
719,-7.431341696331439
720,14.031701043848399
619,3646.7612747495464
633,1476.9066378381503
659,0.08089995236846793
661,0.0
690,148.9539776049718
716,85.44000000000005
843,3232.24237973239
844,3232.24237973239
907,0.0
908,0.0
971,0.0
972,0.0
1195,2665.5880513317607
1197,2665.5880513317607
2,1, 1,20, 0,20, 0.00,60.00,Monday
7,-13.9
718,19.700244005636034
719,-7.831672257357721
720,13.951596215884475
619,3647.0712112328783
633,1476.5884741457633
659,0.08089995236846793
661,0.0
690,148.9539776049718
716,85.44000000000005
843,3449.082799579588
844,3449.082799579588
907,0.0
908,0.0
971,0.0
972,0.0
1195,3012.5502406136156
1197,3012.5502406136156
2,1, 1,20, 0,21, 0.00,60.00,Monday
7,-13.3
718,19.701220851382146
719,-7.486532906289445
720,13.865361229802595
619,3718.5695943222404
633,1485.6862302096624
659,0.08089995236846793
661,0.0
690,148.9539776049718
716,70.68414199999751
843,3502.056023365036
844,3502.056023365036
907,0.0
908,0.0
971,0.0
972,0.0
1195,2799.6355083313647
1197,2799.6355083313647
2,1, 1,20, 0,22, 0.00,60.00,Monday
7,-13.3
718,19.712156250658122
719,-7.541943689789843
720,13.762607757251253
619,3718.6665887939926
633,1485.5854270280236
659,0.08089995236846793
661,0.0
690,148.9539776049718
716,0.0
843,3836.8420843653075
844,3836.8420843653075
907,0.0
908,0.0
971,0.0
972,0.0
1195,2238.2065222452593
1197,2238.2065222452593
2,1, 1,20, 0,23, 0.00,60.00,Monday
7,-12.8
718,18.957815068704573
719,-6.89757427440033
720,13.660651926279824
619,3778.860355638086
633,1493.0862190326889
659,0.08089995236846793
661,0.0
690,148.9539776049718
716,0.0
843,2987.8080827266313
844,2987.8080827266313
907,0.0
908,0.0
971,0.0
972,0.0
1195,1178.3883329506323
1197,1178.3883329506323
2,1, 1,20, 0,24, 0.00,60.00,Monday
7,-12.8
718,18.718179365622184
719,-7.157873339507089
720,13.51450854818459
619,3798.170949407078
633,1472.7563400008353
659,0.08089995236846793
661,0.0
690,148.9539776049718
716,0.0
843,3588.006816713403
844,3588.006816713403
907,0.0
908,0.0
971,0.0
972,0.0
1195,1772.0185920675103
1197,1772.0185920675103
2,2, 1,21, 0, 1, 0.00,60.00,Tuesday
7,-12.2
718,18.640788232927076
719,-6.287500371996539
720,13.400730242376483
619,3877.634596765323
633,1474.5043315671005
659,0.08089995236846793
661,0.0
690,148.9539776049718
716,0.0
843,3962.84498292605
844,3962.84498292605
907,0.0
908,0.0
971,0.0
972,0.0
1195,2144.030005927423
1197,2144.030005927423
2,2, 1,21, 0, 2, 0.00,60.00,Tuesday
7,-12.2
718,18.61338432413329
719,-6.580700190512028
720,13.278648373727547
619,3879.750871853957
633,1472.241021267026
659,0.08089995236846793
661,0.0
690,148.9539776049718
716,0.0
843,4395.164510762386
844,4395.164510762386
907,0.0
908,0.0
971,0.0
972,0.0
1195,2597.3190594463795
1197,2597.3190594463795
2,2, 1,21, 0, 3, 0.00,60.00,Tuesday
7,-12.2
718,18.608177150139664
719,-5.819928900888532
720,13.163476141029834
619,3880.605474946695
633,1471.3266778348852
659,0.08089995236846793
661,0.0
690,148.9539776049718
716,0.0
843,4568.567888228439
844,4568.567888228439
907,0.0
908,0.0
971,0.0
972,0.0
1195,2830.8140114364187
1197,2830.8140114364187
2,2, 1,21, 0, 4, 0.00,60.00,Tuesday
7,-12.2
718,18.603741874875638
719,-5.786644862999207
720,13.04996441286712
619,3880.896726432282
633,1471.0150190340053
659,0.08089995236846793
661,0.0
690,148.9539776049718
716,0.0
843,4716.361652352303
844,4716.361652352303
907,0.0
908,0.0
971,0.0
972,0.0
1195,2955.509769847244
1197,2955.509769847244
2,2, 1,21, 0, 5, 0.00,60.00,Tuesday
7,-12.2
718,18.607385861351787
719,-5.12454830849206
720,12.940936861907225
619,3875.566957603808
633,1468.6140186407854
659,1.766651614825867
661,0.0
690,148.9539776049718
716,0.0
843,4564.3044664868285
844,4564.3044664868285
907,0.0
908,0.0
971,0.0
972,0.0
1195,2789.6881358373944
1197,2789.6881358373944
2,2, 1,21, 0, 6, 0.00,60.00,Tuesday
7,-12.2
718,19.38262591993351
719,-5.0464727124549125
720,12.834820955052976
619,3854.6885208389403
633,1460.6091010776433
659,8.078969357388335
661,0.0
690,148.9539776049718
716,0.0
843,5778.072778161042
844,5778.072778161042
907,0.0
908,0.0
971,0.0
972,0.0
1195,4213.877588961512
1197,4213.877588961512
2,2, 1,21, 0, 7, 0.00,60.00,Tuesday
7,-12.2
718,19.573476343149157
719,-4.519034117264523
720,12.767922866619019
619,3811.281162423745
633,1471.9732167173438
659,15.366076294171407
661,0.0
690,148.9539776049718
716,85.44000000000005
843,5524.329057908035
844,5524.329057908035
907,0.0
908,0.0
971,0.0
972,0.0
1195,5101.520561080769
1197,5101.520561080769
2,2, 1,21, 0, 8, 0.00,60.00,Tuesday
7,-11.7
718,19.654948321587838
719,-4.848111028596539
720,12.677291095293683
619,3863.768818640643
633,1482.6278300358472
659,16.438726008497753
661,0.0
690,148.9539776049718
716,85.44000000000005
843,5433.194747481972
844,5433.194747481972
907,0.0
908,0.0
971,0.0
972,0.0
1195,5022.882646287802
1197,5022.882646287802
2,2, 1,21, 0, 9, 0.00,60.00,Tuesday
7,-11.1
718,19.683238552511817
719,-3.9990355902695875
720,12.595749339698838
619,3915.2940460256573
633,1485.4533068640915
659,22.33690705466849
661,0.0
690,148.9539776049718
716,85.44000000000005
843,4908.54209242431
844,4908.54209242431
907,0.0
908,0.0
971,0.0
972,0.0
1195,4393.125899436839
1197,4393.125899436839
2,2, 1,21, 0,10, 0.00,60.00,Tuesday
7,-11.1
718,19.708139472434087
719,-2.0363709046076313
720,12.513338679591822
619,3914.695471796539
633,1486.10138169077
659,22.33690705466849
661,0.0
690,148.9539776049718
716,32.065627179606864
843,4079.9290389671933
844,4079.9290389671933
907,0.0
908,0.0
971,0.0
972,0.0
1195,2568.886764333354
1197,2568.886764333354
2,2, 1,21, 0,11, 0.00,60.00,Tuesday
7,-7.8
718,19.723408850937854
719,0.27756364770703945
720,12.469740023036197
619,4414.981723793631
633,1561.0115789675053
659,0.08089995236846793
661,0.0
690,148.9539776049718
716,0.0
843,3546.6434091490046
844,3546.6434091490046
907,0.0
908,0.0
971,0.0
972,0.0
1195,942.5843553878813
1197,942.5843553878813
2,2, 1,21, 0,12, 0.00,60.00,Tuesday
7,-6.1
718,19.760359845003872
719,3.484410933079435
720,12.415225902902632
619,4038.778096829316
633,1398.405522138603
659,0.0713966206690237
661,23.49403533925516
690,131.4543305182568
716,0.0
843,2654.127306593975
844,2654.127306593975
907,0.0
908,0.0
971,0.0
972,0.0
1195,0.0
1197,0.0
2,2, 1,21, 0,13, 0.00,60.00,Tuesday
7,-5.0
718,19.8468507164138
719,4.457965200304326
720,12.36003450705439
619,2918.480413011315
633,1018.5666141280135
659,0.05147633776308034
661,72.74074642559599
690,94.77758043796463
716,0.0
843,2022.7405446531575
844,2022.7405446531575
907,0.0
908,0.0
971,0.0
972,0.0
1195,0.0
1197,0.0
2,2, 1,21, 0,14, 0.00,60.00,Tuesday
7,-3.9
718,19.8390138400146
719,5.967696018334326
720,12.333361843547168
619,1985.2508788659572
633,695.7137429585832
659,0.03477230561415383
661,114.03627666978231
690,64.02243011726658
716,0.0
843,1402.3614635048598
844,1402.3614635048598
907,0.0
908,0.0
971,0.0
972,0.0
1195,0.0
1197,0.0
2,2, 1,21, 0,15, 0.00,60.00,Tuesday
7,-3.3
718,19.599349285531407
719,4.964644776625347
720,12.335979667031884
619,1512.9547428688743
633,530.0770202857326
659,0.02636320534232727
661,134.82516473618404
690,48.53971713168642
716,0.0
843,1092.9446892023934
844,1092.9446892023934
907,0.0
908,0.0
971,0.0
972,0.0
1195,0.0
1197,0.0
2,2, 1,21, 0,16, 0.00,60.00,Tuesday
7,-3.3
718,19.665127471479515
719,3.8086268384850337
720,12.392874690822476
619,2095.6809542709952
633,719.9015964522933
659,0.03597527940009389
661,111.06229769767866
690,66.23738988964932
716,0.0
843,1507.3159800325502
844,1507.3159800325502
907,0.0
908,0.0
971,0.0
972,0.0
1195,0.0
1197,0.0
2,2, 1,21, 0,17, 0.00,60.00,Tuesday
7,-2.2
718,19.954822241603214
719,3.3669462451984318
720,12.431700670559524
619,2140.669153802261
633,721.2360505082494
659,0.03565811170577845
661,111.84639629113855
690,65.65351881433571
716,0.0
843,1525.0201975370874
844,1525.0201975370874
907,0.0
908,0.0
971,0.0
972,0.0
1195,0.0
1197,0.0
2,2, 1,21, 0,18, 0.00,60.00,Tuesday
7,-2.0
718,19.711813027924855
719,2.0982062175459286
720,12.467669950762659
619,2182.9821353437533
633,737.4018622173197
659,0.036188051321503115
661,110.53628522132976
690,66.62925684341617
716,0.0
843,1523.1488451114983
844,1523.1488451114983
907,0.0
908,0.0
971,0.0
972,0.0
1195,0.0
1197,0.0
2,2, 1,21, 0,19, 0.00,60.00,Tuesday
7,-3.3
718,19.67296481087092
719,1.9135513457916216
720,12.552010380835661
619,3719.3474866578526
633,1238.1090689459568
659,44.964024912604025
661,39.68877093091079
690,118.44028498244032
716,85.44000000000005
843,1617.803236285161
844,1617.803236285161
907,0.0
908,0.0
971,0.0
972,0.0
1195,0.0
1197,0.0
2,2, 1,21, 0,20, 0.00,60.00,Tuesday
7,-4.0
718,19.650016810407703
719,1.3338879026036132
720,12.5591685806798
619,4140.437910280445
633,1381.98399101874
659,64.76102196692123
661,17.431732409001487
690,134.4602204680538
716,85.44000000000005
843,1802.3541676106288
844,1802.3541676106288
907,0.0
908,0.0
971,0.0
972,0.0
1195,0.0
1197,0.0
2,2, 1,21, 0,21, 0.00,60.00,Tuesday
7,-3.0
718,19.680848396787987
719,1.4465204804469292
720,12.551316271200276
619,4254.4316702827255
633,1389.366071391993
659,56.83901383211508
661,19.24616995410693
690,133.4515328744811
716,85.44000000000005
843,1871.0773643109387
844,1871.0773643109387
907,0.0
908,0.0
971,0.0
972,0.0
1195,0.0
1197,0.0
2,2, 1,21, 0,22, 0.00,60.00,Tuesday
7,-3.3
718,19.726316597393133
719,1.1849960786730305
720,12.511259351297772
619,3734.00592603579
633,1243.5577763372964
659,66.96237526519407
661,35.17667648390332
690,121.3066121332971
716,42.24270157139972
843,2069.654842104723
844,2069.654842104723
907,0.0
908,0.0
971,0.0
972,0.0
1195,0.0
1197,0.0
2,2, 1,21, 0,23, 0.00,60.00,Tuesday
7,-3.3
718,18.912688334680755
719,0.39720234516465586
720,12.4129783628929
619,2196.686220634026
633,760.9921334352247
659,41.017620120403464
661,99.23190066595107
690,74.1611991703402
716,0.0
843,1466.428426737286
844,1466.428426737286
907,0.0
908,0.0
971,0.0
972,0.0
1195,0.0
1197,0.0
2,2, 1,21, 0,24, 0.00,60.00,Tuesday
7,-3.0
718,18.584433920513167
719,0.46784666334241476
720,12.390084403003703
619,2901.434573296669
633,962.0260277496972
659,50.1902706336645
661,71.27216663575571
690,94.8328770109179
716,0.0
843,1972.3616257448084
844,1972.3616257448084
907,0.0
908,0.0
971,0.0
972,0.0
1195,0.0
1197,0.0
2,3, 1,22, 0, 1, 0.00,60.00,Wednesday
7,-2.0
718,18.57695864441708
719,1.075460430313343
720,12.359740811908454
619,3669.7739407593917
633,1163.7517696309721
659,68.87933887164026
661,43.16049557774626
690,115.54818562262403
716,0.0
843,2522.5317045898464
844,2522.5317045898464
907,0.0
908,0.0
971,0.0
972,0.0
1195,0.0
1197,0.0
2,3, 1,22, 0, 2, 0.00,60.00,Wednesday
7,-2.0
718,18.61677085619138
719,1.2902029133702657
720,12.318292351080926
619,3952.8253826057535
633,1244.9109716522944
659,73.69807359269376
661,32.18814918225101
690,123.63190057520796
716,0.0
843,2735.899928660223
844,2735.899928660223
907,0.0
908,0.0
971,0.0
972,0.0
1195,0.0
1197,0.0
2,3, 1,22, 0, 3, 0.00,60.00,Wednesday
7,-1.7
718,18.580420655321408
719,1.102995602479958
720,12.283598184028047
619,4346.225558955153
633,1350.4807255841558
659,86.39219095352988
661,17.396990226338982
690,134.47042903948898
716,0.0
843,3010.7248529429307
844,3010.7248529429307
907,0.0
908,0.0
971,0.0
972,0.0
1195,0.0
1197,0.0
2,3, 1,22, 0, 4, 0.00,60.00,Wednesday
7,-1.7
718,18.595942276396507
719,1.2499558614052817
720,12.238760881871672
619,4594.136162567784
633,1418.0092191686776
659,90.78330588382602
661,8.115702257089087
690,141.30556952173592
716,0.0
843,3181.149580820471
844,3181.149580820471
907,0.0
908,0.0
971,0.0
972,0.0
1195,0.0
1197,0.0
2,3, 1,22, 0, 5, 0.00,60.00,Wednesday
7,-2.0
718,18.603406836246428
719,1.1340211640566131
720,12.194008494698648
619,4652.250445654842
633,1442.2932946318526
659,102.0998971724135
661,2.7433659728121507
690,145.01794302507204
716,0.0
843,3212.2837781709623
844,3212.2837781709623
907,0.0
908,0.0
971,0.0
972,0.0
1195,0.0
1197,0.0
2,3, 1,22, 0, 6, 0.00,60.00,Wednesday
7,-1.0
718,19.263479973378093
719,1.9001583957950514
720,12.157433701684534
619,4954.28203728498
633,1485.2790086519979
659,96.1433669899941
661,0.0
690,148.9539776049718
716,76.31651818804639
843,4218.146427837086
844,4218.146427837086
907,0.0
908,0.0
971,0.0
972,0.0
1195,1910.591810326685
1197,1910.591810326685
2,3, 1,22, 0, 7, 0.00,60.00,Wednesday
7,-1.0
718,19.525570893288567
719,1.59915163704006
720,12.143757010335744
619,4938.080115641469
633,1504.4921422456416
659,96.1433669899941
661,0.0
690,148.9539776049718
716,85.44000000000005
843,4412.251569108843
844,4412.251569108843
907,0.0
908,0.0
971,0.0
972,0.0
1195,2441.3908670379565
1197,2441.3908670379565
2,3, 1,22, 0, 8, 0.00,60.00,Wednesday
7,-6.0
718,19.640316705963382
719,-0.07474076505838455
720,12.067943679916409
619,4429.924417717527
633,1500.385030096138
659,58.40380215249522
661,0.0
690,148.9539776049718
716,68.63318427887776
843,4764.217646716135
844,4764.217646716135
907,0.0
908,0.0
971,0.0
972,0.0
1195,3192.6165736217376
1197,3192.6165736217376
2,3, 1,22, 0, 9, 0.00,60.00,Wednesday
7,-8.0
718,19.697492126645574
719,-2.2916329482836146
720,12.020525681659866
619,4290.234134324242
633,1519.8183410761344
659,26.92540829921748
661,0.0
690,148.9539776049718
716,0.0
843,4909.752948328507
844,4909.752948328507
907,0.0
908,0.0
971,0.0
972,0.0
1195,2594.41171399218
1197,2594.41171399218
2,3, 1,22, 0,10, 0.00,60.00,Wednesday
7,-8.9
718,19.709141642958908
719,-2.972102644874835
720,11.969841202245032
619,4179.356432575303
633,1511.4582345315139
659,25.368763147452906
661,0.0
690,148.9539776049718
716,0.0
843,4799.571022916276
844,4799.571022916276
907,0.0
908,0.0
971,0.0
972,0.0
1195,2694.6766421980847
1197,2694.6766421980847
2,3, 1,22, 0,11, 0.00,60.00,Wednesday
7,-8.3
718,19.722011516622175
719,-2.4726490432345734
720,11.932254471955543
619,4287.254577592574
633,1531.0507419816788
659,16.897003096707873
661,0.0
690,148.9539776049718
716,0.0
843,3640.750880375883
844,3640.750880375883
907,0.0
908,0.0
971,0.0
972,0.0
1195,1235.5269084095426
1197,1235.5269084095426
2,3, 1,22, 0,12, 0.00,60.00,Wednesday
7,-7.8
718,19.73467285398277
719,-0.8149353959839264
720,11.88066977000692
619,4115.3722166294965
633,1467.7070169200388
659,12.801537793645192
661,9.724937358107733
690,141.28295277756797
716,0.0
843,2535.199374168833
844,2535.199374168833
907,0.0
908,0.0
971,0.0
972,0.0
1195,0.0
1197,0.0
2,3, 1,22, 0,13, 0.00,60.00,Wednesday
7,-7.8
718,19.765801944576378
719,0.2990146612058012
720,11.81562567140016
619,3302.4898446204834
633,1203.122097706031
659,10.4958435049108
661,44.071522938641984
690,115.77973674417602
716,0.0
843,2084.5782171125884
844,2084.5782171125884
907,0.0
908,0.0
971,0.0
972,0.0
1195,0.0
1197,0.0
2,3, 1,22, 0,14, 0.00,60.00,Wednesday
7,-7.8
718,19.765326326457647
719,-1.1181950834499064
720,11.758092967001252
619,2155.9401712656263
633,809.63299141676
659,4.576786043716066
661,95.56595645332386
690,77.62665649741825
716,0.0
843,1382.8972581553007
844,1382.8972581553007
907,0.0
908,0.0
971,0.0
972,0.0
1195,0.0
1197,0.0
2,3, 1,22, 0,15, 0.00,60.00,Wednesday
7,-8.3
718,19.500874907319048
719,-1.303603112947968
720,11.846405088534082
619,3470.0925146139143
633,1269.5664410806023
659,2.769853888510856
661,36.23426282936724
690,121.87121137889616
716,72.54765685652687
843,1400.9393902577904
844,1400.9393902577904
907,0.0
908,0.0
971,0.0
972,0.0
1195,0.0
1197,0.0
2,3, 1,22, 0,16, 0.00,60.00,Wednesday
7,-8.3
718,19.439433006087626
719,-2.343750707480358
720,11.888332505854473
619,4343.136734845003
633,1542.6449698556285
659,3.382702555938006
661,0.0
690,148.9539776049718
716,84.30829836798814
843,1965.2890429137606
844,1965.2890429137606
907,0.0
908,0.0
971,0.0
972,0.0
1195,199.24719492838994
1197,199.24719492838994
2,3, 1,22, 0,17, 0.00,60.00,Wednesday
7,-11.1
718,19.629467510957713
719,-5.107942266916017
720,11.881347775577431
619,3898.329256805903
633,1473.547464747198
659,0.07910324173636374
661,4.441808875043263
690,145.64231822600547
716,0.0
843,2343.9496239718574
844,2343.9496239718574
907,0.0
908,0.0
971,0.0
972,0.0
1195,0.0
1197,0.0
2,3, 1,22, 0,18, 0.00,60.00,Wednesday
7,-11.7
718,19.666434923150295
719,-6.28551369883205
720,11.904356310688783
619,3899.8363499854513
633,1496.649710391061
659,5.634162502625313
661,0.0
690,148.9539776049718
716,0.0
843,3314.4836989935275
844,3314.4836989935275
907,0.0
908,0.0
971,0.0
972,0.0
1195,1347.3319205958583
1197,1347.3319205958583
2,3, 1,22, 0,19, 0.00,60.00,Wednesday
7,-11.7
718,19.70144059374281
719,-6.678500294495389
720,11.890770179725513
619,3887.612380816293
633,1493.425448167914
659,8.982722824488848
661,0.0
690,148.9539776049718
716,0.0
843,3028.1734457811344
844,3028.1734457811344
907,0.0
908,0.0
971,0.0
972,0.0
1195,1088.443749653225
1197,1088.443749653225
2,3, 1,22, 0,20, 0.00,60.00,Wednesday
7,-11.1
718,19.704070694321743
719,-7.04621523420491
720,11.85749550401856
619,3957.506746532241
633,1501.520437903111
659,9.954160492358211
661,0.0
690,148.9539776049718
716,85.44000000000005
843,3350.0085789444583
844,3350.0085789444583
907,0.0
908,0.0
971,0.0
972,0.0
1195,2676.2382200379348
1197,2676.2382200379348
2,3, 1,22, 0,21, 0.00,60.00,Wednesday
7,-10.6
718,19.699562930409545
719,-6.517259995819717
720,11.806388251967583
619,4016.770461275038
633,1507.4169117790432
659,10.81065649652548
661,0.0
690,148.9539776049718
716,85.44000000000005
843,3209.012012234236
844,3209.012012234236
907,0.0
908,0.0
971,0.0
972,0.0
1195,2458.112298180358
1197,2458.112298180358
2,3, 1,22, 0,22, 0.00,60.00,Wednesday
7,-10.6
718,19.70942142756885
719,-6.53174503183605
720,11.73639949462793
619,4016.95951879171
633,1507.2105454970483
659,10.81065649652548
661,0.0
690,148.9539776049718
716,39.10252259509575
843,3565.921156125358
844,3565.921156125358
907,0.0
908,0.0
971,0.0
972,0.0
1195,2122.7713849870306
1197,2122.7713849870306
2,3, 1,22, 0,23, 0.00,60.00,Wednesday
7,-10.6
718,18.956378704693435
719,-6.913148886576638
720,11.658217360898574
619,4016.820182804715
633,1507.3467485225297
659,10.813782536093976
661,0.0
690,148.9539776049718
716,0.0
843,3195.2008600629506
844,3195.2008600629506
907,0.0
908,0.0
971,0.0
972,0.0
1195,1182.0422444445371
1197,1182.0422444445371
2,3, 1,22, 0,24, 0.00,60.00,Wednesday
7,-11.1
718,18.71837252634146
719,-7.128236616729981
720,11.531968404643845
619,3964.6699628979245
633,1476.1861245354291
659,13.468362640957126
661,0.0
690,148.9539776049718
716,0.0
843,3713.823827959286
844,3713.823827959286
907,0.0
908,0.0
971,0.0
972,0.0
1195,1805.5002358466268
1197,1805.5002358466268
2,4, 1,23, 0, 1, 0.00,60.00,Thursday
7,-11.1
718,18.641108433478006
719,-7.334075979508193
720,11.4374896934461
619,3970.8106521033483
633,1469.496389006411
659,13.469703041133501
661,0.0
690,148.9539776049718
716,0.0
843,4095.0429527248198
844,4095.0429527248198
907,0.0
908,0.0
971,0.0
972,0.0
1195,2257.084356404346
1197,2257.084356404346
2,4, 1,23, 0, 2, 0.00,60.00,Thursday
7,-11.7
718,18.613375494764572
719,-7.450886703120359
720,11.33390887092696
619,3899.1498205049684
633,1459.2960860667527
659,13.42485682772154
661,0.0
690,148.9539776049718
716,0.0
843,4413.57543183716
844,4413.57543183716
907,0.0
908,0.0
971,0.0
972,0.0
1195,2707.291824258888
1197,2707.291824258888
2,4, 1,23, 0, 3, 0.00,60.00,Thursday
7,-12.2
718,18.60785994935334
719,-7.1455247602590415
720,11.234193259911454
619,3831.638742367132
633,1448.894950178351
659,15.645968927080618
661,0.0
690,148.9539776049718
716,0.0
843,4631.776117012774
844,4631.776117012774
907,0.0
908,0.0
971,0.0
972,0.0
1195,3051.962796752094
1197,3051.962796752094
2,4, 1,23, 0, 4, 0.00,60.00,Thursday
7,-12.2
718,18.602953146169963
719,-7.307063778008079
720,11.137355508788099
619,3831.9138928192474
633,1448.6003103980374
659,15.645968927080618
661,0.0
690,148.9539776049718
716,0.0
843,4803.831017999619
844,4803.831017999619
907,0.0
908,0.0
971,0.0
972,0.0
1195,3229.851151900728
1197,3229.851151900728
2,4, 1,23, 0, 5, 0.00,60.00,Thursday
7,-13.9
718,18.60387398172775
719,-7.595948984107416
720,11.02615032399232
619,3628.4737283189515
633,1424.6279924745786
659,15.959401948336815
661,0.0
690,148.9539776049718
716,0.0
843,5041.75146875791
844,5041.75146875791
907,0.0
908,0.0
971,0.0
972,0.0
1195,3743.4218186188955
1197,3743.4218186188955
2,4, 1,23, 0, 6, 0.00,60.00,Thursday
7,-13.3
718,19.382173186938296
719,-7.950169504205959
720,10.935790617258181
619,3707.5035340254667
633,1435.9292551855767
659,13.435317093115204
661,0.0
690,148.9539776049718
716,0.0
843,6152.919219151521
844,6152.919219151521
907,0.0
908,0.0
971,0.0
972,0.0
1195,4996.449504378227
1197,4996.449504378227
2,4, 1,23, 0, 7, 0.00,60.00,Thursday
7,-13.9
718,19.570587669219506
719,-7.419578630807387
720,10.873555204011753
619,3609.5360821452227
633,1444.250637643485
659,15.954807970305913
661,0.0
690,148.9539776049718
716,85.44000000000005
843,5930.615013619328
844,5930.615013619328
907,0.0
908,0.0
971,0.0
972,0.0
1195,6131.239896963211
1197,6131.239896963211
2,4, 1,23, 0, 8, 0.00,60.00,Thursday
7,-13.3
718,19.653796925851264
719,-6.976937595002325
720,10.79180304245222
619,3683.6752909043903
633,1460.856717330972
659,13.436519808377223
661,0.0
690,148.9539776049718
716,85.44000000000005
843,5536.701259104024
844,5536.701259104024
907,0.0
908,0.0
971,0.0
972,0.0
1195,5600.622328543924
1197,5600.622328543924
2,4, 1,23, 0, 9, 0.00,60.00,Thursday
7,-12.8
718,19.682928055853868
719,-5.750244038029156
720,10.71435205707629
619,3738.249024451528
633,1468.8858828142259
659,14.399043660041023
661,0.0
690,148.9539776049718
716,85.44000000000005
843,5240.099019049745
844,5240.099019049745
907,0.0
908,0.0
971,0.0
972,0.0
1195,5063.0454469479355
1197,5063.0454469479355
2,4, 1,23, 0,10, 0.00,60.00,Thursday
7,-12.8
718,19.70619856710403
719,-4.699262143120524
720,10.635309131166233
619,3737.628223830547
633,1469.5385623625427
659,14.399043660041023
661,0.0
690,148.9539776049718