Program Version,EnergyPlus, Version 22.2.0-c249759bad, YMD=2023.07.07 15:08
1,5,Environment Title[],Latitude[deg],Longitude[deg],Time Zone[],Elevation[m]
2,8,Day of Simulation[],Month[],Day of Month[],DST Indicator[1=yes 0=no],Hour[],StartMinute[],EndMinute[],DayType
3,5,Cumulative Day of Simulation[],Month[],Day of Month[],DST Indicator[1=yes 0=no],DayType  ! When Daily Report Variables Requested
4,2,Cumulative Days of Simulation[],Month[]  ! When Monthly Report Variables Requested
5,1,Cumulative Days of Simulation[] ! When Run Period Report Variables Requested
6,1,Calendar Year of Simulation[] ! When Annual Report Variables Requested
581,11,LIVING,AFN Zone Infiltration Air Change Rate [ach] !RunPeriod [Value,Min,Month,Day,Hour,Minute,Max,Month,Day,Hour,Minute]
582,11,ATTIC,AFN Zone Infiltration Air Change Rate [ach] !RunPeriod [Value,Min,Month,Day,Hour,Minute,Max,Month,Day,Hour,Minute]
583,11,CRAWLSPACE,AFN Zone Infiltration Air Change Rate [ach] !RunPeriod [Value,Min,Month,Day,Hour,Minute,Max,Month,Day,Hour,Minute]
1038,11,Facility,Facility Heating Setpoint Not Met Time [hr] !RunPeriod [Value,Min,Month,Day,Hour,Minute,Max,Month,Day,Hour,Minute]
1039,11,Facility,Facility Cooling Setpoint Not Met Time [hr] !RunPeriod [Value,Min,Month,Day,Hour,Minute,Max,Month,Day,Hour,Minute]
1115,11,DX_HEATING_COIL,Heating Coil Heating Energy [J] !RunPeriod [Value,Min,Month,Day,Hour,Minute,Max,Month,Day,Hour,Minute]
1128,11,DX_HEATING_COIL,Heating Coil Electricity Energy [J] !RunPeriod [Value,Min,Month,Day,Hour,Minute,Max,Month,Day,Hour,Minute]
1153,11,DX_HEATING_COIL,Heating Coil Defrost Electricity Energy [J] !RunPeriod [Value,Min,Month,Day,Hour,Minute,Max,Month,Day,Hour,Minute]
1154,11,DX_HEATING_COIL,Heating Coil Crankcase Heater Electricity Energy [J] !RunPeriod [Value,Min,Month,Day,Hour,Minute,Max,Month,Day,Hour,Minute]
1156,11,HEATING_RESISTANCE_BACKUP,Heating Coil Electricity Energy [J] !RunPeriod [Value,Min,Month,Day,Hour,Minute,Max,Month,Day,Hour,Minute]
13,11,Electricity:Facility [J] !RunPeriod [Value,Min,Month,Day,Hour,Minute,Max,Month,Day,Hour,Minute]
1134,11,Heating:Electricity [J] !RunPeriod [Value,Min,Month,Day,Hour,Minute,Max,Month,Day,Hour,Minute]
1096,11,Cooling:Electricity [J] !RunPeriod [Value,Min,Month,Day,Hour,Minute,Max,Month,Day,Hour,Minute]
562,11,Fans:Electricity [J] !RunPeriod [Value,Min,Month,Day,Hour,Minute,Max,Month,Day,Hour,Minute]
1388,11,Pumps:Electricity [J] !RunPeriod [Value,Min,Month,Day,Hour,Minute,Max,Month,Day,Hour,Minute]
1360,11,WaterSystems:Electricity [J] !RunPeriod [Value,Min,Month,Day,Hour,Minute,Max,Month,Day,Hour,Minute]
61,11,InteriorLights:Electricity [J] !RunPeriod [Value,Min,Month,Day,Hour,Minute,Max,Month,Day,Hour,Minute]
1046,11,ExteriorLights:Electricity [J] !RunPeriod [Value,Min,Month,Day,Hour,Minute,Max,Month,Day,Hour,Minute]
134,11,InteriorEquipment:Electricity [J] !RunPeriod [Value,Min,Month,Day,Hour,Minute,Max,Month,Day,Hour,Minute]
170,11,gas_dryer:InteriorEquipment:Electricity [J] !RunPeriod [Value,Min,Month,Day,Hour,Minute,Max,Month,Day,Hour,Minute]
207,11,clotheswasher:InteriorEquipment:Electricity [J] !RunPeriod [Value,Min,Month,Day,Hour,Minute,Max,Month,Day,Hour,Minute]
244,11,dishwasher:InteriorEquipment:Electricity [J] !RunPeriod [Value,Min,Month,Day,Hour,Minute,Max,Month,Day,Hour,Minute]
281,11,refrigerator:InteriorEquipment:Electricity [J] !RunPeriod [Value,Min,Month,Day,Hour,Minute,Max,Month,Day,Hour,Minute]
318,11,electric_mels:InteriorEquipment:Electricity [J] !RunPeriod [Value,Min,Month,Day,Hour,Minute,Max,Month,Day,Hour,Minute]
355,11,NaturalGas:Facility [J] !RunPeriod [Value,Min,Month,Day,Hour,Minute,Max,Month,Day,Hour,Minute]
1323,11,WaterSystems:NaturalGas [J] !RunPeriod [Value,Min,Month,Day,Hour,Minute,Max,Month,Day,Hour,Minute]
403,11,InteriorEquipment:NaturalGas [J] !RunPeriod [Value,Min,Month,Day,Hour,Minute,Max,Month,Day,Hour,Minute]
476,11,gas_dryer:InteriorEquipment:NaturalGas [J] !RunPeriod [Value,Min,Month,Day,Hour,Minute,Max,Month,Day,Hour,Minute]
513,11,gas_mels:InteriorEquipment:NaturalGas [J] !RunPeriod [Value,Min,Month,Day,Hour,Minute,Max,Month,Day,Hour,Minute]
End of Data Dictionary
1,EXTREME_WINTER,  33.67,-117.87,  -8.00,  17.00
5,7
1038,0.0,0.0, 1,15, 1,10,0.0, 1,15, 1,10
1039,0.0,0.0, 1,15, 1,10,0.0, 1,15, 1,10
581,0.15406412130753452,0.07983092054739124, 1,15,11,21,0.33486741253005053, 1,15,13,55
582,1.4575968283140328,0.0, 1,15, 2,23,6.528419625476799, 1,15,13,52
583,1.6284093829391382,0.00008707305659219049, 1,15,23,10,8.796840385937967, 1,15,13,52
1115,9229186.485763771,0.0, 1,15, 1,10,533686.0818746914, 1,18, 6,10
1128,2561742.3380914666,0.0, 1,15, 1,10,147200.9300777289, 1,18, 6,10
1153,0.0,0.0, 1,15, 1,10,0.0, 1,15, 1,10
1154,24143825.997570332,0.0, 1,15, 1,10,120000.0, 1,15, 2,59
1156,0.0,0.0, 1,15, 1,10,0.0, 1,15, 1,10
13,482283431.33041036,106115.4183601288, 1,16, 4,10,1158143.358737276, 1,20,20,10
61,301924526.0238348,58759.40635443481, 1,15, 1,10,854682.2742463244, 1,15,20,10
134,70666020.44019979,42376.01200569399, 1,15, 4,10,104369.48322671017, 1,20,20,10
170,5241013.419656074,232.27731661587313, 1,15, 4,10,11650.931360040839, 1,20,12,10
207,6509451.13922266,543.5021409221355, 1,15, 3,10,15327.095199349082, 1,20,10,10
244,12749673.39982522,1014.5707620042115, 1,15, 4,10,35359.08742820678, 1,20,20,10
281,46165882.48149605,39959.06841621388, 1,15, 5,10,54634.54471212738, 1,15,19,10
318,0.0,0.0, 1,15, 1,10,0.0, 1,15, 1,10
355,738893800.3110094,12374.216038804521, 1,15, 4,10,3829218.154066982, 1,16,18,60
403,197687796.27748126,12374.216038804521, 1,15, 4,10,483183.26346918393, 1,20,18,10
476,106772067.24485692,4732.048419519677, 1,15, 4,10,237357.535085481, 1,20,12,10
513,0.0,0.0, 1,15, 1,10,0.0, 1,15, 1,10
562,9548501.314012036,0.0, 1,15, 1,10,53166.824136299416, 1,18,16,10
1046,0.0,0.0, 1,15, 1,10,0.0, 1,15, 1,10
1096,68418975.21670286,0.0, 1,15, 1,10,390498.99418901064, 1,18,16,10
1134,26705568.3356618,0.0, 1,15, 1,10,247765.83241475496, 1,18, 6,10
1323,541206004.033525,0.0, 1,15, 1,10,3375000.0000000005, 1,15, 9,50
1360,5019840.0,4980.0, 1,15, 1,10,4980.000000000001, 1,15, 2,10
1388,0.0,0.0, 1,15, 1,10,0.0, 1,15, 1,10
1,EXTREME_SUMMER,  33.67,-117.87,  -8.00,  17.00
5,7
1038,0.0,0.0, 7,22, 1,10,0.0, 7,22, 1,10
1039,45.16666666666667,0.0, 7,22, 1,10,0.16666666666666666, 7,22,14,40
581,0.11068113927444466,0.0, 7,22, 3,50,0.5043545047112143, 7,24,13,20
582,2.8418023482893706,0.050444163606253624, 7,28, 8,11,12.065544343238006, 7,24,12,55
583,3.6576201811116933,0.00009875182871597291, 7,25, 6,10,15.875969422666508, 7,24,12,55
1115,0.0,0.0, 7,22, 1,10,0.0, 7,22, 1,10
1128,0.0,0.0, 7,22, 1,10,0.0, 7,22, 1,10
1153,0.0,0.0, 7,22, 1,10,0.0, 7,22, 1,10
1154,0.0,0.0, 7,22, 1,10,0.0, 7,22, 1,10
1156,0.0,0.0, 7,22, 1,10,0.0, 7,22, 1,10
13,897771003.0430417,144763.13857671994, 7,22, 4,60,1784927.448983385, 7,23,20,10
61,301924526.0238348,58759.40635443481, 7,22, 1,10,854682.2742463244, 7,22,20,10
134,70666020.44019979,42376.01200569399, 7,22, 4,10,104369.48322671017, 7,27,20,10
170,5241013.419656074,232.27731661587313, 7,22, 4,10,11650.931360040839, 7,27,12,10
207,6509451.13922266,543.5021409221355, 7,22, 3,10,15327.095199349082, 7,27,10,10
244,12749673.39982522,1014.5707620042115, 7,22, 4,10,35359.08742820678, 7,27,20,10
281,46165882.48149605,39959.06841621388, 7,22, 5,10,54634.54471212738, 7,22,19,10
318,0.0,0.0, 7,22, 1,10,0.0, 7,22, 1,10
355,635581108.9200271,12374.216038804521, 7,22, 4,10,3829218.154066982, 7,23,18,60
403,197687796.27748126,12374.216038804521, 7,22, 4,10,483183.26346918393, 7,27,18,10
476,106772067.24485692,4732.048419519677, 7,22, 4,10,237357.535085481, 7,27,12,10
513,0.0,0.0, 7,22, 1,10,0.0, 7,22, 1,10
562,52290729.88144927,2839.142971741919, 7,25, 6,20,82520.77082484722, 7,22,13,60
1046,0.0,0.0, 7,22, 1,10,0.0, 7,22, 1,10
1096,467869886.6975575,23220.46320057999, 7,25, 6,20,830416.2075494551, 7,23,13,60
1134,0.0,0.0, 7,22, 1,10,0.0, 7,22, 1,10
1323,437893312.6425444,0.0, 7,22, 1,10,3375000.000000001, 7,24,16,40
1360,5019840.0,4980.0, 7,22, 1,10,4980.000000000001, 7,22, 7,20
1388,0.0,0.0, 7,22, 1,10,0.0, 7,22, 1,10
1,ANNUAL,  33.67,-117.87,  -8.00,  17.00
5,365
1038,0.0,0.0, 1, 1, 1,10,0.0, 1, 1, 1,10
1039,558.1666666666664,0.0, 1, 1, 1,10,0.16666666666666666, 3, 1,11,20
581,0.13713063158147318,0.0, 4, 1, 4,60,0.8908394123810055,12, 3,23,60
582,2.2727966849710977,0.0, 1, 1, 9,37,21.273087148627596,12, 3, 9,60
583,2.765159203383812,0.0, 7,30, 6, 7,25.858694503022242,12, 3,23,60
1115,48814325.98792157,0.0, 1, 1, 1,10,1274287.3445145236, 1,24, 6, 3
1128,13888760.955598108,0.0, 1, 1, 1,10,304769.0564552393, 1,24, 6, 3
1153,401202.496826173,0.0, 1, 1, 1,10,21394.740475373153,12,19, 6, 3
1154,228422546.9235017,0.0, 1, 1, 1,10,120000.0, 1, 1, 5,10
1156,0.0,0.0, 1, 1, 1,10,0.0, 1, 1, 1,10
13,34988040733.630745,106115.41836012878, 3,28, 4,50,1833647.445291436, 9,27,20,10
61,15743207428.39043,58759.40635443481, 1, 1, 1,10,854682.2742463244, 1, 1,20,10
134,3685071073.433083,42376.01200569399, 1, 2, 4,10,104369.48322671017, 1, 1,20,10
170,273393721.45534325,232.27731661587313, 1, 2, 4,10,11650.931360040839, 1, 1,12,10
207,339560869.06955314,543.5021409221355, 1, 2, 3,10,15327.095199349082, 1, 1,10,10
244,664895467.8009839,1014.5707620042115, 1, 2, 4,10,35359.08742820678, 1, 1,20,10
281,2407221015.1057043,39959.06841621388, 1, 1, 5,10,54634.54471212738, 1, 1,19,10
318,0.0,0.0, 1, 1, 1,10,0.0, 1, 1, 1,10
355,35600792906.27583,12374.216038804521, 1, 2, 4,10,3829218.154066982, 1, 3,18,60
403,10310294493.052883,12374.216038804521, 1, 2, 4,10,483183.26346918393, 1, 1,18,10
476,5569688622.065564,4732.048419519677, 1, 2, 4,10,237357.535085481, 1, 1,12,10
513,0.0,0.0, 1, 1, 1,10,0.0, 1, 1, 1,10
562,1638742215.314166,0.0, 1, 1, 1,10,82520.77082484722, 1,28,15,30
1046,0.0,0.0, 1, 1, 1,10,0.0, 1, 1, 1,10
1096,13416558706.12274,0.0, 1, 1, 1,10,999459.394696525, 9,27,11,60
1134,242712510.37592578,0.0, 1, 1, 1,10,409582.29615032056, 2,16, 6,10
1323,25290498413.22704,0.0, 1, 1, 1,10,3375000.000000002, 1,16,21,60
1360,261748800.0,4979.999999999998, 2, 5,10,20,4980.000000000002, 1, 3, 9,60
1388,0.0,0.0, 1, 1, 1,10,0.0, 1, 1, 1,10
End of Data
 Number of Records Written=          87
