Program Version,EnergyPlus, Version 22.2.0-c249759bad, YMD=2023.09.01 20:41
1,5,Environment Title[],Latitude[deg],Longitude[deg],Time Zone[],Elevation[m]
2,8,Day of Simulation[],Month[],Day of Month[],DST Indicator[1=yes 0=no],Hour[],StartMinute[],EndMinute[],DayType
3,5,Cumulative Day of Simulation[],Month[],Day of Month[],DST Indicator[1=yes 0=no],DayType  ! When Daily Report Variables Requested
4,2,Cumulative Days of Simulation[],Month[]  ! When Monthly Report Variables Requested
5,1,Cumulative Days of Simulation[] ! When Run Period Report Variables Requested
6,1,Calendar Year of Simulation[] ! When Annual Report Variables Requested
581,11,LIVING,AFN Zone Infiltration Air Change Rate [ach] !RunPeriod [Value,Min,Month,Day,Hour,Minute,Max,Month,Day,Hour,Minute]
582,11,ATTIC,AFN Zone Infiltration Air Change Rate [ach] !RunPeriod [Value,Min,Month,Day,Hour,Minute,Max,Month,Day,Hour,Minute]
583,11,CRAWLSPACE,AFN Zone Infiltration Air Change Rate [ach] !RunPeriod [Value,Min,Month,Day,Hour,Minute,Max,Month,Day,Hour,Minute]
1038,11,Facility,Facility Heating Setpoint Not Met Time [hr] !RunPeriod [Value,Min,Month,Day,Hour,Minute,Max,Month,Day,Hour,Minute]
1039,11,Facility,Facility Cooling Setpoint Not Met Time [hr] !RunPeriod [Value,Min,Month,Day,Hour,Minute,Max,Month,Day,Hour,Minute]
1115,11,DX_HEATING_COIL,Heating Coil Heating Energy [J] !RunPeriod [Value,Min,Month,Day,Hour,Minute,Max,Month,Day,Hour,Minute]
1128,11,DX_HEATING_COIL,Heating Coil Electricity Energy [J] !RunPeriod [Value,Min,Month,Day,Hour,Minute,Max,Month,Day,Hour,Minute]
1153,11,DX_HEATING_COIL,Heating Coil Defrost Electricity Energy [J] !RunPeriod [Value,Min,Month,Day,Hour,Minute,Max,Month,Day,Hour,Minute]
1154,11,DX_HEATING_COIL,Heating Coil Crankcase Heater Electricity Energy [J] !RunPeriod [Value,Min,Month,Day,Hour,Minute,Max,Month,Day,Hour,Minute]
1155,11,HEATING_RESISTANCE_BACKUP,Heating Coil Heating Energy [J] !RunPeriod [Value,Min,Month,Day,Hour,Minute,Max,Month,Day,Hour,Minute]
1156,11,HEATING_RESISTANCE_BACKUP,Heating Coil Electricity Energy [J] !RunPeriod [Value,Min,Month,Day,Hour,Minute,Max,Month,Day,Hour,Minute]
1292,11,WATER HEATER,Water Heater Heat Loss Energy [J] !RunPeriod [Value,Min,Month,Day,Hour,Minute,Max,Month,Day,Hour,Minute]
1306,11,WATER HEATER,Water Heater Heating Energy [J] !RunPeriod [Value,Min,Month,Day,Hour,Minute,Max,Month,Day,Hour,Minute]
1307,11,WATER HEATER,Water Heater Unmet Demand Heat Transfer Energy [J] !RunPeriod [Value,Min,Month,Day,Hour,Minute,Max,Month,Day,Hour,Minute]
1308,11,WATER HEATER,Water Heater Electricity Energy [J] !RunPeriod [Value,Min,Month,Day,Hour,Minute,Max,Month,Day,Hour,Minute]
13,11,Electricity:Facility [J] !RunPeriod [Value,Min,Month,Day,Hour,Minute,Max,Month,Day,Hour,Minute]
1134,11,Heating:Electricity [J] !RunPeriod [Value,Min,Month,Day,Hour,Minute,Max,Month,Day,Hour,Minute]
1096,11,Cooling:Electricity [J] !RunPeriod [Value,Min,Month,Day,Hour,Minute,Max,Month,Day,Hour,Minute]
562,11,Fans:Electricity [J] !RunPeriod [Value,Min,Month,Day,Hour,Minute,Max,Month,Day,Hour,Minute]
1379,11,Pumps:Electricity [J] !RunPeriod [Value,Min,Month,Day,Hour,Minute,Max,Month,Day,Hour,Minute]
1326,11,WaterSystems:Electricity [J] !RunPeriod [Value,Min,Month,Day,Hour,Minute,Max,Month,Day,Hour,Minute]
61,11,InteriorLights:Electricity [J] !RunPeriod [Value,Min,Month,Day,Hour,Minute,Max,Month,Day,Hour,Minute]
1046,11,ExteriorLights:Electricity [J] !RunPeriod [Value,Min,Month,Day,Hour,Minute,Max,Month,Day,Hour,Minute]
134,11,InteriorEquipment:Electricity [J] !RunPeriod [Value,Min,Month,Day,Hour,Minute,Max,Month,Day,Hour,Minute]
170,11,gas_dryer:InteriorEquipment:Electricity [J] !RunPeriod [Value,Min,Month,Day,Hour,Minute,Max,Month,Day,Hour,Minute]
207,11,clotheswasher:InteriorEquipment:Electricity [J] !RunPeriod [Value,Min,Month,Day,Hour,Minute,Max,Month,Day,Hour,Minute]
244,11,dishwasher:InteriorEquipment:Electricity [J] !RunPeriod [Value,Min,Month,Day,Hour,Minute,Max,Month,Day,Hour,Minute]
281,11,refrigerator:InteriorEquipment:Electricity [J] !RunPeriod [Value,Min,Month,Day,Hour,Minute,Max,Month,Day,Hour,Minute]
318,11,electric_mels:InteriorEquipment:Electricity [J] !RunPeriod [Value,Min,Month,Day,Hour,Minute,Max,Month,Day,Hour,Minute]
355,11,NaturalGas:Facility [J] !RunPeriod [Value,Min,Month,Day,Hour,Minute,Max,Month,Day,Hour,Minute]
403,11,InteriorEquipment:NaturalGas [J] !RunPeriod [Value,Min,Month,Day,Hour,Minute,Max,Month,Day,Hour,Minute]
476,11,gas_dryer:InteriorEquipment:NaturalGas [J] !RunPeriod [Value,Min,Month,Day,Hour,Minute,Max,Month,Day,Hour,Minute]
513,11,gas_mels:InteriorEquipment:NaturalGas [J] !RunPeriod [Value,Min,Month,Day,Hour,Minute,Max,Month,Day,Hour,Minute]
End of Data Dictionary
1,EXTREME_WINTER,  39.67, -75.60,  -5.00,  23.00
5,7
1038,0.75,0.0, 1, 8, 1,15,0.25, 1, 8, 6,15
1039,0.0,0.0, 1, 8, 1,15,0.0, 1, 8, 1,15
581,0.3922865423274838,0.18590575460045944, 1,11,23,22,0.8242889958932169, 1, 8, 1,50
582,4.643183356844773,0.0, 1, 9,23,52,16.76780205336723, 1, 8, 1,50
583,0.04745522166350681,0.00039854819056536555, 1,11,23,22,0.08190137980369022, 1, 8, 1,50
1115,1643223174.926015,0.0, 1, 8,23, 5,4557546.437005863, 1,13, 6,45
1128,557884796.0064114,0.0, 1, 8,23, 5,1362816.7552209415, 1,13, 6,60
1153,8187398.2826138055,0.0, 1, 8,23, 5,88973.99326194492, 1,12, 9,60
1154,42735536.38298183,0.0, 1, 8, 1, 7,180000.0, 1, 9,15,30
1155,400265633.60804534,0.0, 1, 8,11,35,4123994.9700332987, 1, 8, 6,45
1156,400265633.60804534,0.0, 1, 8,11,35,4123994.9700332987, 1, 8, 6,45
1292,-25282019.998428933,-39746.651190591496, 1,11, 3,60,-5416.400334985982, 1,11,11,14
1306,261450619.35631952,0.0, 1, 8, 1, 7,4050000.0, 1, 8, 8,45
1307,85827629.89313938,0.0, 1, 8, 1, 7,13747278.267785573, 1, 8, 8,30
1308,261450619.35631952,0.0, 1, 8, 1, 7,4050000.0, 1, 8, 8,45
13,1700824450.0349426,452017.0388981225, 1, 9,15,30,9439016.09567739, 1,11, 6,60
61,301924526.02383536,88139.10953165221, 1, 8, 1,15,1282023.4113694867, 1, 8,20,15
134,70666020.44019976,63564.01800854099, 1, 8, 4,15,156554.22484006523, 1,13,20,15
170,5241013.419656067,348.4159749238097, 1, 8, 4,15,17476.39704006126, 1,13,12,15
207,6509451.13922267,815.2532113832032, 1, 8, 3,15,22990.642799023623, 1,13,10,15
244,12749673.399825225,1521.856143006317, 1, 8, 4,15,53038.631142310165, 1,13,20,15
281,46165882.481495745,59938.60262432081, 1, 8, 5,15,81951.81706819107, 1, 8,19,15
318,0.0,0.0, 1, 8, 1,15,0.0, 1, 8, 1,15
355,197687796.27748066,18561.32405820678, 1, 8, 4,15,724774.895203776, 1,13,18,15
403,197687796.27748066,18561.32405820678, 1, 8, 4,15,724774.895203776, 1,13,18,15
476,106772067.24485716,7098.072629279515, 1, 8, 4,15,356036.3026282215, 1,13,12,15
513,0.0,0.0, 1, 8, 1,15,0.0, 1, 8, 1,15
562,57709919.93453856,0.0, 1, 9,15,30,132984.93336862908, 1,11, 9,60
1046,0.0,0.0, 1, 8, 1,15,0.0, 1, 8, 1,15
1096,0.0,0.0, 1, 8, 1,15,0.0, 1, 8, 1,15
1134,1009073364.2800533,180000.0, 1, 9,15,30,5856507.037401583, 1, 8, 6,15
1326,261450619.3563195,0.0, 1, 8, 1,15,4050000.0, 1, 8, 8,45
1379,0.0,0.0, 1, 8, 1,15,0.0, 1, 8, 1,15
1,EXTREME_SUMMER,  39.67, -75.60,  -5.00,  23.00
5,7
1038,0.0,0.0, 7,15, 1,15,0.0, 7,15, 1,15
1039,37.5,0.0, 7,15, 1,15,0.25, 7,17,14,60
581,0.13303658797856482,0.0, 7,15,23, 3,0.4508195798296763, 7,21,22,33
582,3.331071041067111,0.06527872480156736, 7,17, 8,26,17.799809676096, 7,21,22,48
583,0.03933528556836353,0.00011812026212231891, 7,16, 6,11,0.07215617467438333, 7,21,22,33
1115,0.0,0.0, 7,15, 1,15,0.0, 7,15, 1,15
1128,0.0,0.0, 7,15, 1,15,0.0, 7,15, 1,15
1153,0.0,0.0, 7,15, 1,15,0.0, 7,15, 1,15
1154,0.0,0.0, 7,15, 1,15,0.0, 7,15, 1,15
1155,0.0,0.0, 7,15, 1,15,0.0, 7,15, 1,15
1156,0.0,0.0, 7,15, 1,15,0.0, 7,15, 1,15
1292,-21872444.796830297,-34336.63898618722, 7,15, 9,15,-2986.536419928258, 7,17, 9,14
1306,189438826.2342486,0.0, 7,15, 1,15,4050000.0, 7,15, 8,45
1307,43068098.4518639,0.0, 7,15, 1,15,4700908.859644451, 7,15, 8,30
1308,189438826.2342486,0.0, 7,15, 1,15,4050000.0, 7,15, 8,45
13,1147249992.2954519,159891.2840947607, 7,16, 4,60,6314736.108197685, 7,17,17,30
61,301924526.02383536,88139.10953165221, 7,15, 1,15,1282023.4113694867, 7,15,20,15
134,70666020.44019976,63564.01800854099, 7,15, 4,15,156554.22484006523, 7,20,20,15
170,5241013.419656067,348.4159749238097, 7,15, 4,15,17476.39704006126, 7,20,12,15
207,6509451.13922267,815.2532113832032, 7,15, 3,15,22990.642799023623, 7,20,10,15
244,12749673.399825225,1521.856143006317, 7,15, 4,15,53038.631142310165, 7,20,20,15
281,46165882.481495745,59938.60262432081, 7,15, 5,15,81951.81706819107, 7,15,19,15
318,0.0,0.0, 7,15, 1,15,0.0, 7,15, 1,15
355,197687796.27748066,18561.32405820678, 7,15, 4,15,724774.895203776, 7,20,18,15
403,197687796.27748066,18561.32405820678, 7,15, 4,15,724774.895203776, 7,20,18,15
476,106772067.24485716,7098.072629279515, 7,15, 4,15,356036.3026282215, 7,20,12,15
513,0.0,0.0, 7,15, 1,15,0.0, 7,15, 1,15
562,53037426.409758806,0.0, 7,17, 6,30,132984.93336862908, 7,17,16,45
1046,0.0,0.0, 7,15, 1,15,0.0, 7,15, 1,15
1096,532183193.187409,0.0, 7,17, 6,30,1487876.0113210878, 7,20,15,60
1134,0.0,0.0, 7,15, 1,15,0.0, 7,15, 1,15
1326,189438826.2342486,0.0, 7,15, 1,15,4050000.0, 7,15, 8,45
1379,0.0,0.0, 7,15, 1,15,0.0, 7,15, 1,15
1,ANNUAL,  39.67, -75.60,  -5.00,  23.00
5,365
1038,10.0,0.0, 1, 1, 1,15,0.25, 1, 8, 6,15
1039,335.5,0.0, 1, 1, 1,15,0.25, 4,12,12,60
581,0.25282148777096836,0.0, 5,15,23, 5,1.2290870247153727, 3,10,22,60
582,4.420091909347268,0.0, 1, 2,20,52,33.94254848012068, 2,12,14,60
583,0.025937043558704673,0.0, 5,20,23, 3,0.08484206548397635,12,16,12,60
1115,19656108279.859943,0.0, 1, 1,13,22,4607997.682028117, 3, 1, 6,60
1128,6182256264.0551405,0.0, 1, 1,13,22,1374897.819654437, 3, 1, 6,60
1153,182474920.676887,0.0, 1, 1,13,22,124738.48925538031, 2,18,16,60
1154,1602726454.0812886,0.0, 1, 1, 6, 5,180000.0, 1, 1,14,15
1155,1881603947.9154959,0.0, 1, 1, 1,15,4636720.723331257, 1, 8, 1,45
1156,1881603947.9154959,0.0, 1, 1, 1,15,4636720.723331257, 1, 8, 1,45
1292,-1217126622.4910464,-39791.15437166729, 1,13,24,30,-2271.6693933167417, 7,17, 8,31
1306,11831641570.579264,0.0, 1, 1, 1,15,4050000.0, 1, 2, 8,45
1307,3367992958.603457,0.0, 1, 1, 1,15,14132835.530582044, 2, 6, 8,30
1308,11831641570.579264,0.0, 1, 1, 1,15,4050000.0, 1, 2, 8,45
13,52070863363.34254,151703.1275401932, 4, 3, 4,15,10770037.223775407, 1,31, 7,30
61,15743207428.383959,88139.10953165221, 1, 1, 1,15,1282023.4113694867, 1, 1,20,15
134,3685071073.4325233,63564.01800854099, 1, 2, 4,15,156554.22484006523, 1, 1,20,15
170,273393721.45532674,348.4159749238097, 1, 2, 4,15,17476.39704006126, 1, 1,12,15
207,339560869.0695816,815.2532113832032, 1, 2, 3,15,22990.642799023623, 1, 1,10,15
244,664895467.8009144,1521.856143006317, 1, 2, 4,15,53038.631142310165, 1, 1,20,15
281,2407221015.106824,59938.60262432081, 1, 1, 5,15,81951.81706819107, 1, 1,19,15
318,0.0,0.0, 1, 1, 1,15,0.0, 1, 1, 1,15
355,10310294493.051695,18561.32405820678, 1, 2, 4,15,724774.895203776, 1, 1,18,15
403,10310294493.051695,18561.32405820678, 1, 2, 4,15,724774.895203776, 1, 1,18,15
476,5569688622.066177,7098.072629279515, 1, 2, 4,15,356036.3026282215, 1, 1,12,15
513,0.0,0.0, 1, 1, 1,15,0.0, 1, 1, 1,15
562,1649988992.8228745,0.0, 1, 1,13,30,132984.93336862908, 1,11, 9,60
1046,0.0,0.0, 1, 1, 1,15,0.0, 1, 1, 1,15
1096,9311892711.393478,0.0, 1, 1, 1,15,1490311.5486509635, 7,20,15,60
1134,9849061586.728773,0.0, 1, 4,18,15,5892900.8777433, 1,31, 8,60
1326,11831641570.57926,0.0, 1, 1, 1,15,4050000.0000000014,10,21, 9,45
1379,0.0,0.0, 1, 1, 1,15,0.0, 1, 1, 1,15
End of Data
 Number of Records Written=          99
