Program Version,EnergyPlus, Version 22.2.0-c249759bad, YMD=2023.09.01 14:30
1,5,Environment Title[],Latitude[deg],Longitude[deg],Time Zone[],Elevation[m]
2,8,Day of Simulation[],Month[],Day of Month[],DST Indicator[1=yes 0=no],Hour[],StartMinute[],EndMinute[],DayType
3,5,Cumulative Day of Simulation[],Month[],Day of Month[],DST Indicator[1=yes 0=no],DayType  ! When Daily Report Variables Requested
4,2,Cumulative Days of Simulation[],Month[]  ! When Monthly Report Variables Requested
5,1,Cumulative Days of Simulation[] ! When Run Period Report Variables Requested
6,1,Calendar Year of Simulation[] ! When Annual Report Variables Requested
7,1,Environment,Site Outdoor Air Drybulb Temperature [C] !Hourly
619,1,DX_HEATING_COIL,Heating Coil Heating Rate [W] !Hourly
633,1,DX_HEATING_COIL,Heating Coil Electricity Rate [W] !Hourly
659,1,DX_HEATING_COIL,Heating Coil Defrost Electricity Rate [W] !Hourly
661,1,DX_HEATING_COIL,Heating Coil Crankcase Heater Electricity Rate [W] !Hourly
690,1,FAN,Fan Electricity Rate [W] !Hourly
716,1,HEAT PUMP WATER HEATER FAN,Fan Electricity Rate [W] !Hourly
718,1,LIVING,Zone Mean Air Temperature [C] !Hourly
719,1,ATTIC,Zone Mean Air Temperature [C] !Hourly
720,1,CRAWLSPACE,Zone Mean Air Temperature [C] !Hourly
843,1,LIVING,Zone Predicted Sensible Load to Heating Setpoint Heat Transfer Rate [W] !Hourly
844,1,LIVING,Zone System Predicted Sensible Load to Heating Setpoint Heat Transfer Rate [W] !Hourly
907,1,ATTIC,Zone Predicted Sensible Load to Heating Setpoint Heat Transfer Rate [W] !Hourly
908,1,ATTIC,Zone System Predicted Sensible Load to Heating Setpoint Heat Transfer Rate [W] !Hourly
971,1,CRAWLSPACE,Zone Predicted Sensible Load to Heating Setpoint Heat Transfer Rate [W] !Hourly
972,1,CRAWLSPACE,Zone System Predicted Sensible Load to Heating Setpoint Heat Transfer Rate [W] !Hourly
1195,1,HEATING_RESISTANCE_BACKUP,Heating Coil Heating Rate [W] !Hourly
1197,1,HEATING_RESISTANCE_BACKUP,Heating Coil Electricity Rate [W] !Hourly
End of Data Dictionary
1,EXTREME_WINTER,  30.41, -89.07,  -6.00,  16.00
2,1, 1, 6, 0, 1, 0.00,60.00,Monday
7,1.7
718,20.84785418573307
719,0.8035042066807186
720,20.163965683664898
619,0.0
633,0.0
659,0.0
661,200.0
690,0.0
716,0.0
843,-1733.5550838507625
844,-1733.5550838507625
907,0.0
908,0.0
971,0.0
972,0.0
1195,0.0
1197,0.0
2,1, 1, 6, 0, 2, 0.00,60.00,Monday
7,1.7
718,20.137042757893855
719,-0.4880715885209194
720,19.95911190415273
619,0.0
633,0.0
659,0.0
661,200.0
690,0.0
716,0.0
843,-1209.5470206527625
844,-1209.5470206527625
907,0.0
908,0.0
971,0.0
972,0.0
1195,0.0
1197,0.0
2,1, 1, 6, 0, 3, 0.00,60.00,Monday
7,1.1
718,19.35378481586777
719,-1.5456330101851872
720,19.813037167073542
619,0.0
633,0.0
659,0.0
661,200.0
690,0.0
716,0.0
843,-563.928662670236
844,-563.928662670236
907,0.0
908,0.0
971,0.0
972,0.0
1195,0.0
1197,0.0
2,1, 1, 6, 0, 4, 0.00,60.00,Monday
7,1.1
718,18.658156940960374
719,-2.3655053507784225
720,19.662290469941333
619,0.0
633,0.0
659,0.0
661,200.0
690,0.0
716,0.0
843,-35.21387575396329
844,-35.21387575396329
907,0.0
908,0.0
971,0.0
972,0.0
1195,0.0
1197,0.0
2,1, 1, 6, 0, 5, 0.00,60.00,Monday
7,0.6
718,18.5663631100399
719,-2.5833541163648706
720,19.488082082716147
619,600.5951296651945
633,197.4662357862656
659,16.11123568963026
661,170.4072134552782
690,20.83270190210126
716,0.0
843,413.24005952488005
844,413.24005952488005
907,0.0
908,0.0
971,0.0
972,0.0
1195,0.0
1197,0.0
2,1, 1, 6, 0, 6, 0.00,60.00,Monday
7,0.6
718,19.285305925576946
719,-1.2464769193482685
720,19.293468145906488
619,1871.5834110230269
633,593.2490513013383
659,48.47140014641358
661,110.90684530799399
690,62.720564558549874
716,0.0
843,1277.1129260948583
844,1277.1129260948583
907,0.0
908,0.0
971,0.0
972,0.0
1195,0.0
1197,0.0
2,1, 1, 6, 0, 7, 0.00,60.00,Monday
7,1.1
718,19.431017137179516
719,0.5628302852352935
720,19.1152927694843
619,4140.7255738557615
633,1249.3217669113262
659,96.58661975465796
661,16.4408416169872
690,129.3808290216835
716,85.44000000000005
843,1745.5872754246466
844,1745.5872754246466
907,0.0
908,0.0
971,0.0
972,0.0
1195,0.0
1197,0.0
2,1, 1, 6, 0, 8, 0.00,60.00,Monday
7,3.3
718,19.68129955974646
719,0.5917300447916438
720,19.03763966315735
619,3001.587388355338
633,901.0582575840391
659,61.78004942836495
661,71.84338229037606
690,90.7022072854549
716,39.25476404112611
843,1577.5491910769015
844,1577.5491910769015
907,0.0
908,0.0
971,0.0
972,0.0
1195,0.0
1197,0.0
2,1, 1, 6, 0, 9, 0.00,60.00,Monday
7,6.7
718,19.82201542660671
719,4.497158538648044
720,18.957058676861426
619,932.7394463565686
633,257.96666050484004
659,0.0
661,169.43016235510777
690,21.744544511348664
716,0.0
843,678.5609022520948
844,678.5609022520948
907,0.0
908,0.0
971,0.0
972,0.0
1195,0.0
1197,0.0
2,1, 1, 6, 0,10, 0.00,60.00,Monday
7,10.6
718,20.289177194104987
719,10.476709769020198
720,18.857269775828424
619,0.0
633,0.0
659,0.0
661,0.0
690,0.0
716,0.0
843,-338.02409631536284
844,-338.02409631536284
907,0.0
908,0.0
971,0.0
972,0.0
1195,0.0
1197,0.0
2,1, 1, 6, 0,11, 0.00,60.00,Monday
7,12.2
718,21.503517889780753
719,18.46580338774357
720,18.79045897500943
619,0.0
633,0.0
659,0.0
661,0.0
690,0.0
716,0.0
843,-1522.57499395394
844,-1522.57499395394
907,0.0
908,0.0
971,0.0
972,0.0
1195,0.0
1197,0.0
2,1, 1, 6, 0,12, 0.00,60.00,Monday
7,14.4
718,22.38227952557469
719,23.03848665708403
720,18.762362786836285
619,0.0
633,0.0
659,0.0
661,0.0
690,0.0
716,0.0
843,-2328.5055364222644
844,-2328.5055364222644
907,0.0
908,0.0
971,0.0
972,0.0
1195,0.0
1197,0.0
2,1, 1, 6, 0,13, 0.00,60.00,Monday
7,15.6
718,23.327202963816912
719,27.031100381490475
720,18.770634104280685
619,0.0
633,0.0
659,0.0
661,0.0
690,0.7084489613877082
716,0.0
843,-3066.036334104132
844,-3066.036334104132
907,0.0
908,0.0
971,0.0
972,0.0
1195,0.0
1197,0.0
2,1, 1, 6, 0,14, 0.00,60.00,Monday
7,14.4
718,22.99841522531873
719,27.285353730415107
720,18.800168906789462
619,0.0
633,0.0
659,0.0
661,0.0
690,0.0
716,61.931517596342196
843,-3598.2467860032903
844,-3598.2467860032903
907,0.0
908,0.0
971,0.0
972,0.0
1195,0.0
1197,0.0
2,1, 1, 6, 0,15, 0.00,60.00,Monday
7,15.0
718,23.270259019017264
719,27.355044268059693
720,18.911276177040385
619,0.0
633,0.0
659,0.0
661,0.0
690,36.4696158811346
716,0.0
843,-4304.305681259881
844,-4304.305681259881
907,0.0
908,0.0
971,0.0
972,0.0
1195,0.0
1197,0.0
2,1, 1, 6, 0,16, 0.00,60.00,Monday
7,14.4
718,23.251981450724422
719,25.349849346555104
720,19.0142201758408
619,0.0
633,0.0
659,0.0
661,0.0
690,53.04158633309615
716,0.0
843,-5440.759776770623
844,-5440.759776770623
907,0.0
908,0.0
971,0.0
972,0.0
1195,0.0
1197,0.0
2,1, 1, 6, 0,17, 0.00,60.00,Monday
7,12.8
718,23.31418211647249
719,22.47118389455842
720,19.106952996301104
619,0.0
633,0.0
659,0.0
661,0.0
690,55.57002126604563
716,0.0
843,-5887.545508481682
844,-5887.545508481682
907,0.0
908,0.0
971,0.0
972,0.0
1195,0.0
1197,0.0
2,1, 1, 6, 0,18, 0.00,60.00,Monday
7,8.9
718,23.267913090422514
719,16.902968182817514
720,19.161926628451045
619,0.0
633,0.0
659,0.0
661,160.5215189721889
690,28.08132636887279
716,0.0
843,-4837.777410870705
844,-4837.777410870705
907,0.0
908,0.0
971,0.0
972,0.0
1195,0.0
1197,0.0
2,1, 1, 6, 0,19, 0.00,60.00,Monday
7,7.8
718,23.07637976442907
719,13.401810510766088
720,19.205806023013096
619,0.0
633,0.0
659,0.0
661,200.0
690,0.0
716,72.05553270269044
843,-4115.949435400273
844,-4115.949435400273
907,0.0
908,0.0
971,0.0
972,0.0
1195,0.0
1197,0.0
2,1, 1, 6, 0,20, 0.00,60.00,Monday
7,6.7
718,22.886463171804277
719,9.969183315046608
720,19.237269451297827
619,0.0
633,0.0
659,0.0
661,200.0
690,0.0
716,65.18980884507333
843,-3853.5058170388693
844,-3853.5058170388693
907,0.0
908,0.0
971,0.0
972,0.0
1195,0.0
1197,0.0
2,1, 1, 6, 0,21, 0.00,60.00,Monday
7,5.6
718,23.32241377190205
719,7.471169718709179
720,19.23840504608144
619,0.0
633,0.0
659,0.0
661,194.76770272153925
690,3.7217705370152037
716,0.0
843,-3430.98392425806
844,-3430.98392425806
907,0.0
908,0.0
971,0.0
972,0.0
1195,0.0
1197,0.0
2,1, 1, 6, 0,22, 0.00,60.00,Monday
7,5.0
718,23.123708912221566
719,5.466723620206289
720,19.212477445649885
619,0.0
633,0.0
659,0.0
661,200.0
690,0.0
716,0.0
843,-2599.6752408272187
844,-2599.6752408272187
907,0.0
908,0.0
971,0.0
972,0.0
1195,0.0
1197,0.0
2,1, 1, 6, 0,23, 0.00,60.00,Monday
7,4.4
718,22.488440360601075
719,3.7974288662985085
720,19.17116412139852
619,0.0
633,0.0
659,0.0
661,200.0
690,0.0
716,0.0
843,-2845.152304066709
844,-2845.152304066709
907,0.0
908,0.0
971,0.0
972,0.0
1195,0.0
1197,0.0
2,1, 1, 6, 0,24, 0.00,60.00,Monday
7,3.3
718,21.646960797274502
719,2.276071693937294
720,19.115664838998306
619,0.0
633,0.0
659,0.0
661,200.0
690,0.0
716,0.0
843,-2279.4459505283266
844,-2279.4459505283266
907,0.0
908,0.0
971,0.0
972,0.0
1195,0.0
1197,0.0
2,2, 1, 7, 0, 1, 0.00,60.00,Tuesday
7,4.4
718,20.967622000982114
719,2.124575169640199
720,19.045751100725884
619,0.0
633,0.0
659,0.0
661,200.0
690,0.0
716,0.0
843,-1801.4948417556207
844,-1801.4948417556207
907,0.0
908,0.0
971,0.0
972,0.0
1195,0.0
1197,0.0
2,2, 1, 7, 0, 2, 0.00,60.00,Tuesday
7,4.4
718,20.321667074318302
719,1.0898913190389814
720,18.96627959108479
619,0.0
633,0.0
659,0.0
661,200.0
690,0.0
716,0.0
843,-1236.9857527628246
844,-1236.9857527628246
907,0.0
908,0.0
971,0.0
972,0.0
1195,0.0
1197,0.0
2,2, 1, 7, 0, 3, 0.00,60.00,Tuesday
7,3.9
718,19.544428365810642
719,1.2190886396097758
720,18.8765484807272
619,0.0
633,0.0
659,0.0
661,200.0
690,0.0
716,0.0
843,-641.9730266122497
844,-641.9730266122497
907,0.0
908,0.0
971,0.0
972,0.0
1195,0.0
1197,0.0
2,2, 1, 7, 0, 4, 0.00,60.00,Tuesday
7,3.9
718,18.722754036353077
719,1.7930736555516589
720,18.782184523678286
619,0.0
633,0.0
659,0.0
661,200.0
690,0.0
716,0.0
843,-78.27530713355736
844,-78.27530713355736
907,0.0
908,0.0
971,0.0
972,0.0
1195,0.0
1197,0.0
2,2, 1, 7, 0, 5, 0.00,60.00,Tuesday
7,4.4
718,18.59828992371344
719,2.239417618731269
720,18.677130008752037
619,295.80778764379534
633,91.4752742359707
659,6.170907315106788
661,186.9745041556944
690,9.23334860048639
716,0.0
843,217.46384360089723
844,217.46384360089723
907,0.0
908,0.0
971,0.0
972,0.0
1195,0.0
1197,0.0
2,2, 1, 7, 0, 6, 0.00,60.00,Tuesday
7,5.6
718,19.656181947746997
719,3.8593477074932347
720,18.56467476729068
619,1227.514957233123
633,334.3311146397175
659,0.0
661,159.0744396358146
690,29.110644267343908
716,0.0
843,912.5202015807763
844,912.5202015807763
907,0.0
908,0.0
971,0.0
972,0.0
1195,0.0
1197,0.0
2,2, 1, 7, 0, 7, 0.00,60.00,Tuesday
7,6.1
718,19.65709358414339
719,5.692268872031529
720,18.470742490695375
619,2856.2238221892608
633,768.5752118901654
659,0.0
661,108.2398057383398
690,65.26968352499749
716,81.46907160805047
843,1083.0812218914762
844,1083.0812218914762
907,0.0
908,0.0
971,0.0
972,0.0
1195,0.0
1197,0.0
2,2, 1, 7, 0, 8, 0.00,60.00,Tuesday
7,6.1
718,19.664834923870153
719,6.5955186838771045
720,18.38344535184228
619,2900.7652371093595
633,779.8746332912913
659,0.0
661,106.8836998959595
690,66.23429132547972
716,85.44000000000005
843,1084.8818951565772
844,1084.8818951565772
907,0.0
908,0.0
971,0.0
972,0.0
1195,0.0
1197,0.0
2,2, 1, 7, 0, 9, 0.00,60.00,Tuesday
7,7.8
718,19.725832659435323
719,8.714925013814291
720,18.314868855863903
619,1317.6476419239518
633,356.17520997406257
659,0.0
661,158.2566355951777
690,29.692354139988957
716,27.371234999184242
843,648.8495530820182
844,648.8495530820182
907,0.0
908,0.0
971,0.0
972,0.0
1195,0.0
1197,0.0
2,2, 1, 7, 0,10, 0.00,60.00,Tuesday
7,8.9
718,19.67983552714042
719,10.937461589325032
720,18.24994126876622
619,38.8284955510441
633,10.595646680278422
659,0.0
661,198.7751743521779
690,0.8712272576350804
716,0.0
843,17.43882138501249
844,17.43882138501249
907,0.0
908,0.0
971,0.0
972,0.0
1195,0.0
1197,0.0
2,2, 1, 7, 0,11, 0.00,60.00,Tuesday
7,11.1
718,20.718357535168206
719,14.973703359201137
720,18.211208145524854
619,0.0
633,0.0
659,0.0
661,0.0
690,0.0
716,0.0
843,-638.9838569346448
844,-638.9838569346448
907,0.0
908,0.0
971,0.0
972,0.0
1195,0.0
1197,0.0
2,2, 1, 7, 0,12, 0.00,60.00,Tuesday
7,12.8
718,21.68913173581392
719,18.972164406403582
720,18.200536947971848
619,0.0
633,0.0
659,0.0
661,0.0
690,0.0
716,0.0
843,-1426.5550592117997
844,-1426.5550592117997
907,0.0
908,0.0
971,0.0
972,0.0
1195,0.0
1197,0.0
2,2, 1, 7, 0,13, 0.00,60.00,Tuesday
7,11.7
718,21.33052538072289
719,17.196652469739842
720,18.2114213589611
619,0.0
633,0.0
659,0.0
661,0.0
690,0.0
716,0.0
843,-1224.1047726392353
844,-1224.1047726392353
907,0.0
908,0.0
971,0.0
972,0.0
1195,0.0
1197,0.0
2,2, 1, 7, 0,14, 0.00,60.00,Tuesday
7,12.2
718,22.411997957542614
719,17.88537468282941
720,18.245221530522212
619,0.0
633,0.0
659,0.0
661,0.0
690,0.0
716,0.0
843,-2413.7502251564492
844,-2413.7502251564492
907,0.0
908,0.0
971,0.0
972,0.0
1195,0.0
1197,0.0
2,2, 1, 7, 0,15, 0.00,60.00,Tuesday
7,12.2
718,23.327933855264234
719,18.0474537946887
720,18.300301408518706
619,0.0
633,0.0
659,0.0
661,0.0
690,1.2158478762068452
716,0.0
843,-3039.8227131541153
844,-3039.8227131541153
907,0.0
908,0.0
971,0.0
972,0.0
1195,0.0
1197,0.0
2,2, 1, 7, 0,16, 0.00,60.00,Tuesday
7,11.7
718,23.080005866603653
719,16.385418195238234
720,18.39321131195952
619,0.0
633,0.0
659,0.0
661,0.0
690,14.385328790510094
716,0.0
843,-3620.744793599728
844,-3620.744793599728
907,0.0
908,0.0
971,0.0
972,0.0
1195,0.0
1197,0.0
2,2, 1, 7, 0,17, 0.00,60.00,Tuesday
7,10.6
718,23.31157106306679
719,14.336750637764371
720,18.472584969412903
619,0.0
633,0.0
659,0.0
661,0.0
690,14.31127730471377
716,0.0
843,-4364.165262531802
844,-4364.165262531802
907,0.0
908,0.0
971,0.0
972,0.0
1195,0.0
1197,0.0
2,2, 1, 7, 0,18, 0.00,60.00,Tuesday
7,8.3
718,22.46854773963351
719,11.52629868586853
720,18.53087795426474
619,0.0
633,0.0
659,0.0
661,200.0
690,0.0
716,61.780824120192655
843,-3454.1193780129634
844,-3454.1193780129634
907,0.0
908,0.0
971,0.0
972,0.0
1195,0.0
1197,0.0
2,2, 1, 7, 0,19, 0.00,60.00,Tuesday
7,6.7
718,22.021961784731143
719,9.235099430883517
720,18.57723870765229
619,0.0
633,0.0
659,0.0
661,200.0
690,0.0
716,0.0
843,-2379.4554414611193
844,-2379.4554414611193
907,0.0
908,0.0
971,0.0
972,0.0
1195,0.0
1197,0.0
2,2, 1, 7, 0,20, 0.00,60.00,Tuesday
7,5.0
718,20.58767878623369
719,7.386031708346127
720,18.58690521113135
619,0.0
633,0.0
659,0.0
661,200.0
690,0.0
716,85.44000000000005
843,-1668.0031879836824
844,-1668.0031879836824
907,0.0
908,0.0
971,0.0
972,0.0
1195,0.0
1197,0.0
2,2, 1, 7, 0,21, 0.00,60.00,Tuesday
7,3.9
718,20.056782841443496
719,5.8872855386206595
720,18.567851188445328
619,0.0
633,0.0
659,0.0
661,200.0
690,0.0
716,81.42657652980031
843,-1256.012944143662
844,-1256.012944143662
907,0.0
908,0.0
971,0.0
972,0.0
1195,0.0
1197,0.0
2,2, 1, 7, 0,22, 0.00,60.00,Tuesday
7,2.2
718,19.738426869381684
719,4.4013898658062125
720,18.517487387548087
619,46.25948459120984
633,15.359758794144627
659,0.0007202660665665284
661,198.01931685856263
690,1.4088676840345722
716,0.0
843,15.900525996701617
844,15.900525996701617
907,0.0
908,0.0
971,0.0
972,0.0
1195,0.0
1197,0.0
2,2, 1, 7, 0,23, 0.00,60.00,Tuesday
7,0.6
718,18.62480708676552
719,2.619006233408783
720,18.442231639913636
619,0.0
633,0.0
659,0.0
661,200.0
690,0.0
716,0.0
843,-171.41265065908374
844,-171.41265065908374
907,0.0
908,0.0
971,0.0
972,0.0
1195,0.0
1197,0.0
2,2, 1, 7, 0,24, 0.00,60.00,Tuesday
7,-1.1
718,18.547256121746333
719,1.6384038043299336
720,18.29886399932828
619,1446.797578152017
633,475.09746201473337
659,0.023603241603506353
661,135.09267630752709
690,46.16866571434057
716,0.0
843,1029.6963720245167
844,1029.6963720245167
907,0.0
908,0.0
971,0.0
972,0.0
1195,0.0
1197,0.0
2,3, 1, 8, 0, 1, 0.00,60.00,Wednesday
7,-2.2
718,18.4098541424744
719,0.8333303736267127
720,18.15060823073896
619,2596.6382490831847
633,843.1837822151656
659,0.04236450407615859
661,83.50046890449889
690,82.8661582984111
716,0.0
843,1857.294488394131
844,1857.294488394131
907,0.0
908,0.0
971,0.0
972,0.0
1195,0.0
1197,0.0
2,3, 1, 8, 0, 2, 0.00,60.00,Wednesday
7,-3.3
718,18.624769440660465
719,-0.32282003181615965
720,18.018226728075472
619,3069.575058410494
633,1000.6784280529429
659,0.050895999935285936
661,60.039430263640845
690,99.55385989232902
716,0.0
843,2165.401392988434
844,2165.401392988434
907,0.0
908,0.0
971,0.0
972,0.0
1195,0.0
1197,0.0
2,3, 1, 8, 0, 3, 0.00,60.00,Wednesday
7,-4.4
718,18.625605523084232
719,-0.48399642370851503
720,17.88506848781367
619,3573.1214637538856
633,1178.510482343912
659,0.06025376406066172
661,34.306209576133796
690,117.8576998654421
716,0.0
843,2446.68863144687
844,2446.68863144687
907,0.0
908,0.0
971,0.0
972,0.0
1195,0.0
1197,0.0
2,3, 1, 8, 0, 4, 0.00,60.00,Wednesday
7,-5.0
718,18.514598374464487
719,-1.0356125871331645
720,17.72605929964289
619,4329.464916519069
633,1415.0393688124727
659,0.0727290550919558
661,0.0
690,142.2614327490997
716,0.0
843,3161.1238822956184
844,3161.1238822956184
907,0.0
908,0.0
971,0.0
972,0.0
1195,276.5114688463891
1197,276.5114688463891
2,3, 1, 8, 0, 5, 0.00,60.00,Wednesday
7,-5.6
718,18.57883657646776
719,-1.382938981282362
720,17.59504514720663
619,4257.756853398196
633,1404.6776254700808
659,0.0727290550919558
661,0.0
690,142.2614327490997
716,0.0
843,3261.0452623853835
844,3261.0452623853835
907,0.0
908,0.0
971,0.0
972,0.0
1195,486.5745743292405
1197,486.5745743292405
2,3, 1, 8, 0, 6, 0.00,60.00,Wednesday
7,-6.7
718,19.22904124868659
719,-1.7063736356068462
720,17.456139305298915
619,4121.645361343208
633,1393.3043516224889
659,0.0727290550919558
661,0.0
690,142.2614327490997
716,76.60364957282523
843,4474.796777822668
844,4474.796777822668
907,0.0
908,0.0
971,0.0
972,0.0
1195,3014.742317202018
1197,3014.742317202018
2,3, 1, 8, 0, 7, 0.00,60.00,Wednesday
7,-7.2
718,19.516104894330894
719,-2.023331717298916
720,17.352962771923895
619,4046.051618280575
633,1404.7324627253984
659,0.0727290550919558
661,0.0
690,142.2614327490997
716,85.44000000000005
843,4395.319665605024
844,4395.319665605024
907,0.0
908,0.0
971,0.0
972,0.0
1195,3254.205374901607
1197,3254.205374901607
2,3, 1, 8, 0, 8, 0.00,60.00,Wednesday
7,-6.1
718,19.64272995808838
719,-1.8334164801663195
720,17.235050118421114
619,4172.893618486898
633,1425.7204750330009
659,0.0727290550919558
661,0.0
690,142.2614327490997
716,43.8727888217224
843,4391.588689873826
844,4391.588689873826
907,0.0
908,0.0
971,0.0
972,0.0
1195,2660.3482323763546
1197,2660.3482323763546
2,3, 1, 8, 0, 9, 0.00,60.00,Wednesday
7,-4.4
718,19.70244137668063
719,-0.017879037368334152
720,17.130378876232022
619,4381.105437519869
633,1449.8100085710962
659,0.0727290550919558
661,0.0
690,142.2614327490997
716,0.0
843,3170.169867113884
844,3170.169867113884
907,0.0
908,0.0
971,0.0
972,0.0
1195,403.5717477426556
1197,403.5717477426556
2,3, 1, 8, 0,10, 0.00,60.00,Wednesday
7,-3.3
718,19.83823591798381
719,3.6842122593228868
720,17.05147638718007
619,2601.1203767620786
633,884.7558844351414
659,0.04391226647752757
661,79.24422661065347
690,85.89349477342233
716,0.0
843,1727.9938210913588
844,1727.9938210913588
907,0.0
908,0.0
971,0.0
972,0.0
1195,0.0
1197,0.0
2,3, 1, 8, 0,11, 0.00,60.00,Wednesday
7,-1.7
718,20.025100013738715
719,13.34346988313465
720,16.99083486757999
619,671.7827480483578
633,233.98372787028532
659,0.011422723317909094
661,168.58828069891285
690,22.34318006467565
716,0.0
843,467.6125178907514
844,467.6125178907514
907,0.0
908,0.0
971,0.0
972,0.0
1195,0.0
1197,0.0
2,3, 1, 8, 0,12, 0.00,60.00,Wednesday
7,-1.1
718,19.905849354336713
719,19.35852944670796
720,16.949137531468956
619,0.0
633,0.0
659,0.0
661,200.0
690,0.0
716,0.0
843,-174.76731987387575
844,-174.76731987387575
907,0.0
908,0.0
971,0.0
972,0.0
1195,0.0
1197,0.0
2,3, 1, 8, 0,13, 0.00,60.00,Wednesday
7,0.0
718,20.159775283574454
719,18.75251137191986
720,16.939188294229066
619,0.0
633,0.0
659,0.0
661,200.0
690,0.0
716,0.0
843,-356.7183994982479
844,-356.7183994982479
907,0.0
908,0.0
971,0.0
972,0.0
1195,0.0
1197,0.0
2,3, 1, 8, 0,14, 0.00,60.00,Wednesday
7,0.0
718,20.55773503863339
719,18.209486432568323
720,16.956204867968445
619,0.0
633,0.0
659,0.0
661,200.0
690,0.0
716,0.0
843,-708.558060711739
844,-708.558060711739
907,0.0
908,0.0
971,0.0
972,0.0
1195,0.0
1197,0.0
2,3, 1, 8, 0,15, 0.00,60.00,Wednesday
7,1.1
718,21.036483174941157
719,17.361982788125562
720,16.991361244312213
619,0.0
633,0.0
659,0.0
661,200.0
690,0.0
716,0.0
843,-1128.1773075008678
844,-1128.1773075008678
907,0.0
908,0.0
971,0.0
972,0.0
1195,0.0
1197,0.0
2,3, 1, 8, 0,16, 0.00,60.00,Wednesday
7,2.8
718,19.87100679154511
719,13.399679240574802
720,17.03291750640229
619,0.0
633,0.0
659,0.0
661,200.0
690,0.0
716,85.44000000000005
843,-866.3808999642097
844,-866.3808999642097
907,0.0
908,0.0
971,0.0
972,0.0
1195,0.0
1197,0.0
2,3, 1, 8, 0,17, 0.00,60.00,Wednesday
7,2.8
718,19.53566506666332
719,10.090094628462142
720,17.07213448844155
619,0.0
633,0.0
659,0.0
661,200.0
690,0.0
716,66.04848112600752
843,-481.3817743575655
844,-481.3817743575655
907,0.0
908,0.0
971,0.0
972,0.0
1195,0.0
1197,0.0
2,3, 1, 8, 0,18, 0.00,60.00,Wednesday
7,2.0
718,19.89773479477215
719,7.313028541604226
720,17.10611071422212
619,0.0
633,0.0
659,0.0
661,200.0
690,0.0
716,0.0
843,-161.30868477268086
844,-161.30868477268086
907,0.0
908,0.0
971,0.0
972,0.0
1195,0.0
1197,0.0
2,3, 1, 8, 0,19, 0.00,60.00,Wednesday
7,1.1
718,19.9363245709536
719,4.564195164342808
720,17.11653657084605
619,0.0
633,0.0
659,0.0
661,200.0
690,0.0
716,0.0
843,-164.721823531856
844,-164.721823531856
907,0.0
908,0.0
971,0.0
972,0.0
1195,0.0
1197,0.0
2,3, 1, 8, 0,20, 0.00,60.00,Wednesday
7,1.1
718,18.964264816580403
719,2.9523258148366964
720,17.107539898420576
619,0.0
633,0.0
659,0.0
661,200.0
690,0.0
716,85.44000000000005
843,-147.5627435336046
844,-147.5627435336046
907,0.0
908,0.0
971,0.0
972,0.0
1195,0.0
1197,0.0
2,3, 1, 8, 0,21, 0.00,60.00,Wednesday
7,2.2
718,19.546750154946015
719,3.032723078841039
720,17.077207875582793
619,1013.1602533938511
633,319.7312595096545
659,0.015340025437896811
661,157.8159638716563
690,30.005671047230464
716,44.16801570362697
843,213.7172014498883
844,213.7172014498883
907,0.0
908,0.0
971,0.0
972,0.0
1195,0.0
1197,0.0
2,3, 1, 8, 0,22, 0.00,60.00,Wednesday
7,2.8
718,19.7817859902909
719,3.1336031899573933
720,17.050961623939028
619,515.9435661188317
633,165.49752889495144
659,2.0977187243207327
661,178.13430756721212
690,15.536772898700894
716,0.0
843,372.4774647170507
844,372.4774647170507
907,0.0
908,0.0
971,0.0
972,0.0
1195,0.0
1197,0.0
2,3, 1, 8, 0,23, 0.00,60.00,Wednesday
7,2.8
718,18.663059175182777
719,3.009869237327552
720,17.0055643963262
619,0.0
633,0.0
659,0.0
661,200.0
690,0.0
716,0.0
843,-44.8768056892377
844,-44.8768056892377
907,0.0
908,0.0
971,0.0
972,0.0
1195,0.0
1197,0.0
2,3, 1, 8, 0,24, 0.00,60.00,Wednesday
7,2.2
718,18.599605589200685
719,3.3094464443342018
720,16.952063217208426
619,787.3644432267542
633,248.04369423150473
659,1.5094939113076753
661,166.79511780663248
690,23.60539438859061
716,0.0
843,559.0453814075281
844,559.0453814075281
907,0.0
908,0.0
971,0.0
972,0.0
1195,0.0
1197,0.0
2,4, 1, 9, 0, 1, 0.00,60.00,Thursday
7,2.2
718,18.64535609955073
719,3.3342886045954514
720,16.89820752502673
619,1141.1949324601221
633,356.07756741299244
659,3.6751011492191585
661,151.98293259910193
690,34.12190103090077
716,0.0
843,845.6260846670984
844,845.6260846670984
907,0.0
908,0.0
971,0.0
972,0.0
1195,0.0
1197,0.0
2,4, 1, 9, 0, 2, 0.00,60.00,Thursday
7,2.8
718,18.683878294427
719,3.609495635552667
720,16.838584090074868
619,1559.3611188094053
633,477.82193213098685
659,9.314246000484452
661,135.13803462344876
690,46.063409123177834
716,0.0
843,1137.4937816834536
844,1137.4937816834536
907,0.0
908,0.0
971,0.0
972,0.0
1195,0.0
1197,0.0
2,4, 1, 9, 0, 3, 0.00,60.00,Thursday
7,2.2
718,18.525040198925563
719,3.7329509365223537
720,16.77282575722498
619,1846.6910674960652
633,568.1616235073833
659,13.245494430038018
661,122.08628005371871
690,55.299635486394365
716,0.0
843,1365.737459716216
844,1365.737459716216
907,0.0
908,0.0
971,0.0
972,0.0
1195,0.0
1197,0.0
2,4, 1, 9, 0, 4, 0.00,60.00,Thursday
7,2.8
718,18.610353440440544
719,3.748315929488838
720,16.708859132833364
619,2213.1341846506057
633,666.0973256152536
659,15.944377830972003
661,108.7935669691346
690,64.74954043747313
716,0.0
843,1631.884371324537
844,1631.884371324537
907,0.0
908,0.0
971,0.0
972,0.0
1195,0.0
1197,0.0
2,4, 1, 9, 0, 5, 0.00,60.00,Thursday
7,2.8
718,18.617949741649177
719,3.929301792348874
720,16.648410762939413
619,2201.787085212672
633,664.1467802504737
659,16.110102621112052
661,109.15967552137514
690,64.48770455765901
716,0.0
843,1633.5770189871328
844,1633.5770189871328
907,0.0
908,0.0
971,0.0
972,0.0
1195,0.0
1197,0.0
2,4, 1, 9, 0, 6, 0.00,60.00,Thursday
7,2.8
718,19.306810197144326
719,4.826352896158582
720,16.580642588390763
619,3595.793057987181
633,1050.9764944535198
659,32.52596191803647
661,54.89600248760276
690,102.95350431064195
716,0.0
843,2656.776950068008
844,2656.776950068008
907,0.0
908,0.0
971,0.0
972,0.0
1195,0.0
1197,0.0
2,4, 1, 9, 0, 7, 0.00,60.00,Thursday
7,2.8
718,19.466899487120713
719,5.578848106864654
720,16.554477622433122
619,5124.652459654056
633,1468.55822069865
659,44.156490975547904
661,0.0
690,142.2614327490997
716,85.44000000000005
843,2748.5268572318637
844,2748.5268572318637
907,0.0
908,0.0
971,0.0
972,0.0
1195,0.0
1197,0.0
2,4, 1, 9, 0, 8, 0.00,60.00,Thursday
7,3.3
718,19.617884373821457
719,6.081890190484053
720,16.50350202054249
619,4922.514270110439
633,1416.1744776595503
659,28.008171137306743
661,11.346807459313757
690,133.99631818095241
716,85.44000000000005
843,2601.8856129450705
844,2601.8856129450705
907,0.0
908,0.0
971,0.0
972,0.0
1195,0.0
1197,0.0
2,4, 1, 9, 0, 9, 0.00,60.00,Thursday
7,5.6
718,19.770914957587426
719,7.383565459755909
720,16.449257501184377
619,3162.0530082436558
633,849.1926199425424
659,0.0
661,97.80602715450127
690,72.6913049766162
716,41.09906373587095
843,1949.0158715368434
844,1949.0158715368434
907,0.0
908,0.0
971,0.0
972,0.0
1195,0.0
1197,0.0
2,4, 1, 9, 0,10, 0.00,60.00,Thursday
7,5.0
718,19.62772529046952
719,8.051921184200472
720,16.39801982842619
619,2147.25324247174
633,644.4920049344701
659,0.029660456350398334
661,118.43574397358306
690,58.017131026163845
716,0.0
843,1624.6854707491311
844,1624.6854707491311
907,0.0
908,0.0
971,0.0
972,0.0
1195,0.0
1197,0.0
2,4, 1, 9, 0,11, 0.00,60.00,Thursday
7,5.6
718,19.865352299562417
719,8.948076699175031
720,16.357137963945764
619,1815.229130821372
633,499.58811043335265
659,0.0
661,139.89185411412709
690,42.75535476808092
716,0.0
843,1412.6617286173841
844,1412.6617286173841
907,0.0
908,0.0
971,0.0
972,0.0
1195,0.0
1197,0.0
2,4, 1, 9, 0,12, 0.00,60.00,Thursday
7,5.6
718,19.821388183239854
719,9.517649250951871
720,16.33319384910938
619,1359.9429286142915
633,379.5127855275621
659,0.0
661,154.54450984245116
690,32.33281578062749
716,0.0
843,1054.6086989552914
844,1054.6086989552914
907,0.0
908,0.0
971,0.0
972,0.0
1195,0.0
1197,0.0
2,4, 1, 9, 0,13, 0.00,60.00,Thursday
7,6.1
718,19.84704002711604
719,10.798793822924257
720,16.31767616869356
619,1009.7626169682447
633,281.2773691212974
659,0.0
661,166.45701658599828
690,23.859364395775867
716,0.0
843,795.9450902142089
844,795.9450902142089
907,0.0
908,0.0
971,0.0
972,0.0
1195,0.0
1197,0.0
2,4, 1, 9, 0,14, 0.00,60.00,Thursday
7,5.6
718,19.767442920236896
719,11.446675417404112
720,16.310130758726082
619,695.4503701797723
633,196.40490604069728
659,0.0
661,176.46901454812976
690,16.73775852190639
716,0.0
843,545.1369141310315
844,545.1369141310315
907,0.0
908,0.0
971,0.0
972,0.0
1195,0.0
1197,0.0
2,4, 1, 9, 0,15, 0.00,60.00,Thursday
7,3.9
718,19.50767693863952
719,10.6326999374184
720,16.313316568228633
619,666.6809887029744
633,210.09932769691363
659,0.9160330849328984
661,172.94969844404173
690,19.235883316223447
716,0.0
843,529.9480476551489
844,529.9480476551489
907,0.0
908,0.0
971,0.0
972,0.0
1195,0.0
1197,0.0
2,4, 1, 9, 0,16, 0.00,60.00,Thursday
7,2.8
718,19.534080645624154
719,9.05926495623692
720,16.325402220581857
619,1132.5062951928223
633,357.85883268460793
659,15.35430527579316
661,150.58482269365606
690,35.02409645118661
716,0.0
843,883.0996377325973
844,883.0996377325973
907,0.0
908,0.0
971,0.0
972,0.0
1195,0.0
1197,0.0
2,4, 1, 9, 0,17, 0.00,60.00,Thursday
7,2.2
718,19.552787233248313
719,7.939367619425041
720,16.34289338341907
619,2273.37136375479
633,706.5315952769488
659,33.55412304502821
661,101.34044982423276
690,69.85977210860442
716,71.53798318248096
843,960.7376147791529
844,960.7376147791529
907,0.0
908,0.0
971,0.0
972,0.0
1195,0.0
1197,0.0
2,4, 1, 9, 0,18, 0.00,60.00,Thursday
7,2.2
718,19.928669180409692
719,6.393371736441887
720,16.331932201371163
619,1211.4378339183465
633,386.6802966609377
659,20.74985998579191
661,145.5786941535485
690,38.512372137634735
716,0.0
843,918.6942430874324
844,918.6942430874324
907,0.0
908,0.0
971,0.0
972,0.0
1195,0.0
1197,0.0
2,4, 1, 9, 0,19, 0.00,60.00,Thursday
7,2.2
718,19.63462327187028
719,5.678622665200186
720,16.34462488278796
619,2396.85232417152
633,749.8153525360719
659,39.93575455244087
661,95.22115074919657
690,74.14842822797691
716,85.44000000000005
843,692.4402936364258
844,692.4402936364258
907,0.0
908,0.0
971,0.0
972,0.0
1195,0.0
1197,0.0
2,4, 1, 9, 0,20, 0.00,60.00,Thursday
7,2.2
718,19.738282045436993
719,4.776205302334831
720,16.30944566591269
619,2042.2230778901783
633,639.6138752398061
659,22.318217187138593
661,112.38558973778501
690,62.11284612169708
716,53.98183069407923
843,859.6409398242222
844,859.6409398242222
907,0.0
908,0.0
971,0.0
972,0.0
1195,0.0
1197,0.0
2,4, 1, 9, 0,21, 0.00,60.00,Thursday
7,2.2
718,19.923974114698407
719,4.1176604219976864
720,16.274975841167382
619,1008.7302921013627
633,324.8091544690281
659,13.321507175515762
661,155.2204566887295
690,31.726849025193342
716,0.0
843,732.6125393786097
844,732.6125393786097
907,0.0
908,0.0
971,0.0
972,0.0
1195,0.0
1197,0.0
2,4, 1, 9, 0,22, 0.00,60.00,Thursday
7,1.7
718,19.608508649672395
719,3.5176902257651332
720,16.242406638703816
619,1137.043255366933
633,369.7493074388942
659,13.904725343802442
661,149.2160298380755
690,35.97801048513302
716,0.0
843,819.4336581161697
844,819.4336581161697
907,0.0
908,0.0
971,0.0
972,0.0
1195,0.0
1197,0.0