Program Version,EnergyPlus, Version 22.2.0-c249759bad, YMD=2023.09.01 14:30
1,5,Environment Title[],Latitude[deg],Longitude[deg],Time Zone[],Elevation[m]
2,8,Day of Simulation[],Month[],Day of Month[],DST Indicator[1=yes 0=no],Hour[],StartMinute[],EndMinute[],DayType
3,5,Cumulative Day of Simulation[],Month[],Day of Month[],DST Indicator[1=yes 0=no],DayType  ! When Daily Report Variables Requested
4,2,Cumulative Days of Simulation[],Month[]  ! When Monthly Report Variables Requested
5,1,Cumulative Days of Simulation[] ! When Run Period Report Variables Requested
6,1,Calendar Year of Simulation[] ! When Annual Report Variables Requested
7,1,Environment,Site Outdoor Air Drybulb Temperature [C] !Hourly
619,1,DX_HEATING_COIL,Heating Coil Heating Rate [W] !Hourly
633,1,DX_HEATING_COIL,Heating Coil Electricity Rate [W] !Hourly
659,1,DX_HEATING_COIL,Heating Coil Defrost Electricity Rate [W] !Hourly
661,1,DX_HEATING_COIL,Heating Coil Crankcase Heater Electricity Rate [W] !Hourly
690,1,FAN,Fan Electricity Rate [W] !Hourly
716,1,HEAT PUMP WATER HEATER FAN,Fan Electricity Rate [W] !Hourly
718,1,LIVING,Zone Mean Air Temperature [C] !Hourly
719,1,ATTIC,Zone Mean Air Temperature [C] !Hourly
720,1,CRAWLSPACE,Zone Mean Air Temperature [C] !Hourly
843,1,LIVING,Zone Predicted Sensible Load to Heating Setpoint Heat Transfer Rate [W] !Hourly
844,1,LIVING,Zone System Predicted Sensible Load to Heating Setpoint Heat Transfer Rate [W] !Hourly
907,1,ATTIC,Zone Predicted Sensible Load to Heating Setpoint Heat Transfer Rate [W] !Hourly
908,1,ATTIC,Zone System Predicted Sensible Load to Heating Setpoint Heat Transfer Rate [W] !Hourly
971,1,CRAWLSPACE,Zone Predicted Sensible Load to Heating Setpoint Heat Transfer Rate [W] !Hourly
972,1,CRAWLSPACE,Zone System Predicted Sensible Load to Heating Setpoint Heat Transfer Rate [W] !Hourly
1195,1,HEATING_RESISTANCE_BACKUP,Heating Coil Heating Rate [W] !Hourly
1197,1,HEATING_RESISTANCE_BACKUP,Heating Coil Electricity Rate [W] !Hourly
End of Data Dictionary
1,EXTREME_WINTER,  36.08,-115.17,  -8.00, 664.50
2,1,12,22, 0, 1, 0.00,60.00,Monday
7,8.3
718,21.986163462346767
719,7.890605796371006
720,20.33220622143021
619,0.0
633,0.0
659,0.0
661,200.0
690,0.0
716,0.0
843,-2239.0967995908486
844,-2239.0967995908486
907,0.0
908,0.0
971,0.0
972,0.0
1195,0.0
1197,0.0
2,1,12,22, 0, 2, 0.00,60.00,Monday
7,8.3
718,21.484084868939405
719,7.833672193328619
720,20.14113992562027
619,0.0
633,0.0
659,0.0
661,200.0
690,0.0
716,0.0
843,-1688.1969799546205
844,-1688.1969799546205
907,0.0
908,0.0
971,0.0
972,0.0
1195,0.0
1197,0.0
2,1,12,22, 0, 3, 0.00,60.00,Monday
7,8.3
718,20.972575535508753
719,7.7513688541203365
720,20.035876838046487
619,0.0
633,0.0
659,0.0
661,200.0
690,0.0
716,0.0
843,-1335.53944055402
844,-1335.53944055402
907,0.0
908,0.0
971,0.0
972,0.0
1195,0.0
1197,0.0
2,1,12,22, 0, 4, 0.00,60.00,Monday
7,8.3
718,20.539087695391512
719,7.747498525422274
720,19.920285046947917
619,0.0
633,0.0
659,0.0
661,200.0
690,0.0
716,0.0
843,-1051.124101382563
844,-1051.124101382563
907,0.0
908,0.0
971,0.0
972,0.0
1195,0.0
1197,0.0
2,1,12,22, 0, 5, 0.00,60.00,Monday
7,8.3
718,20.23106828112461
719,7.772357300692297
720,19.815113877362148
619,0.0
633,0.0
659,0.0
661,200.0
690,0.0
716,0.0
843,-866.9082876619577
844,-866.9082876619577
907,0.0
908,0.0
971,0.0
972,0.0
1195,0.0
1197,0.0
2,1,12,22, 0, 6, 0.00,60.00,Monday
7,8.3
718,20.078963087502004
719,7.6733916292597835
720,19.71541452108758
619,0.0
633,0.0
659,0.0
661,200.0
690,0.0
716,0.0
843,-176.20463991315864
844,-176.20463991315864
907,0.0
908,0.0
971,0.0
972,0.0
1195,0.0
1197,0.0
2,1,12,22, 0, 7, 0.00,60.00,Monday
7,8.9
718,18.712697795619132
719,7.7275582344849285
720,19.621300830092345
619,0.0
633,0.0
659,0.0
661,200.0
690,0.0
716,85.44000000000007
843,-180.0859044376666
844,-180.0859044376666
907,0.0
908,0.0
971,0.0
972,0.0
1195,0.0
1197,0.0
2,1,12,22, 0, 8, 0.00,60.00,Monday
7,9.4
718,19.52197240165445
719,8.705671068838312
720,19.516259123993716
619,953.8377969177982
633,250.59807059936514
659,0.0
661,178.93526641083972
690,22.107113224616022
716,38.46426733437681
843,321.5878315631071
844,321.5878315631071
907,0.0
908,0.0
971,0.0
972,0.0
1195,0.0
1197,0.0
2,1,12,22, 0, 9, 0.00,60.00,Monday
7,10.6
718,19.756879805996938
719,9.660957448927673
720,19.446529954260104
619,265.85144316895486
633,70.70234825423223
659,0.0
661,0.0
690,6.056563904175982
716,0.0
843,221.59147401737664
844,221.59147401737664
907,0.0
908,0.0
971,0.0
972,0.0
1195,0.0
1197,0.0
2,1,12,22, 0,10, 0.00,60.00,Monday
7,12.2
718,20.386498537512384
719,13.263248744292039
720,19.36990613634366
619,0.0
633,0.0
659,0.0
661,0.0
690,0.0
716,0.0
843,-363.57019268119075
844,-363.57019268119075
907,0.0
908,0.0
971,0.0
972,0.0
1195,0.0
1197,0.0
2,1,12,22, 0,11, 0.00,60.00,Monday
7,12.2
718,21.39136504051
719,17.35319502063132
720,19.31249326466714
619,0.0
633,0.0
659,0.0
661,0.0
690,0.0
716,0.0
843,-1282.104507483864
844,-1282.104507483864
907,0.0
908,0.0
971,0.0
972,0.0
1195,0.0
1197,0.0
2,1,12,22, 0,12, 0.00,60.00,Monday
7,14.4
718,22.52726652787008
719,22.560186168099065
720,19.285314068009942
619,0.0
633,0.0
659,0.0
661,0.0
690,0.0
716,0.0
843,-2189.862236332352
844,-2189.862236332352
907,0.0
908,0.0
971,0.0
972,0.0
1195,0.0
1197,0.0
2,1,12,22, 0,13, 0.00,60.00,Monday
7,14.4
718,23.31015973643456
719,25.955221349959228
720,19.29328219724025
619,0.0
633,0.0
659,0.0
661,0.0
690,7.018776061594137
716,0.0
843,-3186.130155059511
844,-3186.130155059511
907,0.0
908,0.0
971,0.0
972,0.0
1195,0.0
1197,0.0
2,1,12,22, 0,14, 0.00,60.00,Monday
7,16.7
718,23.333816509887377
719,26.151260608346984
720,19.322671535792068
619,0.0
633,0.0
659,0.0
661,0.0
690,4.794874635816248
716,63.183126314753935
843,-3632.2834328989593
844,-3632.2834328989593
907,0.0
908,0.0
971,0.0
972,0.0
1195,0.0
1197,0.0
2,1,12,22, 0,15, 0.00,60.00,Monday
7,16.7
718,23.322452271450157
719,24.044578488952418
720,19.428829072943188
619,0.0
633,0.0
659,0.0
661,0.0
690,49.118817211805215
716,0.0
843,-4803.754276481684
844,-4803.754276481684
907,0.0
908,0.0
971,0.0
972,0.0
1195,0.0
1197,0.0
2,1,12,22, 0,16, 0.00,60.00,Monday
7,15.0
718,23.27090519730305
719,22.25336645656432
720,19.505264099557788
619,0.0
633,0.0
659,0.0
661,0.0
690,54.012072577699044
716,0.0
843,-5423.900456093999
844,-5423.900456093999
907,0.0
908,0.0
971,0.0
972,0.0
1195,0.0
1197,0.0
2,1,12,22, 0,17, 0.00,60.00,Monday
7,15.0
718,23.347848056294495
719,19.2484748423553
720,19.57249255815991
619,0.0
633,0.0
659,0.0
661,0.0
690,29.39292006723414
716,0.0
843,-4622.288664530306
844,-4622.288664530306
907,0.0
908,0.0
971,0.0
972,0.0
1195,0.0
1197,0.0
2,1,12,22, 0,18, 0.00,60.00,Monday
7,13.3
718,23.205029937798773
719,16.20755117228996
720,19.635581736686976
619,0.0
633,0.0
659,0.0
661,0.0
690,22.922528229687646
716,0.0
843,-3965.3992778300963
844,-3965.3992778300963
907,0.0
908,0.0
971,0.0
972,0.0
1195,0.0
1197,0.0
2,1,12,22, 0,19, 0.00,60.00,Monday
7,11.7
718,23.060387299626576
719,13.858800837846891
720,19.66162157781217
619,0.0
633,0.0
659,0.0
661,0.0
690,0.0
716,74.48458404215488
843,-3866.8888716536003
844,-3866.8888716536003
907,0.0
908,0.0
971,0.0
972,0.0
1195,0.0
1197,0.0
2,1,12,22, 0,20, 0.00,60.00,Monday
7,10.6
718,22.90778772692986
719,12.012800156549558
720,19.680689128365877
619,0.0
633,0.0
659,0.0
661,0.0
690,0.0
716,67.59166084070304
843,-3720.499705424356
844,-3720.499705424356
907,0.0
908,0.0
971,0.0
972,0.0
1195,0.0
1197,0.0
2,1,12,22, 0,21, 0.00,60.00,Monday
7,10.6
718,23.310768300588027
719,10.98077934694163
720,19.68179990393131
619,0.0
633,0.0
659,0.0
661,0.0
690,10.951066760298529
716,0.0
843,-3501.0533095037063
844,-3501.0533095037063
907,0.0
908,0.0
971,0.0
972,0.0
1195,0.0
1197,0.0
2,1,12,22, 0,22, 0.00,60.00,Monday
7,10.0
718,23.308437043251494
719,10.122903626548164
720,19.65831670107762
619,0.0
633,0.0
659,0.0
661,0.0
690,4.177803879437396
716,0.0
843,-2788.0176713480014
844,-2788.0176713480014
907,0.0
908,0.0
971,0.0
972,0.0
1195,0.0
1197,0.0
2,1,12,22, 0,23, 0.00,60.00,Monday
7,10.0
718,23.075391538319952
719,9.703518037740343
720,19.624609067988494
619,0.0
633,0.0
659,0.0
661,0.0
690,0.0
716,0.0
843,-2958.3747846380593
844,-2958.3747846380593
907,0.0
908,0.0
971,0.0
972,0.0
1195,0.0
1197,0.0
2,1,12,22, 0,24, 0.00,60.00,Monday
7,8.3
718,22.314304406797607
719,8.65902486713561
720,19.58347675556988
619,0.0
633,0.0
659,0.0
661,200.0
690,0.0
716,0.0
843,-2169.3397970011465
844,-2169.3397970011465
907,0.0
908,0.0
971,0.0
972,0.0
1195,0.0
1197,0.0
2,2,12,23, 0, 1, 0.00,60.00,Tuesday
7,7.8
718,21.614012028194168
719,7.832146392422162
720,19.531177428516926
619,0.0
633,0.0
659,0.0
661,200.0
690,0.0
716,0.0
843,-2006.1240774072157
844,-2006.1240774072157
907,0.0
908,0.0
971,0.0
972,0.0
1195,0.0
1197,0.0
2,2,12,23, 0, 2, 0.00,60.00,Tuesday
7,7.2
718,21.17166965875701
719,6.147680444218944
720,19.472717604035523
619,0.0
633,0.0
659,0.0
661,200.0
690,0.0
716,0.0
843,-1724.65061208308
844,-1724.65061208308
907,0.0
908,0.0
971,0.0
972,0.0
1195,0.0
1197,0.0
2,2,12,23, 0, 3, 0.00,60.00,Tuesday
7,7.2
718,20.670158554052346
719,4.811852725986837
720,19.405384369833975
619,0.0
633,0.0
659,0.0
661,200.0
690,0.0
716,0.0
843,-1237.1531411687774
844,-1237.1531411687774
907,0.0
908,0.0
971,0.0
972,0.0
1195,0.0
1197,0.0
2,2,12,23, 0, 4, 0.00,60.00,Tuesday
7,6.7
718,20.065588964810992
719,4.963933221363737
720,19.333254292901714
619,0.0
633,0.0
659,0.0
661,200.0
690,0.0
716,0.0
843,-807.6179054565682
844,-807.6179054565682
907,0.0
908,0.0
971,0.0
972,0.0
1195,0.0
1197,0.0
2,2,12,23, 0, 5, 0.00,60.00,Tuesday
7,6.7
718,19.68217377383678
719,4.919974087756033
720,19.259329620471267
619,0.0
633,0.0
659,0.0
661,200.0
690,0.0
716,0.0
843,-602.439397950101
844,-602.439397950101
907,0.0
908,0.0
971,0.0
972,0.0
1195,0.0
1197,0.0
2,2,12,23, 0, 6, 0.00,60.00,Tuesday
7,6.7
718,19.712779805174055
719,3.792984262729829
720,19.182393889385537
619,125.81910019382892
633,35.37230446319255
659,0.0
661,196.98755281974107
690,3.161516883908233
716,0.0
843,102.49429684633924
844,102.49429684633924
907,0.0
908,0.0
971,0.0
972,0.0
1195,0.0
1197,0.0
2,2,12,23, 0, 7, 0.00,60.00,Tuesday
7,5.6
718,19.602661410750443
719,4.533220399064438
720,19.08077642895937
619,1561.817565485373
633,438.00163113735687
659,0.0
661,162.28254900803148
690,39.583883465415965
716,80.4411127519832
843,244.49093815261585
844,244.49093815261585
907,0.0
908,0.0
971,0.0
972,0.0
1195,0.0
1197,0.0
2,2,12,23, 0, 8, 0.00,60.00,Tuesday
7,7.2
718,19.772830588442066
719,5.396761333289507
720,19.018469500200645
619,1423.8055597106093
633,390.01222328025045
659,0.0
661,166.9059244037997
690,34.731722249062
716,85.44000000000007
843,92.60648584183946
844,92.60648584183946
907,0.0
908,0.0
971,0.0
972,0.0
1195,0.0
1197,0.0
2,2,12,23, 0, 9, 0.00,60.00,Tuesday
7,10.6
718,20.245235764024013
719,9.065710108093336
720,18.970159163322172
619,0.0
633,0.0
659,0.0
661,0.0
690,0.0
716,28.060013290101388
843,-608.4008560725615
844,-608.4008560725615
907,0.0
908,0.0
971,0.0
972,0.0
1195,0.0
1197,0.0
2,2,12,23, 0,10, 0.00,60.00,Tuesday
7,11.7
718,21.95022209592156
719,15.921659113960976
720,18.924118891683136
619,0.0
633,0.0
659,0.0
661,0.0
690,0.0
716,0.0
843,-1506.6179788034915
844,-1506.6179788034915
907,0.0
908,0.0
971,0.0
972,0.0
1195,0.0
1197,0.0
2,2,12,23, 0,11, 0.00,60.00,Tuesday
7,11.7
718,22.806632879978
719,23.06796821188616
720,18.911672798724613
619,0.0
633,0.0
659,0.0
661,0.0
690,0.0
716,0.0
843,-2566.4828604772338
844,-2566.4828604772338
907,0.0
908,0.0
971,0.0
972,0.0
1195,0.0
1197,0.0
2,2,12,23, 0,12, 0.00,60.00,Tuesday
7,14.4
718,23.300051496770646
719,28.397898225055247
720,18.94040859823075
619,0.0
633,0.0
659,0.0
661,0.0
690,13.1885223937193
716,0.0
843,-3395.4347786824983
844,-3395.4347786824983
907,0.0
908,0.0
971,0.0
972,0.0
1195,0.0
1197,0.0
2,2,12,23, 0,13, 0.00,60.00,Tuesday
7,15.6
718,23.253946942934157
719,28.57634627214213
720,19.0006846917756
619,0.0
633,0.0
659,0.0
661,0.0
690,30.762659154742433
716,0.0
843,-3442.3596709044195
844,-3442.3596709044195
907,0.0
908,0.0
971,0.0
972,0.0
1195,0.0
1197,0.0
2,2,12,23, 0,14, 0.00,60.00,Tuesday
7,17.2
718,23.33937334348371
719,27.836099868612003
720,19.101904967309462
619,0.0
633,0.0
659,0.0
661,0.0
690,53.64452032757968
716,0.0
843,-4998.545685218251
844,-4998.545685218251
907,0.0
908,0.0
971,0.0
972,0.0
1195,0.0
1197,0.0
2,2,12,23, 0,15, 0.00,60.00,Tuesday
7,16.7
718,23.312926269888095
719,25.102524451891174
720,19.198355299091425
619,0.0
633,0.0
659,0.0
661,0.0
690,56.72425926505107
716,0.0
843,-5519.931383951996
844,-5519.931383951996
907,0.0
908,0.0
971,0.0
972,0.0
1195,0.0
1197,0.0
2,2,12,23, 0,16, 0.00,60.00,Tuesday
7,15.0
718,23.29028250814354
719,21.355239072786944
720,19.293843996941927
619,0.0
633,0.0
659,0.0
661,0.0
690,51.45586912268015
716,0.0
843,-5441.70360263144
844,-5441.70360263144
907,0.0
908,0.0
971,0.0
972,0.0
1195,0.0
1197,0.0
2,2,12,23, 0,17, 0.00,60.00,Tuesday
7,15.0
718,23.342938204862204
719,18.47362280215735
720,19.371286384390107
619,0.0
633,0.0
659,0.0
661,0.0
690,31.177828649505052
716,0.0
843,-4698.181152892072
844,-4698.181152892072
907,0.0
908,0.0
971,0.0
972,0.0
1195,0.0
1197,0.0
2,2,12,23, 0,18, 0.00,60.00,Tuesday
7,12.8
718,23.37446505451135
719,16.56344376176632
720,19.437517033115974
619,0.0
633,0.0
659,0.0
661,0.0
690,25.50050919198689
716,0.0
843,-4149.207772060396
844,-4149.207772060396
907,0.0
908,0.0
971,0.0
972,0.0
1195,0.0
1197,0.0
2,2,12,23, 0,19, 0.00,60.00,Tuesday
7,12.2
718,23.11342279491722
719,14.435087869446763
720,19.459088685122627
619,0.0
633,0.0
659,0.0
661,0.0
690,0.0
716,82.37991135432796
843,-4054.775615646715
844,-4054.775615646715
907,0.0
908,0.0
971,0.0
972,0.0
1195,0.0
1197,0.0
2,2,12,23, 0,20, 0.00,60.00,Tuesday
7,12.2
718,22.87144927040811
719,13.239979509632077
720,19.48102491910534
619,0.0
633,0.0
659,0.0
661,0.0
690,0.0
716,85.44000000000007
843,-3963.6184590816974
844,-3963.6184590816974
907,0.0
908,0.0
971,0.0
972,0.0
1195,0.0
1197,0.0
2,2,12,23, 0,21, 0.00,60.00,Tuesday
7,11.1
718,23.160980595635316
719,12.07167391409767
720,19.480405555580823
619,0.0
633,0.0
659,0.0
661,0.0
690,0.0
716,31.438730159360848
843,-3567.593058611632
844,-3567.593058611632
907,0.0
908,0.0
971,0.0
972,0.0
1195,0.0
1197,0.0
2,2,12,23, 0,22, 0.00,60.00,Tuesday
7,10.0
718,22.99803863424552
719,10.921501315362343
720,19.46291139371235
619,0.0
633,0.0
659,0.0
661,0.0
690,0.0
716,0.0
843,-2664.0638217906217
844,-2664.0638217906217
907,0.0
908,0.0
971,0.0
972,0.0
1195,0.0
1197,0.0
2,2,12,23, 0,23, 0.00,60.00,Tuesday
7,10.0
718,22.49313794484147
719,10.575259251263947
720,19.434864844044608
619,0.0
633,0.0
659,0.0
661,0.0
690,0.0
716,0.0
843,-3047.4434208199764
844,-3047.4434208199764
907,0.0
908,0.0
971,0.0
972,0.0
1195,0.0
1197,0.0
2,2,12,23, 0,24, 0.00,60.00,Tuesday
7,9.4
718,21.74722602718955
719,10.081879956046384
720,19.393843398693324
619,0.0
633,0.0
659,0.0
661,200.0
690,0.0
716,0.0
843,-2489.9608896773207
844,-2489.9608896773207
907,0.0
908,0.0
971,0.0
972,0.0
1195,0.0
1197,0.0
2,3,12,24, 0, 1, 0.00,60.00,Wednesday
7,8.3
718,21.443506158950115
719,9.045116465899108
720,19.346971971940373
619,0.0
633,0.0
659,0.0
661,200.0
690,0.0
716,0.0
843,-2232.615861014814
844,-2232.615861014814
907,0.0
908,0.0
971,0.0
972,0.0
1195,0.0
1197,0.0
2,3,12,24, 0, 2, 0.00,60.00,Wednesday
7,7.8
718,21.00004613634872
719,8.214627027584735
720,19.289375758768635
619,0.0
633,0.0
659,0.0
661,200.0
690,0.0
716,0.0
843,-1628.2505237069363
844,-1628.2505237069363
907,0.0
908,0.0
971,0.0
972,0.0
1195,0.0
1197,0.0
2,3,12,24, 0, 3, 0.00,60.00,Wednesday
7,6.7
718,20.423362902298866
719,6.728870314589823
720,19.22524925188971
619,0.0
633,0.0
659,0.0
661,200.0
690,0.0
716,0.0
843,-1159.253407437489
844,-1159.253407437489
907,0.0
908,0.0
971,0.0
972,0.0
1195,0.0
1197,0.0
2,3,12,24, 0, 4, 0.00,60.00,Wednesday
7,6.7
718,20.038464457425622
719,5.385783824401216
720,19.157977728209175
619,0.0
633,0.0
659,0.0
661,200.0
690,0.0
716,0.0
843,-903.6603934359609
844,-903.6603934359609
907,0.0
908,0.0
971,0.0
972,0.0
1195,0.0
1197,0.0
2,3,12,24, 0, 5, 0.00,60.00,Wednesday
7,6.7
718,19.69728533860493
719,3.926436780928243
720,19.08674392622342
619,0.0
633,0.0
659,0.0
661,200.0
690,0.0
716,0.0
843,-587.5689593287907
844,-587.5689593287907
907,0.0
908,0.0
971,0.0
972,0.0
1195,0.0
1197,0.0
2,3,12,24, 0, 6, 0.00,60.00,Wednesday
7,5.0
718,19.645381140937467
719,4.475536443820366
720,18.979353548844752
619,1517.2744894173436
633,466.81027068187893
659,0.021440926933165908
661,157.58951129523786
690,44.50907086312192
716,78.38258484481435
843,307.62876471981235
844,307.62876471981235
907,0.0
908,0.0
971,0.0
972,0.0
1195,0.0
1197,0.0
2,3,12,24, 0, 7, 0.00,60.00,Wednesday
7,5.6
718,19.703519210407055
719,4.780459038502246
720,18.911377764784227
619,1803.9089880818026
633,503.3897232483926
659,0.0
661,156.58991269518953
690,45.558217533391904
716,85.44000000000007
843,437.6953585912288
844,437.6953585912288
907,0.0
908,0.0
971,0.0
972,0.0
1195,0.0
1197,0.0
2,3,12,24, 0, 8, 0.00,60.00,Wednesday
7,6.1
718,19.85268561663596
719,5.475009397947249
720,18.85775712931163
619,721.2159432382969
633,202.9701395229966
659,0.0
661,182.60718787147448
690,18.25348824813293
716,37.142255305294405
843,134.6045725415206
844,134.6045725415206
907,0.0
908,0.0
971,0.0
972,0.0
1195,0.0
1197,0.0
2,3,12,24, 0, 9, 0.00,60.00,Wednesday
7,7.8
718,20.46159778482412
719,8.040387543090427
720,18.80125188877673
619,0.0
633,0.0
659,0.0
661,200.0
690,0.0
716,0.0
843,-522.8225200773504
844,-522.8225200773504
907,0.0
908,0.0
971,0.0
972,0.0
1195,0.0
1197,0.0
2,3,12,24, 0,10, 0.00,60.00,Wednesday
7,10.0
718,21.64992528740918
719,12.638124918986035
720,18.756917139081413
619,0.0
633,0.0
659,0.0
661,0.0
690,0.0
716,0.0
843,-1472.5573718052074
844,-1472.5573718052074
907,0.0
908,0.0
971,0.0
972,0.0
1195,0.0
1197,0.0
2,3,12,24, 0,11, 0.00,60.00,Wednesday
7,10.0
718,22.535959497758995
719,16.501980094848975
720,18.742522989381623
619,0.0
633,0.0
659,0.0
661,0.0
690,0.0
716,0.0
843,-2318.7778736982254
844,-2318.7778736982254
907,0.0
908,0.0
971,0.0
972,0.0
1195,0.0
1197,0.0
2,3,12,24, 0,12, 0.00,60.00,Wednesday
7,11.7
718,23.289630029933885
719,19.251020361725438
720,18.755025323221645
619,0.0
633,0.0
659,0.0
661,0.0
690,0.0
716,0.0
843,-2910.439586870949
844,-2910.439586870949
907,0.0
908,0.0
971,0.0
972,0.0
1195,0.0
1197,0.0
2,3,12,24, 0,13, 0.00,60.00,Wednesday
7,13.3
718,23.314933551989185
719,20.94751336527244
720,18.805532161149642
619,0.0
633,0.0
659,0.0
661,0.0
690,16.14403281807021
716,0.0
843,-3389.422248124276
844,-3389.422248124276
907,0.0
908,0.0
971,0.0
972,0.0
1195,0.0
1197,0.0
2,3,12,24, 0,14, 0.00,60.00,Wednesday
7,13.9
718,23.23181368244074
719,20.410499382053345
720,18.885944430706935
619,0.0
633,0.0
659,0.0
661,0.0
690,32.283310236939485
716,0.0
843,-4266.689836527212
844,-4266.689836527212
907,0.0
908,0.0
971,0.0
972,0.0
1195,0.0
1197,0.0
2,3,12,24, 0,15, 0.00,60.00,Wednesday
7,13.3
718,23.295819426030945
719,18.965255025849032
720,18.976539298523782
619,0.0
633,0.0
659,0.0
661,0.0
690,42.5731471455144
716,0.0
843,-5281.326419924837
844,-5281.326419924837
907,0.0
908,0.0
971,0.0
972,0.0
1195,0.0
1197,0.0
2,3,12,24, 0,16, 0.00,60.00,Wednesday
7,12.8
718,23.31635131305868
719,17.30437592351057
720,19.047477669276297
619,0.0
633,0.0
659,0.0
661,0.0
690,15.391810879821485
716,85.44000000000007
843,-5484.14955703813
844,-5484.14955703813
907,0.0
908,0.0
971,0.0
972,0.0
1195,0.0
1197,0.0
2,3,12,24, 0,17, 0.00,60.00,Wednesday
7,12.8
718,23.346580155383254
719,15.143106594349767
720,19.128626767098044
619,0.0
633,0.0
659,0.0
661,0.0
690,1.2692426994646995
716,54.26447306549756
843,-4425.450015695951
844,-4425.450015695951
907,0.0
908,0.0
971,0.0
972,0.0
1195,0.0
1197,0.0
2,3,12,24, 0,18, 0.00,60.00,Wednesday
7,12.2
718,23.230516651426367
719,13.282159952513874
720,19.203858500918873
619,0.0
633,0.0
659,0.0
661,0.0
690,11.024876595289674
716,0.0
843,-3636.321650363825
844,-3636.321650363825
907,0.0
908,0.0
971,0.0
972,0.0
1195,0.0
1197,0.0
2,3,12,24, 0,19, 0.00,60.00,Wednesday
7,11.7
718,22.71339169434489
719,12.272912751161495
720,19.226565377291696
619,0.0
633,0.0
659,0.0
661,0.0
690,6.026015628763266
716,0.0
843,-3419.9340596265356
844,-3419.9340596265356
907,0.0
908,0.0
971,0.0
972,0.0
1195,0.0
1197,0.0
2,3,12,24, 0,20, 0.00,60.00,Wednesday
7,10.6
718,21.922000449817045
719,11.330730243283055
720,19.22750367482076
619,0.0
633,0.0
659,0.0
661,0.0
690,0.0
716,85.44000000000007
843,-2917.296266500247
844,-2917.296266500247
907,0.0
908,0.0
971,0.0
972,0.0
1195,0.0
1197,0.0
2,3,12,24, 0,21, 0.00,60.00,Wednesday
7,10.6
718,22.31297452518717
719,10.77260941465127
720,19.215218947626667
619,0.0
633,0.0
659,0.0
661,0.0
690,0.0
716,38.69873237976046
843,-3014.740556886676
844,-3014.740556886676
907,0.0
908,0.0
971,0.0
972,0.0
1195,0.0
1197,0.0
2,3,12,24, 0,22, 0.00,60.00,Wednesday
7,10.6
718,22.65543907393826
719,10.446866662168652
720,19.181287814840815
619,0.0
633,0.0
659,0.0
661,0.0
690,0.0
716,0.0
843,-2382.6656352917835
844,-2382.6656352917835
907,0.0
908,0.0
971,0.0
972,0.0
1195,0.0
1197,0.0
2,3,12,24, 0,23, 0.00,60.00,Wednesday
7,10.6
718,22.222169288196493
719,10.228952471559433
720,19.136981654601676
619,0.0
633,0.0
659,0.0
661,0.0
690,0.0
716,0.0
843,-2317.7686781983357
844,-2317.7686781983357
907,0.0
908,0.0
971,0.0
972,0.0
1195,0.0
1197,0.0
2,3,12,24, 0,24, 0.00,60.00,Wednesday
7,9.4
718,21.073245054417463
719,9.578495115847748
720,19.08326600091283
619,0.0
633,0.0
659,0.0
661,200.0
690,0.0
716,0.0
843,-1703.5882648643837
844,-1703.5882648643837
907,0.0
908,0.0
971,0.0
972,0.0
1195,0.0
1197,0.0
2,4,12,25, 0, 1, 0.00,60.00,Thursday
7,4.4
718,18.75902658678533
719,6.281178292087012
720,19.012473570287128
619,0.0
633,0.0
659,0.0
661,200.0
690,0.0
716,0.0
843,-134.13971178262364
844,-134.13971178262364
907,0.0
908,0.0
971,0.0
972,0.0
1195,0.0
1197,0.0
2,4,12,25, 0, 2, 0.00,60.00,Thursday
7,3.9
718,18.63224231464517
719,5.731617187457077
720,18.95529492270812
619,0.0
633,0.0
659,0.0
661,200.0
690,0.0
716,0.0
843,-22.2127566172785
844,-22.2127566172785
907,0.0
908,0.0
971,0.0
972,0.0
1195,0.0
1197,0.0
2,4,12,25, 0, 3, 0.00,60.00,Thursday
7,4.4
718,18.66477747884346
719,5.246598176831903
720,18.88095625250023
619,0.0
633,0.0
659,0.0
661,200.0
690,0.0
716,0.0
843,-45.98988421775539
844,-45.98988421775539
907,0.0
908,0.0
971,0.0
972,0.0
1195,0.0
1197,0.0
2,4,12,25, 0, 4, 0.00,60.00,Thursday
7,3.9
718,18.607578686104404
719,5.139321501621762
720,18.779649470734686
619,352.2081473211548
633,110.16584855911445
659,12.81331187129037
661,187.92404732441105
690,12.584967928147439
716,0.0
843,273.37976917231754
844,273.37976917231754
907,0.0
908,0.0
971,0.0
972,0.0
1195,0.0
1197,0.0
2,4,12,25, 0, 5, 0.00,60.00,Thursday
7,3.9
718,18.598923083411805
719,4.825033042460062
720,18.687068520841645
619,493.1717243158992
633,153.62014890567337
659,17.888930154335192
661,183.14051229450698
690,17.57016925934837
716,0.0
843,397.3559393071828
844,397.3559393071828
907,0.0
908,0.0
971,0.0
972,0.0
1195,0.0
1197,0.0
2,4,12,25, 0, 6, 0.00,60.00,Thursday
7,3.3
718,19.559905431330023
719,4.597574341560662
720,18.572717549058808
619,1473.6161773129008
633,454.06037679601087
659,16.841498208277077
661,154.83262677261413
690,47.27622686253561
716,0.0
843,1179.0648628880735
844,1179.0648628880735
907,0.0
908,0.0
971,0.0
972,0.0
1195,0.0
1197,0.0
2,4,12,25, 0, 7, 0.00,60.00,Thursday
7,3.3
718,19.61125750658723
719,4.439243379327824
720,18.470632114268618
619,3105.863407775219
633,952.8499041144811
659,34.6536558168976
661,106.96554421737207
690,97.37734303311238
716,85.44000000000007
843,1335.2476130368977
844,1335.2476130368977
907,0.0
908,0.0
971,0.0
972,0.0
1195,0.0
1197,0.0
2,4,12,25, 0, 8, 0.00,60.00,Thursday
7,4.4
718,19.732766165513457
719,4.896488564038349
720,18.418457947703313
619,2225.114665696424
633,681.4311831631197
659,17.566526482209387
661,135.18456335057616
690,67.93151454583177
716,85.44000000000007
843,653.0920060740427
844,653.0920060740427
907,0.0
908,0.0
971,0.0
972,0.0
1195,0.0
1197,0.0
2,4,12,25, 0, 9, 0.00,60.00,Thursday
7,5.6
718,19.77412410218487
719,7.013595451990072
720,18.374941045122057
619,603.3009906816338
633,171.36064459183345
659,0.0
661,185.24278203239467
690,15.487472799469371
716,34.67975880667202
843,69.4996768217843
844,69.4996768217843
907,0.0
908,0.0
971,0.0
972,0.0
1195,0.0
1197,0.0
2,4,12,25, 0,10, 0.00,60.00,Thursday
7,7.2
718,21.120985575286998
719,12.26382124856043
720,18.337862090650244
619,0.0
633,0.0
659,0.0
661,200.0
690,0.0
716,0.0
843,-933.6120583914453
844,-933.6120583914453
907,0.0
908,0.0
971,0.0
972,0.0
1195,0.0
1197,0.0
2,4,12,25, 0,11, 0.00,60.00,Thursday
7,7.2
718,21.88763326090461
719,17.514965078933557
720,18.325797813095416
619,0.0
633,0.0
659,0.0
661,200.0
690,0.0
716,0.0
843,-1782.2239472709498
844,-1782.2239472709498
907,0.0
908,0.0
971,0.0
972,0.0
1195,0.0
1197,0.0
2,4,12,25, 0,12, 0.00,60.00,Thursday
7,9.4
718,22.141012537658543
719,16.44390624133808
720,18.337567892349526
619,0.0
633,0.0
659,0.0
661,200.0
690,0.0
716,0.0
843,-1990.0491439051002
844,-1990.0491439051002
907,0.0
908,0.0
971,0.0
972,0.0
1195,0.0
1197,0.0
2,4,12,25, 0,13, 0.00,60.00,Thursday
7,9.4
718,22.997316249416272
719,17.882900549295922
720,18.37449967191255
619,0.0
633,0.0
659,0.0
661,200.0
690,0.0
716,0.0
843,-2567.5268006297974
844,-2567.5268006297974
907,0.0
908,0.0
971,0.0
972,0.0
1195,0.0
1197,0.0
2,4,12,25, 0,14, 0.00,60.00,Thursday
7,9.4
718,23.30531719859282
719,17.487049547378504
720,18.433147898810088
619,0.0
633,0.0
659,0.0
661,190.39233956505686
690,10.083091540652077
716,0.0
843,-3254.181005863731
844,-3254.181005863731
907,0.0
908,0.0
971,0.0
972,0.0
1195,0.0
1197,0.0
2,4,12,25, 0,15, 0.00,60.00,Thursday
7,9.4
718,23.17455845993703
719,15.956062817242184
720,18.52274498014035
619,0.0
633,0.0
659,0.0
661,177.46323668596852
690,23.651985732022137
716,0.0
843,-4125.405276116899
844,-4125.405276116899
907,0.0
908,0.0
971,0.0
972,0.0
1195,0.0
1197,0.0
2,4,12,25, 0,16, 0.00,60.00,Thursday
7,8.3
718,22.9082696443384
719,12.829277327338723
720,18.58577484508094
619,0.0
633,0.0
659,0.0
661,195.4953518485895
690,4.72755880338
716,0.0
843,-3776.6328434778006
844,-3776.6328434778006
907,0.0
908,0.0
971,0.0
972,0.0
1195,0.0
1197,0.0
2,4,12,25, 0,17, 0.00,60.00,Thursday
7,8.3
718,21.812837176434172
719,10.99154655610096
720,18.657426711712723
619,0.0
633,0.0
659,0.0
661,200.0
690,0.0
716,68.89801551869475
843,-2593.718627886272
844,-2593.718627886272
907,0.0
908,0.0
971,0.0
972,0.0
1195,0.0
1197,0.0
2,4,12,25, 0,18, 0.00,60.00,Thursday
7,7.8
718,22.367026830498368
719,9.694314320174914
720,18.7053723556705
619,0.0
633,0.0
659,0.0
661,200.0
690,0.0
716,0.0
843,-2592.738132098504
844,-2592.738132098504
907,0.0
908,0.0
971,0.0
972,0.0
1195,0.0
1197,0.0
2,4,12,25, 0,19, 0.00,60.00,Thursday
7,7.2
718,21.286906235085322
719,8.740506593060832
720,18.71488006560827
619,0.0
633,0.0
659,0.0
661,200.0
690,0.0
716,85.44000000000007
843,-2065.434189749245
844,-2065.434189749245
907,0.0
908,0.0
971,0.0
972,0.0
1195,0.0
1197,0.0
2,4,12,25, 0,20, 0.00,60.00,Thursday
7,6.7
718,20.888799492791502
719,7.940665139234255
720,18.695486669185637
619,0.0
633,0.0
659,0.0
661,200.0
690,0.0
716,57.515766343522635
843,-1753.879032009443
844,-1753.879032009443
907,0.0
908,0.0
971,0.0
972,0.0
1195,0.0
1197,0.0
2,4,12,25, 0,21, 0.00,60.00,Thursday
7,6.1
718,21.315176593482082
719,7.4039256627596854
720,18.66619600018171
619,0.0
633,0.0
659,0.0
661,200.0
690,0.0
716,0.0
843,-1485.4392218034027
844,-1485.4392218034027
907,0.0
908,0.0
971,0.0
972,0.0
1195,0.0
1197,0.0
2,4,12,25, 0,22, 0.00,60.00,Thursday
7,6.1
718,20.494276185384777
719,7.287959984037582
720,18.61569219768052
619,0.0
633,0.0
659,0.0
661,200.0
690,0.0
716,0.0
843,-611.1481578123894
844,-611.1481578123894
907,0.0
908,0.0
971,0.0
972,0.0
1195,0.0
1197,0.0
2,4,12,25, 0,23, 0.00,60.00,Thursday
7,6.1
718,19.866277576981823
719,7.075307397301657
720,18.559673232085665
619,0.0
633,0.0
659,0.0
661,200.0
690,0.0
716,0.0
843,-1113.9193035406297
844,-1113.9193035406297
907,0.0
908,0.0
971,0.0
972,0.0
1195,0.0
1197,0.0
2,4,12,25, 0,24, 0.00,60.00,Thursday
7,5.6
718,18.738921611999306
719,6.502395790845955
720,18.491460421949654
619,0.0
633,0.0
659,0.0
661,200.0
690,0.0
716,0.0
843,-113.67089806796139
844,-113.67089806796139
907,0.0
908,0.0
971,0.0
972,0.0
1195,0.0
1197,0.0
2,5,12,26, 0, 1, 0.00,60.00,Friday
7,5.0
718,18.59372497626288
719,6.082055171434706
720,18.40427696370044
619,736.6186747743908
633,224.12698988081448
659,0.010489860263519939
661,179.2508923887809
690,21.775828028393615
716,0.0
843,603.172984677949
844,603.172984677949
907,0.0
908,0.0
971,0.0
972,0.0
1195,0.0
1197,0.0
2,5,12,26, 0, 2, 0.00,60.00,Friday
7,4.4
718,18.455323380418736
719,5.68734944150288
720,18.309052596559017
619,1365.366124675445
633,413.6489873586671
659,0.01953490920232882
661,161.3596441676046
690,40.55236043200908
716,0.0
843,1102.4751769178165
844,1102.4751769178165
907,0.0
908,0.0
971,0.0
972,0.0
1195,0.0
1197,0.0
2,5,12,26, 0, 3, 0.00,60.00,Friday
7,3.9
718,19.171635462214578
719,5.133128693322738
720,18.223006733367598
619,1685.6057201015515
633,510.25789641979003
659,0.02428471370135408
661,151.96445660488135
690,50.41241805961168
716,0.0
843,1373.7843873959137
844,1373.7843873959137
907,0.0
908,0.0
971,0.0
972,0.0
1195,0.0
1197,0.0
2,5,12,26, 0, 4, 0.00,60.00,Friday
7,3.3
718,18.57623922452299
719,4.602926274242237
720,18.148903931658715
619,1482.812545347674
633,462.40792043600345
659,0.02183001045261907
661,156.81989801040118
690,45.31669537758252
716,0.0
843,1180.1703327717714
844,1180.1703327717714
907,0.0
908,0.0
971,0.0
972,0.0
1195,0.0
1197,0.0
2,5,12,26, 0, 5, 0.00,60.00,Friday
7,3.3
718,18.600270328515123
719,4.4104272005682335
720,18.04638397921258
619,1768.5061668672013
633,541.1288501578719
659,0.025847232045877536
661,148.87377088928898
690,53.6560051018256
716,0.0
843,1424.6699490306437
844,1424.6699490306437
907,0.0
908,0.0
971,0.0
972,0.0
1195,0.0
1197,0.0
2,5,12,26, 0, 6, 0.00,60.00,Friday
7,3.3
718,19.29372061299222
719,4.8314387276933015
720,17.91495616149111
619,4058.007796983318