Program Version,EnergyPlus, Version 22.2.0-c249759bad, YMD=2023.09.01 20:17
1,5,Environment Title[],Latitude[deg],Longitude[deg],Time Zone[],Elevation[m]
2,8,Day of Simulation[],Month[],Day of Month[],DST Indicator[1=yes 0=no],Hour[],StartMinute[],EndMinute[],DayType
3,5,Cumulative Day of Simulation[],Month[],Day of Month[],DST Indicator[1=yes 0=no],DayType  ! When Daily Report Variables Requested
4,2,Cumulative Days of Simulation[],Month[]  ! When Monthly Report Variables Requested
5,1,Cumulative Days of Simulation[] ! When Run Period Report Variables Requested
6,1,Calendar Year of Simulation[] ! When Annual Report Variables Requested
581,11,LIVING,AFN Zone Infiltration Air Change Rate [ach] !RunPeriod [Value,Min,Month,Day,Hour,Minute,Max,Month,Day,Hour,Minute]
582,11,ATTIC,AFN Zone Infiltration Air Change Rate [ach] !RunPeriod [Value,Min,Month,Day,Hour,Minute,Max,Month,Day,Hour,Minute]
583,11,CRAWLSPACE,AFN Zone Infiltration Air Change Rate [ach] !RunPeriod [Value,Min,Month,Day,Hour,Minute,Max,Month,Day,Hour,Minute]
1038,11,Facility,Facility Heating Setpoint Not Met Time [hr] !RunPeriod [Value,Min,Month,Day,Hour,Minute,Max,Month,Day,Hour,Minute]
1039,11,Facility,Facility Cooling Setpoint Not Met Time [hr] !RunPeriod [Value,Min,Month,Day,Hour,Minute,Max,Month,Day,Hour,Minute]
1115,11,DX_HEATING_COIL,Heating Coil Heating Energy [J] !RunPeriod [Value,Min,Month,Day,Hour,Minute,Max,Month,Day,Hour,Minute]
1128,11,DX_HEATING_COIL,Heating Coil Electricity Energy [J] !RunPeriod [Value,Min,Month,Day,Hour,Minute,Max,Month,Day,Hour,Minute]
1153,11,DX_HEATING_COIL,Heating Coil Defrost Electricity Energy [J] !RunPeriod [Value,Min,Month,Day,Hour,Minute,Max,Month,Day,Hour,Minute]
1154,11,DX_HEATING_COIL,Heating Coil Crankcase Heater Electricity Energy [J] !RunPeriod [Value,Min,Month,Day,Hour,Minute,Max,Month,Day,Hour,Minute]
1155,11,HEATING_RESISTANCE_BACKUP,Heating Coil Heating Energy [J] !RunPeriod [Value,Min,Month,Day,Hour,Minute,Max,Month,Day,Hour,Minute]
1156,11,HEATING_RESISTANCE_BACKUP,Heating Coil Electricity Energy [J] !RunPeriod [Value,Min,Month,Day,Hour,Minute,Max,Month,Day,Hour,Minute]
1292,11,WATER HEATER,Water Heater Heat Loss Energy [J] !RunPeriod [Value,Min,Month,Day,Hour,Minute,Max,Month,Day,Hour,Minute]
1306,11,WATER HEATER,Water Heater Heating Energy [J] !RunPeriod [Value,Min,Month,Day,Hour,Minute,Max,Month,Day,Hour,Minute]
1307,11,WATER HEATER,Water Heater Unmet Demand Heat Transfer Energy [J] !RunPeriod [Value,Min,Month,Day,Hour,Minute,Max,Month,Day,Hour,Minute]
1308,11,WATER HEATER,Water Heater Electricity Energy [J] !RunPeriod [Value,Min,Month,Day,Hour,Minute,Max,Month,Day,Hour,Minute]
13,11,Electricity:Facility [J] !RunPeriod [Value,Min,Month,Day,Hour,Minute,Max,Month,Day,Hour,Minute]
1134,11,Heating:Electricity [J] !RunPeriod [Value,Min,Month,Day,Hour,Minute,Max,Month,Day,Hour,Minute]
1096,11,Cooling:Electricity [J] !RunPeriod [Value,Min,Month,Day,Hour,Minute,Max,Month,Day,Hour,Minute]
562,11,Fans:Electricity [J] !RunPeriod [Value,Min,Month,Day,Hour,Minute,Max,Month,Day,Hour,Minute]
1379,11,Pumps:Electricity [J] !RunPeriod [Value,Min,Month,Day,Hour,Minute,Max,Month,Day,Hour,Minute]
1326,11,WaterSystems:Electricity [J] !RunPeriod [Value,Min,Month,Day,Hour,Minute,Max,Month,Day,Hour,Minute]
61,11,InteriorLights:Electricity [J] !RunPeriod [Value,Min,Month,Day,Hour,Minute,Max,Month,Day,Hour,Minute]
1046,11,ExteriorLights:Electricity [J] !RunPeriod [Value,Min,Month,Day,Hour,Minute,Max,Month,Day,Hour,Minute]
134,11,InteriorEquipment:Electricity [J] !RunPeriod [Value,Min,Month,Day,Hour,Minute,Max,Month,Day,Hour,Minute]
170,11,gas_dryer:InteriorEquipment:Electricity [J] !RunPeriod [Value,Min,Month,Day,Hour,Minute,Max,Month,Day,Hour,Minute]
207,11,clotheswasher:InteriorEquipment:Electricity [J] !RunPeriod [Value,Min,Month,Day,Hour,Minute,Max,Month,Day,Hour,Minute]
244,11,dishwasher:InteriorEquipment:Electricity [J] !RunPeriod [Value,Min,Month,Day,Hour,Minute,Max,Month,Day,Hour,Minute]
281,11,refrigerator:InteriorEquipment:Electricity [J] !RunPeriod [Value,Min,Month,Day,Hour,Minute,Max,Month,Day,Hour,Minute]
318,11,electric_mels:InteriorEquipment:Electricity [J] !RunPeriod [Value,Min,Month,Day,Hour,Minute,Max,Month,Day,Hour,Minute]
355,11,NaturalGas:Facility [J] !RunPeriod [Value,Min,Month,Day,Hour,Minute,Max,Month,Day,Hour,Minute]
403,11,InteriorEquipment:NaturalGas [J] !RunPeriod [Value,Min,Month,Day,Hour,Minute,Max,Month,Day,Hour,Minute]
476,11,gas_dryer:InteriorEquipment:NaturalGas [J] !RunPeriod [Value,Min,Month,Day,Hour,Minute,Max,Month,Day,Hour,Minute]
513,11,gas_mels:InteriorEquipment:NaturalGas [J] !RunPeriod [Value,Min,Month,Day,Hour,Minute,Max,Month,Day,Hour,Minute]
End of Data Dictionary
1,EXTREME_WINTER,  42.40, -96.38,  -6.00, 336.00
5,15
1038,16.75,0.0,12,22, 1,15,0.25,12,26, 6,15
1039,0.0,0.0,12,22, 1,15,0.0,12,22, 1,15
581,0.4938732009821103,0.25673491544484406,12,22,16,52,1.1599677082110844, 1, 5,18,55
582,4.958837917298646,0.0, 1, 1, 1,50,21.816826548420607, 1, 5,18,50
583,0.0733276403837929,0.0006777141933031251, 1, 3,23, 5,0.09205275486656662, 1, 5,18,50
1115,4633514053.630446,0.0,12,22,15,45,4788740.367507039, 1, 2,14,60
1128,1801257397.7446263,0.0,12,22,15,45,1437473.801868125, 1, 5,19,15
1153,29094825.33101578,0.0,12,22,15,45,83834.711550097, 1, 3, 2,30
1154,17309945.96138025,0.0,12,22, 1,30,180000.0,12,22,15,45
1155,4442714270.870874,0.0,12,22, 1,15,7786401.26757263,12,27, 6,15
1156,4442714270.870874,0.0,12,22, 1,15,7786401.26757263,12,27, 6,15
1292,-54528053.50316406,-41432.86111189805,12,31, 5,30,-5175.143316508924, 1, 5,12,12
1306,296318054.70076025,0.0,12,22, 1,15,4050000.0,12,25, 8,30
1307,62727092.37183117,0.0,12,22, 1,15,8043011.8333429815, 1, 5, 6,60
1308,296318054.70076025,0.0,12,22, 1,15,4050000.0,12,25, 8,30
13,7574997524.136786,452017.0388981225,12,22,15,45,13989460.177747764,12,30, 7,30
61,646981127.1939323,88139.10953165221,12,22, 1,15,1282023.4113694867,12,22,20,15
134,151290040.75163814,63564.01800854099,12,22, 4,15,156554.22484006523,12,27,20,15
170,11185820.069951689,348.4159749238097,12,22, 4,15,17476.39704006126,12,27,12,15
207,13893028.5742839,815.2532113832032,12,22, 3,15,22990.642799023623,12,27,10,15
244,27284301.07562584,1521.856143006317,12,22, 4,15,53038.631142310165,12,27,20,15
281,98926891.03177746,59938.60262432081,12,22, 5,15,81951.81706819107,12,22,19,15
318,0.0,0.0,12,22, 1,15,0.0,12,22, 1,15
355,422701517.16107386,18561.32405820678,12,22, 4,15,724774.895203776,12,27,18,15
403,422701517.16107386,18561.32405820678,12,22, 4,15,724774.895203776,12,27,18,15
476,227882097.80545202,7098.072629279515,12,22, 4,15,356036.3026282215,12,27,12,15
513,0.0,0.0,12,22, 1,15,0.0,12,22, 1,15
562,190031861.58256608,0.0,12,22,15,45,141532.56725435393,12,22, 1,30
1046,0.0,0.0,12,22, 1,15,0.0,12,22, 1,15
1096,0.0,0.0,12,22, 1,15,0.0,12,22, 1,15
1134,6290376439.907892,180000.0,12,22,15,45,9103666.065277122,12,30, 7,45
1326,296318054.7007602,0.0,12,22, 1,15,4050000.0,12,22, 7,15
1379,0.0,0.0,12,22, 1,15,0.0,12,22, 1,15
1,EXTREME_SUMMER,  42.40, -96.38,  -6.00, 336.00
5,7
1038,0.0,0.0, 7,27, 1,15,0.0, 7,27, 1,15
1039,19.0,0.0, 7,27, 1,15,0.25, 7,27,16,30
581,0.1655936973626005,0.0, 7,30,23, 3,0.49161359200775, 8, 2,11,60
582,3.604057844669799,0.04893904473332194, 7,28,21,52,10.823830607424398, 7,29,17,60
583,0.0360935432082398,0.000042668053709361515, 7,30,23, 3,0.07550884156521528, 8, 1,15,52
1115,0.0,0.0, 7,27, 1,15,0.0, 7,27, 1,15
1128,0.0,0.0, 7,27, 1,15,0.0, 7,27, 1,15
1153,0.0,0.0, 7,27, 1,15,0.0, 7,27, 1,15
1154,0.0,0.0, 7,27, 1,15,0.0, 7,27, 1,15
1155,0.0,0.0, 7,27, 1,15,0.0, 7,27, 1,15
1156,0.0,0.0, 7,27, 1,15,0.0, 7,27, 1,15
1292,-22030922.200722706,-34345.33075752851, 8, 1, 6,45,-2246.1853995639267, 7,30,11,45
1306,101158709.54102,0.0, 7,27, 1,15,3849002.0432523903, 7,30, 8,30
1307,13466679.00707353,0.0, 7,27, 1,15,4779708.39847798, 7,27, 6,60
1308,101158709.54102,0.0, 7,27, 1,15,3849002.0432523903, 7,30, 8,30
13,1011073086.8845923,151703.1275401932, 7,29, 4,15,5584159.095148758, 7,27,19,30
61,301924526.02383536,88139.10953165221, 7,27, 1,15,1282023.4113694867, 7,27,20,15
134,70666020.44019976,63564.01800854099, 7,27, 4,15,156554.22484006523, 8, 1,20,15
170,5241013.419656067,348.4159749238097, 7,27, 4,15,17476.39704006126, 8, 1,12,15
207,6509451.13922267,815.2532113832032, 7,27, 3,15,22990.642799023623, 8, 1,10,15
244,12749673.399825225,1521.856143006317, 7,27, 4,15,53038.631142310165, 8, 1,20,15
281,46165882.481495745,59938.60262432081, 7,27, 5,15,81951.81706819107, 7,27,19,15
318,0.0,0.0, 7,27, 1,15,0.0, 7,27, 1,15
355,197687796.27748066,18561.32405820678, 7,27, 4,15,724774.895203776, 8, 1,18,15
403,197687796.27748066,18561.32405820678, 7,27, 4,15,724774.895203776, 8, 1,18,15
476,106772067.24485716,7098.072629279515, 7,27, 4,15,356036.3026282215, 8, 1,12,15
513,0.0,0.0, 7,27, 1,15,0.0, 7,27, 1,15
562,46867819.33238619,0.0, 7,29, 3,45,141532.56725435393, 7,27,15,45
1046,0.0,0.0, 7,27, 1,15,0.0, 7,27, 1,15
1096,490456011.5471511,0.0, 7,29, 3,45,1770204.5122888905, 8, 1,16,60
1134,0.0,0.0, 7,27, 1,15,0.0, 7,27, 1,15
1326,101158709.54102002,0.0, 7,27, 1,15,4050000.0, 7,27, 7,15
1379,0.0,0.0, 7,27, 1,15,0.0, 7,27, 1,15
1,ANNUAL,  42.40, -96.38,  -6.00, 336.00
5,365
1038,36.75,0.0, 1, 1, 1,15,0.25, 1,13, 6,15
1039,106.0,0.0, 1, 1, 1,15,0.25, 2,24,16,30
581,0.3248861948611195,0.0, 7, 4,23, 3,1.364766293426838,12,13,10,60
582,5.112137244562069,0.0, 1, 9, 1,30,27.11340182078897,12, 4,16,50
583,0.03402837186230806,0.0, 7,16,23, 3,0.10049839867100246, 4,13,15,60
1115,39961537054.90042,0.0, 1, 1,23, 3,5249998.211552899,12,10, 6,45
1128,13479346429.74072,0.0, 1, 1,23, 3,1556537.8048934878,10,28, 6,45
1153,416019581.6879278,0.0, 1, 1,23, 3,153506.7324503995, 1,28, 6,45
1154,1310141029.3416631,0.0, 1, 1, 1,15,180000.0, 1, 9,14,60
1155,13932966954.1473,0.0, 1, 1,15,35,7786401.26757263, 1,21, 6,45
1156,13932966954.1473,0.0, 1, 1,15,35,7786401.26757263, 1,21, 6,45
1292,-1240034737.6348488,-41165.74812932865,12,31, 6,60,-2210.0982791701435, 7,30,11,45
1306,6251642431.792641,0.0, 1, 1, 1,15,4050000.0, 1, 2, 7,30
1307,1122369308.8472798,0.0, 1, 1, 1,15,8465908.076796409, 2,13, 6,60
1308,6251642431.792641,0.0, 1, 1, 1,15,4050000.0, 1, 2, 7,30
13,64362510727.10822,151703.1275401932, 3,17, 4,15,13727218.136457602,12,27, 8,60
61,15743207428.383959,88139.10953165221, 1, 1, 1,15,1282023.4113694867, 1, 1,20,15
134,3685071073.4325233,63564.01800854099, 1, 2, 4,15,156554.22484006523, 1, 1,20,15
170,273393721.45532674,348.4159749238097, 1, 2, 4,15,17476.39704006126, 1, 1,12,15
207,339560869.0695816,815.2532113832032, 1, 2, 3,15,22990.642799023623, 1, 1,10,15
244,664895467.8009144,1521.856143006317, 1, 2, 4,15,53038.631142310165, 1, 1,20,15
281,2407221015.106824,59938.60262432081, 1, 1, 5,15,81951.81706819107, 1, 1,19,15
318,0.0,0.0, 1, 1, 1,15,0.0, 1, 1, 1,15
355,10310294493.051695,18561.32405820678, 1, 2, 4,15,724774.895203776, 1, 1,18,15
403,10310294493.051695,18561.32405820678, 1, 2, 4,15,724774.895203776, 1, 1,18,15
476,5569688622.066177,7098.072629279515, 1, 2, 4,15,356036.3026282215, 1, 1,12,15
513,0.0,0.0, 1, 1, 1,15,0.0, 1, 1, 1,15
562,2119005684.1545024,0.0, 1, 9,14,60,141532.56725435393, 1, 1, 1,15
1046,0.0,0.0, 1, 1, 1,15,0.0, 1, 1, 1,15
1096,7425110114.425541,0.0, 1, 1, 1,15,1772013.421851413, 8, 1,16,60
1134,29138473994.917885,0.0, 1,18,14,45,9105988.181020744, 3,11, 7,60
1326,6251642431.792634,0.0, 1, 1, 1,15,4050000.0, 1, 1,14,15
1379,0.0,0.0, 1, 1, 1,15,0.0, 1, 1, 1,15
End of Data
 Number of Records Written=          99
