Program Version,EnergyPlus, Version 22.2.0-c249759bad, YMD=2023.09.01 20:18
1,5,Environment Title[],Latitude[deg],Longitude[deg],Time Zone[],Elevation[m]
2,8,Day of Simulation[],Month[],Day of Month[],DST Indicator[1=yes 0=no],Hour[],StartMinute[],EndMinute[],DayType
3,5,Cumulative Day of Simulation[],Month[],Day of Month[],DST Indicator[1=yes 0=no],DayType  ! When Daily Report Variables Requested
4,2,Cumulative Days of Simulation[],Month[]  ! When Monthly Report Variables Requested
5,1,Cumulative Days of Simulation[] ! When Run Period Report Variables Requested
6,1,Calendar Year of Simulation[] ! When Annual Report Variables Requested
581,11,LIVING,AFN Zone Infiltration Air Change Rate [ach] !RunPeriod [Value,Min,Month,Day,Hour,Minute,Max,Month,Day,Hour,Minute]
582,11,ATTIC,AFN Zone Infiltration Air Change Rate [ach] !RunPeriod [Value,Min,Month,Day,Hour,Minute,Max,Month,Day,Hour,Minute]
583,11,CRAWLSPACE,AFN Zone Infiltration Air Change Rate [ach] !RunPeriod [Value,Min,Month,Day,Hour,Minute,Max,Month,Day,Hour,Minute]
1038,11,Facility,Facility Heating Setpoint Not Met Time [hr] !RunPeriod [Value,Min,Month,Day,Hour,Minute,Max,Month,Day,Hour,Minute]
1039,11,Facility,Facility Cooling Setpoint Not Met Time [hr] !RunPeriod [Value,Min,Month,Day,Hour,Minute,Max,Month,Day,Hour,Minute]
1115,11,DX_HEATING_COIL,Heating Coil Heating Energy [J] !RunPeriod [Value,Min,Month,Day,Hour,Minute,Max,Month,Day,Hour,Minute]
1128,11,DX_HEATING_COIL,Heating Coil Electricity Energy [J] !RunPeriod [Value,Min,Month,Day,Hour,Minute,Max,Month,Day,Hour,Minute]
1153,11,DX_HEATING_COIL,Heating Coil Defrost Electricity Energy [J] !RunPeriod [Value,Min,Month,Day,Hour,Minute,Max,Month,Day,Hour,Minute]
1154,11,DX_HEATING_COIL,Heating Coil Crankcase Heater Electricity Energy [J] !RunPeriod [Value,Min,Month,Day,Hour,Minute,Max,Month,Day,Hour,Minute]
1155,11,HEATING_RESISTANCE_BACKUP,Heating Coil Heating Energy [J] !RunPeriod [Value,Min,Month,Day,Hour,Minute,Max,Month,Day,Hour,Minute]
1156,11,HEATING_RESISTANCE_BACKUP,Heating Coil Electricity Energy [J] !RunPeriod [Value,Min,Month,Day,Hour,Minute,Max,Month,Day,Hour,Minute]
1292,11,WATER HEATER,Water Heater Heat Loss Energy [J] !RunPeriod [Value,Min,Month,Day,Hour,Minute,Max,Month,Day,Hour,Minute]
1306,11,WATER HEATER,Water Heater Heating Energy [J] !RunPeriod [Value,Min,Month,Day,Hour,Minute,Max,Month,Day,Hour,Minute]
1307,11,WATER HEATER,Water Heater Unmet Demand Heat Transfer Energy [J] !RunPeriod [Value,Min,Month,Day,Hour,Minute,Max,Month,Day,Hour,Minute]
1308,11,WATER HEATER,Water Heater Electricity Energy [J] !RunPeriod [Value,Min,Month,Day,Hour,Minute,Max,Month,Day,Hour,Minute]
13,11,Electricity:Facility [J] !RunPeriod [Value,Min,Month,Day,Hour,Minute,Max,Month,Day,Hour,Minute]
1134,11,Heating:Electricity [J] !RunPeriod [Value,Min,Month,Day,Hour,Minute,Max,Month,Day,Hour,Minute]
1096,11,Cooling:Electricity [J] !RunPeriod [Value,Min,Month,Day,Hour,Minute,Max,Month,Day,Hour,Minute]
562,11,Fans:Electricity [J] !RunPeriod [Value,Min,Month,Day,Hour,Minute,Max,Month,Day,Hour,Minute]
1379,11,Pumps:Electricity [J] !RunPeriod [Value,Min,Month,Day,Hour,Minute,Max,Month,Day,Hour,Minute]
1326,11,WaterSystems:Electricity [J] !RunPeriod [Value,Min,Month,Day,Hour,Minute,Max,Month,Day,Hour,Minute]
61,11,InteriorLights:Electricity [J] !RunPeriod [Value,Min,Month,Day,Hour,Minute,Max,Month,Day,Hour,Minute]
1046,11,ExteriorLights:Electricity [J] !RunPeriod [Value,Min,Month,Day,Hour,Minute,Max,Month,Day,Hour,Minute]
134,11,InteriorEquipment:Electricity [J] !RunPeriod [Value,Min,Month,Day,Hour,Minute,Max,Month,Day,Hour,Minute]
170,11,gas_dryer:InteriorEquipment:Electricity [J] !RunPeriod [Value,Min,Month,Day,Hour,Minute,Max,Month,Day,Hour,Minute]
207,11,clotheswasher:InteriorEquipment:Electricity [J] !RunPeriod [Value,Min,Month,Day,Hour,Minute,Max,Month,Day,Hour,Minute]
244,11,dishwasher:InteriorEquipment:Electricity [J] !RunPeriod [Value,Min,Month,Day,Hour,Minute,Max,Month,Day,Hour,Minute]
281,11,refrigerator:InteriorEquipment:Electricity [J] !RunPeriod [Value,Min,Month,Day,Hour,Minute,Max,Month,Day,Hour,Minute]
318,11,electric_mels:InteriorEquipment:Electricity [J] !RunPeriod [Value,Min,Month,Day,Hour,Minute,Max,Month,Day,Hour,Minute]
355,11,NaturalGas:Facility [J] !RunPeriod [Value,Min,Month,Day,Hour,Minute,Max,Month,Day,Hour,Minute]
403,11,InteriorEquipment:NaturalGas [J] !RunPeriod [Value,Min,Month,Day,Hour,Minute,Max,Month,Day,Hour,Minute]
476,11,gas_dryer:InteriorEquipment:NaturalGas [J] !RunPeriod [Value,Min,Month,Day,Hour,Minute,Max,Month,Day,Hour,Minute]
513,11,gas_mels:InteriorEquipment:NaturalGas [J] !RunPeriod [Value,Min,Month,Day,Hour,Minute,Max,Month,Day,Hour,Minute]
End of Data Dictionary
1,EXTREME_WINTER,  38.23, -85.66,  -5.00, 166.00
5,7
1038,3.5,0.0, 1, 6, 1,15,0.25, 1, 8, 6,15
1039,0.0,0.0, 1, 6, 1,15,0.0, 1, 6, 1,15
581,0.3876846223729331,0.18109665015483314, 1,11,23,22,0.7351447125653747, 1, 7, 9,60
582,4.183980557166434,0.0, 1, 6, 1,60,12.721338767719754, 1, 7, 9,60
583,0.05681670916188075,0.00039788772437417423, 1,10,18,45,0.08160449202215757, 1, 7, 9,60
1115,1888372014.0688024,0.0, 1, 6,23, 3,4371883.734208056, 1,11, 9,30
1128,647369295.6476599,0.0, 1, 6,23, 3,1329757.6410542582, 1,11, 9,15
1153,8102336.690996068,0.0, 1, 6,23, 3,108447.79440277406, 1,12, 6,60
1154,26966222.128265876,0.0, 1, 6, 6, 5,180000.0, 1,10,15,60
1155,679957802.9267871,0.0, 1, 6, 1,15,5588804.182531695, 1, 8, 6,15
1156,679957802.9267871,0.0, 1, 6, 1,15,5588804.182531695, 1, 8, 6,15
1292,-25406525.399061356,-39776.40442252347, 1, 6, 1,15,-6078.367938737553, 1,10,16,60
1306,123320594.28374447,0.0, 1, 6, 1,15,4050000.0, 1, 6, 7,15
1307,22457819.716883652,0.0, 1, 6, 1,15,6893210.197870299, 1, 6, 6,60
1308,123320594.28374447,0.0, 1, 6, 1,15,4050000.0, 1, 6, 7,15
13,1928560480.820542,452017.0388981225, 1,10,15,60,11438782.777016379, 1, 8, 8,60
61,301924526.02383536,88139.10953165221, 1, 6, 1,15,1282023.4113694867, 1, 6,20,15
134,70666020.44019976,63564.01800854099, 1, 6, 4,15,156554.22484006523, 1,11,20,15
170,5241013.419656067,348.4159749238097, 1, 6, 4,15,17476.39704006126, 1,11,12,15
207,6509451.13922267,815.2532113832032, 1, 6, 3,15,22990.642799023623, 1,11,10,15
244,12749673.399825225,1521.856143006317, 1, 6, 4,15,53038.631142310165, 1,11,20,15
281,46165882.481495745,59938.60262432081, 1, 6, 5,15,81951.81706819107, 1, 6,19,15
318,0.0,0.0, 1, 6, 1,15,0.0, 1, 6, 1,15
355,197687796.27748066,18561.32405820678, 1, 6, 4,15,724774.895203776, 1,11,18,15
403,197687796.27748066,18561.32405820678, 1, 6, 4,15,724774.895203776, 1,11,18,15
476,106772067.24485716,7098.072629279515, 1, 6, 4,15,356036.3026282215, 1,11,12,15
513,0.0,0.0, 1, 6, 1,15,0.0, 1, 6, 1,15
562,70253682.67905258,0.0, 1, 9,16,30,134684.68887022158, 1, 6, 6,30
1046,0.0,0.0, 1, 6, 1,15,0.0, 1, 6, 1,15
1096,0.0,0.0, 1, 6, 1,15,0.0, 1, 6, 1,15
1134,1362395657.3937085,180000.0, 1, 9,16,30,6736070.932783537, 1, 8, 9,15
1326,123320594.28374445,0.0, 1, 6, 1,15,4050000.0, 1, 6, 7,15
1379,0.0,0.0, 1, 6, 1,15,0.0, 1, 6, 1,15
1,EXTREME_SUMMER,  38.23, -85.66,  -5.00, 166.00
5,7
1038,0.0,0.0, 7,13, 1,15,0.0, 7,13, 1,15
1039,42.75,0.0, 7,13, 1,15,0.25, 7,13,18,15
581,0.06123368362582049,0.0, 7,13,20,18,0.25896246375896875, 7,17,13,48
582,1.7653368844712836,0.0, 7,16,21,22,7.242539697036675, 7,14,17,48
583,0.039862896051123094,0.0, 7,13,23, 3,0.06770137213328141, 7,19, 6, 3
1115,0.0,0.0, 7,13, 1,15,0.0, 7,13, 1,15
1128,0.0,0.0, 7,13, 1,15,0.0, 7,13, 1,15
1153,0.0,0.0, 7,13, 1,15,0.0, 7,13, 1,15
1154,0.0,0.0, 7,13, 1,15,0.0, 7,13, 1,15
1155,0.0,0.0, 7,13, 1,15,0.0, 7,13, 1,15
1156,0.0,0.0, 7,13, 1,15,0.0, 7,13, 1,15
1292,-21823593.029368926,-34347.034325498695, 7,15, 7,15,-3089.1847050066567, 7,15, 9, 1
1306,89930012.46730722,0.0, 7,13, 1,15,4050000.0, 7,13, 7,15
1307,8191364.9830765305,0.0, 7,13, 1,15,3548917.841216707, 7,13, 6,60
1308,89930012.46730722,0.0, 7,13, 1,15,4050000.0, 7,13, 7,15
13,1050197980.3627977,178686.09618187087, 7,15, 4,60,6414912.241574332, 7,13,19,30
61,301924526.02383536,88139.10953165221, 7,13, 1,15,1282023.4113694867, 7,13,20,15
134,70666020.44019976,63564.01800854099, 7,13, 4,15,156554.22484006523, 7,18,20,15
170,5241013.419656067,348.4159749238097, 7,13, 4,15,17476.39704006126, 7,18,12,15
207,6509451.13922267,815.2532113832032, 7,13, 3,15,22990.642799023623, 7,18,10,15
244,12749673.399825225,1521.856143006317, 7,13, 4,15,53038.631142310165, 7,18,20,15
281,46165882.481495745,59938.60262432081, 7,13, 5,15,81951.81706819107, 7,13,19,15
318,0.0,0.0, 7,13, 1,15,0.0, 7,13, 1,15
355,197687796.27748066,18561.32405820678, 7,13, 4,15,724774.895203776, 7,18,18,15
403,197687796.27748066,18561.32405820678, 7,13, 4,15,724774.895203776, 7,18,18,15
476,106772067.24485716,7098.072629279515, 7,13, 4,15,356036.3026282215, 7,18,12,15
513,0.0,0.0, 7,13, 1,15,0.0, 7,13, 1,15
562,54902197.73808491,0.0, 7,15, 6,30,134684.6888702216, 7,17,19,60
1046,0.0,0.0, 7,13, 1,15,0.0, 7,13, 1,15
1096,532775223.69337004,0.0, 7,15, 6,30,1498221.9658690738, 7,15,14,60
1134,0.0,0.0, 7,13, 1,15,0.0, 7,13, 1,15
1326,89930012.46730725,0.0, 7,13, 1,15,4050000.0, 7,13, 7,15
1379,0.0,0.0, 7,13, 1,15,0.0, 7,13, 1,15
1,ANNUAL,  38.23, -85.66,  -5.00, 166.00
5,365
1038,11.25,0.0, 1, 1, 1,15,0.25, 1, 2, 6,15
1039,473.5,0.0, 1, 1, 1,15,0.25, 4,14,12,30
581,0.18479488913037487,0.0, 3,22, 8,48,0.9188390916217477,12,23,11,60
582,2.756618093387871,0.0, 1, 2, 6, 5,24.612967062394276,12,23,11,60
583,0.026430519845125837,0.0, 4, 4,23, 5,0.08212652085049987,12,23,11,60
1115,18628792904.276016,0.0, 1, 1,15,37,4496556.35850303, 2,18, 6,45
1128,5771464487.314167,0.0, 1, 1,15,37,1344807.297916609, 2,18, 6,45
1153,195519334.8070392,0.0, 1, 1,15,37,121982.23931470599, 2,22, 6,45
1154,1441235800.1116629,0.0, 1, 1, 4,15,180000.0, 1, 1,16,15
1155,1574483808.3972979,0.0, 1, 1, 1,15,5588804.182531695, 1, 8, 6,15
1156,1574483808.3972979,0.0, 1, 1, 1,15,5588804.182531695, 1, 8, 6,15
1292,-1215464053.4694724,-39777.8686461989,11, 4, 5,15,-2388.6950892779364, 6,21,13,30
1306,5625435359.071597,0.0, 1, 1, 1,15,4050000.0, 1, 2, 7,15
1307,817606662.9923462,0.0, 1, 1, 1,15,7135704.246249674, 2, 6, 6,60
1308,5625435359.071597,0.0, 1, 1, 1,15,4050000.0, 1, 2, 7,15
13,45761768603.11168,151703.1275401932, 1, 4, 4,15,9902628.571994908, 1,10, 7,30
61,15743207428.383959,88139.10953165221, 1, 1, 1,15,1282023.4113694867, 1, 1,20,15
134,3685071073.4325233,63564.01800854099, 1, 2, 4,15,156554.22484006523, 1, 1,20,15
170,273393721.45532674,348.4159749238097, 1, 2, 4,15,17476.39704006126, 1, 1,12,15
207,339560869.0695816,815.2532113832032, 1, 2, 3,15,22990.642799023623, 1, 1,10,15
244,664895467.8009144,1521.856143006317, 1, 2, 4,15,53038.631142310165, 1, 1,20,15
281,2407221015.106824,59938.60262432081, 1, 1, 5,15,81951.81706819107, 1, 1,19,15
318,0.0,0.0, 1, 1, 1,15,0.0, 1, 1, 1,15
355,10310294493.051695,18561.32405820678, 1, 2, 4,15,724774.895203776, 1, 1,18,15
403,10310294493.051695,18561.32405820678, 1, 2, 4,15,724774.895203776, 1, 1,18,15
476,5569688622.066177,7098.072629279515, 1, 2, 4,15,356036.3026282215, 1, 1,12,15
513,0.0,0.0, 1, 1, 1,15,0.0, 1, 1, 1,15
562,1745093786.4424722,0.0, 1, 1,15,45,134684.6888702216, 6, 6,17,60
1046,0.0,0.0, 1, 1, 1,15,0.0, 1, 1, 1,15
1096,9980257525.148922,0.0, 1, 1, 1,15,1499787.6836644735, 7,15,14,60
1134,8982703430.630188,0.0, 1, 3,17,45,6739390.185076818, 1, 8, 9,45
1326,5625435359.071608,0.0, 1, 1, 1,15,4050000.0000000014,10, 7,10,30
1379,0.0,0.0, 1, 1, 1,15,0.0, 1, 1, 1,15
End of Data
 Number of Records Written=          99
