Program Version,EnergyPlus, Version 22.2.0-c249759bad, YMD=2023.09.01 20:18
1,5,Environment Title[],Latitude[deg],Longitude[deg],Time Zone[],Elevation[m]
2,8,Day of Simulation[],Month[],Day of Month[],DST Indicator[1=yes 0=no],Hour[],StartMinute[],EndMinute[],DayType
3,5,Cumulative Day of Simulation[],Month[],Day of Month[],DST Indicator[1=yes 0=no],DayType  ! When Daily Report Variables Requested
4,2,Cumulative Days of Simulation[],Month[]  ! When Monthly Report Variables Requested
5,1,Cumulative Days of Simulation[] ! When Run Period Report Variables Requested
6,1,Calendar Year of Simulation[] ! When Annual Report Variables Requested
581,11,LIVING,AFN Zone Infiltration Air Change Rate [ach] !RunPeriod [Value,Min,Month,Day,Hour,Minute,Max,Month,Day,Hour,Minute]
582,11,ATTIC,AFN Zone Infiltration Air Change Rate [ach] !RunPeriod [Value,Min,Month,Day,Hour,Minute,Max,Month,Day,Hour,Minute]
583,11,CRAWLSPACE,AFN Zone Infiltration Air Change Rate [ach] !RunPeriod [Value,Min,Month,Day,Hour,Minute,Max,Month,Day,Hour,Minute]
1038,11,Facility,Facility Heating Setpoint Not Met Time [hr] !RunPeriod [Value,Min,Month,Day,Hour,Minute,Max,Month,Day,Hour,Minute]
1039,11,Facility,Facility Cooling Setpoint Not Met Time [hr] !RunPeriod [Value,Min,Month,Day,Hour,Minute,Max,Month,Day,Hour,Minute]
1115,11,DX_HEATING_COIL,Heating Coil Heating Energy [J] !RunPeriod [Value,Min,Month,Day,Hour,Minute,Max,Month,Day,Hour,Minute]
1128,11,DX_HEATING_COIL,Heating Coil Electricity Energy [J] !RunPeriod [Value,Min,Month,Day,Hour,Minute,Max,Month,Day,Hour,Minute]
1153,11,DX_HEATING_COIL,Heating Coil Defrost Electricity Energy [J] !RunPeriod [Value,Min,Month,Day,Hour,Minute,Max,Month,Day,Hour,Minute]
1154,11,DX_HEATING_COIL,Heating Coil Crankcase Heater Electricity Energy [J] !RunPeriod [Value,Min,Month,Day,Hour,Minute,Max,Month,Day,Hour,Minute]
1155,11,HEATING_RESISTANCE_BACKUP,Heating Coil Heating Energy [J] !RunPeriod [Value,Min,Month,Day,Hour,Minute,Max,Month,Day,Hour,Minute]
1156,11,HEATING_RESISTANCE_BACKUP,Heating Coil Electricity Energy [J] !RunPeriod [Value,Min,Month,Day,Hour,Minute,Max,Month,Day,Hour,Minute]
1292,11,WATER HEATER,Water Heater Heat Loss Energy [J] !RunPeriod [Value,Min,Month,Day,Hour,Minute,Max,Month,Day,Hour,Minute]
1306,11,WATER HEATER,Water Heater Heating Energy [J] !RunPeriod [Value,Min,Month,Day,Hour,Minute,Max,Month,Day,Hour,Minute]
1307,11,WATER HEATER,Water Heater Unmet Demand Heat Transfer Energy [J] !RunPeriod [Value,Min,Month,Day,Hour,Minute,Max,Month,Day,Hour,Minute]
1308,11,WATER HEATER,Water Heater Electricity Energy [J] !RunPeriod [Value,Min,Month,Day,Hour,Minute,Max,Month,Day,Hour,Minute]
13,11,Electricity:Facility [J] !RunPeriod [Value,Min,Month,Day,Hour,Minute,Max,Month,Day,Hour,Minute]
1134,11,Heating:Electricity [J] !RunPeriod [Value,Min,Month,Day,Hour,Minute,Max,Month,Day,Hour,Minute]
1096,11,Cooling:Electricity [J] !RunPeriod [Value,Min,Month,Day,Hour,Minute,Max,Month,Day,Hour,Minute]
562,11,Fans:Electricity [J] !RunPeriod [Value,Min,Month,Day,Hour,Minute,Max,Month,Day,Hour,Minute]
1379,11,Pumps:Electricity [J] !RunPeriod [Value,Min,Month,Day,Hour,Minute,Max,Month,Day,Hour,Minute]
1326,11,WaterSystems:Electricity [J] !RunPeriod [Value,Min,Month,Day,Hour,Minute,Max,Month,Day,Hour,Minute]
61,11,InteriorLights:Electricity [J] !RunPeriod [Value,Min,Month,Day,Hour,Minute,Max,Month,Day,Hour,Minute]
1046,11,ExteriorLights:Electricity [J] !RunPeriod [Value,Min,Month,Day,Hour,Minute,Max,Month,Day,Hour,Minute]
134,11,InteriorEquipment:Electricity [J] !RunPeriod [Value,Min,Month,Day,Hour,Minute,Max,Month,Day,Hour,Minute]
170,11,gas_dryer:InteriorEquipment:Electricity [J] !RunPeriod [Value,Min,Month,Day,Hour,Minute,Max,Month,Day,Hour,Minute]
207,11,clotheswasher:InteriorEquipment:Electricity [J] !RunPeriod [Value,Min,Month,Day,Hour,Minute,Max,Month,Day,Hour,Minute]
244,11,dishwasher:InteriorEquipment:Electricity [J] !RunPeriod [Value,Min,Month,Day,Hour,Minute,Max,Month,Day,Hour,Minute]
281,11,refrigerator:InteriorEquipment:Electricity [J] !RunPeriod [Value,Min,Month,Day,Hour,Minute,Max,Month,Day,Hour,Minute]
318,11,electric_mels:InteriorEquipment:Electricity [J] !RunPeriod [Value,Min,Month,Day,Hour,Minute,Max,Month,Day,Hour,Minute]
355,11,NaturalGas:Facility [J] !RunPeriod [Value,Min,Month,Day,Hour,Minute,Max,Month,Day,Hour,Minute]
403,11,InteriorEquipment:NaturalGas [J] !RunPeriod [Value,Min,Month,Day,Hour,Minute,Max,Month,Day,Hour,Minute]
476,11,gas_dryer:InteriorEquipment:NaturalGas [J] !RunPeriod [Value,Min,Month,Day,Hour,Minute,Max,Month,Day,Hour,Minute]
513,11,gas_mels:InteriorEquipment:NaturalGas [J] !RunPeriod [Value,Min,Month,Day,Hour,Minute,Max,Month,Day,Hour,Minute]
End of Data Dictionary
1,EXTREME_WINTER,  29.98, -90.25,  -6.00,   1.20
5,7
1038,0.75,0.0, 2, 3, 1,15,0.25, 2, 3, 6,15
1039,0.0,0.0, 2, 3, 1,15,0.0, 2, 3, 1,15
581,0.3334360240322563,0.08474009347100991, 2, 7, 5,60,0.7011153966464756, 2, 7,15,52
582,5.272110418377412,0.0, 2, 5,20,50,17.915151060087453, 2, 7,15,52
583,0.021789786462070235,0.00017018972640771857, 2, 7, 5,60,0.07104673446062575, 2, 5, 4,60
1115,734012735.4379859,0.0, 2, 3,23, 5,3908930.953321506, 2, 5, 4,60
1128,218358313.6906345,0.0, 2, 3,23, 5,1160107.3315078916, 2, 5, 6,60
1153,11904802.538061477,0.0, 2, 3,23, 5,99548.83375578726, 2, 4, 9,60
1154,58501087.85253198,0.0, 2, 3, 6, 7,180000.0, 2, 5,22,45
1155,3017631.3188959532,0.0, 2, 3, 1,15,957791.0769311939, 2, 5, 6, 5
1156,3017631.3188959532,0.0, 2, 3, 1,15,957791.0769311939, 2, 5, 6, 5
1292,-24695611.847798448,-39772.29535883051, 2, 9, 5,15,-5247.187276262512, 2, 6,10,60
1306,104715457.81594767,0.0, 2, 3, 1,15,4050000.0, 2, 3, 7,15
1307,14203703.14864924,0.0, 2, 3, 1,15,4886307.438661286, 2, 3, 6,60
1308,104715457.81594767,0.0, 2, 3, 1,15,4050000.0, 2, 3, 7,15
13,805566036.5291982,151703.1275401932, 2, 7, 4,15,6019173.162885947, 2, 3, 7,15
61,301924526.02383536,88139.10953165221, 2, 3, 1,15,1282023.4113694867, 2, 3,20,15
134,70666020.44019976,63564.01800854099, 2, 3, 4,15,156554.22484006523, 2, 8,20,15
170,5241013.419656067,348.4159749238097, 2, 3, 4,15,17476.39704006126, 2, 8,12,15
207,6509451.13922267,815.2532113832032, 2, 3, 3,15,22990.642799023623, 2, 8,10,15
244,12749673.399825225,1521.856143006317, 2, 3, 4,15,53038.631142310165, 2, 8,20,15
281,46165882.481495745,59938.60262432081, 2, 3, 5,15,81951.81706819107, 2, 3,19,15
318,0.0,0.0, 2, 3, 1,15,0.0, 2, 3, 1,15
355,197687796.27748066,18561.32405820678, 2, 3, 4,15,724774.895203776, 2, 8,18,15
403,197687796.27748066,18561.32405820678, 2, 3, 4,15,724774.895203776, 2, 8,18,15
476,106772067.24485716,7098.072629279515, 2, 3, 4,15,356036.3026282215, 2, 8,12,15
513,0.0,0.0, 2, 3, 1,15,0.0, 2, 3, 1,15
562,24609272.285194416,0.0, 2, 5,12,15,126512.44396716678, 2, 3, 6,15
1046,0.0,0.0, 2, 3, 1,15,0.0, 2, 3, 1,15
1096,11868924.563898321,0.0, 2, 3, 1,15,375945.3099268585, 2, 6,17,30
1134,291781835.4001242,0.0, 2, 6,10,15,2638117.1179734636, 2, 5, 6,15
1326,104715457.81594768,0.0, 2, 3, 1,15,4050000.0, 2, 3, 7,15
1379,0.0,0.0, 2, 3, 1,15,0.0, 2, 3, 1,15
1,EXTREME_SUMMER,  29.98, -90.25,  -6.00,   1.20
5,7
1038,0.0,0.0, 6,22, 1,15,0.0, 6,22, 1,15
1039,57.25,0.0, 6,22, 1,15,0.25, 6,22,15,45
581,0.10192391130067883,0.0, 6,22, 1,15,0.4333301096947991, 6,26,16,47
582,2.950907738452192,0.11765211004076068, 6,25, 7,54,9.326844979715183, 6,26,16,47
583,0.04383507801903008,0.000026809610927314875, 6,22,23, 3,0.06771321082725416, 6,26,16,47
1115,0.0,0.0, 6,22, 1,15,0.0, 6,22, 1,15
1128,0.0,0.0, 6,22, 1,15,0.0, 6,22, 1,15
1153,0.0,0.0, 6,22, 1,15,0.0, 6,22, 1,15
1154,0.0,0.0, 6,22, 1,15,0.0, 6,22, 1,15
1155,0.0,0.0, 6,22, 1,15,0.0, 6,22, 1,15
1156,0.0,0.0, 6,22, 1,15,0.0, 6,22, 1,15
1292,-21731719.927155264,-34348.25983886841, 6,24, 7,15,-4101.000526758928, 6,26,15,30
1306,77614458.938788,0.0, 6,22, 1,15,3268075.2474106573, 6,28,13,60
1307,3202949.6158486838,0.0, 6,22, 1,15,1409289.7849722314, 6,22, 6,60
1308,77614458.938788,0.0, 6,22, 1,15,3268075.2474106573, 6,28,13,60
13,1088520026.6292453,246735.75234671403, 6,22, 4,60,5736047.763673233, 6,22,19,30
61,301924526.02383536,88139.10953165221, 6,22, 1,15,1282023.4113694867, 6,22,20,15
134,70666020.44019976,63564.01800854099, 6,22, 4,15,156554.22484006523, 6,27,20,15
170,5241013.419656067,348.4159749238097, 6,22, 4,15,17476.39704006126, 6,27,12,15
207,6509451.13922267,815.2532113832032, 6,22, 3,15,22990.642799023623, 6,27,10,15
244,12749673.399825225,1521.856143006317, 6,22, 4,15,53038.631142310165, 6,27,20,15
281,46165882.481495745,59938.60262432081, 6,22, 5,15,81951.81706819107, 6,22,19,15
318,0.0,0.0, 6,22, 1,15,0.0, 6,22, 1,15
355,197687796.27748066,18561.32405820678, 6,22, 4,15,724774.895203776, 6,27,18,15
403,197687796.27748066,18561.32405820678, 6,22, 4,15,724774.895203776, 6,27,18,15
476,106772067.24485716,7098.072629279515, 6,22, 4,15,356036.3026282215, 6,27,12,15
513,0.0,0.0, 6,22, 1,15,0.0, 6,22, 1,15
562,59827820.06090832,9693.812331063044, 6,22, 4,60,126512.4439671668, 6,26,15,30
1046,0.0,0.0, 6,22, 1,15,0.0, 6,22, 1,15
1096,578487201.1655128,85338.81247545777, 6,22, 4,60,1365932.6888471572, 6,28,16,60
1134,0.0,0.0, 6,22, 1,15,0.0, 6,22, 1,15
1326,77614458.93878797,0.0, 6,22, 1,15,3597654.8818821283, 6,23, 7,15
1379,0.0,0.0, 6,22, 1,15,0.0, 6,22, 1,15
1,ANNUAL,  29.98, -90.25,  -6.00,   1.20
5,365
1038,4.25,0.0, 1, 1, 1,15,0.25, 1, 6, 6,15
1039,1392.25,0.0, 1, 1, 1,15,0.25, 1,11,14,15
581,0.19581378388858459,0.0, 5, 4,23, 3,1.1796484381823353, 3, 9,15,60
582,3.938551493666549,0.0, 1, 1, 5,45,22.3960001933475, 3, 9,15,60
583,0.030802239665553472,0.0, 6, 2,23, 3,0.07881327578143275, 7,27,17,46
1115,2802537634.279157,0.0, 1, 1, 1,15,4341680.165216523, 2, 3, 6,45
1128,823703986.3594989,0.0, 1, 1, 1,15,1250802.996386313, 2, 3, 6,45
1153,32185204.695655648,0.0, 1, 1, 1,15,105329.51207445323, 2, 4, 9,60
1154,462705577.8375118,0.0, 1, 1, 1,15,180000.0, 1, 5,20,15
1155,16473509.439696446,0.0, 1, 1, 1,15,957791.0769311939, 1,20, 6, 5
1156,16473509.439696446,0.0, 1, 1, 1,15,957791.0769311939, 1,20, 6, 5
1292,-1164283336.4683282,-39773.44712028177, 2, 2, 4,60,-2172.521877870378, 6,30,10,30
1306,4733883839.320671,0.0, 1, 1, 1,15,4050000.0, 1, 2, 6,15
1307,421902243.78872204,0.0, 1, 1, 1,15,5695127.828435236, 1,23, 6,60
1308,4733883839.320671,0.0, 1, 1, 1,15,4050000.0, 1, 2, 6,15
13,44990557742.75418,151703.1275401932, 1, 2, 4,15,6465777.258927074,10,16,19,30
61,15743207428.383959,88139.10953165221, 1, 1, 1,15,1282023.4113694867, 1, 1,20,15
134,3685071073.4325233,63564.01800854099, 1, 2, 4,15,156554.22484006523, 1, 1,20,15
170,273393721.45532674,348.4159749238097, 1, 2, 4,15,17476.39704006126, 1, 1,12,15
207,339560869.0695816,815.2532113832032, 1, 2, 3,15,22990.642799023623, 1, 1,10,15
244,664895467.8009144,1521.856143006317, 1, 2, 4,15,53038.631142310165, 1, 1,20,15
281,2407221015.106824,59938.60262432081, 1, 1, 5,15,81951.81706819107, 1, 1,19,15
318,0.0,0.0, 1, 1, 1,15,0.0, 1, 1, 1,15
355,10310294493.051695,18561.32405820678, 1, 2, 4,15,724774.895203776, 1, 1,18,15
403,10310294493.051695,18561.32405820678, 1, 2, 4,15,724774.895203776, 1, 1,18,15
476,5569688622.066177,7098.072629279515, 1, 2, 4,15,356036.3026282215, 1, 1,12,15
513,0.0,0.0, 1, 1, 1,15,0.0, 1, 1, 1,15
562,2014631476.6921904,0.0, 1, 1, 1,15,126512.44396716681, 7,15,14,45
1046,0.0,0.0, 1, 1, 1,15,0.0, 1, 1, 1,15
1096,17478695646.59006,0.0, 1, 1, 1,15,1383727.1263606925, 7,29,16,60
1134,1335068278.3323576,0.0, 1, 1, 1,15,2795587.1490193326, 2, 5, 6,15
1326,4733883839.3206835,0.0, 1, 1, 1,15,4050000.0, 1, 2, 6,15
1379,0.0,0.0, 1, 1, 1,15,0.0, 1, 1, 1,15
End of Data
 Number of Records Written=          99
