Program Version,EnergyPlus, Version 22.2.0-c249759bad, YMD=2023.09.01 20:26
1,5,Environment Title[],Latitude[deg],Longitude[deg],Time Zone[],Elevation[m]
2,8,Day of Simulation[],Month[],Day of Month[],DST Indicator[1=yes 0=no],Hour[],StartMinute[],EndMinute[],DayType
3,5,Cumulative Day of Simulation[],Month[],Day of Month[],DST Indicator[1=yes 0=no],DayType  ! When Daily Report Variables Requested
4,2,Cumulative Days of Simulation[],Month[]  ! When Monthly Report Variables Requested
5,1,Cumulative Days of Simulation[] ! When Run Period Report Variables Requested
6,1,Calendar Year of Simulation[] ! When Annual Report Variables Requested
581,11,LIVING,AFN Zone Infiltration Air Change Rate [ach] !RunPeriod [Value,Min,Month,Day,Hour,Minute,Max,Month,Day,Hour,Minute]
582,11,ATTIC,AFN Zone Infiltration Air Change Rate [ach] !RunPeriod [Value,Min,Month,Day,Hour,Minute,Max,Month,Day,Hour,Minute]
583,11,CRAWLSPACE,AFN Zone Infiltration Air Change Rate [ach] !RunPeriod [Value,Min,Month,Day,Hour,Minute,Max,Month,Day,Hour,Minute]
1038,11,Facility,Facility Heating Setpoint Not Met Time [hr] !RunPeriod [Value,Min,Month,Day,Hour,Minute,Max,Month,Day,Hour,Minute]
1039,11,Facility,Facility Cooling Setpoint Not Met Time [hr] !RunPeriod [Value,Min,Month,Day,Hour,Minute,Max,Month,Day,Hour,Minute]
1115,11,DX_HEATING_COIL,Heating Coil Heating Energy [J] !RunPeriod [Value,Min,Month,Day,Hour,Minute,Max,Month,Day,Hour,Minute]
1128,11,DX_HEATING_COIL,Heating Coil Electricity Energy [J] !RunPeriod [Value,Min,Month,Day,Hour,Minute,Max,Month,Day,Hour,Minute]
1153,11,DX_HEATING_COIL,Heating Coil Defrost Electricity Energy [J] !RunPeriod [Value,Min,Month,Day,Hour,Minute,Max,Month,Day,Hour,Minute]
1154,11,DX_HEATING_COIL,Heating Coil Crankcase Heater Electricity Energy [J] !RunPeriod [Value,Min,Month,Day,Hour,Minute,Max,Month,Day,Hour,Minute]
1155,11,HEATING_RESISTANCE_BACKUP,Heating Coil Heating Energy [J] !RunPeriod [Value,Min,Month,Day,Hour,Minute,Max,Month,Day,Hour,Minute]
1156,11,HEATING_RESISTANCE_BACKUP,Heating Coil Electricity Energy [J] !RunPeriod [Value,Min,Month,Day,Hour,Minute,Max,Month,Day,Hour,Minute]
1292,11,WATER HEATER,Water Heater Heat Loss Energy [J] !RunPeriod [Value,Min,Month,Day,Hour,Minute,Max,Month,Day,Hour,Minute]
1306,11,WATER HEATER,Water Heater Heating Energy [J] !RunPeriod [Value,Min,Month,Day,Hour,Minute,Max,Month,Day,Hour,Minute]
1307,11,WATER HEATER,Water Heater Unmet Demand Heat Transfer Energy [J] !RunPeriod [Value,Min,Month,Day,Hour,Minute,Max,Month,Day,Hour,Minute]
1308,11,WATER HEATER,Water Heater Electricity Energy [J] !RunPeriod [Value,Min,Month,Day,Hour,Minute,Max,Month,Day,Hour,Minute]
13,11,Electricity:Facility [J] !RunPeriod [Value,Min,Month,Day,Hour,Minute,Max,Month,Day,Hour,Minute]
1134,11,Heating:Electricity [J] !RunPeriod [Value,Min,Month,Day,Hour,Minute,Max,Month,Day,Hour,Minute]
1096,11,Cooling:Electricity [J] !RunPeriod [Value,Min,Month,Day,Hour,Minute,Max,Month,Day,Hour,Minute]
562,11,Fans:Electricity [J] !RunPeriod [Value,Min,Month,Day,Hour,Minute,Max,Month,Day,Hour,Minute]
1379,11,Pumps:Electricity [J] !RunPeriod [Value,Min,Month,Day,Hour,Minute,Max,Month,Day,Hour,Minute]
1326,11,WaterSystems:Electricity [J] !RunPeriod [Value,Min,Month,Day,Hour,Minute,Max,Month,Day,Hour,Minute]
61,11,InteriorLights:Electricity [J] !RunPeriod [Value,Min,Month,Day,Hour,Minute,Max,Month,Day,Hour,Minute]
1046,11,ExteriorLights:Electricity [J] !RunPeriod [Value,Min,Month,Day,Hour,Minute,Max,Month,Day,Hour,Minute]
134,11,InteriorEquipment:Electricity [J] !RunPeriod [Value,Min,Month,Day,Hour,Minute,Max,Month,Day,Hour,Minute]
170,11,gas_dryer:InteriorEquipment:Electricity [J] !RunPeriod [Value,Min,Month,Day,Hour,Minute,Max,Month,Day,Hour,Minute]
207,11,clotheswasher:InteriorEquipment:Electricity [J] !RunPeriod [Value,Min,Month,Day,Hour,Minute,Max,Month,Day,Hour,Minute]
244,11,dishwasher:InteriorEquipment:Electricity [J] !RunPeriod [Value,Min,Month,Day,Hour,Minute,Max,Month,Day,Hour,Minute]
281,11,refrigerator:InteriorEquipment:Electricity [J] !RunPeriod [Value,Min,Month,Day,Hour,Minute,Max,Month,Day,Hour,Minute]
318,11,electric_mels:InteriorEquipment:Electricity [J] !RunPeriod [Value,Min,Month,Day,Hour,Minute,Max,Month,Day,Hour,Minute]
355,11,NaturalGas:Facility [J] !RunPeriod [Value,Min,Month,Day,Hour,Minute,Max,Month,Day,Hour,Minute]
403,11,InteriorEquipment:NaturalGas [J] !RunPeriod [Value,Min,Month,Day,Hour,Minute,Max,Month,Day,Hour,Minute]
476,11,gas_dryer:InteriorEquipment:NaturalGas [J] !RunPeriod [Value,Min,Month,Day,Hour,Minute,Max,Month,Day,Hour,Minute]
513,11,gas_mels:InteriorEquipment:NaturalGas [J] !RunPeriod [Value,Min,Month,Day,Hour,Minute,Max,Month,Day,Hour,Minute]
End of Data Dictionary
1,EXTREME_WINTER,  44.36, -84.67,  -5.00, 351.00
5,7
1038,5.0,0.0,12,15, 1,15,0.25,12,15, 6,15
1039,0.0,0.0,12,15, 1,15,0.0,12,15, 1,15
581,0.46793452586859013,0.2809021684769994,12,21,23, 5,0.7987327651927938,12,21,13,22
582,5.96843718926075,0.17377660191674624,12,18, 9,60,17.935110673073094,12,16,11,60
583,0.06795854643403147,0.0018112886800204899,12,16,23, 5,0.07584022880414308,12,16,11,60
1115,1960042913.672428,0.0,12,16,23, 5,3803472.7351971646,12,21,13,60
1128,727715171.7751029,0.0,12,16,23, 5,1165607.1060624188,12,21,16,15
1153,13168619.95477494,0.0,12,16,23, 5,47187.22817949202,12,21,24,30
1154,663416.8566913018,0.0,12,15, 1,15,60000.0,12,16,23, 5
1155,2024172078.3614483,0.0,12,15,23, 5,6117999.805896637,12,16, 6,45
1156,2024172078.3614483,0.0,12,15,23, 5,6117999.805896637,12,16, 6,45
1292,-25408664.944692526,-39784.59315801555,12,15, 1,15,-8472.47798482474,12,20,10,35
1306,192763391.91526166,0.0,12,15, 1,15,4050000.0,12,15, 8,45
1307,40265061.12131928,0.0,12,15, 1,15,5204505.282659016,12,21, 9,30
1308,192763391.91526166,0.0,12,15, 1,15,4050000.0,12,15, 8,45
13,3414107151.6080317,1379636.4478785994,12,21,23,15,11099878.70786162,12,16, 7,30
61,301924526.02383536,88139.10953165221,12,15, 1,15,1282023.4113694867,12,15,20,15
134,70666020.44019976,63564.01800854099,12,15, 4,15,156554.22484006523,12,20,20,15
170,5241013.419656067,348.4159749238097,12,15, 4,15,17476.39704006126,12,20,12,15
207,6509451.13922267,815.2532113832032,12,15, 3,15,22990.642799023623,12,20,10,15
244,12749673.399825225,1521.856143006317,12,15, 4,15,53038.631142310165,12,20,20,15
281,46165882.481495745,59938.60262432081,12,15, 5,15,81951.81706819107,12,15,19,15
318,0.0,0.0,12,15, 1,15,0.0,12,15, 1,15
355,197687796.27748066,18561.32405820678,12,15, 4,15,724774.895203776,12,20,18,15
403,197687796.27748066,18561.32405820678,12,15, 4,15,724774.895203776,12,20,18,15
476,106772067.24485716,7098.072629279515,12,15, 4,15,356036.3026282215,12,20,12,15
513,0.0,0.0,12,15, 1,15,0.0,12,15, 1,15
562,83033926.28071854,61131.20432015518,12,21,23,15,124267.57234102652,12,15, 1,15
1046,0.0,0.0,12,15, 1,15,0.0,12,15, 1,15
1096,0.0,0.0,12,15, 1,15,0.0,12,15, 1,15
1134,2765719286.948015,666982.9497657449,12,21,23,15,7191649.49205075,12,16, 6,60
1326,192763391.91526172,0.0,12,15, 1,15,4050000.0,12,15, 8,45
1379,0.0,0.0,12,15, 1,15,0.0,12,15, 1,15
1,EXTREME_SUMMER,  44.36, -84.67,  -5.00, 351.00
5,7
1038,0.0,0.0, 7,27, 1,15,0.0, 7,27, 1,15
1039,18.0,0.0, 7,27, 1,15,0.25, 7,29,17,30
581,0.15494860167092017,0.0, 8, 1, 6,15,0.41535164334156655, 7,27,11,60
582,4.046018185992885,0.0, 7,28,22,60,15.972227815766743, 7,27,11,60
583,0.029976609678239573,0.00011805526654119244, 7,29, 7,10,0.0619002539848769, 7,29,20,47
1115,0.0,0.0, 7,27, 1,15,0.0, 7,27, 1,15
1128,0.0,0.0, 7,27, 1,15,0.0, 7,27, 1,15
1153,0.0,0.0, 7,27, 1,15,0.0, 7,27, 1,15
1154,0.0,0.0, 7,27, 1,15,0.0, 7,27, 1,15
1155,0.0,0.0, 7,27, 1,15,0.0, 7,27, 1,15
1156,0.0,0.0, 7,27, 1,15,0.0, 7,27, 1,15
1292,-22057296.08532145,-34489.89880612017, 7,30, 6,15,-2989.228354960268, 7,30,10,31
1306,161217103.38300428,0.0, 7,27, 1,15,3967992.0233236016, 7,28, 7,15
1307,27590101.865534678,0.0, 7,27, 1,15,1858734.4154311514, 7,28, 7,15
1308,161217103.38300428,0.0, 7,27, 1,15,3967992.0233236016, 7,28, 7,15
13,929675041.3594753,151703.1275401932, 7,27, 4,15,6692297.242729742, 8, 1,19,30
61,301924526.02383536,88139.10953165221, 7,27, 1,15,1282023.4113694867, 7,27,20,15
134,70666020.44019976,63564.01800854099, 7,27, 4,15,156554.22484006523, 8, 1,20,15
170,5241013.419656067,348.4159749238097, 7,27, 4,15,17476.39704006126, 8, 1,12,15
207,6509451.13922267,815.2532113832032, 7,27, 3,15,22990.642799023623, 8, 1,10,15
244,12749673.399825225,1521.856143006317, 7,27, 4,15,53038.631142310165, 8, 1,20,15
281,46165882.481495745,59938.60262432081, 7,27, 5,15,81951.81706819107, 7,27,19,15
318,0.0,0.0, 7,27, 1,15,0.0, 7,27, 1,15
355,197687796.27748066,18561.32405820678, 7,27, 4,15,724774.895203776, 8, 1,18,15
403,197687796.27748066,18561.32405820678, 7,27, 4,15,724774.895203776, 8, 1,18,15
476,106772067.24485716,7098.072629279515, 7,27, 4,15,356036.3026282215, 8, 1,12,15
513,0.0,0.0, 7,27, 1,15,0.0, 7,27, 1,15
562,40540039.07498392,0.0, 7,27, 3,30,124267.57234102653, 7,29,19,45
1046,0.0,0.0, 7,27, 1,15,0.0, 7,27, 1,15
1096,355327352.43745166,0.0, 7,27, 3,30,1267796.7187452354, 8, 1,16,60
1134,0.0,0.0, 7,27, 1,15,0.0, 7,27, 1,15
1326,161217103.38300434,0.0, 7,27, 1,15,4050000.0, 7,27, 8,45
1379,0.0,0.0, 7,27, 1,15,0.0, 7,27, 1,15
1,ANNUAL,  44.36, -84.67,  -5.00, 351.00
5,365
1038,69.0,0.0, 1, 1, 1,15,0.25, 1, 4, 6,15
1039,164.75,0.0, 1, 1, 1,15,0.25, 4, 7,15,45
581,0.28352160925601005,0.0, 6,23,23, 3,0.9938154379281989, 2,19,13,52
582,4.243771014064814,0.0, 1, 5,21,60,23.97194810089465,11,23, 7,60
583,0.031174921195508323,0.0, 6,26,23, 3,0.07991317216259446, 2,19,13,52
1115,39238905682.730705,0.0, 1, 1,23, 5,4129838.6333081233, 1,11,10,30
1128,12851334361.57754,0.0, 1, 1,23, 5,1233013.7130666643, 1,11,10,30
1153,510032129.4697205,0.0, 1, 1, 1,48,136621.48500930396, 2,10, 8,45
1154,1441198066.9781983,0.0, 1, 1, 6, 5,180000.0, 1, 2,16,15
1155,14819065795.486286,0.0, 1, 1, 1, 7,6117999.805896637, 1,21, 6,45
1156,14819065795.486286,0.0, 1, 1, 1, 7,6117999.805896637, 1,21, 6,45
1292,-1249318086.5077055,-41844.209105405636, 2, 5, 5,15,-2170.212829920628, 5,20,10,31
1306,9489790173.633389,0.0, 1, 1, 1, 7,4050000.0, 1, 1, 9,45
1307,1875498901.975142,0.0, 1, 1, 1, 7,10974525.761801146, 1,28,10,30
1308,9489790173.633389,0.0, 1, 1, 1, 7,4050000.0, 1, 1, 9,45
13,65613096879.30192,151703.1275401932, 4,18, 4,15,11943627.79678535, 3, 3, 8,45
61,15743207428.383959,88139.10953165221, 1, 1, 1,15,1282023.4113694867, 1, 1,20,15
134,3685071073.4325233,63564.01800854099, 1, 2, 4,15,156554.22484006523, 1, 1,20,15
170,273393721.45532674,348.4159749238097, 1, 2, 4,15,17476.39704006126, 1, 1,12,15
207,339560869.0695816,815.2532113832032, 1, 2, 3,15,22990.642799023623, 1, 1,10,15
244,664895467.8009144,1521.856143006317, 1, 2, 4,15,53038.631142310165, 1, 1,20,15
281,2407221015.106824,59938.60262432081, 1, 1, 5,15,81951.81706819107, 1, 1,19,15
318,0.0,0.0, 1, 1, 1,15,0.0, 1, 1, 1,15
355,10310294493.051695,18561.32405820678, 1, 2, 4,15,724774.895203776, 1, 1,18,15
403,10310294493.051695,18561.32405820678, 1, 2, 4,15,724774.895203776, 1, 1,18,15
476,5569688622.066177,7098.072629279515, 1, 2, 4,15,356036.3026282215, 1, 1,12,15
513,0.0,0.0, 1, 1, 1,15,0.0, 1, 1, 1,15
562,2036701061.644085,0.0, 1, 2,15,45,124267.57234102653, 1,20,11,60
1046,0.0,0.0, 1, 1, 1,15,0.0, 1, 1, 1,15
1096,5036696788.694668,0.0, 1, 1, 1,15,1270589.8326703687, 8, 1,16,60
1134,29621630353.511738,0.0, 2,10,14,30,7217577.671033855,12,15, 6,45
1326,9489790173.63339,0.0, 1, 1, 1,15,4050000.0000000014, 6, 4, 9,45
1379,0.0,0.0, 1, 1, 1,15,0.0, 1, 1, 1,15
End of Data
 Number of Records Written=          99
