Program Version,EnergyPlus, Version 22.2.0-c249759bad, YMD=2023.09.01 14:30
1,5,Environment Title[],Latitude[deg],Longitude[deg],Time Zone[],Elevation[m]
2,8,Day of Simulation[],Month[],Day of Month[],DST Indicator[1=yes 0=no],Hour[],StartMinute[],EndMinute[],DayType
3,5,Cumulative Day of Simulation[],Month[],Day of Month[],DST Indicator[1=yes 0=no],DayType  ! When Daily Report Variables Requested
4,2,Cumulative Days of Simulation[],Month[]  ! When Monthly Report Variables Requested
5,1,Cumulative Days of Simulation[] ! When Run Period Report Variables Requested
6,1,Calendar Year of Simulation[] ! When Annual Report Variables Requested
7,1,Environment,Site Outdoor Air Drybulb Temperature [C] !Hourly
619,1,DX_HEATING_COIL,Heating Coil Heating Rate [W] !Hourly
633,1,DX_HEATING_COIL,Heating Coil Electricity Rate [W] !Hourly
659,1,DX_HEATING_COIL,Heating Coil Defrost Electricity Rate [W] !Hourly
661,1,DX_HEATING_COIL,Heating Coil Crankcase Heater Electricity Rate [W] !Hourly
690,1,FAN,Fan Electricity Rate [W] !Hourly
716,1,HEAT PUMP WATER HEATER FAN,Fan Electricity Rate [W] !Hourly
718,1,LIVING,Zone Mean Air Temperature [C] !Hourly
719,1,ATTIC,Zone Mean Air Temperature [C] !Hourly
720,1,CRAWLSPACE,Zone Mean Air Temperature [C] !Hourly
843,1,LIVING,Zone Predicted Sensible Load to Heating Setpoint Heat Transfer Rate [W] !Hourly
844,1,LIVING,Zone System Predicted Sensible Load to Heating Setpoint Heat Transfer Rate [W] !Hourly
907,1,ATTIC,Zone Predicted Sensible Load to Heating Setpoint Heat Transfer Rate [W] !Hourly
908,1,ATTIC,Zone System Predicted Sensible Load to Heating Setpoint Heat Transfer Rate [W] !Hourly
971,1,CRAWLSPACE,Zone Predicted Sensible Load to Heating Setpoint Heat Transfer Rate [W] !Hourly
972,1,CRAWLSPACE,Zone System Predicted Sensible Load to Heating Setpoint Heat Transfer Rate [W] !Hourly
1195,1,HEATING_RESISTANCE_BACKUP,Heating Coil Heating Rate [W] !Hourly
1197,1,HEATING_RESISTANCE_BACKUP,Heating Coil Electricity Rate [W] !Hourly
End of Data Dictionary
1,EXTREME_WINTER,  35.53, -97.65,  -6.00, 396.00
2,1, 1,29, 0, 1, 0.00,60.00,Monday
7,14.4
718,19.698308246984126
719,9.521152229804253
720,20.16739106196369
619,0.0
633,0.0
659,0.0
661,0.0
690,0.0
716,0.0
843,-843.1242609310812
844,-843.1242609310812
907,0.0
908,0.0
971,0.0
972,0.0
1195,0.0
1197,0.0
2,1, 1,29, 0, 2, 0.00,60.00,Monday
7,12.2
718,19.202079651814294
719,9.946567006453444
720,19.964749856067826
619,0.0
633,0.0
659,0.0
661,0.0
690,0.0
716,0.0
843,-328.5119940534305
844,-328.5119940534305
907,0.0
908,0.0
971,0.0
972,0.0
1195,0.0
1197,0.0
2,1, 1,29, 0, 3, 0.00,60.00,Monday
7,11.1
718,18.80963463212543
719,9.717978950694219
720,19.835864100138576
619,0.0
633,0.0
659,0.0
661,0.0
690,0.0
716,0.0
843,-115.95409297740571
844,-115.95409297740571
907,0.0
908,0.0
971,0.0
972,0.0
1195,0.0
1197,0.0
2,1, 1,29, 0, 4, 0.00,60.00,Monday
7,10.0
718,18.627662198264687
719,8.93950859689939
720,19.709732341035156
619,109.64093781649683
633,28.954357200181434
659,0.0
661,0.0
690,2.530586012251326
716,0.0
843,80.65909230691796
844,80.65909230691796
907,0.0
908,0.0
971,0.0
972,0.0
1195,0.0
1197,0.0
2,1, 1,29, 0, 5, 0.00,60.00,Monday
7,9.4
718,18.502959067146215
719,8.510571994159084
720,19.59372174941869
619,249.86488457203978
633,66.03283983731669
659,0.0
661,192.80512171926014
690,5.833839628609652
716,0.0
843,205.11567219955396
844,205.11567219955396
907,0.0
908,0.0
971,0.0
972,0.0
1195,0.0
1197,0.0
2,1, 1,29, 0, 6, 0.00,60.00,Monday
7,8.3
718,19.40134215780483
719,8.235751851627173
720,19.463179010542444
619,1265.0975462074546
633,332.38811185736444
659,0.0
661,163.21126153566664
690,29.829497034620392
716,0.0
843,1024.9410523448823
844,1024.9410523448823
907,0.0
908,0.0
971,0.0
972,0.0
1195,0.0
1197,0.0
2,1, 1,29, 0, 7, 0.00,60.00,Monday
7,8.3
718,19.5738592673696
719,8.55806485452764
720,19.34971923964993
619,2863.4945432832446
633,748.1556337771426
659,0.0
661,118.5180012539735
690,66.06823559133379
716,85.44000000000005
843,1226.6353895700704
844,1226.6353895700704
907,0.0
908,0.0
971,0.0
972,0.0
1195,0.0
1197,0.0
2,1, 1,29, 0, 8, 0.00,60.00,Monday
7,9.4
718,19.297163323821934
719,9.929772747803883
720,19.25084853225053
619,2848.603658763128
633,737.7019898268717
659,0.0
661,120.93139232449901
690,64.11138018430714
716,60.227510410478416
843,1465.48964117604
844,1465.48964117604
907,0.0
908,0.0
971,0.0
972,0.0
1195,0.0
1197,0.0
2,1, 1,29, 0, 9, 0.00,60.00,Monday
7,7.8
718,19.634872381784316
719,9.336529635415115
720,19.156765169832347
619,2102.358879885011
633,558.0411884290388
659,0.0
661,138.75497845830162
690,49.65944103341674
716,0.0
843,1701.5976010993527
844,1701.5976010993527
907,0.0
908,0.0
971,0.0
972,0.0
1195,0.0
1197,0.0
2,1, 1,29, 0,10, 0.00,60.00,Monday
7,8.9
718,19.762126794823367
719,10.39918247720434
720,19.086884595978475
619,1585.3542954131217
633,421.70324899559427
659,0.0
661,154.58141648248616
690,36.82685405659745
716,0.0
843,1263.8796399465227
844,1263.8796399465227
907,0.0
908,0.0
971,0.0
972,0.0
1195,0.0
1197,0.0
2,1, 1,29, 0,11, 0.00,60.00,Monday
7,10.0
718,20.109751725284674
719,11.742713445198381
720,19.028333914928293
619,849.5906288808009
633,226.27309880925162
659,0.0
661,0.0
690,19.456398293459518
716,0.0
843,689.1601111677119
844,689.1601111677119
907,0.0
908,0.0
971,0.0
972,0.0
1195,0.0
1197,0.0
2,1, 1,29, 0,12, 0.00,60.00,Monday
7,10.0
718,19.969150752173082
719,12.936506596048714
720,18.982167145541847
619,0.0
633,0.0
659,0.0
661,0.0
690,0.0
716,0.0
843,-52.30840390011508
844,-52.30840390011508
907,0.0
908,0.0
971,0.0
972,0.0
1195,0.0
1197,0.0
2,1, 1,29, 0,13, 0.00,60.00,Monday
7,12.2
718,20.304499217689465
719,14.64437662707624
720,18.949431260889664
619,0.0
633,0.0
659,0.0
661,0.0
690,0.0
716,0.0
843,-500.2486687977125
844,-500.2486687977125
907,0.0
908,0.0
971,0.0
972,0.0
1195,0.0
1197,0.0
2,1, 1,29, 0,14, 0.00,60.00,Monday
7,10.6
718,19.56953517242188
719,14.419512773144902
720,18.932896467537738
619,0.0
633,0.0
659,0.0
661,0.0
690,0.0
716,74.07191206541066
843,-633.6354929472418
844,-633.6354929472418
907,0.0
908,0.0
971,0.0
972,0.0
1195,0.0
1197,0.0
2,1, 1,29, 0,15, 0.00,60.00,Monday
7,10.0
718,20.816474941349995
719,14.645209423414704
720,18.930065165857012
619,0.0
633,0.0
659,0.0
661,0.0
690,0.0
716,0.0
843,-1088.17365318858
844,-1088.17365318858
907,0.0
908,0.0
971,0.0
972,0.0
1195,0.0
1197,0.0
2,1, 1,29, 0,16, 0.00,60.00,Monday
7,8.9
718,21.200755030459526
719,13.940993298872627
720,18.935771602016104
619,0.0
633,0.0
659,0.0
661,200.0
690,0.0
716,0.0
843,-1177.4512864661228
844,-1177.4512864661228
907,0.0
908,0.0
971,0.0
972,0.0
1195,0.0
1197,0.0
2,1, 1,29, 0,17, 0.00,60.00,Monday
7,8.3
718,21.91604690036711
719,13.030679162691174
720,18.948801149348427
619,0.0
633,0.0
659,0.0
661,200.0
690,0.0
716,0.0
843,-1793.5380091293773
844,-1793.5380091293773
907,0.0
908,0.0
971,0.0
972,0.0
1195,0.0
1197,0.0
2,1, 1,29, 0,18, 0.00,60.00,Monday
7,7.2
718,22.30508215770609
719,11.377340355954205
720,18.96404032286382
619,0.0
633,0.0
659,0.0
661,200.0
690,0.0
716,0.0
843,-1996.3471185927501
844,-1996.3471185927501
907,0.0
908,0.0
971,0.0
972,0.0
1195,0.0
1197,0.0
2,1, 1,29, 0,19, 0.00,60.00,Monday
7,6.7
718,21.02974946848566
719,9.218931231951826
720,18.97268648088791
619,0.0
633,0.0
659,0.0
661,200.0
690,0.0
716,85.44000000000005
843,-1851.1540971807608
844,-1851.1540971807608
907,0.0
908,0.0
971,0.0
972,0.0
1195,0.0
1197,0.0
2,1, 1,29, 0,20, 0.00,60.00,Monday
7,6.1
718,20.621805850179044
719,7.419566214002237
720,18.972219770803008
619,0.0
633,0.0
659,0.0
661,200.0
690,0.0
716,85.44000000000005
843,-1871.067579425655
844,-1871.067579425655
907,0.0
908,0.0
971,0.0
972,0.0
1195,0.0
1197,0.0
2,1, 1,29, 0,21, 0.00,60.00,Monday
7,4.4
718,21.086695147874437
719,5.688623610124998
720,18.949841299841697
619,0.0
633,0.0
659,0.0
661,200.0
690,0.0
716,5.812273212204819
843,-1336.1819916264867
844,-1336.1819916264867
907,0.0
908,0.0
971,0.0
972,0.0
1195,0.0
1197,0.0
2,1, 1,29, 0,22, 0.00,60.00,Monday
7,2.8
718,20.558682490566746
719,4.207326912370967
720,18.906896709289928
619,0.0
633,0.0
659,0.0
661,200.0
690,0.0
716,0.0
843,-626.1341487630652
844,-626.1341487630652
907,0.0
908,0.0
971,0.0
972,0.0
1195,0.0
1197,0.0
2,1, 1,29, 0,23, 0.00,60.00,Monday
7,4.4
718,20.01946363407598
719,4.212956925761907
720,18.84930283638092
619,0.0
633,0.0
659,0.0
661,200.0
690,0.0
716,0.0
843,-1120.7308712946742
844,-1120.7308712946742
907,0.0
908,0.0
971,0.0
972,0.0
1195,0.0
1197,0.0
2,1, 1,29, 0,24, 0.00,60.00,Monday
7,3.9
718,19.26288004630914
719,3.752130184795811
720,18.779403539838807
619,0.0
633,0.0
659,0.0
661,200.0
690,0.0
716,0.0
843,-505.7803648490608
844,-505.7803648490608
907,0.0
908,0.0
971,0.0
972,0.0
1195,0.0
1197,0.0
2,2, 1,30, 0, 1, 0.00,60.00,Tuesday
7,2.8
718,18.614157501749972
719,2.928276600794458
720,18.69519107293349
619,98.30520145068222
633,31.792449678542944
659,1.4262231544731943
661,195.89483883036158
690,3.3162233935341687
716,0.0
843,74.58142813351151
844,74.58142813351151
907,0.0
908,0.0
971,0.0
972,0.0
1195,0.0
1197,0.0
2,2, 1,30, 0, 2, 0.00,60.00,Tuesday
7,2.2
718,18.57741700226881
719,2.558987620300985
720,18.579867242056658
619,806.2884899362913
633,255.25197766197178
659,12.85782682537488
661,166.21355351361987
690,27.26615623004376
716,0.0
843,588.4484551190053
844,588.4484551190053
907,0.0
908,0.0
971,0.0
972,0.0
1195,0.0
1197,0.0
2,2, 1,30, 0, 3, 0.00,60.00,Tuesday
7,2.2
718,18.582193962262803
719,2.3308620762090135
720,18.476042149133043
619,1096.9375378297766
633,344.5939990735268
659,17.383103292386846
661,154.34739248935864
690,36.84225564463562
716,0.0
843,823.4729156722842
844,823.4729156722842
907,0.0
908,0.0
971,0.0
972,0.0
1195,0.0
1197,0.0
2,2, 1,30, 0, 4, 0.00,60.00,Tuesday
7,2.2
718,18.751861142329087
719,2.121709154608958
720,18.361672103983004
619,1595.2095336373925
633,495.3034086138093
659,21.691862768991875
661,134.96121481789828
690,52.51978021389212
716,0.0
843,1177.134453194225
844,1177.134453194225
907,0.0
908,0.0
971,0.0
972,0.0
1195,0.0
1197,0.0
2,2, 1,30, 0, 5, 0.00,60.00,Tuesday
7,1.7
718,18.610155340099887
719,1.6585806102525218
720,18.256891782663452
619,1642.720495848099
633,516.0241977886501
659,24.023825940476364
661,131.8997384705557
690,54.95066012098764
716,0.0
843,1218.9016462703785
844,1218.9016462703785
907,0.0
908,0.0
971,0.0
972,0.0
1195,0.0
1197,0.0
2,2, 1,30, 0, 6, 0.00,60.00,Tuesday
7,1.7
718,19.39326817442221
719,2.0756015829588548
720,18.11655494165407
619,2976.6574129578917
633,904.0374257512987
659,42.18840518556676
661,80.33169862053198
690,96.56200361068545
716,0.0
843,2187.1005737385203
844,2187.1005737385203
907,0.0
908,0.0
971,0.0
972,0.0
1195,0.0
1197,0.0
2,2, 1,30, 0, 7, 0.00,60.00,Tuesday
7,2.2
718,19.547370244845517
719,2.640465680607994
720,18.029775942054503
619,4406.3668521510035
633,1310.7067610151732
659,65.02581174392294
661,28.97685567849635
690,138.01656173582387
716,85.44000000000005
843,2164.8629982481034
844,2164.8629982481034
907,0.0
908,0.0
971,0.0
972,0.0
1195,0.0
1197,0.0
2,2, 1,30, 0, 8, 0.00,60.00,Tuesday
7,2.8
718,19.63779000197671
719,3.1961043934731816
720,17.943592643349408
619,4376.29786424384
633,1295.4166627216757
659,57.814941765686804
661,33.45104336515452
690,134.54118369620375
716,85.44000000000005
843,2111.7683552457
844,2111.7683552457
907,0.0
908,0.0
971,0.0
972,0.0
1195,0.0
1197,0.0
2,2, 1,30, 0, 9, 0.00,60.00,Tuesday
7,3.3
718,19.703816950887802
719,3.8594070301957966
720,17.8641744853728
619,3810.7174858173057
633,1135.272296570019
659,46.91393077268679
661,55.589141217951045
690,116.73743778737428
716,62.9207380532512
843,2008.9641435806698
844,2008.9641435806698
907,0.0
908,0.0
971,0.0
972,0.0
1195,0.0
1197,0.0
2,2, 1,30, 0,10, 0.00,60.00,Tuesday
7,5.6
718,19.765401114831715
719,5.268107089919948
720,17.797913557177726
619,2215.391009286323
633,609.4349229631841
659,0.0
661,131.95838181564895
690,55.17034104957451
716,0.0
843,1698.1207767351862
844,1698.1207767351862
907,0.0
908,0.0
971,0.0
972,0.0
1195,0.0
1197,0.0
2,2, 1,30, 0,11, 0.00,60.00,Tuesday
7,6.1
718,19.9037816382716
719,8.493256859926477
720,17.720601975613732
619,1172.2313351064502
633,326.37126451841215
659,0.0
661,163.79391903060397
690,29.357059524041368
716,0.0
843,910.3236202872104
844,910.3236202872104
907,0.0
908,0.0
971,0.0
972,0.0
1195,0.0
1197,0.0
2,2, 1,30, 0,12, 0.00,60.00,Tuesday
7,7.2
718,19.709503085891374
719,10.31422794122312
720,17.658601014576792
619,455.711673374411
633,126.84069587117487
659,0.0
661,186.12870896385434
690,11.247290668317333
716,0.0
843,363.05640309368755
844,363.05640309368755
907,0.0
908,0.0
971,0.0
972,0.0
1195,0.0
1197,0.0
2,2, 1,30, 0,13, 0.00,60.00,Tuesday
7,7.8
718,19.776787019395364
719,12.379803231745152
720,17.616754639704315
619,244.01188220150743
633,67.29429169141676
659,0.0
661,192.6624260231755
690,5.949541906559105
716,0.0
843,188.97182992221497
844,188.97182992221497
907,0.0
908,0.0
971,0.0
972,0.0
1195,0.0
1197,0.0
2,2, 1,30, 0,14, 0.00,60.00,Tuesday
7,8.3
718,19.79768822481371
719,14.883025077853926
720,17.59494329765088
619,21.823934728806943
633,6.0094269194871215
659,0.0
661,199.34923256700878
690,0.5276632475848198
716,0.0
843,17.724834391632612
844,17.724834391632612
907,0.0
908,0.0
971,0.0
972,0.0
1195,0.0
1197,0.0
2,2, 1,30, 0,15, 0.00,60.00,Tuesday
7,8.3
718,19.766901294049667
719,14.473971204428153
720,17.58599569638664
619,0.0
633,0.0
659,0.0
661,200.0
690,0.0
716,0.0
843,-105.08027558303002
844,-105.08027558303002
907,0.0
908,0.0
971,0.0
972,0.0
1195,0.0
1197,0.0
2,2, 1,30, 0,16, 0.00,60.00,Tuesday
7,7.8
718,19.861973734757953
719,13.960929003117135
720,17.58882893506893
619,0.0
633,0.0
659,0.0
661,200.0
690,0.0
716,0.0
843,-86.30373673337635
844,-86.30373673337635
907,0.0
908,0.0
971,0.0
972,0.0
1195,0.0
1197,0.0
2,2, 1,30, 0,17, 0.00,60.00,Tuesday
7,7.2
718,19.89640583817449
719,11.736059727960757
720,17.596834407392688
619,0.0
633,0.0
659,0.0
661,200.0
690,0.0
716,0.0
843,-109.1261497203468
844,-109.1261497203468
907,0.0
908,0.0
971,0.0
972,0.0
1195,0.0
1197,0.0
2,2, 1,30, 0,18, 0.00,60.00,Tuesday
7,6.7
718,19.017800860287835
719,10.430187563472883
720,17.603448724786823
619,0.0
633,0.0
659,0.0
661,200.0
690,0.0
716,66.66766855963907
843,-237.3763009965678
844,-237.3763009965678
907,0.0
908,0.0
971,0.0
972,0.0
1195,0.0
1197,0.0
2,2, 1,30, 0,19, 0.00,60.00,Tuesday
7,6.7
718,19.81303784652392
719,8.775728423257707
720,17.60345883486
619,0.0
633,0.0
659,0.0
661,200.0
690,0.0
716,0.0
843,-77.96737110440154
844,-77.96737110440154
907,0.0
908,0.0
971,0.0
972,0.0
1195,0.0
1197,0.0
2,2, 1,30, 0,20, 0.00,60.00,Tuesday
7,6.7
718,18.517797826664534
719,7.7545088119481935
720,17.59469074484916
619,0.0
633,0.0
659,0.0
661,200.0
690,0.0
716,85.44000000000005
843,-168.55157486931785
844,-168.55157486931785
907,0.0
908,0.0
971,0.0
972,0.0
1195,0.0
1197,0.0
2,2, 1,30, 0,21, 0.00,60.00,Tuesday
7,6.7
718,19.34500508479767
719,7.675546804200616
720,17.564070414859593
619,1575.9154863988522
633,419.8527493945417
659,0.0
661,152.61575066990488
690,38.42067936768535
716,85.44000000000005
843,140.89766137690094
844,140.89766137690094
907,0.0
908,0.0
971,0.0
972,0.0
1195,0.0
1197,0.0
2,2, 1,30, 0,22, 0.00,60.00,Tuesday
7,6.7
718,19.701964264584305
719,7.193647796911232
720,17.55073556894898
619,562.2297538914066
633,155.27019127470226
659,0.0
661,182.74570726418034
690,13.990337681641158
716,25.793991884163066
843,145.0326989829864
844,145.0326989829864
907,0.0
908,0.0
971,0.0
972,0.0
1195,0.0
1197,0.0
2,2, 1,30, 0,23, 0.00,60.00,Tuesday
7,7.2
718,18.895880996267476
719,7.173715615493906
720,17.512811731052537
619,0.0
633,0.0
659,0.0
661,200.0
690,0.0
716,0.0
843,-332.25868376383914
844,-332.25868376383914
907,0.0
908,0.0
971,0.0
972,0.0
1195,0.0
1197,0.0
2,2, 1,30, 0,24, 0.00,60.00,Tuesday
7,7.2
718,18.609782191880793
719,7.234654617502795
720,17.474754764907292
619,92.00215811008106
633,25.172672252506427
659,0.0
661,197.1946586526679
690,2.274661347316116
716,0.0
843,73.7967749618274
844,73.7967749618274
907,0.0
908,0.0
971,0.0
972,0.0
1195,0.0
1197,0.0
2,3, 1,31, 0, 1, 0.00,60.00,Wednesday
7,7.2
718,18.536423414706718
719,7.461718262434683
720,17.428032861172632
619,431.6396303533145
633,116.66304774416592
659,0.0
661,186.92892651679364
690,10.598448437818
716,0.0
843,334.88067736864105
844,334.88067736864105
907,0.0
908,0.0
971,0.0
972,0.0
1195,0.0
1197,0.0
2,3, 1,31, 0, 2, 0.00,60.00,Wednesday
7,7.2
718,18.625497541646958
719,7.557520259143665
720,17.379444086352212
619,739.082750117874
633,198.39442433528922
659,0.0
661,177.74003375027223
690,18.04909939710912
716,0.0
843,595.2995732107938
844,595.2995732107938
907,0.0
908,0.0
971,0.0
972,0.0
1195,0.0
1197,0.0
2,3, 1,31, 0, 3, 0.00,60.00,Wednesday
7,6.7
718,18.708807625220818
719,7.30002243297961
720,17.328997050394737
619,976.3430691619452
633,263.3281349987854
659,0.0
661,170.33688795314066
690,24.051809052850512
716,0.0
843,775.1790239913898
844,775.1790239913898
907,0.0
908,0.0
971,0.0
972,0.0
1195,0.0
1197,0.0
2,3, 1,31, 0, 4, 0.00,60.00,Wednesday
7,7.2
718,18.35680940764642
719,7.743097833316036
720,17.276163175625754
619,1074.6648372253467
633,287.9540829038271
659,0.0
661,167.78960536336726
690,26.11722802696545
716,0.0
843,860.6764919487814
844,860.6764919487814
907,0.0
908,0.0
971,0.0
972,0.0
1195,0.0
1197,0.0
2,3, 1,31, 0, 5, 0.00,60.00,Wednesday
7,6.1
718,18.589245526269508
719,7.445111808311602
720,17.21953411029646
619,1453.1655181263618
633,389.5615698676741
659,0.0
661,155.60212924646058
690,35.99922718932412
716,0.0
843,1162.073023201563
844,1162.073023201563
907,0.0
908,0.0
971,0.0
972,0.0
1195,0.0
1197,0.0
2,3, 1,31, 0, 6, 0.00,60.00,Wednesday
7,5.6
718,19.25474332813118
719,7.625859255806745
720,17.15939961368845
619,3557.770269568145
633,931.8731971511164
659,0.0
661,93.66318462673367
690,86.22132346079353
716,66.67770711164844
843,2084.023107871095
844,2084.023107871095
907,0.0
908,0.0
971,0.0
972,0.0
1195,0.0
1197,0.0
2,3, 1,31, 0, 7, 0.00,60.00,Wednesday
7,5.6
718,19.462063967446436
719,7.469342830656323
720,17.12856144839901
619,4051.55434472027
633,1068.7329718777346
659,0.0
661,79.55439630519952
690,97.66118459675803
716,85.44000000000005
843,2132.187986161196
844,2132.187986161196
907,0.0
908,0.0
971,0.0
972,0.0
1195,0.0
1197,0.0
2,3, 1,31, 0, 8, 0.00,60.00,Wednesday
7,5.6
718,19.63810170176234
719,7.600354933386905
720,17.081995151562893
619,3463.523717746149
633,926.9525884100105
659,0.0
661,95.94538476303191
690,84.37084189932007
716,45.07977022854313
843,2148.420197697482
844,2148.420197697482
907,0.0
908,0.0
971,0.0
972,0.0
1195,0.0
1197,0.0
2,3, 1,31, 0, 9, 0.00,60.00,Wednesday
7,5.0
718,19.64460915836655
719,7.2306223622422605
720,17.03654259967956
619,2885.4063680749314
633,851.3853635694435
659,75.0544740917754
661,86.24796250722724
690,91.9049535754646
716,0.0
843,2226.256151832031
844,2226.256151832031
907,0.0
908,0.0
971,0.0
972,0.0
1195,0.0
1197,0.0
2,3, 1,31, 0,10, 0.00,60.00,Wednesday
7,5.0
718,19.704886217559515
719,7.3172581885659325
720,16.989668387639853
619,2977.863322866753
633,876.5381575022384
659,86.40647546815636
661,81.27636582305793
690,95.88126796204071
716,0.0
843,2277.1883770817476
844,2277.1883770817476
907,0.0
908,0.0
971,0.0
972,0.0
1195,0.0
1197,0.0
2,3, 1,31, 0,11, 0.00,60.00,Wednesday
7,5.0
718,19.6950963398309
719,7.506347454923687
720,16.94173587891399
619,2823.4495159869603
633,835.0519137238324
659,82.3467416425455
661,87.00106115857467
690,91.25736286886841
716,0.0
843,2164.1563036552434
844,2164.1563036552434
907,0.0
908,0.0
971,0.0
972,0.0
1195,0.0
1197,0.0
2,3, 1,31, 0,12, 0.00,60.00,Wednesday
7,5.6
718,19.776765664331545
719,8.027673913693453
720,16.891447241632203
619,2548.01056350784
633,696.0898943102516
659,0.0
661,122.19884807577033
690,63.083686135740756
716,0.0
843,1995.969600116916
844,1995.969600116916
907,0.0
908,0.0
971,0.0
972,0.0
1195,0.0
1197,0.0
2,3, 1,31, 0,13, 0.00,60.00,Wednesday
7,5.6
718,19.876340662025257
719,7.952256652627975
720,16.849771415640244
619,2345.708258981681
633,644.222407475272
659,0.0
661,128.1068832013292
690,58.293260488795845
716,0.0
843,1854.6833892893137
844,1854.6833892893137
907,0.0
908,0.0
971,0.0
972,0.0
1195,0.0
1197,0.0
2,3, 1,31, 0,14, 0.00,60.00,Wednesday
7,6.0
718,19.73659171468985
719,8.486331607175039
720,16.80914297700928
619,1982.4755735901585
633,545.9677619354982
659,0.0
661,139.43662048168795
690,49.10674367101634
716,0.0
843,1554.8748816545703
844,1554.8748816545703
907,0.0
908,0.0
971,0.0
972,0.0
1195,0.0
1197,0.0
2,3, 1,31, 0,15, 0.00,60.00,Wednesday
7,6.0
718,19.889485185542053
719,9.806731632120117
720,16.779175717893374
619,2693.523893750777
633,730.576059881005
659,0.0
661,118.7357380840556
690,65.89168753890306
716,62.8955013302177
843,1323.5899520543771
844,1323.5899520543771
907,0.0
908,0.0
971,0.0
972,0.0
1195,0.0
1197,0.0
2,3, 1,31, 0,16, 0.00,60.00,Wednesday
7,6.0
718,19.829967338815212
719,10.090630358931282
720,16.7499636099491
619,2384.523446119236
633,652.4153308816024
659,0.0
661,127.6404360505631
690,58.67147089995398
716,67.97083496258716
843,1014.4765468256483
844,1014.4765468256483
907,0.0
908,0.0
971,0.0
972,0.0
1195,0.0
1197,0.0
2,3, 1,31, 0,17, 0.00,60.00,Wednesday
7,6.0
718,19.674531538852143
719,9.242521613892036
720,16.710583325794587
619,966.8957456339795
633,270.6230827594525
659,0.0
661,169.9549581904577
690,24.36149003673176
716,0.0
843,776.9013973233396
844,776.9013973233396
907,0.0
908,0.0
971,0.0
972,0.0
1195,0.0
1197,0.0
2,3, 1,31, 0,18, 0.00,60.00,Wednesday
7,6.0
718,19.798089741898494
719,8.785766750236156
720,16.688787608250923
619,819.7893926756457
633,229.19201992511822
659,0.0
661,174.4792812057448
690,20.69302284808344
716,0.0
843,657.2184695498236
844,657.2184695498236
907,0.0
908,0.0
971,0.0
972,0.0
1195,0.0
1197,0.0
2,3, 1,31, 0,19, 0.00,60.00,Wednesday
7,6.0
718,19.588687138593606
719,7.8993724163386805
720,16.666501555191843
619,636.916925738629
633,179.13789031065485
659,0.0
661,180.099273503614
690,16.13615162657071
716,0.0
843,496.62663994023205
844,496.62663994023205
907,0.0
908,0.0
971,0.0
972,0.0
1195,0.0
1197,0.0
2,3, 1,31, 0,20, 0.00,60.00,Wednesday
7,6.4
718,19.607035981965257
719,8.197736125199155
720,16.658215078035433
619,2175.0242380859268
633,589.692384085315
659,0.0
661,134.49327048250925
690,53.11497146835035
716,85.44000000000005
843,560.9108033254661
844,560.9108033254661
907,0.0
908,0.0
971,0.0
972,0.0
1195,0.0
1197,0.0
2,3, 1,31, 0,21, 0.00,60.00,Wednesday
7,6.9
718,19.714023252619523
719,8.209401760048195
720,16.633165306773872
619,1894.9707779537316
633,512.882745492731
659,0.0
661,143.35062120589353
690,45.933145502941535
716,68.13119379268394
843,588.8407373553055
844,588.8407373553055
907,0.0
908,0.0
971,0.0
972,0.0
1195,0.0
1197,0.0
2,3, 1,31, 0,22, 0.00,60.00,Wednesday
7,3.2
718,19.39455685860044
719,5.792475411556431
720,16.59472503653259
619,1111.3542665728412
633,352.4956910210108
659,35.55746013310837
661,151.42970042304583
690,39.083667288250474
716,0.0
843,858.4604185892822
844,858.4604185892822
907,0.0
908,0.0
971,0.0
972,0.0
1195,0.0
1197,0.0
2,3, 1,31, 0,23, 0.00,60.00,Wednesday
7,-0.8
718,18.56439308916144
719,2.047698582162568
720,16.546763036926944
619,1089.6240931964253
633,368.9791442818715
659,25.137269074200653
661,149.38520185550718
690,40.594880909559386
716,0.0
843,818.2904037511389
844,818.2904037511389
907,0.0
908,0.0
971,0.0
972,0.0
1195,0.0
1197,0.0
2,3, 1,31, 0,24, 0.00,60.00,Wednesday
7,-5.3
718,17.37926627331417
719,-0.5542684659335266
720,16.43238484453851
619,2647.809743853247
633,918.0643180562594
659,42.19939138957366
661,71.1983757407819
690,103.16168047496483
716,0.0
843,1868.1700839042796
844,1868.1700839042796
907,0.0
908,0.0
971,0.0
972,0.0
1195,0.0
1197,0.0
2,4, 2, 1, 0, 1, 0.00,60.00,Thursday
7,-10.2
718,17.627261284761126
719,-3.5989084332210086
720,16.219417161775315
619,3885.922275366245
633,1372.7536753111497
659,36.256979421205216
661,0.0
690,162.1664578878672
716,0.0
843,5006.878074885456
844,5006.878074885456
907,0.0
908,0.0
971,0.0
972,0.0
1195,2849.334976951362
1197,2849.334976951362
2,4, 2, 1, 0, 2, 0.00,60.00,Thursday
7,-10.9
718,18.240774218545077
719,-4.971117559313185
720,16.158958268009343
619,3806.738223365352
633,1373.8270397728643
659,33.601087745764815
661,0.0
690,162.1664578878672
716,0.0
843,6599.446590458101
844,6599.446590458101
907,0.0
908,0.0
971,0.0
972,0.0
1195,5042.902006368298
1197,5042.902006368298
2,4, 2, 1, 0, 3, 0.00,60.00,Thursday
7,-11.9
718,18.483511374703387
719,-5.932595373488495
720,16.062324805308243
619,3680.31735276426
633,1378.859372840473
659,32.183570612842765
661,0.0
690,162.1664578878672
716,0.0
843,7392.550011406718
844,7392.550011406718
907,0.0
908,0.0
971,0.0
972,0.0
1195,6286.339516489999
1197,6286.339516489999
2,4, 2, 1, 0, 4, 0.00,60.00,Thursday
7,-12.4
718,18.555914525764102
719,-6.652902365736209
720,15.944049541281084
619,3629.374977807016
633,1383.179002046663
659,28.44339663712754
661,0.0
690,162.1664578878672
716,0.0
843,7715.424324722495
844,7715.424324722495
907,0.0
908,0.0
971,0.0
972,0.0
1195,6778.825304239994
1197,6778.825304239994
2,4, 2, 1, 0, 5, 0.00,60.00,Thursday
7,-12.8
718,18.587228164291314
719,-7.0666810282941075
720,15.812994069122617
619,3592.22276251387
633,1383.605598265587
659,25.273639890404745
661,0.0
690,162.1664578878672
716,0.0
843,7713.517383672588
844,7713.517383672588
907,0.0
908,0.0
971,0.0
972,0.0
1195,6890.2944248618805
1197,6890.2944248618805
2,4, 2, 1, 0, 6, 0.00,60.00,Thursday
7,-13.0
718,19.365669634932424
719,-7.25776665809065
720,15.676892624287854
619,3573.7359226613057
633,1383.524585627508
659,23.730373581765626
661,0.0
690,162.1664578878672
716,0.0
843,8605.558490593396
844,8605.558490593396
907,0.0
908,0.0
971,0.0
972,0.0
1195,7963.595444207629
1197,7963.595444207629
2,4, 2, 1, 0, 7, 0.00,60.00,Thursday
7,-13.0
718,18.997768545361264
719,-7.456221820051891
720,15.555356971624388
619,3546.027252699919
633,1399.2378952425497
659,26.615285934610384
661,0.0
690,162.1664578878672
716,85.44000000000005
843,9426.008380694773
844,9426.008380694773
907,0.0
908,0.0
971,0.0
972,0.0
1195,8952.617837383312
1197,8952.617837383312
2,4, 2, 1, 0, 8, 0.00,60.00,Thursday
7,-13.0
718,19.421401792218603
719,-7.0917347254982985
720,15.409404097692013
619,3576.69024194462
633,1398.4164821534691
659,19.860829727364244
661,0.0
690,162.1664578878672
716,85.44000000000005
843,8107.601284068873
844,8107.601284068873
907,0.0
908,0.0
971,0.0
972,0.0
1195,8629.053106756332
1197,8629.053106756332
2,4, 2, 1, 0, 9, 0.00,60.00,Thursday
7,-13.0
718,19.5900696867092
719,-7.588637745694939
720,15.280305179218347
619,3566.6752127107234
633,1408.922133373067
659,19.860829727364244
661,0.0
690,162.1664578878672
716,79.48133974890294
843,8368.487346127862
844,8368.487346127862
907,0.0
908,0.0
971,0.0
972,0.0
1195,8806.04740749316
1197,8806.04740749316
2,4, 2, 1, 0,10, 0.00,60.00,Thursday
7,-14.0
718,19.666217014475155
719,-8.249186231461877
720,15.125141195876498
619,3437.276602787353
633,1394.0642060657424
659,23.71529217352034
661,0.0
690,162.1664578878672
716,0.0
843,8811.077754297858
844,8811.077754297858
907,0.0
908,0.0
971,0.0
972,0.0
1195,8491.392291122289
1197,8491.392291122289
2,4, 2, 1, 0,11, 0.00,60.00,Thursday
7,-14.0
718,19.39707636522186
719,-7.9488681157740535
720,14.980002148064765
619,3454.9589169423807
633,1403.479977651903
659,17.52091019300361
661,0.0
690,162.1664578878672
716,0.0
843,9612.26590119573
844,9612.26590119573
907,0.0
908,0.0
971,0.0
972,0.0
1195,8952.617837383312
1197,8952.617837383312
2,4, 2, 1, 0,12, 0.00,60.00,Thursday
7,-13.0
718,19.61324814977289
719,-7.114949544811152
720,14.866056934401247
619,3589.8066026343427
633,1416.3819308344205
659,13.025133795690394
661,0.0
690,162.1664578878672
716,0.0
843,7820.662430347969
844,7820.662430347969
907,0.0
908,0.0
971,0.0
972,0.0
1195,7145.614186919622
1197,7145.614186919622
2,4, 2, 1, 0,13, 0.00,60.00,Thursday
7,-14.0
718,19.67355600754549
719,-6.974120965296394
720,14.716362244957377
619,3456.6226968392043
633,1401.775693485368
659,17.52091019300361
661,0.0
690,162.1664578878672
716,0.0
843,9042.125383066003
844,9042.125383066003
907,0.0
908,0.0
971,0.0
972,0.0
1195,8865.98399311401
1197,8865.98399311401
2,4, 2, 1, 0,14, 0.00,60.00,Thursday
7,-13.0
718,19.70853466630412
719,-4.537501863613488
720,14.66490472415712
619,3561.454664882967
633,1414.3836931182736
659,19.860829727364244
661,0.0
690,162.1664578878672
716,0.0
843,5892.353696275466
844,5892.353696275466
907,0.0
908,0.0
971,0.0
972,0.0
1195,4826.4577910458875
1197,4826.4577910458875
2,4, 2, 1, 0,15, 0.00,60.00,Thursday
7,-13.0
718,19.72010299548053
719,-4.144906055674903
720,14.584452284374887
619,3560.6727941771387
633,1415.2007747396337
659,19.860829727364244
661,0.0
690,162.1664578878672
716,0.0
843,5396.760893464352
844,5396.760893464352
907,0.0
908,0.0
971,0.0
972,0.0
1195,4117.744483302035
1197,4117.744483302035
2,4, 2, 1, 0,16, 0.00,60.00,Thursday
7,-12.2
718,19.719249222345553
719,-3.5483020701461916
720,14.5561235186887
619,3657.1880428236955
633,1428.2048834451277
659,18.533621781034615
661,0.0
690,162.1664578878672
716,0.0
843,4439.914058392262
844,4439.914058392262
907,0.0
908,0.0
971,0.0
972,0.0
1195,2829.8572405415757
1197,2829.8572405415757
2,4, 2, 1, 0,17, 0.00,60.00,Thursday
7,-13.0
718,19.703449635645917
719,-4.410088284176237
720,14.523707354301562
619,3560.503306542497
633,1415.3778645060268
659,19.860829727364244
661,0.0
690,162.1664578878672
716,83.42648814623553
843,4184.446491707247
844,4184.446491707247
907,0.0
908,0.0
971,0.0
972,0.0
1195,3565.3419471844777
1197,3565.3419471844777
2,4, 2, 1, 0,18, 0.00,60.00,Thursday
7,-13.0
718,19.715588927969414
719,-5.647798922540947
720,14.51828155668546
619,3560.8837116333534
633,1414.9803816355693
659,19.860829727364244
661,0.0
690,162.1664578878672
716,0.0
843,3814.3708562986285
844,3814.3708562986285
907,0.0
908,0.0
971,0.0
972,0.0
1195,2173.1171712715914
1197,2173.1171712715914
2,4, 2, 1, 0,19, 0.00,60.00,Thursday
7,-12.0
718,19.694582097222877
719,-5.335329473966363
720,14.512534422791244
619,3692.3457019411
633,1435.419309882052
659,14.98968789744303