Program Version,EnergyPlus, Version 22.2.0-c249759bad, YMD=2023.09.01 20:40
1,5,Environment Title[],Latitude[deg],Longitude[deg],Time Zone[],Elevation[m]
2,8,Day of Simulation[],Month[],Day of Month[],DST Indicator[1=yes 0=no],Hour[],StartMinute[],EndMinute[],DayType
3,5,Cumulative Day of Simulation[],Month[],Day of Month[],DST Indicator[1=yes 0=no],DayType  ! When Daily Report Variables Requested
4,2,Cumulative Days of Simulation[],Month[]  ! When Monthly Report Variables Requested
5,1,Cumulative Days of Simulation[] ! When Run Period Report Variables Requested
6,1,Calendar Year of Simulation[] ! When Annual Report Variables Requested
581,11,LIVING,AFN Zone Infiltration Air Change Rate [ach] !RunPeriod [Value,Min,Month,Day,Hour,Minute,Max,Month,Day,Hour,Minute]
582,11,ATTIC,AFN Zone Infiltration Air Change Rate [ach] !RunPeriod [Value,Min,Month,Day,Hour,Minute,Max,Month,Day,Hour,Minute]
583,11,CRAWLSPACE,AFN Zone Infiltration Air Change Rate [ach] !RunPeriod [Value,Min,Month,Day,Hour,Minute,Max,Month,Day,Hour,Minute]
1038,11,Facility,Facility Heating Setpoint Not Met Time [hr] !RunPeriod [Value,Min,Month,Day,Hour,Minute,Max,Month,Day,Hour,Minute]
1039,11,Facility,Facility Cooling Setpoint Not Met Time [hr] !RunPeriod [Value,Min,Month,Day,Hour,Minute,Max,Month,Day,Hour,Minute]
1115,11,DX_HEATING_COIL,Heating Coil Heating Energy [J] !RunPeriod [Value,Min,Month,Day,Hour,Minute,Max,Month,Day,Hour,Minute]
1128,11,DX_HEATING_COIL,Heating Coil Electricity Energy [J] !RunPeriod [Value,Min,Month,Day,Hour,Minute,Max,Month,Day,Hour,Minute]
1153,11,DX_HEATING_COIL,Heating Coil Defrost Electricity Energy [J] !RunPeriod [Value,Min,Month,Day,Hour,Minute,Max,Month,Day,Hour,Minute]
1154,11,DX_HEATING_COIL,Heating Coil Crankcase Heater Electricity Energy [J] !RunPeriod [Value,Min,Month,Day,Hour,Minute,Max,Month,Day,Hour,Minute]
1155,11,HEATING_RESISTANCE_BACKUP,Heating Coil Heating Energy [J] !RunPeriod [Value,Min,Month,Day,Hour,Minute,Max,Month,Day,Hour,Minute]
1156,11,HEATING_RESISTANCE_BACKUP,Heating Coil Electricity Energy [J] !RunPeriod [Value,Min,Month,Day,Hour,Minute,Max,Month,Day,Hour,Minute]
1292,11,WATER HEATER,Water Heater Heat Loss Energy [J] !RunPeriod [Value,Min,Month,Day,Hour,Minute,Max,Month,Day,Hour,Minute]
1306,11,WATER HEATER,Water Heater Heating Energy [J] !RunPeriod [Value,Min,Month,Day,Hour,Minute,Max,Month,Day,Hour,Minute]
1307,11,WATER HEATER,Water Heater Unmet Demand Heat Transfer Energy [J] !RunPeriod [Value,Min,Month,Day,Hour,Minute,Max,Month,Day,Hour,Minute]
1308,11,WATER HEATER,Water Heater Electricity Energy [J] !RunPeriod [Value,Min,Month,Day,Hour,Minute,Max,Month,Day,Hour,Minute]
13,11,Electricity:Facility [J] !RunPeriod [Value,Min,Month,Day,Hour,Minute,Max,Month,Day,Hour,Minute]
1134,11,Heating:Electricity [J] !RunPeriod [Value,Min,Month,Day,Hour,Minute,Max,Month,Day,Hour,Minute]
1096,11,Cooling:Electricity [J] !RunPeriod [Value,Min,Month,Day,Hour,Minute,Max,Month,Day,Hour,Minute]
562,11,Fans:Electricity [J] !RunPeriod [Value,Min,Month,Day,Hour,Minute,Max,Month,Day,Hour,Minute]
1379,11,Pumps:Electricity [J] !RunPeriod [Value,Min,Month,Day,Hour,Minute,Max,Month,Day,Hour,Minute]
1326,11,WaterSystems:Electricity [J] !RunPeriod [Value,Min,Month,Day,Hour,Minute,Max,Month,Day,Hour,Minute]
61,11,InteriorLights:Electricity [J] !RunPeriod [Value,Min,Month,Day,Hour,Minute,Max,Month,Day,Hour,Minute]
1046,11,ExteriorLights:Electricity [J] !RunPeriod [Value,Min,Month,Day,Hour,Minute,Max,Month,Day,Hour,Minute]
134,11,InteriorEquipment:Electricity [J] !RunPeriod [Value,Min,Month,Day,Hour,Minute,Max,Month,Day,Hour,Minute]
170,11,gas_dryer:InteriorEquipment:Electricity [J] !RunPeriod [Value,Min,Month,Day,Hour,Minute,Max,Month,Day,Hour,Minute]
207,11,clotheswasher:InteriorEquipment:Electricity [J] !RunPeriod [Value,Min,Month,Day,Hour,Minute,Max,Month,Day,Hour,Minute]
244,11,dishwasher:InteriorEquipment:Electricity [J] !RunPeriod [Value,Min,Month,Day,Hour,Minute,Max,Month,Day,Hour,Minute]
281,11,refrigerator:InteriorEquipment:Electricity [J] !RunPeriod [Value,Min,Month,Day,Hour,Minute,Max,Month,Day,Hour,Minute]
318,11,electric_mels:InteriorEquipment:Electricity [J] !RunPeriod [Value,Min,Month,Day,Hour,Minute,Max,Month,Day,Hour,Minute]
355,11,NaturalGas:Facility [J] !RunPeriod [Value,Min,Month,Day,Hour,Minute,Max,Month,Day,Hour,Minute]
403,11,InteriorEquipment:NaturalGas [J] !RunPeriod [Value,Min,Month,Day,Hour,Minute,Max,Month,Day,Hour,Minute]
476,11,gas_dryer:InteriorEquipment:NaturalGas [J] !RunPeriod [Value,Min,Month,Day,Hour,Minute,Max,Month,Day,Hour,Minute]
513,11,gas_mels:InteriorEquipment:NaturalGas [J] !RunPeriod [Value,Min,Month,Day,Hour,Minute,Max,Month,Day,Hour,Minute]
End of Data Dictionary
1,EXTREME_WINTER,  33.43,-112.02,  -7.00, 337.40
5,7
1038,0.0,0.0,12,15, 1,15,0.0,12,15, 1,15
1039,0.0,0.0,12,15, 1,15,0.0,12,15, 1,15
581,0.2100829098660221,0.11671881696689812,12,19,21,60,0.565083559331413,12,20, 3,52
582,3.4920709295691488,0.0,12,16,21,60,21.456572963806366,12,20, 3,52
583,0.00835836765859771,0.00019832208333495394,12,16,14,50,0.056937620664079834,12,21, 6, 5
1115,21310903.37552613,0.0,12,15, 1,15,1455685.7075644196,12,21, 6, 5
1128,5928557.429647951,0.0,12,15, 1,15,379029.9699024417,12,21, 6, 5
1153,6.193400032875757,0.0,12,15, 1,15,6.193400032875757,12,21, 8,60
1154,35757297.36884151,0.0,12,15, 1,15,180000.0,12,17, 1,60
1155,0.0,0.0,12,15, 1,15,0.0,12,15, 1,15
1156,0.0,0.0,12,15, 1,15,0.0,12,15, 1,15
1292,-23312593.631428953,-38599.985907765375,12,20, 5,30,-3235.2560896016416,12,21,10,31
1306,201758902.35956854,0.0,12,15, 1,15,4050000.0,12,15, 8,45
1307,48846893.39526511,0.0,12,15, 1,15,9097650.942760307,12,15, 8,30
1308,201758902.35956854,0.0,12,15, 1,15,4050000.0,12,15, 8,45
13,681263068.7338094,151703.1275401932,12,15, 4,15,5256913.903631047,12,17,17,30
61,301924526.02383536,88139.10953165221,12,15, 1,15,1282023.4113694867,12,15,20,15
134,70666020.44019976,63564.01800854099,12,15, 4,15,156554.22484006523,12,20,20,15
170,5241013.419656067,348.4159749238097,12,15, 4,15,17476.39704006126,12,20,12,15
207,6509451.13922267,815.2532113832032,12,15, 3,15,22990.642799023623,12,20,10,15
244,12749673.399825225,1521.856143006317,12,15, 4,15,53038.631142310165,12,20,20,15
281,46165882.481495745,59938.60262432081,12,15, 5,15,81951.81706819107,12,15,19,15
318,0.0,0.0,12,15, 1,15,0.0,12,15, 1,15
355,197687796.27748066,18561.32405820678,12,15, 4,15,724774.895203776,12,20,18,15
403,197687796.27748066,18561.32405820678,12,15, 4,15,724774.895203776,12,20,18,15
476,106772067.24485716,7098.072629279515,12,15, 4,15,356036.3026282215,12,20,12,15
513,0.0,0.0,12,15, 1,15,0.0,12,15, 1,15
562,8385808.301070952,0.0,12,15, 1,15,74583.3830364562,12,18,17,15
1046,0.0,0.0,12,15, 1,15,0.0,12,15, 1,15
1096,56841950.61724607,0.0,12,15, 1,15,551677.0429814056,12,18,17,15
1134,41685860.99188949,0.0,12,15, 1,15,525219.0852398364,12,21, 6,15
1326,201758902.35956854,0.0,12,15, 1,15,4050000.0,12,15, 8,45
1379,0.0,0.0,12,15, 1,15,0.0,12,15, 1,15
1,EXTREME_SUMMER,  33.43,-112.02,  -7.00, 337.40
5,7
1038,0.0,0.0, 7,13, 1,15,0.0, 7,13, 1,15
1039,66.75,0.0, 7,13, 1,15,0.25, 7,13,14,60
581,0.11356345512245677,0.0, 7,14, 6,10,0.6316420094001111, 7,16,19,52
582,4.1289369297549925,0.32643853663281636, 7,14,19,60,14.926969793535056, 7,16,19,48
583,0.07595207848252507,0.0038029742726158914, 7,13,23, 5,0.103427018266633, 7,16,19,48
1115,0.0,0.0, 7,13, 1,15,0.0, 7,13, 1,15
1128,0.0,0.0, 7,13, 1,15,0.0, 7,13, 1,15
1153,0.0,0.0, 7,13, 1,15,0.0, 7,13, 1,15
1154,0.0,0.0, 7,13, 1,15,0.0, 7,13, 1,15
1155,0.0,0.0, 7,13, 1,15,0.0, 7,13, 1,15
1156,0.0,0.0, 7,13, 1,15,0.0, 7,13, 1,15
1292,-21428929.158154424,-34218.41762814085, 7,18, 6,30,-3618.232157107144, 7,16,16,60
1306,118071725.31449863,0.0, 7,13, 1,15,3582029.5639510793, 7,14, 7,15
1307,7978942.747154383,0.0, 7,13, 1,15,856031.2231089475, 7,17, 8,45
1308,118071725.31449863,0.0, 7,13, 1,15,3582029.5639510793, 7,14, 7,15
13,1729053915.394803,769374.3123766979, 7,13, 4,60,6475254.661058065, 7,15,17,15
61,301924526.02383536,88139.10953165221, 7,13, 1,15,1282023.4113694867, 7,13,20,15
134,70666020.44019976,63564.01800854099, 7,13, 4,15,156554.22484006523, 7,18,20,15
170,5241013.419656067,348.4159749238097, 7,13, 4,15,17476.39704006126, 7,18,12,15
207,6509451.13922267,815.2532113832032, 7,13, 3,15,22990.642799023623, 7,18,10,15
244,12749673.399825225,1521.856143006317, 7,13, 4,15,53038.631142310165, 7,18,20,15
281,46165882.481495745,59938.60262432081, 7,13, 5,15,81951.81706819107, 7,13,19,15
318,0.0,0.0, 7,13, 1,15,0.0, 7,13, 1,15
355,197687796.27748066,18561.32405820678, 7,13, 4,15,724774.895203776, 7,18,18,15
403,197687796.27748066,18561.32405820678, 7,13, 4,15,724774.895203776, 7,18,18,15
476,106772067.24485716,7098.072629279515, 7,13, 4,15,356036.3026282215, 7,18,12,15
513,0.0,0.0, 7,13, 1,15,0.0, 7,13, 1,15
562,95152211.64188884,49047.49594983834, 7,13, 5,60,181103.97287117678, 7,13,14,15
1046,0.0,0.0, 7,13, 1,15,0.0, 7,13, 1,15
1096,1143239431.9743788,517115.51027959405, 7,13, 5,60,2423381.622818518, 7,15,18,60
1134,0.0,0.0, 7,13, 1,15,0.0, 7,13, 1,15
1326,118071725.31449862,0.0, 7,13, 1,15,4050000.0, 7,19,10,30
1379,0.0,0.0, 7,13, 1,15,0.0, 7,13, 1,15
1,ANNUAL,  33.43,-112.02,  -7.00, 337.40
5,365
1038,0.0,0.0, 1, 1, 1,15,0.0, 1, 1, 1,15
1039,1078.5,0.0, 1, 1, 1,15,0.25, 1,25,12,30
581,0.15524559921457323,0.0, 3,12,23, 3,1.2008831264806004, 1,21,19,60
582,3.5160763776755943,0.0, 1, 1, 1,30,26.910000335820516, 2,14,20,48
583,0.045064698674001404,0.0, 4,19,23, 3,0.11889787390565157, 8,17,19,32
1115,45917283.46299282,0.0, 1, 1, 1,15,1133134.2257052143,12,29, 6, 5
1128,13419421.09060724,0.0, 1, 1, 1,15,333496.9461848317,12,29, 6, 5
1153,327754.39694915,0.0, 1, 1, 1,15,23424.679780124552,12,29, 6, 5
1154,304663390.7877067,0.0, 1, 1, 1,15,180000.0, 1, 1, 2,60
1155,0.0,0.0, 1, 1, 1,15,0.0, 1, 1, 1,15
1156,0.0,0.0, 1, 1, 1,15,0.0, 1, 1, 1,15
1292,-1150104774.5328436,-38482.459517035764, 2,24, 6,60,-2176.7986134724633, 7,24,19,31
1306,8511088397.982305,0.0, 1, 1, 1,15,4050000.0, 1, 2, 8,60
1307,1518138870.6391,0.0, 1, 1, 1,15,10139731.212666461, 1,23, 8,30
1308,8511088397.982305,0.0, 1, 1, 1,15,4050000.0, 1, 2, 8,60
13,59410018476.99738,151703.1275401932, 1, 2, 4,15,6897345.740688354, 9,12,19,15
61,15743207428.383959,88139.10953165221, 1, 1, 1,15,1282023.4113694867, 1, 1,20,15
134,3685071073.4325233,63564.01800854099, 1, 2, 4,15,156554.22484006523, 1, 1,20,15
170,273393721.45532674,348.4159749238097, 1, 2, 4,15,17476.39704006126, 1, 1,12,15
207,339560869.0695816,815.2532113832032, 1, 2, 3,15,22990.642799023623, 1, 1,10,15
244,664895467.8009144,1521.856143006317, 1, 2, 4,15,53038.631142310165, 1, 1,20,15
281,2407221015.106824,59938.60262432081, 1, 1, 5,15,81951.81706819107, 1, 1,19,15
318,0.0,0.0, 1, 1, 1,15,0.0, 1, 1, 1,15
355,10310294493.051695,18561.32405820678, 1, 2, 4,15,724774.895203776, 1, 1,18,15
403,10310294493.051695,18561.32405820678, 1, 2, 4,15,724774.895203776, 1, 1,18,15
476,5569688622.066177,7098.072629279515, 1, 2, 4,15,356036.3026282215, 1, 1,12,15
513,0.0,0.0, 1, 1, 1,15,0.0, 1, 1, 1,15
562,2777414076.9161215,0.0, 1, 1, 1,15,181103.97287117684, 7,24,19,30
1046,0.0,0.0, 1, 1, 1,15,0.0, 1, 1, 1,15
1096,28374826934.00523,0.0, 1, 1, 1,15,2486810.1799385063, 6,22,15,60
1134,318410566.2752632,0.0, 1, 1, 1,15,502134.0537778743,12,29, 6,15
1326,8511088397.98229,0.0, 1, 1, 1,15,4050000.0000000014, 4,15, 9,45
1379,0.0,0.0, 1, 1, 1,15,0.0, 1, 1, 1,15
End of Data
 Number of Records Written=          99
