Program Version,EnergyPlus, Version 22.2.0-c249759bad, YMD=2023.09.01 14:31
1,5,Environment Title[],Latitude[deg],Longitude[deg],Time Zone[],Elevation[m]
2,8,Day of Simulation[],Month[],Day of Month[],DST Indicator[1=yes 0=no],Hour[],StartMinute[],EndMinute[],DayType
3,5,Cumulative Day of Simulation[],Month[],Day of Month[],DST Indicator[1=yes 0=no],DayType  ! When Daily Report Variables Requested
4,2,Cumulative Days of Simulation[],Month[]  ! When Monthly Report Variables Requested
5,1,Cumulative Days of Simulation[] ! When Run Period Report Variables Requested
6,1,Calendar Year of Simulation[] ! When Annual Report Variables Requested
7,1,Environment,Site Outdoor Air Drybulb Temperature [C] !Hourly
545,1,LIVING,Zone Mean Air Temperature [C] !Hourly
546,1,ATTIC,Zone Mean Air Temperature [C] !Hourly
547,1,CRAWLSPACE,Zone Mean Air Temperature [C] !Hourly
548,1,FAN,Fan Electricity Rate [W] !Hourly
720,1,LIVING,Zone Predicted Sensible Load to Heating Setpoint Heat Transfer Rate [W] !Hourly
721,1,LIVING,Zone System Predicted Sensible Load to Heating Setpoint Heat Transfer Rate [W] !Hourly
784,1,ATTIC,Zone Predicted Sensible Load to Heating Setpoint Heat Transfer Rate [W] !Hourly
785,1,ATTIC,Zone System Predicted Sensible Load to Heating Setpoint Heat Transfer Rate [W] !Hourly
848,1,CRAWLSPACE,Zone Predicted Sensible Load to Heating Setpoint Heat Transfer Rate [W] !Hourly
849,1,CRAWLSPACE,Zone System Predicted Sensible Load to Heating Setpoint Heat Transfer Rate [W] !Hourly
1121,1,DX_HEATING_COIL,Heating Coil Heating Rate [W] !Hourly
1135,1,DX_HEATING_COIL,Heating Coil Electricity Rate [W] !Hourly
1161,1,DX_HEATING_COIL,Heating Coil Defrost Electricity Rate [W] !Hourly
1163,1,DX_HEATING_COIL,Heating Coil Crankcase Heater Electricity Rate [W] !Hourly
1166,1,HEATING_RESISTANCE_BACKUP,Heating Coil Heating Rate [W] !Hourly
1168,1,HEATING_RESISTANCE_BACKUP,Heating Coil Electricity Rate [W] !Hourly
End of Data Dictionary
1,EXTREME_WINTER,  39.77, -94.92,  -6.00, 249.00
2,1,12,22, 0, 1, 0.00,60.00,Monday
7,-2.0
545,18.35787653075602
546,0.23662015577057316
547,18.8103205907327
548,131.697689296483
720,2665.1157893340205
721,2665.1157893340205
784,0.0
785,0.0
848,0.0
849,0.0
1121,3742.1220346611885
1135,1189.656231372786
1161,100.12757134551664
1163,26.99552253979991
1166,0.0
1168,0.0
2,1,12,22, 0, 2, 0.00,60.00,Monday
7,-2.2
545,18.47636601691885
546,0.9828232432021845
547,18.425784097418735
548,150.07140765222127
720,3091.899350642987
721,3091.899350642987
784,0.0
785,0.0
848,0.0
849,0.0
1121,4316.912477738925
1135,1350.403593930278
1161,112.19100033594223
1163,2.8375589905389464
1166,0.0
1168,0.0
2,1,12,22, 0, 3, 0.00,60.00,Monday
7,-2.2
545,18.576648683143798
546,1.226371662433505
547,18.27052992865433
548,147.00394445896728
720,3024.453052557792
721,3024.453052557792
784,0.0
785,0.0
848,0.0
849,0.0
1121,4260.423495463598
1135,1337.6378381679235
1161,99.37101738621617
1163,7.177445757534495
1166,0.0
1168,0.0
2,1,12,22, 0, 4, 0.00,60.00,Monday
7,-2.8
545,18.574513882992928
546,0.9763789383939474
547,18.06199219986744
548,154.6287459509058
720,3416.6042311606743
721,3416.6042311606743
784,0.0
785,0.0
848,0.0
849,0.0
1121,4404.644952886189
1135,1376.7808191704216
1161,107.5648767114172
1163,0.0
1166,340.63717139904884
1168,340.63717139904884
2,1,12,22, 0, 5, 0.00,60.00,Monday
7,-2.8
545,18.60048418520818
546,1.2771043392023327
547,17.899137319846808
548,154.6287459509058
720,3204.5999686766663
721,3204.5999686766663
784,0.0
785,0.0
848,0.0
849,0.0
1121,4482.690798170804
1135,1400.7814783106878
1161,89.81870050841228
1163,0.0
1166,45.88990080612348
1168,45.88990080612348
2,1,12,22, 0, 6, 0.00,60.00,Monday
7,-2.8
545,19.343142134223296
546,1.4019347589453122
547,17.739777671370728
548,154.6287459509058
720,4187.538008536019
721,4187.538008536019
784,0.0
785,0.0
848,0.0
849,0.0
1121,4479.972524325878
1135,1400.5839608250162
1161,90.33915611506818
1163,0.0
1166,1169.1097063544307
1168,1169.1097063544307
2,1,12,22, 0, 7, 0.00,60.00,Monday
7,-3.3
545,19.599885197117064
546,1.3722895849127457
547,17.62023797327407
548,154.6287459509058
720,3945.8311857910994
721,3945.8311857910994
784,0.0
785,0.0
848,0.0
849,0.0
1121,4419.807015164758
1135,1421.3654466762289
1161,85.77214843236418
1163,0.0
1166,1020.7348058168727
1168,1020.7348058168727
2,1,12,22, 0, 8, 0.00,60.00,Monday
7,-2.8
545,19.6897173407745
546,1.6359187880692674
547,17.494119304171868
548,154.6287459509058
720,3404.7847887759035
721,3404.7847887759035
784,0.0
785,0.0
848,0.0
849,0.0
1121,4494.603382901442
1135,1440.2208719865932
1161,81.64827418265114
1163,0.0
1166,345.0783284974523
1168,345.0783284974523
2,1,12,22, 0, 9, 0.00,60.00,Monday
7,-2.8
545,19.711646002928028
546,1.542465477650375
547,17.3664660122905
548,154.6287459509058
720,3413.638698267998
721,3413.638698267998
784,0.0
785,0.0
848,0.0
849,0.0
1121,4492.833544060329
1135,1442.6604442700925
1161,81.5959701385223
1163,0.0
1166,345.33007102962074
1168,345.33007102962074
2,1,12,22, 0,10, 0.00,60.00,Monday
7,-2.8
545,19.714405679754062
546,1.8997203137555836
547,17.243137106705195
548,154.6287459509058
720,3512.407133862178
721,3512.407133862178
784,0.0
785,0.0
848,0.0
849,0.0
1121,4489.666301330916
1135,1442.1978916462958
1161,82.23822525510187
1163,0.0
1166,470.9137497258657
1168,470.9137497258657
2,1,12,22, 0,11, 0.00,60.00,Monday
7,-2.8
545,19.727137034221247
546,2.136854202477116
547,17.129160818229632
548,154.6287459509058
720,3144.5924701290915
721,3144.5924701290915
784,0.0
785,0.0
848,0.0
849,0.0
1121,4489.743458833346
1135,1442.1064801589296
1161,82.23822525510187
1163,0.0
1166,33.74841524572594
1168,33.74841524572594
2,1,12,22, 0,12, 0.00,60.00,Monday
7,-2.2
545,19.73603620966418
546,3.0203225964278144
547,17.02342693623137
548,150.13553825177638
720,3127.6362794249035
721,3127.6362794249035
784,0.0
785,0.0
848,0.0
849,0.0
1121,4476.632572480376
1135,1438.1149906429073
1161,68.1552115235378
1163,4.0098149002378625
1166,0.0
1168,0.0
2,1,12,22, 0,13, 0.00,60.00,Monday
7,-1.7
545,19.85395006802744
546,4.645527622081788
547,16.936596209041213
548,113.05947466332533
720,2255.114758656664
721,2255.114758656664
784,0.0
785,0.0
848,0.0
849,0.0
1121,3302.886539467657
1135,1082.6209190939398
1161,55.106785175745856
1163,52.39940296037191
1166,0.0
1168,0.0
2,1,12,22, 0,14, 0.00,60.00,Monday
7,-1.7
545,19.815097569419148
546,5.7287151173092665
547,16.85603713930031
548,95.491994919322
720,1928.3906464058455
721,1928.3906464058455
784,0.0
785,0.0
848,0.0
849,0.0
1121,2750.1370172364445
1135,916.5083856669332
1161,46.56182057108546
1163,75.33280628944541
1166,0.0
1168,0.0
2,1,12,22, 0,15, 0.00,60.00,Monday
7,-1.1
545,19.86436606774765
546,6.488242324949674
547,16.79282579301892
548,79.11834935554886
720,1651.7611328174662
721,1651.7611328174662
784,0.0
785,0.0
848,0.0
849,0.0
1121,2299.562228425108
1135,765.4331203240696
1161,35.8530559068044
1163,96.85327359544635
1166,0.0
1168,0.0
2,1,12,22, 0,16, 0.00,60.00,Monday
7,-1.7
545,19.70832606559508
546,5.29652294633185
547,16.738024775896598
548,76.35396254265075
720,1608.3828281949664
721,1608.3828281949664
784,0.0
785,0.0
848,0.0
849,0.0
1121,2185.7799112419516
1135,738.4872994558691
1161,32.64963907906023
1163,100.43775105566188
1166,0.0
1168,0.0
2,1,12,22, 0,17, 0.00,60.00,Monday
7,-2.2
545,19.72958046798978
546,4.276669060523344
547,16.688430925777247
548,77.35277961446879
720,1584.844548855417
721,1584.844548855417
784,0.0
785,0.0
848,0.0
849,0.0
1121,2162.192611897664
1135,735.7217174156784
1161,39.27223026972797
1163,98.90524610992289
1166,0.0
1168,0.0
2,1,12,22, 0,18, 0.00,60.00,Monday
7,-2.2
545,19.76003927530815
546,3.104938974839734
547,16.645696364287705
548,80.26667783184698
720,1634.0934095117555
721,1634.0934095117555
784,0.0
785,0.0
848,0.0
849,0.0
1121,2247.169939372066
1135,763.3494420243142
1161,41.0580411443889
1163,95.08820374058593
1166,0.0
1168,0.0
2,1,12,22, 0,19, 0.00,60.00,Monday
7,-2.2
545,19.795673311180867
546,2.097603709905437
547,16.59710378740149
548,75.39305976614402
720,1492.7868354068505
721,1492.7868354068505
784,0.0
785,0.0
848,0.0
849,0.0
1121,2103.990443574574
1135,717.8308903468985
1161,38.2170488740847
1163,101.4679159219361
1166,0.0
1168,0.0
2,1,12,22, 0,20, 0.00,60.00,Monday
7,-2.2
545,19.446866144911425
546,1.4848642549986406
547,16.536137735834515
548,85.71217153784062
720,1709.7976627784028
721,1709.7976627784028
784,0.0
785,0.0
848,0.0
849,0.0
1121,2410.352992714543
1135,816.5111153051663
1161,43.48405263290789
1163,87.98054498028974
1166,0.0
1168,0.0
2,1,12,22, 0,21, 0.00,60.00,Monday
7,-2.2
545,19.66721637812751
546,1.3947213370592375
547,16.46311751514362
548,97.68089962053611
720,1971.5042319955955
721,1971.5042319955955
784,0.0
785,0.0
848,0.0
849,0.0
1121,2777.4636419660983
1135,924.0312538419176
1161,49.56463016149223
1163,72.34048675087928
1166,0.0
1168,0.0
2,1,12,22, 0,22, 0.00,60.00,Monday
7,-3.3
545,19.739699999378107
546,0.7440713196955965
547,16.396041223775462
548,106.86751065935233
720,2067.080821174546
721,2067.080821174546
784,0.0
785,0.0
848,0.0
849,0.0
1121,2961.660866545499
1135,1006.6607027966332
1161,54.94366154249591
1163,60.09325682599478
1166,0.0
1168,0.0
2,1,12,22, 0,23, 0.00,60.00,Monday
7,-3.9
545,18.90186399614013
546,-0.05358731534290308
547,16.31683427671221
548,82.06391871155384
720,1446.586826014891
721,1446.586826014891
784,0.0
785,0.0
848,0.0
849,0.0
1121,2206.8273172549852
1135,775.0793343084455
1161,38.52806979673381
1163,92.59598339743178
1166,0.0
1168,0.0
2,1,12,22, 0,24, 0.00,60.00,Monday
7,-5.6
545,18.58639748736794
546,-0.8999752303863362
547,16.19477967768261
548,111.83837304875539
720,2030.3958575526794
721,2030.3958575526794
784,0.0
785,0.0
848,0.0
849,0.0
1121,2929.581956278845
1135,1022.3365268526196
1161,56.743968103022155
1163,53.104261183684166
1166,0.0
1168,0.0
2,2,12,23, 0, 1, 0.00,60.00,Tuesday
7,-7.2
545,18.384981257932832
546,-1.9535276204740764
547,16.068739115912887
548,154.6287459509058
720,2925.6042374826757
721,2925.6042374826757
784,0.0
785,0.0
848,0.0
849,0.0
1121,4045.901954562479
1135,1380.4076348779925
1161,65.1149288459454
1163,0.0
1166,162.45250079996822
1168,162.45250079996822
2,2,12,23, 0, 2, 0.00,60.00,Tuesday
7,-6.1
545,18.508967824703042
546,-1.9531382078368205
547,15.976931803916525
548,154.6287459509058
720,3339.364387218593
721,3339.364387218593
784,0.0
785,0.0
848,0.0
849,0.0
1121,4180.415272003316
1135,1386.521511724158
1161,65.9796570569832
1163,0.0
1166,655.5508659738616
1168,655.5508659738616
2,2,12,23, 0, 3, 0.00,60.00,Tuesday
7,-6.1
545,18.559133965795276
546,-2.048068351943865
547,15.874714821201396
548,154.6287459509058
720,3840.7354188039335
721,3840.7354188039335
784,0.0
785,0.0
848,0.0
849,0.0
1121,4209.301664185409
1135,1400.274057462622
1161,58.045632617987735
1163,0.0
1166,1251.6896676883484
1168,1251.6896676883484
2,2,12,23, 0, 4, 0.00,60.00,Tuesday
7,-7.8
545,18.58126258537812
546,-2.569434661220671
547,15.759047167126672
548,154.6287459509058
720,3997.3560414571402
721,3997.3560414571402
784,0.0
785,0.0
848,0.0
849,0.0
1121,4031.2164015000567
1135,1391.5140196268642
1161,50.39151675548105
1163,0.0
1166,1633.990698937907
1168,1633.990698937907
2,2,12,23, 0, 5, 0.00,60.00,Tuesday
7,-7.8
545,18.592057719883506
546,-3.027820009685187
547,15.65468727095431
548,154.6287459509058
720,3904.858294790769
721,3904.858294790769
784,0.0
785,0.0
848,0.0
849,0.0
1121,4030.8833145243143
1135,1391.971915577475
1161,50.37739092078151
1163,0.0
1166,1561.7139068456354
1168,1561.7139068456354
2,2,12,23, 0, 6, 0.00,60.00,Tuesday
7,-7.8
545,19.334707647957256
546,-3.058768346693801
547,15.544824272587878
548,154.6287459509058
720,4970.2480291881675
721,4970.2480291881675
784,0.0
785,0.0
848,0.0
849,0.0
1121,4030.8449059273617
1135,1392.1496564583194
1161,50.35354111807614
1163,0.0
1166,2815.3538237171933
1168,2815.3538237171933
2,2,12,23, 0, 7, 0.00,60.00,Tuesday
7,-9.4
545,19.58583834483188
546,-3.321877173595581
547,15.458756710406254
548,154.6287459509058
720,4834.462180801354
721,4834.462180801354
784,0.0
785,0.0
848,0.0
849,0.0
1121,3837.8227984890636
1135,1397.4846492263428
1161,46.387460733052386
1163,0.0
1166,2935.5939744525726
1168,2935.5939744525726
2,2,12,23, 0, 8, 0.00,60.00,Tuesday
7,-8.9
545,19.66881550761137
546,-3.8656673379698567
547,15.364833911310388
548,154.6287459509058
720,4524.782430507174
721,4524.782430507174
784,0.0
785,0.0
848,0.0
849,0.0
1121,3877.44245195353
1135,1405.3739079934053
1161,50.084625091205154
1163,0.0
1166,2579.1697356902073
1168,2579.1697356902073
2,2,12,23, 0, 9, 0.00,60.00,Tuesday
7,-8.3
545,19.69848786320951
546,-2.7057522078638314
547,15.27068605295161
548,154.6287459509058
720,4132.937870856202
721,4132.937870856202
784,0.0
785,0.0
848,0.0
849,0.0
1121,3932.9861592693555
1135,1410.0139231738408
1161,53.790020656962675
1163,0.0
1166,2100.3911125490567
1168,2100.3911125490567
2,2,12,23, 0,10, 0.00,60.00,Tuesday
7,-5.0
545,19.71600291753046
546,-0.6115434956280899
547,15.197217293285295
548,154.6287459509058
720,3880.470137111861
721,3880.470137111861
784,0.0
785,0.0
848,0.0
849,0.0
1121,4292.316307651858
1135,1436.7604103428519
1161,64.35538149710086
1163,0.0
1166,1404.5967547096789
1168,1404.5967547096789
2,2,12,23, 0,11, 0.00,60.00,Tuesday
7,-4.4
545,19.733412272066907
546,1.563560261986826
547,15.110092234776543
548,154.6287459509058
720,3467.473068730549
721,3467.473068730549
784,0.0
785,0.0
848,0.0
849,0.0
1121,4404.320860130077
1135,1456.8334298195628
1161,55.374602787376595
1163,0.0
1166,709.1326618505109
1168,709.1326618505109
2,2,12,23, 0,12, 0.00,60.00,Tuesday
7,-3.9
545,19.74580099977799
546,3.703966375150079
547,15.041010638580467
548,154.4728932323043
720,3029.9574587683946
721,3029.9574587683946
784,0.0
785,0.0
848,0.0
849,0.0
1121,4480.870502890442
1135,1469.2588734784679
1161,51.14201754323607
1163,0.0
1166,0.0
1168,0.0
2,2,12,23, 0,13, 0.00,60.00,Tuesday
7,-2.2
545,19.819134133278606
546,5.300768945889688
547,14.979087096930796
548,129.14084021077483
720,2682.8336037400386
721,2682.8336037400386
784,0.0
785,0.0
848,0.0
849,0.0
1121,3878.848400499993
1135,1260.5540638875898
1161,37.161243568279225
1163,32.00450272716502
1166,0.0
1168,0.0
2,2,12,23, 0,14, 0.00,60.00,Tuesday
7,-2.8
545,19.799768832425737
546,6.4293685229021165
547,14.918542700224876
548,113.27120370303535
720,2330.6946134960344
721,2330.6946134960344
784,0.0
785,0.0
848,0.0
849,0.0
1121,3304.7308411485487
1135,1102.6614457575452
1161,32.16786790373699
1163,52.59231692466586
1166,0.0
1168,0.0
2,2,12,23, 0,15, 0.00,60.00,Tuesday
7,-2.8
545,19.74056145674834
546,5.846450266191685
547,14.879470589900796
548,110.12211188528335
720,2329.2280768061846
721,2329.2280768061846
784,0.0
785,0.0
848,0.0
849,0.0
1121,3203.781982159212
1135,1071.096091372445
1161,31.659001487798438
1163,56.67938766712324
1166,0.0
1168,0.0
2,2,12,23, 0,16, 0.00,60.00,Tuesday
7,-3.9
545,19.684047254694928
546,4.620184979616994
547,14.849925122142427
548,119.95648937633551
720,2494.525168079832
721,2494.525168079832
784,0.0
785,0.0
848,0.0
849,0.0
1121,3414.965484899542
1135,1156.8571898462299
1161,33.330550460536706
1163,43.77992025015147
1166,0.0
1168,0.0
2,2,12,23, 0,17, 0.00,60.00,Tuesday
7,-3.9
545,19.750841659938075
546,3.9053602610660687
547,14.822986218715032
548,113.29162345910787
720,2294.4464848891275
721,2294.4464848891275
784,0.0
785,0.0
848,0.0
849,0.0
1121,3209.4245651536958
1135,1091.3775306660946
1161,31.484473551112846
1163,52.4597296238269
1166,0.0
1168,0.0
2,2,12,23, 0,18, 0.00,60.00,Tuesday
7,-3.9
545,19.6698131535913
546,1.6101112620872862
547,14.801811527490155
548,118.70930994587113
720,2401.200174172789
721,2401.200174172789
784,0.0
785,0.0
848,0.0
849,0.0
1121,3374.366486576269
1135,1144.539456435471
1161,33.397678397286946
1163,45.390419080051345
1166,0.0
1168,0.0
2,2,12,23, 0,19, 0.00,60.00,Tuesday
7,-4.4
545,19.692447182289623
546,-0.08164229212970926
547,14.764689456543302
548,116.7126736943087
720,2267.029496003088
721,2267.029496003088
784,0.0
785,0.0
848,0.0
849,0.0
1121,3292.4127810246423
1135,1126.4168993307853
1161,26.358040248392474
1163,48.15399916922565
1166,0.0
1168,0.0
2,2,12,23, 0,20, 0.00,60.00,Tuesday
7,-5.0
545,19.707180179956204
546,-0.2909501743819979
547,14.729210117773238
548,120.62412550741342
720,2269.5322560164823
721,2269.5322560164823
784,0.0
785,0.0
848,0.0
849,0.0
1121,3378.329681674286
1135,1165.9460635815954
1161,21.06781040075459
1163,43.227937259072746
1166,0.0
1168,0.0
2,2,12,23, 0,21, 0.00,60.00,Tuesday
7,-5.0
545,19.704482707958206
546,-0.66758732683384
547,14.684868748971592
548,122.32025569300683
720,2280.2667579236568
721,2280.2667579236568
784,0.0
785,0.0
848,0.0
849,0.0
1121,3430.146942280704
1135,1182.627299384147
1161,21.364058017799486
1163,41.02346754329491
1166,0.0
1168,0.0
2,2,12,23, 0,22, 0.00,60.00,Tuesday
7,-5.0
545,19.596999056262305
546,-0.464926252254034
547,14.641921050741301
548,142.4203942641902
720,2722.871467665149
721,2722.871467665149
784,0.0
785,0.0
848,0.0
849,0.0
1121,4057.8681554191962
1135,1376.6523625183934
1161,24.89145203368325
1163,14.899268761161167
1166,0.0
1168,0.0
2,2,12,23, 0,23, 0.00,60.00,Tuesday
7,-5.0
545,19.028430177149026
546,-1.1657103912930777
547,14.56120868872479
548,101.85225347234771
720,1760.5283680705797
721,1760.5283680705797
784,0.0
785,0.0
848,0.0
849,0.0
1121,2812.7991759326255
1135,982.6361351086822
1161,17.794245839907905
1163,67.62541199386467
1166,0.0
1168,0.0
2,2,12,23, 0,24, 0.00,60.00,Tuesday
7,-5.6
545,18.607762898557144
546,-1.3628540114735064
547,14.488688340689933
548,125.71240693271083
720,2307.2154240641285
721,2307.2154240641285
784,0.0
785,0.0
848,0.0
849,0.0
1121,3454.7591276016083
1135,1184.621899200434
1161,30.44151733602164
1163,36.2334407168021
1166,0.0
1168,0.0
2,3,12,24, 0, 1, 0.00,60.00,Wednesday
7,-5.6
545,18.502968456524076
546,-0.9754151211002324
547,14.412592969338359
548,152.94630919134127
720,2911.6062418755537
721,2911.6062418755537
784,0.0
785,0.0
848,0.0
849,0.0
1121,4285.5602704938565
1135,1423.8016795421463
1161,42.19859793234771
1163,0.5553745657369324
1166,0.0
1168,0.0
2,3,12,24, 0, 2, 0.00,60.00,Wednesday
7,-5.6
545,18.55210629933085
546,-0.9862092272472988
547,14.334840088387452
548,154.6287459509058
720,3577.714461905647
721,3577.714461905647
784,0.0
785,0.0
848,0.0
849,0.0
1121,4309.253187201952
1135,1415.671934954776
1161,49.116768562158086
1163,0.0
1166,816.095163770904
1168,816.095163770904
2,3,12,24, 0, 3, 0.00,60.00,Wednesday
7,-5.6
545,18.583880264775622
546,-0.9643248289164975
547,14.264797627953381
548,154.6287459509058
720,3640.295876870794
721,3640.295876870794
784,0.0
785,0.0
848,0.0
849,0.0
1121,4278.227807844733
1135,1407.0906314206782
1161,56.50563303902962
1163,0.0
1166,946.8212614081058
1168,946.8212614081058
2,3,12,24, 0, 4, 0.00,60.00,Wednesday
7,-6.1
545,18.598797452856658
546,-0.7397393641534677
547,14.189183803205426
548,154.6287459509058
720,3545.131095182187
721,3545.131095182187
784,0.0
785,0.0
848,0.0
849,0.0
1121,4150.247699392911
1135,1380.204494733996
1161,72.91055306134237
1163,0.0
1166,968.797612464105
1168,968.797612464105
2,3,12,24, 0, 5, 0.00,60.00,Wednesday
7,-6.1
545,18.601838828181283
546,-0.8752934609180982
547,14.11686263537698
548,154.6287459509058
720,3599.5161874592904
721,3599.5161874592904
784,0.0
785,0.0
848,0.0
849,0.0
1121,4118.941656892213
1135,1370.1638636513721
1161,80.68999351107252
1163,0.0
1166,1053.8676420529464
1168,1053.8676420529464
2,3,12,24, 0, 6, 0.00,60.00,Wednesday
7,-6.1
545,19.33926381418212
546,-0.7971466653384128
547,14.04455678734886
548,154.6287459509058
720,4821.811672753274
721,4821.811672753274
784,0.0
785,0.0
848,0.0
849,0.0
1121,4150.024261710946
1135,1380.4625173320303
1161,72.91055306134237
1163,0.0
1166,2440.0955813504042
1168,2440.0955813504042
2,3,12,24, 0, 7, 0.00,60.00,Wednesday
7,-6.7
545,19.590300072124673
546,-0.9342996376587972
547,14.005735097258132
548,154.6287459509058
720,4694.015993185958
721,4694.015993185958
784,0.0
785,0.0
848,0.0
849,0.0
1121,4070.3420705653834
1135,1396.4622059624087
1161,70.41403455863414
1163,0.0
1166,2454.2166442776224
1168,2454.2166442776224
2,3,12,24, 0, 8, 0.00,60.00,Wednesday
7,-7.2
545,19.66838214320905
546,-1.569137285409881
547,13.941790945085668
548,154.6287459509058
720,4591.16406493455
721,4591.16406493455
784,0.0
785,0.0
848,0.0
849,0.0
1121,4044.9960022476216
1135,1411.230395620433
1161,59.918648399915014
1163,0.0
1166,2395.704856672679
1168,2395.704856672679
2,3,12,24, 0, 9, 0.00,60.00,Wednesday
7,-7.8
545,19.699428776988697
546,-1.530861691966471
547,13.880135265882826
548,154.6287459509058
720,4141.151268148844
721,4141.151268148844
784,0.0
785,0.0
848,0.0
849,0.0
1121,3958.078893391986
1135,1401.2584856769834
1161,63.43432462974739
1163,0.0
1166,1995.8268019361785
1168,1995.8268019361785
2,3,12,24, 0,10, 0.00,60.00,Wednesday
7,-7.2
545,19.707300829330045
546,-1.6895803069312936
547,13.821410257653604
548,154.6287459509058
720,4043.8533640338173
721,4043.8533640338173
784,0.0
785,0.0
848,0.0
849,0.0
1121,4042.5591501532763
1135,1414.0136038724272
1161,59.918648399915014
1163,0.0
1166,1797.835389405292
1168,1797.835389405292
2,3,12,24, 0,11, 0.00,60.00,Wednesday
7,-6.7
545,19.703581767613244
546,-1.6098281006240365
547,13.75926313204358
548,154.6287459509058
720,4202.959815011447
721,4202.959815011447
784,0.0
785,0.0
848,0.0
849,0.0
1121,4115.151978165537
1135,1424.3857858878641
1161,56.78748811123861
1163,0.0
1166,1925.8891379601928
1168,1925.8891379601928
2,3,12,24, 0,12, 0.00,60.00,Wednesday
7,-6.1
545,19.738589599370588
546,0.24096007943106254
547,13.723729130710273
548,154.6287459509058
720,2797.3075181446948
721,2797.3075181446948
784,0.0
785,0.0
848,0.0
849,0.0
1121,4235.686560185078
1135,1447.6327304744711
1161,44.939710213298426
1163,0.0
1166,183.03391742270378
1168,183.03391742270378
2,3,12,24, 0,13, 0.00,60.00,Wednesday
7,-5.6
545,19.78085987774568
546,1.4903269382954727
547,13.690126188179871
548,145.15511380147345
720,2581.691087419251
721,2581.691087419251
784,0.0
785,0.0
848,0.0
849,0.0
1121,4036.4230834519835
1135,1385.5575810375833
1161,35.07698427516913
1163,10.903179974538979
1166,0.0
1168,0.0
2,3,12,24, 0,14, 0.00,60.00,Wednesday
7,-5.0
545,19.92231894968045
546,1.0170429084841808
547,13.649881605970178
548,99.22489659607992
720,1700.7198638243553
721,1700.7198638243553
784,0.0
785,0.0
848,0.0
849,0.0
1121,2732.850429530438
1135,959.7785288144338
1161,17.297048477186845
1163,71.04105875385234
1166,0.0
1168,0.0
2,3,12,24, 0,15, 0.00,60.00,Wednesday
7,-4.4
545,20.163277856405163
546,2.475542072320781
547,13.62832317141187
548,47.08575041685875
720,702.3411949107012
721,702.3411949107012
784,0.0
785,0.0
848,0.0
849,0.0
1121,1274.1826118221552
1135,460.99107889669835
1161,6.433622797112714
1163,138.88367642429426
1166,0.0
1168,0.0
2,3,12,24, 0,16, 0.00,60.00,Wednesday
7,-5.6
545,19.334511779014175
546,-0.11633573927014863
547,13.643876418107885
548,31.120331393003198
720,466.795218796884
721,466.795218796884
784,0.0
785,0.0
848,0.0
849,0.0
1121,803.8594666059254
1135,303.4848540269619
1161,3.957941809016617
1163,159.5975130756275
1166,0.0
1168,0.0
2,3,12,24, 0,17, 0.00,60.00,Wednesday
7,-6.7
545,20.083944477149718
546,-0.5816959109271952
547,13.69951627008543
548,58.13740493652143
720,1025.9079326973933
721,1025.9079326973933
784,0.0
785,0.0
848,0.0
849,0.0
1121,1489.7672931345144
1135,552.7612628643307
1161,7.564883026556641
1163,124.48220989081977
1166,0.0
1168,0.0
2,3,12,24, 0,18, 0.00,60.00,Wednesday
7,-8.3
545,19.54212044025779
546,-2.908333282865499
547,13.760749078595914
548,81.29707752409477
720,1339.419157893577
721,1339.419157893577
784,0.0
785,0.0
848,0.0
849,0.0
1121,2011.4782385603603
1135,773.6895494439729
1161,10.739562906839813
1163,94.31252159938704
1166,0.0
1168,0.0
2,3,12,24, 0,19, 0.00,60.00,Wednesday
7,-7.8
545,19.55377471997797
546,-4.09094306938532
547,13.77426217860188
548,103.01451144444658
720,1728.337594455381
721,1728.337594455381
784,0.0
785,0.0
848,0.0
849,0.0
1121,2646.7078702161825
1135,976.3040700900485
1161,11.541087739528646
1163,66.21241355357121
1166,0.0
1168,0.0
2,3,12,24, 0,20, 0.00,60.00,Wednesday
7,-7.8
545,19.582543889560114
546,-4.624670737587585
547,13.771853532663707
548,116.46880469023702
720,1901.1685222299175
721,1901.1685222299175
784,0.0
785,0.0
848,0.0
849,0.0
1121,3023.5985772425124
1135,1104.0006993691786
1161,13.047124354803296
1163,48.739008227168746
1166,0.0
1168,0.0
2,3,12,24, 0,21, 0.00,60.00,Wednesday
7,-7.8
545,19.5337024454205
546,-4.930791194413335
547,13.749848103593353
548,134.85163002655202
720,2185.180585062124
721,2185.180585062124
784,0.0
785,0.0
848,0.0
849,0.0
1121,3532.7292099984866
1135,1273.7753686287328
1161,20.269534123637957
1163,24.616335571816062
1166,0.0
1168,0.0
2,3,12,24, 0,22, 0.00,60.00,Wednesday
7,-8.3
545,19.589879242103795
546,-5.053311789112377
547,13.706161185920497
548,154.6287459509058
720,2726.9155201253798
721,2726.9155201253798
784,0.0
785,0.0
848,0.0
849,0.0
1121,4042.0766920947876
1135,1441.053399725924
1161,25.886177697621804
1163,0.0
1166,365.5797398627283
1168,365.5797398627283
2,3,12,24, 0,23, 0.00,60.00,Wednesday
7,-8.9
545,18.944372419866454
546,-5.203903808644081
547,13.643679651531363
548,154.4116719042814
720,2276.5022923737833
721,2276.5022923737833
784,0.0
785,0.0
848,0.0
849,0.0
1121,3949.797839656565
1135,1430.3912338473278
1161,29.333544914594885
1163,0.0
1166,0.0
1168,0.0
2,3,12,24, 0,24, 0.00,60.00,Wednesday
7,-8.9
545,18.71565621777606
546,-5.583839578830752
547,13.539715785016986
548,154.6287459509058
720,2871.06653655268
721,2871.06653655268
784,0.0
785,0.0
848,0.0
849,0.0
1121,3990.2438718096314
1135,1419.7712349771716
1161,24.07299247605483
1163,0.0
1166,604.443864585086
1168,604.443864585086
2,4,12,25, 0, 1, 0.00,60.00,Thursday
7,-8.9
545,18.631904588332212
546,-4.813422222820702
547,13.457856067552077
548,154.6287459509058
720,3265.660145588645
721,3265.660145588645
784,0.0
785,0.0
848,0.0
849,0.0
1121,3995.8494352724842
1135,1413.4970336204997
1161,24.070623307176376
1163,0.0
1166,1064.5857624944629
1168,1064.5857624944629
2,4,12,25, 0, 2, 0.00,60.00,Thursday
7,-10.0
545,18.60557406094703
546,-4.9523838737247585
547,13.359888128131997
548,154.6287459509058
720,3639.020035978592
721,3639.020035978592
784,0.0
785,0.0
848,0.0
849,0.0
1121,3864.0491899535014
1135,1396.8713347172845
1161,24.631258068825797
1163,0.0
1166,1594.748121508999
1168,1594.748121508999
2,4,12,25, 0, 3, 0.00,60.00,Thursday
7,-9.4
545,18.59628363250186
546,-5.586919576834387
547,13.279872277990618
548,154.6287459509058
720,3803.699727307483
721,3803.699727307483
784,0.0
785,0.0
848,0.0
849,0.0
1121,3948.1812511342096
1135,1407.6369845764968
1161,21.376188833759635
1163,0.0
1166,1711.2157046358807
1168,1711.2157046358807
2,4,12,25, 0, 4, 0.00,60.00,Thursday
7,-10.0
545,18.578063320941506
546,-5.490585453440576
547,13.184501286667269
548,154.6287459509058
720,4444.266661344605
721,4444.266661344605
784,0.0
785,0.0
848,0.0
849,0.0
1121,3865.1298812547793
1135,1395.6629674113817
1161,24.63368045688627
1163,0.0
1166,2572.985201287548
1168,2572.985201287548
2,4,12,25, 0, 5, 0.00,60.00,Thursday
7,-9.4
545,18.591269731553364
546,-5.077503085397733
547,13.106176073196291
548,154.6287459509058
720,4206.00569956055
721,4206.00569956055
784,0.0
785,0.0
848,0.0
849,0.0
1121,3930.7230889249904
1135,1400.1119312680455
1161,26.445187098607793
1163,0.0
1166,2247.3405032053824
1168,2247.3405032053824
2,4,12,25, 0, 6, 0.00,60.00,Thursday
7,-8.9
545,19.345886828399752
546,-5.031270494369918
547,13.027049152908845
548,154.6287459509058
720,5039.631263138734
721,5039.631263138734
784,0.0
785,0.0
848,0.0
849,0.0
1121,3980.083349430111
1135,1402.7492196046749
1161,29.319469850334904
1163,0.0
1166,3134.046953047848
1168,3134.046953047848
2,4,12,25, 0, 7, 0.00,60.00,Thursday
7,-8.3
545,19.594912309823428
546,-5.214320913786662
547,12.987544744267305
548,154.6287459509058
720,4733.812011069696
721,4733.812011069696
784,0.0
785,0.0
848,0.0
849,0.0
1121,4047.648711937032
1135,1434.9445938224158
1161,25.854142250094082
1163,0.0
1166,2786.245256094519
1168,2786.245256094519
2,4,12,25, 0, 8, 0.00,60.00,Thursday
7,-8.9
545,19.67107257798213
546,-5.121628822265563
547,12.914061654744254
548,154.6287459509058
720,4501.242886470964
721,4501.242886470964
784,0.0
785,0.0
848,0.0
849,0.0
1121,3975.43071712779
1135,1436.4881553057278
1161,24.050031197769364
1163,0.0
1166,2619.6640871101176
1168,2619.6640871101176
2,4,12,25, 0, 9, 0.00,60.00,Thursday
7,-8.3
545,19.696104804209334
546,-4.362469656402385
547,12.854739697278045
548,154.6287459509058
720,4356.539744005378
721,4356.539744005378
784,0.0
785,0.0
848,0.0
849,0.0
1121,4076.404989385589
1135,1456.702882651429
1161,16.039964219020018
1163,0.0
1166,2357.2005427141926
1168,2357.2005427141926
2,4,12,25, 0,10, 0.00,60.00,Thursday
7,-6.7
545,19.70647677282922
546,-2.0470641872123108
547,12.802023144797639
548,154.6287459509058
720,4299.087335053009
721,4299.087335053009
784,0.0
785,0.0
848,0.0
849,0.0
1121,4279.169712261723
1135,1478.8475662766173
1161,15.106317125001318
1163,0.0
1166,2064.407896505315
1168,2064.407896505315
2,4,12,25, 0,11, 0.00,60.00,Thursday
7,-6.7
545,19.730587532788054
546,0.028469376398125575
547,12.750168841966715
548,154.6287459509058
720,3726.101024176216
721,3726.101024176216
784,0.0
785,0.0
848,0.0
849,0.0
1121,4260.098025077519
1135,1472.5513534110416
1161,19.9466628096432
1163,0.0
1166,1307.9297015887819
1168,1307.9297015887819
2,4,12,25, 0,12, 0.00,60.00,Thursday
7,-6.7
545,19.73078252757685
546,0.8995652609076215
547,12.711561769397065
548,154.6287459509058
720,3701.173103733072
721,3701.173103733072
784,0.0
785,0.0
848,0.0
849,0.0
1121,4259.520397299099
1135,1473.114938582322
1161,19.96377605035659
1163,0.0
1166,1157.49832322465
1168,1157.49832322465
2,4,12,25, 0,13, 0.00,60.00,Thursday
7,-6.1
545,19.736085188746593
546,2.694427720767648
547,12.690818927128841
548,154.6287459509058
720,3255.7670273928725
721,3255.7670273928725
784,0.0
785,0.0
848,0.0
849,0.0
1121,4349.127716680345
1135,1485.3166009138813
1161,16.530958876584215
1163,0.0