Program Version,EnergyPlus, Version 22.2.0-c249759bad, YMD=2023.09.01 14:30
1,5,Environment Title[],Latitude[deg],Longitude[deg],Time Zone[],Elevation[m]
2,8,Day of Simulation[],Month[],Day of Month[],DST Indicator[1=yes 0=no],Hour[],StartMinute[],EndMinute[],DayType
3,5,Cumulative Day of Simulation[],Month[],Day of Month[],DST Indicator[1=yes 0=no],DayType  ! When Daily Report Variables Requested
4,2,Cumulative Days of Simulation[],Month[]  ! When Monthly Report Variables Requested
5,1,Cumulative Days of Simulation[] ! When Run Period Report Variables Requested
6,1,Calendar Year of Simulation[] ! When Annual Report Variables Requested
7,1,Environment,Site Outdoor Air Drybulb Temperature [C] !Hourly
619,1,DX_HEATING_COIL,Heating Coil Heating Rate [W] !Hourly
633,1,DX_HEATING_COIL,Heating Coil Electricity Rate [W] !Hourly
659,1,DX_HEATING_COIL,Heating Coil Defrost Electricity Rate [W] !Hourly
661,1,DX_HEATING_COIL,Heating Coil Crankcase Heater Electricity Rate [W] !Hourly
690,1,FAN,Fan Electricity Rate [W] !Hourly
716,1,HEAT PUMP WATER HEATER FAN,Fan Electricity Rate [W] !Hourly
718,1,LIVING,Zone Mean Air Temperature [C] !Hourly
719,1,ATTIC,Zone Mean Air Temperature [C] !Hourly
720,1,CRAWLSPACE,Zone Mean Air Temperature [C] !Hourly
843,1,LIVING,Zone Predicted Sensible Load to Heating Setpoint Heat Transfer Rate [W] !Hourly
844,1,LIVING,Zone System Predicted Sensible Load to Heating Setpoint Heat Transfer Rate [W] !Hourly
907,1,ATTIC,Zone Predicted Sensible Load to Heating Setpoint Heat Transfer Rate [W] !Hourly
908,1,ATTIC,Zone System Predicted Sensible Load to Heating Setpoint Heat Transfer Rate [W] !Hourly
971,1,CRAWLSPACE,Zone Predicted Sensible Load to Heating Setpoint Heat Transfer Rate [W] !Hourly
972,1,CRAWLSPACE,Zone System Predicted Sensible Load to Heating Setpoint Heat Transfer Rate [W] !Hourly
1195,1,HEATING_RESISTANCE_BACKUP,Heating Coil Heating Rate [W] !Hourly
1197,1,HEATING_RESISTANCE_BACKUP,Heating Coil Electricity Rate [W] !Hourly
End of Data Dictionary
1,EXTREME_WINTER,  39.73, -86.27,  -5.00, 241.10
2,1,12,15, 0, 1, 0.00,60.00,Monday
7,-12.2
718,18.64475597675928
719,-6.973326505724439
720,18.881788659378913
619,3433.198696321538
633,1313.9611113740739
659,10.246382285805707
661,0.0
690,150.40495067590098
716,0.0
843,4029.8140866499452
844,4029.8140866499452
907,0.0
908,0.0
971,0.0
972,0.0
1195,2638.993302468555
1197,2638.993302468555
2,1,12,15, 0, 2, 0.00,60.00,Monday
7,-13.3
718,18.614717468281
719,-6.967260217096301
720,18.484945029421098
619,3329.5452124562294
633,1304.0892614188497
659,6.018547522361713
661,0.0
690,150.40495067590098
716,0.0
843,4275.91636419536
844,4275.91636419536
907,0.0
908,0.0
971,0.0
972,0.0
1195,2908.082697135971
1197,2908.082697135971
2,1,12,15, 0, 3, 0.00,60.00,Monday
7,-14.4
718,18.60887102341407
719,-7.068137078952468
720,18.304035317574442
619,3193.602499905919
633,1280.7442194124696
659,12.629918517107491
661,0.0
690,150.40495067590098
716,0.0
843,4379.833333328268
844,4379.833333328268
907,0.0
908,0.0
971,0.0
972,0.0
1195,3180.9188288048804
1197,3180.9188288048804
2,1,12,15, 0, 4, 0.00,60.00,Monday
7,-14.4
718,18.602770938505017
719,-7.607967160247503
720,18.089582098191627
619,3193.9053080517674
633,1280.433968824119
659,12.629918517107491
661,0.0
690,150.40495067590098
716,0.0
843,4560.2924465167725
844,4560.2924465167725
907,0.0
908,0.0
971,0.0
972,0.0
1195,3392.026134191008
1197,3392.026134191008
2,1,12,15, 0, 5, 0.00,60.00,Monday
7,-15.0
718,18.603445634776282
719,-8.321338284533985
720,17.894414228937585
619,3126.227975958385
633,1269.9249051142551
659,14.565021258812521
661,0.0
690,150.40495067590098
716,0.0
843,4787.620960956076
844,4787.620960956076
907,0.0
908,0.0
971,0.0
972,0.0
1195,3780.780844684703
1197,3780.780844684703
2,1,12,15, 0, 6, 0.00,60.00,Monday
7,-16.1
718,19.374010568480653
719,-8.12822849775598
720,17.70220514815163
619,3012.4704009518787
633,1254.3972599129054
659,15.257041834621395
661,0.0
690,150.40495067590098
716,0.0
843,6041.924821602412
844,6041.924821602412
907,0.0
908,0.0
971,0.0
972,0.0
1195,5421.079905326759
1197,5421.079905326759
2,1,12,15, 0, 7, 0.00,60.00,Monday
7,-16.1
718,19.524318562142337
719,-8.159399569895276
720,17.55649167117487
619,2995.6568348422666
633,1270.9176200631161
659,15.257041834621395
661,0.0
690,150.40495067590098
716,85.44000000000005
843,5866.185291486627
844,5866.185291486627
907,0.0
908,0.0
971,0.0
972,0.0
1195,6241.182854387507
1197,6241.182854387507
2,1,12,15, 0, 8, 0.00,60.00,Monday
7,-13.9
718,19.63538974541035
719,-7.374430015327283
720,17.404078526445637
619,3213.734463706012
633,1302.0160226797968
659,16.728518873118645
661,0.0
690,150.40495067590098
716,85.44000000000005
843,5310.921227558467
844,5310.921227558467
907,0.0
908,0.0
971,0.0
972,0.0
1195,5548.403670806485
1197,5548.403670806485
2,1,12,15, 0, 9, 0.00,60.00,Monday
7,-12.2
718,19.696488132669327
719,-6.59909904613904
720,17.25488133673283
619,3401.0758714361386
633,1330.0225244556852
659,14.030172242228327
661,0.0
690,150.40495067590098
716,9.405189437076734
843,5207.4455859650225
844,5207.4455859650225
907,0.0
908,0.0
971,0.0
972,0.0
1195,4213.795480721448
1197,4213.795480721448
2,1,12,15, 0,10, 0.00,60.00,Monday
7,-12.2
718,19.70885912929155
719,-5.121275965571713
720,17.102005434913245
619,3399.8599939214296
633,1331.3115305237543
659,14.030172242228327
661,0.0
690,150.40495067590098
716,0.0
843,4804.6145722739
844,4804.6145722739
907,0.0
908,0.0
971,0.0
972,0.0
1195,3568.7382377429517
1197,3568.7382377429517
2,1,12,15, 0,11, 0.00,60.00,Monday
7,-10.0
718,19.724056394715358
719,-1.4725372424372791
720,16.982281362102825
619,3666.844552716771
633,1368.1777757364907
659,7.2030637262692805
661,0.0
690,150.40495067590098
716,0.0
843,3665.384709624428
844,3665.384709624428
907,0.0
908,0.0
971,0.0
972,0.0
1195,1869.4930121966393
1197,1869.4930121966393
2,1,12,15, 0,12, 0.00,60.00,Monday
7,-9.4
718,19.722160898824146
719,1.1316760198480655
720,16.861710031770095
619,3758.532189046955
633,1384.524933277654
659,0.6554565762355099
661,0.0
690,150.40495067590098
716,0.0
843,3223.340848584099
844,3223.340848584099
907,0.0
908,0.0
971,0.0
972,0.0
1195,1046.2804048768908
1197,1046.2804048768908
2,1,12,15, 0,13, 0.00,60.00,Monday
7,-9.4
718,19.726687150759325
719,3.782905485399465
720,16.76277700043865
619,3758.7252568274844
633,1384.3106617124427
659,0.6554565762355099
661,0.0
690,150.40495067590098
716,0.0
843,2760.091177592394
844,2760.091177592394
907,0.0
908,0.0
971,0.0
972,0.0
1195,358.5381796798374
1197,358.5381796798374
2,1,12,15, 0,14, 0.00,60.00,Monday
7,-7.2
718,19.72312805238527
719,2.9823267053879063
720,16.701215785971137
619,4019.5054050156346
633,1412.179321572398
659,0.07245299568332787
661,0.0
690,150.40495067590098
716,78.08220934638805
843,2353.823135316841
844,2353.823135316841
907,0.0
908,0.0
971,0.0
972,0.0
1195,431.472035589039
1197,431.472035589039
2,1,12,15, 0,15, 0.00,60.00,Monday
7,-7.2
718,19.75809702846398
719,2.3228922706747097
720,16.64671332860927
619,3338.5069402926856
633,1195.822083728717
659,3.7089037866778356
661,29.941811403073658
690,127.75657507798556
716,0.0
843,2282.9257040738357
844,2282.9257040738357
907,0.0
908,0.0
971,0.0
972,0.0
1195,0.0
1197,0.0
2,1,12,15, 0,16, 0.00,60.00,Monday
7,-7.2
718,19.747977330630466
719,1.305339668499441
720,16.607258686423016
619,3058.88869650473
633,1105.257296937303
659,3.425735221432201
661,42.92546804206052
690,118.00255066987064
716,0.0
843,2072.2211661307047
844,2072.2211661307047
907,0.0
908,0.0
971,0.0
972,0.0
1195,0.0
1197,0.0
2,1,12,15, 0,17, 0.00,60.00,Monday
7,-8.3
718,19.761415913055117
719,-0.9077715744799154
720,16.570929969441437
619,2505.8092980431297
633,940.3356446391531
659,7.602687494042973
661,64.16350792452674
690,101.85135306681337
716,0.0
843,1649.7786415593673
844,1649.7786415593673
907,0.0
908,0.0
971,0.0
972,0.0
1195,0.0
1197,0.0
2,1,12,15, 0,18, 0.00,60.00,Monday
7,-8.9
718,19.672828699610317
719,-2.681757070853178
720,16.528190399872877
619,3388.5638209784656
633,1252.866278130044
659,9.214319009621324
661,18.2451742577457
690,136.29852708706795
716,0.0
843,2142.9566445281125
844,2142.9566445281125
907,0.0
908,0.0
971,0.0
972,0.0
1195,0.0
1197,0.0
2,1,12,15, 0,19, 0.00,60.00,Monday
7,-8.9
718,19.660135733260482
719,-3.725758337835172
720,16.483721304802007
619,3783.626838064653
633,1376.1767042425045
659,10.13928402945197
661,0.0
690,150.40495067590098
716,85.44000000000005
843,2298.1287687509066
844,2298.1287687509066
907,0.0
908,0.0
971,0.0
972,0.0
1195,1131.471390147247
1197,1131.471390147247
2,1,12,15, 0,20, 0.00,60.00,Monday
7,-8.9
718,19.686228560172438
719,-4.991484991525067
720,16.421395088457587
619,3812.233787203533
633,1386.0275311023402
659,2.3967991093418504
661,0.0
690,150.40495067590098
716,85.44000000000005
843,3334.155774221954
844,3334.155774221954
907,0.0
908,0.0
971,0.0
972,0.0
1195,2420.6955671538244
1197,2420.6955671538244
2,1,12,15, 0,21, 0.00,60.00,Monday
7,-10.0
718,19.69846634754301
719,-5.807074247328561
720,16.341570130419655
619,3693.0418657247164
633,1375.8972725674346
659,0.16492166121745663
661,0.0
690,150.40495067590098
716,48.344498956178796
843,3514.7120602651594
844,3514.7120602651594
907,0.0
908,0.0
971,0.0
972,0.0
1195,2316.3404754205794
1197,2316.3404754205794
2,1,12,15, 0,22, 0.00,60.00,Monday
7,-10.0
718,19.710064579725472
719,-6.152456331984267
720,16.255453101077485
619,3692.854987265564
633,1376.1028990840252
659,0.16492166121745663
661,0.0
690,150.40495067590098
716,0.0
843,3823.1442391442724
844,3823.1442391442724
907,0.0
908,0.0
971,0.0
972,0.0
1195,2084.3685857382497
1197,2084.3685857382497
2,1,12,15, 0,23, 0.00,60.00,Monday
7,-11.7
718,18.962980982915514
719,-7.516163457163487
720,16.142180303425654
619,3501.82421698026
633,1354.7864240019094
659,0.07245299568332787
661,0.0
690,150.40495067590098
716,0.0
843,3249.7621093745256
844,3249.7621093745256
907,0.0
908,0.0
971,0.0
972,0.0
1195,1622.7534808932724
1197,1622.7534808932724
2,1,12,15, 0,24, 0.00,60.00,Monday
7,-12.8
718,18.717888980962993
719,-8.702298407505902
720,15.990565791060087
619,3394.9327889698693
633,1320.9880052796366
659,1.1450012172987465
661,0.0
690,150.40495067590098
716,0.0
843,4297.073552715525
844,4297.073552715525
907,0.0
908,0.0
971,0.0
972,0.0
1195,2990.2453218547475
1197,2990.2453218547475
2,2,12,16, 0, 1, 0.00,60.00,Tuesday
7,-12.8
718,18.63783926450007
719,-8.90924435441023
720,15.867187211521705
619,3400.663849761316
633,1314.9366065598904
659,1.1450012172987465
661,0.0
690,150.40495067590098
716,0.0
843,4848.567303827236
844,4848.567303827236
907,0.0
908,0.0
971,0.0
972,0.0
1195,3706.861091089483
1197,3706.861091089483
2,2,12,16, 0, 2, 0.00,60.00,Tuesday
7,-14.4
718,18.61422711658666
719,-8.897372679809372
720,15.72902693223121
619,3229.8301622091153
633,1291.8712067853764
659,1.660887557692697
661,0.0
690,150.40495067590098
716,0.0
843,4518.839228384666
844,4518.839228384666
907,0.0
908,0.0
971,0.0
972,0.0
1195,3473.648157907919
1197,3473.648157907919
2,2,12,16, 0, 3, 0.00,60.00,Tuesday
7,-14.4
718,18.60647373570468
719,-9.762395784855153
720,15.594198914422218
619,3230.5294721596974
633,1291.156683934637
659,1.660254265112271
661,0.0
690,150.40495067590098
716,0.0
843,4946.089111293728
844,4946.089111293728
907,0.0
908,0.0
971,0.0
972,0.0
1195,3999.8714484462894
1197,3999.8714484462894
2,2,12,16, 0, 4, 0.00,60.00,Tuesday
7,-14.4
718,18.600229089037697
719,-9.851648173074773
720,15.459472754693527
619,3230.861625139805
633,1290.8159044817467
659,1.660254265112271
661,0.0
690,150.40495067590098
716,0.0
843,5136.040799847457
844,5136.040799847457
907,0.0
908,0.0
971,0.0
972,0.0
1195,4262.086048122417
1197,4262.086048122417
2,2,12,16, 0, 5, 0.00,60.00,Tuesday
7,-15.0
718,18.6042305791504
719,-9.646254739715046
720,15.322058631266298
619,3162.638551285919
633,1280.4289866121385
659,3.530223306443228
661,0.0
690,150.40495067590098
716,0.0
843,5095.9434457795105
844,5095.9434457795105
907,0.0
908,0.0
971,0.0
972,0.0
1195,4303.710362224598
1197,4303.710362224598
2,2,12,16, 0, 6, 0.00,60.00,Tuesday
7,-15.6
718,19.37982475127824
719,-10.122710107045275
720,15.183237925154229
619,3102.3890554908417
633,1273.129752486776
659,2.9666218002668203
661,0.0
690,150.40495067590098
716,0.0
843,6532.991697510846
844,6532.991697510846
907,0.0
908,0.0
971,0.0
972,0.0
1195,6059.272348349561
1197,6059.272348349561
2,2,12,16, 0, 7, 0.00,60.00,Tuesday
7,-15.6
718,19.260364538281642
719,-10.076234892806353
720,15.08597541155014
619,3085.2814950496945
633,1290.1642574347413
659,2.9666218002668203
661,0.0
690,150.40495067590098
716,85.44000000000005
843,6315.055326807109
844,6315.055326807109
907,0.0
908,0.0
971,0.0
972,0.0
1195,6241.182854387507
1197,6241.182854387507
2,2,12,16, 0, 8, 0.00,60.00,Tuesday
7,-15.6
718,19.397426839389652
719,-9.169455866200682
720,14.951101268927808
619,3079.7909692705252
633,1283.9639347951213
659,5.763505536650312
661,0.0
690,150.40495067590098
716,85.44000000000005
843,5892.433152767257
844,5892.433152767257
907,0.0
908,0.0
971,0.0
972,0.0
1195,6241.182854387507
1197,6241.182854387507
2,2,12,16, 0, 9, 0.00,60.00,Tuesday
7,-14.4
718,19.528991578491034
719,-9.571441821526854
720,14.839963447221875
619,3197.0948360085454
633,1301.3337785268004
659,7.125507713789468
661,0.0
690,150.40495067590098
716,85.44000000000005
843,5875.721138627168
844,5875.721138627168
907,0.0
908,0.0
971,0.0
972,0.0
1195,6241.182854387507
1197,6241.182854387507
2,2,12,16, 0,10, 0.00,60.00,Tuesday
7,-14.4
718,19.654686162721784
719,-8.632190170459236
720,14.730419351547303
619,3194.2732339990184
633,1304.2049936857013
659,7.125507713789468
661,0.0
690,150.40495067590098
716,19.308396236798117
843,4967.976897697046
844,4967.976897697046
907,0.0
908,0.0
971,0.0
972,0.0
1195,4418.938278205131
1197,4418.938278205131
2,2,12,16, 0,11, 0.00,60.00,Tuesday
7,-12.8
718,19.711557240965504
719,-5.552021188389536
720,14.658549779749531
619,3384.340420602021
633,1337.14768393921
659,0.07245299568332787
661,0.0
690,150.40495067590098
716,0.0
843,3302.8913123299517
844,3302.8913123299517
907,0.0
908,0.0
971,0.0
972,0.0
1195,1978.8062473161149
1197,1978.8062473161149
2,2,12,16, 0,12, 0.00,60.00,Tuesday
7,-12.2
718,19.71837427911062
719,-3.9166559252636075
720,14.596655867937793
619,3448.6345005885114
633,1346.2464044021565
659,0.07245299568332787
661,0.0
690,150.40495067590098
716,0.0
843,2753.2233614241686
844,2753.2233614241686
907,0.0
908,0.0
971,0.0
972,0.0
1195,1086.4231399813934
1197,1086.4231399813934
2,2,12,16, 0,13, 0.00,60.00,Tuesday
7,-12.2
718,19.72420024871509
719,-2.3153929933335435
720,14.561902750184142
619,3448.556436957567
633,1346.3292253221362
659,0.07245299568332787
661,0.0
690,150.40495067590098
716,0.0
843,2393.2802741590876
844,2393.2802741590876
907,0.0
908,0.0
971,0.0
972,0.0
1195,573.1814647344952
1197,573.1814647344952
2,2,12,16, 0,14, 0.00,60.00,Tuesday
7,-10.6
718,19.74733825209437
719,-0.6392630451872612
720,14.557339494090167
619,3248.095329230722
633,1238.564899930054
659,0.06564649105339143
661,18.78874590551314
690,136.27217326338643
716,0.0
843,1906.484564377939
844,1906.484564377939
907,0.0
908,0.0
971,0.0
972,0.0
1195,0.0
1197,0.0
2,2,12,16, 0,15, 0.00,60.00,Tuesday
7,-10.6
718,19.81192247799551
719,0.8053654213086201
720,14.557805552670994
619,2689.512430490418
633,1044.194386423011
659,0.05531450628840736
661,47.30926370478355
690,114.82453716988785
716,0.0
843,1632.5437595560015
844,1632.5437595560015
907,0.0
908,0.0
971,0.0
972,0.0
1195,0.0
1197,0.0
2,2,12,16, 0,16, 0.00,60.00,Tuesday
7,-10.6
718,19.83484206215693
719,0.04263418496962788
720,14.569313860319033
619,1964.2081036826555
633,781.650103863497
659,0.041351387120697476
661,85.85320253303806
690,85.8392156934583
716,0.0
843,1224.379329296553
844,1224.379329296553
907,0.0
908,0.0
971,0.0
972,0.0
1195,0.0
1197,0.0
2,2,12,16, 0,17, 0.00,60.00,Tuesday
7,-12.2
718,19.741053157576225
719,-0.16512420330432379
720,14.590246819167254
619,1648.420116811726
633,685.029364545823
659,0.03677477902959357
661,98.4865189278687
690,76.33861011624923
716,0.0
843,998.2877004139864
844,998.2877004139864
907,0.0
908,0.0
971,0.0
972,0.0
1195,0.0
1197,0.0
2,2,12,16, 0,18, 0.00,60.00,Tuesday
7,-12.2
718,19.569466194887625
719,-2.025488500766091
720,14.630462625871205
619,3219.281627870671
633,1266.8894607602012
659,0.06814634646408198
661,11.888119127797214
690,141.4610124858316
716,0.0
843,1972.4697108108521
844,1972.4697108108521
907,0.0
908,0.0
971,0.0
972,0.0
1195,0.0
1197,0.0
2,2,12,16, 0,19, 0.00,60.00,Tuesday
7,-12.2
718,19.597080558200325
719,-3.583632286292005
720,14.635514401150084
619,3451.914192594202
633,1342.7648796448018
659,0.07245299568332787
661,0.0
690,150.40495067590098
716,85.44000000000005
843,2296.6884843803346
844,2296.6884843803346
907,0.0
908,0.0
971,0.0
972,0.0
1195,1418.1615724163398
1197,1418.1615724163398
2,2,12,16, 0,20, 0.00,60.00,Tuesday
7,-12.2
718,19.654494611280708
719,-4.275751257743025
720,14.625247829500623
619,3451.274768487716
633,1343.4439540772946
659,0.07245299568332787
661,0.0
690,150.40495067590098
716,85.44000000000005
843,2629.748123761796
844,2629.748123761796
907,0.0
908,0.0
971,0.0
972,0.0
1195,1977.5505060145676
1197,1977.5505060145676
2,2,12,16, 0,21, 0.00,60.00,Tuesday
7,-11.7
718,19.674324637741332
719,-4.499727733334511
720,14.597273076318086
619,3488.5108072820067
633,1344.8732561784134
659,5.033240696026891
661,0.0
690,150.40495067590098
716,85.44000000000005
843,2823.3771480445503
844,2823.3771480445503
907,0.0
908,0.0
971,0.0
972,0.0
1195,2218.8339475606426
1197,2218.8339475606426
2,2,12,16, 0,22, 0.00,60.00,Tuesday
7,-11.7
718,19.700301542918464
719,-4.644937498517809
720,14.548760931057274
619,3488.09085616929
633,1345.3229888628427
659,5.033240696026891
661,0.0
690,150.40495067590098
716,32.52017137972101
843,3186.781936869247
844,3186.781936869247
907,0.0
908,0.0
971,0.0
972,0.0
1195,1890.8463234332228
1197,1890.8463234332228
2,2,12,16, 0,23, 0.00,60.00,Tuesday
7,-11.1
718,18.974336758763382
719,-4.415349874646499
720,14.496992856918814
619,3562.463612347618
633,1356.7356755735484
659,2.5669087335041088
661,0.0
690,150.40495067590098
716,0.0
843,2301.0408901685405
844,2301.0408901685405
907,0.0
908,0.0
971,0.0
972,0.0
1195,385.74270819755475
1197,385.74270819755475
2,2,12,16, 0,24, 0.00,60.00,Tuesday
7,-10.6
718,18.73249140045266
719,-4.5267257342826035
720,14.400169181296064
619,3641.3765164665224
633,1346.9523946057802
659,0.8319652164200539
661,0.0
690,150.40495067590098
716,0.0
843,2790.9142609129467
844,2790.9142609129467
907,0.0
908,0.0
971,0.0
972,0.0
1195,814.573315188595
1197,814.573315188595
2,3,12,17, 0, 1, 0.00,60.00,Wednesday
7,-10.6
718,18.64678538660716
719,-4.431320104584009
720,14.322862737754695
619,3647.0300000857533
633,1340.7585432388653
659,0.8319652164200539
661,0.0
690,150.40495067590098
716,0.0
843,3318.0432743122747
844,3318.0432743122747
907,0.0
908,0.0
971,0.0
972,0.0
1195,1428.2977459922286
1197,1428.2977459922286
2,3,12,17, 0, 2, 0.00,60.00,Wednesday
7,-10.6
718,18.616148453014475
719,-5.401051009583139
720,14.24115798201187
619,3625.9324592030584
633,1330.0036221293244
659,7.476150029072831
661,0.0
690,150.40495067590098
716,0.0
843,3867.649333021258
844,3867.649333021258
907,0.0
908,0.0
971,0.0
972,0.0
1195,2088.564099637595
1197,2088.564099637595
2,3,12,17, 0, 3, 0.00,60.00,Wednesday
7,-10.0
718,18.60920335892638
719,-4.509585851976928
720,14.168595121739308
619,3720.4402402049955
633,1345.6694784551426
659,0.1641994297550083
661,0.0
690,150.40495067590098
716,0.0
843,4022.6282752093302
844,4022.6282752093302
907,0.0
908,0.0
971,0.0
972,0.0
1195,2240.235522945356
1197,2240.235522945356
2,3,12,17, 0, 4, 0.00,60.00,Wednesday
7,-10.0
718,18.605186997530037
719,-4.488391477547013
720,14.088658172397333
619,3720.689103358609
633,1345.394164771257
659,0.1641994297550083
661,0.0
690,150.40495067590098
716,0.0
843,4194.088397592544
844,4194.088397592544
907,0.0
908,0.0
971,0.0
972,0.0
1195,2387.1787892985717
1197,2387.1787892985717
2,3,12,17, 0, 5, 0.00,60.00,Wednesday
7,-10.0
718,18.60650202668161
719,-4.6932131881477845
720,14.008959819536681
619,3720.885467577027
633,1345.1761727429134
659,0.16434303912706325
661,0.0
690,150.40495067590098
716,0.0
843,4320.58523970575
844,4320.58523970575
907,0.0
908,0.0
971,0.0
972,0.0
1195,2549.523399936309
1197,2549.523399936309
2,3,12,17, 0, 6, 0.00,60.00,Wednesday
7,-10.0
718,19.269558995704124
719,-4.914698321068067
720,13.929836114976505
619,3720.961131030422
633,1345.091789735349
659,0.16447200609125556
661,0.0
690,150.40495067590098
716,79.59729669860475
843,5489.349406753179
844,5489.349406753179
907,0.0
908,0.0
971,0.0
972,0.0
1195,4865.009324583498
1197,4865.009324583498
2,3,12,17, 0, 7, 0.00,60.00,Wednesday
7,-10.0
718,19.530835100021857
719,-4.841335109735592
720,13.883431745381305
619,3705.8224262175813
633,1361.8176818582497
659,0.16447200609125556
661,0.0
690,150.40495067590098
716,85.44000000000005
843,5278.156871110121
844,5278.156871110121
907,0.0
908,0.0
971,0.0
972,0.0
1195,4910.312173827491
1197,4910.312173827491
2,3,12,17, 0, 8, 0.00,60.00,Wednesday
7,-9.4
718,19.641855509319647
719,-4.708487036315973
720,13.818591691222341
619,3740.312142656034
633,1365.424399536682
659,8.064926879468352
661,0.0
690,150.40495067590098
716,70.01199666255076
843,5284.541227764341
844,5284.541227764341
907,0.0
908,0.0
971,0.0
972,0.0
1195,4702.276046413926
1197,4702.276046413926
2,3,12,17, 0, 9, 0.00,60.00,Wednesday
7,-8.9
718,19.697923008660034
719,-4.653174163645112
720,13.753964697553489
619,3801.906874451412
633,1376.6437525383935
659,6.270121362000548
661,0.0
690,150.40495067590098
716,0.0
843,5472.762546048116
844,5472.762546048116
907,0.0
908,0.0
971,0.0
972,0.0
1195,3961.5029461400113
1197,3961.5029461400113
2,3,12,17, 0,10, 0.00,60.00,Wednesday
7,-8.9
718,19.70734709515329
719,-4.439544182545491
720,13.685947917159664
619,3800.687669169724
633,1378.0075239449015
659,6.270121362000548
661,0.0
690,150.40495067590098
716,0.0
843,5374.323370839671
844,5374.323370839671
907,0.0
908,0.0
971,0.0
972,0.0
1195,3831.9748100236884
1197,3831.9748100236884
2,3,12,17, 0,11, 0.00,60.00,Wednesday
7,-7.2
718,19.718661300790348
719,-3.053129571475475
720,13.63358592502338
619,4007.4550248405367
633,1401.389918838686
659,4.357662933515496
661,0.0
690,150.40495067590098
716,0.0
843,4667.227767910394
844,4667.227767910394
907,0.0
908,0.0
971,0.0
972,0.0
1195,2778.5411288975724
1197,2778.5411288975724
2,3,12,17, 0,12, 0.00,60.00,Wednesday
7,-6.7
718,19.71664072146687
719,-2.064632326620106
720,13.570962351082114
619,4076.831779028685
633,1410.993533838397
659,1.8788857544222919
661,0.0
690,150.40495067590098
716,0.0
843,4463.053399373044
844,4463.053399373044
907,0.0
908,0.0
971,0.0
972,0.0
1195,2380.5069704434163
1197,2380.5069704434163
2,3,12,17, 0,13, 0.00,60.00,Wednesday
7,-6.7
718,19.72046448685071
719,-1.341905883195862
720,13.515785352894037
619,4076.9619959417014
633,1410.8440149115568
659,1.8788857544222919
661,0.0
690,150.40495067590098
716,0.0
843,4253.850713767568
844,4253.850713767568
907,0.0
908,0.0
971,0.0
972,0.0
1195,2086.1328105615758
1197,2086.1328105615758
2,3,12,17, 0,14, 0.00,60.00,Wednesday
7,-5.6
718,19.719041357366798
719,-0.3500829875993493
720,13.478678869575239
619,4218.076458332431
633,1426.6314562677492
659,0.07245299568332787
661,0.0
690,150.40495067590098
716,0.0
843,3945.2575763839995
844,3945.2575763839995
907,0.0
908,0.0
971,0.0
972,0.0
1195,1530.0770452784145
1197,1530.0770452784145
2,3,12,17, 0,15, 0.00,60.00,Wednesday
7,-5.6
718,19.70760889417811
719,-0.17581813616182704
720,13.440229348914562
619,4205.600539833091
633,1422.2730297313005
659,3.1941843168814756
661,0.0
690,150.40495067590098
716,72.99734684990096
843,3987.4259852606756
844,3987.4259852606756
907,0.0
908,0.0
971,0.0
972,0.0
1195,2457.6278128856293
1197,2457.6278128856293
2,3,12,17, 0,16, 0.00,60.00,Wednesday
7,-5.6
718,19.711103285850516
719,-0.2570411173527637
720,13.412449326154947
619,4205.922473674263
633,1421.8994093030033
659,3.1941843168814756
661,0.0
690,150.40495067590098
716,81.10683534553263
843,3908.449933619606
844,3908.449933619606
907,0.0
908,0.0
971,0.0
972,0.0
1195,2463.4509343381405
1197,2463.4509343381405
2,3,12,17, 0,17, 0.00,60.00,Wednesday
7,-4.4
718,19.724419776793603
719,0.21183365084770878
720,13.399625160811464
619,4367.475174227407
633,1440.7916086358198
659,0.07245299568332787
661,0.0
690,150.40495067590098
716,0.0
843,3289.1644474067434
844,3289.1644474067434
907,0.0
908,0.0
971,0.0
972,0.0
1195,543.6827877257415
1197,543.6827877257415
2,3,12,17, 0,18, 0.00,60.00,Wednesday
7,-3.9
718,19.721986702294405
719,0.0520865257935848
720,13.379675233908213
619,4406.612818305544
633,1439.5361769250048
659,5.6380836262673295
661,0.0
690,150.40495067590098
716,0.0
843,3263.410577255623
844,3263.410577255623
907,0.0
908,0.0
971,0.0
972,0.0
1195,451.1340559794594
1197,451.1340559794594
2,3,12,17, 0,19, 0.00,60.00,Wednesday
7,-3.9
718,19.722594315879157
719,-0.17704818120335344
720,13.358998214326009
619,4406.697394200013
633,1439.4367071321383
659,5.6380836262673295
661,0.0
690,150.40495067590098
716,0.0
843,3077.3940586890476
844,3077.3940586890476
907,0.0
908,0.0
971,0.0
972,0.0
1195,240.19145963524124
1197,240.19145963524124
2,3,12,17, 0,20, 0.00,60.00,Wednesday
7,-2.8
718,19.720368015402844
719,0.2649546053526059
720,13.34623253571024
619,4528.3962816490275
633,1447.1932778663443
659,9.724095009883287
661,0.0
690,150.40495067590098
716,85.44000000000005
843,2799.205476970217
844,2799.205476970217
907,0.0
908,0.0
971,0.0
972,0.0
1195,992.3526509536823
1197,992.3526509536823
2,3,12,17, 0,21, 0.00,60.00,Wednesday
7,-2.2
718,19.704378431498434
719,0.7785466714287922
720,13.327497391160707
619,4630.7356565286
633,1462.565382164986
659,3.983917025699943
661,0.0
690,150.40495067590098
716,85.44000000000005
843,2442.66903456442
844,2442.66903456442
907,0.0
908,0.0
971,0.0
972,0.0
1195,419.8245322863413
1197,419.8245322863413
2,3,12,17, 0,22, 0.00,60.00,Wednesday
7,-2.2
718,19.71833359112709
719,0.9444675585138234
720,13.299545496501743
619,4528.199779215636
633,1433.9172014490732
659,10.842653556462365
661,2.528144556384282
690,148.28544463436816
716,27.486904019458393
843,2735.1861490067004
844,2735.1861490067004
907,0.0
908,0.0
971,0.0
972,0.0
1195,0.0
1197,0.0
2,3,12,17, 0,23, 0.00,60.00,Wednesday
7,-2.2
718,18.952585587127828
719,0.5800948808279865
720,13.197752615443173
619,2106.086809425124
633,712.20099427028
659,38.41534132548976
661,95.67722099335687
690,77.63742268500978
716,0.0
843,1374.7958367358715
844,1374.7958367358715
907,0.0
908,0.0
971,0.0
972,0.0
1195,0.0
1197,0.0
2,3,12,17, 0,24, 0.00,60.00,Wednesday
7,-1.7
718,18.682381985734708
719,0.6263960878792919
720,13.1792263911988
619,2495.074959498897
633,812.690132091961
659,58.007728812675786
661,77.03598056665317
690,91.3038044069429
716,0.0
843,1672.1013352131376
844,1672.1013352131376
907,0.0
908,0.0
971,0.0
972,0.0
1195,0.0
1197,0.0
2,4,12,18, 0, 1, 0.00,60.00,Thursday
7,-1.7
718,18.59756395832858
719,0.9500470921596587
720,13.157390822563118
619,3094.8380818503892
633,985.2719430607569
659,70.70845462231206
661,50.113149295030325
690,111.29663644936625
716,0.0
843,2089.3450915714056
844,2089.3450915714056
907,0.0
908,0.0
971,0.0
972,0.0
1195,0.0
1197,0.0
2,4,12,18, 0, 2, 0.00,60.00,Thursday
7,-1.1
718,18.570892044498
719,1.4864013769976814
720,13.140462830399324
619,3550.7611112024365
633,1102.837147187576
659,90.79268918242256
661,30.520570096023715
690,125.75670251323972
716,0.0
843,2408.7539373982854
844,2408.7539373982854
907,0.0
908,0.0
971,0.0
972,0.0
1195,0.0
1197,0.0
2,4,12,18, 0, 3, 0.00,60.00,Thursday
7,-0.6
718,18.602681490067212
719,2.2134672260156654
720,13.118142145953541
619,3741.2587219721463
633,1145.30925472633
659,100.59467525606829
661,23.38529811387724
690,131.06382974893447
716,0.0
843,2562.2650535170305
844,2562.2650535170305
907,0.0
908,0.0
971,0.0
972,0.0
1195,0.0
1197,0.0
2,4,12,18, 0, 4, 0.00,60.00,Thursday
7,-0.6
718,18.599665514283508
719,2.464023301705527
720,13.098215230234974
619,3914.602344621776
633,1193.8513079458678
659,105.68744230519161
661,15.835084844414427
690,136.65118252907683
716,0.0
843,2704.5034895446497
844,2704.5034895446497
907,0.0
908,0.0
971,0.0
972,0.0
1195,0.0
1197,0.0
2,4,12,18, 0, 5, 0.00,60.00,Thursday
7,0.6
718,18.63437201721504
719,3.0231445116177342
720,13.068808855410692
619,3572.4696400477483
633,1076.2917298752081
659,103.37207457451716
661,33.980949691126796
690,123.35355102399885
716,0.0
843,2489.030104638068
844,2489.030104638068
907,0.0
908,0.0
971,0.0
972,0.0
1195,0.0
1197,0.0
2,4,12,18, 0, 6, 0.00,60.00,Thursday
7,0.6
718,19.35759884897241
719,3.4719685193419982
720,13.078803648673924
619,4441.837768711143
633,1295.8236836634244
659,125.5616414481707
661,0.0
690,150.40495067590098
716,0.0
843,3273.9420365684655
844,3273.9420365684655
907,0.0
908,0.0
971,0.0
972,0.0
1195,177.64282666404233
1197,177.64282666404233
2,4,12,18, 0, 7, 0.00,60.00,Thursday
7,0.6
718,19.570467945930318
719,3.939620263551602
720,13.09281226113733
619,4426.332417889591
633,1314.2501253062933
659,125.5616414481707
661,0.0
690,150.40495067590098
716,85.44000000000005
843,3039.2905881391725
844,3039.2905881391725
907,0.0
908,0.0
971,0.0
972,0.0
1195,1205.85220326016
1197,1205.85220326016
2,4,12,18, 0, 8, 0.00,60.00,Thursday
7,0.6
718,19.64739701716519
719,4.150435965932204
720,13.08915275971103
619,4426.680646413488
633,1321.210807730221
659,124.53037694432858
661,0.0
690,150.40495067590098
716,85.44000000000005
843,2786.55087657534
844,2786.55087657534
907,0.0
908,0.0
971,0.0
972,0.0
1195,942.9278516714539
1197,942.9278516714539
2,4,12,18, 0, 9, 0.00,60.00,Thursday
7,0.6
718,19.69405719036135
719,4.347902111781954
720,13.085925940898369
619,4420.451833403484
633,1321.82616052095
659,125.48381889322451
661,0.0
690,150.40495067590098
716,56.1591890002976
843,2635.5783984047666
844,2635.5783984047666
907,0.0
908,0.0
971,0.0
972,0.0
1195,244.63382950925825
1197,244.63382950925825
2,4,12,18, 0,10, 0.00,60.00,Thursday
7,0.6