Program Version,EnergyPlus, Version 22.2.0-c249759bad, YMD=2023.07.07 15:12
1,5,Environment Title[],Latitude[deg],Longitude[deg],Time Zone[],Elevation[m]
2,8,Day of Simulation[],Month[],Day of Month[],DST Indicator[1=yes 0=no],Hour[],StartMinute[],EndMinute[],DayType
3,5,Cumulative Day of Simulation[],Month[],Day of Month[],DST Indicator[1=yes 0=no],DayType  ! When Daily Report Variables Requested
4,2,Cumulative Days of Simulation[],Month[]  ! When Monthly Report Variables Requested
5,1,Cumulative Days of Simulation[] ! When Run Period Report Variables Requested
6,1,Calendar Year of Simulation[] ! When Annual Report Variables Requested
581,11,LIVING,AFN Zone Infiltration Air Change Rate [ach] !RunPeriod [Value,Min,Month,Day,Hour,Minute,Max,Month,Day,Hour,Minute]
582,11,ATTIC,AFN Zone Infiltration Air Change Rate [ach] !RunPeriod [Value,Min,Month,Day,Hour,Minute,Max,Month,Day,Hour,Minute]
583,11,CRAWLSPACE,AFN Zone Infiltration Air Change Rate [ach] !RunPeriod [Value,Min,Month,Day,Hour,Minute,Max,Month,Day,Hour,Minute]
1038,11,Facility,Facility Heating Setpoint Not Met Time [hr] !RunPeriod [Value,Min,Month,Day,Hour,Minute,Max,Month,Day,Hour,Minute]
1039,11,Facility,Facility Cooling Setpoint Not Met Time [hr] !RunPeriod [Value,Min,Month,Day,Hour,Minute,Max,Month,Day,Hour,Minute]
1115,11,DX_HEATING_COIL,Heating Coil Heating Energy [J] !RunPeriod [Value,Min,Month,Day,Hour,Minute,Max,Month,Day,Hour,Minute]
1128,11,DX_HEATING_COIL,Heating Coil Electricity Energy [J] !RunPeriod [Value,Min,Month,Day,Hour,Minute,Max,Month,Day,Hour,Minute]
1153,11,DX_HEATING_COIL,Heating Coil Defrost Electricity Energy [J] !RunPeriod [Value,Min,Month,Day,Hour,Minute,Max,Month,Day,Hour,Minute]
1154,11,DX_HEATING_COIL,Heating Coil Crankcase Heater Electricity Energy [J] !RunPeriod [Value,Min,Month,Day,Hour,Minute,Max,Month,Day,Hour,Minute]
1156,11,HEATING_RESISTANCE_BACKUP,Heating Coil Electricity Energy [J] !RunPeriod [Value,Min,Month,Day,Hour,Minute,Max,Month,Day,Hour,Minute]
13,11,Electricity:Facility [J] !RunPeriod [Value,Min,Month,Day,Hour,Minute,Max,Month,Day,Hour,Minute]
1134,11,Heating:Electricity [J] !RunPeriod [Value,Min,Month,Day,Hour,Minute,Max,Month,Day,Hour,Minute]
1096,11,Cooling:Electricity [J] !RunPeriod [Value,Min,Month,Day,Hour,Minute,Max,Month,Day,Hour,Minute]
562,11,Fans:Electricity [J] !RunPeriod [Value,Min,Month,Day,Hour,Minute,Max,Month,Day,Hour,Minute]
1388,11,Pumps:Electricity [J] !RunPeriod [Value,Min,Month,Day,Hour,Minute,Max,Month,Day,Hour,Minute]
1360,11,WaterSystems:Electricity [J] !RunPeriod [Value,Min,Month,Day,Hour,Minute,Max,Month,Day,Hour,Minute]
61,11,InteriorLights:Electricity [J] !RunPeriod [Value,Min,Month,Day,Hour,Minute,Max,Month,Day,Hour,Minute]
1046,11,ExteriorLights:Electricity [J] !RunPeriod [Value,Min,Month,Day,Hour,Minute,Max,Month,Day,Hour,Minute]
134,11,InteriorEquipment:Electricity [J] !RunPeriod [Value,Min,Month,Day,Hour,Minute,Max,Month,Day,Hour,Minute]
170,11,gas_dryer:InteriorEquipment:Electricity [J] !RunPeriod [Value,Min,Month,Day,Hour,Minute,Max,Month,Day,Hour,Minute]
207,11,clotheswasher:InteriorEquipment:Electricity [J] !RunPeriod [Value,Min,Month,Day,Hour,Minute,Max,Month,Day,Hour,Minute]
244,11,dishwasher:InteriorEquipment:Electricity [J] !RunPeriod [Value,Min,Month,Day,Hour,Minute,Max,Month,Day,Hour,Minute]
281,11,refrigerator:InteriorEquipment:Electricity [J] !RunPeriod [Value,Min,Month,Day,Hour,Minute,Max,Month,Day,Hour,Minute]
318,11,electric_mels:InteriorEquipment:Electricity [J] !RunPeriod [Value,Min,Month,Day,Hour,Minute,Max,Month,Day,Hour,Minute]
355,11,NaturalGas:Facility [J] !RunPeriod [Value,Min,Month,Day,Hour,Minute,Max,Month,Day,Hour,Minute]
1323,11,WaterSystems:NaturalGas [J] !RunPeriod [Value,Min,Month,Day,Hour,Minute,Max,Month,Day,Hour,Minute]
403,11,InteriorEquipment:NaturalGas [J] !RunPeriod [Value,Min,Month,Day,Hour,Minute,Max,Month,Day,Hour,Minute]
476,11,gas_dryer:InteriorEquipment:NaturalGas [J] !RunPeriod [Value,Min,Month,Day,Hour,Minute,Max,Month,Day,Hour,Minute]
513,11,gas_mels:InteriorEquipment:NaturalGas [J] !RunPeriod [Value,Min,Month,Day,Hour,Minute,Max,Month,Day,Hour,Minute]
End of Data Dictionary
1,EXTREME_WINTER,  38.54, -89.85,  -6.00, 140.00
5,7
1038,0.8333333333333333,0.0, 1, 6, 1,10,0.16666666666666666, 1, 7, 6,10
1039,0.0,0.0, 1, 6, 1,10,0.0, 1, 6, 1,10
581,0.35131101978411206,0.1842811915768487, 1,12, 3,30,0.7091585554999958, 1, 7,12,60
582,4.252248033924421,0.0, 1,10, 1,60,12.443960616132234, 1, 7,10,60
583,5.619587335404165,0.4321065059493299, 1,12, 1,60,17.748985130565355, 1, 7,10,60
1115,1885789560.3178394,0.0, 1, 6,23, 2,3131293.4104211456, 1,11, 6,30
1128,637521655.0633559,0.0, 1, 6,23, 2,921289.9773396883, 1,11, 6,30
1153,11320913.226818288,0.0, 1, 6,23, 2,86154.20027181758, 1,12, 6,60
1154,30196136.046688143,0.0, 1, 6, 6, 2,114318.61907867281, 1, 6,16,20
1156,753645002.0983603,0.0, 1, 6, 1, 1,3708838.723881828, 1, 8, 6,30
13,1882443428.532566,306324.6925987483, 1,10,15,60,5021229.960007926, 1,10, 6,10
61,301924526.0238348,58759.40635443481, 1, 6, 1,10,854682.2742463244, 1, 6,20,10
134,70666020.44019979,42376.01200569399, 1, 6, 4,10,104369.48322671017, 1,11,20,10
170,5241013.419656074,232.27731661587313, 1, 6, 4,10,11650.931360040839, 1,11,12,10
207,6509451.13922266,543.5021409221355, 1, 6, 3,10,15327.095199349082, 1,11,10,10
244,12749673.39982522,1014.5707620042115, 1, 6, 4,10,35359.08742820678, 1,11,20,10
281,46165882.48149605,39959.06841621388, 1, 6, 5,10,54634.54471212738, 1, 6,19,10
318,0.0,0.0, 1, 6, 1,10,0.0, 1, 6, 1,10
355,738873874.8478789,12374.216038804521, 1, 6, 4,10,3829218.154066982, 1, 7,18,60
403,197687796.27748126,12374.216038804521, 1, 6, 4,10,483183.26346918393, 1,11,18,10
476,106772067.24485692,4732.048419519677, 1, 6, 4,10,237357.535085481, 1,11,12,10
513,0.0,0.0, 1, 6, 1,10,0.0, 1, 6, 1,10
562,72149335.63330966,0.0, 1,10,15,60,95564.54973590701, 1, 6, 6,30
1046,0.0,0.0, 1, 6, 1,10,0.0, 1, 6, 1,10
1096,0.0,0.0, 1, 6, 1,10,0.0, 1, 6, 1,10
1134,1432683706.4352233,120000.0, 1,10,15,60,4508106.087261367, 1,10, 6,10
1323,541186078.5703946,0.0, 1, 6, 1,10,3375000.0000000005, 1, 6,21,40
1360,5019840.0,4979.999999999998, 1, 6, 1,10,4980.000000000001, 1, 6, 1,50
1388,0.0,0.0, 1, 6, 1,10,0.0, 1, 6, 1,10
1,EXTREME_SUMMER,  38.54, -89.85,  -6.00, 140.00
5,7
1038,0.0,0.0, 7,13, 1,10,0.0, 7,13, 1,10
1039,56.833333333333336,0.0, 7,13, 1,10,0.16666666666666666, 7,13,12,60
581,0.04162234694659054,0.0, 7,13, 1,10,0.9022768858432105, 7,19,20,53
582,1.7902673663007111,0.0, 7,15,20,50,23.291005572065142, 7,19,20,53
583,2.168181538390208,0.0, 7,14,23, 2,29.825943788070933, 7,19,20,53
1115,0.0,0.0, 7,13, 1,10,0.0, 7,13, 1,10
1128,0.0,0.0, 7,13, 1,10,0.0, 7,13, 1,10
1153,0.0,0.0, 7,13, 1,10,0.0, 7,13, 1,10
1154,0.0,0.0, 7,13, 1,10,0.0, 7,13, 1,10
1156,0.0,0.0, 7,13, 1,10,0.0, 7,13, 1,10
13,1060429266.2467955,167962.12806149165, 7,15, 4,60,2018297.4534641188, 7,19,20,10
61,301924526.0238348,58759.40635443481, 7,13, 1,10,854682.2742463244, 7,13,20,10
134,70666020.44019979,42376.01200569399, 7,13, 4,10,104369.48322671017, 7,18,20,10
170,5241013.419656074,232.27731661587313, 7,13, 4,10,11650.931360040839, 7,18,12,10
207,6509451.13922266,543.5021409221355, 7,13, 3,10,15327.095199349082, 7,18,10,10
244,12749673.39982522,1014.5707620042115, 7,13, 4,10,35359.08742820678, 7,18,20,10
281,46165882.48149605,39959.06841621388, 7,13, 5,10,54634.54471212738, 7,13,19,10
318,0.0,0.0, 7,13, 1,10,0.0, 7,13, 1,10
355,642543758.3855366,12374.216038804521, 7,13, 4,10,3829218.154066982, 7,14,18,60
403,197687796.27748126,12374.216038804521, 7,13, 4,10,483183.26346918393, 7,18,18,10
476,106772067.24485692,4732.048419519677, 7,13, 4,10,237357.535085481, 7,18,12,10
513,0.0,0.0, 7,13, 1,10,0.0, 7,13, 1,10
562,64015963.87753656,6768.322704427051, 7,15, 4,60,95564.54973590703, 7,15,19,20
1046,0.0,0.0, 7,13, 1,10,0.0, 7,13, 1,10
1096,618802915.905222,55078.38699693579, 7,15, 4,60,1031936.411790166, 7,19,16,60
1134,0.0,0.0, 7,13, 1,10,0.0, 7,13, 1,10
1323,444855962.10805416,0.0, 7,13, 1,10,3375000.0, 7,13, 9,50
1360,5019840.0,4980.0, 7,13, 1,10,4980.000000000002, 7,19,12,40
1388,0.0,0.0, 7,13, 1,10,0.0, 7,13, 1,10
1,ANNUAL,  38.54, -89.85,  -6.00, 140.00
5,365
1038,8.333333333333337,0.0, 1, 1, 1,10,0.16666666666666666, 1, 3, 6,10
1039,630.4999999999998,0.0, 1, 1, 1,10,0.16666666666666666, 1,21,15,50
581,0.19540020800435784,0.0, 5,12,19,53,1.0536567697828714, 4,13,21,55
582,3.3038328719054406,0.0, 1, 3,23,40,26.819446731508876, 4, 3, 6,60
583,3.948674002689145,0.0, 5,23,23, 5,29.933142875444087, 7,19,20,53
1115,19734214683.05109,0.0, 1, 1,14,30,3135030.6897793706, 1,11, 6,30
1128,6132879678.43002,0.0, 1, 1,14,30,922162.9494048093, 1,11, 6,30
1153,310213235.29991823,0.0, 1, 1,14,30,93825.24042240078, 2,26, 7,10
1154,1585934881.2641559,0.0, 1, 1, 6, 2,120000.0, 1, 1,14,30
1156,2013258900.0685232,0.0, 1, 1, 1, 3,3708838.723881828, 1, 8, 6,10
13,43093844236.44575,106115.4183601288, 3,10, 4,10,5063564.865896646, 1, 8, 7,10
61,15743207428.39043,58759.40635443481, 1, 1, 1,10,854682.2742463244, 1, 1,20,10
134,3685071073.433083,42376.01200569399, 1, 2, 4,10,104369.48322671017, 1, 1,20,10
170,273393721.45534325,232.27731661587313, 1, 2, 4,10,11650.931360040839, 1, 1,12,10
207,339560869.06955314,543.5021409221355, 1, 2, 3,10,15327.095199349082, 1, 1,10,10
244,664895467.8009839,1014.5707620042115, 1, 2, 4,10,35359.08742820678, 1, 1,20,10
281,2407221015.1057043,39959.06841621388, 1, 1, 5,10,54634.54471212738, 1, 1,19,10
318,0.0,0.0, 1, 1, 1,10,0.0, 1, 1, 1,10
355,35711680419.95191,12374.216038804521, 1, 2, 4,10,3829218.1540669827, 3,21,18,60
403,10310294493.052883,12374.216038804521, 1, 2, 4,10,483183.26346918393, 1, 1,18,10
476,5569688622.065564,4732.048419519677, 1, 2, 4,10,237357.535085481, 1, 1,12,10
513,0.0,0.0, 1, 1, 1,10,0.0, 1, 1, 1,10
562,1967248939.6363866,0.0, 1, 1,14,30,95564.54973590703, 5,24,16,10
1046,0.0,0.0, 1, 1, 1,10,0.0, 1, 1, 1,10
1096,11394281299.929842,0.0, 1, 1, 1,10,1101531.0541938336, 7,31,15,60
1134,10042286695.062593,0.0, 1,17,12,40,4544520.98535492, 1, 7, 6,10
1323,25401385926.9032,0.0, 1, 1, 1,10,3375000.000000002, 2, 9,11,10
1360,261748800.0,4979.999999999998, 5,12,10,30,4980.000000000002, 1,23, 9,40
1388,0.0,0.0, 1, 1, 1,10,0.0, 1, 1, 1,10
End of Data
 Number of Records Written=          87
