Program Version,EnergyPlus, Version 22.2.0-c249759bad, YMD=2023.09.01 20:56
1,5,Environment Title[],Latitude[deg],Longitude[deg],Time Zone[],Elevation[m]
2,8,Day of Simulation[],Month[],Day of Month[],DST Indicator[1=yes 0=no],Hour[],StartMinute[],EndMinute[],DayType
3,5,Cumulative Day of Simulation[],Month[],Day of Month[],DST Indicator[1=yes 0=no],DayType  ! When Daily Report Variables Requested
4,2,Cumulative Days of Simulation[],Month[]  ! When Monthly Report Variables Requested
5,1,Cumulative Days of Simulation[] ! When Run Period Report Variables Requested
6,1,Calendar Year of Simulation[] ! When Annual Report Variables Requested
581,11,LIVING,AFN Zone Infiltration Air Change Rate [ach] !RunPeriod [Value,Min,Month,Day,Hour,Minute,Max,Month,Day,Hour,Minute]
582,11,ATTIC,AFN Zone Infiltration Air Change Rate [ach] !RunPeriod [Value,Min,Month,Day,Hour,Minute,Max,Month,Day,Hour,Minute]
583,11,CRAWLSPACE,AFN Zone Infiltration Air Change Rate [ach] !RunPeriod [Value,Min,Month,Day,Hour,Minute,Max,Month,Day,Hour,Minute]
1038,11,Facility,Facility Heating Setpoint Not Met Time [hr] !RunPeriod [Value,Min,Month,Day,Hour,Minute,Max,Month,Day,Hour,Minute]
1039,11,Facility,Facility Cooling Setpoint Not Met Time [hr] !RunPeriod [Value,Min,Month,Day,Hour,Minute,Max,Month,Day,Hour,Minute]
1115,11,DX_HEATING_COIL,Heating Coil Heating Energy [J] !RunPeriod [Value,Min,Month,Day,Hour,Minute,Max,Month,Day,Hour,Minute]
1128,11,DX_HEATING_COIL,Heating Coil Electricity Energy [J] !RunPeriod [Value,Min,Month,Day,Hour,Minute,Max,Month,Day,Hour,Minute]
1153,11,DX_HEATING_COIL,Heating Coil Defrost Electricity Energy [J] !RunPeriod [Value,Min,Month,Day,Hour,Minute,Max,Month,Day,Hour,Minute]
1154,11,DX_HEATING_COIL,Heating Coil Crankcase Heater Electricity Energy [J] !RunPeriod [Value,Min,Month,Day,Hour,Minute,Max,Month,Day,Hour,Minute]
1155,11,HEATING_RESISTANCE_BACKUP,Heating Coil Heating Energy [J] !RunPeriod [Value,Min,Month,Day,Hour,Minute,Max,Month,Day,Hour,Minute]
1156,11,HEATING_RESISTANCE_BACKUP,Heating Coil Electricity Energy [J] !RunPeriod [Value,Min,Month,Day,Hour,Minute,Max,Month,Day,Hour,Minute]
1292,11,WATER HEATER,Water Heater Heat Loss Energy [J] !RunPeriod [Value,Min,Month,Day,Hour,Minute,Max,Month,Day,Hour,Minute]
1306,11,WATER HEATER,Water Heater Heating Energy [J] !RunPeriod [Value,Min,Month,Day,Hour,Minute,Max,Month,Day,Hour,Minute]
1307,11,WATER HEATER,Water Heater Unmet Demand Heat Transfer Energy [J] !RunPeriod [Value,Min,Month,Day,Hour,Minute,Max,Month,Day,Hour,Minute]
1308,11,WATER HEATER,Water Heater Electricity Energy [J] !RunPeriod [Value,Min,Month,Day,Hour,Minute,Max,Month,Day,Hour,Minute]
13,11,Electricity:Facility [J] !RunPeriod [Value,Min,Month,Day,Hour,Minute,Max,Month,Day,Hour,Minute]
1134,11,Heating:Electricity [J] !RunPeriod [Value,Min,Month,Day,Hour,Minute,Max,Month,Day,Hour,Minute]
1096,11,Cooling:Electricity [J] !RunPeriod [Value,Min,Month,Day,Hour,Minute,Max,Month,Day,Hour,Minute]
562,11,Fans:Electricity [J] !RunPeriod [Value,Min,Month,Day,Hour,Minute,Max,Month,Day,Hour,Minute]
1379,11,Pumps:Electricity [J] !RunPeriod [Value,Min,Month,Day,Hour,Minute,Max,Month,Day,Hour,Minute]
1326,11,WaterSystems:Electricity [J] !RunPeriod [Value,Min,Month,Day,Hour,Minute,Max,Month,Day,Hour,Minute]
61,11,InteriorLights:Electricity [J] !RunPeriod [Value,Min,Month,Day,Hour,Minute,Max,Month,Day,Hour,Minute]
1046,11,ExteriorLights:Electricity [J] !RunPeriod [Value,Min,Month,Day,Hour,Minute,Max,Month,Day,Hour,Minute]
134,11,InteriorEquipment:Electricity [J] !RunPeriod [Value,Min,Month,Day,Hour,Minute,Max,Month,Day,Hour,Minute]
170,11,gas_dryer:InteriorEquipment:Electricity [J] !RunPeriod [Value,Min,Month,Day,Hour,Minute,Max,Month,Day,Hour,Minute]
207,11,clotheswasher:InteriorEquipment:Electricity [J] !RunPeriod [Value,Min,Month,Day,Hour,Minute,Max,Month,Day,Hour,Minute]
244,11,dishwasher:InteriorEquipment:Electricity [J] !RunPeriod [Value,Min,Month,Day,Hour,Minute,Max,Month,Day,Hour,Minute]
281,11,refrigerator:InteriorEquipment:Electricity [J] !RunPeriod [Value,Min,Month,Day,Hour,Minute,Max,Month,Day,Hour,Minute]
318,11,electric_mels:InteriorEquipment:Electricity [J] !RunPeriod [Value,Min,Month,Day,Hour,Minute,Max,Month,Day,Hour,Minute]
355,11,NaturalGas:Facility [J] !RunPeriod [Value,Min,Month,Day,Hour,Minute,Max,Month,Day,Hour,Minute]
403,11,InteriorEquipment:NaturalGas [J] !RunPeriod [Value,Min,Month,Day,Hour,Minute,Max,Month,Day,Hour,Minute]
476,11,gas_dryer:InteriorEquipment:NaturalGas [J] !RunPeriod [Value,Min,Month,Day,Hour,Minute,Max,Month,Day,Hour,Minute]
513,11,gas_mels:InteriorEquipment:NaturalGas [J] !RunPeriod [Value,Min,Month,Day,Hour,Minute,Max,Month,Day,Hour,Minute]
End of Data Dictionary
1,EXTREME_WINTER,  38.38, -81.59,  -5.00, 277.40
5,7
1038,0.5,0.0, 1,15, 1,15,0.25, 1,20, 6,15
1039,0.0,0.0, 1,15, 1,15,0.0, 1,15, 1,15
581,0.3144857671985405,0.1807815048405282, 1,17,20,60,0.7030265235758232, 1,19,21,60
582,2.8715784306309193,0.0, 1,15,21,52,11.83177554331596, 1,18, 6,60
583,0.03540804910199893,0.00030367591668003304, 1,17,19,60,0.08204928349065532, 1,19,21,60
1115,1154985743.1015835,0.0, 1,15,16,15,4272417.997056257, 1,19, 6,45
1128,397963989.2329812,0.0, 1,15,16,15,1341411.2395008726, 1,19,21,60
1153,6920383.289764463,0.0, 1,15,16,15,61368.87545771774, 1,18, 8,15
1154,65358658.24253324,0.0, 1,15, 6, 5,180000.0, 1,15,16,15
1155,258915940.00286365,0.0, 1,15, 1,15,4143135.7804231476, 1,21, 6,60
1156,258915940.00286365,0.0, 1,15, 1,15,4143135.7804231476, 1,21, 6,60
1292,-24882708.36698559,-39812.202747141644, 1,15, 1,15,-3796.264433398646, 1,16,11,17
1306,348457193.81959534,0.0, 1,15, 1,15,4050000.0, 1,15, 9,60
1307,155078094.23469418,0.0, 1,15, 1,15,13642429.531234164, 1,18, 9,45
1308,348457193.81959534,0.0, 1,15, 1,15,4050000.0, 1,15, 9,60
13,1493444163.8813117,344334.63869159983, 1,18, 1,15,8192323.463218211, 1,20, 8,45
61,301924526.02383536,88139.10953165221, 1,15, 1,15,1282023.4113694867, 1,15,20,15
134,70666020.44019976,63564.01800854099, 1,15, 4,15,156554.22484006523, 1,20,20,15
170,5241013.419656067,348.4159749238097, 1,15, 4,15,17476.39704006126, 1,20,12,15
207,6509451.13922267,815.2532113832032, 1,15, 3,15,22990.642799023623, 1,20,10,15
244,12749673.399825225,1521.856143006317, 1,15, 4,15,53038.631142310165, 1,20,20,15
281,46165882.481495745,59938.60262432081, 1,15, 5,15,81951.81706819107, 1,15,19,15
318,0.0,0.0, 1,15, 1,15,0.0, 1,15, 1,15
355,197687796.27748066,18561.32405820678, 1,15, 4,15,724774.895203776, 1,20,18,15
403,197687796.27748066,18561.32405820678, 1,15, 4,15,724774.895203776, 1,20,18,15
476,106772067.24485716,7098.072629279515, 1,15, 4,15,356036.3026282215, 1,20,12,15
513,0.0,0.0, 1,15, 1,15,0.0, 1,15, 1,15
562,43237452.82953955,0.0, 1,15,16,15,140234.13419008904, 1,15, 6,30
1046,0.0,0.0, 1,15, 1,15,0.0, 1,15, 1,15
1096,0.0,0.0, 1,15, 1,15,0.0, 1,15, 1,15
1134,729158970.768143,179999.99999999997, 1,16,13,45,5772827.280470204, 1,21, 6,15
1326,348457193.81959516,0.0, 1,15, 1,15,4050000.0, 1,15, 9,60
1379,0.0,0.0, 1,15, 1,15,0.0, 1,15, 1,15
1,EXTREME_SUMMER,  38.38, -81.59,  -5.00, 277.40
5,7
1038,0.0,0.0, 7,15, 1,15,0.0, 7,15, 1,15
1039,38.0,0.0, 7,15, 1,15,0.25, 7,15,14,45
581,0.054202810996415864,0.0, 7,15, 6, 7,0.2800534232780489, 7,20,12,60
582,1.2593715234854268,0.0, 7,15, 8,12,9.215791647685124, 7,20,12,60
583,0.0411344199952961,0.0, 7,15,23, 3,0.07195552527467575, 7,20,18,46
1115,0.0,0.0, 7,15, 1, 7,0.0, 7,15, 1, 7
1128,0.0,0.0, 7,15, 1, 7,0.0, 7,15, 1, 7
1153,0.0,0.0, 7,15, 1, 7,0.0, 7,15, 1, 7
1154,0.0,0.0, 7,15, 1, 7,0.0, 7,15, 1, 7
1155,0.0,0.0, 7,15, 1, 7,0.0, 7,15, 1, 7
1156,0.0,0.0, 7,15, 1, 7,0.0, 7,15, 1, 7
1292,-21738260.244009927,-34345.46376046895, 7,20,22,15,-2442.9735428751806, 7,15, 9,46
1306,264836767.78522193,0.0, 7,15, 1, 7,4050000.0, 7,15,16,60
1307,87664720.34823245,0.0, 7,15, 1, 7,4876174.527364669, 7,21, 9,45
1308,264836767.78522193,0.0, 7,15, 1, 7,4050000.0, 7,15,16,60
13,1217765836.805472,236098.08660437042, 7,20, 4,60,7009002.46615179, 7,16,20,15
61,301924526.02383536,88139.10953165221, 7,15, 1,15,1282023.4113694867, 7,15,20,15
134,70666020.44019976,63564.01800854099, 7,15, 4,15,156554.22484006523, 7,20,20,15
170,5241013.419656067,348.4159749238097, 7,15, 4,15,17476.39704006126, 7,20,12,15
207,6509451.13922267,815.2532113832032, 7,15, 3,15,22990.642799023623, 7,20,10,15
244,12749673.399825225,1521.856143006317, 7,15, 4,15,53038.631142310165, 7,20,20,15
281,46165882.481495745,59938.60262432081, 7,15, 5,15,81951.81706819107, 7,15,19,15
318,0.0,0.0, 7,15, 1,15,0.0, 7,15, 1,15
355,197687796.27748066,18561.32405820678, 7,15, 4,15,724774.895203776, 7,20,18,15
403,197687796.27748066,18561.32405820678, 7,15, 4,15,724774.895203776, 7,20,18,15
476,106772067.24485716,7098.072629279515, 7,15, 4,15,356036.3026282215, 7,20,12,15
513,0.0,0.0, 7,15, 1,15,0.0, 7,15, 1,15
562,56343856.260150954,7938.8513253334595, 7,20, 6,30,140234.13419008907, 7,20,18,60
1046,0.0,0.0, 7,15, 1,15,0.0, 7,15, 1,15
1096,523994666.29606336,65844.56049781444, 7,20, 6,30,1474529.3480825438, 7,18,17,60
1134,0.0,0.0, 7,15, 1,15,0.0, 7,15, 1,15
1326,264836767.785222,0.0, 7,15, 1,15,4050000.0, 7,15, 8,30
1379,0.0,0.0, 7,15, 1,15,0.0, 7,15, 1,15
1,ANNUAL,  38.38, -81.59,  -5.00, 277.40
5,365
1038,4.0,0.0, 1, 1, 1,15,0.25, 1, 4, 6,15
1039,430.5,0.0, 1, 1, 1,15,0.25, 3,27,14,60
581,0.1868104026480615,0.0, 4, 9,23, 3,1.406307104165785, 4,16,21,50
582,2.2870941053421383,0.0, 1, 3,23,11,32.35346747475757, 1,30, 3,47
583,0.026250975756162448,0.0, 4, 9,23, 3,0.08282966691934415, 1,30, 6,52
1115,14747377243.690634,0.0, 1, 1,23, 3,4385605.494763211, 1,22, 6,45
1128,4806839940.906744,0.0, 1, 1,23, 3,1362581.079893207, 1,30, 8,15
1153,191738439.6493182,0.0, 1, 1, 1,31,108134.43863922157,12, 7, 6,45
1154,1626598751.763976,0.0, 1, 1, 1,46,180000.0, 1, 4,14,60
1155,1496642470.787284,0.0, 1, 1, 1, 3,4164753.9555848767, 1,21, 6,60
1156,1496642470.787284,0.0, 1, 1, 1, 3,4164753.9555848767, 1,21, 6,60
1292,-1198972815.5273013,-39790.355211691036, 4, 2, 3,45,-1552.0782406842252, 3,31,10, 1
1306,15988751596.684286,0.0, 1, 1, 1, 3,4050000.0, 1, 1, 9,60
1307,6300968818.770535,0.0, 1, 1, 1, 3,16280790.79645238, 1,27, 9,60
1308,15988751596.684286,0.0, 1, 1, 1, 3,4050000.0, 1, 1, 9,60
13,55566996018.6119,151703.1275401932, 1, 9, 4,15,9340171.271709202, 1, 4, 8,60
61,15743207428.383959,88139.10953165221, 1, 1, 1,15,1282023.4113694867, 1, 1,20,15
134,3685071073.4325233,63564.01800854099, 1, 2, 4,15,156554.22484006523, 1, 1,20,15
170,273393721.45532674,348.4159749238097, 1, 2, 4,15,17476.39704006126, 1, 1,12,15
207,339560869.0695816,815.2532113832032, 1, 2, 3,15,22990.642799023623, 1, 1,10,15
244,664895467.8009144,1521.856143006317, 1, 2, 4,15,53038.631142310165, 1, 1,20,15
281,2407221015.106824,59938.60262432081, 1, 1, 5,15,81951.81706819107, 1, 1,19,15
318,0.0,0.0, 1, 1, 1,15,0.0, 1, 1, 1,15
355,10310294493.051695,18561.32405820678, 1, 2, 4,15,724774.895203776, 1, 1,18,15
403,10310294493.051695,18561.32405820678, 1, 2, 4,15,724774.895203776, 1, 1,18,15
476,5569688622.066177,7098.072629279515, 1, 2, 4,15,356036.3026282215, 1, 1,12,15
513,0.0,0.0, 1, 1, 1,15,0.0, 1, 1, 1,15
562,1721119690.8011758,0.0, 1, 4,14,60,140234.13419008907, 6,10,16,60
1046,0.0,0.0, 1, 1, 1,15,0.0, 1, 1, 1,15
1096,10307026626.200508,0.0, 1, 1, 1,15,1508287.5441330974, 9, 1,17,60
1134,8121819603.107296,0.0, 1, 6,13,45,5772449.780040338, 1, 4, 6,15
1326,15988751596.684296,0.0, 1, 1, 1,15,4050000.0000000014, 3, 9,10,30
1379,0.0,0.0, 1, 1, 1,15,0.0, 1, 1, 1,15
End of Data
 Number of Records Written=          99
