Program Version,EnergyPlus, Version 22.2.0-c249759bad, YMD=2023.09.01 20:14
1,5,Environment Title[],Latitude[deg],Longitude[deg],Time Zone[],Elevation[m]
2,8,Day of Simulation[],Month[],Day of Month[],DST Indicator[1=yes 0=no],Hour[],StartMinute[],EndMinute[],DayType
3,5,Cumulative Day of Simulation[],Month[],Day of Month[],DST Indicator[1=yes 0=no],DayType  ! When Daily Report Variables Requested
4,2,Cumulative Days of Simulation[],Month[]  ! When Monthly Report Variables Requested
5,1,Cumulative Days of Simulation[] ! When Run Period Report Variables Requested
6,1,Calendar Year of Simulation[] ! When Annual Report Variables Requested
581,11,LIVING,AFN Zone Infiltration Air Change Rate [ach] !RunPeriod [Value,Min,Month,Day,Hour,Minute,Max,Month,Day,Hour,Minute]
582,11,ATTIC,AFN Zone Infiltration Air Change Rate [ach] !RunPeriod [Value,Min,Month,Day,Hour,Minute,Max,Month,Day,Hour,Minute]
583,11,CRAWLSPACE,AFN Zone Infiltration Air Change Rate [ach] !RunPeriod [Value,Min,Month,Day,Hour,Minute,Max,Month,Day,Hour,Minute]
1038,11,Facility,Facility Heating Setpoint Not Met Time [hr] !RunPeriod [Value,Min,Month,Day,Hour,Minute,Max,Month,Day,Hour,Minute]
1039,11,Facility,Facility Cooling Setpoint Not Met Time [hr] !RunPeriod [Value,Min,Month,Day,Hour,Minute,Max,Month,Day,Hour,Minute]
1115,11,DX_HEATING_COIL,Heating Coil Heating Energy [J] !RunPeriod [Value,Min,Month,Day,Hour,Minute,Max,Month,Day,Hour,Minute]
1128,11,DX_HEATING_COIL,Heating Coil Electricity Energy [J] !RunPeriod [Value,Min,Month,Day,Hour,Minute,Max,Month,Day,Hour,Minute]
1153,11,DX_HEATING_COIL,Heating Coil Defrost Electricity Energy [J] !RunPeriod [Value,Min,Month,Day,Hour,Minute,Max,Month,Day,Hour,Minute]
1154,11,DX_HEATING_COIL,Heating Coil Crankcase Heater Electricity Energy [J] !RunPeriod [Value,Min,Month,Day,Hour,Minute,Max,Month,Day,Hour,Minute]
1155,11,HEATING_RESISTANCE_BACKUP,Heating Coil Heating Energy [J] !RunPeriod [Value,Min,Month,Day,Hour,Minute,Max,Month,Day,Hour,Minute]
1156,11,HEATING_RESISTANCE_BACKUP,Heating Coil Electricity Energy [J] !RunPeriod [Value,Min,Month,Day,Hour,Minute,Max,Month,Day,Hour,Minute]
1292,11,WATER HEATER,Water Heater Heat Loss Energy [J] !RunPeriod [Value,Min,Month,Day,Hour,Minute,Max,Month,Day,Hour,Minute]
1306,11,WATER HEATER,Water Heater Heating Energy [J] !RunPeriod [Value,Min,Month,Day,Hour,Minute,Max,Month,Day,Hour,Minute]
1307,11,WATER HEATER,Water Heater Unmet Demand Heat Transfer Energy [J] !RunPeriod [Value,Min,Month,Day,Hour,Minute,Max,Month,Day,Hour,Minute]
1308,11,WATER HEATER,Water Heater Electricity Energy [J] !RunPeriod [Value,Min,Month,Day,Hour,Minute,Max,Month,Day,Hour,Minute]
13,11,Electricity:Facility [J] !RunPeriod [Value,Min,Month,Day,Hour,Minute,Max,Month,Day,Hour,Minute]
1134,11,Heating:Electricity [J] !RunPeriod [Value,Min,Month,Day,Hour,Minute,Max,Month,Day,Hour,Minute]
1096,11,Cooling:Electricity [J] !RunPeriod [Value,Min,Month,Day,Hour,Minute,Max,Month,Day,Hour,Minute]
562,11,Fans:Electricity [J] !RunPeriod [Value,Min,Month,Day,Hour,Minute,Max,Month,Day,Hour,Minute]
1379,11,Pumps:Electricity [J] !RunPeriod [Value,Min,Month,Day,Hour,Minute,Max,Month,Day,Hour,Minute]
1326,11,WaterSystems:Electricity [J] !RunPeriod [Value,Min,Month,Day,Hour,Minute,Max,Month,Day,Hour,Minute]
61,11,InteriorLights:Electricity [J] !RunPeriod [Value,Min,Month,Day,Hour,Minute,Max,Month,Day,Hour,Minute]
1046,11,ExteriorLights:Electricity [J] !RunPeriod [Value,Min,Month,Day,Hour,Minute,Max,Month,Day,Hour,Minute]
134,11,InteriorEquipment:Electricity [J] !RunPeriod [Value,Min,Month,Day,Hour,Minute,Max,Month,Day,Hour,Minute]
170,11,gas_dryer:InteriorEquipment:Electricity [J] !RunPeriod [Value,Min,Month,Day,Hour,Minute,Max,Month,Day,Hour,Minute]
207,11,clotheswasher:InteriorEquipment:Electricity [J] !RunPeriod [Value,Min,Month,Day,Hour,Minute,Max,Month,Day,Hour,Minute]
244,11,dishwasher:InteriorEquipment:Electricity [J] !RunPeriod [Value,Min,Month,Day,Hour,Minute,Max,Month,Day,Hour,Minute]
281,11,refrigerator:InteriorEquipment:Electricity [J] !RunPeriod [Value,Min,Month,Day,Hour,Minute,Max,Month,Day,Hour,Minute]
318,11,electric_mels:InteriorEquipment:Electricity [J] !RunPeriod [Value,Min,Month,Day,Hour,Minute,Max,Month,Day,Hour,Minute]
355,11,NaturalGas:Facility [J] !RunPeriod [Value,Min,Month,Day,Hour,Minute,Max,Month,Day,Hour,Minute]
403,11,InteriorEquipment:NaturalGas [J] !RunPeriod [Value,Min,Month,Day,Hour,Minute,Max,Month,Day,Hour,Minute]
476,11,gas_dryer:InteriorEquipment:NaturalGas [J] !RunPeriod [Value,Min,Month,Day,Hour,Minute,Max,Month,Day,Hour,Minute]
513,11,gas_mels:InteriorEquipment:NaturalGas [J] !RunPeriod [Value,Min,Month,Day,Hour,Minute,Max,Month,Day,Hour,Minute]
End of Data Dictionary
1,EXTREME_WINTER,  36.01, -94.17,  -6.00, 381.00
5,7
1038,0.75,0.0, 1, 8, 1,15,0.25, 1, 8, 6,15
1039,0.0,0.0, 1, 8, 1,15,0.0, 1, 8, 1,15
581,0.35112934192683004,0.17837140630638804, 1,11,23,22,0.7157890171524985, 1, 8,13,37
582,2.358255688927947,0.0, 1,10, 8,60,9.649388174995721, 1, 8,13,60
583,0.04709796215233937,0.00030357079689071365, 1,11,23,15,0.08356718327785374, 1, 8, 9,50
1115,1594320696.8593311,0.0, 1, 8,23, 5,4348811.60722206, 1, 9, 5,60
1128,541253894.361126,0.0, 1, 8,23, 5,1391147.5032929718, 1, 9, 6,30
1153,17184966.868265722,0.0, 1, 8,23, 5,129214.56214307988, 1,12, 6,60
1154,46343872.58213437,0.0, 1, 8, 1,30,180000.0, 1, 9,14,60
1155,370860751.72033584,0.0, 1, 8, 1, 7,4599199.807922225, 1, 8, 6,45
1156,370860751.72033584,0.0, 1, 8, 1, 7,4599199.807922225, 1, 8, 6,45
1292,-25330047.27764251,-39758.50770274653, 1,11, 4,30,-4683.353213155847, 1,14,11,15
1306,122573352.81427754,0.0, 1, 8, 1, 7,4050000.0, 1, 8, 7,15
1307,22080371.444275737,0.0, 1, 8, 1, 7,6816913.061428583, 1, 8, 6,60
1308,122573352.81427754,0.0, 1, 8, 1, 7,4050000.0, 1, 8, 7,15
13,1529078492.9911048,452017.0388981225, 1, 9,15,15,10617508.006406423, 1, 8, 7,15
61,301924526.02383536,88139.10953165221, 1, 8, 1,15,1282023.4113694867, 1, 8,20,15
134,70666020.44019976,63564.01800854099, 1, 8, 4,15,156554.22484006523, 1,13,20,15
170,5241013.419656067,348.4159749238097, 1, 8, 4,15,17476.39704006126, 1,13,12,15
207,6509451.13922267,815.2532113832032, 1, 8, 3,15,22990.642799023623, 1,13,10,15
244,12749673.399825225,1521.856143006317, 1, 8, 4,15,53038.631142310165, 1,13,20,15
281,46165882.481495745,59938.60262432081, 1, 8, 5,15,81951.81706819107, 1, 8,19,15
318,0.0,0.0, 1, 8, 1,15,0.0, 1, 8, 1,15
355,197687796.27748066,18561.32405820678, 1, 8, 4,15,724774.895203776, 1,13,18,15
403,197687796.27748066,18561.32405820678, 1, 8, 4,15,724774.895203776, 1,13,18,15
476,106772067.24485716,7098.072629279515, 1, 8, 4,15,356036.3026282215, 1,13,12,15
513,0.0,0.0, 1, 8, 1,15,0.0, 1, 8, 1,15
562,58271108.180934094,0.0, 1, 9,14,60,140984.79159959074, 1, 8, 1,30
1046,0.0,0.0, 1, 8, 1,15,0.0, 1, 8, 1,15
1096,0.0,0.0, 1, 8, 1,15,0.0, 1, 8, 1,15
1134,975643485.5318618,180000.0, 1, 9,14,60,6067443.566731193, 1,10, 6,30
1326,122573352.81427754,0.0, 1, 8, 1,15,4050000.0, 1, 8, 7,15
1379,0.0,0.0, 1, 8, 1,15,0.0, 1, 8, 1,15
1,EXTREME_SUMMER,  36.01, -94.17,  -6.00, 381.00
5,7
1038,0.0,0.0, 7,29, 1,15,0.0, 7,29, 1,15
1039,36.25,0.0, 7,29, 1,15,0.25, 7,29,14,45
581,0.11108112220348751,0.0, 7,29,20,47,0.5262985484023582, 8, 3,11,50
582,2.713977619931789,0.01829914292953627, 7,31,21,45,9.27688919876358, 8, 3,13,60
583,0.040593058278257,0.0, 7,30,23, 5,0.07674614482652131, 8, 3,11,50
1115,0.0,0.0, 7,29, 1,15,0.0, 7,29, 1,15
1128,0.0,0.0, 7,29, 1,15,0.0, 7,29, 1,15
1153,0.0,0.0, 7,29, 1,15,0.0, 7,29, 1,15
1154,0.0,0.0, 7,29, 1,15,0.0, 7,29, 1,15
1155,0.0,0.0, 7,29, 1,15,0.0, 7,29, 1,15
1156,0.0,0.0, 7,29, 1,15,0.0, 7,29, 1,15
1292,-21937288.28837605,-34363.340902872966, 8, 3, 6,45,-3304.703907006962, 7,29, 9,60
1306,89888344.27170295,0.0, 7,29, 1,15,4050000.0, 7,29, 7,15
1307,8096981.729955612,0.0, 7,29, 1,15,3512835.400709863, 7,29, 6,60
1308,89888344.27170295,0.0, 7,29, 1,15,4050000.0, 7,29, 7,15
13,1078169607.7729242,151703.1275401932, 7,31, 4,15,6833490.585773438, 7,29,19,30
61,301924526.02383536,88139.10953165221, 7,29, 1,15,1282023.4113694867, 7,29,20,15
134,70666020.44019976,63564.01800854099, 7,29, 4,15,156554.22484006523, 8, 3,20,15
170,5241013.419656067,348.4159749238097, 7,29, 4,15,17476.39704006126, 8, 3,12,15
207,6509451.13922267,815.2532113832032, 7,29, 3,15,22990.642799023623, 8, 3,10,15
244,12749673.399825225,1521.856143006317, 7,29, 4,15,53038.631142310165, 8, 3,20,15
281,46165882.481495745,59938.60262432081, 7,29, 5,15,81951.81706819107, 7,29,19,15
318,0.0,0.0, 7,29, 1,15,0.0, 7,29, 1,15
355,197687796.27748066,18561.32405820678, 7,29, 4,15,724774.895203776, 8, 3,18,15
403,197687796.27748066,18561.32405820678, 7,29, 4,15,724774.895203776, 8, 3,18,15
476,106772067.24485716,7098.072629279515, 7,29, 4,15,356036.3026282215, 8, 3,12,15
513,0.0,0.0, 7,29, 1,15,0.0, 7,29, 1,15
562,54469370.87266953,0.0, 7,31, 3,60,140984.79159959077, 8, 1,15,45
1046,0.0,0.0, 7,29, 1,15,0.0, 7,29, 1,15
1096,561221346.164516,0.0, 7,31, 3,60,1685997.8136380445, 8, 1,13,60
1134,0.0,0.0, 7,29, 1,15,0.0, 7,29, 1,15
1326,89888344.27170296,0.0, 7,29, 1,15,4050000.0, 7,29, 7,15
1379,0.0,0.0, 7,29, 1,15,0.0, 7,29, 1,15
1,ANNUAL,  36.01, -94.17,  -6.00, 381.00
5,365
1038,6.5,0.0, 1, 1, 1,15,0.25, 1, 3, 6,15
1039,397.25,0.0, 1, 1, 1,15,0.25, 2,14,15,15
581,0.21280859301405225,0.0, 4,11, 8,32,0.9646276052682671, 4, 8,11,47
582,2.9811657544907053,0.0, 1, 1,23,10,20.94470291825327, 3, 6,12,60
583,0.02596672133224744,0.0, 5,24,23, 3,0.08420519620150917, 1, 4, 7,52
1115,15860143282.18267,0.0, 1, 1,23, 5,4448932.185677911, 1,15, 6,45
1128,5033934533.863609,0.0, 1, 1,23, 5,1386573.5900263486, 1, 9, 6,30
1153,252112503.64586714,0.0, 1, 1,23, 5,133585.35480412893, 2,13, 6,60
1154,1369281643.09718,0.0, 1, 1, 6, 5,180000.0, 1, 5,15,45
1155,1261128126.6779644,0.0, 1, 1, 1,15,4820629.217221543, 1, 8, 6,15
1156,1261128126.6779644,0.0, 1, 1, 1,15,4820629.217221543, 1, 8, 6,15
1292,-1211769563.8150558,-39807.92366625062, 2, 6, 2,45,-2471.8063857602856, 6,16,18,23
1306,5619837025.145573,0.0, 1, 1, 1,15,4050000.0, 1, 2, 7,15
1307,819576811.4867826,0.0, 1, 1, 1,15,7014659.652728024, 2, 6, 6,60
1308,5619837025.145573,0.0, 1, 1, 1,15,4050000.0, 1, 2, 7,15
13,44940706023.91634,151703.1275401932, 2, 7, 4,15,9936911.888788579, 1,10, 7,30
61,15743207428.383959,88139.10953165221, 1, 1, 1,15,1282023.4113694867, 1, 1,20,15
134,3685071073.4325233,63564.01800854099, 1, 2, 4,15,156554.22484006523, 1, 1,20,15
170,273393721.45532674,348.4159749238097, 1, 2, 4,15,17476.39704006126, 1, 1,12,15
207,339560869.0695816,815.2532113832032, 1, 2, 3,15,22990.642799023623, 1, 1,10,15
244,664895467.8009144,1521.856143006317, 1, 2, 4,15,53038.631142310165, 1, 1,20,15
281,2407221015.106824,59938.60262432081, 1, 1, 5,15,81951.81706819107, 1, 1,19,15
318,0.0,0.0, 1, 1, 1,15,0.0, 1, 1, 1,15
355,10310294493.051695,18561.32405820678, 1, 2, 4,15,724774.895203776, 1, 1,18,15
403,10310294493.051695,18561.32405820678, 1, 2, 4,15,724774.895203776, 1, 1,18,15
476,5569688622.066177,7098.072629279515, 1, 2, 4,15,356036.3026282215, 1, 1,12,15
513,0.0,0.0, 1, 1, 1,15,0.0, 1, 1, 1,15
562,1670748969.0351021,0.0, 1, 2,23,15,140984.79159959077, 6, 6,17,30
1046,0.0,0.0, 1, 1, 1,15,0.0, 1, 1, 1,15
1096,10305384720.631788,0.0, 1, 1, 1,15,1690526.881619724, 8, 5,17,60
1134,7916456807.284617,0.0, 1,16,12,15,6081515.963478753, 1, 8, 8,45
1326,5619837025.145594,0.0, 1, 1, 1,15,4050000.0000000014, 4,15,10,30
1379,0.0,0.0, 1, 1, 1,15,0.0, 1, 1, 1,15
End of Data
 Number of Records Written=          99
