Program Version,EnergyPlus, Version 22.2.0-c249759bad, YMD=2023.09.01 20:44
1,5,Environment Title[],Latitude[deg],Longitude[deg],Time Zone[],Elevation[m]
2,8,Day of Simulation[],Month[],Day of Month[],DST Indicator[1=yes 0=no],Hour[],StartMinute[],EndMinute[],DayType
3,5,Cumulative Day of Simulation[],Month[],Day of Month[],DST Indicator[1=yes 0=no],DayType  ! When Daily Report Variables Requested
4,2,Cumulative Days of Simulation[],Month[]  ! When Monthly Report Variables Requested
5,1,Cumulative Days of Simulation[] ! When Run Period Report Variables Requested
6,1,Calendar Year of Simulation[] ! When Annual Report Variables Requested
581,11,LIVING,AFN Zone Infiltration Air Change Rate [ach] !RunPeriod [Value,Min,Month,Day,Hour,Minute,Max,Month,Day,Hour,Minute]
582,11,ATTIC,AFN Zone Infiltration Air Change Rate [ach] !RunPeriod [Value,Min,Month,Day,Hour,Minute,Max,Month,Day,Hour,Minute]
583,11,CRAWLSPACE,AFN Zone Infiltration Air Change Rate [ach] !RunPeriod [Value,Min,Month,Day,Hour,Minute,Max,Month,Day,Hour,Minute]
1038,11,Facility,Facility Heating Setpoint Not Met Time [hr] !RunPeriod [Value,Min,Month,Day,Hour,Minute,Max,Month,Day,Hour,Minute]
1039,11,Facility,Facility Cooling Setpoint Not Met Time [hr] !RunPeriod [Value,Min,Month,Day,Hour,Minute,Max,Month,Day,Hour,Minute]
1115,11,DX_HEATING_COIL,Heating Coil Heating Energy [J] !RunPeriod [Value,Min,Month,Day,Hour,Minute,Max,Month,Day,Hour,Minute]
1128,11,DX_HEATING_COIL,Heating Coil Electricity Energy [J] !RunPeriod [Value,Min,Month,Day,Hour,Minute,Max,Month,Day,Hour,Minute]
1153,11,DX_HEATING_COIL,Heating Coil Defrost Electricity Energy [J] !RunPeriod [Value,Min,Month,Day,Hour,Minute,Max,Month,Day,Hour,Minute]
1154,11,DX_HEATING_COIL,Heating Coil Crankcase Heater Electricity Energy [J] !RunPeriod [Value,Min,Month,Day,Hour,Minute,Max,Month,Day,Hour,Minute]
1155,11,HEATING_RESISTANCE_BACKUP,Heating Coil Heating Energy [J] !RunPeriod [Value,Min,Month,Day,Hour,Minute,Max,Month,Day,Hour,Minute]
1156,11,HEATING_RESISTANCE_BACKUP,Heating Coil Electricity Energy [J] !RunPeriod [Value,Min,Month,Day,Hour,Minute,Max,Month,Day,Hour,Minute]
1292,11,WATER HEATER,Water Heater Heat Loss Energy [J] !RunPeriod [Value,Min,Month,Day,Hour,Minute,Max,Month,Day,Hour,Minute]
1306,11,WATER HEATER,Water Heater Heating Energy [J] !RunPeriod [Value,Min,Month,Day,Hour,Minute,Max,Month,Day,Hour,Minute]
1307,11,WATER HEATER,Water Heater Unmet Demand Heat Transfer Energy [J] !RunPeriod [Value,Min,Month,Day,Hour,Minute,Max,Month,Day,Hour,Minute]
1308,11,WATER HEATER,Water Heater Electricity Energy [J] !RunPeriod [Value,Min,Month,Day,Hour,Minute,Max,Month,Day,Hour,Minute]
13,11,Electricity:Facility [J] !RunPeriod [Value,Min,Month,Day,Hour,Minute,Max,Month,Day,Hour,Minute]
1134,11,Heating:Electricity [J] !RunPeriod [Value,Min,Month,Day,Hour,Minute,Max,Month,Day,Hour,Minute]
1096,11,Cooling:Electricity [J] !RunPeriod [Value,Min,Month,Day,Hour,Minute,Max,Month,Day,Hour,Minute]
562,11,Fans:Electricity [J] !RunPeriod [Value,Min,Month,Day,Hour,Minute,Max,Month,Day,Hour,Minute]
1379,11,Pumps:Electricity [J] !RunPeriod [Value,Min,Month,Day,Hour,Minute,Max,Month,Day,Hour,Minute]
1326,11,WaterSystems:Electricity [J] !RunPeriod [Value,Min,Month,Day,Hour,Minute,Max,Month,Day,Hour,Minute]
61,11,InteriorLights:Electricity [J] !RunPeriod [Value,Min,Month,Day,Hour,Minute,Max,Month,Day,Hour,Minute]
1046,11,ExteriorLights:Electricity [J] !RunPeriod [Value,Min,Month,Day,Hour,Minute,Max,Month,Day,Hour,Minute]
134,11,InteriorEquipment:Electricity [J] !RunPeriod [Value,Min,Month,Day,Hour,Minute,Max,Month,Day,Hour,Minute]
170,11,gas_dryer:InteriorEquipment:Electricity [J] !RunPeriod [Value,Min,Month,Day,Hour,Minute,Max,Month,Day,Hour,Minute]
207,11,clotheswasher:InteriorEquipment:Electricity [J] !RunPeriod [Value,Min,Month,Day,Hour,Minute,Max,Month,Day,Hour,Minute]
244,11,dishwasher:InteriorEquipment:Electricity [J] !RunPeriod [Value,Min,Month,Day,Hour,Minute,Max,Month,Day,Hour,Minute]
281,11,refrigerator:InteriorEquipment:Electricity [J] !RunPeriod [Value,Min,Month,Day,Hour,Minute,Max,Month,Day,Hour,Minute]
318,11,electric_mels:InteriorEquipment:Electricity [J] !RunPeriod [Value,Min,Month,Day,Hour,Minute,Max,Month,Day,Hour,Minute]
355,11,NaturalGas:Facility [J] !RunPeriod [Value,Min,Month,Day,Hour,Minute,Max,Month,Day,Hour,Minute]
403,11,InteriorEquipment:NaturalGas [J] !RunPeriod [Value,Min,Month,Day,Hour,Minute,Max,Month,Day,Hour,Minute]
476,11,gas_dryer:InteriorEquipment:NaturalGas [J] !RunPeriod [Value,Min,Month,Day,Hour,Minute,Max,Month,Day,Hour,Minute]
513,11,gas_mels:InteriorEquipment:NaturalGas [J] !RunPeriod [Value,Min,Month,Day,Hour,Minute,Max,Month,Day,Hour,Minute]
End of Data Dictionary
1,EXTREME_WINTER,  40.70, -74.17,  -5.00,   9.00
5,7
1038,0.75,0.0, 1,27, 1,15,0.25, 1,29, 6,15
1039,0.0,0.0, 1,27, 1,15,0.0, 1,27, 1,15
581,0.44251874540738034,0.2172281571025031, 1,27,21,60,0.9095866180961226, 1,28,21,48
582,6.60284938630543,0.0, 1,28, 4,60,20.671975830151773, 1,28,18,52
583,0.0506057260357848,0.0003477124708442702, 2, 2,15,50,0.08267745837267185, 1,28,21,48
1115,1680717714.294898,0.0, 1,27,11,20,3965197.788971918, 2, 2, 6,45
1128,559100072.0049258,0.0, 1,27,11,20,1253260.3974083522, 1,29,13,30
1153,9905326.392810374,0.0, 1,27,11,20,80805.66701445554, 2, 2, 6,60
1154,38772348.69266114,0.0, 1,27, 6, 5,180000.0, 1,27,12,45
1155,477912561.5361232,0.0, 1,27, 1,15,4203309.325362926, 1,31, 6,45
1156,477912561.5361232,0.0, 1,27, 1,15,4203309.325362926, 1,31, 6,45
1292,-25244891.60996286,-39762.3540634392, 1,27, 1,15,-3943.9784507841437, 1,31,15,59
1306,264670484.19337156,0.0, 1,27, 1,15,4050000.0, 1,27, 8,45
1307,88077401.89476706,0.0, 1,27, 1,15,14055987.265892956, 1,27, 8,30
1308,264670484.19337156,0.0, 1,27, 1,15,4050000.0, 1,27, 8,45
13,1783075755.2987087,452017.0388981225, 1,27,15,15,9886142.0972502, 1,30, 6,60
61,301924526.02383536,88139.10953165221, 1,27, 1,15,1282023.4113694867, 1,27,20,15
134,70666020.44019976,63564.01800854099, 1,27, 4,15,156554.22484006523, 2, 1,20,15
170,5241013.419656067,348.4159749238097, 1,27, 4,15,17476.39704006126, 2, 1,12,15
207,6509451.13922267,815.2532113832032, 1,27, 3,15,22990.642799023623, 2, 1,10,15
244,12749673.399825225,1521.856143006317, 1,27, 4,15,53038.631142310165, 2, 1,20,15
281,46165882.481495745,59938.60262432081, 1,27, 5,15,81951.81706819107, 1,27,19,15
318,0.0,0.0, 1,27, 1,15,0.0, 1,27, 1,15
355,197687796.27748066,18561.32405820678, 1,27, 4,15,724774.895203776, 2, 1,18,15
403,197687796.27748066,18561.32405820678, 1,27, 4,15,724774.895203776, 2, 1,18,15
476,106772067.24485716,7098.072629279515, 1,27, 4,15,356036.3026282215, 2, 1,12,15
513,0.0,0.0, 1,27, 1,15,0.0, 1,27, 1,15
562,60124416.014782384,0.0, 1,27,11,30,131884.28310434963, 1,28,21,45
1046,0.0,0.0, 1,27, 1,15,0.0, 1,27, 1,15
1096,0.0,0.0, 1,27, 1,15,0.0, 1,27, 1,15
1134,1085690308.62652,179999.99999999997, 2, 2,17,30,6096265.428465131, 1,31, 6,15
1326,264670484.19337147,0.0, 1,27, 1,15,4050000.0, 1,27, 8,45
1379,0.0,0.0, 1,27, 1,15,0.0, 1,27, 1,15
1,EXTREME_SUMMER,  40.70, -74.17,  -5.00,   9.00
5,7
1038,0.0,0.0, 7,27, 1,15,0.0, 7,27, 1,15
1039,53.5,0.0, 7,27, 1,15,0.25, 7,27,15,30
581,0.15154079964424977,0.0, 7,28, 7,33,0.4905631625674881, 7,30,14,52
582,4.041857682257704,0.09466128688513603, 7,28, 8,18,18.24392973947882, 7,30,16,48
583,0.044710325887672875,0.0007759694395467722, 7,28,23, 3,0.07177358831322231, 7,30,14,52
1115,0.0,0.0, 7,27, 1,15,0.0, 7,27, 1,15
1128,0.0,0.0, 7,27, 1,15,0.0, 7,27, 1,15
1153,0.0,0.0, 7,27, 1,15,0.0, 7,27, 1,15
1154,0.0,0.0, 7,27, 1,15,0.0, 7,27, 1,15
1155,0.0,0.0, 7,27, 1,15,0.0, 7,27, 1,15
1156,0.0,0.0, 7,27, 1,15,0.0, 7,27, 1,15
1292,-21745361.257822737,-34326.97411492769, 7,30,18,45,-3858.8581743862305, 7,28,16,31
1306,188338863.87502554,0.0, 7,27, 1,15,4050000.0, 7,30, 6,60
1307,42432190.443632916,0.0, 7,27, 1,15,3097304.2437468665, 7,27, 8,25
1308,188338863.87502554,0.0, 7,27, 1,15,4050000.0, 7,30, 6,60
13,1198312910.3051765,293485.0561088103, 7,31, 4,60,6291607.775625738, 7,29,17,30
61,301924526.02383536,88139.10953165221, 7,27, 1,15,1282023.4113694867, 7,27,20,15
134,70666020.44019976,63564.01800854099, 7,27, 4,15,156554.22484006523, 8, 1,20,15
170,5241013.419656067,348.4159749238097, 7,27, 4,15,17476.39704006126, 8, 1,12,15
207,6509451.13922267,815.2532113832032, 7,27, 3,15,22990.642799023623, 8, 1,10,15
244,12749673.399825225,1521.856143006317, 7,27, 4,15,53038.631142310165, 8, 1,20,15
281,46165882.481495745,59938.60262432081, 7,27, 5,15,81951.81706819107, 7,27,19,15
318,0.0,0.0, 7,27, 1,15,0.0, 7,27, 1,15
355,197687796.27748066,18561.32405820678, 7,27, 4,15,724774.895203776, 8, 1,18,15
403,197687796.27748066,18561.32405820678, 7,27, 4,15,724774.895203776, 8, 1,18,15
476,106772067.24485716,7098.072629279515, 7,27, 4,15,356036.3026282215, 8, 1,12,15
513,0.0,0.0, 7,27, 1,15,0.0, 7,27, 1,15
562,59920166.50598306,14603.304201358733, 7,31, 5,45,131884.28310434963, 7,27,14,45
1046,0.0,0.0, 7,27, 1,15,0.0, 7,27, 1,15
1096,577463333.4601331,124656.56432643678, 7,31, 5,45,1437517.9672809376, 8, 1,15,60
1134,0.0,0.0, 7,27, 1,15,0.0, 7,27, 1,15
1326,188338863.87502554,0.0, 7,27, 1,15,4050000.0, 7,27, 8,45
1379,0.0,0.0, 7,27, 1,15,0.0, 7,27, 1,15
1,ANNUAL,  40.70, -74.17,  -5.00,   9.00
5,365
1038,8.5,0.0, 1, 1, 1,15,0.25, 1, 3, 6,15
1039,524.75,0.0, 1, 1, 1,15,0.25, 3,12,17,30
581,0.27711413705351595,0.0, 6, 9,23, 3,1.2523340032847765, 8,19,19,48
582,5.099250609702209,0.0, 1,14, 6,60,39.32776352710775, 8,28,16,60
583,0.027859420221074772,0.000025254306888620896,10, 9,23, 3,0.09221854291037507, 8,19,19,48
1115,20496728047.847775,0.0, 1, 1,13,48,4374915.234737845, 2,15, 4,45
1128,6421739953.777346,0.0, 1, 1,13,48,1304421.1097469165, 1, 2,10,60
1153,108573324.63212456,0.0, 1, 1,13,48,122536.50977588184,12,19, 6,45
1154,1532542623.3948395,0.0, 1, 1, 6, 5,180000.0, 1, 1,14,45
1155,2283476948.906182,0.0, 1, 1, 1,15,4387942.97126665, 1,30, 6,45
1156,2283476948.906182,0.0, 1, 1, 1,15,4387942.97126665, 1,30, 6,45
1292,-1216254896.1327627,-39835.856222900045,11,24,23,30,-2257.8608990866824, 4,24, 8,31
1306,11850730849.054443,0.0, 1, 1, 1,15,4050000.0, 1, 1,10,45
1307,3376045584.127766,0.0, 1, 1, 1,15,14106509.24452705, 2, 6, 8,30
1308,11850730849.054443,0.0, 1, 1, 1,15,4050000.0, 1, 1,10,45
13,52845219316.7502,151703.1275401932, 3, 6, 4,15,10169067.463511152, 1,31, 7,15
61,15743207428.383959,88139.10953165221, 1, 1, 1,15,1282023.4113694867, 1, 1,20,15
134,3685071073.4325233,63564.01800854099, 1, 2, 4,15,156554.22484006523, 1, 1,20,15
170,273393721.45532674,348.4159749238097, 1, 2, 4,15,17476.39704006126, 1, 1,12,15
207,339560869.0695816,815.2532113832032, 1, 2, 3,15,22990.642799023623, 1, 1,10,15
244,664895467.8009144,1521.856143006317, 1, 2, 4,15,53038.631142310165, 1, 1,20,15
281,2407221015.106824,59938.60262432081, 1, 1, 5,15,81951.81706819107, 1, 1,19,15
318,0.0,0.0, 1, 1, 1,15,0.0, 1, 1, 1,15
355,10310294493.051695,18561.32405820678, 1, 2, 4,15,724774.895203776, 1, 1,18,15
403,10310294493.051695,18561.32405820678, 1, 2, 4,15,724774.895203776, 1, 1,18,15
476,5569688622.066177,7098.072629279515, 1, 2, 4,15,356036.3026282215, 1, 1,12,15
513,0.0,0.0, 1, 1, 1,15,0.0, 1, 1, 1,15
562,1751474670.8984854,0.0, 1, 1,13,60,131884.28310434966, 8,23,16,60
1046,0.0,0.0, 1, 1, 1,15,0.0, 1, 1, 1,15
1096,9468402444.26851,0.0, 1, 1, 1,15,1475298.8623791402, 7,19,15,60
1134,10346332850.710476,0.0, 1,15,15,30,6188884.256664723, 1,31, 6,15
1326,11850730849.054482,0.0, 1, 1, 1,15,4050000.0, 1, 1,10,30
1379,0.0,0.0, 1, 1, 1,15,0.0, 1, 1, 1,15
End of Data
 Number of Records Written=          99
