Program Version,EnergyPlus, Version 22.2.0-c249759bad, YMD=2023.07.07 16:05
1,5,Environment Title[],Latitude[deg],Longitude[deg],Time Zone[],Elevation[m]
2,8,Day of Simulation[],Month[],Day of Month[],DST Indicator[1=yes 0=no],Hour[],StartMinute[],EndMinute[],DayType
3,5,Cumulative Day of Simulation[],Month[],Day of Month[],DST Indicator[1=yes 0=no],DayType  ! When Daily Report Variables Requested
4,2,Cumulative Days of Simulation[],Month[]  ! When Monthly Report Variables Requested
5,1,Cumulative Days of Simulation[] ! When Run Period Report Variables Requested
6,1,Calendar Year of Simulation[] ! When Annual Report Variables Requested
7,1,Environment,Site Outdoor Air Drybulb Temperature [C] !Hourly
545,1,LIVING,Zone Mean Air Temperature [C] !Hourly
546,1,ATTIC,Zone Mean Air Temperature [C] !Hourly
547,1,CRAWLSPACE,Zone Mean Air Temperature [C] !Hourly
548,1,FAN,Fan Electricity Rate [W] !Hourly
1090,1,DX_COOLING_COIL,Cooling Coil Electricity Rate [W] !Hourly
End of Data Dictionary
1,EXTREME_WINTER,  25.79, -80.32,  -5.00,   8.80
2,1, 1,15, 0, 1, 0.00,60.00,Monday
7,21.099999999999998
545,24.44420783102986
546,20.88028683134079
547,21.63219313503289
548,11.61147961672769
1090,99.0281594828137
2,1, 1,15, 0, 2, 0.00,60.00,Monday
7,21.099999999999998
545,24.44432306712032
546,21.181384629742258
547,21.63144358449109
548,10.484767087945835
1090,89.41008703763767
2,1, 1,15, 0, 3, 0.00,60.00,Monday
7,21.099999999999998
545,24.4432997558561
546,21.0903647980453
547,21.58421996554272
548,8.772813844556433
1090,74.68825951526014
2,1, 1,15, 0, 4, 0.00,60.00,Monday
7,21.041666666666668
545,24.444239431352155
546,20.991073113607758
547,21.518239371966377
548,6.831142986096822
1090,57.937012353747924
2,1, 1,15, 0, 5, 0.00,60.00,Monday
7,21.058333333333334
545,24.44458550866477
546,20.933233922053848
547,21.51357624439389
548,8.50565652028012
1090,71.82455867032526
2,1, 1,15, 0, 6, 0.00,60.00,Monday
7,19.291666666666668
545,23.34640803485752
546,20.03431437513174
547,20.701098650402507
548,29.887685680266184
1090,248.4926584611222
2,1, 1,15, 0, 7, 0.00,60.00,Monday
7,17.883333333333333
545,23.34113462130199
546,18.687474110939537
547,20.356817725430357
548,22.059228968834322
1090,180.7205571892367
2,1, 1,15, 0, 8, 0.00,60.00,Monday
7,17.8
545,23.333669516941328
546,18.2856492539312
547,20.526839595772675
548,25.596683939303375
1090,209.6429470807882
2,1, 1,15, 0, 9, 0.00,60.00,Monday
7,18.091666666666665
545,23.33319680358154
546,18.85069623185742
547,20.53439882536625
548,25.315899877658364
1090,207.9587962975473
2,1, 1,15, 0,10, 0.00,60.00,Monday
7,18.3
545,23.333329722624
546,19.8465527282482
547,20.43676721208443
548,25.03894398584192
1090,206.09019328759328
2,1, 1,15, 0,11, 0.00,60.00,Monday
7,18.3
545,23.333229899544992
546,20.19524552409222
547,20.447110962864805
548,21.641586096877035
1090,178.10363113200256
2,1, 1,15, 0,12, 0.00,60.00,Monday
7,18.650000000000002
545,23.331901036157745
546,19.954999450130725
547,20.370687893213876
548,19.19207984502875
1090,158.58971801383962
2,1, 1,15, 0,13, 0.00,60.00,Monday
7,19.191666666666663
545,23.33624605008322
546,20.67700774050287
547,20.53517605016767
548,23.829637584030632
1090,198.22939272895064
2,1, 1,15, 0,14, 0.00,60.00,Monday
7,19.400000000000002
545,23.333571746590735
546,21.98891039335881
547,20.684193032792777
548,29.016228212343595
1090,241.94104575623547
2,1, 1,15, 0,15, 0.00,60.00,Monday
7,20.391666666666666
545,23.338093330269558
546,23.177706588917307
547,21.09731420390972
548,35.51360222878835
1090,300.15874092043924
2,1, 1,15, 0,16, 0.00,60.00,Monday
7,21.099999999999998
545,23.334529185056464
546,25.14735487058101
547,21.46636963118331
548,52.68773128601928
1090,449.0494891889784
2,1, 1,15, 0,17, 0.00,60.00,Monday
7,21.099999999999998
545,23.33570050925083
546,26.22654414658321
547,21.508965466455436
548,78.15172289495018
1090,664.378483052693
2,1, 1,15, 0,18, 0.00,60.00,Monday
7,21.74166666666667
545,23.3344610406787
546,25.4901306446892
547,21.714000335958925
548,77.18805019747374
1090,659.6955238167
2,1, 1,15, 0,19, 0.00,60.00,Monday
7,22.083333333333332
545,23.33366183388006
546,23.393604584665084
547,21.83665415916333
548,64.6711670245803
1090,553.6008933888797
2,1, 1,15, 0,20, 0.00,60.00,Monday
7,21.825
545,23.333310677193126
546,21.8313227679573
547,21.834733940936278
548,60.63455672468303
1090,515.4148275590077
2,1, 1,15, 0,21, 0.00,60.00,Monday
7,21.349999999999998
545,23.33332477330025
546,21.19887335789914
547,21.707053859045732
548,57.60398391852149
1090,486.07300305204603
2,1, 1,15, 0,22, 0.00,60.00,Monday
7,20.808333333333337
545,23.332692917109203
546,20.746146243311248
547,21.53071090978449
548,50.65391148545496
1090,424.61354185735354
2,1, 1,15, 0,23, 0.00,60.00,Monday
7,20.599999999999998
545,24.348164070065234
546,20.641610168382144
547,21.416465131218434
548,16.13622328905822
1090,135.8884352741513
2,1, 1,15, 0,24, 0.00,60.00,Monday
7,20.891666666666666
545,24.445039084650613
546,20.602980005069764
547,21.496929041342895
548,14.454387934517449
1090,122.68481825454352
2,2, 1,16, 0, 1, 0.00,60.00,Tuesday
7,21.099999999999998
545,24.44345337858761
546,20.78917611134479
547,21.540825761097896
548,11.522874233506924
1090,98.2723685591053
2,2, 1,16, 0, 2, 0.00,60.00,Tuesday
7,21.099999999999998
545,24.444302695815015
546,20.859392531455747
547,21.523435679480354
548,10.210899109921186
1090,87.07718107128251
2,2, 1,16, 0, 3, 0.00,60.00,Tuesday
7,21.041666666666668
545,24.443808942826582
546,20.863952197779614
547,21.497245652095945
548,8.339531326206899
1090,70.95985869820302
2,2, 1,16, 0, 4, 0.00,60.00,Tuesday
7,20.066666666666666
545,24.435908496525272
546,20.432919077621985
547,21.03373442348449
548,3.358119251543578
1090,28.258883317063734
2,2, 1,16, 0, 5, 0.00,60.00,Tuesday
7,19.400000000000002
545,24.444452719388604
546,19.693768039075632
547,20.687207635831264
548,1.4270276079343145
1090,11.799742611258246
2,2, 1,16, 0, 6, 0.00,60.00,Tuesday
7,18.583333333333332
545,23.330763458915637
546,19.00852611176966
547,20.450354927728018
548,27.930509470409266
1090,229.85577694985727
2,2, 1,16, 0, 7, 0.00,60.00,Tuesday
7,17.533333333333335
545,23.335590003814122
546,18.147898329594696
547,20.331673766315475
548,21.8575686231208
1090,178.5123466891337
2,2, 1,16, 0, 8, 0.00,60.00,Tuesday
7,17.2
545,23.333497594931988
546,17.544602542600398
547,20.414750624185718
548,19.423484758740376
1090,158.1621952763854
2,2, 1,16, 0, 9, 0.00,60.00,Tuesday
7,17.2
545,23.325735479106786
546,17.415538132403917
547,20.0070741222623
548,11.593909114414949
1090,94.39230899219352
2,2, 1,16, 0,10, 0.00,60.00,Tuesday
7,17.2
545,23.335094793600017
546,18.223662664797015
547,19.808675939706266
548,12.465935508460873
1090,101.50406185843474
2,2, 1,16, 0,11, 0.00,60.00,Tuesday
7,17.2
545,23.333299257315627
546,19.506565477016583
547,19.834324109423108
548,15.522400697167129
1090,126.38803144247913
2,2, 1,16, 0,12, 0.00,60.00,Tuesday
7,17.55
545,23.325331253168585
546,19.710088720826615
547,19.603532445398343
548,14.951235739383748
1090,122.12667012133397
2,2, 1,16, 0,13, 0.00,60.00,Tuesday
7,17.333333333333332
545,23.33812595537584
546,20.42234873775617
547,19.66151071601743
548,22.39278419094597
1090,182.37650282731735
2,2, 1,16, 0,14, 0.00,60.00,Tuesday
7,17.758333333333333
545,23.33253003879686
546,22.14280874816778
547,19.942573087069096
548,29.848477057180403
1090,243.94937261039945
2,2, 1,16, 0,15, 0.00,60.00,Tuesday
7,18.008333333333333
545,23.3334966312889
546,22.10756056414087
547,19.925541798224128
548,30.868144426871424
1090,252.36633160648967
2,2, 1,16, 0,16, 0.00,60.00,Tuesday
7,17.916666666666668
545,23.335162931138484
546,21.919475469930102
547,19.92634303609879
548,39.036501110992866
1090,317.9988708486698
2,2, 1,16, 0,17, 0.00,60.00,Tuesday
7,17.883333333333333
545,23.328898993065213
546,21.267323685766424
547,19.746878875447
548,44.95906397912106
1090,364.9004200188643
2,2, 1,16, 0,18, 0.00,60.00,Tuesday
7,17.45
545,23.335660663783255
546,19.680042391941544
547,19.614365901751327
548,46.33406114919225
1090,372.50212719694315
2,2, 1,16, 0,19, 0.00,60.00,Tuesday
7,16.908333333333335
545,23.33363976744914
546,17.88900715507639
547,19.51878133551138
548,39.15876587795287
1090,311.8616098594634
2,2, 1,16, 0,20, 0.00,60.00,Tuesday
7,16.700000000000003
545,23.33380244254725
546,16.694617790797917
547,19.465025308505798
548,36.10718852845966
1090,286.67331848120017
2,2, 1,16, 0,21, 0.00,60.00,Tuesday
7,16.291666666666668
545,23.332124691945197
546,16.260997053501573
547,19.31290629931738
548,32.750259770658296
1090,258.687545254199
2,2, 1,16, 0,22, 0.00,60.00,Tuesday
7,14.133333333333333
545,23.32746852987604
546,15.407523194058596
547,18.26236484280822
548,17.205344041793836
1090,133.6286456146441
2,2, 1,16, 0,23, 0.00,60.00,Tuesday
7,12.799999999999999
545,23.364358809949564
546,13.885800034305012
547,17.514607325138353
548,0.0
1090,0.0
2,2, 1,16, 0,24, 0.00,60.00,Tuesday
7,12.158333333333331
545,23.031189963799296
546,12.863223979806413
547,17.694431429236626
548,0.0
1090,0.0
2,3, 1,17, 0, 1, 0.00,60.00,Wednesday
7,11.700000000000001
545,22.657210022103218
546,11.853775523538667
547,17.867415668268713
548,0.0
1090,0.0
2,3, 1,17, 0, 2, 0.00,60.00,Wednesday
7,11.700000000000001
545,22.152115158329497
546,11.501416701817393
547,17.694173380507674
548,0.0
1090,0.0
2,3, 1,17, 0, 3, 0.00,60.00,Wednesday
7,11.991666666666665
545,21.675261556023276
546,11.478589449483032
547,17.416677216555296
548,0.0
1090,0.0
2,3, 1,17, 0, 4, 0.00,60.00,Wednesday
7,11.908333333333331
545,21.083068680217963
546,11.585195591934434
547,16.829686330649192
548,0.0
1090,0.0
2,3, 1,17, 0, 5, 0.00,60.00,Wednesday
7,11.700000000000001
545,20.596472137136313
546,11.594869357825045
547,16.470826396897223
548,0.0
1090,0.0
2,3, 1,17, 0, 6, 0.00,60.00,Wednesday
7,11.35
545,20.468076430504865
546,11.400574418827022
547,16.514065696628244
548,0.0
1090,0.0
2,3, 1,17, 0, 7, 0.00,60.00,Wednesday
7,11.1
545,20.438797217741747
546,10.987015627247642
547,16.54958182814298
548,0.0
1090,0.0
2,3, 1,17, 0, 8, 0.00,60.00,Wednesday
7,11.1
545,20.50135174783455
546,10.901343341881601
547,16.475866926363512
548,0.0
1090,0.0
2,3, 1,17, 0, 9, 0.00,60.00,Wednesday
7,12.383333333333333
545,21.25764156595629
546,12.446662245027218
547,16.935266357404426
548,0.0
1090,0.0
2,3, 1,17, 0,10, 0.00,60.00,Wednesday
7,14.291666666666666
545,22.686938316188073
546,16.637072401658333
547,17.475730886418955
548,0.590884164833405
1090,4.521285060505793
2,3, 1,17, 0,11, 0.00,60.00,Wednesday
7,15.0
545,23.33342718316442
546,20.656774135434816
547,17.671801741406355
548,18.69389151754203
1090,142.08596791943614
2,3, 1,17, 0,12, 0.00,60.00,Wednesday
7,16.283333333333335
545,23.333680480671106
546,24.23747203359895
547,18.26492873764819
548,36.37602666283775
1090,278.10420924053193
2,3, 1,17, 0,13, 0.00,60.00,Wednesday
7,17.55
545,23.33396968555921
546,26.87000274914153
547,18.945040779543486
548,50.60529731500774
1090,391.4429849053334
2,3, 1,17, 0,14, 0.00,60.00,Wednesday
7,17.8
545,23.335525762603794
546,27.49776244369869
547,19.10205693267575
548,64.3600024704558
1090,497.8247345495917
2,3, 1,17, 0,15, 0.00,60.00,Wednesday
7,18.091666666666665
545,23.338805244986304
546,27.5185023169923
547,19.38573275726591
548,80.1879405220468
1090,620.9545452394019
2,3, 1,17, 0,16, 0.00,60.00,Wednesday
7,18.650000000000002
545,23.33625012902631
546,27.297207386870202
547,19.731565082512024
548,93.28329983783676
1090,727.060153811571
2,3, 1,17, 0,17, 0.00,60.00,Wednesday
7,18.900000000000002
545,23.333594796472244
546,25.36454981473094
547,19.91668381287434
548,97.18870811056608
1090,759.1312559174453
2,3, 1,17, 0,18, 0.00,60.00,Wednesday
7,17.266666666666666
545,23.333473542591303
546,21.32474481660876
547,19.237996163993373
548,76.02481358411413
1090,581.804076099479
2,3, 1,17, 0,19, 0.00,60.00,Wednesday
7,15.108333333333334
545,23.333712969059075
546,17.45725652542948
547,18.719191555483288
548,51.950840060370695
1090,389.6346626861429
2,3, 1,17, 0,20, 0.00,60.00,Wednesday
7,14.4
545,23.333791611467092
546,14.918829240384994
547,18.6883653722677
548,44.84964693713562
1090,335.27610284123926
2,3, 1,17, 0,21, 0.00,60.00,Wednesday
7,13.466666666666667
545,23.325819294473046
546,13.654012695025854
547,18.433045567748806
548,34.54306155926682
1090,257.0074675249219
2,3, 1,17, 0,22, 0.00,60.00,Wednesday
7,12.158333333333331
545,23.332657885514738
546,12.479684651514006
547,17.719733058371638
548,21.00285750268745
1090,155.0754062430673
2,3, 1,17, 0,23, 0.00,60.00,Wednesday
7,11.700000000000001
545,23.741274496304726
546,11.608266112091904
547,17.543827297436362
548,0.0
1090,0.0
2,3, 1,17, 0,24, 0.00,60.00,Wednesday
7,11.058333333333332
545,23.231723328964947
546,11.136547322790042
547,16.79188822938379
548,0.0
1090,0.0
2,4, 1,18, 0, 1, 0.00,60.00,Thursday
7,10.600000000000001
545,22.406606937082184
546,10.617934677049158
547,16.540005480297353
548,0.0
1090,0.0
2,4, 1,18, 0, 2, 0.00,60.00,Thursday
7,10.600000000000001
545,21.900443802485025
546,10.333918182980932
547,16.69592351481141
548,0.0
1090,0.0
2,4, 1,18, 0, 3, 0.00,60.00,Thursday
7,10.891666666666666
545,21.37376787559012
546,10.640109003341335
547,16.56954719516139
548,0.0
1090,0.0
2,4, 1,18, 0, 4, 0.00,60.00,Thursday
7,10.808333333333332
545,20.8541554298754
546,11.074809407144143
547,16.468608527893778
548,0.0
1090,0.0
2,4, 1,18, 0, 5, 0.00,60.00,Thursday
7,10.600000000000001
545,20.465814752374158
546,11.09891625242812
547,16.408895692123846
548,0.0
1090,0.0
2,4, 1,18, 0, 6, 0.00,60.00,Thursday
7,10.600000000000001
545,20.24920593977099
546,11.00335612673281
547,16.05264550162951
548,0.0
1090,0.0
2,4, 1,18, 0, 7, 0.00,60.00,Thursday
7,10.891666666666666
545,20.001268264351392
546,10.831939651794931
547,15.658507500153256
548,0.0
1090,0.0
2,4, 1,18, 0, 8, 0.00,60.00,Thursday
7,11.1
545,19.925066640729348
546,11.096414189710678
547,15.504435332621172
548,0.0
1090,0.0
2,4, 1,18, 0, 9, 0.00,60.00,Thursday
7,12.091666666666667
545,20.67788850032381
546,12.536677711486497
547,16.23627237419151
548,0.0
1090,0.0
2,4, 1,18, 0,10, 0.00,60.00,Thursday
7,13.733333333333334
545,22.109121642667343
546,16.407059241775887
547,17.105578912996837
548,0.0
1090,0.0
2,4, 1,18, 0,11, 0.00,60.00,Thursday
7,14.4
545,23.27016307919742
546,20.997408179691632
547,17.38861159497096
548,10.307523072468369
1090,79.97256664873126
2,4, 1,18, 0,12, 0.00,60.00,Thursday
7,17.025000000000002
545,23.333622387448944
546,25.26524998931026
547,18.457258926284215
548,36.02034884834833
1090,286.79858728932015
2,4, 1,18, 0,13, 0.00,60.00,Thursday
7,19.541666666666668
545,23.334565094827894
546,29.22274793184501
547,19.62123922411283
548,57.91939921088892
1090,472.5204228221687
2,4, 1,18, 0,14, 0.00,60.00,Thursday
7,20.0
545,23.33469087904702
546,29.878502821552104
547,20.025358427455622
548,68.81953948164345
1090,562.37609798598
2,4, 1,18, 0,15, 0.00,60.00,Thursday
7,19.650000000000002
545,23.33351290339169
546,26.6735647961398
547,19.858222878102566
548,55.47404192889302
1090,449.9844581339794
2,4, 1,18, 0,16, 0.00,60.00,Thursday
7,19.400000000000002
545,23.333932491104857
546,22.886587435460978
547,19.737321601673973
548,42.08861282880461
1090,340.12689656850785
2,4, 1,18, 0,17, 0.00,60.00,Thursday
7,19.400000000000002
545,23.334618360800576
546,21.594972641188495
547,19.822767217691446
548,51.64569987658307
1090,416.43476703604074
2,4, 1,18, 0,18, 0.00,60.00,Thursday
7,18.466666666666665
545,23.332217466129663
546,20.603811901061416
547,19.49436010317271
548,58.359803639086415
1090,463.37665603460806
2,4, 1,18, 0,19, 0.00,60.00,Thursday
7,17.45
545,23.333016750562937
546,18.694889012698066
547,19.295197069465004
548,45.85094196610287
1090,359.2184441875614
2,4, 1,18, 0,20, 0.00,60.00,Thursday
7,17.2
545,23.33381374108635
546,17.200553352054328
547,19.300843037303768
548,40.926060514000206
1090,319.5121488668105
2,4, 1,18, 0,21, 0.00,60.00,Thursday
7,15.916666666666666
545,23.32683724040582
546,16.107414613059586
547,18.88270387968558
548,32.997968366613414
1090,254.294570384963
2,4, 1,18, 0,22, 0.00,60.00,Thursday
7,14.65
545,23.33790008445534
546,14.831475025249636
547,18.739785023892853
548,23.99860985183102
1090,183.3479956663765
2,4, 1,18, 0,23, 0.00,60.00,Thursday
7,14.4
545,24.037202022224722
546,14.210929760463875
547,18.87883391957553
548,0.0
1090,0.0
2,4, 1,18, 0,24, 0.00,60.00,Thursday
7,13.758333333333333
545,23.956139434433805
546,14.163971987799128
547,18.47425069601257
548,0.0
1090,0.0
2,5, 1,19, 0, 1, 0.00,60.00,Friday
7,13.299999999999999
545,23.372041677118403
546,13.926699541282753
547,18.084293543310167
548,0.0
1090,0.0
2,5, 1,19, 0, 2, 0.00,60.00,Friday
7,13.299999999999999
545,22.94730952755154
546,13.784990772724411
547,17.98813794478091
548,0.0
1090,0.0
2,5, 1,19, 0, 3, 0.00,60.00,Friday
7,13.008333333333335
545,22.563426342759556
546,13.589198536285487
547,18.166289655765603
548,0.0
1090,0.0
2,5, 1,19, 0, 4, 0.00,60.00,Friday
7,12.450000000000001
545,22.238015765435293
546,13.012126618854838
547,18.089099734151887
548,0.0
1090,0.0
2,5, 1,19, 0, 5, 0.00,60.00,Friday
7,12.200000000000001
545,22.003470830838527
546,12.570210152740403
547,18.12195469104477
548,0.0
1090,0.0
2,5, 1,19, 0, 6, 0.00,60.00,Friday
7,11.908333333333331
545,21.878577451884297
546,12.352318565055533
547,18.176119320274328
548,0.0
1090,0.0
2,5, 1,19, 0, 7, 0.00,60.00,Friday
7,11.700000000000001
545,21.808851634635815
546,11.723783257920653
547,17.924048258713174
548,0.0
1090,0.0
2,5, 1,19, 0, 8, 0.00,60.00,Friday
7,11.700000000000001
545,21.860696639373568
546,11.227218175995054
547,17.88989237406341
548,0.0
1090,0.0
2,5, 1,19, 0, 9, 0.00,60.00,Friday
7,12.983333333333333
545,22.522974607266153
546,12.842115995829246
547,18.256768288520806
548,0.0
1090,0.0
2,5, 1,19, 0,10, 0.00,60.00,Friday
7,15.825000000000001
545,23.314440907550487
546,19.080929756380655
547,19.12611018649277
548,21.11366433647892
1090,169.78289727026808
2,5, 1,19, 0,11, 0.00,60.00,Friday
7,17.2
545,23.333578668470683
546,27.384101164681258
547,19.514032091954974
548,52.57064517434771
1090,423.4330705914397
2,5, 1,19, 0,12, 0.00,60.00,Friday
7,19.183333333333334
545,23.334988554369342
546,31.935069047038013
547,19.838266123160043
548,68.53324890895435
1090,560.9444080058555
2,5, 1,19, 0,13, 0.00,60.00,Friday
7,20.599999999999998
545,23.333559736818515
546,29.632832375601566
547,20.479059192376717
548,60.41638985352839
1090,500.14999522289
2,5, 1,19, 0,14, 0.00,60.00,Friday
7,20.599999999999998
545,23.334031496891516
546,26.5525858879523
547,20.548757410723894
548,57.6210338590701
1090,475.0435107103149
2,5, 1,19, 0,15, 0.00,60.00,Friday
7,19.900000000000002
545,23.335333282673123
546,26.214409557595747
547,20.25838752833648
548,64.26755108740942
1090,522.0735306515104
2,5, 1,19, 0,16, 0.00,60.00,Friday
7,19.400000000000002
545,23.33629004295098
546,27.6208096748768
547,20.161958258611975
548,78.53167957814769
1090,629.8783499058388
2,5, 1,19, 0,17, 0.00,60.00,Friday
7,19.400000000000002
545,23.334304177114593
546,27.281365063253542
547,20.30232619502608
548,84.54269365909802
1090,675.6154178367398
2,5, 1,19, 0,18, 0.00,60.00,Friday
7,18.466666666666665
545,23.33352821856103
546,23.711796665789468
547,19.97580542837679
548,75.2355886639205
1090,592.6265315918944
2,5, 1,19, 0,19, 0.00,60.00,Friday
7,17.8
545,23.33366454886767
546,19.96429666693182
547,19.892424089367594
548,58.16588741992387
1090,454.5666298384806
2,5, 1,19, 0,20, 0.00,60.00,Friday
7,17.8
545,23.333905986171818
546,18.207437341031227
547,20.118473021553644
548,53.79913778807099
1090,421.3087358832463
2,5, 1,19, 0,21, 0.00,60.00,Friday
7,17.158333333333335
545,23.331792490920297
546,17.17069007684881
547,20.11638729553925
548,47.67905184776735
1090,370.74111672134427
2,5, 1,19, 0,22, 0.00,60.00,Friday
7,16.349999999999998
545,23.333237416192507
546,15.896838012565174
547,19.84366428399451
548,36.775454227085895
1090,282.8770046255124
2,5, 1,19, 0,23, 0.00,60.00,Friday
7,16.099999999999998
545,24.30810825496187
546,15.58345619509165
547,19.764373352428912
548,5.338389743298535
1090,41.44971182919325
2,5, 1,19, 0,24, 0.00,60.00,Friday
7,14.816666666666668
545,24.311134663718608
546,15.11548600684729
547,18.681890072885935
548,0.6473528352395669
1090,5.026167706796602
2,6, 1,20, 0, 1, 0.00,60.00,Saturday
7,12.908333333333333
545,23.539531292965503
546,13.556878883225346
547,17.78279746794803
548,0.0
1090,0.0
2,6, 1,20, 0, 2, 0.00,60.00,Saturday
7,12.200000000000001
545,22.976779096346732
546,12.103466227812715
547,17.660964634719868
548,0.0
1090,0.0
2,6, 1,20, 0, 3, 0.00,60.00,Saturday
7,11.908333333333331
545,22.58101831642991
546,11.344459645511995
547,17.999908788815436
548,0.0
1090,0.0
2,6, 1,20, 0, 4, 0.00,60.00,Saturday
7,11.35
545,22.27960773068439
546,10.351974825593453
547,18.436151712265097
548,0.0
1090,0.0
2,6, 1,20, 0, 5, 0.00,60.00,Saturday
7,11.1
545,21.993688851551855
546,9.453330082798379
547,18.4999378542291
548,0.0
1090,0.0
2,6, 1,20, 0, 6, 0.00,60.00,Saturday
7,10.458333333333334
545,21.7981383554901
546,8.930353753751682
547,18.12014173997331
548,0.0
1090,0.0
2,6, 1,20, 0, 7, 0.00,60.00,Saturday
7,10.0
545,21.594689256382058
546,8.384355348922243
547,18.17093817983047
548,0.0
1090,0.0
2,6, 1,20, 0, 8, 0.00,60.00,Saturday
7,10.0
545,21.651954405985062
546,8.187936563226424
547,18.388228764308185
548,0.0
1090,0.0
2,6, 1,20, 0, 9, 0.00,60.00,Saturday
7,11.283333333333333
545,22.235164109823142
546,10.419588023855022
547,17.764983246603016
548,0.0
1090,0.0
2,6, 1,20, 0,10, 0.00,60.00,Saturday
7,13.191666666666668
545,23.202638014832747
546,15.919861902741713
547,17.698489411869
548,8.428266554368735
1090,65.65081640158903
2,6, 1,20, 0,11, 0.00,60.00,Saturday
7,13.9
545,23.33347937831823
546,21.148162315355684
547,17.829067516460995
548,29.7691365498241
1090,230.3259455880435
2,6, 1,20, 0,12, 0.00,60.00,Saturday
7,15.825000000000001
545,23.333732682142223
546,25.600123391671534
547,18.449378350001947
548,46.38429347617375
1090,360.23204864784947
2,6, 1,20, 0,13, 0.00,60.00,Saturday
7,18.191666666666666
545,23.335711356819733
546,28.691264469240352
547,19.266285909035506
548,60.278782621067506
1090,476.5531600590957
2,6, 1,20, 0,14, 0.00,60.00,Saturday
7,18.900000000000002
545,23.33567866941549
546,29.12823992615647
547,19.625135748977854
548,74.19347075636465
1090,588.030624486321
2,6, 1,20, 0,15, 0.00,60.00,Saturday
7,19.191666666666663
545,23.335970954329895
546,29.3170751036368
547,19.825110348721562
548,88.13294936236302
1090,698.0427824146874
2,6, 1,20, 0,16, 0.00,60.00,Saturday
7,19.400000000000002
545,23.335636479371512
546,28.42667081304144
547,20.07658422901868
548,98.09612379847293
1090,777.7558104510836
2,6, 1,20, 0,17, 0.00,60.00,Saturday
7,19.400000000000002
545,23.333572808130032
546,26.12693164546077
547,20.258350427682842
548,94.35448926434158
1090,747.0338749547741
2,6, 1,20, 0,18, 0.00,60.00,Saturday
7,18.758333333333333
545,23.3336258641143
546,23.436259507908602
547,20.286889211430616
548,82.62982832577889
1090,648.3009991510827
2,6, 1,20, 0,19, 0.00,60.00,Saturday
7,18.008333333333333
545,23.333620941141294
546,20.535630246306237
547,20.413755797772453
548,64.58407151826187
1090,502.34126149585865
2,6, 1,20, 0,20, 0.00,60.00,Saturday
7,17.8
545,23.333686436949165
546,18.068923692041366
547,20.499380093714674
548,57.60617705909272
1090,448.01031847009426
2,6, 1,20, 0,21, 0.00,60.00,Saturday
7,16.166666666666668
545,23.33361187146002
546,16.207235748568603
547,19.687577269308022
548,47.24059580901261
1090,361.47273506776446
2,6, 1,20, 0,22, 0.00,60.00,Saturday
7,14.65
545,23.33462059297994
546,14.743575383821328
547,19.00495790145447
548,33.670024235435186
1090,255.02225359042686
2,6, 1,20, 0,23, 0.00,60.00,Saturday
7,14.4
545,24.279586203227353
546,13.934255132614206
547,18.978802313741102
548,1.933344454382124
1090,14.891053830838267
2,6, 1,20, 0,24, 0.00,60.00,Saturday
7,14.108333333333334
545,24.375592387184337
546,13.231318144653693
547,19.028236467531627
548,0.0
1090,0.0
2,7, 1,21, 0, 1, 0.00,60.00,Sunday
7,13.549999999999999
545,24.029639328759405
546,12.627889557939461
547,19.139716198083708
548,0.0
1090,0.0
2,7, 1,21, 0, 2, 0.00,60.00,Sunday
7,13.299999999999999
545,23.584181050528645
546,11.757882740065824
547,19.192165302280184
548,0.0
1090,0.0
2,7, 1,21, 0, 3, 0.00,60.00,Sunday
7,13.299999999999999
545,23.171929153259004
546,11.247524248943032
547,19.164488662485997
548,0.0
1090,0.0
2,7, 1,21, 0, 4, 0.00,60.00,Sunday
7,13.65
545,22.79072549995023
546,11.186097026309142
547,19.01743423660352
548,0.0
1090,0.0
2,7, 1,21, 0, 5, 0.00,60.00,Sunday
7,13.9
545,22.553273565666544
546,11.765299365575125
547,18.9239722543606
548,0.0
1090,0.0
2,7, 1,21, 0, 6, 0.00,60.00,Sunday
7,14.541666666666666
545,22.5104209424739
546,13.01461812455455
547,18.86689224180017
548,0.0
1090,0.0
2,7, 1,21, 0, 7, 0.00,60.00,Sunday
7,15.0
545,22.52448166129099
546,13.479823597982396
547,18.967128910427352
548,0.0
1090,0.0
2,7, 1,21, 0, 8, 0.00,60.00,Sunday
7,15.0
545,22.72139400292969
546,13.639470736818728
547,19.035295578718678
548,0.0
1090,0.0
2,7, 1,21, 0, 9, 0.00,60.00,Sunday
7,16.283333333333335
545,23.251966991455856
546,15.85570990377393
547,19.040235761911944
548,9.719664588451856
1090,78.91176103212855
2,7, 1,21, 0,10, 0.00,60.00,Sunday
7,18.191666666666666
545,23.33356853862796
546,20.369709243187003
547,19.589814943041258
548,41.86956603195542
1090,344.42688091737676
2,7, 1,21, 0,11, 0.00,60.00,Sunday
7,18.900000000000002
545,23.333913525421185
546,23.882501254835166
547,19.891424368698424
548,56.97490160690254
1090,469.9876727141946
2,7, 1,21, 0,12, 0.00,60.00,Sunday
7,19.891666666666666
545,23.334067445091105
546,26.509054726807452
547,20.281597949750438
548,67.70770294111234
1090,561.9457592824315
2,7, 1,21, 0,13, 0.00,60.00,Sunday
7,20.833333333333332
545,23.334146610664238
546,29.400983225013636
547,20.846293348199975
548,79.04196308098388
1090,659.6401435275676
2,7, 1,21, 0,14, 0.00,60.00,Sunday
7,21.058333333333334
545,23.33406494115842
546,32.40530338667073
547,21.023922712696763
548,94.97529718772095
1090,790.2271360303826
2,7, 1,21, 0,15, 0.00,60.00,Sunday
7,22.383333333333336
545,23.335604260813938
546,33.48878246269816
547,21.548289504449457
548,113.99095357689419
1090,965.9508731031827
2,7, 1,21, 0,16, 0.00,60.00,Sunday
7,23.650000000000002
545,23.33450364570773
546,32.09637188875994
547,22.071761707218684
548,125.56837672960175
1090,1084.3757256779616
2,7, 1,21, 0,17, 0.00,60.00,Sunday
7,23.900000000000002
545,23.33374816650902
546,30.731208154147254
547,22.237429907606458
548,129.17636435720252
1090,1118.4106075559384
2,7, 1,21, 0,18, 0.00,60.00,Sunday
7,22.616666666666664
545,23.333367866886437
546,26.937123259589267
547,21.95623383829724
548,109.24563467767454
1090,924.1152406575811
2,7, 1,21, 0,19, 0.00,60.00,Sunday
7,20.708333333333332
545,23.333537664010965
546,22.467272019980907
547,21.441492636878973
548,81.3292226544695
1090,666.0161677213052
2,7, 1,21, 0,20, 0.00,60.00,Sunday
7,20.0
545,23.333634229343716
546,19.801258684708348
547,21.156712405060855
548,72.48891525518167
1090,588.9491851098526
2,7, 1,21, 0,21, 0.00,60.00,Sunday
7,18.71666666666667
545,23.33217251598873
546,18.453150476949038
547,20.783262941309015
548,63.22209007097346
1090,506.3577591333347
2,7, 1,21, 0,22, 0.00,60.00,Sunday
7,17.8
545,23.334733239663937
546,16.923573385426646
547,20.666826684057515
548,51.572839239028234
1090,409.6703785934338
2,7, 1,21, 0,23, 0.00,60.00,Sunday
7,17.8
545,24.35531433730242
546,16.285129447387312
547,20.696831338680894
548,14.930360854471589
1090,120.02713758689526
2,7, 1,21, 0,24, 0.00,60.00,Sunday
7,17.45
545,24.44434423133376
546,15.756354002777423
547,20.70941641497566
548,10.412296232908533
1090,83.9736417852713
1,EXTREME_SUMMER,  25.79, -80.32,  -5.00,   8.80
2,1, 7,23, 0, 1, 0.00,60.00,Monday
7,28.366666666666664
545,24.444501523191462
546,27.587168497587978
547,24.181050836377352
548,67.5116431471082
1090,654.964828764607
2,1, 7,23, 0, 2, 0.00,60.00,Monday
7,27.2
545,24.44377464933554
546,26.004770943707186
547,23.28928091676735
548,54.07040187630586
1090,511.7145474956507
2,1, 7,23, 0, 3, 0.00,60.00,Monday
7,27.2
545,24.44427962588702
546,25.27496533107156
547,23.240980113149586
548,46.494225857986294
1090,439.9795035281142
2,1, 7,23, 0, 4, 0.00,60.00,Monday
7,27.2
545,24.44443580787042
546,24.893054788189712
547,23.433213488057508
548,40.9371291191139
1090,387.46156903806803
2,1, 7,23, 0, 5, 0.00,60.00,Monday
7,27.2
545,24.444650915209504
546,24.486532871000964
547,23.71329025314971
548,39.942681843282976
1090,378.1744487548038
2,1, 7,23, 0, 6, 0.00,60.00,Monday
7,27.2
545,23.370297891862645
546,23.585518794310087
547,23.42258575853386
548,74.93449533702544
1090,708.7324817503944
2,1, 7,23, 0, 7, 0.00,60.00,Monday
7,27.55
545,23.334561873066715
546,24.43936705584308
547,23.416921989825628
548,79.33036011045361
1090,754.5944277210043
2,1, 7,23, 0, 8, 0.00,60.00,Monday
7,27.8
545,23.3340093308563
546,27.982116791417436
547,23.774421939346865
548,97.68196375398236
1090,932.4667246894611
2,1, 7,23, 0, 9, 0.00,60.00,Monday
7,29.724999999999998
545,23.333975612866936
546,32.49484677245676
547,24.977146370680373
548,120.11917579244654
1090,1193.6723700159996
2,1, 7,23, 0,10, 0.00,60.00,Monday
7,31.741666666666664
545,23.372103056021345
546,36.4960918754804
547,26.60924117043047
548,147.4434724306809
1090,1527.7949583650186
2,1, 7,23, 0,11, 0.00,60.00,Monday
7,32.199999999999996
545,23.656736105141835
546,40.597610489462504
547,26.871963011066374
548,150.72849857562312
1090,1577.829593468933
2,1, 7,23, 0,12, 0.00,60.00,Monday
7,32.84166666666667
545,23.837313520905848
546,44.28189492110672
547,26.80254193650755
548,150.72849857562315
1090,1599.6748038911253
2,1, 7,23, 0,13, 0.00,60.00,Monday
7,33.300000000000004
545,23.910721400528292
546,47.16817445946447
547,26.749863312618462
548,150.72849857562312
1090,1614.3001536872887
2,1, 7,23, 0,14, 0.00,60.00,Monday
7,33.300000000000004
545,24.136911722631996
546,47.36545304093255
547,26.966688803472454
548,150.72849857562312
1090,1613.60617925763
2,1, 7,23, 0,15, 0.00,60.00,Monday
7,33.300000000000004