Program Version,EnergyPlus, Version 22.2.0-c249759bad, YMD=2023.09.01 14:31
1,5,Environment Title[],Latitude[deg],Longitude[deg],Time Zone[],Elevation[m]
2,8,Day of Simulation[],Month[],Day of Month[],DST Indicator[1=yes 0=no],Hour[],StartMinute[],EndMinute[],DayType
3,5,Cumulative Day of Simulation[],Month[],Day of Month[],DST Indicator[1=yes 0=no],DayType  ! When Daily Report Variables Requested
4,2,Cumulative Days of Simulation[],Month[]  ! When Monthly Report Variables Requested
5,1,Cumulative Days of Simulation[] ! When Run Period Report Variables Requested
6,1,Calendar Year of Simulation[] ! When Annual Report Variables Requested
7,1,Environment,Site Outdoor Air Drybulb Temperature [C] !Hourly
545,1,LIVING,Zone Mean Air Temperature [C] !Hourly
546,1,ATTIC,Zone Mean Air Temperature [C] !Hourly
547,1,CRAWLSPACE,Zone Mean Air Temperature [C] !Hourly
548,1,FAN,Fan Electricity Rate [W] !Hourly
720,1,LIVING,Zone Predicted Sensible Load to Heating Setpoint Heat Transfer Rate [W] !Hourly
721,1,LIVING,Zone System Predicted Sensible Load to Heating Setpoint Heat Transfer Rate [W] !Hourly
784,1,ATTIC,Zone Predicted Sensible Load to Heating Setpoint Heat Transfer Rate [W] !Hourly
785,1,ATTIC,Zone System Predicted Sensible Load to Heating Setpoint Heat Transfer Rate [W] !Hourly
848,1,CRAWLSPACE,Zone Predicted Sensible Load to Heating Setpoint Heat Transfer Rate [W] !Hourly
849,1,CRAWLSPACE,Zone System Predicted Sensible Load to Heating Setpoint Heat Transfer Rate [W] !Hourly
1121,1,DX_HEATING_COIL,Heating Coil Heating Rate [W] !Hourly
1135,1,DX_HEATING_COIL,Heating Coil Electricity Rate [W] !Hourly
1161,1,DX_HEATING_COIL,Heating Coil Defrost Electricity Rate [W] !Hourly
1163,1,DX_HEATING_COIL,Heating Coil Crankcase Heater Electricity Rate [W] !Hourly
1166,1,HEATING_RESISTANCE_BACKUP,Heating Coil Heating Rate [W] !Hourly
1168,1,HEATING_RESISTANCE_BACKUP,Heating Coil Electricity Rate [W] !Hourly
End of Data Dictionary
1,EXTREME_WINTER,  42.36, -71.01,  -5.00,   3.70
2,1, 1,27, 0, 1, 0.00,60.00,Monday
7,1.7
545,18.465888979881814
546,1.9283989100588717
547,19.232289494253116
548,32.08052900541414
720,741.8925759161157
721,741.8925759161157
784,0.0
785,0.0
848,0.0
849,0.0
1121,982.8936994183366
1135,310.5107107391508
1161,6.386955978258684
1163,152.33655006553
1166,0.0
1168,0.0
2,1, 1,27, 0, 2, 0.00,60.00,Monday
7,1.7
545,18.51103499502982
546,1.8773581375648083
547,18.9051298682396
548,48.55403195527192
720,1131.9482478956252
721,1131.9482478956252
784,0.0
785,0.0
848,0.0
849,0.0
1121,1509.41404563799
1135,468.74498682508994
1161,9.666675034963292
1163,127.86124045160867
1166,0.0
1168,0.0
2,1, 1,27, 0, 3, 0.00,60.00,Monday
7,1.1
545,18.29571297598937
546,1.7950092722580433
547,18.70926774561971
548,69.71771376970828
720,1613.6934519058923
721,1613.6934519058923
784,0.0
785,0.0
848,0.0
849,0.0
1121,2174.6648564432694
1135,670.6662311660011
1161,13.276189878075202
1163,96.40064557673654
1166,0.0
1168,0.0
2,1, 1,27, 0, 4, 0.00,60.00,Monday
7,1.1
545,18.615909364371362
546,2.0697704791612903
547,18.515990263192894
548,83.70033320566243
720,1958.6513726606518
721,1958.6513726606518
784,0.0
785,0.0
848,0.0
849,0.0
1121,2667.767268939781
1135,807.7314033518805
1161,11.167574204960069
1163,75.71000336874224
1166,0.0
1168,0.0
2,1, 1,27, 0, 5, 0.00,60.00,Monday
7,1.1
545,18.602735663510074
546,2.01952820567189
547,18.360376476129797
548,83.19634100871542
720,1897.190059905095
721,1897.190059905095
784,0.0
785,0.0
848,0.0
849,0.0
1121,2646.5549222236205
1135,807.8146100513206
1161,11.10035655356943
1163,76.45810510610904
1166,0.0
1168,0.0
2,1, 1,27, 0, 6, 0.00,60.00,Monday
7,0.6
545,19.29263632303321
546,2.216184626295824
547,18.172080606089523
548,120.81135666968218
720,2865.9569552896082
721,2865.9569552896082
784,0.0
785,0.0
848,0.0
849,0.0
1121,3903.9578234274018
1135,1162.390505836946
1161,19.938134196382084
1163,20.49824664997235
1166,0.0
1168,0.0
2,1, 1,27, 0, 7, 0.00,60.00,Monday
7,0.0
545,19.56300125562778
546,2.0985257800854797
547,18.053346158171383
548,125.67674674770417
720,2804.524628432964
721,2804.524628432964
784,0.0
785,0.0
848,0.0
849,0.0
1121,3974.5211221349177
1135,1212.117409616669
1161,26.354746399838596
1163,13.09811755232384
1166,0.0
1168,0.0
2,1, 1,27, 0, 8, 0.00,60.00,Monday
7,0.0
545,19.726743122353376
546,2.125018585222481
547,17.931716427492244
548,108.13074998008535
720,2283.5991785737715
721,2283.5991785737715
784,0.0
785,0.0
848,0.0
849,0.0
1121,3361.2906004546085
1135,1048.420888297243
1161,22.675398273059553
1163,39.19121974508657
1166,0.0
1168,0.0
2,1, 1,27, 0, 9, 0.00,60.00,Monday
7,1.1
545,19.854481844046834
546,2.9047007167355967
547,17.82828596810611
548,71.59002691711092
720,1454.3968241129405
721,1454.3968241129405
784,0.0
785,0.0
848,0.0
849,0.0
1121,2242.7895701434045
1135,710.1047186884296
1161,9.512811363319164
1163,93.69264606484909
1166,0.0
1168,0.0
2,1, 1,27, 0,10, 0.00,60.00,Monday
7,2.8
545,19.890082691584468
546,4.5043891912246306
547,17.735310177617023
548,31.14609434247032
720,586.8976582820869
721,586.8976582820869
784,0.0
785,0.0
848,0.0
849,0.0
1121,1001.8640246607165
1135,319.3200398604891
1161,0.6166205247778918
1163,153.816266573949
1166,0.0
1168,0.0
2,1, 1,27, 0,11, 0.00,60.00,Monday
7,2.8
545,19.861990482051482
546,6.146952244344781
547,17.65936876723706
548,0.0
720,-111.78210162861797
721,-111.78210162861797
784,0.0
785,0.0
848,0.0
849,0.0
1121,0.0
1135,0.0
1161,0.0
1163,200.0
1166,0.0
1168,0.0
2,1, 1,27, 0,12, 0.00,60.00,Monday
7,5.0
545,20.260557125290227
546,8.87973756724028
547,17.61110935430045
548,0.0
720,-430.3866791671044
721,-430.3866791671044
784,0.0
785,0.0
848,0.0
849,0.0
1121,0.0
1135,0.0
1161,0.0
1163,200.0
1166,0.0
1168,0.0
2,1, 1,27, 0,13, 0.00,60.00,Monday
7,5.6
545,20.85199947043184
546,11.097040852395695
547,17.58640797216924
548,0.0
720,-853.7080072734007
721,-853.7080072734007
784,0.0
785,0.0
848,0.0
849,0.0
1121,0.0
1135,0.0
1161,0.0
1163,200.0
1166,0.0
1168,0.0
2,1, 1,27, 0,14, 0.00,60.00,Monday
7,5.6
545,20.84679368089064
546,10.892648536903305
547,17.57843573965881
548,0.0
720,-849.6702023946691
721,-849.6702023946691
784,0.0
785,0.0
848,0.0
849,0.0
1121,0.0
1135,0.0
1161,0.0
1163,200.0
1166,0.0
1168,0.0
2,1, 1,27, 0,15, 0.00,60.00,Monday
7,5.6
545,21.06424941339073
546,9.466111797294012
547,17.57944941129848
548,0.0
720,-1045.7023077210306
721,-1045.7023077210306
784,0.0
785,0.0
848,0.0
849,0.0
1121,0.0
1135,0.0
1161,0.0
1163,200.0
1166,0.0
1168,0.0
2,1, 1,27, 0,16, 0.00,60.00,Monday
7,4.4
545,20.47320266050089
546,7.709070986484708
547,17.583664468095385
548,0.0
720,-606.1556348789163
721,-606.1556348789163
784,0.0
785,0.0
848,0.0
849,0.0
1121,0.0
1135,0.0
1161,0.0
1163,200.0
1166,0.0
1168,0.0
2,1, 1,27, 0,17, 0.00,60.00,Monday
7,4.4
545,20.20524366482466
546,6.512240308536341
547,17.58452374797066
548,0.0
720,-439.0646592383873
721,-439.0646592383873
784,0.0
785,0.0
848,0.0
849,0.0
1121,0.0
1135,0.0
1161,0.0
1163,200.0
1166,0.0
1168,0.0
2,1, 1,27, 0,18, 0.00,60.00,Monday
7,3.3
545,20.016307463730318
546,5.109873909183676
547,17.584600318341014
548,0.0
720,-256.6383938921408
721,-256.6383938921408
784,0.0
785,0.0
848,0.0
849,0.0
1121,0.0
1135,0.0
1161,0.0
1163,200.0
1166,0.0
1168,0.0
2,1, 1,27, 0,19, 0.00,60.00,Monday
7,2.8
545,20.113960608792077
546,4.044799425666341
547,17.56317920888224
548,0.0
720,-317.9189262669297
721,-317.9189262669297
784,0.0
785,0.0
848,0.0
849,0.0
1121,0.0
1135,0.0
1161,0.0
1163,200.0
1166,0.0
1168,0.0
2,1, 1,27, 0,20, 0.00,60.00,Monday
7,2.8
545,19.949006896770285
546,3.4298940441239334
547,17.52487904918394
548,0.0
720,-166.5735853680726
721,-166.5735853680726
784,0.0
785,0.0
848,0.0
849,0.0
1121,0.0
1135,0.0
1161,0.0
1163,200.0
1166,0.0
1168,0.0
2,1, 1,27, 0,21, 0.00,60.00,Monday
7,2.2
545,19.73973880660713
546,2.676733722711237
547,17.476001053605074
548,0.0
720,-12.631558584420418
721,-12.631558584420418
784,0.0
785,0.0
848,0.0
849,0.0
1121,0.0
1135,0.0
1161,0.0
1163,200.0
1166,0.0
1168,0.0
2,1, 1,27, 0,22, 0.00,60.00,Monday
7,2.2
545,19.780917154814112
546,2.6876301082414105
547,17.416104209388834
548,15.502131741606684
720,276.0482287788527
721,276.0482287788527
784,0.0
785,0.0
848,0.0
849,0.0
1121,486.1140529933245
1135,158.07128353264832
1161,0.007467712936217666
1163,177.01692048074898
1166,0.0
1168,0.0
2,1, 1,27, 0,23, 0.00,60.00,Monday
7,2.2
545,18.674501190126914
546,2.39562839347162
547,17.351824358747443
548,0.0
720,-12.868635574552172
721,-12.868635574552172
784,0.0
785,0.0
848,0.0
849,0.0
1121,0.0
1135,0.0
1161,0.0
1163,200.0
1166,0.0
1168,0.0
2,1, 1,27, 0,24, 0.00,60.00,Monday
7,1.1
545,18.56715116682553
546,2.202994460096654
547,17.266652227045846
548,24.09282249773658
720,529.3846351425364
721,529.3846351425364
784,0.0
785,0.0
848,0.0
849,0.0
1121,738.9272572236288
1135,237.05956555557117
1161,0.8755233368418053
1163,164.26534877433235
1166,0.0
1168,0.0
2,2, 1,28, 0, 1, 0.00,60.00,Tuesday
7,-0.6
545,18.195815650297842
546,1.279198452825183
547,17.172804999656744
548,43.392117961517116
720,932.0340199173334
721,932.0340199173334
784,0.0
785,0.0
848,0.0
849,0.0
1121,1263.5022611497368
1135,411.22898666166725
1161,8.401430966281337
1163,135.46677503246926
1166,0.0
1168,0.0
2,2, 1,28, 0, 2, 0.00,60.00,Tuesday
7,-0.6
545,18.37429227476319
546,0.9916333256354204
547,17.063686636763233
548,73.764479383963
720,1630.4173950852473
721,1630.4173950852473
784,0.0
785,0.0
848,0.0
849,0.0
1121,2208.8677139963684
1135,693.8119248905236
1161,14.281937415008295
1163,90.29732150702033
1166,0.0
1168,0.0
2,2, 1,28, 0, 3, 0.00,60.00,Tuesday
7,-0.6
545,18.49622016078273
546,0.7265552753674018
547,16.970054231634226
548,90.2126157756207
720,1979.1920964682558
721,1979.1920964682558
784,0.0
785,0.0
848,0.0
849,0.0
1121,2758.0934254830577
1135,856.8126294243327
1161,13.00294520028986
1163,65.94417455079038
1166,0.0
1168,0.0
2,2, 1,28, 0, 4, 0.00,60.00,Tuesday
7,-0.6
545,18.536837084163402
546,0.859851053560365
547,16.871791645881814
548,99.64376866832859
720,2156.294062940249
721,2156.294062940249
784,0.0
785,0.0
848,0.0
849,0.0
1121,3070.2728137685535
1135,948.512330921928
1161,14.360946310286163
1163,51.929335005840784
1166,0.0
1168,0.0
2,2, 1,28, 0, 5, 0.00,60.00,Tuesday
7,-0.6
545,18.57348173518667
546,0.7937896857239725
547,16.775146602060797
548,103.03469513956101
720,2209.2725026031003
721,2209.2725026031003
784,0.0
785,0.0
848,0.0
849,0.0
1121,3183.821644328857
1135,981.453240656771
1161,14.84966221383673
1163,46.890357262422725
1166,0.0
1168,0.0
2,2, 1,28, 0, 6, 0.00,60.00,Tuesday
7,-2.2
545,19.211742173772482
546,0.9065314058066801
547,16.655668088305966
548,134.9010021067628
720,3627.709744614567
721,3627.709744614567
784,0.0
785,0.0
848,0.0
849,0.0
1121,4052.662389078995
1135,1249.2749361045874
1161,30.89189615328285
1163,0.0
1166,975.9509742778991
1168,975.9509742778991
2,2, 1,28, 0, 7, 0.00,60.00,Tuesday
7,-2.8
545,19.560896330658956
546,0.7328496376870965
547,16.592454064836353
548,134.9010021067628
720,3489.5510981807947
721,3489.5510981807947
784,0.0
785,0.0
848,0.0
849,0.0
1121,3949.6097695256994
1135,1251.2732010959298
1161,36.06378172759773
1163,0.0
1166,1027.314961943829
1168,1027.314961943829
2,2, 1,28, 0, 8, 0.00,60.00,Tuesday
7,-2.8
545,19.677133343635493
546,0.9384780305319487
547,16.510236264351413
548,134.9010021067628
720,3016.5118561977743
721,3016.5118561977743
784,0.0
785,0.0
848,0.0
849,0.0
1121,3942.427410652166
1135,1259.770082723853
1161,36.06378172759773
1163,0.0
1166,532.0636440164903
1168,532.0636440164903
2,2, 1,28, 0, 9, 0.00,60.00,Tuesday
7,0.0
545,19.739929568960044
546,2.0048253533933487
547,16.444433739050897
548,126.46422935898394
720,2688.462430179992
721,2688.462430179992
784,0.0
785,0.0
848,0.0
849,0.0
1121,4057.796932153632
1135,1243.8539458915468
1161,13.185769034383474
1163,12.222728330083775
1166,0.0
1168,0.0
2,2, 1,28, 0,10, 0.00,60.00,Tuesday
7,0.6
545,19.84351947893748
546,3.8502109184500544
547,16.36237171984807
548,97.39162187046321
720,2028.9529399236562
721,2028.9529399236562
784,0.0
785,0.0
848,0.0
849,0.0
1121,3107.417027393088
1135,968.1786206089156
1161,7.044803020672298
1163,55.47320049832505
1166,0.0
1168,0.0
2,2, 1,28, 0,11, 0.00,60.00,Tuesday
7,0.6
545,19.857949186520152
546,5.738377883211459
547,16.290316527277234
548,70.06420410016237
720,1427.7807371453564
721,1427.7807371453564
784,0.0
785,0.0
848,0.0
849,0.0
1121,2181.466767426481
1135,697.9694674661921
1161,5.068082375743485
1163,96.02637245815428
1166,0.0
1168,0.0
2,2, 1,28, 0,12, 0.00,60.00,Tuesday
7,1.7
545,19.513806207858238
546,5.775355451045148
547,16.236949356032024
548,61.62044362093461
720,1353.409368052793
721,1353.409368052793
784,0.0
785,0.0
848,0.0
849,0.0
1121,1942.7444941683473
1135,614.4141022942474
1161,8.561179902923694
1163,108.50731697749167
1166,0.0
1168,0.0
2,2, 1,28, 0,13, 0.00,60.00,Tuesday
7,2.8
545,19.688804779241263
546,6.611244519638179
547,16.204179212654417
548,66.18635762659838
720,1533.20825010716
721,1533.20825010716
784,0.0
785,0.0
848,0.0
849,0.0
1121,2110.397342505554
1135,647.4903718367386
1161,19.70898466893847
1163,101.62527877154253
1166,0.0
1168,0.0
2,2, 1,28, 0,14, 0.00,60.00,Tuesday
7,2.8
545,19.705832751851872
546,6.381898374300547
547,16.19182835725418
548,69.25852559035415
720,1624.1697355048946
721,1624.1697355048946
784,0.0
785,0.0
848,0.0
849,0.0
1121,2212.455032587233
1135,679.8049501404507
1161,20.623857336066138
1163,97.05881605923139
1166,0.0
1168,0.0
2,2, 1,28, 0,15, 0.00,60.00,Tuesday
7,1.0
545,19.964142159901474
546,6.458802661970452
547,16.17894693186841
548,77.34009857313958
720,1620.919414577218
721,1620.919414577218
784,0.0
785,0.0
848,0.0
849,0.0
1121,2239.6391939196646
1135,709.6216917933991
1161,52.358424864257366
1163,84.30973994085136
1166,0.0
1168,0.0
2,2, 1,28, 0,16, 0.00,60.00,Tuesday
7,1.0
545,19.7392628233579
546,5.954524314255448
547,16.169190611683415
548,75.85882667688809
720,1567.665209911409
721,1567.665209911409
784,0.0
785,0.0
848,0.0
849,0.0
1121,2191.1362816734068
1135,699.5475522590589
1161,51.35619324687013
1163,86.52425339796233
1166,0.0
1168,0.0
2,2, 1,28, 0,17, 0.00,60.00,Tuesday
7,0.6
545,19.782628694710997
546,4.3604362313509615
547,16.138336107990863
548,72.26591700243128
720,1445.1166075007623
721,1445.1166075007623
784,0.0
785,0.0
848,0.0
849,0.0
1121,2040.3926765253138
1135,655.6437544375855
1161,53.59460509168718
1163,91.71879651767397
1166,0.0
1168,0.0
2,2, 1,28, 0,18, 0.00,60.00,Tuesday
7,0.6
545,19.83214785065422
546,3.5704381893734936
547,16.11247714167167
548,66.7734166958784
720,1312.2625538724296
721,1312.2625538724296
784,0.0
785,0.0
848,0.0
849,0.0
1121,1894.2495837218116
1135,611.704507278388
1161,45.33459996868799
1163,100.04609639046573
1166,0.0
1168,0.0
2,2, 1,28, 0,19, 0.00,60.00,Tuesday
7,1.0
545,19.458849409637644
546,2.6014372772965713
547,16.076785489293357
548,68.2760828509696
720,1353.675635715681
721,1353.675635715681
784,0.0
785,0.0
848,0.0
849,0.0
1121,1960.3622613788807
1135,627.9689093575466
1161,46.22242926761787
1163,97.86772851933536
1166,0.0
1168,0.0
2,2, 1,28, 0,20, 0.00,60.00,Tuesday
7,-0.6
545,19.60633195575913
546,1.4418929233101792
547,16.023536958674377
548,84.00545164125025
720,1697.2381816122652
721,1697.2381816122652
784,0.0
785,0.0
848,0.0
849,0.0
1121,2428.7732448595552
1135,781.8778213909465
1161,37.95111970007226
1163,74.51095684803337
1166,0.0
1168,0.0
2,2, 1,28, 0,21, 0.00,60.00,Tuesday
7,-4.4
545,19.284035799771804
546,-1.6119573080732603
547,15.958914691860214
548,124.61232468925937
720,2481.1387804139868
721,2481.1387804139868
784,0.0
785,0.0
848,0.0
849,0.0
1121,3584.390603369391
1135,1194.1182808035107
1161,0.060028942617301385
1163,15.251339544825203
1166,0.0
1168,0.0
2,2, 1,28, 0,22, 0.00,60.00,Tuesday
7,-5.0
545,19.502973173165916
546,-2.2347208839246337
547,15.881650764687349
548,134.9010021067628
720,3078.1766029950522
721,3078.1766029950522
784,0.0
785,0.0
848,0.0
849,0.0
1121,3856.747036472459
1135,1277.9842641831376
1161,0.06498444153197645
1163,0.0
1166,732.7551013147736
1168,732.7551013147736
2,2, 1,28, 0,23, 0.00,60.00,Tuesday
7,-5.0
545,18.89108546894114
546,-2.6260126911411525
547,15.820260873718054
548,134.9010021067628
720,2524.935170918181
721,2524.935170918181
784,0.0
785,0.0
848,0.0
849,0.0
1121,3852.173727344931
1135,1283.317753290416
1161,0.06498444153197645
1163,0.0
1166,208.92900554252356
1168,208.92900554252356
2,2, 1,28, 0,24, 0.00,60.00,Tuesday
7,-6.7
545,18.63071805121696
546,-3.956307156405427
547,15.67569237292198
548,134.9010021067628
720,4852.268365381522
721,4852.268365381522
784,0.0
785,0.0
848,0.0
849,0.0
1121,3678.3493760085385
1135,1249.9907088804507
1161,0.06498444153197645
1163,0.0
1166,3076.2408737343976
1168,3076.2408737343976
2,3, 1,29, 0, 1, 0.00,60.00,Wednesday
7,-7.2
545,18.595543698798277
546,-4.411353323552199
547,15.578769176123476
548,134.9010021067628
720,4443.608248589264
721,4443.608248589264
784,0.0
785,0.0
848,0.0
849,0.0
1121,3629.927532402638
1135,1238.320828355187
1161,0.06498444153197645
1163,0.0
1166,2745.5040477781968
1168,2745.5040477781968
2,3, 1,29, 0, 2, 0.00,60.00,Wednesday
7,-7.2
545,18.57592880006946
546,-4.5730089243735215
547,15.466998301822915
548,134.9010021067628
720,4801.231531234647
721,4801.231531234647
784,0.0
785,0.0
848,0.0
849,0.0
1121,3630.771818767985
1135,1237.355569862036
1161,0.06498444153197645
1163,0.0
1166,3185.8172208293395
1168,3185.8172208293395
2,3, 1,29, 0, 3, 0.00,60.00,Wednesday
7,-8.9
545,18.546585055267233
546,-6.006903610007144
547,15.33126626463668
548,134.9010021067628
720,5865.262972089646
721,5865.262972089646
784,0.0
785,0.0
848,0.0
849,0.0
1121,3451.05489958894
1135,1218.8225539133937
1161,0.06498444153197645
1163,0.0
1166,4630.068402409133
1168,4630.068402409133
2,3, 1,29, 0, 4, 0.00,60.00,Wednesday
7,-9.4
545,18.563153392684555
546,-6.576219051061415
547,15.212354359501711
548,134.9010021067628
720,5394.776428493336
721,5394.776428493336
784,0.0
785,0.0
848,0.0
849,0.0
1121,3399.770033389015
1135,1212.6835117420335
1161,0.06498444153197645
1163,0.0
1166,4225.705415876243
1168,4225.705415876243
2,3, 1,29, 0, 5, 0.00,60.00,Wednesday
7,-9.4
545,18.564011696545773
546,-6.7327792521610075
547,15.087907568040055
548,134.9010021067628
720,5451.6756697136425
721,5451.6756697136425
784,0.0
785,0.0
848,0.0
849,0.0
1121,3399.569261206144
1135,1212.9074187827011
1161,0.06498444153197645
1163,0.0
1166,4324.778076487686
1168,4324.778076487686
2,3, 1,29, 0, 6, 0.00,60.00,Wednesday
7,-10.0
545,19.341200189646266
546,-6.990293241914619
547,14.960757924081173
548,134.9010021067628
720,6445.615005568994
721,6445.615005568994
784,0.0
785,0.0
848,0.0
849,0.0
1121,3337.8354634721295
1135,1206.385697692878
1161,0.06498444153197645
1163,0.0
1166,5551.820376326237
1168,5551.820376326237
2,3, 1,29, 0, 7, 0.00,60.00,Wednesday
7,-10.6
545,19.558786723766232
546,-7.715851096064953
547,14.858581053980243
548,134.9010021067628
720,6960.630669087906
721,6960.630669087906
784,0.0
785,0.0
848,0.0
849,0.0
1121,3260.8975901459035
1135,1217.1765755505908
1161,0.06498444153197645
1163,0.0
1166,6336.717753917344
1168,6336.717753917344
2,3, 1,29, 0, 8, 0.00,60.00,Wednesday
7,-10.6
545,19.643672268312436
546,-7.718115763624607
547,14.74179750251548
548,134.9010021067628
720,6282.229566177011
721,6282.229566177011
784,0.0
785,0.0
848,0.0
849,0.0
1121,3256.532259711175
1135,1221.9443844499572
1161,0.06498444153197645
1163,0.0
1166,5633.614567307835
1168,5633.614567307835
2,3, 1,29, 0, 9, 0.00,60.00,Wednesday
7,-10.0
545,19.69174933466027
546,-6.9122982999981435
547,14.637865122007792
548,134.9010021067628
720,5162.506369209474
721,5162.506369209474
784,0.0
785,0.0
848,0.0
849,0.0
1121,3316.0377714412684
1135,1230.4480644608154
1161,0.06498444153197645
1163,0.0
1166,4274.808682665033
1168,4274.808682665033
2,3, 1,29, 0,10, 0.00,60.00,Wednesday
7,-9.4
545,19.71818200143539
546,-6.082223898431376
547,14.545850682062891
548,134.9010021067628
720,4192.151155951131
721,4192.151155951131
784,0.0
785,0.0
848,0.0
849,0.0
1121,3376.9408641485174
1135,1238.0939543807872
1161,0.06498444153197645
1163,0.0
1166,3026.150643873279
1168,3026.150643873279
2,3, 1,29, 0,11, 0.00,60.00,Wednesday
7,-9.4
545,19.724326791154397
546,-5.0543047870356705
547,14.473380287675603
548,134.9010021067628
720,3649.6766851862103
721,3649.6766851862103
784,0.0
785,0.0
848,0.0
849,0.0
1121,3376.50396369717
1135,1238.579200983817
1161,0.06498444153197645
1163,0.0
1166,2326.7471865241664
1168,2326.7471865241664
2,3, 1,29, 0,12, 0.00,60.00,Wednesday
7,-7.2
545,19.710606833649184
546,-2.6301386671962987
547,14.443299643671873
548,134.9010021067628
720,3889.104964126018
721,3889.104964126018
784,0.0
785,0.0
848,0.0
849,0.0
1121,3608.5032574701377
1135,1262.8029769563366
1161,0.06498444153197645
1163,0.0
1166,2308.9439095341504
1168,2308.9439095341504
2,3, 1,29, 0,13, 0.00,60.00,Wednesday
7,-7.2
545,19.756056135201575
546,-2.2995449734046196
547,14.415091244668995
548,134.9010021067628
720,2547.5249244965107
721,2547.5249244965107
784,0.0
785,0.0
848,0.0
849,0.0
1121,3608.8116654363394
1135,1262.4507678991545
1161,0.06498444153197645
1163,0.0
1166,625.9049184351923
1168,625.9049184351923
2,3, 1,29, 0,14, 0.00,60.00,Wednesday
7,-7.2
545,19.74687100716407
546,-2.1427926066389253
547,14.40821480706184
548,134.9010021067628
720,2244.671111790227
721,2244.671111790227
784,0.0
785,0.0
848,0.0
849,0.0
1121,3607.8880779952965
1135,1263.5055024079277
1161,0.06498444153197645
1163,0.0
1166,209.81794452348367
1168,209.81794452348367
2,3, 1,29, 0,15, 0.00,60.00,Wednesday
7,-6.7
545,19.720744486883177
546,-2.2311613278766984
547,14.413481142417965
548,134.9010021067628
720,2651.1629046704184
721,2651.1629046704184
784,0.0
785,0.0
848,0.0
849,0.0
1121,3662.058786891419
1135,1268.7005341976778
1161,0.06498444153197645
1163,0.0
1166,606.3336173544872
1168,606.3336173544872
2,3, 1,29, 0,16, 0.00,60.00,Wednesday
7,-7.2
545,19.729394612805823
546,-2.785308605689399
547,14.426510334510718
548,134.9010021067628
720,2194.9259552386593
721,2194.9259552386593
784,0.0
785,0.0
848,0.0
849,0.0
1121,3608.621847627511
1135,1262.6675451798612
1161,0.06498444153197645
1163,0.0
1166,134.7512140859726
1168,134.7512140859726
2,3, 1,29, 0,17, 0.00,60.00,Wednesday
7,-7.2
545,19.712880523097475
546,-3.5823573514964835
547,14.443772629630852
548,134.9010021067628
720,2536.0088523626237
721,2536.0088523626237
784,0.0
785,0.0
848,0.0
849,0.0
1121,3608.4227666642146
1135,1262.8948980209018
1161,0.06498444153197645
1163,0.0
1166,545.6455514718614
1168,545.6455514718614
2,3, 1,29, 0,18, 0.00,60.00,Wednesday
7,-8.3
545,19.671205367241647
546,-5.06521038399312
547,14.437441771034829
548,134.9010021067628
720,3837.415425583422
721,3837.415425583422
784,0.0
785,0.0
848,0.0
849,0.0
1121,3491.667525122775
1135,1250.465011569068
1161,0.06498444153197645
1163,0.0
1166,2222.6772083865344
1168,2222.6772083865344
2,3, 1,29, 0,19, 0.00,60.00,Wednesday
7,-8.9
545,19.658430103480704
546,-5.902722349612659
547,14.416525965992408
548,134.9010021067628
720,4090.466502901362
721,4090.466502901362
784,0.0
785,0.0
848,0.0
849,0.0
1121,3429.586816159853
1135,1242.8757754470294
1161,0.06498444153197645
1163,0.0
1166,2686.2753497416466
1168,2686.2753497416466
2,3, 1,29, 0,20, 0.00,60.00,Wednesday
7,-8.9
545,19.663610680990864
546,-6.126767991813017
547,14.37513363402732
548,134.9010021067628
720,4363.308234366401
721,4363.308234366401
784,0.0
785,0.0
848,0.0
849,0.0
1121,3429.8790810528258
1135,1242.5488560767628
1161,0.06498444153197645
1163,0.0
1166,3065.586000540587
1168,3065.586000540587
2,3, 1,29, 0,21, 0.00,60.00,Wednesday
7,-10.0
545,19.67345547122562
546,-6.895482604336188
547,14.307106459571528
548,134.9010021067628
720,4504.562043202222
721,4504.562043202222
784,0.0
785,0.0
848,0.0
849,0.0
1121,3316.0507631901833
1135,1230.4337574921087
1161,0.06498444153197645
1163,0.0
1166,3367.8026553361397
1168,3367.8026553361397
2,3, 1,29, 0,22, 0.00,60.00,Wednesday
7,-10.6
545,19.65965498058614
546,-7.181309636344155
547,14.227565543500038
548,134.9010021067628
720,5133.096262715684
721,5133.096262715684
784,0.0
785,0.0
848,0.0
849,0.0
1121,3254.7912500228103
1135,1223.844362018688
1161,0.06498444153197645
1163,0.0
1166,4203.9019431741035
1168,4203.9019431741035
2,3, 1,29, 0,23, 0.00,60.00,Wednesday
7,-10.6
545,18.901609946309787
546,-7.4061796430316775
547,14.137445499261055
548,134.9010021067628
720,4474.171391018537
721,4474.171391018537
784,0.0
785,0.0
848,0.0
849,0.0
1121,3255.1740251984843
1135,1223.4267132864554
1161,0.06498444153197645
1163,0.0
1166,3476.159706570616
1168,3476.159706570616
2,3, 1,29, 0,24, 0.00,60.00,Wednesday
7,-11.7
545,18.687085519301696
546,-8.041891820971044
547,13.999938124273465
548,134.9010021067628
720,4277.553433724368
721,4277.553433724368
784,0.0
785,0.0
848,0.0
849,0.0
1121,3160.351939885438
1135,1194.2011200860857
1161,0.06498444153197645
1163,0.0
1166,3279.286696946615
1168,3279.286696946615
2,4, 1,30, 0, 1, 0.00,60.00,Thursday
7,-12.8
545,18.577550785736793
546,-9.035548974843072
547,13.877626810499558
548,134.9010021067628
720,5397.262152999159
721,5397.262152999159
784,0.0
785,0.0
848,0.0
849,0.0
1121,3056.5483939901565
1135,1177.1055733386283
1161,0.06498444153197645
1163,0.0
1166,4690.83948464409
1168,4690.83948464409
2,4, 1,30, 0, 2, 0.00,60.00,Thursday
7,-12.8
545,18.55045656363164
546,-9.121340072107882
547,13.76103104608433
548,134.9010021067628
720,5759.773089771705
721,5759.773089771705
784,0.0
785,0.0
848,0.0
849,0.0
1121,3058.8928688945757
1135,1174.6234237239137
1161,0.06498444153197645
1163,0.0
1166,5180.633329501753
1168,5180.633329501753
2,4, 1,30, 0, 3, 0.00,60.00,Thursday
7,-13.9
545,18.55507439469236
546,-9.61425787826685
547,13.638173949213316
548,134.9010021067628
720,5722.084602472181
721,5722.084602472181
784,0.0
785,0.0
848,0.0
849,0.0
1121,2953.372479616007
1135,1161.5344780786832
1161,0.06498444153197645
1163,0.0
1166,5261.978831661616
1168,5261.978831661616
2,4, 1,30, 0, 4, 0.00,60.00,Thursday
7,-13.9
545,18.545314572735233
546,-9.9040352339552
547,13.519530971848468
548,134.9010021067628
720,6085.179171642358
721,6085.179171642358
784,0.0
785,0.0
848,0.0
849,0.0
1121,2953.4311764287145
1135,1161.4735466535872
1161,0.06498444153197645
1163,0.0
1166,5713.40184233142
1168,5713.40184233142
2,4, 1,30, 0, 5, 0.00,60.00,Thursday
7,-13.9
545,18.547870336476628
546,-9.994135203677686
547,13.400191827904285
548,134.9010021067628
720,6129.885315934327
721,6129.885315934327
784,0.0
785,0.0
848,0.0
849,0.0
1121,2953.7648525103873
1135,1161.1271372333122
1161,0.06498444153197645
1163,0.0
1166,5794.435907291799
1168,5794.435907291799
2,4, 1,30, 0, 6, 0.00,60.00,Thursday
7,-14.4
545,19.342452685460266
546,-9.85174081215606
547,13.281812702692365
548,134.9010021067628
720,6655.432089549975
721,6655.432089549975
784,0.0
785,0.0
848,0.0
849,0.0
1121,2906.286959088305
1135,1155.3355525718302
1161,0.06498444153197645
1163,0.0
1166,6458.194044009273
1168,6458.194044009273
2,4, 1,30, 0, 7, 0.00,60.00,Thursday
7,-14.4
545,19.57031818219444
546,-9.42591292882991
547,13.201315286599405
548,134.9010021067628
720,6649.449257685268
721,6649.449257685268
784,0.0
785,0.0
848,0.0
849,0.0
1121,2890.523571365764
1135,1171.479083547403
1161,0.06498444153197645
1163,0.0
1166,6535.729518951759
1168,6535.729518951759
2,4, 1,30, 0, 8, 0.00,60.00,Thursday
7,-14.4
545,19.653830852153906
546,-9.239925898743053
547,13.095323222003246
548,134.9010021067628
720,5926.201509589953
721,5926.201509589953
784,0.0
785,0.0
848,0.0
849,0.0
1121,2886.02524875392
1135,1176.0625703805788
1161,0.06498444153197645
1163,0.0
1166,5707.728078178021
1168,5707.728078178021
2,4, 1,30, 0, 9, 0.00,60.00,Thursday
7,-12.8
545,19.675028111677296
546,-7.341923325672839
547,13.007647484798582
548,134.9010021067628
720,5548.3676430124215
721,5548.3676430124215
784,0.0
785,0.0
848,0.0
849,0.0
1121,3038.036433822355
1135,1196.6261413519103
1161,0.06498444153197645
1163,0.0
1166,5118.033226250929
1168,5118.033226250929
2,4, 1,30, 0,10, 0.00,60.00,Thursday
7,-11.1
545,19.719580096952317
546,-5.017817216102476
547,12.93889442058979
548,134.9010021067628
720,4297.312523222245
721,4297.312523222245
784,0.0
785,0.0
848,0.0
849,0.0
1121,3205.8646915526215
1135,1216.5403196159582
1161,0.06498444153197645
1163,0.0
1166,3394.5384984471516
1168,3394.5384984471516
2,4, 1,30, 0,11, 0.00,60.00,Thursday
7,-11.1
545,19.734916325816293
546,-3.4268541945069018
547,12.882402140403707
548,134.9010021067628
720,3617.271479325018
721,3617.271479325018
784,0.0
785,0.0
848,0.0
849,0.0
1121,3205.032942910691
1135,1217.4407604985809
1161,0.06498444153197645
1163,0.0
1166,2453.8694187781057
1168,2453.8694187781057
2,4, 1,30, 0,12, 0.00,60.00,Thursday
7,-8.3
545,19.752211924913446
546,1.3311879650846996
547,12.879882185458456
548,134.9010021067628
720,2666.0941378418865
721,2666.0941378418865
784,0.0
785,0.0
848,0.0
849,0.0
1121,3493.04426588492
1135,1248.9130258072835
1161,0.06498444153197645
1163,0.0
1166,951.1895697399518
1168,951.1895697399518
2,4, 1,30, 0,13, 0.00,60.00,Thursday
7,-6.7
545,19.89435241578493
546,4.521239262962479
547,12.868265400936341
548,116.51555671561981
720,1770.9422828679508
721,1770.9422828679508
784,0.0
785,0.0
848,0.0
849,0.0
1121,3111.89035300278
1135,1094.269144573303
1161,0.05612872131224818
1163,27.254893666726975
1166,0.0
1168,0.0
2,4, 1,30, 0,14, 0.00,60.00,Thursday
7,-6.7
545,19.925133114348732
546,5.254957839786987
547,12.867574983765786
548,90.76044453152525
720,1425.5015033911386
721,1425.5015033911386
784,0.0
785,0.0
848,0.0
849,0.0
1121,2367.0134735364845
1135,854.8173453853976
1161,0.04372178198038058
1163,65.43923145398827
1166,0.0
1168,0.0
2,4, 1,30, 0,15, 0.00,60.00,Thursday
7,-5.6
545,19.900886389831413
546,5.441998468579272
547,12.89610806130688
548,74.39493147842457
720,1257.990226564205
721,1257.990226564205
784,0.0
785,0.0
848,0.0
849,0.0
1121,1975.0774641687624
1135,707.785722185123
1161,0.03583800522988493
1163,89.70281382736707
1166,0.0
1168,0.0
2,4, 1,30, 0,16, 0.00,60.00,Thursday
7,-5.6
545,19.79029841132701
546,4.420270233209344
547,12.953124262617115
548,79.3765956059171