Program Version,EnergyPlus, Version 22.2.0-c249759bad, YMD=2023.07.07 15:20
1,5,Environment Title[],Latitude[deg],Longitude[deg],Time Zone[],Elevation[m]
2,8,Day of Simulation[],Month[],Day of Month[],DST Indicator[1=yes 0=no],Hour[],StartMinute[],EndMinute[],DayType
3,5,Cumulative Day of Simulation[],Month[],Day of Month[],DST Indicator[1=yes 0=no],DayType  ! When Daily Report Variables Requested
4,2,Cumulative Days of Simulation[],Month[]  ! When Monthly Report Variables Requested
5,1,Cumulative Days of Simulation[] ! When Run Period Report Variables Requested
6,1,Calendar Year of Simulation[] ! When Annual Report Variables Requested
581,11,LIVING,AFN Zone Infiltration Air Change Rate [ach] !RunPeriod [Value,Min,Month,Day,Hour,Minute,Max,Month,Day,Hour,Minute]
582,11,ATTIC,AFN Zone Infiltration Air Change Rate [ach] !RunPeriod [Value,Min,Month,Day,Hour,Minute,Max,Month,Day,Hour,Minute]
583,11,CRAWLSPACE,AFN Zone Infiltration Air Change Rate [ach] !RunPeriod [Value,Min,Month,Day,Hour,Minute,Max,Month,Day,Hour,Minute]
1038,11,Facility,Facility Heating Setpoint Not Met Time [hr] !RunPeriod [Value,Min,Month,Day,Hour,Minute,Max,Month,Day,Hour,Minute]
1039,11,Facility,Facility Cooling Setpoint Not Met Time [hr] !RunPeriod [Value,Min,Month,Day,Hour,Minute,Max,Month,Day,Hour,Minute]
1115,11,DX_HEATING_COIL,Heating Coil Heating Energy [J] !RunPeriod [Value,Min,Month,Day,Hour,Minute,Max,Month,Day,Hour,Minute]
1128,11,DX_HEATING_COIL,Heating Coil Electricity Energy [J] !RunPeriod [Value,Min,Month,Day,Hour,Minute,Max,Month,Day,Hour,Minute]
1153,11,DX_HEATING_COIL,Heating Coil Defrost Electricity Energy [J] !RunPeriod [Value,Min,Month,Day,Hour,Minute,Max,Month,Day,Hour,Minute]
1154,11,DX_HEATING_COIL,Heating Coil Crankcase Heater Electricity Energy [J] !RunPeriod [Value,Min,Month,Day,Hour,Minute,Max,Month,Day,Hour,Minute]
1156,11,HEATING_RESISTANCE_BACKUP,Heating Coil Electricity Energy [J] !RunPeriod [Value,Min,Month,Day,Hour,Minute,Max,Month,Day,Hour,Minute]
13,11,Electricity:Facility [J] !RunPeriod [Value,Min,Month,Day,Hour,Minute,Max,Month,Day,Hour,Minute]
1134,11,Heating:Electricity [J] !RunPeriod [Value,Min,Month,Day,Hour,Minute,Max,Month,Day,Hour,Minute]
1096,11,Cooling:Electricity [J] !RunPeriod [Value,Min,Month,Day,Hour,Minute,Max,Month,Day,Hour,Minute]
562,11,Fans:Electricity [J] !RunPeriod [Value,Min,Month,Day,Hour,Minute,Max,Month,Day,Hour,Minute]
1388,11,Pumps:Electricity [J] !RunPeriod [Value,Min,Month,Day,Hour,Minute,Max,Month,Day,Hour,Minute]
1360,11,WaterSystems:Electricity [J] !RunPeriod [Value,Min,Month,Day,Hour,Minute,Max,Month,Day,Hour,Minute]
61,11,InteriorLights:Electricity [J] !RunPeriod [Value,Min,Month,Day,Hour,Minute,Max,Month,Day,Hour,Minute]
1046,11,ExteriorLights:Electricity [J] !RunPeriod [Value,Min,Month,Day,Hour,Minute,Max,Month,Day,Hour,Minute]
134,11,InteriorEquipment:Electricity [J] !RunPeriod [Value,Min,Month,Day,Hour,Minute,Max,Month,Day,Hour,Minute]
170,11,gas_dryer:InteriorEquipment:Electricity [J] !RunPeriod [Value,Min,Month,Day,Hour,Minute,Max,Month,Day,Hour,Minute]
207,11,clotheswasher:InteriorEquipment:Electricity [J] !RunPeriod [Value,Min,Month,Day,Hour,Minute,Max,Month,Day,Hour,Minute]
244,11,dishwasher:InteriorEquipment:Electricity [J] !RunPeriod [Value,Min,Month,Day,Hour,Minute,Max,Month,Day,Hour,Minute]
281,11,refrigerator:InteriorEquipment:Electricity [J] !RunPeriod [Value,Min,Month,Day,Hour,Minute,Max,Month,Day,Hour,Minute]
318,11,electric_mels:InteriorEquipment:Electricity [J] !RunPeriod [Value,Min,Month,Day,Hour,Minute,Max,Month,Day,Hour,Minute]
355,11,NaturalGas:Facility [J] !RunPeriod [Value,Min,Month,Day,Hour,Minute,Max,Month,Day,Hour,Minute]
1323,11,WaterSystems:NaturalGas [J] !RunPeriod [Value,Min,Month,Day,Hour,Minute,Max,Month,Day,Hour,Minute]
403,11,InteriorEquipment:NaturalGas [J] !RunPeriod [Value,Min,Month,Day,Hour,Minute,Max,Month,Day,Hour,Minute]
476,11,gas_dryer:InteriorEquipment:NaturalGas [J] !RunPeriod [Value,Min,Month,Day,Hour,Minute,Max,Month,Day,Hour,Minute]
513,11,gas_mels:InteriorEquipment:NaturalGas [J] !RunPeriod [Value,Min,Month,Day,Hour,Minute,Max,Month,Day,Hour,Minute]
End of Data Dictionary
1,EXTREME_WINTER,  44.25,-121.15,  -8.00, 936.00
5,15
1038,1.1666666666666665,0.0,12,22, 1,10,0.16666666666666666,12,26, 6,10
1039,0.0,0.0,12,22, 1,10,0.0,12,22, 1,10
581,0.27222652467982533,0.15710165678738086,12,25, 6, 3,0.7523119805362379,12,27,12,60
582,2.594754237972931,0.0,12,24, 3,40,19.182223736786927,12,27, 6,53
583,3.4306293328181097,0.0002827519857057486,12,28,13, 3,21.42915595115624,12,27,12,60
1115,3185661794.8365884,0.0,12,22,11,33,3039950.235049493,12,30, 6,20
1128,1049169152.8992482,0.0,12,22,11,33,974479.2491074075,12,29, 9,30
1153,45057988.10894288,0.0,12,22,11,33,72395.10027308793,12,31, 6,30
1154,129131629.95843948,0.0,12,22, 6, 3,120000.0,12,22,13,60
1156,323390485.7141684,0.0,12,22, 1, 2,2681167.0465818895, 1, 1, 6,30
13,2473892451.8714046,306324.6925987483,12,22,15,10,4449879.072516239, 1, 1, 6,10
61,646981127.1939279,58759.40635443481,12,22, 1,10,854682.2742463244,12,22,20,10
134,151290040.75163832,42376.01200569399,12,22, 4,10,104369.48322671017,12,27,20,10
170,11185820.069951665,232.27731661587313,12,22, 4,10,11650.931360040839,12,27,12,10
207,13893028.574283868,543.5021409221355,12,22, 3,10,15327.095199349082,12,27,10,10
244,27284301.07562606,1014.5707620042115,12,22, 4,10,35359.08742820678,12,27,20,10
281,98926891.03177528,39959.06841621388,12,22, 5,10,54634.54471212738,12,22,19,10
318,0.0,0.0,12,22, 1,10,0.0,12,22, 1,10
355,1574145701.6428854,12374.216038804521,12,22, 4,10,3829218.1540669827, 1, 2,18,30
403,422701517.161075,12374.216038804521,12,22, 4,10,483183.26346918393,12,27,18,10
476,227882097.80545104,4732.048419519677,12,22, 4,10,237357.535085481,12,27,12,10
513,0.0,0.0,12,22, 1,10,0.0,12,22, 1,10
562,118115227.24503268,0.0,12,22,11,40,109559.43417567393,12,22, 7,50
1046,0.0,0.0,12,22, 1,10,0.0,12,22, 1,10
1096,0.0,0.0,12,22, 1,10,0.0,12,22, 1,10
1134,1546749256.6807976,120000.0,12,22,11,40,3922760.3153299126, 1, 1, 6,10
1323,1151444184.4818099,0.0,12,22, 1,10,3375000.000000001,12,26,19,60
1360,10756800.0,4980.0,12,22, 1,10,4980.000000000001,12,22, 1,20
1388,0.0,0.0,12,22, 1,10,0.0,12,22, 1,10
1,EXTREME_SUMMER,  44.25,-121.15,  -8.00, 936.00
5,7
1038,0.0,0.0, 7,20, 1,10,0.0, 7,20, 1,10
1039,10.833333333333332,0.0, 7,20, 1,10,0.16666666666666666, 7,21,16,10
581,0.13616378409628754,0.0, 7,21, 8, 1,0.4646018722901344, 7,24,18,56
582,2.787545201547738,0.0, 7,20, 4,45,9.551821500856922, 7,24,18,53
583,3.6436792008777834,0.00010758058737704919, 7,22, 6, 7,11.964445540950477, 7,24,18,53
1115,0.0,0.0, 7,20, 1, 5,0.0, 7,20, 1, 5
1128,0.0,0.0, 7,20, 1, 5,0.0, 7,20, 1, 5
1153,0.0,0.0, 7,20, 1, 5,0.0, 7,20, 1, 5
1154,1320000.0,0.0, 7,20, 1, 5,120000.0, 7,20, 5,60
1156,0.0,0.0, 7,20, 1, 5,0.0, 7,20, 1, 5
13,950058111.537748,106115.4183601288, 7,20, 4,10,2125959.353437298, 7,26,20,10
61,301924526.0238348,58759.40635443481, 7,20, 1,10,854682.2742463244, 7,20,20,10
134,70666020.44019979,42376.01200569399, 7,20, 4,10,104369.48322671017, 7,25,20,10
170,5241013.419656074,232.27731661587313, 7,20, 4,10,11650.931360040839, 7,25,12,10
207,6509451.13922266,543.5021409221355, 7,20, 3,10,15327.095199349082, 7,25,10,10
244,12749673.39982522,1014.5707620042115, 7,20, 4,10,35359.08742820678, 7,25,20,10
281,46165882.48149605,39959.06841621388, 7,20, 5,10,54634.54471212738, 7,20,19,10
318,0.0,0.0, 7,20, 1,10,0.0, 7,20, 1,10
355,637829065.299627,12374.216038804521, 7,20, 4,10,3829218.154066982, 7,21,18,60
403,197687796.27748126,12374.216038804521, 7,20, 4,10,483183.26346918393, 7,25,18,10
476,106772067.24485692,4732.048419519677, 7,20, 4,10,237357.535085481, 7,25,12,10
513,0.0,0.0, 7,20, 1,10,0.0, 7,20, 1,10
562,52759858.78082756,0.0, 7,20, 2,50,109559.43417567394, 7,21,15,40
1046,0.0,0.0, 7,20, 1,10,0.0, 7,20, 1,10
1096,518367866.29288524,0.0, 7,20, 2,50,1281830.2021816028, 7,23,14,60
1134,1320000.0,0.0, 7,20, 1,10,120000.0, 7,20, 4,40
1323,440141269.0221445,0.0, 7,20, 1,10,3375000.000000001, 7,22,16,50
1360,5019840.0,4980.0, 7,20, 1,10,4980.000000000002, 7,24,20,20
1388,0.0,0.0, 7,20, 1,10,0.0, 7,20, 1,10
1,ANNUAL,  44.25,-121.15,  -8.00, 936.00
5,365
1038,6.166666666666669,0.0, 1, 1, 1,10,0.16666666666666666, 1, 1, 6,10
1039,57.00000000000001,0.0, 1, 1, 1,10,0.16666666666666666, 4,30,12,40
581,0.22618271081860078,0.0, 7, 9,16,43,1.027238855625824, 4,15,11,60
582,3.02751780880855,0.0, 1, 1, 3,30,28.886647930833423, 1,19,20,60
583,3.703672728755835,0.000056414046897391805, 9,13, 9,14,26.161974661451396, 4,15,11,60
1115,23043586162.453545,0.0, 1, 1,14,55,3582301.1593087353, 3,17, 5,60
1128,7296242339.757636,0.0, 1, 1,14,55,1034357.8560389014,12,19, 8,20
1153,340145276.75782776,0.0, 1, 1,14,55,87721.15467556709,11, 9, 6,30
1154,2639891257.0402074,0.0, 1, 1, 1,50,120000.0, 1, 1,15,20
1156,1062918655.3786726,0.0, 1, 1, 1, 5,2498544.7057018867,12,17, 6,30
13,38836473905.54924,106115.4183601288, 5,11, 4,10,4457095.998473174,12,17, 6,10
61,15743207428.39043,58759.40635443481, 1, 1, 1,10,854682.2742463244, 1, 1,20,10
134,3685071073.433083,42376.01200569399, 1, 2, 4,10,104369.48322671017, 1, 1,20,10
170,273393721.45534325,232.27731661587313, 1, 2, 4,10,11650.931360040839, 1, 1,12,10
207,339560869.06955314,543.5021409221355, 1, 2, 3,10,15327.095199349082, 1, 1,10,10
244,664895467.8009839,1014.5707620042115, 1, 2, 4,10,35359.08742820678, 1, 1,20,10
281,2407221015.1057043,39959.06841621388, 1, 1, 5,10,54634.54471212738, 1, 1,19,10
318,0.0,0.0, 1, 1, 1,10,0.0, 1, 1, 1,10
355,35766417129.69311,12374.216038804521, 1, 2, 4,10,3829218.154066983, 6,16,18,30
403,10310294493.052883,12374.216038804521, 1, 2, 4,10,483183.26346918393, 1, 1,18,10
476,5569688622.065564,4732.048419519677, 1, 2, 4,10,237357.535085481, 1, 1,12,10
513,0.0,0.0, 1, 1, 1,10,0.0, 1, 1, 1,10
562,1550813943.3545487,0.0, 1, 1,14,60,109559.43417567394, 2,17, 6,60
1046,0.0,0.0, 1, 1, 1,10,0.0, 1, 1, 1,10
1096,6256435131.441794,0.0, 1, 1, 1,10,1280485.4490277758, 7,23,14,60
1134,11339197528.934294,0.0, 1,22,11,60,3929239.244921126,12,17, 6,10
1323,25456122636.64405,0.0, 1, 1, 1,10,3375000.0000000023,11,21, 9,60
1360,261748800.0,4979.999999999998, 3,30, 9,40,4980.000000000002, 1, 2,16,50
1388,0.0,0.0, 1, 1, 1,10,0.0, 1, 1, 1,10
End of Data
 Number of Records Written=          87
