Program Version,EnergyPlus, Version 22.2.0-c249759bad, YMD=2023.09.01 14:31
1,5,Environment Title[],Latitude[deg],Longitude[deg],Time Zone[],Elevation[m]
2,8,Day of Simulation[],Month[],Day of Month[],DST Indicator[1=yes 0=no],Hour[],StartMinute[],EndMinute[],DayType
3,5,Cumulative Day of Simulation[],Month[],Day of Month[],DST Indicator[1=yes 0=no],DayType  ! When Daily Report Variables Requested
4,2,Cumulative Days of Simulation[],Month[]  ! When Monthly Report Variables Requested
5,1,Cumulative Days of Simulation[] ! When Run Period Report Variables Requested
6,1,Calendar Year of Simulation[] ! When Annual Report Variables Requested
7,1,Environment,Site Outdoor Air Drybulb Temperature [C] !Hourly
545,1,LIVING,Zone Mean Air Temperature [C] !Hourly
546,1,ATTIC,Zone Mean Air Temperature [C] !Hourly
547,1,CRAWLSPACE,Zone Mean Air Temperature [C] !Hourly
548,1,FAN,Fan Electricity Rate [W] !Hourly
720,1,LIVING,Zone Predicted Sensible Load to Heating Setpoint Heat Transfer Rate [W] !Hourly
721,1,LIVING,Zone System Predicted Sensible Load to Heating Setpoint Heat Transfer Rate [W] !Hourly
784,1,ATTIC,Zone Predicted Sensible Load to Heating Setpoint Heat Transfer Rate [W] !Hourly
785,1,ATTIC,Zone System Predicted Sensible Load to Heating Setpoint Heat Transfer Rate [W] !Hourly
848,1,CRAWLSPACE,Zone Predicted Sensible Load to Heating Setpoint Heat Transfer Rate [W] !Hourly
849,1,CRAWLSPACE,Zone System Predicted Sensible Load to Heating Setpoint Heat Transfer Rate [W] !Hourly
1121,1,DX_HEATING_COIL,Heating Coil Heating Rate [W] !Hourly
1135,1,DX_HEATING_COIL,Heating Coil Electricity Rate [W] !Hourly
1161,1,DX_HEATING_COIL,Heating Coil Defrost Electricity Rate [W] !Hourly
1163,1,DX_HEATING_COIL,Heating Coil Crankcase Heater Electricity Rate [W] !Hourly
1166,1,HEATING_RESISTANCE_BACKUP,Heating Coil Heating Rate [W] !Hourly
1168,1,HEATING_RESISTANCE_BACKUP,Heating Coil Electricity Rate [W] !Hourly
End of Data Dictionary
1,EXTREME_WINTER,  41.20, -96.11,  -6.00, 320.00
2,1,12,15, 0, 1, 0.00,60.00,Monday
7,-8.6
545,18.595077993198796
546,-6.319145521651001
547,18.924017414759298
548,153.95445935052695
720,2796.2333203248363
721,2796.2333203248363
784,0.0
785,0.0
848,0.0
849,0.0
1121,3933.4662504224884
1135,1387.6490035118436
1161,9.75432352485204
1163,0.0
1166,487.2312576852228
1168,487.2312576852228
2,1,12,15, 0, 2, 0.00,60.00,Monday
7,-8.6
545,18.594092603731234
546,-5.52008344177142
547,18.553077594045536
548,153.95445935052695
720,3147.4370993419707
721,3147.4370993419707
784,0.0
785,0.0
848,0.0
849,0.0
1121,3918.315149307851
1135,1382.2165074610348
1161,13.863724379863031
1163,0.0
1166,905.3970357928911
1168,905.3970357928911
2,1,12,15, 0, 3, 0.00,60.00,Monday
7,-8.5
545,18.59792766611351
546,-4.893472953062709
547,18.380374186397376
548,153.95445935052695
720,3385.0226480276942
721,3385.0226480276942
784,0.0
785,0.0
848,0.0
849,0.0
1121,3919.5614229662965
1135,1379.148586242819
1161,16.81564846665519
1163,0.0
1166,1155.813852131916
1168,1155.813852131916
2,1,12,15, 0, 4, 0.00,60.00,Monday
7,-9.0
545,18.596956537428625
546,-4.88114391588522
547,18.171979652329796
548,153.95445935052695
720,3639.2150903187594
721,3639.2150903187594
784,0.0
785,0.0
848,0.0
849,0.0
1121,3845.7821734977942
1135,1367.7541841272334
1161,20.917193988725
1163,0.0
1166,1496.9130014044786
1168,1496.9130014044786
2,1,12,15, 0, 5, 0.00,60.00,Monday
7,-9.5
545,18.595790739663467
546,-5.056381997760457
547,17.99027630244602
548,153.95445935052695
720,3725.1220484623136
721,3725.1220484623136
784,0.0
785,0.0
848,0.0
849,0.0
1121,3770.189618565541
1135,1355.1446765487476
1161,25.833157847531485
1163,0.0
1166,1676.0747190268526
1168,1676.0747190268526
2,1,12,15, 0, 6, 0.00,60.00,Monday
7,-9.9
545,19.335887478513463
546,-5.016063201924808
547,17.814345523963024
548,153.95445935052695
720,4835.619816007787
721,4835.619816007787
784,0.0
785,0.0
848,0.0
849,0.0
1121,3716.0239661162473
1135,1347.048425290191
1161,28.212247456569074
1163,0.0
1166,3021.9649625586367
1168,3021.9649625586367
2,1,12,15, 0, 7, 0.00,60.00,Monday
7,-7.4
545,19.5953276845709
546,-4.568709043135748
547,17.70050434310424
548,153.95445935052695
720,4388.088081036918
721,4388.088081036918
784,0.0
785,0.0
848,0.0
849,0.0
1121,4029.4522379973514
1135,1409.854973497891
1161,17.997727492035576
1163,0.0
1166,2277.753481208609
1168,2277.753481208609
2,1,12,15, 0, 8, 0.00,60.00,Monday
7,-7.0
545,19.678928225046274
546,-3.749195706946582
547,17.549241143908286
548,153.95445935052695
720,4097.75738159337
721,4097.75738159337
784,0.0
785,0.0
848,0.0
849,0.0
1121,4073.7764257344775
1135,1422.4057897761354
1161,17.441669027042966
1163,0.0
1166,1899.74268660075
1168,1899.74268660075
2,1,12,15, 0, 9, 0.00,60.00,Monday
7,-6.3
545,19.71445139508989
546,-2.548253267273616
547,17.41323177488043
548,153.95445935052695
720,3603.3602781581612
721,3603.3602781581612
784,0.0
785,0.0
848,0.0
849,0.0
1121,4183.024273386811
1135,1441.999599575198
1161,10.87972454570171
1163,0.0
1166,1185.1869988449016
1168,1185.1869988449016
2,1,12,15, 0,10, 0.00,60.00,Monday
7,-5.6
545,19.725942176800476
546,-1.464839725137435
547,17.27778235009853
548,153.95445935052695
720,3360.6809696627734
721,3360.6809696627734
784,0.0
785,0.0
848,0.0
849,0.0
1121,4312.538855768765
1135,1466.198642833241
1161,0.07416286318120552
1163,0.0
1166,715.8935087632435
1168,715.8935087632435
2,1,12,15, 0,11, 0.00,60.00,Monday
7,-5.3
545,19.73785585829971
546,0.5685794726188703
547,17.163098353641818
548,153.95445935052695
720,2875.4995536538117
721,2875.4995536538117
784,0.0
785,0.0
848,0.0
849,0.0
1121,4350.287123973512
1135,1470.0719201382956
1161,0.07416286318120552
1163,0.0
1166,60.29513906773764
1168,60.29513906773764
2,1,12,15, 0,12, 0.00,60.00,Monday
7,-3.9
545,19.875484388790085
546,1.657146491089112
547,17.08933416961789
548,115.73986062202931
720,2130.456899165658
721,2130.456899165658
784,0.0
785,0.0
848,0.0
849,0.0
1121,3303.4701257540664
1135,1118.7200398963282
1161,0.055754810824586616
1163,49.642237548573775
1166,0.0
1168,0.0
2,1,12,15, 0,13, 0.00,60.00,Monday
7,-3.2
545,19.634148567992025
546,1.2922118144548247
547,17.012615721993036
548,117.11906900920793
720,2336.3894290971693
721,2336.3894290971693
784,0.0
785,0.0
848,0.0
849,0.0
1121,3411.281269274736
1135,1141.7402354301394
1161,0.05641915599761747
1163,47.85065306940493
1166,0.0
1168,0.0
2,1,12,15, 0,14, 0.00,60.00,Monday
7,-3.5
545,19.8608882680794
546,2.520551574936851
547,16.95238544638745
548,97.45519551403328
720,1866.5443034838663
721,1866.5443034838663
784,0.0
785,0.0
848,0.0
849,0.0
1121,2775.574577237472
1135,943.1872338448413
1161,0.04694659979696454
1163,73.39593488385754
1166,0.0
1168,0.0
2,1,12,15, 0,15, 0.00,60.00,Monday
7,-3.1
545,19.897402868981672
546,1.8004316462608476
547,16.92237423561733
548,71.97383063485279
720,1354.1609722075045
721,1354.1609722075045
784,0.0
785,0.0
848,0.0
849,0.0
1121,2030.909047103593
1135,702.1074928729662
1161,0.03467157192273208
1163,106.49883126001365
1166,0.0
1168,0.0
2,1,12,15, 0,16, 0.00,60.00,Monday
7,-3.7
545,19.9986651497795
546,1.884319151430565
547,16.892449967548316
548,48.40224547972419
720,846.2126245955114
721,846.2126245955114
784,0.0
785,0.0
848,0.0
849,0.0
1121,1318.9854069631103
1135,470.15125571778736
1161,0.023316576465037753
1163,137.12061410556035
1166,0.0
1168,0.0
2,1,12,15, 0,17, 0.00,60.00,Monday
7,-4.2
545,19.896299715785762
546,0.3836486161312933
547,16.874376737858526
548,36.958840891928325
720,638.1779110974294
721,638.1779110974294
784,0.0
785,0.0
848,0.0
849,0.0
1121,983.9465305559635
1135,358.19933782233295
1161,0.017804014007919398
1163,151.9867134460059
1166,0.0
1168,0.0
2,1,12,15, 0,18, 0.00,60.00,Monday
7,-5.3
545,19.92646504056553
546,-0.9024769861704954
547,16.845627135880044
548,64.06416666910249
720,1191.9229097489679
721,1191.9229097489679
784,0.0
785,0.0
848,0.0
849,0.0
1121,1686.7574775921496
1135,613.8118105285531
1161,0.030861389077665627
1163,116.77400857013684
1166,0.0
1168,0.0
2,1,12,15, 0,19, 0.00,60.00,Monday
7,-6.0
545,19.641633923539313
546,-2.4732913304822444
547,16.805318850309774
548,67.88501819462893
720,1179.5596745126904
721,1179.5596745126904
784,0.0
785,0.0
848,0.0
849,0.0
1121,1755.8976691387743
1135,646.8908192167648
1161,0.03270202908042768
1163,111.8102304099956
1166,0.0
1168,0.0
2,1,12,15, 0,20, 0.00,60.00,Monday
7,-7.0
545,19.639100153241912
546,-3.377796293830903
547,16.734796461111785
548,82.97985130992656
720,1399.048408217861
721,1399.048408217861
784,0.0
785,0.0
848,0.0
849,0.0
1121,2111.3176548104634
1135,779.5845868720713
1161,0.03997367783073251
1163,92.20028430384897
1166,0.0
1168,0.0
2,1,12,15, 0,21, 0.00,60.00,Monday
7,-8.6
545,19.511411914006754
546,-4.455103204333315
547,16.647044678609248
548,104.74068584395002
720,1671.3218568635366
721,1671.3218568635366
784,0.0
785,0.0
848,0.0
849,0.0
1121,2582.8604599694972
1135,970.1652579320355
1161,0.05045661126669145
1163,63.930249986685375
1166,0.0
1168,0.0
2,1,12,15, 0,22, 0.00,60.00,Monday
7,-10.1
545,19.377797408706197
546,-5.148906206968764
547,16.52813973237765
548,148.00053312531696
720,2283.4288549215235
721,2283.4288549215235
784,0.0
785,0.0
848,0.0
849,0.0
1121,3581.801952842909
1135,1341.6287963382288
1161,8.293545456485802
1163,7.233533138739179
1166,0.0
1168,0.0
2,1,12,15, 0,23, 0.00,60.00,Monday
7,-10.5
545,18.836965845079103
546,-6.07219848159574
547,16.42929285076089
548,147.01297903844554
720,2084.786946616665
721,2084.786946616665
784,0.0
785,0.0
848,0.0
849,0.0
1121,3508.9571221355
1135,1323.0626606890578
1161,9.893849030025503
1163,8.398255158917234
1166,0.0
1168,0.0
2,1,12,15, 0,24, 0.00,60.00,Monday
7,-9.9
545,18.65881258626028
546,-6.430921073667417
547,16.301516522783416
548,153.95445935052695
720,2554.788276873207
721,2554.788276873207
784,0.0
785,0.0
848,0.0
849,0.0
1121,3789.570164643822
1135,1379.398970222759
1161,6.456262549611456
1163,0.0
1166,371.29746965883896
1168,371.29746965883896
2,2,12,16, 0, 1, 0.00,60.00,Tuesday
7,-9.7
545,18.60862532667869
546,-6.666144758351657
547,16.186108744047438
548,153.95445935052695
720,3075.128003470334
721,3075.128003470334
784,0.0
785,0.0
848,0.0
849,0.0
1121,3834.3076807376983
1135,1383.198840617807
1161,1.6912141912985617
1163,0.0
1166,962.6694828066938
1168,962.6694828066938
2,2,12,16, 0, 2, 0.00,60.00,Tuesday
7,-10.5
545,18.58442335285299
546,-6.677523111868729
547,16.056373037834305
548,153.95445935052695
720,3785.0320031029296
721,3785.0320031029296
784,0.0
785,0.0
848,0.0
849,0.0
1121,3732.5408692242277
1135,1368.3281282161956
1161,4.492092764987952
1163,0.0
1166,1911.7325694110768
1168,1911.7325694110768
2,2,12,16, 0, 3, 0.00,60.00,Tuesday
7,-11.1
545,18.57962527362149
546,-6.102180479884612
547,15.931104860361417
548,153.95445935052695
720,4195.074566460149
721,4195.074566460149
784,0.0
785,0.0
848,0.0
849,0.0
1121,3666.644831723237
1135,1360.9993621509846
1161,3.8153208595084305
1163,0.0
1166,2472.8626042034493
1168,2472.8626042034493
2,2,12,16, 0, 4, 0.00,60.00,Tuesday
7,-12.0
545,18.582092565273506
546,-6.283107292600439
547,15.801115976496662
548,153.95445935052695
720,4447.314360796854
721,4447.314360796854
784,0.0
785,0.0
848,0.0
849,0.0
1121,3577.290630918315
1135,1354.2071698247426
1161,0.07416286318120552
1163,0.0
1166,2839.4880589786057
1168,2839.4880589786057
2,2,12,16, 0, 5, 0.00,60.00,Tuesday
7,-12.5
545,18.586147811393506
546,-6.758802347736495
547,15.675073769891597
548,153.95445935052695
720,4365.33282806942
721,4365.33282806942
784,0.0
785,0.0
848,0.0
849,0.0
1121,3521.185797046612
1135,1347.7673270252292
1161,0.07416286318120552
1163,0.0
1166,2813.481702077897
1168,2813.481702077897
2,2,12,16, 0, 6, 0.00,60.00,Tuesday
7,-12.7
545,19.328829647583955
546,-6.730961794517132
547,15.548935221183998
548,153.95445935052695
720,5595.676277355704
721,5595.676277355704
784,0.0
785,0.0
848,0.0
849,0.0
1121,3498.9085077446525
1135,1345.1530263393877
1161,0.07416286318120552
1163,0.0
1166,4279.597493323117
1168,4279.597493323117
2,2,12,16, 0, 7, 0.00,60.00,Tuesday
7,-12.8
545,19.581378615380995
546,-6.254271167376631
547,15.459940476187716
548,153.95445935052695
720,5281.82726855118
721,5281.82726855118
784,0.0
785,0.0
848,0.0
849,0.0
1121,3470.6508432694295
1135,1361.93619945906
1161,0.07416286318120552
1163,0.0
1166,4032.6098337635713
1168,4032.6098337635713
2,2,12,16, 0, 8, 0.00,60.00,Tuesday
7,-12.5
545,19.664539947468295
546,-5.987136510739515
547,15.350206473769385
548,153.95445935052695
720,4956.6832229741285
721,4956.6832229741285
784,0.0
785,0.0
848,0.0
849,0.0
1121,3498.2790751996267
1135,1372.0433514050978
1161,0.07416286318120552
1163,0.0
1166,3631.478825664261
1168,3631.478825664261
2,2,12,16, 0, 9, 0.00,60.00,Tuesday
7,-11.9
545,19.684088776029817
546,-5.587795334942658
547,15.245114154164073
548,153.95445935052695
720,5003.42570191053
721,5003.42570191053
784,0.0
785,0.0
848,0.0
849,0.0
1121,3563.882383708835
1135,1381.9260183105364
1161,0.07416286318120552
1163,0.0
1166,3610.737544351974
1168,3610.737544351974
2,2,12,16, 0,10, 0.00,60.00,Tuesday
7,-11.1
545,19.70182706504981
546,-3.548741021098209
547,15.144747663889301
548,153.95445935052695
720,4576.257814655159
721,4576.257814655159
784,0.0
785,0.0
848,0.0
849,0.0
1121,3653.2527900252644
1135,1392.2707753276222
1161,0.46472017475449345
1163,0.0
1166,3010.7440639405277
1168,3010.7440639405277
2,2,12,16, 0,11, 0.00,60.00,Tuesday
7,-10.1
545,19.714250890887527
546,-2.264698494456274
547,15.04937566742872
548,153.95445935052695
720,4376.148298648846
721,4376.148298648846
784,0.0
785,0.0
848,0.0
849,0.0
1121,3769.9343550447074
1135,1406.0204601748405
1161,0.07416286318120552
1163,0.0
1166,2560.1118212360916
1168,2560.1118212360916
2,2,12,16, 0,12, 0.00,60.00,Tuesday
7,-9.6
545,19.717085339927063
546,-1.5133881541785594
547,14.957751194623828
548,153.95445935052695
720,4212.227736486733
721,4212.227736486733
784,0.0
785,0.0
848,0.0
849,0.0
1121,3828.350359849688
1135,1412.6057399979702
1161,0.07416286318120552
1163,0.0
1166,2235.462283113209
1168,2235.462283113209
2,2,12,16, 0,13, 0.00,60.00,Tuesday
7,-9.0
545,19.7172868483203
546,-0.9678356115385811
547,14.874247176225781
548,153.95445935052695
720,4036.1755943799944
721,4036.1755943799944
784,0.0
785,0.0
848,0.0
849,0.0
1121,3899.3953367404006
1135,1420.1576937326572
1161,0.07416286318120552
1163,0.0
1166,1916.187691011573
1168,1916.187691011573
2,2,12,16, 0,14, 0.00,60.00,Tuesday
7,-8.1
545,19.713372703341214
546,-0.5828196141320673
547,14.801885802303422
548,153.95445935052695
720,4052.955228650999
721,4052.955228650999
784,0.0
785,0.0
848,0.0
849,0.0
1121,4007.3745848435938
1135,1431.3610950050202
1161,0.07416286318120552
1163,0.0
1166,1797.3084129146314
1168,1797.3084129146314
2,2,12,16, 0,15, 0.00,60.00,Tuesday
7,-7.5
545,19.720635353102487
546,-0.19108419436414678
547,14.738461220937255
548,153.95445935052695
720,3702.5497443031636
721,3702.5497443031636
784,0.0
785,0.0
848,0.0
849,0.0
1121,4080.3863205072207
1135,1438.6640852617797
1161,0.07416286318120552
1163,0.0
1166,1296.8228008730603
1168,1296.8228008730603
2,2,12,16, 0,16, 0.00,60.00,Tuesday
7,-7.2
545,19.721833527200126
546,-0.6902008008619467
547,14.678725195330355
548,153.95445935052695
720,3531.6423664517806
721,3531.6423664517806
784,0.0
785,0.0
848,0.0
849,0.0
1121,4116.984556094945
1135,1442.5146015617381
1161,0.07416286318120552
1163,0.0
1166,1033.257420497619
1168,1033.257420497619
2,2,12,16, 0,17, 0.00,60.00,Tuesday
7,-6.8
545,19.709475754882096
546,-1.6834165803728793
547,14.620783469634883
548,153.95445935052695
720,3776.7964642209117
721,3776.7964642209117
784,0.0
785,0.0
848,0.0
849,0.0
1121,4166.269176298079
1135,1447.4123613842985
1161,0.07416286318120552
1163,0.0
1166,1287.0548750995158
1168,1287.0548750995158
2,2,12,16, 0,18, 0.00,60.00,Tuesday
7,-6.3
545,19.715877813121896
546,-2.1126648054332526
547,14.569254374156573
548,153.95445935052695
720,3353.320170405017
721,3353.320170405017
784,0.0
785,0.0
848,0.0
849,0.0
1121,4228.6068409272375
1135,1453.2129581807042
1161,0.07416286318120552
1163,0.0
1166,789.0282170068781
1168,789.0282170068781
2,2,12,16, 0,19, 0.00,60.00,Tuesday
7,-6.0
545,19.718797468055485
546,-2.1192645137429698
547,14.513152050273973
548,153.95445935052695
720,3143.4483262497706
721,3143.4483262497706
784,0.0
785,0.0
848,0.0
849,0.0
1121,4265.956537950616
1135,1457.0347368384716
1161,0.07416286318120552
1163,0.0
1166,532.1611753986281
1168,532.1611753986281
2,2,12,16, 0,20, 0.00,60.00,Tuesday
7,-6.0
545,19.721227224823586
546,-2.6658358420117096
547,14.455210549530673
548,153.95445935052695
720,3027.7294450199643
721,3027.7294450199643
784,0.0
785,0.0
848,0.0
849,0.0
1121,4265.953139055828
1135,1457.0386668746164
1161,0.07416286318120552
1163,0.0
1166,397.0680809712949
1168,397.0680809712949
2,2,12,16, 0,21, 0.00,60.00,Tuesday
7,-6.1
545,19.720143142025954
546,-2.8466159606686388
547,14.394403119354427
548,153.95445935052695
720,2908.5662823737493
721,2908.5662823737493
784,0.0
785,0.0
848,0.0
849,0.0
1121,4253.466223652733
1135,1455.7838192797292
1161,0.07416286318120552
1163,0.0
1166,295.80973570303695
1168,295.80973570303695
2,2,12,16, 0,22, 0.00,60.00,Tuesday
7,-6.2
545,19.718258891921035
546,-2.6581154472342514
547,14.331250763880439
548,153.95445935052695
720,2942.6319379874803
721,2942.6319379874803
784,0.0
785,0.0
848,0.0
849,0.0
1121,4241.089599658354
1135,1454.4253256353397
1161,0.07416286318120552
1163,0.0
1166,357.51089193265716
1168,357.51089193265716
2,2,12,16, 0,23, 0.00,60.00,Tuesday
7,-6.6
545,18.999082975452957
546,-3.000993379178326
547,14.255373406876968
548,141.15600902289327
720,2301.4831616070624
721,2301.4831616070624
784,0.0
785,0.0
848,0.0
849,0.0
1121,3803.9209205058264
1135,1328.9254704175673
1161,0.0679986885947365
1163,16.6233457610929
1166,0.0
1168,0.0
2,2,12,16, 0,24, 0.00,60.00,Tuesday
7,-6.2
545,18.749603539105216
546,-2.725625515450589
547,14.166194038986935
548,146.1778806364471
720,2537.6886800588854
721,2537.6886800588854
784,0.0
785,0.0
848,0.0
849,0.0
1121,4018.476758672798
1135,1361.7130963776497
1161,0.07041781083688581
1163,10.099535491690116
1166,0.0
1168,0.0
2,3,12,17, 0, 1, 0.00,60.00,Wednesday
7,-6.1
545,18.627630394072614
546,-2.8286059966213806
547,14.09115101750714
548,153.95445935052695
720,3134.279260870506
721,3134.279260870506
784,0.0
785,0.0
848,0.0
849,0.0
1121,4277.32989897606
1135,1428.218257307222
1161,0.07416286318120552
1163,0.0
1166,449.2966936184166
1168,449.2966936184166
2,3,12,17, 0, 2, 0.00,60.00,Wednesday
7,-6.0
545,18.608018953752683
546,-2.1076015504698233
547,14.015583113306574
548,153.95445935052695
720,3323.125107627462
721,3323.125107627462
784,0.0
785,0.0
848,0.0
849,0.0
1121,4292.854511630209
1135,1425.9370671811969
1161,0.07416286318120552
1163,0.0
1166,667.7656548490686
1168,667.7656548490686
2,3,12,17, 0, 3, 0.00,60.00,Wednesday
7,-5.5
545,18.6041583399533
546,-2.0108462135848413
547,13.945915574095428
548,153.95445935052695
720,3571.7765131381475
721,3571.7765131381475
784,0.0
785,0.0
848,0.0
849,0.0
1121,4356.30421552807
1135,1431.2579784750437
1161,0.07416286318120552
1163,0.0
1166,865.55914875507
1168,865.55914875507
2,3,12,17, 0, 4, 0.00,60.00,Wednesday
7,-5.1
545,18.605518548904698
546,-1.5030620680907067
547,13.879685523264298
548,153.95445935052695
720,3544.9160970088687
721,3544.9160970088687
784,0.0
785,0.0
848,0.0
849,0.0
1121,4407.146873259282
1135,1435.8551477380051
1161,0.07416286318120552
1163,0.0
1166,782.2833263490993
1168,782.2833263490993
2,3,12,17, 0, 5, 0.00,60.00,Wednesday
7,-5.0
545,18.61285265459638
546,-1.1363376584025358
547,13.81525377512752
548,153.95445935052695
720,3323.2571237963894
721,3323.2571237963894
784,0.0
785,0.0
848,0.0
849,0.0
1121,4418.837285996685
1135,1436.665979836843
1161,0.3328227829064927
1163,0.0
1166,490.18125811792424
1168,490.18125811792424
2,3,12,17, 0, 6, 0.00,60.00,Wednesday
7,-4.8
545,19.352391913004013
546,-0.998738137137721
547,13.752854880492619
548,153.95445935052695
720,4485.03644576196
721,4485.03644576196
784,0.0
785,0.0
848,0.0
849,0.0
1121,4435.269642096295
1135,1436.2573660125888
1161,2.4990752287632896
1163,0.0
1166,1789.3026901953976
1168,1789.3026901953976
2,3,12,17, 0, 7, 0.00,60.00,Wednesday
7,-4.3
545,19.604752840735145
546,-0.4694450697901557
547,13.732462285723582
548,153.95445935052695
720,4130.052978296433
721,4130.052978296433
784,0.0
785,0.0
848,0.0
849,0.0
1121,4453.314943688119
1135,1454.0272974176937
1161,9.19782827738124
1163,0.0
1166,1434.1494302883793
1168,1434.1494302883793
2,3,12,17, 0, 8, 0.00,60.00,Wednesday
7,-3.8
545,19.689841501653138
546,-0.05452983305641125
547,13.689166908770634
548,153.95445935052695
720,3701.798423638287
721,3701.798423638287
784,0.0
785,0.0
848,0.0
849,0.0
1121,4489.509322134956
1135,1460.3012241376264
1161,14.313492690511605
1163,0.0
1166,898.2332296717614
1168,898.2332296717614
2,3,12,17, 0, 9, 0.00,60.00,Wednesday
7,-3.6
545,19.71476737913254
546,0.21985454582436526
547,13.647413154651009
548,153.95445935052695
720,3499.7360748803912
721,3499.7360748803912
784,0.0
785,0.0
848,0.0
849,0.0
1121,4511.100523119217
1135,1464.492523833677
1161,14.785053639476452
1163,0.0
1166,619.1157654855979
1168,619.1157654855979
2,3,12,17, 0,10, 0.00,60.00,Wednesday
7,-3.1
545,19.72127118651345
546,0.540987078102625
547,13.608076133342841
548,153.95445935052695
720,3386.086633101446
721,3386.086633101446
784,0.0
785,0.0
848,0.0
849,0.0
1121,4541.468160531947
1135,1460.5870779276872
1161,22.51891089249659
1163,0.0
1166,439.58333184372395
1168,439.58333184372395
2,3,12,17, 0,11, 0.00,60.00,Wednesday
7,-3.0
545,19.719048142814078
546,0.5552701171265209
547,13.566840263019241
548,153.95445935052695
720,3498.671540016101
721,3498.671540016101
784,0.0
785,0.0
848,0.0
849,0.0
1121,4506.218102079243
1135,1446.519110978124
1161,33.58546275896974
1163,0.0
1166,585.4649253003236
1168,585.4649253003236
2,3,12,17, 0,12, 0.00,60.00,Wednesday
7,-3.0
545,19.723931396813754
546,1.2399875784725858
547,13.530247478943929
548,153.95445935052695
720,3226.9025677954905
721,3226.9025677954905
784,0.0
785,0.0
848,0.0
849,0.0
1121,4424.588989889472
1135,1420.1848741094236
1161,52.424669724731324
1163,0.0
1166,352.87823290803
1168,352.87823290803
2,3,12,17, 0,13, 0.00,60.00,Wednesday
7,-2.7
545,19.7261414133764
546,1.260820148771728
547,13.496827335829758
548,153.95445935052695
720,3162.1333186007996
721,3162.1333186007996
784,0.0
785,0.0
848,0.0
849,0.0
1121,4445.819331495373
1135,1418.6908200063133
1161,56.13836578682934
1163,0.0
1166,220.5281222634303
1168,220.5281222634303
2,3,12,17, 0,14, 0.00,60.00,Wednesday
7,-2.7
545,19.72468043954349
546,1.7170140848426154
547,13.46416944381276
548,153.95445935052695
720,3084.146343058803
721,3084.146343058803
784,0.0
785,0.0
848,0.0
849,0.0
1121,4409.455868335081
1135,1407.1128319977922
1161,64.44726030258775
1163,0.0
1166,159.10548134995406
1168,159.10548134995406
2,3,12,17, 0,15, 0.00,60.00,Wednesday
7,-3.0
545,19.723606340381945
546,1.5710469922550718
547,13.430812742479036
548,153.95445935052695
720,3106.8125668320317
721,3106.8125668320317
784,0.0
785,0.0
848,0.0
849,0.0
1121,4311.527475525032
1135,1383.9017584494245
1161,78.48881213928236
1163,0.0
1166,258.9686935221416
1168,258.9686935221416
2,3,12,17, 0,16, 0.00,60.00,Wednesday
7,-2.7
545,19.72564400457055
546,2.4283141240793507
547,13.404318782549641
548,153.95445935052695
720,2897.242801938537
721,2897.242801938537
784,0.0
785,0.0
848,0.0
849,0.0
1121,4321.209833016332
1135,1378.7532775174332
1161,84.6509851822713
1163,0.0
1166,11.633069082684415
1168,11.633069082684415
2,3,12,17, 0,17, 0.00,60.00,Wednesday
7,-2.6
545,19.752745062199526
546,1.6457427107749252
547,13.369427728426054
548,145.7478620597011
720,2729.105467828822
721,2729.105467828822
784,0.0
785,0.0
848,0.0
849,0.0
1121,4070.258211498829
1135,1319.710750633693
1161,83.82429036093252
1163,8.199235855846055
1166,0.0
1168,0.0
2,3,12,17, 0,18, 0.00,60.00,Wednesday
7,-2.8
545,19.76541001616737
546,1.5049420243359164
547,13.332230240596138
548,135.12452888947934
720,2463.371473645455
721,2463.371473645455
784,0.0
785,0.0
848,0.0
849,0.0
1121,3725.8022343450207
1135,1224.1454381551077
1161,76.33847870040961
1163,22.164629820491697
1166,0.0
1168,0.0
2,3,12,17, 0,19, 0.00,60.00,Wednesday
7,-3.1
545,19.78818876223574
546,1.4223858832352065
547,13.291169093392455
548,120.54057697959689
720,2137.89398241406
721,2137.89398241406
784,0.0
785,0.0
848,0.0
849,0.0
1121,3271.151540037907
1135,1093.9862570334342
1161,64.74323856410649
1163,41.39199315291271
1166,0.0
1168,0.0
2,3,12,17, 0,20, 0.00,60.00,Wednesday
7,-3.2
545,19.774191445534747
546,0.9609345614930596
547,13.25974560668163
548,112.51936401564284
720,1972.7834582521955
721,1972.7834582521955
784,0.0
785,0.0
848,0.0
849,0.0
1121,3016.0523144646963
1135,1018.3105797890557
1161,62.75214759166509
1163,51.844677902019896
1166,0.0
1168,0.0
2,3,12,17, 0,21, 0.00,60.00,Wednesday
7,-3.7
545,19.688710815541743
546,0.653549748569668
547,13.237674552727333
548,118.41856127120487
720,2093.2979824631475
721,2093.2979824631475
784,0.0
785,0.0
848,0.0
849,0.0
1121,3167.8788532104077
1135,1074.2932614227254
1161,60.21867439659026
1163,44.1556607102163
1166,0.0
1168,0.0
2,3,12,17, 0,22, 0.00,60.00,Wednesday
7,-4.0
545,19.644393173122563
546,0.5227714731838112
547,13.222043084548536
548,133.55602143880705
720,2397.3959445372184
721,2397.3959445372184
784,0.0
785,0.0
848,0.0
849,0.0
1121,3601.149351288144
1135,1210.8404560148851
1161,64.45491680285843
1163,24.280726124996278
1166,0.0
1168,0.0
2,3,12,17, 0,23, 0.00,60.00,Wednesday
7,-4.1
545,18.970321362403734
546,0.14634772352179207
547,13.156022701112077
548,101.83695633433095
720,1672.6136212972797
721,1672.6136212972797
784,0.0
785,0.0
848,0.0
849,0.0
1121,2667.826406875457
1135,921.1251558801763
1161,49.9139217495317
1163,65.9657620047002
1166,0.0
1168,0.0
2,3,12,17, 0,24, 0.00,60.00,Wednesday
7,-4.6
545,18.68635866067762
546,0.09737099130774848
547,13.118349047905179
548,116.99977107633438
720,2049.682016754834
721,2049.682016754834
784,0.0
785,0.0
848,0.0
849,0.0
1121,3084.7114158966597
1135,1044.938527941533
1161,53.38680122028268
1163,46.05352016903703
1166,0.0
1168,0.0
2,4,12,18, 0, 1, 0.00,60.00,Thursday
7,-4.7
545,18.50651786319851
546,-0.05581175598319979
547,13.089425318830957
548,145.12040732138945
720,2683.8385890590253
721,2683.8385890590253
784,0.0
785,0.0
848,0.0
849,0.0
1121,3937.084814580363
1135,1295.5705881604154
1161,58.886407028868994
1163,9.313538901028728
1166,0.0
1168,0.0
2,4,12,18, 0, 2, 0.00,60.00,Thursday
7,-5.0
545,18.545105821770758
546,-0.028023793663666387
547,13.041438917582607
548,153.95445935052695
720,3129.878673328625
721,3129.878673328625
784,0.0
785,0.0
848,0.0
849,0.0
1121,4197.425206624621
1135,1359.856767384764
1161,54.83942253838628
1163,0.0
1166,372.73812721225704
1168,372.73812721225704
2,4,12,18, 0, 3, 0.00,60.00,Thursday
7,-6.7
545,18.563776963323086
546,-1.0792242599165869
547,12.98407309015506
548,153.95445935052695
720,3998.28960394957
721,3998.28960394957
784,0.0
785,0.0
848,0.0
849,0.0
1121,4033.967011016316
1135,1354.9162987021298
1161,44.68008849210378
1163,0.0
1166,1573.780893211264
1168,1573.780893211264
2,4,12,18, 0, 4, 0.00,60.00,Thursday
7,-7.8
545,18.575550327718144
546,-1.64887822865812
547,12.931275682601932
548,153.95445935052695
720,4182.5639780705205
721,4182.5639780705205
784,0.0
785,0.0
848,0.0
849,0.0
1121,3928.0037283258525
1135,1350.9254725413284
1161,38.43236670052249
1163,0.0
1166,1966.7152388721547
1168,1966.7152388721547
2,4,12,18, 0, 5, 0.00,60.00,Thursday
7,-8.8
545,18.56912896561735
546,-2.833464900016757
547,12.868794355876588
548,153.95445935052695
720,4790.433337171267
721,4790.433337171267
784,0.0
785,0.0
848,0.0
849,0.0
1121,3840.402896301848
1135,1349.683718801271
1161,30.62446432466993
1163,0.0
1166,2808.4903508086463
1168,2808.4903508086463
2,4,12,18, 0, 6, 0.00,60.00,Thursday
7,-9.2
545,19.330311221985458
546,-2.6833377317274856
547,12.815246058430203
548,153.95445935052695
720,5474.492997993857
721,5474.492997993857
784,0.0
785,0.0
848,0.0
849,0.0
1121,3808.4171664916357
1135,1349.7903603013178
1161,26.752430625000773
1163,0.0
1166,3697.2767192642023
1168,3697.2767192642023
2,4,12,18, 0, 7, 0.00,60.00,Thursday
7,-9.7
545,19.570189294426
546,-3.5095644764864966
547,12.784133553074366
548,153.95445935052695
720,5848.350729042366
721,5848.350729042366
784,0.0
785,0.0
848,0.0
849,0.0
1121,3751.882498773295
1135,1369.9119601786938
1161,21.584473570023604
1163,0.0
1166,4274.014357798185
1168,4274.014357798185
2,4,12,18, 0, 8, 0.00,60.00,Thursday
7,-10.5
545,19.651125742131246
546,-4.833008727185116
547,12.724164668793348
548,153.95445935052695
720,5578.511193472146
721,5578.511193472146
784,0.0
785,0.0
848,0.0
849,0.0
1121,3650.1172380831053
1135,1364.3170999965155
1161,22.948750814539295
1163,0.0
1166,4134.8543650946685
1168,4134.8543650946685
2,4,12,18, 0, 9, 0.00,60.00,Thursday
7,-11.5
545,19.65039243871663
546,-5.967431646311022
547,12.654329043572591
548,153.95445935052695
720,6303.236931648067
721,6303.236931648067
784,0.0
785,0.0
848,0.0
849,0.0
1121,3551.8398732679175
1135,1359.676504222636
1161,18.23844235067185
1163,0.0
1166,5152.9041206163965
1168,5152.9041206163965
2,4,12,18, 0,10, 0.00,60.00,Thursday
7,-12.5
545,19.66885240460779
546,-5.693665852380479
547,12.586573624707391
548,153.95445935052695
720,5950.861515273391
721,5950.861515273391
784,0.0
785,0.0
848,0.0
849,0.0
1121,3448.2158103569022
1135,1349.5239355218562
1161,16.031523815155413
1163,0.0
1166,4929.520909841571
1168,4929.520909841571
2,4,12,18, 0,11, 0.00,60.00,Thursday
7,-13.0
545,19.67834993885635
546,-5.920736863858886
547,12.514348104962469
548,153.95445935052695
720,5860.786654392266
721,5860.786654392266
784,0.0
785,0.0
848,0.0
849,0.0
1121,3396.3512370166545
1135,1344.626251124478
1161,15.00874991250942
1163,0.0
1166,4867.6912838955595
1168,4867.6912838955595
2,4,12,18, 0,12, 0.00,60.00,Thursday
7,-13.0
545,19.68853130705886
546,-4.933855582076037
547,12.445177472175956
548,153.95445935052695
720,5467.203808722805
721,5467.203808722805
784,0.0
785,0.0
848,0.0
849,0.0