Program Version,EnergyPlus, Version 22.2.0-c249759bad, YMD=2023.09.01 20:30
1,5,Environment Title[],Latitude[deg],Longitude[deg],Time Zone[],Elevation[m]
2,8,Day of Simulation[],Month[],Day of Month[],DST Indicator[1=yes 0=no],Hour[],StartMinute[],EndMinute[],DayType
3,5,Cumulative Day of Simulation[],Month[],Day of Month[],DST Indicator[1=yes 0=no],DayType  ! When Daily Report Variables Requested
4,2,Cumulative Days of Simulation[],Month[]  ! When Monthly Report Variables Requested
5,1,Cumulative Days of Simulation[] ! When Run Period Report Variables Requested
6,1,Calendar Year of Simulation[] ! When Annual Report Variables Requested
581,11,LIVING,AFN Zone Infiltration Air Change Rate [ach] !RunPeriod [Value,Min,Month,Day,Hour,Minute,Max,Month,Day,Hour,Minute]
582,11,ATTIC,AFN Zone Infiltration Air Change Rate [ach] !RunPeriod [Value,Min,Month,Day,Hour,Minute,Max,Month,Day,Hour,Minute]
583,11,CRAWLSPACE,AFN Zone Infiltration Air Change Rate [ach] !RunPeriod [Value,Min,Month,Day,Hour,Minute,Max,Month,Day,Hour,Minute]
1038,11,Facility,Facility Heating Setpoint Not Met Time [hr] !RunPeriod [Value,Min,Month,Day,Hour,Minute,Max,Month,Day,Hour,Minute]
1039,11,Facility,Facility Cooling Setpoint Not Met Time [hr] !RunPeriod [Value,Min,Month,Day,Hour,Minute,Max,Month,Day,Hour,Minute]
1115,11,DX_HEATING_COIL,Heating Coil Heating Energy [J] !RunPeriod [Value,Min,Month,Day,Hour,Minute,Max,Month,Day,Hour,Minute]
1128,11,DX_HEATING_COIL,Heating Coil Electricity Energy [J] !RunPeriod [Value,Min,Month,Day,Hour,Minute,Max,Month,Day,Hour,Minute]
1153,11,DX_HEATING_COIL,Heating Coil Defrost Electricity Energy [J] !RunPeriod [Value,Min,Month,Day,Hour,Minute,Max,Month,Day,Hour,Minute]
1154,11,DX_HEATING_COIL,Heating Coil Crankcase Heater Electricity Energy [J] !RunPeriod [Value,Min,Month,Day,Hour,Minute,Max,Month,Day,Hour,Minute]
1155,11,HEATING_RESISTANCE_BACKUP,Heating Coil Heating Energy [J] !RunPeriod [Value,Min,Month,Day,Hour,Minute,Max,Month,Day,Hour,Minute]
1156,11,HEATING_RESISTANCE_BACKUP,Heating Coil Electricity Energy [J] !RunPeriod [Value,Min,Month,Day,Hour,Minute,Max,Month,Day,Hour,Minute]
1292,11,WATER HEATER,Water Heater Heat Loss Energy [J] !RunPeriod [Value,Min,Month,Day,Hour,Minute,Max,Month,Day,Hour,Minute]
1306,11,WATER HEATER,Water Heater Heating Energy [J] !RunPeriod [Value,Min,Month,Day,Hour,Minute,Max,Month,Day,Hour,Minute]
1307,11,WATER HEATER,Water Heater Unmet Demand Heat Transfer Energy [J] !RunPeriod [Value,Min,Month,Day,Hour,Minute,Max,Month,Day,Hour,Minute]
1308,11,WATER HEATER,Water Heater Electricity Energy [J] !RunPeriod [Value,Min,Month,Day,Hour,Minute,Max,Month,Day,Hour,Minute]
13,11,Electricity:Facility [J] !RunPeriod [Value,Min,Month,Day,Hour,Minute,Max,Month,Day,Hour,Minute]
1134,11,Heating:Electricity [J] !RunPeriod [Value,Min,Month,Day,Hour,Minute,Max,Month,Day,Hour,Minute]
1096,11,Cooling:Electricity [J] !RunPeriod [Value,Min,Month,Day,Hour,Minute,Max,Month,Day,Hour,Minute]
562,11,Fans:Electricity [J] !RunPeriod [Value,Min,Month,Day,Hour,Minute,Max,Month,Day,Hour,Minute]
1379,11,Pumps:Electricity [J] !RunPeriod [Value,Min,Month,Day,Hour,Minute,Max,Month,Day,Hour,Minute]
1326,11,WaterSystems:Electricity [J] !RunPeriod [Value,Min,Month,Day,Hour,Minute,Max,Month,Day,Hour,Minute]
61,11,InteriorLights:Electricity [J] !RunPeriod [Value,Min,Month,Day,Hour,Minute,Max,Month,Day,Hour,Minute]
1046,11,ExteriorLights:Electricity [J] !RunPeriod [Value,Min,Month,Day,Hour,Minute,Max,Month,Day,Hour,Minute]
134,11,InteriorEquipment:Electricity [J] !RunPeriod [Value,Min,Month,Day,Hour,Minute,Max,Month,Day,Hour,Minute]
170,11,gas_dryer:InteriorEquipment:Electricity [J] !RunPeriod [Value,Min,Month,Day,Hour,Minute,Max,Month,Day,Hour,Minute]
207,11,clotheswasher:InteriorEquipment:Electricity [J] !RunPeriod [Value,Min,Month,Day,Hour,Minute,Max,Month,Day,Hour,Minute]
244,11,dishwasher:InteriorEquipment:Electricity [J] !RunPeriod [Value,Min,Month,Day,Hour,Minute,Max,Month,Day,Hour,Minute]
281,11,refrigerator:InteriorEquipment:Electricity [J] !RunPeriod [Value,Min,Month,Day,Hour,Minute,Max,Month,Day,Hour,Minute]
318,11,electric_mels:InteriorEquipment:Electricity [J] !RunPeriod [Value,Min,Month,Day,Hour,Minute,Max,Month,Day,Hour,Minute]
355,11,NaturalGas:Facility [J] !RunPeriod [Value,Min,Month,Day,Hour,Minute,Max,Month,Day,Hour,Minute]
403,11,InteriorEquipment:NaturalGas [J] !RunPeriod [Value,Min,Month,Day,Hour,Minute,Max,Month,Day,Hour,Minute]
476,11,gas_dryer:InteriorEquipment:NaturalGas [J] !RunPeriod [Value,Min,Month,Day,Hour,Minute,Max,Month,Day,Hour,Minute]
513,11,gas_mels:InteriorEquipment:NaturalGas [J] !RunPeriod [Value,Min,Month,Day,Hour,Minute,Max,Month,Day,Hour,Minute]
End of Data Dictionary
1,EXTREME_WINTER,  37.04,-113.51,  -7.00, 879.00
5,15
1038,0.0,0.0,12,22, 1,15,0.0,12,22, 1,15
1039,0.0,0.0,12,22, 1,15,0.0,12,22, 1,15
581,0.23343287208432895,0.13819268574539278, 1, 3, 4,52,0.5660028020592501,12,25, 3,60
582,1.6019987067386932,0.0,12,22, 1,15,11.713753339520016,12,25, 3,60
583,0.021936656149583584,0.00019816904978107346,12,31,22,60,0.102890518065161, 1, 5, 6,52
1115,1617580419.584414,0.0,12,22,23, 7,5051436.985730642, 1, 5, 7,15
1128,514812537.7001967,0.0,12,22,23, 7,1726600.7341015975, 1, 5, 6,45
1153,17423894.733290657,0.0,12,22,13,37,79025.83040642519, 1, 1, 6,60
1154,200265023.43827847,0.0,12,22, 6, 5,180000.0,12,24,20,15
1155,8065165.329638045,0.0,12,22, 1,15,1107225.159301272, 1, 5, 6, 5
1156,8065165.329638045,0.0,12,22, 1,15,1107225.159301272, 1, 5, 6, 5
1292,-53280084.863789834,-39774.41542156231,12,22, 1,15,-4026.958112570873,12,30,11,21
1306,360511307.897775,0.0,12,22, 1,15,4050000.0,12,22, 8,45
1307,62582067.703051224,0.0,12,22, 1,15,8402819.061228748, 1, 3,10,30
1308,360511307.897775,0.0,12,22, 1,15,4050000.0,12,22, 8,45
13,1961213754.5452125,289357.02142671024, 1, 2,15,30,6517622.056887357, 1, 5, 8,45
61,646981127.1939323,88139.10953165221,12,22, 1,15,1282023.4113694867,12,22,20,15
134,151290040.75163814,63564.01800854099,12,22, 4,15,156554.22484006523,12,27,20,15
170,11185820.069951689,348.4159749238097,12,22, 4,15,17476.39704006126,12,27,12,15
207,13893028.5742839,815.2532113832032,12,22, 3,15,22990.642799023623,12,27,10,15
244,27284301.07562584,1521.856143006317,12,22, 4,15,53038.631142310165,12,27,20,15
281,98926891.03177746,59938.60262432081,12,22, 5,15,81951.81706819107,12,22,19,15
318,0.0,0.0,12,22, 1,15,0.0,12,22, 1,15
355,422701517.16107386,18561.32405820678,12,22, 4,15,724774.895203776,12,27,18,15
403,422701517.16107386,18561.32405820678,12,22, 4,15,724774.895203776,12,27,18,15
476,227882097.80545202,7098.072629279515,12,22, 4,15,356036.3026282215,12,27,12,15
513,0.0,0.0,12,22, 1,15,0.0,12,22, 1,15
562,54947586.6212458,0.0,12,22,23,15,182323.7210192481, 1, 5, 6,45
1046,0.0,0.0,12,22, 1,15,0.0,12,22, 1,15
1096,6917070.87921919,0.0,12,22, 1,15,223649.45768571048,12,30,17,30
1134,740566621.201404,0.0,12,29,17,60,2818742.94791355, 1, 5, 6,15
1326,360511307.89777476,0.0,12,22, 1,15,4050000.0,12,22, 8,45
1379,0.0,0.0,12,22, 1,15,0.0,12,22, 1,15
1,EXTREME_SUMMER,  37.04,-113.51,  -7.00, 879.00
5,7
1038,0.0,0.0, 6,29, 1,15,0.0, 6,29, 1,15
1039,24.0,0.0, 6,29, 1,15,0.25, 6,30,17,15
581,0.14450209345232837,0.0, 7, 2, 6, 7,0.7397098717006617, 7, 5,17,50
582,5.02292503044661,0.17147645385059254, 7, 3, 2,37,23.862114576326917, 7, 5,17,50
583,0.05414182960742792,0.0, 7, 2, 6, 7,0.10310166494335676, 7, 5,17,50
1115,0.0,0.0, 6,29, 1, 7,0.0, 6,29, 1, 7
1128,0.0,0.0, 6,29, 1, 7,0.0, 6,29, 1, 7
1153,0.0,0.0, 6,29, 1, 7,0.0, 6,29, 1, 7
1154,0.0,0.0, 6,29, 1, 7,0.0, 6,29, 1, 7
1155,0.0,0.0, 6,29, 1, 7,0.0, 6,29, 1, 7
1156,0.0,0.0, 6,29, 1, 7,0.0, 6,29, 1, 7
1292,-22024077.627119437,-34308.27241372583, 7, 3,15,15,-3189.8319575331006, 7, 2,10,30
1306,112872210.14713342,0.0, 6,29, 1, 7,3275215.9492836357, 6,30, 7,15
1307,8229283.857574936,0.0, 6,29, 1, 7,414166.6703563904, 7, 2,10,20
1308,112872210.14713342,0.0, 6,29, 1, 7,3275215.9492836357, 6,30, 7,15
13,1319040853.853043,309818.2492053105, 6,29, 4,60,6237910.638138336, 7, 4,19,30
61,301924526.02383536,88139.10953165221, 6,29, 1,15,1282023.4113694867, 6,29,20,15
134,70666020.44019976,63564.01800854099, 6,29, 4,15,156554.22484006523, 7, 4,20,15
170,5241013.419656067,348.4159749238097, 6,29, 4,15,17476.39704006126, 7, 4,12,15
207,6509451.13922267,815.2532113832032, 6,29, 3,15,22990.642799023623, 7, 4,10,15
244,12749673.399825225,1521.856143006317, 6,29, 4,15,53038.631142310165, 7, 4,20,15
281,46165882.481495745,59938.60262432081, 6,29, 5,15,81951.81706819107, 6,29,19,15
318,0.0,0.0, 6,29, 1,15,0.0, 6,29, 1,15
355,197687796.27748066,18561.32405820678, 6,29, 4,15,724774.895203776, 7, 4,18,15
403,197687796.27748066,18561.32405820678, 6,29, 4,15,724774.895203776, 7, 4,18,15
476,106772067.24485716,7098.072629279515, 6,29, 4,15,356036.3026282215, 7, 4,12,15
513,0.0,0.0, 6,29, 1,15,0.0, 6,29, 1,15
562,69161393.1167302,15712.981561644972, 6,29, 5,45,182323.72101924813, 7, 1,15,60
1046,0.0,0.0, 6,29, 1,15,0.0, 6,29, 1,15
1096,764416704.1251429,137092.06325062612, 6,29, 5,45,2344283.2006927165, 7, 4,16,60
1134,0.0,0.0, 6,29, 1,15,0.0, 6,29, 1,15
1326,112872210.14713341,0.0, 6,29, 1,15,4050000.0, 7, 3, 8,30
1379,0.0,0.0, 6,29, 1,15,0.0, 6,29, 1,15
1,ANNUAL,  37.04,-113.51,  -7.00, 879.00
5,365
1038,0.0,0.0, 1, 1, 1,15,0.0, 1, 1, 1,15
1039,389.25,0.0, 1, 1, 1,15,0.25, 2, 9,13,30
581,0.19313064753659065,0.0, 4,27,23, 7,1.896779902723027, 2,18,23,52
582,3.283309578811351,0.0, 1, 1, 6, 5,39.18399552119626, 6,16,17,52
583,0.0307858000067341,0.0, 6, 9, 6, 7,0.11710268611295482, 6,16,17,52
1115,6694333736.516086,0.0, 1, 1, 1,15,5050664.4832957825, 1, 5, 7,15
1128,2127440080.754162,0.0, 1, 1, 1,15,1727596.906385661, 1, 5, 6,45
1153,56004551.73729416,0.0, 1, 1, 1,15,102769.11534519693, 2,23, 7,15
1154,1482786426.7136157,0.0, 1, 1, 6, 5,180000.0, 1, 1, 1,15
1155,37205248.05201302,0.0, 1, 1, 1,15,1107225.159301272, 1, 5, 6, 5
1156,37205248.05201302,0.0, 1, 1, 1,15,1107225.159301272, 1, 5, 6, 5
1292,-1193006887.061595,-39775.27527446987,12, 8, 5,60,-1989.8884643436759, 3,11,10,30
1306,7392833746.805554,0.0, 1, 1, 1,15,4050000.0, 1, 2, 8,45
1307,1004285758.1732401,0.0, 1, 1, 1,15,8142982.996287106,12,23,10,30
1308,7392833746.805554,0.0, 1, 1, 1,15,4050000.0, 1, 2, 8,45
13,48553774477.03838,151703.1275401932, 1,23, 4,15,6967193.881996468, 1, 6, 8,30
61,15743207428.383959,88139.10953165221, 1, 1, 1,15,1282023.4113694867, 1, 1,20,15
134,3685071073.4325233,63564.01800854099, 1, 2, 4,15,156554.22484006523, 1, 1,20,15
170,273393721.45532674,348.4159749238097, 1, 2, 4,15,17476.39704006126, 1, 1,12,15
207,339560869.0695816,815.2532113832032, 1, 2, 3,15,22990.642799023623, 1, 1,10,15
244,664895467.8009144,1521.856143006317, 1, 2, 4,15,53038.631142310165, 1, 1,20,15
281,2407221015.106824,59938.60262432081, 1, 1, 5,15,81951.81706819107, 1, 1,19,15
318,0.0,0.0, 1, 1, 1,15,0.0, 1, 1, 1,15
355,10310294493.051695,18561.32405820678, 1, 2, 4,15,724774.895203776, 1, 1,18,15
403,10310294493.051695,18561.32405820678, 1, 2, 4,15,724774.895203776, 1, 1,18,15
476,5569688622.066177,7098.072629279515, 1, 2, 4,15,356036.3026282215, 1, 1,12,15
513,0.0,0.0, 1, 1, 1,15,0.0, 1, 1, 1,15
562,1914160904.7078514,0.0, 1, 1, 1,15,182323.72101924816, 6, 6,15,60
1046,0.0,0.0, 1, 1, 1,15,0.0, 1, 1, 1,15
1096,16115065016.449354,0.0, 1, 1, 1,15,2335053.790745456, 7, 4,16,60
1134,3703436307.257088,0.0, 1, 2,15,30,3232363.459365595, 1, 6, 6,15
1326,7392833746.805567,0.0, 1, 1, 1,15,4050000.0000000014, 3, 2,10,30
1379,0.0,0.0, 1, 1, 1,15,0.0, 1, 1, 1,15
End of Data
 Number of Records Written=          99
