Program Version,EnergyPlus, Version 22.2.0-c249759bad, YMD=2023.09.01 14:30
1,5,Environment Title[],Latitude[deg],Longitude[deg],Time Zone[],Elevation[m]
2,8,Day of Simulation[],Month[],Day of Month[],DST Indicator[1=yes 0=no],Hour[],StartMinute[],EndMinute[],DayType
3,5,Cumulative Day of Simulation[],Month[],Day of Month[],DST Indicator[1=yes 0=no],DayType  ! When Daily Report Variables Requested
4,2,Cumulative Days of Simulation[],Month[]  ! When Monthly Report Variables Requested
5,1,Cumulative Days of Simulation[] ! When Run Period Report Variables Requested
6,1,Calendar Year of Simulation[] ! When Annual Report Variables Requested
7,1,Environment,Site Outdoor Air Drybulb Temperature [C] !Hourly
619,1,DX_HEATING_COIL,Heating Coil Heating Rate [W] !Hourly
633,1,DX_HEATING_COIL,Heating Coil Electricity Rate [W] !Hourly
659,1,DX_HEATING_COIL,Heating Coil Defrost Electricity Rate [W] !Hourly
661,1,DX_HEATING_COIL,Heating Coil Crankcase Heater Electricity Rate [W] !Hourly
690,1,FAN,Fan Electricity Rate [W] !Hourly
716,1,HEAT PUMP WATER HEATER FAN,Fan Electricity Rate [W] !Hourly
718,1,LIVING,Zone Mean Air Temperature [C] !Hourly
719,1,ATTIC,Zone Mean Air Temperature [C] !Hourly
720,1,CRAWLSPACE,Zone Mean Air Temperature [C] !Hourly
843,1,LIVING,Zone Predicted Sensible Load to Heating Setpoint Heat Transfer Rate [W] !Hourly
844,1,LIVING,Zone System Predicted Sensible Load to Heating Setpoint Heat Transfer Rate [W] !Hourly
907,1,ATTIC,Zone Predicted Sensible Load to Heating Setpoint Heat Transfer Rate [W] !Hourly
908,1,ATTIC,Zone System Predicted Sensible Load to Heating Setpoint Heat Transfer Rate [W] !Hourly
971,1,CRAWLSPACE,Zone Predicted Sensible Load to Heating Setpoint Heat Transfer Rate [W] !Hourly
972,1,CRAWLSPACE,Zone System Predicted Sensible Load to Heating Setpoint Heat Transfer Rate [W] !Hourly
1195,1,HEATING_RESISTANCE_BACKUP,Heating Coil Heating Rate [W] !Hourly
1197,1,HEATING_RESISTANCE_BACKUP,Heating Coil Electricity Rate [W] !Hourly
End of Data Dictionary
1,EXTREME_WINTER,  42.93, -71.43,  -5.00,  81.00
2,1, 1,20, 0, 1, 0.00,60.00,Monday
7,-1.1
718,18.663354146133678
719,-1.6635448606485352
720,18.085463107466914
619,4019.959409250423
633,1234.7900819159545
659,0.5893691428205641
661,20.22500126138478
690,127.32053305561199
716,0.0
843,2519.8265304801207
844,2519.8265304801207
907,0.0
908,0.0
971,0.0
972,0.0
1195,0.0
1197,0.0
2,1, 1,20, 0, 2, 0.00,60.00,Monday
7,-2.2
718,18.61696868749788
719,-0.5121604890911744
720,17.60018454792264
619,4243.221800035044
633,1318.3879552311907
659,0.06611692192451891
661,6.21729592120126
690,137.2506010120811
716,0.0
843,2839.489225950316
844,2839.489225950316
907,0.0
908,0.0
971,0.0
972,0.0
1195,0.0
1197,0.0
2,1, 1,20, 0, 3, 0.00,60.00,Monday
7,-2.8
718,18.624392737486104
719,-0.018017035247521164
720,17.41343785981952
619,4110.576330574627
633,1292.0486724809168
659,0.06521522468369353
661,8.86008878725475
690,135.37868309716427
716,0.0
843,2787.8325760970165
844,2787.8325760970165
907,0.0
908,0.0
971,0.0
972,0.0
1195,0.0
1197,0.0
2,1, 1,20, 0, 4, 0.00,60.00,Monday
7,-3.3
718,18.60012699527477
719,-0.2533588876738569
720,17.176955547105706
619,4264.409885872058
633,1346.153864900912
659,0.06823820757257416
661,0.0
690,141.65548501297658
716,0.0
843,3077.481876115484
844,3077.481876115484
907,0.0
908,0.0
971,0.0
972,0.0
1195,207.49401761931722
1197,207.49401761931722
2,1, 1,20, 0, 5, 0.00,60.00,Monday
7,-3.9
718,18.605299910489915
719,-0.5686733282807548
720,16.98431748874438
619,4193.386762459021
633,1338.4240210754833
659,0.06823820757257416
661,0.0
690,141.65548501297658
716,0.0
843,3523.410460430783
844,3523.410460430783
907,0.0
908,0.0
971,0.0
972,0.0
1195,830.3440049228125
1197,830.3440049228125
2,1, 1,20, 0, 6, 0.00,60.00,Monday
7,-4.4
718,19.38104081300567
719,-0.007587413024178797
720,16.811961503082447
619,4134.132882026248
633,1332.7115659963795
659,0.06823820757257416
661,0.0
690,141.65548501297658
716,0.0
843,4252.805651557057
844,4252.805651557057
907,0.0
908,0.0
971,0.0
972,0.0
1195,1786.0081270700075
1197,1786.0081270700075
2,1, 1,20, 0, 7, 0.00,60.00,Monday
7,-5.0
718,19.580273108303224
719,-0.36424935444572365
720,16.680677259633335
619,4046.390653027249
633,1346.0117866308842
659,0.06823820757257416
661,0.0
690,141.65548501297658
716,85.44000000000004
843,3876.48529871724
844,3876.48529871724
907,0.0
908,0.0
971,0.0
972,0.0
1195,2556.6674658404186
1197,2556.6674658404186
2,1, 1,20, 0, 8, 0.00,60.00,Monday
7,-5.6
718,19.65044481702428
719,-0.7349727656659996
720,16.529415577986875
619,3972.227313491793
633,1344.1883744376848
659,0.06823820757257416
661,0.0
690,141.65548501297658
716,85.44000000000004
843,3948.4075504011507
844,3948.4075504011507
907,0.0
908,0.0
971,0.0
972,0.0
1195,2850.1103207387
1197,2850.1103207387
2,1, 1,20, 0, 9, 0.00,60.00,Monday
7,-6.7
718,19.69816091846722
719,-1.0073108523578345
720,16.383407306077917
619,3820.980158622168
633,1325.0099239505294
659,6.123937725295563
661,0.0
690,141.65548501297658
716,16.680710535881804
843,3793.1427194705648
844,3793.1427194705648
907,0.0
908,0.0
971,0.0
972,0.0
1195,1875.6880195458698
1197,1875.6880195458698
2,1, 1,20, 0,10, 0.00,60.00,Monday
7,-6.7
718,19.717122941386876
719,-0.9758684428700145
720,16.26239922394405
619,3843.7087437974055
633,1334.186499845938
659,0.06823820757257416
661,0.0
690,141.65548501297658
716,0.0
843,3242.514490946349
844,3242.514490946349
907,0.0
908,0.0
971,0.0
972,0.0
1195,1013.0044924060858
1197,1013.0044924060858
2,1, 1,20, 0,11, 0.00,60.00,Monday
7,-6.7
718,19.74544787037021
719,0.3472305838795614
720,16.17202353548712
619,3404.4719072766625
633,1197.2961215136265
659,0.06121625354137152
661,20.5807106634051
690,127.07657653318631
716,0.0
843,2121.7789952426683
844,2121.7789952426683
907,0.0
908,0.0
971,0.0
972,0.0
1195,0.0
1197,0.0
2,1, 1,20, 0,12, 0.00,60.00,Monday
7,-6.7
718,19.716378134450284
719,0.9023057087417493
720,16.095521516815335
619,3203.6389104736936
633,1133.94690613254
659,0.05794986641026667
661,30.154195217878232
690,120.29600295520531
716,0.0
843,2045.5865110039504
844,2045.5865110039504
907,0.0
908,0.0
971,0.0
972,0.0
1195,0.0
1197,0.0
2,1, 1,20, 0,13, 0.00,60.00,Monday
7,-6.7
718,19.62660165040223
719,0.2073700327912979
720,16.034603414826304
619,3843.6662071904784
633,1334.2353358965156
659,0.06823820757257416
661,0.0
690,141.65548501297658
716,0.0
843,2623.0856010048865
844,2623.0856010048865
907,0.0
908,0.0
971,0.0
972,0.0
1195,171.18616725229822
1197,171.18616725229822
2,1, 1,20, 0,14, 0.00,60.00,Monday
7,-6.7
718,19.67297667381434
719,-0.9959413929554235
720,15.98729530493783
619,3845.7292814651328
633,1331.8666233781353
659,0.06823820757257416
661,0.0
690,141.65548501297658
716,81.1073359091341
843,2492.0422233543322
844,2492.0422233543322
907,0.0
908,0.0
971,0.0
972,0.0
1195,1056.1214808538443
1197,1056.1214808538443
2,1, 1,20, 0,15, 0.00,60.00,Monday
7,-6.1
718,19.706046078492633
719,-1.3521463008589545
720,15.94673889376659
619,3913.360413579166
633,1339.8421396362146
659,0.06823820757257416
661,0.0
690,141.65548501297658
716,0.0
843,2748.3783074965486
844,2748.3783074965486
907,0.0
908,0.0
971,0.0
972,0.0
1195,352.04775362331384
1197,352.04775362331384
2,1, 1,20, 0,16, 0.00,60.00,Monday
7,-6.7
718,19.77275219305838
719,-0.8842339996705192
720,15.901256059107451
619,2939.3030104450904
633,1047.2182801617355
659,0.053567549181877706
661,42.998369718587945
690,111.19891180521044
716,0.0
843,1809.3957634373746
844,1809.3957634373746
907,0.0
908,0.0
971,0.0
972,0.0
1195,0.0
1197,0.0
2,1, 1,20, 0,17, 0.00,60.00,Monday
7,-7.2
718,19.896152140650397
719,-1.527869930933739
720,15.856996420842107
619,2559.5934847064577
633,932.5018792738314
659,0.04784275365046974
661,59.777226417950715
690,99.31493534378349
716,0.0
843,1586.3242073607908
844,1586.3242073607908
907,0.0
908,0.0
971,0.0
972,0.0
1195,0.0
1197,0.0
2,1, 1,20, 0,18, 0.00,60.00,Monday
7,-8.3
718,19.71985457437593
719,-2.20557547171852
720,15.804052380702283
619,2987.117179080292
633,1099.7160595405185
659,0.05684108574009793
661,33.40393084139828
690,117.99400022513372
716,0.0
843,1811.8462763615807
844,1811.8462763615807
907,0.0
908,0.0
971,0.0
972,0.0
1195,0.0
1197,0.0
2,1, 1,20, 0,19, 0.00,60.00,Monday
7,-8.9
718,19.641563227673927
719,-3.5690637005902954
720,15.729086349516338
619,3598.1693793876475
633,1308.6139844025195
659,0.06823820757257416
661,0.0
690,141.65548501297658
716,85.44000000000004
843,2066.9066724440345
844,2066.9066724440345
907,0.0
908,0.0
971,0.0
972,0.0
1195,1072.4553610271605
1197,1072.4553610271605
2,1, 1,20, 0,20, 0.00,60.00,Monday
7,-8.9
718,19.67925542621723
719,-4.347012061935511
720,15.64919928648158
619,3599.992700884426
633,1306.5752607655322
659,0.06823820757257416
661,0.0
690,141.65548501297658
716,85.44000000000004
843,2368.5853435495483
844,2368.5853435495483
907,0.0
908,0.0
971,0.0
972,0.0
1195,1536.5872480886283
1197,1536.5872480886283
2,1, 1,20, 0,21, 0.00,60.00,Monday
7,-9.4
718,19.69169987256557
719,-4.456112926720516
720,15.558988026271768
619,3544.6838929122296
633,1301.5735380288609
659,0.06823820757257416
661,0.0
690,141.65548501297658
716,65.86889016395345
843,2570.6019257802545
844,2570.6019257802545
907,0.0
908,0.0
971,0.0
972,0.0
1195,1582.3779341230054
1197,1582.3779341230054
2,1, 1,20, 0,22, 0.00,60.00,Monday
7,-9.4
718,19.710603415440364
719,-5.184576334758859
720,15.460174221021283
619,3544.5263933141564
633,1301.7484260210126
659,0.06823820757257416
661,0.0
690,141.65548501297658
716,0.0
843,2962.424585052737
844,2962.424585052737
907,0.0
908,0.0
971,0.0
972,0.0
1195,1169.5174560371381
1197,1169.5174560371381
2,1, 1,20, 0,23, 0.00,60.00,Monday
7,-9.4
718,18.959504368800008
719,-5.563672718286141
720,15.354270721429344
619,3544.2378098607082
633,1302.0688560415774
659,0.06823820757257416
661,0.0
690,141.65548501297658
716,0.0
843,2367.4927587739094
844,2367.4927587739094
907,0.0
908,0.0
971,0.0
972,0.0
1195,507.57383997210536
1197,507.57383997210536
2,1, 1,20, 0,24, 0.00,60.00,Monday
7,-9.4
718,18.722037445874857
719,-5.833226815703237
720,15.208143151231525
619,3560.787029241552
633,1283.6657533772586
659,0.06823820757257416
661,0.0
690,141.65548501297658
716,0.0
843,2962.496475949765
844,2962.496475949765
907,0.0
908,0.0
971,0.0
972,0.0
1195,1160.3606692894427
1197,1160.3606692894427
2,2, 1,21, 0, 1, 0.00,60.00,Tuesday
7,-9.4
718,18.642322817667537
719,-5.240117037368568
720,15.087455289929594
619,3566.105434302066
633,1277.7404388151272
659,0.06823820757257416
661,0.0
690,141.65548501297658
716,0.0
843,3363.1384692620613
844,3363.1384692620613
907,0.0
908,0.0
971,0.0
972,0.0
1195,1638.1558516118218
1197,1638.1558516118218
2,2, 1,21, 0, 2, 0.00,60.00,Tuesday
7,-9.4
718,18.615030758097287
719,-5.080671581152725
720,14.961694090880982
619,3567.974417797653
633,1275.6569944115397
659,0.06823820757257416
661,0.0
690,141.65548501297658
716,0.0
843,3721.6221023129365
844,3721.6221023129365
907,0.0
908,0.0
971,0.0
972,0.0
1195,2021.1920864134709
1197,2021.1920864134709
2,2, 1,21, 0, 3, 0.00,60.00,Tuesday
7,-10.0
718,18.608572085898242
719,-5.203627268036447
720,14.835439034196447
619,3503.770530640296
633,1268.105911158188
659,0.06823820757257416
661,0.0
690,141.65548501297658
716,0.0
843,4017.8393802627816
844,4017.8393802627816
907,0.0
908,0.0
971,0.0
972,0.0
1195,2440.2925243391837
1197,2440.2925243391837
2,2, 1,21, 0, 4, 0.00,60.00,Tuesday
7,-11.1
718,18.60276017081233
719,-5.264079788043696
720,14.707977263093044
619,3386.76225649005
633,1255.3244725775282
659,0.06823820757257416
661,0.0
690,141.65548501297658
716,0.0
843,4356.676524451221
844,4356.676524451221
907,0.0
908,0.0
971,0.0
972,0.0
1195,2962.6198738354683
1197,2962.6198738354683
2,2, 1,21, 0, 5, 0.00,60.00,Tuesday
7,-11.1
718,18.605473813559275
719,-6.343414101073857
720,14.589230106816245
619,3387.0437144342977
633,1255.0180471304475
659,0.06823820757257416
661,0.0
690,141.65548501297658
716,0.0
843,4417.657531577299
844,4417.657531577299
907,0.0
908,0.0
971,0.0
972,0.0
1195,3054.5546354692083
1197,3054.5546354692083
2,2, 1,21, 0, 6, 0.00,60.00,Tuesday
7,-11.1
718,19.386273902575773
719,-5.979007618512498
720,14.473222677315464
619,3387.1217958115108
633,1254.9330354982826
659,0.06823820757257416
661,0.0
690,141.65548501297658
716,0.0
843,5437.6607007146395
844,5437.6607007146395
907,0.0
908,0.0
971,0.0
972,0.0
1195,4324.185968067655
1197,4324.185968067655
2,2, 1,21, 0, 7, 0.00,60.00,Tuesday
7,-11.1
718,19.574992023545438
719,-6.398669692969781
720,14.389599425476
619,3370.479538806253
633,1273.0134202780564
659,0.06823820757257416
661,0.0
690,141.65548501297658
716,85.44000000000004
843,5333.37488060836
844,5333.37488060836
907,0.0
908,0.0
971,0.0
972,0.0
1195,5350.086286836822
1197,5350.086286836822
2,2, 1,21, 0, 8, 0.00,60.00,Tuesday
7,-11.1
718,19.656778266640053
719,-6.199105851758134
720,14.281550494348297
619,3366.4916971481825
633,1277.333727575357
659,0.06823820757257416
661,0.0
690,141.65548501297658
716,85.44000000000004
843,4780.993258788956
844,4780.993258788956
907,0.0
908,0.0
971,0.0
972,0.0
1195,4838.087839384276
1197,4838.087839384276
2,2, 1,21, 0, 9, 0.00,60.00,Tuesday
7,-10.0
718,19.68466917925541
719,-5.315384660525289
720,14.188435624689872
619,3482.023781820497
633,1292.109087234763
659,0.06823820757257416
661,0.0
690,141.65548501297658
716,85.44000000000004
843,3984.226582161191
844,3984.226582161191
907,0.0
908,0.0
971,0.0
972,0.0
1195,3784.0309780562525
1197,3784.0309780562525
2,2, 1,21, 0,10, 0.00,60.00,Tuesday
7,-8.9
718,19.70844383476599
719,-3.8049035646539044
720,14.106387282341728
619,3600.987691944809
633,1305.4624665020347
659,0.06823820757257416
661,0.0
690,141.65548501297658
716,28.435653844118278
843,3089.166850957039
844,3089.166850957039
907,0.0
908,0.0
971,0.0
972,0.0
1195,1708.5077474604936
1197,1708.5077474604936
2,2, 1,21, 0,11, 0.00,60.00,Tuesday
7,-8.3
718,19.727210166804014
719,-0.6750230275455511
720,14.049619150907777
619,3666.656207861519
633,1312.8940455184381
659,0.06823820757257416
661,0.0
690,141.65548501297658
716,0.0
843,2149.7341677916465
844,2149.7341677916465
907,0.0
908,0.0
971,0.0
972,0.0
1195,86.03722810363297
1197,86.03722810363297
2,2, 1,21, 0,12, 0.00,60.00,Tuesday
7,-7.2
718,19.825958524298983
719,3.4100811618530043
720,13.98968402505867
619,2499.264607045829
633,908.8473539265896
659,0.046762303134354685
661,62.94392892831766
690,97.07207104783716
716,0.0
843,1518.6062614325383
844,1518.6062614325383
907,0.0
908,0.0
971,0.0
972,0.0
1195,0.0
1197,0.0
2,2, 1,21, 0,13, 0.00,60.00,Tuesday
7,-6.7
718,19.72673467872995
719,0.8496835368423432
720,13.963266876630527
619,1946.9671339307788
633,714.8287911755685
659,0.03655188677804392
661,92.86973360439026
690,75.87672180350081
716,0.0
843,1285.8750482270843
844,1285.8750482270843
907,0.0
908,0.0
971,0.0
972,0.0
1195,0.0
1197,0.0
2,2, 1,21, 0,14, 0.00,60.00,Tuesday
7,-6.1
718,19.450237787086213
719,-0.10848039240086603
720,13.967461234548793
619,2129.315762666479
633,766.6935892116016
659,0.039080963506003416
661,85.4572389978468
690,81.12681877766427
716,0.0
843,1363.6060049573898
844,1363.6060049573898
907,0.0
908,0.0
971,0.0
972,0.0
1195,0.0
1197,0.0
2,2, 1,21, 0,15, 0.00,60.00,Tuesday
7,-6.1
718,19.844746397203355
719,0.6920978012600655
720,13.966404989102962
619,1751.1734264688184
633,633.4296067661375
659,0.032456906735772784
661,104.87174886223815
690,67.37617029268515
716,0.0
843,1106.230198114199
844,1106.230198114199
907,0.0
908,0.0
971,0.0
972,0.0
1195,0.0
1197,0.0
2,2, 1,21, 0,16, 0.00,60.00,Tuesday
7,-6.1
718,20.063397967340716
719,0.7080228233957037
720,13.979912352930187
619,1070.0901386219198
633,399.073215428952
659,0.020290400899666973
661,140.53067446683065
690,42.12014009248527
716,0.0
843,673.4063825673966
844,673.4063825673966
907,0.0
908,0.0
971,0.0
972,0.0
1195,0.0
1197,0.0
2,2, 1,21, 0,17, 0.00,60.00,Tuesday
7,-6.7
718,19.73751061290624
719,-0.46502194709213857
720,14.011882592898736
619,1170.5722810938566
633,442.8157714866003
659,0.02253597042978273
661,133.94911375473987
690,46.78159377992801
716,0.0
843,738.0020718014621
844,738.0020718014621
907,0.0
908,0.0
971,0.0
972,0.0
1195,0.0
1197,0.0
2,2, 1,21, 0,18, 0.00,60.00,Tuesday
7,-7.2
718,19.649698375386574
719,-1.518523548120349
720,14.05182226487074
619,2233.132815281461
633,818.8619380790601
659,0.04212349228379283
661,76.53986298220758
690,87.44254147469184
716,0.0
843,1357.2605170155166
844,1357.2605170155166
907,0.0
908,0.0
971,0.0
972,0.0
1195,0.0
1197,0.0
2,2, 1,21, 0,19, 0.00,60.00,Tuesday
7,-7.8
718,19.39013256091027
719,-2.610730905249029
720,14.078994371702267
619,3723.6192975499976
633,1317.1139147868917
659,0.06823820757257416
661,0.0
690,141.65548501297658
716,85.44000000000004
843,1602.2873383102196
844,1602.2873383102196
907,0.0
908,0.0
971,0.0
972,0.0
1195,358.52873469179394
1197,358.52873469179394
2,2, 1,21, 0,20, 0.00,60.00,Tuesday
7,-8.9
718,19.541839796199234
719,-3.3157441384892947
720,14.034945721757596
619,3607.547897497828
633,1298.121149875038
659,0.06823820757257416
661,0.0
690,141.65548501297658
716,85.44000000000004
843,2139.7104229454126
844,2139.7104229454126
907,0.0
908,0.0
971,0.0
972,0.0
1195,1250.359392684038
1197,1250.359392684038
2,2, 1,21, 0,21, 0.00,60.00,Tuesday
7,-10.6
718,19.617108617639428
719,-4.100900523256723
720,13.994257343503847
619,3418.2155300267555
633,1281.099696789678
659,0.7614466507373331
661,0.0
690,141.65548501297658
716,85.44000000000004
843,2707.124813711065
844,2707.124813711065
907,0.0
908,0.0
971,0.0
972,0.0
1195,2184.19307154905
1197,2184.19307154905
2,2, 1,21, 0,22, 0.00,60.00,Tuesday
7,-10.6
718,19.677089300152918
719,-4.739038572034328
720,13.942966216082386
619,3419.0234638303964
633,1283.7416821774273
659,0.06823820757257416
661,0.0
690,141.65548501297658
716,44.624605161189166
843,2889.52532834924
844,2889.52532834924
907,0.0
908,0.0
971,0.0
972,0.0
1195,1783.6062761686858
1197,1783.6062761686858
2,2, 1,21, 0,23, 0.00,60.00,Tuesday
7,-11.1
718,18.954175658587122
719,-5.652239533815344
720,13.873213192379279
619,3357.0270411931765
633,1276.1902121291805
659,2.3516204507294045
661,0.0
690,141.65548501297658
716,0.0
843,2458.146771435413
844,2458.146771435413
907,0.0
908,0.0
971,0.0
972,0.0
1195,816.8674592923032
1197,816.8674592923032
2,2, 1,21, 0,24, 0.00,60.00,Tuesday
7,-11.7
718,18.719818555252832
719,-6.169887229588791
720,13.757908724342983
619,3302.2246560752014
633,1249.373896984386
659,4.614748759146489
661,0.0
690,141.65548501297658
716,0.0
843,2987.631227883596
844,2987.631227883596
907,0.0
908,0.0
971,0.0
972,0.0
1195,1490.6535578353069
1197,1490.6535578353069
2,3, 1,22, 0, 1, 0.00,60.00,Wednesday
7,-12.8
718,18.638413902991037
719,-6.91590003497632
720,13.6578598390174
619,3178.729018340925
633,1225.146827908202
659,9.345160267408893
661,0.0
690,141.65548501297658
716,0.0
843,3694.779306920338
844,3694.779306920338
907,0.0
908,0.0
971,0.0
972,0.0
1195,2479.4147881848808
1197,2479.4147881848808
2,3, 1,22, 0, 2, 0.00,60.00,Wednesday
7,-12.8
718,18.611593173634247
719,-6.693528093431801
720,13.56145911769234
619,3180.536546643396
633,1223.208760678942
659,9.350501063366751
661,0.0
690,141.65548501297658
716,0.0
843,4045.9764582679873
844,4045.9764582679873
907,0.0
908,0.0
971,0.0
972,0.0
1195,2924.770950611028
1197,2924.770950611028
2,3, 1,22, 0, 3, 0.00,60.00,Wednesday
7,-12.8
718,18.60681584325563
719,-6.204447031063268
720,13.463255118694374
619,3162.5302246362344
633,1215.3146219772552
659,15.090525162553227
661,0.0
690,141.65548501297658
716,0.0
843,4309.221445687663
844,4309.221445687663
907,0.0
908,0.0
971,0.0
972,0.0
1195,3257.997187296619
1197,3257.997187296619
2,3, 1,22, 0, 4, 0.00,60.00,Wednesday
7,-11.7
718,18.6010023993821
719,-5.959523298236806
720,13.372611649142554
619,3300.790541557224
633,1237.3928527803491
659,7.377847488856105
661,0.0
690,141.65548501297658
716,0.0
843,4654.1557581913185
844,4654.1557581913185
907,0.0
908,0.0
971,0.0
972,0.0
1195,3497.6311574276133
1197,3497.6311574276133
2,3, 1,22, 0, 5, 0.00,60.00,Wednesday
7,-11.7
718,18.606238318409048
719,-5.278288058023368
720,13.275876775347337
619,3310.2623645764133
633,1240.6196197632637
659,4.633483786844621
661,0.0
690,141.65548501297658
716,0.0
843,4507.481117944422
844,4507.481117944422
907,0.0
908,0.0
971,0.0
972,0.0
1195,3311.3704141033727
1197,3311.3704141033727
2,3, 1,22, 0, 6, 0.00,60.00,Wednesday
7,-12.2
718,19.07170084248855
719,-5.377413080009475
720,13.177522548327264
619,3231.175975093092
633,1224.5140475418423
659,12.871845099104078
661,0.0
690,141.65548501297658
716,80.65428343907058
843,5745.927858967476
844,5745.927858967476
907,0.0
908,0.0
971,0.0
972,0.0
1195,5350.086286836822
1197,5350.086286836822
2,3, 1,22, 0, 7, 0.00,60.00,Wednesday
7,-10.6
718,19.36079030479905
719,-5.3282632529370035
720,13.117963410930582
619,3422.2950181794467
633,1266.1938172629161
659,2.8137729638171884
661,0.0
690,141.65548501297658
716,85.44000000000004
843,5522.626821656653
844,5522.626821656653
907,0.0
908,0.0
971,0.0
972,0.0
1195,5350.086286836822
1197,5350.086286836822
2,3, 1,22, 0, 8, 0.00,60.00,Wednesday
7,-11.1
718,19.574745008950575
719,-4.771456220828268
720,13.03277668931237
619,3344.8502383999344
633,1260.1517263498893
659,8.208439782236246
661,0.0
690,141.65548501297658
716,79.84609703423936
843,5211.902493569498
844,5211.902493569498
907,0.0
908,0.0
971,0.0
972,0.0
1195,5231.780935517214
1197,5231.780935517214
2,3, 1,22, 0, 9, 0.00,60.00,Wednesday
7,-7.8
718,19.68456959400486
719,-3.1688030388609056
720,12.980323529134033
619,3726.574533610227
633,1313.7612579427669
659,0.06823820757257416
661,0.0
690,141.65548501297658
716,0.0
843,4879.432173370247
844,4879.432173370247
907,0.0
908,0.0
971,0.0
972,0.0
1195,3372.581735623675
1197,3372.581735623675
2,3, 1,22, 0,10, 0.00,60.00,Wednesday
7,-6.7
718,19.710742982735123
719,-0.6843202965047689
720,12.912923460196946
619,3848.2433451904085
633,1328.9798286678101
659,0.06823820757257416
661,0.0
690,141.65548501297658
716,0.0
843,3755.7994198406104
844,3755.7994198406104
907,0.0
908,0.0
971,0.0
972,0.0
1195,1814.0790604741305
1197,1814.0790604741305
2,3, 1,22, 0,11, 0.00,60.00,Wednesday
7,-5.0
718,19.72415468885632
719,1.7488802945138344
720,12.871411518016172
619,4043.9029090617655
633,1348.9134315276174
659,0.06823820757257416
661,0.0
690,141.65548501297658
716,0.0
843,3059.816363506259
844,3059.816363506259
907,0.0
908,0.0
971,0.0
972,0.0
1195,656.9372372796684
1197,656.9372372796684
2,3, 1,22, 0,12, 0.00,60.00,Wednesday
7,-1.1
718,19.756382223024065
719,4.162464919524373
720,12.838588126315432
619,3889.1505477515234
633,1220.1308626972163
659,0.05969904738471915
661,25.02750436043697
690,123.92804839324842
716,0.0
843,2583.7238347771217
844,2583.7238347771217
907,0.0
908,0.0
971,0.0
972,0.0
1195,0.0
1197,0.0
2,3, 1,22, 0,13, 0.00,60.00,Wednesday
7,0.6
718,19.78306785577433
719,5.559085501480195
720,12.807366046925033
619,3188.4669056859875
633,990.9215974611266
659,7.279647744960706
661,58.62446519658639
690,100.03766904558908
716,0.0
843,2211.322197257705
844,2211.322197257705
907,0.0
908,0.0
971,0.0
972,0.0
1195,0.0
1197,0.0
2,3, 1,22, 0,14, 0.00,60.00,Wednesday
7,2.2
718,20.029258110921614
719,7.511883565383172
720,12.755606469299961
619,1659.4976701672858
633,522.064133471424
659,3.1803418124276397
661,126.76645243984916
690,51.83940620135211
716,0.0
843,1185.2790450628581
844,1185.2790450628581
907,0.0
908,0.0
971,0.0
972,0.0
1195,0.0
1197,0.0
2,3, 1,22, 0,15, 0.00,60.00,Wednesday
7,2.8
718,19.627064208908358
719,7.3067456981335335
720,12.846543183575621
619,2674.0400185971475
633,817.93068229237
659,1.5957653009589468
661,87.08896162574304
690,79.95923781191715
716,72.46986072951398
843,1166.4053423746263
844,1166.4053423746263
907,0.0
908,0.0
971,0.0
972,0.0
1195,0.0
1197,0.0
2,3, 1,22, 0,16, 0.00,60.00,Wednesday
7,2.0
718,19.72050769529361
719,7.100737202295631
720,12.889009151278382
619,3048.3079924198887
633,926.5556912286518
659,36.81387587417181
661,63.05372225947925
690,96.61367087478357
716,83.73995809116853
843,1298.0841287811963
844,1298.0841287811963
907,0.0
908,0.0
971,0.0
972,0.0
1195,0.0
1197,0.0
2,3, 1,22, 0,17, 0.00,60.00,Wednesday
7,1.0
718,19.74810178888457
719,5.041710866401766
720,12.86127918320253
619,1629.7584909473794
633,523.9117713192012
659,24.65153304802569
661,121.2757215654962
690,55.44275201366924
716,0.0
843,1175.7306541868384
844,1175.7306541868384
907,0.0
908,0.0
971,0.0
972,0.0
1195,0.0
1197,0.0
2,3, 1,22, 0,18, 0.00,60.00,Wednesday
7,0.0
718,19.8712746317382
719,4.802587480654964
720,12.916737066743961
619,1759.7390777621802
633,574.9976593275178
659,37.029261319086
661,110.89961168327713
690,62.53109116966786
716,0.0
843,1228.1073139779019
844,1228.1073139779019
907,0.0
908,0.0
971,0.0
972,0.0
1195,0.0
1197,0.0
2,3, 1,22, 0,19, 0.00,60.00,Wednesday
7,0.0
718,19.72984232713314
719,3.3646807787422794
720,12.929559861544424
619,1580.2472075433132
633,520.185636345171
659,28.623030518254094
661,120.5658811585604
690,55.820141002728434
716,0.0
843,1096.4288660513248
844,1096.4288660513248
907,0.0
908,0.0
971,0.0
972,0.0
1195,0.0
1197,0.0
2,3, 1,22, 0,20, 0.00,60.00,Wednesday
7,0.0
718,19.69889897922463
719,3.302402418104231
720,13.03427702231964
619,3282.508035470193
633,1028.1075422830731
659,56.74344131536797
661,42.52662351589014
690,110.66075071219376
716,85.44000000000004
843,1112.5643393641221
844,1112.5643393641221
907,0.0
908,0.0
971,0.0
972,0.0
1195,0.0
1197,0.0
2,3, 1,22, 0,21, 0.00,60.00,Wednesday
7,-1.1
718,19.650974586590415
719,2.331490908495202
720,13.03921332307613
619,3686.7421860884347
633,1163.4411590070065
659,60.17033726720348
661,20.935232526879723
690,125.73369891308262
716,85.44000000000004
843,1422.466787528876
844,1422.466787528876
907,0.0
908,0.0
971,0.0
972,0.0
1195,0.0
1197,0.0
2,3, 1,22, 0,22, 0.00,60.00,Wednesday
7,-0.6
718,19.735522131060005
719,1.820940940442349
720,12.997501704387613
619,2973.145073313187
633,946.9887717888207
659,46.30084093591573
661,55.26872216006651
690,101.73163109459156
716,26.25407801720084
843,1687.1869912024831
844,1687.1869912024831
907,0.0
908,0.0
971,0.0
972,0.0
1195,0.0
1197,0.0
2,3, 1,22, 0,23, 0.00,60.00,Wednesday
7,-1.1
718,18.902380319820477
719,0.5637571848665182
720,12.910357728227476
619,1461.6104111692
633,490.7985736802053
659,22.866486562581738
661,125.04760338099987
690,52.6737157467764
716,0.0
843,956.5594835963566
844,956.5594835963566
907,0.0
908,0.0
971,0.0
972,0.0
1195,0.0
1197,0.0
2,3, 1,22, 0,24, 0.00,60.00,Wednesday
7,-0.6
718,18.602691856995975
719,0.6182508366974038
720,12.902222384881085
619,2047.671574888651
633,656.5068924464878
659,29.048273720018805
661,98.90116703928325
690,71.12256635755699
716,0.0
843,1366.8688730518625
844,1366.8688730518625
907,0.0
908,0.0
971,0.0
972,0.0
1195,0.0
1197,0.0
2,4, 1,23, 0, 1, 0.00,60.00,Thursday
7,-0.6
718,18.53461637861382
719,0.9141320937893733
720,12.886224036855664
619,2893.4120304525704
633,899.8763194184579
659,33.533638448014045
661,61.91055360311957
690,97.25304936179933
716,0.0
843,1949.289700922429
844,1949.289700922429
907,0.0
908,0.0
971,0.0
972,0.0
1195,0.0
1197,0.0
2,4, 1,23, 0, 2, 0.00,60.00,Thursday
7,-2.2
718,18.58655907442132
719,1.2654453561898384
720,12.858496020719535
619,3414.5415201528426
633,1075.586183227471
659,51.488697210253115
661,30.230194238489716
690,119.16616039987642
716,0.0
843,2277.5485642308668
844,2277.5485642308668
907,0.0
908,0.0
971,0.0
972,0.0
1195,0.0
1197,0.0
2,4, 1,23, 0, 3, 0.00,60.00,Thursday
7,-0.6
718,18.613912724374437
719,0.9761110126160377
720,12.822426873327629
619,3529.6103891473585
633,1079.1033469133165
659,40.18665780517454
661,34.34098173010662
690,116.67042924722958
716,0.0
843,2392.8771737735497
844,2392.8771737735497
907,0.0
908,0.0
971,0.0
972,0.0
1195,0.0
1197,0.0
2,4, 1,23, 0, 4, 0.00,60.00,Thursday
7,-1.1
718,18.614957347144234
719,0.8209660314677425
720,12.784736757071311
619,3763.719592715229
633,1153.773140370257
659,26.714163059034178
661,25.51876578850678
690,123.11435401944115
716,0.0
843,2536.3501739872827
844,2536.3501739872827
907,0.0
908,0.0
971,0.0
972,0.0
1195,0.0
1197,0.0
2,4, 1,23, 0, 5, 0.00,60.00,Thursday
7,-1.1
718,18.576588627492377
719,0.40199216517932446
720,12.746031705577023
619,4107.270969722197
633,1247.8016443345346
659,0.06239496435948781
661,17.12601611603535
690,129.52445399999507
716,0.0
843,2786.508753035485
844,2786.508753035485
907,0.0
908,0.0
971,0.0
972,0.0
1195,0.0
1197,0.0
2,4, 1,23, 0, 6, 0.00,60.00,Thursday
7,-2.2
718,19.3552667689548
719,0.3211002738617174
720,12.707686528091884
619,4404.667756635912
633,1350.7185773512804
659,0.06823820757257416
661,0.0
690,141.65548501297658
716,0.0
843,3896.1906674669317
844,3896.1906674669317
907,0.0
908,0.0
971,0.0
972,0.0
1195,1131.4811059072026
1197,1131.4811059072026
2,4, 1,23, 0, 7, 0.00,60.00,Thursday
7,-2.8
718,19.569138065881326
719,0.4390291999030193
720,12.699009593165872
619,4314.1098189977865
633,1364.4583054740033
659,0.06823820757257416
661,0.0
690,141.65548501297658
716,85.44000000000004
843,3617.603313195883
844,3617.603313195883
907,0.0
908,0.0
971,0.0
972,0.0
1195,2247.093681309024
1197,2247.093681309024
2,4, 1,23, 0, 8, 0.00,60.00,Thursday
7,-3.3
718,19.64784634022993
719,0.2752984831219405
720,12.657435512580962
619,4248.937756165275
633,1364.3845163747433
659,0.06823820757257416
661,0.0
690,141.65548501297658
716,85.44000000000004
843,3116.355809579656
844,3116.355809579656
907,0.0
908,0.0
971,0.0
972,0.0
1195,1767.6301657421327
1197,1767.6301657421327
2,4, 1,23, 0, 9, 0.00,60.00,Thursday
7,-2.8
718,19.694208324847295
719,1.3386875527277504
720,12.628428077633885
619,4307.561759939798
633,1372.2018175983164
659,0.06823820757257416
661,0.0
690,141.65548501297658
716,71.89792218328715
843,2313.249312381866
844,2313.249312381866
907,0.0
908,0.0
971,0.0
972,0.0
1195,444.03574858064576
1197,444.03574858064576
2,4, 1,23, 0,10, 0.00,60.00,Thursday
7,-1.7
718,19.79838302968905
719,2.3947679328281146
720,12.507967385036375
619,2339.360696959529
633,770.6843194428674
659,0.037923070851862084
661,88.8509173939561
690,78.72367965672315
716,0.0