Program Version,EnergyPlus, Version 22.2.0-c249759bad, YMD=2023.09.01 14:30
1,5,Environment Title[],Latitude[deg],Longitude[deg],Time Zone[],Elevation[m]
2,8,Day of Simulation[],Month[],Day of Month[],DST Indicator[1=yes 0=no],Hour[],StartMinute[],EndMinute[],DayType
3,5,Cumulative Day of Simulation[],Month[],Day of Month[],DST Indicator[1=yes 0=no],DayType  ! When Daily Report Variables Requested
4,2,Cumulative Days of Simulation[],Month[]  ! When Monthly Report Variables Requested
5,1,Cumulative Days of Simulation[] ! When Run Period Report Variables Requested
6,1,Calendar Year of Simulation[] ! When Annual Report Variables Requested
7,1,Environment,Site Outdoor Air Drybulb Temperature [C] !Hourly
619,1,DX_HEATING_COIL,Heating Coil Heating Rate [W] !Hourly
633,1,DX_HEATING_COIL,Heating Coil Electricity Rate [W] !Hourly
659,1,DX_HEATING_COIL,Heating Coil Defrost Electricity Rate [W] !Hourly
661,1,DX_HEATING_COIL,Heating Coil Crankcase Heater Electricity Rate [W] !Hourly
690,1,FAN,Fan Electricity Rate [W] !Hourly
716,1,HEAT PUMP WATER HEATER FAN,Fan Electricity Rate [W] !Hourly
718,1,LIVING,Zone Mean Air Temperature [C] !Hourly
719,1,ATTIC,Zone Mean Air Temperature [C] !Hourly
720,1,CRAWLSPACE,Zone Mean Air Temperature [C] !Hourly
843,1,LIVING,Zone Predicted Sensible Load to Heating Setpoint Heat Transfer Rate [W] !Hourly
844,1,LIVING,Zone System Predicted Sensible Load to Heating Setpoint Heat Transfer Rate [W] !Hourly
907,1,ATTIC,Zone Predicted Sensible Load to Heating Setpoint Heat Transfer Rate [W] !Hourly
908,1,ATTIC,Zone System Predicted Sensible Load to Heating Setpoint Heat Transfer Rate [W] !Hourly
971,1,CRAWLSPACE,Zone Predicted Sensible Load to Heating Setpoint Heat Transfer Rate [W] !Hourly
972,1,CRAWLSPACE,Zone System Predicted Sensible Load to Heating Setpoint Heat Transfer Rate [W] !Hourly
1195,1,HEATING_RESISTANCE_BACKUP,Heating Coil Heating Rate [W] !Hourly
1197,1,HEATING_RESISTANCE_BACKUP,Heating Coil Electricity Rate [W] !Hourly
End of Data Dictionary
1,EXTREME_WINTER,  37.43,-105.87,  -7.00,2299.00
2,1, 1,27, 0, 1, 0.00,60.00,Monday
7,-20.6
718,18.633630755767346
719,-12.303683930001155
720,16.34666404660534
619,3045.116390874338
633,1409.4773819749332
659,2.103198397992797
661,0.0
690,175.41815885345812
716,0.0
843,4249.554107862346
844,4249.554107862346
907,0.0
908,0.0
971,0.0
972,0.0
1195,3405.616560668123
1197,3405.616560668123
2,1, 1,27, 0, 2, 0.00,60.00,Monday
7,-22.2
718,18.607947478898758
719,-12.545128744809212
720,15.703018498266168
619,2871.1801514128424
633,1376.2632066305898
659,4.427561328984285
661,0.0
690,175.41815885345812
716,0.0
843,4836.31055105232
844,4836.31055105232
907,0.0
908,0.0
971,0.0
972,0.0
1195,4347.220137539842
1197,4347.220137539842
2,1, 1,27, 0, 3, 0.00,60.00,Monday
7,-25.6
718,18.590779007933385
719,-13.780803640222688
720,15.355416715346086
619,2528.8844482187833
633,1308.7684942621565
659,5.512239886411916
661,0.0
690,175.41815885345812
716,0.0
843,5854.573630406128
844,5854.573630406128
907,0.0
908,0.0
971,0.0
972,0.0
1195,5924.429920355299
1197,5924.429920355299
2,1, 1,27, 0, 4, 0.00,60.00,Monday
7,-24.4
718,18.595477494857512
719,-14.508442590367943
720,14.996648183761186
619,2657.532461285093
633,1336.8729234700122
659,0.7367808794923932
661,0.0
690,175.41815885345812
716,0.0
843,6068.689841114558
844,6068.689841114558
907,0.0
908,0.0
971,0.0
972,0.0
1195,6157.901957315992
1197,6157.901957315992
2,1, 1,27, 0, 5, 0.00,60.00,Monday
7,-23.0
718,18.593115451128636
719,-14.208226536041057
720,14.68330943793093
619,2797.736634806469
633,1362.3579471267756
659,1.5638943264360847
661,0.0
690,175.41815885345812
716,0.0
843,5902.918096508714
844,5902.918096508714
907,0.0
908,0.0
971,0.0
972,0.0
1195,5838.064687429933
1197,5838.064687429933
2,1, 1,27, 0, 6, 0.00,60.00,Monday
7,-23.3
718,19.393311648407423
719,-14.008943484037081
720,14.370822982246859
619,2763.241344408339
633,1354.2463195340454
659,3.4380797482175858
661,0.0
690,175.41815885345812
716,0.0
843,7140.147291609654
844,7140.147291609654
907,0.0
908,0.0
971,0.0
972,0.0
1195,7387.980344301888
1197,7387.980344301888
2,1, 1,27, 0, 7, 0.00,60.00,Monday
7,-25.0
718,19.02326091144942
719,-14.480094789461022
720,14.100252273977807
619,2575.8502240422695
633,1336.561475284666
659,2.6115959353857856
661,0.0
690,175.41815885345812
716,85.44000000000005
843,7361.956158909705
844,7361.956158909705
907,0.0
908,0.0
971,0.0
972,0.0
1195,7635.025853320541
1197,7635.025853320541
2,1, 1,27, 0, 8, 0.00,60.00,Monday
7,-22.2
718,19.405850693685007
719,-13.491167394773981
720,13.828294042391782
619,2864.659080723822
633,1381.7232855340778
659,4.3960112715145465
661,0.0
690,175.41815885345812
716,85.44000000000005
843,6601.403334922314
844,6601.403334922314
907,0.0
908,0.0
971,0.0
972,0.0
1195,7635.025853320541
1197,7635.025853320541
2,1, 1,27, 0, 9, 0.00,60.00,Monday
7,-18.3
718,19.612827000505593
719,-10.399220848003866
720,13.61276432731467
619,3287.2305817233096
633,1462.8467090812
659,1.7246974613651402
661,0.0
690,175.41815885345812
716,52.34459220910496
843,5103.967094683869
844,5103.967094683869
907,0.0
908,0.0
971,0.0
972,0.0
1195,5007.060027851518
1197,5007.060027851518
2,1, 1,27, 0,10, 0.00,60.00,Monday
7,-14.4
718,19.704100889987906
719,-5.278015311461828
720,13.412215332851867
619,3748.140100166577
633,1534.0638836994742
659,0.0845023454950898
661,0.0
690,175.41815885345812
716,0.0
843,3501.1617227852857
844,3501.1617227852857
907,0.0
908,0.0
971,0.0
972,0.0
1195,1904.7210048710517
1197,1904.7210048710517
2,1, 1,27, 0,11, 0.00,60.00,Monday
7,-9.0
718,19.76038983642483
719,0.06275140634170467
720,13.253125608200541
619,3881.358516439712
633,1432.8982418241637
659,0.07485445684702755
661,22.834605575824774
690,155.38699936244095
716,0.0
843,2365.0848173087525
844,2365.0848173087525
907,0.0
908,0.0
971,0.0
972,0.0
1195,0.0
1197,0.0
2,1, 1,27, 0,12, 0.00,60.00,Monday
7,-9.4
718,19.791992955705282
719,3.8665940143621675
720,13.093557307154077
619,2947.098627153818
633,1124.3148272881256
659,0.0588821715241456
661,60.637781876558485
690,122.23075797280903
716,0.0
843,1939.3796557326532
844,1939.3796557326532
907,0.0
908,0.0
971,0.0
972,0.0
1195,0.0
1197,0.0
2,1, 1,27, 0,13, 0.00,60.00,Monday
7,-7.2
718,19.89451642888694
719,9.613364708531213
720,12.974475105731596
619,1732.5951418121965
633,653.6946466428965
659,0.033553736873739644
661,120.58507565168269
690,69.65291422218328
716,0.0
843,1221.3819585618621
844,1221.3819585618621
907,0.0
908,0.0
971,0.0
972,0.0
1195,0.0
1197,0.0
2,1, 1,27, 0,14, 0.00,60.00,Monday
7,-6.1
718,19.854650448599827
719,14.277993892753518
720,12.910983993535652
619,1577.4410147079664
633,586.0263263881219
659,0.02974101343280003
661,129.6090226642805
690,61.73833863818585
716,85.44000000000005
843,404.1464973960992
844,404.1464973960992
907,0.0
908,0.0
971,0.0
972,0.0
1195,0.0
1197,0.0
2,1, 1,27, 0,15, 0.00,60.00,Monday
7,-4.4
718,20.02876561439134
719,16.71398462153992
720,12.820593448014728
619,0.0
633,0.0
659,0.0
661,200.0
690,0.0
716,12.589351025189542
843,-190.90438408366572
844,-190.90438408366572
907,0.0
908,0.0
971,0.0
972,0.0
1195,0.0
1197,0.0
2,1, 1,27, 0,16, 0.00,60.00,Monday
7,-4.4
718,20.563297487270194
719,10.505041929561012
720,12.82047075183638
619,0.0
633,0.0
659,0.0
661,200.0
690,0.0
716,0.0
843,-677.430681449634
844,-677.430681449634
907,0.0
908,0.0
971,0.0
972,0.0
1195,0.0
1197,0.0
2,1, 1,27, 0,17, 0.00,60.00,Monday
7,-7.0
718,20.642349604093074
719,5.7585115161839235
720,12.82205971962138
619,0.0
633,0.0
659,0.0
661,200.0
690,0.0
716,0.0
843,-717.6199919411829
844,-717.6199919411829
907,0.0
908,0.0
971,0.0
972,0.0
1195,0.0
1197,0.0
2,1, 1,27, 0,18, 0.00,60.00,Monday
7,-6.7
718,19.749790049631148
719,1.0550225582425405
720,12.827767356721331
619,115.93513364700922
633,46.09484005425717
659,0.002317721666442844
661,194.5144205101916
690,4.811273040582367
716,0.0
843,61.071345288071825
844,61.071345288071825
907,0.0
908,0.0
971,0.0
972,0.0
1195,0.0
1197,0.0
2,1, 1,27, 0,19, 0.00,60.00,Monday
7,-12.8
718,19.262501644173465
719,-1.7265925369134143
720,12.88432758043344
619,2336.3303960401245
633,971.0031819381129
659,6.229516859682947
661,74.66072945482634
690,109.56919981331613
716,85.44000000000005
843,656.2402744650772
844,656.2402744650772
907,0.0
908,0.0
971,0.0
972,0.0
1195,0.0
1197,0.0
2,1, 1,27, 0,20, 0.00,60.00,Monday
7,-16.7
718,19.265126844333366
719,-4.7571714340267315
720,12.826225939205836
619,3432.199504063966
633,1465.6694770224751
659,17.51248725585626
661,0.0
690,175.41815885345812
716,85.44000000000005
843,1926.7473065611975
844,1926.7473065611975
907,0.0
908,0.0
971,0.0
972,0.0
1195,967.6996092223494
1197,967.6996092223494
2,1, 1,27, 0,21, 0.00,60.00,Monday
7,-17.8
718,19.481820626819758
719,-8.058744100822413
720,12.75217757916478
619,3322.172385195334
633,1454.645406654649
659,11.668167884131282
661,0.0
690,175.41815885345812
716,85.44000000000005
843,2618.9279429983353
844,2618.9279429983353
907,0.0
908,0.0
971,0.0
972,0.0
1195,2028.3642227126356
1197,2028.3642227126356
2,1, 1,27, 0,22, 0.00,60.00,Monday
7,-18.3
718,19.622636670283118
719,-9.007098603431155
720,12.662296934462344
619,3264.5823907722083
633,1453.2426655183308
659,10.003275657187508
661,0.0
690,175.41815885345812
716,11.787938635377081
843,3176.0893652654267
844,3176.0893652654267
907,0.0
908,0.0
971,0.0
972,0.0
1195,2013.59125992012
1197,2013.59125992012
2,1, 1,27, 0,23, 0.00,60.00,Monday
7,-21.0
718,18.93193330662904
719,-10.263909773888757
720,12.530299552013654
619,2958.335476014176
633,1405.2223069675717
659,12.666183662629502
661,0.0
690,175.41815885345812
716,0.0
843,3136.8417785998827
844,3136.8417785998827
907,0.0
908,0.0
971,0.0
972,0.0
1195,2192.603423184736
1197,2192.603423184736
2,1, 1,27, 0,24, 0.00,60.00,Monday
7,-20.6
718,18.70854249117615
719,-11.18175176027483
720,12.374832530842
619,3024.987518946997
633,1400.4261329708197
659,10.087029178154912
661,0.0
690,175.41815885345812
716,0.0
843,3742.9949715534713
844,3742.9949715534713
907,0.0
908,0.0
971,0.0
972,0.0
1195,2879.891364601197
1197,2879.891364601197
2,2, 1,28, 0, 1, 0.00,60.00,Tuesday
7,-21.1
718,18.629140731055486
719,-11.843511789725506
720,12.219147589241302
619,2980.5914059802653
633,1388.1569843000211
659,8.719368914893492
661,0.0
690,175.41815885345812
716,0.0
843,4371.6401663856705
844,4371.6401663856705
907,0.0
908,0.0
971,0.0
972,0.0
1195,3700.750268609467
1197,3700.750268609467
2,2, 1,28, 0, 2, 0.00,60.00,Tuesday
7,-19.4
718,18.608803488298737
719,-12.38946623015984
720,12.07082263627367
619,3168.3207960094837
633,1416.038794499659
659,8.368307054968811
661,0.0
690,175.41815885345812
716,0.0
843,4773.414716306361
844,4773.414716306361
907,0.0
908,0.0
971,0.0
972,0.0
1195,4047.3052420049457
1197,4047.3052420049457
2,2, 1,28, 0, 3, 0.00,60.00,Tuesday
7,-20.0
718,18.597187588109637
719,-12.259214209587325
720,11.900070024043732
619,3097.9770428100746
633,1402.8596263740271
659,10.370400733035707
661,0.0
690,175.41815885345812
716,0.0
843,5232.385198900693
844,5232.385198900693
907,0.0
908,0.0
971,0.0
972,0.0
1195,4683.871405019928
1197,4683.871405019928
2,2, 1,28, 0, 4, 0.00,60.00,Tuesday
7,-22.2
718,18.595909053501757
719,-12.902073755126443
720,11.718928520987872
619,2871.524747313799
633,1367.1537152072722
659,7.290874510176149
661,0.0
690,175.41815885345812
716,0.0
843,5919.273426496871
844,5919.273426496871
907,0.0
908,0.0
971,0.0
972,0.0
1195,5760.593374493677
1197,5760.593374493677
2,2, 1,28, 0, 5, 0.00,60.00,Tuesday
7,-22.0
718,18.594540423220145
719,-12.950516474211764
720,11.55869248482869
619,2894.885804130824
633,1371.5763564550232
659,6.369283183122049
661,0.0
690,175.41815885345812
716,0.0
843,5702.420593903826
844,5702.420593903826
907,0.0
908,0.0
971,0.0
972,0.0
1195,5486.758940677668
1197,5486.758940677668
2,2, 1,28, 0, 6, 0.00,60.00,Tuesday
7,-22.2
718,19.394362155030066
719,-13.363043074714266
720,11.388844756622216
619,2872.0774041435097
633,1366.7080585293634
659,7.286575980351755
661,0.0
690,175.41815885345812
716,0.0
843,6893.300291935819
844,6893.300291935819
907,0.0
908,0.0
971,0.0
972,0.0
1195,6980.88380228684
1197,6980.88380228684
2,2, 1,28, 0, 7, 0.00,60.00,Tuesday
7,-23.3
718,19.364189689898065
719,-13.600996892709759
720,11.252387562322173
619,2737.7079232570204
633,1360.9951161863585
659,8.053299575189781
661,0.0
690,175.41815885345812
716,85.44000000000005
843,6874.199866465533
844,6874.199866465533
907,0.0
908,0.0
971,0.0
972,0.0
1195,7635.025853320541
1197,7635.025853320541
2,2, 1,28, 0, 8, 0.00,60.00,Tuesday
7,-21.1
718,19.57539970008001
719,-13.256080281436255
720,11.102159655046842
619,2972.1360595150663
633,1403.6703345470576
659,6.16332922736528
661,0.0
690,175.41815885345812
716,85.44000000000005
843,6318.744629888088
844,6318.744629888088
907,0.0
908,0.0
971,0.0
972,0.0
1195,7374.949726923609
1197,7374.949726923609
2,2, 1,28, 0, 9, 0.00,60.00,Tuesday
7,-16.7
718,19.66225361183303
719,-10.331595260671513
720,10.990391691440385
619,3437.505595125203
633,1475.4076247929736
659,13.767524966840398
661,0.0
690,175.41815885345812
716,85.44000000000005
843,4811.592499142751
844,4811.592499142751
907,0.0
908,0.0
971,0.0
972,0.0
1195,5091.456261090725
1197,5091.456261090725
2,2, 1,28, 0,10, 0.00,60.00,Tuesday
7,-11.1
718,19.702160692091592
719,-1.2225274781090372
720,10.895954997602225
619,4169.166660957705
633,1581.4604035154186
659,0.0845023454950898
661,0.0
690,175.41815885345812
716,72.44165685805925
843,2965.8638866089987
844,2965.8638866089987
907,0.0
908,0.0
971,0.0
972,0.0
1195,1726.1297408889368
1197,1726.1297408889368
2,2, 1,28, 0,11, 0.00,60.00,Tuesday
7,-9.0
718,19.780866151699183
719,5.4387791520477595
720,10.765680712843956
619,3494.1382096644566
633,1298.0717872149646
659,0.06799388581895584
661,39.072192799886764
690,141.14545110755083
716,0.0
843,2235.5486264905558
844,2235.5486264905558
907,0.0
908,0.0
971,0.0
972,0.0
1195,0.0
1197,0.0
2,2, 1,28, 0,12, 0.00,60.00,Tuesday
7,-9.4
718,19.776154188899117
719,10.81775535576918
720,10.678331659381328
619,2691.29768224447
633,1030.55706384046
659,0.05409392519416577
661,71.97059471607443
690,112.29106214029653
716,0.0
843,1892.3278648662927
844,1892.3278648662927
907,0.0
908,0.0
971,0.0
972,0.0
1195,0.0
1197,0.0
2,2, 1,28, 0,13, 0.00,60.00,Tuesday
7,-5.0
718,19.899232719579903
719,13.65710681713593
720,10.59752697956594
619,1688.9261875391644
633,608.6580910966065
659,0.030751615374205864
661,127.21713179903922
690,63.836321751832415
716,0.0
843,1296.6680812079012
844,1296.6680812079012
907,0.0
908,0.0
971,0.0
972,0.0
1195,0.0
1197,0.0
2,2, 1,28, 0,14, 0.00,60.00,Tuesday
7,-4.7
718,19.819552357868886
719,14.588143583070995
720,10.54692845484616
619,755.8060342831694
633,277.7648318300634
659,0.013963295040361324
661,166.9516983024508
690,28.98598244411926
716,0.0
843,598.2140759844679
844,598.2140759844679
907,0.0
908,0.0
971,0.0
972,0.0
1195,0.0
1197,0.0
2,2, 1,28, 0,15, 0.00,60.00,Tuesday
7,-4.4
718,19.70134953644486
719,14.089059052901728
720,10.540451371905863
619,307.6796008528269
633,113.39934043373805
659,0.005694754799173408
661,186.52166453887529
690,11.821574735645521
716,0.0
843,246.42961063229268
844,246.42961063229268
907,0.0
908,0.0
971,0.0
972,0.0
1195,0.0
1197,0.0
2,2, 1,28, 0,16, 0.00,60.00,Tuesday
7,-2.8
718,19.878078149172048
719,11.880727789505336
720,10.557022832194358
619,33.528346420744924
633,12.014133026356735
659,0.0005965662667220824
661,198.58804802818935
690,1.2383972039953226
716,0.0
843,20.72734006155588
844,20.72734006155588
907,0.0
908,0.0
971,0.0
972,0.0
1195,0.0
1197,0.0
2,2, 1,28, 0,17, 0.00,60.00,Tuesday
7,-5.0
718,19.72319645570521
719,5.669560259529414
720,10.594171378994103
619,0.0
633,0.0
659,0.0
661,200.0
690,0.0
716,0.0
843,-91.48362364840432
844,-91.48362364840432
907,0.0
908,0.0
971,0.0
972,0.0
1195,0.0
1197,0.0
2,2, 1,28, 0,18, 0.00,60.00,Tuesday
7,-5.0
718,19.629751304410313
719,2.292168535371382
720,10.740115933331174
619,1779.6998662104245
633,640.1322768331926
659,5.466801128444958
661,122.47611240435641
690,67.84088361674414
716,69.08624034439373
843,596.9054461965243
844,596.9054461965243
907,0.0
908,0.0
971,0.0
972,0.0
1195,0.0
1197,0.0
2,2, 1,28, 0,19, 0.00,60.00,Tuesday
7,-8.3
718,19.49363104958537
719,-0.8801473192067171
720,10.728821069750746
619,1531.423983131003
633,591.1891055629505
659,6.2102738356761
661,126.06476730302485
690,64.6019576660674
716,0.0
843,1042.4934866892618
844,1042.4934866892618
907,0.0
908,0.0
971,0.0
972,0.0
1195,0.0
1197,0.0
2,2, 1,28, 0,20, 0.00,60.00,Tuesday
7,-13.9
718,19.239065320719163
719,-2.6355059025324423
720,10.857349269033303
619,3719.998354953044
633,1494.9850418564838
659,31.274560550502745
661,0.0
690,175.41815885345812
716,85.44000000000005
843,1484.491722012188
844,1484.491722012188
907,0.0
908,0.0
971,0.0
972,0.0
1195,256.6146071237149
1197,256.6146071237149
2,2, 1,28, 0,21, 0.00,60.00,Tuesday
7,-16.7
718,19.440079493821777
719,-5.649852422452836
720,10.77257847613018
619,3424.6271659904487
633,1457.4395898997075
659,21.4267695286674
661,0.0
690,175.41815885345812
716,85.44000000000005
843,2550.2766776676854
844,2550.2766776676854
907,0.0
908,0.0
971,0.0
972,0.0
1195,1890.4538387100097
1197,1890.4538387100097
2,2, 1,28, 0,22, 0.00,60.00,Tuesday
7,-17.8
718,19.586910703655654
719,-7.620913307361666
720,10.738391806064483
619,3301.576727658898
633,1447.5704260905466
659,18.65743142414597
661,0.0
690,175.41815885345812
716,85.44000000000005
843,3327.862293012955
844,3327.862293012955
907,0.0
908,0.0
971,0.0
972,0.0
1195,2954.5391233566324
1197,2954.5391233566324
2,2, 1,28, 0,23, 0.00,60.00,Tuesday
7,-19.0
718,18.94385939093664
719,-9.091966414657843
720,10.659629658259544
619,3166.801119940012
633,1431.9909580935962
659,17.477082741455654
661,0.0
690,175.41815885345812
716,22.126406203196357
843,3124.667781290498
844,3124.667781290498
907,0.0
908,0.0
971,0.0
972,0.0
1195,2185.2757205896164
1197,2185.2757205896164
2,2, 1,28, 0,24, 0.00,60.00,Tuesday
7,-18.9
718,18.710151431301068
719,-10.032439694136176
720,10.542894771529008
619,3197.635382913356
633,1420.4310638830402
659,16.15656993135263
661,0.0
690,175.41815885345812
716,0.0
843,3714.9463128029693
844,3714.9463128029693
907,0.0
908,0.0
971,0.0
972,0.0
1195,2644.618909075251
1197,2644.618909075251
2,3, 1,29, 0, 1, 0.00,60.00,Wednesday
7,-18.3
718,18.6346184220929
719,-10.824997430171472
720,10.434194310132467
619,3269.1949984017865
633,1424.137167945015
659,16.702349111303825
661,0.0
690,175.41815885345812
716,0.0
843,4163.085431357398
844,4163.085431357398
907,0.0
908,0.0
971,0.0
972,0.0
1195,3156.4676882246026
1197,3156.4676882246026
2,3, 1,29, 0, 2, 0.00,60.00,Wednesday
7,-20.0
718,18.60570848594099
719,-10.999591795220176
720,10.297667412528572
619,3090.5446400472797
633,1397.1875578192567
659,13.94764015775486
661,0.0
690,175.41815885345812
716,0.0
843,4757.830980820279
844,4757.830980820279
907,0.0
908,0.0
971,0.0
972,0.0
1195,4074.6269792052885
1197,4074.6269792052885
2,3, 1,29, 0, 3, 0.00,60.00,Wednesday
7,-20.6
718,18.60064711083999
719,-11.945865528449584
720,10.168596597277592
619,3029.4113453979094
633,1387.3711819267644
659,12.842021155040866
661,0.0
690,175.41815885345812
716,0.0
843,5274.074137538568
844,5274.074137538568
907,0.0
908,0.0
971,0.0
972,0.0
1195,4787.814278079288
1197,4787.814278079288
2,3, 1,29, 0, 4, 0.00,60.00,Wednesday
7,-20.6
718,18.595524920402678
719,-12.142284774053909
720,10.038976048633854
619,3036.404024981157
633,1390.161339373169
659,10.174209474632574
661,0.0
690,175.41815885345812
716,0.0
843,5425.234661775885
844,5425.234661775885
907,0.0
908,0.0
971,0.0
972,0.0
1195,4995.803634859181
1197,4995.803634859181
2,3, 1,29, 0, 5, 0.00,60.00,Wednesday
7,-20.0
718,18.600995369372338
719,-12.636510796859794
720,9.911528473915023
619,3102.9167418116717
633,1400.6983368734702
659,9.716443474215035
661,0.0
690,175.41815885345812
716,0.0
843,5431.021404068615
844,5431.021404068615
907,0.0
908,0.0
971,0.0
972,0.0
1195,4972.0042580064855
1197,4972.0042580064855
2,3, 1,29, 0, 6, 0.00,60.00,Wednesday
7,-20.0
718,19.29837806800266
719,-12.436694833364715
720,9.779624399572246
619,3106.589384455446
633,1402.2880263769525
659,8.301384761871569
661,0.0
690,175.41815885345812
716,79.10748112617088
843,6583.2453709144265
844,6583.2453709144265
907,0.0
908,0.0
971,0.0
972,0.0
1195,7183.800408041445
1197,7183.800408041445
2,3, 1,29, 0, 7, 0.00,60.00,Wednesday
7,-20.6
718,19.550646258518615
719,-12.767000459885114
720,9.67805871488168
619,3019.7116503481634
633,1404.8104523179081
659,10.145691112579735
661,0.0
690,175.41815885345812
716,85.44000000000005
843,6626.844625134281
844,6626.844625134281
907,0.0
908,0.0
971,0.0
972,0.0
1195,7635.025853320541
1197,7635.025853320541
2,3, 1,29, 0, 8, 0.00,60.00,Wednesday
7,-17.8
718,19.647736078461307
719,-11.42310888728506
720,9.579069237424548
619,3309.9336291080094
633,1452.8313260087482
659,15.188885862049444
661,0.0
690,175.41815885345812
716,85.44000000000005
843,6080.275915179931
844,6080.275915179931
907,0.0
908,0.0
971,0.0
972,0.0
1195,6736.923706683199
1197,6736.923706683199
2,3, 1,29, 0, 9, 0.00,60.00,Wednesday
7,-11.7
718,19.70509569574873
719,-8.283225707203256
720,9.504460012293793
619,4053.3219750599837
633,1554.253765675836
659,12.173062212625515
661,0.0
690,175.41815885345812
716,30.189665297221136
843,4449.4359856625
844,4449.4359856625
907,0.0
908,0.0
971,0.0
972,0.0
1195,3242.335134018289
1197,3242.335134018289
2,3, 1,29, 0,10, 0.00,60.00,Wednesday
7,-10.5
718,19.718803545867146
719,-2.5915676824279537
720,9.406658129323151
619,4203.572498524368
633,1571.8637809743952
659,13.19948165975988
661,0.0
690,175.41815885345812
716,0.0
843,3290.811242698641
844,3290.811242698641
907,0.0
908,0.0
971,0.0
972,0.0
1195,1180.2086063033644
1197,1180.2086063033644
2,3, 1,29, 0,11, 0.00,60.00,Wednesday
7,-9.4
718,19.733123839305346
719,1.8085641315736949
720,9.343837974406876
619,4269.374111599884
633,1566.438024832319
659,11.983107515404152
661,2.861665092970056
690,172.38440351111726
716,0.0
843,2619.637778940627
844,2619.637778940627
907,0.0
908,0.0
971,0.0
972,0.0
1195,0.0
1197,0.0
2,3, 1,29, 0,12, 0.00,60.00,Wednesday
7,-6.1
718,19.853648179997315
719,6.490166195374871
720,9.198915433176538
619,2744.904570798383
633,982.9339395915696
659,5.278159391236157
661,80.19508342469538
690,104.9124764495619
716,0.0
843,1846.9384415866843
844,1846.9384415866843
907,0.0
908,0.0
971,0.0
972,0.0
1195,0.0
1197,0.0
2,3, 1,29, 0,13, 0.00,60.00,Wednesday
7,-0.6
718,20.050010258064308
719,13.507275401728968
720,9.093632942820856
619,1109.380494771036
633,372.94311531572896
659,0.018150940441708327
661,157.04038666533103
690,37.67919371683624
716,0.0
843,812.233842613532
844,812.233842613532
907,0.0
908,0.0
971,0.0
972,0.0
1195,0.0
1197,0.0
2,3, 1,29, 0,14, 0.00,60.00,Wednesday
7,0.6
718,19.865181690561613
719,15.332243522809042
720,9.048558089108262
619,0.0
633,0.0
659,0.0
661,200.0
690,0.0
716,0.0
843,-128.75030863991014
844,-128.75030863991014
907,0.0
908,0.0
971,0.0
972,0.0
1195,0.0
1197,0.0
2,3, 1,29, 0,15, 0.00,60.00,Wednesday
7,0.6
718,19.567096078745912
719,16.460699769722435
720,9.108845158310015
619,0.0
633,0.0
659,0.0
661,200.0
690,0.0
716,72.85143361877887
843,-564.6732930930557
844,-564.6732930930557
907,0.0
908,0.0
971,0.0
972,0.0
1195,0.0
1197,0.0
2,3, 1,29, 0,16, 0.00,60.00,Wednesday
7,0.6
718,19.62405265396045
719,13.035218510012985
720,9.179060443408204
619,0.0
633,0.0
659,0.0
661,200.0
690,0.0
716,85.44000000000005
843,-823.6153136403227
844,-823.6153136403227
907,0.0
908,0.0
971,0.0
972,0.0
1195,0.0
1197,0.0
2,3, 1,29, 0,17, 0.00,60.00,Wednesday
7,-2.0
718,20.467096630706774
719,9.733856183756098
720,9.263780199667744
619,0.0
633,0.0
659,0.0
661,200.0
690,0.0
716,19.15557282829791
843,-910.3775707496243
844,-910.3775707496243
907,0.0
908,0.0
971,0.0
972,0.0
1195,0.0
1197,0.0
2,3, 1,29, 0,18, 0.00,60.00,Wednesday
7,-1.7
718,19.80768747589591
719,5.35352174731039
720,9.35328064239427
619,0.0
633,0.0
659,0.0
661,200.0
690,0.0
716,0.0
843,-67.31207911198362
844,-67.31207911198362
907,0.0
908,0.0
971,0.0
972,0.0
1195,0.0
1197,0.0
2,3, 1,29, 0,19, 0.00,60.00,Wednesday
7,-8.3
718,19.63390921960316
719,0.42629245745259414
720,9.536633625013543
619,1212.7665619549582
633,475.734754009588
659,12.876780588325802
661,139.32361488649207
690,52.70043697812409
716,0.0
843,829.7226502875728
844,829.7226502875728
907,0.0
908,0.0
971,0.0
972,0.0
1195,0.0
1197,0.0
2,3, 1,29, 0,20, 0.00,60.00,Wednesday
7,-9.4
718,19.548201432885612
719,-2.4416571647733676
720,9.743011425624223
619,3330.6300889871377
633,1256.3130118251809
659,36.19256350748495
661,37.34148945517693
690,141.05489516778962
716,85.44000000000005
843,1190.6603225260606
844,1190.6603225260606
907,0.0
908,0.0
971,0.0
972,0.0
1195,0.0
1197,0.0
2,3, 1,29, 0,21, 0.00,60.00,Wednesday
7,-10.6
718,19.511911497779927
719,-4.0048575581387045
720,9.779151442024414
619,4082.8783336353176
633,1524.66941492747
659,45.31466786100704
661,0.0
690,175.41815885345812
716,85.44000000000005
843,1532.261384929835
844,1532.261384929835
907,0.0
908,0.0
971,0.0
972,0.0
1195,4.5002017015444835
1197,4.5002017015444835
2,3, 1,29, 0,22, 0.00,60.00,Wednesday
7,-11.7
718,19.601360877860646
719,-4.303441868446438
720,9.748283934427972
619,3938.6856389791815
633,1505.6758780512098
659,47.33597669497526
661,0.0
690,175.41815885345812
716,51.59038661582089
843,2023.7958468158877
844,2023.7958468158877
907,0.0
908,0.0
971,0.0
972,0.0
1195,321.4008015665886
1197,321.4008015665886
2,3, 1,29, 0,23, 0.00,60.00,Wednesday
7,-13.0
718,18.953383661607358
719,-6.170176383591241
720,9.695311272894454
619,3643.3449842678865
633,1459.9778506470607
659,35.00504126254581
661,5.81596502081374
690,168.21213888192216
716,0.0
843,2069.5227651746372
844,2069.5227651746372
907,0.0
908,0.0
971,0.0
972,0.0
1195,0.0
1197,0.0
2,3, 1,29, 0,24, 0.00,60.00,Wednesday
7,-13.3
718,18.713849866281286
719,-6.653309962326226
720,9.612471385155857
619,3784.8711717293136
633,1478.6861214563403
659,38.618712041051126
661,0.0
690,175.41815885345812
716,0.0
843,2693.509962083617
844,2693.509962083617
907,0.0
908,0.0
971,0.0
972,0.0
1195,705.1187980868558
1197,705.1187980868558
2,4, 1,30, 0, 1, 0.00,60.00,Thursday
7,-15.6
718,18.636249458331232
719,-7.811669531753601
720,9.514249211793567
619,3543.4020661807613
633,1449.4760244691022
659,29.799932836623015
661,0.0
690,175.41815885345812
716,0.0
843,3503.3993216160616
844,3503.3993216160616
907,0.0
908,0.0
971,0.0
972,0.0
1195,1919.3821960871135
1197,1919.3821960871135
2,4, 1,30, 0, 2, 0.00,60.00,Thursday
7,-14.4
718,18.61386238060053
719,-8.242080977868401
720,9.443661148430882
619,3677.849319120967
633,1461.1161656184877
659,33.060855991883294
661,0.0
690,175.41815885345812
716,0.0
843,3783.765521761279
844,3783.765521761279
907,0.0
908,0.0
971,0.0
972,0.0
1195,2187.628994474572
1197,2187.628994474572
2,4, 1,30, 0, 3, 0.00,60.00,Thursday
7,-16.1
718,18.602125930463806
719,-9.288904621511513
720,9.33649165078569
619,3507.244663527471
633,1447.2180516928622
659,23.144095010497143
661,0.0
690,175.41815885345812
716,0.0
843,4417.705887619031
844,4417.705887619031
907,0.0
908,0.0
971,0.0
972,0.0
1195,3132.750244717275
1197,3132.750244717275
2,4, 1,30, 0, 4, 0.00,60.00,Thursday
7,-16.7
718,18.601596143039338
719,-9.289652055517308
720,9.237192107553124
619,3442.7556483071908
633,1439.5611916493735
659,21.48449402720915
661,0.0
690,175.41815885345812
716,0.0
843,4760.705551608506
844,4760.705551608506
907,0.0
908,0.0
971,0.0
972,0.0
1195,3683.1008016200476
1197,3683.1008016200476
2,4, 1,30, 0, 5, 0.00,60.00,Thursday
7,-18.0
718,18.59752287608477
719,-9.891661707151632
720,9.124848618524569
619,3298.9952560724623
633,1420.8933799370413
659,19.85743100586169
661,0.0
690,175.41815885345812
716,0.0
843,5041.761031726461
844,5041.761031726461
907,0.0
908,0.0
971,0.0
972,0.0
1195,4151.587905938344
1197,4151.587905938344
2,4, 1,30, 0, 6, 0.00,60.00,Thursday
7,-17.8
718,19.39222553454888
719,-9.954643163025231
720,9.023616432872243
619,3325.1897083994522
633,1425.2540827124042
659,18.655736296868618
661,0.0
690,175.41815885345812
716,0.0
843,6169.389540439706
844,6169.389540439706
907,0.0
908,0.0
971,0.0
972,0.0
1195,5539.356597324902
1197,5539.356597324902
2,4, 1,30, 0, 7, 0.00,60.00,Thursday
7,-18.3
718,19.587371684427012
719,-10.116658277271076
720,8.951494219166795
619,3254.5629990330785
633,1438.0888032222804
659,16.618935625327946
661,0.0
690,175.41815885345812
716,85.44000000000005
843,5982.609669608728
844,5982.609669608728
907,0.0
908,0.0
971,0.0
972,0.0
1195,6559.894845303147
1197,6559.894845303147
2,4, 1,30, 0, 8, 0.00,60.00,Thursday
7,-15.6
718,19.66071928887362
719,-9.614390770981768
720,8.869223781501683
619,3537.9265104269343
633,1476.9675624681086
659,24.52726450125196
661,0.0
690,175.41815885345812
716,85.44000000000005
843,4949.447389058305
844,4949.447389058305
907,0.0
908,0.0
971,0.0
972,0.0
1195,5139.515453234829
1197,5139.515453234829
2,4, 1,30, 0, 9, 0.00,60.00,Thursday
7,-11.1
718,19.69682357344156
719,-5.422923411644486
720,8.81022584171787
619,4068.0374603869227
633,1538.263180495884
659,30.692751336320402
661,0.0
690,175.41815885345812
716,85.44000000000005
843,3472.535185711151
844,3472.535185711151
907,0.0
908,0.0
971,0.0
972,0.0
1195,2687.4949130440896
1197,2687.4949130440896
2,4, 1,30, 0,10, 0.00,60.00,Thursday
7,-7.2
718,19.73182550117944
719,1.1761087909149817
720,8.7500062188033
619,4367.077608828806
633,1534.9900342902836
659,25.49141674297043
661,8.023849927883386
690,167.46739834623241
716,43.996279609838076
843,2194.44987171874
844,2194.44987171874
907,0.0
908,0.0
971,0.0
972,0.0
1195,0.0
1197,0.0
2,4, 1,30, 0,11, 0.00,60.00,Thursday
7,-4.0
718,19.91164786138937
719,7.144734848936626
720,8.492568717200061
619,1843.454264091752
633,647.6169406442957
659,4.317511399591845
661,122.27142472151283
690,68.0663371117852
716,0.0
843,1232.7400501401225
844,1232.7400501401225
907,0.0
908,0.0
971,0.0
972,0.0
1195,0.0
1197,0.0
2,4, 1,30, 0,12, 0.00,60.00,Thursday
7,-4.4
718,19.748236694984023
719,12.742500856608933
720,8.451063755883752
619,852.9338855690291