Program Version,EnergyPlus, Version 9.5.0-de239b2e5f, YMD=2022.08.10 15:35
1,5,Environment Title[],Latitude[deg],Longitude[deg],Time Zone[],Elevation[m]
2,8,Day of Simulation[],Month[],Day of Month[],DST Indicator[1=yes 0=no],Hour[],StartMinute[],EndMinute[],DayType
3,5,Cumulative Day of Simulation[],Month[],Day of Month[],DST Indicator[1=yes 0=no],DayType  ! When Daily Report Variables Requested
4,2,Cumulative Days of Simulation[],Month[]  ! When Monthly Report Variables Requested
5,1,Cumulative Days of Simulation[] ! When Run Period Report Variables Requested
6,1,Calendar Year of Simulation[] ! When Annual Report Variables Requested
267,11,UNHEATEDBSMT_UNIT1,AFN Zone Infiltration Air Change Rate [ach] !Annual [Value,Min,Month,Day,Hour,Minute,Max,Month,Day,Hour,Minute]
268,11,LIVING_UNIT1,AFN Zone Infiltration Air Change Rate [ach] !Annual [Value,Min,Month,Day,Hour,Minute,Max,Month,Day,Hour,Minute]
269,11,ATTIC_UNIT1,AFN Zone Infiltration Air Change Rate [ach] !Annual [Value,Min,Month,Day,Hour,Minute,Max,Month,Day,Hour,Minute]
603,11,Facility,Facility Heating Setpoint Not Met Time [hr] !Annual [Value,Min,Month,Day,Hour,Minute,Max,Month,Day,Hour,Minute]
604,11,Facility,Facility Cooling Setpoint Not Met Time [hr] !Annual [Value,Min,Month,Day,Hour,Minute,Max,Month,Day,Hour,Minute]
12,11,Electricity:Facility [J] !Annual [Value,Min,Month,Day,Hour,Minute,Max,Month,Day,Hour,Minute]
725,11,Heating:Electricity [J] !Annual [Value,Min,Month,Day,Hour,Minute,Max,Month,Day,Hour,Minute]
764,11,Cooling:Electricity [J] !Annual [Value,Min,Month,Day,Hour,Minute,Max,Month,Day,Hour,Minute]
196,11,Fans:Electricity [J] !Annual [Value,Min,Month,Day,Hour,Minute,Max,Month,Day,Hour,Minute]
48,11,InteriorLights:Electricity [J] !Annual [Value,Min,Month,Day,Hour,Minute,Max,Month,Day,Hour,Minute]
673,11,ExteriorLights:Electricity [J] !Annual [Value,Min,Month,Day,Hour,Minute,Max,Month,Day,Hour,Minute]
86,11,InteriorEquipment:Electricity [J] !Annual [Value,Min,Month,Day,Hour,Minute,Max,Month,Day,Hour,Minute]
648,11,HeatRecovery:Electricity [J] !Annual [Value,Min,Month,Day,Hour,Minute,Max,Month,Day,Hour,Minute]
End of Data Dictionary
1,BAKER.MUNI.AP ANN HTG 99.6% CONDNS DB,  46.35,-104.27,  -7.00, 906.00
1,BAKER.MUNI.AP ANN CLG .4% CONDNS DB=>MWB,  46.35,-104.27,  -7.00, 906.00
1,ANNUAL,  46.35,-104.27,  -7.00, 906.00
6,2017
603,284.0,0.0, 7,21, 1,60,1.0, 1,21, 1,60
604,2183.0,0.0, 1,21, 1,60,1.0, 7,21, 1,60
267,0.8297163959126342,0.0, 5,17,12,60,4.898676350344209, 1,26,12,60
268,0.48700010143343105,0.0, 7,26,16,60,2.4147994815222497, 1,26,12,60
269,7.468327814489776,0.0, 1, 2,17,60,42.71172277842976, 1,26,12,60
12,93878873623.92974,0.0, 2, 4,14,60,42101734.06004188, 1, 3,19,60
48,0.0,0.0, 1, 1, 1,60,0.0, 1, 1, 1,60
86,0.0,0.0, 1, 1, 1,60,0.0, 1, 1, 1,60
196,3361518384.3207848,0.0, 2, 4,14,60,967158.1143474359, 1, 3,19,60
648,0.0,0.0, 1, 1, 1,60,0.0, 1, 1, 1,60
673,0.0,0.0, 1, 1, 1,60,0.0, 1, 1, 1,60
725,90517355239.60588,0.0, 2, 4,14,60,41134575.94569445, 1, 3,19,60
764,0.0,0.0, 1, 1, 1,60,0.0, 1, 1, 1,60
End of Data
 Number of Records Written=          13
