Program Version,EnergyPlus, Version 22.2.0-c249759bad, YMD=2023.09.01 14:31
1,5,Environment Title[],Latitude[deg],Longitude[deg],Time Zone[],Elevation[m]
2,8,Day of Simulation[],Month[],Day of Month[],DST Indicator[1=yes 0=no],Hour[],StartMinute[],EndMinute[],DayType
3,5,Cumulative Day of Simulation[],Month[],Day of Month[],DST Indicator[1=yes 0=no],DayType  ! When Daily Report Variables Requested
4,2,Cumulative Days of Simulation[],Month[]  ! When Monthly Report Variables Requested
5,1,Cumulative Days of Simulation[] ! When Run Period Report Variables Requested
6,1,Calendar Year of Simulation[] ! When Annual Report Variables Requested
7,1,Environment,Site Outdoor Air Drybulb Temperature [C] !Hourly
545,1,LIVING,Zone Mean Air Temperature [C] !Hourly
546,1,ATTIC,Zone Mean Air Temperature [C] !Hourly
547,1,CRAWLSPACE,Zone Mean Air Temperature [C] !Hourly
548,1,FAN,Fan Electricity Rate [W] !Hourly
720,1,LIVING,Zone Predicted Sensible Load to Heating Setpoint Heat Transfer Rate [W] !Hourly
721,1,LIVING,Zone System Predicted Sensible Load to Heating Setpoint Heat Transfer Rate [W] !Hourly
784,1,ATTIC,Zone Predicted Sensible Load to Heating Setpoint Heat Transfer Rate [W] !Hourly
785,1,ATTIC,Zone System Predicted Sensible Load to Heating Setpoint Heat Transfer Rate [W] !Hourly
848,1,CRAWLSPACE,Zone Predicted Sensible Load to Heating Setpoint Heat Transfer Rate [W] !Hourly
849,1,CRAWLSPACE,Zone System Predicted Sensible Load to Heating Setpoint Heat Transfer Rate [W] !Hourly
1121,1,DX_HEATING_COIL,Heating Coil Heating Rate [W] !Hourly
1135,1,DX_HEATING_COIL,Heating Coil Electricity Rate [W] !Hourly
1161,1,DX_HEATING_COIL,Heating Coil Defrost Electricity Rate [W] !Hourly
1163,1,DX_HEATING_COIL,Heating Coil Crankcase Heater Electricity Rate [W] !Hourly
1166,1,HEATING_RESISTANCE_BACKUP,Heating Coil Heating Rate [W] !Hourly
1168,1,HEATING_RESISTANCE_BACKUP,Heating Coil Electricity Rate [W] !Hourly
End of Data Dictionary
1,EXTREME_WINTER,  26.59, -81.86,  -5.00,   4.60
2,1, 1,20, 0, 1, 0.00,60.00,Monday
7,8.9
545,22.06260800246174
546,10.09345738899092
547,20.65785375717978
548,0.0
720,-1410.762886376368
721,-1410.762886376368
784,0.0
785,0.0
848,0.0
849,0.0
1121,0.0
1135,0.0
1161,0.0
1163,200.0
1166,0.0
1168,0.0
2,1, 1,20, 0, 2, 0.00,60.00,Monday
7,8.3
545,21.640864935398326
546,8.665862973386798
547,20.52636839179644
548,0.0
720,-2415.1456830315074
721,-2415.1456830315074
784,0.0
785,0.0
848,0.0
849,0.0
1121,0.0
1135,0.0
1161,0.0
1163,200.0
1166,0.0
1168,0.0
2,1, 1,20, 0, 3, 0.00,60.00,Monday
7,7.2
545,21.210191053694654
546,6.462883097381648
547,20.43142521989174
548,0.0
720,-1896.8592223940122
721,-1896.8592223940122
784,0.0
785,0.0
848,0.0
849,0.0
1121,0.0
1135,0.0
1161,0.0
1163,200.0
1166,0.0
1168,0.0
2,1, 1,20, 0, 4, 0.00,60.00,Monday
7,6.1
545,20.616469262918088
546,4.5120634744389605
547,20.327764648647403
548,0.0
720,-1377.872174006343
721,-1377.872174006343
784,0.0
785,0.0
848,0.0
849,0.0
1121,0.0
1135,0.0
1161,0.0
1163,200.0
1166,0.0
1168,0.0
2,1, 1,20, 0, 5, 0.00,60.00,Monday
7,6.1
545,20.252625976071243
546,3.0670247646165265
547,20.223913553178093
548,0.0
720,-1132.7611163933234
721,-1132.7611163933234
784,0.0
785,0.0
848,0.0
849,0.0
1121,0.0
1135,0.0
1161,0.0
1163,200.0
1166,0.0
1168,0.0
2,1, 1,20, 0, 6, 0.00,60.00,Monday
7,6.1
545,20.03531734116707
546,2.1502825056076924
547,20.11820867030243
548,0.0
720,-198.59999304254234
721,-198.59999304254234
784,0.0
785,0.0
848,0.0
849,0.0
1121,0.0
1135,0.0
1161,0.0
1163,200.0
1166,0.0
1168,0.0
2,1, 1,20, 0, 7, 0.00,60.00,Monday
7,6.1
545,19.811151593452426
546,1.5117827488366722
547,20.011708645131904
548,0.0
720,-50.8538159220343
721,-50.8538159220343
784,0.0
785,0.0
848,0.0
849,0.0
1121,0.0
1135,0.0
1161,0.0
1163,200.0
1166,0.0
1168,0.0
2,1, 1,20, 0, 8, 0.00,60.00,Monday
7,6.7
545,19.804447441072185
546,1.554792439521036
547,19.906156182518735
548,0.0
720,-46.344878934146436
721,-46.344878934146436
784,0.0
785,0.0
848,0.0
849,0.0
1121,0.0
1135,0.0
1161,0.0
1163,200.0
1166,0.0
1168,0.0
2,1, 1,20, 0, 9, 0.00,60.00,Monday
7,11.7
545,20.824713742924587
546,6.287328087868105
547,19.807252519582093
548,0.0
720,-683.2286158516526
721,-683.2286158516526
784,0.0
785,0.0
848,0.0
849,0.0
1121,0.0
1135,0.0
1161,0.0
1163,0.0
1166,0.0
1168,0.0
2,1, 1,20, 0,10, 0.00,60.00,Monday
7,15.6
545,21.201589000773268
546,13.195209461968053
547,19.724380914301186
548,0.0
720,-1140.4382332980476
721,-1140.4382332980476
784,0.0
785,0.0
848,0.0
849,0.0
1121,0.0
1135,0.0
1161,0.0
1163,0.0
1166,0.0
1168,0.0
2,1, 1,20, 0,11, 0.00,60.00,Monday
7,15.6
545,21.434316911538936
546,16.451809505009123
547,19.667255240079534
548,0.0
720,-1285.8498970685232
721,-1285.8498970685232
784,0.0
785,0.0
848,0.0
849,0.0
1121,0.0
1135,0.0
1161,0.0
1163,0.0
1166,0.0
1168,0.0
2,1, 1,20, 0,12, 0.00,60.00,Monday
7,15.6
545,21.399151982839747
546,17.233268612721737
547,19.630514682258745
548,0.0
720,-1151.5297880369599
721,-1151.5297880369599
784,0.0
785,0.0
848,0.0
849,0.0
1121,0.0
1135,0.0
1161,0.0
1163,0.0
1166,0.0
1168,0.0
2,1, 1,20, 0,13, 0.00,60.00,Monday
7,17.8
545,22.051855403510316
546,19.791197630675917
547,19.608769815622367
548,0.0
720,-1400.5836706552873
721,-1400.5836706552873
784,0.0
785,0.0
848,0.0
849,0.0
1121,0.0
1135,0.0
1161,0.0
1163,0.0
1166,0.0
1168,0.0
2,1, 1,20, 0,14, 0.00,60.00,Monday
7,18.9
545,22.742803558180714
546,21.88093942772347
547,19.601515116531445
548,0.0
720,-2002.0748101414156
721,-2002.0748101414156
784,0.0
785,0.0
848,0.0
849,0.0
1121,0.0
1135,0.0
1161,0.0
1163,0.0
1166,0.0
1168,0.0
2,1, 1,20, 0,15, 0.00,60.00,Monday
7,17.8
545,23.063360946610896
546,21.97330505814746
547,19.6113891729165
548,0.0
720,-2114.9426987169936
721,-2114.9426987169936
784,0.0
785,0.0
848,0.0
849,0.0
1121,0.0
1135,0.0
1161,0.0
1163,0.0
1166,0.0
1168,0.0
2,1, 1,20, 0,16, 0.00,60.00,Monday
7,17.8
545,23.316925178070687
546,21.93255210645059
547,19.643163654350616
548,5.213739977833018
720,-2347.7153812158776
721,-2347.7153812158776
784,0.0
785,0.0
848,0.0
849,0.0
1121,0.0
1135,0.0
1161,0.0
1163,0.0
1166,0.0
1168,0.0
2,1, 1,20, 0,17, 0.00,60.00,Monday
7,17.2
545,23.362621758210047
546,21.17508187695622
547,19.703434139988573
548,23.137683764052397
720,-2926.892522316137
721,-2926.892522316137
784,0.0
785,0.0
848,0.0
849,0.0
1121,0.0
1135,0.0
1161,0.0
1163,0.0
1166,0.0
1168,0.0
2,1, 1,20, 0,18, 0.00,60.00,Monday
7,16.1
545,23.299968327762205
546,19.81283596561672
547,19.763861035284435
548,38.78530497509847
720,-4260.522519181857
721,-4260.522519181857
784,0.0
785,0.0
848,0.0
849,0.0
1121,0.0
1135,0.0
1161,0.0
1163,0.0
1166,0.0
1168,0.0
2,1, 1,20, 0,19, 0.00,60.00,Monday
7,15.6
545,23.369403324365084
546,17.69853692489957
547,19.794862700000714
548,30.62606954217477
720,-4258.931842330925
721,-4258.931842330925
784,0.0
785,0.0
848,0.0
849,0.0
1121,0.0
1135,0.0
1161,0.0
1163,0.0
1166,0.0
1168,0.0
2,1, 1,20, 0,20, 0.00,60.00,Monday
7,15.6
545,23.38469681364389
546,16.51614135641884
547,19.834310808766688
548,29.967273634176262
720,-3986.3206504377504
721,-3986.3206504377504
784,0.0
785,0.0
848,0.0
849,0.0
1121,0.0
1135,0.0
1161,0.0
1163,0.0
1166,0.0
1168,0.0
2,1, 1,20, 0,21, 0.00,60.00,Monday
7,15.6
545,23.34370321214368
546,15.478987031137178
547,19.85614765178744
548,28.659569863286517
720,-3924.203002687429
721,-3924.203002687429
784,0.0
785,0.0
848,0.0
849,0.0
1121,0.0
1135,0.0
1161,0.0
1163,0.0
1166,0.0
1168,0.0
2,1, 1,20, 0,22, 0.00,60.00,Monday
7,13.3
545,23.257105330284286
546,13.576195466773962
547,19.848448647535083
548,18.91481239580931
720,-3589.7526419033893
721,-3589.7526419033893
784,0.0
785,0.0
848,0.0
849,0.0
1121,0.0
1135,0.0
1161,0.0
1163,0.0
1166,0.0
1168,0.0
2,1, 1,20, 0,23, 0.00,60.00,Monday
7,13.9
545,23.685364645544542
546,12.69032506858021
547,19.82425378956336
548,0.0
720,-3914.009830922072
721,-3914.009830922072
784,0.0
785,0.0
848,0.0
849,0.0
1121,0.0
1135,0.0
1161,0.0
1163,0.0
1166,0.0
1168,0.0
2,1, 1,20, 0,24, 0.00,60.00,Monday
7,13.9
545,23.455005718168604
546,11.962261516389153
547,19.810593013909124
548,0.0
720,-1915.233513483793
721,-1915.233513483793
784,0.0
785,0.0
848,0.0
849,0.0
1121,0.0
1135,0.0
1161,0.0
1163,0.0
1166,0.0
1168,0.0
2,2, 1,21, 0, 1, 0.00,60.00,Tuesday
7,14.4
545,23.075024391832567
546,12.711734367787875
547,19.78485465957295
548,0.0
720,-1974.9703845193371
721,-1974.9703845193371
784,0.0
785,0.0
848,0.0
849,0.0
1121,0.0
1135,0.0
1161,0.0
1163,0.0
1166,0.0
1168,0.0
2,2, 1,21, 0, 2, 0.00,60.00,Tuesday
7,14.4
545,22.77870208252401
546,12.787391122169565
547,19.753582831399864
548,0.0
720,-1965.605187409893
721,-1965.605187409893
784,0.0
785,0.0
848,0.0
849,0.0
1121,0.0
1135,0.0
1161,0.0
1163,0.0
1166,0.0
1168,0.0
2,2, 1,21, 0, 3, 0.00,60.00,Tuesday
7,15.0
545,22.53164012518063
546,13.620051911165818
547,19.717907866014002
548,0.0
720,-2170.7880140456436
721,-2170.7880140456436
784,0.0
785,0.0
848,0.0
849,0.0
1121,0.0
1135,0.0
1161,0.0
1163,0.0
1166,0.0
1168,0.0
2,2, 1,21, 0, 4, 0.00,60.00,Tuesday
7,14.4
545,22.155811345226542
546,13.288754396119122
547,19.67912285689037
548,0.0
720,-2112.1561715273765
721,-2112.1561715273765
784,0.0
785,0.0
848,0.0
849,0.0
1121,0.0
1135,0.0
1161,0.0
1163,0.0
1166,0.0
1168,0.0
2,2, 1,21, 0, 5, 0.00,60.00,Tuesday
7,13.9
545,21.955312886722933
546,12.23222566645452
547,19.63882559878894
548,0.0
720,-1896.1633690448316
721,-1896.1633690448316
784,0.0
785,0.0
848,0.0
849,0.0
1121,0.0
1135,0.0
1161,0.0
1163,0.0
1166,0.0
1168,0.0
2,2, 1,21, 0, 6, 0.00,60.00,Tuesday
7,14.0
545,21.954311160252864
546,11.453848919869293
547,19.59675123646459
548,0.0
720,-1324.4013779520837
721,-1324.4013779520837
784,0.0
785,0.0
848,0.0
849,0.0
1121,0.0
1135,0.0
1161,0.0
1163,0.0
1166,0.0
1168,0.0
2,2, 1,21, 0, 7, 0.00,60.00,Tuesday
7,14.0
545,21.910735703736133
546,11.653325592949146
547,19.553275547303095
548,0.0
720,-1389.9949006873012
721,-1389.9949006873012
784,0.0
785,0.0
848,0.0
849,0.0
1121,0.0
1135,0.0
1161,0.0
1163,0.0
1166,0.0
1168,0.0
2,2, 1,21, 0, 8, 0.00,60.00,Tuesday
7,13.0
545,21.935621911150022
546,10.715309271444507
547,19.510955066155397
548,0.0
720,-1386.3316578486265
721,-1386.3316578486265
784,0.0
785,0.0
848,0.0
849,0.0
1121,0.0
1135,0.0
1161,0.0
1163,0.0
1166,0.0
1168,0.0
2,2, 1,21, 0, 9, 0.00,60.00,Tuesday
7,16.0
545,22.68825754487206
546,13.827148378751081
547,19.471351254354868
548,0.0
720,-1776.0867322369922
721,-1776.0867322369922
784,0.0
785,0.0
848,0.0
849,0.0
1121,0.0
1135,0.0
1161,0.0
1163,0.0
1166,0.0
1168,0.0
2,2, 1,21, 0,10, 0.00,60.00,Tuesday
7,20.0
545,23.279195091277906
546,19.524797871448303
547,19.46917667981067
548,16.192452026080634
720,-3103.771652163863
721,-3103.771652163863
784,0.0
785,0.0
848,0.0
849,0.0
1121,0.0
1135,0.0
1161,0.0
1163,0.0
1166,0.0
1168,0.0
2,2, 1,21, 0,11, 0.00,60.00,Tuesday
7,21.1
545,23.294007619618068
546,23.720190316902695
547,19.522473231491166
548,43.314102638228015
720,-3730.9034062989394
721,-3730.9034062989394
784,0.0
785,0.0
848,0.0
849,0.0
1121,0.0
1135,0.0
1161,0.0
1163,0.0
1166,0.0
1168,0.0
2,2, 1,21, 0,12, 0.00,60.00,Tuesday
7,21.7
545,23.365730521652093
546,26.977499003676897
547,19.594505980638317
548,64.50360358787647
720,-5069.6257428647805
721,-5069.6257428647805
784,0.0
785,0.0
848,0.0
849,0.0
1121,0.0
1135,0.0
1161,0.0
1163,0.0
1166,0.0
1168,0.0
2,2, 1,21, 0,13, 0.00,60.00,Tuesday
7,21.7
545,23.37134123728306
546,30.64440229106469
547,19.680349530313777
548,78.64869338810381
720,-5817.855368121684
721,-5817.855368121684
784,0.0
785,0.0
848,0.0
849,0.0
1121,0.0
1135,0.0
1161,0.0
1163,0.0
1166,0.0
1168,0.0
2,2, 1,21, 0,14, 0.00,60.00,Tuesday
7,22.8
545,23.3871091470575
546,30.354120588052776
547,19.789445649146522
548,92.88372890614198
720,-6434.66498079622
721,-6434.66498079622
784,0.0
785,0.0
848,0.0
849,0.0
1121,0.0
1135,0.0
1161,0.0
1163,0.0
1166,0.0
1168,0.0
2,2, 1,21, 0,15, 0.00,60.00,Tuesday
7,22.2
545,23.360424474368266
546,30.020652211600414
547,19.922863106858358
548,104.25154859720524
720,-6992.905394163376
721,-6992.905394163376
784,0.0
785,0.0
848,0.0
849,0.0
1121,0.0
1135,0.0
1161,0.0
1163,0.0
1166,0.0
1168,0.0
2,2, 1,21, 0,16, 0.00,60.00,Tuesday
7,22.2
545,23.353348733858187
546,29.788023345084156
547,20.080225361886292
548,116.2112134489877
720,-7644.071701690918
721,-7644.071701690918
784,0.0
785,0.0
848,0.0
849,0.0
1121,0.0
1135,0.0
1161,0.0
1163,0.0
1166,0.0
1168,0.0
2,2, 1,21, 0,17, 0.00,60.00,Tuesday
7,21.7
545,23.34305873758572
546,26.799448460149687
547,20.199333747956292
548,120.80234440102312
720,-8037.365743724895
721,-8037.365743724895
784,0.0
785,0.0
848,0.0
849,0.0
1121,0.0
1135,0.0
1161,0.0
1163,0.0
1166,0.0
1168,0.0
2,2, 1,21, 0,18, 0.00,60.00,Tuesday
7,19.4
545,23.316712756047938
546,23.871851268434693
547,20.286952991971017
548,107.20954932320227
720,-7696.546976292582
721,-7696.546976292582
784,0.0
785,0.0
848,0.0
849,0.0
1121,0.0
1135,0.0
1161,0.0
1163,0.0
1166,0.0
1168,0.0
2,2, 1,21, 0,19, 0.00,60.00,Tuesday
7,17.8
545,23.304683189406912
546,20.491126182760915
547,20.362401349684713
548,76.65134010462067
720,-6542.469957069847
721,-6542.469957069847
784,0.0
785,0.0
848,0.0
849,0.0
1121,0.0
1135,0.0
1161,0.0
1163,0.0
1166,0.0
1168,0.0
2,2, 1,21, 0,20, 0.00,60.00,Tuesday
7,16.7
545,23.325020992484617
546,18.186753289237952
547,20.43629078966109
548,60.84815622370129
720,-5777.676870845884
721,-5777.676870845884
784,0.0
785,0.0
848,0.0
849,0.0
1121,0.0
1135,0.0
1161,0.0
1163,0.0
1166,0.0
1168,0.0
2,2, 1,21, 0,21, 0.00,60.00,Tuesday
7,16.1
545,23.31207096246051
546,16.188414417610982
547,20.479935974676053
548,50.86378161704231
720,-5330.081300920207
721,-5330.081300920207
784,0.0
785,0.0
848,0.0
849,0.0
1121,0.0
1135,0.0
1161,0.0
1163,0.0
1166,0.0
1168,0.0
2,2, 1,21, 0,22, 0.00,60.00,Tuesday
7,16.1
545,23.356841166902743
546,14.969866025740606
547,20.49173185981549
548,38.634973416222344
720,-4786.579072974986
721,-4786.579072974986
784,0.0
785,0.0
848,0.0
849,0.0
1121,0.0
1135,0.0
1161,0.0
1163,0.0
1166,0.0
1168,0.0
2,2, 1,21, 0,23, 0.00,60.00,Tuesday
7,15.0
545,24.363690129975666
546,13.238957331079975
547,20.451578745572274
548,0.0
720,-5073.124649973623
721,-5073.124649973623
784,0.0
785,0.0
848,0.0
849,0.0
1121,0.0
1135,0.0
1161,0.0
1163,0.0
1166,0.0
1168,0.0
2,2, 1,21, 0,24, 0.00,60.00,Tuesday
7,14.0
545,24.233802193616356
546,12.041349477532668
547,20.428184048307436
548,0.0
720,-2583.221695818509
721,-2583.221695818509
784,0.0
785,0.0
848,0.0
849,0.0
1121,0.0
1135,0.0
1161,0.0
1163,0.0
1166,0.0
1168,0.0
2,3, 1,22, 0, 1, 0.00,60.00,Wednesday
7,13.0
545,23.75461118948139
546,10.63548663619069
547,20.388618463433016
548,0.0
720,-2276.8603667384314
721,-2276.8603667384314
784,0.0
785,0.0
848,0.0
849,0.0
1121,0.0
1135,0.0
1161,0.0
1163,0.0
1166,0.0
1168,0.0
2,3, 1,22, 0, 2, 0.00,60.00,Wednesday
7,14.0
545,23.53907315839352
546,9.688838382690317
547,20.33789522198377
548,0.0
720,-2036.7223554296033
721,-2036.7223554296033
784,0.0
785,0.0
848,0.0
849,0.0
1121,0.0
1135,0.0
1161,0.0
1163,0.0
1166,0.0
1168,0.0
2,3, 1,22, 0, 3, 0.00,60.00,Wednesday
7,13.0
545,23.082545150647103
546,8.834290321216425
547,20.27560059640772
548,0.0
720,-2323.758298374185
721,-2323.758298374185
784,0.0
785,0.0
848,0.0
849,0.0
1121,0.0
1135,0.0
1161,0.0
1163,0.0
1166,0.0
1168,0.0
2,3, 1,22, 0, 4, 0.00,60.00,Wednesday
7,13.0
545,22.794107590630368
546,9.257332834971445
547,20.20244572464097
548,0.0
720,-2046.0328495012873
721,-2046.0328495012873
784,0.0
785,0.0
848,0.0
849,0.0
1121,0.0
1135,0.0
1161,0.0
1163,0.0
1166,0.0
1168,0.0
2,3, 1,22, 0, 5, 0.00,60.00,Wednesday
7,13.0
545,22.569669168329384
546,10.104207523739893
547,20.121130428663644
548,0.0
720,-2267.6754364597437
721,-2267.6754364597437
784,0.0
785,0.0
848,0.0
849,0.0
1121,0.0
1135,0.0
1161,0.0
1163,0.0
1166,0.0
1168,0.0
2,3, 1,22, 0, 6, 0.00,60.00,Wednesday
7,12.0
545,22.383132311425253
546,10.498649116561468
547,20.062314633686317
548,0.0
720,-1606.6032695051
721,-1606.6032695051
784,0.0
785,0.0
848,0.0
849,0.0
1121,0.0
1135,0.0
1161,0.0
1163,0.0
1166,0.0
1168,0.0
2,3, 1,22, 0, 7, 0.00,60.00,Wednesday
7,12.0
545,22.27290574298526
546,10.645234911271638
547,20.016661716487665
548,0.0
720,-1513.0654217442434
721,-1513.0654217442434
784,0.0
785,0.0
848,0.0
849,0.0
1121,0.0
1135,0.0
1161,0.0
1163,0.0
1166,0.0
1168,0.0
2,3, 1,22, 0, 8, 0.00,60.00,Wednesday
7,12.2
545,22.166786719769092
546,11.009740442842318
547,19.969089197623777
548,0.0
720,-1474.938460776144
721,-1474.938460776144
784,0.0
785,0.0
848,0.0
849,0.0
1121,0.0
1135,0.0
1161,0.0
1163,0.0
1166,0.0
1168,0.0
2,3, 1,22, 0, 9, 0.00,60.00,Wednesday
7,13.0
545,22.77854769591829
546,13.414390171674693
547,19.922214622713643
548,0.0
720,-1828.6015424568595
721,-1828.6015424568595
784,0.0
785,0.0
848,0.0
849,0.0
1121,0.0
1135,0.0
1161,0.0
1163,0.0
1166,0.0
1168,0.0
2,3, 1,22, 0,10, 0.00,60.00,Wednesday
7,20.0
545,23.256302440205832
546,20.00872059246833
547,19.92998412458563
548,24.581028640552468
720,-3338.761448433741
721,-3338.761448433741
784,0.0
785,0.0
848,0.0
849,0.0
1121,0.0
1135,0.0
1161,0.0
1163,0.0
1166,0.0
1168,0.0
2,3, 1,22, 0,11, 0.00,60.00,Wednesday
7,21.0
545,23.315912027996074
546,26.123945421957252
547,19.983267584026784
548,49.77007814303542
720,-4017.510924244594
721,-4017.510924244594
784,0.0
785,0.0
848,0.0
849,0.0
1121,0.0
1135,0.0
1161,0.0
1163,0.0
1166,0.0
1168,0.0
2,3, 1,22, 0,12, 0.00,60.00,Wednesday
7,22.2
545,23.375092320046566
546,28.91970978464425
547,20.063439034486393
548,71.76646578160016
720,-5276.232897290005
721,-5276.232897290005
784,0.0
785,0.0
848,0.0
849,0.0
1121,0.0
1135,0.0
1161,0.0
1163,0.0
1166,0.0
1168,0.0
2,3, 1,22, 0,13, 0.00,60.00,Wednesday
7,23.3
545,23.377034193284377
546,30.52223676857173
547,20.160110495200392
548,82.47186179833841
720,-5892.603104535585
721,-5892.603104535585
784,0.0
785,0.0
848,0.0
849,0.0
1121,0.0
1135,0.0
1161,0.0
1163,0.0
1166,0.0
1168,0.0
2,3, 1,22, 0,14, 0.00,60.00,Wednesday
7,21.7
545,23.343227243170976
546,30.936592017515196
547,20.24073833878561
548,91.46841297242071
720,-6348.489300565494
721,-6348.489300565494
784,0.0
785,0.0
848,0.0
849,0.0
1121,0.0
1135,0.0
1161,0.0
1163,0.0
1166,0.0
1168,0.0
2,3, 1,22, 0,15, 0.00,60.00,Wednesday
7,22.8
545,23.36884492031438
546,30.91052025788295
547,20.375596098477207
548,106.43638191508558
720,-6970.329226612626
721,-6970.329226612626
784,0.0
785,0.0
848,0.0
849,0.0
1121,0.0
1135,0.0
1161,0.0
1163,0.0
1166,0.0
1168,0.0
2,3, 1,22, 0,16, 0.00,60.00,Wednesday
7,22.2
545,23.347160427836428
546,28.3081794265794
547,20.488033712076064
548,109.4389742093258
720,-7267.403600411195
721,-7267.403600411195
784,0.0
785,0.0
848,0.0
849,0.0
1121,0.0
1135,0.0
1161,0.0
1163,0.0
1166,0.0
1168,0.0
2,3, 1,22, 0,17, 0.00,60.00,Wednesday
7,21.1
545,23.329137367513788
546,27.028532794590742
547,20.604171466875005
548,113.59594817072599
720,-7593.310144130952
721,-7593.310144130952
784,0.0
785,0.0
848,0.0
849,0.0
1121,0.0
1135,0.0
1161,0.0
1163,0.0
1166,0.0
1168,0.0
2,3, 1,22, 0,18, 0.00,60.00,Wednesday
7,19.0
545,23.317012545728133
546,23.792550005820253
547,20.69675534316008
548,104.351744979903
720,-7412.457991716139
721,-7412.457991716139
784,0.0
785,0.0
848,0.0
849,0.0
1121,0.0
1135,0.0
1161,0.0
1163,0.0
1166,0.0
1168,0.0
2,3, 1,22, 0,19, 0.00,60.00,Wednesday
7,19.4
545,23.322046453298586
546,22.64604916851537
547,20.783671311275008
548,80.41255386688371
720,-6559.571033156277
721,-6559.571033156277
784,0.0
785,0.0
848,0.0
849,0.0
1121,0.0
1135,0.0
1161,0.0
1163,0.0
1166,0.0
1168,0.0
2,3, 1,22, 0,20, 0.00,60.00,Wednesday
7,18.9
545,23.303545952781263
546,20.557463929657853
547,20.850444661414098
548,66.9471607784187
720,-5881.327779443091
721,-5881.327779443091
784,0.0
785,0.0
848,0.0
849,0.0
1121,0.0
1135,0.0
1161,0.0
1163,0.0
1166,0.0
1168,0.0
2,3, 1,22, 0,21, 0.00,60.00,Wednesday
7,18.0
545,23.31186653627533
546,19.38428687292012
547,20.889300932981243
548,57.18192832771358
720,-5449.184487916731
721,-5449.184487916731
784,0.0
785,0.0
848,0.0
849,0.0
1121,0.0
1135,0.0
1161,0.0
1163,0.0
1166,0.0
1168,0.0
2,3, 1,22, 0,22, 0.00,60.00,Wednesday
7,18.0
545,23.328107262428276
546,18.41298322329264
547,20.906347239990527
548,45.437571293724254
720,-4935.653192316358
721,-4935.653192316358
784,0.0
785,0.0
848,0.0
849,0.0
1121,0.0
1135,0.0
1161,0.0
1163,0.0
1166,0.0
1168,0.0
2,3, 1,22, 0,23, 0.00,60.00,Wednesday
7,18.9
545,24.480721857996183
546,18.602650869225343
547,20.878969227135734
548,4.862544614129858
720,-5300.330979691495
721,-5300.330979691495
784,0.0
785,0.0
848,0.0
849,0.0
1121,0.0
1135,0.0
1161,0.0
1163,0.0
1166,0.0
1168,0.0
2,3, 1,22, 0,24, 0.00,60.00,Wednesday
7,19.4
545,24.33513221613999
546,19.102123075370947
547,20.87288968194616
548,5.842487341209094
720,-2760.0613437078664
721,-2760.0613437078664
784,0.0
785,0.0
848,0.0
849,0.0
1121,0.0
1135,0.0
1161,0.0
1163,0.0
1166,0.0
1168,0.0
2,4, 1,23, 0, 1, 0.00,60.00,Thursday
7,19.0
545,24.210950760624403
546,19.237720126558912
547,20.842149701610055
548,0.0
720,-3529.429372650565
721,-3529.429372650565
784,0.0
785,0.0
848,0.0
849,0.0
1121,0.0
1135,0.0
1161,0.0
1163,0.0
1166,0.0
1168,0.0
2,4, 1,23, 0, 2, 0.00,60.00,Thursday
7,18.0
545,24.01823681500283
546,18.42859875317396
547,20.816780308499453
548,0.0
720,-2991.048081780452
721,-2991.048081780452
784,0.0
785,0.0
848,0.0
849,0.0
1121,0.0
1135,0.0
1161,0.0
1163,0.0
1166,0.0
1168,0.0
2,4, 1,23, 0, 3, 0.00,60.00,Thursday
7,18.0
545,23.81725333400415
546,18.08444846983233
547,20.78539979250923
548,0.0
720,-2666.235877054056
721,-2666.235877054056
784,0.0
785,0.0
848,0.0
849,0.0
1121,0.0
1135,0.0
1161,0.0
1163,0.0
1166,0.0
1168,0.0
2,4, 1,23, 0, 4, 0.00,60.00,Thursday
7,18.0
545,23.80498342256056
546,17.957485435887442
547,20.74908168229548
548,0.0
720,-2141.803957567982
721,-2141.803957567982
784,0.0
785,0.0
848,0.0
849,0.0
1121,0.0
1135,0.0
1161,0.0
1163,0.0
1166,0.0
1168,0.0
2,4, 1,23, 0, 5, 0.00,60.00,Thursday
7,18.0
545,23.7430297087692
546,17.412855217937345
547,20.707687642086643
548,0.0
720,-2764.0472058570467
721,-2764.0472058570467
784,0.0
785,0.0
848,0.0
849,0.0
1121,0.0
1135,0.0
1161,0.0
1163,0.0
1166,0.0
1168,0.0
2,4, 1,23, 0, 6, 0.00,60.00,Thursday
7,18.9
545,23.358259137908952
546,17.891319957795783
547,20.684406558980857
548,13.824981089635004
720,-2443.8086685802946
721,-2443.8086685802946
784,0.0
785,0.0
848,0.0
849,0.0
1121,0.0
1135,0.0
1161,0.0
1163,0.0
1166,0.0
1168,0.0
2,4, 1,23, 0, 7, 0.00,60.00,Thursday
7,18.3
545,23.346989223255015
546,17.406616525753286
547,20.634074638382
548,10.179265876196036
720,-2311.2887317750265
721,-2311.2887317750265
784,0.0
785,0.0
848,0.0
849,0.0
1121,0.0
1135,0.0
1161,0.0
1163,0.0
1166,0.0
1168,0.0
2,4, 1,23, 0, 8, 0.00,60.00,Thursday
7,18.9
545,23.34430917973137
546,18.008369859572177
547,20.596708578643007
548,12.524062979280812
720,-2173.187118640446
721,-2173.187118640446
784,0.0
785,0.0
848,0.0
849,0.0
1121,0.0
1135,0.0
1161,0.0
1163,0.0
1166,0.0
1168,0.0
2,4, 1,23, 0, 9, 0.00,60.00,Thursday
7,19.0
545,23.284992773173187
546,19.358929305322807
547,20.570966224928238
548,20.73644341770053
720,-2639.3368261690193
721,-2639.3368261690193
784,0.0
785,0.0
848,0.0
849,0.0
1121,0.0
1135,0.0
1161,0.0
1163,0.0
1166,0.0
1168,0.0
2,4, 1,23, 0,10, 0.00,60.00,Thursday
7,17.0
545,23.076128460090146
546,19.245936234497954
547,20.561731560549557
548,38.040426677825764
720,-3782.1598011509614
721,-3782.1598011509614
784,0.0
785,0.0
848,0.0
849,0.0
1121,0.0
1135,0.0
1161,0.0
1163,0.0
1166,0.0
1168,0.0
2,4, 1,23, 0,11, 0.00,60.00,Thursday
7,17.2
545,23.305102192561957
546,21.047169742407334
547,20.56880438282612
548,52.51485883955724
720,-4909.939782507696
721,-4909.939782507696
784,0.0
785,0.0
848,0.0
849,0.0
1121,0.0
1135,0.0
1161,0.0
1163,0.0
1166,0.0
1168,0.0
2,4, 1,23, 0,12, 0.00,60.00,Thursday
7,17.2
545,23.316656721884122
546,22.507636077177498
547,20.60742592229211
548,61.90241422721209
720,-5504.32886305956
721,-5504.32886305956
784,0.0
785,0.0
848,0.0
849,0.0
1121,0.0
1135,0.0
1161,0.0
1163,0.0
1166,0.0
1168,0.0
2,4, 1,23, 0,13, 0.00,60.00,Thursday
7,18.3
545,23.376716752376886
546,24.340438511061514
547,20.663751013710453
548,67.00955284239873
720,-5958.0982941662805
721,-5958.0982941662805
784,0.0
785,0.0
848,0.0
849,0.0
1121,0.0
1135,0.0
1161,0.0
1163,0.0
1166,0.0
1168,0.0
2,4, 1,23, 0,14, 0.00,60.00,Thursday
7,18.3
545,23.35405045647077
546,25.20514871133301
547,20.737344555813998
548,75.10639582290611
720,-6408.074331069023
721,-6408.074331069023
784,0.0
785,0.0
848,0.0
849,0.0
1121,0.0
1135,0.0
1161,0.0
1163,0.0
1166,0.0
1168,0.0
2,4, 1,23, 0,15, 0.00,60.00,Thursday
7,18.3
545,23.35886504865946
546,25.530417332932473
547,20.82101934589874
548,84.7362731152004
720,-6953.5175324843985
721,-6953.5175324843985
784,0.0
785,0.0
848,0.0
849,0.0
1121,0.0
1135,0.0
1161,0.0
1163,0.0
1166,0.0
1168,0.0
2,4, 1,23, 0,16, 0.00,60.00,Thursday
7,17.8
545,23.352031917828583
546,25.353245196716966
547,20.911302463554847
548,93.047728102493
720,-7428.223973916618
721,-7428.223973916618
784,0.0
785,0.0
848,0.0
849,0.0
1121,0.0
1135,0.0
1161,0.0
1163,0.0
1166,0.0
1168,0.0
2,4, 1,23, 0,17, 0.00,60.00,Thursday
7,16.7
545,23.319055188169244
546,23.151785916006858
547,20.999324101826677
548,95.12605895980305
720,-7697.06921330958
721,-7697.06921330958
784,0.0
785,0.0
848,0.0
849,0.0
1121,0.0
1135,0.0
1161,0.0
1163,0.0
1166,0.0
1168,0.0
2,4, 1,23, 0,18, 0.00,60.00,Thursday
7,14.4
545,23.308849887721987
546,19.786956691505207
547,21.07038659084778
548,82.14258424243775
720,-7310.7592618032395
721,-7310.7592618032395
784,0.0
785,0.0
848,0.0
849,0.0
1121,0.0
1135,0.0
1161,0.0
1163,0.0
1166,0.0
1168,0.0
2,4, 1,23, 0,19, 0.00,60.00,Thursday
7,12.2
545,23.298100367745434
546,16.08590701662234
547,21.12692794225947
548,47.7988182457888
720,-5961.762504908751
721,-5961.762504908751
784,0.0
785,0.0
848,0.0
849,0.0
1121,0.0
1135,0.0
1161,0.0
1163,0.0
1166,0.0
1168,0.0
2,4, 1,23, 0,20, 0.00,60.00,Thursday
7,10.0
545,23.180069671995266
546,13.071308917377984
547,21.16375047367932
548,28.444144981956477
720,-4911.452323172394
721,-4911.452323172394
784,0.0
785,0.0
848,0.0
849,0.0
1121,0.0
1135,0.0
1161,0.0
1163,0.0
1166,0.0
1168,0.0
2,4, 1,23, 0,21, 0.00,60.00,Thursday
7,8.9
545,23.372228068466555
546,11.137186087652008
547,21.165217891946693
548,13.930691185954561
720,-4226.162811986844
721,-4226.162811986844
784,0.0
785,0.0
848,0.0
849,0.0
1121,0.0
1135,0.0
1161,0.0
1163,180.10216771120943
1166,0.0
1168,0.0
2,4, 1,23, 0,22, 0.00,60.00,Thursday
7,7.8
545,23.06832557196825
546,9.617312531905371
547,21.129337994373685
548,2.989506286095736
720,-3473.988314073664
721,-3473.988314073664
784,0.0
785,0.0
848,0.0
849,0.0
1121,0.0
1135,0.0
1161,0.0
1163,195.72995381830066
1166,0.0
1168,0.0
2,4, 1,23, 0,23, 0.00,60.00,Thursday
7,6.1
545,22.56167116171267
546,7.971138090667733
547,21.068352043921298
548,0.0
720,-3611.9564478707016
721,-3611.9564478707016
784,0.0
785,0.0
848,0.0
849,0.0
1121,0.0
1135,0.0
1161,0.0
1163,200.0
1166,0.0
1168,0.0
2,4, 1,23, 0,24, 0.00,60.00,Thursday
7,5.6
545,21.85522527657695
546,6.9386842886898
547,20.98352949579437
548,0.0
720,-2872.7946346687786
721,-2872.7946346687786
784,0.0
785,0.0
848,0.0
849,0.0
1121,0.0
1135,0.0
1161,0.0
1163,200.0
1166,0.0
1168,0.0
2,5, 1,24, 0, 1, 0.00,60.00,Friday
7,4.4
545,21.0555132354337
546,5.567793402970822
547,20.873496242817403
548,0.0
720,-2129.076229411732
721,-2129.076229411732
784,0.0
785,0.0
848,0.0
849,0.0
1121,0.0
1135,0.0
1161,0.0
1163,200.0
1166,0.0
1168,0.0
2,5, 1,24, 0, 2, 0.00,60.00,Friday
7,4.4
545,19.933805712130606
546,5.33010941150411
547,20.7398624042629
548,0.0
720,-1171.5127011642944
721,-1171.5127011642944
784,0.0
785,0.0
848,0.0
849,0.0
1121,0.0
1135,0.0
1161,0.0
1163,200.0
1166,0.0
1168,0.0
2,5, 1,24, 0, 3, 0.00,60.00,Friday
7,3.9
545,19.29462816392889
546,4.69110748809927
547,20.58910661616733
548,0.0
720,-631.1979315507488
721,-631.1979315507488
784,0.0
785,0.0
848,0.0
849,0.0
1121,0.0
1135,0.0
1161,0.0
1163,200.0
1166,0.0
1168,0.0
2,5, 1,24, 0, 4, 0.00,60.00,Friday
7,3.3
545,18.596009714704692
546,4.150907142468323
547,20.394041343169793
548,7.349560491574385
720,194.35849751802925
721,194.35849751802925
784,0.0
785,0.0
848,0.0
849,0.0
1121,235.9164951930478
1135,75.28868265149832
1161,0.0035404387176744263
1163,189.5022562510143
1166,0.0
1168,0.0
2,5, 1,24, 0, 5, 0.00,60.00,Friday
7,3.3
545,18.633490143202327
546,4.108198215989937
547,20.211075807034316
548,26.926658542028456
720,704.8560116046538
721,704.8560116046538
784,0.0
785,0.0
848,0.0
849,0.0
1121,878.2849775126468
1135,271.324131149264
1161,0.5493288968506419
1163,161.53383028191456
1166,0.0
1168,0.0
2,5, 1,24, 0, 6, 0.00,60.00,Friday
7,2.8
545,19.24848283806259
546,4.124134196111356
547,20.021800627478786
548,59.165943122228
720,1532.723889464678
721,1532.723889464678
784,0.0
785,0.0
848,0.0
849,0.0
1121,1943.2597239816482
1135,590.1371681314766
1161,3.733707593664341
1163,115.44678591789932
1166,0.0
1168,0.0
2,5, 1,24, 0, 7, 0.00,60.00,Friday
7,2.8
545,19.51577776231343
546,4.246262250789732
547,19.906431632016677
548,74.08623669519487
720,1850.0380080210925
721,1850.0380080210925
784,0.0
785,0.0
848,0.0
849,0.0
1121,2433.9564954534326
1135,741.065732748833
1161,9.438444514045823
1163,94.06718604133242
1166,0.0
1168,0.0
2,5, 1,24, 0, 8, 0.00,60.00,Friday
7,2.8
545,19.70967168842508
546,4.348533377985103
547,19.791448474507877
548,73.30545537003707
720,1760.4571901982472
721,1760.4571901982472
784,0.0
785,0.0
848,0.0
849,0.0
1121,2381.735306378658
1135,730.6207113618619
1161,13.963707447734832
1163,95.12700256957882
1166,0.0
1168,0.0
2,5, 1,24, 0, 9, 0.00,60.00,Friday
7,5.0
545,19.863675363594403
546,6.244996096571443
547,19.71587132965317
548,44.51747699952485
720,1059.3283619070717
721,1059.3283619070717
784,0.0
785,0.0
848,0.0
849,0.0
1121,1508.7195001045836
1135,458.9202423547992
1161,5.504622166523754
1163,136.3825877292354
1166,0.0
1168,0.0
2,5, 1,24, 0,10, 0.00,60.00,Friday
7,7.8
545,19.989233562161168
546,9.486037499461538
547,19.651901580783914
548,0.0
720,-15.579305453304187
721,-15.579305453304187
784,0.0
785,0.0
848,0.0
849,0.0
1121,0.0
1135,0.0
1161,0.0
1163,200.0
1166,0.0
1168,0.0
2,5, 1,24, 0,11, 0.00,60.00,Friday
7,10.6
545,21.023770982633526
546,14.017939033662213