Program Version,EnergyPlus, Version 22.2.0-c249759bad, YMD=2023.09.01 14:30
1,5,Environment Title[],Latitude[deg],Longitude[deg],Time Zone[],Elevation[m]
2,8,Day of Simulation[],Month[],Day of Month[],DST Indicator[1=yes 0=no],Hour[],StartMinute[],EndMinute[],DayType
3,5,Cumulative Day of Simulation[],Month[],Day of Month[],DST Indicator[1=yes 0=no],DayType  ! When Daily Report Variables Requested
4,2,Cumulative Days of Simulation[],Month[]  ! When Monthly Report Variables Requested
5,1,Cumulative Days of Simulation[] ! When Run Period Report Variables Requested
6,1,Calendar Year of Simulation[] ! When Annual Report Variables Requested
7,1,Environment,Site Outdoor Air Drybulb Temperature [C] !Hourly
619,1,DX_HEATING_COIL,Heating Coil Heating Rate [W] !Hourly
633,1,DX_HEATING_COIL,Heating Coil Electricity Rate [W] !Hourly
659,1,DX_HEATING_COIL,Heating Coil Defrost Electricity Rate [W] !Hourly
661,1,DX_HEATING_COIL,Heating Coil Crankcase Heater Electricity Rate [W] !Hourly
690,1,FAN,Fan Electricity Rate [W] !Hourly
716,1,HEAT PUMP WATER HEATER FAN,Fan Electricity Rate [W] !Hourly
718,1,LIVING,Zone Mean Air Temperature [C] !Hourly
719,1,ATTIC,Zone Mean Air Temperature [C] !Hourly
720,1,CRAWLSPACE,Zone Mean Air Temperature [C] !Hourly
843,1,LIVING,Zone Predicted Sensible Load to Heating Setpoint Heat Transfer Rate [W] !Hourly
844,1,LIVING,Zone System Predicted Sensible Load to Heating Setpoint Heat Transfer Rate [W] !Hourly
907,1,ATTIC,Zone Predicted Sensible Load to Heating Setpoint Heat Transfer Rate [W] !Hourly
908,1,ATTIC,Zone System Predicted Sensible Load to Heating Setpoint Heat Transfer Rate [W] !Hourly
971,1,CRAWLSPACE,Zone Predicted Sensible Load to Heating Setpoint Heat Transfer Rate [W] !Hourly
972,1,CRAWLSPACE,Zone System Predicted Sensible Load to Heating Setpoint Heat Transfer Rate [W] !Hourly
1195,1,HEATING_RESISTANCE_BACKUP,Heating Coil Heating Rate [W] !Hourly
1197,1,HEATING_RESISTANCE_BACKUP,Heating Coil Electricity Rate [W] !Hourly
End of Data Dictionary
1,EXTREME_WINTER,  30.48, -81.70,  -5.00,   7.90
2,1, 1,27, 0, 1, 0.00,60.00,Monday
7,6.1
718,21.22807452027977
719,5.090946821642196
720,20.427692393977132
619,0.0
633,0.0
659,0.0
661,200.0
690,0.0
716,0.0
843,-2042.2563189176344
844,-2042.2563189176344
907,0.0
908,0.0
971,0.0
972,0.0
1195,0.0
1197,0.0
2,1, 1,27, 0, 2, 0.00,60.00,Monday
7,6.1
718,20.55292570928626
719,5.312951489329395
720,20.251994913895263
619,0.0
633,0.0
659,0.0
661,200.0
690,0.0
716,0.0
843,-1588.9364712476508
844,-1588.9364712476508
907,0.0
908,0.0
971,0.0
972,0.0
1195,0.0
1197,0.0
2,1, 1,27, 0, 3, 0.00,60.00,Monday
7,4.4
718,19.8956017656458
719,4.462717809929657
720,20.119704692524678
619,0.0
633,0.0
659,0.0
661,200.0
690,0.0
716,0.0
843,-1007.3000692929672
844,-1007.3000692929672
907,0.0
908,0.0
971,0.0
972,0.0
1195,0.0
1197,0.0
2,1, 1,27, 0, 4, 0.00,60.00,Monday
7,4.4
718,19.12523707145695
719,4.13612609012896
720,19.981311489609705
619,0.0
633,0.0
659,0.0
661,200.0
690,0.0
716,0.0
843,-392.37755207480404
844,-392.37755207480404
907,0.0
908,0.0
971,0.0
972,0.0
1195,0.0
1197,0.0
2,1, 1,27, 0, 5, 0.00,60.00,Monday
7,4.4
718,18.637740163154767
719,3.8989226459198734
720,19.846479007386524
619,35.62754135512766
633,11.218434130750634
659,0.9495708285188894
661,198.38497000097038
690,1.1841372778299897
716,0.0
843,6.842304559279
844,6.842304559279
907,0.0
908,0.0
971,0.0
972,0.0
1195,0.0
1197,0.0
2,1, 1,27, 0, 6, 0.00,60.00,Monday
7,2.8
718,19.60143674655538
719,3.529148630208923
720,19.648113595652404
619,1501.6302565079454
633,463.1943345894147
659,42.07460391955896
661,131.25863582689624
690,50.24700684684852
716,0.0
843,1132.5841540910096
844,1132.5841540910096
907,0.0
908,0.0
971,0.0
972,0.0
1195,0.0
1197,0.0
2,1, 1,27, 0, 7, 0.00,60.00,Monday
7,2.2
718,19.566389923790155
719,3.6121689231911227
720,19.49593596828438
619,2977.5235431394494
633,914.8953034657859
659,92.01134921696168
661,64.06481829214408
690,99.1432613380484
716,85.44000000000004
843,1089.3187995740373
844,1089.3187995740373
907,0.0
908,0.0
971,0.0
972,0.0
1195,0.0
1197,0.0
2,1, 1,27, 0, 8, 0.00,60.00,Monday
7,2.2
718,19.69207831514622
719,3.190827790338098
720,19.386853955918433
619,2358.2638215762104
633,735.4307581134537
659,74.01409872111722
661,90.65348955079166
690,79.75115210670364
716,39.00459708717
843,1193.0019699679287
844,1193.0019699679287
907,0.0
908,0.0
971,0.0
972,0.0
1195,0.0
1197,0.0
2,1, 1,27, 0, 9, 0.00,60.00,Monday
7,6.1
718,19.873377918683985
719,5.322201176940055
720,19.324500979171884
619,642.5132364177376
633,180.30921483611718
659,0.0
661,178.5928950568899
690,15.764176679145496
716,0.0
843,481.5877364657663
844,481.5877364657663
907,0.0
908,0.0
971,0.0
972,0.0
1195,0.0
1197,0.0
2,1, 1,27, 0,10, 0.00,60.00,Monday
7,9.4
718,20.06234431144801
719,9.520372268331016
720,19.218624454042224
619,0.0
633,0.0
659,0.0
661,200.0
690,0.0
716,0.0
843,-437.02339348189344
844,-437.02339348189344
907,0.0
908,0.0
971,0.0
972,0.0
1195,0.0
1197,0.0
2,1, 1,27, 0,11, 0.00,60.00,Monday
7,9.4
718,20.86236793265229
719,12.630915909006074
720,19.144793938819895
619,0.0
633,0.0
659,0.0
661,200.0
690,0.0
716,0.0
843,-901.9856946490308
844,-901.9856946490308
907,0.0
908,0.0
971,0.0
972,0.0
1195,0.0
1197,0.0
2,1, 1,27, 0,12, 0.00,60.00,Monday
7,13.3
718,21.938108265584304
719,16.76560106180322
720,19.10505599816603
619,0.0
633,0.0
659,0.0
661,0.0
690,0.0
716,0.0
843,-1739.297147743997
844,-1739.297147743997
907,0.0
908,0.0
971,0.0
972,0.0
1195,0.0
1197,0.0
2,1, 1,27, 0,13, 0.00,60.00,Monday
7,15.0
718,23.154612559803265
719,21.20290565283543
720,19.09696205297162
619,0.0
633,0.0
659,0.0
661,0.0
690,0.0
716,0.0
843,-2366.9755003373066
844,-2366.9755003373066
907,0.0
908,0.0
971,0.0
972,0.0
1195,0.0
1197,0.0
2,1, 1,27, 0,14, 0.00,60.00,Monday
7,15.0
718,23.0105547966537
719,23.271207525965895
720,19.115937862379187
619,0.0
633,0.0
659,0.0
661,0.0
690,0.0
716,62.764763406161805
843,-3489.0681952406794
844,-3489.0681952406794
907,0.0
908,0.0
971,0.0
972,0.0
1195,0.0
1197,0.0
2,1, 1,27, 0,15, 0.00,60.00,Monday
7,16.7
718,23.29782718065769
719,22.156830781534843
720,19.18818277987765
619,0.0
633,0.0
659,0.0
661,0.0
690,26.68839603902937
716,0.0
843,-4141.333396119309
844,-4141.333396119309
907,0.0
908,0.0
971,0.0
972,0.0
1195,0.0
1197,0.0
2,1, 1,27, 0,16, 0.00,60.00,Monday
7,16.1
718,23.385527899640696
719,21.30673415589634
720,19.288191250559564
619,0.0
633,0.0
659,0.0
661,0.0
690,43.793511875899185
716,0.0
843,-5247.931429627884
844,-5247.931429627884
907,0.0
908,0.0
971,0.0
972,0.0
1195,0.0
1197,0.0
2,1, 1,27, 0,17, 0.00,60.00,Monday
7,16.1
718,23.340081854575214
719,19.859383502639172
720,19.397985584418052
619,0.0
633,0.0
659,0.0
661,0.0
690,57.57132772272055
716,0.0
843,-6073.127817639928
844,-6073.127817639928
907,0.0
908,0.0
971,0.0
972,0.0
1195,0.0
1197,0.0
2,1, 1,27, 0,18, 0.00,60.00,Monday
7,12.8
718,23.37876155007003
719,18.090780184768448
720,19.478552432718192
619,0.0
633,0.0
659,0.0
661,0.0
690,52.04508676309329
716,0.0
843,-6019.779093790508
844,-6019.779093790508
907,0.0
908,0.0
971,0.0
972,0.0
1195,0.0
1197,0.0
2,1, 1,27, 0,19, 0.00,60.00,Monday
7,10.6
718,23.377184619653057
719,15.492615166495764
720,19.516834381266573
619,0.0
633,0.0
659,0.0
661,0.0
690,7.753795177875369
716,73.48668041542643
843,-5085.079593276998
844,-5085.079593276998
907,0.0
908,0.0
971,0.0
972,0.0
1195,0.0
1197,0.0
2,1, 1,27, 0,20, 0.00,60.00,Monday
7,10.6
718,23.36066419286932
719,12.652339929806315
720,19.571539300140806
619,0.0
633,0.0
659,0.0
661,0.0
690,2.4899693123381925
716,66.44123889223009
843,-4420.627477723752
844,-4420.627477723752
907,0.0
908,0.0
971,0.0
972,0.0
1195,0.0
1197,0.0
2,1, 1,27, 0,21, 0.00,60.00,Monday
7,7.2
718,23.159358865083625
719,9.904611289537385
720,19.602589630979413
619,0.0
633,0.0
659,0.0
661,176.31112945777318
690,17.444467224759382
716,0.0
843,-3973.8766323886757
844,-3973.8766323886757
907,0.0
908,0.0
971,0.0
972,0.0
1195,0.0
1197,0.0
2,1, 1,27, 0,22, 0.00,60.00,Monday
7,6.1
718,23.311498671825877
719,7.874734698964331
720,19.58605329728527
619,0.0
633,0.0
659,0.0
661,196.89064612168505
690,2.289725959021792
716,0.0
843,-3280.6467595688937
844,-3280.6467595688937
907,0.0
908,0.0
971,0.0
972,0.0
1195,0.0
1197,0.0
2,1, 1,27, 0,23, 0.00,60.00,Monday
7,6.1
718,22.891160285213623
719,6.4574243859334
720,19.55967060838186
619,0.0
633,0.0
659,0.0
661,200.0
690,0.0
716,0.0
843,-3224.4123787597655
844,-3224.4123787597655
907,0.0
908,0.0
971,0.0
972,0.0
1195,0.0
1197,0.0
2,1, 1,27, 0,24, 0.00,60.00,Monday
7,4.4
718,22.09687667345672
719,4.484008474370614
720,19.51536022554479
619,0.0
633,0.0
659,0.0
661,200.0
690,0.0
716,0.0
843,-2574.1082455641954
844,-2574.1082455641954
907,0.0
908,0.0
971,0.0
972,0.0
1195,0.0
1197,0.0
2,2, 1,28, 0, 1, 0.00,60.00,Tuesday
7,2.8
718,21.155430679150037
719,3.2120451411735393
720,19.453417993846966
619,0.0
633,0.0
659,0.0
661,200.0
690,0.0
716,0.0
843,-1952.251807182949
844,-1952.251807182949
907,0.0
908,0.0
971,0.0
972,0.0
1195,0.0
1197,0.0
2,2, 1,28, 0, 2, 0.00,60.00,Tuesday
7,2.8
718,20.440651451692737
719,2.5320607126629713
720,19.380287469155608
619,0.0
633,0.0
659,0.0
661,200.0
690,0.0
716,0.0
843,-1449.5250537816828
844,-1449.5250537816828
907,0.0
908,0.0
971,0.0
972,0.0
1195,0.0
1197,0.0
2,2, 1,28, 0, 3, 0.00,60.00,Tuesday
7,3.9
718,19.703882576896216
719,2.683807254934491
720,19.29300010679785
619,0.0
633,0.0
659,0.0
661,200.0
690,0.0
716,0.0
843,-840.2013764896437
844,-840.2013764896437
907,0.0
908,0.0
971,0.0
972,0.0
1195,0.0
1197,0.0
2,2, 1,28, 0, 4, 0.00,60.00,Tuesday
7,3.3
718,18.99059354736986
719,2.39235273147528
720,19.19766316211254
619,0.0
633,0.0
659,0.0
661,200.0
690,0.0
716,0.0
843,-287.7564575174838
844,-287.7564575174838
907,0.0
908,0.0
971,0.0
972,0.0
1195,0.0
1197,0.0
2,2, 1,28, 0, 5, 0.00,60.00,Tuesday
7,3.3
718,18.639994535884327
719,2.3130142553870567
720,19.089725740841647
619,202.18977381972533
633,64.34967760184229
659,4.9340184855856934
661,190.7170531731802
690,6.798075225809514
716,0.0
843,124.17178338633857
844,124.17178338633857
907,0.0
908,0.0
971,0.0
972,0.0
1195,0.0
1197,0.0
2,2, 1,28, 0, 6, 0.00,60.00,Tuesday
7,2.2
718,19.347101988798045
719,2.4240034003044917
720,18.934363621519914
619,1440.7338246348713
633,449.2632369125809
659,35.218198397348814
661,134.01498527203302
690,48.236041418418026
716,0.0
843,1060.0268947058457
844,1060.0268947058457
907,0.0
908,0.0
971,0.0
972,0.0
1195,0.0
1197,0.0
2,2, 1,28, 0, 7, 0.00,60.00,Tuesday
7,1.7
718,19.398391239163896
719,3.2032727635506366
720,18.78638441032079
619,3549.6477119708475
633,1077.3260837044265
659,87.22306029946547
661,42.49743094803298
690,114.99817744830438
716,82.75840631261754
843,1477.8397419774083
844,1477.8397419774083
907,0.0
908,0.0
971,0.0
972,0.0
1195,0.0
1197,0.0
2,2, 1,28, 0, 8, 0.00,60.00,Tuesday
7,1.7
718,19.554698603531747
719,3.4088373219908066
720,18.685286599114225
619,3865.275189490337
633,1165.3361678991193
659,94.27031534012939
661,29.77188830073154
690,124.28932929707373
716,85.44000000000004
843,1672.4038375599794
844,1672.4038375599794
907,0.0
908,0.0
971,0.0
972,0.0
1195,0.0
1197,0.0
2,2, 1,28, 0, 9, 0.00,60.00,Tuesday
7,5.0
718,19.744459127002454
719,5.740384536352246
720,18.64608001746598
619,2148.658009492677
633,642.3664864708263
659,39.54222538639653
661,111.38219603650579
690,65.09550493939652
716,29.423025142401915
843,1175.960221976371
844,1175.960221976371
907,0.0
908,0.0
971,0.0
972,0.0
1195,0.0
1197,0.0
2,2, 1,28, 0,10, 0.00,60.00,Tuesday
7,7.2
718,19.89317857099067
719,8.99764756125107
720,18.58055301313557
619,333.42108816371757
633,92.67059358401421
659,0.0
661,189.12987885936755
690,8.004749387646486
716,0.0
843,252.64303159421615
844,252.64303159421615
907,0.0
908,0.0
971,0.0
972,0.0
1195,0.0
1197,0.0
2,2, 1,28, 0,11, 0.00,60.00,Tuesday
7,7.2
718,20.43877895196716
719,11.861678181312561
720,18.521676180537668
619,0.0
633,0.0
659,0.0
661,200.0
690,0.0
716,0.0
843,-560.8377409916902
844,-560.8377409916902
907,0.0
908,0.0
971,0.0
972,0.0
1195,0.0
1197,0.0
2,2, 1,28, 0,12, 0.00,60.00,Tuesday
7,11.1
718,21.639018483251583
719,17.290436637105728
720,18.497138421617112
619,0.0
633,0.0
659,0.0
661,0.0
690,0.0
716,0.0
843,-1517.329785673779
844,-1517.329785673779
907,0.0
908,0.0
971,0.0
972,0.0
1195,0.0
1197,0.0
2,2, 1,28, 0,13, 0.00,60.00,Tuesday
7,11.7
718,22.37724258916317
719,20.667052297839113
720,18.499892960820933
619,0.0
633,0.0
659,0.0
661,0.0
690,0.0
716,0.0
843,-1896.6649112848118
844,-1896.6649112848118
907,0.0
908,0.0
971,0.0
972,0.0
1195,0.0
1197,0.0
2,2, 1,28, 0,14, 0.00,60.00,Tuesday
7,11.7
718,23.229939297270857
719,22.67354178293409
720,18.530312639581098
619,0.0
633,0.0
659,0.0
661,0.0
690,0.0
716,0.0
843,-2554.2463036272366
844,-2554.2463036272366
907,0.0
908,0.0
971,0.0
972,0.0
1195,0.0
1197,0.0
2,2, 1,28, 0,15, 0.00,60.00,Tuesday
7,11.7
718,23.313660422676705
719,22.918008646288307
720,18.60415969650746
619,0.0
633,0.0
659,0.0
661,0.0
690,18.172034064006013
716,0.0
843,-3370.0929397854416
844,-3370.0929397854416
907,0.0
908,0.0
971,0.0
972,0.0
1195,0.0
1197,0.0
2,2, 1,28, 0,16, 0.00,60.00,Tuesday
7,11.7
718,23.378860957717595
719,22.379409542299136
720,18.709145052717346
619,0.0
633,0.0
659,0.0
661,0.0
690,37.1667498855554
716,0.0
843,-4749.858640266599
844,-4749.858640266599
907,0.0
908,0.0
971,0.0
972,0.0
1195,0.0
1197,0.0
2,2, 1,28, 0,17, 0.00,60.00,Tuesday
7,11.7
718,23.332242471589993
719,20.293258648992218
720,18.827606781851973
619,0.0
633,0.0
659,0.0
661,0.0
690,51.511113356579976
716,0.0
843,-5700.82409340991
844,-5700.82409340991
907,0.0
908,0.0
971,0.0
972,0.0
1195,0.0
1197,0.0
2,2, 1,28, 0,18, 0.00,60.00,Tuesday
7,7.8
718,23.244399914769183
719,16.188307117852435
720,18.908931514677015
619,0.0
633,0.0
659,0.0
661,140.3814073327014
690,43.90308874866287
716,0.0
843,-5627.303142058907
844,-5627.303142058907
907,0.0
908,0.0
971,0.0
972,0.0
1195,0.0
1197,0.0
2,2, 1,28, 0,19, 0.00,60.00,Tuesday
7,6.7
718,23.138394086619723
719,12.984341817966143
720,18.950821050122585
619,0.0
633,0.0
659,0.0
661,200.0
690,0.0
716,83.54978462673206
843,-4626.005419541514
844,-4626.005419541514
907,0.0
908,0.0
971,0.0
972,0.0
1195,0.0
1197,0.0
2,2, 1,28, 0,20, 0.00,60.00,Tuesday
7,7.0
718,22.78559200457205
719,10.092856364772988
720,19.01121753536699
619,0.0
633,0.0
659,0.0
661,200.0
690,0.0
716,85.44000000000004
843,-3974.8451940823543
844,-3974.8451940823543
907,0.0
908,0.0
971,0.0
972,0.0
1195,0.0
1197,0.0
2,2, 1,28, 0,21, 0.00,60.00,Tuesday
7,3.9
718,22.873983274630994
719,7.312106608794809
720,19.031259782446636
619,0.0
633,0.0
659,0.0
661,200.0
690,0.0
716,30.668188391487238
843,-3402.972125099208
844,-3402.972125099208
907,0.0
908,0.0
971,0.0
972,0.0
1195,0.0
1197,0.0
2,2, 1,28, 0,22, 0.00,60.00,Tuesday
7,2.8
718,22.779876097599914
719,4.76374384228272
720,19.02093179574283
619,0.0
633,0.0
659,0.0
661,200.0
690,0.0
716,0.0
843,-2605.3142828927485
844,-2605.3142828927485
907,0.0
908,0.0
971,0.0
972,0.0
1195,0.0
1197,0.0
2,2, 1,28, 0,23, 0.00,60.00,Tuesday
7,2.8
718,22.164809314796095
719,2.8974883224255708
720,18.989278329727792
619,0.0
633,0.0
659,0.0
661,200.0
690,0.0
716,0.0
843,-2758.1568261327648
844,-2758.1568261327648
907,0.0
908,0.0
971,0.0
972,0.0
1195,0.0
1197,0.0
2,2, 1,28, 0,24, 0.00,60.00,Tuesday
7,1.1
718,21.212951353168872
719,1.2009938237643254
720,18.94022846347046
619,0.0
633,0.0
659,0.0
661,200.0
690,0.0
716,0.0
843,-2032.2211069843743
844,-2032.2211069843743
907,0.0
908,0.0
971,0.0
972,0.0
1195,0.0
1197,0.0
2,3, 1,29, 0, 1, 0.00,60.00,Wednesday
7,1.1
718,20.412464784798505
719,-0.2589666838726789
720,18.874435057018015
619,0.0
633,0.0
659,0.0
661,200.0
690,0.0
716,0.0
843,-1454.2350136460009
844,-1454.2350136460009
907,0.0
908,0.0
971,0.0
972,0.0
1195,0.0
1197,0.0
2,3, 1,29, 0, 2, 0.00,60.00,Wednesday
7,1.1
718,19.654863526208125
719,-1.364639074186799
720,18.795056621679226
619,0.0
633,0.0
659,0.0
661,200.0
690,0.0
716,0.0
843,-816.4102692406177
844,-816.4102692406177
907,0.0
908,0.0
971,0.0
972,0.0
1195,0.0
1197,0.0
2,3, 1,29, 0, 3, 0.00,60.00,Wednesday
7,0.0
718,18.78504478753574
719,-2.3788730959759574
720,18.705468333295773
619,0.0
633,0.0
659,0.0
661,200.0
690,0.0
716,0.0
843,-132.0238295830186
844,-132.0238295830186
907,0.0
908,0.0
971,0.0
972,0.0
1195,0.0
1197,0.0
2,3, 1,29, 0, 4, 0.00,60.00,Wednesday
7,0.0
718,18.573111806073594
719,-2.718530204630314
720,18.579671955082027
619,620.9272118693845
633,207.20166699843895
659,19.701999022552922
661,168.43874017916337
690,22.934290588181483
716,0.0
843,422.5303158982897
844,422.5303158982897
907,0.0
908,0.0
971,0.0
972,0.0
1195,0.0
1197,0.0
2,3, 1,29, 0, 5, 0.00,60.00,Wednesday
7,0.0
718,18.57735253848404
719,-2.9272613011824644
720,18.463672931460067
619,1026.974203622363
633,337.00508720053864
659,32.18531380916069
661,148.441320579537
690,37.466149933794426
716,0.0
843,691.281069081032
844,691.281069081032
907,0.0
908,0.0
971,0.0
972,0.0
1195,0.0
1197,0.0
2,3, 1,29, 0, 6, 0.00,60.00,Wednesday
7,0.0
718,19.030614458413886
719,-1.1566244858820973
720,18.253730674111985
619,3958.9928638956103
633,1201.1532360021367
659,103.60614313266048
661,18.26086064123553
690,132.23452525706085
716,73.58323384537235
843,1752.6447360670882
844,1752.6447360670882
907,0.0
908,0.0
971,0.0
972,0.0
1195,0.0
1197,0.0
2,3, 1,29, 0, 7, 0.00,60.00,Wednesday
7,0.6
718,19.288959906458018
719,-0.5520093439959197
720,18.188371899808395
619,4446.962748101179
633,1318.1623110285436
659,129.69575130621348
661,0.0
690,147.27985611355822
716,85.44000000000004
843,2108.184472029723
844,2108.184472029723
907,0.0
908,0.0
971,0.0
972,0.0
1195,257.66344659310744
1197,257.66344659310744
2,3, 1,29, 0, 8, 0.00,60.00,Wednesday
7,0.6
718,19.611561237702457
719,0.4155607990432614
720,18.10733889793804
619,3644.941572331827
633,1121.9919260814136
659,109.82876806835786
661,30.63628999064032
690,123.16063739661962
716,23.424119254969295
843,2148.7610500826904
844,2148.7610500826904
907,0.0
908,0.0
971,0.0
972,0.0
1195,0.0
1197,0.0
2,3, 1,29, 0, 9, 0.00,60.00,Wednesday
7,5.6
718,19.828814880876156
719,2.94409901139135
720,18.07903183718349
619,2011.0394947987177
633,552.5383758647403
659,0.0
661,133.8738344752113
690,48.69526071916106
716,0.0
843,1469.1204283935094
844,1469.1204283935094
907,0.0
908,0.0
971,0.0
972,0.0
1195,0.0
1197,0.0
2,3, 1,29, 0,10, 0.00,60.00,Wednesday
7,10.6
718,19.933381896602206
719,9.662238497194311
720,17.998495606893364
619,188.03218202403727
633,50.24201043742982
659,0.0
661,0.0
690,4.166301280696379
716,0.0
843,137.13618335421052
844,137.13618335421052
907,0.0
908,0.0
971,0.0
972,0.0
1195,0.0
1197,0.0
2,3, 1,29, 0,11, 0.00,60.00,Wednesday
7,10.6
718,20.788834145108538
719,17.631285864468822
720,17.946187641650162
619,0.0
633,0.0
659,0.0
661,0.0
690,0.0
716,0.0
843,-941.1245227522031
844,-941.1245227522031
907,0.0
908,0.0
971,0.0
972,0.0
1195,0.0
1197,0.0
2,3, 1,29, 0,12, 0.00,60.00,Wednesday
7,15.0
718,21.9430334274957
719,25.717274241864196
720,17.936098216666647
619,0.0
633,0.0
659,0.0
661,0.0
690,0.0
716,0.0
843,-1908.6116828643626
844,-1908.6116828643626
907,0.0
908,0.0
971,0.0
972,0.0
1195,0.0
1197,0.0
2,3, 1,29, 0,13, 0.00,60.00,Wednesday
7,17.2
718,22.95287375184347
719,32.50757948561071
720,17.965917371473473
619,0.0
633,0.0
659,0.0
661,0.0
690,0.0
716,0.0
843,-2763.480081563819
844,-2763.480081563819
907,0.0
908,0.0
971,0.0
972,0.0
1195,0.0
1197,0.0
2,3, 1,29, 0,14, 0.00,60.00,Wednesday
7,17.2
718,23.29634638764461
719,35.204940917570745
720,18.05813538382663
619,0.0
633,0.0
659,0.0
661,0.0
690,15.963303399679035
716,0.0
843,-3568.505957860205
844,-3568.505957860205
907,0.0
908,0.0
971,0.0
972,0.0
1195,0.0
1197,0.0
2,3, 1,29, 0,15, 0.00,60.00,Wednesday
7,18.3
718,23.243031873901373
719,30.901139749327328
720,18.179278210246416
619,0.0
633,0.0
659,0.0
661,0.0
690,32.607798733345874
716,0.0
843,-3698.801661980384
844,-3698.801661980384
907,0.0
908,0.0
971,0.0
972,0.0
1195,0.0
1197,0.0
2,3, 1,29, 0,16, 0.00,60.00,Wednesday
7,18.9
718,23.327768796807028
719,29.32451669262282
720,18.265708200892096
619,0.0
633,0.0
659,0.0
661,0.0
690,14.966722000986826
716,85.44000000000004
843,-5151.81553966546
844,-5151.81553966546
907,0.0
908,0.0
971,0.0
972,0.0
1195,0.0
1197,0.0
2,3, 1,29, 0,17, 0.00,60.00,Wednesday
7,18.9
718,23.322382920860715
719,26.711766836853638
720,18.502973011341485
619,0.0
633,0.0
659,0.0
661,0.0
690,58.911458181870074
716,36.09456453579313
843,-6253.544911490053
844,-6253.544911490053
907,0.0
908,0.0
971,0.0
972,0.0
1195,0.0
1197,0.0
2,3, 1,29, 0,18, 0.00,60.00,Wednesday
7,15.0
718,23.2582085371246
719,22.48267664851081
720,18.649993979154775
619,0.0
633,0.0
659,0.0
661,0.0
690,69.34297246649314
716,0.0
843,-6359.42093578256
844,-6359.42093578256
907,0.0
908,0.0
971,0.0
972,0.0
1195,0.0
1197,0.0
2,3, 1,29, 0,19, 0.00,60.00,Wednesday
7,11.1
718,23.30386536726865
719,18.639591600974278
720,18.707489071937037
619,0.0
633,0.0
659,0.0
661,0.0
690,41.328527932850285
716,0.0
843,-5386.551839416523
844,-5386.551839416523
907,0.0
908,0.0
971,0.0
972,0.0
1195,0.0
1197,0.0
2,3, 1,29, 0,20, 0.00,60.00,Wednesday
7,11.0
718,23.349614672981122
719,15.949055798495701
720,18.735059496414255
619,0.0
633,0.0
659,0.0
661,0.0
690,0.0
716,81.23954044275895
843,-4668.6009834661745
844,-4668.6009834661745
907,0.0
908,0.0
971,0.0
972,0.0
1195,0.0
1197,0.0
2,3, 1,29, 0,21, 0.00,60.00,Wednesday
7,10.0
718,23.31046523776809
719,13.817963500241364
720,18.841324581113472
619,0.0
633,0.0
659,0.0
661,0.0
690,25.133041754701924
716,0.0
843,-4305.906831909777
844,-4305.906831909777
907,0.0
908,0.0
971,0.0
972,0.0
1195,0.0
1197,0.0
2,3, 1,29, 0,22, 0.00,60.00,Wednesday
7,10.0
718,23.411324372823845
719,12.198412634905074
720,18.845279284213852
619,0.0
633,0.0
659,0.0
661,0.0
690,14.530500136068426
716,0.0
843,-3796.430106810363
844,-3796.430106810363
907,0.0
908,0.0
971,0.0
972,0.0
1195,0.0
1197,0.0
2,3, 1,29, 0,23, 0.00,60.00,Wednesday
7,10.0
718,23.628082834142496
719,11.302653003832397
720,18.815328556842235
619,0.0
633,0.0
659,0.0
661,0.0
690,0.0
716,0.0
843,-4023.8792121559727
844,-4023.8792121559727
907,0.0
908,0.0
971,0.0
972,0.0
1195,0.0
1197,0.0
2,3, 1,29, 0,24, 0.00,60.00,Wednesday
7,9.4
718,23.0694527042137
719,10.555136817486709
720,18.807678212943642
619,0.0
633,0.0
659,0.0
661,200.0
690,0.0
716,0.0
843,-2796.2065646610063
844,-2796.2065646610063
907,0.0
908,0.0
971,0.0
972,0.0
1195,0.0
1197,0.0
2,4, 1,30, 0, 1, 0.00,60.00,Thursday
7,7.8
718,22.326847376326597
719,9.429340024108061
720,18.785745406690832
619,0.0
633,0.0
659,0.0
661,200.0
690,0.0
716,0.0
843,-2489.2516118845997
844,-2489.2516118845997
907,0.0
908,0.0
971,0.0
972,0.0
1195,0.0
1197,0.0
2,4, 1,30, 0, 2, 0.00,60.00,Thursday
7,7.8
718,21.79258973051523
719,8.810414018954795
720,18.75236943749319
619,0.0
633,0.0
659,0.0
661,200.0
690,0.0
716,0.0
843,-2258.630348844068
844,-2258.630348844068
907,0.0
908,0.0
971,0.0
972,0.0
1195,0.0
1197,0.0
2,4, 1,30, 0, 3, 0.00,60.00,Thursday
7,6.7
718,21.170095421509718
719,7.243828709924161
720,18.711311419677827
619,0.0
633,0.0
659,0.0
661,200.0
690,0.0
716,0.0
843,-1744.0837682256424
844,-1744.0837682256424
907,0.0
908,0.0
971,0.0
972,0.0
1195,0.0
1197,0.0
2,4, 1,30, 0, 4, 0.00,60.00,Thursday
7,6.7
718,20.608146229160248
719,6.172133093078155
720,18.65856354472622
619,0.0
633,0.0
659,0.0
661,200.0
690,0.0
716,0.0
843,-1361.965228849398
844,-1361.965228849398
907,0.0
908,0.0
971,0.0
972,0.0
1195,0.0
1197,0.0
2,4, 1,30, 0, 5, 0.00,60.00,Thursday
7,6.7
718,20.2133586429991
719,5.7065319846403035
720,18.597860862301175
619,0.0
633,0.0
659,0.0
661,200.0
690,0.0
716,0.0
843,-1058.1094330841333
844,-1058.1094330841333
907,0.0
908,0.0
971,0.0
972,0.0
1195,0.0
1197,0.0
2,4, 1,30, 0, 6, 0.00,60.00,Thursday
7,11.1
718,19.211054638936314
719,8.768069214055307
720,18.531215586841768
619,0.0
633,0.0
659,0.0
661,0.0
690,0.0
716,56.0606892536199
843,-205.61981753472355
844,-205.61981753472355
907,0.0
908,0.0
971,0.0
972,0.0
1195,0.0
1197,0.0
2,4, 1,30, 0, 7, 0.00,60.00,Thursday
7,11.1
718,19.562847374604054
719,9.973092253303367
720,18.460381461269016
619,1295.7333788467322
633,333.8634425901638
659,0.0
661,0.0
690,27.798591233371983
716,85.44000000000004
843,32.82333075440147
844,32.82333075440147
907,0.0
908,0.0
971,0.0
972,0.0
1195,0.0
1197,0.0
2,4, 1,30, 0, 8, 0.00,60.00,Thursday
7,11.1
718,19.6783868856204
719,10.544840243312036
720,18.404255023697424
619,738.3193320782203
633,193.38831942022387
659,0.0
661,0.0
690,16.004749382455252
716,43.334726624173584
843,69.6996263040246
844,69.6996263040246
907,0.0
908,0.0
971,0.0
972,0.0
1195,0.0
1197,0.0
2,4, 1,30, 0, 9, 0.00,60.00,Thursday
7,12.2
718,19.939558037763028
719,11.702764600090886
720,18.347628420429846
619,145.64113568487682
633,38.1716469820872
659,0.0
661,0.0
690,3.1070924623434606
716,0.0
843,117.74869304603817
844,117.74869304603817
907,0.0
908,0.0
971,0.0
972,0.0
1195,0.0
1197,0.0
2,4, 1,30, 0,10, 0.00,60.00,Thursday
7,15.0
718,20.263907741810044
719,15.037345761294853
720,18.29860648984578
619,0.0
633,0.0
659,0.0
661,0.0
690,0.0
716,0.0
843,-461.9618841562169
844,-461.9618841562169
907,0.0
908,0.0
971,0.0
972,0.0
1195,0.0
1197,0.0
2,4, 1,30, 0,11, 0.00,60.00,Thursday
7,15.0
718,21.32235211392701
719,16.884228258288836
720,18.26740856072487
619,0.0
633,0.0
659,0.0
661,0.0
690,0.0
716,0.0
843,-1181.7593044202968
844,-1181.7593044202968
907,0.0
908,0.0
971,0.0
972,0.0
1195,0.0
1197,0.0
2,4, 1,30, 0,12, 0.00,60.00,Thursday
7,16.7
718,22.50674727437117
719,20.802152155699485
720,18.266895653395675
619,0.0
633,0.0
659,0.0
661,0.0
690,0.0
716,0.0
843,-2154.6614701765484
844,-2154.6614701765484
907,0.0
908,0.0
971,0.0
972,0.0
1195,0.0
1197,0.0
2,4, 1,30, 0,13, 0.00,60.00,Thursday
7,18.3
718,23.300961511898254
719,25.30466959847732
720,18.3170846753533
619,0.0
633,0.0
659,0.0
661,0.0
690,9.890073664010227
716,0.0
843,-3126.8757005535663
844,-3126.8757005535663
907,0.0
908,0.0
971,0.0
972,0.0
1195,0.0
1197,0.0
2,4, 1,30, 0,14, 0.00,60.00,Thursday
7,18.3
718,23.309709380052464
719,27.66163744653698
720,18.434353332117254
619,0.0
633,0.0
659,0.0
661,0.0
690,33.07185226367983
716,0.0
843,-3608.7796365349313
844,-3608.7796365349313
907,0.0
908,0.0
971,0.0
972,0.0
1195,0.0
1197,0.0
2,4, 1,30, 0,15, 0.00,60.00,Thursday
7,18.3
718,23.2349589767532
719,26.83224998348245
720,18.58482958697655
619,0.0
633,0.0
659,0.0
661,0.0
690,57.58488685616699
716,0.0
843,-5160.763077021729
844,-5160.763077021729
907,0.0
908,0.0
971,0.0
972,0.0
1195,0.0
1197,0.0
2,4, 1,30, 0,16, 0.00,60.00,Thursday
7,18.3
718,23.3396076839324
719,26.288536688998413
720,18.735810953714275
619,0.0
633,0.0
659,0.0
661,0.0
690,71.27642916643954
716,0.0
843,-6301.767663638384
844,-6301.767663638384
907,0.0
908,0.0
971,0.0
972,0.0
1195,0.0
1197,0.0
2,4, 1,30, 0,17, 0.00,60.00,Thursday
7,18.3
718,23.338898192226715
719,24.685231663089258
720,18.830215815675064
619,0.0
633,0.0
659,0.0
661,0.0
690,53.23705517357216
716,73.51969206886835
843,-6986.85090966542
844,-6986.85090966542
907,0.0
908,0.0
971,0.0
972,0.0
1195,0.0
1197,0.0
2,4, 1,30, 0,18, 0.00,60.00,Thursday
7,13.3
718,23.29440917923346
719,22.136091821390895
720,18.99850601433357
619,0.0
633,0.0
659,0.0
661,0.0
690,72.73227773483677
716,0.0
843,-6827.093451411376
844,-6827.093451411376
907,0.0
908,0.0
971,0.0
972,0.0
1195,0.0
1197,0.0
2,4, 1,30, 0,19, 0.00,60.00,Thursday
7,12.2
718,23.34465375989089
719,18.59108936419014
720,19.0013003079776
619,0.0
633,0.0
659,0.0
661,0.0
690,12.742192406063696
716,85.44000000000004
843,-5677.250103715258
844,-5677.250103715258
907,0.0
908,0.0
971,0.0
972,0.0
1195,0.0
1197,0.0
2,4, 1,30, 0,20, 0.00,60.00,Thursday
7,12.2
718,23.34418259724301
719,15.891828099378014
720,19.129116174906876
619,0.0
633,0.0
659,0.0
661,0.0
690,23.63621114667562
716,31.642078960713036
843,-4934.053879049805
844,-4934.053879049805
907,0.0
908,0.0
971,0.0
972,0.0
1195,0.0
1197,0.0
2,4, 1,30, 0,21, 0.00,60.00,Thursday
7,9.4
718,23.193246672064593
719,13.27014318368724
720,19.188365751885915
619,0.0
633,0.0
659,0.0
661,165.6892543729472
690,25.266408395506158
716,0.0
843,-4457.571325072893
844,-4457.571325072893
907,0.0
908,0.0
971,0.0
972,0.0
1195,0.0
1197,0.0
2,4, 1,30, 0,22, 0.00,60.00,Thursday
7,8.3
718,23.304956102658586
719,11.480497420080592
720,19.18409122301637
619,0.0
633,0.0
659,0.0
661,186.51080751697734
690,9.933431639938355
716,0.0
843,-3766.460651191095
844,-3766.460651191095
907,0.0
908,0.0
971,0.0
972,0.0
1195,0.0
1197,0.0
2,4, 1,30, 0,23, 0.00,60.00,Thursday
7,8.3
718,23.26572621332528
719,10.34463915058898
720,19.15370002603241
619,0.0
633,0.0
659,0.0
661,200.0
690,0.0
716,0.0
843,-3859.661238840379
844,-3859.661238840379
907,0.0
908,0.0
971,0.0
972,0.0
1195,0.0
1197,0.0
2,4, 1,30, 0,24, 0.00,60.00,Thursday
7,6.7
718,22.519311107787303
719,9.072157110694306
720,19.110912722913206
619,0.0
633,0.0
659,0.0
661,200.0
690,0.0
716,0.0
843,-2885.849183757651
844,-2885.849183757651
907,0.0
908,0.0
971,0.0
972,0.0
1195,0.0
1197,0.0
2,5, 1,31, 0, 1, 0.00,60.00,Friday
7,6.7
718,21.960718062410383
719,8.209698514693835
720,19.047147335518478
619,0.0
633,0.0
659,0.0
661,200.0
690,0.0
716,0.0
843,-2604.741504166239
844,-2604.741504166239
907,0.0
908,0.0
971,0.0
972,0.0
1195,0.0
1197,0.0
2,5, 1,31, 0, 2, 0.00,60.00,Friday
7,6.7
718,21.371797436345922
719,7.5769405931372065
720,18.961401381968372
619,0.0
633,0.0
659,0.0
661,200.0
690,0.0
716,0.0
843,-2048.2150286205233
844,-2048.2150286205233
907,0.0
908,0.0
971,0.0
972,0.0
1195,0.0
1197,0.0
2,5, 1,31, 0, 3, 0.00,60.00,Friday
7,4.4
718,20.463732025749934
719,6.427992507760403
720,18.881985183598477
619,0.0
633,0.0
659,0.0
661,200.0
690,0.0
716,0.0
843,-1356.8252966333057
844,-1356.8252966333057
907,0.0
908,0.0
971,0.0
972,0.0
1195,0.0
1197,0.0
2,5, 1,31, 0, 4, 0.00,60.00,Friday
7,3.3
718,19.706842979293388
719,5.294570561473621
720,18.810693504805684
619,0.0
633,0.0
659,0.0
661,200.0
690,0.0
716,0.0
843,-864.5043642613964
844,-864.5043642613964
907,0.0
908,0.0
971,0.0
972,0.0
1195,0.0
1197,0.0
2,5, 1,31, 0, 5, 0.00,60.00,Friday
7,3.3
718,19.175594799009062
719,4.600045330035014
720,18.73421128278411
619,0.0
633,0.0
659,0.0
661,200.0
690,0.0
716,0.0