Program Version,EnergyPlus, Version 22.2.0-c249759bad, YMD=2023.09.01 20:45
1,5,Environment Title[],Latitude[deg],Longitude[deg],Time Zone[],Elevation[m]
2,8,Day of Simulation[],Month[],Day of Month[],DST Indicator[1=yes 0=no],Hour[],StartMinute[],EndMinute[],DayType
3,5,Cumulative Day of Simulation[],Month[],Day of Month[],DST Indicator[1=yes 0=no],DayType  ! When Daily Report Variables Requested
4,2,Cumulative Days of Simulation[],Month[]  ! When Monthly Report Variables Requested
5,1,Cumulative Days of Simulation[] ! When Run Period Report Variables Requested
6,1,Calendar Year of Simulation[] ! When Annual Report Variables Requested
581,11,LIVING,AFN Zone Infiltration Air Change Rate [ach] !RunPeriod [Value,Min,Month,Day,Hour,Minute,Max,Month,Day,Hour,Minute]
582,11,ATTIC,AFN Zone Infiltration Air Change Rate [ach] !RunPeriod [Value,Min,Month,Day,Hour,Minute,Max,Month,Day,Hour,Minute]
583,11,CRAWLSPACE,AFN Zone Infiltration Air Change Rate [ach] !RunPeriod [Value,Min,Month,Day,Hour,Minute,Max,Month,Day,Hour,Minute]
1038,11,Facility,Facility Heating Setpoint Not Met Time [hr] !RunPeriod [Value,Min,Month,Day,Hour,Minute,Max,Month,Day,Hour,Minute]
1039,11,Facility,Facility Cooling Setpoint Not Met Time [hr] !RunPeriod [Value,Min,Month,Day,Hour,Minute,Max,Month,Day,Hour,Minute]
1115,11,DX_HEATING_COIL,Heating Coil Heating Energy [J] !RunPeriod [Value,Min,Month,Day,Hour,Minute,Max,Month,Day,Hour,Minute]
1128,11,DX_HEATING_COIL,Heating Coil Electricity Energy [J] !RunPeriod [Value,Min,Month,Day,Hour,Minute,Max,Month,Day,Hour,Minute]
1153,11,DX_HEATING_COIL,Heating Coil Defrost Electricity Energy [J] !RunPeriod [Value,Min,Month,Day,Hour,Minute,Max,Month,Day,Hour,Minute]
1154,11,DX_HEATING_COIL,Heating Coil Crankcase Heater Electricity Energy [J] !RunPeriod [Value,Min,Month,Day,Hour,Minute,Max,Month,Day,Hour,Minute]
1155,11,HEATING_RESISTANCE_BACKUP,Heating Coil Heating Energy [J] !RunPeriod [Value,Min,Month,Day,Hour,Minute,Max,Month,Day,Hour,Minute]
1156,11,HEATING_RESISTANCE_BACKUP,Heating Coil Electricity Energy [J] !RunPeriod [Value,Min,Month,Day,Hour,Minute,Max,Month,Day,Hour,Minute]
1292,11,WATER HEATER,Water Heater Heat Loss Energy [J] !RunPeriod [Value,Min,Month,Day,Hour,Minute,Max,Month,Day,Hour,Minute]
1306,11,WATER HEATER,Water Heater Heating Energy [J] !RunPeriod [Value,Min,Month,Day,Hour,Minute,Max,Month,Day,Hour,Minute]
1307,11,WATER HEATER,Water Heater Unmet Demand Heat Transfer Energy [J] !RunPeriod [Value,Min,Month,Day,Hour,Minute,Max,Month,Day,Hour,Minute]
1308,11,WATER HEATER,Water Heater Electricity Energy [J] !RunPeriod [Value,Min,Month,Day,Hour,Minute,Max,Month,Day,Hour,Minute]
13,11,Electricity:Facility [J] !RunPeriod [Value,Min,Month,Day,Hour,Minute,Max,Month,Day,Hour,Minute]
1134,11,Heating:Electricity [J] !RunPeriod [Value,Min,Month,Day,Hour,Minute,Max,Month,Day,Hour,Minute]
1096,11,Cooling:Electricity [J] !RunPeriod [Value,Min,Month,Day,Hour,Minute,Max,Month,Day,Hour,Minute]
562,11,Fans:Electricity [J] !RunPeriod [Value,Min,Month,Day,Hour,Minute,Max,Month,Day,Hour,Minute]
1379,11,Pumps:Electricity [J] !RunPeriod [Value,Min,Month,Day,Hour,Minute,Max,Month,Day,Hour,Minute]
1326,11,WaterSystems:Electricity [J] !RunPeriod [Value,Min,Month,Day,Hour,Minute,Max,Month,Day,Hour,Minute]
61,11,InteriorLights:Electricity [J] !RunPeriod [Value,Min,Month,Day,Hour,Minute,Max,Month,Day,Hour,Minute]
1046,11,ExteriorLights:Electricity [J] !RunPeriod [Value,Min,Month,Day,Hour,Minute,Max,Month,Day,Hour,Minute]
134,11,InteriorEquipment:Electricity [J] !RunPeriod [Value,Min,Month,Day,Hour,Minute,Max,Month,Day,Hour,Minute]
170,11,gas_dryer:InteriorEquipment:Electricity [J] !RunPeriod [Value,Min,Month,Day,Hour,Minute,Max,Month,Day,Hour,Minute]
207,11,clotheswasher:InteriorEquipment:Electricity [J] !RunPeriod [Value,Min,Month,Day,Hour,Minute,Max,Month,Day,Hour,Minute]
244,11,dishwasher:InteriorEquipment:Electricity [J] !RunPeriod [Value,Min,Month,Day,Hour,Minute,Max,Month,Day,Hour,Minute]
281,11,refrigerator:InteriorEquipment:Electricity [J] !RunPeriod [Value,Min,Month,Day,Hour,Minute,Max,Month,Day,Hour,Minute]
318,11,electric_mels:InteriorEquipment:Electricity [J] !RunPeriod [Value,Min,Month,Day,Hour,Minute,Max,Month,Day,Hour,Minute]
355,11,NaturalGas:Facility [J] !RunPeriod [Value,Min,Month,Day,Hour,Minute,Max,Month,Day,Hour,Minute]
403,11,InteriorEquipment:NaturalGas [J] !RunPeriod [Value,Min,Month,Day,Hour,Minute,Max,Month,Day,Hour,Minute]
476,11,gas_dryer:InteriorEquipment:NaturalGas [J] !RunPeriod [Value,Min,Month,Day,Hour,Minute,Max,Month,Day,Hour,Minute]
513,11,gas_mels:InteriorEquipment:NaturalGas [J] !RunPeriod [Value,Min,Month,Day,Hour,Minute,Max,Month,Day,Hour,Minute]
End of Data Dictionary
1,EXTREME_WINTER,  40.00, -82.88,  -5.00, 254.00
5,7
1038,1.25,0.0, 1,20, 1,15,0.25, 1,20, 6,15
1039,0.0,0.0, 1,20, 1,15,0.0, 1,20, 1,15
581,0.4091503996969655,0.25633780232364584, 1,25,23, 7,1.0112171081955663, 1,22, 6,60
582,4.772809463722096,0.0, 1,21, 1,60,21.481647381150154, 1,22,17,52
583,0.054740873840182905,0.000634261588164987, 1,25,23, 7,0.07777653348269893, 1,22, 6,60
1115,1809230306.6553211,0.0, 1,20,23, 5,4163922.1169597465, 1,22, 6,60
1128,623524533.9652029,0.0, 1,20,23, 5,1235500.8942753528, 1,22, 6,60
1153,7679272.196572763,0.0, 1,20,23, 5,79322.84694788005, 1,22,14,45
1154,21451103.42029189,0.0, 1,20, 1, 7,180000.0, 1,23,15,15
1155,755509312.1849625,0.0, 1,20,14,30,5379221.922584208, 1,20, 6,45
1156,755509312.1849625,0.0, 1,20,14,30,5379221.922584208, 1,20, 6,45
1292,-25282268.38216349,-39754.29211247529, 1,24,24,45,-7607.598589598838, 1,25,11,60
1306,265632404.017869,0.0, 1,20, 1, 7,4050000.0, 1,20, 8,45
1307,88772711.35999344,0.0, 1,20, 1, 7,14114639.22359187, 1,20, 8,30
1308,265632404.017869,0.0, 1,20, 1, 7,4050000.0, 1,20, 8,45
13,2114559360.8840392,452017.0388981225, 1,23,15,45,10407634.574074242, 1,20, 8,45
61,301924526.02383536,88139.10953165221, 1,20, 1,15,1282023.4113694867, 1,20,20,15
134,70666020.44019976,63564.01800854099, 1,20, 4,15,156554.22484006523, 1,25,20,15
170,5241013.419656067,348.4159749238097, 1,20, 4,15,17476.39704006126, 1,25,12,15
207,6509451.13922267,815.2532113832032, 1,20, 3,15,22990.642799023623, 1,25,10,15
244,12749673.399825225,1521.856143006317, 1,20, 4,15,53038.631142310165, 1,25,20,15
281,46165882.481495745,59938.60262432081, 1,20, 5,15,81951.81706819107, 1,20,19,15
318,0.0,0.0, 1,20, 1,15,0.0, 1,20, 1,15
355,197687796.27748066,18561.32405820678, 1,20, 4,15,724774.895203776, 1,25,18,15
403,197687796.27748066,18561.32405820678, 1,20, 4,15,724774.895203776, 1,25,18,15
476,106772067.24485716,7098.072629279515, 1,20, 4,15,356036.3026282215, 1,25,12,15
513,0.0,0.0, 1,20, 1,15,0.0, 1,20, 1,15
562,68172188.63510467,0.0, 1,21,16,15,123368.45120711061, 1,20, 1,15
1046,0.0,0.0, 1,20, 1,15,0.0, 1,20, 1,15
1096,0.0,0.0, 1,20, 1,15,0.0, 1,20, 1,15
1134,1408164221.7670293,180000.0, 1,21,16,15,6453896.752123289, 1,20, 6,45
1326,265632404.01786894,0.0, 1,20, 1,15,4050000.0, 1,20, 8,45
1379,0.0,0.0, 1,20, 1,15,0.0, 1,20, 1,15
1,EXTREME_SUMMER,  40.00, -82.88,  -5.00, 254.00
5,7
1038,0.0,0.0, 8, 3, 1,15,0.0, 8, 3, 1,15
1039,35.75,0.0, 8, 3, 1,15,0.25, 8, 4,14,45
581,0.11521735695364958,0.0, 8, 4, 6, 7,0.3844909306871349, 8, 7,16,47
582,3.2870738108035895,0.0, 8, 5,21,50,14.960202238964031, 8, 9,12,60
583,0.036366789626333454,0.0000599958047494545, 8, 4, 6, 7,0.0642640948144376, 8, 7,16,47
1115,0.0,0.0, 8, 3, 1,15,0.0, 8, 3, 1,15
1128,0.0,0.0, 8, 3, 1,15,0.0, 8, 3, 1,15
1153,0.0,0.0, 8, 3, 1,15,0.0, 8, 3, 1,15
1154,0.0,0.0, 8, 3, 1,15,0.0, 8, 3, 1,15
1155,0.0,0.0, 8, 3, 1,15,0.0, 8, 3, 1,15
1156,0.0,0.0, 8, 3, 1,15,0.0, 8, 3, 1,15
1292,-21906692.37473844,-34337.33588740209, 8, 9, 8,30,-2877.493060325725, 8, 7,16,31
1306,197028209.12041166,0.0, 8, 3, 1,15,4050000.0, 8, 6, 6,60
1307,47690427.224886134,0.0, 8, 3, 1,15,4983704.896893085, 8, 3, 8,30
1308,197028209.12041166,0.0, 8, 3, 1,15,4050000.0, 8, 6, 6,60
13,1071098201.8136321,198749.9180113643, 8, 8, 4,60,6094553.50193253, 8, 5,17,30
61,301924526.02383536,88139.10953165221, 8, 3, 1,15,1282023.4113694867, 8, 3,20,15
134,70666020.44019976,63564.01800854099, 8, 3, 4,15,156554.22484006523, 8, 8,20,15
170,5241013.419656067,348.4159749238097, 8, 3, 4,15,17476.39704006126, 8, 8,12,15
207,6509451.13922267,815.2532113832032, 8, 3, 3,15,22990.642799023623, 8, 8,10,15
244,12749673.399825225,1521.856143006317, 8, 3, 4,15,53038.631142310165, 8, 8,20,15
281,46165882.481495745,59938.60262432081, 8, 3, 5,15,81951.81706819107, 8, 3,19,15
318,0.0,0.0, 8, 3, 1,15,0.0, 8, 3, 1,15
355,197687796.27748066,18561.32405820678, 8, 3, 4,15,724774.895203776, 8, 8,18,15
403,197687796.27748066,18561.32405820678, 8, 3, 4,15,724774.895203776, 8, 8,18,15
476,106772067.24485716,7098.072629279515, 8, 3, 4,15,356036.3026282215, 8, 8,12,15
513,0.0,0.0, 8, 3, 1,15,0.0, 8, 3, 1,15
562,49636119.23162421,5102.697197191086, 8, 8, 4,60,123368.45120711063, 8, 5,12,15
1046,0.0,0.0, 8, 3, 1,15,0.0, 8, 3, 1,15
1096,451843326.9975608,41575.42061576052, 8, 8, 4,60,1217816.6193880914, 8, 6,17,60
1134,0.0,0.0, 8, 3, 1,15,0.0, 8, 3, 1,15
1326,197028209.12041166,0.0, 8, 3, 1,15,4050000.0, 8, 3, 8,45
1379,0.0,0.0, 8, 3, 1,15,0.0, 8, 3, 1,15
1,ANNUAL,  40.00, -82.88,  -5.00, 254.00
5,365
1038,17.5,0.0, 1, 1, 1,15,0.25, 1, 1, 3,60
1039,676.5,0.0, 1, 1, 1,15,0.25, 3,12,15,60
581,0.2532901699935368,0.0, 6, 5,23, 3,1.3270600162840096, 2,11,22,30
582,4.232250887643539,0.0, 1, 9,19,52,40.55624019987704, 2,11,21,52
583,0.029280515580069107,0.0, 6, 5,23, 3,0.08602646269077023, 1,30, 1,47
1115,24002963179.22932,0.0, 1, 1,23, 5,4196570.739485725, 1, 1, 2,60
1128,7690633476.9812765,0.0, 1, 1,23, 5,1233280.0639007806, 1,22, 6,60
1153,255875827.3979314,0.0, 1, 1,23, 5,129754.2331316627, 3, 9, 6,45
1154,1395924507.076171,0.0, 1, 1, 1, 3,180000.0, 1, 4,16,30
1155,4443805893.376333,0.0, 1, 1, 1,32,5379221.922584208, 1,20, 6,15
1156,4443805893.376333,0.0, 1, 1, 1,32,5379221.922584208, 1,20, 6,15
1292,-1216652863.7431858,-39791.40212477885, 1,27,24,45,-2074.416373899279, 9, 4,16,16
1306,12135184766.899942,0.0, 1, 1, 1, 3,4050000.0, 1, 1,10,30
1307,3553579322.2153,0.0, 1, 1, 1, 3,14263206.739864368, 2, 6, 8,30
1308,12135184766.899942,0.0, 1, 1, 1, 3,4050000.0, 1, 1,10,30
13,56573643030.26251,151703.1275401932, 3,21, 4,15,10906388.28924499, 1,20, 7,45
61,15743207428.383959,88139.10953165221, 1, 1, 1,15,1282023.4113694867, 1, 1,20,15
134,3685071073.4325233,63564.01800854099, 1, 2, 4,15,156554.22484006523, 1, 1,20,15
170,273393721.45532674,348.4159749238097, 1, 2, 4,15,17476.39704006126, 1, 1,12,15
207,339560869.0695816,815.2532113832032, 1, 2, 3,15,22990.642799023623, 1, 1,10,15
244,664895467.8009144,1521.856143006317, 1, 2, 4,15,53038.631142310165, 1, 1,20,15
281,2407221015.106824,59938.60262432081, 1, 1, 5,15,81951.81706819107, 1, 1,19,15
318,0.0,0.0, 1, 1, 1,15,0.0, 1, 1, 1,15
355,10310294493.051695,18561.32405820678, 1, 2, 4,15,724774.895203776, 1, 1,18,15
403,10310294493.051695,18561.32405820678, 1, 2, 4,15,724774.895203776, 1, 1,18,15
476,5569688622.066177,7098.072629279515, 1, 2, 4,15,356036.3026282215, 1, 1,12,15
513,0.0,0.0, 1, 1, 1,15,0.0, 1, 1, 1,15
562,1909597394.75833,0.0, 1, 4,16,30,123368.45120711066, 9, 4,16,60
1046,0.0,0.0, 1, 1, 1,15,0.0, 1, 1, 1,15
1096,9314342661.955069,0.0, 1, 1, 1,15,1311461.5889758407, 6, 8,15,60
1134,13786239704.831709,0.0, 1, 6,17,30,6489927.205220603, 1,30, 6,15
1326,12135184766.899939,0.0, 1, 1, 1,15,4050000.0000000014, 9,23, 9,45
1379,0.0,0.0, 1, 1, 1,15,0.0, 1, 1, 1,15
End of Data
 Number of Records Written=          99
