Program Version,EnergyPlus, Version 22.2.0-c249759bad, YMD=2023.09.01 20:55
1,5,Environment Title[],Latitude[deg],Longitude[deg],Time Zone[],Elevation[m]
2,8,Day of Simulation[],Month[],Day of Month[],DST Indicator[1=yes 0=no],Hour[],StartMinute[],EndMinute[],DayType
3,5,Cumulative Day of Simulation[],Month[],Day of Month[],DST Indicator[1=yes 0=no],DayType  ! When Daily Report Variables Requested
4,2,Cumulative Days of Simulation[],Month[]  ! When Monthly Report Variables Requested
5,1,Cumulative Days of Simulation[] ! When Run Period Report Variables Requested
6,1,Calendar Year of Simulation[] ! When Annual Report Variables Requested
581,11,LIVING,AFN Zone Infiltration Air Change Rate [ach] !RunPeriod [Value,Min,Month,Day,Hour,Minute,Max,Month,Day,Hour,Minute]
582,11,ATTIC,AFN Zone Infiltration Air Change Rate [ach] !RunPeriod [Value,Min,Month,Day,Hour,Minute,Max,Month,Day,Hour,Minute]
583,11,CRAWLSPACE,AFN Zone Infiltration Air Change Rate [ach] !RunPeriod [Value,Min,Month,Day,Hour,Minute,Max,Month,Day,Hour,Minute]
1038,11,Facility,Facility Heating Setpoint Not Met Time [hr] !RunPeriod [Value,Min,Month,Day,Hour,Minute,Max,Month,Day,Hour,Minute]
1039,11,Facility,Facility Cooling Setpoint Not Met Time [hr] !RunPeriod [Value,Min,Month,Day,Hour,Minute,Max,Month,Day,Hour,Minute]
1115,11,DX_HEATING_COIL,Heating Coil Heating Energy [J] !RunPeriod [Value,Min,Month,Day,Hour,Minute,Max,Month,Day,Hour,Minute]
1128,11,DX_HEATING_COIL,Heating Coil Electricity Energy [J] !RunPeriod [Value,Min,Month,Day,Hour,Minute,Max,Month,Day,Hour,Minute]
1153,11,DX_HEATING_COIL,Heating Coil Defrost Electricity Energy [J] !RunPeriod [Value,Min,Month,Day,Hour,Minute,Max,Month,Day,Hour,Minute]
1154,11,DX_HEATING_COIL,Heating Coil Crankcase Heater Electricity Energy [J] !RunPeriod [Value,Min,Month,Day,Hour,Minute,Max,Month,Day,Hour,Minute]
1155,11,HEATING_RESISTANCE_BACKUP,Heating Coil Heating Energy [J] !RunPeriod [Value,Min,Month,Day,Hour,Minute,Max,Month,Day,Hour,Minute]
1156,11,HEATING_RESISTANCE_BACKUP,Heating Coil Electricity Energy [J] !RunPeriod [Value,Min,Month,Day,Hour,Minute,Max,Month,Day,Hour,Minute]
1292,11,WATER HEATER,Water Heater Heat Loss Energy [J] !RunPeriod [Value,Min,Month,Day,Hour,Minute,Max,Month,Day,Hour,Minute]
1306,11,WATER HEATER,Water Heater Heating Energy [J] !RunPeriod [Value,Min,Month,Day,Hour,Minute,Max,Month,Day,Hour,Minute]
1307,11,WATER HEATER,Water Heater Unmet Demand Heat Transfer Energy [J] !RunPeriod [Value,Min,Month,Day,Hour,Minute,Max,Month,Day,Hour,Minute]
1308,11,WATER HEATER,Water Heater Electricity Energy [J] !RunPeriod [Value,Min,Month,Day,Hour,Minute,Max,Month,Day,Hour,Minute]
13,11,Electricity:Facility [J] !RunPeriod [Value,Min,Month,Day,Hour,Minute,Max,Month,Day,Hour,Minute]
1134,11,Heating:Electricity [J] !RunPeriod [Value,Min,Month,Day,Hour,Minute,Max,Month,Day,Hour,Minute]
1096,11,Cooling:Electricity [J] !RunPeriod [Value,Min,Month,Day,Hour,Minute,Max,Month,Day,Hour,Minute]
562,11,Fans:Electricity [J] !RunPeriod [Value,Min,Month,Day,Hour,Minute,Max,Month,Day,Hour,Minute]
1379,11,Pumps:Electricity [J] !RunPeriod [Value,Min,Month,Day,Hour,Minute,Max,Month,Day,Hour,Minute]
1326,11,WaterSystems:Electricity [J] !RunPeriod [Value,Min,Month,Day,Hour,Minute,Max,Month,Day,Hour,Minute]
61,11,InteriorLights:Electricity [J] !RunPeriod [Value,Min,Month,Day,Hour,Minute,Max,Month,Day,Hour,Minute]
1046,11,ExteriorLights:Electricity [J] !RunPeriod [Value,Min,Month,Day,Hour,Minute,Max,Month,Day,Hour,Minute]
134,11,InteriorEquipment:Electricity [J] !RunPeriod [Value,Min,Month,Day,Hour,Minute,Max,Month,Day,Hour,Minute]
170,11,gas_dryer:InteriorEquipment:Electricity [J] !RunPeriod [Value,Min,Month,Day,Hour,Minute,Max,Month,Day,Hour,Minute]
207,11,clotheswasher:InteriorEquipment:Electricity [J] !RunPeriod [Value,Min,Month,Day,Hour,Minute,Max,Month,Day,Hour,Minute]
244,11,dishwasher:InteriorEquipment:Electricity [J] !RunPeriod [Value,Min,Month,Day,Hour,Minute,Max,Month,Day,Hour,Minute]
281,11,refrigerator:InteriorEquipment:Electricity [J] !RunPeriod [Value,Min,Month,Day,Hour,Minute,Max,Month,Day,Hour,Minute]
318,11,electric_mels:InteriorEquipment:Electricity [J] !RunPeriod [Value,Min,Month,Day,Hour,Minute,Max,Month,Day,Hour,Minute]
355,11,NaturalGas:Facility [J] !RunPeriod [Value,Min,Month,Day,Hour,Minute,Max,Month,Day,Hour,Minute]
403,11,InteriorEquipment:NaturalGas [J] !RunPeriod [Value,Min,Month,Day,Hour,Minute,Max,Month,Day,Hour,Minute]
476,11,gas_dryer:InteriorEquipment:NaturalGas [J] !RunPeriod [Value,Min,Month,Day,Hour,Minute,Max,Month,Day,Hour,Minute]
513,11,gas_mels:InteriorEquipment:NaturalGas [J] !RunPeriod [Value,Min,Month,Day,Hour,Minute,Max,Month,Day,Hour,Minute]
End of Data Dictionary
1,EXTREME_WINTER,  29.54, -98.48,  -6.00, 240.50
5,7
1038,0.0,0.0, 1,29, 1,15,0.0, 1,29, 1,15
1039,0.0,0.0, 1,29, 1,15,0.0, 1,29, 1,15
581,0.43682868441061146,0.10507635371847555, 1,31, 8,48,0.9277255755349163, 1,29,18,50
582,6.334083779922868,0.0, 2, 4,23,52,18.669560834496664, 1,29,18,47
583,0.03786056683555935,0.00033012253586484487, 2, 4,24,10,0.09748617772698669, 2, 2, 6,15
1115,992644775.1399202,0.0, 1,29, 1, 7,4556070.27045064, 2, 3,10,60
1128,333109960.1264649,0.0, 1,29, 1, 7,1524976.635029733, 2, 3,10,60
1153,3861791.4700412625,0.0, 1,29, 1, 7,57205.00423254696, 2, 1, 7,60
1154,39065184.60023245,0.0, 1,29, 1, 7,180000.0, 1,30,23,60
1155,107710813.41160849,0.0, 1,29, 1, 7,2972301.3508613673, 2, 2, 6,45
1156,107710813.41160849,0.0, 1,29, 1, 7,2972301.3508613673, 2, 2, 6,45
1292,-23995067.715161685,-39712.81415046978, 2, 4, 4,15,-4255.416173520558, 2, 4,14,58
1306,292924197.7683487,0.0, 1,29, 1, 7,4050000.0, 1,29, 8,30
1307,108221111.20237814,0.0, 1,29, 1, 7,12423461.677712198, 2, 2, 9,60
1308,292924197.7683487,0.0, 1,29, 1, 7,4050000.0, 1,29, 8,30
13,1245445192.5325046,151703.1275401932, 1,29, 4,15,7483504.699906463, 2, 2,10,15
61,301924526.02383536,88139.10953165221, 1,29, 1,15,1282023.4113694867, 1,29,20,15
134,70666020.44019976,63564.01800854099, 1,29, 4,15,156554.22484006523, 2, 3,20,15
170,5241013.419656067,348.4159749238097, 1,29, 4,15,17476.39704006126, 2, 3,12,15
207,6509451.13922267,815.2532113832032, 1,29, 3,15,22990.642799023623, 2, 3,10,15
244,12749673.399825225,1521.856143006317, 1,29, 4,15,53038.631142310165, 2, 3,20,15
281,46165882.481495745,59938.60262432081, 1,29, 5,15,81951.81706819107, 1,29,19,15
318,0.0,0.0, 1,29, 1,15,0.0, 1,29, 1,15
355,197687796.27748066,18561.32405820678, 1,29, 4,15,724774.895203776, 2, 3,18,15
403,197687796.27748066,18561.32405820678, 1,29, 4,15,724774.895203776, 2, 3,18,15
476,106772067.24485716,7098.072629279515, 1,29, 4,15,356036.3026282215, 2, 3,12,15
513,0.0,0.0, 1,29, 1,15,0.0, 1,29, 1,15
562,42380437.54662656,0.0, 1,29, 1,15,159718.31508792404, 2, 2, 1,45
1046,0.0,0.0, 1,29, 1,15,0.0, 1,29, 1,15
1096,53802261.14514615,0.0, 1,29, 1,15,1181260.2518139342, 1,29,17,15
1134,483747749.6083474,0.0, 1,29, 1,15,5162134.3903991515, 2, 2, 6,15
1326,292924197.76834875,0.0, 1,29, 1,15,4050000.0, 1,29, 8,30
1379,0.0,0.0, 1,29, 1,15,0.0, 1,29, 1,15
1,EXTREME_SUMMER,  29.54, -98.48,  -6.00, 240.50
5,7
1038,0.0,0.0, 8, 5, 1,15,0.0, 8, 5, 1,15
1039,59.75,0.0, 8, 5, 1,15,0.25, 8, 5,14,60
581,0.2262201846216336,0.0, 8,11, 8,47,0.7158772372639688, 8, 6,19,48
582,4.751519842387914,0.11699073207716194, 8,11, 9,15,15.352766565731095, 8, 6,19,48
583,0.0605847398907599,0.0029634103405481223, 8,10,23, 3,0.0939356843763885, 8, 6,20,18
1115,0.0,0.0, 8, 5, 1,15,0.0, 8, 5, 1,15
1128,0.0,0.0, 8, 5, 1,15,0.0, 8, 5, 1,15
1153,0.0,0.0, 8, 5, 1,15,0.0, 8, 5, 1,15
1154,0.0,0.0, 8, 5, 1,15,0.0, 8, 5, 1,15
1155,0.0,0.0, 8, 5, 1,15,0.0, 8, 5, 1,15
1156,0.0,0.0, 8, 5, 1,15,0.0, 8, 5, 1,15
1292,-21643352.87139498,-34330.2106560083, 8,11, 6,30,-2646.353985274659, 8,11, 9,45
1306,202315181.30902615,0.0, 8, 5, 1,15,2411682.107389081, 8, 5,21,45
1307,44878730.030484654,0.0, 8, 5, 1,15,1889324.8617397205, 8, 9, 9,52
1308,202315181.30902615,0.0, 8, 5, 1,15,2411682.107389081, 8, 5,21,45
13,1432148552.4544508,501618.0966606394, 8,11, 4,60,7255123.627607429, 8,11,21,15
61,301924526.02383536,88139.10953165221, 8, 5, 1,15,1282023.4113694867, 8, 5,20,15
134,70666020.44019976,63564.01800854099, 8, 5, 4,15,156554.22484006523, 8,10,20,15
170,5241013.419656067,348.4159749238097, 8, 5, 4,15,17476.39704006126, 8,10,12,15
207,6509451.13922267,815.2532113832032, 8, 5, 3,15,22990.642799023623, 8,10,10,15
244,12749673.399825225,1521.856143006317, 8, 5, 4,15,53038.631142310165, 8,10,20,15
281,46165882.481495745,59938.60262432081, 8, 5, 5,15,81951.81706819107, 8, 5,19,15
318,0.0,0.0, 8, 5, 1,15,0.0, 8, 5, 1,15
355,197687796.27748066,18561.32405820678, 8, 5, 4,15,724774.895203776, 8,10,18,15
403,197687796.27748066,18561.32405820678, 8, 5, 4,15,724774.895203776, 8,10,18,15
476,106772067.24485716,7098.072629279515, 8, 5, 4,15,356036.3026282215, 8,10,12,15
513,0.0,0.0, 8, 5, 1,15,0.0, 8, 5, 1,15
562,76130848.17553288,34661.32265229546, 8,11, 5,60,159718.31508792407, 8, 5,14,15
1046,0.0,0.0, 8, 5, 1,15,0.0, 8, 5, 1,15
1096,781111976.5058595,310820.9482370587, 8,11, 5,60,1868054.0097089652, 8,11,16,60
1134,0.0,0.0, 8, 5, 1,15,0.0, 8, 5, 1,15
1326,202315181.30902612,0.0, 8, 5, 1,15,4050000.0, 8, 5, 9,60
1379,0.0,0.0, 8, 5, 1,15,0.0, 8, 5, 1,15
1,ANNUAL,  29.54, -98.48,  -6.00, 240.50
5,365
1038,0.0,0.0, 1, 1, 1,15,0.0, 1, 1, 1,15
1039,1026.0,0.0, 1, 1, 1,15,0.25, 2, 8,13,45
581,0.2324706449814462,0.0, 5,16,23, 3,1.0797901735026927, 9,25,15,46
582,4.254122951700369,0.0, 1, 2,22,52,24.416358325074977, 5,12,19,48
583,0.03951999761529117,0.0, 5,16,23, 3,0.1102992934545649, 9,25,15,46
1115,2608012803.187666,0.0, 1, 1, 1, 7,4642646.561194547, 2,10, 8,45
1128,841671426.5589745,0.0, 1, 1, 1, 7,1537153.4093672284, 2,10, 8,45
1153,20987227.56644197,0.0, 1, 1, 1, 7,78904.0533058826, 1, 6, 6,60
1154,621744814.887376,0.0, 1, 1, 1,20,180000.0, 1, 1,21,15
1155,108689615.07795684,0.0, 1, 1, 1, 7,2786967.101229757, 2, 2, 6,45
1156,108689615.07795684,0.0, 1, 1, 1, 7,2786967.101229757, 2, 2, 6,45
1292,-1160122003.196226,-39778.548402522014, 1,15, 4,30,-1805.309040677365, 3,17,10, 1
1306,12884217942.074503,0.0, 1, 1, 1, 7,4050000.0, 1, 1, 9,60
1307,3931317381.243031,0.0, 1, 1, 1, 7,12455801.809591599, 1,27, 9,60
1308,12884217942.074503,0.0, 1, 1, 1, 7,4050000.0, 1, 1, 9,60
13,58071367103.011734,151703.1275401932, 1, 9, 4,15,7477141.944560533, 2, 2, 9,60
61,15743207428.383959,88139.10953165221, 1, 1, 1,15,1282023.4113694867, 1, 1,20,15
134,3685071073.4325233,63564.01800854099, 1, 2, 4,15,156554.22484006523, 1, 1,20,15
170,273393721.45532674,348.4159749238097, 1, 2, 4,15,17476.39704006126, 1, 1,12,15
207,339560869.0695816,815.2532113832032, 1, 2, 3,15,22990.642799023623, 1, 1,10,15
244,664895467.8009144,1521.856143006317, 1, 2, 4,15,53038.631142310165, 1, 1,20,15
281,2407221015.106824,59938.60262432081, 1, 1, 5,15,81951.81706819107, 1, 1,19,15
318,0.0,0.0, 1, 1, 1,15,0.0, 1, 1, 1,15
355,10310294493.051695,18561.32405820678, 1, 2, 4,15,724774.895203776, 1, 1,18,15
403,10310294493.051695,18561.32405820678, 1, 2, 4,15,724774.895203776, 1, 1,18,15
476,5569688622.066177,7098.072629279515, 1, 2, 4,15,356036.3026282215, 1, 1,12,15
513,0.0,0.0, 1, 1, 1,15,0.0, 1, 1, 1,15
562,2447329626.1304364,0.0, 1, 1, 1,15,159718.3150879241, 6, 4,17,30
1046,0.0,0.0, 1, 1, 1,15,0.0, 1, 1, 1,15
1096,21718447948.89819,0.0, 1, 1, 1,15,1872248.0976347472, 8,11,16,60
1134,1593093084.0907512,0.0, 1, 1, 1,30,4980591.669745787, 2, 2, 6,15
1326,12884217942.074524,0.0, 1, 1, 1,15,4050000.0000000014, 3,17,10,15
1379,0.0,0.0, 1, 1, 1,15,0.0, 1, 1, 1,15
End of Data
 Number of Records Written=          99
