Program Version,EnergyPlus, Version 22.2.0-c249759bad, YMD=2023.09.01 20:51
1,5,Environment Title[],Latitude[deg],Longitude[deg],Time Zone[],Elevation[m]
2,8,Day of Simulation[],Month[],Day of Month[],DST Indicator[1=yes 0=no],Hour[],StartMinute[],EndMinute[],DayType
3,5,Cumulative Day of Simulation[],Month[],Day of Month[],DST Indicator[1=yes 0=no],DayType  ! When Daily Report Variables Requested
4,2,Cumulative Days of Simulation[],Month[]  ! When Monthly Report Variables Requested
5,1,Cumulative Days of Simulation[] ! When Run Period Report Variables Requested
6,1,Calendar Year of Simulation[] ! When Annual Report Variables Requested
581,11,LIVING,AFN Zone Infiltration Air Change Rate [ach] !RunPeriod [Value,Min,Month,Day,Hour,Minute,Max,Month,Day,Hour,Minute]
582,11,ATTIC,AFN Zone Infiltration Air Change Rate [ach] !RunPeriod [Value,Min,Month,Day,Hour,Minute,Max,Month,Day,Hour,Minute]
583,11,CRAWLSPACE,AFN Zone Infiltration Air Change Rate [ach] !RunPeriod [Value,Min,Month,Day,Hour,Minute,Max,Month,Day,Hour,Minute]
1038,11,Facility,Facility Heating Setpoint Not Met Time [hr] !RunPeriod [Value,Min,Month,Day,Hour,Minute,Max,Month,Day,Hour,Minute]
1039,11,Facility,Facility Cooling Setpoint Not Met Time [hr] !RunPeriod [Value,Min,Month,Day,Hour,Minute,Max,Month,Day,Hour,Minute]
1115,11,DX_HEATING_COIL,Heating Coil Heating Energy [J] !RunPeriod [Value,Min,Month,Day,Hour,Minute,Max,Month,Day,Hour,Minute]
1128,11,DX_HEATING_COIL,Heating Coil Electricity Energy [J] !RunPeriod [Value,Min,Month,Day,Hour,Minute,Max,Month,Day,Hour,Minute]
1153,11,DX_HEATING_COIL,Heating Coil Defrost Electricity Energy [J] !RunPeriod [Value,Min,Month,Day,Hour,Minute,Max,Month,Day,Hour,Minute]
1154,11,DX_HEATING_COIL,Heating Coil Crankcase Heater Electricity Energy [J] !RunPeriod [Value,Min,Month,Day,Hour,Minute,Max,Month,Day,Hour,Minute]
1155,11,HEATING_RESISTANCE_BACKUP,Heating Coil Heating Energy [J] !RunPeriod [Value,Min,Month,Day,Hour,Minute,Max,Month,Day,Hour,Minute]
1156,11,HEATING_RESISTANCE_BACKUP,Heating Coil Electricity Energy [J] !RunPeriod [Value,Min,Month,Day,Hour,Minute,Max,Month,Day,Hour,Minute]
1292,11,WATER HEATER,Water Heater Heat Loss Energy [J] !RunPeriod [Value,Min,Month,Day,Hour,Minute,Max,Month,Day,Hour,Minute]
1306,11,WATER HEATER,Water Heater Heating Energy [J] !RunPeriod [Value,Min,Month,Day,Hour,Minute,Max,Month,Day,Hour,Minute]
1307,11,WATER HEATER,Water Heater Unmet Demand Heat Transfer Energy [J] !RunPeriod [Value,Min,Month,Day,Hour,Minute,Max,Month,Day,Hour,Minute]
1308,11,WATER HEATER,Water Heater Electricity Energy [J] !RunPeriod [Value,Min,Month,Day,Hour,Minute,Max,Month,Day,Hour,Minute]
13,11,Electricity:Facility [J] !RunPeriod [Value,Min,Month,Day,Hour,Minute,Max,Month,Day,Hour,Minute]
1134,11,Heating:Electricity [J] !RunPeriod [Value,Min,Month,Day,Hour,Minute,Max,Month,Day,Hour,Minute]
1096,11,Cooling:Electricity [J] !RunPeriod [Value,Min,Month,Day,Hour,Minute,Max,Month,Day,Hour,Minute]
562,11,Fans:Electricity [J] !RunPeriod [Value,Min,Month,Day,Hour,Minute,Max,Month,Day,Hour,Minute]
1379,11,Pumps:Electricity [J] !RunPeriod [Value,Min,Month,Day,Hour,Minute,Max,Month,Day,Hour,Minute]
1326,11,WaterSystems:Electricity [J] !RunPeriod [Value,Min,Month,Day,Hour,Minute,Max,Month,Day,Hour,Minute]
61,11,InteriorLights:Electricity [J] !RunPeriod [Value,Min,Month,Day,Hour,Minute,Max,Month,Day,Hour,Minute]
1046,11,ExteriorLights:Electricity [J] !RunPeriod [Value,Min,Month,Day,Hour,Minute,Max,Month,Day,Hour,Minute]
134,11,InteriorEquipment:Electricity [J] !RunPeriod [Value,Min,Month,Day,Hour,Minute,Max,Month,Day,Hour,Minute]
170,11,gas_dryer:InteriorEquipment:Electricity [J] !RunPeriod [Value,Min,Month,Day,Hour,Minute,Max,Month,Day,Hour,Minute]
207,11,clotheswasher:InteriorEquipment:Electricity [J] !RunPeriod [Value,Min,Month,Day,Hour,Minute,Max,Month,Day,Hour,Minute]
244,11,dishwasher:InteriorEquipment:Electricity [J] !RunPeriod [Value,Min,Month,Day,Hour,Minute,Max,Month,Day,Hour,Minute]
281,11,refrigerator:InteriorEquipment:Electricity [J] !RunPeriod [Value,Min,Month,Day,Hour,Minute,Max,Month,Day,Hour,Minute]
318,11,electric_mels:InteriorEquipment:Electricity [J] !RunPeriod [Value,Min,Month,Day,Hour,Minute,Max,Month,Day,Hour,Minute]
355,11,NaturalGas:Facility [J] !RunPeriod [Value,Min,Month,Day,Hour,Minute,Max,Month,Day,Hour,Minute]
403,11,InteriorEquipment:NaturalGas [J] !RunPeriod [Value,Min,Month,Day,Hour,Minute,Max,Month,Day,Hour,Minute]
476,11,gas_dryer:InteriorEquipment:NaturalGas [J] !RunPeriod [Value,Min,Month,Day,Hour,Minute,Max,Month,Day,Hour,Minute]
513,11,gas_mels:InteriorEquipment:NaturalGas [J] !RunPeriod [Value,Min,Month,Day,Hour,Minute,Max,Month,Day,Hour,Minute]
End of Data Dictionary
1,EXTREME_WINTER,  44.36, -84.67,  -5.00, 351.00
5,7
1038,4.75,0.0,12,15, 1,15,0.25,12,15, 6,15
1039,0.0,0.0,12,15, 1,15,0.0,12,15, 1,15
581,0.471205154926093,0.2815495870636259,12,21,23, 5,0.8010942435826078,12,21,13,22
582,5.962905822095433,0.17076416805094502,12,18, 9,60,17.925773535840488,12,16,11,60
583,0.07060162673374278,0.0018120733850351708,12,16,23, 5,0.07883648094728396,12,16,11,60
1115,2023352241.2654085,0.0,12,16,23, 5,3962525.799409237,12,21,13,60
1128,753202702.9799451,0.0,12,16,23, 5,1214884.3234072882,12,21,15,45
1153,13545764.902267678,0.0,12,16,23, 5,45855.65648264747,12,21,24,60
1154,1472213.284551266,0.0,12,15, 1,15,60000.0,12,16,23, 5
1155,1766996543.4813488,0.0,12,15,23, 5,5882435.649628271,12,20, 6,15
1156,1766996543.4813488,0.0,12,15,23, 5,5882435.649628271,12,20, 6,15
1292,-25045320.421067897,-39780.059048927076,12,15, 1,15,-8129.990462377437,12,20, 9,50
1306,369708951.92382073,0.0,12,15, 1,15,4050000.0,12,15, 9,60
1307,174546103.9372702,0.0,12,15, 1,15,17649923.940803476,12,19, 9,60
1308,369708951.92382073,0.0,12,15, 1,15,4050000.0,12,15, 9,60
13,3363440606.006695,1261459.474302693,12,21,23,15,11248638.66178158,12,20, 9,45
61,301924526.02383536,88139.10953165221,12,15, 1,15,1282023.4113694867,12,15,20,15
134,70666020.44019976,63564.01800854099,12,15, 4,15,156554.22484006523,12,20,20,15
170,5241013.419656067,348.4159749238097,12,15, 4,15,17476.39704006126,12,20,12,15
207,6509451.13922267,815.2532113832032,12,15, 3,15,22990.642799023623,12,20,10,15
244,12749673.399825225,1521.856143006317,12,15, 4,15,53038.631142310165,12,20,20,15
281,46165882.481495745,59938.60262432081,12,15, 5,15,81951.81706819107,12,15,19,15
318,0.0,0.0,12,15, 1,15,0.0,12,15, 1,15
355,197687796.27748066,18561.32405820678,12,15, 4,15,724774.895203776,12,20,18,15
403,197687796.27748066,18561.32405820678,12,15, 4,15,724774.895203776,12,20,18,15
476,106772067.24485716,7098.072629279515,12,15, 4,15,356036.3026282215,12,20,12,15
513,0.0,0.0,12,15, 1,15,0.0,12,15, 1,15
562,85923882.9707239,47645.89127343981,12,21,23,15,129479.99729000243,12,15, 1,15
1046,0.0,0.0,12,15, 1,15,0.0,12,15, 1,15
1096,0.0,0.0,12,15, 1,15,0.0,12,15, 1,15
1134,2535217224.648113,562291.2892365538,12,21,23,15,6995926.953531699,12,16, 6,30
1326,369708951.92382056,0.0,12,15, 1,15,4050000.0,12,15, 9,60
1379,0.0,0.0,12,15, 1,15,0.0,12,15, 1,15
1,EXTREME_SUMMER,  44.36, -84.67,  -5.00, 351.00
5,7
1038,0.0,0.0, 7,27, 1,15,0.0, 7,27, 1,15
1039,19.5,0.0, 7,27, 1,15,0.25, 7,29,17,15
581,0.15937299849932693,0.004505231441786107, 8, 1, 6,11,0.41882411834259525, 7,27,11,60
582,4.033625744495739,0.0, 7,28,22,56,15.96049060048091, 7,27,11,60
583,0.033641978658119874,0.00015654116511017822, 8, 1, 5, 7,0.0651442928056861, 7,29,20,46
1115,0.0,0.0, 7,27, 1,15,0.0, 7,27, 1,15
1128,0.0,0.0, 7,27, 1,15,0.0, 7,27, 1,15
1153,0.0,0.0, 7,27, 1,15,0.0, 7,27, 1,15
1154,0.0,0.0, 7,27, 1,15,0.0, 7,27, 1,15
1155,0.0,0.0, 7,27, 1,15,0.0, 7,27, 1,15
1156,0.0,0.0, 7,27, 1,15,0.0, 7,27, 1,15
1292,-21817098.023198135,-34592.13834699465, 7,28, 6,45,-2774.129556198024, 7,30, 9,45
1306,310595863.128522,0.0, 7,27, 1,15,4050000.0, 7,31,18,30
1307,124103180.60582444,0.0, 7,27, 1,15,3713139.5076397443, 7,31, 9,52
1308,310595863.128522,0.0, 7,27, 1,15,4050000.0, 7,31,18,30
13,1123496621.5532691,151703.1275401932, 7,28, 4,45,6766309.892539132, 8, 1,21,45
61,301924526.02383536,88139.10953165221, 7,27, 1,15,1282023.4113694867, 7,27,20,15
134,70666020.44019976,63564.01800854099, 7,27, 4,15,156554.22484006523, 8, 1,20,15
170,5241013.419656067,348.4159749238097, 7,27, 4,15,17476.39704006126, 8, 1,12,15
207,6509451.13922267,815.2532113832032, 7,27, 3,15,22990.642799023623, 8, 1,10,15
244,12749673.399825225,1521.856143006317, 7,27, 4,15,53038.631142310165, 8, 1,20,15
281,46165882.481495745,59938.60262432081, 7,27, 5,15,81951.81706819107, 7,27,19,15
318,0.0,0.0, 7,27, 1,15,0.0, 7,27, 1,15
355,197687796.27748066,18561.32405820678, 7,27, 4,15,724774.895203776, 8, 1,18,15
403,197687796.27748066,18561.32405820678, 7,27, 4,15,724774.895203776, 8, 1,18,15
476,106772067.24485716,7098.072629279515, 7,27, 4,15,356036.3026282215, 8, 1,12,15
513,0.0,0.0, 7,27, 1,15,0.0, 7,27, 1,15
562,45102375.58242326,0.0, 7,27, 5,45,129479.99729000243, 7,29,16,30
1046,0.0,0.0, 7,27, 1,15,0.0, 7,27, 1,15
1096,395207836.37828887,0.0, 7,27, 5,45,1323178.9648462622, 8, 1,16,60
1134,0.0,0.0, 7,27, 1,15,0.0, 7,27, 1,15
1326,310595863.1285219,0.0, 7,27, 1,15,4050000.0, 7,27, 8,30
1379,0.0,0.0, 7,27, 1,15,0.0, 7,27, 1,15
1,ANNUAL,  44.36, -84.67,  -5.00, 351.00
5,365
1038,51.5,0.0, 1, 1, 1,15,0.25, 1, 4, 6,15
1039,173.75,0.0, 1, 1, 1,15,0.25, 4, 4,16,30
581,0.2859100133024087,0.0, 6,23,23, 3,0.9961662846679561, 2,19,13,52
582,4.238218644205071,0.0, 1, 5,21,60,23.97348992881836,11,23, 7,60
583,0.03168262315195267,0.0, 6,26,23, 3,0.08272515829615773, 2,19,13,52
1115,36445974549.39051,0.0, 1, 1,23, 5,4245779.853117516, 1,11, 9,60
1128,12116496233.54266,0.0, 1, 1,23, 5,1280896.726204473, 1,11, 9,60
1153,470410291.810091,0.0, 1, 1, 1,48,136045.52880813522, 2,10, 7,15
1154,1621323952.4798534,0.0, 1, 1, 6, 5,180000.0, 1, 2,16,15
1155,12066407478.835155,0.0, 1, 1, 1, 7,5882435.649628271, 2, 4, 4,30
1156,12066407478.835155,0.0, 1, 1, 1, 7,5882435.649628271, 2, 4, 4,30
1292,-1227258913.948914,-41375.886777915875, 2, 5, 3,60,-1528.5918267508675, 6, 4, 9,46
1306,18224059033.334717,0.0, 1, 1, 1, 7,4050000.0, 1, 1, 9,60
1307,8183715312.017446,0.0, 1, 1, 1, 7,18965895.64689191, 2,17, 9,60
1308,18224059033.334717,0.0, 1, 1, 1, 7,4050000.0, 1, 1, 9,60
13,71793006022.63371,151703.1275401932, 4,18, 4,15,11786014.131642804,12,20, 8,60
61,15743207428.383959,88139.10953165221, 1, 1, 1,15,1282023.4113694867, 1, 1,20,15
134,3685071073.4325233,63564.01800854099, 1, 2, 4,15,156554.22484006523, 1, 1,20,15
170,273393721.45532674,348.4159749238097, 1, 2, 4,15,17476.39704006126, 1, 1,12,15
207,339560869.0695816,815.2532113832032, 1, 2, 3,15,22990.642799023623, 1, 1,10,15
244,664895467.8009144,1521.856143006317, 1, 2, 4,15,53038.631142310165, 1, 1,20,15
281,2407221015.106824,59938.60262432081, 1, 1, 5,15,81951.81706819107, 1, 1,19,15
318,0.0,0.0, 1, 1, 1,15,0.0, 1, 1, 1,15
355,10310294493.051695,18561.32405820678, 1, 2, 4,15,724774.895203776, 1, 1,18,15
403,10310294493.051695,18561.32405820678, 1, 2, 4,15,724774.895203776, 1, 1,18,15
476,5569688622.066177,7098.072629279515, 1, 2, 4,15,356036.3026282215, 1, 1,12,15
513,0.0,0.0, 1, 1, 1,15,0.0, 1, 1, 1,15
562,2054089078.7749891,0.0, 1, 1,23,15,129479.99729000243, 1, 2, 6,45
1046,0.0,0.0, 1, 1, 1,15,0.0, 1, 1, 1,15
1096,5811941452.038088,0.0, 1, 1, 1,15,1326013.9140485195, 8, 1,16,60
1134,26274637956.667854,0.0, 2,10,14,30,7026871.699258966,12,15, 6,30
1326,18224059033.334694,0.0, 1, 1, 1,15,4050000.0000000014, 4,18,11,45
1379,0.0,0.0, 1, 1, 1,15,0.0, 1, 1, 1,15
End of Data
 Number of Records Written=          99
