Program Version,EnergyPlus, Version 22.2.0-c249759bad, YMD=2023.09.01 14:30
1,5,Environment Title[],Latitude[deg],Longitude[deg],Time Zone[],Elevation[m]
2,8,Day of Simulation[],Month[],Day of Month[],DST Indicator[1=yes 0=no],Hour[],StartMinute[],EndMinute[],DayType
3,5,Cumulative Day of Simulation[],Month[],Day of Month[],DST Indicator[1=yes 0=no],DayType  ! When Daily Report Variables Requested
4,2,Cumulative Days of Simulation[],Month[]  ! When Monthly Report Variables Requested
5,1,Cumulative Days of Simulation[] ! When Run Period Report Variables Requested
6,1,Calendar Year of Simulation[] ! When Annual Report Variables Requested
7,1,Environment,Site Outdoor Air Drybulb Temperature [C] !Hourly
619,1,DX_HEATING_COIL,Heating Coil Heating Rate [W] !Hourly
633,1,DX_HEATING_COIL,Heating Coil Electricity Rate [W] !Hourly
659,1,DX_HEATING_COIL,Heating Coil Defrost Electricity Rate [W] !Hourly
661,1,DX_HEATING_COIL,Heating Coil Crankcase Heater Electricity Rate [W] !Hourly
690,1,FAN,Fan Electricity Rate [W] !Hourly
716,1,HEAT PUMP WATER HEATER FAN,Fan Electricity Rate [W] !Hourly
718,1,LIVING,Zone Mean Air Temperature [C] !Hourly
719,1,ATTIC,Zone Mean Air Temperature [C] !Hourly
720,1,CRAWLSPACE,Zone Mean Air Temperature [C] !Hourly
843,1,LIVING,Zone Predicted Sensible Load to Heating Setpoint Heat Transfer Rate [W] !Hourly
844,1,LIVING,Zone System Predicted Sensible Load to Heating Setpoint Heat Transfer Rate [W] !Hourly
907,1,ATTIC,Zone Predicted Sensible Load to Heating Setpoint Heat Transfer Rate [W] !Hourly
908,1,ATTIC,Zone System Predicted Sensible Load to Heating Setpoint Heat Transfer Rate [W] !Hourly
971,1,CRAWLSPACE,Zone Predicted Sensible Load to Heating Setpoint Heat Transfer Rate [W] !Hourly
972,1,CRAWLSPACE,Zone System Predicted Sensible Load to Heating Setpoint Heat Transfer Rate [W] !Hourly
1195,1,HEATING_RESISTANCE_BACKUP,Heating Coil Heating Rate [W] !Hourly
1197,1,HEATING_RESISTANCE_BACKUP,Heating Coil Electricity Rate [W] !Hourly
End of Data Dictionary
1,EXTREME_WINTER,  40.65, -73.78,  -5.00,   3.40
2,1, 1, 6, 0, 1, 0.00,60.00,Monday
7,-5.6
718,18.60307423015541
719,-3.0505927467372187
720,19.032599722621484
619,3797.593754410881
633,1261.2907194251836
659,0.0649653740845158
661,0.0
690,134.86142005128272
716,0.0
843,3530.3472278028003
844,3530.3472278028003
907,0.0
908,0.0
971,0.0
972,0.0
1195,1366.6667455243264
1197,1366.6667455243264
2,1, 1, 6, 0, 2, 0.00,60.00,Monday
7,-5.6
718,18.605030055238988
719,-2.9520436227616558
720,18.669055768384464
619,3800.1355132200924
633,1258.342659647703
659,0.0649653740845158
661,0.0
690,134.86142005128272
716,0.0
843,3895.8714791033
844,3895.8714791033
907,0.0
908,0.0
971,0.0
972,0.0
1195,1816.7764609739215
1197,1816.7764609739215
2,1, 1, 6, 0, 3, 0.00,60.00,Monday
7,-6.7
718,18.60510556370925
719,-2.7028903652118275
720,18.50692932105462
619,3680.095854096408
633,1246.3778801731987
659,0.0649653740845158
661,0.0
690,134.86142005128272
716,0.0
843,3775.1365571344704
844,3775.1365571344704
907,0.0
908,0.0
971,0.0
972,0.0
1195,1790.777793729255
1197,1790.777793729255
2,1, 1, 6, 0, 4, 0.00,60.00,Monday
7,-6.7
718,18.61021097630993
719,-2.1982696940135016
720,18.31902110645799
619,3680.2221782745614
633,1246.232765100427
659,0.0649653740845158
661,0.0
690,134.86142005128272
716,0.0
843,3468.197090179676
844,3468.197090179676
907,0.0
908,0.0
971,0.0
972,0.0
1195,1410.0912857558433
1197,1410.0912857558433
2,1, 1, 6, 0, 5, 0.00,60.00,Monday
7,-6.7
718,18.60764563618896
719,-2.2215775865714567
720,18.148056307957223
619,3680.291148031685
633,1246.1535359538616
659,0.0649653740845158
661,0.0
690,134.86142005128272
716,0.0
843,3471.0695530981247
844,3471.0695530981247
907,0.0
908,0.0
971,0.0
972,0.0
1195,1383.417558842114
1197,1383.417558842114
2,1, 1, 6, 0, 6, 0.00,60.00,Monday
7,-6.1
718,19.389741959894767
719,-1.8609382225855882
720,17.992043868905935
619,3745.892872143806
633,1252.218587152227
659,0.0649653740845158
661,0.0
690,134.86142005128272
716,0.0
843,4251.973930258206
844,4251.973930258206
907,0.0
908,0.0
971,0.0
972,0.0
1195,2262.176238507922
1197,2262.176238507922
2,1, 1, 6, 0, 7, 0.00,60.00,Monday
7,-6.1
718,19.584572429235156
719,-2.1871474212460824
720,17.867260223121917
619,3729.480197351682
633,1271.1773161090177
659,0.0649653740845158
661,0.0
690,134.86142005128272
716,85.44000000000005
843,4212.588875483598
844,4212.588875483598
907,0.0
908,0.0
971,0.0
972,0.0
1195,3379.632448876284
1197,3379.632448876284
2,1, 1, 6, 0, 8, 0.00,60.00,Monday
7,-6.1
718,19.653850183871402
719,-2.1115723619842606
720,17.72974288580935
619,3725.469316238209
633,1275.810571521202
659,0.0649653740845158
661,0.0
690,134.86142005128272
716,85.44000000000005
843,3949.921984702818
844,3949.921984702818
907,0.0
908,0.0
971,0.0
972,0.0
1195,3182.3637107215786
1197,3182.3637107215786
2,1, 1, 6, 0, 9, 0.00,60.00,Monday
7,-7.0
718,19.699348053649448
719,-0.8899741261435711
720,17.595328548926613
619,3616.1996475785
633,1263.9481833183954
659,2.7128570850124225
661,0.0
690,134.86142005128272
716,8.734334974934447
843,3912.483360600794
844,3912.483360600794
907,0.0
908,0.0
971,0.0
972,0.0
1195,2172.0695595557972
1197,2172.0695595557972
2,1, 1, 6, 0,10, 0.00,60.00,Monday
7,-7.0
718,19.717570962627235
719,0.31541786962513224
720,17.472046799054766
619,3589.58751512597
633,1255.8488794116515
659,9.398061715805559
661,0.0
690,134.86142005128272
716,0.0
843,3575.9290434429277
844,3575.9290434429277
907,0.0
908,0.0
971,0.0
972,0.0
1195,1632.6522994215602
1197,1632.6522994215602
2,1, 1, 6, 0,11, 0.00,60.00,Monday
7,-6.7
718,19.720443152690738
719,4.032241238828003
720,17.358966290425975
619,3558.4171809432905
633,1237.4593298220248
659,25.58251298075794
661,0.0
690,134.86142005128272
716,0.0
843,3012.17920051291
844,3012.17920051291
907,0.0
908,0.0
971,0.0
972,0.0
1195,920.5119975343923
1197,920.5119975343923
2,1, 1, 6, 0,12, 0.00,60.00,Monday
7,-7.0
718,19.72540258516677
719,6.394641112675933
720,17.252310215152246
619,3499.438299416555
633,1224.5620688093989
659,32.712006880347005
661,0.0
690,134.86142005128272
716,0.0
843,2838.084390534772
844,2838.084390534772
907,0.0
908,0.0
971,0.0
972,0.0
1195,573.489726350871
1197,573.489726350871
2,1, 1, 6, 0,13, 0.00,60.00,Monday
7,-6.0
718,19.72377335781641
719,8.027185091208116
720,17.17131796946438
619,3589.7859922268
633,1230.1086439234484
659,36.37339401743751
661,0.0
690,134.86142005128272
716,0.0
843,2615.5718048552844
844,2615.5718048552844
907,0.0
908,0.0
971,0.0
972,0.0
1195,90.56175738657839
1197,90.56175738657839
2,1, 1, 6, 0,14, 0.00,60.00,Monday
7,-5.6
718,19.709690357624805
719,4.398976391403235
720,17.09376670083856
619,3655.6494594711617
633,1242.1167907809208
659,30.541511212573887
661,0.0
690,134.86142005128272
716,77.28787829242385
843,2493.4330523181306
844,2493.4330523181306
907,0.0
908,0.0
971,0.0
972,0.0
1195,794.662885751577
1197,794.662885751577
2,1, 1, 6, 0,15, 0.00,60.00,Monday
7,-5.6
718,19.76433863670132
719,5.738084135481911
720,17.038381342208062
619,3037.3077028441953
633,1057.2937926526547
659,21.05023026345963
661,30.77421472607471
690,113.46623475316666
716,0.0
843,2075.6237409124496
844,2075.6237409124496
907,0.0
908,0.0
971,0.0
972,0.0
1195,0.0
1197,0.0
2,1, 1, 6, 0,16, 0.00,60.00,Monday
7,-5.6
718,19.749580069045066
719,3.3591750370342157
720,16.987079163632245
619,2724.914537393089
633,959.6618977314658
659,23.62125639626568
661,45.596448623640825
690,103.38905667747491
716,0.0
843,1904.5998537185915
844,1904.5998537185915
907,0.0
908,0.0
971,0.0
972,0.0
1195,0.0
1197,0.0
2,1, 1, 6, 0,17, 0.00,60.00,Monday
7,-5.6
718,19.735790852664508
719,1.9530183752479071
720,16.940983422688948
619,2709.728219813117
633,954.3562748168156
659,23.498592147128818
661,46.398260152033544
690,102.85223234968774
716,0.0
843,1819.4644406598018
844,1819.4644406598018
907,0.0
908,0.0
971,0.0
972,0.0
1195,0.0
1197,0.0
2,1, 1, 6, 0,18, 0.00,60.00,Monday
7,-6.1
718,19.694353151014695
719,0.07435290586527864
720,16.889945652283764
619,3053.0974724293105
633,1071.2168755998018
659,11.628423062830898
661,29.95338053693488
690,114.29222028719842
716,0.0
843,1999.5196122436337
844,1999.5196122436337
907,0.0
908,0.0
971,0.0
972,0.0
1195,0.0
1197,0.0
2,1, 1, 6, 0,19, 0.00,60.00,Monday
7,-6.1
718,19.646156726911176
719,-1.244824054822889
720,16.830732232642713
619,3670.2954012049704
633,1258.6857557536912
659,13.679401868598049
661,0.0
690,134.86142005128272
716,85.44000000000005
843,2047.7057066860052
844,2047.7057066860052
907,0.0
908,0.0
971,0.0
972,0.0
1195,876.4841026999457
1197,876.4841026999457
2,1, 1, 6, 0,20, 0.00,60.00,Monday
7,-6.1
718,19.68601260526318
719,-1.6640667392222952
720,16.767130533755278
619,3671.3769080830557
633,1257.4364671987432
659,13.679401868598049
661,0.0
690,134.86142005128272
716,85.44000000000005
843,2090.8695336800556
844,2090.8695336800556
907,0.0
908,0.0
971,0.0
972,0.0
1195,1020.9862886395531
1197,1020.9862886395531
2,1, 1, 6, 0,21, 0.00,60.00,Monday
7,-5.6
718,19.698703780094743
719,-2.5951149183624964
720,16.695676036600506
619,3697.0772737320067
633,1254.2782485313871
659,20.55842477998068
661,0.0
690,134.86142005128272
716,46.09290839039554
843,2555.4521451861765
844,2555.4521451861765
907,0.0
908,0.0
971,0.0
972,0.0
1195,1008.2105853596613
1197,1008.2105853596613
2,1, 1, 6, 0,22, 0.00,60.00,Monday
7,-6.0
718,19.713129070290947
719,-2.873449210263079
720,16.613394691589512
619,3629.4475227477697
633,1241.8654427003955
659,26.70345816608319
661,0.0
690,134.86142005128272
716,0.0
843,2827.681481555286
844,2827.681481555286
907,0.0
908,0.0
971,0.0
972,0.0
1195,807.8920056267527
1197,807.8920056267527
2,1, 1, 6, 0,23, 0.00,60.00,Monday
7,-5.6
718,18.954676719478655
719,-2.9493641540678244
720,16.531761330847786
619,3561.207126555531
633,1219.1986856791693
659,24.321111769053232
661,4.741490338515475
690,130.9203339219739
716,0.0
843,2100.598262578649
844,2100.598262578649
907,0.0
908,0.0
971,0.0
972,0.0
1195,0.0
1197,0.0
2,1, 1, 6, 0,24, 0.00,60.00,Monday
7,-6.1
718,18.728533458280268
719,-2.474663396023799
720,16.407679491916433
619,3668.285793064983
633,1238.5609507876516
659,13.696020677329972
661,0.28174970512797604
690,134.23595849576662
716,0.0
843,2219.8839097913697
844,2219.8839097913697
907,0.0
908,0.0
971,0.0
972,0.0
1195,0.0
1197,0.0
2,2, 1, 7, 0, 1, 0.00,60.00,Tuesday
7,-6.1
718,18.64467811234601
719,-3.12618740760744
720,16.30391084139164
619,3690.8682506950067
633,1234.7156840646853
659,13.714007656572772
661,0.0
690,134.86142005128272
716,0.0
843,2781.25232452996
844,2781.25232452996
907,0.0
908,0.0
971,0.0
972,0.0
1195,613.240558210221
1197,613.240558210221
2,2, 1, 7, 0, 2, 0.00,60.00,Tuesday
7,-6.1
718,18.61799970349732
719,-2.994718121177773
720,16.20084200542593
619,3692.7212408327
633,1232.5755850898486
659,13.714007656572772
661,0.0
690,134.86142005128272
716,0.0
843,3091.9412773226977
844,3091.9412773226977
907,0.0
908,0.0
971,0.0
972,0.0
1195,1017.9586855843863
1197,1017.9586855843863
2,2, 1, 7, 0, 3, 0.00,60.00,Tuesday
7,-5.6
718,18.610481162544573
719,-2.848084285925442
720,16.102023006277676
619,3773.5370110127874
633,1245.5512659984856
659,7.300739248593271
661,0.0
690,134.86142005128272
716,0.0
843,3223.254750551878
844,3223.254750551878
907,0.0
908,0.0
971,0.0
972,0.0
1195,1082.8466412877456
1197,1082.8466412877456
2,2, 1, 7, 0, 4, 0.00,60.00,Tuesday
7,-5.6
718,18.609312852575144
719,-2.1840989071671038
720,16.005655581549995
619,3773.7528472070085
633,1245.2361818420713
659,7.311486073115019
661,0.0
690,134.86142005128272
716,0.0
843,3331.638877975858
844,3331.638877975858
907,0.0
908,0.0
971,0.0
972,0.0
1195,1210.0912207532288
1197,1210.0912207532288
2,2, 1, 7, 0, 5, 0.00,60.00,Tuesday
7,-5.6
718,18.60792358213303
719,-2.182643120174538
720,15.90919734414936
619,3773.8883585243025
633,1245.0790487974914
659,7.311486073115019
661,0.0
690,134.86142005128272
716,0.0
843,3334.982429928139
844,3334.982429928139
907,0.0
908,0.0
971,0.0
972,0.0
1195,1174.6981517300042
1197,1174.6981517300042
2,2, 1, 7, 0, 6, 0.00,60.00,Tuesday
7,-5.0
718,19.392220531131816
719,-2.1702511583655975
720,15.818296853810946
619,3816.795616638605
633,1243.5859966740657
659,12.967605174827053
661,0.0
690,134.86142005128272
716,0.0
843,4314.366943067902
844,4314.366943067902
907,0.0
908,0.0
971,0.0
972,0.0
1195,2313.9248948040095
1197,2313.9248948040095
2,2, 1, 7, 0, 7, 0.00,60.00,Tuesday
7,-5.6
718,19.585027859230436
719,-2.2529624006282227
720,15.758436512612814
619,3721.650372250062
633,1251.7119900621515
659,16.25767358139333
661,0.0
690,134.86142005128272
716,85.44000000000005
843,4536.743785430906
844,4536.743785430906
907,0.0
908,0.0
971,0.0
972,0.0
1195,3868.5563692823207
1197,3868.5563692823207
2,2, 1, 7, 0, 8, 0.00,60.00,Tuesday
7,-5.6
718,19.653766117036717
719,-2.3348639565149307
720,15.678412497903714
619,3717.6923364402446
633,1256.3052309883021
659,16.25767358139333
661,0.0
690,134.86142005128272
716,85.44000000000005
843,4252.451428575194
844,4252.451428575194
907,0.0
908,0.0
971,0.0
972,0.0
1195,3653.177591156518
1197,3653.177591156518
2,2, 1, 7, 0, 9, 0.00,60.00,Tuesday
7,-5.6
718,19.687517142676086
719,-2.3594831645064893
720,15.597529822857497
619,3781.5679340433944
633,1279.885499717059
659,0.0649653740845158
661,0.0
690,134.86142005128272
716,85.44000000000005
843,4297.566305197481
844,4297.566305197481
907,0.0
908,0.0
971,0.0
972,0.0
1195,3647.623441026662
1197,3647.623441026662
2,2, 1, 7, 0,10, 0.00,60.00,Tuesday
7,-4.4
718,19.72052258419724
719,-1.1029981193218585
720,15.543181227584062
619,3914.583118198613
633,1293.6954651650976
659,0.0649653740845158
661,0.0
690,134.86142005128272
716,9.891972831761326
843,2815.4596557677487
844,2815.4596557677487
907,0.0
908,0.0
971,0.0
972,0.0
1195,658.9424123561157
1197,658.9424123561157
2,2, 1, 7, 0,11, 0.00,60.00,Tuesday
7,-4.4
718,19.739676345803396
719,-0.26106100784536446
720,15.493201243041597
619,3578.4715610936623
633,1194.861372543326
659,0.0599639751998199
661,15.397121790415325
690,124.47745997408508
716,0.0
843,2215.6544214813694
844,2215.6544214813694
907,0.0
908,0.0
971,0.0
972,0.0
1195,0.0
1197,0.0
2,2, 1, 7, 0,12, 0.00,60.00,Tuesday
7,-4.4
718,19.683829338768813
719,0.03423039859642025
720,15.473529192647714
619,3913.607856291772
633,1294.8386202976096
659,0.0649653740845158
661,0.0
690,134.86142005128272
716,0.0
843,2671.6290176022503
844,2671.6290176022503
907,0.0
908,0.0
971,0.0
972,0.0
1195,251.6671746488637
1197,251.6671746488637
2,2, 1, 7, 0,13, 0.00,60.00,Tuesday
7,-4.4
718,19.707417464974853
719,-0.8538425298555331
720,15.452854477213942
619,3914.8814152427963
633,1293.3458341219418
659,0.0649653740845158
661,0.0
690,134.86142005128272
716,0.0
843,2986.2126452640605
844,2986.2126452640605
907,0.0
908,0.0
971,0.0
972,0.0
1195,612.2151636346366
1197,612.2151636346366
2,2, 1, 7, 0,14, 0.00,60.00,Tuesday
7,-4.4
718,19.71826860142752
719,-0.859142984274814
720,15.449921767218793
619,3914.401141213022
633,1293.9087628725613
659,0.0649653740845158
661,0.0
690,134.86142005128272
716,0.0
843,2621.963344755197
844,2621.963344755197
907,0.0
908,0.0
971,0.0
972,0.0
1195,228.90355164411358
1197,228.90355164411358
2,2, 1, 7, 0,15, 0.00,60.00,Tuesday
7,-5.6
718,19.763640906330284
719,-0.47177609540682247
720,15.443303280263692
619,3037.7898070779206
633,1052.4263423630161
659,0.05335865030214426
661,35.73203093473127
690,110.76546056492572
716,0.0
843,1861.1226658264586
844,1861.1226658264586
907,0.0
908,0.0
971,0.0
972,0.0
1195,0.0
1197,0.0
2,2, 1, 7, 0,16, 0.00,60.00,Tuesday
7,-5.6
718,19.637396883163863
719,-1.4813261712442822
720,15.452868111226293
619,3771.883257172458
633,1279.9799712237746
659,0.06484943355685009
661,0.35693022413718634
690,134.61879775839253
716,0.0
843,2342.4560565395423
844,2342.4560565395423
907,0.0
908,0.0
971,0.0
972,0.0
1195,0.0
1197,0.0
2,2, 1, 7, 0,17, 0.00,60.00,Tuesday
7,-5.6
718,19.68860458648053
719,-2.194903938463427
720,15.444464236707333
619,3782.1935207131814
633,1279.1594680398425
659,0.0649653740845158
661,0.0
690,134.86142005128272
716,0.0
843,2712.0932028909465
844,2712.0932028909465
907,0.0
908,0.0
971,0.0
972,0.0
1195,491.40829392721844
1197,491.40829392721844
2,2, 1, 7, 0,18, 0.00,60.00,Tuesday
7,-7.8
718,19.677858288841787
719,-3.7235096674106405
720,15.380452860269799
619,3543.0300576662685
633,1256.2081039504956
659,0.0649653740845158
661,0.0
690,134.86142005128272
716,68.72654592256265
843,6181.6802238876135
844,6181.6802238876135
907,0.0
908,0.0
971,0.0
972,0.0
1195,5944.420061055692
1197,5944.420061055692
2,2, 1, 7, 0,19, 0.00,60.00,Tuesday
7,-9.4
718,19.698660739868412
719,-5.742103351569608
720,15.341663827927768
619,3375.4692064593196
633,1238.264691721141
659,0.0649653740845158
661,0.0
690,134.86142005128272
716,0.0
843,6892.460503616936
844,6892.460503616936
907,0.0
908,0.0
971,0.0
972,0.0
1195,6189.926641876327
1197,6189.926641876327
2,2, 1, 7, 0,20, 0.00,60.00,Tuesday
7,-9.4
718,19.320784905198373
719,-5.922526973266038
720,15.283293033257806
619,3375.08356174069
633,1238.692971467974
659,0.0649653740845158
661,0.0
690,134.86142005128272
716,85.44000000000005
843,7050.881374116871
844,7050.881374116871
907,0.0
908,0.0
971,0.0
972,0.0
1195,6938.966274610167
1197,6938.966274610167
2,2, 1, 7, 0,21, 0.00,60.00,Tuesday
7,-11.1
718,19.165743955209177
719,-6.779268504661719
720,15.174944339585636
619,3209.6260679953352
633,1211.0888102544795
659,0.0649653740845158
661,0.0
690,134.86142005128272
716,85.44000000000005
843,6931.014482634973
844,6931.014482634973
907,0.0
908,0.0
971,0.0
972,0.0
1195,6938.966274610167
1197,6938.966274610167
2,2, 1, 7, 0,22, 0.00,60.00,Tuesday
7,-11.7
718,19.484885024597418
719,-7.368989479132128
720,15.099713283966214
619,3152.867360403669
633,1200.904291601556
659,0.0649653740845158
661,0.0
690,134.86142005128272
716,67.1646688009256
843,5749.21489082528
844,5749.21489082528
907,0.0
908,0.0
971,0.0
972,0.0
1195,5854.793872753204
1197,5854.793872753204
2,2, 1, 7, 0,23, 0.00,60.00,Tuesday
7,-11.7
718,18.861293322669276
719,-7.698366791463447
720,15.005164911583329
619,3146.4240352404336
633,1207.8207065398087
659,0.0649653740845158
661,0.0
690,134.86142005128272
716,0.0
843,5078.877349122438
844,5078.877349122438
907,0.0
908,0.0
971,0.0
972,0.0
1195,4336.564766491931
1197,4336.564766491931
2,2, 1, 7, 0,24, 0.00,60.00,Tuesday
7,-12.2
718,18.657275316506478
719,-8.390531940291448
720,14.843114701574894
619,3109.8514276268156
633,1188.370667216773
659,0.0649653740845158
661,0.0
690,134.86142005128272
716,0.0
843,7116.371887599622
844,7116.371887599622
907,0.0
908,0.0
971,0.0
972,0.0
1195,6825.668289336902
1197,6825.668289336902
2,3, 1, 8, 0, 1, 0.00,60.00,Wednesday
7,-12.8
718,18.61767798464117
719,-8.655305599971152
720,14.72998872927352
619,3055.3192665967917
633,1177.1118178588504
659,0.0649653740845158
661,0.0
690,134.86142005128272
716,0.0
843,6809.060622494993
844,6809.060622494993
907,0.0
908,0.0
971,0.0
972,0.0
1195,6539.790204643906
1197,6539.790204643906
2,3, 1, 8, 0, 2, 0.00,60.00,Wednesday
7,-12.8
718,18.591271424524695
719,-8.747985585739237
720,14.601661487870098
619,3056.2492431844585
633,1176.127612120784
659,0.0649653740845158
661,0.0
690,134.86142005128272
716,0.0
843,7158.024440800802
844,7158.024440800802
907,0.0
908,0.0
971,0.0
972,0.0
1195,6938.966274610167
1197,6938.966274610167
2,3, 1, 8, 0, 3, 0.00,60.00,Wednesday
7,-12.8
718,18.59889166664904
719,-8.675751182688185
720,14.478947364343247
619,3056.912519697084
633,1175.4254492445184
659,0.0649653740845158
661,0.0
690,134.86142005128272
716,0.0
843,6947.67210249647
844,6947.67210249647
907,0.0
908,0.0
971,0.0
972,0.0
1195,6716.146854777935
1197,6716.146854777935
2,3, 1, 8, 0, 4, 0.00,60.00,Wednesday
7,-12.8
718,18.59884966096382
719,-8.74653861182429
720,14.365562863956775
619,3056.840698983794
633,1175.5014890259122
659,0.0649653740845158
661,0.0
690,134.86142005128272
716,0.0
843,5550.635482225214
844,5550.635482225214
907,0.0
908,0.0
971,0.0
972,0.0
1195,4958.5289663395815
1197,4958.5289663395815
2,3, 1, 8, 0, 5, 0.00,60.00,Wednesday
7,-12.8
718,18.602303633879977
719,-8.80577549507651
720,14.240153857399514
619,3056.9739317938083
633,1175.3604279146366
659,0.0649653740845158
661,0.0
690,134.86142005128272
716,0.0
843,5553.490872827984
844,5553.490872827984
907,0.0
908,0.0
971,0.0
972,0.0
1195,4991.1577393302805
1197,4991.1577393302805
2,3, 1, 8, 0, 6, 0.00,60.00,Wednesday
7,-12.2
718,19.146167626371692
719,-8.358714715249738
720,14.12588250027735
619,3115.869322392995
633,1181.9387025745314
659,0.0649653740845158
661,0.0
690,134.86142005128272
716,77.48551840202781
843,6773.421467966216
844,6773.421467966216
907,0.0
908,0.0
971,0.0
972,0.0
1195,6938.966274610167
1197,6938.966274610167
2,3, 1, 8, 0, 7, 0.00,60.00,Wednesday
7,-12.2
718,19.39708385539262
719,-8.488619265679352
720,14.033753698386816
619,3104.9986916536645
633,1193.5476340200846
659,0.0649653740845158
661,0.0
690,134.86142005128272
716,85.44000000000005
843,6471.449570574092
844,6471.449570574092
907,0.0
908,0.0
971,0.0
972,0.0
1195,6938.966274610167
1197,6938.966274610167
2,3, 1, 8, 0, 8, 0.00,60.00,Wednesday
7,-12.2
718,19.5887785136393
719,-8.437867843843428
720,13.933885989015598
619,3099.9976861636737
633,1198.8735000808813
659,0.0649653740845158
661,0.0
690,134.86142005128272
716,77.92297965099895
843,6234.587450542467
844,6234.587450542467
907,0.0
908,0.0
971,0.0
972,0.0
1195,6823.957381396329
1197,6823.957381396329
2,3, 1, 8, 0, 9, 0.00,60.00,Wednesday
7,-10.6
718,19.688871660399357
719,-6.991765027416892
720,13.854486851762106
619,3256.0061430419196
633,1221.117101461573
659,0.0649653740845158
661,0.0
690,134.86142005128272
716,0.0
843,5530.087481610493
844,5530.087481610493
907,0.0
908,0.0
971,0.0
972,0.0
1195,4842.06884439072
1197,4842.06884439072
2,3, 1, 8, 0,10, 0.00,60.00,Wednesday
7,-9.4
718,19.707815376163794
719,-5.933391238196227
720,13.774288538569898
619,3376.9180652779196
633,1236.6553573152023
659,0.0649653740845158
661,0.0
690,134.86142005128272
716,0.0
843,4043.3404063481903
844,4043.3404063481903
907,0.0
908,0.0
971,0.0
972,0.0
1195,2835.1870712099935
1197,2835.1870712099935
2,3, 1, 8, 0,11, 0.00,60.00,Wednesday
7,-9.4
718,19.71976158461778
719,-5.2399999988815535
720,13.706877664142963
619,3376.62351536047
633,1236.9825693549296
659,0.0649653740845158
661,0.0
690,134.86142005128272
716,0.0
843,3370.5385930698867
844,3370.5385930698867
907,0.0
908,0.0
971,0.0
972,0.0
1195,1982.6914227111326
1197,1982.6914227111326
2,3, 1, 8, 0,12, 0.00,60.00,Wednesday
7,-7.2
718,19.719396678226627
719,-2.447078524830664
720,13.680959842577458
619,3608.4355750230943
633,1261.300553901718
659,0.0649653740845158
661,0.0
690,134.86142005128272
716,0.0
843,2938.9710416871567
844,2938.9710416871567
907,0.0
908,0.0
971,0.0
972,0.0
1195,1192.0757293085894
1197,1192.0757293085894
2,3, 1, 8, 0,13, 0.00,60.00,Wednesday
7,-6.1
718,19.766999487411788
719,1.4296239578630265
720,13.655678591350945
619,3085.7793091261497
633,1074.538342974994
659,0.05481935007467876
661,31.235174592045656
690,113.79759087323443
716,0.0
843,1777.0448852409936
844,1777.0448852409936
907,0.0
908,0.0
971,0.0
972,0.0
1195,0.0
1197,0.0
2,3, 1, 8, 0,14, 0.00,60.00,Wednesday
7,-6.1
718,19.788063296693277
719,2.125068485307825
720,13.635123891658395
619,2038.526383208012
633,733.965086938071
659,0.0374038959814344
661,84.84974801261262
690,77.64545229779301
716,0.0
843,1269.5818728545564
844,1269.5818728545564
907,0.0
908,0.0
971,0.0
972,0.0
1195,0.0
1197,0.0
2,3, 1, 8, 0,15, 0.00,60.00,Wednesday
7,-5.6
718,19.694660357574037
719,0.2899455083155358
720,13.692875626366114
619,2691.1464067436814
633,941.2735405345495
659,0.047753997892288395
661,52.98630673575897
690,99.13094793062051
716,74.1796889598645
843,984.0663510457471
844,984.0663510457471
907,0.0
908,0.0
971,0.0
972,0.0
1195,0.0
1197,0.0
2,3, 1, 8, 0,16, 0.00,60.00,Wednesday
7,-6.7
718,19.615990545285218
719,-0.1659246502685285
720,13.753032492702355
619,3310.637327237439
633,1156.7341969544948
659,0.05934757418821775
661,17.29475116695136
690,123.19745565184722
716,83.69253370904259
843,1190.5410841730427
844,1190.5410841730427
907,0.0
908,0.0
971,0.0
972,0.0
1195,0.0
1197,0.0
2,3, 1, 8, 0,17, 0.00,60.00,Wednesday
7,-6.7
718,19.714841679840553
719,-1.7256517735960315
720,13.788614162166203
619,2879.2740689932493
633,1017.5993753030727
659,0.05228010091273823
661,39.052413229468506
690,108.52634744227058
716,0.0
843,1753.110927624588
844,1753.110927624588
907,0.0
908,0.0
971,0.0
972,0.0
1195,0.0
1197,0.0
2,3, 1, 8, 0,18, 0.00,60.00,Wednesday
7,-7.2
718,19.603312500373885
719,-3.2230156332729374
720,13.853122323926927
619,3608.4267402307646
633,1261.3106440447127
659,0.0649653740845158
661,0.0
690,134.86142005128272
716,0.0
843,2566.902219152029
844,2566.902219152029
907,0.0
908,0.0
971,0.0
972,0.0
1195,549.9778552928108
1197,549.9778552928108
2,3, 1, 8, 0,19, 0.00,60.00,Wednesday
7,-7.2
718,19.675781222320822
719,-3.776617127526568
720,13.86323093889169
619,3610.685109741278
633,1258.7311767569954
659,0.0649653740845158
661,0.0
690,134.86142005128272
716,0.0
843,2676.0278298494813
844,2676.0278298494813
907,0.0
908,0.0
971,0.0
972,0.0
1195,748.3151442811804
1197,748.3151442811804
2,3, 1, 8, 0,20, 0.00,60.00,Wednesday
7,-7.2
718,19.678143123962425
719,-3.8054347975234317
720,13.864199832214082
619,3609.146792007318
633,1260.4882582052855
659,0.0649653740845158
661,0.0
690,134.86142005128272
716,85.44000000000005
843,2836.612458969723
844,2836.612458969723
907,0.0
908,0.0
971,0.0
972,0.0
1195,2183.266116385336
1197,2183.266116385336
2,3, 1, 8, 0,21, 0.00,60.00,Wednesday
7,-7.8
718,19.695481012496266
719,-4.232106154877855
720,13.836326868640645
619,3544.9651423286555
633,1254.0133439886094
659,0.0649653740845158
661,0.0
690,134.86142005128272
716,85.44000000000005
843,3135.2275618591066
844,3135.2275618591066
907,0.0
908,0.0
971,0.0
972,0.0
1195,2586.286546352996
1197,2586.286546352996
2,3, 1, 8, 0,22, 0.00,60.00,Wednesday
7,-7.2
718,19.705189454269895
719,-3.8808446217229005
720,13.806996988190129
619,3608.764011185086
633,1260.925445197524
659,0.0649653740845158
661,0.0
690,134.86142005128272
716,35.40478816987447
843,3545.69150969122
844,3545.69150969122
907,0.0
908,0.0
971,0.0
972,0.0
1195,2308.969525792362
1197,2308.969525792362
2,3, 1, 8, 0,23, 0.00,60.00,Wednesday
7,-7.2
718,18.941548883854956
719,-4.012847546638512
720,13.760317347856205
619,3608.596002714701
633,1261.1173296643728
659,0.0649653740845158
661,0.0
690,134.86142005128272
716,0.0
843,2872.335388756992
844,2872.335388756992
907,0.0
908,0.0
971,0.0
972,0.0
1195,1031.501711097697
1197,1031.501711097697
2,3, 1, 8, 0,24, 0.00,60.00,Wednesday
7,-6.7
718,18.70669923930817
719,-3.5557923081502887
720,13.669649786398399
619,3678.680818397153
633,1248.0033958830752
659,0.0649653740845158
661,0.0
690,134.86142005128272
716,0.0
843,3948.6662450558597
844,3948.6662450558597
907,0.0
908,0.0
971,0.0
972,0.0
1195,2219.6881534889203
1197,2219.6881534889203
2,4, 1, 9, 0, 1, 0.00,60.00,Thursday
7,-5.6
718,18.628726088189474
719,-2.557258357993328
720,13.606473180903434
619,3804.114104943589
633,1253.7289649149116
659,0.0649653740845158
661,0.0
690,134.86142005128272
716,0.0
843,4826.337929391422
844,4826.337929391422
907,0.0
908,0.0
971,0.0
972,0.0
1195,3122.6368627549286
1197,3122.6368627549286
2,4, 1, 9, 0, 2, 0.00,60.00,Thursday
7,-5.6
718,18.611588405067245
719,-2.3597507445853356
720,13.537327871552284
619,3805.823229062119
633,1251.7473758315075
659,0.0649653740845158
661,0.0
690,134.86142005128272
716,0.0
843,5163.267695044948
844,5163.267695044948
907,0.0
908,0.0
971,0.0
972,0.0
1195,3484.375340577917
1197,3484.375340577917
2,4, 1, 9, 0, 3, 0.00,60.00,Thursday
7,-2.8
718,18.606361375648913
719,-0.18868676496717215
720,13.496057339521812
619,4122.483583390625
633,1280.9783777387804
659,0.0649653740845158
661,0.0
690,134.86142005128272
716,0.0
843,4482.863950624065
844,4482.863950624065
907,0.0
908,0.0
971,0.0
972,0.0
1195,2319.2896135412993
1197,2319.2896135412993
2,4, 1, 9, 0, 4, 0.00,60.00,Thursday
7,-2.2
718,18.60773461777454
719,0.23113415786337796
720,13.433831923757184
619,4192.258879218775
633,1287.295927807182
659,0.0649653740845158
661,0.0
690,134.86142005128272
716,0.0
843,4801.019801041737
844,4801.019801041737
907,0.0
908,0.0
971,0.0
972,0.0
1195,2521.4692929892663
1197,2521.4692929892663
2,4, 1, 9, 0, 5, 0.00,60.00,Thursday
7,-2.2
718,18.604128204553305
719,0.4539150352132929
720,13.379265103038792
619,4192.308408701289
633,1287.2374655682936
659,0.0649653740845158
661,0.0
690,134.86142005128272
716,0.0
843,4765.938651848834
844,4765.938651848834
907,0.0
908,0.0
971,0.0
972,0.0
1195,2445.3999356311733
1197,2445.3999356311733
2,4, 1, 9, 0, 6, 0.00,60.00,Thursday
7,-2.2
718,19.404160639899985
719,0.620135367104864
720,13.336430069732138
619,4192.363651052733
633,1287.1722610502304
659,0.0649653740845158
661,0.0
690,134.86142005128272
716,0.0
843,5027.933997531902
844,5027.933997531902
907,0.0
908,0.0
971,0.0
972,0.0
1195,2728.402870720201
1197,2728.402870720201
2,4, 1, 9, 0, 7, 0.00,60.00,Thursday
7,-2.2
718,19.592462121179665
719,0.7625707357789555
720,13.326859430650686
619,4175.319502635719
633,1307.3336646151386
659,0.0649653740845158
661,0.0
690,134.86142005128272
716,85.44000000000005
843,5042.793970215436
844,5042.793970215436
907,0.0
908,0.0
971,0.0
972,0.0
1195,3993.514547969885
1197,3993.514547969885
2,4, 1, 9, 0, 8, 0.00,60.00,Thursday
7,-2.2
718,19.65793019191707
719,0.7891291992508318
720,13.293263877662124
619,4171.272711687379
633,1312.1325764983947
659,0.0649653740845158
661,0.0
690,134.86142005128272
716,85.44000000000005
843,4722.64159267924
844,4722.64159267924
907,0.0
908,0.0
971,0.0
972,0.0
1195,3680.0581406121128
1197,3680.0581406121128
2,4, 1, 9, 0, 9, 0.00,60.00,Thursday
7,-3.9
718,19.687141432824312
719,-0.8125973781311394
720,13.249988530540135
619,3744.634347657245
633,1220.0346802819272
659,54.41989721711161
661,0.0
690,134.86142005128272
716,77.529754520375
843,5402.583842566797
844,5402.583842566797
907,0.0
908,0.0
971,0.0
972,0.0
1195,4691.126607517266
1197,4691.126607517266