Program Version,EnergyPlus, Version 22.2.0-c249759bad, YMD=2023.09.01 14:30
1,5,Environment Title[],Latitude[deg],Longitude[deg],Time Zone[],Elevation[m]
2,8,Day of Simulation[],Month[],Day of Month[],DST Indicator[1=yes 0=no],Hour[],StartMinute[],EndMinute[],DayType
3,5,Cumulative Day of Simulation[],Month[],Day of Month[],DST Indicator[1=yes 0=no],DayType  ! When Daily Report Variables Requested
4,2,Cumulative Days of Simulation[],Month[]  ! When Monthly Report Variables Requested
5,1,Cumulative Days of Simulation[] ! When Run Period Report Variables Requested
6,1,Calendar Year of Simulation[] ! When Annual Report Variables Requested
7,1,Environment,Site Outdoor Air Drybulb Temperature [C] !Hourly
619,1,DX_HEATING_COIL,Heating Coil Heating Rate [W] !Hourly
633,1,DX_HEATING_COIL,Heating Coil Electricity Rate [W] !Hourly
659,1,DX_HEATING_COIL,Heating Coil Defrost Electricity Rate [W] !Hourly
661,1,DX_HEATING_COIL,Heating Coil Crankcase Heater Electricity Rate [W] !Hourly
690,1,FAN,Fan Electricity Rate [W] !Hourly
716,1,HEAT PUMP WATER HEATER FAN,Fan Electricity Rate [W] !Hourly
718,1,LIVING,Zone Mean Air Temperature [C] !Hourly
719,1,ATTIC,Zone Mean Air Temperature [C] !Hourly
720,1,CRAWLSPACE,Zone Mean Air Temperature [C] !Hourly
843,1,LIVING,Zone Predicted Sensible Load to Heating Setpoint Heat Transfer Rate [W] !Hourly
844,1,LIVING,Zone System Predicted Sensible Load to Heating Setpoint Heat Transfer Rate [W] !Hourly
907,1,ATTIC,Zone Predicted Sensible Load to Heating Setpoint Heat Transfer Rate [W] !Hourly
908,1,ATTIC,Zone System Predicted Sensible Load to Heating Setpoint Heat Transfer Rate [W] !Hourly
971,1,CRAWLSPACE,Zone Predicted Sensible Load to Heating Setpoint Heat Transfer Rate [W] !Hourly
972,1,CRAWLSPACE,Zone System Predicted Sensible Load to Heating Setpoint Heat Transfer Rate [W] !Hourly
1195,1,HEATING_RESISTANCE_BACKUP,Heating Coil Heating Rate [W] !Hourly
1197,1,HEATING_RESISTANCE_BACKUP,Heating Coil Electricity Rate [W] !Hourly
End of Data Dictionary
1,EXTREME_WINTER,  34.35, -85.17,  -5.00, 196.00
2,1, 1,27, 0, 1, 0.00,60.00,Monday
7,-3.3
718,19.7223422466285
719,3.8278686662123125
720,20.356948661345204
619,0.0
633,0.0
659,0.0
661,200.0
690,0.0
716,0.0
843,-778.418677408381
844,-778.418677408381
907,0.0
908,0.0
971,0.0
972,0.0
1195,0.0
1197,0.0
2,1, 1,27, 0, 2, 0.00,60.00,Monday
7,-4.4
718,18.967546414151645
719,0.06393091459422279
720,20.183987717913144
619,0.0
633,0.0
659,0.0
661,200.0
690,0.0
716,0.0
843,-331.7153754946776
844,-331.7153754946776
907,0.0
908,0.0
971,0.0
972,0.0
1195,0.0
1197,0.0
2,1, 1,27, 0, 3, 0.00,60.00,Monday
7,-3.9
718,18.586001296977983
719,-2.055962126137031
720,20.008082613824097
619,498.81913293079185
633,180.3997712307793
659,7.273877177156321
661,173.57247138285672
690,19.745589298161438
716,0.0
843,350.77810222252265
844,350.77810222252265
907,0.0
908,0.0
971,0.0
972,0.0
1195,0.0
1197,0.0
2,1, 1,27, 0, 4, 0.00,60.00,Monday
7,-5.0
718,18.47101201943169
719,-3.115672382920064
720,19.782969514275045
619,1453.1712040147788
633,518.0746260532106
659,23.639122757122927
661,122.34237687167185
690,57.88169805151336
716,0.0
843,983.9610639051552
844,983.9610639051552
907,0.0
908,0.0
971,0.0
972,0.0
1195,0.0
1197,0.0
2,1, 1,27, 0, 5, 0.00,60.00,Monday
7,-4.4
718,18.582808832051903
719,-3.9022162923825894
720,19.619584769514045
619,1852.4549254309918
633,642.6272271871298
659,27.580758836193326
661,104.22959003574968
690,71.48269007199177
716,0.0
843,1230.7153779698428
844,1230.7153779698428
907,0.0
908,0.0
971,0.0
972,0.0
1195,0.0
1197,0.0
2,1, 1,27, 0, 6, 0.00,60.00,Monday
7,-5.0
718,19.169750743589052
719,-3.3155462025075613
720,19.350371669603604
619,3682.020546011227
633,1230.20271982343
659,51.39131324602707
661,16.35511213330485
690,137.01703364052838
716,0.0
843,2400.7173328419376
844,2400.7173328419376
907,0.0
908,0.0
971,0.0
972,0.0
1195,0.0
1197,0.0
2,1, 1,27, 0, 7, 0.00,60.00,Monday
7,-5.0
718,19.440647197863353
719,-3.1087395300047933
720,19.226130080684207
619,4081.7703454136135
633,1354.8887886158982
659,55.96813920933229
661,0.0
690,150.85093801026576
716,85.44000000000005
843,2813.531709746643
844,2813.531709746643
907,0.0
908,0.0
971,0.0
972,0.0
1195,1477.5216785700532
1197,1477.5216785700532
2,1, 1,27, 0, 8, 0.00,60.00,Monday
7,-2.8
718,19.607650391821483
719,-2.900051879507636
720,19.095946351326607
619,4316.604072978904
633,1380.1946860023295
659,61.27419414536641
661,0.0
690,150.85093801026576
716,61.28843551482727
843,2615.0808709034973
844,2615.0808709034973
907,0.0
908,0.0
971,0.0
972,0.0
1195,716.4639923137638
1197,716.4639923137638
2,1, 1,27, 0, 9, 0.00,60.00,Monday
7,-1.1
718,19.78193891266191
719,-1.4674027534281011
720,19.0167460282744
619,2869.7831521416692
633,935.6756062281652
659,43.679517245817046
661,66.27861147760837
690,100.0693372133834
716,0.0
843,1865.8237155161496
844,1865.8237155161496
907,0.0
908,0.0
971,0.0
972,0.0
1195,0.0
1197,0.0
2,1, 1,27, 0,10, 0.00,60.00,Monday
7,3.3
718,19.895699243196738
719,3.1322264924407817
720,18.946029165490458
619,1189.163298410109
633,375.6734677120986
659,10.183512108077093
661,149.83628544978512
690,37.760403482073244
716,0.0
843,808.6392095206211
844,808.6392095206211
907,0.0
908,0.0
971,0.0
972,0.0
1195,0.0
1197,0.0
2,1, 1,27, 0,11, 0.00,60.00,Monday
7,8.3
718,19.954679531679567
719,8.948520364630852
720,18.859201124889605
619,0.0
633,0.0
659,0.0
661,200.0
690,0.0
716,0.0
843,-81.65220306879746
844,-81.65220306879746
907,0.0
908,0.0
971,0.0
972,0.0
1195,0.0
1197,0.0
2,1, 1,27, 0,12, 0.00,60.00,Monday
7,11.7
718,20.976818591327937
719,16.040962333433537
720,18.79385053923989
619,0.0
633,0.0
659,0.0
661,0.0
690,0.0
716,0.0
843,-1003.9155298739624
844,-1003.9155298739624
907,0.0
908,0.0
971,0.0
972,0.0
1195,0.0
1197,0.0
2,1, 1,27, 0,13, 0.00,60.00,Monday
7,11.7
718,21.573772364931717
719,20.28883375303855
720,18.763340993203
619,0.0
633,0.0
659,0.0
661,0.0
690,0.0
716,0.0
843,-1550.305637102887
844,-1550.305637102887
907,0.0
908,0.0
971,0.0
972,0.0
1195,0.0
1197,0.0
2,1, 1,27, 0,14, 0.00,60.00,Monday
7,12.2
718,21.23199150392608
719,22.444583579357953
720,18.765482803759628
619,0.0
633,0.0
659,0.0
661,0.0
690,0.0
716,69.57231074144711
843,-2045.058612672572
844,-2045.058612672572
907,0.0
908,0.0
971,0.0
972,0.0
1195,0.0
1197,0.0
2,1, 1,27, 0,15, 0.00,60.00,Monday
7,12.8
718,22.406631952617683
719,22.444632837896727
720,18.790930309724555
619,0.0
633,0.0
659,0.0
661,0.0
690,0.0
716,0.0
843,-2106.4800603851345
844,-2106.4800603851345
907,0.0
908,0.0
971,0.0
972,0.0
1195,0.0
1197,0.0
2,1, 1,27, 0,16, 0.00,60.00,Monday
7,12.2
718,23.006046344436808
719,20.952239487567468
720,18.82686114781541
619,0.0
633,0.0
659,0.0
661,0.0
690,0.0
716,0.0
843,-1902.6109339496816
844,-1902.6109339496816
907,0.0
908,0.0
971,0.0
972,0.0
1195,0.0
1197,0.0
2,1, 1,27, 0,17, 0.00,60.00,Monday
7,11.1
718,23.315116982110403
719,19.439927749714755
720,18.865020362412857
619,0.0
633,0.0
659,0.0
661,0.0
690,0.0
716,0.0
843,-2300.198021104583
844,-2300.198021104583
907,0.0
908,0.0
971,0.0
972,0.0
1195,0.0
1197,0.0
2,1, 1,27, 0,18, 0.00,60.00,Monday
7,8.9
718,23.32909358669816
719,16.946690811694143
720,18.915328184026702
619,0.0
633,0.0
659,0.0
661,198.44266408189256
690,1.1746279202179282
716,0.0
843,-2285.6526293559036
844,-2285.6526293559036
907,0.0
908,0.0
971,0.0
972,0.0
1195,0.0
1197,0.0
2,1, 1,27, 0,19, 0.00,60.00,Monday
7,8.9
718,22.195248675176792
719,14.28124830935968
720,18.9541414835098
619,0.0
633,0.0
659,0.0
661,200.0
690,0.0
716,81.14387675723476
843,-2561.857806938431
844,-2561.857806938431
907,0.0
908,0.0
971,0.0
972,0.0
1195,0.0
1197,0.0
2,1, 1,27, 0,20, 0.00,60.00,Monday
7,10.6
718,22.044936868457647
719,12.312086086159441
720,18.97689257074542
619,0.0
633,0.0
659,0.0
661,0.0
690,0.0
716,76.48321341585209
843,-3144.208117980528
844,-3144.208117980528
907,0.0
908,0.0
971,0.0
972,0.0
1195,0.0
1197,0.0
2,1, 1,27, 0,21, 0.00,60.00,Monday
7,8.3
718,22.8630789422296
719,10.879038152908915
720,18.981780424074973
619,0.0
633,0.0
659,0.0
661,200.0
690,0.0
716,0.0
843,-2728.2362056175334
844,-2728.2362056175334
907,0.0
908,0.0
971,0.0
972,0.0
1195,0.0
1197,0.0
2,1, 1,27, 0,22, 0.00,60.00,Monday
7,6.7
718,22.6202387704776
719,9.852426776909438
720,18.970064592686885
619,0.0
633,0.0
659,0.0
661,200.0
690,0.0
716,0.0
843,-1688.216671811435
844,-1688.216671811435
907,0.0
908,0.0
971,0.0
972,0.0
1195,0.0
1197,0.0
2,1, 1,27, 0,23, 0.00,60.00,Monday
7,6.1
718,22.096783151760764
719,8.568904973907488
720,18.944818994283754
619,0.0
633,0.0
659,0.0
661,200.0
690,0.0
716,0.0
843,-2229.176783267585
844,-2229.176783267585
907,0.0
908,0.0
971,0.0
972,0.0
1195,0.0
1197,0.0
2,1, 1,27, 0,24, 0.00,60.00,Monday
7,6.1
718,21.507021185884657
719,7.636159212480744
720,18.909137953276318
619,0.0
633,0.0
659,0.0
661,200.0
690,0.0
716,0.0
843,-1937.0999434663536
844,-1937.0999434663536
907,0.0
908,0.0
971,0.0
972,0.0
1195,0.0
1197,0.0
2,2, 1,28, 0, 1, 0.00,60.00,Tuesday
7,6.1
718,20.914279241714556
719,6.939342700990096
720,18.86374429317201
619,0.0
633,0.0
659,0.0
661,200.0
690,0.0
716,0.0
843,-1531.7449416823765
844,-1531.7449416823765
907,0.0
908,0.0
971,0.0
972,0.0
1195,0.0
1197,0.0
2,2, 1,28, 0, 2, 0.00,60.00,Tuesday
7,6.0
718,20.267867193924577
719,6.631287936219749
720,18.81001672734976
619,0.0
633,0.0
659,0.0
661,200.0
690,0.0
716,0.0
843,-1082.9373269877742
844,-1082.9373269877742
907,0.0
908,0.0
971,0.0
972,0.0
1195,0.0
1197,0.0
2,2, 1,28, 0, 3, 0.00,60.00,Tuesday
7,5.0
718,19.66427737128706
719,6.072034026521731
720,18.750893526287232
619,0.0
633,0.0
659,0.0
661,200.0
690,0.0
716,0.0
843,-699.735228227888
844,-699.735228227888
907,0.0
908,0.0
971,0.0
972,0.0
1195,0.0
1197,0.0
2,2, 1,28, 0, 4, 0.00,60.00,Tuesday
7,5.6
718,19.219955673926638
719,5.865654527334736
720,18.687375688595775
619,0.0
633,0.0
659,0.0
661,200.0
690,0.0
716,0.0
843,-397.48970617508166
844,-397.48970617508166
907,0.0
908,0.0
971,0.0
972,0.0
1195,0.0
1197,0.0
2,2, 1,28, 0, 5, 0.00,60.00,Tuesday
7,7.0
718,18.7460895492269
719,6.583175646892379
720,18.615511347240187
619,0.0
633,0.0
659,0.0
661,200.0
690,0.0
716,0.0
843,-79.18680654948457
844,-79.18680654948457
907,0.0
908,0.0
971,0.0
972,0.0
1195,0.0
1197,0.0
2,2, 1,28, 0, 6, 0.00,60.00,Tuesday
7,4.0
718,19.39750498131475
719,6.2431736093036845
720,18.489751805493622
619,1755.9720381064244
633,527.9903140257327
659,42.476251942883515
661,123.19341193212301
690,57.65971343656444
716,0.0
843,1359.926919731388
844,1359.926919731388
907,0.0
908,0.0
971,0.0
972,0.0
1195,0.0
1197,0.0
2,2, 1,28, 0, 7, 0.00,60.00,Tuesday
7,3.3
718,19.577400592361183
719,6.198679666985704
720,18.40426131367156
619,3527.5954413004456
633,1044.7920229275478
659,65.03002624492149
661,52.377477874939494
690,110.83926973627142
716,85.44000000000005
843,1571.2260391246018
844,1571.2260391246018
907,0.0
908,0.0
971,0.0
972,0.0
1195,0.0
1197,0.0
2,2, 1,28, 0, 8, 0.00,60.00,Tuesday
7,2.2
718,19.65582816180707
719,4.863933609756645
720,18.327488126861407
619,3660.174520775773
633,1105.8821497031277
659,18.714528492937898
661,52.30027314233998
690,111.22245135842418
716,85.44000000000005
843,1631.2920061862696
844,1631.2920061862696
907,0.0
908,0.0
971,0.0
972,0.0
1195,0.0
1197,0.0
2,2, 1,28, 0, 9, 0.00,60.00,Tuesday
7,2.2
718,19.662379921298335
719,4.623975135247827
720,18.26088502256293
619,2730.141899521806
633,843.9124892051248
659,8.826252523677313
661,88.5020733018339
690,84.01328099331153
716,42.566349087712446
843,1451.4993562481577
844,1451.4993562481577
907,0.0
908,0.0
971,0.0
972,0.0
1195,0.0
1197,0.0
2,2, 1,28, 0,10, 0.00,60.00,Tuesday
7,3.3
718,19.896999935304578
719,5.902645544575782
720,18.211987469993172
619,1069.8468152493003
633,337.3201644823909
659,0.015782058125674136
661,156.56384201975376
690,32.761812768866776
716,0.0
843,796.6205115114299
844,796.6205115114299
907,0.0
908,0.0
971,0.0
972,0.0
1195,0.0
1197,0.0
2,2, 1,28, 0,11, 0.00,60.00,Tuesday
7,3.9
718,20.224767031052725
719,8.094892801853364
720,18.163330465524773
619,0.0
633,0.0
659,0.0
661,200.0
690,0.0
716,0.0
843,-246.13609775798068
844,-246.13609775798068
907,0.0
908,0.0
971,0.0
972,0.0
1195,0.0
1197,0.0
2,2, 1,28, 0,12, 0.00,60.00,Tuesday
7,3.9
718,20.011041325538717
719,8.32890319902643
720,18.124970220275188
619,0.0
633,0.0
659,0.0
661,200.0
690,0.0
716,0.0
843,-228.76942119848718
844,-228.76942119848718
907,0.0
908,0.0
971,0.0
972,0.0
1195,0.0
1197,0.0
2,2, 1,28, 0,13, 0.00,60.00,Tuesday
7,3.9
718,20.07872059941805
719,8.600047053406666
720,18.109152242573487
619,0.0
633,0.0
659,0.0
661,200.0
690,0.0
716,0.0
843,-292.43270948399004
844,-292.43270948399004
907,0.0
908,0.0
971,0.0
972,0.0
1195,0.0
1197,0.0
2,2, 1,28, 0,14, 0.00,60.00,Tuesday
7,4.0
718,20.76033725809263
719,9.95790129105216
720,18.10317701259716
619,0.0
633,0.0
659,0.0
661,200.0
690,0.0
716,0.0
843,-876.2917080241823
844,-876.2917080241823
907,0.0
908,0.0
971,0.0
972,0.0
1195,0.0
1197,0.0
2,2, 1,28, 0,15, 0.00,60.00,Tuesday
7,3.3
718,21.530947028935845
719,9.996633495427766
720,18.10900727453729
619,0.0
633,0.0
659,0.0
661,200.0
690,0.0
716,0.0
843,-1503.5738098669171
844,-1503.5738098669171
907,0.0
908,0.0
971,0.0
972,0.0
1195,0.0
1197,0.0
2,2, 1,28, 0,16, 0.00,60.00,Tuesday
7,2.8
718,21.826804153817985
719,9.288727918641849
720,18.12877076157089
619,0.0
633,0.0
659,0.0
661,200.0
690,0.0
716,0.0
843,-1757.943747705065
844,-1757.943747705065
907,0.0
908,0.0
971,0.0
972,0.0
1195,0.0
1197,0.0
2,2, 1,28, 0,17, 0.00,60.00,Tuesday
7,1.1
718,22.41702349825548
719,8.05399480536562
720,18.159657343267806
619,0.0
633,0.0
659,0.0
661,200.0
690,0.0
716,0.0
843,-2514.0115838543607
844,-2514.0115838543607
907,0.0
908,0.0
971,0.0
972,0.0
1195,0.0
1197,0.0
2,2, 1,28, 0,18, 0.00,60.00,Tuesday
7,0.6
718,21.928146526334388
719,5.892212059387942
720,18.20979272517549
619,0.0
633,0.0
659,0.0
661,200.0
690,0.0
716,67.68478986316194
843,-2717.2990041820703
844,-2717.2990041820703
907,0.0
908,0.0
971,0.0
972,0.0
1195,0.0
1197,0.0
2,2, 1,28, 0,19, 0.00,60.00,Tuesday
7,0.6
718,21.815186820130688
719,3.560921347767229
720,18.24664874547202
619,0.0
633,0.0
659,0.0
661,200.0
690,0.0
716,0.0
843,-2102.099836256617
844,-2102.099836256617
907,0.0
908,0.0
971,0.0
972,0.0
1195,0.0
1197,0.0
2,2, 1,28, 0,20, 0.00,60.00,Tuesday
7,-1.1
718,20.5669189858192
719,1.6103717528672674
720,18.25969142871618
619,0.0
633,0.0
659,0.0
661,200.0
690,0.0
716,85.44000000000005
843,-1522.149714619718
844,-1522.149714619718
907,0.0
908,0.0
971,0.0
972,0.0
1195,0.0
1197,0.0
2,2, 1,28, 0,21, 0.00,60.00,Tuesday
7,-2.2
718,19.336047777557283
719,0.09037902305700923
720,18.229892340941774
619,0.0
633,0.0
659,0.0
661,200.0
690,0.0
716,85.44000000000005
843,-344.98665683326544
844,-344.98665683326544
907,0.0
908,0.0
971,0.0
972,0.0
1195,0.0
1197,0.0
2,2, 1,28, 0,22, 0.00,60.00,Tuesday
7,-3.3
718,19.52595508877238
719,-0.3652946646339378
720,18.09651583259824
619,2207.827011096205
633,752.9978170836828
659,0.03759215368940484
661,96.5370223916257
690,78.03657266237687
716,30.11562027964805
843,1176.0032807233001
844,1176.0032807233001
907,0.0
908,0.0
971,0.0
972,0.0
1195,0.0
1197,0.0
2,2, 1,28, 0,23, 0.00,60.00,Tuesday
7,-4.4
718,19.058920806288544
719,-1.4143374156325204
720,18.068957367172107
619,1221.660593026971
633,438.716388236086
659,0.022023208762921045
661,139.38663972463857
690,45.71733413164192
716,0.0
843,816.0211668398442
844,816.0211668398442
907,0.0
908,0.0
971,0.0
972,0.0
1195,0.0
1197,0.0
2,2, 1,28, 0,24, 0.00,60.00,Tuesday
7,-5.0
718,18.48558684863605
719,-1.938376408776017
720,17.922985867640687
619,1931.5686767306743
633,680.1475488305264
659,0.03463695221820416
661,104.6704734880774
690,71.90177383406754
716,0.0
843,1297.4152042237256
844,1297.4152042237256
907,0.0
908,0.0
971,0.0
972,0.0
1195,0.0
1197,0.0
2,3, 1,29, 0, 1, 0.00,60.00,Wednesday
7,-5.0
718,18.48632576494417
719,-1.8436819474610455
720,17.766927791834664
619,3025.0171834301145
633,1019.5131467586045
659,0.0525233374602451
661,55.44268273466775
690,109.03157046778426
716,0.0
843,2038.2217304630067
844,2038.2217304630067
907,0.0
908,0.0
971,0.0
972,0.0
1195,0.0
1197,0.0
2,3, 1,29, 0, 2, 0.00,60.00,Wednesday
7,-6.1
718,18.4541396560993
719,-2.074884382490854
720,17.60853819733357
619,4018.676556127887
633,1345.2099798685326
659,0.0699664400232206
661,7.434916411815107
690,145.2409228920111
716,0.0
843,2678.13180056644
844,2678.13180056644
907,0.0
908,0.0
971,0.0
972,0.0
1195,0.0
1197,0.0
2,3, 1,29, 0, 3, 0.00,60.00,Wednesday
7,-6.7
718,18.554896413609928
719,-2.275611447603292
720,17.480705485712257
619,4120.901807217162
633,1389.0002916434205
659,0.07266783647325095
661,0.0
690,150.85093801026576
716,0.0
843,2928.983443551997
844,2928.983443551997
907,0.0
908,0.0
971,0.0
972,0.0
1195,253.9738036138615
1197,253.9738036138615
2,3, 1,29, 0, 4, 0.00,60.00,Wednesday
7,-7.8
718,18.590769104423046
719,-2.9356138907634977
720,17.346261189788358
619,3986.4728843455537
633,1378.6155414626273
659,0.07266783647325095
661,0.0
690,150.85093801026576
716,0.0
843,3117.373037025345
844,3117.373037025345
907,0.0
908,0.0
971,0.0
972,0.0
1195,629.8105992164519
1197,629.8105992164519
2,3, 1,29, 0, 5, 0.00,60.00,Wednesday
7,-8.3
718,18.602502828322606
719,-3.6387666779356853
720,17.21330904621451
619,3926.5021328099915
633,1373.4853822072873
659,0.07266783647325095
661,0.0
690,150.85093801026576
716,0.0
843,3274.091698348391
844,3274.091698348391
907,0.0
908,0.0
971,0.0
972,0.0
1195,921.2898854251835
1197,921.2898854251835
2,3, 1,29, 0, 6, 0.00,60.00,Wednesday
7,-8.3
718,19.256757515064763
719,-3.599412318364125
720,17.082839964177175
619,3915.3489807539177
633,1369.7606622108487
659,3.025430268435863
661,0.0
690,150.85093801026576
716,72.82068038384217
843,4552.023993296094
844,4552.023993296094
907,0.0
908,0.0
971,0.0
972,0.0
1195,3347.320114417726
1197,3347.320114417726
2,3, 1,29, 0, 7, 0.00,60.00,Wednesday
7,-8.3
718,19.51973054932227
719,-3.5368120012453987
720,16.98706521231219
619,3900.221154544569
633,1386.839238533971
659,3.025430268435863
661,0.0
690,150.85093801026576
716,85.44000000000005
843,4462.707111738717
844,4462.707111738717
907,0.0
908,0.0
971,0.0
972,0.0
1195,3592.527510833905
1197,3592.527510833905
2,3, 1,29, 0, 8, 0.00,60.00,Wednesday
7,-7.2
718,19.642967586313148
719,-3.4952685001894013
720,16.88201288943205
619,4031.2337754195546
633,1409.347024617395
659,1.3359368535385243
661,0.0
690,150.85093801026576
716,58.03861830265739
843,3920.5300246817333
844,3920.5300246817333
907,0.0
908,0.0
971,0.0
972,0.0
1195,2475.260993563743
1197,2475.260993563743
2,3, 1,29, 0, 9, 0.00,60.00,Wednesday
7,-5.6
718,19.70472838520352
719,-2.015614496800419
720,16.78164400031143
619,4228.094154164042
633,1433.7515216089437
659,0.07266783647325095
661,0.0
690,150.85093801026576
716,0.0
843,3075.618013221836
844,3075.618013221836
907,0.0
908,0.0
971,0.0
972,0.0
1195,512.4561741236048
1197,512.4561741236048
2,3, 1,29, 0,10, 0.00,60.00,Wednesday
7,-4.4
718,19.783938723216266
719,1.3870391446021701
720,16.6979861513209
619,3248.9374951135424
633,1108.1563270341444
659,0.05552574771903194
661,47.179301286970386
690,115.26427288428114
716,0.0
843,2094.0711362506645
844,2094.0711362506645
907,0.0
908,0.0
971,0.0
972,0.0
1195,0.0
1197,0.0
2,3, 1,29, 0,11, 0.00,60.00,Wednesday
7,-2.2
718,19.889175143943657
719,5.598644030752452
720,16.635482982788584
619,1515.0339429781159
633,520.3311172440249
659,0.02554485228309976
661,129.69419891150102
690,53.02796979985308
716,0.0
843,1035.458753842655
844,1035.458753842655
907,0.0
908,0.0
971,0.0
972,0.0
1195,0.0
1197,0.0
2,3, 1,29, 0,12, 0.00,60.00,Wednesday
7,-0.6
718,19.864307064801
719,11.002320048704208
720,16.589123585460907
619,190.79397096292578
633,65.97771618792534
659,0.003187745433742267
661,191.22652995203543
690,6.617380315804445
716,0.0
843,134.31447343683612
844,134.31447343683612
907,0.0
908,0.0
971,0.0
972,0.0
1195,0.0
1197,0.0
2,3, 1,29, 0,13, 0.00,60.00,Wednesday
7,-0.6
718,19.89998207925853
719,14.35945010469146
720,16.576193265511943
619,0.0
633,0.0
659,0.0
661,200.0
690,0.0
716,0.0
843,-188.52658792679904
844,-188.52658792679904
907,0.0
908,0.0
971,0.0
972,0.0
1195,0.0
1197,0.0
2,3, 1,29, 0,14, 0.00,60.00,Wednesday
7,2.2
718,20.512056879791796
719,16.6511683550534
720,16.590980862933755
619,0.0
633,0.0
659,0.0
661,200.0
690,0.0
716,0.0
843,-623.8287297989064
844,-623.8287297989064
907,0.0
908,0.0
971,0.0
972,0.0
1195,0.0
1197,0.0
2,3, 1,29, 0,15, 0.00,60.00,Wednesday
7,3.3
718,20.321929097474197
719,16.75100302766051
720,16.625273333444348
619,0.0
633,0.0
659,0.0
661,200.0
690,0.0
716,68.44553105123036
843,-1189.1191090405719
844,-1189.1191090405719
907,0.0
908,0.0
971,0.0
972,0.0
1195,0.0
1197,0.0
2,3, 1,29, 0,16, 0.00,60.00,Wednesday
7,2.8
718,20.79103861920879
719,16.653960233563975
720,16.678289066414695
619,0.0
633,0.0
659,0.0
661,200.0
690,0.0
716,74.26484328560593
843,-1909.8962144752677
844,-1909.8962144752677
907,0.0
908,0.0
971,0.0
972,0.0
1195,0.0
1197,0.0
2,3, 1,29, 0,17, 0.00,60.00,Wednesday
7,1.7
718,22.261552060562625
719,15.017468270979187
720,16.745618666293744
619,0.0
633,0.0
659,0.0
661,200.0
690,0.0
716,0.0
843,-2360.7490876305583
844,-2360.7490876305583
907,0.0
908,0.0
971,0.0
972,0.0
1195,0.0
1197,0.0
2,3, 1,29, 0,18, 0.00,60.00,Wednesday
7,0.0
718,22.51630414644881
719,11.841087048532392
720,16.817950314885845
619,0.0
633,0.0
659,0.0
661,200.0
690,0.0
716,0.0
843,-2196.8560166113784
844,-2196.8560166113784
907,0.0
908,0.0
971,0.0
972,0.0
1195,0.0
1197,0.0
2,3, 1,29, 0,19, 0.00,60.00,Wednesday
7,0.0
718,21.952533153572446
719,7.505793393720788
720,16.89766579440234
619,0.0
633,0.0
659,0.0
661,200.0
690,0.0
716,0.0
843,-1878.7673085044134
844,-1878.7673085044134
907,0.0
908,0.0
971,0.0
972,0.0
1195,0.0
1197,0.0
2,3, 1,29, 0,20, 0.00,60.00,Wednesday
7,-3.3
718,20.476062566691464
719,3.526278933648711
720,16.95605211016496
619,0.0
633,0.0
659,0.0
661,200.0
690,0.0
716,85.44000000000005
843,-1325.7595346380167
844,-1325.7595346380167
907,0.0
908,0.0
971,0.0
972,0.0
1195,0.0
1197,0.0
2,3, 1,29, 0,21, 0.00,60.00,Wednesday
7,-3.9
718,19.81195621718609
719,0.3200518571894877
720,16.978423797672217
619,0.0
633,0.0
659,0.0
661,200.0
690,0.0
716,81.79620657990118
843,-900.2838232008871
844,-900.2838232008871
907,0.0
908,0.0
971,0.0
972,0.0
1195,0.0
1197,0.0
2,3, 1,29, 0,22, 0.00,60.00,Wednesday
7,-3.9
718,19.801312535872295
719,-1.9975561494426692
720,16.96678881492627
619,0.0
633,0.0
659,0.0
661,200.0
690,0.0
716,0.0
843,-75.85451977625053
844,-75.85451977625053
907,0.0
908,0.0
971,0.0
972,0.0
1195,0.0
1197,0.0
2,3, 1,29, 0,23, 0.00,60.00,Wednesday
7,-3.9
718,18.931467652349735
719,-3.2518076983056714
720,16.9271936190814
619,0.0
633,0.0
659,0.0
661,200.0
690,0.0
716,0.0
843,-264.2645501829593
844,-264.2645501829593
907,0.0
908,0.0
971,0.0
972,0.0
1195,0.0
1197,0.0
2,3, 1,29, 0,24, 0.00,60.00,Wednesday
7,-3.9
718,18.628447517750228
719,-4.006723307707859
720,16.85373783973365
619,779.6895091211629
633,277.52806179033934
659,6.910581985085578
661,160.0165444673924
690,29.982706899085358
716,0.0
843,458.6414016856179
844,458.6414016856179
907,0.0
908,0.0
971,0.0
972,0.0
1195,0.0
1197,0.0
2,4, 1,30, 0, 1, 0.00,60.00,Thursday
7,-3.9
718,18.555346603512145
719,-3.4252658909287024
720,16.76396567001216
619,1549.519256212711
633,535.6371297242401
659,13.420119454594648
661,122.3534644964606
690,58.225984549288434
716,0.0
843,1005.7115789215677
844,1005.7115789215677
907,0.0
908,0.0
971,0.0
972,0.0
1195,0.0
1197,0.0
2,4, 1,30, 0, 2, 0.00,60.00,Thursday
7,-2.8
718,18.60672897223663
719,-3.5194997223889817
720,16.679166279729802
619,2101.437178209009
633,700.2216719650633
659,24.083955050157673
661,97.99696526253932
690,76.39855940222745
716,0.0
843,1380.2461053378138
844,1380.2461053378138
907,0.0
908,0.0
971,0.0
972,0.0
1195,0.0
1197,0.0
2,4, 1,30, 0, 3, 0.00,60.00,Thursday
7,-2.2
718,18.595039202957928
719,-3.5773810526666234
720,16.594562728703647
619,2700.992507214897
633,876.0408712114338
659,17.873295039904875
661,75.43751486584726
690,93.58838322905099
716,0.0
843,1783.3256519371662
844,1783.3256519371662
907,0.0
908,0.0
971,0.0
972,0.0
1195,0.0
1197,0.0
2,4, 1,30, 0, 4, 0.00,60.00,Thursday
7,-2.2
718,18.58493743495058
719,-2.4860400815749877
720,16.500721741746382
619,3097.579149480531
633,994.5319400159431
659,25.105562429109174
661,57.62061406287631
690,106.8770148578711
716,0.0
843,2035.6017542143927
844,2035.6017542143927
907,0.0
908,0.0
971,0.0
972,0.0
1195,0.0
1197,0.0
2,4, 1,30, 0, 5, 0.00,60.00,Thursday
7,-1.7
718,18.574130363896035
719,-0.8959260331883929
720,16.415782712016615
619,3361.347409509213
633,1061.85532535589
659,17.657279966183783
661,50.30088202041092
690,112.5773592874189
716,0.0
843,2255.295688823111
844,2255.295688823111
907,0.0
908,0.0
971,0.0
972,0.0
1195,0.0
1197,0.0
2,4, 1,30, 0, 6, 0.00,60.00,Thursday
7,-1.1
718,19.327738273863403
719,0.15788795988314092
720,16.327750517114914
619,4708.894920436247
633,1425.2700640971623
659,0.6853126438060613
661,4.3646061334886355
690,147.5472506107441
716,0.0
843,3255.6397561880513
844,3255.6397561880513
907,0.0
908,0.0
971,0.0
972,0.0
1195,0.0
1197,0.0
2,4, 1,30, 0, 7, 0.00,60.00,Thursday
7,-1.1
718,19.553851971133266
719,0.2606373561225481
720,16.286917715085842
619,4809.13228252919
633,1478.6624159356086
659,0.7006019005678218
661,0.0
690,150.85093801026576
716,85.44000000000005
843,3145.002138466689
844,3145.002138466689
907,0.0
908,0.0
971,0.0
972,0.0
1195,1035.3721113648344
1197,1035.3721113648344
2,4, 1,30, 0, 8, 0.00,60.00,Thursday
7,-2.2
718,19.63994102884257
719,0.49164944118198983
720,16.207040035620853
619,4477.4272891269275
633,1413.8535625776613
659,41.68979248878267
661,0.0
690,150.85093801026576
716,85.44000000000005
843,2978.4041099697824
844,2978.4041099697824
907,0.0
908,0.0
971,0.0
972,0.0
1195,1198.7947142721473
1197,1198.7947142721473
2,4, 1,30, 0, 9, 0.00,60.00,Thursday
7,2.8
718,19.73134663794651
719,2.035328170940417
720,16.171388648338112
619,3976.895794198617
633,1181.9933716904754
659,0.05572035684776052
661,46.643688454186474
690,115.669261363562
716,59.57460659016442
843,2123.7045648229814
844,2123.7045648229814
907,0.0
908,0.0
971,0.0
972,0.0
1195,0.0
1197,0.0
2,4, 1,30, 0,10, 0.00,60.00,Thursday
7,6.1
718,19.868085546830894
719,5.717208268448482
720,16.079544079060792
619,1332.2722823155154
633,368.19344676182527
659,0.0
661,155.9831345314989
690,33.19992722097534
716,0.0
843,976.8047606956898
844,976.8047606956898
907,0.0
908,0.0
971,0.0
972,0.0
1195,0.0
1197,0.0
2,4, 1,30, 0,11, 0.00,60.00,Thursday
7,6.7
718,19.747872346040296
719,9.54568483118602
720,16.02681026474015
619,127.18543319673495
633,35.73823172317943
659,0.0
661,195.76562535128483
690,3.193796938227869
716,0.0
843,94.02987649780516
844,94.02987649780516
907,0.0
908,0.0
971,0.0
972,0.0
1195,0.0
1197,0.0
2,4, 1,30, 0,12, 0.00,60.00,Thursday
7,7.8
718,20.18463074947263
719,13.589889622283682
720,16.01631300370385
619,0.0
633,0.0
659,0.0
661,200.0
690,0.0
716,0.0
843,-536.5117685877649
844,-536.5117685877649
907,0.0
908,0.0
971,0.0
972,0.0
1195,0.0
1197,0.0
2,4, 1,30, 0,13, 0.00,60.00,Thursday
7,7.8
718,20.640695938958327
719,16.35372953088664
720,16.038181910706463
619,0.0
633,0.0
659,0.0
661,200.0
690,0.0
716,0.0
843,-644.2049616911536
844,-644.2049616911536
907,0.0
908,0.0
971,0.0
972,0.0
1195,0.0
1197,0.0
2,4, 1,30, 0,14, 0.00,60.00,Thursday
7,9.4
718,21.38626302257421
719,16.98430674492671
720,16.086055244521148
619,0.0
633,0.0
659,0.0
661,200.0
690,0.0
716,0.0
843,-1218.9469250098446
844,-1218.9469250098446
907,0.0
908,0.0
971,0.0
972,0.0
1195,0.0
1197,0.0
2,4, 1,30, 0,15, 0.00,60.00,Thursday
7,9.4
718,22.141617331533276
719,17.862913767675952
720,16.154458326403667
619,0.0
633,0.0
659,0.0
661,200.0
690,0.0
716,0.0
843,-1798.861155460816
844,-1798.861155460816
907,0.0
908,0.0
971,0.0
972,0.0
1195,0.0
1197,0.0
2,4, 1,30, 0,16, 0.00,60.00,Thursday
7,8.9
718,23.03250822164364
719,16.086988031840036
720,16.239533067477204
619,0.0
633,0.0
659,0.0
661,200.0
690,0.0
716,0.0
843,-2647.7271314827394
844,-2647.7271314827394
907,0.0
908,0.0
971,0.0
972,0.0
1195,0.0
1197,0.0
2,4, 1,30, 0,17, 0.00,60.00,Thursday
7,7.2
718,22.887607619406037
719,13.224880107382011
720,16.33818820020564
619,0.0
633,0.0
659,0.0
661,200.0
690,0.0
716,70.1578899753199
843,-3358.102851299089
844,-3358.102851299089
907,0.0
908,0.0
971,0.0
972,0.0
1195,0.0
1197,0.0
2,4, 1,30, 0,18, 0.00,60.00,Thursday
7,5.6
718,23.302230677504056
719,10.670611017648532
720,16.480603926762296
619,0.0
633,0.0
659,0.0
661,181.45580925417798
690,13.987042843242692
716,0.0
843,-4042.410047925021
844,-4042.410047925021
907,0.0
908,0.0
971,0.0
972,0.0
1195,0.0
1197,0.0
2,4, 1,30, 0,19, 0.00,60.00,Thursday
7,5.6
718,22.294599055619447
719,8.273339496868035
720,16.560705867702314
619,0.0
633,0.0
659,0.0
661,200.0
690,0.0
716,85.44000000000005
843,-3245.5862768127554
844,-3245.5862768127554
907,0.0
908,0.0
971,0.0
972,0.0
1195,0.0
1197,0.0
2,4, 1,30, 0,20, 0.00,60.00,Thursday
7,3.9
718,21.83303567347593
719,6.225277014495742
720,16.642816239532518
619,0.0
633,0.0
659,0.0
661,200.0
690,0.0
716,60.216407715805076
843,-2707.7111543720803
844,-2707.7111543720803
907,0.0
908,0.0
971,0.0
972,0.0
1195,0.0
1197,0.0
2,4, 1,30, 0,21, 0.00,60.00,Thursday
7,2.8
718,21.82134051896359
719,4.5374818613008685
720,16.68081482995035
619,0.0
633,0.0
659,0.0
661,200.0
690,0.0
716,0.0
843,-1963.803950721982
844,-1963.803950721982
907,0.0
908,0.0
971,0.0
972,0.0
1195,0.0
1197,0.0
2,4, 1,30, 0,22, 0.00,60.00,Thursday
7,1.1
718,20.771251068009033
719,3.1052076354731124
720,16.684484520864032
619,0.0
633,0.0
659,0.0
661,200.0
690,0.0
716,0.0
843,-897.7646539198904
844,-897.7646539198904
907,0.0
908,0.0
971,0.0
972,0.0
1195,0.0
1197,0.0
2,4, 1,30, 0,23, 0.00,60.00,Thursday
7,0.0
718,19.90183300741549
719,1.808898126938963
720,16.66483828782456
619,0.0
633,0.0
659,0.0
661,200.0
690,0.0
716,0.0
843,-1200.1509835403267
844,-1200.1509835403267
907,0.0
908,0.0
971,0.0
972,0.0
1195,0.0
1197,0.0
2,4, 1,30, 0,24, 0.00,60.00,Thursday
7,-1.7
718,18.61410750576931
719,0.452417820617195
720,16.620104218361785
619,56.029014978952475
633,19.85823812620623