Program Version,EnergyPlus, Version 22.2.0-c249759bad, YMD=2023.07.07 15:20
1,5,Environment Title[],Latitude[deg],Longitude[deg],Time Zone[],Elevation[m]
2,8,Day of Simulation[],Month[],Day of Month[],DST Indicator[1=yes 0=no],Hour[],StartMinute[],EndMinute[],DayType
3,5,Cumulative Day of Simulation[],Month[],Day of Month[],DST Indicator[1=yes 0=no],DayType  ! When Daily Report Variables Requested
4,2,Cumulative Days of Simulation[],Month[]  ! When Monthly Report Variables Requested
5,1,Cumulative Days of Simulation[] ! When Run Period Report Variables Requested
6,1,Calendar Year of Simulation[] ! When Annual Report Variables Requested
581,11,LIVING,AFN Zone Infiltration Air Change Rate [ach] !RunPeriod [Value,Min,Month,Day,Hour,Minute,Max,Month,Day,Hour,Minute]
582,11,ATTIC,AFN Zone Infiltration Air Change Rate [ach] !RunPeriod [Value,Min,Month,Day,Hour,Minute,Max,Month,Day,Hour,Minute]
583,11,CRAWLSPACE,AFN Zone Infiltration Air Change Rate [ach] !RunPeriod [Value,Min,Month,Day,Hour,Minute,Max,Month,Day,Hour,Minute]
1038,11,Facility,Facility Heating Setpoint Not Met Time [hr] !RunPeriod [Value,Min,Month,Day,Hour,Minute,Max,Month,Day,Hour,Minute]
1039,11,Facility,Facility Cooling Setpoint Not Met Time [hr] !RunPeriod [Value,Min,Month,Day,Hour,Minute,Max,Month,Day,Hour,Minute]
1115,11,DX_HEATING_COIL,Heating Coil Heating Energy [J] !RunPeriod [Value,Min,Month,Day,Hour,Minute,Max,Month,Day,Hour,Minute]
1128,11,DX_HEATING_COIL,Heating Coil Electricity Energy [J] !RunPeriod [Value,Min,Month,Day,Hour,Minute,Max,Month,Day,Hour,Minute]
1153,11,DX_HEATING_COIL,Heating Coil Defrost Electricity Energy [J] !RunPeriod [Value,Min,Month,Day,Hour,Minute,Max,Month,Day,Hour,Minute]
1154,11,DX_HEATING_COIL,Heating Coil Crankcase Heater Electricity Energy [J] !RunPeriod [Value,Min,Month,Day,Hour,Minute,Max,Month,Day,Hour,Minute]
1156,11,HEATING_RESISTANCE_BACKUP,Heating Coil Electricity Energy [J] !RunPeriod [Value,Min,Month,Day,Hour,Minute,Max,Month,Day,Hour,Minute]
13,11,Electricity:Facility [J] !RunPeriod [Value,Min,Month,Day,Hour,Minute,Max,Month,Day,Hour,Minute]
1134,11,Heating:Electricity [J] !RunPeriod [Value,Min,Month,Day,Hour,Minute,Max,Month,Day,Hour,Minute]
1096,11,Cooling:Electricity [J] !RunPeriod [Value,Min,Month,Day,Hour,Minute,Max,Month,Day,Hour,Minute]
562,11,Fans:Electricity [J] !RunPeriod [Value,Min,Month,Day,Hour,Minute,Max,Month,Day,Hour,Minute]
1388,11,Pumps:Electricity [J] !RunPeriod [Value,Min,Month,Day,Hour,Minute,Max,Month,Day,Hour,Minute]
1360,11,WaterSystems:Electricity [J] !RunPeriod [Value,Min,Month,Day,Hour,Minute,Max,Month,Day,Hour,Minute]
61,11,InteriorLights:Electricity [J] !RunPeriod [Value,Min,Month,Day,Hour,Minute,Max,Month,Day,Hour,Minute]
1046,11,ExteriorLights:Electricity [J] !RunPeriod [Value,Min,Month,Day,Hour,Minute,Max,Month,Day,Hour,Minute]
134,11,InteriorEquipment:Electricity [J] !RunPeriod [Value,Min,Month,Day,Hour,Minute,Max,Month,Day,Hour,Minute]
170,11,gas_dryer:InteriorEquipment:Electricity [J] !RunPeriod [Value,Min,Month,Day,Hour,Minute,Max,Month,Day,Hour,Minute]
207,11,clotheswasher:InteriorEquipment:Electricity [J] !RunPeriod [Value,Min,Month,Day,Hour,Minute,Max,Month,Day,Hour,Minute]
244,11,dishwasher:InteriorEquipment:Electricity [J] !RunPeriod [Value,Min,Month,Day,Hour,Minute,Max,Month,Day,Hour,Minute]
281,11,refrigerator:InteriorEquipment:Electricity [J] !RunPeriod [Value,Min,Month,Day,Hour,Minute,Max,Month,Day,Hour,Minute]
318,11,electric_mels:InteriorEquipment:Electricity [J] !RunPeriod [Value,Min,Month,Day,Hour,Minute,Max,Month,Day,Hour,Minute]
355,11,NaturalGas:Facility [J] !RunPeriod [Value,Min,Month,Day,Hour,Minute,Max,Month,Day,Hour,Minute]
1323,11,WaterSystems:NaturalGas [J] !RunPeriod [Value,Min,Month,Day,Hour,Minute,Max,Month,Day,Hour,Minute]
403,11,InteriorEquipment:NaturalGas [J] !RunPeriod [Value,Min,Month,Day,Hour,Minute,Max,Month,Day,Hour,Minute]
476,11,gas_dryer:InteriorEquipment:NaturalGas [J] !RunPeriod [Value,Min,Month,Day,Hour,Minute,Max,Month,Day,Hour,Minute]
513,11,gas_mels:InteriorEquipment:NaturalGas [J] !RunPeriod [Value,Min,Month,Day,Hour,Minute,Max,Month,Day,Hour,Minute]
End of Data Dictionary
1,EXTREME_WINTER,  43.12, -76.12,  -5.00, 124.00
5,7
1038,2.4999999999999996,0.0, 1,20, 1,10,0.16666666666666666, 1,22, 6,10
1039,0.0,0.0, 1,20, 1,10,0.0, 1,20, 1,10
581,0.3984046210967315,0.24334515201306187, 1,20,24,53,0.9376617947118006, 1,20,13,55
582,6.5511290962243,0.0, 1,21, 9,55,35.274185210083814, 1,20,13,55
583,6.528844908586909,0.0003676982085490444, 1,26,23, 5,28.992099087672262, 1,20,13,55
1115,2200837441.246098,0.0, 1,20,23, 2,2899212.609231138, 1,20,20,60
1128,790848799.3497341,0.0, 1,20,23, 2,911543.7286818678, 1,20,22,20
1153,5172466.659946339,0.0, 1,20, 1,42,41387.94967998273, 1,20, 9,10
1154,9051435.287114888,0.0, 1,20, 6, 2,87596.16788966714, 1,20,12,60
1156,1416890965.9796097,0.0, 1,20, 1, 1,4201922.066663924, 1,22, 7,10
13,2686231978.4295087,565509.7472427533, 1,20, 2,10,5603116.674141336, 1,22, 7,10
61,301924526.0238348,58759.40635443481, 1,20, 1,10,854682.2742463244, 1,20,20,10
134,70666020.44019979,42376.01200569399, 1,20, 4,10,104369.48322671017, 1,25,20,10
170,5241013.419656074,232.27731661587313, 1,20, 4,10,11650.931360040839, 1,25,12,10
207,6509451.13922266,543.5021409221355, 1,20, 3,10,15327.095199349082, 1,25,10,10
244,12749673.39982522,1014.5707620042115, 1,20, 4,10,35359.08742820678, 1,25,20,10
281,46165882.48149605,39959.06841621388, 1,20, 5,10,54634.54471212738, 1,20,19,10
318,0.0,0.0, 1,20, 1,10,0.0, 1,20, 1,10
355,746375420.7688212,12374.216038804521, 1,20, 4,10,3829218.154066982, 1,21,18,60
403,197687796.27748126,12374.216038804521, 1,20, 4,10,483183.26346918393, 1,25,18,10
476,106772067.24485692,4732.048419519677, 1,20, 4,10,237357.535085481, 1,25,12,10
513,0.0,0.0, 1,20, 1,10,0.0, 1,20, 1,10
562,86657924.68907206,25100.450652831725, 1,20,12,60,92954.16543119411, 1,21, 3,60
1046,0.0,0.0, 1,20, 1,10,0.0, 1,20, 1,10
1096,0.0,0.0, 1,20, 1,10,0.0, 1,20, 1,10
1134,2221963667.2764053,348332.23318712506, 1,20,12,60,5042563.461600823, 1,22, 6,60
1323,548687624.4913373,0.0, 1,20, 1,10,3375000.0000000005, 1,20,21,60
1360,5019840.0,4980.0, 1,20, 1,30,4980.000000000002, 1,22, 8,20
1388,0.0,0.0, 1,20, 1,10,0.0, 1,20, 1,10
1,EXTREME_SUMMER,  43.12, -76.12,  -5.00, 124.00
5,7
1038,0.0,0.0, 7,13, 1,10,0.0, 7,13, 1,10
1039,49.83333333333333,0.0, 7,13, 1,10,0.16666666666666666, 7,14,14,60
581,0.09892966666733104,0.0, 7,14, 3,50,0.37789439300190847, 7,19,15,40
582,3.631870875125345,0.0, 7,13, 2,30,12.573344688256416, 7,19,21,52
583,3.930039046446113,0.0, 7,14,23, 2,14.044821705165136, 7,19,14,60
1115,0.0,0.0, 7,13, 1,10,0.0, 7,13, 1,10
1128,0.0,0.0, 7,13, 1,10,0.0, 7,13, 1,10
1153,0.0,0.0, 7,13, 1,10,0.0, 7,13, 1,10
1154,0.0,0.0, 7,13, 1,10,0.0, 7,13, 1,10
1156,0.0,0.0, 7,13, 1,10,0.0, 7,13, 1,10
13,1032563327.8019992,133898.47719661793, 7,13, 4,60,2057706.7602776317, 7,19,20,10
61,301924526.0238348,58759.40635443481, 7,13, 1,10,854682.2742463244, 7,13,20,10
134,70666020.44019979,42376.01200569399, 7,13, 4,10,104369.48322671017, 7,18,20,10
170,5241013.419656074,232.27731661587313, 7,13, 4,10,11650.931360040839, 7,18,12,10
207,6509451.13922266,543.5021409221355, 7,13, 3,10,15327.095199349082, 7,18,10,10
244,12749673.39982522,1014.5707620042115, 7,13, 4,10,35359.08742820678, 7,18,20,10
281,46165882.48149605,39959.06841621388, 7,13, 5,10,54634.54471212738, 7,13,19,10
318,0.0,0.0, 7,13, 1,10,0.0, 7,13, 1,10
355,642743419.205342,12374.216038804521, 7,13, 4,10,3829218.154066982, 7,14,18,60
403,197687796.27748126,12374.216038804521, 7,13, 4,10,483183.26346918393, 7,18,18,10
476,106772067.24485692,4732.048419519677, 7,13, 4,10,237357.535085481, 7,18,12,10
513,0.0,0.0, 7,13, 1,10,0.0, 7,13, 1,10
562,59091613.53165179,0.0, 7,13, 6,20,92954.16543119411, 7,19,21,20
1046,0.0,0.0, 7,13, 1,10,0.0, 7,13, 1,10
1096,595861327.8063127,0.0, 7,13, 6,20,1049028.1694393302, 7,19,17,50
1134,0.0,0.0, 7,13, 1,10,0.0, 7,13, 1,10
1323,445055622.92785954,0.0, 7,13, 1,10,3375000.0, 7,13, 9,50
1360,5019840.0,4980.0, 7,13, 1,10,4980.000000000001, 7,13, 9,20
1388,0.0,0.0, 7,13, 1,10,0.0, 7,13, 1,10
1,ANNUAL,  43.12, -76.12,  -5.00, 124.00
5,365
1038,14.999999999999982,0.0, 1, 1, 1,10,0.16666666666666666, 1, 3, 6,10
1039,176.0,0.0, 1, 1, 1,10,0.16666666666666666, 6, 6,17,50
581,0.23949309055653287,0.0, 5,31,24,60,1.0609501807725679,12,16,16,60
582,4.496079122333176,0.0, 1, 7,24,50,39.37957208920432, 5, 9,20,60
583,4.857561916853724,0.0, 6, 7,23, 2,31.581993847222456, 5, 9,19,60
1115,36394279934.852356,0.0, 1, 1,23, 2,3609936.616707315, 1,19, 6,60
1128,11417239220.059526,0.0, 1, 1,23, 2,980236.1976271047, 1,19, 7,20
1153,362552749.4387293,0.0, 1, 1,23, 2,91729.3028483553,12,19, 9,60
1154,1594245163.8989131,0.0, 1, 1, 6, 2,120000.0, 1, 8,16,20
1156,6663738101.472607,0.0, 1, 1, 1, 1,4201922.066663924, 1,22, 7,10
13,49096718289.143585,106115.4183601288, 3,14, 4,10,5628572.555463882,12,16,17,30
61,15743207428.39043,58759.40635443481, 1, 1, 1,10,854682.2742463244, 1, 1,20,10
134,3685071073.433083,42376.01200569399, 1, 2, 4,10,104369.48322671017, 1, 1,20,10
170,273393721.45534325,232.27731661587313, 1, 2, 4,10,11650.931360040839, 1, 1,12,10
207,339560869.06955314,543.5021409221355, 1, 2, 3,10,15327.095199349082, 1, 1,10,10
244,664895467.8009839,1014.5707620042115, 1, 2, 4,10,35359.08742820678, 1, 1,20,10
281,2407221015.1057043,39959.06841621388, 1, 1, 5,10,54634.54471212738, 1, 1,19,10
318,0.0,0.0, 1, 1, 1,10,0.0, 1, 1, 1,10
355,35767184160.94689,12374.216038804521, 1, 2, 4,10,3829218.154066983, 1,24,18,60
403,10310294493.052883,12374.216038804521, 1, 2, 4,10,483183.26346918393, 1, 1,18,10
476,5569688622.065564,4732.048419519677, 1, 2, 4,10,237357.535085481, 1, 1,12,10
513,0.0,0.0, 1, 1, 1,10,0.0, 1, 1, 1,10
562,2015064092.3093631,0.0, 1, 6,23,10,92954.16543119411, 1,18,12,30
1046,0.0,0.0, 1, 1, 1,10,0.0, 1, 1, 1,10
1096,7353851660.147669,0.0, 1, 1, 1,10,1085903.7359226071, 6, 8,15,60
1134,20037775234.869682,0.0, 1,12,13,60,5057100.65748331,12,16, 6,40
1323,25456889667.898026,0.0, 1, 1, 1,10,3375000.000000002, 1, 3,20,20
1360,261748800.0,4979.999999999998, 3,29, 9,60,4980.000000000002, 1, 9, 9,40
1388,0.0,0.0, 1, 1, 1,10,0.0, 1, 1, 1,10
End of Data
 Number of Records Written=          87
