Program Version,EnergyPlus, Version 22.2.0-c249759bad, YMD=2023.09.01 14:31
1,5,Environment Title[],Latitude[deg],Longitude[deg],Time Zone[],Elevation[m]
2,8,Day of Simulation[],Month[],Day of Month[],DST Indicator[1=yes 0=no],Hour[],StartMinute[],EndMinute[],DayType
3,5,Cumulative Day of Simulation[],Month[],Day of Month[],DST Indicator[1=yes 0=no],DayType  ! When Daily Report Variables Requested
4,2,Cumulative Days of Simulation[],Month[]  ! When Monthly Report Variables Requested
5,1,Cumulative Days of Simulation[] ! When Run Period Report Variables Requested
6,1,Calendar Year of Simulation[] ! When Annual Report Variables Requested
7,1,Environment,Site Outdoor Air Drybulb Temperature [C] !Hourly
619,1,DX_HEATING_COIL,Heating Coil Heating Rate [W] !Hourly
633,1,DX_HEATING_COIL,Heating Coil Electricity Rate [W] !Hourly
659,1,DX_HEATING_COIL,Heating Coil Defrost Electricity Rate [W] !Hourly
661,1,DX_HEATING_COIL,Heating Coil Crankcase Heater Electricity Rate [W] !Hourly
690,1,FAN,Fan Electricity Rate [W] !Hourly
716,1,HEAT PUMP WATER HEATER FAN,Fan Electricity Rate [W] !Hourly
718,1,LIVING,Zone Mean Air Temperature [C] !Hourly
719,1,ATTIC,Zone Mean Air Temperature [C] !Hourly
720,1,CRAWLSPACE,Zone Mean Air Temperature [C] !Hourly
843,1,LIVING,Zone Predicted Sensible Load to Heating Setpoint Heat Transfer Rate [W] !Hourly
844,1,LIVING,Zone System Predicted Sensible Load to Heating Setpoint Heat Transfer Rate [W] !Hourly
907,1,ATTIC,Zone Predicted Sensible Load to Heating Setpoint Heat Transfer Rate [W] !Hourly
908,1,ATTIC,Zone System Predicted Sensible Load to Heating Setpoint Heat Transfer Rate [W] !Hourly
971,1,CRAWLSPACE,Zone Predicted Sensible Load to Heating Setpoint Heat Transfer Rate [W] !Hourly
972,1,CRAWLSPACE,Zone System Predicted Sensible Load to Heating Setpoint Heat Transfer Rate [W] !Hourly
1195,1,HEATING_RESISTANCE_BACKUP,Heating Coil Heating Rate [W] !Hourly
1197,1,HEATING_RESISTANCE_BACKUP,Heating Coil Electricity Rate [W] !Hourly
End of Data Dictionary
1,EXTREME_WINTER,  35.06, -89.99,  -6.00,  77.40
2,1, 1, 6, 0, 1, 0.00,60.00,Monday
7,-2.8
718,18.591278736814
719,-2.169209593317871
720,19.470161993816223
619,637.2389008909477
633,224.53560461243794
659,7.447012641168972
661,166.52924996362134
690,24.152978494240504
716,0.0
843,437.3436695703567
844,437.3436695703567
907,0.0
908,0.0
971,0.0
972,0.0
1195,0.0
1197,0.0
2,1, 1, 6, 0, 2, 0.00,60.00,Monday
7,-2.2
718,18.592797628922277
719,-2.3815333915024888
720,19.14675248401515
619,1384.6725499649394
633,465.58908146166
659,11.455615150723824
661,131.04720221661256
690,49.86653833740762
716,0.0
843,941.7554009329506
844,941.7554009329506
907,0.0
908,0.0
971,0.0
972,0.0
1195,0.0
1197,0.0
2,1, 1, 6, 0, 3, 0.00,60.00,Monday
7,-2.2
718,18.496517873749717
719,-1.858912599134327
720,18.952726411004008
619,1949.6714318211402
633,646.0507231864772
659,23.00671002846146
661,102.88141552730923
690,70.08962182088705
716,0.0
843,1307.9335165404354
844,1307.9335165404354
907,0.0
908,0.0
971,0.0
972,0.0
1195,0.0
1197,0.0
2,1, 1, 6, 0, 4, 0.00,60.00,Monday
7,-2.2
718,18.532919965731313
719,-1.3696539147863023
720,18.7346523819324
619,2687.601494180947
633,870.5323618469059
659,31.06928831323466
661,68.84672785363699
690,94.65252280790727
716,0.0
843,1816.7443530036653
844,1816.7443530036653
907,0.0
908,0.0
971,0.0
972,0.0
1195,0.0
1197,0.0
2,1, 1, 6, 0, 5, 0.00,60.00,Monday
7,-1.7
718,18.60421906489171
719,-1.1939005185141662
720,18.56490919009903
619,2925.8148886825356
633,933.6905614735757
659,30.41441475423608
661,60.5426330725868
690,100.74302576517712
716,0.0
843,1991.2280993329805
844,1991.2280993329805
907,0.0
908,0.0
971,0.0
972,0.0
1195,0.0
1197,0.0
2,1, 1, 6, 0, 6, 0.00,60.00,Monday
7,-2.2
718,19.273948259561433
719,-0.5125251927789513
720,18.35245121704818
619,4300.100298486812
633,1329.5997069974276
659,47.36566478219639
661,0.0
690,145.31903475298793
716,0.0
843,3067.5217387370813
844,3067.5217387370813
907,0.0
908,0.0
971,0.0
972,0.0
1195,186.55705389912328
1197,186.55705389912328
2,1, 1, 6, 0, 7, 0.00,60.00,Monday
7,-2.2
718,19.530413998205802
719,0.10548449678381372
720,18.23320934565364
619,4285.338647249694
633,1347.081491013082
659,47.36566478219639
661,0.0
690,145.31903475298793
716,85.44000000000007
843,3081.4480709825566
844,3081.4480709825566
907,0.0
908,0.0
971,0.0
972,0.0
1195,1429.3644012723025
1197,1429.3644012723025
2,1, 1, 6, 0, 8, 0.00,60.00,Monday
7,-0.6
718,19.611547085503336
719,0.8511673741739562
720,18.10568462690915
619,4425.01073288112
633,1357.6227689267391
659,57.80219576100229
661,0.0
690,145.31903475298793
716,64.3662322467709
843,2319.699989075649
844,2319.699989075649
907,0.0
908,0.0
971,0.0
972,0.0
1195,127.49477134175231
1197,127.49477134175231
2,1, 1, 6, 0, 9, 0.00,60.00,Monday
7,2.2
718,19.80510654173532
719,2.640782932135191
720,18.022342852151414
619,2315.1312481507284
633,720.0892001730915
659,20.798266896131086
661,98.50944129645202
690,73.53844649405835
716,0.0
843,1604.9988832909294
844,1604.9988832909294
907,0.0
908,0.0
971,0.0
972,0.0
1195,0.0
1197,0.0
2,1, 1, 6, 0,10, 0.00,60.00,Monday
7,2.2
718,19.800737945690294
719,6.957990603980107
720,17.92106418558398
619,754.9513748773408
633,245.19404316192947
659,7.054000130260773
661,165.57816966719275
690,24.941444688256542
716,0.0
843,530.1920920303837
844,530.1920920303837
907,0.0
908,0.0
971,0.0
972,0.0
1195,0.0
1197,0.0
2,1, 1, 6, 0,11, 0.00,60.00,Monday
7,7.2
718,20.299451216865915
719,11.997880959425375
720,17.844509284442676
619,0.0
633,0.0
659,0.0
661,200.0
690,0.0
716,0.0
843,-390.78708477807777
844,-390.78708477807777
907,0.0
908,0.0
971,0.0
972,0.0
1195,0.0
1197,0.0
2,1, 1, 6, 0,12, 0.00,60.00,Monday
7,7.2
718,20.720893856016808
719,14.988981946468943
720,17.79785271208165
619,0.0
633,0.0
659,0.0
661,200.0
690,0.0
716,0.0
843,-839.2875363959574
844,-839.2875363959574
907,0.0
908,0.0
971,0.0
972,0.0
1195,0.0
1197,0.0
2,1, 1, 6, 0,13, 0.00,60.00,Monday
7,7.2
718,21.21877993620283
719,16.58827152279339
720,17.783107070841268
619,0.0
633,0.0
659,0.0
661,200.0
690,0.0
716,0.0
843,-1117.4572200951588
844,-1117.4572200951588
907,0.0
908,0.0
971,0.0
972,0.0
1195,0.0
1197,0.0
2,1, 1, 6, 0,14, 0.00,60.00,Monday
7,7.8
718,20.984305260263152
719,18.71822963584557
720,17.79214703420328
619,0.0
633,0.0
659,0.0
661,200.0
690,0.0
716,70.54196334902926
843,-1774.748254198992
844,-1774.748254198992
907,0.0
908,0.0
971,0.0
972,0.0
1195,0.0
1197,0.0
2,1, 1, 6, 0,15, 0.00,60.00,Monday
7,7.2
718,22.363045882335204
719,16.879643029675464
720,17.816014109292627
619,0.0
633,0.0
659,0.0
661,200.0
690,0.0
716,0.0
843,-2453.3083731335773
844,-2453.3083731335773
907,0.0
908,0.0
971,0.0
972,0.0
1195,0.0
1197,0.0
2,1, 1, 6, 0,16, 0.00,60.00,Monday
7,7.2
718,23.079941207894
719,15.277997163159446
720,17.854363961787513
619,0.0
633,0.0
659,0.0
661,200.0
690,0.0
716,0.0
843,-2700.2448680149264
844,-2700.2448680149264
907,0.0
908,0.0
971,0.0
972,0.0
1195,0.0
1197,0.0
2,1, 1, 6, 0,17, 0.00,60.00,Monday
7,3.9
718,23.152960674496576
719,11.972141391943559
720,17.9145394706373
619,0.0
633,0.0
659,0.0
661,200.0
690,0.0
716,0.0
843,-2802.2857754515517
844,-2802.2857754515517
907,0.0
908,0.0
971,0.0
972,0.0
1195,0.0
1197,0.0
2,1, 1, 6, 0,18, 0.00,60.00,Monday
7,2.8
718,22.42873193343304
719,8.495702500026884
720,17.96760577937249
619,0.0
633,0.0
659,0.0
661,200.0
690,0.0
716,0.0
843,-2368.1232581877284
844,-2368.1232581877284
907,0.0
908,0.0
971,0.0
972,0.0
1195,0.0
1197,0.0
2,1, 1, 6, 0,19, 0.00,60.00,Monday
7,2.8
718,21.215271739048262
719,6.168566787789015
720,17.997482148030546
619,0.0
633,0.0
659,0.0
661,200.0
690,0.0
716,84.21536190333131
843,-2125.0219697748053
844,-2125.0219697748053
907,0.0
908,0.0
971,0.0
972,0.0
1195,0.0
1197,0.0
2,1, 1, 6, 0,20, 0.00,60.00,Monday
7,1.1
718,20.67455670535394
719,3.8959949371761287
720,17.99550900356432
619,0.0
633,0.0
659,0.0
661,200.0
690,0.0
716,79.79348015953012
843,-1845.8597158159519
844,-1845.8597158159519
907,0.0
908,0.0
971,0.0
972,0.0
1195,0.0
1197,0.0
2,1, 1, 6, 0,21, 0.00,60.00,Monday
7,0.6
718,20.936151516736018
719,2.4207787589507284
720,17.963450888293615
619,0.0
633,0.0
659,0.0
661,200.0
690,0.0
716,0.0
843,-1169.0774161213194
844,-1169.0774161213194
907,0.0
908,0.0
971,0.0
972,0.0
1195,0.0
1197,0.0
2,1, 1, 6, 0,22, 0.00,60.00,Monday
7,0.6
718,20.38000229735739
719,1.5376270007355852
720,17.908480119899927
619,0.0
633,0.0
659,0.0
661,200.0
690,0.0
716,0.0
843,-535.004330715461
844,-535.004330715461
907,0.0
908,0.0
971,0.0
972,0.0
1195,0.0
1197,0.0
2,1, 1, 6, 0,23, 0.00,60.00,Monday
7,0.0
718,19.558286450788245
719,0.7246355955722849
720,17.837061576205407
619,0.0
633,0.0
659,0.0
661,200.0
690,0.0
716,0.0
843,-782.1156517152631
844,-782.1156517152631
907,0.0
908,0.0
971,0.0
972,0.0
1195,0.0
1197,0.0
2,1, 1, 6, 0,24, 0.00,60.00,Monday
7,-1.1
718,18.81612430141938
719,-0.8344633041263666
720,17.757008881164605
619,0.0
633,0.0
659,0.0
661,200.0
690,0.0
716,0.0
843,-168.92543563126856
844,-168.92543563126856
907,0.0
908,0.0
971,0.0
972,0.0
1195,0.0
1197,0.0
2,2, 1, 7, 0, 1, 0.00,60.00,Tuesday
7,-1.1
718,18.573546058988374
719,-1.1117838997704141
720,17.647176577516685
619,669.5654911460065
633,225.8622585249969
659,6.618102619300589
661,166.74192304014866
690,24.048360652369595
716,0.0
843,463.09057429550376
844,463.09057429550376
907,0.0
908,0.0
971,0.0
972,0.0
1195,0.0
1197,0.0
2,2, 1, 7, 0, 2, 0.00,60.00,Tuesday
7,0.6
718,18.643703815145805
719,-0.08335726667208598
720,17.5426024467508
619,1154.8493555336534
633,370.2321955652325
659,8.423124592987628
661,146.48062495598134
690,38.77485301839758
716,0.0
843,802.0787705681942
844,802.0787705681942
907,0.0
908,0.0
971,0.0
972,0.0
1195,0.0
1197,0.0
2,2, 1, 7, 0, 3, 0.00,60.00,Tuesday
7,0.6
718,18.498458128686064
719,1.1625569582715702
720,17.434991893211304
619,1669.3007509006868
633,529.2039448067133
659,15.070869124323218
661,122.98932051727726
690,55.75358517782021
716,0.0
843,1168.8290276397965
844,1168.8290276397965
907,0.0
908,0.0
971,0.0
972,0.0
1195,0.0
1197,0.0
2,2, 1, 7, 0, 4, 0.00,60.00,Tuesday
7,0.6
718,18.55068990939892
719,1.9285635109201666
720,17.32591528747819
619,2249.6657104187257
633,700.2076026578794
659,20.001556752090075
661,97.79398497298881
690,73.99450645969529
716,0.0
843,1604.095398517049
844,1604.095398517049
907,0.0
908,0.0
971,0.0
972,0.0
1195,0.0
1197,0.0
2,2, 1, 7, 0, 5, 0.00,60.00,Tuesday
7,0.0
718,18.409659509702198
719,2.43781450614581
720,17.213855794589914
619,2847.471283491714
633,883.0850819931067
659,29.10436876785705
661,69.7732831903088
690,94.18789676386339
716,0.0
843,2034.5924072678736
844,2034.5924072678736
907,0.0
908,0.0
971,0.0
972,0.0
1195,0.0
1197,0.0
2,2, 1, 7, 0, 6, 0.00,60.00,Tuesday
7,0.0
718,19.12639141026099
719,3.0383262891912737
720,17.083155885166967
619,4690.96144878069
633,1382.8294358645926
659,22.61212949133302
661,0.0
690,145.31903475298793
716,0.0
843,3482.75197286006
844,3482.75197286006
907,0.0
908,0.0
971,0.0
972,0.0
1195,120.2697327107212
1197,120.2697327107212
2,2, 1, 7, 0, 7, 0.00,60.00,Tuesday
7,0.0
718,19.47123033154441
719,3.385803092321656
720,17.027980925209548
619,4674.639926504469
633,1402.220408446799
659,22.61212949133302
661,0.0
690,145.31903475298793
716,85.44000000000007
843,3649.178610484374
844,3649.178610484374
907,0.0
908,0.0
971,0.0
972,0.0
1195,1599.0500941942973
1197,1599.0500941942973
2,2, 1, 7, 0, 8, 0.00,60.00,Tuesday
7,-1.0
718,19.606214414866056
719,3.200119538701391
720,16.937961925762036
619,4520.337673442541
633,1393.151709329076
659,27.08031244726576
661,0.0
690,145.31903475298793
716,85.44000000000007
843,3374.496721908248
844,3374.496721908248
907,0.0
908,0.0
971,0.0
972,0.0
1195,1465.4187972106201
1197,1465.4187972106201
2,2, 1, 7, 0, 9, 0.00,60.00,Tuesday
7,-0.6
718,19.6700128938483
719,3.213439637060609
720,16.843128382716106
619,4652.5945369430565
633,1427.6350902356583
659,8.683459956887468
661,0.0
690,145.31903475298793
716,70.4586586257801
843,4453.398212480828
844,4453.398212480828
907,0.0
908,0.0
971,0.0
972,0.0
1195,2473.4736748833275
1197,2473.4736748833275
2,2, 1, 7, 0,10, 0.00,60.00,Tuesday
7,-0.6
718,19.711769740661715
719,3.5154885323025895
720,16.759930825553578
619,4651.216415285029
633,1429.2812085998892
659,8.683459956887468
661,0.0
690,145.31903475298793
716,0.0
843,4190.163138395044
844,4190.163138395044
907,0.0
908,0.0
971,0.0
972,0.0
1195,1120.6058828592645
1197,1120.6058828592645
2,2, 1, 7, 0,11, 0.00,60.00,Tuesday
7,-1.0
718,19.71800755989075
719,3.402627564903424
720,16.67448070759154
619,4638.979565865537
633,1437.6479800754648
659,0.07000301087396728
661,0.0
690,145.31903475298793
716,0.0
843,3913.516182179401
844,3913.516182179401
907,0.0
908,0.0
971,0.0
972,0.0
1195,774.3615585585853
1197,774.3615585585853
2,2, 1, 7, 0,12, 0.00,60.00,Tuesday
7,-2.0
718,19.719140631686578
719,3.203291443692895
720,16.585168992115875
619,4512.173757693167
633,1425.419619921786
659,0.07000301087396728
661,0.0
690,145.31903475298793
716,0.0
843,4045.51846587428
844,4045.51846587428
907,0.0
908,0.0
971,0.0
972,0.0
1195,1078.632518013449
1197,1078.632518013449
2,2, 1, 7, 0,13, 0.00,60.00,Tuesday
7,-2.2
718,19.714979667643618
719,2.387620909095472
720,16.502777743206526
619,4487.194029071276
633,1422.823940084427
659,0.07000301087396728
661,0.0
690,145.31903475298793
716,0.0
843,4595.9114255675995
844,4595.9114255675995
907,0.0
908,0.0
971,0.0
972,0.0
1195,1799.1202103375572
1197,1799.1202103375572
2,2, 1, 7, 0,14, 0.00,60.00,Tuesday
7,-4.4
718,19.717075803764505
719,1.343546035531861
720,16.41520830886672
619,4216.138274070138
633,1396.3515252858872
659,0.07000301087396728
661,0.0
690,145.31903475298793
716,0.0
843,4661.289980570922
844,4661.289980570922
907,0.0
908,0.0
971,0.0
972,0.0
1195,2195.0083137799497
1197,2195.0083137799497
2,2, 1, 7, 0,15, 0.00,60.00,Tuesday
7,-3.9
718,19.718511305800114
719,1.6314708949489667
720,16.34965499441173
619,4277.032959772562
633,1402.1802151745478
659,0.07000301087396728
661,0.0
690,145.31903475298793
716,0.0
843,4076.9501957283264
844,4076.9501957283264
907,0.0
908,0.0
971,0.0
972,0.0
1195,1488.0028549234175
1197,1488.0028549234175
2,2, 1, 7, 0,16, 0.00,60.00,Tuesday
7,-3.9
718,19.72406929341457
719,1.6874414975820426
720,16.287026666080205
619,4277.082558965576
633,1402.1218616103163
659,0.07000301087396728
661,0.0
690,145.31903475298793
716,0.0
843,3543.54143144306
844,3543.54143144306
907,0.0
908,0.0
971,0.0
972,0.0
1195,836.2756840885158
1197,836.2756840885158
2,2, 1, 7, 0,17, 0.00,60.00,Tuesday
7,-6.1
718,19.724333029774375
719,-0.06840386712653812
720,16.228282617676417
619,4013.001608103498
633,1376.3045372052115
659,0.07000301087396728
661,0.0
690,145.31903475298793
716,0.0
843,2935.3892396328138
844,2935.3892396328138
907,0.0
908,0.0
971,0.0
972,0.0
1195,346.56475250487165
1197,346.56475250487165
2,2, 1, 7, 0,18, 0.00,60.00,Tuesday
7,-7.2
718,19.69838907288201
719,-1.5160762145130493
720,16.178126605053603
619,3884.590585500278
633,1363.2803830089424
659,0.07000301087396728
661,0.0
690,145.31903475298793
716,71.3443042972729
843,3827.2225265678353
844,3827.2225265678353
907,0.0
908,0.0
971,0.0
972,0.0
1195,2554.3695281294304
1197,2554.3695281294304
2,2, 1, 7, 0,19, 0.00,60.00,Tuesday
7,-7.2
718,19.710560077672003
719,-2.395434026688243
720,16.124566172835387
619,3885.2455106862967
633,1362.5325696612574
659,0.07000301087396728
661,0.0
690,145.31903475298793
716,0.0
843,3942.2768426684324
844,3942.2768426684324
907,0.0
908,0.0
971,0.0
972,0.0
1195,1859.8101424869683
1197,1859.8101424869683
2,2, 1, 7, 0,20, 0.00,60.00,Tuesday
7,-8.3
718,19.69924692971569
719,-3.1649649970204776
720,16.05613248026469
619,3758.8340532197403
633,1349.8359631429273
659,0.07000301087396728
661,0.0
690,145.31903475298793
716,85.44000000000007
843,3193.989773761514
844,3193.989773761514
907,0.0
908,0.0
971,0.0
972,0.0
1195,2327.156594960724
1197,2327.156594960724
2,2, 1, 7, 0,21, 0.00,60.00,Tuesday
7,-8.9
718,19.705366657877303
719,-3.730594233463379
720,15.962645271362593
619,3691.3530524208118
633,1342.3165550250674
659,0.07000301087396728
661,0.0
690,145.31903475298793
716,85.44000000000007
843,3342.9713116649455
844,3342.9713116649455
907,0.0
908,0.0
971,0.0
972,0.0
1195,2577.071149813026
1197,2577.071149813026
2,2, 1, 7, 0,22, 0.00,60.00,Tuesday
7,-8.9
718,19.708760907544324
719,-4.071362481185586
720,15.864912653502929
619,3691.32969382942
633,1342.3426696709896
659,0.07000301087396728
661,0.0
690,145.31903475298793
716,41.47581918073563
843,3660.8048560010157
844,3660.8048560010157
907,0.0
908,0.0
971,0.0
972,0.0
1195,2320.317334015717
1197,2320.317334015717
2,2, 1, 7, 0,23, 0.00,60.00,Tuesday
7,-10.0
718,18.95563691399666
719,-4.991041782478506
720,15.746492036561731
619,3568.864051011217
633,1329.0633091229972
659,0.07000301087396728
661,0.0
690,145.31903475298793
716,0.0
843,3318.120871727657
844,3318.120871727657
907,0.0
908,0.0
971,0.0
972,0.0
1195,1553.5241031240025
1197,1553.5241031240025
2,2, 1, 7, 0,24, 0.00,60.00,Tuesday
7,-10.6
718,18.724484383713076
719,-4.971408512462623
720,15.600367024678764
619,3519.941175128268
633,1303.2859399685537
659,0.07000301087396728
661,0.0
690,145.31903475298793
716,0.0
843,3417.3359501834
844,3417.3359501834
907,0.0
908,0.0
971,0.0
972,0.0
1195,1709.261434491261
1197,1709.261434491261
2,3, 1, 8, 0, 1, 0.00,60.00,Wednesday
7,-10.6
718,18.64017622244668
719,-5.291453330428063
720,15.473804205367186
619,3525.2332929206796
633,1297.4892231477525
659,0.07000301087396728
661,0.0
690,145.31903475298793
716,0.0
843,3953.9041035939263
844,3953.9041035939263
907,0.0
908,0.0
971,0.0
972,0.0
1195,2320.3327699514684
1197,2320.3327699514684
2,3, 1, 8, 0, 2, 0.00,60.00,Wednesday
7,-11.1
718,18.615485229057178
719,-5.47476564284313
720,15.34196757776747
619,3472.840121290738
633,1289.4358308066141
659,0.07000301087396728
661,0.0
690,145.31903475298793
716,0.0
843,4282.501906383941
844,4282.501906383941
907,0.0
908,0.0
971,0.0
972,0.0
1195,2787.5542349466295
1197,2787.5542349466295
2,3, 1, 8, 0, 3, 0.00,60.00,Wednesday
7,-11.7
718,18.604237452577685
719,-6.025033254490932
720,15.211305456238664
619,3408.894171947085
633,1281.6021045632303
659,0.07000301087396728
661,0.0
690,145.31903475298793
716,0.0
843,4623.659991482711
844,4623.659991482711
907,0.0
908,0.0
971,0.0
972,0.0
1195,3259.128479111353
1197,3259.128479111353
2,3, 1, 8, 0, 4, 0.00,60.00,Wednesday
7,-11.7
718,18.604414122736422
719,-6.190187277089479
720,15.086668687273015
619,3409.294997086379
633,1281.169920634451
659,0.07000301087396728
661,0.0
690,145.31903475298793
716,0.0
843,4800.35137348219
844,4800.35137348219
907,0.0
908,0.0
971,0.0
972,0.0
1195,3517.035755454599
1197,3517.035755454599
2,3, 1, 8, 0, 5, 0.00,60.00,Wednesday
7,-11.7
718,18.60367953229184
719,-6.290161988207341
720,14.966263476504444
619,3409.426462837077
633,1281.0281589760962
659,0.07000301087396728
661,0.0
690,145.31903475298793
716,0.0
843,4456.207322607595
844,4456.207322607595
907,0.0
908,0.0
971,0.0
972,0.0
1195,3097.2030258603645
1197,3097.2030258603645
2,3, 1, 8, 0, 6, 0.00,60.00,Wednesday
7,-12.2
718,19.212424799242978
719,-6.13719259934342
720,14.842444066958647
619,3356.242728623994
633,1274.9185240701595
659,0.07000301087396728
661,0.0
690,145.31903475298793
716,73.34028446180615
843,5509.763790868381
844,5509.763790868381
907,0.0
908,0.0
971,0.0
972,0.0
1195,5110.62787842707
1197,5110.62787842707
2,3, 1, 8, 0, 7, 0.00,60.00,Wednesday
7,-12.2
718,19.409845051088002
719,-6.441236117110474
720,14.754866368938762
619,3343.03439719767
633,1289.0149216783448
659,0.07000301087396728
661,0.0
690,145.31903475298793
716,85.44000000000007
843,5325.332901293645
844,5325.332901293645
907,0.0
908,0.0
971,0.0
972,0.0
1195,5110.62787842707
1197,5110.62787842707
2,3, 1, 8, 0, 8, 0.00,60.00,Wednesday
7,-11.7
718,19.600237375201832
719,-6.35719395597058
720,14.653412357802791
619,3392.0776918022475
633,1299.6889377977602
659,0.07000301087396728
661,0.0
690,145.31903475298793
716,60.001139883502354
843,4723.592299849128
844,4723.592299849128
907,0.0
908,0.0
971,0.0
972,0.0
1195,4316.279973770346
1197,4316.279973770346
2,3, 1, 8, 0, 9, 0.00,60.00,Wednesday
7,-10.6
718,19.68760093793727
719,-1.8639780992996926
720,14.574929813166534
619,3506.8871925405488
633,1317.5538921817686
659,0.07000301087396728
661,0.0
690,145.31903475298793
716,0.0
843,3470.355633714942
844,3470.355633714942
907,0.0
908,0.0
971,0.0
972,0.0
1195,1926.281000283311
1197,1926.281000283311
2,3, 1, 8, 0,10, 0.00,60.00,Wednesday
7,-10.6
718,19.71955308809211
719,3.5048062399880946
720,14.502021454395111
619,3505.03188374626
633,1319.5780297293259
659,0.07000301087396728
661,0.0
690,145.31903475298793
716,0.0
843,2590.0724783767128
844,2590.0724783767128
907,0.0
908,0.0
971,0.0
972,0.0
1195,644.648416444465
1197,644.648416444465
2,3, 1, 8, 0,11, 0.00,60.00,Wednesday
7,-7.8
718,19.776400456014038
719,4.250345999770169
720,14.467629969305627
619,3079.1796352323527
633,1115.8179640154083
659,0.057692351833796236
661,35.171798716872416
690,119.76121652823943
716,0.0
843,2056.3699559590186
844,2056.3699559590186
907,0.0
908,0.0
971,0.0
972,0.0
1195,0.0
1197,0.0
2,3, 1, 8, 0,12, 0.00,60.00,Wednesday
7,-6.1
718,19.849329645482513
719,8.059549386408055
720,14.441164251804356
619,2021.791922735819
633,732.9933773844361
659,0.037299940168311244
661,93.43332607374364
690,77.4296535166249
716,0.0
843,1380.2507588955032
844,1380.2507588955032
907,0.0
908,0.0
971,0.0
972,0.0
1195,0.0
1197,0.0
2,3, 1, 8, 0,13, 0.00,60.00,Wednesday
7,-6.1
718,19.781673744735954
719,9.826721217986018
720,14.439868813826765
619,1348.8631269102823
633,499.7200759247179
659,0.025391117725473072
661,127.45706960751448
690,52.708541237770824
716,0.0
843,979.5744837173752
844,979.5744837173752
907,0.0
908,0.0
971,0.0
972,0.0
1195,0.0
1197,0.0
2,3, 1, 8, 0,14, 0.00,60.00,Wednesday
7,-3.9
718,19.937202288606645
719,9.871863484423393
720,14.454060224667256
619,649.4896308394148
633,234.81271224518798
659,0.011723973429929724
661,166.50437378747193
690,24.33747041511891
716,0.0
843,489.19388039160003
844,489.19388039160003
907,0.0
908,0.0
971,0.0
972,0.0
1195,0.0
1197,0.0
2,3, 1, 8, 0,15, 0.00,60.00,Wednesday
7,-2.2
718,18.99501401702115
719,7.709301277763318
720,14.480717543542163
619,0.0
633,0.0
659,0.0
661,200.0
690,0.0
716,71.00742793710761
843,-70.63747275426613
844,-70.63747275426613
907,0.0
908,0.0
971,0.0
972,0.0
1195,0.0
1197,0.0
2,3, 1, 8, 0,16, 0.00,60.00,Wednesday
7,-2.2
718,19.478754174813435
719,6.075706400056601
720,14.56210913603177
619,1173.677163504959
633,397.1050664202152
659,0.019848529264578706
661,143.2923555236394
690,41.20310608380402
716,78.04885092187877
843,67.60636845358749
844,67.60636845358749
907,0.0
908,0.0
971,0.0
972,0.0
1195,0.0
1197,0.0
2,3, 1, 8, 0,17, 0.00,60.00,Wednesday
7,-3.3
718,19.571437303321023
719,3.0954160879209516
720,14.610808521767288
619,600.6857129568197
633,213.35830460464683
659,0.010660694271662934
661,169.54218357591407
690,22.13025761139435
716,0.0
843,431.58057772758366
844,431.58057772758366
907,0.0
908,0.0
971,0.0
972,0.0
1195,0.0
1197,0.0
2,3, 1, 8, 0,18, 0.00,60.00,Wednesday
7,-3.9
718,19.55244257716015
719,1.3571143189741677
720,14.698279397838801
619,2077.0832514282865
633,717.881016175313
659,0.03599457160108895
661,97.16279013800357
690,74.72013126830798
716,0.0
843,1436.360798326241
844,1436.360798326241
907,0.0
908,0.0
971,0.0
972,0.0
1195,0.0
1197,0.0
2,3, 1, 8, 0,19, 0.00,60.00,Wednesday
7,-3.9
718,19.637052911185947
719,0.39655626471398636
720,14.733466909236771
619,2662.4949718817193
633,905.3420854907041
659,0.04541100827070719
661,70.25984253030285
690,94.26745068232398
716,0.0
843,1784.577836677654
844,1784.577836677654
907,0.0
908,0.0
971,0.0
972,0.0
1195,0.0
1197,0.0
2,3, 1, 8, 0,20, 0.00,60.00,Wednesday
7,-3.9
718,19.798785555750484
719,0.8249460787458109
720,14.76797107140896
619,3576.2047289134325
633,1189.3252151217578
659,0.059560841549889554
661,29.83348628497624
690,123.64069589819404
716,85.44000000000007
843,1411.593363418806
844,1411.593363418806
907,0.0
908,0.0
971,0.0
972,0.0
1195,0.0
1197,0.0
2,3, 1, 8, 0,21, 0.00,60.00,Wednesday
7,-3.9
718,19.71953880626695
719,-0.1322938399310351
720,14.759222995885729
619,3689.449735730902
633,1228.2124821234127
659,0.06131406730773181
661,24.82448528358003
690,127.28016719684939
716,85.44000000000007
843,1500.8871659260367
844,1500.8871659260367
907,0.0
908,0.0
971,0.0
972,0.0
1195,0.0
1197,0.0
2,3, 1, 8, 0,22, 0.00,60.00,Wednesday
7,-3.9
718,19.76459280099001
719,-0.6165662972743999
720,14.717264968942233
619,3078.1183125290245
633,1039.424615711603
659,0.05196506132696092
661,51.53478206667912
690,107.87282619512217
716,17.19408645911291
843,1828.1117520076023
844,1828.1117520076023
907,0.0
908,0.0
971,0.0
972,0.0
1195,0.0
1197,0.0
2,3, 1, 8, 0,23, 0.00,60.00,Wednesday
7,-4.4
718,18.95703121655677
719,-1.472332931629594
720,14.657959020466413
619,1988.4926578780007
633,698.8387627998371
659,0.03504980149211078
661,99.8620172060482
690,72.75885626881336
716,0.0
843,1254.4878225507255
844,1254.4878225507255
907,0.0
908,0.0
971,0.0
972,0.0
1195,0.0
1197,0.0
2,3, 1, 8, 0,24, 0.00,60.00,Wednesday
7,-5.6
718,18.678621550300353
719,-1.7817669445644073
720,14.594824611949095
619,2658.9712959411177
633,920.5633493833616
659,8.688795664553028
661,62.905342420635726
690,99.35077246542345
716,0.0
843,1704.7113177701813
844,1704.7113177701813
907,0.0
908,0.0
971,0.0
972,0.0
1195,0.0
1197,0.0
2,4, 1, 9, 0, 1, 0.00,60.00,Thursday
7,-5.6
718,18.579238333721445
719,-2.0387233072630377
720,14.534119125968301
619,3522.285201515881
633,1181.9121904054393
659,11.218501195201267
661,22.990821825371533
690,128.2768638005818
716,0.0
843,2258.185709654077
844,2258.185709654077
907,0.0
908,0.0
971,0.0
972,0.0
1195,0.0
1197,0.0
2,4, 1, 9, 0, 2, 0.00,60.00,Thursday
7,-5.6
718,18.570980738159385
719,-2.026103590540386
720,14.467073185619377
619,4029.9869353778095
633,1326.2816773797704
659,17.449734252297727
661,0.0
690,145.31903475298793
716,0.0
843,2706.2137472286868
844,2706.2137472286868
907,0.0
908,0.0
971,0.0
972,0.0
1195,170.64422289534832
1197,170.64422289534832
2,4, 1, 9, 0, 3, 0.00,60.00,Thursday
7,-5.0
718,18.597043767232872
719,-2.0895099926966125
720,14.401542326514438
619,4115.339958483723
633,1337.3891682632416
659,13.912525429621287
661,0.0
690,145.31903475298793
716,0.0
843,2928.7232624825847
844,2928.7232624825847
907,0.0
908,0.0
971,0.0
972,0.0
1195,349.9553562371457
1197,349.9553562371457
2,4, 1, 9, 0, 4, 0.00,60.00,Thursday
7,-5.0
718,18.605286675360013
719,-1.947390612848545
720,14.330946997486395
619,4114.8359707731415
633,1337.9760283956089
659,13.912525429621287
661,0.0
690,145.31903475298793
716,0.0
843,3110.062143428071
844,3110.062143428071
907,0.0
908,0.0
971,0.0
972,0.0
1195,574.9603573613576
1197,574.9603573613576
2,4, 1, 9, 0, 5, 0.00,60.00,Thursday
7,-4.4
718,18.608607742983953
719,-1.96767401514847
720,14.265705987983498
619,4202.950812473601
633,1350.2162300206135
659,9.912644484409038
661,0.0
690,145.31903475298793
716,0.0
843,3048.4581495833318
844,3048.4581495833318
907,0.0
908,0.0
971,0.0
972,0.0
1195,405.95041064097995
1197,405.95041064097995
2,4, 1, 9, 0, 6, 0.00,60.00,Thursday
7,-5.0
718,19.373867507293223
719,-1.789583660127727
720,14.190747216221618
619,4114.785498769049
633,1338.1004004288675
659,13.90184047702176
661,0.0
690,145.31903475298793
716,0.0
843,4157.054594431378
844,4157.054594431378
907,0.0
908,0.0
971,0.0
972,0.0
1195,1820.3808038650213
1197,1820.3808038650213
2,4, 1, 9, 0, 7, 0.00,60.00,Thursday
7,-5.0
718,19.57602734347195
719,-1.3874731497873733
720,14.161034806627155
619,4097.64133650157
633,1358.078912436245
659,13.90184047702176
661,0.0
690,145.31903475298793
716,85.44000000000007
843,3950.6185586458887
844,3950.6185586458887
907,0.0
908,0.0
971,0.0
972,0.0
1195,2811.644342184999
1197,2811.644342184999
2,4, 1, 9, 0, 8, 0.00,60.00,Thursday
7,-2.2
718,19.652413886553155
719,-0.21076444436388275
720,14.122448303416931
619,4448.638408775371
633,1401.249279100536
659,10.169403101837146
661,0.0
690,145.31903475298793
716,85.44000000000007
843,3455.742542222175
844,3455.742542222175
907,0.0
908,0.0
971,0.0
972,0.0
1195,1901.487150903978
1197,1901.487150903978
2,4, 1, 9, 0, 9, 0.00,60.00,Thursday
7,-0.6
718,19.69409145418511
719,1.9981019862152152
720,14.075998476402223
619,4694.950614900368
633,1436.9911054745278
659,0.07000301087396728
661,0.0
690,145.31903475298793
716,57.19625998562013
843,3552.6043279021687
844,3552.6043279021687
907,0.0
908,0.0
971,0.0
972,0.0
1195,1249.3037251890737
1197,1249.3037251890737
2,4, 1, 9, 0,10, 0.00,60.00,Thursday
7,-0.6
718,19.72034711164953
719,3.682724804681741
720,14.025069267011984
619,4642.591544184527
633,1424.0713215099029
659,0.06932005661420106
661,1.9512139584847432
690,143.9001935381294
716,0.0
843,3174.4216393652423
844,3174.4216393652423
907,0.0
908,0.0
971,0.0
972,0.0
1195,0.0
1197,0.0
2,4, 1, 9, 0,11, 0.00,60.00,Thursday
7,1.1
718,19.779107915524637
719,5.845233105210307
720,13.955196577335947
619,3466.972451144441
633,1064.9684218361278
659,0.05103746064151024
661,54.184955748838924
690,105.94790277878414
716,0.0
843,2440.624415325754
844,2440.624415325754
907,0.0
908,0.0
971,0.0
972,0.0
1195,0.0
1197,0.0
2,4, 1, 9, 0,12, 0.00,60.00,Thursday
7,2.2
718,19.919005976812898
719,9.481701429548956
720,13.883680972049124
619,1720.8416381018474
633,541.8718880642331
659,0.025675338800590308
661,126.64504432011951
690,53.29911437487509
716,0.0
843,1250.661949304389
844,1250.661949304389
907,0.0
908,0.0
971,0.0
972,0.0
1195,0.0
1197,0.0
2,4, 1, 9, 0,13, 0.00,60.00,Thursday
7,2.2
718,19.771610599615553
719,12.050211492030172
720,13.856489304987292
619,674.4152293790501
633,218.46467780361
659,0.010322455377546126
661,170.5085388509058
690,21.428255819936073
716,0.0
843,511.07543946393525
844,511.07543946393525
907,0.0
908,0.0
971,0.0
972,0.0
1195,0.0
1197,0.0
2,4, 1, 9, 0,14, 0.00,60.00,Thursday
7,2.2
718,19.27316572711325
719,10.054104169920965
720,13.864739022944306
619,90.93509523492325
633,29.770212904720424
659,0.0014106615225554224
661,195.96971185969366
690,2.9283745941177153