Program Version,EnergyPlus, Version 22.2.0-c249759bad, YMD=2023.09.01 14:31
1,5,Environment Title[],Latitude[deg],Longitude[deg],Time Zone[],Elevation[m]
2,8,Day of Simulation[],Month[],Day of Month[],DST Indicator[1=yes 0=no],Hour[],StartMinute[],EndMinute[],DayType
3,5,Cumulative Day of Simulation[],Month[],Day of Month[],DST Indicator[1=yes 0=no],DayType  ! When Daily Report Variables Requested
4,2,Cumulative Days of Simulation[],Month[]  ! When Monthly Report Variables Requested
5,1,Cumulative Days of Simulation[] ! When Run Period Report Variables Requested
6,1,Calendar Year of Simulation[] ! When Annual Report Variables Requested
7,1,Environment,Site Outdoor Air Drybulb Temperature [C] !Hourly
545,1,LIVING,Zone Mean Air Temperature [C] !Hourly
546,1,ATTIC,Zone Mean Air Temperature [C] !Hourly
547,1,CRAWLSPACE,Zone Mean Air Temperature [C] !Hourly
548,1,FAN,Fan Electricity Rate [W] !Hourly
720,1,LIVING,Zone Predicted Sensible Load to Heating Setpoint Heat Transfer Rate [W] !Hourly
721,1,LIVING,Zone System Predicted Sensible Load to Heating Setpoint Heat Transfer Rate [W] !Hourly
784,1,ATTIC,Zone Predicted Sensible Load to Heating Setpoint Heat Transfer Rate [W] !Hourly
785,1,ATTIC,Zone System Predicted Sensible Load to Heating Setpoint Heat Transfer Rate [W] !Hourly
848,1,CRAWLSPACE,Zone Predicted Sensible Load to Heating Setpoint Heat Transfer Rate [W] !Hourly
849,1,CRAWLSPACE,Zone System Predicted Sensible Load to Heating Setpoint Heat Transfer Rate [W] !Hourly
1121,1,DX_HEATING_COIL,Heating Coil Heating Rate [W] !Hourly
1135,1,DX_HEATING_COIL,Heating Coil Electricity Rate [W] !Hourly
1161,1,DX_HEATING_COIL,Heating Coil Defrost Electricity Rate [W] !Hourly
1163,1,DX_HEATING_COIL,Heating Coil Crankcase Heater Electricity Rate [W] !Hourly
1166,1,HEATING_RESISTANCE_BACKUP,Heating Coil Heating Rate [W] !Hourly
1168,1,HEATING_RESISTANCE_BACKUP,Heating Coil Electricity Rate [W] !Hourly
End of Data Dictionary
1,EXTREME_WINTER,  43.65, -70.32,  -5.00,  13.70
2,1,12,22, 0, 1, 0.00,60.00,Monday
7,2.2
545,18.62839541938242
546,3.756018750005643
547,18.310774026972187
548,88.52556973922216
720,2025.5790755753096
721,2025.5790755753096
784,0.0
785,0.0
848,0.0
849,0.0
1121,2855.649073932504
1135,846.4699957895765
1161,36.4508723390891
1163,59.65641906923893
1166,0.0
1168,0.0
2,1,12,22, 0, 2, 0.00,60.00,Monday
7,2.2
545,18.59265751548636
546,4.105018450217662
547,17.90818708523861
548,95.38188422251142
720,2224.771810199958
721,2224.771810199958
784,0.0
785,0.0
848,0.0
849,0.0
1121,3095.3474009591996
1135,913.9106407271382
1161,39.27407433438215
1163,48.78649326816558
1166,0.0
1168,0.0
2,1,12,22, 0, 3, 0.00,60.00,Monday
7,2.8
545,18.63468709107691
546,4.665670602773181
547,17.722383542681644
548,94.63993017777281
720,2259.2610961753962
721,2259.2610961753962
784,0.0
785,0.0
848,0.0
849,0.0
1121,3139.0891607332924
1135,916.1208490456125
1161,34.74613793821252
1163,50.1023693229836
1166,0.0
1168,0.0
2,1,12,22, 0, 4, 0.00,60.00,Monday
7,2.2
545,18.617104773343254
546,4.577889210983994
547,17.512848046315863
548,98.50861556354889
720,2317.260562690939
721,2317.260562690939
784,0.0
785,0.0
848,0.0
849,0.0
1121,3206.723239574724
1135,943.4146075657084
1161,40.56150618191005
1163,43.82960790186912
1166,0.0
1168,0.0
2,1,12,22, 0, 5, 0.00,60.00,Monday
7,2.2
545,18.61559317147766
546,4.575020568517712
547,17.34179114713396
548,97.34834757735175
720,2278.3614860110793
721,2278.3614860110793
784,0.0
785,0.0
848,0.0
849,0.0
1121,3165.870132449828
1135,931.7885668464256
1161,40.08373759739403
1163,45.66911817156696
1166,0.0
1168,0.0
2,1,12,22, 0, 6, 0.00,60.00,Monday
7,1.1
545,19.30484931551864
546,4.378655131760609
547,17.168095256335512
548,126.6638807672433
720,3328.8757129898895
721,3328.8757129898895
784,0.0
785,0.0
848,0.0
849,0.0
1121,4002.273362696323
1135,1162.5053713011134
1161,74.84552837533035
1163,0.0
1166,510.0795902523596
1168,510.0795902523596
2,1,12,22, 0, 7, 0.00,60.00,Monday
7,1.0
545,19.601617850084953
546,4.252678959202106
547,17.05902595283737
548,126.6638807672433
720,2936.0164695660405
721,2936.0164695660405
784,0.0
785,0.0
848,0.0
849,0.0
1121,3922.8286901544097
1135,1160.4280099304283
1161,86.34614914224171
1163,0.0
1166,237.86016948166116
1168,237.86016948166116
2,1,12,22, 0, 8, 0.00,60.00,Monday
7,0.6
545,19.68438130034896
546,3.82235672907318
547,16.92966966007116
548,126.6638807672433
720,2915.1419404306234
721,2915.1419404306234
784,0.0
785,0.0
848,0.0
849,0.0
1121,3873.412044188632
1135,1162.2735740755168
1161,86.75383942338499
1163,0.0
1166,296.52388679373416
1168,296.52388679373416
2,1,12,22, 0, 9, 0.00,60.00,Monday
7,1.1
545,19.717806814372725
546,4.483138102795142
547,16.81801302946266
548,124.708522155396
720,2675.8037205582987
721,2675.8037205582987
784,0.0
785,0.0
848,0.0
849,0.0
1121,3916.795396886607
1135,1176.8702503146255
1161,74.2588125909895
1163,1.6043733104061264
1166,0.0
1168,0.0
2,1,12,22, 0,10, 0.00,60.00,Monday
7,1.0
545,19.749297582673254
546,4.91500758072706
547,16.704047458556843
548,118.79862007879952
720,2485.6197358003483
721,2485.6197358003483
784,0.0
785,0.0
848,0.0
849,0.0
1121,3648.0105873141383
1135,1106.6233150909616
1161,81.71168682645242
1163,10.73461263027433
1166,0.0
1168,0.0
2,1,12,22, 0,11, 0.00,60.00,Monday
7,1.1
545,19.74620866264775
546,5.493860468014887
547,16.598955410202695
548,115.64874189296872
720,2419.9656409887793
721,2419.9656409887793
784,0.0
785,0.0
848,0.0
849,0.0
1121,3525.5035731093735
1135,1071.9394209787579
1161,84.65117618288794
1163,15.669113678541247
1166,0.0
1168,0.0
2,1,12,22, 0,12, 0.00,60.00,Monday
7,1.7
545,19.78914914376709
546,6.065447342741982
547,16.500710194954948
548,101.38391376466824
720,2144.36334222002
721,2144.36334222002
784,0.0
785,0.0
848,0.0
849,0.0
1121,3116.1313728512887
1135,949.0565634338071
1161,70.11830128943541
1163,38.65515485174802
1166,0.0
1168,0.0
2,1,12,22, 0,13, 0.00,60.00,Monday
7,1.7
545,19.811523314347873
546,6.309964063815927
547,16.408311662654654
548,87.30050180588565
720,1827.5711589053062
721,1827.5711589053062
784,0.0
785,0.0
848,0.0
849,0.0
1121,2646.794800056617
1135,817.8515733843261
1161,60.40532058760846
1163,61.067087109408405
1166,0.0
1168,0.0
2,1,12,22, 0,14, 0.00,60.00,Monday
7,1.7
545,19.784934471022048
546,6.67476999627687
547,16.32359826846489
548,75.88089731394933
720,1579.3677187643243
721,1579.3677187643243
784,0.0
785,0.0
848,0.0
849,0.0
1121,2275.7190458420237
1135,711.1528058436577
1161,52.503861304218304
1163,79.24053182667718
1166,0.0
1168,0.0
2,1,12,22, 0,15, 0.00,60.00,Monday
7,1.0
545,19.65397615633142
546,5.581508551347017
547,16.249641127632234
548,81.81708615971873
720,1725.2853515254446
721,1725.2853515254446
784,0.0
785,0.0
848,0.0
849,0.0
1121,2421.5123096089083
1135,762.1259961775199
1161,56.851084433312295
1163,69.63886429852981
1166,0.0
1168,0.0
2,1,12,22, 0,16, 0.00,60.00,Monday
7,0.6
545,19.670296458615592
546,5.201406202279921
547,16.181263851461637
548,89.28165747766035
720,1844.4899146062926
721,1844.4899146062926
784,0.0
785,0.0
848,0.0
849,0.0
1121,2609.4488645172682
1135,819.8739743156011
1161,67.6822957067259
1163,57.511864375291076
1166,0.0
1168,0.0
2,1,12,22, 0,17, 0.00,60.00,Monday
7,0.6
545,19.695956054070685
546,4.353777953861417
547,16.11969513039263
548,91.45146372758498
720,1869.82160628593
721,1869.82160628593
784,0.0
785,0.0
848,0.0
849,0.0
1121,2678.2490041203123
1135,839.9901554845211
1161,69.32721597024187
1163,54.04889641369455
1166,0.0
1168,0.0
2,1,12,22, 0,18, 0.00,60.00,Monday
7,0.6
545,19.621139900628677
546,3.5625221295638787
547,16.05568060626836
548,95.75330803559771
720,1964.3671517840703
721,1964.3671517840703
784,0.0
785,0.0
848,0.0
849,0.0
1121,2843.3853798591185
1135,887.748611845549
1161,66.4139319978004
1163,47.33462627001386
1166,0.0
1168,0.0
2,1,12,22, 0,19, 0.00,60.00,Monday
7,0.0
545,19.668219297852193
546,3.043341284568756
547,15.986148852571764
548,98.76792464304101
720,1950.3168808738537
721,1950.3168808738537
784,0.0
785,0.0
848,0.0
849,0.0
1121,2880.057788571005
1135,906.0710735007136
1161,72.0286198589741
1163,42.27092747116576
1166,0.0
1168,0.0
2,1,12,22, 0,20, 0.00,60.00,Monday
7,0.0
545,19.704108445575923
546,2.8524617781806696
547,15.920509060274808
548,97.79542292579819
720,1897.243691070058
721,1897.243691070058
784,0.0
785,0.0
848,0.0
849,0.0
1121,2848.42584627682
1135,897.9090881730591
1161,71.31957415175741
1163,43.82360364348181
1166,0.0
1168,0.0
2,1,12,22, 0,21, 0.00,60.00,Monday
7,0.0
545,19.74726774490495
546,2.780225668753391
547,15.84909699134225
548,94.48854206108963
720,1806.8266766691777
721,1806.8266766691777
784,0.0
785,0.0
848,0.0
849,0.0
1121,2742.8544514819637
1135,868.0898537121816
1161,68.92704978851856
1163,49.10379889515271
1166,0.0
1168,0.0
2,1,12,22, 0,22, 0.00,60.00,Monday
7,0.0
545,19.712522464503056
546,2.777497863332025
547,15.779000135544914
548,99.06705058102708
720,1939.1976032114817
721,1939.1976032114817
784,0.0
785,0.0
848,0.0
849,0.0
1121,2915.3649950258573
1135,918.6119731836918
1161,66.0820812597511
1163,41.95813077207908
1166,0.0
1168,0.0
2,1,12,22, 0,23, 0.00,60.00,Monday
7,0.0
545,18.92321160034486
546,2.3974764080512756
547,15.68418807352386
548,70.13669071726211
720,1250.1657453101798
721,1250.1657453101798
784,0.0
785,0.0
848,0.0
849,0.0
1121,2008.4673292563843
1135,649.9695028905052
1161,46.78418717605724
1163,88.11096365821602
1166,0.0
1168,0.0
2,1,12,22, 0,24, 0.00,60.00,Monday
7,0.0
545,18.5570832215817
546,2.422411119315839
547,15.593299114972721
548,90.22145669681512
720,1803.0960678902175
721,1803.0960678902175
784,0.0
785,0.0
848,0.0
849,0.0
1121,2643.259494751359
1135,823.0490857665649
1161,60.223741470389086
1163,56.07434985961315
1166,0.0
1168,0.0
2,2,12,23, 0, 1, 0.00,60.00,Tuesday
7,0.0
545,18.589674636964734
546,2.628537747415976
547,15.507166050018375
548,105.43809691612401
720,2184.3752802138424
721,2184.3752802138424
784,0.0
785,0.0
848,0.0
849,0.0
1121,3158.9355933959437
1135,959.9601964805674
1161,66.22651052965419
1163,31.912778434939693
1166,0.0
1168,0.0
2,2,12,23, 0, 2, 0.00,60.00,Tuesday
7,0.0
545,18.506751707154287
546,2.9378497815204065
547,15.427465433073488
548,126.23401486512721
720,2657.1014170123526
721,2657.1014170123526
784,0.0
785,0.0
848,0.0
849,0.0
1121,3832.991066476534
1135,1135.8132866223825
1161,83.71028694901513
1163,0.0
1166,0.0
1168,0.0
2,2,12,23, 0, 3, 0.00,60.00,Tuesday
7,0.0
545,18.57028398503893
546,2.8603329549396554
547,15.34201639432324
548,126.63432613907244
720,2653.364427450253
721,2653.364427450253
784,0.0
785,0.0
848,0.0
849,0.0
1121,3870.038068294033
1135,1140.7485776320166
1161,78.80017280673579
1163,0.0
1166,0.0
1168,0.0
2,2,12,23, 0, 4, 0.00,60.00,Tuesday
7,1.0
545,18.590163773221256
546,3.7302096298391403
547,15.267811183026197
548,126.6638807672433
720,2905.825222420066
721,2905.825222420066
784,0.0
785,0.0
848,0.0
849,0.0
1121,4006.0325917816185
1135,1161.1559449139897
1161,72.50270388846474
1163,0.0
1166,188.7023294446508
1168,188.7023294446508
2,2,12,23, 0, 5, 0.00,60.00,Tuesday
7,0.6
545,18.605863008724555
546,3.6547665437454664
547,15.18548048007617
548,126.6638807672433
720,2939.5499308532526
721,2939.5499308532526
784,0.0
785,0.0
848,0.0
849,0.0
1121,3962.200219100044
1135,1157.0998068558126
1161,72.67201597780743
1163,0.0
1166,247.26425710752846
1168,247.26425710752846
2,2,12,23, 0, 6, 0.00,60.00,Tuesday
7,0.0
545,19.371487524049655
546,3.5492223492071013
547,15.105884361848359
548,126.6638807672433
720,4132.446548868982
721,4132.446548868982
784,0.0
785,0.0
848,0.0
849,0.0
1121,3869.3765060951227
1135,1142.602570641869
1161,78.80017280673579
1163,0.0
1166,1736.530615312468
1168,1736.530615312468
2,2,12,23, 0, 7, 0.00,60.00,Tuesday
7,0.0
545,19.619677837181307
546,3.657528896310085
547,15.070982499831155
548,126.6638807672433
720,3696.476934672728
721,3696.476934672728
784,0.0
785,0.0
848,0.0
849,0.0
1121,3791.4477868857857
1135,1140.532791159113
1161,92.26940354972795
1163,0.0
1166,1392.8567400439515
1168,1392.8567400439515
2,2,12,23, 0, 8, 0.00,60.00,Tuesday
7,0.0
545,19.681664726946508
546,3.2523067160726624
547,15.004202685252189
548,126.6638807672433
720,3764.7220240752176
721,3764.7220240752176
784,0.0
785,0.0
848,0.0
849,0.0
1121,3791.3117053508463
1135,1147.307694045057
1161,91.33207810602785
1163,0.0
1166,1495.8631083026962
1168,1495.8631083026962
2,2,12,23, 0, 9, 0.00,60.00,Tuesday
7,0.0
545,19.712819664443057
546,3.8717830146396923
547,14.949422599690903
548,126.6638807672433
720,3278.7068603895405
721,3278.7068603895405
784,0.0
785,0.0
848,0.0
849,0.0
1121,3785.7743375737305
1135,1147.3062391946858
1161,92.26940354972795
1163,0.0
1166,953.489146020263
1168,953.489146020263
2,2,12,23, 0,10, 0.00,60.00,Tuesday
7,1.0
545,19.73188167721284
546,4.304000178638608
547,14.89711917753818
548,126.6638807672433
720,2795.191540407428
721,2795.191540407428
784,0.0
785,0.0
848,0.0
849,0.0
1121,3917.593505596473
1135,1166.6846650735595
1161,86.34614914224171
1163,0.0
1166,217.66814004030402
1168,217.66814004030402
2,2,12,23, 0,11, 0.00,60.00,Tuesday
7,1.1
545,19.79758581675265
546,5.5604383530413415
547,14.82342011378527
548,106.69824158064999
720,2168.265013080265
721,2168.265013080265
784,0.0
785,0.0
848,0.0
849,0.0
1121,3293.5724833386107
1135,1005.4832957163492
1161,63.617026448868344
1163,30.255095627658267
1166,0.0
1168,0.0
2,2,12,23, 0,12, 0.00,60.00,Tuesday
7,3.9
545,19.79522234165025
546,7.346159123837115
547,14.766571604914732
548,82.5410914234152
720,1863.5969136873082
721,1863.5969136873082
784,0.0
785,0.0
848,0.0
849,0.0
1121,2751.061448045551
1135,816.8654037140025
1161,34.528950777627884
1163,69.32895607622427
1166,0.0
1168,0.0
2,2,12,23, 0,13, 0.00,60.00,Tuesday
7,4.4
545,19.681259971371663
546,7.783654937888467
547,14.720996989647748
548,69.69872205874483
720,1638.2689155515327
721,1638.2689155515327
784,0.0
785,0.0
848,0.0
849,0.0
1121,2344.2607470068237
1135,698.2528519422485
1161,25.328712222629143
1163,89.73929100872759
1166,0.0
1168,0.0
2,2,12,23, 0,14, 0.00,60.00,Tuesday
7,4.4
545,19.779304156681373
546,8.16733648250369
547,14.687596920433233
548,53.9347247522051
720,1253.4267501275917
721,1253.4267501275917
784,0.0
785,0.0
848,0.0
849,0.0
1121,1788.8452586936457
1135,539.1779735885054
1161,19.6000125455203
1163,114.67741192242198
1166,0.0
1168,0.0
2,2,12,23, 0,15, 0.00,60.00,Tuesday
7,4.4
545,20.11774908827755
546,8.107338057047661
547,14.680620492686264
548,39.48714990123685
720,926.2850418923172
721,926.2850418923172
784,0.0
785,0.0
848,0.0
849,0.0
1121,1314.693220192769
1135,402.2268210773059
1161,9.679443529113879
1163,137.57245803882498
1166,0.0
1168,0.0
2,2,12,23, 0,16, 0.00,60.00,Tuesday
7,3.3
545,19.55675164721716
546,6.683028548105429
547,14.691955475838647
548,34.990266666765066
720,785.3719763534918
721,785.3719763534918
784,0.0
785,0.0
848,0.0
849,0.0
1121,1110.8669743154053
1135,350.64753358473655
1161,11.7823968969133
1163,144.61326667312443
1166,0.0
1168,0.0
2,2,12,23, 0,17, 0.00,60.00,Tuesday
7,3.3
545,19.612837713484407
546,5.824847172239971
547,14.724634711084352
548,57.94327383616652
720,1398.4812108232709
721,1398.4812108232709
784,0.0
785,0.0
848,0.0
849,0.0
1121,1883.2098159164555
1135,574.3750594409773
1161,19.51131782650514
1163,108.28112762050459
1166,0.0
1168,0.0
2,2,12,23, 0,18, 0.00,60.00,Tuesday
7,1.7
545,19.60348139974687
546,4.221622359519172
547,14.727601106971978
548,66.0325052264096
720,1476.7652621612033
721,1476.7652621612033
784,0.0
785,0.0
848,0.0
849,0.0
1121,2059.9950145180055
1135,642.7374133812125
1161,24.967649073212147
1163,95.3063395042536
1166,0.0
1168,0.0
2,2,12,23, 0,19, 0.00,60.00,Tuesday
7,1.1
545,19.686218036174356
546,3.470387829388382
547,14.71555958378505
548,70.35315290288065
720,1511.9477449879523
721,1511.9477449879523
784,0.0
785,0.0
848,0.0
849,0.0
1121,2173.747639654391
1135,682.7639396655101
1161,25.509248139561336
1163,88.420581187559
1166,0.0
1168,0.0
2,2,12,23, 0,20, 0.00,60.00,Tuesday
7,1.1
545,19.6966357510372
546,3.144395509196239
547,14.691033371281067
548,71.91728873058007
720,1515.1216922361837
721,1515.1216922361837
784,0.0
785,0.0
848,0.0
849,0.0
1121,2224.4366104813703
1135,699.0505288894387
1161,26.07643117077717
1163,85.9396788639349
1166,0.0
1168,0.0
2,2,12,23, 0,21, 0.00,60.00,Tuesday
7,0.6
545,19.551239846327967
546,2.8123559913392855
547,14.66063477307234
548,83.16403817647804
720,1756.4050340702433
721,1756.4050340702433
784,0.0
785,0.0
848,0.0
849,0.0
1121,2576.3575189673347
1135,808.4895289780968
1161,27.61346597943687
1163,68.1027433507295
1166,0.0
1168,0.0
2,2,12,23, 0,22, 0.00,60.00,Tuesday
7,0.0
545,19.60678013935337
546,2.526726276658212
547,14.623782357351477
548,100.74601743859334
720,2138.280875099612
721,2138.280875099612
784,0.0
785,0.0
848,0.0
849,0.0
1121,3131.271838387058
1135,973.6439432229938
1161,32.041934346098536
1163,40.17661808205089
1166,0.0
1168,0.0
2,2,12,23, 0,23, 0.00,60.00,Tuesday
7,0.0
545,18.896888727977984
546,2.163990519240648
547,14.548455442628454
548,80.82380707697111
720,1586.1918093349123
721,1586.1918093349123
784,0.0
785,0.0
848,0.0
849,0.0
1121,2464.37252321282
1135,782.0136840821734
1161,25.705777054665923
1163,71.78101735902949
1166,0.0
1168,0.0
2,2,12,23, 0,24, 0.00,60.00,Tuesday
7,-0.6
545,18.56510471240689
546,1.8647773499923959
547,14.480692000583609
548,102.53040925283759
720,2149.0116577650606
721,2149.0116577650606
784,0.0
785,0.0
848,0.0
849,0.0
1121,3159.9881406089276
1135,976.0574194077633
1161,30.57249093465909
1163,37.32634855146175
1166,0.0
1168,0.0
2,3,12,24, 0, 1, 0.00,60.00,Wednesday
7,-1.1
545,18.47749906524872
546,1.3883878623426738
547,14.410164659370292
548,126.6638807672433
720,2990.2010716471414
721,2990.2010716471414
784,0.0
785,0.0
848,0.0
849,0.0
1121,3955.3929162676814
1135,1189.6081284103218
1161,35.601752398979016
1163,0.0
1166,369.5456007711996
1168,369.5456007711996
2,3,12,24, 0, 2, 0.00,60.00,Wednesday
7,-1.1
545,18.548684910975698
546,1.3648063948337812
547,14.332847117591225
548,126.6638807672433
720,3414.6325673745578
721,3414.6325673745578
784,0.0
785,0.0
848,0.0
849,0.0
1121,3957.1861385405223
1135,1187.486760721078
1161,35.601752398979016
1163,0.0
1166,933.8762428839573
1168,933.8762428839573
2,3,12,24, 0, 3, 0.00,60.00,Wednesday
7,-2.2
545,18.587629475149917
546,0.781647446740946
547,14.256244363006616
548,126.6638807672433
720,3296.486025558799
721,3296.486025558799
784,0.0
785,0.0
848,0.0
849,0.0
1121,3888.5859420010784
1135,1193.598417442036
1161,24.158727171698633
1163,0.0
1166,886.4053111602925
1168,886.4053111602925
2,3,12,24, 0, 4, 0.00,60.00,Wednesday
7,-2.2
545,18.595521633787897
546,0.6299243182692337
547,14.180544006296762
548,126.6638807672433
720,3306.8504130171495
721,3306.8504130171495
784,0.0
785,0.0
848,0.0
849,0.0
1121,3887.9418384477526
1135,1194.420879836535
1161,24.149359979364238
1163,0.0
1166,927.8169741890879
1168,927.8169741890879
2,3,12,24, 0, 5, 0.00,60.00,Wednesday
7,-2.2
545,18.599441921832607
546,0.4928869676488591
547,14.101621817682792
548,126.6638807672433
720,3309.719679643056
721,3309.719679643056
784,0.0
785,0.0
848,0.0
849,0.0
1121,3887.875947004645
1135,1194.498664834633
1161,24.149359979364238
1163,0.0
1166,945.0022264889803
1168,945.0022264889803
2,3,12,24, 0, 6, 0.00,60.00,Wednesday
7,-2.0
545,19.377434990560243
546,0.9550969127220005
547,14.028196931980004
548,126.6638807672433
720,4090.617736508466
721,4090.617736508466
784,0.0
785,0.0
848,0.0
849,0.0
1121,3966.823675951612
1135,1214.0789467059722
1161,11.378424897421326
1163,0.0
1166,1782.7133844066357
1168,1782.7133844066357
2,3,12,24, 0, 7, 0.00,60.00,Wednesday
7,-2.8
545,19.612557893511415
546,0.6050982907464286
547,13.982601728006815
548,126.6638807672433
720,4102.557976982251
721,4102.557976982251
784,0.0
785,0.0
848,0.0
849,0.0
1121,3878.365478997897
1135,1228.763556112819
1161,8.058554747219247
1163,0.0
1166,1945.9847722495233
1168,1945.9847722495233
2,3,12,24, 0, 8, 0.00,60.00,Wednesday
7,-2.8
545,19.683630150275103
546,0.5653636530633653
547,13.916255825965946
548,126.6638807672433
720,3822.709853782364
721,3822.709853782364
784,0.0
785,0.0
848,0.0
849,0.0
1121,3873.655040311439
1135,1234.3348841952895
1161,8.058554747219247
1163,0.0
1166,1665.625893805051
1168,1665.625893805051
2,3,12,24, 0, 9, 0.00,60.00,Wednesday
7,-1.7
545,19.711611829349643
546,1.4002639963163301
547,13.857531894775528
548,126.6638807672433
720,3440.5516355385844
721,3440.5516355385844
784,0.0
785,0.0
848,0.0
849,0.0
1121,4029.1631354028023
1135,1258.7917314532651
1161,0.061921259372421704
1163,0.0
1166,1075.8691165155005
1168,1075.8691165155005
2,3,12,24, 0,10, 0.00,60.00,Wednesday
7,-0.6
545,19.776536587442003
546,3.1156428181002904
547,13.79782656655565
548,121.6476625946866
720,2504.391814157938
721,2504.391814157938
784,0.0
785,0.0
848,0.0
849,0.0
1121,3968.766123430223
1135,1221.0854060673007
1161,0.059469470854626234
1163,7.919052495522849
1166,0.0
1168,0.0
2,3,12,24, 0,11, 0.00,60.00,Wednesday
7,-0.6
545,19.85649549667385
546,4.4018035729247185
547,13.720737438349545
548,98.34503487058103
720,1984.409067931785
721,1984.409067931785
784,0.0
785,0.0
848,0.0
849,0.0
1121,3136.449627145315
1135,988.4909882466652
1161,0.048077596194126146
1163,44.71376492856412
1166,0.0
1168,0.0
2,3,12,24, 0,12, 0.00,60.00,Wednesday
7,1.1
545,19.94088056737197
546,6.2080972714608125
547,13.65366986546582
548,63.051671097116966
720,1274.3337642932347
721,1274.3337642932347
784,0.0
785,0.0
848,0.0
849,0.0
1121,2036.56571717518
1135,644.372496268048
1161,0.030823792447019716
1163,100.44197175760958
1166,0.0
1168,0.0
2,3,12,24, 0,13, 0.00,60.00,Wednesday
7,1.7
545,19.85907999841974
546,6.985063994818764
547,13.597370915623582
548,27.516787913343443
720,503.9093627120892
721,503.9093627120892
784,0.0
785,0.0
848,0.0
849,0.0
1121,874.2284842129734
1135,283.2396403724647
1161,0.013452002182309063
1163,156.55126423898196
1166,0.0
1168,0.0
2,3,12,24, 0,14, 0.00,60.00,Wednesday
7,1.7
545,19.822077245910357
546,6.960185820168107
547,13.588984831799834
548,9.447545949268408
720,148.60919536449182
721,148.60919536449182
784,0.0
785,0.0
848,0.0
849,0.0
1121,295.51885832833074
1135,97.09668066721296
1161,0.004618577171218186
1163,185.08241848428816
1166,0.0
1168,0.0
2,3,12,24, 0,15, 0.00,60.00,Wednesday
7,2.2
545,20.415616234740586
546,7.522527103916055
547,13.611997634883526
548,0.0
720,-178.0305963704359
721,-178.0305963704359
784,0.0
785,0.0
848,0.0
849,0.0
1121,0.0
1135,0.0
1161,0.0
1163,200.0
1166,0.0
1168,0.0
2,3,12,24, 0,16, 0.00,60.00,Wednesday
7,1.7
545,20.294408566512292
546,6.349399665845228
547,13.659237277278551
548,0.0
720,-461.49424957309384
721,-461.49424957309384
784,0.0
785,0.0
848,0.0
849,0.0
1121,0.0
1135,0.0
1161,0.0
1163,200.0
1166,0.0
1168,0.0
2,3,12,24, 0,17, 0.00,60.00,Wednesday
7,1.7
545,19.732483052132135
546,4.55673187804469
547,13.725650789136115
548,11.396116995988201
720,240.84601852436754
721,240.84601852436754
784,0.0
785,0.0
848,0.0
849,0.0
1121,356.32758257682264
1135,118.1264821760487
1161,0.005571165956073199
1163,182.0056439015048
1166,0.0
1168,0.0
2,3,12,24, 0,18, 0.00,60.00,Wednesday
7,-0.6
545,19.66722171125939
546,2.419109446021036
547,13.770026113934552
548,28.12381304230773
720,612.3132182793979
721,612.3132182793979
784,0.0
785,0.0
848,0.0
849,0.0
1121,840.9718235811575
1135,282.5407637320371
1161,0.01374879095181705
1163,155.59266367912264
1166,0.0
1168,0.0
2,3,12,24, 0,19, 0.00,60.00,Wednesday
7,-1.1
545,19.517950482596234
546,1.181053783610181
547,13.786539280839357
548,36.544497710341375
720,753.1287242905892
721,753.1287242905892
784,0.0
785,0.0
848,0.0
849,0.0
1121,1086.3660956300557
1135,365.08781887411493
1161,0.017865392540546043
1163,142.29641734805259
1166,0.0
1168,0.0
2,3,12,24, 0,20, 0.00,60.00,Wednesday
7,-1.1
545,19.614238627056192
546,0.6544876279364319
547,13.78953912015816
548,48.829263929017536
720,1001.1577999450092
721,1001.1577999450092
784,0.0
785,0.0
848,0.0
849,0.0
1121,1468.8555195508677
1135,486.37269230587094
1161,0.023871007038297126
1163,122.89883222585516
1166,0.0
1168,0.0
2,3,12,24, 0,21, 0.00,60.00,Wednesday
7,-2.2
545,19.530258907777103
546,0.1280860818503599
547,13.775991407451967
548,60.14575593266994
720,1173.4486045682424
721,1173.4486045682424
784,0.0
785,0.0
848,0.0
849,0.0
1121,1772.2873530892027
1135,594.5573151070533
1161,0.02940330509598401
1163,105.03001588149363
1166,0.0
1168,0.0
2,3,12,24, 0,22, 0.00,60.00,Wednesday
7,-2.8
545,19.597057762853378
546,-0.49984518332902417
547,13.75802147390134
548,79.33635703701508
720,1543.064298327241
721,1543.064298327241
784,0.0
785,0.0
848,0.0
849,0.0
1121,2341.0440081311917
1135,778.9070879108043
1161,0.038784996459711465
1163,74.72801150105353
1166,0.0
1168,0.0
2,3,12,24, 0,23, 0.00,60.00,Wednesday
7,-2.8
545,18.849586379686837
546,-1.042017216524181
547,13.689904669735162
548,63.49028445596122
720,1116.6639004958088
721,1116.6639004958088
784,0.0
785,0.0
848,0.0
849,0.0
1121,1845.492417191308
1135,624.1906347845785
1161,0.031038360712173186
1163,99.74893590101317
1166,0.0
1168,0.0
2,3,12,24, 0,24, 0.00,60.00,Wednesday
7,-4.4
545,18.49147084356626
546,-1.210041079498034
547,13.642344391941613
548,94.01362753076974
720,1726.96065953586
721,1726.96065953586
784,0.0
785,0.0
848,0.0
849,0.0
1121,2671.75708173022
1135,891.3261481225306
1161,6.5556566999908705
1163,51.28611857855439
1166,0.0
1168,0.0
2,4,12,25, 0, 1, 0.00,60.00,Thursday
7,-3.9
545,18.373385385779418
546,-0.9876645799606792
547,13.590241891121083
548,126.6638807672433
720,2508.8929944279407
721,2508.8929944279407
784,0.0
785,0.0
848,0.0
849,0.0
1121,3806.3274607985973
1135,1205.1751990702164
1161,1.3276362266386712
1163,0.0
1166,7.982538720273624
1168,7.982538720273624
2,4,12,25, 0, 2, 0.00,60.00,Thursday
7,-3.9
545,18.50946620421184
546,-0.8386443585684171
547,13.50960541515784
548,126.6638807672433
720,3044.555706625628
721,3044.555706625628
784,0.0
785,0.0
848,0.0
849,0.0
1121,3808.7502573550537
1135,1202.3373613506421
1161,1.3276362266386712
1163,0.0
1166,749.4507791920419
1168,749.4507791920419
2,4,12,25, 0, 3, 0.00,60.00,Thursday
7,-5.0
545,18.567609887915083
546,-1.334529838021163
547,13.43514048288536
548,126.6638807672433
720,3226.068951596375
721,3226.068951596375
784,0.0
785,0.0
848,0.0
849,0.0
1121,3661.3403428145753
1135,1185.6499862128094
1161,7.868989812277276
1163,0.0
1166,1141.8157848015335
1168,1141.8157848015335
2,4,12,25, 0, 4, 0.00,60.00,Thursday
7,-5.6
545,18.58377346292617
546,-1.6110637384560045
547,13.35547542550907
548,126.6638807672433
720,3351.576020396358
721,3351.576020396358
784,0.0
785,0.0
848,0.0
849,0.0
1121,3583.58020533042
1135,1176.4240657491796
1161,11.270083939276825
1163,0.0
1166,1401.2736546320489
1168,1401.2736546320489
2,4,12,25, 0, 5, 0.00,60.00,Thursday
7,-5.6
545,18.591804108108796
546,-1.9945365740676542
547,13.277595352610414
548,126.6638807672433
720,3357.419590722713
721,3357.419590722713
784,0.0
785,0.0
848,0.0
849,0.0
1121,3583.35773714274
1135,1176.6819570626453
1161,11.270083939276825
1163,0.0
1166,1432.5014560988134
1168,1432.5014560988134
2,4,12,25, 0, 6, 0.00,60.00,Thursday
7,-6.1
545,19.366983306806123
546,-2.2314594510927517
547,13.196395761540519
548,126.6638807672433
720,4342.9186710545455
721,4342.9186710545455
784,0.0
785,0.0
848,0.0
849,0.0
1121,3524.1453238302906
1135,1169.3911786315841
1161,13.11914393233743
1163,0.0
1166,2657.6373373653146
1168,2657.6373373653146
2,4,12,25, 0, 7, 0.00,60.00,Thursday
7,-7.2
545,19.602291874374913
546,-2.7279804066445306
547,13.1508028193383
548,126.6638807672433
720,4234.975131986212
721,4234.975131986212
784,0.0
785,0.0
848,0.0
849,0.0
1121,3357.6589329886274
1135,1162.1840951480276
1161,23.32936148469077
1163,0.0
1166,2794.2888525601156
1168,2794.2888525601156
2,4,12,25, 0, 8, 0.00,60.00,Thursday
7,-7.2
545,19.673648876163814
546,-3.325471919525758
547,13.082705397372305
548,126.6638807672433
720,3948.244849309478
721,3948.244849309478
784,0.0
785,0.0
848,0.0
849,0.0
1121,3353.139469231457
1135,1167.347698641995
1161,23.32936148469077
1163,0.0
1166,2515.7108729160736
1168,2515.7108729160736
2,4,12,25, 0, 9, 0.00,60.00,Thursday
7,-3.9
545,19.71433581365629
546,-1.900477789385464
547,13.037963170794672
548,126.6638807672433
720,3086.6891645561172
721,3086.6891645561172
784,0.0
785,0.0
848,0.0
849,0.0
1121,3727.150465914146
1135,1214.159465609403
1161,14.55941511418692
1163,0.0
1166,1175.6523363280432
1168,1175.6523363280432
2,4,12,25, 0,10, 0.00,60.00,Thursday
7,-2.2
545,19.739061261198728
546,1.2959068416568724
547,12.984447987029398
548,126.6638807672433
720,2472.2276054728027
721,2472.2276054728027
784,0.0
785,0.0
848,0.0
849,0.0
1121,3959.511594655055
1135,1248.400233875183
1161,3.3020183944297834
1163,0.0
1166,155.5949293594067
1168,155.5949293594067
2,4,12,25, 0,11, 0.00,60.00,Thursday
7,-2.2
545,19.862552280664957
546,4.320514788020697
547,12.901374108846486
548,103.37214823011644
720,1877.8061337124782
721,1877.8061337124782
784,0.0
785,0.0
848,0.0
849,0.0
1121,3159.298445481554
1135,1019.9245527756941
1161,2.696208929677771
1163,36.6932822526949
1166,0.0
1168,0.0
2,4,12,25, 0,12, 0.00,60.00,Thursday
7,-0.6
545,19.971872765684672
546,6.044485348035902
547,12.838416709286347
548,70.75224076187286
720,1350.1422234936763
721,1350.1422234936763
784,0.0
785,0.0
848,0.0
849,0.0
1121,2198.3808323059616
1135,711.7282401261234
1161,0.03458840266914766
1163,88.2826253222087
1166,0.0
1168,0.0
2,4,12,25, 0,13, 0.00,60.00,Thursday
7,-0.6
545,19.79955379529836
546,7.483018239440391
547,12.800237294651458
548,49.22862344022067
720,947.0402934222002
721,947.0402934222002
784,0.0
785,0.0
848,0.0
849,0.0
1121,1497.0460796914683
1135,495.73658996429066
1161,0.4577619479288734
1163,122.25757400400215
1166,0.0
1168,0.0
2,4,12,25, 0,14, 0.00,60.00,Thursday
7,-0.6
545,19.773019164877628
546,7.341155825283639
547,12.794540504434883
548,40.13523400335482
720,817.1922891853028
721,817.1922891853028
784,0.0
785,0.0
848,0.0
849,0.0
1121,1211.5713070739453
1135,402.8127251063258
1161,0.37320524749235323
1163,136.61797039757334
1166,0.0
1168,0.0
2,4,12,25, 0,15, 0.00,60.00,Thursday
7,0.0
545,19.853512884857544