Program Version,EnergyPlus, Version 22.2.0-c249759bad, YMD=2023.07.07 15:22
1,5,Environment Title[],Latitude[deg],Longitude[deg],Time Zone[],Elevation[m]
2,8,Day of Simulation[],Month[],Day of Month[],DST Indicator[1=yes 0=no],Hour[],StartMinute[],EndMinute[],DayType
3,5,Cumulative Day of Simulation[],Month[],Day of Month[],DST Indicator[1=yes 0=no],DayType  ! When Daily Report Variables Requested
4,2,Cumulative Days of Simulation[],Month[]  ! When Monthly Report Variables Requested
5,1,Cumulative Days of Simulation[] ! When Run Period Report Variables Requested
6,1,Calendar Year of Simulation[] ! When Annual Report Variables Requested
581,11,LIVING,AFN Zone Infiltration Air Change Rate [ach] !RunPeriod [Value,Min,Month,Day,Hour,Minute,Max,Month,Day,Hour,Minute]
582,11,ATTIC,AFN Zone Infiltration Air Change Rate [ach] !RunPeriod [Value,Min,Month,Day,Hour,Minute,Max,Month,Day,Hour,Minute]
583,11,CRAWLSPACE,AFN Zone Infiltration Air Change Rate [ach] !RunPeriod [Value,Min,Month,Day,Hour,Minute,Max,Month,Day,Hour,Minute]
1038,11,Facility,Facility Heating Setpoint Not Met Time [hr] !RunPeriod [Value,Min,Month,Day,Hour,Minute,Max,Month,Day,Hour,Minute]
1039,11,Facility,Facility Cooling Setpoint Not Met Time [hr] !RunPeriod [Value,Min,Month,Day,Hour,Minute,Max,Month,Day,Hour,Minute]
1115,11,DX_HEATING_COIL,Heating Coil Heating Energy [J] !RunPeriod [Value,Min,Month,Day,Hour,Minute,Max,Month,Day,Hour,Minute]
1128,11,DX_HEATING_COIL,Heating Coil Electricity Energy [J] !RunPeriod [Value,Min,Month,Day,Hour,Minute,Max,Month,Day,Hour,Minute]
1153,11,DX_HEATING_COIL,Heating Coil Defrost Electricity Energy [J] !RunPeriod [Value,Min,Month,Day,Hour,Minute,Max,Month,Day,Hour,Minute]
1154,11,DX_HEATING_COIL,Heating Coil Crankcase Heater Electricity Energy [J] !RunPeriod [Value,Min,Month,Day,Hour,Minute,Max,Month,Day,Hour,Minute]
1156,11,HEATING_RESISTANCE_BACKUP,Heating Coil Electricity Energy [J] !RunPeriod [Value,Min,Month,Day,Hour,Minute,Max,Month,Day,Hour,Minute]
13,11,Electricity:Facility [J] !RunPeriod [Value,Min,Month,Day,Hour,Minute,Max,Month,Day,Hour,Minute]
1134,11,Heating:Electricity [J] !RunPeriod [Value,Min,Month,Day,Hour,Minute,Max,Month,Day,Hour,Minute]
1096,11,Cooling:Electricity [J] !RunPeriod [Value,Min,Month,Day,Hour,Minute,Max,Month,Day,Hour,Minute]
562,11,Fans:Electricity [J] !RunPeriod [Value,Min,Month,Day,Hour,Minute,Max,Month,Day,Hour,Minute]
1388,11,Pumps:Electricity [J] !RunPeriod [Value,Min,Month,Day,Hour,Minute,Max,Month,Day,Hour,Minute]
1360,11,WaterSystems:Electricity [J] !RunPeriod [Value,Min,Month,Day,Hour,Minute,Max,Month,Day,Hour,Minute]
61,11,InteriorLights:Electricity [J] !RunPeriod [Value,Min,Month,Day,Hour,Minute,Max,Month,Day,Hour,Minute]
1046,11,ExteriorLights:Electricity [J] !RunPeriod [Value,Min,Month,Day,Hour,Minute,Max,Month,Day,Hour,Minute]
134,11,InteriorEquipment:Electricity [J] !RunPeriod [Value,Min,Month,Day,Hour,Minute,Max,Month,Day,Hour,Minute]
170,11,gas_dryer:InteriorEquipment:Electricity [J] !RunPeriod [Value,Min,Month,Day,Hour,Minute,Max,Month,Day,Hour,Minute]
207,11,clotheswasher:InteriorEquipment:Electricity [J] !RunPeriod [Value,Min,Month,Day,Hour,Minute,Max,Month,Day,Hour,Minute]
244,11,dishwasher:InteriorEquipment:Electricity [J] !RunPeriod [Value,Min,Month,Day,Hour,Minute,Max,Month,Day,Hour,Minute]
281,11,refrigerator:InteriorEquipment:Electricity [J] !RunPeriod [Value,Min,Month,Day,Hour,Minute,Max,Month,Day,Hour,Minute]
318,11,electric_mels:InteriorEquipment:Electricity [J] !RunPeriod [Value,Min,Month,Day,Hour,Minute,Max,Month,Day,Hour,Minute]
355,11,NaturalGas:Facility [J] !RunPeriod [Value,Min,Month,Day,Hour,Minute,Max,Month,Day,Hour,Minute]
1323,11,WaterSystems:NaturalGas [J] !RunPeriod [Value,Min,Month,Day,Hour,Minute,Max,Month,Day,Hour,Minute]
403,11,InteriorEquipment:NaturalGas [J] !RunPeriod [Value,Min,Month,Day,Hour,Minute,Max,Month,Day,Hour,Minute]
476,11,gas_dryer:InteriorEquipment:NaturalGas [J] !RunPeriod [Value,Min,Month,Day,Hour,Minute,Max,Month,Day,Hour,Minute]
513,11,gas_mels:InteriorEquipment:NaturalGas [J] !RunPeriod [Value,Min,Month,Day,Hour,Minute,Max,Month,Day,Hour,Minute]
End of Data Dictionary
1,EXTREME_WINTER,  47.63,-117.53,  -8.00, 717.20
5,7
1038,0.6666666666666666,0.0, 1, 1, 1,10,0.16666666666666666, 1, 1, 6,10
1039,0.0,0.0, 1, 1, 1,10,0.0, 1, 1, 1,10
581,0.28119790366841557,0.18251320606443078, 1, 6, 6, 2,0.5907141257965133, 1, 7,21,60
582,1.5464074821125915,0.0, 1, 2, 5,60,9.981231153230706, 1, 7,19,60
583,2.4337415548905064,0.00032223223103583504, 1, 3,23, 1,14.308487519158929, 1, 7,21,60
1115,2086693711.5577338,0.0, 1, 1,23, 2,2780238.5576274307, 1, 4,16,10
1128,713867794.0622691,0.0, 1, 1,23, 2,887151.5366235535, 1, 4,16,10
1153,36647870.17970129,0.0, 1, 1,23, 2,79708.89910760484, 1, 7, 6,40
1154,20983515.098927926,0.0, 1, 1, 1, 5,93968.58859077875, 1, 6,23,30
1156,374123527.8831096,0.0, 1, 1,12,53,2440591.049900217, 1, 1, 7,60
13,1605824027.5589304,559328.1958617996, 1, 6,23,10,4399612.173250459, 1, 1, 6,10
61,301924526.0238348,58759.40635443481, 1, 1, 1,10,854682.2742463244, 1, 1,20,10
134,70666020.44019979,42376.01200569399, 1, 1, 4,10,104369.48322671017, 1, 6,20,10
170,5241013.419656074,232.27731661587313, 1, 1, 4,10,11650.931360040839, 1, 6,12,10
207,6509451.13922266,543.5021409221355, 1, 1, 3,10,15327.095199349082, 1, 6,10,10
244,12749673.39982522,1014.5707620042115, 1, 1, 4,10,35359.08742820678, 1, 6,20,10
281,46165882.48149605,39959.06841621388, 1, 1, 5,10,54634.54471212738, 1, 1,19,10
318,0.0,0.0, 1, 1, 1,10,0.0, 1, 1, 1,10
355,734729261.8824718,12374.216038804521, 1, 1, 4,10,3829218.154066982, 1, 2,18,60
403,197687796.27748126,12374.216038804521, 1, 1, 4,10,483183.26346918393, 1, 6,18,10
476,106772067.24485692,4732.048419519677, 1, 1, 4,10,237357.535085481, 1, 6,12,10
513,0.0,0.0, 1, 1, 1,10,0.0, 1, 1, 1,10
562,82590933.87088722,0.0, 1, 6,23,10,99643.66634038836, 1, 1, 1,10
1046,0.0,0.0, 1, 1, 1,10,0.0, 1, 1, 1,10
1096,0.0,0.0, 1, 1, 1,10,0.0, 1, 1, 1,10
1134,1145622707.224009,120000.0, 1, 6,23,10,3882409.1838994185, 1, 1, 6,10
1323,537041465.6049881,0.0, 1, 1, 1,10,3375000.000000001, 1, 5,20,30
1360,5019840.0,4979.999999999999, 1, 4, 9,40,4980.000000000001, 1, 1, 6,10
1388,0.0,0.0, 1, 1, 1,10,0.0, 1, 1, 1,10
1,EXTREME_SUMMER,  47.63,-117.53,  -8.00, 717.20
5,7
1038,0.0,0.0, 7,29, 1,10,0.0, 7,29, 1,10
1039,15.666666666666666,0.0, 7,29, 1,10,0.16666666666666666, 7,31,16,20
581,0.1089020668092051,0.0, 7,31,15,42,0.3381259650507504, 8, 2,19,52
582,3.2189830829790096,0.0027624527750470776, 7,30, 6, 2,9.834432592305514, 7,29,11,60
583,3.662997002625143,0.012625336345577911, 7,30, 6, 7,10.960647732964079, 7,29,15,55
1115,0.0,0.0, 7,29, 1,10,0.0, 7,29, 1,10
1128,0.0,0.0, 7,29, 1,10,0.0, 7,29, 1,10
1153,0.0,0.0, 7,29, 1,10,0.0, 7,29, 1,10
1154,0.0,0.0, 7,29, 1,10,0.0, 7,29, 1,10
1156,0.0,0.0, 7,29, 1,10,0.0, 7,29, 1,10
13,961650743.8209263,144172.97509865917, 8, 3, 4,60,2075737.7834143369, 8, 4,20,10
61,301924526.0238348,58759.40635443481, 7,29, 1,10,854682.2742463244, 7,29,20,10
134,70666020.44019979,42376.01200569399, 7,29, 4,10,104369.48322671017, 8, 3,20,10
170,5241013.419656074,232.27731661587313, 7,29, 4,10,11650.931360040839, 8, 3,12,10
207,6509451.13922266,543.5021409221355, 7,29, 3,10,15327.095199349082, 8, 3,10,10
244,12749673.39982522,1014.5707620042115, 7,29, 4,10,35359.08742820678, 8, 3,20,10
281,46165882.48149605,39959.06841621388, 7,29, 5,10,54634.54471212738, 7,29,19,10
318,0.0,0.0, 7,29, 1,10,0.0, 7,29, 1,10
355,631553082.4450085,12374.216038804521, 7,29, 4,10,3829218.154066982, 7,30,18,60
403,197687796.27748126,12374.216038804521, 7,29, 4,10,483183.26346918393, 8, 3,18,10
476,106772067.24485692,4732.048419519677, 7,29, 4,10,237357.535085481, 8, 3,12,10
513,0.0,0.0, 7,29, 1,10,0.0, 7,29, 1,10
562,56420558.13121481,4306.969243227705, 8, 3, 4,60,99643.66634038836, 7,30,15,50
1046,0.0,0.0, 7,29, 1,10,0.0, 7,29, 1,10
1096,527619799.2256767,33504.80572315636, 8, 3, 4,60,1064861.621940288, 8, 4,17,60
1134,0.0,0.0, 7,29, 1,10,0.0, 7,29, 1,10
1323,433865286.16752553,0.0, 7,29, 1,10,3375000.0000000005, 7,29,17,10
1360,5019840.0,4979.999999999999, 8, 3, 8,40,4980.000000000001, 7,29, 6,30
1388,0.0,0.0, 7,29, 1,10,0.0, 7,29, 1,10
1,ANNUAL,  47.63,-117.53,  -8.00, 717.20
5,365
1038,28.333333333333336,0.0, 1, 1, 1,10,0.16666666666666666, 1, 1, 6,10
1039,134.49999999999997,0.0, 1, 1, 1,10,0.16666666666666666, 7, 3,17,20
581,0.25591108391384637,0.0, 7, 3,19,33,0.9715969233613538, 3,16,23, 2
582,3.9440153641013156,0.0, 1, 2, 5,60,32.26313545606652, 4, 9,16,55
583,4.969510527741645,0.0, 8,11,23, 2,27.350397771194366, 3,16,22,60
1115,33508061506.094772,0.0, 1, 1,23, 2,3311046.2107390314,12, 2, 6,30
1128,10409524052.308987,0.0, 1, 1,23, 2,930879.6081276584, 3, 5, 6,30
1153,594517288.7522491,0.0, 1, 1,23, 2,104896.66838265509, 1,21,17,60
1154,2034866203.5569866,0.0, 1, 1, 1, 5,120000.0, 1,17,15,60
1156,3125242237.5147142,0.0, 1, 1,12,53,3126405.5514574866, 1,11, 6,30
13,44195991432.18843,106115.4183601288, 4,28, 4,10,4528556.879805725,12, 6,22,60
61,15743207428.39043,58759.40635443481, 1, 1, 1,10,854682.2742463244, 1, 1,20,10
134,3685071073.433083,42376.01200569399, 1, 2, 4,10,104369.48322671017, 1, 1,20,10
170,273393721.45534325,232.27731661587313, 1, 2, 4,10,11650.931360040839, 1, 1,12,10
207,339560869.06955314,543.5021409221355, 1, 2, 3,10,15327.095199349082, 1, 1,10,10
244,664895467.8009839,1014.5707620042115, 1, 2, 4,10,35359.08742820678, 1, 1,20,10
281,2407221015.1057043,39959.06841621388, 1, 1, 5,10,54634.54471212738, 1, 1,19,10
318,0.0,0.0, 1, 1, 1,10,0.0, 1, 1, 1,10
355,35775503348.42225,12374.216038804521, 1, 2, 4,10,3829218.154066983, 4, 4,18,60
403,10310294493.052883,12374.216038804521, 1, 2, 4,10,483183.26346918393, 1, 1,18,10
476,5569688622.065564,4732.048419519677, 1, 2, 4,10,237357.535085481, 1, 1,12,10
513,0.0,0.0, 1, 1, 1,10,0.0, 1, 1, 1,10
562,1939525886.976317,0.0, 1, 6,23,10,99643.66634038836, 1, 1, 1,10
1046,0.0,0.0, 1, 1, 1,10,0.0, 1, 1, 1,10
1096,6402288461.260765,0.0, 1, 1, 1,10,1107584.5583600348, 8,11,17,60
1134,16164149782.132996,0.0, 3, 2,12,60,3980961.909047466,12, 5, 6,10
1323,25465208855.37324,0.0, 1, 1, 1,10,3375000.000000002, 1,16,17,20
1360,261748800.0,4979.999999999998, 4, 5,12,50,4980.000000000002, 1,16, 9,40
1388,0.0,0.0, 1, 1, 1,10,0.0, 1, 1, 1,10
End of Data
 Number of Records Written=          87
