Program Version,EnergyPlus, Version 9.5.0-de239b2e5f, YMD=2022.08.04 14:27
1,5,Environment Title[],Latitude[deg],Longitude[deg],Time Zone[],Elevation[m]
2,8,Day of Simulation[],Month[],Day of Month[],DST Indicator[1=yes 0=no],Hour[],StartMinute[],EndMinute[],DayType
3,5,Cumulative Day of Simulation[],Month[],Day of Month[],DST Indicator[1=yes 0=no],DayType  ! When Daily Report Variables Requested
4,2,Cumulative Days of Simulation[],Month[]  ! When Monthly Report Variables Requested
5,1,Cumulative Days of Simulation[] ! When Run Period Report Variables Requested
6,1,Calendar Year of Simulation[] ! When Annual Report Variables Requested
191,1,UNHEATEDBSMT_UNIT1,Zone Windows Total Transmitted Solar Radiation Rate [W] !Hourly
192,1,UNHEATEDBSMT_UNIT1,Zone Windows Total Transmitted Solar Radiation Energy [J] !Hourly
193,1,UNHEATEDBSMT_UNIT1,Zone Windows Total Heat Gain Energy [J] !Hourly
194,1,LIVING_UNIT1,Zone Windows Total Transmitted Solar Radiation Rate [W] !Hourly
195,1,LIVING_UNIT1,Zone Windows Total Transmitted Solar Radiation Energy [J] !Hourly
196,1,LIVING_UNIT1,Zone Windows Total Heat Gain Energy [J] !Hourly
197,1,ATTIC_UNIT1,Zone Windows Total Transmitted Solar Radiation Rate [W] !Hourly
198,1,ATTIC_UNIT1,Zone Windows Total Transmitted Solar Radiation Energy [J] !Hourly
199,1,ATTIC_UNIT1,Zone Windows Total Heat Gain Energy [J] !Hourly
200,1,UNHEATEDBSMT_UNIT1,Zone Mean Air Temperature [C] !Hourly
201,1,LIVING_UNIT1,Zone Mean Air Temperature [C] !Hourly
202,1,ATTIC_UNIT1,Zone Mean Air Temperature [C] !Hourly
279,1,UNHEATEDBSMT_UNIT1,AFN Zone Infiltration Sensible Heat Gain Rate [W] !Hourly
280,1,LIVING_UNIT1,AFN Zone Infiltration Sensible Heat Gain Rate [W] !Hourly
281,1,ATTIC_UNIT1,AFN Zone Infiltration Sensible Heat Gain Rate [W] !Hourly
282,1,UNHEATEDBSMT_UNIT1,AFN Zone Infiltration Air Change Rate [ach] !Hourly
283,1,LIVING_UNIT1,AFN Zone Infiltration Air Change Rate [ach] !Hourly
284,1,ATTIC_UNIT1,AFN Zone Infiltration Air Change Rate [ach] !Hourly
618,1,Whole Building,Facility Total HVAC Electricity Demand Rate [W] !Hourly
End of Data Dictionary
1,SPOKANE INTL AP ANN HTG 99.6% CONDNS DB,  47.62,-117.54,  -8.00, 777.00
2,1,12,21, 0, 1, 0.00,60.00,WinterDesignDay
191,0.0
192,0.0
193,0.0
194,0.0
195,0.0
196,0.0
197,0.0
198,0.0
199,0.0
200,16.346787299001183
201,15.963293694196249
202,-4.627097415292528
279,0.0
280,0.0
281,0.0
282,0.5358257287357477
283,0.47408592217977688
284,2.8561231989570485
618,8407.471278013581
2,1,12,21, 0, 2, 0.00,60.00,WinterDesignDay
191,0.0
192,0.0
193,0.0
194,0.0
195,0.0
196,0.0
197,0.0
198,0.0
199,0.0
200,15.892859936883442
201,15.966713318660276
202,-4.623354633263266
279,0.0
280,0.0
281,0.0
282,0.5350947404866956
283,0.47400652892737779
284,2.8560851095837087
618,8407.471278013581
2,1,12,21, 0, 3, 0.00,60.00,WinterDesignDay
191,0.0
192,0.0
193,0.0
194,0.0
195,0.0
196,0.0
197,0.0
198,0.0
199,0.0
200,15.611832691297204
201,15.955931032176057
202,-4.629622944174987
279,0.0
280,0.0
281,0.0
282,0.534425254537221
283,0.4741038917464708
284,2.8561399902901667
618,8407.471278013581
2,1,12,21, 0, 4, 0.00,60.00,WinterDesignDay
191,0.0
192,0.0
193,0.0
194,0.0
195,0.0
196,0.0
197,0.0
198,0.0
199,0.0
200,15.346539845530462
201,15.945140619055021
202,-4.635049885222504
279,0.0
280,0.0
281,0.0
282,0.533833253874881
283,0.4740729053321334
284,2.85617106442574
618,8407.471278013581
2,1,12,21, 0, 5, 0.00,60.00,WinterDesignDay
191,0.0
192,0.0
193,0.0
194,0.0
195,0.0
196,0.0
197,0.0
198,0.0
199,0.0
200,15.112860104591368
201,15.931965434682703
202,-4.642039560329378
279,0.0
280,0.0
281,0.0
282,0.5333050330296191
283,0.4740353706842732
284,2.8561870884064417
618,8407.471278013581
2,1,12,21, 0, 6, 0.00,60.00,WinterDesignDay
191,0.0
192,0.0
193,0.0
194,0.0
195,0.0
196,0.0
197,0.0
198,0.0
199,0.0
200,14.898627524006564
201,15.917182078345455
202,-4.649421363946121
279,0.0
280,0.0
281,0.0
282,0.5328218529417512
283,0.4739732184580073
284,2.8561934775420436
618,8407.471278013581
2,1,12,21, 0, 7, 0.00,60.00,WinterDesignDay
191,0.0
192,0.0
193,0.0
194,0.0
195,0.0
196,0.0
197,0.0
198,0.0
199,0.0
200,14.700396928475538
201,15.900936064514509
202,-4.657321417973282
279,0.0
280,0.0
281,0.0
282,0.5323738164468911
283,0.4738949342080375
284,2.85619476497295
618,8407.471278013581
2,1,12,21, 0, 8, 0.00,60.00,WinterDesignDay
191,0.0
192,0.0
193,0.0
194,0.0
195,0.0
196,0.0
197,0.0
198,0.0
199,0.0
200,14.515107687847987
201,15.883475228290365
202,-4.665546606333507
279,0.0
280,0.0
281,0.0
282,0.5319541922632236
283,0.47380234181931765
284,2.856192445593628
618,8407.471278013581
2,1,12,21, 0, 9, 0.00,60.00,WinterDesignDay
191,0.0
192,0.0
193,0.0
194,0.0
195,0.0
196,0.0
197,0.0
198,0.0
199,0.0
200,14.340750026918409
201,15.865010257583526
202,-4.674048843359795
279,0.0
280,0.0
281,0.0
282,0.5315583970945551
283,0.4736980499301369
284,2.8561877110725999
618,8407.471278013581
2,1,12,21, 0,10, 0.00,60.00,WinterDesignDay
191,0.0
192,0.0
193,0.0
194,0.0
195,0.0
196,0.0
197,0.0
198,0.0
199,0.0
200,14.175720378251006
201,15.845731076227186
202,-4.682756706274779
279,0.0
280,0.0
281,0.0
282,0.5311829217299344
283,0.47358404963825509
284,2.856181108375132
618,8407.471278013581
2,1,12,21, 0,11, 0.00,60.00,WinterDesignDay
191,0.0
192,0.0
193,0.0
194,0.0
195,0.0
196,0.0
197,0.0
198,0.0
199,0.0
200,14.019713735377236
201,15.82580115564588
202,-4.691622871238438
279,0.0
280,0.0
281,0.0
282,0.5308267819898008
283,0.47346210994707818
284,2.8561730581126776
618,8407.471278013581
2,1,12,21, 0,12, 0.00,60.00,WinterDesignDay
191,0.0
192,0.0
193,0.0
194,0.0
195,0.0
196,0.0
197,0.0
198,0.0
199,0.0
200,13.870936689014333
201,15.805380499754719
202,-4.700589493415327
279,0.0
280,0.0
281,0.0
282,0.5304866592556304
283,0.4733335571082179
284,2.85616374103296
618,8407.471278013581
2,1,12,21, 0,13, 0.00,60.00,WinterDesignDay
191,0.0
192,0.0
193,0.0
194,0.0
195,0.0
196,0.0
197,0.0
198,0.0
199,0.0
200,13.728623887949825
201,15.784577506491067
202,-4.709629313193088
279,0.0
280,0.0
281,0.0
282,0.5301606372894477
283,0.4731999180415889
284,2.856153490298695
618,8407.471278013581
2,1,12,21, 0,14, 0.00,60.00,WinterDesignDay
191,0.0
192,0.0
193,0.0
194,0.0
195,0.0
196,0.0
197,0.0
198,0.0
199,0.0
200,13.592164067391144
201,15.763495846320158
202,-4.7187097624708
279,0.0
280,0.0
281,0.0
282,0.5298473951406381
283,0.47306217512760809
284,2.856142494551405
618,8407.471278013581
2,1,12,21, 0,15, 0.00,60.00,WinterDesignDay
191,0.0
192,0.0
193,0.0
194,0.0
195,0.0
196,0.0
197,0.0
198,0.0
199,0.0
200,13.461044928673415
201,15.742224143146395
202,-4.727804044675456
279,0.0
280,0.0
281,0.0
282,0.5295458440884227
283,0.47292123417536949
284,2.856130893070302
618,8407.471278013581
2,1,12,21, 0,16, 0.00,60.00,WinterDesignDay
191,0.0
192,0.0
193,0.0
194,0.0
195,0.0
196,0.0
197,0.0
198,0.0
199,0.0
200,13.3348270490493
201,15.720838304254296
202,-4.736888434811058
279,0.0
280,0.0
281,0.0
282,0.5292550539307289
283,0.47277786706784488
284,2.856118805426773
618,8407.471278013581
2,1,12,21, 0,17, 0.00,60.00,WinterDesignDay
191,0.0
192,0.0
193,0.0
194,0.0
195,0.0
196,0.0
197,0.0
198,0.0
199,0.0
200,13.213113287659113
201,15.6994032664786
202,-4.745942724979027
279,0.0
280,0.0
281,0.0
282,0.5289741892439782
283,0.47263273620366766
284,2.8561063375516917
618,8407.471278013581
2,1,12,21, 0,18, 0.00,60.00,WinterDesignDay
191,0.0
192,0.0
193,0.0
194,0.0
195,0.0
196,0.0
197,0.0
198,0.0
199,0.0
200,13.095559611432846
201,15.677974258822454
202,-4.754949845488363
279,0.0
280,0.0
281,0.0
282,0.528702520200461
283,0.4724864123104973
284,2.856093583088854
618,8407.471278013581
2,1,12,21, 0,19, 0.00,60.00,WinterDesignDay
191,0.0
192,0.0
193,0.0
194,0.0
195,0.0
196,0.0
197,0.0
198,0.0
199,0.0
200,12.98186300243795
201,15.656598519467862
202,-4.763895321365184
279,0.0
280,0.0
281,0.0
282,0.5284394045905241
283,0.4723393827972735
284,2.856080622257594
618,8407.471278013581
2,1,12,21, 0,20, 0.00,60.00,WinterDesignDay
191,0.0
192,0.0
193,0.0
194,0.0
195,0.0
196,0.0
197,0.0
198,0.0
199,0.0
200,12.871754842090653
201,15.63531637937393
202,-4.772766960079492
279,0.0
280,0.0
281,0.0
282,0.5281842726211495
283,0.47219206649378478
284,2.8560675233755115
618,8407.471278013581
2,1,12,21, 0,21, 0.00,60.00,WinterDesignDay
191,0.0
192,0.0
193,0.0
194,0.0
195,0.0
196,0.0
197,0.0
198,0.0
199,0.0
200,12.764995526549141
201,15.614162229056554
202,-4.781554540712848
279,0.0
280,0.0
281,0.0
282,0.5279366154140603
283,0.4720448231497844
284,2.8560543444298829
618,8407.471278013581
2,1,12,21, 0,22, 0.00,60.00,WinterDesignDay
191,0.0
192,0.0
193,0.0
194,0.0
195,0.0
196,0.0
197,0.0
198,0.0
199,0.0
200,12.661370213770742
201,15.593165324940184
202,-4.7902495455622999
279,0.0
280,0.0
281,0.0
282,0.5276959759483165
283,0.47189796199894798
284,2.856041134010774
618,8407.471278013581
2,1,12,21, 0,23, 0.00,60.00,WinterDesignDay
191,0.0
192,0.0
193,0.0
194,0.0
195,0.0
196,0.0
197,0.0
198,0.0
199,0.0
200,12.560685352782578
201,15.57235048149978
202,-4.798844949201042
279,0.0
280,0.0
281,0.0
282,0.5274619416836035
283,0.4717517477061625
284,2.8560279344827594
618,8407.471278013581
2,1,12,21, 0,24, 0.00,60.00,WinterDesignDay
191,0.0
192,0.0
193,0.0
194,0.0
195,0.0
196,0.0
197,0.0
198,0.0
199,0.0
200,12.462765829739276
201,15.551738643127669
202,-4.807334988316425
279,0.0
280,0.0
281,0.0
282,0.5272341385997799
283,0.4716064076498649
284,2.856014780232021
618,8407.471278013581
1,SPOKANE INTL AP ANN CLG .4% CONDNS DB=>MWB,  47.62,-117.54,  -8.00, 777.00
2,1, 7,21, 0, 1, 0.00,60.00,SummerDesignDay
191,0.0
192,0.0
193,0.0
194,0.0
195,0.0
196,0.0
197,0.0
198,0.0
199,0.0
200,21.60823194824778
201,35.45411221057777
202,23.165116286744007
279,0.0
280,0.0
281,0.0
282,0.650361469567465
283,0.34209534649282638
284,4.801071170347067
618,261.54196218217467
2,1, 7,21, 0, 2, 0.00,60.00,SummerDesignDay
191,0.0
192,0.0
193,0.0
194,0.0
195,0.0
196,0.0
197,0.0
198,0.0
199,0.0
200,21.440639880163478
201,34.50214517889208
202,22.2979096623665
279,0.0
280,0.0
281,0.0
282,0.6500735555327597
283,0.3384130635470235
284,4.799708564241027
618,261.54196218217467
2,1, 7,21, 0, 3, 0.00,60.00,SummerDesignDay
191,0.0
192,0.0
193,0.0
194,0.0
195,0.0
196,0.0
197,0.0
198,0.0
199,0.0
200,21.279920041547329
201,33.5941299852363
202,21.61025045776447
279,0.0
280,0.0
281,0.0
282,0.6494663391445431
283,0.3336449244860733
284,4.799231774170322
618,261.54196218217467
2,1, 7,21, 0, 4, 0.00,60.00,SummerDesignDay
191,0.0
192,0.0
193,0.0
194,0.0
195,0.0
196,0.0
197,0.0
198,0.0
199,0.0
200,21.11671519151673
201,32.71203076825271
202,20.991700370313074
279,0.0
280,0.0
281,0.0
282,0.6489316838620137
283,0.3293292769089119
284,4.8000508139085309
618,261.54196218217467
2,1, 7,21, 0, 5, 0.00,60.00,SummerDesignDay
191,0.0
192,0.0
193,0.0
194,630.3643961054036
195,2269311.8259794528
196,406161.2796203534
197,0.0
198,0.0
199,0.0
200,20.964760184962154
201,32.105785331577298
202,20.798606067237043
279,0.0
280,0.0
281,0.0
282,0.6481012838263368
283,0.32385289484756515
284,4.805590850204896
618,261.54196218217467
2,1, 7,21, 0, 6, 0.00,60.00,SummerDesignDay
191,0.0
192,0.0
193,0.0
194,2199.2592085049329
195,7917333.150617758
196,7716677.183278803
197,0.0
198,0.0
199,0.0
200,20.895117125260545
201,32.11938413327773
202,22.06931839150783
279,0.0
280,0.0
281,0.0
282,0.6464920705429647
283,0.316148908751183
284,4.825864699529801
618,261.54196218217467
2,1, 7,21, 0, 7, 0.00,60.00,SummerDesignDay
191,0.0
192,0.0
193,0.0
194,2714.0419002267715
195,9770550.840816377
196,10031571.623815028
197,0.0
198,0.0
199,0.0
200,20.961604255038588
201,32.37964802570178
202,25.14872930061847
279,0.0
280,0.0
281,0.0
282,0.6441784850660713
283,0.3140660327794737
284,4.862754949720415
618,261.54196218217467
2,1, 7,21, 0, 8, 0.00,60.00,SummerDesignDay
191,0.0
192,0.0
193,0.0
194,2929.097855232481
195,10544752.278836932
196,11268167.19882659
197,0.0
198,0.0
199,0.0
200,21.20019261560042
201,32.84329518119519
202,29.558557242545395
279,83.06102187295382
280,0.0
281,0.0
282,0.6389593683800579
283,0.30613153993420336
284,4.8995188279962129
618,261.54196218217467
2,1, 7,21, 0, 9, 0.00,60.00,SummerDesignDay
191,0.0
192,0.0
193,0.0
194,3019.9728481546615
195,10871902.25335678
196,12416379.760037657
197,0.0
198,0.0
199,0.0
200,21.485119013501007
201,33.52623040103302
202,34.35449030121327
279,195.69620899842483
280,0.0
281,0.0
282,0.63352503844103
283,0.29697481885478457
284,4.938689270354536
618,261.54196218217467
2,1, 7,21, 0,10, 0.00,60.00,SummerDesignDay
191,0.0
192,0.0
193,0.0
194,2917.7654907984585
195,10503955.76687445
196,12617813.072751992
197,0.0
198,0.0
199,0.0
200,21.781162994435996
201,34.33682793860549
202,39.114176498349049
279,293.01631040843929
280,0.0
281,0.0
282,0.6292461560446619
283,0.28979487748300467
284,4.980613205861418
618,261.54196218217467
2,1, 7,21, 0,11, 0.00,60.00,SummerDesignDay
191,0.0
192,0.0
193,0.0
194,2560.522466314033
195,9217880.878730519
196,11465600.113769079
197,0.0
198,0.0
199,0.0
200,22.079734428541604
201,35.16534456763071
202,43.23012025283509
279,376.1599518268296
280,0.0
281,0.0
282,0.62592864419964
283,0.2843099055801695
284,5.015100774551346
618,261.54196218217467
2,1, 7,21, 0,12, 0.00,60.00,SummerDesignDay
191,0.0
192,0.0
193,0.0
194,2253.404079317668
195,8112254.685543606
196,9820618.39629655
197,0.0
198,0.0
199,0.0
200,22.33819102320804
201,35.92025464037461
202,46.2756896174601
279,428.70947844914647
280,0.0
281,0.0
282,0.6243840226787085
283,0.28274195372593838
284,5.041681792306977
618,261.54196218217467
2,1, 7,21, 0,13, 0.00,60.00,SummerDesignDay
191,0.0
192,0.0
193,0.0
194,2274.687485600647
195,8188874.948162329
196,10055548.292896228
197,0.0
198,0.0
199,0.0
200,22.581592909300196
201,36.74660648602411
202,48.24888255470878
279,468.91656362001529
280,0.0
281,0.0
282,0.6233070306871345
283,0.282125682507847
284,5.053922426319883
618,261.54196218217467
2,1, 7,21, 0,14, 0.00,60.00,SummerDesignDay
191,0.0
192,0.0
193,0.0
194,2610.201542022094
195,9396725.55127954
196,11843349.030237372
197,0.0
198,0.0
199,0.0
200,22.804388253713886
201,37.74056287196861
202,49.167164389272979
279,491.2586111697117
280,0.0
281,0.0
282,0.6233791681594539
283,0.28480275288507425
284,5.054415530502843
618,261.54196218217467
2,1, 7,21, 0,15, 0.00,60.00,SummerDesignDay
191,0.0
192,0.0
193,0.0
194,2945.094878934067
195,10602341.56416264
196,12898740.021156868
197,0.0
198,0.0
199,0.0
200,22.992040125284679
201,38.785165650793647
202,48.90011597256193
279,484.18323430708718
280,0.0
281,0.0
282,0.6254549605022668
283,0.29060705952928558
284,5.045318715307827
618,261.54196218217467
2,1, 7,21, 0,16, 0.00,60.00,SummerDesignDay
191,0.0
192,0.0
193,0.0
194,3016.4589199612685
195,10859252.111860566
196,12518406.003820185
197,0.0
198,0.0
199,0.0
200,23.121779801282487
201,39.69113918005488
202,47.28665249316641
279,441.8283529357544
280,0.0
281,0.0
282,0.6295195222665421
283,0.3021603814292398
284,5.026509756876605
618,261.54196218217467
2,1, 7,21, 0,17, 0.00,60.00,SummerDesignDay
191,0.0
192,0.0
193,0.0
194,2907.809054549367
195,10468112.596377721
196,11331778.981535493
197,0.0
198,0.0
199,0.0
200,23.214273334156375
201,40.378992415964
202,44.61111079104518
279,387.57800820313806
280,0.0
281,0.0
282,0.6338193104895079
283,0.3119022297085679
284,4.994598538666943
618,261.54196218217467
2,1, 7,21, 0,18, 0.00,60.00,SummerDesignDay
191,0.0
192,0.0
193,0.0
194,2673.681049918122
195,9625251.77970524
196,10054935.682037425
197,0.0
198,0.0
199,0.0
200,23.263435422567285
201,40.835764893889038
202,41.016141033913047
279,321.36616222123919
280,0.0
281,0.0
282,0.6382698301776498
283,0.3196702554865697
284,4.952356738257132
618,261.54196218217467
2,1, 7,21, 0,19, 0.00,60.00,SummerDesignDay
191,0.0
192,0.0
193,0.0
194,2092.8234197628464
195,7534164.311146246
196,7120760.971219464
197,0.0
198,0.0
199,0.0
200,23.22940948214303
201,40.89700808425908
202,36.67597468969849
279,224.88082489214865
280,0.0
281,0.0
282,0.6436334427928387
283,0.3326893850163016
284,4.9078759327984768
618,261.54196218217467
2,1, 7,21, 0,20, 0.00,60.00,SummerDesignDay
191,0.0
192,0.0
193,0.0
194,367.3467897052357
195,1322448.4429388487
196,0.0
197,0.0
198,0.0
199,0.0
200,23.190421801618123
201,40.19501497157756
202,32.58903067567236
279,153.6379729874995
280,0.0
281,0.0
282,0.6472339871721946
283,0.3425586843827996
284,4.860816489685362
618,261.54196218217467
2,1, 7,21, 0,21, 0.00,60.00,SummerDesignDay
191,0.0
192,0.0
193,0.0
194,0.0
195,0.0
196,0.0
197,0.0
198,0.0
199,0.0
200,23.0955987017624
201,39.291436151445619
202,29.417824805724469
279,97.5184289401795
280,0.0
281,0.0
282,0.6490979291787539
283,0.3436628246052522
284,4.828057802208421
618,261.54196218217467
2,1, 7,21, 0,22, 0.00,60.00,SummerDesignDay
191,0.0
192,0.0
193,0.0
194,0.0
195,0.0
196,0.0
197,0.0
198,0.0
199,0.0
200,22.960098327088443
201,38.37063738936554
202,27.164337140783915
279,42.919242571442179
280,0.0
281,0.0
282,0.650670042552818
283,0.34446646513778897
284,4.812273606115489
618,261.54196218217467
2,1, 7,21, 0,23, 0.00,60.00,SummerDesignDay
191,0.0
192,0.0
193,0.0
194,0.0
195,0.0
196,0.0
197,0.0
198,0.0
199,0.0
200,22.819289469516347
201,37.4492510766809
202,25.60644295820554
279,1.8875459285014829
280,0.0
281,0.0
282,0.6515310671414965
283,0.3436464306362992
284,4.8045188341803579
618,261.54196218217467
2,1, 7,21, 0,24, 0.00,60.00,SummerDesignDay
191,0.0
192,0.0
193,0.0
194,0.0
195,0.0
196,0.0
197,0.0
198,0.0
199,0.0
200,22.656607567770075
201,36.50313929332151
202,24.274236535946835
279,0.0
280,0.0
281,0.0
282,0.6524003304718831
283,0.3437388934876812
284,4.801636122716077
618,261.54196218217467
1,SUB-ANNUAL,  47.62,-117.54,  -8.00, 777.00
2,1, 1, 1, 0, 1, 0.00,60.00,Sunday
191,0.0
192,0.0
193,0.0
194,0.0
195,0.0
196,0.0
197,0.0
198,0.0
199,0.0
200,16.785919064488618
201,20.555295882061654
202,8.067383900067084
279,0.0
280,0.0
281,0.0
282,0.5895319301799135
283,0.3955893462205307
284,3.8786128020407379
618,4860.406960116247
2,1, 1, 1, 0, 2, 0.00,60.00,Sunday
191,0.0
192,0.0
193,0.0
194,0.0
195,0.0
196,0.0
197,0.0
198,0.0
199,0.0
200,16.208274707231547
201,20.555379977430638
202,7.027706004189619
279,0.0
280,0.0
281,0.0
282,0.6700683883171407
283,0.4233554911948287
284,5.9214164608173569
618,5087.783983793021
2,1, 1, 1, 0, 3, 0.00,60.00,Sunday
191,0.0
192,0.0
193,0.0
194,0.0
195,0.0
196,0.0
197,0.0
198,0.0
199,0.0
200,15.793318249321756
201,20.555239565986509
202,7.073177008307755
279,0.0
280,0.0
281,0.0
282,0.7406008284960731
283,0.45623933179705158
284,5.4140140928762199
618,5347.0797062441929
2,1, 1, 1, 0, 4, 0.00,60.00,Sunday
191,0.0
192,0.0
193,0.0
194,0.0
195,0.0
196,0.0
197,0.0
198,0.0
199,0.0
200,15.158697182555315
201,20.554738644092607
202,6.090063975842238
279,0.0
280,0.0
281,0.0
282,0.9338394701934322
283,0.5039979817595126
284,7.836589719369088
618,5621.591290233439
2,1, 1, 1, 0, 5, 0.00,60.00,Sunday
191,0.0
192,0.0
193,0.0
194,0.0
195,0.0
196,0.0
197,0.0
198,0.0
199,0.0
200,15.716775451458013
201,20.55517910919353
202,6.7365481969220639
279,0.0
280,0.0
281,0.0
282,0.542875889384583
283,0.4140606959832031
284,5.147144121260123
618,5279.111882545663
2,1, 1, 1, 0, 6, 0.00,60.00,Sunday
191,0.0
192,0.0
193,0.0
194,0.0
195,0.0
196,0.0
197,0.0
198,0.0
199,0.0
200,15.521236926534803
201,20.555067664824784
202,6.865408446500801
279,0.0
280,0.0
281,0.0
282,0.5460078920779872
283,0.3894169925221432
284,4.02766067109929
618,5175.513817082207
2,1, 1, 1, 0, 7, 0.00,60.00,Sunday
191,0.0
192,0.0
193,0.0
194,0.0
195,0.0
196,0.0
197,0.0
198,0.0
199,0.0
200,15.620135144962023
201,20.55516222021444
202,7.156404624851444
279,0.0
280,0.0
281,0.0
282,0.44507827626340548
283,0.37843435471789729
284,3.2706121170311919
618,5155.1365661727199
2,1, 1, 1, 0, 8, 0.00,60.00,Sunday
191,0.0
192,0.0
193,0.0
194,0.0
195,0.0
196,0.0
197,0.0
198,0.0
199,0.0
200,14.935536460039126
201,20.554868792750438
202,6.723278818754692
279,0.0
280,0.0
281,0.0
282,0.7228112228104687
283,0.4327761788567988
284,5.679232267795427
618,5390.76607960352
2,1, 1, 1, 0, 9, 0.00,60.00,Sunday
191,0.0
192,0.0
193,0.0
194,390.0013001056669
195,1404004.680380401
196,0.0
197,0.0
198,0.0
199,0.0
200,14.284020918082847
201,20.55433700913236
202,7.1400873667637418
279,0.0
280,0.0
281,0.0
282,1.0656744480452088
283,0.5624313769384417
284,8.019655479941854
618,5768.737524303829
2,1, 1, 1, 0,10, 0.00,60.00,Sunday
191,0.0
192,0.0
193,0.0
194,524.4405099248986
195,1887985.835729635
196,0.0
197,0.0
198,0.0
199,0.0
200,14.208939360148552
201,20.554414879797
202,8.037170345443132
279,0.0
280,0.0
281,0.0
282,1.0629863761320778
283,0.5578326327068385
284,8.027188449714148
618,5420.513293774393
2,1, 1, 1, 0,11, 0.00,60.00,Sunday
191,0.0
192,0.0
193,0.0
194,985.0529256368527
195,3546190.5322926698
196,1687370.5210222775
197,0.0
198,0.0
199,0.0
200,14.193502605328524
201,20.554505206314678
202,9.815823061196748
279,0.0
280,0.0
281,0.0
282,0.9725742563739649
283,0.5723844461250501
284,6.2877476904183029
618,5025.126984327387
2,1, 1, 1, 0,12, 0.00,60.00,Sunday
191,0.0
192,0.0
193,0.0
194,521.3750753715846
195,1876950.2713377046
196,0.0
197,0.0
198,0.0
199,0.0
200,14.756226666834984
201,20.554854980989587
202,10.890959887183814
279,0.0
280,0.0
281,0.0
282,0.5910063015267327
283,0.5037549156307701
284,4.32818635509709
618,4586.385917260975
2,1, 1, 1, 0,13, 0.00,60.00,Sunday
191,0.0
192,0.0
193,0.0
194,829.3616532392013
195,2985701.9516611245
196,1096135.6980694473
197,0.0
198,0.0
199,0.0
200,13.809376710574626
201,20.554577630039135
202,10.30044135421371
279,0.0
280,0.0
281,0.0
282,1.1526643544197713
283,0.6130003025801215
284,8.509894681359281
618,4721.743596394073
2,1, 1, 1, 0,14, 0.00,60.00,Sunday
191,0.0
192,0.0
193,0.0
194,914.9074559634719
195,3293666.8414684988
196,1447611.9144132953
197,0.0
198,0.0
199,0.0
200,14.347538751195728
201,20.555617589746377
202,11.447958604312508
279,0.0
280,0.0
281,0.0
282,0.7318894672643893
283,0.44017616678190599
284,5.470746075174972
618,3843.3055140127328
2,1, 1, 1, 0,15, 0.00,60.00,Sunday
191,0.0
192,0.0
193,0.0
194,388.48476867072517
195,1398545.1672146107
196,0.0
197,0.0
198,0.0
199,0.0
200,14.842201732514326
201,20.55458901667028
202,12.949467314921052
279,0.0
280,0.0
281,0.0
282,0.39378299859250767
283,0.37933633095028038
284,1.5832462253810842
618,3669.70720238873
2,1, 1, 1, 0,16, 0.00,60.00,Sunday
191,0.0
192,0.0
193,0.0
194,327.554855100491
195,1179197.4783617678
196,0.0
197,0.0
198,0.0
199,0.0
200,14.261891324937386
201,20.554938522079476
202,11.03409353062324
279,0.0
280,0.0
281,0.0
282,0.6939323988918821
283,0.49193421049786847
284,4.447993552306687
618,4227.438686637356
2,1, 1, 1, 0,17, 0.00,60.00,Sunday
191,0.0
192,0.0
193,0.0
194,0.0
195,0.0
196,0.0
197,0.0
198,0.0
199,0.0
200,14.77648388769843
201,20.555004254121724
202,11.492934854183453
279,0.0
280,0.0
281,0.0
282,0.39366928675543058
283,0.37930949545005945
284,1.565334177920313
618,4024.5684165423065
2,1, 1, 1, 0,18, 0.00,60.00,Sunday
191,0.0
192,0.0
193,0.0
194,0.0
195,0.0
196,0.0
197,0.0
198,0.0
199,0.0
200,14.864838431382447
201,20.55541447778413
202,11.276111800664316
279,0.0
280,0.0
281,0.0
282,0.3240898633584223
283,0.3182568150284962
284,0.0
618,3849.640920957395
2,1, 1, 1, 0,19, 0.00,60.00,Sunday
191,0.0
192,0.0
193,0.0
194,0.0
195,0.0
196,0.0
197,0.0
198,0.0
199,0.0
200,14.581085705470285
201,20.553563095213364
202,10.183840467535019
279,0.0
280,0.0
281,0.0
282,0.46270907284467058
283,0.3720059938593557
284,2.55122649608289
618,4179.344737043663
2,1, 1, 1, 0,20, 0.00,60.00,Sunday
191,0.0
192,0.0
193,0.0
194,0.0
195,0.0
196,0.0
197,0.0
198,0.0
199,0.0
200,14.734960101573457
201,20.55411832125929
202,10.362199924367902
279,0.0
280,0.0
281,0.0
282,0.35542378458868376
283,0.32396634842263297
284,1.2435811812694547
618,4132.044366529339
2,1, 1, 1, 0,21, 0.00,60.00,Sunday
191,0.0
192,0.0
193,0.0
194,0.0
195,0.0
196,0.0
197,0.0
198,0.0
199,0.0
200,14.597067395051802
201,20.554338274154494
202,9.774840323100963
279,0.0
280,0.0
281,0.0
282,0.4011728651521689
283,0.34538556991112676
284,1.9794511445306418
618,4303.446993666197
2,1, 1, 1, 0,22, 0.00,60.00,Sunday
191,0.0
192,0.0
193,0.0
194,0.0
195,0.0
196,0.0
197,0.0
198,0.0
199,0.0
200,14.39769471841157
201,20.554013371630679
202,8.806399430811244
279,0.0
280,0.0
281,0.0
282,0.487665375502127
283,0.38119400238440506
284,4.1951625542873949
618,4545.545882994769
2,1, 1, 1, 0,23, 0.00,60.00,Sunday
191,0.0
192,0.0
193,0.0
194,0.0
195,0.0
196,0.0
197,0.0
198,0.0
199,0.0
200,14.175550449013029
201,20.55541573186068
202,8.837166665088312
279,0.0
280,0.0
281,0.0
282,0.5794029886346804
283,0.3786816718725091
284,3.8665952332313346
618,4635.136315565846
2,1, 1, 1, 0,24, 0.00,60.00,Sunday
191,0.0
192,0.0
193,0.0
194,0.0
195,0.0
196,0.0
197,0.0
198,0.0
199,0.0
200,14.18767837732911
201,20.55510628069366
202,9.194879863367174
279,0.0
280,0.0
281,0.0
282,0.5411612282234147
283,0.4335778091033467
284,2.9112374364079205
618,4953.451744128115
2,2, 1, 2, 0, 1, 0.00,60.00,Monday
191,0.0
192,0.0
193,0.0
194,0.0
195,0.0
196,0.0
197,0.0
198,0.0
199,0.0
200,12.739302888703467
201,20.553853063642867
202,6.949940027336004
279,0.0
280,0.0
281,0.0
282,1.374458071585633
283,0.6953848227708368
284,11.498521812388225
618,6162.336011918573
2,2, 1, 2, 0, 2, 0.00,60.00,Monday
191,0.0
192,0.0
193,0.0
194,0.0
195,0.0
196,0.0
197,0.0
198,0.0
199,0.0
200,12.184352313163084
201,20.552175958956828
202,6.204539206649341
279,0.0
280,0.0
281,0.0
282,1.6128673053691936
283,0.8090678745645811
284,12.99636115973106
618,7190.581231114955
2,2, 1, 2, 0, 3, 0.00,60.00,Monday
191,0.0
192,0.0
193,0.0
194,0.0
195,0.0
196,0.0
197,0.0
198,0.0
199,0.0
200,12.805634345667647
201,20.556948596615319
202,6.763968950781698
279,0.0
280,0.0
281,0.0
282,1.0585372150055053
283,0.5678883389742213
284,8.00009673261033
618,6081.049072432108
2,2, 1, 2, 0, 4, 0.00,60.00,Monday
191,0.0
192,0.0
193,0.0
194,0.0
195,0.0
196,0.0
197,0.0
198,0.0
199,0.0
200,12.686125021638665
201,20.553889532897786
202,6.532818420435264
279,0.0
280,0.0
281,0.0
282,1.0580842564374509
283,0.568264953627432
284,7.993664919422755
618,6079.902921180814
2,2, 1, 2, 0, 5, 0.00,60.00,Monday
191,0.0
192,0.0
193,0.0
194,0.0
195,0.0
196,0.0
197,0.0
198,0.0
199,0.0
200,12.4072308265051
201,20.55231125037856
202,7.120863578629171
279,0.0
280,0.0
281,0.0
282,1.2553527911306526
283,0.6920528679487267
284,8.509241896915759
618,6702.857785477468
2,2, 1, 2, 0, 6, 0.00,60.00,Monday
191,0.0
192,0.0
193,0.0
194,0.0
195,0.0
196,0.0
197,0.0
198,0.0
199,0.0
200,12.676662654613372
201,20.55326906045014
202,7.239463218998571
279,0.0
280,0.0
281,0.0
282,1.0240905599918789
283,0.7086442333047952
284,8.351170933423204
618,6830.725916537592
2,2, 1, 2, 0, 7, 0.00,60.00,Monday
191,0.0
192,0.0
193,0.0
194,0.0
195,0.0
196,0.0
197,0.0
198,0.0
199,0.0
200,12.240312631045
201,20.552063603555046
202,7.243572671391441
279,0.0
280,0.0
281,0.0
282,1.2540627878440883
283,0.6929514363831135
284,8.509683656879286
618,6756.520645970944
2,2, 1, 2, 0, 8, 0.00,60.00,Monday
191,0.0
192,0.0
193,0.0
194,0.0
195,0.0
196,0.0
197,0.0
198,0.0
199,0.0
200,13.111246322896762
201,20.55614528258971
202,8.087976283726878
279,0.0
280,0.0
281,0.0
282,0.6820139579463703
283,0.54733400452158
284,5.161922190906995
618,5953.4081472726
2,2, 1, 2, 0, 9, 0.00,60.00,Monday
191,0.0
192,0.0
193,0.0
194,627.7020611440789
195,2259727.420118684
196,134383.88653562388
197,0.0
198,0.0
199,0.0
200,13.06974689410246
201,20.554791689999996
202,9.100197077944032
279,0.0
280,0.0
281,0.0
282,0.6755937380093147
283,0.4562722413724276
284,3.9735513267277406
618,5038.340484780139
2,2, 1, 2, 0,10, 0.00,60.00,Monday
191,0.0
192,0.0
193,0.0
194,919.3192351137681
195,3309549.246409565
196,1441249.454198909
197,0.0
198,0.0
199,0.0
200,12.993486762841954
201,20.55440768092988
202,9.963621912518632
279,0.0
280,0.0
281,0.0
282,0.7621799063277958
283,0.5804285330102685
284,5.968480844004233
618,5085.844907198949
2,2, 1, 2, 0,11, 0.00,60.00,Monday
191,0.0
192,0.0
193,0.0
194,1269.9913702423988
195,4571968.932872635
196,3051264.5137401956
197,0.0
198,0.0
199,0.0
200,12.693874920233247
201,20.55497136307747
202,10.80767560261142
279,0.0
280,0.0
281,0.0
282,0.938676692331231
283,0.5395340718360975
284,6.70719248741443
618,4377.650859726179
2,2, 1, 2, 0,12, 0.00,60.00,Monday
191,0.0
192,0.0
193,0.0
194,1226.0711477581745
195,4413856.131929428
196,2850738.4527470024
197,0.0
198,0.0
199,0.0
200,12.312606196234823
201,20.554915555438457
202,10.464887226511378
279,0.0
280,0.0
281,0.0
282,1.2603516762092062
283,0.6410526497950851
284,9.980195550756618
618,4423.086544722553
2,2, 1, 2, 0,13, 0.00,60.00,Monday
191,0.0
192,0.0
193,0.0
194,1190.0883697057573
195,4284318.130940726
196,2770784.7370481134
197,0.0
198,0.0
199,0.0
200,12.597087284354
201,20.554810863015775
202,11.689261831957206
279,0.0
280,0.0
281,0.0
282,1.045629779300199
283,0.5461087570360173
284,8.051651177382958
618,3770.7630544126247
2,2, 1, 2, 0,14, 0.00,60.00,Monday
191,0.0
192,0.0
193,0.0
194,1088.9907241117692
195,3920366.606802369
196,2247208.5792754015
197,0.0
198,0.0
199,0.0
200,12.14865406842896
201,20.55479695001249
202,10.559403250086027
279,0.0
280,0.0
281,0.0
282,1.367442760623869
283,0.6901754893050142
284,10.967816005810104
618,4238.581485368224
2,2, 1, 2, 0,15, 0.00,60.00,Monday
191,0.0
192,0.0
193,0.0
194,809.5141540938479
195,2914250.9547378525
196,966234.1746238656
197,0.0
198,0.0
199,0.0
200,12.1243687875745
201,20.555040608287123
202,10.23290006666475
279,0.0
280,0.0
281,0.0
282,1.3673930568374536
283,0.6895949204110591
284,10.9568085363855
618,4311.6297730590699
2,2, 1, 2, 0,16, 0.00,60.00,Monday
191,0.0
192,0.0
193,0.0
194,455.6528798929585
195,1640350.3676146507
196,0.0
197,0.0
198,0.0
199,0.0
200,12.31759377159702
201,20.555303235402787
202,9.97891693309435
279,0.0
280,0.0
281,0.0
282,1.150202182701031
283,0.5873841985064443
284,8.964184412892849
618,4093.4923416919834
2,2, 1, 2, 0,17, 0.00,60.00,Monday
191,0.0
192,0.0
193,0.0
194,0.0
195,0.0
196,0.0
197,0.0
198,0.0
199,0.0
200,12.892101598980574
201,20.555941197979949
202,9.50683884170957
279,0.0
280,0.0
281,0.0
282,0.6501785753700025
283,0.3898852270953093
284,5.904938042681576
618,3708.315398411109