Program Version,EnergyPlus, Version 22.2.0-c249759bad, YMD=2023.09.01 20:18
1,5,Environment Title[],Latitude[deg],Longitude[deg],Time Zone[],Elevation[m]
2,8,Day of Simulation[],Month[],Day of Month[],DST Indicator[1=yes 0=no],Hour[],StartMinute[],EndMinute[],DayType
3,5,Cumulative Day of Simulation[],Month[],Day of Month[],DST Indicator[1=yes 0=no],DayType  ! When Daily Report Variables Requested
4,2,Cumulative Days of Simulation[],Month[]  ! When Monthly Report Variables Requested
5,1,Cumulative Days of Simulation[] ! When Run Period Report Variables Requested
6,1,Calendar Year of Simulation[] ! When Annual Report Variables Requested
581,11,LIVING,AFN Zone Infiltration Air Change Rate [ach] !RunPeriod [Value,Min,Month,Day,Hour,Minute,Max,Month,Day,Hour,Minute]
582,11,ATTIC,AFN Zone Infiltration Air Change Rate [ach] !RunPeriod [Value,Min,Month,Day,Hour,Minute,Max,Month,Day,Hour,Minute]
583,11,CRAWLSPACE,AFN Zone Infiltration Air Change Rate [ach] !RunPeriod [Value,Min,Month,Day,Hour,Minute,Max,Month,Day,Hour,Minute]
1038,11,Facility,Facility Heating Setpoint Not Met Time [hr] !RunPeriod [Value,Min,Month,Day,Hour,Minute,Max,Month,Day,Hour,Minute]
1039,11,Facility,Facility Cooling Setpoint Not Met Time [hr] !RunPeriod [Value,Min,Month,Day,Hour,Minute,Max,Month,Day,Hour,Minute]
1115,11,DX_HEATING_COIL,Heating Coil Heating Energy [J] !RunPeriod [Value,Min,Month,Day,Hour,Minute,Max,Month,Day,Hour,Minute]
1128,11,DX_HEATING_COIL,Heating Coil Electricity Energy [J] !RunPeriod [Value,Min,Month,Day,Hour,Minute,Max,Month,Day,Hour,Minute]
1153,11,DX_HEATING_COIL,Heating Coil Defrost Electricity Energy [J] !RunPeriod [Value,Min,Month,Day,Hour,Minute,Max,Month,Day,Hour,Minute]
1154,11,DX_HEATING_COIL,Heating Coil Crankcase Heater Electricity Energy [J] !RunPeriod [Value,Min,Month,Day,Hour,Minute,Max,Month,Day,Hour,Minute]
1155,11,HEATING_RESISTANCE_BACKUP,Heating Coil Heating Energy [J] !RunPeriod [Value,Min,Month,Day,Hour,Minute,Max,Month,Day,Hour,Minute]
1156,11,HEATING_RESISTANCE_BACKUP,Heating Coil Electricity Energy [J] !RunPeriod [Value,Min,Month,Day,Hour,Minute,Max,Month,Day,Hour,Minute]
1292,11,WATER HEATER,Water Heater Heat Loss Energy [J] !RunPeriod [Value,Min,Month,Day,Hour,Minute,Max,Month,Day,Hour,Minute]
1306,11,WATER HEATER,Water Heater Heating Energy [J] !RunPeriod [Value,Min,Month,Day,Hour,Minute,Max,Month,Day,Hour,Minute]
1307,11,WATER HEATER,Water Heater Unmet Demand Heat Transfer Energy [J] !RunPeriod [Value,Min,Month,Day,Hour,Minute,Max,Month,Day,Hour,Minute]
1308,11,WATER HEATER,Water Heater Electricity Energy [J] !RunPeriod [Value,Min,Month,Day,Hour,Minute,Max,Month,Day,Hour,Minute]
13,11,Electricity:Facility [J] !RunPeriod [Value,Min,Month,Day,Hour,Minute,Max,Month,Day,Hour,Minute]
1134,11,Heating:Electricity [J] !RunPeriod [Value,Min,Month,Day,Hour,Minute,Max,Month,Day,Hour,Minute]
1096,11,Cooling:Electricity [J] !RunPeriod [Value,Min,Month,Day,Hour,Minute,Max,Month,Day,Hour,Minute]
562,11,Fans:Electricity [J] !RunPeriod [Value,Min,Month,Day,Hour,Minute,Max,Month,Day,Hour,Minute]
1379,11,Pumps:Electricity [J] !RunPeriod [Value,Min,Month,Day,Hour,Minute,Max,Month,Day,Hour,Minute]
1326,11,WaterSystems:Electricity [J] !RunPeriod [Value,Min,Month,Day,Hour,Minute,Max,Month,Day,Hour,Minute]
61,11,InteriorLights:Electricity [J] !RunPeriod [Value,Min,Month,Day,Hour,Minute,Max,Month,Day,Hour,Minute]
1046,11,ExteriorLights:Electricity [J] !RunPeriod [Value,Min,Month,Day,Hour,Minute,Max,Month,Day,Hour,Minute]
134,11,InteriorEquipment:Electricity [J] !RunPeriod [Value,Min,Month,Day,Hour,Minute,Max,Month,Day,Hour,Minute]
170,11,gas_dryer:InteriorEquipment:Electricity [J] !RunPeriod [Value,Min,Month,Day,Hour,Minute,Max,Month,Day,Hour,Minute]
207,11,clotheswasher:InteriorEquipment:Electricity [J] !RunPeriod [Value,Min,Month,Day,Hour,Minute,Max,Month,Day,Hour,Minute]
244,11,dishwasher:InteriorEquipment:Electricity [J] !RunPeriod [Value,Min,Month,Day,Hour,Minute,Max,Month,Day,Hour,Minute]
281,11,refrigerator:InteriorEquipment:Electricity [J] !RunPeriod [Value,Min,Month,Day,Hour,Minute,Max,Month,Day,Hour,Minute]
318,11,electric_mels:InteriorEquipment:Electricity [J] !RunPeriod [Value,Min,Month,Day,Hour,Minute,Max,Month,Day,Hour,Minute]
355,11,NaturalGas:Facility [J] !RunPeriod [Value,Min,Month,Day,Hour,Minute,Max,Month,Day,Hour,Minute]
403,11,InteriorEquipment:NaturalGas [J] !RunPeriod [Value,Min,Month,Day,Hour,Minute,Max,Month,Day,Hour,Minute]
476,11,gas_dryer:InteriorEquipment:NaturalGas [J] !RunPeriod [Value,Min,Month,Day,Hour,Minute,Max,Month,Day,Hour,Minute]
513,11,gas_mels:InteriorEquipment:NaturalGas [J] !RunPeriod [Value,Min,Month,Day,Hour,Minute,Max,Month,Day,Hour,Minute]
End of Data Dictionary
1,EXTREME_WINTER,  30.41, -89.07,  -6.00,  16.00
5,7
1038,0.5,0.0, 1, 6, 1,15,0.25, 1, 8, 6,15
1039,0.0,0.0, 1, 6, 1,15,0.0, 1, 6, 1,15
581,0.27702020981128994,0.0755192372348887, 1,12, 8, 7,0.6707159446364166, 1, 7,20,52
582,3.670161441223865,0.0, 1, 6, 6, 3,12.88875574091258, 1,11,24,52
583,0.018210468337865014,0.00012761896789232187, 1,12, 7,60,0.07024640095406444, 1, 8, 4,60
1115,596268053.4133525,0.0, 1, 6, 1,15,4091493.0950496336, 1,10, 6,60
1128,182173241.88871217,0.0, 1, 6, 1,15,1242688.4898312774, 1,10, 6,60
1153,3280616.775266621,0.0, 1, 6, 1,15,71734.95047428261, 1, 6, 7,15
1154,53949863.808387,0.0, 1, 6, 6, 3,180000.0, 1, 6, 1,15
1155,38125837.43104345,0.0, 1, 6, 1,15,2265221.645014296, 1, 8, 6,45
1156,38125837.43104345,0.0, 1, 6, 1,15,2265221.645014296, 1, 8, 6,45
1292,-24506571.59706348,-39755.24261908177, 1, 9, 4,30,-3441.1685859082595, 1, 8,11,60
1306,108035663.44920813,0.0, 1, 6, 1,15,4050000.0, 1, 6, 7,15
1307,15933149.167564968,0.0, 1, 6, 1,15,3028209.7425285, 1, 6, 6,60
1308,108035663.44920813,0.0, 1, 6, 1,15,4050000.0, 1, 6, 7,15
13,809233555.6876805,152071.80019841267, 1,12, 4,30,7340869.582870267, 1, 8, 8,60
61,301924526.02383536,88139.10953165221, 1, 6, 1,15,1282023.4113694867, 1, 6,20,15
134,70666020.44019976,63564.01800854099, 1, 6, 4,15,156554.22484006523, 1,11,20,15
170,5241013.419656067,348.4159749238097, 1, 6, 4,15,17476.39704006126, 1,11,12,15
207,6509451.13922267,815.2532113832032, 1, 6, 3,15,22990.642799023623, 1,11,10,15
244,12749673.399825225,1521.856143006317, 1, 6, 4,15,53038.631142310165, 1,11,20,15
281,46165882.481495745,59938.60262432081, 1, 6, 5,15,81951.81706819107, 1, 6,19,15
318,0.0,0.0, 1, 6, 1,15,0.0, 1, 6, 1,15
355,197687796.27748066,18561.32405820678, 1, 6, 4,15,724774.895203776, 1,11,18,15
403,197687796.27748066,18561.32405820678, 1, 6, 4,15,724774.895203776, 1,11,18,15
476,106772067.24485716,7098.072629279515, 1, 6, 4,15,356036.3026282215, 1,11,12,15
513,0.0,0.0, 1, 6, 1,15,0.0, 1, 6, 1,15
562,21708134.92842967,0.0, 1, 6, 1,15,124098.8263147629, 1, 8, 3,30
1046,0.0,0.0, 1, 6, 1,15,0.0, 1, 6, 1,15
1096,29369650.94259959,0.0, 1, 6, 1,15,789780.1685981683, 1,12,15,30
1134,277529559.9034091,0.0, 1, 6,10,60,3980912.871193731, 1, 8, 6,15
1326,108035663.44920813,0.0, 1, 6, 1,15,4050000.0, 1, 6, 7,15
1379,0.0,0.0, 1, 6, 1,15,0.0, 1, 6, 1,15
1,EXTREME_SUMMER,  30.41, -89.07,  -6.00,  16.00
5,7
1038,0.0,0.0, 7, 6, 1,15,0.0, 7, 6, 1,15
1039,55.25,0.0, 7, 6, 1,15,0.25, 7, 6,12,45
581,0.0880581338883416,0.0, 7, 8, 5,37,0.31175412404168334, 7,10,15,52
582,2.5837531341874587,0.06341226294109319, 7,10,19,57,9.2923053846956, 7, 9,12,46
583,0.041733442516388226,0.0, 7, 9,23, 3,0.06327844522469062, 7,12,15,48
1115,0.0,0.0, 7, 6, 1,15,0.0, 7, 6, 1,15
1128,0.0,0.0, 7, 6, 1,15,0.0, 7, 6, 1,15
1153,0.0,0.0, 7, 6, 1,15,0.0, 7, 6, 1,15
1154,0.0,0.0, 7, 6, 1,15,0.0, 7, 6, 1,15
1155,0.0,0.0, 7, 6, 1,15,0.0, 7, 6, 1,15
1156,0.0,0.0, 7, 6, 1,15,0.0, 7, 6, 1,15
1292,-21819979.9780117,-34349.77100474668, 7,11,22,30,-3355.5153368646806, 7, 9,10,59
1306,77890645.42821744,0.0, 7, 6, 1,15,3517350.824852012, 7, 6, 6,60
1307,3235736.9620449226,0.0, 7, 6, 1,15,2439115.6194576654, 7, 6, 6,60
1308,77890645.42821744,0.0, 7, 6, 1,15,3517350.824852012, 7, 6, 6,60
13,1089950907.8472965,198134.9170146739, 7,12, 4,60,5784392.789048525, 7, 6,19,30
61,301924526.02383536,88139.10953165221, 7, 6, 1,15,1282023.4113694867, 7, 6,20,15
134,70666020.44019976,63564.01800854099, 7, 6, 4,15,156554.22484006523, 7,11,20,15
170,5241013.419656067,348.4159749238097, 7, 6, 4,15,17476.39704006126, 7,11,12,15
207,6509451.13922267,815.2532113832032, 7, 6, 3,15,22990.642799023623, 7,11,10,15
244,12749673.399825225,1521.856143006317, 7, 6, 4,15,53038.631142310165, 7,11,20,15
281,46165882.481495745,59938.60262432081, 7, 6, 5,15,81951.81706819107, 7, 6,19,15
318,0.0,0.0, 7, 6, 1,15,0.0, 7, 6, 1,15
355,197687796.27748066,18561.32405820678, 7, 6, 4,15,724774.895203776, 7,11,18,15
403,197687796.27748066,18561.32405820678, 7, 6, 4,15,724774.895203776, 7,11,18,15
476,106772067.24485716,7098.072629279515, 7, 6, 4,15,356036.3026282215, 7,11,12,15
513,0.0,0.0, 7, 6, 1,15,0.0, 7, 6, 1,15
562,57934136.0433329,4662.267864781799, 7,12, 4,60,124098.82631476293, 7, 9,10,60
1046,0.0,0.0, 7, 6, 1,15,0.0, 7, 6, 1,15
1096,581535579.911712,41400.84895147942, 7,12, 4,60,1340933.5359064834, 7,10,15,60
1134,0.0,0.0, 7, 6, 1,15,0.0, 7, 6, 1,15
1326,77890645.42821749,0.0, 7, 6, 1,15,4050000.0, 7,11,10,30
1379,0.0,0.0, 7, 6, 1,15,0.0, 7, 6, 1,15
1,ANNUAL,  30.41, -89.07,  -6.00,  16.00
5,365
1038,3.75,0.0, 1, 1, 1,15,0.25, 1, 5, 6,15
1039,1195.5,0.0, 1, 1, 1,15,0.25, 1,16,15,45
581,0.17492967226996298,0.0, 3,23, 8,31,1.080221765884334, 8,29,14,49
582,3.3165785223697486,0.0, 1, 5,21,52,23.62253512995262, 8,29,14,47
583,0.02701438778864421,0.0, 4,28,23, 5,0.0745423904858457, 8,29,14,60
1115,2876304767.8207154,0.0, 1, 1, 1, 7,4097613.713518604, 2, 4, 6,45
1128,854840026.6440365,0.0, 1, 1, 1, 7,1264377.558955673, 2, 4, 6,45
1153,35283206.39478483,0.0, 1, 1, 1, 7,98346.61576244271, 1,16, 6,45
1154,643786699.3204769,0.0, 1, 1, 1, 7,180000.0, 1, 4,23,15
1155,58002034.90854639,0.0, 1, 1, 1, 7,2364329.7865824923, 1, 8, 6,60
1156,58002034.90854639,0.0, 1, 1, 1, 7,2364329.7865824923, 1, 8, 6,60
1292,-1171683118.13354,-39790.293083753146, 2, 4, 5,45,-2268.5345409150086, 7,30,13,32
1306,4864999226.990436,0.0, 1, 1, 1, 7,4050000.0, 1, 2, 7,15
1307,480123053.072453,0.0, 1, 1, 1, 7,5916291.769496927, 2,13, 6,60
1308,4864999226.990436,0.0, 1, 1, 1, 7,4050000.0, 1, 2, 7,15
13,43492179247.58876,151703.1275401932, 1, 2, 4,15,6550388.680792725, 5, 8,19,30
61,15743207428.383959,88139.10953165221, 1, 1, 1,15,1282023.4113694867, 1, 1,20,15
134,3685071073.4325233,63564.01800854099, 1, 2, 4,15,156554.22484006523, 1, 1,20,15
170,273393721.45532674,348.4159749238097, 1, 2, 4,15,17476.39704006126, 1, 1,12,15
207,339560869.0695816,815.2532113832032, 1, 2, 3,15,22990.642799023623, 1, 1,10,15
244,664895467.8009144,1521.856143006317, 1, 2, 4,15,53038.631142310165, 1, 1,20,15
281,2407221015.106824,59938.60262432081, 1, 1, 5,15,81951.81706819107, 1, 1,19,15
318,0.0,0.0, 1, 1, 1,15,0.0, 1, 1, 1,15
355,10310294493.051695,18561.32405820678, 1, 2, 4,15,724774.895203776, 1, 1,18,15
403,10310294493.051695,18561.32405820678, 1, 2, 4,15,724774.895203776, 1, 1,18,15
476,5569688622.066177,7098.072629279515, 1, 2, 4,15,356036.3026282215, 1, 1,12,15
513,0.0,0.0, 1, 1, 1,15,0.0, 1, 1, 1,15
562,1793727247.8107727,0.0, 1, 1, 1,15,124098.82631476293, 7, 9,10,60
1046,0.0,0.0, 1, 1, 1,15,0.0, 1, 1, 1,15
1096,15813262303.701395,0.0, 1, 1, 1,15,1457366.8648395066, 6,27,15,60
1134,1591911967.267844,0.0, 1, 1, 1,15,4080961.9715578174, 1, 8, 6,15
1326,4864999226.990439,0.0, 1, 1, 1,15,4050000.0, 1, 2, 7,15
1379,0.0,0.0, 1, 1, 1,15,0.0, 1, 1, 1,15
End of Data
 Number of Records Written=          99
