Program Version,EnergyPlus, Version 22.2.0-c249759bad, YMD=2023.09.01 14:30
1,5,Environment Title[],Latitude[deg],Longitude[deg],Time Zone[],Elevation[m]
2,8,Day of Simulation[],Month[],Day of Month[],DST Indicator[1=yes 0=no],Hour[],StartMinute[],EndMinute[],DayType
3,5,Cumulative Day of Simulation[],Month[],Day of Month[],DST Indicator[1=yes 0=no],DayType  ! When Daily Report Variables Requested
4,2,Cumulative Days of Simulation[],Month[]  ! When Monthly Report Variables Requested
5,1,Cumulative Days of Simulation[] ! When Run Period Report Variables Requested
6,1,Calendar Year of Simulation[] ! When Annual Report Variables Requested
7,1,Environment,Site Outdoor Air Drybulb Temperature [C] !Hourly
619,1,DX_HEATING_COIL,Heating Coil Heating Rate [W] !Hourly
633,1,DX_HEATING_COIL,Heating Coil Electricity Rate [W] !Hourly
659,1,DX_HEATING_COIL,Heating Coil Defrost Electricity Rate [W] !Hourly
661,1,DX_HEATING_COIL,Heating Coil Crankcase Heater Electricity Rate [W] !Hourly
690,1,FAN,Fan Electricity Rate [W] !Hourly
716,1,HEAT PUMP WATER HEATER FAN,Fan Electricity Rate [W] !Hourly
718,1,LIVING,Zone Mean Air Temperature [C] !Hourly
719,1,ATTIC,Zone Mean Air Temperature [C] !Hourly
720,1,CRAWLSPACE,Zone Mean Air Temperature [C] !Hourly
843,1,LIVING,Zone Predicted Sensible Load to Heating Setpoint Heat Transfer Rate [W] !Hourly
844,1,LIVING,Zone System Predicted Sensible Load to Heating Setpoint Heat Transfer Rate [W] !Hourly
907,1,ATTIC,Zone Predicted Sensible Load to Heating Setpoint Heat Transfer Rate [W] !Hourly
908,1,ATTIC,Zone System Predicted Sensible Load to Heating Setpoint Heat Transfer Rate [W] !Hourly
971,1,CRAWLSPACE,Zone Predicted Sensible Load to Heating Setpoint Heat Transfer Rate [W] !Hourly
972,1,CRAWLSPACE,Zone System Predicted Sensible Load to Heating Setpoint Heat Transfer Rate [W] !Hourly
1195,1,HEATING_RESISTANCE_BACKUP,Heating Coil Heating Rate [W] !Hourly
1197,1,HEATING_RESISTANCE_BACKUP,Heating Coil Electricity Rate [W] !Hourly
End of Data Dictionary
1,EXTREME_WINTER,  44.74, -85.58,  -5.00, 188.40
2,1,12,15, 0, 1, 0.00,60.00,Monday
7,-8.9
718,18.636468516453444
719,-5.795923900866024
720,17.40233709248451
619,3284.5621025656133
633,1165.8846010738541
659,5.402944168770686
661,0.0
690,129.31492332455775
716,0.0
843,3446.940033786619
844,3446.940033786619
907,0.0
908,0.0
971,0.0
972,0.0
1195,2204.0578455775353
1197,2204.0578455775353
2,1,12,15, 0, 2, 0.00,60.00,Monday
7,-7.8
718,18.611954600356928
719,-5.0595786677748835
720,16.898062462999782
619,3376.6235653048716
633,1169.8034727577792
659,10.425761186469373
661,0.0
690,129.31492332455775
716,0.0
843,3716.4673654868
844,3716.4673654868
907,0.0
908,0.0
971,0.0
972,0.0
1195,2215.9888449606206
1197,2215.9888449606206
2,1,12,15, 0, 3, 0.00,60.00,Monday
7,-7.8
718,18.608710770078254
719,-4.269073639503276
720,16.66270753677988
619,3363.82179887001
633,1163.8391138095335
659,14.073545863464533
661,0.0
690,129.31492332455775
716,0.0
843,3876.9724729752616
844,3876.9724729752616
907,0.0
908,0.0
971,0.0
972,0.0
1195,2401.529060981191
1197,2401.529060981191
2,1,12,15, 0, 4, 0.00,60.00,Monday
7,-7.0
718,18.604004672734273
719,-3.6954012585377294
720,16.40601116165791
619,3438.778260439324
633,1169.2748458936248
659,15.69579784523996
661,0.0
690,129.31492332455775
716,0.0
843,3995.1275547904406
844,3995.1275547904406
907,0.0
908,0.0
971,0.0
972,0.0
1195,2419.448728872555
1197,2419.448728872555
2,1,12,15, 0, 5, 0.00,60.00,Monday
7,-6.7
718,18.60424338593061
719,-3.6207353989784026
720,16.185168191017528
619,3467.225445262875
633,1170.945738834439
659,16.338284675356036
661,0.0
690,129.31492332455775
716,0.0
843,4447.414552333359
844,4447.414552333359
907,0.0
908,0.0
971,0.0
972,0.0
1195,2928.515829932025
1197,2928.515829932025
2,1,12,15, 0, 6, 0.00,60.00,Monday
7,-7.2
718,19.409689508037427
719,-4.1042517414509545
720,15.976646573773262
619,3420.7433008393873
633,1167.1016643688936
659,15.27799231758738
661,0.0
690,129.31492332455775
716,0.0
843,5568.794243950433
844,5568.794243950433
907,0.0
908,0.0
971,0.0
972,0.0
1195,4319.875801189855
1197,4319.875801189855
2,1,12,15, 0, 7, 0.00,60.00,Monday
7,-8.0
718,19.582654986555937
719,-4.931392317465399
720,15.810704631552012
619,3330.644441679529
633,1178.8547737699039
659,13.68806817053492
661,0.0
690,129.31492332455775
716,85.44000000000007
843,6049.991025752044
844,6049.991025752044
907,0.0
908,0.0
971,0.0
972,0.0
1195,6250.554245106749
1197,6250.554245106749
2,1,12,15, 0, 8, 0.00,60.00,Monday
7,-8.9
718,19.65870048906701
719,-5.147316708606416
720,15.640903814056879
619,3243.9795929987163
633,1175.3875325807821
659,12.047748269538005
661,0.0
690,129.31492332455775
716,85.44000000000007
843,5227.133012775321
844,5227.133012775321
907,0.0
908,0.0
971,0.0
972,0.0
1195,5435.063342885689
1197,5435.063342885689
2,1,12,15, 0, 9, 0.00,60.00,Monday
7,-8.3
718,19.70108987874003
719,-4.777108520979035
720,15.483970316874787
619,3324.1354205746857
633,1190.951726803157
659,6.149841087043325
661,0.0
690,129.31492332455775
716,14.0084687982515
843,5203.383472735601
844,5203.383472735601
907,0.0
908,0.0
971,0.0
972,0.0
1195,4358.267004793777
1197,4358.267004793777
2,1,12,15, 0,10, 0.00,60.00,Monday
7,-8.9
718,19.707062529520602
719,-5.2275630959642765
720,15.321111424994992
619,3230.0669173082338
633,1173.2314875342
659,15.325712240193745
661,0.0
690,129.31492332455775
716,0.0
843,4959.240289525933
844,4959.240289525933
907,0.0
908,0.0
971,0.0
972,0.0
1195,3943.889355964912
1197,3943.889355964912
2,1,12,15, 0,11, 0.00,60.00,Monday
7,-8.3
718,19.7155697123167
719,-4.5751816164401555
720,15.174498067242801
619,3297.6408543915045
633,1182.3222663200595
659,13.124390484646442
661,0.0
690,129.31492332455775
716,0.0
843,4633.807062234058
844,4633.807062234058
907,0.0
908,0.0
971,0.0
972,0.0
1195,3527.814497011933
1197,3527.814497011933
2,1,12,15, 0,12, 0.00,60.00,Monday
7,-10.0
718,19.707594545220616
719,-5.877677745025823
720,15.010873818494247
619,3078.7410845102722
633,1145.1151060162692
659,27.871700415892597
661,0.0
690,129.31492332455775
716,0.0
843,5160.811117223842
844,5160.811117223842
907,0.0
908,0.0
971,0.0
972,0.0
1195,4340.8353784312585
1197,4340.8353784312585
2,1,12,15, 0,13, 0.00,60.00,Monday
7,-9.4
718,19.720269772756374
719,-3.7330686573526055
720,14.88656182568997
619,3185.0259717008776
633,1168.8519768590318
659,14.343215628991185
661,0.0
690,129.31492332455775
716,0.0
843,3949.055670685213
844,3949.055670685213
907,0.0
908,0.0
971,0.0
972,0.0
1195,2851.3717538808514
1197,2851.3717538808514
2,1,12,15, 0,14, 0.00,60.00,Monday
7,-10.0
718,19.708821443099374
719,-4.519002001337434
720,14.745791317723974
619,3120.1372051954854
633,1160.1977594375312
659,16.194647575007416
661,0.0
690,129.31492332455775
716,79.38676404653512
843,4269.758414992735
844,4269.758414992735
907,0.0
908,0.0
971,0.0
972,0.0
1195,4195.993668647108
1197,4195.993668647108
2,1,12,15, 0,15, 0.00,60.00,Monday
7,-10.0
718,19.71994775773164
719,-3.7642469593443417
720,14.625804343730305
619,3106.6655588562435
633,1154.634962901294
659,20.12073138506129
661,0.0
690,129.31492332455775
716,0.0
843,4100.726590266637
844,4100.726590266637
907,0.0
908,0.0
971,0.0
972,0.0
1195,3044.6734517433897
1197,3044.6734517433897
2,1,12,15, 0,16, 0.00,60.00,Monday
7,-10.6
718,19.71440404207093
719,-3.1316541714377317
720,14.506574155997685
619,3012.826288482361
633,1134.6752976188627
659,30.651259228934418
661,0.0
690,129.31492332455775
716,0.0
843,3966.388549701205
844,3966.388549701205
907,0.0
908,0.0
971,0.0
972,0.0
1195,2923.033652277816
1197,2923.033652277816
2,1,12,15, 0,17, 0.00,60.00,Monday
7,-11.0
718,19.71645103386028
719,-5.295620142814525
720,14.387933571668608
619,2989.0631571541007
633,1135.2599120472628
659,26.741626771565
661,0.0
690,129.31492332455775
716,0.0
843,4106.7234121119145
844,4106.7234121119145
907,0.0
908,0.0
971,0.0
972,0.0
1195,3100.3695715867916
1197,3100.3695715867916
2,1,12,15, 0,18, 0.00,60.00,Monday
7,-10.6
718,19.714473360359932
719,-4.968974177703823
720,14.284186089342752
619,3028.926118648834
633,1140.218248084449
659,26.10369922462117
661,0.0
690,129.31492332455775
716,0.0
843,3755.3572242113387
844,3755.3572242113387
907,0.0
908,0.0
971,0.0
972,0.0
1195,2743.8225824171495
1197,2743.8225824171495
2,1,12,15, 0,19, 0.00,60.00,Monday
7,-10.6
718,19.693108022121027
719,-7.431754998884712
720,14.157898241888027
619,3090.535341100476
633,1163.0044252759542
659,8.391533398400957
661,0.0
690,129.31492332455775
716,85.44000000000007
843,4696.461847838114
844,4696.461847838114
907,0.0
908,0.0
971,0.0
972,0.0
1195,5019.276509613253
1197,5019.276509613253
2,1,12,15, 0,20, 0.00,60.00,Monday
7,-11.1
718,19.697875112243132
719,-7.893731866705884
720,14.045839492029671
619,2987.56936136801
633,1135.8732924931576
659,24.70124249332445
661,0.0
690,129.31492332455775
716,85.44000000000007
843,4559.509416119394
844,4559.509416119394
907,0.0
908,0.0
971,0.0
972,0.0
1195,5097.7125387898195
1197,5097.7125387898195
2,1,12,15, 0,21, 0.00,60.00,Monday
7,-11.7
718,19.697931568404854
719,-8.132480148612087
720,13.927205874978458
619,2948.263513110204
633,1135.835466884055
659,19.752820924909006
661,0.0
690,129.31492332455775
716,57.582161678946896
843,4837.615720847103
844,4837.615720847103
907,0.0
908,0.0
971,0.0
972,0.0
1195,5113.554037666641
1197,5113.554037666641
2,1,12,15, 0,22, 0.00,60.00,Monday
7,-12.8
718,19.702474505096287
719,-9.01317786321519
720,13.798570839887498
619,2844.894590036864
633,1122.9066650545976
659,20.386468711249204
661,0.0
690,129.31492332455775
716,0.0
843,5215.67310706888
844,5215.67310706888
907,0.0
908,0.0
971,0.0
972,0.0
1195,4874.0860850882655
1197,4874.0860850882655
2,1,12,15, 0,23, 0.00,60.00,Monday
7,-13.3
718,18.891725398722286
719,-9.239179932873672
720,13.670365043681363
619,2793.9711522506036
633,1115.075584586474
659,22.1431071735596
661,0.0
690,129.31492332455775
716,0.0
843,5297.829971955634
844,5297.829971955634
907,0.0
908,0.0
971,0.0
972,0.0
1195,5112.342063461
1197,5112.342063461
2,1,12,15, 0,24, 0.00,60.00,Monday
7,-13.3
718,18.682170974307283
719,-9.307576607592878
720,13.51321787275037
619,2830.344125890236
633,1107.1819243699442
659,15.589884255976807
661,0.0
690,129.31492332455775
716,0.0
843,4524.378282814865
844,4524.378282814865
907,0.0
908,0.0
971,0.0
972,0.0
1195,4047.7803406358853
1197,4047.7803406358853
2,2,12,16, 0, 1, 0.00,60.00,Tuesday
7,-12.8
718,18.623032724597316
719,-9.017780410263255
720,13.380103088303752
619,2912.303556685047
633,1120.4977873773944
659,5.722023244538103
661,0.0
690,129.31492332455775
716,0.0
843,4954.5118241829005
844,4954.5118241829005
907,0.0
908,0.0
971,0.0
972,0.0
1195,4498.18805239571
1197,4498.18805239571
2,2,12,16, 0, 2, 0.00,60.00,Tuesday
7,-12.8
718,18.598743401662862
719,-8.802540025223347
720,13.242336360922298
619,2913.588910578588
633,1119.1368155694547
659,5.722023244538103
661,0.0
690,129.31492332455775
716,0.0
843,5547.937374355339
844,5547.937374355339
907,0.0
908,0.0
971,0.0
972,0.0
1195,5177.430554150174
1197,5177.430554150174
2,2,12,16, 0, 3, 0.00,60.00,Tuesday
7,-12.2
718,18.599700154345093
719,-8.860890197348027
720,13.108560328208076
619,2948.9981444755367
633,1116.7152590626333
659,12.137309965254376
661,0.0
690,129.31492332455775
716,0.0
843,5819.726125160283
844,5819.726125160283
907,0.0
908,0.0
971,0.0
972,0.0
1195,5493.171386388931
1197,5493.171386388931
2,2,12,16, 0, 4, 0.00,60.00,Tuesday
7,-12.2
718,18.59368334329478
719,-8.27908723769831
720,12.982895314133929
619,2959.98498613431
633,1120.718583408368
659,8.859069986529464
661,0.0
690,129.31492332455775
716,0.0
843,5779.130966074605
844,5779.130966074605
907,0.0
908,0.0
971,0.0
972,0.0
1195,5406.822828933681
1197,5406.822828933681
2,2,12,16, 0, 5, 0.00,60.00,Tuesday
7,-11.7
718,18.604069597196727
719,-8.129182992935142
720,12.86030801683448
619,2993.3473283268395
633,1120.447513222822
659,12.981881482864813
661,0.0
690,129.31492332455775
716,0.0
843,5305.988355913274
844,5305.988355913274
907,0.0
908,0.0
971,0.0
972,0.0
1195,4790.700184902365
1197,4790.700184902365
2,2,12,16, 0, 6, 0.00,60.00,Tuesday
7,-12.2
718,19.359042904906836
719,-8.38798925213744
720,12.732829259725042
619,2930.4727517307047
633,1109.2290338091707
659,17.817959489585956
661,0.0
690,129.31492332455775
716,0.0
843,6752.603496603504
844,6752.603496603504
907,0.0
908,0.0
971,0.0
972,0.0
1195,6485.790228618066
1197,6485.790228618066
2,2,12,16, 0, 7, 0.00,60.00,Tuesday
7,-12.0
718,19.245369773243524
719,-8.006627378099173
720,12.65183257568464
619,2917.1294243412767
633,1119.7152788081346
659,23.145008469321986
661,0.0
690,129.31492332455775
716,85.44000000000007
843,6315.100097828319
844,6315.100097828319
907,0.0
908,0.0
971,0.0
972,0.0
1195,6485.790228618066
1197,6485.790228618066
2,2,12,16, 0, 8, 0.00,60.00,Tuesday
7,-11.7
718,19.41322940568963
719,-7.6540811991563995
720,12.532966369898803
619,2958.545908726806
633,1124.8008328959743
659,19.752820924909006
661,0.0
690,129.31492332455775
716,85.44000000000007
843,5897.03337044301
844,5897.03337044301
907,0.0
908,0.0
971,0.0
972,0.0
1195,6485.790228618066
1197,6485.790228618066
2,2,12,16, 0, 9, 0.00,60.00,Tuesday
7,-11.0
718,19.55026057291769
719,-7.114597288199834
720,12.441842105592341
619,3021.528115250283
633,1135.6095825701595
659,19.639631502468166
661,0.0
690,129.31492332455775
716,85.44000000000007
843,5810.01801385428
844,5810.01801385428
907,0.0
908,0.0
971,0.0
972,0.0
1195,6485.790228618066
1197,6485.790228618066
2,2,12,16, 0,10, 0.00,60.00,Tuesday
7,-11.1
718,19.664057038920195
719,-7.027139115373829
720,12.343956349769151
619,3004.30603419682
633,1135.3169394967563
659,21.179919022399815
661,0.0
690,129.31492332455775
716,28.67615809294017
843,5217.1478529358355
844,5217.1478529358355
907,0.0
908,0.0
971,0.0
972,0.0
1195,5032.649108332542
1197,5032.649108332542
2,2,12,16, 0,11, 0.00,60.00,Tuesday
7,-10.6
718,19.704993983796257
719,-5.589176386581674
720,12.258954271730197
619,3045.8396046259536
633,1141.4958958683949
659,22.220609019021914
661,0.0
690,129.31492332455775
716,0.0
843,4913.0680091799695
844,4913.0680091799695
907,0.0
908,0.0
971,0.0
972,0.0
1195,4291.008761415249
1197,4291.008761415249
2,2,12,16, 0,12, 0.00,60.00,Tuesday
7,-10.0
718,19.70688896268784
719,-4.943168607421919
720,12.172928369561385
619,3096.796647581446
633,1146.4535153037457
659,23.78713896377042
661,0.0
690,129.31492332455775
716,0.0
843,4922.6779957945255
844,4922.6779957945255
907,0.0
908,0.0
971,0.0
972,0.0
1195,4155.808621274299
1197,4155.808621274299
2,2,12,16, 0,13, 0.00,60.00,Tuesday
7,-9.4
718,19.719261321837852
719,-3.4980883613328677
720,12.098175281602773
619,3162.3850411054077
633,1155.5113578380826
659,21.592440396858166
661,0.0
690,129.31492332455775
716,0.0
843,4302.348423031752
844,4302.348423031752
907,0.0
908,0.0
971,0.0
972,0.0
1195,3321.0622976760756
1197,3321.0622976760756
2,2,12,16, 0,14, 0.00,60.00,Tuesday
7,-8.9
718,19.71330946435054
719,-4.34711973689507
720,12.027681999054122
619,3203.1665493398705
633,1157.9581399392375
659,23.718286276180898
661,0.0
690,129.31492332455775
716,0.0
843,4226.866662063092
844,4226.866662063092
907,0.0
908,0.0
971,0.0
972,0.0
1195,3098.3923723975486
1197,3098.3923723975486
2,2,12,16, 0,15, 0.00,60.00,Tuesday
7,-8.9
718,19.71428801474448
719,-3.8845419569053825
720,11.965204232365863
619,3202.484989101909
633,1157.4538444271088
659,23.952617630237206
661,0.0
690,129.31492332455775
716,0.0
843,4420.193062736471
844,4420.193062736471
907,0.0
908,0.0
971,0.0
972,0.0
1195,3394.697130358905
1197,3394.697130358905
2,2,12,16, 0,16, 0.00,60.00,Tuesday
7,-8.3
718,19.711970899316977
719,-3.862097584196091
720,11.911191631760028
619,3271.8123130544527
633,1167.2698027668653
659,21.126571734642088
661,0.0
690,129.31492332455775
716,0.0
843,4323.21305054888
844,4323.21305054888
907,0.0
908,0.0
971,0.0
972,0.0
1195,3168.3537225139785
1197,3168.3537225139785
2,2,12,16, 0,17, 0.00,60.00,Tuesday
7,-8.3
718,19.7204709648604
719,-2.169544327771593
720,11.859641729410813
619,3289.5136534367093
633,1173.48306315307
659,16.385639131674857
661,0.0
690,129.31492332455775
716,0.0
843,3750.860965053793
844,3750.860965053793
907,0.0
908,0.0
971,0.0
972,0.0
1195,2470.8195228519708
1197,2470.8195228519708
2,2,12,16, 0,18, 0.00,60.00,Tuesday
7,-8.3
718,19.716712122060517
719,-2.577504705140317
720,11.80657086198505
619,3288.708632810017
633,1173.3661983188417
659,16.571233832600264
661,0.0
690,129.31492332455775
716,0.0
843,3593.730788342569
844,3593.730788342569
907,0.0
908,0.0
971,0.0
972,0.0
1195,2178.2346995243156
1197,2178.2346995243156
2,2,12,16, 0,19, 0.00,60.00,Tuesday
7,-8.9
718,19.699427612704472
719,-2.981563283217424
720,11.75207653439845
619,3202.6362203645735
633,1157.2846192619938
659,23.952617630237206
661,0.0
690,129.31492332455775
716,85.44000000000007
843,3412.4449210376624
844,3412.4449210376624
907,0.0
908,0.0
971,0.0
972,0.0
1195,3226.175916034491
1197,3226.175916034491
2,2,12,16, 0,20, 0.00,60.00,Tuesday
7,-9.4
718,19.704312570120226
719,-3.854571306304107
720,11.697712122312662
619,3189.7327547383616
633,1164.5066735894732
659,14.176750046079043
661,0.0
690,129.31492332455775
716,85.44000000000007
843,3471.0316184964486
844,3471.0316184964486
907,0.0
908,0.0
971,0.0
972,0.0
1195,3415.1965983941204
1197,3415.1965983941204
2,2,12,16, 0,21, 0.00,60.00,Tuesday
7,-9.4
718,19.696577426539342
719,-3.662873154507927
720,11.64650811319489
619,3177.8538262817915
633,1160.246773667808
659,17.4642665779429
661,0.0
690,129.31492332455775
716,85.44000000000007
843,3499.262533002475
844,3499.262533002475
907,0.0
908,0.0
971,0.0
972,0.0
1195,3519.640975686705
1197,3519.640975686705
2,2,12,16, 0,22, 0.00,60.00,Tuesday
7,-9.4
718,19.707728595333137
719,-3.525522285559989
720,11.59267967059693
619,3164.0919930472264
633,1154.9026192788879
659,21.349881286646454
661,0.0
690,129.31492332455775
716,36.12899334910604
843,3617.4230080421676
844,3617.4230080421676
907,0.0
908,0.0
971,0.0
972,0.0
1195,2883.660417537129
1197,2883.660417537129
2,2,12,16, 0,23, 0.00,60.00,Tuesday
7,-10.6
718,18.92188003924621
719,-4.112076991424153
720,11.528414054258462
619,3058.689476155426
633,1146.2575932617901
659,18.524558032224345
661,0.0
690,129.31492332455775
716,0.0
843,2918.763584214803
844,2918.763584214803
907,0.0
908,0.0
971,0.0
972,0.0
1195,1688.5563374029557
1197,1688.5563374029557
2,2,12,16, 0,24, 0.00,60.00,Tuesday
7,-10.6
718,18.695127277683856
719,-4.281643614147525
720,11.43460191460691
619,3073.8761529457825
633,1129.668109769538
659,18.519280914532196
661,0.0
690,129.31492332455775
716,0.0
843,3384.042766944256
844,3384.042766944256
907,0.0
908,0.0
971,0.0
972,0.0
1195,2194.1372433204015
1197,2194.1372433204015
2,3,12,17, 0, 1, 0.00,60.00,Wednesday
7,-10.0
718,18.62957106532922
719,-4.666773581891855
720,11.36838103525648
619,3130.881536849928
633,1129.070181059413
659,19.896309580071353
661,0.0
690,129.31492332455775
716,0.0
843,3800.5458913851253
844,3800.5458913851253
907,0.0
908,0.0
971,0.0
972,0.0
1195,2643.3640954118146
1197,2643.3640954118146
2,3,12,17, 0, 2, 0.00,60.00,Wednesday
7,-11.1
718,18.606514051483224
719,-5.00698819663768
720,11.287972894401557
619,3023.870690186339
633,1115.2417337793252
659,20.942140976229624
661,0.0
690,129.31492332455775
716,0.0
843,4180.101219886823
844,4180.101219886823
907,0.0
908,0.0
971,0.0
972,0.0
1195,3212.4574176163087
1197,3212.4574176163087
2,3,12,17, 0, 3, 0.00,60.00,Wednesday
7,-10.6
718,18.604676269401985
719,-5.486817797691517
720,11.219667339514288
619,3080.1377951901427
633,1122.7617965641848
659,18.526378425376578
661,0.0
690,129.31492332455775
716,0.0
843,4356.439784576325
844,4356.439784576325
907,0.0
908,0.0
971,0.0
972,0.0
1195,3404.1971927798418
1197,3404.1971927798418
2,3,12,17, 0, 4, 0.00,60.00,Wednesday
7,-10.0
718,18.600224725026944
719,-5.2418389156319165
720,11.149731283613606
619,3146.622537737045
633,1131.8348605821939
659,16.025553996077235
661,0.0
690,129.31492332455775
716,0.0
843,4430.218022661253
844,4430.218022661253
907,0.0
908,0.0
971,0.0
972,0.0
1195,3439.2598225988318
1197,3439.2598225988318
2,3,12,17, 0, 5, 0.00,60.00,Wednesday
7,-10.6
718,18.604627675353946
719,-5.371341649475075
720,11.073268723618222
619,3090.0270602875803
633,1125.9583087484748
659,15.773580737660698
661,0.0
690,129.31492332455775
716,0.0
843,4426.355537522779
844,4426.355537522779
907,0.0
908,0.0
971,0.0
972,0.0
1195,3494.2776313033146
1197,3494.2776313033146
2,3,12,17, 0, 6, 0.00,60.00,Wednesday
7,-10.6
718,19.288219651907916
719,-4.499664359332075
720,11.002511659401002
619,3090.0249998671716
633,1125.9375222095248
659,15.778094869784656
661,0.0
690,129.31492332455775
716,79.82001858377662
843,5582.329738837094
844,5582.329738837094
907,0.0
908,0.0
971,0.0
972,0.0
1195,5862.163076247942
1197,5862.163076247942
2,3,12,17, 0, 7, 0.00,60.00,Wednesday
7,-10.0
718,19.54508405686697
719,-3.6905591999548863
720,10.967990624882033
619,3144.0899079762207
633,1149.8466807369196
659,13.106785553764972
661,0.0
690,129.31492332455775
716,85.44000000000007
843,5181.814784422331
844,5181.814784422331
907,0.0
908,0.0
971,0.0
972,0.0
1195,5561.040542887455
1197,5561.040542887455
2,3,12,17, 0, 8, 0.00,60.00,Wednesday
7,-10.0
718,19.648165771481107
719,-3.5607282719717563
720,10.909915284726816
619,3128.7752094634766
633,1151.4863284719827
659,16.039470571152094
661,0.0
690,129.31492332455775
716,74.33685589156079
843,4836.718878443155
844,4836.718878443155
907,0.0
908,0.0
971,0.0
972,0.0
1195,4968.078484735661
1197,4968.078484735661
2,3,12,17, 0, 9, 0.00,60.00,Wednesday
7,-8.3
718,19.705688560291712
719,-2.8958607027983025
720,10.866401375089755
619,3304.600545358597
633,1175.1786922993783
659,12.996893449199673
661,0.0
690,129.31492332455775
716,0.0
843,4570.637032420378
844,4570.637032420378
907,0.0
908,0.0
971,0.0
972,0.0
1195,3452.3072952502225
1197,3452.3072952502225
2,3,12,17, 0,10, 0.00,60.00,Wednesday
7,-7.8
718,19.71005595313775
719,-1.9442594211421238
720,10.814192560350245
619,3318.002049835242
633,1168.9975452577114
659,22.413423178244223
661,0.0
690,129.31492332455775
716,0.0
843,4434.2942237629795
844,4434.2942237629795
907,0.0
908,0.0
971,0.0
972,0.0
1195,3227.1303131219474
1197,3227.1303131219474
2,3,12,17, 0,11, 0.00,60.00,Wednesday
7,-7.2
718,19.7186747496455
719,-0.4659950940568654
720,10.7691171480085
619,3357.4753096716568
633,1167.958336149375
659,27.74173865864206
661,0.0
690,129.31492332455775
716,0.0
843,4130.66621237702
844,4130.66621237702
907,0.0
908,0.0
971,0.0
972,0.0
1195,2786.0266618136225
1197,2786.0266618136225
2,3,12,17, 0,12, 0.00,60.00,Wednesday
7,-5.6
718,19.719161952060226
719,2.0158082210031973
720,10.74014630789592
619,3532.628612219603
633,1188.6449118510252
659,24.425378949058704
661,0.0
690,129.31492332455775
716,0.0
843,3419.9061965717174
844,3419.9061965717174
907,0.0
908,0.0
971,0.0
972,0.0
1195,1659.1832989311704
1197,1659.1832989311704
2,3,12,17, 0,13, 0.00,60.00,Wednesday
7,-5.6
718,19.724156226224558
719,4.473104602539771
720,10.710911521828583
619,3509.921652090502
633,1180.9726572602217
659,30.063981091382736
661,0.0
690,129.31492332455775
716,0.0
843,3128.75868023618
844,3128.75868023618
907,0.0
908,0.0
971,0.0
972,0.0
1195,1202.8966324969279
1197,1202.8966324969279
2,3,12,17, 0,14, 0.00,60.00,Wednesday
7,-4.4
718,19.719910729329975
719,4.23156464227269
720,10.703040853108268
619,3687.9568218900445
633,1210.8385301884941
659,17.083461266340176
661,0.0
690,129.31492332455775
716,0.0
843,3242.2167466944393
844,3242.2167466944393
907,0.0
908,0.0
971,0.0
972,0.0
1195,1027.560462694225
1197,1027.560462694225
2,3,12,17, 0,15, 0.00,60.00,Wednesday
7,-5.6
718,19.704129366615884
719,4.7347806037625855
720,10.687607828617987
619,3532.4237486717466
633,1188.4867390564184
659,24.49099323888389
661,0.0
690,129.31492332455775
716,72.68387845126196
843,3223.280781368225
844,3223.280781368225
907,0.0
908,0.0
971,0.0
972,0.0
1195,2134.487993257666
1197,2134.487993257666
2,3,12,17, 0,16, 0.00,60.00,Wednesday
7,-6.1
718,19.708891779498483
719,3.940227246300903
720,10.681926512049913
619,3508.822346120742
633,1192.354118373247
659,17.615915594332083
661,0.0
690,129.31492332455775
716,82.76456560456232
843,3238.735017811532
844,3238.735017811532
907,0.0
908,0.0
971,0.0
972,0.0
1195,2294.7403171365004
1197,2294.7403171365004
2,3,12,17, 0,17, 0.00,60.00,Wednesday
7,-7.2
718,19.721703069049962
719,2.069045692071643
720,10.671964726618596
619,3358.0040771817626
633,1167.8642298218765
659,27.65275403156515
661,0.0
690,129.31492332455775
716,0.0
843,3286.2270312130804
844,3286.2270312130804
907,0.0
908,0.0
971,0.0
972,0.0
1195,1444.894434007635
1197,1444.894434007635
2,3,12,17, 0,18, 0.00,60.00,Wednesday
7,-7.8
718,19.71730549524861
719,0.27056087186605865
720,10.663852170237002
619,3300.4856957115785
633,1162.9053090155776
659,27.03664437845197
661,0.0
690,129.31492332455775
716,0.0
843,3350.0451878255935
844,3350.0451878255935
907,0.0
908,0.0
971,0.0
972,0.0
1195,1676.868619066952
1197,1676.868619066952
2,3,12,17, 0,19, 0.00,60.00,Wednesday
7,-7.8
718,19.71899031677152
719,-0.9279216793828868
720,10.653532798952428
619,3287.104931281939
633,1158.0650157154143
659,30.601519250643662
661,0.0
690,129.31492332455775
716,0.0
843,3134.138781782036
844,3134.138781782036
907,0.0
908,0.0
971,0.0
972,0.0
1195,1533.3611622385229
1197,1533.3611622385229
2,3,12,17, 0,20, 0.00,60.00,Wednesday
7,-8.3
718,19.711360305051606
719,-1.3341224475825963
720,10.634105889443347
619,3227.6844312756425
633,1149.3937385133484
659,33.377613993678594
661,0.0
690,129.31492332455775
716,85.44000000000007
843,2952.748769650998
844,2952.748769650998
907,0.0
908,0.0
971,0.0
972,0.0
1195,2697.5622796376238
1197,2697.5622796376238
2,3,12,17, 0,21, 0.00,60.00,Wednesday
7,-8.3
718,19.698824958925748
719,-1.9970560643579676
720,10.611129093303333
619,3244.1985034708273
633,1155.0000656284656
659,28.98910802978521
661,0.0
690,129.31492332455775
716,85.44000000000007
843,3162.2019294033744
844,3162.2019294033744
907,0.0
908,0.0
971,0.0
972,0.0
1195,2950.562518639742
1197,2950.562518639742
2,3,12,17, 0,22, 0.00,60.00,Wednesday
7,-8.9
718,19.71059466547508
719,-2.088615670433262
720,10.577545055442366
619,3177.324019627369
633,1145.517541919495
659,31.367636808659533
661,0.0
690,129.31492332455775
716,32.41814337086102
843,3147.159188305637
844,3147.159188305637
907,0.0
908,0.0
971,0.0
972,0.0
1195,2200.94248065967
1197,2200.94248065967
2,3,12,17, 0,23, 0.00,60.00,Wednesday
7,-8.9
718,18.931952149596494
719,-2.920706883840101
720,10.541630004249809
619,3176.87968044708
633,1145.633423058556
659,31.438177538501293
661,0.0
690,129.31492332455775
716,0.0
843,2380.1134851133393
844,2380.1134851133393
907,0.0
908,0.0
971,0.0
972,0.0
1195,861.389749142829
1197,861.389749142829
2,3,12,17, 0,24, 0.00,60.00,Wednesday
7,-8.9
718,18.703190032726344
719,-2.8152494816816644
720,10.46319489713452
619,3192.0375919259864
633,1129.028152229627
659,31.367636808659533
661,0.0
690,129.31492332455775
716,0.0
843,2836.7140985814076
844,2836.7140985814076
907,0.0
908,0.0
971,0.0
972,0.0
1195,1372.700093925129
1197,1372.700093925129
2,4,12,18, 0, 1, 0.00,60.00,Thursday
7,-8.9
718,18.63358025073063
719,-2.5526709332604454
720,10.410791705856335
619,3180.5718886581294
633,1118.4872473414794
659,35.687558817161424
661,0.0
690,129.31492332455775
716,0.0
843,3270.289832092587
844,3270.289832092587
907,0.0
908,0.0
971,0.0
972,0.0
1195,1889.684617168151
1197,1889.684617168151
2,4,12,18, 0, 2, 0.00,60.00,Thursday
7,-8.9
718,18.610236659026242
719,-3.1879826361204002
720,10.355335010991096
619,3197.839160927925
633,1122.5165445431999
659,31.367636808659533
661,0.0
690,129.31492332455775
716,0.0
843,3659.8236456968643
844,3659.8236456968643
907,0.0
908,0.0
971,0.0
972,0.0
1195,2315.1176222107715
1197,2315.1176222107715
2,4,12,18, 0, 3, 0.00,60.00,Thursday
7,-8.9
718,18.606340451429336
719,-3.3112100972580567
720,10.301591992850092
619,3198.344528700458
633,1121.949092213602
659,31.367636808659533
661,0.0
690,129.31492332455775
716,0.0
843,3857.5375724057158
844,3857.5375724057158
907,0.0
908,0.0
971,0.0
972,0.0
1195,2598.418479502815
1197,2598.418479502815
2,4,12,18, 0, 4, 0.00,60.00,Thursday
7,-8.9
718,18.60272961736041
719,-2.9884409248317767
720,10.248180136261162
619,3257.4936082728887
633,1142.4944784896124
659,15.325712240193745
661,0.0
690,129.31492332455775
716,0.0
843,3954.329309254703
844,3954.329309254703
907,0.0
908,0.0
971,0.0
972,0.0
1195,2652.0745562363622
1197,2652.0745562363622
2,4,12,18, 0, 5, 0.00,60.00,Thursday
7,-8.9
718,18.60651036175398
719,-2.8433513773886006
720,10.195373299869141
619,3198.609664169677
633,1121.6513703935975
659,31.367636808659533
661,0.0
690,129.31492332455775
716,0.0
843,3917.5722075487956
844,3917.5722075487956
907,0.0
908,0.0
971,0.0
972,0.0
1195,2661.789792104816
1197,2661.789792104816
2,4,12,18, 0, 6, 0.00,60.00,Thursday
7,-10.6
718,19.40427721539043
719,-3.488237837204538
720,10.132366723535988
619,3038.3388567485163
633,1105.703703257922
659,30.856365034347274
661,0.0
690,129.31492332455775
716,0.0
843,5247.483539857356
844,5247.483539857356
907,0.0
908,0.0
971,0.0
972,0.0
1195,4406.072718885465
1197,4406.072718885465
2,4,12,18, 0, 7, 0.00,60.00,Thursday
7,-13.3
718,19.576767342609205
719,-4.3202823428587065
720,10.102169338811333
619,2782.6212008272078
633,1096.4639571807513
659,28.785524842059463
661,0.0
690,129.31492332455775
716,85.44000000000007
843,5405.538237443692
844,5405.538237443692
907,0.0
908,0.0
971,0.0
972,0.0
1195,6216.754552726126
1197,6216.754552726126
2,4,12,18, 0, 8, 0.00,60.00,Thursday
7,-12.0
718,19.656046539607523
719,-4.323159133977655
720,10.06540260226917
619,2894.6196666965807
633,1112.6533235175402
659,29.590608236411594
661,0.0
690,129.31492332455775
716,85.44000000000007
843,4914.141351268634
844,4914.141351268634
907,0.0
908,0.0
971,0.0
972,0.0
1195,5591.45209123251
1197,5591.45209123251
2,4,12,18, 0, 9, 0.00,60.00,Thursday
7,-8.9
718,19.68517700412942
719,-3.6099596399188867
720,10.038333611162304
619,3162.70553956182
633,1138.0922267831947
659,35.7663425434963
661,0.0