Program Version,EnergyPlus, Version 22.2.0-c249759bad, YMD=2023.07.07 15:12
1,5,Environment Title[],Latitude[deg],Longitude[deg],Time Zone[],Elevation[m]
2,8,Day of Simulation[],Month[],Day of Month[],DST Indicator[1=yes 0=no],Hour[],StartMinute[],EndMinute[],DayType
3,5,Cumulative Day of Simulation[],Month[],Day of Month[],DST Indicator[1=yes 0=no],DayType  ! When Daily Report Variables Requested
4,2,Cumulative Days of Simulation[],Month[]  ! When Monthly Report Variables Requested
5,1,Cumulative Days of Simulation[] ! When Run Period Report Variables Requested
6,1,Calendar Year of Simulation[] ! When Annual Report Variables Requested
581,11,LIVING,AFN Zone Infiltration Air Change Rate [ach] !RunPeriod [Value,Min,Month,Day,Hour,Minute,Max,Month,Day,Hour,Minute]
582,11,ATTIC,AFN Zone Infiltration Air Change Rate [ach] !RunPeriod [Value,Min,Month,Day,Hour,Minute,Max,Month,Day,Hour,Minute]
583,11,CRAWLSPACE,AFN Zone Infiltration Air Change Rate [ach] !RunPeriod [Value,Min,Month,Day,Hour,Minute,Max,Month,Day,Hour,Minute]
1038,11,Facility,Facility Heating Setpoint Not Met Time [hr] !RunPeriod [Value,Min,Month,Day,Hour,Minute,Max,Month,Day,Hour,Minute]
1039,11,Facility,Facility Cooling Setpoint Not Met Time [hr] !RunPeriod [Value,Min,Month,Day,Hour,Minute,Max,Month,Day,Hour,Minute]
1115,11,DX_HEATING_COIL,Heating Coil Heating Energy [J] !RunPeriod [Value,Min,Month,Day,Hour,Minute,Max,Month,Day,Hour,Minute]
1128,11,DX_HEATING_COIL,Heating Coil Electricity Energy [J] !RunPeriod [Value,Min,Month,Day,Hour,Minute,Max,Month,Day,Hour,Minute]
1153,11,DX_HEATING_COIL,Heating Coil Defrost Electricity Energy [J] !RunPeriod [Value,Min,Month,Day,Hour,Minute,Max,Month,Day,Hour,Minute]
1154,11,DX_HEATING_COIL,Heating Coil Crankcase Heater Electricity Energy [J] !RunPeriod [Value,Min,Month,Day,Hour,Minute,Max,Month,Day,Hour,Minute]
1156,11,HEATING_RESISTANCE_BACKUP,Heating Coil Electricity Energy [J] !RunPeriod [Value,Min,Month,Day,Hour,Minute,Max,Month,Day,Hour,Minute]
13,11,Electricity:Facility [J] !RunPeriod [Value,Min,Month,Day,Hour,Minute,Max,Month,Day,Hour,Minute]
1134,11,Heating:Electricity [J] !RunPeriod [Value,Min,Month,Day,Hour,Minute,Max,Month,Day,Hour,Minute]
1096,11,Cooling:Electricity [J] !RunPeriod [Value,Min,Month,Day,Hour,Minute,Max,Month,Day,Hour,Minute]
562,11,Fans:Electricity [J] !RunPeriod [Value,Min,Month,Day,Hour,Minute,Max,Month,Day,Hour,Minute]
1388,11,Pumps:Electricity [J] !RunPeriod [Value,Min,Month,Day,Hour,Minute,Max,Month,Day,Hour,Minute]
1360,11,WaterSystems:Electricity [J] !RunPeriod [Value,Min,Month,Day,Hour,Minute,Max,Month,Day,Hour,Minute]
61,11,InteriorLights:Electricity [J] !RunPeriod [Value,Min,Month,Day,Hour,Minute,Max,Month,Day,Hour,Minute]
1046,11,ExteriorLights:Electricity [J] !RunPeriod [Value,Min,Month,Day,Hour,Minute,Max,Month,Day,Hour,Minute]
134,11,InteriorEquipment:Electricity [J] !RunPeriod [Value,Min,Month,Day,Hour,Minute,Max,Month,Day,Hour,Minute]
170,11,gas_dryer:InteriorEquipment:Electricity [J] !RunPeriod [Value,Min,Month,Day,Hour,Minute,Max,Month,Day,Hour,Minute]
207,11,clotheswasher:InteriorEquipment:Electricity [J] !RunPeriod [Value,Min,Month,Day,Hour,Minute,Max,Month,Day,Hour,Minute]
244,11,dishwasher:InteriorEquipment:Electricity [J] !RunPeriod [Value,Min,Month,Day,Hour,Minute,Max,Month,Day,Hour,Minute]
281,11,refrigerator:InteriorEquipment:Electricity [J] !RunPeriod [Value,Min,Month,Day,Hour,Minute,Max,Month,Day,Hour,Minute]
318,11,electric_mels:InteriorEquipment:Electricity [J] !RunPeriod [Value,Min,Month,Day,Hour,Minute,Max,Month,Day,Hour,Minute]
355,11,NaturalGas:Facility [J] !RunPeriod [Value,Min,Month,Day,Hour,Minute,Max,Month,Day,Hour,Minute]
1323,11,WaterSystems:NaturalGas [J] !RunPeriod [Value,Min,Month,Day,Hour,Minute,Max,Month,Day,Hour,Minute]
403,11,InteriorEquipment:NaturalGas [J] !RunPeriod [Value,Min,Month,Day,Hour,Minute,Max,Month,Day,Hour,Minute]
476,11,gas_dryer:InteriorEquipment:NaturalGas [J] !RunPeriod [Value,Min,Month,Day,Hour,Minute,Max,Month,Day,Hour,Minute]
513,11,gas_mels:InteriorEquipment:NaturalGas [J] !RunPeriod [Value,Min,Month,Day,Hour,Minute,Max,Month,Day,Hour,Minute]
End of Data Dictionary
1,EXTREME_WINTER,  33.63, -84.44,  -5.00, 307.90
5,7
1038,0.3333333333333333,0.0, 2,10, 1,10,0.16666666666666666, 2,11, 6,10
1039,0.0,0.0, 2,10, 1,10,0.0, 2,10, 1,10
581,0.30740478071765986,0.12972749659833568, 2,10, 6, 2,0.7284183707583303, 2,12, 8,53
582,6.359446107392124,0.0, 2,10, 1,45,20.499114468920034, 2,12, 8,53
583,6.6326261553492145,0.0002059882331329185, 2,15,23,60,19.69715864725125, 2,12, 8,53
1115,1015014688.9127594,0.0, 2,10, 6, 7,2901371.249296027, 2,12, 6,60
1128,302950232.49409485,0.0, 2,10, 6, 7,852719.4398856616, 2,12, 7,10
1153,21236975.898570254,0.0, 2,10, 1,23,71772.63706180724, 2,13, 7,50
1154,62738531.001254566,0.0, 2,10, 6, 2,120000.0, 2,10,16,10
1156,29909949.42245419,0.0, 2,10, 1, 2,1059588.6582255226, 2,12, 9,10
13,841167162.971762,186324.6925987483, 2,14,15,10,2753877.3457044107, 2,12, 6,10
61,301924526.0238348,58759.40635443481, 2,10, 1,10,854682.2742463244, 2,10,20,10
134,70666020.44019979,42376.01200569399, 2,10, 4,10,104369.48322671017, 2,15,20,10
170,5241013.419656074,232.27731661587313, 2,10, 4,10,11650.931360040839, 2,15,12,10
207,6509451.13922266,543.5021409221355, 2,10, 3,10,15327.095199349082, 2,15,10,10
244,12749673.39982522,1014.5707620042115, 2,10, 4,10,35359.08742820678, 2,15,20,10
281,46165882.48149605,39959.06841621388, 2,10, 5,10,54634.54471212738, 2,10,19,10
318,0.0,0.0, 2,10, 1,10,0.0, 2,10, 1,10
355,742395364.449541,12374.216038804521, 2,10, 4,10,3829218.154066982, 2,14,18,20
403,197687796.27748126,12374.216038804521, 2,10, 4,10,483183.26346918393, 2,15,18,10
476,106772067.24485692,4732.048419519677, 2,10, 4,10,237357.535085481, 2,15,12,10
513,0.0,0.0, 2,10, 1,10,0.0, 2,10, 1,10
562,35508265.96605872,0.0, 2,10,15,20,96048.7025494774, 2,12, 4,60
1046,0.0,0.0, 2,10, 1,10,0.0, 2,10, 1,10
1096,11212821.725295968,0.0, 2,10, 1,10,279738.3370494266, 2,16,17,10
1134,416835688.81637347,0.0, 2,14,11,50,2245644.3018407393, 2,12, 6,10
1323,544707568.1720566,0.0, 2,10, 1,10,3375000.0000000023, 2,11,20,30
1360,5019840.0,4979.999999999999, 2,12, 6,10,4980.000000000001, 2,10, 1,10
1388,0.0,0.0, 2,10, 1,10,0.0, 2,10, 1,10
1,EXTREME_SUMMER,  33.63, -84.44,  -5.00, 307.90
5,7
1038,0.0,0.0, 6,15, 1,10,0.0, 6,15, 1,10
1039,42.166666666666664,0.0, 6,15, 1,10,0.16666666666666666, 6,15,15,10
581,0.07295237233847165,0.0, 6,15, 1,10,0.3703937562803709, 6,20,12,53
582,3.1127418602063748,0.0, 6,15,21, 2,16.91813644620383, 6,20,12,53
583,3.41852659041562,0.0, 6,18,23, 2,13.42150037069826, 6,20,12,53
1115,0.0,0.0, 6,15, 1,10,0.0, 6,15, 1,10
1128,0.0,0.0, 6,15, 1,10,0.0, 6,15, 1,10
1153,0.0,0.0, 6,15, 1,10,0.0, 6,15, 1,10
1154,0.0,0.0, 6,15, 1,10,0.0, 6,15, 1,10
1156,0.0,0.0, 6,15, 1,10,0.0, 6,15, 1,10
13,1072157927.104358,198998.58478362145, 6,19, 4,60,2021617.7246120132, 6,17,20,10
61,301924526.0238348,58759.40635443481, 6,15, 1,10,854682.2742463244, 6,15,20,10
134,70666020.44019979,42376.01200569399, 6,15, 4,10,104369.48322671017, 6,20,20,10
170,5241013.419656074,232.27731661587313, 6,15, 4,10,11650.931360040839, 6,20,12,10
207,6509451.13922266,543.5021409221355, 6,15, 3,10,15327.095199349082, 6,20,10,10
244,12749673.39982522,1014.5707620042115, 6,15, 4,10,35359.08742820678, 6,20,20,10
281,46165882.48149605,39959.06841621388, 6,15, 5,10,54634.54471212738, 6,15,19,10
318,0.0,0.0, 6,15, 1,10,0.0, 6,15, 1,10
355,660920543.5055777,12374.216038804521, 6,15, 4,10,3829218.154066982, 6,16,18,60
403,197687796.27748126,12374.216038804521, 6,15, 4,10,483183.26346918393, 6,20,18,10
476,106772067.24485692,4732.048419519677, 6,15, 4,10,237357.535085481, 6,20,12,10
513,0.0,0.0, 6,15, 1,10,0.0, 6,15, 1,10
562,65187855.039401405,9022.727324904828, 6,20,23,10,96048.7025494774, 6,15,14,20
1046,0.0,0.0, 6,15, 1,10,0.0, 6,15, 1,10
1096,629359685.60092,77349.04654318621, 6,19, 6,20,1019069.5114550233, 6,17,16,60
1134,0.0,0.0, 6,15, 1,10,0.0, 6,15, 1,10
1323,463232747.228095,0.0, 6,15, 1,10,3375000.0000000005, 6,18,21,20
1360,5019840.0,4980.0, 6,15, 1,10,4980.000000000002, 6,16, 8,10
1388,0.0,0.0, 6,15, 1,10,0.0, 6,15, 1,10
1,ANNUAL,  33.63, -84.44,  -5.00, 307.90
5,365
1038,5.0,0.0, 1, 1, 1,10,0.16666666666666666, 1, 2, 6,10
1039,700.4999999999998,0.0, 1, 1, 1,10,0.16666666666666666, 1, 3,17,20
581,0.1802450882799612,0.0, 5, 7, 8,12,0.8897915429994551, 1,28,15,60
582,3.9086654229249604,0.0, 1, 6,23,45,22.57544066786265, 1,28,15,60
583,4.461656682215826,0.0, 5,12,23, 2,25.361441989177656, 1,28,15,60
1115,6088865084.91608,0.0, 1, 1, 1, 1,3001103.374856644, 2,27, 8,50
1128,1801145355.1981502,0.0, 1, 1, 1, 1,912799.1389088751, 2,27, 8,50
1153,66851478.41831832,0.0, 1, 1, 1, 1,73621.64758903, 2,13, 7,60
1154,1156274150.9048429,0.0, 1, 1, 1,32,120000.0, 1, 1,20,40
1156,149936571.28580713,0.0, 1, 1, 1, 1,1894512.7471831576, 1,29, 6,30
13,38849911405.48443,106115.4183601288, 1, 4, 4,10,3721871.740581114, 1,29, 6,10
61,15743207428.39043,58759.40635443481, 1, 1, 1,10,854682.2742463244, 1, 1,20,10
134,3685071073.433083,42376.01200569399, 1, 2, 4,10,104369.48322671017, 1, 1,20,10
170,273393721.45534325,232.27731661587313, 1, 2, 4,10,11650.931360040839, 1, 1,12,10
207,339560869.06955314,543.5021409221355, 1, 2, 3,10,15327.095199349082, 1, 1,10,10
244,664895467.8009839,1014.5707620042115, 1, 2, 4,10,35359.08742820678, 1, 1,20,10
281,2407221015.1057043,39959.06841621388, 1, 1, 5,10,54634.54471212738, 1, 1,19,10
318,0.0,0.0, 1, 1, 1,10,0.0, 1, 1, 1,10
355,35657887376.93474,12374.216038804521, 1, 2, 4,10,3829218.154066983, 5,12,18,30
403,10310294493.052883,12374.216038804521, 1, 2, 4,10,483183.26346918393, 1, 1,18,10
476,5569688622.065564,4732.048419519677, 1, 2, 4,10,237357.535085481, 1, 1,12,10
513,0.0,0.0, 1, 1, 1,10,0.0, 1, 1, 1,10
562,1799912126.543004,0.0, 1, 1, 1,10,96048.7025494774, 1,18, 6,30
1046,0.0,0.0, 1, 1, 1,10,0.0, 1, 1, 1,10
1096,14185764421.31699,0.0, 1, 1, 1,10,1033560.3532242919, 8, 4,16,60
1134,3174207555.807125,0.0, 1, 1, 1,40,3207525.718655263, 1,29, 6,10
1323,25347592883.885864,0.0, 1, 1, 1,10,3375000.000000002, 4,18, 9,60
1360,261748800.0,4979.999999999998, 1, 1, 1,10,4980.000000000002, 1, 1,19,60
1388,0.0,0.0, 1, 1, 1,10,0.0, 1, 1, 1,10
End of Data
 Number of Records Written=          87
