Program Version,EnergyPlus, Version 22.2.0-c249759bad, YMD=2023.09.01 18:17
1,5,Environment Title[],Latitude[deg],Longitude[deg],Time Zone[],Elevation[m]
2,8,Day of Simulation[],Month[],Day of Month[],DST Indicator[1=yes 0=no],Hour[],StartMinute[],EndMinute[],DayType
3,5,Cumulative Day of Simulation[],Month[],Day of Month[],DST Indicator[1=yes 0=no],DayType  ! When Daily Report Variables Requested
4,2,Cumulative Days of Simulation[],Month[]  ! When Monthly Report Variables Requested
5,1,Cumulative Days of Simulation[] ! When Run Period Report Variables Requested
6,1,Calendar Year of Simulation[] ! When Annual Report Variables Requested
581,11,LIVING,AFN Zone Infiltration Air Change Rate [ach] !RunPeriod [Value,Min,Month,Day,Hour,Minute,Max,Month,Day,Hour,Minute]
582,11,ATTIC,AFN Zone Infiltration Air Change Rate [ach] !RunPeriod [Value,Min,Month,Day,Hour,Minute,Max,Month,Day,Hour,Minute]
583,11,CRAWLSPACE,AFN Zone Infiltration Air Change Rate [ach] !RunPeriod [Value,Min,Month,Day,Hour,Minute,Max,Month,Day,Hour,Minute]
1038,11,Facility,Facility Heating Setpoint Not Met Time [hr] !RunPeriod [Value,Min,Month,Day,Hour,Minute,Max,Month,Day,Hour,Minute]
1039,11,Facility,Facility Cooling Setpoint Not Met Time [hr] !RunPeriod [Value,Min,Month,Day,Hour,Minute,Max,Month,Day,Hour,Minute]
1115,11,DX_HEATING_COIL,Heating Coil Heating Energy [J] !RunPeriod [Value,Min,Month,Day,Hour,Minute,Max,Month,Day,Hour,Minute]
1128,11,DX_HEATING_COIL,Heating Coil Electricity Energy [J] !RunPeriod [Value,Min,Month,Day,Hour,Minute,Max,Month,Day,Hour,Minute]
1153,11,DX_HEATING_COIL,Heating Coil Defrost Electricity Energy [J] !RunPeriod [Value,Min,Month,Day,Hour,Minute,Max,Month,Day,Hour,Minute]
1154,11,DX_HEATING_COIL,Heating Coil Crankcase Heater Electricity Energy [J] !RunPeriod [Value,Min,Month,Day,Hour,Minute,Max,Month,Day,Hour,Minute]
1155,11,HEATING_RESISTANCE_BACKUP,Heating Coil Heating Energy [J] !RunPeriod [Value,Min,Month,Day,Hour,Minute,Max,Month,Day,Hour,Minute]
1156,11,HEATING_RESISTANCE_BACKUP,Heating Coil Electricity Energy [J] !RunPeriod [Value,Min,Month,Day,Hour,Minute,Max,Month,Day,Hour,Minute]
1292,11,WATER HEATER,Water Heater Heat Loss Energy [J] !RunPeriod [Value,Min,Month,Day,Hour,Minute,Max,Month,Day,Hour,Minute]
1306,11,WATER HEATER,Water Heater Heating Energy [J] !RunPeriod [Value,Min,Month,Day,Hour,Minute,Max,Month,Day,Hour,Minute]
1307,11,WATER HEATER,Water Heater Unmet Demand Heat Transfer Energy [J] !RunPeriod [Value,Min,Month,Day,Hour,Minute,Max,Month,Day,Hour,Minute]
1308,11,WATER HEATER,Water Heater Electricity Energy [J] !RunPeriod [Value,Min,Month,Day,Hour,Minute,Max,Month,Day,Hour,Minute]
13,11,Electricity:Facility [J] !RunPeriod [Value,Min,Month,Day,Hour,Minute,Max,Month,Day,Hour,Minute]
1134,11,Heating:Electricity [J] !RunPeriod [Value,Min,Month,Day,Hour,Minute,Max,Month,Day,Hour,Minute]
1096,11,Cooling:Electricity [J] !RunPeriod [Value,Min,Month,Day,Hour,Minute,Max,Month,Day,Hour,Minute]
562,11,Fans:Electricity [J] !RunPeriod [Value,Min,Month,Day,Hour,Minute,Max,Month,Day,Hour,Minute]
1379,11,Pumps:Electricity [J] !RunPeriod [Value,Min,Month,Day,Hour,Minute,Max,Month,Day,Hour,Minute]
1326,11,WaterSystems:Electricity [J] !RunPeriod [Value,Min,Month,Day,Hour,Minute,Max,Month,Day,Hour,Minute]
61,11,InteriorLights:Electricity [J] !RunPeriod [Value,Min,Month,Day,Hour,Minute,Max,Month,Day,Hour,Minute]
1046,11,ExteriorLights:Electricity [J] !RunPeriod [Value,Min,Month,Day,Hour,Minute,Max,Month,Day,Hour,Minute]
134,11,InteriorEquipment:Electricity [J] !RunPeriod [Value,Min,Month,Day,Hour,Minute,Max,Month,Day,Hour,Minute]
170,11,gas_dryer:InteriorEquipment:Electricity [J] !RunPeriod [Value,Min,Month,Day,Hour,Minute,Max,Month,Day,Hour,Minute]
207,11,clotheswasher:InteriorEquipment:Electricity [J] !RunPeriod [Value,Min,Month,Day,Hour,Minute,Max,Month,Day,Hour,Minute]
244,11,dishwasher:InteriorEquipment:Electricity [J] !RunPeriod [Value,Min,Month,Day,Hour,Minute,Max,Month,Day,Hour,Minute]
281,11,refrigerator:InteriorEquipment:Electricity [J] !RunPeriod [Value,Min,Month,Day,Hour,Minute,Max,Month,Day,Hour,Minute]
318,11,electric_mels:InteriorEquipment:Electricity [J] !RunPeriod [Value,Min,Month,Day,Hour,Minute,Max,Month,Day,Hour,Minute]
355,11,NaturalGas:Facility [J] !RunPeriod [Value,Min,Month,Day,Hour,Minute,Max,Month,Day,Hour,Minute]
403,11,InteriorEquipment:NaturalGas [J] !RunPeriod [Value,Min,Month,Day,Hour,Minute,Max,Month,Day,Hour,Minute]
476,11,gas_dryer:InteriorEquipment:NaturalGas [J] !RunPeriod [Value,Min,Month,Day,Hour,Minute,Max,Month,Day,Hour,Minute]
513,11,gas_mels:InteriorEquipment:NaturalGas [J] !RunPeriod [Value,Min,Month,Day,Hour,Minute,Max,Month,Day,Hour,Minute]
End of Data Dictionary
1,EXTREME_WINTER,  29.62, -95.17,  -6.00,   9.80
5,7
1038,0.0,0.0, 1,13, 1,15,0.0, 1,13, 1,15
1039,0.0,0.0, 1,13, 1,15,0.0, 1,13, 1,15
581,0.2785246015561156,0.06088874539622739, 1,13, 2,50,0.644497852148088, 1,13,21,60
582,3.9449709774632336,0.0, 1,16,23,52,12.242633363261087, 1,13, 6,50
583,0.014475569055836806,0.0001641451904278652, 1,19,23,37,0.07944622357104568, 1,16, 6, 5
1115,369023663.8054739,0.0, 1,13, 1, 5,3052460.5381613085, 1,16, 6,45
1128,108764126.25557236,0.0, 1,13, 1, 5,910124.7444722047, 1,16, 6,45
1153,5735604.306774618,0.0, 1,13, 1, 5,81573.60786577663, 1,15, 9,45
1154,68834710.75705642,0.0, 1,13, 1, 5,180000.0, 1,13,15,45
1155,0.0,0.0, 1,13, 1, 5,0.0, 1,13, 1, 5
1156,0.0,0.0, 1,13, 1, 5,0.0, 1,13, 1, 5
1292,-24295715.28271714,-39769.701828370235, 1,17, 5,60,-4104.073226705596, 1,17,10,59
1306,182219045.11414596,0.0, 1,13, 1, 5,4050000.0, 1,14,20,30
1307,19484582.298733365,0.0, 1,13, 1, 5,2918330.694364187, 1,19,19,55
1308,182219045.11414596,0.0, 1,13, 1, 5,4050000.0, 1,14,20,30
13,790455551.266683,151703.1275401932, 1,13, 4,15,5794937.013744837, 1,19,20,15
61,301924526.02383536,88139.10953165221, 1,13, 1,15,1282023.4113694867, 1,13,20,15
134,70666020.44019976,63564.01800854099, 1,13, 4,15,156554.22484006523, 1,18,20,15
170,5241013.419656067,348.4159749238097, 1,13, 4,15,17476.39704006126, 1,18,12,15
207,6509451.13922267,815.2532113832032, 1,13, 3,15,22990.642799023623, 1,18,10,15
244,12749673.399825225,1521.856143006317, 1,13, 4,15,53038.631142310165, 1,18,20,15
281,46165882.481495745,59938.60262432081, 1,13, 5,15,81951.81706819107, 1,13,19,15
318,0.0,0.0, 1,13, 1,15,0.0, 1,13, 1,15
355,197687796.27748066,18561.32405820678, 1,13, 4,15,724774.895203776, 1,18,18,15
403,197687796.27748066,18561.32405820678, 1,13, 4,15,724774.895203776, 1,18,18,15
476,106772067.24485716,7098.072629279515, 1,13, 4,15,356036.3026282215, 1,18,12,15
513,0.0,0.0, 1,13, 1,15,0.0, 1,13, 1,15
562,15697983.752264371,0.0, 1,13, 1,15,112661.81603504284, 1,16, 6,15
1046,0.0,0.0, 1,13, 1,15,0.0, 1,13, 1,15
1096,36613534.61683505,0.0, 1,13, 1,15,553364.2941948911, 1,19,15,60
1134,183334441.31940344,0.0, 1,13, 1,15,1206358.139808169, 1,16, 6,15
1326,182219045.114146,0.0, 1,13, 1,15,4050000.0, 1,14,20,30
1379,0.0,0.0, 1,13, 1,15,0.0, 1,13, 1,15
1,EXTREME_SUMMER,  29.62, -95.17,  -6.00,   9.80
5,7
1038,0.0,0.0, 7, 6, 1,15,0.0, 7, 6, 1,15
1039,51.5,0.0, 7, 6, 1,15,0.25, 7, 6,14,15
581,0.09312817917261573,0.0, 7, 6, 1,15,0.3844695129420147, 7, 7,13,52
582,2.7598676360779884,0.12751884541823283, 7,12,22,20,9.300908614585218, 7, 9,15,50
583,0.0499013608564299,0.0, 7, 6,23, 3,0.0773656032926403, 7, 7,14,60
1115,0.0,0.0, 7, 6, 1,15,0.0, 7, 6, 1,15
1128,0.0,0.0, 7, 6, 1,15,0.0, 7, 6, 1,15
1153,0.0,0.0, 7, 6, 1,15,0.0, 7, 6, 1,15
1154,0.0,0.0, 7, 6, 1,15,0.0, 7, 6, 1,15
1155,0.0,0.0, 7, 6, 1,15,0.0, 7, 6, 1,15
1156,0.0,0.0, 7, 6, 1,15,0.0, 7, 6, 1,15
1292,-21767710.746147823,-34054.6190799439, 7, 8,15,30,-3329.3664511025013, 7, 9, 8,46
1306,128270229.02687871,0.0, 7, 6, 1,15,4050000.0, 7,10, 6,60
1307,6092354.765873242,0.0, 7, 6, 1,15,928646.5888553506, 7,12,19,51
1308,128270229.02687871,0.0, 7, 6, 1,15,4050000.0, 7,10, 6,60
13,1246337641.4455256,364978.60838314553, 7, 9, 4,60,7196109.058889344, 7,12,20,15
61,301924526.02383536,88139.10953165221, 7, 6, 1,15,1282023.4113694867, 7, 6,20,15
134,70666020.44019976,63564.01800854099, 7, 6, 4,15,156554.22484006523, 7,11,20,15
170,5241013.419656067,348.4159749238097, 7, 6, 4,15,17476.39704006126, 7,11,12,15
207,6509451.13922267,815.2532113832032, 7, 6, 3,15,22990.642799023623, 7,11,10,15
244,12749673.399825225,1521.856143006317, 7, 6, 4,15,53038.631142310165, 7,11,20,15
281,46165882.481495745,59938.60262432081, 7, 6, 5,15,81951.81706819107, 7, 6,19,15
318,0.0,0.0, 7, 6, 1,15,0.0, 7, 6, 1,15
355,197687796.27748066,18561.32405820678, 7, 6, 4,15,724774.895203776, 7,11,18,15
403,197687796.27748066,18561.32405820678, 7, 6, 4,15,724774.895203776, 7,11,18,15
476,106772067.24485716,7098.072629279515, 7, 6, 4,15,356036.3026282215, 7,11,12,15
513,0.0,0.0, 7, 6, 1,15,0.0, 7, 6, 1,15
562,65600435.40518383,20768.03720082778, 7, 9, 4,60,145463.866951321, 7, 6,13,15
1046,0.0,0.0, 7, 6, 1,15,0.0, 7, 6, 1,15
1096,679876430.5494279,192507.44364212456, 7, 9, 4,60,1723993.1135586265, 7,11,17,60
1134,0.0,0.0, 7, 6, 1,15,0.0, 7, 6, 1,15
1326,128270229.0268787,0.0, 7, 6, 1,15,4050000.0, 7,10, 6,60
1379,0.0,0.0, 7, 6, 1,15,0.0, 7, 6, 1,15
1,ANNUAL,  29.62, -95.17,  -6.00,   9.80
5,365
1038,0.0,0.0, 1, 1, 1,15,0.0, 1, 1, 1,15
1039,1081.25,0.0, 1, 1, 1,15,0.25, 4,23,16,30
581,0.1781252486724964,0.0, 3,11,23, 5,0.8643645999253323, 1,30,11,60
582,3.5619186215267806,0.0, 1,10,20,50,22.320740044891227, 1, 9,15,60
583,0.03357195031748114,0.0, 3,17, 6, 7,0.08391645201849407,10,31, 6, 5
1115,1298994180.0575702,0.0, 1, 1, 1, 7,3384661.9972948856,12, 7, 6,45
1128,377253434.9587029,0.0, 1, 1, 1, 7,1075430.279976483,12, 7, 6,45
1153,12492059.174465396,0.0, 1, 1, 1, 7,83106.84432203682, 1,15, 9,60
1154,456131097.59596664,0.0, 1, 1, 1, 7,180000.0, 1, 1,21,15
1155,1312047.1309022084,0.0, 1, 1, 1, 7,749741.2176584048,12, 7, 6, 5
1156,1312047.1309022084,0.0, 1, 1, 1, 7,749741.2176584048,12, 7, 6, 5
1292,-1162761589.2185788,-39755.97169223594,12, 8, 5,60,-2399.782484341622, 4, 9, 9,45
1306,8111253477.509976,0.0, 1, 1, 1, 7,4050000.0, 1, 1, 9,60
1307,636321401.4871178,0.0, 1, 1, 1, 7,8068342.742819512, 1,15,19,60
1308,8111253477.509976,0.0, 1, 1, 1, 7,4050000.0, 1, 1, 9,60
13,50392451797.41972,151703.1275401932, 1, 9, 4,15,7132408.205598823, 7,30,20,15
61,15743207428.383959,88139.10953165221, 1, 1, 1,15,1282023.4113694867, 1, 1,20,15
134,3685071073.4325233,63564.01800854099, 1, 2, 4,15,156554.22484006523, 1, 1,20,15
170,273393721.45532674,348.4159749238097, 1, 2, 4,15,17476.39704006126, 1, 1,12,15
207,339560869.0695816,815.2532113832032, 1, 2, 3,15,22990.642799023623, 1, 1,10,15
244,664895467.8009144,1521.856143006317, 1, 2, 4,15,53038.631142310165, 1, 1,20,15
281,2407221015.106824,59938.60262432081, 1, 1, 5,15,81951.81706819107, 1, 1,19,15
318,0.0,0.0, 1, 1, 1,15,0.0, 1, 1, 1,15
355,10310294493.051695,18561.32405820678, 1, 2, 4,15,724774.895203776, 1, 1,18,15
403,10310294493.051695,18561.32405820678, 1, 2, 4,15,724774.895203776, 1, 1,18,15
476,5569688622.066177,7098.072629279515, 1, 2, 4,15,356036.3026282215, 1, 1,12,15
513,0.0,0.0, 1, 1, 1,15,0.0, 1, 1, 1,15
562,2134290055.2522018,0.0, 1, 1, 1,15,145463.866951321, 3,16,16,30
1046,0.0,0.0, 1, 1, 1,15,0.0, 1, 1, 1,15
1096,19871441123.979183,0.0, 1, 1, 1,15,1804178.924189011, 7,25,16,60
1134,847188638.8600371,0.0, 1, 1, 1,15,1937809.4474533703,12, 7, 6,15
1326,8111253477.509969,0.0, 1, 1, 1,15,4050000.0000000014,10,14, 9,60
1379,0.0,0.0, 1, 1, 1,15,0.0, 1, 1, 1,15
End of Data
 Number of Records Written=          99
