Program Version,EnergyPlus, Version 22.2.0-c249759bad, YMD=2023.09.01 14:31
1,5,Environment Title[],Latitude[deg],Longitude[deg],Time Zone[],Elevation[m]
2,8,Day of Simulation[],Month[],Day of Month[],DST Indicator[1=yes 0=no],Hour[],StartMinute[],EndMinute[],DayType
3,5,Cumulative Day of Simulation[],Month[],Day of Month[],DST Indicator[1=yes 0=no],DayType  ! When Daily Report Variables Requested
4,2,Cumulative Days of Simulation[],Month[]  ! When Monthly Report Variables Requested
5,1,Cumulative Days of Simulation[] ! When Run Period Report Variables Requested
6,1,Calendar Year of Simulation[] ! When Annual Report Variables Requested
7,1,Environment,Site Outdoor Air Drybulb Temperature [C] !Hourly
619,1,DX_HEATING_COIL,Heating Coil Heating Rate [W] !Hourly
633,1,DX_HEATING_COIL,Heating Coil Electricity Rate [W] !Hourly
659,1,DX_HEATING_COIL,Heating Coil Defrost Electricity Rate [W] !Hourly
661,1,DX_HEATING_COIL,Heating Coil Crankcase Heater Electricity Rate [W] !Hourly
690,1,FAN,Fan Electricity Rate [W] !Hourly
716,1,HEAT PUMP WATER HEATER FAN,Fan Electricity Rate [W] !Hourly
718,1,LIVING,Zone Mean Air Temperature [C] !Hourly
719,1,ATTIC,Zone Mean Air Temperature [C] !Hourly
720,1,CRAWLSPACE,Zone Mean Air Temperature [C] !Hourly
843,1,LIVING,Zone Predicted Sensible Load to Heating Setpoint Heat Transfer Rate [W] !Hourly
844,1,LIVING,Zone System Predicted Sensible Load to Heating Setpoint Heat Transfer Rate [W] !Hourly
907,1,ATTIC,Zone Predicted Sensible Load to Heating Setpoint Heat Transfer Rate [W] !Hourly
908,1,ATTIC,Zone System Predicted Sensible Load to Heating Setpoint Heat Transfer Rate [W] !Hourly
971,1,CRAWLSPACE,Zone Predicted Sensible Load to Heating Setpoint Heat Transfer Rate [W] !Hourly
972,1,CRAWLSPACE,Zone System Predicted Sensible Load to Heating Setpoint Heat Transfer Rate [W] !Hourly
1195,1,HEATING_RESISTANCE_BACKUP,Heating Coil Heating Rate [W] !Hourly
1197,1,HEATING_RESISTANCE_BACKUP,Heating Coil Electricity Rate [W] !Hourly
End of Data Dictionary
1,EXTREME_WINTER,  33.65,-101.82,  -6.00, 991.80
2,1,12,22, 0, 1, 0.00,60.00,Monday
7,5.0
718,18.655825480493363
719,2.7639924981641197
720,19.462896240479367
619,2104.9020380045945
633,624.8578565401647
659,34.157115319442454
661,135.25641002955132
690,65.56695311451627
716,0.0
843,1567.7903179518726
844,1567.7903179518726
907,0.0
908,0.0
971,0.0
972,0.0
1195,0.0
1197,0.0
2,1,12,22, 0, 2, 0.00,60.00,Monday
7,3.3
718,18.548760899384035
719,3.1609163684183383
720,19.13345968417221
619,2455.087244101982
633,745.0318103600218
659,46.374377793056205
661,120.84821183814638
690,79.97338817835792
716,0.0
843,1916.9356248773584
844,1916.9356248773584
907,0.0
908,0.0
971,0.0
972,0.0
1195,0.0
1197,0.0
2,1,12,22, 0, 3, 0.00,60.00,Monday
7,3.0
718,18.620983804832644
719,4.046216414956689
720,18.97431261394041
619,2806.85987641099
633,848.211051733291
659,55.83331441397214
661,109.02078759749037
690,91.86579853243737
716,0.0
843,2209.0971976326855
844,2209.0971976326855
907,0.0
908,0.0
971,0.0
972,0.0
1195,0.0
1197,0.0
2,1,12,22, 0, 4, 0.00,60.00,Monday
7,3.0
718,18.448793322268095
719,4.754861344557754
720,18.79634896063074
619,3172.9609573587177
633,954.0493231753794
659,79.7258520911367
661,95.38975685010551
690,105.48371325967004
716,0.0
843,2493.411772279527
844,2493.411772279527
907,0.0
908,0.0
971,0.0
972,0.0
1195,0.0
1197,0.0
2,1,12,22, 0, 5, 0.00,60.00,Monday
7,3.0
718,18.482295134512082
719,4.928978567738261
720,18.64272068191812
619,3519.786558226799
633,1047.356626581892
659,69.10036247659707
661,87.40241160973414
690,113.69516073089424
716,0.0
843,2798.9188978174698
844,2798.9188978174698
907,0.0
908,0.0
971,0.0
972,0.0
1195,0.0
1197,0.0
2,1,12,22, 0, 6, 0.00,60.00,Monday
7,2.2
718,19.371562175200157
719,4.912548666771507
720,18.47462091558819
619,4773.634761914878
633,1407.7337167809235
659,112.65389867346475
661,44.86610926309977
690,156.2775168239207
716,0.0
843,3787.1886616080665
844,3787.1886616080665
907,0.0
908,0.0
971,0.0
972,0.0
1195,0.0
1197,0.0
2,1,12,22, 0, 7, 0.00,60.00,Monday
7,-0.6
718,19.33149651476227
719,3.17152832136902
720,18.307790488174206
619,6200.725373950058
633,1897.4132082694096
659,77.18584491771075
661,0.0
690,202.98358982092543
716,85.44000000000004
843,4898.624721869923
844,4898.624721869923
907,0.0
908,0.0
971,0.0
972,0.0
1195,1254.5846535889223
1197,1254.5846535889223
2,1,12,22, 0, 8, 0.00,60.00,Monday
7,-1.0
718,19.559395893830263
719,3.0650884429451537
720,18.199509188575806
619,6196.540342003894
633,1908.2253282374431
659,63.66382816861064
661,0.0
690,202.98358982092543
716,67.93763849470788
843,4694.251883786024
844,4694.251883786024
907,0.0
908,0.0
971,0.0
972,0.0
1195,899.1239115644876
1197,899.1239115644876
2,1,12,22, 0, 9, 0.00,60.00,Monday
7,-2.2
718,19.666063596676874
719,1.6520065399432007
720,18.065758709910416
619,6036.675698049689
633,1912.8968164201851
659,52.41653491058164
661,0.0
690,202.98358982092543
716,0.0
843,5375.467050933485
844,5375.467050933485
907,0.0
908,0.0
971,0.0
972,0.0
1195,953.0058785033079
1197,953.0058785033079
2,1,12,22, 0,10, 0.00,60.00,Monday
7,-2.0
718,19.70310608113631
719,1.887684904917049
720,17.964381549449453
619,6134.839978328668
633,1941.4130653901796
659,37.242645718837096
661,0.0
690,202.98358982092543
716,0.0
843,4951.565759271247
844,4951.565759271247
907,0.0
908,0.0
971,0.0
972,0.0
1195,434.92939320743426
1197,434.92939320743426
2,1,12,22, 0,11, 0.00,60.00,Monday
7,-2.0
718,19.71171050785531
719,1.7855407705170232
720,17.82955998536463
619,6133.81936867156
633,1942.627276324713
659,37.242645718837096
661,0.0
690,202.98358982092543
716,0.0
843,5613.950462498846
844,5613.950462498846
907,0.0
908,0.0
971,0.0
972,0.0
1195,1246.7727614613714
1197,1246.7727614613714
2,1,12,22, 0,12, 0.00,60.00,Monday
7,-1.7
718,19.718035832299734
719,2.1920692458261155
720,17.72063993396967
619,6273.17366152304
633,1975.417366396133
659,17.656559539466805
661,0.0
690,202.98358982092543
716,0.0
843,5328.757804541827
844,5328.757804541827
907,0.0
908,0.0
971,0.0
972,0.0
1195,777.8735663124535
1197,777.8735663124535
2,1,12,22, 0,13, 0.00,60.00,Monday
7,1.1
718,19.79583665152023
719,4.581154315934877
720,17.676132377507095
619,4575.977625345886
633,1420.3669645583673
659,0.0677380588240077
661,61.44965916732086
690,140.61642430297454
716,0.0
843,3468.3223627366933
844,3468.3223627366933
907,0.0
908,0.0
971,0.0
972,0.0
1195,0.0
1197,0.0
2,1,12,22, 0,14, 0.00,60.00,Monday
7,2.8
718,19.87398698748557
719,6.7598793078876485
720,17.596814467098742
619,3929.7785076659015
633,1202.8645071069077
659,0.05639258198473659
661,84.6555158198466
690,117.0647253397523
716,78.52524819267626
843,2221.790456731429
844,2221.790456731429
907,0.0
908,0.0
971,0.0
972,0.0
1195,0.0
1197,0.0
2,1,12,22, 0,15, 0.00,60.00,Monday
7,1.7
718,19.863883068799268
719,6.9875853660229446
720,17.545460997727233
619,1549.7806404151167
633,503.5204288360578
659,0.023803661300951504
661,151.31237234180074
690,49.413696385165395
716,0.0
843,1225.4955475505521
844,1225.4955475505521
907,0.0
908,0.0
971,0.0
972,0.0
1195,0.0
1197,0.0
2,1,12,22, 0,16, 0.00,60.00,Monday
7,1.7
718,20.339875027327803
719,7.593326897963801
720,17.522764134715963
619,570.1592866678599
633,188.41168031341007
659,0.008907874371407309
661,181.77997640204373
690,18.4917351205428
716,0.0
843,453.34081862942
844,453.34081862942
907,0.0
908,0.0
971,0.0
972,0.0
1195,0.0
1197,0.0
2,1,12,22, 0,17, 0.00,60.00,Monday
7,-1.1
718,20.79145052967819
719,6.828772518521128
720,17.522180093889155
619,0.0
633,0.0
659,0.0
661,200.0
690,0.0
716,0.0
843,-526.0734261493053
844,-526.0734261493053
907,0.0
908,0.0
971,0.0
972,0.0
1195,0.0
1197,0.0
2,1,12,22, 0,18, 0.00,60.00,Monday
7,-1.1
718,20.6867682910719
719,4.472012228948322
720,17.530135840872706
619,0.0
633,0.0
659,0.0
661,200.0
690,0.0
716,0.0
843,-769.0172956429178
844,-769.0172956429178
907,0.0
908,0.0
971,0.0
972,0.0
1195,0.0
1197,0.0
2,1,12,22, 0,19, 0.00,60.00,Monday
7,-4.4
718,19.284235408454283
719,1.4112722718358885
720,17.540373247267794
619,0.0
633,0.0
659,0.0
661,200.0
690,0.0
716,85.44000000000004
843,-258.70179274849943
844,-258.70179274849943
907,0.0
908,0.0
971,0.0
972,0.0
1195,0.0
1197,0.0
2,1,12,22, 0,20, 0.00,60.00,Monday
7,-5.6
718,19.491965029976594
719,-0.9794623368542934
720,17.474609339469776
619,1862.5746039802216
633,677.7722181077784
659,0.034522279012808264
661,129.3886833106263
690,71.6636606612851
716,85.44000000000004
843,439.6514530475324
844,439.6514530475324
907,0.0
908,0.0
971,0.0
972,0.0
1195,0.0
1197,0.0
2,1,12,22, 0,21, 0.00,60.00,Monday
7,-4.4
718,19.758073768364905
719,-2.1828567224119224
720,17.459531614621
619,1557.394260571957
633,560.0392205396721
659,0.028122446720942523
661,142.47879780023317
690,58.378563661386906
716,32.543551749462225
843,788.0140991656153
844,788.0140991656153
907,0.0
908,0.0
971,0.0
972,0.0
1195,0.0
1197,0.0
2,1,12,22, 0,22, 0.00,60.00,Monday
7,-5.6
718,19.524831165514247
719,-3.1074346619916153
720,17.390380011520953
619,1507.9172239341174
633,559.72291757534
659,1.360933458180576
661,142.03640328221337
690,58.78739362457828
716,0.0
843,1074.3134218198184
844,1074.3134218198184
907,0.0
908,0.0
971,0.0
972,0.0
1195,0.0
1197,0.0
2,1,12,22, 0,23, 0.00,60.00,Monday
7,-5.6
718,18.803820150132285
719,-3.6393484739111
720,17.31024837410067
619,1455.6622946229
633,538.2300331464555
659,3.471565759012895
661,143.69917012538318
690,57.036081864901185
716,0.0
843,999.0921328226013
844,999.0921328226013
907,0.0
908,0.0
971,0.0
972,0.0
1195,0.0
1197,0.0
2,1,12,22, 0,24, 0.00,60.00,Monday
7,-5.6
718,18.617358108743282
719,-3.6648026690505158
720,17.190293289261575
619,2085.5211858451084
633,747.1462004296094
659,4.888505840018652
661,120.71965368208409
690,80.31630353922537
716,0.0
843,1485.8330524080911
844,1485.8330524080911
907,0.0
908,0.0
971,0.0
972,0.0
1195,0.0
1197,0.0
2,2,12,23, 0, 1, 0.00,60.00,Tuesday
7,-5.0
718,18.552560083137262
719,-3.2350518416103706
720,17.0668174729825
619,2962.389758647072
633,1024.7224805495955
659,3.1764239310543076
661,91.88853029937454
690,109.63536590318814
716,0.0
843,2123.4207660399225
844,2123.4207660399225
907,0.0
908,0.0
971,0.0
972,0.0
1195,0.0
1197,0.0
2,2,12,23, 0, 2, 0.00,60.00,Tuesday
7,-4.4
718,18.603736544373625
719,-2.7435840852275355
720,16.95000448519588
619,3483.080127569203
633,1176.6161569366939
659,0.060226903573836095
661,76.81285584029087
690,125.02327396208894
716,0.0
843,2516.087827502308
844,2516.087827502308
907,0.0
908,0.0
971,0.0
972,0.0
1195,0.0
1197,0.0
2,2,12,23, 0, 3, 0.00,60.00,Tuesday
7,-3.3
718,18.474343582555086
719,-1.8183506278079045
720,16.832769114900074
619,4021.290667055555
633,1319.621589223658
659,0.06686927489011706
661,63.22665591390968
690,138.81219214830816
716,0.0
843,2928.232315080575
844,2928.232315080575
907,0.0
908,0.0
971,0.0
972,0.0
1195,0.0
1197,0.0
2,2,12,23, 0, 4, 0.00,60.00,Tuesday
7,-3.3
718,18.59773683451074
719,-1.7078901285854537
720,16.712195777422043
619,4323.2702051450415
633,1406.2372854082403
659,2.5633222417405577
661,53.50309312303567
690,148.62362447916115
716,0.0
843,3184.2652971775224
844,3184.2652971775224
907,0.0
908,0.0
971,0.0
972,0.0
1195,0.0
1197,0.0
2,2,12,23, 0, 5, 0.00,60.00,Tuesday
7,-3.3
718,18.547369017418983
719,-1.503879763409236
720,16.59800830472228
619,4662.732695586737
633,1511.8214405660815
659,7.678061738266382
661,42.16692134199642
690,160.01098627731653
716,0.0
843,3416.8649418254063
844,3416.8649418254063
907,0.0
908,0.0
971,0.0
972,0.0
1195,0.0
1197,0.0
2,2,12,23, 0, 6, 0.00,60.00,Tuesday
7,-3.3
718,19.253663759454927
719,-1.0520293701123815
720,16.46698416983636
619,6071.161417973366
633,1913.2858877010078
659,9.729344195209404
661,0.0
690,202.98358982092543
716,0.0
843,4536.7769238499695
844,4536.7769238499695
907,0.0
908,0.0
971,0.0
972,0.0
1195,82.14757248056503
1197,82.14757248056503
2,2,12,23, 0, 7, 0.00,60.00,Tuesday
7,-3.3
718,19.518628636794507
719,-0.6216097936791721
720,16.40346361792045
619,5969.358840307476
633,1914.625806197487
659,28.09933389943854
661,0.0
690,202.98358982092543
716,85.44000000000004
843,3780.806252002403
844,3780.806252002403
907,0.0
908,0.0
971,0.0
972,0.0
1195,377.72013682805664
1197,377.72013682805664
2,2,12,23, 0, 8, 0.00,60.00,Tuesday
7,-1.1
718,19.641600916171384
719,0.2602358851487367
720,16.330706632320627
619,5802.2541321954295
633,1815.7648767572307
659,7.803498633336108
661,17.398228133678018
690,185.1917062791209
716,85.44000000000004
843,3338.139374501143
844,3338.139374501143
907,0.0
908,0.0
971,0.0
972,0.0
1195,0.0
1197,0.0
2,2,12,23, 0, 9, 0.00,60.00,Tuesday
7,4.4
718,19.729892102772954
719,3.6486006602939383
720,16.27527282961708
619,4119.790964610788
633,1221.5912591217082
659,0.05663321609501437
661,84.16332666394568
690,117.5644352170136
716,81.44689099571767
843,2228.8379926291873
844,2228.8379926291873
907,0.0
908,0.0
971,0.0
972,0.0
1195,0.0
1197,0.0
2,2,12,23, 0,10, 0.00,60.00,Tuesday
7,8.3
718,19.834548840192426
719,7.309437721960684
720,16.184089504340598
619,1285.3723835582894
633,347.61666269437154
659,0.0
661,169.88471737294196
690,30.564540880559964
716,0.0
843,1016.0013001808729
844,1016.0013001808729
907,0.0
908,0.0
971,0.0
972,0.0
1195,0.0
1197,0.0
2,2,12,23, 0,11, 0.00,60.00,Tuesday
7,13.3
718,20.187507020517252
719,12.502682325748664
720,16.136701408929987
619,0.0
633,0.0
659,0.0
661,0.0
690,0.0
716,0.0
843,-144.53794863947405
844,-144.53794863947405
907,0.0
908,0.0
971,0.0
972,0.0
1195,0.0
1197,0.0
2,2,12,23, 0,12, 0.00,60.00,Tuesday
7,13.3
718,20.99759960851375
719,14.723294169712792
720,16.139056771282913
619,0.0
633,0.0
659,0.0
661,0.0
690,0.0
716,0.0
843,-1109.8317533764184
844,-1109.8317533764184
907,0.0
908,0.0
971,0.0
972,0.0
1195,0.0
1197,0.0
2,2,12,23, 0,13, 0.00,60.00,Tuesday
7,16.1
718,22.02497019615283
719,18.325816290785802
720,16.180527674226003
619,0.0
633,0.0
659,0.0
661,0.0
690,0.0
716,0.0
843,-1900.7205266897
844,-1900.7205266897
907,0.0
908,0.0
971,0.0
972,0.0
1195,0.0
1197,0.0
2,2,12,23, 0,14, 0.00,60.00,Tuesday
7,17.2
718,22.98531876225909
719,20.005261412998784
720,16.254005807789163
619,0.0
633,0.0
659,0.0
661,0.0
690,0.0
716,0.0
843,-2720.5734639196817
844,-2720.5734639196817
907,0.0
908,0.0
971,0.0
972,0.0
1195,0.0
1197,0.0
2,2,12,23, 0,15, 0.00,60.00,Tuesday
7,17.2
718,23.315315767369036
719,20.74089831966468
720,16.380946853672235
619,0.0
633,0.0
659,0.0
661,0.0
690,15.666914312348098
716,0.0
843,-3572.003181309623
844,-3572.003181309623
907,0.0
908,0.0
971,0.0
972,0.0
1195,0.0
1197,0.0
2,2,12,23, 0,16, 0.00,60.00,Tuesday
7,15.0
718,23.166276036280152
719,20.814535534484147
720,16.51975390183562
619,0.0
633,0.0
659,0.0
661,0.0
690,26.927163352966325
716,0.0
843,-3882.8464160623353
844,-3882.8464160623353
907,0.0
908,0.0
971,0.0
972,0.0
1195,0.0
1197,0.0
2,2,12,23, 0,17, 0.00,60.00,Tuesday
7,8.9
718,22.831730789650234
719,15.92779427912133
720,16.64084783457201
619,0.0
633,0.0
659,0.0
661,168.12014960196123
690,32.35543238373982
716,0.0
843,-4678.867377225637
844,-4678.867377225637
907,0.0
908,0.0
971,0.0
972,0.0
1195,0.0
1197,0.0
2,2,12,23, 0,18, 0.00,60.00,Tuesday
7,8.9
718,23.251665798051793
719,13.446023160837573
720,16.730221040399837
619,0.0
633,0.0
659,0.0
661,200.0
690,0.0
716,64.47166929757577
843,-4429.669123818916
844,-4429.669123818916
907,0.0
908,0.0
971,0.0
972,0.0
1195,0.0
1197,0.0
2,2,12,23, 0,19, 0.00,60.00,Tuesday
7,2.8
718,22.93665944719446
719,7.975389872690504
720,16.852249202291112
619,0.0
633,0.0
659,0.0
661,200.0
690,0.0
716,0.0
843,-3063.8987681432845
844,-3063.8987681432845
907,0.0
908,0.0
971,0.0
972,0.0
1195,0.0
1197,0.0
2,2,12,23, 0,20, 0.00,60.00,Tuesday
7,1.7
718,21.535092282859615
719,5.325939409272885
720,16.928712964401317
619,0.0
633,0.0
659,0.0
661,200.0
690,0.0
716,85.44000000000004
843,-2402.9585958946136
844,-2402.9585958946136
907,0.0
908,0.0
971,0.0
972,0.0
1195,0.0
1197,0.0
2,2,12,23, 0,21, 0.00,60.00,Tuesday
7,0.0
718,20.694301316809735
719,3.382679516294694
720,16.96429510329536
619,0.0
633,0.0
659,0.0
661,200.0
690,0.0
716,85.44000000000004
843,-1839.4066586139597
844,-1839.4066586139597
907,0.0
908,0.0
971,0.0
972,0.0
1195,0.0
1197,0.0
2,2,12,23, 0,22, 0.00,60.00,Tuesday
7,-1.1
718,20.424188626185696
719,1.87979531659628
720,16.963169364630783
619,0.0
633,0.0
659,0.0
661,200.0
690,0.0
716,22.426737316676554
843,-925.9692419898674
844,-925.9692419898674
907,0.0
908,0.0
971,0.0
972,0.0
1195,0.0
1197,0.0
2,2,12,23, 0,23, 0.00,60.00,Tuesday
7,-1.1
718,19.51134477194956
719,1.0226012647405829
720,16.92753973439812
619,0.0
633,0.0
659,0.0
661,200.0
690,0.0
716,0.0
843,-827.437578926385
844,-827.437578926385
907,0.0
908,0.0
971,0.0
972,0.0
1195,0.0
1197,0.0
2,2,12,23, 0,24, 0.00,60.00,Tuesday
7,-1.1
718,18.612369799390002
719,0.5594099004095361
720,16.86979266051434
619,105.67289780855782
633,36.735619859510905
659,0.15780290586036222
661,196.30957977285993
690,3.7427610044693265
716,0.0
843,80.00628392285216
844,80.00628392285216
907,0.0
908,0.0
971,0.0
972,0.0
1195,0.0
1197,0.0
2,3,12,24, 0, 1, 0.00,60.00,Wednesday
7,0.0
718,18.483155701595177
719,1.2885627906435018
720,16.775846410361353
619,1268.6993893354909
633,413.387832441317
659,0.7163700230319139
661,158.27116226826212
690,42.34105576537692
716,0.0
843,948.2814922169891
844,948.2814922169891
907,0.0
908,0.0
971,0.0
972,0.0
1195,0.0
1197,0.0
2,3,12,24, 0, 2, 0.00,60.00,Wednesday
7,0.0
718,18.719256961203566
719,1.4645970127374168
720,16.684924988842894
619,1936.3148540006835
633,621.293908194657
659,1.0793677621647888
661,137.11381496615041
690,63.80882335722647
716,0.0
843,1489.7897296634783
844,1489.7897296634783
907,0.0
908,0.0
971,0.0
972,0.0
1195,0.0
1197,0.0
2,3,12,24, 0, 3, 0.00,60.00,Wednesday
7,-0.6
718,18.561093618474672
719,1.6432490126410426
720,16.595506515104564
619,2166.0816835111486
633,704.0207237898945
659,7.750950565670017
661,127.76743127337143
690,73.1860900430313
716,0.0
843,1656.1844031285236
844,1656.1844031285236
907,0.0
908,0.0
971,0.0
972,0.0
1195,0.0
1197,0.0
2,3,12,24, 0, 4, 0.00,60.00,Wednesday
7,-1.1
718,18.603735642926477
719,1.5594594572111822
720,16.488813665556872
619,2742.904805661549
633,887.1465727016486
659,19.244839915195897
661,106.95218619330346
690,94.09980853342545
716,0.0
843,2084.9347831260184
844,2084.9347831260184
907,0.0
908,0.0
971,0.0
972,0.0
1195,0.0
1197,0.0
2,3,12,24, 0, 5, 0.00,60.00,Wednesday
7,-1.7
718,18.596718327693388
719,1.321927453563904
720,16.390542060229105
619,3002.7386951060535
633,978.4853900796514
659,28.698917221843786
661,95.87157147352026
690,105.13081364520623
716,0.0
843,2284.4259987205387
844,2284.4259987205387
907,0.0
908,0.0
971,0.0
972,0.0
1195,0.0
1197,0.0
2,3,12,24, 0, 6, 0.00,60.00,Wednesday
7,-1.7
718,19.155746863780873
719,1.9834714563431028
720,16.268045146875362
619,5363.001452094631
633,1671.2233929228212
659,49.04312379802681
661,22.056582426351092
690,179.65650714725626
716,72.31974706198055
843,3329.255781179296
844,3329.255781179296
907,0.0
908,0.0
971,0.0
972,0.0
1195,0.0
1197,0.0
2,3,12,24, 0, 7, 0.00,60.00,Wednesday
7,-2.8
718,19.444964198052713
719,1.5902603400958757
720,16.196178666334895
619,5803.330557747849
633,1853.0331583642624
659,60.04420005546277
661,2.188525277735476
690,199.4199827852637
716,85.44000000000004
843,3422.3104128762716
844,3422.3104128762716
907,0.0
908,0.0
971,0.0
972,0.0
1195,0.0
1197,0.0
2,3,12,24, 0, 8, 0.00,60.00,Wednesday
7,-1.1
718,19.66063607483857
719,1.2618803892743016
720,16.143231366693605
619,4657.046865324874
633,1485.237120355236
659,37.19289244061054
661,46.05394939330858
690,155.58734757029941
716,54.1850961784285
843,2887.5374338259408
844,2887.5374338259408
907,0.0
908,0.0
971,0.0
972,0.0
1195,0.0
1197,0.0
2,3,12,24, 0, 9, 0.00,60.00,Wednesday
7,2.2
718,19.757604589334544
719,2.539652010691614
720,16.07665228903348
619,2833.226225242408
633,887.2741931259163
659,5.984541536927357
661,113.27701239809929
690,87.95968449466294
716,0.0
843,2143.8948455570553
844,2143.8948455570553
907,0.0
908,0.0
971,0.0
972,0.0
1195,0.0
1197,0.0
2,3,12,24, 0,10, 0.00,60.00,Wednesday
7,5.6
718,20.041743429873282
719,5.585057577811552
720,16.001052954020313
619,1265.1142687635393
633,355.41128090994005
659,0.0
661,168.31019353556658
690,32.16255338440532
716,0.0
843,988.8418425370382
844,988.8418425370382
907,0.0
908,0.0
971,0.0
972,0.0
1195,0.0
1197,0.0
2,3,12,24, 0,11, 0.00,60.00,Wednesday
7,7.8
718,20.003801618064134
719,10.153077086127523
720,15.942648924042242
619,0.0
633,0.0
659,0.0
661,200.0
690,0.0
716,0.0
843,-173.51773403628795
844,-173.51773403628795
907,0.0
908,0.0
971,0.0
972,0.0
1195,0.0
1197,0.0
2,3,12,24, 0,12, 0.00,60.00,Wednesday
7,7.8
718,20.902231663600787
719,14.828924084038494
720,15.933386069607556
619,0.0
633,0.0
659,0.0
661,200.0
690,0.0
716,0.0
843,-872.2037385684744
844,-872.2037385684744
907,0.0
908,0.0
971,0.0
972,0.0
1195,0.0
1197,0.0
2,3,12,24, 0,13, 0.00,60.00,Wednesday
7,8.9
718,21.9039140778728
719,23.35039020672952
720,15.959021500643061
619,0.0
633,0.0
659,0.0
661,200.0
690,0.0
716,0.0
843,-1649.4348991803363
844,-1649.4348991803363
907,0.0
908,0.0
971,0.0
972,0.0
1195,0.0
1197,0.0
2,3,12,24, 0,14, 0.00,60.00,Wednesday
7,10.0
718,22.71153150245847
719,25.23710477043576
720,16.013145416897387
619,0.0
633,0.0
659,0.0
661,0.0
690,0.0
716,0.0
843,-2404.071688766593
844,-2404.071688766593
907,0.0
908,0.0
971,0.0
972,0.0
1195,0.0
1197,0.0
2,3,12,24, 0,15, 0.00,60.00,Wednesday
7,10.6
718,23.31009296147511
719,24.348602276794235
720,16.102475225630428
619,0.0
633,0.0
659,0.0
661,0.0
690,8.158451790875874
716,0.0
843,-3100.2586617369398
844,-3100.2586617369398
907,0.0
908,0.0
971,0.0
972,0.0
1195,0.0
1197,0.0
2,3,12,24, 0,16, 0.00,60.00,Wednesday
7,9.4
718,22.99489220030825
719,21.829418862794824
720,16.17589891837199
619,0.0
633,0.0
659,0.0
661,200.0
690,0.0
716,85.44000000000004
843,-3759.562009533527
844,-3759.562009533527
907,0.0
908,0.0
971,0.0
972,0.0
1195,0.0
1197,0.0
2,3,12,24, 0,17, 0.00,60.00,Wednesday
7,6.7
718,23.262408245130395
719,17.316657532486868
720,16.315200688266874
619,0.0
633,0.0
659,0.0
661,190.83710711697398
690,9.299584452706132
716,62.40813798700693
843,-4645.563299533143
844,-4645.563299533143
907,0.0
908,0.0
971,0.0
972,0.0
1195,0.0
1197,0.0
2,3,12,24, 0,18, 0.00,60.00,Wednesday
7,6.7
718,23.341737773329893
719,13.612348509427633
720,16.455481409901992
619,0.0
633,0.0
659,0.0
661,181.59057891628203
690,18.684051890490533
716,0.0
843,-4298.08897529362
844,-4298.08897529362
907,0.0
908,0.0
971,0.0
972,0.0
1195,0.0
1197,0.0
2,3,12,24, 0,19, 0.00,60.00,Wednesday
7,4.4
718,23.197485651755517
719,9.87547296018227
720,16.54004571817613
619,0.0
633,0.0
659,0.0
661,195.96105391429398
690,4.099198877848893
716,0.0
843,-3519.558527862884
844,-3519.558527862884
907,0.0
908,0.0
971,0.0
972,0.0
1195,0.0
1197,0.0
2,3,12,24, 0,20, 0.00,60.00,Wednesday
7,3.9
718,22.08182671415582
719,7.368580803646033
720,16.608698151216252
619,0.0
633,0.0
659,0.0
661,200.0
690,0.0
716,85.44000000000004
843,-2816.542950885316
844,-2816.542950885316
907,0.0
908,0.0
971,0.0
972,0.0
1195,0.0
1197,0.0
2,3,12,24, 0,21, 0.00,60.00,Wednesday
7,3.3
718,21.842176405104478
719,5.5884637284126315
720,16.642662028981896
619,0.0
633,0.0
659,0.0
661,200.0
690,0.0
716,44.62685197009743
843,-2565.17796025761
844,-2565.17796025761
907,0.0
908,0.0
971,0.0
972,0.0
1195,0.0
1197,0.0
2,3,12,24, 0,22, 0.00,60.00,Wednesday
7,1.1
718,21.607613534986122
719,3.8903317346170008
720,16.645543001490044
619,0.0
633,0.0
659,0.0
661,200.0
690,0.0
716,0.0
843,-1678.0171687624224
844,-1678.0171687624224
907,0.0
908,0.0
971,0.0
972,0.0
1195,0.0
1197,0.0
2,3,12,24, 0,23, 0.00,60.00,Wednesday
7,1.7
718,20.820711642539468
719,3.178929865765459
720,16.61924259765656
619,0.0
633,0.0
659,0.0
661,200.0
690,0.0
716,0.0
843,-1796.8042731907863
844,-1796.8042731907863
907,0.0
908,0.0
971,0.0
972,0.0
1195,0.0
1197,0.0
2,3,12,24, 0,24, 0.00,60.00,Wednesday
7,1.7
718,19.948051251970465
719,2.6912531112236255
720,16.574016322460132
619,0.0
633,0.0
659,0.0
661,200.0
690,0.0
716,0.0
843,-1096.2838584404217
844,-1096.2838584404217
907,0.0
908,0.0
971,0.0
972,0.0
1195,0.0
1197,0.0
2,4,12,25, 0, 1, 0.00,60.00,Thursday
7,0.6
718,18.865139974178355
719,1.9380347128603426
720,16.513126967049704
619,0.0
633,0.0
659,0.0
661,200.0
690,0.0
716,0.0
843,-207.2607449297775
844,-207.2607449297775
907,0.0
908,0.0
971,0.0
972,0.0
1195,0.0
1197,0.0
2,4,12,25, 0, 2, 0.00,60.00,Thursday
7,2.2
718,18.607042322421886
719,2.8002882414871806
720,16.43776136861308
619,727.7316278315939
633,231.8001244044605
659,0.011135404744859636
661,177.22382144551017
690,23.115847651232897
716,0.0
843,546.9640433406257
844,546.9640433406257
907,0.0
908,0.0
971,0.0
972,0.0
1195,0.0
1197,0.0
2,4,12,25, 0, 3, 0.00,60.00,Thursday
7,2.2
718,18.387531486490726
719,3.1707365497079074
720,16.353927885835702
619,1329.1655007303393
633,416.3544767446976
659,0.02010523712973583
661,158.87706991893504
690,41.73621092073003
716,0.0
843,1039.6774308600216
844,1039.6774308600216
907,0.0
908,0.0
971,0.0
972,0.0
1195,0.0
1197,0.0
2,4,12,25, 0, 4, 0.00,60.00,Thursday
7,2.2
718,18.31321496433155
719,3.412143558242942
720,16.26648489131742
619,1815.5914417923839
633,560.9901207292121
659,0.027209507837616227
661,144.34610837334682
690,56.483878120670475
716,0.0
843,1412.0237757390305
844,1412.0237757390305
907,0.0
908,0.0
971,0.0
972,0.0
1195,0.0
1197,0.0
2,4,12,25, 0, 5, 0.00,60.00,Thursday
7,1.1
718,18.67050471495323
719,3.002574129628918
720,16.174628901535048
619,2561.50757054948
633,794.2508628927061
659,3.360316120053088
661,119.80495057391853
690,81.35160370658211
716,0.0
843,2013.231456112726
844,2013.231456112726
907,0.0
908,0.0
971,0.0
972,0.0
1195,0.0
1197,0.0
2,4,12,25, 0, 6, 0.00,60.00,Thursday
7,1.1
718,19.397269872138462
719,3.2570667482340654
720,16.09926734803332
619,3788.1635058270354
633,1159.943046311872
659,4.874283724266958
661,83.67361574953327
690,118.00392034476504
716,0.0
843,2950.014416673386
844,2950.014416673386
907,0.0
908,0.0
971,0.0
972,0.0
1195,0.0
1197,0.0
2,4,12,25, 0, 7, 0.00,60.00,Thursday
7,0.0
718,19.537351448221447
719,3.1502854728889287
720,16.030853255687468
619,5185.200287049326
633,1605.9061315868632
659,19.41276187308946
661,37.845730800475195
690,164.28969740638567
716,85.44000000000004
843,2959.861847432854
844,2959.861847432854
907,0.0
908,0.0
971,0.0
972,0.0
1195,0.0
1197,0.0
2,4,12,25, 0, 8, 0.00,60.00,Thursday
7,1.7
718,19.659685878335836
719,3.3892285192081406
720,15.968578867041284
619,4798.896989040045
633,1461.2159259594316
659,0.06965764860208983
661,57.523360973521065
690,144.60136578838376
716,85.44000000000004
843,2673.697166717355
844,2673.697166717355
907,0.0
908,0.0
971,0.0
972,0.0
1195,0.0
1197,0.0
2,4,12,25, 0, 9, 0.00,60.00,Thursday
7,5.0
718,19.75508610051459
719,5.205991369715705
720,15.906199384049195
619,3656.7163950556032
633,1082.8658344042608
659,0.049899544307903894
661,97.93627111137198
690,103.58611657791327
716,70.86858079226296
843,2084.0930911352316
844,2084.0930911352316
907,0.0
908,0.0
971,0.0
972,0.0
1195,0.0
1197,0.0
2,4,12,25, 0,10, 0.00,60.00,Thursday
7,7.8
718,19.976338574143195
719,7.593512288567427
720,15.81179947971247
619,950.4722580967908
633,259.92578260416605
659,0.0
661,177.3587427351387
690,22.979018388403276
716,0.0
843,757.3386893658626
844,757.3386893658626
907,0.0
908,0.0
971,0.0
972,0.0
1195,0.0
1197,0.0
2,4,12,25, 0,11, 0.00,60.00,Thursday
7,11.1
718,20.334833763235352
719,11.608844099247047
720,15.764311245903013
619,0.0
633,0.0
659,0.0
661,0.0
690,0.0
716,0.0
843,-446.2777370558015
844,-446.2777370558015
907,0.0
908,0.0
971,0.0
972,0.0
1195,0.0
1197,0.0
2,4,12,25, 0,12, 0.00,60.00,Thursday
7,11.1
718,21.139733814206465
719,14.477337936744005
720,15.76300714515392
619,0.0
633,0.0
659,0.0
661,0.0
690,0.0
716,0.0
843,-1139.4774536523691
844,-1139.4774536523691
907,0.0
908,0.0
971,0.0
972,0.0
1195,0.0
1197,0.0
2,4,12,25, 0,13, 0.00,60.00,Thursday
7,15.6
718,22.24669560461289
719,18.653037824224228
720,15.797668333450652
619,0.0
633,0.0
659,0.0
661,0.0
690,0.0
716,0.0
843,-1880.9683548696266
844,-1880.9683548696266
907,0.0
908,0.0
971,0.0
972,0.0
1195,0.0
1197,0.0
2,4,12,25, 0,14, 0.00,60.00,Thursday
7,17.2
718,23.323426808898798
719,22.175491471491654
720,15.863654440054889
619,0.0
633,0.0
659,0.0
661,0.0
690,1.9905635318334438
716,0.0
843,-2944.1696148790033
844,-2944.1696148790033
907,0.0
908,0.0
971,0.0
972,0.0
1195,0.0
1197,0.0
2,4,12,25, 0,15, 0.00,60.00,Thursday
7,17.8
718,23.37454594762988
719,24.002964532442263
720,16.00096996971614
619,0.0
633,0.0
659,0.0
661,0.0
690,25.08738934321662
716,0.0
843,-3905.3876112191992
844,-3905.3876112191992
907,0.0
908,0.0
971,0.0
972,0.0
1195,0.0
1197,0.0
2,4,12,25, 0,16, 0.00,60.00,Thursday
7,15.6
718,23.262409757157954
719,23.300381942132766
720,16.146786843661296
619,0.0
633,0.0
659,0.0
661,0.0
690,41.894075252764274
716,0.0
843,-4558.749070450414
844,-4558.749070450414
907,0.0
908,0.0
971,0.0
972,0.0
1195,0.0
1197,0.0
2,4,12,25, 0,17, 0.00,60.00,Thursday
7,10.6
718,23.257393531296568
719,18.902555812017535
720,16.255921302327543
619,0.0
633,0.0
659,0.0
661,0.0
690,31.06885347244805
716,68.44031081428338
843,-5549.740785935484
844,-5549.740785935484
907,0.0
908,0.0
971,0.0
972,0.0
1195,0.0
1197,0.0
2,4,12,25, 0,18, 0.00,60.00,Thursday
7,10.6
718,23.34147558706723
719,15.693714351127186
720,16.43090899632314
619,0.0
633,0.0
659,0.0
661,0.0
690,42.12845202384771
716,0.0
843,-5362.657480485934
844,-5362.657480485934
907,0.0
908,0.0
971,0.0
972,0.0
1195,0.0
1197,0.0
2,4,12,25, 0,19, 0.00,60.00,Thursday
7,3.3
718,21.935257185186597
719,9.082474420291556
720,16.467976838624637
619,0.0
633,0.0
659,0.0
661,200.0
690,0.0
716,85.44000000000004
843,-4055.950021757004
844,-4055.950021757004
907,0.0
908,0.0
971,0.0
972,0.0
1195,0.0
1197,0.0
2,4,12,25, 0,20, 0.00,60.00,Thursday
7,1.7
718,21.396250666822425
719,6.267246908427863
720,16.563959384860965
619,0.0
633,0.0
659,0.0
661,200.0
690,0.0
716,61.22761281431181
843,-2472.2503769315335
844,-2472.2503769315335
907,0.0
908,0.0
971,0.0
972,0.0
1195,0.0
1197,0.0
2,4,12,25, 0,21, 0.00,60.00,Thursday
7,1.7
718,21.10386583019626
719,4.737309129005986