Program Version,EnergyPlus, Version 9.5.0-de239b2e5f, YMD=2022.08.24 13:35
1,5,Environment Title[],Latitude[deg],Longitude[deg],Time Zone[],Elevation[m]
2,8,Day of Simulation[],Month[],Day of Month[],DST Indicator[1=yes 0=no],Hour[],StartMinute[],EndMinute[],DayType
3,5,Cumulative Day of Simulation[],Month[],Day of Month[],DST Indicator[1=yes 0=no],DayType  ! When Daily Report Variables Requested
4,2,Cumulative Days of Simulation[],Month[]  ! When Monthly Report Variables Requested
5,1,Cumulative Days of Simulation[] ! When Run Period Report Variables Requested
6,1,Calendar Year of Simulation[] ! When Annual Report Variables Requested
191,11,LIVING,AFN Zone Infiltration Air Change Rate [ach] !Annual [Value,Min,Month,Day,Hour,Minute,Max,Month,Day,Hour,Minute]
192,11,ATTIC,AFN Zone Infiltration Air Change Rate [ach] !Annual [Value,Min,Month,Day,Hour,Minute,Max,Month,Day,Hour,Minute]
193,11,CRAWLSPACE,AFN Zone Infiltration Air Change Rate [ach] !Annual [Value,Min,Month,Day,Hour,Minute,Max,Month,Day,Hour,Minute]
527,11,Facility,Facility Heating Setpoint Not Met Time [hr] !Annual [Value,Min,Month,Day,Hour,Minute,Max,Month,Day,Hour,Minute]
528,11,Facility,Facility Cooling Setpoint Not Met Time [hr] !Annual [Value,Min,Month,Day,Hour,Minute,Max,Month,Day,Hour,Minute]
12,11,Electricity:Facility [J] !Annual [Value,Min,Month,Day,Hour,Minute,Max,Month,Day,Hour,Minute]
571,11,Heating:Electricity [J] !Annual [Value,Min,Month,Day,Hour,Minute,Max,Month,Day,Hour,Minute]
48,11,InteriorLights:Electricity [J] !Annual [Value,Min,Month,Day,Hour,Minute,Max,Month,Day,Hour,Minute]
596,11,ExteriorLights:Electricity [J] !Annual [Value,Min,Month,Day,Hour,Minute,Max,Month,Day,Hour,Minute]
86,11,InteriorEquipment:Electricity [J] !Annual [Value,Min,Month,Day,Hour,Minute,Max,Month,Day,Hour,Minute]
End of Data Dictionary
1,BOISE AP-GOWEN FIELD ANGB ANN HTG 99.6% CONDNS DB,  43.56,-116.22,  -7.00, 701.00
1,BOISE AP-GOWEN FIELD ANGB ANN CLG .4% CONDNS DB=>MWB,  43.56,-116.22,  -7.00, 701.00
1,ANNUAL,  43.56,-116.22,  -7.00, 701.00
6,2017
527,11.0,0.0,12,21, 1,60,1.0, 1,13, 5,60
528,2988.0,0.0,12,21, 1,60,1.0, 7,21, 1,60
191,0.14568611996518997,0.0078095804596502739, 4,28,10, 1,0.8020514662221976, 6,12,18, 3
192,2.541637130129322,0.0, 1, 1, 3,12,21.610782713601738, 3, 3,14,10
193,2.080845892525666,0.0, 4,20,13, 6,16.114117362718774, 6,12,18, 3
12,37261348429.86974,0.0, 1,24,11,60,21261936.951379818, 1,13, 8,60
48,0.0,0.0, 1, 1, 1,60,0.0, 1, 1, 1,60
86,0.0,0.0, 1, 1, 1,60,0.0, 1, 1, 1,60
571,37261348429.86974,0.0, 1,24,11,60,21261936.951379818, 1,13, 8,60
596,0.0,0.0, 1, 1, 1,60,0.0, 1, 1, 1,60
End of Data
 Number of Records Written=          10
