Program Version,EnergyPlus, Version 22.2.0-c249759bad, YMD=2023.09.01 14:30
1,5,Environment Title[],Latitude[deg],Longitude[deg],Time Zone[],Elevation[m]
2,8,Day of Simulation[],Month[],Day of Month[],DST Indicator[1=yes 0=no],Hour[],StartMinute[],EndMinute[],DayType
3,5,Cumulative Day of Simulation[],Month[],Day of Month[],DST Indicator[1=yes 0=no],DayType  ! When Daily Report Variables Requested
4,2,Cumulative Days of Simulation[],Month[]  ! When Monthly Report Variables Requested
5,1,Cumulative Days of Simulation[] ! When Run Period Report Variables Requested
6,1,Calendar Year of Simulation[] ! When Annual Report Variables Requested
7,1,Environment,Site Outdoor Air Drybulb Temperature [C] !Hourly
619,1,DX_HEATING_COIL,Heating Coil Heating Rate [W] !Hourly
633,1,DX_HEATING_COIL,Heating Coil Electricity Rate [W] !Hourly
659,1,DX_HEATING_COIL,Heating Coil Defrost Electricity Rate [W] !Hourly
661,1,DX_HEATING_COIL,Heating Coil Crankcase Heater Electricity Rate [W] !Hourly
690,1,FAN,Fan Electricity Rate [W] !Hourly
716,1,HEAT PUMP WATER HEATER FAN,Fan Electricity Rate [W] !Hourly
718,1,LIVING,Zone Mean Air Temperature [C] !Hourly
719,1,ATTIC,Zone Mean Air Temperature [C] !Hourly
720,1,CRAWLSPACE,Zone Mean Air Temperature [C] !Hourly
843,1,LIVING,Zone Predicted Sensible Load to Heating Setpoint Heat Transfer Rate [W] !Hourly
844,1,LIVING,Zone System Predicted Sensible Load to Heating Setpoint Heat Transfer Rate [W] !Hourly
907,1,ATTIC,Zone Predicted Sensible Load to Heating Setpoint Heat Transfer Rate [W] !Hourly
908,1,ATTIC,Zone System Predicted Sensible Load to Heating Setpoint Heat Transfer Rate [W] !Hourly
971,1,CRAWLSPACE,Zone Predicted Sensible Load to Heating Setpoint Heat Transfer Rate [W] !Hourly
972,1,CRAWLSPACE,Zone System Predicted Sensible Load to Heating Setpoint Heat Transfer Rate [W] !Hourly
1195,1,HEATING_RESISTANCE_BACKUP,Heating Coil Heating Rate [W] !Hourly
1197,1,HEATING_RESISTANCE_BACKUP,Heating Coil Electricity Rate [W] !Hourly
End of Data Dictionary
1,EXTREME_WINTER,  37.37,-118.37,  -8.00,1252.00
2,1, 1,13, 0, 1, 0.00,60.00,Monday
7,-3.9
718,18.84978976995695
719,-3.531259201054107
720,18.62168125906664
619,1378.9815067625682
633,481.1287908799607
659,0.02445336041141981
661,143.67156824551768
690,50.762053821834954
716,0.0
843,931.0518371806556
844,931.0518371806556
907,0.0
908,0.0
971,0.0
972,0.0
1195,0.0
1197,0.0
2,1, 1,13, 0, 2, 0.00,60.00,Monday
7,-5.0
718,18.506826403511354
719,-3.878415311037496
720,18.24378268734028
619,1571.0591745666313
633,560.7809015239483
659,0.028631758054802756
661,134.04660944482578
690,59.435778280281625
716,0.0
843,1092.2394646882803
844,1092.2394646882803
907,0.0
908,0.0
971,0.0
972,0.0
1195,0.0
1197,0.0
2,1, 1,13, 0, 3, 0.00,60.00,Monday
7,-7.8
718,18.369922016535607
719,-3.896970126816465
720,17.937341875351418
619,2797.063252479293
633,1014.5040319522993
659,0.05342640231980375
661,76.93202871400986
690,110.90571601586413
716,0.0
843,1884.266196868315
844,1884.266196868315
907,0.0
908,0.0
971,0.0
972,0.0
1195,0.0
1197,0.0
2,1, 1,13, 0, 4, 0.00,60.00,Monday
7,-5.6
718,18.55720833188694
719,-3.7161769169589354
720,17.703284701970343
619,3538.7952889690537
633,1205.744825551527
659,0.06251594731204164
661,55.99421868870702
690,129.7748031326484
716,0.0
843,2450.8092055118923
844,2450.8092055118923
907,0.0
908,0.0
971,0.0
972,0.0
1195,0.0
1197,0.0
2,1, 1,13, 0, 5, 0.00,60.00,Monday
7,-5.6
718,18.576448506461258
719,-3.4076749296904727
720,17.472841330370823
619,3865.3987067031144
633,1313.1242162713575
659,0.06785059029990746
661,43.705843249877915
690,140.84881144957802
716,0.0
843,2666.797558531707
844,2666.797558531707
907,0.0
908,0.0
971,0.0
972,0.0
1195,0.0
1197,0.0
2,1, 1,13, 0, 6, 0.00,60.00,Monday
7,-6.7
718,19.27697938914358
719,-3.160512078238627
720,17.224517963452282
619,4919.154548688308
633,1664.803684562123
659,0.0868242187817485
661,0.0
690,180.2381284608149
716,0.0
843,3765.2820446683836
844,3765.2820446683836
907,0.0
908,0.0
971,0.0
972,0.0
1195,466.2962408974254
1197,466.2962408974254
2,1, 1,13, 0, 7, 0.00,60.00,Monday
7,-8.3
718,19.532554472731334
719,-3.2664241172044575
720,17.047759816263905
619,4671.02728624626
633,1664.0758658678426
659,0.0868242187817485
661,0.0
690,180.2381284608149
716,85.44000000000005
843,4048.193691546836
844,4048.193691546836
907,0.0
908,0.0
971,0.0
972,0.0
1195,2135.506258607807
1197,2135.506258607807
2,1, 1,13, 0, 8, 0.00,60.00,Monday
7,-4.4
718,19.634657563956065
719,-2.292217063674601
720,16.896268210018352
619,5231.891785736371
633,1728.7822731426797
659,0.0868242187817485
661,0.0
690,180.2381284608149
716,85.44000000000005
843,3537.7243907069133
844,3537.7243907069133
907,0.0
908,0.0
971,0.0
972,0.0
1195,1070.140535802153
1197,1070.140535802153
2,1, 1,13, 0, 9, 0.00,60.00,Monday
7,1.1
718,19.8090487909691
719,0.23110893493212822
720,16.76552861575179
619,3060.4172440370776
633,965.5802574643486
659,0.04614828582453459
661,93.69720460016273
690,95.7985373791628
716,10.676772949537652
843,2054.999714946018
844,2054.999714946018
907,0.0
908,0.0
971,0.0
972,0.0
1195,0.0
1197,0.0
2,1, 1,13, 0,10, 0.00,60.00,Monday
7,6.7
718,19.965737500128792
719,5.380938455350482
720,16.60985361871483
619,845.2185598415211
633,235.15733418027324
659,0.0
661,176.69305475017634
690,21.00400095983449
716,0.0
843,631.3839348037163
844,631.3839348037163
907,0.0
908,0.0
971,0.0
972,0.0
1195,0.0
1197,0.0
2,1, 1,13, 0,11, 0.00,60.00,Monday
7,6.7
718,20.2043296047644
719,11.551736223991723
720,16.486957742881554
619,0.0
633,0.0
659,0.0
661,200.0
690,0.0
716,0.0
843,-433.75475014685435
844,-433.75475014685435
907,0.0
908,0.0
971,0.0
972,0.0
1195,0.0
1197,0.0
2,1, 1,13, 0,12, 0.00,60.00,Monday
7,12.2
718,21.346565312551615
719,21.127256865124178
720,16.415992757154665
619,0.0
633,0.0
659,0.0
661,0.0
690,0.0
716,0.0
843,-1336.9769259517197
844,-1336.9769259517197
907,0.0
908,0.0
971,0.0
972,0.0
1195,0.0
1197,0.0
2,1, 1,13, 0,13, 0.00,60.00,Monday
7,13.9
718,22.241141445729358
719,25.540580386970646
720,16.384584499435363
619,0.0
633,0.0
659,0.0
661,0.0
690,0.0
716,0.0
843,-2118.784924823778
844,-2118.784924823778
907,0.0
908,0.0
971,0.0
972,0.0
1195,0.0
1197,0.0
2,1, 1,13, 0,14, 0.00,60.00,Monday
7,14.4
718,22.38135945787568
719,26.9574942239004
720,16.391862438051348
619,0.0
633,0.0
659,0.0
661,0.0
690,0.0
716,71.96600423018977
843,-3088.284074634308
844,-3088.284074634308
907,0.0
908,0.0
971,0.0
972,0.0
1195,0.0
1197,0.0
2,1, 1,13, 0,15, 0.00,60.00,Monday
7,15.0
718,23.255417465547
719,26.101613551193363
720,16.453196961357893
619,0.0
633,0.0
659,0.0
661,0.0
690,19.857659016765624
716,0.0
843,-3553.0763105456626
844,-3553.0763105456626
907,0.0
908,0.0
971,0.0
972,0.0
1195,0.0
1197,0.0
2,1, 1,13, 0,16, 0.00,60.00,Monday
7,14.4
718,23.272435605622775
719,23.487279523126098
720,16.53615002021841
619,0.0
633,0.0
659,0.0
661,0.0
690,35.066999218101664
716,0.0
843,-4219.884130705885
844,-4219.884130705885
907,0.0
908,0.0
971,0.0
972,0.0
1195,0.0
1197,0.0
2,1, 1,13, 0,17, 0.00,60.00,Monday
7,14.4
718,23.330505288385062
719,20.078385222970503
720,16.625224582632793
619,0.0
633,0.0
659,0.0
661,0.0
690,39.547735833055675
716,0.0
843,-4895.492347460944
844,-4895.492347460944
907,0.0
908,0.0
971,0.0
972,0.0
1195,0.0
1197,0.0
2,1, 1,13, 0,18, 0.00,60.00,Monday
7,5.6
718,23.015219483003303
719,13.945885806976674
720,16.656672883662086
619,0.0
633,0.0
659,0.0
661,183.40057199902293
690,14.959249182080754
716,0.0
843,-3995.5410045999033
844,-3995.5410045999033
907,0.0
908,0.0
971,0.0
972,0.0
1195,0.0
1197,0.0
2,1, 1,13, 0,19, 0.00,60.00,Monday
7,-0.6
718,22.033089986116924
719,8.628872008663643
720,16.696957867101627
619,0.0
633,0.0
659,0.0
661,200.0
690,0.0
716,85.44000000000005
843,-3033.7811518410235
844,-3033.7811518410235
907,0.0
908,0.0
971,0.0
972,0.0
1195,0.0
1197,0.0
2,1, 1,13, 0,20, 0.00,60.00,Monday
7,-2.2
718,21.38520081060091
719,4.327927421335611
720,16.712708139566377
619,0.0
633,0.0
659,0.0
661,200.0
690,0.0
716,85.44000000000005
843,-2474.9625717607814
844,-2474.9625717607814
907,0.0
908,0.0
971,0.0
972,0.0
1195,0.0
1197,0.0
2,1, 1,13, 0,21, 0.00,60.00,Monday
7,-5.0
718,20.977662777928835
719,1.01190595676717
720,16.688110253815
619,0.0
633,0.0
659,0.0
661,200.0
690,0.0
716,26.510507809342784
843,-1486.093139419654
844,-1486.093139419654
907,0.0
908,0.0
971,0.0
972,0.0
1195,0.0
1197,0.0
2,1, 1,13, 0,22, 0.00,60.00,Monday
7,-5.6
718,20.42307922150908
719,-1.676010616062666
720,16.62814295735047
619,0.0
633,0.0
659,0.0
661,200.0
690,0.0
716,0.0
843,-636.7683226684803
844,-636.7683226684803
907,0.0
908,0.0
971,0.0
972,0.0
1195,0.0
1197,0.0
2,1, 1,13, 0,23, 0.00,60.00,Monday
7,-5.6
718,19.451848562671685
719,-3.113776305056058
720,16.543033638078423
619,0.0
633,0.0
659,0.0
661,200.0
690,0.0
716,0.0
843,-728.8151183363734
844,-728.8151183363734
907,0.0
908,0.0
971,0.0
972,0.0
1195,0.0
1197,0.0
2,1, 1,13, 0,24, 0.00,60.00,Monday
7,-6.1
718,18.609166643207125
719,-3.818309564518733
720,16.43154073261869
619,456.18467403973506
633,173.1455025963768
659,0.008833393044951043
661,179.65223720087664
690,18.336934794519294
716,0.0
843,313.14140090185356
844,313.14140090185356
907,0.0
908,0.0
971,0.0
972,0.0
1195,0.0
1197,0.0
2,2, 1,14, 0, 1, 0.00,60.00,Tuesday
7,-6.7
718,18.57634447529273
719,-4.114496932571528
720,16.27486540260475
619,1767.350293100402
633,643.6633178483528
659,0.03356187220189641
661,122.69006811046248
690,69.66986670579549
716,0.0
843,1211.9936879038487
844,1211.9936879038487
907,0.0
908,0.0
971,0.0
972,0.0
1195,0.0
1197,0.0
2,2, 1,14, 0, 2, 0.00,60.00,Tuesday
7,-6.1
718,18.49857403651796
719,-4.105079189000928
720,16.141460139742577
619,2140.8941695115614
633,762.9829033815657
659,0.039616120454486245
661,108.74407852935606
690,82.23773928409247
716,0.0
843,1455.9381632198101
844,1455.9381632198101
907,0.0
908,0.0
971,0.0
972,0.0
1195,0.0
1197,0.0
2,2, 1,14, 0, 3, 0.00,60.00,Tuesday
7,-7.2
718,18.40529716349125
719,-3.7829457896436725
720,15.965768910575447
619,3497.8147342537136
633,1230.1749809123746
659,0.06459179085487417
661,51.212503236591985
690,134.0836345075961
716,0.0
843,2364.984176482476
844,2364.984176482476
907,0.0
908,0.0
971,0.0
972,0.0
1195,0.0
1197,0.0
2,2, 1,14, 0, 4, 0.00,60.00,Tuesday
7,-8.3
718,18.468943010643866
719,-3.9647835778302425
720,15.800326242868257
619,4508.476731036601
633,1575.9800597391663
659,0.08370872635920718
661,7.176551580320667
690,173.76742443369238
716,0.0
843,3028.861951761104
844,3028.861951761104
907,0.0
908,0.0
971,0.0
972,0.0
1195,0.0
1197,0.0
2,2, 1,14, 0, 5, 0.00,60.00,Tuesday
7,-8.3
718,18.551233313468636
719,-4.0736947771163186
720,15.666384148238672
619,4695.599884593688
633,1636.3324492311954
659,0.0868242187817485
661,0.0
690,180.2381284608149
716,0.0
843,3354.4028769371034
844,3354.4028769371034
907,0.0
908,0.0
971,0.0
972,0.0
1195,268.7269104567458
1197,268.7269104567458
2,2, 1,14, 0, 6, 0.00,60.00,Tuesday
7,-9.4
718,19.32935454293986
719,-4.202152924072029
720,15.513745283632282
619,4536.858675169335
633,1622.0809339946964
659,0.8917232975583895
661,0.0
690,180.2381284608149
716,0.0
843,4840.5258731632475
844,4840.5258731632475
907,0.0
908,0.0
971,0.0
972,0.0
1195,2203.074725787228
1197,2203.074725787228
2,2, 1,14, 0, 7, 0.00,60.00,Tuesday
7,-8.3
718,19.549726966490315
719,-3.8581873960133697
720,15.424957259211919
619,4671.922906633114
633,1663.065705899995
659,0.0868242187817485
661,0.0
690,180.2381284608149
716,85.44000000000005
843,4339.108418458503
844,4339.108418458503
907,0.0
908,0.0
971,0.0
972,0.0
1195,2601.8959334449405
1197,2601.8959334449405
2,2, 1,14, 0, 8, 0.00,60.00,Tuesday
7,-5.6
718,19.64971734448515
719,-2.97281795744854
720,15.311331978349399
619,5055.089198888123
633,1709.204125184592
659,0.0868242187817485
661,0.0
690,180.2381284608149
716,85.44000000000005
843,3780.21416773256
844,3780.21416773256
907,0.0
908,0.0
971,0.0
972,0.0
1195,1629.0807455960694
1197,1629.0807455960694
2,2, 1,14, 0, 9, 0.00,60.00,Tuesday
7,0.6
718,19.70878715807398
719,-0.5890645007993194
720,15.226016415714588
619,5135.854416796954
633,1567.7345309635748
659,0.07537716546910266
661,26.368341629241687
690,156.4742464370831
716,85.44000000000005
843,2648.3197213749245
844,2648.3197213749245
907,0.0
908,0.0
971,0.0
972,0.0
1195,0.0
1197,0.0
2,2, 1,14, 0,10, 0.00,60.00,Tuesday
7,5.6
718,19.845976667920326
719,4.682589542261932
720,15.057474210762091
619,1723.1257914166424
633,478.52220884668174
659,0.0
661,151.8591390752472
690,43.38409337784907
716,25.10234703144908
843,1023.0014743079064
844,1023.0014743079064
907,0.0
908,0.0
971,0.0
972,0.0
1195,0.0
1197,0.0
2,2, 1,14, 0,11, 0.00,60.00,Tuesday
7,5.6
718,19.73154906541751
719,11.023581172996499
720,14.951588736037332
619,96.16371190662656
633,27.47912318908138
659,0.0
661,197.24278357350494
690,2.484777642364429
716,0.0
843,70.49952500255131
844,70.49952500255131
907,0.0
908,0.0
971,0.0
972,0.0
1195,0.0
1197,0.0
2,2, 1,14, 0,12, 0.00,60.00,Tuesday
7,11.1
718,20.848295261406317
719,20.528896369558243
720,14.91288691853455
619,0.0
633,0.0
659,0.0
661,0.0
690,0.0
716,0.0
843,-700.7415410379217
844,-700.7415410379217
907,0.0
908,0.0
971,0.0
972,0.0
1195,0.0
1197,0.0
2,2, 1,14, 0,13, 0.00,60.00,Tuesday
7,12.2
718,21.622877950978566
719,24.584990660596677
720,14.912516927779675
619,0.0
633,0.0
659,0.0
661,0.0
690,0.0
716,0.0
843,-1578.6798992580389
844,-1578.6798992580389
907,0.0
908,0.0
971,0.0
972,0.0
1195,0.0
1197,0.0
2,2, 1,14, 0,14, 0.00,60.00,Tuesday
7,12.8
718,22.708662122420566
719,26.80995683055549
720,14.946315893796005
619,0.0
633,0.0
659,0.0
661,0.0
690,0.0
716,0.0
843,-2493.7164599424596
844,-2493.7164599424596
907,0.0
908,0.0
971,0.0
972,0.0
1195,0.0
1197,0.0
2,2, 1,14, 0,15, 0.00,60.00,Tuesday
7,13.3
718,23.30124219124089
719,25.83714528937858
720,15.026607549678024
619,0.0
633,0.0
659,0.0
661,0.0
690,10.11057986376353
716,0.0
843,-3382.640800990923
844,-3382.640800990923
907,0.0
908,0.0
971,0.0
972,0.0
1195,0.0
1197,0.0
2,2, 1,14, 0,16, 0.00,60.00,Tuesday
7,11.7
718,23.230883626365763
719,22.52972432247753
720,15.122704138648004
619,0.0
633,0.0
659,0.0
661,0.0
690,17.954846269058578
716,0.0
843,-3392.2312602054317
844,-3392.2312602054317
907,0.0
908,0.0
971,0.0
972,0.0
1195,0.0
1197,0.0
2,2, 1,14, 0,17, 0.00,60.00,Tuesday
7,11.7
718,23.341331613652116
719,18.690313785830696
720,15.230833807194056
619,0.0
633,0.0
659,0.0
661,0.0
690,19.39376119043611
716,0.0
843,-3683.735490841902
844,-3683.735490841902
907,0.0
908,0.0
971,0.0
972,0.0
1195,0.0
1197,0.0
2,2, 1,14, 0,18, 0.00,60.00,Tuesday
7,4.4
718,23.060500455810807
719,13.36435225377839
720,15.297674153363818
619,0.0
633,0.0
659,0.0
661,194.18689989219112
690,5.238711419934159
716,0.0
843,-3220.5462127706796
844,-3220.5462127706796
907,0.0
908,0.0
971,0.0
972,0.0
1195,0.0
1197,0.0
2,2, 1,14, 0,19, 0.00,60.00,Tuesday
7,-2.8
718,21.486868569996645
719,7.193995196969888
720,15.364095833288884
619,0.0
633,0.0
659,0.0
661,200.0
690,0.0
716,85.23821624670461
843,-2466.9867993859134
844,-2466.9867993859134
907,0.0
908,0.0
971,0.0
972,0.0
1195,0.0
1197,0.0
2,2, 1,14, 0,20, 0.00,60.00,Tuesday
7,-2.8
718,20.86953281958191
719,3.35277207532173
720,15.393686855235615
619,0.0
633,0.0
659,0.0
661,200.0
690,0.0
716,85.44000000000005
843,-2011.8195816686148
844,-2011.8195816686148
907,0.0
908,0.0
971,0.0
972,0.0
1195,0.0
1197,0.0
2,2, 1,14, 0,21, 0.00,60.00,Tuesday
7,-3.9
718,20.09552420079991
719,0.34691891816648074
720,15.382687262272482
619,0.0
633,0.0
659,0.0
661,200.0
690,0.0
716,81.82297477734166
843,-1155.1904531343935
844,-1155.1904531343935
907,0.0
908,0.0
971,0.0
972,0.0
1195,0.0
1197,0.0
2,2, 1,14, 0,22, 0.00,60.00,Tuesday
7,-5.6
718,19.887978064371463
719,-1.7067216426590672
720,15.34218356401244
619,0.0
633,0.0
659,0.0
661,200.0
690,0.0
716,0.0
843,-157.17752292531804
844,-157.17752292531804
907,0.0
908,0.0
971,0.0
972,0.0
1195,0.0
1197,0.0
2,2, 1,14, 0,23, 0.00,60.00,Tuesday
7,-5.6
718,18.933025257274927
719,-3.349781389978749
720,15.274173729849785
619,0.0
633,0.0
659,0.0
661,200.0
690,0.0
716,0.0
843,-269.06831375108595
844,-269.06831375108595
907,0.0
908,0.0
971,0.0
972,0.0
1195,0.0
1197,0.0
2,2, 1,14, 0,24, 0.00,60.00,Tuesday
7,-7.8
718,18.531002780095896
719,-4.337833896431482
720,15.178438712954797
619,1297.266774982427
633,491.92229642000257
659,0.02575627963523624
661,140.6702876302746
690,53.46642146926602
716,0.0
843,879.6494106021273
844,879.6494106021273
907,0.0
908,0.0
971,0.0
972,0.0
1195,0.0
1197,0.0
2,3, 1,15, 0, 1, 0.00,60.00,Wednesday
7,-6.1
718,18.72335451818466
719,-4.438964113243445
720,15.075239197831555
619,2154.570627147838
633,765.7300311948935
659,0.039835380087757215
661,108.23901292358971
690,82.69289349599893
716,0.0
843,1458.2754808915306
844,1458.2754808915306
907,0.0
908,0.0
971,0.0
972,0.0
1195,0.0
1197,0.0
2,3, 1,15, 0, 2, 0.00,60.00,Wednesday
7,-6.7
718,18.581863429154215
719,-4.764118581801861
720,14.964286312825854
619,2644.3806480068206
633,944.109415313447
659,0.04918949451434406
661,86.69176595071353
690,102.11067764332861
716,0.0
843,1764.8536264243921
844,1764.8536264243921
907,0.0
908,0.0
971,0.0
972,0.0
1195,0.0
1197,0.0
2,3, 1,15, 0, 3, 0.00,60.00,Wednesday
7,-5.0
718,18.54548395887653
719,-3.8399472260356315
720,14.851140237513183
619,3406.8074371125867
633,1153.5432465774534
659,0.059424577403446345
661,63.115203943676335
690,123.35764082124689
716,0.0
843,2295.6537964536838
844,2295.6537964536838
907,0.0
908,0.0
971,0.0
972,0.0
1195,0.0
1197,0.0
2,3, 1,15, 0, 4, 0.00,60.00,Wednesday
7,-5.6
718,18.573358574566505
719,-3.560121899798088
720,14.730610568146592
619,3966.010584129902
633,1339.370096561825
659,0.06940870439925627
661,40.11672002778373
690,144.08325103664168
716,0.0
843,2690.4368631466314
844,2690.4368631466314
907,0.0
908,0.0
971,0.0
972,0.0
1195,0.0
1197,0.0
2,3, 1,15, 0, 5, 0.00,60.00,Wednesday
7,-5.6
718,18.587306235064666
719,-3.4216315804708604
720,14.620922191888672
619,4244.456194421663
633,1425.2956695390108
659,0.07383324939937523
661,29.924759622724338
690,153.26801852214894
716,0.0
843,2880.340579213127
844,2880.340579213127
907,0.0
908,0.0
971,0.0
972,0.0
1195,0.0
1197,0.0
2,3, 1,15, 0, 6, 0.00,60.00,Wednesday
7,-7.2
718,19.17291767026903
719,-3.0299791235292535
720,14.49178902000187
619,4850.568372935339
633,1653.6852734929832
659,0.0868242187817485
661,0.0
690,180.2381284608149
716,85.44000000000005
843,4213.427023629702
844,4213.427023629702
907,0.0
908,0.0
971,0.0
972,0.0
1195,2133.883895103795
1197,2133.883895103795
2,3, 1,15, 0, 7, 0.00,60.00,Wednesday
7,-5.6
718,19.494291368355594
719,-2.62273837925366
720,14.428370794087476
619,5067.189064389972
633,1695.1632533156242
659,0.0868242187817485
661,0.0
690,180.2381284608149
716,85.44000000000005
843,4043.7426109793087
844,4043.7426109793087
907,0.0
908,0.0
971,0.0
972,0.0
1195,1845.1571971467474
1197,1845.1571971467474
2,3, 1,15, 0, 8, 0.00,60.00,Wednesday
7,-5.0
718,19.621058869485193
719,-2.094895682128645
720,14.331558901848185
619,5147.003256950502
633,1714.3751930918677
659,0.0868242187817485
661,0.0
690,180.2381284608149
716,80.34680882096156
843,3764.304247314305
844,3764.304247314305
907,0.0
908,0.0
971,0.0
972,0.0
1195,1377.0936796831297
1197,1377.0936796831297
2,3, 1,15, 0, 9, 0.00,60.00,Wednesday
7,1.1
718,19.7591309506851
719,-0.5619625130230401
720,14.24384008881114
619,4141.020797197133
633,1275.5008278212897
659,0.06113880703823072
661,59.16646784483861
690,126.91713702939475
716,0.0
843,2907.181976186699
844,2907.181976186699
907,0.0
908,0.0
971,0.0
972,0.0
1195,0.0
1197,0.0
2,3, 1,15, 0,10, 0.00,60.00,Wednesday
7,3.3
718,19.802473521875587
719,0.4820452192640889
720,14.134503978716918
619,3327.1492104364324
633,1008.8555325867806
659,0.04725806054439882
661,91.14083326636728
690,98.10252380274073
716,0.0
843,2399.0584004391385
844,2399.0584004391385
907,0.0
908,0.0
971,0.0
972,0.0
1195,0.0
1197,0.0
2,3, 1,15, 0,11, 0.00,60.00,Wednesday
7,3.3
718,19.752982906770026
719,3.695068592712417
720,14.032081535981158
619,2584.5109929205105
633,795.0993780844093
659,0.03721410766607362
661,114.27712638654577
690,77.25238485322521
716,0.0
843,1882.1682755827533
844,1882.1682755827533
907,0.0
908,0.0
971,0.0
972,0.0
1195,0.0
1197,0.0
2,3, 1,15, 0,12, 0.00,60.00,Wednesday
7,6.1
718,19.805002741355803
719,6.700659087071141
720,13.940867707554453
619,1951.0223424744127
633,535.8717113858876
659,0.0
661,146.35060245728454
690,48.34833503074638
716,0.0
843,1500.0442940790072
844,1500.0442940790072
907,0.0
908,0.0
971,0.0
972,0.0
1195,0.0
1197,0.0
2,3, 1,15, 0,13, 0.00,60.00,Wednesday
7,7.2
718,19.760984509217387
719,11.541839431113205
720,13.870265011570726
619,1137.26519107744
633,311.7903164464059
659,0.0
661,169.17949333441413
690,27.775152198096343
716,0.0
843,895.4014551266137
844,895.4014551266137
907,0.0
908,0.0
971,0.0
972,0.0
1195,0.0
1197,0.0
2,3, 1,15, 0,14, 0.00,60.00,Wednesday
7,7.8
718,19.701263916955334
719,14.731709959336309
720,13.817188986079207
619,335.40973647913
633,92.21455985638192
659,0.0
661,190.93759583311467
690,8.166953831974519
716,0.0
843,272.9632482009856
844,272.9632482009856
907,0.0
908,0.0
971,0.0
972,0.0
1195,0.0
1197,0.0
2,3, 1,15, 0,15, 0.00,60.00,Wednesday
7,7.8
718,18.94713615908206
719,16.80178447759479
720,13.803482075627562
619,0.0
633,0.0
659,0.0
661,200.0
690,0.0
716,71.63793223933243
843,-24.734668751598292
844,-24.734668751598292
907,0.0
908,0.0
971,0.0
972,0.0
1195,0.0
1197,0.0
2,3, 1,15, 0,16, 0.00,60.00,Wednesday
7,8.9
718,19.47251102551371
719,15.454262238324985
720,13.848848723737092
619,1149.3875344751536
633,302.35024943250386
659,0.0
661,170.22264462702805
690,26.835074014685272
716,81.20004487557149
843,142.29978954087346
844,142.29978954087346
907,0.0
908,0.0
971,0.0
972,0.0
1195,0.0
1197,0.0
2,3, 1,15, 0,17, 0.00,60.00,Wednesday
7,8.9
718,19.769680416875907
719,12.059857660657027
720,13.83492436835242
619,0.0
633,0.0
659,0.0
661,200.0
690,0.0
716,0.0
843,-1.8358758612748716
844,-1.8358758612748716
907,0.0
908,0.0
971,0.0
972,0.0
1195,0.0
1197,0.0
2,3, 1,15, 0,18, 0.00,60.00,Wednesday
7,3.3
718,19.710632648334506
719,7.251934685231936
720,13.87345188550183
619,407.957427907459
633,130.59155261648624
659,0.006116098327224965
661,185.91153847845356
690,12.696345865960188
716,0.0
843,324.18208642497757
844,324.18208642497757
907,0.0
908,0.0
971,0.0
972,0.0
1195,0.0
1197,0.0
2,3, 1,15, 0,19, 0.00,60.00,Wednesday
7,1.7
718,19.59341416209927
719,3.821342600981493
720,13.878205594252771
619,422.3489220589593
633,138.67271428200166
659,0.006599035373514239
661,184.79909070048222
690,13.698847792755428
716,0.0
843,327.91085539291
844,327.91085539291
907,0.0
908,0.0
971,0.0
972,0.0
1195,0.0
1197,0.0
2,3, 1,15, 0,20, 0.00,60.00,Wednesday
7,-2.2
718,19.39019972140727
719,2.109305855616539
720,13.919635198914404
619,2028.2108015218228
633,688.572704826866
659,0.03399112482225294
661,121.701282662394
690,70.56139319307081
716,85.44000000000005
843,490.6090871124725
844,490.6090871124725
907,0.0
908,0.0
971,0.0
972,0.0
1195,0.0
1197,0.0
2,3, 1,15, 0,21, 0.00,60.00,Wednesday
7,-3.9
718,19.18732673000468
719,0.11768586875429861
720,13.898275546128001
619,2763.452117602981
633,947.72240696988
659,0.04765686910319946
661,90.22217585856929
690,98.92957162268166
716,85.44000000000005
843,1043.736424374033
844,1043.736424374033
907,0.0
908,0.0
971,0.0
972,0.0
1195,0.0
1197,0.0
2,3, 1,15, 0,22, 0.00,60.00,Wednesday
7,-0.6
718,19.84784628150226
719,-0.05753231917952346
720,13.853883456452964
619,2199.158514306737
633,715.8635147132733
659,0.03513563446325929
661,119.06489927290833
690,72.9373997627877
716,29.237568935625813
843,1288.3165522137133
844,1288.3165522137133
907,0.0
908,0.0
971,0.0
972,0.0
1195,0.0
1197,0.0
2,3, 1,15, 0,23, 0.00,60.00,Wednesday
7,-0.6
718,18.783181512693623
719,-0.8552822804515103
720,13.77392880395414
619,883.4131028514771
633,300.3385218896341
659,0.014548406697554597
661,166.487676130723
690,30.200761822712007
716,0.0
843,621.8968391764265
844,621.8968391764265
907,0.0
908,0.0
971,0.0
972,0.0
1195,0.0
1197,0.0
2,3, 1,15, 0,24, 0.00,60.00,Wednesday
7,0.6
718,18.82151440409039
719,-0.6719659342234657
720,13.719288367038102
619,1376.0135353680664
633,441.6356241054517
659,0.021618964692442393
661,150.2006122351959
690,44.87846262858054
716,0.0
843,996.3042611400178
844,996.3042611400178
907,0.0
908,0.0
971,0.0
972,0.0
1195,0.0
1197,0.0
2,4, 1,16, 0, 1, 0.00,60.00,Thursday
7,1.7
718,18.515485322032944
719,0.4333763785664964
720,13.66245781003093
619,1851.4136959219043
633,578.3637585461646
659,0.028014525211738982
661,135.46840822798632
690,58.15497319621016
716,0.0
843,1346.2508553012758
844,1346.2508553012758
907,0.0
908,0.0
971,0.0
972,0.0
1195,0.0
1197,0.0
2,4, 1,16, 0, 2, 0.00,60.00,Thursday
7,-2.2
718,18.25344445863777
719,-0.025979101272644748
720,13.591862095222902
619,2860.662490073722
633,928.9863309366951
659,0.046858921458128804
661,92.06025204575955
690,97.27336117018221
716,0.0
843,2076.1020731364424
844,2076.1020731364424
907,0.0
908,0.0
971,0.0
972,0.0
1195,0.0
1197,0.0
2,4, 1,16, 0, 3, 0.00,60.00,Thursday
7,1.7
718,18.736872806327703
719,0.7941818592054977
720,13.531211176316722
619,3170.0457852624395
633,952.5180721785323
659,0.04666396870101557
661,92.50932664694496
690,96.86910151308666
716,0.0
843,2335.517191465011
844,2335.517191465011
907,0.0
908,0.0
971,0.0
972,0.0
1195,0.0
1197,0.0
2,4, 1,16, 0, 4, 0.00,60.00,Thursday
7,-4.4
718,18.50027451750536
719,-0.644272911160816
720,13.456370338437369
619,3677.3382872518914
633,1226.882669225056
659,0.06278554183620634
661,55.37320642289585
690,130.3346764626461
716,0.0
843,2625.4934074629673
844,2625.4934074629673
907,0.0
908,0.0
971,0.0
972,0.0
1195,0.0
1197,0.0
2,4, 1,16, 0, 5, 0.00,60.00,Thursday
7,-4.4
718,18.568882521081324
719,-1.3716612446560996
720,13.376888030852518
619,4002.6679724031533
633,1318.2152309636244
659,0.06778135859057702
661,43.86531882086917
690,140.70534917586033
716,0.0
843,2830.058053147248
844,2830.058053147248
907,0.0
908,0.0
971,0.0
972,0.0
1195,0.0
1197,0.0
2,4, 1,16, 0, 6, 0.00,60.00,Thursday
7,0.6
718,19.424471872008198
719,0.08905119427235796
720,13.344393515042908
619,4832.5359715142695
633,1442.1699139344726
659,0.07095681828030612
661,36.55063235599856
690,147.2981240132895
716,0.0
843,3467.6695803958883
844,3467.6695803958883
907,0.0
908,0.0
971,0.0
972,0.0
1195,0.0
1197,0.0
2,4, 1,16, 0, 7, 0.00,60.00,Thursday
7,-0.6
718,19.481948429009375
719,1.0040382568749429
720,13.323874380118687
619,5828.959015217371
633,1775.3168604634652
659,0.0868242187817485
661,0.0
690,180.2381284608149
716,85.44000000000005
843,3423.8885353849328
844,3423.8885353849328
907,0.0
908,0.0
971,0.0
972,0.0
1195,237.21656973407062
1197,237.21656973407062
2,4, 1,16, 0, 8, 0.00,60.00,Thursday
7,1.1
718,19.62469299257159
719,2.943144036831336
720,13.258406616517227
619,6102.007038189517
633,1803.9242866316713
659,0.0868242187817485
661,0.0
690,180.2381284608149
716,85.44000000000005
843,3734.7069193444386
844,3734.7069193444386
907,0.0
908,0.0
971,0.0
972,0.0
1195,367.5377025845155
1197,367.5377025845155
2,4, 1,16, 0, 9, 0.00,60.00,Thursday
7,1.1
718,19.691386717997187
719,4.150772156646256
720,13.195466844576975
619,5702.05243379013
633,1703.6171111053131
659,0.08177260445661651
661,11.636417571070389
690,169.75052946120226
716,79.41411832758806
843,3365.466683391436
844,3365.466683391436
907,0.0
908,0.0
971,0.0
972,0.0
1195,0.0
1197,0.0
2,4, 1,16, 0,10, 0.00,60.00,Thursday
7,3.3
718,19.872366820806043
719,6.271808308567423
720,13.063831191295508
619,2746.2169964042414
633,838.9898650668983
659,0.039396822827983465
661,109.24923165271218
690,81.78346111772684
716,0.0
843,2039.6230898739777
844,2039.6230898739777
907,0.0
908,0.0
971,0.0
972,0.0
1195,0.0
1197,0.0
2,4, 1,16, 0,11, 0.00,60.00,Thursday
7,3.3
718,19.790853055298285
719,7.301700365520971
720,13.021657148479783
619,1525.262894110691
633,478.6354409666241
659,0.022396239878278667
661,148.410155155956
690,46.492124908206314
716,0.0
843,1154.8981444785932
844,1154.8981444785932
907,0.0
908,0.0
971,0.0
972,0.0
1195,0.0
1197,0.0
2,4, 1,16, 0,12, 0.00,60.00,Thursday
7,6.1
718,20.493363759724993
719,10.977012807170096
720,13.000572512421984
619,682.7096433911265
633,191.13362594344312
659,0.0
661,180.86053741694775
690,17.24830457857566
716,0.0
843,534.0093862055201
844,534.0093862055201
907,0.0
908,0.0
971,0.0
972,0.0
1195,0.0
1197,0.0
2,4, 1,16, 0,13, 0.00,60.00,Thursday
7,7.8
718,21.030638817244323
719,14.37453197885522
720,13.013930001976032
619,0.0
633,0.0
659,0.0
661,200.0
690,0.0
716,0.0
843,-577.5531412832224
844,-577.5531412832224
907,0.0
908,0.0
971,0.0
972,0.0
1195,0.0
1197,0.0
2,4, 1,16, 0,14, 0.00,60.00,Thursday
7,8.3
718,21.75345810769992
719,15.562801947850495
720,13.070773968262884
619,0.0
633,0.0
659,0.0
661,200.0
690,0.0
716,0.0
843,-1497.4190157300436
844,-1497.4190157300436
907,0.0
908,0.0
971,0.0
972,0.0
1195,0.0
1197,0.0
2,4, 1,16, 0,15, 0.00,60.00,Thursday
7,9.4
718,22.872996639617
719,16.957078193090958
720,13.14415821262081
619,0.0
633,0.0
659,0.0
661,200.0
690,0.0
716,0.0
843,-2392.0304753101973
844,-2392.0304753101973
907,0.0
908,0.0
971,0.0
972,0.0
1195,0.0
1197,0.0
2,4, 1,16, 0,16, 0.00,60.00,Thursday
7,8.3
718,23.32155359916119
719,15.393535881301696
720,13.237746974472268
619,0.0
633,0.0
659,0.0
661,196.32751779350104
690,3.309606598525087
716,0.0
843,-2817.9150439143596
844,-2817.9150439143596
907,0.0
908,0.0
971,0.0
972,0.0
1195,0.0
1197,0.0
2,4, 1,16, 0,17, 0.00,60.00,Thursday
7,8.3
718,22.83309368655977
719,13.19798805171044
720,13.343256729813767
619,0.0
633,0.0
659,0.0
661,200.0
690,0.0
716,77.28113078024981
843,-3155.556062974043
844,-3155.556062974043
907,0.0
908,0.0
971,0.0
972,0.0
1195,0.0
1197,0.0
2,4, 1,16, 0,18, 0.00,60.00,Thursday
7,2.8
718,22.368934259565865
719,8.487878522089426
720,13.453565287092879
619,0.0
633,0.0
659,0.0
661,200.0
690,0.0
716,0.0
843,-2400.071277040859
844,-2400.071277040859
907,0.0
908,0.0
971,0.0
972,0.0
1195,0.0
1197,0.0
2,4, 1,16, 0,19, 0.00,60.00,Thursday
7,0.6
718,20.84378156073599
719,5.149364772468108
720,13.537478063789141
619,0.0
633,0.0
659,0.0
661,200.0
690,0.0