Program Version,EnergyPlus, Version 22.2.0-c249759bad, YMD=2023.09.01 20:31
1,5,Environment Title[],Latitude[deg],Longitude[deg],Time Zone[],Elevation[m]
2,8,Day of Simulation[],Month[],Day of Month[],DST Indicator[1=yes 0=no],Hour[],StartMinute[],EndMinute[],DayType
3,5,Cumulative Day of Simulation[],Month[],Day of Month[],DST Indicator[1=yes 0=no],DayType  ! When Daily Report Variables Requested
4,2,Cumulative Days of Simulation[],Month[]  ! When Monthly Report Variables Requested
5,1,Cumulative Days of Simulation[] ! When Run Period Report Variables Requested
6,1,Calendar Year of Simulation[] ! When Annual Report Variables Requested
581,11,LIVING,AFN Zone Infiltration Air Change Rate [ach] !RunPeriod [Value,Min,Month,Day,Hour,Minute,Max,Month,Day,Hour,Minute]
582,11,ATTIC,AFN Zone Infiltration Air Change Rate [ach] !RunPeriod [Value,Min,Month,Day,Hour,Minute,Max,Month,Day,Hour,Minute]
583,11,CRAWLSPACE,AFN Zone Infiltration Air Change Rate [ach] !RunPeriod [Value,Min,Month,Day,Hour,Minute,Max,Month,Day,Hour,Minute]
1038,11,Facility,Facility Heating Setpoint Not Met Time [hr] !RunPeriod [Value,Min,Month,Day,Hour,Minute,Max,Month,Day,Hour,Minute]
1039,11,Facility,Facility Cooling Setpoint Not Met Time [hr] !RunPeriod [Value,Min,Month,Day,Hour,Minute,Max,Month,Day,Hour,Minute]
1115,11,DX_HEATING_COIL,Heating Coil Heating Energy [J] !RunPeriod [Value,Min,Month,Day,Hour,Minute,Max,Month,Day,Hour,Minute]
1128,11,DX_HEATING_COIL,Heating Coil Electricity Energy [J] !RunPeriod [Value,Min,Month,Day,Hour,Minute,Max,Month,Day,Hour,Minute]
1153,11,DX_HEATING_COIL,Heating Coil Defrost Electricity Energy [J] !RunPeriod [Value,Min,Month,Day,Hour,Minute,Max,Month,Day,Hour,Minute]
1154,11,DX_HEATING_COIL,Heating Coil Crankcase Heater Electricity Energy [J] !RunPeriod [Value,Min,Month,Day,Hour,Minute,Max,Month,Day,Hour,Minute]
1155,11,HEATING_RESISTANCE_BACKUP,Heating Coil Heating Energy [J] !RunPeriod [Value,Min,Month,Day,Hour,Minute,Max,Month,Day,Hour,Minute]
1156,11,HEATING_RESISTANCE_BACKUP,Heating Coil Electricity Energy [J] !RunPeriod [Value,Min,Month,Day,Hour,Minute,Max,Month,Day,Hour,Minute]
1292,11,WATER HEATER,Water Heater Heat Loss Energy [J] !RunPeriod [Value,Min,Month,Day,Hour,Minute,Max,Month,Day,Hour,Minute]
1306,11,WATER HEATER,Water Heater Heating Energy [J] !RunPeriod [Value,Min,Month,Day,Hour,Minute,Max,Month,Day,Hour,Minute]
1307,11,WATER HEATER,Water Heater Unmet Demand Heat Transfer Energy [J] !RunPeriod [Value,Min,Month,Day,Hour,Minute,Max,Month,Day,Hour,Minute]
1308,11,WATER HEATER,Water Heater Electricity Energy [J] !RunPeriod [Value,Min,Month,Day,Hour,Minute,Max,Month,Day,Hour,Minute]
13,11,Electricity:Facility [J] !RunPeriod [Value,Min,Month,Day,Hour,Minute,Max,Month,Day,Hour,Minute]
1134,11,Heating:Electricity [J] !RunPeriod [Value,Min,Month,Day,Hour,Minute,Max,Month,Day,Hour,Minute]
1096,11,Cooling:Electricity [J] !RunPeriod [Value,Min,Month,Day,Hour,Minute,Max,Month,Day,Hour,Minute]
562,11,Fans:Electricity [J] !RunPeriod [Value,Min,Month,Day,Hour,Minute,Max,Month,Day,Hour,Minute]
1379,11,Pumps:Electricity [J] !RunPeriod [Value,Min,Month,Day,Hour,Minute,Max,Month,Day,Hour,Minute]
1326,11,WaterSystems:Electricity [J] !RunPeriod [Value,Min,Month,Day,Hour,Minute,Max,Month,Day,Hour,Minute]
61,11,InteriorLights:Electricity [J] !RunPeriod [Value,Min,Month,Day,Hour,Minute,Max,Month,Day,Hour,Minute]
1046,11,ExteriorLights:Electricity [J] !RunPeriod [Value,Min,Month,Day,Hour,Minute,Max,Month,Day,Hour,Minute]
134,11,InteriorEquipment:Electricity [J] !RunPeriod [Value,Min,Month,Day,Hour,Minute,Max,Month,Day,Hour,Minute]
170,11,gas_dryer:InteriorEquipment:Electricity [J] !RunPeriod [Value,Min,Month,Day,Hour,Minute,Max,Month,Day,Hour,Minute]
207,11,clotheswasher:InteriorEquipment:Electricity [J] !RunPeriod [Value,Min,Month,Day,Hour,Minute,Max,Month,Day,Hour,Minute]
244,11,dishwasher:InteriorEquipment:Electricity [J] !RunPeriod [Value,Min,Month,Day,Hour,Minute,Max,Month,Day,Hour,Minute]
281,11,refrigerator:InteriorEquipment:Electricity [J] !RunPeriod [Value,Min,Month,Day,Hour,Minute,Max,Month,Day,Hour,Minute]
318,11,electric_mels:InteriorEquipment:Electricity [J] !RunPeriod [Value,Min,Month,Day,Hour,Minute,Max,Month,Day,Hour,Minute]
355,11,NaturalGas:Facility [J] !RunPeriod [Value,Min,Month,Day,Hour,Minute,Max,Month,Day,Hour,Minute]
403,11,InteriorEquipment:NaturalGas [J] !RunPeriod [Value,Min,Month,Day,Hour,Minute,Max,Month,Day,Hour,Minute]
476,11,gas_dryer:InteriorEquipment:NaturalGas [J] !RunPeriod [Value,Min,Month,Day,Hour,Minute,Max,Month,Day,Hour,Minute]
513,11,gas_mels:InteriorEquipment:NaturalGas [J] !RunPeriod [Value,Min,Month,Day,Hour,Minute,Max,Month,Day,Hour,Minute]
End of Data Dictionary
1,EXTREME_WINTER,  33.57, -86.75,  -6.00, 192.00
5,7
1038,0.5,0.0, 1,13, 1,15,0.25, 1,17, 6,15
1039,0.0,0.0, 1,13, 1,15,0.0, 1,13, 1,15
581,0.25616431978290466,0.105821381002436, 1,14, 9,46,0.5124797288423686, 1,18, 9,60
582,2.4370726255404613,0.0, 1,13, 5,30,8.108740811005944, 1,17,13,60
583,0.016099231114647145,0.00005400737886696944, 1,16, 1,60,0.07026522542076273, 1,18, 7,60
1115,495497346.0479975,0.0, 1,13, 1,15,3877534.273624189, 1,18, 8,15
1128,159146541.40327114,0.0, 1,13, 1,15,1203476.53705277, 1,18, 8,15
1153,4972017.3178995345,0.0, 1,13, 1,15,73544.2573093329, 1,13, 7,45
1154,70257868.11552876,0.0, 1,13, 6, 5,180000.0, 1,13, 1,15
1155,38990871.0528837,0.0, 1,13, 1,15,2274260.163822547, 1,19, 6,45
1156,38990871.0528837,0.0, 1,13, 1,15,2274260.163822547, 1,19, 6,45
1292,-24433612.607672505,-39748.57092428975, 1,17, 5,60,-3721.9571992382275, 1,14,10,30
1306,205976960.8481662,0.0, 1,13, 1,15,4050000.0, 1,18, 9,45
1307,29151850.56765518,0.0, 1,13, 1,15,3564071.8699748223, 1,19,19,55
1308,205976960.8481662,0.0, 1,13, 1,15,4050000.0, 1,18, 9,45
13,886694457.0281806,154673.5309366046, 1,16, 3,15,5888546.362926824, 1,19,20,30
61,301924526.02383536,88139.10953165221, 1,13, 1,15,1282023.4113694867, 1,13,20,15
134,70666020.44019976,63564.01800854099, 1,13, 4,15,156554.22484006523, 1,18,20,15
170,5241013.419656067,348.4159749238097, 1,13, 4,15,17476.39704006126, 1,18,12,15
207,6509451.13922267,815.2532113832032, 1,13, 3,15,22990.642799023623, 1,18,10,15
244,12749673.399825225,1521.856143006317, 1,13, 4,15,53038.631142310165, 1,18,20,15
281,46165882.481495745,59938.60262432081, 1,13, 5,15,81951.81706819107, 1,13,19,15
318,0.0,0.0, 1,13, 1,15,0.0, 1,13, 1,15
355,197687796.27748066,18561.32405820678, 1,13, 4,15,724774.895203776, 1,18,18,15
403,197687796.27748066,18561.32405820678, 1,13, 4,15,724774.895203776, 1,18,18,15
476,106772067.24485716,7098.072629279515, 1,13, 4,15,356036.3026282215, 1,18,12,15
513,0.0,0.0, 1,13, 1,15,0.0, 1,13, 1,15
562,19198183.265833996,0.0, 1,13, 1,15,127975.46321088867, 1,13, 6,45
1046,0.0,0.0, 1,13, 1,15,0.0, 1,13, 1,15
1096,15561468.560562616,0.0, 1,13, 1,15,344183.7291011752, 1,14,16,30
1134,273367297.88958323,0.0, 1,13,13,60,4116889.4936253466, 1,19, 6,15
1326,205976960.84816614,0.0, 1,13, 1,15,4050000.0, 1,14,20,30
1379,0.0,0.0, 1,13, 1,15,0.0, 1,13, 1,15
1,EXTREME_SUMMER,  33.57, -86.75,  -6.00, 192.00
5,7
1038,0.0,0.0, 7, 6, 1,15,0.0, 7, 6, 1,15
1039,56.25,0.0, 7, 6, 1,15,0.25, 7, 6,14,45
581,0.059022323349090564,0.0, 7, 6,20,17,0.6578582245983622, 7,10,14,47
582,1.9913580173791694,0.0, 7, 6,20,36,13.422402733607202, 7, 9,17,47
583,0.040281957657433476,0.0, 7, 6,23, 3,0.07461538682026701, 7,10,14,47
1115,0.0,0.0, 7, 6, 1,15,0.0, 7, 6, 1,15
1128,0.0,0.0, 7, 6, 1,15,0.0, 7, 6, 1,15
1153,0.0,0.0, 7, 6, 1,15,0.0, 7, 6, 1,15
1154,0.0,0.0, 7, 6, 1,15,0.0, 7, 6, 1,15
1155,0.0,0.0, 7, 6, 1,15,0.0, 7, 6, 1,15
1156,0.0,0.0, 7, 6, 1,15,0.0, 7, 6, 1,15
1292,-21756174.344824,-34310.19369282055, 7,10,21,60,-2089.8928674048957, 7,10,14,15
1306,144954052.32511967,0.0, 7, 6, 1,15,2025000.0, 7, 8, 6,45
1307,9154936.784981262,0.0, 7, 6, 1,15,1972893.9325892313, 7,12,19,55
1308,144954052.32511967,0.0, 7, 6, 1,15,2025000.0, 7, 8, 6,45
13,1113566614.7575696,192439.35509297563, 7, 8, 4,60,6801971.654605284, 7,12,20,15
61,301924526.02383536,88139.10953165221, 7, 6, 1,15,1282023.4113694867, 7, 6,20,15
134,70666020.44019976,63564.01800854099, 7, 6, 4,15,156554.22484006523, 7,11,20,15
170,5241013.419656067,348.4159749238097, 7, 6, 4,15,17476.39704006126, 7,11,12,15
207,6509451.13922267,815.2532113832032, 7, 6, 3,15,22990.642799023623, 7,11,10,15
244,12749673.399825225,1521.856143006317, 7, 6, 4,15,53038.631142310165, 7,11,20,15
281,46165882.481495745,59938.60262432081, 7, 6, 5,15,81951.81706819107, 7, 6,19,15
318,0.0,0.0, 7, 6, 1,15,0.0, 7, 6, 1,15
355,197687796.27748066,18561.32405820678, 7, 6, 4,15,724774.895203776, 7,11,18,15
403,197687796.27748066,18561.32405820678, 7, 6, 4,15,724774.895203776, 7,11,18,15
476,106772067.24485716,7098.072629279515, 7, 6, 4,15,356036.3026282215, 7,11,12,15
513,0.0,0.0, 7, 6, 1,15,0.0, 7, 6, 1,15
562,56045867.569516264,4268.241064739873, 7, 8, 4,60,127975.4632108887, 7, 7,17,30
1046,0.0,0.0, 7, 6, 1,15,0.0, 7, 6, 1,15
1096,539976148.3989,36467.98648804255, 7, 8, 4,60,1396318.9654609282, 7,12,15,60
1134,0.0,0.0, 7, 6, 1,15,0.0, 7, 6, 1,15
1326,144954052.3251197,0.0, 7, 6, 1,15,4050000.0, 7,10, 6,60
1379,0.0,0.0, 7, 6, 1,15,0.0, 7, 6, 1,15
1,ANNUAL,  33.57, -86.75,  -6.00, 192.00
5,365
1038,4.75,0.0, 1, 1, 1,15,0.25, 1, 1, 6,15
1039,986.75,0.0, 1, 1, 1,15,0.25, 2,13,13,45
581,0.17001406483781775,0.0, 3,19,23, 3,1.0837165129057271, 2,11,14,52
582,2.7878143257458423,0.0, 1, 2,22,60,24.61170188358793, 7, 4,14,46
583,0.025833414407612516,0.0, 5, 9,23, 3,0.08109013425202859, 1,22,22,60
1115,5612650945.520473,0.0, 1, 1,23, 7,4053257.7704099165, 1, 5, 6,60
1128,1732399923.127228,0.0, 1, 1,23, 7,1257853.9306115576, 1, 5, 6,45
1153,69020465.09737949,0.0, 1, 1,14,15,105506.15537555082, 1,27, 6,45
1154,1116546180.3147297,0.0, 1, 1, 6, 7,180000.0, 1, 2,12,60
1155,270703002.53175086,0.0, 1, 1, 1, 7,2502324.958930128, 2, 5, 6,60
1156,270703002.53175086,0.0, 1, 1, 1, 7,2502324.958930128, 2, 5, 6,60
1292,-1185474901.8088315,-39783.53882513741,12,18, 2,60,-1944.3549049191754, 7,10,14,18
1306,9169724173.282236,0.0, 1, 1, 1, 7,4050000.0, 1, 1,20,15
1307,961470124.6938084,0.0, 1, 1, 1, 7,10065141.125449672, 1,22,19,60
1308,9169724173.282236,0.0, 1, 1, 1, 7,4050000.0, 1, 1,20,15
13,47112895962.49899,151703.1275401932, 1, 9, 4,15,8033680.133512613, 1,19, 7,15
61,15743207428.383959,88139.10953165221, 1, 1, 1,15,1282023.4113694867, 1, 1,20,15
134,3685071073.4325233,63564.01800854099, 1, 2, 4,15,156554.22484006523, 1, 1,20,15
170,273393721.45532674,348.4159749238097, 1, 2, 4,15,17476.39704006126, 1, 1,12,15
207,339560869.0695816,815.2532113832032, 1, 2, 3,15,22990.642799023623, 1, 1,10,15
244,664895467.8009144,1521.856143006317, 1, 2, 4,15,53038.631142310165, 1, 1,20,15
281,2407221015.106824,59938.60262432081, 1, 1, 5,15,81951.81706819107, 1, 1,19,15
318,0.0,0.0, 1, 1, 1,15,0.0, 1, 1, 1,15
355,10310294493.051695,18561.32405820678, 1, 2, 4,15,724774.895203776, 1, 1,18,15
403,10310294493.051695,18561.32405820678, 1, 2, 4,15,724774.895203776, 1, 1,18,15
476,5569688622.066177,7098.072629279515, 1, 2, 4,15,356036.3026282215, 1, 1,12,15
513,0.0,0.0, 1, 1, 1,15,0.0, 1, 1, 1,15
562,1719290269.2834942,0.0, 1, 1,23,15,127975.4632108887, 5, 3,16,45
1046,0.0,0.0, 1, 1, 1,15,0.0, 1, 1, 1,15
1096,13606933447.043806,0.0, 1, 1, 1,15,1430814.3309325245, 8, 4,15,60
1134,3188669571.071096,0.0, 1, 3,15,60,4277320.2924698405, 2, 4, 6,15
1326,9169724173.282217,0.0, 1, 1, 1,15,4050000.0000000014, 3,19, 9,60
1379,0.0,0.0, 1, 1, 1,15,0.0, 1, 1, 1,15
End of Data
 Number of Records Written=          99
