Program Version,EnergyPlus, Version 22.2.0-c249759bad, YMD=2023.09.01 20:48
1,5,Environment Title[],Latitude[deg],Longitude[deg],Time Zone[],Elevation[m]
2,8,Day of Simulation[],Month[],Day of Month[],DST Indicator[1=yes 0=no],Hour[],StartMinute[],EndMinute[],DayType
3,5,Cumulative Day of Simulation[],Month[],Day of Month[],DST Indicator[1=yes 0=no],DayType  ! When Daily Report Variables Requested
4,2,Cumulative Days of Simulation[],Month[]  ! When Monthly Report Variables Requested
5,1,Cumulative Days of Simulation[] ! When Run Period Report Variables Requested
6,1,Calendar Year of Simulation[] ! When Annual Report Variables Requested
581,11,LIVING,AFN Zone Infiltration Air Change Rate [ach] !RunPeriod [Value,Min,Month,Day,Hour,Minute,Max,Month,Day,Hour,Minute]
582,11,ATTIC,AFN Zone Infiltration Air Change Rate [ach] !RunPeriod [Value,Min,Month,Day,Hour,Minute,Max,Month,Day,Hour,Minute]
583,11,CRAWLSPACE,AFN Zone Infiltration Air Change Rate [ach] !RunPeriod [Value,Min,Month,Day,Hour,Minute,Max,Month,Day,Hour,Minute]
1038,11,Facility,Facility Heating Setpoint Not Met Time [hr] !RunPeriod [Value,Min,Month,Day,Hour,Minute,Max,Month,Day,Hour,Minute]
1039,11,Facility,Facility Cooling Setpoint Not Met Time [hr] !RunPeriod [Value,Min,Month,Day,Hour,Minute,Max,Month,Day,Hour,Minute]
1115,11,DX_HEATING_COIL,Heating Coil Heating Energy [J] !RunPeriod [Value,Min,Month,Day,Hour,Minute,Max,Month,Day,Hour,Minute]
1128,11,DX_HEATING_COIL,Heating Coil Electricity Energy [J] !RunPeriod [Value,Min,Month,Day,Hour,Minute,Max,Month,Day,Hour,Minute]
1153,11,DX_HEATING_COIL,Heating Coil Defrost Electricity Energy [J] !RunPeriod [Value,Min,Month,Day,Hour,Minute,Max,Month,Day,Hour,Minute]
1154,11,DX_HEATING_COIL,Heating Coil Crankcase Heater Electricity Energy [J] !RunPeriod [Value,Min,Month,Day,Hour,Minute,Max,Month,Day,Hour,Minute]
1155,11,HEATING_RESISTANCE_BACKUP,Heating Coil Heating Energy [J] !RunPeriod [Value,Min,Month,Day,Hour,Minute,Max,Month,Day,Hour,Minute]
1156,11,HEATING_RESISTANCE_BACKUP,Heating Coil Electricity Energy [J] !RunPeriod [Value,Min,Month,Day,Hour,Minute,Max,Month,Day,Hour,Minute]
1292,11,WATER HEATER,Water Heater Heat Loss Energy [J] !RunPeriod [Value,Min,Month,Day,Hour,Minute,Max,Month,Day,Hour,Minute]
1306,11,WATER HEATER,Water Heater Heating Energy [J] !RunPeriod [Value,Min,Month,Day,Hour,Minute,Max,Month,Day,Hour,Minute]
1307,11,WATER HEATER,Water Heater Unmet Demand Heat Transfer Energy [J] !RunPeriod [Value,Min,Month,Day,Hour,Minute,Max,Month,Day,Hour,Minute]
1308,11,WATER HEATER,Water Heater Electricity Energy [J] !RunPeriod [Value,Min,Month,Day,Hour,Minute,Max,Month,Day,Hour,Minute]
13,11,Electricity:Facility [J] !RunPeriod [Value,Min,Month,Day,Hour,Minute,Max,Month,Day,Hour,Minute]
1134,11,Heating:Electricity [J] !RunPeriod [Value,Min,Month,Day,Hour,Minute,Max,Month,Day,Hour,Minute]
1096,11,Cooling:Electricity [J] !RunPeriod [Value,Min,Month,Day,Hour,Minute,Max,Month,Day,Hour,Minute]
562,11,Fans:Electricity [J] !RunPeriod [Value,Min,Month,Day,Hour,Minute,Max,Month,Day,Hour,Minute]
1379,11,Pumps:Electricity [J] !RunPeriod [Value,Min,Month,Day,Hour,Minute,Max,Month,Day,Hour,Minute]
1326,11,WaterSystems:Electricity [J] !RunPeriod [Value,Min,Month,Day,Hour,Minute,Max,Month,Day,Hour,Minute]
61,11,InteriorLights:Electricity [J] !RunPeriod [Value,Min,Month,Day,Hour,Minute,Max,Month,Day,Hour,Minute]
1046,11,ExteriorLights:Electricity [J] !RunPeriod [Value,Min,Month,Day,Hour,Minute,Max,Month,Day,Hour,Minute]
134,11,InteriorEquipment:Electricity [J] !RunPeriod [Value,Min,Month,Day,Hour,Minute,Max,Month,Day,Hour,Minute]
170,11,gas_dryer:InteriorEquipment:Electricity [J] !RunPeriod [Value,Min,Month,Day,Hour,Minute,Max,Month,Day,Hour,Minute]
207,11,clotheswasher:InteriorEquipment:Electricity [J] !RunPeriod [Value,Min,Month,Day,Hour,Minute,Max,Month,Day,Hour,Minute]
244,11,dishwasher:InteriorEquipment:Electricity [J] !RunPeriod [Value,Min,Month,Day,Hour,Minute,Max,Month,Day,Hour,Minute]
281,11,refrigerator:InteriorEquipment:Electricity [J] !RunPeriod [Value,Min,Month,Day,Hour,Minute,Max,Month,Day,Hour,Minute]
318,11,electric_mels:InteriorEquipment:Electricity [J] !RunPeriod [Value,Min,Month,Day,Hour,Minute,Max,Month,Day,Hour,Minute]
355,11,NaturalGas:Facility [J] !RunPeriod [Value,Min,Month,Day,Hour,Minute,Max,Month,Day,Hour,Minute]
403,11,InteriorEquipment:NaturalGas [J] !RunPeriod [Value,Min,Month,Day,Hour,Minute,Max,Month,Day,Hour,Minute]
476,11,gas_dryer:InteriorEquipment:NaturalGas [J] !RunPeriod [Value,Min,Month,Day,Hour,Minute,Max,Month,Day,Hour,Minute]
513,11,gas_mels:InteriorEquipment:NaturalGas [J] !RunPeriod [Value,Min,Month,Day,Hour,Minute,Max,Month,Day,Hour,Minute]
End of Data Dictionary
1,EXTREME_WINTER,  37.37,-118.37,  -8.00,1252.00
5,7
1038,0.25,0.0, 1,13, 1,15,0.25, 1,17, 6,15
1039,2.75,0.0, 1,13, 1,15,0.25, 1,16,15,60
581,0.3015067780304088,0.14343536396012335, 1,15,17,60,0.9216154439769308, 1,16, 9,52
582,2.383578768641519,0.0, 1,15,10,52,13.937373233392588, 1,16, 9,60
583,0.030876665127113886,0.0002348466592924681, 1,13,13, 2,0.0945426319605697, 1,14, 6,60
1115,975014164.44622,0.0, 1,13,10,46,4640992.757298626, 1,15, 7,60
1128,335419056.22188205,0.0, 1,13,10,46,1584698.1409567343, 1,15, 7,45
1153,769607.1236045645,0.0, 1,13,10,32,25585.226614856914, 1,19, 7,60
1154,67526323.07881588,0.0, 1,13, 6, 5,180000.0, 1,13,23,60
1155,70336021.15484549,0.0, 1,13, 1,15,2357457.0582456184, 1,17, 6,45
1156,70336021.15484549,0.0, 1,13, 1,15,2357457.0582456184, 1,17, 6,45
1292,-24349933.644973837,-39799.25622392023, 1,13, 1,15,-2952.8103612662885, 1,14,11,14
1306,343068114.7914618,0.0, 1,13, 1,15,4050000.0, 1,19,21,15
1307,150632623.65810284,0.0, 1,13, 1,15,10940056.201011533, 1,19,20,60
1308,343068114.7914618,0.0, 1,13, 1,15,4050000.0, 1,19,21,15
13,1232694741.7246263,278150.8545527997, 1,19,15,15,6260144.51882034, 1,15, 8,60
61,301924526.02383536,88139.10953165221, 1,13, 1,15,1282023.4113694867, 1,13,20,15
134,70666020.44019976,63564.01800854099, 1,13, 4,15,156554.22484006523, 1,18,20,15
170,5241013.419656067,348.4159749238097, 1,13, 4,15,17476.39704006126, 1,18,12,15
207,6509451.13922267,815.2532113832032, 1,13, 3,15,22990.642799023623, 1,18,10,15
244,12749673.399825225,1521.856143006317, 1,13, 4,15,53038.631142310165, 1,18,20,15
281,46165882.481495745,59938.60262432081, 1,13, 5,15,81951.81706819107, 1,13,19,15
318,0.0,0.0, 1,13, 1,15,0.0, 1,13, 1,15
355,197687796.27748066,18561.32405820678, 1,13, 4,15,724774.895203776, 1,18,18,15
403,197687796.27748066,18561.32405820678, 1,13, 4,15,724774.895203776, 1,18,18,15
476,106772067.24485716,7098.072629279515, 1,13, 4,15,356036.3026282215, 1,18,12,15
513,0.0,0.0, 1,13, 1,15,0.0, 1,13, 1,15
562,36781645.035864994,0.0, 1,13,10,60,167263.17936562668, 1,13, 6,45
1046,0.0,0.0, 1,13, 1,15,0.0, 1,13, 1,15
1096,6203427.854119262,0.0, 1,13, 1,15,279830.8414814795, 1,13,17,15
1134,474051007.5791477,0.0, 1,13,12,45,4325531.586897116, 1,17, 6,15
1326,343068114.79146194,0.0, 1,13, 1,15,4050000.0, 1,13, 9,60
1379,0.0,0.0, 1,13, 1,15,0.0, 1,13, 1,15
1,EXTREME_SUMMER,  37.37,-118.37,  -8.00,1252.00
5,7
1038,0.0,0.0, 7,20, 1,15,0.0, 7,20, 1,15
1039,11.5,0.0, 7,20, 1,15,0.25, 7,21,15,45
581,0.1703123202185934,0.0, 7,21,23, 3,1.146431816208905, 7,20,15,46
582,3.416493255793089,0.0, 7,21, 4,50,24.22174908882046, 7,20,15,46
583,0.04498724256086494,0.0, 7,21,23, 3,0.10188943626573184, 7,20,15,46
1115,0.0,0.0, 7,20, 1, 7,0.0, 7,20, 1, 7
1128,0.0,0.0, 7,20, 1, 7,0.0, 7,20, 1, 7
1153,0.0,0.0, 7,20, 1, 7,0.0, 7,20, 1, 7
1154,0.0,0.0, 7,20, 1, 7,0.0, 7,20, 1, 7
1155,0.0,0.0, 7,20, 1, 7,0.0, 7,20, 1, 7
1156,0.0,0.0, 7,20, 1, 7,0.0, 7,20, 1, 7
1292,-22023275.567660034,-34329.78572281277, 7,25,14,30,-2127.037865081634, 7,26, 9,45
1306,248130461.47723937,0.0, 7,20, 1, 7,3592430.6712048957, 7,20,21,30
1307,76155831.01913694,0.0, 7,20, 1, 7,3258010.153311238, 7,23,20,60
1308,248130461.47723937,0.0, 7,20, 1, 7,3592430.6712048957, 7,20,21,30
13,1276377315.9688272,151703.1275401932, 7,20, 4,30,7226959.196705071, 7,21,20,15
61,301924526.02383536,88139.10953165221, 7,20, 1,15,1282023.4113694867, 7,20,20,15
134,70666020.44019976,63564.01800854099, 7,20, 4,15,156554.22484006523, 7,25,20,15
170,5241013.419656067,348.4159749238097, 7,20, 4,15,17476.39704006126, 7,25,12,15
207,6509451.13922267,815.2532113832032, 7,20, 3,15,22990.642799023623, 7,25,10,15
244,12749673.399825225,1521.856143006317, 7,20, 4,15,53038.631142310165, 7,25,20,15
281,46165882.481495745,59938.60262432081, 7,20, 5,15,81951.81706819107, 7,20,19,15
318,0.0,0.0, 7,20, 1,15,0.0, 7,20, 1,15
355,197687796.27748066,18561.32405820678, 7,20, 4,15,724774.895203776, 7,25,18,15
403,197687796.27748066,18561.32405820678, 7,20, 4,15,724774.895203776, 7,25,18,15
476,106772067.24485716,7098.072629279515, 7,20, 4,15,356036.3026282215, 7,25,12,15
513,0.0,0.0, 7,20, 1,15,0.0, 7,20, 1,15
562,58684634.70643435,0.0, 7,20, 4,30,167263.1793656267, 7,21,19,15
1046,0.0,0.0, 7,20, 1,15,0.0, 7,20, 1,15
1096,596971673.3211176,0.0, 7,20, 4,30,2014954.8571215803, 7,22,15,60
1134,0.0,0.0, 7,20, 1,15,0.0, 7,20, 1,15
1326,248130461.47723946,0.0, 7,20, 1,15,4050000.0000000014, 7,20, 9,60
1379,0.0,0.0, 7,20, 1,15,0.0, 7,20, 1,15
1,ANNUAL,  37.37,-118.37,  -8.00,1252.00
5,365
1038,0.5,0.0, 1, 1, 1,15,0.25, 1,17, 6,15
1039,292.75,0.0, 1, 1, 1,15,0.25, 2,17,12,45
581,0.2564724890197219,0.0, 6,27,23, 3,1.5470782856226828, 3,30,17,52
582,3.6505693033070465,0.0, 1, 1,10,46,28.90185288406724, 3,30,17,52
583,0.028164835027926972,0.0, 6,27,23, 3,0.11262022526175103, 7,20,15,46
1115,10227040513.174332,0.0, 1, 1,10,46,5054539.256204514,12,18, 6,45
1128,3380404898.745794,0.0, 1, 1,10,46,1616883.367318796,12,26, 6,45
1153,62481931.18983197,0.0, 1, 1,10,32,114895.24888520774, 1,23,11,30
1154,1904562214.7279105,0.0, 1, 1, 6, 5,180000.0, 1, 1,22,60
1155,244756627.5052062,0.0, 1, 1, 1,15,2463963.837536181, 1,17, 6,45
1156,244756627.5052062,0.0, 1, 1, 1,15,2463963.837536181, 1,17, 6,45
1292,-1194575833.8883288,-39800.279276075446, 4, 9, 4,15,-1431.1329848625173, 6, 4, 9,46
1306,15458295053.767288,0.0, 1, 1, 1,15,4050000.0, 1, 2,21,45
1307,5898923334.477901,0.0, 1, 1, 1,15,14057305.179518566, 1,22, 9,45
1308,15458295053.767288,0.0, 1, 1, 1,15,4050000.0, 1, 2,21,45
13,54885274887.834305,151703.1275401932, 4,11, 4,15,7327342.5992081715, 7,25,20,15
61,15743207428.383959,88139.10953165221, 1, 1, 1,15,1282023.4113694867, 1, 1,20,15
134,3685071073.4325233,63564.01800854099, 1, 2, 4,15,156554.22484006523, 1, 1,20,15
170,273393721.45532674,348.4159749238097, 1, 2, 4,15,17476.39704006126, 1, 1,12,15
207,339560869.0695816,815.2532113832032, 1, 2, 3,15,22990.642799023623, 1, 1,10,15
244,664895467.8009144,1521.856143006317, 1, 2, 4,15,53038.631142310165, 1, 1,20,15
281,2407221015.106824,59938.60262432081, 1, 1, 5,15,81951.81706819107, 1, 1,19,15
318,0.0,0.0, 1, 1, 1,15,0.0, 1, 1, 1,15
355,10310294493.051695,18561.32405820678, 1, 2, 4,15,724774.895203776, 1, 1,18,15
403,10310294493.051695,18561.32405820678, 1, 2, 4,15,724774.895203776, 1, 1,18,15
476,5569688622.066177,7098.072629279515, 1, 2, 4,15,356036.3026282215, 1, 1,12,15
513,0.0,0.0, 1, 1, 1,15,0.0, 1, 1, 1,15
562,1763161476.1122706,0.0, 1, 1,10,60,167263.1793656267, 5,25,18,45
1046,0.0,0.0, 1, 1, 1,15,0.0, 1, 1, 1,15
1096,12643334183.966873,0.0, 1, 1, 1,15,2013061.2466899366, 7,17,13,60
1134,5592205672.168773,0.0, 1, 1,12,30,4434052.953437566, 1,17, 6,15
1326,15458295053.767284,0.0, 1, 1, 1,15,4050000.0000000014, 1,10,11,15
1379,0.0,0.0, 1, 1, 1,15,0.0, 1, 1, 1,15
End of Data
 Number of Records Written=          99
