Program Version,EnergyPlus, Version 22.2.0-c249759bad, YMD=2023.09.01 20:31
1,5,Environment Title[],Latitude[deg],Longitude[deg],Time Zone[],Elevation[m]
2,8,Day of Simulation[],Month[],Day of Month[],DST Indicator[1=yes 0=no],Hour[],StartMinute[],EndMinute[],DayType
3,5,Cumulative Day of Simulation[],Month[],Day of Month[],DST Indicator[1=yes 0=no],DayType  ! When Daily Report Variables Requested
4,2,Cumulative Days of Simulation[],Month[]  ! When Monthly Report Variables Requested
5,1,Cumulative Days of Simulation[] ! When Run Period Report Variables Requested
6,1,Calendar Year of Simulation[] ! When Annual Report Variables Requested
581,11,LIVING,AFN Zone Infiltration Air Change Rate [ach] !RunPeriod [Value,Min,Month,Day,Hour,Minute,Max,Month,Day,Hour,Minute]
582,11,ATTIC,AFN Zone Infiltration Air Change Rate [ach] !RunPeriod [Value,Min,Month,Day,Hour,Minute,Max,Month,Day,Hour,Minute]
583,11,CRAWLSPACE,AFN Zone Infiltration Air Change Rate [ach] !RunPeriod [Value,Min,Month,Day,Hour,Minute,Max,Month,Day,Hour,Minute]
1038,11,Facility,Facility Heating Setpoint Not Met Time [hr] !RunPeriod [Value,Min,Month,Day,Hour,Minute,Max,Month,Day,Hour,Minute]
1039,11,Facility,Facility Cooling Setpoint Not Met Time [hr] !RunPeriod [Value,Min,Month,Day,Hour,Minute,Max,Month,Day,Hour,Minute]
1115,11,DX_HEATING_COIL,Heating Coil Heating Energy [J] !RunPeriod [Value,Min,Month,Day,Hour,Minute,Max,Month,Day,Hour,Minute]
1128,11,DX_HEATING_COIL,Heating Coil Electricity Energy [J] !RunPeriod [Value,Min,Month,Day,Hour,Minute,Max,Month,Day,Hour,Minute]
1153,11,DX_HEATING_COIL,Heating Coil Defrost Electricity Energy [J] !RunPeriod [Value,Min,Month,Day,Hour,Minute,Max,Month,Day,Hour,Minute]
1154,11,DX_HEATING_COIL,Heating Coil Crankcase Heater Electricity Energy [J] !RunPeriod [Value,Min,Month,Day,Hour,Minute,Max,Month,Day,Hour,Minute]
1155,11,HEATING_RESISTANCE_BACKUP,Heating Coil Heating Energy [J] !RunPeriod [Value,Min,Month,Day,Hour,Minute,Max,Month,Day,Hour,Minute]
1156,11,HEATING_RESISTANCE_BACKUP,Heating Coil Electricity Energy [J] !RunPeriod [Value,Min,Month,Day,Hour,Minute,Max,Month,Day,Hour,Minute]
1292,11,WATER HEATER,Water Heater Heat Loss Energy [J] !RunPeriod [Value,Min,Month,Day,Hour,Minute,Max,Month,Day,Hour,Minute]
1306,11,WATER HEATER,Water Heater Heating Energy [J] !RunPeriod [Value,Min,Month,Day,Hour,Minute,Max,Month,Day,Hour,Minute]
1307,11,WATER HEATER,Water Heater Unmet Demand Heat Transfer Energy [J] !RunPeriod [Value,Min,Month,Day,Hour,Minute,Max,Month,Day,Hour,Minute]
1308,11,WATER HEATER,Water Heater Electricity Energy [J] !RunPeriod [Value,Min,Month,Day,Hour,Minute,Max,Month,Day,Hour,Minute]
13,11,Electricity:Facility [J] !RunPeriod [Value,Min,Month,Day,Hour,Minute,Max,Month,Day,Hour,Minute]
1134,11,Heating:Electricity [J] !RunPeriod [Value,Min,Month,Day,Hour,Minute,Max,Month,Day,Hour,Minute]
1096,11,Cooling:Electricity [J] !RunPeriod [Value,Min,Month,Day,Hour,Minute,Max,Month,Day,Hour,Minute]
562,11,Fans:Electricity [J] !RunPeriod [Value,Min,Month,Day,Hour,Minute,Max,Month,Day,Hour,Minute]
1379,11,Pumps:Electricity [J] !RunPeriod [Value,Min,Month,Day,Hour,Minute,Max,Month,Day,Hour,Minute]
1326,11,WaterSystems:Electricity [J] !RunPeriod [Value,Min,Month,Day,Hour,Minute,Max,Month,Day,Hour,Minute]
61,11,InteriorLights:Electricity [J] !RunPeriod [Value,Min,Month,Day,Hour,Minute,Max,Month,Day,Hour,Minute]
1046,11,ExteriorLights:Electricity [J] !RunPeriod [Value,Min,Month,Day,Hour,Minute,Max,Month,Day,Hour,Minute]
134,11,InteriorEquipment:Electricity [J] !RunPeriod [Value,Min,Month,Day,Hour,Minute,Max,Month,Day,Hour,Minute]
170,11,gas_dryer:InteriorEquipment:Electricity [J] !RunPeriod [Value,Min,Month,Day,Hour,Minute,Max,Month,Day,Hour,Minute]
207,11,clotheswasher:InteriorEquipment:Electricity [J] !RunPeriod [Value,Min,Month,Day,Hour,Minute,Max,Month,Day,Hour,Minute]
244,11,dishwasher:InteriorEquipment:Electricity [J] !RunPeriod [Value,Min,Month,Day,Hour,Minute,Max,Month,Day,Hour,Minute]
281,11,refrigerator:InteriorEquipment:Electricity [J] !RunPeriod [Value,Min,Month,Day,Hour,Minute,Max,Month,Day,Hour,Minute]
318,11,electric_mels:InteriorEquipment:Electricity [J] !RunPeriod [Value,Min,Month,Day,Hour,Minute,Max,Month,Day,Hour,Minute]
355,11,NaturalGas:Facility [J] !RunPeriod [Value,Min,Month,Day,Hour,Minute,Max,Month,Day,Hour,Minute]
403,11,InteriorEquipment:NaturalGas [J] !RunPeriod [Value,Min,Month,Day,Hour,Minute,Max,Month,Day,Hour,Minute]
476,11,gas_dryer:InteriorEquipment:NaturalGas [J] !RunPeriod [Value,Min,Month,Day,Hour,Minute,Max,Month,Day,Hour,Minute]
513,11,gas_mels:InteriorEquipment:NaturalGas [J] !RunPeriod [Value,Min,Month,Day,Hour,Minute,Max,Month,Day,Hour,Minute]
End of Data Dictionary
1,EXTREME_WINTER,  39.64, -79.92,  -5.00, 378.00
5,7
1038,4.25,0.0, 1, 6, 1,15,0.25, 1, 8, 6,15
1039,0.0,0.0, 1, 6, 1,15,0.0, 1, 6, 1,15
581,0.37263701877291655,0.18058473013927767, 1,11,23,15,0.5606835107116832, 1, 7,20,60
582,2.7829180311859423,0.0, 1,10,23,10,8.934145298637238, 1, 9,15,60
583,0.059835933014546795,0.0003027700416269224, 1,11,23,15,0.07629419466372847, 1, 7,20,52
1115,1872785436.9077098,0.0, 1, 6,23, 5,3943797.2159624808, 1, 9, 2,15
1128,672883814.8709584,0.0, 1, 6,23, 5,1235019.585290001, 1, 9, 8,60
1153,8899786.190047365,0.0, 1, 6,23, 5,92283.84472360731, 1,12, 6,45
1154,17169889.03601776,0.0, 1, 6, 1,15,156556.77754050388, 1,11,15,15
1155,976033798.8261244,0.0, 1, 6,14,45,5925868.284484774, 1, 8, 6,15
1156,976033798.8261244,0.0, 1, 6,14,45,5925868.284484774, 1, 8, 6,15
1292,-25440125.925962847,-39762.922004089975, 1, 6, 1,15,-4260.256448547782, 1,11,10,32
1306,186637127.98552293,0.0, 1, 6, 1,15,4050000.0, 1, 6, 8,45
1307,37182163.83859258,0.0, 1, 6, 1,15,9707467.690671457, 1, 9,10,30
1308,186637127.98552293,0.0, 1, 6, 1,15,4050000.0, 1, 6, 8,45
13,2309052559.3192053,610483.0407611786, 1,11,14,60,11536513.576503664, 1,10, 8,45
61,301924526.02383536,88139.10953165221, 1, 6, 1,15,1282023.4113694867, 1, 6,20,15
134,70666020.44019976,63564.01800854099, 1, 6, 4,15,156554.22484006523, 1,11,20,15
170,5241013.419656067,348.4159749238097, 1, 6, 4,15,17476.39704006126, 1,11,12,15
207,6509451.13922267,815.2532113832032, 1, 6, 3,15,22990.642799023623, 1,11,10,15
244,12749673.399825225,1521.856143006317, 1, 6, 4,15,53038.631142310165, 1,11,20,15
281,46165882.481495745,59938.60262432081, 1, 6, 5,15,81951.81706819107, 1, 6,19,15
318,0.0,0.0, 1, 6, 1,15,0.0, 1, 6, 1,15
355,197687796.27748066,18561.32405820678, 1, 6, 4,15,724774.895203776, 1,11,18,15
403,197687796.27748066,18561.32405820678, 1, 6, 4,15,724774.895203776, 1,11,18,15
476,106772067.24485716,7098.072629279515, 1, 6, 4,15,356036.3026282215, 1,11,12,15
513,0.0,0.0, 1, 6, 1,15,0.0, 1, 6, 1,15
562,74837595.94649993,0.0, 1,11,23,15,129942.10863668518, 1, 6, 1,15
1046,0.0,0.0, 1, 6, 1,15,0.0, 1, 6, 1,15
1096,0.0,0.0, 1, 6, 1,15,0.0, 1, 6, 1,15
1134,1674987288.9231496,180000.0, 1,11,23,15,7028335.940255959, 1,10, 6,30
1326,186637127.98552287,0.0, 1, 6, 1,15,4050000.0, 1, 6, 8,45
1379,0.0,0.0, 1, 6, 1,15,0.0, 1, 6, 1,15
1,EXTREME_SUMMER,  39.64, -79.92,  -5.00, 378.00
5,7
1038,0.0,0.0, 7,27, 1,15,0.0, 7,27, 1,15
1039,25.0,0.0, 7,27, 1,15,0.25, 7,27,14,60
581,0.0790863043054528,0.0, 7,27, 6, 7,0.39967502815228295, 8, 2,18,46
582,1.62363854141002,0.0, 7,30,20,60,8.809831123417593, 8, 2,18,46
583,0.03363484680945962,0.0, 7,28, 6, 7,0.0642235127406836, 8, 2, 6, 3
1115,0.0,0.0, 7,27, 1, 7,0.0, 7,27, 1, 7
1128,0.0,0.0, 7,27, 1, 7,0.0, 7,27, 1, 7
1153,0.0,0.0, 7,27, 1, 7,0.0, 7,27, 1, 7
1154,0.0,0.0, 7,27, 1, 7,0.0, 7,27, 1, 7
1155,0.0,0.0, 7,27, 1, 7,0.0, 7,27, 1, 7
1156,0.0,0.0, 7,27, 1, 7,0.0, 7,27, 1, 7
1292,-22010005.7988375,-34688.65520699098, 7,31, 6,30,-2608.7180386843334, 8, 1,10,29
1306,139793352.72173458,0.0, 7,27, 1, 7,2320560.3849755353, 8, 2,13,60
1307,19261517.019164056,0.0, 7,27, 1, 7,997758.250859142, 7,30,10,17
1308,139793352.72173458,0.0, 7,27, 1, 7,2320560.3849755353, 8, 2,13,60
13,986810754.2803783,151703.1275401932, 7,31, 4,45,6071083.126895087, 8, 2,20,60
61,301924526.02383536,88139.10953165221, 7,27, 1,15,1282023.4113694867, 7,27,20,15
134,70666020.44019976,63564.01800854099, 7,27, 4,15,156554.22484006523, 8, 1,20,15
170,5241013.419656067,348.4159749238097, 7,27, 4,15,17476.39704006126, 8, 1,12,15
207,6509451.13922267,815.2532113832032, 7,27, 3,15,22990.642799023623, 8, 1,10,15
244,12749673.399825225,1521.856143006317, 7,27, 4,15,53038.631142310165, 8, 1,20,15
281,46165882.481495745,59938.60262432081, 7,27, 5,15,81951.81706819107, 7,27,19,15
318,0.0,0.0, 7,27, 1,15,0.0, 7,27, 1,15
355,197687796.27748066,18561.32405820678, 7,27, 4,15,724774.895203776, 8, 1,18,15
403,197687796.27748066,18561.32405820678, 7,27, 4,15,724774.895203776, 8, 1,18,15
476,106772067.24485716,7098.072629279515, 7,27, 4,15,356036.3026282215, 8, 1,12,15
513,0.0,0.0, 7,27, 1,15,0.0, 7,27, 1,15
562,46859674.36077005,0.0, 7,28, 6,30,129942.10863668518, 7,27,13,60
1046,0.0,0.0, 7,27, 1,15,0.0, 7,27, 1,15
1096,427567180.7338388,0.0, 7,28, 6,30,1357936.665560892, 7,29,15,60
1134,0.0,0.0, 7,27, 1,15,0.0, 7,27, 1,15
1326,139793352.72173458,0.0, 7,27, 1,15,4050000.0, 7,27, 8,45
1379,0.0,0.0, 7,27, 1,15,0.0, 7,27, 1,15
1,ANNUAL,  39.64, -79.92,  -5.00, 378.00
5,365
1038,11.5,0.0, 1, 1, 1,15,0.25, 1, 8, 6,15
1039,313.0,0.0, 1, 1, 1,15,0.25, 3,17,18,15
581,0.19080814089586048,0.0, 5,21, 6, 7,0.7706290372578631,11,17, 2,60
582,2.1057988510491543,0.0, 1, 2,18,57,17.221058325231084, 2,12,15,50
583,0.02557629751023044,0.0, 5,29,23, 3,0.07612546378783207, 1, 7,20,52
1115,22329539312.211933,0.0, 1, 1,15,15,4163505.564267115, 1, 2, 6,45
1128,7203171885.8143635,0.0, 1, 1,15,15,1281988.1932674597, 1, 2, 6,45
1153,223293343.94418895,0.0, 1, 1,15,15,99684.95486965854, 1,26, 6,60
1154,1469590513.1158762,0.0, 1, 1, 2,45,180000.0, 1, 1,15,15
1155,3350488576.2809353,0.0, 1, 1, 1,15,5925868.284484774, 1, 8, 6,15
1156,3350488576.2809353,0.0, 1, 1, 1,15,5925868.284484774, 1, 8, 6,15
1292,-1223517978.155841,-39812.806131175246, 1, 1, 1,15,-2416.3936725887233, 9,17, 9,31
1306,8604829897.732136,0.0, 1, 1, 1,15,4050000.0, 1, 2, 8,45
1307,1488735934.8793113,0.0, 1, 1, 1,15,9976105.670738606, 2,16,10,30
1308,8604829897.732136,0.0, 1, 1, 1,15,4050000.0, 1, 2, 8,45
13,49886101175.89251,151703.1275401932, 1, 4, 4,15,11228156.815546341, 1, 8, 9,45
61,15743207428.383959,88139.10953165221, 1, 1, 1,15,1282023.4113694867, 1, 1,20,15
134,3685071073.4325233,63564.01800854099, 1, 2, 4,15,156554.22484006523, 1, 1,20,15
170,273393721.45532674,348.4159749238097, 1, 2, 4,15,17476.39704006126, 1, 1,12,15
207,339560869.0695816,815.2532113832032, 1, 2, 3,15,22990.642799023623, 1, 1,10,15
244,664895467.8009144,1521.856143006317, 1, 2, 4,15,53038.631142310165, 1, 1,20,15
281,2407221015.106824,59938.60262432081, 1, 1, 5,15,81951.81706819107, 1, 1,19,15
318,0.0,0.0, 1, 1, 1,15,0.0, 1, 1, 1,15
355,10310294493.051695,18561.32405820678, 1, 2, 4,15,724774.895203776, 1, 1,18,15
403,10310294493.051695,18561.32405820678, 1, 2, 4,15,724774.895203776, 1, 1,18,15
476,5569688622.066177,7098.072629279515, 1, 2, 4,15,356036.3026282215, 1, 1,12,15
513,0.0,0.0, 1, 1, 1,15,0.0, 1, 1, 1,15
562,1708440251.7365794,0.0, 1, 1,15,15,129942.10863668518, 1, 1, 2,45
1046,0.0,0.0, 1, 1, 1,15,0.0, 1, 1, 1,15
1096,7898008205.450213,0.0, 1, 1, 1,15,1361766.1461294498, 7,29,15,60
1134,12246544319.155262,0.0, 1, 3,19,15,7023728.959793679, 1,10, 6,30
1326,8604829897.732159,0.0, 1, 1, 1,15,4050000.0000000014, 4,19, 9,45
1379,0.0,0.0, 1, 1, 1,15,0.0, 1, 1, 1,15
End of Data
 Number of Records Written=          99
