Program Version,EnergyPlus, Version 22.2.0-c249759bad, YMD=2023.07.07 15:08
1,5,Environment Title[],Latitude[deg],Longitude[deg],Time Zone[],Elevation[m]
2,8,Day of Simulation[],Month[],Day of Month[],DST Indicator[1=yes 0=no],Hour[],StartMinute[],EndMinute[],DayType
3,5,Cumulative Day of Simulation[],Month[],Day of Month[],DST Indicator[1=yes 0=no],DayType  ! When Daily Report Variables Requested
4,2,Cumulative Days of Simulation[],Month[]  ! When Monthly Report Variables Requested
5,1,Cumulative Days of Simulation[] ! When Run Period Report Variables Requested
6,1,Calendar Year of Simulation[] ! When Annual Report Variables Requested
581,11,LIVING,AFN Zone Infiltration Air Change Rate [ach] !RunPeriod [Value,Min,Month,Day,Hour,Minute,Max,Month,Day,Hour,Minute]
582,11,ATTIC,AFN Zone Infiltration Air Change Rate [ach] !RunPeriod [Value,Min,Month,Day,Hour,Minute,Max,Month,Day,Hour,Minute]
583,11,CRAWLSPACE,AFN Zone Infiltration Air Change Rate [ach] !RunPeriod [Value,Min,Month,Day,Hour,Minute,Max,Month,Day,Hour,Minute]
1038,11,Facility,Facility Heating Setpoint Not Met Time [hr] !RunPeriod [Value,Min,Month,Day,Hour,Minute,Max,Month,Day,Hour,Minute]
1039,11,Facility,Facility Cooling Setpoint Not Met Time [hr] !RunPeriod [Value,Min,Month,Day,Hour,Minute,Max,Month,Day,Hour,Minute]
1115,11,DX_HEATING_COIL,Heating Coil Heating Energy [J] !RunPeriod [Value,Min,Month,Day,Hour,Minute,Max,Month,Day,Hour,Minute]
1128,11,DX_HEATING_COIL,Heating Coil Electricity Energy [J] !RunPeriod [Value,Min,Month,Day,Hour,Minute,Max,Month,Day,Hour,Minute]
1153,11,DX_HEATING_COIL,Heating Coil Defrost Electricity Energy [J] !RunPeriod [Value,Min,Month,Day,Hour,Minute,Max,Month,Day,Hour,Minute]
1154,11,DX_HEATING_COIL,Heating Coil Crankcase Heater Electricity Energy [J] !RunPeriod [Value,Min,Month,Day,Hour,Minute,Max,Month,Day,Hour,Minute]
1156,11,HEATING_RESISTANCE_BACKUP,Heating Coil Electricity Energy [J] !RunPeriod [Value,Min,Month,Day,Hour,Minute,Max,Month,Day,Hour,Minute]
13,11,Electricity:Facility [J] !RunPeriod [Value,Min,Month,Day,Hour,Minute,Max,Month,Day,Hour,Minute]
1134,11,Heating:Electricity [J] !RunPeriod [Value,Min,Month,Day,Hour,Minute,Max,Month,Day,Hour,Minute]
1096,11,Cooling:Electricity [J] !RunPeriod [Value,Min,Month,Day,Hour,Minute,Max,Month,Day,Hour,Minute]
562,11,Fans:Electricity [J] !RunPeriod [Value,Min,Month,Day,Hour,Minute,Max,Month,Day,Hour,Minute]
1388,11,Pumps:Electricity [J] !RunPeriod [Value,Min,Month,Day,Hour,Minute,Max,Month,Day,Hour,Minute]
1360,11,WaterSystems:Electricity [J] !RunPeriod [Value,Min,Month,Day,Hour,Minute,Max,Month,Day,Hour,Minute]
61,11,InteriorLights:Electricity [J] !RunPeriod [Value,Min,Month,Day,Hour,Minute,Max,Month,Day,Hour,Minute]
1046,11,ExteriorLights:Electricity [J] !RunPeriod [Value,Min,Month,Day,Hour,Minute,Max,Month,Day,Hour,Minute]
134,11,InteriorEquipment:Electricity [J] !RunPeriod [Value,Min,Month,Day,Hour,Minute,Max,Month,Day,Hour,Minute]
170,11,gas_dryer:InteriorEquipment:Electricity [J] !RunPeriod [Value,Min,Month,Day,Hour,Minute,Max,Month,Day,Hour,Minute]
207,11,clotheswasher:InteriorEquipment:Electricity [J] !RunPeriod [Value,Min,Month,Day,Hour,Minute,Max,Month,Day,Hour,Minute]
244,11,dishwasher:InteriorEquipment:Electricity [J] !RunPeriod [Value,Min,Month,Day,Hour,Minute,Max,Month,Day,Hour,Minute]
281,11,refrigerator:InteriorEquipment:Electricity [J] !RunPeriod [Value,Min,Month,Day,Hour,Minute,Max,Month,Day,Hour,Minute]
318,11,electric_mels:InteriorEquipment:Electricity [J] !RunPeriod [Value,Min,Month,Day,Hour,Minute,Max,Month,Day,Hour,Minute]
355,11,NaturalGas:Facility [J] !RunPeriod [Value,Min,Month,Day,Hour,Minute,Max,Month,Day,Hour,Minute]
1323,11,WaterSystems:NaturalGas [J] !RunPeriod [Value,Min,Month,Day,Hour,Minute,Max,Month,Day,Hour,Minute]
403,11,InteriorEquipment:NaturalGas [J] !RunPeriod [Value,Min,Month,Day,Hour,Minute,Max,Month,Day,Hour,Minute]
476,11,gas_dryer:InteriorEquipment:NaturalGas [J] !RunPeriod [Value,Min,Month,Day,Hour,Minute,Max,Month,Day,Hour,Minute]
513,11,gas_mels:InteriorEquipment:NaturalGas [J] !RunPeriod [Value,Min,Month,Day,Hour,Minute,Max,Month,Day,Hour,Minute]
End of Data Dictionary
1,EXTREME_WINTER,  39.67, -75.60,  -5.00,  23.00
5,7
1038,0.6666666666666666,0.0, 1, 8, 1,10,0.16666666666666666, 1, 8, 6,10
1039,0.0,0.0, 1, 8, 1,10,0.0, 1, 8, 1,10
581,0.3312695697276862,0.17647516405063995, 1,12, 1,60,0.7478325879816794, 1, 8, 1,53
582,4.583804182842574,0.0, 1, 9,23,53,16.52841783669543, 1, 8, 1,51
583,5.555450406201196,0.11404502495259955, 1,11,23,60,20.21498613231926, 1, 8, 1,51
1115,1754685077.5097744,0.0, 1, 8,23, 2,3165484.093405593, 1,13, 6,60
1128,575420696.8189765,0.0, 1, 8,23, 2,914834.5199043286, 1,13, 6,60
1153,8505868.34302065,0.0, 1, 8,23, 2,60673.31672196927, 1,12, 9,60
1154,40974286.87568317,0.0, 1, 8, 1, 2,120000.0, 1, 9,15,30
1156,434687035.98180735,0.0, 1, 8,12, 5,2783557.2757563754, 1, 8, 6,30
13,1498168054.0823834,306324.6925987483, 1, 9,15,30,4546319.510900145, 1,10, 6,10
61,301924526.0238348,58759.40635443481, 1, 8, 1,10,854682.2742463244, 1, 8,20,10
134,70666020.44019979,42376.01200569399, 1, 8, 4,10,104369.48322671017, 1,13,20,10
170,5241013.419656074,232.27731661587313, 1, 8, 4,10,11650.931360040839, 1,13,12,10
207,6509451.13922266,543.5021409221355, 1, 8, 3,10,15327.095199349082, 1,13,10,10
244,12749673.39982522,1014.5707620042115, 1, 8, 4,10,35359.08742820678, 1,13,20,10
281,46165882.48149605,39959.06841621388, 1, 8, 5,10,54634.54471212738, 1, 8,19,10
318,0.0,0.0, 1, 8, 1,10,0.0, 1, 8, 1,10
355,739878386.9287223,12374.216038804521, 1, 8, 4,10,3829218.1540669827, 1, 9,18,60
403,197687796.27748126,12374.216038804521, 1, 8, 4,10,483183.26346918393, 1,13,18,10
476,106772067.24485692,4732.048419519677, 1, 8, 4,10,237357.535085481, 1,13,12,10
513,0.0,0.0, 1, 8, 1,10,0.0, 1, 8, 1,10
562,60969779.59885943,0.0, 1, 9,15,30,91598.29909579156, 1, 8, 1,60
1046,0.0,0.0, 1, 8, 1,10,0.0, 1, 8, 1,10
1096,0.0,0.0, 1, 8, 1,10,0.0, 1, 8, 1,10
1134,1059587888.0194883,120000.0, 1, 9,15,30,4037161.888793701, 1,10, 6,10
1323,542190590.6512372,0.0, 1, 8, 1,10,3375000.000000001, 1,10, 9,50
1360,5019840.0,4979.999999999998, 1, 8, 1,60,4980.000000000001, 1, 8, 2,30
1388,0.0,0.0, 1, 8, 1,10,0.0, 1, 8, 1,10
1,EXTREME_SUMMER,  39.67, -75.60,  -5.00,  23.00
5,7
1038,0.0,0.0, 7,15, 1,10,0.0, 7,15, 1,10
1039,41.33333333333333,0.0, 7,15, 1,10,0.16666666666666666, 7,17,15,30
581,0.1051999600951427,0.0, 7,15,19,45,0.412949560961539, 7,21,22,56
582,3.2286290139485607,0.06529521987100009, 7,17, 8,30,17.450791161730677, 7,21,22,53
583,3.9142055860786393,0.0, 7,20, 6, 7,14.73987457914605, 7,21,22,53
1115,0.0,0.0, 7,15, 1,10,0.0, 7,15, 1,10
1128,0.0,0.0, 7,15, 1,10,0.0, 7,15, 1,10
1153,0.0,0.0, 7,15, 1,10,0.0, 7,15, 1,10
1154,0.0,0.0, 7,15, 1,10,0.0, 7,15, 1,10
1156,0.0,0.0, 7,15, 1,10,0.0, 7,15, 1,10
13,998255219.7468987,131126.11868417962, 7,16, 4,60,2012966.2767357794, 7,21,20,10
61,301924526.0238348,58759.40635443481, 7,15, 1,10,854682.2742463244, 7,15,20,10
134,70666020.44019979,42376.01200569399, 7,15, 4,10,104369.48322671017, 7,20,20,10
170,5241013.419656074,232.27731661587313, 7,15, 4,10,11650.931360040839, 7,20,12,10
207,6509451.13922266,543.5021409221355, 7,15, 3,10,15327.095199349082, 7,20,10,10
244,12749673.39982522,1014.5707620042115, 7,15, 4,10,35359.08742820678, 7,20,20,10
281,46165882.48149605,39959.06841621388, 7,15, 5,10,54634.54471212738, 7,15,19,10
318,0.0,0.0, 7,15, 1,10,0.0, 7,15, 1,10
355,641037038.8698031,12374.216038804521, 7,15, 4,10,3829218.154066982, 7,16,18,60
403,197687796.27748126,12374.216038804521, 7,15, 4,10,483183.26346918393, 7,20,18,10
476,106772067.24485692,4732.048419519677, 7,15, 4,10,237357.535085481, 7,20,12,10
513,0.0,0.0, 7,15, 1,10,0.0, 7,15, 1,10
562,56161992.15823638,0.0, 7,17, 6,20,91598.29909579156, 7,16,18,40
1046,0.0,0.0, 7,15, 1,10,0.0, 7,15, 1,10
1096,564482841.124627,0.0, 7,17, 6,20,1029219.1623037069, 7,20,15,60
1134,0.0,0.0, 7,15, 1,10,0.0, 7,15, 1,10
1323,443349242.5923204,0.0, 7,15, 1,10,3375000.0, 7,15, 9,50
1360,5019840.0,4980.0, 7,15, 1,10,4980.000000000001, 7,15, 1,60
1388,0.0,0.0, 7,15, 1,10,0.0, 7,15, 1,10
1,ANNUAL,  39.67, -75.60,  -5.00,  23.00
5,365
1038,14.33333333333331,0.0, 1, 1, 1,10,0.16666666666666666, 1, 5, 6,10
1039,348.6666666666666,0.0, 1, 1, 1,10,0.16666666666666666, 3,17,12,40
581,0.22748399530016344,0.0, 5,15,20,45,1.2214902910886531, 3,10,22,60
582,4.370401083266229,0.0, 1, 2,20,45,33.92609195717209, 2,12,14,60
583,5.13845616217887,0.0, 5,20,23, 6,33.67563853769277, 3,10,22,60
1115,20782443507.16671,0.0, 1, 1,13,20,3181245.2014063452, 3, 1, 6,40
1128,6338988393.736268,0.0, 1, 1,13,20,927796.0165780798, 1, 1, 6,30
1153,190439251.83168244,0.0, 1, 1,13,20,88885.98767750229, 2,18,16,60
1154,1594063267.8306632,0.0, 1, 1, 6, 2,120000.0, 1, 1,13,20
1156,2169374049.6265154,0.0, 1, 1, 1, 3,3206394.663791493, 1, 7,22,50
13,41432118346.07538,106115.4183601288, 4, 3, 4,10,4867696.469310274, 1, 7,22,50
61,15743207428.39043,58759.40635443481, 1, 1, 1,10,854682.2742463244, 1, 1,20,10
134,3685071073.433083,42376.01200569399, 1, 2, 4,10,104369.48322671017, 1, 1,20,10
170,273393721.45534325,232.27731661587313, 1, 2, 4,10,11650.931360040839, 1, 1,12,10
207,339560869.06955314,543.5021409221355, 1, 2, 3,10,15327.095199349082, 1, 1,10,10
244,664895467.8009839,1014.5707620042115, 1, 2, 4,10,35359.08742820678, 1, 1,20,10
281,2407221015.1057043,39959.06841621388, 1, 1, 5,10,54634.54471212738, 1, 1,19,10
318,0.0,0.0, 1, 1, 1,10,0.0, 1, 1, 1,10
355,35728507815.426254,12374.216038804521, 1, 2, 4,10,3829218.154066983, 6, 6,18,60
403,10310294493.052883,12374.216038804521, 1, 2, 4,10,483183.26346918393, 1, 1,18,10
476,5569688622.065564,4732.048419519677, 1, 2, 4,10,237357.535085481, 1, 1,12,10
513,0.0,0.0, 1, 1, 1,10,0.0, 1, 1, 1,10
562,1721797087.54589,0.0, 1, 1,13,20,91598.29909579156, 1, 6, 8,10
1046,0.0,0.0, 1, 1, 1,10,0.0, 1, 1, 1,10
1096,9727428993.6874,0.0, 1, 1, 1,10,1030623.979009761, 7,20,15,60
1134,10292864963.025143,0.0, 1, 4,17,30,4053296.490041632, 2,24, 6,10
1323,25418213322.37725,0.0, 1, 1, 1,10,3375000.000000002, 1, 3,10,20
1360,261748800.0,4979.999999999998, 2, 2,13,50,4980.000000000002, 1,18, 8,20
1388,0.0,0.0, 1, 1, 1,10,0.0, 1, 1, 1,10
End of Data
 Number of Records Written=          87
