Program Version,EnergyPlus, Version 22.2.0-c249759bad, YMD=2023.08.31 13:04
1,5,Environment Title[],Latitude[deg],Longitude[deg],Time Zone[],Elevation[m]
2,8,Day of Simulation[],Month[],Day of Month[],DST Indicator[1=yes 0=no],Hour[],StartMinute[],EndMinute[],DayType
3,5,Cumulative Day of Simulation[],Month[],Day of Month[],DST Indicator[1=yes 0=no],DayType  ! When Daily Report Variables Requested
4,2,Cumulative Days of Simulation[],Month[]  ! When Monthly Report Variables Requested
5,1,Cumulative Days of Simulation[] ! When Run Period Report Variables Requested
6,1,Calendar Year of Simulation[] ! When Annual Report Variables Requested
618,11,DX_HEATING_COIL,Heating Coil Heating Energy [J] !RunPeriod [Value,Min,Month,Day,Hour,Minute,Max,Month,Day,Hour,Minute]
631,11,DX_HEATING_COIL,Heating Coil Electricity Energy [J] !RunPeriod [Value,Min,Month,Day,Hour,Minute,Max,Month,Day,Hour,Minute]
656,11,DX_HEATING_COIL,Heating Coil Defrost Electricity Energy [J] !RunPeriod [Value,Min,Month,Day,Hour,Minute,Max,Month,Day,Hour,Minute]
657,11,DX_HEATING_COIL,Heating Coil Crankcase Heater Electricity Energy [J] !RunPeriod [Value,Min,Month,Day,Hour,Minute,Max,Month,Day,Hour,Minute]
684,11,HEAT PUMP WATER HEATER EVAPORATOR,Cooling Coil Total Water Heating Energy [J] !RunPeriod [Value,Min,Month,Day,Hour,Minute,Max,Month,Day,Hour,Minute]
685,11,HEAT PUMP WATER HEATER EVAPORATOR,Cooling Coil Water Heating Electricity Energy [J] !RunPeriod [Value,Min,Month,Day,Hour,Minute,Max,Month,Day,Hour,Minute]
712,11,LIVING,AFN Zone Infiltration Air Change Rate [ach] !RunPeriod [Value,Min,Month,Day,Hour,Minute,Max,Month,Day,Hour,Minute]
713,11,ATTIC,AFN Zone Infiltration Air Change Rate [ach] !RunPeriod [Value,Min,Month,Day,Hour,Minute,Max,Month,Day,Hour,Minute]
714,11,CRAWLSPACE,AFN Zone Infiltration Air Change Rate [ach] !RunPeriod [Value,Min,Month,Day,Hour,Minute,Max,Month,Day,Hour,Minute]
1157,11,Facility,Facility Heating Setpoint Not Met Time [hr] !RunPeriod [Value,Min,Month,Day,Hour,Minute,Max,Month,Day,Hour,Minute]
1158,11,Facility,Facility Cooling Setpoint Not Met Time [hr] !RunPeriod [Value,Min,Month,Day,Hour,Minute,Max,Month,Day,Hour,Minute]
1184,11,HEATING_RESISTANCE_BACKUP,Heating Coil Heating Energy [J] !RunPeriod [Value,Min,Month,Day,Hour,Minute,Max,Month,Day,Hour,Minute]
1185,11,HEATING_RESISTANCE_BACKUP,Heating Coil Electricity Energy [J] !RunPeriod [Value,Min,Month,Day,Hour,Minute,Max,Month,Day,Hour,Minute]
1334,11,WATER HEATER TANK,Water Heater Heating Energy [J] !RunPeriod [Value,Min,Month,Day,Hour,Minute,Max,Month,Day,Hour,Minute]
13,11,Electricity:Facility [J] !RunPeriod [Value,Min,Month,Day,Hour,Minute,Max,Month,Day,Hour,Minute]
637,11,Heating:Electricity [J] !RunPeriod [Value,Min,Month,Day,Hour,Minute,Max,Month,Day,Hour,Minute]
599,11,Cooling:Electricity [J] !RunPeriod [Value,Min,Month,Day,Hour,Minute,Max,Month,Day,Hour,Minute]
692,11,Fans:Electricity [J] !RunPeriod [Value,Min,Month,Day,Hour,Minute,Max,Month,Day,Hour,Minute]
1372,11,Pumps:Electricity [J] !RunPeriod [Value,Min,Month,Day,Hour,Minute,Max,Month,Day,Hour,Minute]
677,11,WaterSystems:Electricity [J] !RunPeriod [Value,Min,Month,Day,Hour,Minute,Max,Month,Day,Hour,Minute]
61,11,InteriorLights:Electricity [J] !RunPeriod [Value,Min,Month,Day,Hour,Minute,Max,Month,Day,Hour,Minute]
1165,11,ExteriorLights:Electricity [J] !RunPeriod [Value,Min,Month,Day,Hour,Minute,Max,Month,Day,Hour,Minute]
134,11,InteriorEquipment:Electricity [J] !RunPeriod [Value,Min,Month,Day,Hour,Minute,Max,Month,Day,Hour,Minute]
170,11,gas_dryer:InteriorEquipment:Electricity [J] !RunPeriod [Value,Min,Month,Day,Hour,Minute,Max,Month,Day,Hour,Minute]
207,11,clotheswasher:InteriorEquipment:Electricity [J] !RunPeriod [Value,Min,Month,Day,Hour,Minute,Max,Month,Day,Hour,Minute]
244,11,dishwasher:InteriorEquipment:Electricity [J] !RunPeriod [Value,Min,Month,Day,Hour,Minute,Max,Month,Day,Hour,Minute]
281,11,refrigerator:InteriorEquipment:Electricity [J] !RunPeriod [Value,Min,Month,Day,Hour,Minute,Max,Month,Day,Hour,Minute]
318,11,electric_mels:InteriorEquipment:Electricity [J] !RunPeriod [Value,Min,Month,Day,Hour,Minute,Max,Month,Day,Hour,Minute]
355,11,NaturalGas:Facility [J] !RunPeriod [Value,Min,Month,Day,Hour,Minute,Max,Month,Day,Hour,Minute]
403,11,InteriorEquipment:NaturalGas [J] !RunPeriod [Value,Min,Month,Day,Hour,Minute,Max,Month,Day,Hour,Minute]
476,11,gas_dryer:InteriorEquipment:NaturalGas [J] !RunPeriod [Value,Min,Month,Day,Hour,Minute,Max,Month,Day,Hour,Minute]
513,11,gas_mels:InteriorEquipment:NaturalGas [J] !RunPeriod [Value,Min,Month,Day,Hour,Minute,Max,Month,Day,Hour,Minute]
End of Data Dictionary
1,EXTREME_WINTER,  41.78, -87.75,  -6.00, 190.00
5,7
1157,9.25,0.0, 1,20, 1,15,0.25, 1,20, 6,15
1158,0.0,0.0, 1,20, 1,15,0.0, 1,20, 1,15
618,2378470185.346305,0.0, 1,20,23, 3,4535413.4109021425, 1,22, 7,60
631,848072814.5425773,0.0, 1,20,23, 3,1396058.6238499293, 1,26,18,60
656,11795679.060090655,0.0, 1,20,23, 3,94532.86802272827, 1,22, 5,60
657,4039206.1797702997,0.0, 1,20, 1, 3,107813.1489490405, 1,21,15,15
684,252764707.65564057,0.0, 1,20, 1, 3,1447619.7492640216, 1,26,20,15
685,58523228.02508388,0.0, 1,20, 1, 3,337534.24817582796, 1,26,24,15
712,0.358961846105647,0.24717020854391314, 1,26,23,30,0.5795987875231103, 1,26,15,60
713,5.152091005229523,0.045545821352949246, 1,21, 5,52,13.370260150981998, 1,26,15,52
714,6.003241143974874,0.6851743005080904, 1,21, 5,52,15.80791605470754, 1,26,15,52
1184,1784587691.8210242,0.0, 1,20,15,52,6729772.084510573, 1,20, 9,15
1185,1784587691.8210242,0.0, 1,20,15,52,6729772.084510573, 1,20, 9,15
1334,0.0,0.0, 1,20, 1, 3,0.0, 1,20, 1, 3
13,3188742673.679237,1017305.8036469202, 1,21,15,15,9179469.943113849, 1,24,22,60
61,301924526.02383536,88139.10953165221, 1,20, 1,15,1282023.4113694867, 1,20,20,15
134,70666020.44019976,63564.01800854099, 1,20, 4,15,156554.22484006523, 1,25,20,15
170,5241013.419656067,348.4159749238097, 1,20, 4,15,17476.39704006126, 1,25,12,15
207,6509451.13922267,815.2532113832032, 1,20, 3,15,22990.642799023623, 1,25,10,15
244,12749673.399825225,1521.856143006317, 1,20, 4,15,53038.631142310165, 1,25,20,15
281,46165882.481495745,59938.60262432081, 1,20, 5,15,81951.81706819107, 1,20,19,15
318,0.0,0.0, 1,20, 1,15,0.0, 1,20, 1,15
355,197687796.27748066,18561.32405820678, 1,20, 4,15,724774.895203776, 1,25,18,15
403,197687796.27748066,18561.32405820678, 1,20, 4,15,724774.895203776, 1,25,18,15
476,106772067.24485716,7098.072629279515, 1,20, 4,15,356036.3026282215, 1,25,12,15
513,0.0,0.0, 1,20, 1,15,0.0, 1,20, 1,15
599,0.0,0.0, 1,20, 1,15,0.0, 1,20, 1,15
637,2648495391.603462,605528.8212999428, 1,21,23,15,7986677.532893175, 1,25,10,30
677,63664028.02508388,7650.0, 1,20, 1,15,345184.24817582796, 1,26,24,15
692,103992707.58665624,47187.70593483353, 1,21,23,15,213073.74926212023, 1,20, 7,45
1165,0.0,0.0, 1,20, 1,15,0.0, 1,20, 1,15
1372,0.0,0.0, 1,20, 1,15,0.0, 1,20, 1,15
1,EXTREME_SUMMER,  41.78, -87.75,  -6.00, 190.00
5,7
1157,0.0,0.0, 7,27, 1,15,0.0, 7,27, 1,15
1158,9.25,0.0, 7,27, 1,15,0.25, 7,28,14,60
618,0.0,0.0, 7,27, 1,15,0.0, 7,27, 1,15
631,0.0,0.0, 7,27, 1,15,0.0, 7,27, 1,15
656,0.0,0.0, 7,27, 1,15,0.0, 7,27, 1,15
657,0.0,0.0, 7,27, 1,15,0.0, 7,27, 1,15
684,187203947.59509483,0.0, 7,27, 1,15,1785611.9263214497, 8, 2,20,45
685,37753246.26952555,0.0, 7,27, 1,15,388598.75357206824, 8, 2,22,15
712,0.17420948939512365,0.0, 7,27, 1,45,0.9632255067454653, 8, 2,23,48
713,6.1230630713805745,0.13198115760938314, 7,27, 1,60,18.93430055131594, 8, 2,23,48
714,6.357107168347627,0.05306569452327264, 7,27, 4,60,23.866175651294373, 8, 2,23,33
1184,0.0,0.0, 7,27, 1,15,0.0, 7,27, 1,15
1185,0.0,0.0, 7,27, 1,15,0.0, 7,27, 1,15
1334,0.0,0.0, 7,27, 1,15,0.0, 7,27, 1,15
13,1005606592.4266044,162824.23382130632, 8, 1, 3,45,3461024.3335237033, 8, 2,20,15
61,301924526.02383536,88139.10953165221, 7,27, 1,15,1282023.4113694867, 7,27,20,15
134,70666020.44019976,63564.01800854099, 7,27, 4,15,156554.22484006523, 8, 1,20,15
170,5241013.419656067,348.4159749238097, 7,27, 4,15,17476.39704006126, 8, 1,12,15
207,6509451.13922267,815.2532113832032, 7,27, 3,15,22990.642799023623, 8, 1,10,15
244,12749673.399825225,1521.856143006317, 7,27, 4,15,53038.631142310165, 8, 1,20,15
281,46165882.481495745,59938.60262432081, 7,27, 5,15,81951.81706819107, 7,27,19,15
318,0.0,0.0, 7,27, 1,15,0.0, 7,27, 1,15
355,197687796.27748066,18561.32405820678, 7,27, 4,15,724774.895203776, 8, 1,18,15
403,197687796.27748066,18561.32405820678, 7,27, 4,15,724774.895203776, 8, 1,18,15
476,106772067.24485716,7098.072629279515, 7,27, 4,15,356036.3026282215, 8, 1,12,15
513,0.0,0.0, 7,27, 1,15,0.0, 7,27, 1,15
599,531762891.5199292,0.0, 8, 1, 3,15,1627694.9387896871, 8, 2,13,60
637,0.0,0.0, 7,27, 1,15,0.0, 7,27, 1,15
677,42894046.26952555,7650.0, 7,27, 1,15,396248.75357206824, 8, 2,22,15
692,58359108.17311392,0.0, 8, 1, 3,45,213073.74926212023, 8, 2,18,45
1165,0.0,0.0, 7,27, 1,15,0.0, 7,27, 1,15
1372,0.0,0.0, 7,27, 1,15,0.0, 7,27, 1,15
1,ANNUAL,  41.78, -87.75,  -6.00, 190.00
5,365
1157,66.25,0.0, 1, 1, 1,15,0.25, 1, 2, 6,15
1158,99.25,0.0, 1, 1, 1,15,0.25, 5,23,16,45
618,39493381324.818306,0.0, 1, 2,23, 5,5524114.19590714, 1,28, 9,15
631,12304275472.709114,0.0, 1, 2,23, 5,1490696.2721047646, 1,28, 9,15
656,349761617.98796403,0.0, 1, 2,23, 5,175852.85182872714, 3, 8, 6,45
657,1202008988.2396228,0.0, 1, 1, 1, 1,180000.0, 2,13,15,15
684,11549604979.363691,0.0, 1, 1, 1, 1,1938068.9814242753,10,14,10,15
685,2433284063.8849163,0.0, 1, 1, 1, 1,381927.0807114832, 5,21,22,30
712,0.26515512926851387,0.0, 5,26, 1,45,1.799351305381358, 2, 1,21,52
713,5.322539155682838,0.0, 1, 9,21,52,40.58333340119995, 2, 1,21,52
714,6.0132165876417,0.0, 6, 4,23, 3,51.504417423058165, 2, 1,21,52
1184,11485185896.119137,0.0, 1, 2,15,37,6729772.084510573, 1,19, 6,15
1185,11485185896.119137,0.0, 1, 2,15,37,6729772.084510573, 1,19, 6,15
1334,0.0,0.0, 1, 1, 1, 1,0.0, 1, 1, 1, 1
13,56975163072.32319,159353.1275401932, 4,10, 4,15,9989494.175055217, 2, 1,20,45
61,15743207428.383959,88139.10953165221, 1, 1, 1,15,1282023.4113694867, 1, 1,20,15
134,3685071073.4325233,63564.01800854099, 1, 2, 4,15,156554.22484006523, 1, 1,20,15
170,273393721.45532674,348.4159749238097, 1, 2, 4,15,17476.39704006126, 1, 1,12,15
207,339560869.0695816,815.2532113832032, 1, 2, 3,15,22990.642799023623, 1, 1,10,15
244,664895467.8009144,1521.856143006317, 1, 2, 4,15,53038.631142310165, 1, 1,20,15
281,2407221015.106824,59938.60262432081, 1, 1, 5,15,81951.81706819107, 1, 1,19,15
318,0.0,0.0, 1, 1, 1,15,0.0, 1, 1, 1,15
355,10310294493.051695,18561.32405820678, 1, 2, 4,15,724774.895203776, 1, 1,18,15
403,10310294493.051695,18561.32405820678, 1, 2, 4,15,724774.895203776, 1, 1,18,15
476,5569688622.066177,7098.072629279515, 1, 2, 4,15,356036.3026282215, 1, 1,12,15
513,0.0,0.0, 1, 1, 1,15,0.0, 1, 1, 1,15
599,6981641559.828682,0.0, 1, 1, 1,15,1670316.376590915, 6, 7,16,15
637,25341231975.0559,0.0, 1, 6,18,15,8074020.4101255005, 2, 1,20,45
677,2701340063.88492,7650.0, 1, 1, 1,15,389577.0807114832, 5,21,22,30
692,2522670971.7365093,0.0, 1, 5,23,15,213073.74926212023, 1, 1, 9,45
1165,0.0,0.0, 1, 1, 1,15,0.0, 1, 1, 1,15
1372,0.0,0.0, 1, 1, 1,15,0.0, 1, 1, 1,15
End of Data
 Number of Records Written=          96
