Program Version,EnergyPlus, Version 9.5.0-de239b2e5f, YMD=2022.08.10 15:33
1,5,Environment Title[],Latitude[deg],Longitude[deg],Time Zone[],Elevation[m]
2,8,Day of Simulation[],Month[],Day of Month[],DST Indicator[1=yes 0=no],Hour[],StartMinute[],EndMinute[],DayType
3,5,Cumulative Day of Simulation[],Month[],Day of Month[],DST Indicator[1=yes 0=no],DayType  ! When Daily Meters Requested
4,2,Cumulative Days of Simulation[],Month[]  ! When Monthly Meters Requested
5,1,Cumulative Days of Simulation[] ! When Run Period Meters Requested
6,1,Calendar Year of Simulation[] ! When Annual Meters Requested
12,11,Electricity:Facility [J] !Annual [Value,Min,Month,Day,Hour,Minute,Max,Month,Day,Hour,Minute]
725,11,Heating:Electricity [J] !Annual [Value,Min,Month,Day,Hour,Minute,Max,Month,Day,Hour,Minute]
764,11,Cooling:Electricity [J] !Annual [Value,Min,Month,Day,Hour,Minute,Max,Month,Day,Hour,Minute]
196,11,Fans:Electricity [J] !Annual [Value,Min,Month,Day,Hour,Minute,Max,Month,Day,Hour,Minute]
48,11,InteriorLights:Electricity [J] !Annual [Value,Min,Month,Day,Hour,Minute,Max,Month,Day,Hour,Minute]
673,11,ExteriorLights:Electricity [J] !Annual [Value,Min,Month,Day,Hour,Minute,Max,Month,Day,Hour,Minute]
86,11,InteriorEquipment:Electricity [J] !Annual [Value,Min,Month,Day,Hour,Minute,Max,Month,Day,Hour,Minute]
648,11,HeatRecovery:Electricity [J] !Annual [Value,Min,Month,Day,Hour,Minute,Max,Month,Day,Hour,Minute]
End of Data Dictionary
1,PASCO-TRI.CITIES.AP ANN HTG 99.6% CONDNS DB,  46.27,-119.12,  -8.00, 124.00
1,PASCO-TRI.CITIES.AP ANN CLG .4% CONDNS DB=>MWB,  46.27,-119.12,  -8.00, 124.00
1,ANNUAL,  46.27,-119.12,  -8.00, 124.00
6,2017
12,49805205474.036388,0.0, 1, 3,14,60,27853478.121514866, 1, 4, 7,60
48,0.0,0.0, 1, 1, 1,60,0.0, 1, 1, 1,60
86,0.0,0.0, 1, 1, 1,60,0.0, 1, 1, 1,60
196,3218450250.2377417,0.0, 1, 3,14,60,926717.9424241588, 1, 4, 7,60
648,0.0,0.0, 1, 1, 1,60,0.0, 1, 1, 1,60
673,0.0,0.0, 1, 1, 1,60,0.0, 1, 1, 1,60
725,46586755223.79763,0.0, 1, 3,14,60,26926760.179090706, 1, 4, 7,60
764,0.0,0.0, 1, 1, 1,60,0.0, 1, 1, 1,60
End of Data
 Number of Records Written=           8
