Program Version,EnergyPlus, Version 9.5.0-de239b2e5f, YMD=2022.07.13 17:05
1,5,Environment Title[],Latitude[deg],Longitude[deg],Time Zone[],Elevation[m]
2,8,Day of Simulation[],Month[],Day of Month[],DST Indicator[1=yes 0=no],Hour[],StartMinute[],EndMinute[],DayType
3,5,Cumulative Day of Simulation[],Month[],Day of Month[],DST Indicator[1=yes 0=no],DayType  ! When Daily Report Variables Requested
4,2,Cumulative Days of Simulation[],Month[]  ! When Monthly Report Variables Requested
5,1,Cumulative Days of Simulation[] ! When Run Period Report Variables Requested
6,1,Calendar Year of Simulation[] ! When Annual Report Variables Requested
191,1,LIVING_UNIT1,Zone Windows Total Transmitted Solar Radiation Rate [W] !Hourly
192,1,ATTIC_UNIT1,Zone Windows Total Transmitted Solar Radiation Rate [W] !Hourly
193,1,LIVING_UNIT1,Zone Mean Air Temperature [C] !Hourly
194,1,ATTIC_UNIT1,Zone Mean Air Temperature [C] !Hourly
271,1,LIVING_UNIT1,AFN Zone Infiltration Sensible Heat Gain Rate [W] !Hourly
272,1,LIVING_UNIT1,AFN Zone Infiltration Sensible Heat Loss Rate [W] !Hourly
273,1,ATTIC_UNIT1,AFN Zone Infiltration Sensible Heat Gain Rate [W] !Hourly
274,1,ATTIC_UNIT1,AFN Zone Infiltration Sensible Heat Loss Rate [W] !Hourly
275,1,LIVING_UNIT1,AFN Zone Infiltration Air Change Rate [ach] !Hourly
276,1,ATTIC_UNIT1,AFN Zone Infiltration Air Change Rate [ach] !Hourly
572,1,Whole Building,Facility Total HVAC Electricity Demand Rate [W] !Hourly
End of Data Dictionary
1,KALISPELL-GLACIER PARK INTL A ANN HTG 99.6% CONDNS DB,  48.32,-114.25,  -7.00, 906.00
2,1,12,21, 0, 1, 0.00,60.00,WinterDesignDay
191,0.0
192,0.0
193,20.55344546266766
194,-7.548607473234572
271,0.0
272,3323.785561201359
273,0.0
274,603.0344958128858
275,0.5489517124152983
276,1.6040654770473777
572,13802.525884078981
2,1,12,21, 0, 2, 0.00,60.00,WinterDesignDay
191,0.0
192,0.0
193,20.43742363009273
194,-7.547790852978804
271,0.0
272,3314.7211084889897
273,0.0
274,603.0520996644591
275,0.5487666551694407
276,1.604020764328502
572,13854.964256657939
2,1,12,21, 0, 3, 0.00,60.00,WinterDesignDay
191,0.0
192,0.0
193,20.304418956998285
194,-7.571188925416733
271,0.0
272,3299.406778830977
273,0.0
274,602.4763839232285
275,0.5477374171976809
276,1.6051141142836907
572,13854.964256657939
2,1,12,21, 0, 4, 0.00,60.00,WinterDesignDay
191,0.0
192,0.0
193,20.16647924199115
194,-7.598248842457061
271,0.0
272,3282.9623124104448
273,0.0
274,601.5644991717869
275,0.5465718745586999
276,1.6057268112798129
572,13854.964256657939
2,1,12,21, 0, 5, 0.00,60.00,WinterDesignDay
191,0.0
192,0.0
193,20.027332893243366
194,-7.6319839488938749
271,0.0
272,3266.2363018777648
273,0.0
274,600.3385470199515
275,0.5453678429574314
276,1.606256333671256
572,13854.964256657939
2,1,12,21, 0, 6, 0.00,60.00,WinterDesignDay
191,0.0
192,0.0
193,19.88845259428959
194,-7.668820401553061
271,0.0
272,3249.4889042627366
273,0.0
274,598.913157887893
275,0.544151679062183
276,1.6066058602492582
572,13854.964256657939
2,1,12,21, 0, 7, 0.00,60.00,WinterDesignDay
191,0.0
192,0.0
193,19.751194910609124
194,-7.708250708838003
271,0.0
272,3232.8975524990416
273,0.0
274,597.3404708569681
275,0.5429375672117158
276,1.6068570660925519
572,13854.964256657939
2,1,12,21, 0, 8, 0.00,60.00,WinterDesignDay
191,0.0
192,0.0
193,19.61611520570607
194,-7.749101245702169
271,0.0
272,3216.561755344318
273,0.0
274,595.6725201105508
275,0.541735989041316
276,1.6070160284652507
572,13854.964256657939
2,1,12,21, 0, 9, 0.00,60.00,WinterDesignDay
191,0.0
192,0.0
193,19.48375850063838
194,-7.790818988610662
271,0.0
272,3200.549261099294
273,0.0
274,593.9433741399079
275,0.5405523327072899
276,1.6071110301465786
572,13854.964256657939
2,1,12,21, 0,10, 0.00,60.00,WinterDesignDay
191,0.0
192,0.0
193,19.354538830130008
194,-7.83285048351745
271,0.0
272,3184.9149039299179
273,0.0
274,592.1810535592877
275,0.5393913936836489
276,1.6071541012711524
572,13854.964256657939
2,1,12,21, 0,11, 0.00,60.00,WinterDesignDay
191,0.0
192,0.0
193,19.228748655070996
194,-7.874811234208095
271,0.0
272,3169.6983921678136
273,0.0
274,590.4065465469455
275,0.5382568693011438
276,1.6071576415015523
572,13854.964256657939
2,1,12,21, 0,12, 0.00,60.00,WinterDesignDay
191,0.0
192,0.0
193,19.10644978913634
194,-7.916391810738918
271,0.0
272,3154.915768765145
273,0.0
274,588.6363021203459
275,0.5371511340271183
276,1.6071304263701479
572,13854.964256657939
2,1,12,21, 0,13, 0.00,60.00,WinterDesignDay
191,0.0
192,0.0
193,18.98773833786182
194,-7.957388196595914
271,0.0
272,3140.5762362705165
273,0.0
274,586.8822195246413
275,0.5360750188928553
276,1.6070810643054685
572,13854.964256657939
2,1,12,21, 0,14, 0.00,60.00,WinterDesignDay
191,0.0
192,0.0
193,18.872648708335576
194,-7.997630386187115
271,0.0
272,3126.6852264922765
273,0.0
274,585.1535104690597
275,0.5350294265976093
276,1.6070148215241558
572,13854.964256657939
2,1,12,21, 0,15, 0.00,60.00,WinterDesignDay
191,0.0
192,0.0
193,18.76126035089745
194,-8.037001299283356
271,0.0
272,3113.249127331474
273,0.0
274,583.4569255196518
275,0.5340149036152599
276,1.606936409866444
572,13854.964256657939
2,1,12,21, 0,16, 0.00,60.00,WinterDesignDay
191,0.0
192,0.0
193,18.653549508891257
194,-8.0753992172127
271,0.0
272,3100.2679355995408
273,0.0
274,581.7978361481009
275,0.5330320914523727
276,1.6068485775619846
572,13854.964256657939
2,1,12,21, 0,17, 0.00,60.00,WinterDesignDay
191,0.0
192,0.0
193,18.549368119563228
194,-8.112765390950538
271,0.0
272,3087.72784025495
273,0.0
274,580.1799417315824
275,0.5320806870571125
276,1.606754512962022
572,13854.964256657939
2,1,12,21, 0,18, 0.00,60.00,WinterDesignDay
191,0.0
192,0.0
193,18.44865529098798
194,-8.149078759721279
271,0.0
272,3075.616828060216
273,0.0
274,578.6053210703262
275,0.5311596650368102
276,1.6066573764643362
572,13854.964256657939
2,1,12,21, 0,19, 0.00,60.00,WinterDesignDay
191,0.0
192,0.0
193,18.35133552054821
194,-8.184316735222469
271,0.0
272,3063.925218945379
273,0.0
274,577.0754189439706
275,0.5302685511179285
276,1.6065584193569012
572,13854.964256657939
2,1,12,21, 0,20, 0.00,60.00,WinterDesignDay
191,0.0
192,0.0
193,18.257317392682844
194,-8.218474525271125
271,0.0
272,3052.641601555944
273,0.0
274,575.5909544602776
275,0.5294067381890357
276,1.6064589893286119
572,13854.964256657939
2,1,12,21, 0,21, 0.00,60.00,WinterDesignDay
191,0.0
192,0.0
193,18.166604284697184
194,-8.25155627124276
271,0.0
272,3041.7613085609498
273,0.0
274,574.1521373451332
275,0.5285736683436925
276,1.606360086015182
572,13854.964256657939
2,1,12,21, 0,22, 0.00,60.00,WinterDesignDay
191,0.0
192,0.0
193,18.07910722674368
194,-8.283554263071125
271,0.0
272,3031.2763358607528
273,0.0
274,572.7592561644987
275,0.5277692653248715
276,1.606261532930159
572,13854.964256657939
2,1,12,21, 0,23, 0.00,60.00,WinterDesignDay
191,0.0
192,0.0
193,17.994618980530708
194,-8.31448398416774
271,0.0
272,3021.1659665971626
273,0.0
274,571.4120308587856
275,0.5269926014940012
276,1.6061643227768526
572,13854.964256657939
2,1,12,21, 0,24, 0.00,60.00,WinterDesignDay
191,0.0
192,0.0
193,17.913051372059568
194,-8.344383867965539
271,0.0
272,3011.4140183502074
273,0.0
274,570.1093884991983
275,0.5262421267730526
276,1.6060699721226262
572,13854.964256657939
1,KALISPELL-GLACIER PARK INTL A ANN CLG .4% CONDNS DB=>MWB,  48.32,-114.25,  -7.00, 906.00
2,1, 7,21, 0, 1, 0.00,60.00,SummerDesignDay
191,0.0
192,0.0
193,24.125947144835356
194,17.558471050929144
271,0.0
272,251.49289350888535
273,0.0
274,52.348283315551409
275,0.24136029917859715
276,2.9641503433088145
572,0.0
2,1, 7,21, 0, 2, 0.00,60.00,SummerDesignDay
191,0.0
192,0.0
193,23.211461484069454
194,16.186703593137336
271,0.0
272,241.6670140857542
273,0.0
274,1.5914678298840859
275,0.23840637068723373
276,2.940156573960001
572,0.0
2,1, 7,21, 0, 3, 0.00,60.00,SummerDesignDay
191,0.0
192,0.0
193,22.5607070235149
194,15.123663927726716
271,0.0
272,234.2685161142158
273,38.80963360735757
274,0.0
275,0.23490464630743039
276,2.9222656713177246
572,0.0
2,1, 7,21, 0, 4, 0.00,60.00,SummerDesignDay
191,0.0
192,0.0
193,21.974527454773186
194,14.265929012047634
271,0.0
272,231.2319072683778
273,63.771158260704869
274,0.0
275,0.23357347810113419
276,2.908716070894133
572,0.0
2,1, 7,21, 0, 5, 0.00,60.00,SummerDesignDay
191,0.0
192,0.0
193,21.478502135689415
194,13.634771051801865
271,0.0
272,224.40886465096833
273,84.6862359849681
274,0.0
275,0.23131086092931675
276,2.895765440333552
572,0.0
2,1, 7,21, 0, 6, 0.00,60.00,SummerDesignDay
191,1990.1485903912497
192,0.0
193,21.722194921380376
194,14.049514400174895
271,0.0
272,213.35028816543659
273,79.50100219262974
274,0.0
275,0.2235823445081253
276,2.891902130720471
572,0.0
2,1, 7,21, 0, 7, 0.00,60.00,SummerDesignDay
191,3888.326539851949
192,0.0
193,22.554969672992525
194,16.562191597628293
271,0.0
272,191.49885652996142
273,0.0
274,16.46482291813819
275,0.21376180131455595
276,2.90734403300583
572,0.0
2,1, 7,21, 0, 8, 0.00,60.00,SummerDesignDay
191,4437.0429048947039
192,0.0
193,23.62039702310415
194,21.528034608977625
271,0.0
272,123.39758463589803
273,0.0
274,165.740350830199
275,0.19903314602652706
276,2.972674063938615
572,0.0
2,1, 7,21, 0, 9, 0.00,60.00,SummerDesignDay
191,4776.411813201938
192,0.0
193,24.951373714307516
194,27.572629215820308
271,0.0
272,64.38609930112395
273,0.0
274,377.25955629799997
275,0.19279650465423835
276,3.0996471077589269
572,0.0
2,1, 7,21, 0,10, 0.00,60.00,SummerDesignDay
191,5111.771658124284
192,0.0
193,26.32430514335058
194,34.16997363882808
271,0.0
272,20.20315019543379
273,0.0
274,667.7940794091657
275,0.19034584411293754
276,3.236645534643322
572,0.0
2,1, 7,21, 0,11, 0.00,60.00,SummerDesignDay
191,5076.0943171977819
192,0.0
193,27.644958278027699
194,40.18745204990083
271,14.633726791742106
272,0.0
273,0.0
274,953.1741859039887
275,0.18860460714501646
276,3.374541530819234
572,0.0
2,1, 7,21, 0,12, 0.00,60.00,SummerDesignDay
191,4526.364636122189
192,0.0
193,28.713309801552759
194,45.08680525933823
271,32.6577237972724
272,0.0
273,0.0
274,1224.9948075150429
275,0.1893832473057999
276,3.487672913894798
572,0.0
2,1, 7,21, 0,13, 0.00,60.00,SummerDesignDay
191,3919.0045687516928
192,0.0
193,29.540790652832447
194,48.68990649929751
271,47.813423196072609
272,0.0
273,0.0
274,1420.814236650326
275,0.18995648951746436
276,3.5707206124556158
572,0.0
2,1, 7,21, 0,14, 0.00,60.00,SummerDesignDay
191,4214.084186900769
192,0.0
193,30.507028519481847
194,50.894713131088717
271,45.402317249101518
272,0.0
273,0.0
274,1542.406194823221
275,0.19128325480243472
276,3.624583914694845
572,0.0
2,1, 7,21, 0,15, 0.00,60.00,SummerDesignDay
191,4886.550238472283
192,0.0
193,31.51638460571397
194,51.60862801934093
271,18.55095332905995
272,0.0
273,0.0
274,1605.509382222284
275,0.1954231854473841
276,3.642290582186085
572,0.0
2,1, 7,21, 0,16, 0.00,60.00,SummerDesignDay
191,5159.839154560848
192,0.0
193,32.34070736070679
194,50.63842909827158
271,0.0
272,33.4799153033982
273,0.0
274,1609.0995017059277
275,0.20071444172124598
276,3.6257624827777
572,0.0
2,1, 7,21, 0,17, 0.00,60.00,SummerDesignDay
191,4947.4892557156949
192,0.0
193,32.92174807113479
194,48.21261839803258
271,0.0
272,92.61646086884883
273,0.0
274,1513.2876344120753
275,0.20949539611801933
276,3.5737013448564345
572,0.0
2,1, 7,21, 0,18, 0.00,60.00,SummerDesignDay
191,4558.183054914796
192,0.0
193,33.18056375742767
194,44.46631895440487
271,0.0
272,163.0713578445429
273,0.0
274,1335.256709545258
275,0.22627114346830408
276,3.496180176817768
572,0.0
2,1, 7,21, 0,19, 0.00,60.00,SummerDesignDay
191,4201.48249419437
192,0.0
193,33.08281687338438
194,39.41858583006101
271,0.0
272,267.4058401808797
273,0.0
274,1126.8205042572709
275,0.24952449878254835
276,3.4079836704417389
572,0.0
2,1, 7,21, 0,20, 0.00,60.00,SummerDesignDay
191,3131.4413478039739
192,0.0
193,32.578546044532298
194,33.927874571957719
271,0.0
272,331.1611476205016
273,0.0
274,825.9655748691887
275,0.26063998661024387
276,3.293826834828141
572,0.0
2,1, 7,21, 0,21, 0.00,60.00,SummerDesignDay
191,0.0
192,0.0
193,31.117571864887578
194,28.665930948629339
271,0.0
272,344.66609889218707
273,0.0
274,523.6913748476093
275,0.2668877553342578
276,3.175111064310283
572,0.0
2,1, 7,21, 0,22, 0.00,60.00,SummerDesignDay
191,0.0
192,0.0
193,29.842560500873164
194,24.646092039195325
271,0.0
272,357.1529843903447
273,0.0
274,327.99298183561839
275,0.26694622145491067
276,3.080610675982006
572,0.0
2,1, 7,21, 0,23, 0.00,60.00,SummerDesignDay
191,0.0
192,0.0
193,28.602209860302908
194,21.765300672724739
271,0.0
272,355.77892086816208
273,0.0
274,198.48411387890776
275,0.2654564718678232
276,3.0081861241251266
572,0.0
2,1, 7,21, 0,24, 0.00,60.00,SummerDesignDay
191,0.0
192,0.0
193,27.415327038071849
194,19.554772541131514
271,0.0
272,357.6462832696846
273,0.0
274,123.01811530771075
275,0.2649287698066905
276,2.964029025092697
572,0.0
1,ANNUAL,  48.32,-114.25,  -7.00, 906.00
2,1, 1, 1, 0, 1, 0.00,60.00,Sunday
191,0.0
192,0.0
193,20.55613656192889
194,-1.5368148350558953
271,0.0
272,2948.846531172856
273,0.0
274,1089.9216932600849
275,0.5175879100889046
276,2.401639695612761
572,10003.090884782161
2,1, 1, 1, 0, 2, 0.00,60.00,Sunday
191,0.0
192,0.0
193,20.554985189262504
194,-3.384129728592355
271,0.0
272,3068.6803990470295
273,0.0
274,996.4257059191222
275,0.5263591364188481
276,2.313641722758243
572,11166.449788075704
2,1, 1, 1, 0, 3, 0.00,60.00,Sunday
191,0.0
192,0.0
193,20.555468917411969
194,-4.587615442173413
271,0.0
272,3149.9335658812017
273,0.0
274,747.7370128536212
275,0.532206307114297
276,1.7982922294235598
572,12077.764640294918
2,1, 1, 1, 0, 4, 0.00,60.00,Sunday
191,0.0
192,0.0
193,20.55534659932612
194,-5.702198363196789
271,0.0
272,3194.0245082210788
273,0.0
274,812.4611202859659
275,0.533589451819887
276,2.03155763742841
572,12814.4576562804
2,1, 1, 1, 0, 5, 0.00,60.00,Sunday
191,0.0
192,0.0
193,20.555118313276105
194,-6.281771693911383
271,0.0
272,3264.904887121164
273,0.0
274,668.2217021935803
275,0.5374892374498793
276,1.6649032471640593
572,13462.63585063608
2,1, 1, 1, 0, 6, 0.00,60.00,Sunday
191,0.0
192,0.0
193,20.554947296543465
194,-6.66074691876188
271,0.0
272,3175.8204219287397
273,0.0
274,618.1128513635889
275,0.5305641574209276
276,1.6505154539252605
572,13714.803596494958
2,1, 1, 1, 0, 7, 0.00,60.00,Sunday
191,0.0
192,0.0
193,20.550664487834124
194,-6.654693399036092
271,0.0
272,3102.122915495693
273,0.0
274,570.4172488453573
275,0.5247723155851647
276,1.5816447422126848
572,13854.964256657939
2,1, 1, 1, 0, 8, 0.00,60.00,Sunday
191,0.0
192,0.0
193,20.52710578691139
194,-6.597417765255788
271,0.0
272,3015.408017658515
273,0.0
274,543.7940374229347
275,0.5181304284382144
276,1.5745382752071456
572,13854.964256657939
2,1, 1, 1, 0, 9, 0.00,60.00,Sunday
191,0.0
192,0.0
193,20.54860376228708
194,-6.018453082688664
271,0.0
272,2886.2953414820515
273,0.0
274,274.22775874449726
275,0.5072842259224671
276,0.8170118821021187
572,13694.513607573492
2,1, 1, 1, 0,10, 0.00,60.00,Sunday
191,2762.331694625013
192,0.0
193,20.55407743632961
194,-3.115077778411448
271,0.0
272,2749.7110344915315
273,0.0
274,81.47653716252032
275,0.49608419354512336
276,0.21180866371784239
572,11792.386841086485
2,1, 1, 1, 0,11, 0.00,60.00,Sunday
191,2892.5429400431478
192,0.0
193,20.555255951804037
194,0.7693272815729974
271,0.0
272,2636.5608806883908
273,0.0
274,33.93042416877474
275,0.487333131124166
276,0.07367077727498599
572,10275.736428493741
2,1, 1, 1, 0,12, 0.00,60.00,Sunday
191,2178.6223709214384
192,0.0
193,20.55645808848013
194,4.07146352851949
271,0.0
272,2427.4668679841008
273,0.0
274,105.11949044354067
275,0.4709949347606229
276,0.21121163203535857
572,9077.831493126203
2,1, 1, 1, 0,13, 0.00,60.00,Sunday
191,1889.6643558618887
192,0.0
193,20.557084037011046
194,6.447241127179138
271,0.0
272,2237.1116312102806
273,0.0
274,158.94153681096777
275,0.4553585297995453
276,0.309458696327477
572,8164.327366035755
2,1, 1, 1, 0,14, 0.00,60.00,Sunday
191,1180.9032967673032
192,0.0
193,20.557207857511228
194,7.5205313760358269
271,0.0
272,2040.6678589052545
273,0.0
274,176.61562857063238
275,0.438141486702471
276,0.3571739113083715
572,7693.026302896532
2,1, 1, 1, 0,15, 0.00,60.00,Sunday
191,1297.807945849899
192,0.0
193,20.557219045906544
194,7.734652145013684
271,0.0
272,2020.9839864474034
273,0.0
274,196.18786014959736
275,0.4366675642688047
276,0.3967518598345799
572,7520.664523248025
2,1, 1, 1, 0,16, 0.00,60.00,Sunday
191,1764.7229274547406
192,0.0
193,20.557423231506328
194,7.591351632943134
271,0.0
272,2010.8844540518529
273,0.0
274,196.71655542707149
275,0.4358630455068834
276,0.40286589402688496
572,7230.815018320101
2,1, 1, 1, 0,17, 0.00,60.00,Sunday
191,517.730913095014
192,0.0
193,20.557259296626787
194,6.109448919968508
271,0.0
272,1988.4298968968049
273,0.0
274,173.55306658860247
275,0.4337594705851737
276,0.38907860466674046
572,7644.30406498793
2,1, 1, 1, 0,18, 0.00,60.00,Sunday
191,0.0
192,0.0
193,20.55710495172923
194,4.470810816959287
271,0.0
272,2032.1498343513618
273,0.0
274,140.64614951296074
275,0.43767797991877857
276,0.33850755163943965
572,8282.648237176774
2,1, 1, 1, 0,19, 0.00,60.00,Sunday
191,0.0
192,0.0
193,20.55689023969711
194,3.2730760480201046
271,0.0
272,2063.945415012542
273,0.0
274,108.33473014997745
275,0.440341735556827
276,0.2755782760868318
572,8834.71224687201
2,1, 1, 1, 0,20, 0.00,60.00,Sunday
191,0.0
192,0.0
193,20.556538656998847
194,2.5892220919382638
271,0.0
272,2108.478738265508
273,0.0
274,90.45330445079493
275,0.4442694792724642
276,0.2340734304718332
572,9333.695817308604
2,1, 1, 1, 0,21, 0.00,60.00,Sunday
191,0.0
192,0.0
193,20.556292472255753
194,2.240742218822247
271,0.0
272,2061.619813173632
273,0.0
274,68.03828111159015
275,0.439373543114515
276,0.18534493757602076
572,9575.752431315186
2,1, 1, 1, 0,22, 0.00,60.00,Sunday
191,0.0
192,0.0
193,20.55547239390026
194,2.087269698753116
271,0.0
272,2026.1541299305607
273,0.0
274,55.211323521446207
275,0.43592812404575406
276,0.15551644886622968
572,9725.369798133244
2,1, 1, 1, 0,23, 0.00,60.00,Sunday
191,0.0
192,0.0
193,20.55591230877347
194,2.0081424158146135
271,0.0
272,1980.0714496415217
273,0.0
274,44.79421239199126
275,0.4314745817524246
276,0.1309207194047165
572,9785.14336629826
2,1, 1, 1, 0,24, 0.00,60.00,Sunday
191,0.0
192,0.0
193,20.555446177088347
194,2.010561264511427
271,0.0
272,1957.0639936027577
273,0.0
274,39.73712123209183
275,0.42921957929629409
276,0.11798592074196361
572,9818.38053204226
2,2, 1, 2, 0, 1, 0.00,60.00,Monday
191,0.0
192,0.0
193,20.555870961388775
194,2.0333580657924719
271,0.0
272,1934.4210464274357
273,0.0
274,36.328019029851869
275,0.42700439487238575
276,0.10943137241184194
572,9823.414989810806
2,2, 1, 2, 0, 2, 0.00,60.00,Monday
191,0.0
192,0.0
193,20.555456759058776
194,2.057626788971562
271,0.0
272,1911.9502711382207
273,0.0
274,33.3507347214754
275,0.4248087918259891
276,0.10193229382655826
572,9812.665928021588
2,2, 1, 2, 0, 3, 0.00,60.00,Monday
191,0.0
192,0.0
193,20.555864968914997
194,2.093976427922433
271,0.0
272,1912.1075736156509
273,0.0
274,33.91344871456274
275,0.4248363769653926
276,0.10335439149915812
572,9828.03585666993
2,2, 1, 2, 0, 4, 0.00,60.00,Monday
191,0.0
192,0.0
193,20.555451220082224
194,2.1245511753037245
271,0.0
272,1911.9625315031822
273,0.0
274,34.59550704613125
275,0.4248068561996657
276,0.10517883340194431
572,9837.844400696176
2,2, 1, 2, 0, 5, 0.00,60.00,Monday
191,0.0
192,0.0
193,20.555836682417167
194,2.1314835949453396
271,0.0
272,1912.1493123726412
273,0.0
274,35.2097477122797
275,0.4248411910645429
276,0.10698732368962764
572,9852.744542499933
2,2, 1, 2, 0, 6, 0.00,60.00,Monday
191,0.0
192,0.0
193,20.55544881558605
194,2.169419345447331
271,0.0
272,1912.249447941313
273,0.0
274,35.47889114743044
275,0.4248659766668332
276,0.10748402166956127
572,9861.488975649994
2,2, 1, 2, 0, 7, 0.00,60.00,Monday
191,0.0
192,0.0
193,20.555811561142386
194,2.1861324897323195
271,0.0
272,1912.4279169119675
273,0.0
274,36.261339943934107
275,0.4248988801085941
276,0.10971019663607226
572,9876.952562467175
2,2, 1, 2, 0, 8, 0.00,60.00,Monday
191,0.0
192,0.0
193,20.55544629181732
194,2.1985082498455568
271,0.0
272,1912.528506594728
273,0.0
274,36.63137420494083
275,0.4249236025045417
276,0.11072195117442765
572,9889.55669814777
2,2, 1, 2, 0, 9, 0.00,60.00,Monday
191,0.0
192,0.0
193,20.555810648417429
194,2.22264452903425
271,0.0
272,1871.3464225833985
273,0.0
274,72.606252421322
275,0.4208233793441873
276,0.22619337477831406
572,9856.9884622236
2,2, 1, 2, 0,10, 0.00,60.00,Monday
191,645.4416267599823
192,0.0
193,20.55557467665054
194,3.2518919197939808
271,0.0
272,1844.395765906559
273,0.0
274,213.9484841848411
275,0.4189290458814604
276,0.6302171578505593
572,9502.177831420024
2,2, 1, 2, 0,11, 0.00,60.00,Monday
191,1037.5113781780322
192,0.0
193,20.556435377696034
194,4.54898768103679
271,0.0
272,1812.0649924056232
273,0.0
274,481.28358756026747
275,0.41670653899586998
276,1.3280539834349679
572,9011.932017532275
2,2, 1, 2, 0,12, 0.00,60.00,Monday
191,1490.5013943774619
192,0.0
193,20.55707671338693
194,7.210113418465954
271,0.0
272,1734.2004820364355
273,0.0
274,269.1408814719389
275,0.408495368070825
276,0.6545335859805199
572,8201.18327638641
2,2, 1, 2, 0,13, 0.00,60.00,Monday
191,1278.36407600398
192,0.0
193,20.55714032308155
194,9.024795152624926
271,0.0
272,1650.4914707207384
273,0.0
274,171.809417452975
275,0.4003316952317403
276,0.39502574758386246
572,7569.035525357406
2,2, 1, 2, 0,14, 0.00,60.00,Monday
191,1585.0589260300436
192,0.0
193,20.557301780087678
194,10.873183138238489
271,0.0
272,1582.3964543536879
273,0.0
274,156.2426767329326
275,0.39366818918162946
276,0.33799513709633258
572,6879.260903412396
2,2, 1, 2, 0,15, 0.00,60.00,Monday
191,1373.2187508555144
192,0.0
193,20.557053141649179
194,11.152272744325384
271,0.0
272,1626.7389958095708
273,0.0
274,268.190515046414
275,0.3988509651231701
276,0.559162413838785
572,6673.468916087841
2,2, 1, 2, 0,16, 0.00,60.00,Monday
191,1133.6963553912167
192,0.0
193,20.557028800195274
194,10.0741330291172
271,0.0
272,1659.8381000641544
273,0.0
274,492.09826901745427
275,0.4025992563106981
276,1.0675448168108675
572,6692.387787279325
2,2, 1, 2, 0,17, 0.00,60.00,Monday
191,350.13877065208006
192,0.0
193,20.557029544350159
194,7.740766273568246
271,0.0
272,1700.783449755558
273,0.0
274,658.2687388144798
275,0.40715226591784978
276,1.5938650792654004
572,7212.780233239078
2,2, 1, 2, 0,18, 0.00,60.00,Monday
191,0.0
192,0.0
193,20.55714744708185
194,6.246848554577489
271,0.0
272,1735.0114089944178
273,0.0
274,388.02869473762487
275,0.4095665993978275
276,1.005168555580493
572,7789.566422413581
2,2, 1, 2, 0,19, 0.00,60.00,Monday
191,0.0
192,0.0
193,20.557051210149873
194,5.344804242977329
271,0.0
272,1760.3629063314027
273,0.0
274,146.69764704210417
275,0.41126066660258017
276,0.395226076181538
572,8242.256332537818
2,2, 1, 2, 0,20, 0.00,60.00,Monday
191,0.0
192,0.0
193,20.556856788166419
194,4.674908933715229
271,0.0
272,1799.852620636825
273,0.0
274,85.2799332617739
275,0.41477834707743
276,0.23375227002848027
572,8645.031697299179
2,2, 1, 2, 0,21, 0.00,60.00,Monday
191,0.0
192,0.0
193,20.556529264573127
194,3.693009248216883
271,0.0
272,1833.4343759563349
273,0.0
274,277.7576611562561
275,0.4196713981083769
276,0.8049082729790131
572,9083.244496648653
2,2, 1, 2, 0,22, 0.00,60.00,Monday
191,0.0
192,0.0
193,20.556196861330755
194,2.632603026776386
271,0.0
272,1920.3700584309345
273,0.0
274,646.9292515451815
275,0.43809758740833668
276,2.018776915812681
572,9572.74603743057
2,2, 1, 2, 0,23, 0.00,60.00,Monday
191,0.0
192,0.0
193,20.555312884823775
194,1.5693880009015034
271,0.0
272,2189.8271664450155
273,0.0
274,1035.6117246446732
275,0.49624751332680858
276,3.4719452996508677
572,10283.272387075707
2,2, 1, 2, 0,24, 0.00,60.00,Monday
191,0.0
192,0.0
193,20.555257834372374
194,0.8687315077464551
271,0.0
272,2177.8425663149148
273,0.0
274,1278.0181252090625
275,0.49685000512527069
276,4.655040131933021
572,10502.525903599955
2,3, 1, 3, 0, 1, 0.00,60.00,Tuesday
191,0.0
192,0.0
193,20.55495821345378
194,0.3308824962403849
271,0.0
272,2255.097231731059
273,0.0
274,1438.2675691702166
275,0.5167778090186891
276,5.58724729513389
572,10785.641078808754
2,3, 1, 3, 0, 2, 0.00,60.00,Tuesday
191,0.0
192,0.0
193,20.554796717075598
194,-0.02143068239747407
271,0.0
272,2257.2103662979509
273,0.0
274,1555.0075314123217
275,0.5207801400536198
276,6.407267578951178
572,10897.24546673891
2,3, 1, 3, 0, 3, 0.00,60.00,Tuesday
191,0.0
192,0.0
193,20.554721785724394
194,-0.03226982167612451
271,0.0
272,2224.261529277692
273,0.0
274,1498.3575334818277
275,0.5097220580080706
276,6.0451656107490969
572,10928.317989194618
2,3, 1, 3, 0, 4, 0.00,60.00,Tuesday
191,0.0
192,0.0
193,20.554573543502238
194,0.08906875242784232
271,0.0
272,2260.500389409378
273,0.0
274,1415.6403402558609
275,0.5168522238124819
276,5.584260586322217
572,11008.09880069493
2,3, 1, 3, 0, 5, 0.00,60.00,Tuesday
191,0.0
192,0.0
193,20.554565872670929
194,0.06667513882784201
271,0.0
272,2224.472537098352
273,0.0
274,1355.5514947145139
275,0.5052206882120772
276,5.2467329244542368
572,10984.948880169512
2,3, 1, 3, 0, 6, 0.00,60.00,Tuesday
191,0.0
192,0.0
193,20.554686554185805
194,0.19162072856547156
271,0.0
272,2137.3645174203809
273,0.0
274,1241.519964843543
275,0.48543553577067219
276,4.745099062258193
572,10885.039570487774
2,3, 1, 3, 0, 7, 0.00,60.00,Tuesday
191,0.0
192,0.0
193,20.554866411143057
194,0.356934933156273
271,0.0
272,2022.2408636968153
273,0.0
274,1089.2760893183764
275,0.4592861879734966
276,4.095326655843797
572,10729.081196930541
2,3, 1, 3, 0, 8, 0.00,60.00,Tuesday
191,0.0
192,0.0
193,20.555033681248156
194,0.47961194971109219
271,0.0
272,1937.2591292616726
273,0.0
274,974.9050854444646
275,0.44046204048486906
276,3.6254942715813209
572,10604.65329119698
2,3, 1, 3, 0, 9, 0.00,60.00,Tuesday
191,0.0
192,0.0
193,20.5551725572259
194,0.8924961134961825
271,0.0
272,1899.4025019404479
273,0.0
274,743.5118530874748
275,0.43475388350147
276,2.710877131393162
572,10502.691421905212
2,3, 1, 3, 0,10, 0.00,60.00,Tuesday
191,526.2233978632419
192,0.0
193,20.55566295003405
194,2.2592302437366906
271,0.0
272,1832.5944608161088
273,0.0
274,457.60922602768758
275,0.4208681961466621
276,1.4902237969686223
572,10021.924323328398
2,3, 1, 3, 0,11, 0.00,60.00,Tuesday
191,1038.0737808278264
192,0.0
193,20.5545975058673
194,4.238670781819023
271,0.0
272,1808.4278925379923
273,0.0
274,346.2506005517108
275,0.4181485066502465
276,0.9821775420580787
572,9356.990626045237
2,3, 1, 3, 0,12, 0.00,60.00,Tuesday
191,1360.286723676452
192,0.0
193,20.556508051813507
194,6.770268934563788
271,0.0
272,1738.187596479584
273,0.0
274,240.29775754874547
275,0.41023497144417905
276,0.5998406392402713
572,8535.651079739919
2,3, 1, 3, 0,13, 0.00,60.00,Tuesday
191,1519.3657219045422
192,0.0
193,20.55698982633543
194,9.206185266390012
271,0.0
272,1682.899162639906
273,0.0
274,170.73473852016577
275,0.404619241990389
276,0.3814555814208914
572,7761.319567912441
2,3, 1, 3, 0,14, 0.00,60.00,Tuesday
191,1366.0280538198827
192,0.0
193,20.557030444865
194,10.632663980306229
271,0.0
272,1621.759862667302
273,0.0
274,166.627556910496
275,0.3987765758714981
276,0.3572315836070948
572,7181.633855427978
2,3, 1, 3, 0,15, 0.00,60.00,Tuesday
191,1286.5608130530625
192,0.0
193,20.557006751363187
194,11.19294310243911
271,0.0
272,1604.2920554636829
273,0.0
274,195.70673305698484
275,0.3973403280914658
276,0.4120852584496759
572,6833.9911526527489
2,3, 1, 3, 0,16, 0.00,60.00,Tuesday
191,793.3993413899357
192,0.0
193,20.556944123397665
194,10.587689791056027
271,0.0
272,1595.5775787578455
273,0.0
274,197.35237081669889
275,0.3966183768783981
276,0.43135954860069528
572,6839.056098063866
2,3, 1, 3, 0,17, 0.00,60.00,Tuesday
191,289.2382455892041
192,0.0
193,20.55697909182994
194,9.120954574179628
271,0.0
272,1574.2267547384457
273,0.0
274,165.8667918846928
275,0.394178004131364
276,0.3985957851813831
572,7086.850627247967
2,3, 1, 3, 0,18, 0.00,60.00,Tuesday
191,0.0
192,0.0
193,20.557045209655379
194,7.572602664139851
271,0.0
272,1592.6052763426424
273,0.0
274,130.69996229581677
275,0.3958727504469974
276,0.3414098886849255
572,7515.961753105693
2,3, 1, 3, 0,19, 0.00,60.00,Tuesday
191,0.0
192,0.0
193,20.55709855883511
194,6.516384801848004
271,0.0
272,1600.3021104703365
273,0.0
274,98.5207465062855
275,0.39634041036177267
276,0.27448556442937496
572,7866.82538323791
2,3, 1, 3, 0,20, 0.00,60.00,Tuesday
191,0.0
192,0.0
193,20.55703942818021
194,5.801665688365693
271,0.0
272,1618.194996045288
273,0.0
274,79.94289682793989
275,0.3983194173577075
276,0.23118597957301116
572,8179.256581694792
2,3, 1, 3, 0,21, 0.00,60.00,Tuesday
191,0.0
192,0.0
193,20.556973543068897
194,5.370448434654196
271,0.0
272,1616.5683564712059
273,0.0
274,65.35865004674867
275,0.39791864787403466
276,0.19517738804099775
572,8383.009797082195
2,3, 1, 3, 0,22, 0.00,60.00,Tuesday
191,0.0
192,0.0
193,20.55689757024902
194,5.0670522243294739
271,0.0
272,1615.1746552620533
273,0.0
274,56.350226538556309
275,0.39757496099431385
276,0.1722404620968468
572,8532.161038108317
2,3, 1, 3, 0,23, 0.00,60.00,Tuesday
191,0.0
192,0.0
193,20.55683794632277
194,4.820641800376982
271,0.0
272,1613.3359834146709
273,0.0
274,49.945567320745649
275,0.3975559396469478
276,0.155818201492639
572,8639.906752534996
2,3, 1, 3, 0,24, 0.00,60.00,Tuesday
191,0.0
192,0.0
193,20.556801322461884
194,4.685226639110041
271,0.0
272,1613.1118301648265
273,0.0
274,45.26264760307182
275,0.3974997088776016
276,0.14274378962354629
572,8711.958560054667
2,4, 1, 4, 0, 1, 0.00,60.00,Wednesday
191,0.0
192,0.0
193,20.556767674056137
194,4.580700305205526
271,0.0
272,1613.0780412899804
273,0.0
274,42.62563996676803
275,0.3974905392174642
276,0.13556608649651173
572,8763.194612166335
2,4, 1, 4, 0, 2, 0.00,60.00,Wednesday
191,0.0
192,0.0
193,20.55674565331283
194,4.509012387480708
271,0.0
272,1613.0765310829834
273,0.0
274,40.64477190228349
275,0.39748933651213078
276,0.13002183355589859
572,8798.987536127202
2,4, 1, 4, 0, 3, 0.00,60.00,Wednesday
191,0.0
192,0.0
193,20.55676087533216
194,4.483295780540958
271,0.0
272,1592.64699979952