Program Version,EnergyPlus, Version 22.2.0-c249759bad, YMD=2023.09.01 14:30
1,5,Environment Title[],Latitude[deg],Longitude[deg],Time Zone[],Elevation[m]
2,8,Day of Simulation[],Month[],Day of Month[],DST Indicator[1=yes 0=no],Hour[],StartMinute[],EndMinute[],DayType
3,5,Cumulative Day of Simulation[],Month[],Day of Month[],DST Indicator[1=yes 0=no],DayType  ! When Daily Report Variables Requested
4,2,Cumulative Days of Simulation[],Month[]  ! When Monthly Report Variables Requested
5,1,Cumulative Days of Simulation[] ! When Run Period Report Variables Requested
6,1,Calendar Year of Simulation[] ! When Annual Report Variables Requested
7,1,Environment,Site Outdoor Air Drybulb Temperature [C] !Hourly
619,1,DX_HEATING_COIL,Heating Coil Heating Rate [W] !Hourly
633,1,DX_HEATING_COIL,Heating Coil Electricity Rate [W] !Hourly
659,1,DX_HEATING_COIL,Heating Coil Defrost Electricity Rate [W] !Hourly
661,1,DX_HEATING_COIL,Heating Coil Crankcase Heater Electricity Rate [W] !Hourly
690,1,FAN,Fan Electricity Rate [W] !Hourly
716,1,HEAT PUMP WATER HEATER FAN,Fan Electricity Rate [W] !Hourly
718,1,LIVING,Zone Mean Air Temperature [C] !Hourly
719,1,ATTIC,Zone Mean Air Temperature [C] !Hourly
720,1,CRAWLSPACE,Zone Mean Air Temperature [C] !Hourly
843,1,LIVING,Zone Predicted Sensible Load to Heating Setpoint Heat Transfer Rate [W] !Hourly
844,1,LIVING,Zone System Predicted Sensible Load to Heating Setpoint Heat Transfer Rate [W] !Hourly
907,1,ATTIC,Zone Predicted Sensible Load to Heating Setpoint Heat Transfer Rate [W] !Hourly
908,1,ATTIC,Zone System Predicted Sensible Load to Heating Setpoint Heat Transfer Rate [W] !Hourly
971,1,CRAWLSPACE,Zone Predicted Sensible Load to Heating Setpoint Heat Transfer Rate [W] !Hourly
972,1,CRAWLSPACE,Zone System Predicted Sensible Load to Heating Setpoint Heat Transfer Rate [W] !Hourly
1195,1,HEATING_RESISTANCE_BACKUP,Heating Coil Heating Rate [W] !Hourly
1197,1,HEATING_RESISTANCE_BACKUP,Heating Coil Electricity Rate [W] !Hourly
End of Data Dictionary
1,EXTREME_WINTER,  46.68, -68.05,  -5.00, 146.00
2,1,12,22, 0, 1, 0.00,60.00,Monday
7,-3.0
718,18.43552891509981
719,3.3359097880091415
720,17.39284144542736
619,2710.8167640700776
633,862.8478181610782
659,35.773806763686764
661,16.706978412285657
690,95.20873379999698
716,0.0
843,1781.0440264460449
844,1781.0440264460449
907,0.0
908,0.0
971,0.0
972,0.0
1195,0.0
1197,0.0
2,1,12,22, 0, 2, 0.00,60.00,Monday
7,-3.0
718,18.529983774640208
719,2.079234554094554
720,16.900362833260587
619,3014.5293945173617
633,941.2644080067214
659,39.03455402045114
661,0.0
690,104.78689302267836
716,0.0
843,2413.5213716227936
844,2413.5213716227936
907,0.0
908,0.0
971,0.0
972,0.0
1195,577.3173133413752
1197,577.3173133413752
2,1,12,22, 0, 3, 0.00,60.00,Monday
7,-3.0
718,18.58756491090908
719,2.0437394170150323
720,16.679360228835716
619,3013.5501262070534
633,942.4174342801871
659,39.03455402045114
661,0.0
690,104.78689302267836
716,0.0
843,2403.260199699809
844,2403.260199699809
907,0.0
908,0.0
971,0.0
972,0.0
1195,642.4532074267076
1197,642.4532074267076
2,1,12,22, 0, 4, 0.00,60.00,Monday
7,-3.0
718,18.604520961901372
719,1.8145647843181616
720,16.428247859583433
619,3012.878557826702
633,943.2083558504941
659,39.03455402045114
661,0.0
690,104.78689302267836
716,0.0
843,2362.5426069782425
844,2362.5426069782425
907,0.0
908,0.0
971,0.0
972,0.0
1195,605.2348409477638
1197,605.2348409477638
2,1,12,22, 0, 5, 0.00,60.00,Monday
7,-3.0
718,18.605420037871244
719,1.0974418522547869
720,16.21675476695259
619,3012.880135350011
633,943.2064977829862
659,39.03455402045114
661,0.0
690,104.78689302267836
716,0.0
843,2587.2516569614254
844,2587.2516569614254
907,0.0
908,0.0
971,0.0
972,0.0
1195,899.9368478784725
1197,899.9368478784725
2,1,12,22, 0, 6, 0.00,60.00,Monday
7,-3.0
718,19.43078172413933
719,1.4636127873249793
720,16.023752601702203
619,3013.0833214925474
633,942.9671844892046
659,39.03455402045114
661,0.0
690,104.78689302267836
716,0.0
843,3505.9016280732103
844,3505.9016280732103
907,0.0
908,0.0
971,0.0
972,0.0
1195,2078.1666698645517
1197,2078.1666698645517
2,1,12,22, 0, 7, 0.00,60.00,Monday
7,-3.0
718,19.603764364549438
719,1.6265824932933721
720,15.878483384522887
619,3000.4307340914897
633,957.8947961075712
659,39.03455402045114
661,0.0
690,104.78689302267836
716,85.44000000000004
843,3282.7958140452465
844,3282.7958140452465
907,0.0
908,0.0
971,0.0
972,0.0
1195,3157.954366264067
1197,3157.954366264067
2,1,12,22, 0, 8, 0.00,60.00,Monday
7,-3.0
718,19.65837616803996
719,2.1691192520621403
720,15.719334720071812
619,2997.8698954537826
633,960.9218655298819
659,39.03455402045114
661,0.0
690,104.78689302267836
716,85.44000000000004
843,2899.2170063461745
844,2899.2170063461745
907,0.0
908,0.0
971,0.0
972,0.0
1195,2781.2004964452994
1197,2781.2004964452994
2,1,12,22, 0, 9, 0.00,60.00,Monday
7,-3.0
718,19.70407936915044
719,2.177555335049634
720,15.573834621154386
619,2956.5485205627187
633,948.6910361551387
659,48.402487321361384
661,0.0
690,104.78689302267836
716,6.64741308984735
843,2851.9697635875946
844,2851.9697635875946
907,0.0
908,0.0
971,0.0
972,0.0
1195,1450.7172219467304
1197,1450.7172219467304
2,1,12,22, 0,10, 0.00,60.00,Monday
7,-3.0
718,19.71682948143963
719,2.5457558243238343
720,15.437502321011497
619,2955.999452725592
633,949.3403984671241
659,48.402487321361384
661,0.0
690,104.78689302267836
716,0.0
843,2808.3549903900257
844,2808.3549903900257
907,0.0
908,0.0
971,0.0
972,0.0
1195,1314.8080519254972
1197,1314.8080519254972
2,1,12,22, 0,11, 0.00,60.00,Monday
7,-2.0
718,19.71797890927741
719,3.214464032048173
720,15.314909937125991
619,3012.7118488642536
633,948.8972592254876
659,54.523220721888435
661,0.0
690,104.78689302267836
716,0.0
843,2614.293037602698
844,2614.293037602698
907,0.0
908,0.0
971,0.0
972,0.0
1195,997.1190808377662
1197,997.1190808377662
2,1,12,22, 0,12, 0.00,60.00,Monday
7,-1.0
718,19.721772208722047
719,3.1463683583590685
720,15.200074902588122
619,3123.058566168006
633,964.8269471316697
659,48.93666966449174
661,0.0
690,104.78689302267836
716,0.0
843,2504.688974598903
844,2504.688974598903
907,0.0
908,0.0
971,0.0
972,0.0
1195,726.5452966554617
1197,726.5452966554617
2,1,12,22, 0,13, 0.00,60.00,Monday
7,-1.0
718,19.720036363845736
719,3.6521375110620813
720,15.093217341537624
619,3123.120903745138
633,964.7525947961124
659,48.93666966449174
661,0.0
690,104.78689302267836
716,0.0
843,2434.2369529337666
844,2434.2369529337666
907,0.0
908,0.0
971,0.0
972,0.0
1195,641.9015330900042
1197,641.9015330900042
2,1,12,22, 0,14, 0.00,60.00,Monday
7,-1.0
718,19.698428464581205
719,3.786483447009808
720,14.992974157794508
619,3073.9786999183752
633,949.3524204653988
659,59.684483323194584
661,0.0
690,104.78689302267836
716,76.55707594278799
843,2283.072597427854
844,2283.072597427854
907,0.0
908,0.0
971,0.0
972,0.0
1195,1636.7080311897369
1197,1636.7080311897369
2,1,12,22, 0,15, 0.00,60.00,Monday
7,-1.0
718,19.718152574620202
719,4.003952490212974
720,14.899770134406774
619,3074.41548542197
633,948.8315295549637
659,59.684483323194584
661,0.0
690,104.78689302267836
716,0.0
843,2191.008865368076
844,2191.008865368076
907,0.0
908,0.0
971,0.0
972,0.0
1195,362.6448326792124
1197,362.6448326792124
2,1,12,22, 0,16, 0.00,60.00,Monday
7,0.0
718,19.72058477929437
719,3.3425779443544354
720,14.818787477787616
619,3187.60350630802
633,965.8609784615608
659,53.715620812970776
661,0.0
690,104.78689302267836
716,0.0
843,2251.410451797319
844,2251.410451797319
907,0.0
908,0.0
971,0.0
972,0.0
1195,317.6584915049357
1197,317.6584915049357
2,1,12,22, 0,17, 0.00,60.00,Monday
7,0.0
718,19.719996990913593
719,3.122211933412668
720,14.736993388062283
619,3187.6553925532676
633,965.7989668005378
659,53.715620812970776
661,0.0
690,104.78689302267836
716,0.0
843,2328.734844650022
844,2328.734844650022
907,0.0
908,0.0
971,0.0
972,0.0
1195,447.3715471913056
1197,447.3715471913056
2,1,12,22, 0,18, 0.00,60.00,Monday
7,0.0
718,19.723006245151453
719,2.7424881912133245
720,14.658314775462834
619,3133.5217233745557
633,949.2525712895484
659,65.22033021098629
661,0.0
690,104.78689302267836
716,0.0
843,2044.4697204807344
844,2044.4697204807344
907,0.0
908,0.0
971,0.0
972,0.0
1195,168.48302854787016
1197,168.48302854787016
2,1,12,22, 0,19, 0.00,60.00,Monday
7,1.0
718,19.718955638892307
719,3.2561217331431913
720,14.586312813680276
619,3248.088389404963
633,966.187788331769
659,59.28984785953265
661,0.0
690,104.78689302267836
716,85.44000000000004
843,1494.5276970508185
844,1494.5276970508185
907,0.0
908,0.0
971,0.0
972,0.0
1195,781.9020827512975
1197,781.9020827512975
2,1,12,22, 0,20, 0.00,60.00,Monday
7,1.0
718,19.693284490420705
719,3.308394811097776
720,14.50983277056903
619,3189.3262474144135
633,948.5000428448984
659,71.45193462483101
661,0.0
690,104.78689302267836
716,85.44000000000004
843,1384.6763177201537
844,1384.6763177201537
907,0.0
908,0.0
971,0.0
972,0.0
1195,703.5218654693174
1197,703.5218654693174
2,1,12,22, 0,21, 0.00,60.00,Monday
7,2.0
718,19.7262692124184
719,3.9209176719739562
720,14.431261844474024
619,3030.636752131358
633,898.5805509594421
659,60.7300293620006
661,13.883956839452804
690,96.85933612111255
716,48.15569839017881
843,1244.1625222460843
844,1244.1625222460843
907,0.0
908,0.0
971,0.0
972,0.0
1195,0.0
1197,0.0
2,1,12,22, 0,22, 0.00,60.00,Monday
7,2.0
718,19.721067625638216
719,3.4836420410711963
720,14.33298456275416
619,2413.498272802221
633,731.3854553383114
659,49.399816850077116
661,48.60704759110621
690,78.78851187048305
716,0.0
843,1510.3907828593165
844,1510.3907828593165
907,0.0
908,0.0
971,0.0
972,0.0
1195,0.0
1197,0.0
2,1,12,22, 0,23, 0.00,60.00,Monday
7,3.0
718,18.79372849022282
719,3.7115983840713787
720,14.203246476358418
619,1074.7381527250864
633,335.6545116599106
659,24.899489141644448
661,130.501230860929
690,36.19961735080029
716,0.0
843,658.3843049010447
844,658.3843049010447
907,0.0
908,0.0
971,0.0
972,0.0
1195,0.0
1197,0.0
2,1,12,22, 0,24, 0.00,60.00,Monday
7,3.0
718,18.49343169855595
719,4.04527957424936
720,14.152836943793917
619,1759.057364889887
633,524.6042642129902
659,46.86913255541247
661,87.42583426248788
690,58.575171668975685
716,0.0
843,1138.7252541917333
844,1138.7252541917333
907,0.0
908,0.0
971,0.0
972,0.0
1195,0.0
1197,0.0
2,2,12,23, 0, 1, 0.00,60.00,Tuesday
7,3.0
718,18.367839217387413
719,4.4703447037261554
720,14.109533552406063
619,2972.9070420145904
633,844.081209894022
659,75.86736245718957
661,17.77548314498776
690,94.81693682072604
716,0.0
843,1946.4794899721273
844,1946.4794899721273
907,0.0
908,0.0
971,0.0
972,0.0
1195,0.0
1197,0.0
2,2,12,23, 0, 2, 0.00,60.00,Tuesday
7,3.0
718,18.563890145424235
719,4.767885142859063
720,14.041497085214527
619,3254.3181176424196
633,912.5817928407079
659,82.22549111944338
661,2.5040029451194323
690,102.76356122143581
716,0.0
843,2149.5512716943904
844,2149.5512716943904
907,0.0
908,0.0
971,0.0
972,0.0
1195,0.0
1197,0.0
2,2,12,23, 0, 3, 0.00,60.00,Tuesday
7,3.0
718,18.594107006382888
719,4.894594943340835
720,13.984677881980607
619,3320.687144272305
633,927.4893718818988
659,83.26800780331197
661,0.0
690,104.78689302267836
716,0.0
843,2196.9338929773567
844,2196.9338929773567
907,0.0
908,0.0
971,0.0
972,0.0
1195,0.0
1197,0.0
2,2,12,23, 0, 4, 0.00,60.00,Tuesday
7,3.0
718,18.563614381346447
719,4.9281294809504415
720,13.91992034027991
619,3320.297022865739
633,927.9482947238098
659,83.26800780331197
661,0.0
690,104.78689302267836
716,0.0
843,2249.302425473059
844,2249.302425473059
907,0.0
908,0.0
971,0.0
972,0.0
1195,0.0
1197,0.0
2,2,12,23, 0, 5, 0.00,60.00,Tuesday
7,3.0
718,18.60863454804112
719,5.182500649793233
720,13.847123681302905
619,2995.2826634351404
633,850.8930395489108
659,76.39824007531455
661,16.50037729790428
690,95.48024700247286
716,0.0
843,1977.8341474231001
844,1977.8341474231001
907,0.0
908,0.0
971,0.0
972,0.0
1195,0.0
1197,0.0
2,2,12,23, 0, 6, 0.00,60.00,Tuesday
7,4.0
718,18.855401226303794
719,5.950454174150033
720,13.808468893711993
619,3378.9695792239795
633,929.2790851234028
659,88.68507860339902
661,0.0
690,104.78689302267836
716,0.0
843,2987.1838264182497
844,2987.1838264182497
907,0.0
908,0.0
971,0.0
972,0.0
1195,0.0
1197,0.0
2,2,12,23, 0, 7, 0.00,60.00,Tuesday
7,3.0
718,18.21728985040825
719,5.795817247065454
720,13.756069172370339
619,3316.5961003069806
633,932.3094364776664
659,83.26800780331197
661,0.0
690,104.78689302267836
716,85.44000000000004
843,2986.511071156083
844,2986.511071156083
907,0.0
908,0.0
971,0.0
972,0.0
1195,0.0
1197,0.0
2,2,12,23, 0, 8, 0.00,60.00,Tuesday
7,3.0
718,17.740178479897015
719,5.595123987612369
720,13.675182489584342
619,3326.168056192917
633,921.0582265339951
659,83.26800780331197
661,0.0
690,104.78689302267836
716,85.44000000000004
843,3117.19984874255
844,3117.19984874255
907,0.0
908,0.0
971,0.0
972,0.0
1195,0.0
1197,0.0
2,2,12,23, 0, 9, 0.00,60.00,Tuesday
7,3.0
718,17.65215496238874
719,5.720204120434623
720,13.612301238419477
619,3333.2458109813374
633,912.8000549473152
659,83.26800780331197
661,0.0
690,104.78689302267836
716,85.44000000000004
843,2826.9161858172174
844,2826.9161858172174
907,0.0
908,0.0
971,0.0
972,0.0
1195,0.0
1197,0.0
2,2,12,23, 0,10, 0.00,60.00,Tuesday
7,3.0
718,18.647811429344024
719,6.510153672633032
720,13.558728570036378
619,3394.5037697718612
633,927.5672557217637
659,71.65447518018385
661,0.0
690,104.78689302267836
716,5.784730687803594
843,2817.197771973355
844,2817.197771973355
907,0.0
908,0.0
971,0.0
972,0.0
1195,0.0
1197,0.0
2,2,12,23, 0,11, 0.00,60.00,Tuesday
7,3.0
718,19.35614283171917
719,7.7677701070969105
720,13.55998904499563
619,3451.84570556388
633,965.2000797589754
659,57.58120831747299
661,0.0
690,104.78689302267836
716,0.0
843,2457.6891482419014
844,2457.6891482419014
907,0.0
908,0.0
971,0.0
972,0.0
1195,0.0
1197,0.0
2,2,12,23, 0,12, 0.00,60.00,Tuesday
7,3.0
718,19.730811052626343
719,9.804358832390287
720,13.481267068723232
619,1883.5836252712015
633,566.252993161239
659,33.319054057956784
661,84.27108415560592
690,60.355263473529554
716,0.0
843,1281.0037891971333
844,1281.0037891971333
907,0.0
908,0.0
971,0.0
972,0.0
1195,0.0
1197,0.0
2,2,12,23, 0,13, 0.00,60.00,Tuesday
7,3.0
718,19.635993618854066
719,9.181513962675144
720,13.476891933408472
619,1606.6560063230113
633,491.7901857028534
659,22.06645448399109
661,102.02109750915955
690,51.152563238495894
716,0.0
843,1128.517762353291
844,1128.517762353291
907,0.0
908,0.0
971,0.0
972,0.0
1195,0.0
1197,0.0
2,2,12,23, 0,14, 0.00,60.00,Tuesday
7,3.0
718,19.96076271997436
719,10.142231969514867
720,13.471501765677155
619,1383.1352577714408
633,425.74215601444746
659,24.917916254100202
661,113.45122138904867
690,45.136891638632484
716,0.0
843,966.1649532381471
844,966.1649532381471
907,0.0
908,0.0
971,0.0
972,0.0
1195,0.0
1197,0.0
2,2,12,23, 0,15, 0.00,60.00,Tuesday
7,3.0
718,19.699400049177605
719,8.890743898462933
720,13.472115131250675
619,1170.5910408088628
633,365.655808409926
659,16.333081973823045
661,127.47827036513249
690,37.86180473614143
716,0.0
843,815.6990708373069
844,815.6990708373069
907,0.0
908,0.0
971,0.0
972,0.0
1195,0.0
1197,0.0
2,2,12,23, 0,16, 0.00,60.00,Tuesday
7,2.0
718,19.699574837660318
719,7.209927230442498
720,13.492958220636725
619,1418.9544265616908
633,444.4232455724581
659,30.064364662965144
661,107.86336430280095
690,47.95023018757365
716,0.0
843,979.4953703014125
844,979.4953703014125
907,0.0
908,0.0
971,0.0
972,0.0
1195,0.0
1197,0.0
2,2,12,23, 0,17, 0.00,60.00,Tuesday
7,2.0
718,19.64782507106411
719,6.032921861101362
720,13.508273705107456
619,1698.8051746807964
633,526.7798241169004
659,35.63721490171181
661,90.7845509635335
690,56.83847975893674
716,0.0
843,1135.440425085566
844,1135.440425085566
907,0.0
908,0.0
971,0.0
972,0.0
1195,0.0
1197,0.0
2,2,12,23, 0,18, 0.00,60.00,Tuesday
7,1.0
718,19.650517080576456
719,5.861122724593257
720,13.57586488864467
619,2942.500152425295
633,886.8190391343655
659,66.99047964342616
661,12.487989317099334
690,97.35646475470722
716,64.16273663687869
843,1109.1886751403108
844,1109.1886751403108
907,0.0
908,0.0
971,0.0
972,0.0
1195,0.0
1197,0.0
2,2,12,23, 0,19, 0.00,60.00,Tuesday
7,1.0
718,19.803635152008763
719,4.596967721349964
720,13.458769373050332
619,1509.9052055705542
633,479.39903681163076
659,36.19662741172421
661,98.68258262906393
690,52.60407047986278
716,0.0
843,962.67711999725
844,962.67711999725
907,0.0
908,0.0
971,0.0
972,0.0
1195,0.0
1197,0.0
2,2,12,23, 0,20, 0.00,60.00,Tuesday
7,1.0
718,19.334306913583507
719,3.9098119587679445
720,13.56253119859529
619,3189.2577883287095
633,948.5819190219471
659,71.45193462483101
661,0.0
690,104.78689302267836
716,85.44000000000004
843,909.1979652015361
844,909.1979652015361
907,0.0
908,0.0
971,0.0
972,0.0
1195,186.74002950131353
1197,186.74002950131353
2,2,12,23, 0,21, 0.00,60.00,Tuesday
7,-1.0
718,19.534474355510692
719,2.4757398469597858
720,13.473459853405963
619,3081.5771066184197
633,940.3037966393498
659,59.684483323194584
661,0.0
690,104.78689302267836
716,85.44000000000004
843,1576.5384114734916
844,1576.5384114734916
907,0.0
908,0.0
971,0.0
972,0.0
1195,1103.2244092811343
1197,1103.2244092811343
2,2,12,23, 0,22, 0.00,60.00,Tuesday
7,-2.0
718,19.637426213710423
719,1.8994725413157498
720,13.454908459448575
619,3017.683825444554
633,942.9923463314027
659,54.523220721888435
661,0.0
690,104.78689302267836
716,50.60888931119798
843,1790.6695592755586
844,1790.6695592755586
907,0.0
908,0.0
971,0.0
972,0.0
1195,797.83369632637
1197,797.83369632637
2,2,12,23, 0,23, 0.00,60.00,Tuesday
7,-3.0
718,18.887842810198254
719,0.9646252535128277
720,13.34201921344816
619,1971.4808472174652
633,659.9325493897319
659,26.87303505383529
661,62.311555860195746
690,71.51717252860286
716,0.0
843,1117.4737509769002
844,1117.4737509769002
907,0.0
908,0.0
971,0.0
972,0.0
1195,0.0
1197,0.0
2,2,12,23, 0,24, 0.00,60.00,Tuesday
7,-3.0
718,18.572945506598323
719,0.38323933283896894
720,13.31241535250841
619,2895.192593398621
633,918.4504442191856
659,29.601294059090183
661,7.800591892410491
690,100.02360369269094
716,0.0
843,1696.1899618748703
844,1696.1899618748703
907,0.0
908,0.0
971,0.0
972,0.0
1195,0.0
1197,0.0
2,3,12,24, 0, 1, 0.00,60.00,Wednesday
7,-4.0
718,18.594741731456942
719,0.18884122801196612
720,13.226749859749672
619,2948.4325257309156
633,935.8473986245874
659,35.32881390314755
661,0.0
690,104.78689302267836
716,0.0
843,2184.353943173419
844,2184.353943173419
907,0.0
908,0.0
971,0.0
972,0.0
1195,615.1724211389924
1197,615.1724211389924
2,3,12,24, 0, 2, 0.00,60.00,Wednesday
7,-4.0
718,18.601291114509706
719,-0.40731658052585756
720,13.158663582959754
619,2980.6077353080696
633,946.4072604040784
659,27.693571185119527
661,0.0
690,104.78689302267836
716,0.0
843,2665.0603035314653
844,2665.0603035314653
907,0.0
908,0.0
971,0.0
972,0.0
1195,1183.8779559731781
1197,1183.8779559731781
2,3,12,24, 0, 3, 0.00,60.00,Wednesday
7,-6.0
718,18.596170236839633
719,-2.6764805337009476
720,13.061366403052693
619,2840.254311474945
633,939.3747485937536
659,21.120299671866118
661,0.0
690,104.78689302267836
716,0.0
843,3729.1825715346567
844,3729.1825715346567
907,0.0
908,0.0
971,0.0
972,0.0
1195,2690.7630389126907
1197,2690.7630389126907
2,3,12,24, 0, 4, 0.00,60.00,Wednesday
7,-6.0
718,18.59942136671788
719,-2.055999795694725
720,12.98947524242345
619,2867.162127349316
633,948.0729326903147
659,14.438717910297898
661,0.0
690,104.78689302267836
716,0.0
843,3394.894117948923
844,3394.894117948923
907,0.0
908,0.0
971,0.0
972,0.0
1195,2352.760403763725
1197,2352.760403763725
2,3,12,24, 0, 5, 0.00,60.00,Wednesday
7,-7.0
718,18.597964538688004
719,-3.4435316292715656
720,12.890551322786001
619,2811.6030501529144
633,949.2479297762194
659,7.436064436083029
661,0.0
690,104.78689302267836
716,0.0
843,4195.777786846242
844,4195.777786846242
907,0.0
908,0.0
971,0.0
972,0.0
1195,3394.4560848599895
1197,3394.4560848599895
2,3,12,24, 0, 6, 0.00,60.00,Wednesday
7,-8.0
718,19.30723250789256
719,-2.459692816381289
720,12.805226723200489
619,2694.341872547914
633,929.0641201127212
659,16.707429723225076
661,0.0
690,104.78689302267836
716,72.97796449115893
843,4532.324696974654
844,4532.324696974654
907,0.0
908,0.0
971,0.0
972,0.0
1195,4969.553170911125
1197,4969.553170911125
2,3,12,24, 0, 7, 0.00,60.00,Wednesday
7,-8.0
718,19.548984669665337
719,-3.2193140268626363
720,12.745389965749244
619,2683.4481539272415
633,941.4125864791881
659,16.707429723225076
661,0.0
690,104.78689302267836
716,85.44000000000004
843,4612.890558421777
844,4612.890558421777
907,0.0
908,0.0
971,0.0
972,0.0
1195,5449.093114665
1197,5449.093114665
2,3,12,24, 0, 8, 0.00,60.00,Wednesday
7,-9.0
718,19.645894012366536
719,-4.1333691316050825
720,12.654492943998306
619,2606.920883300727
633,939.8748534003986
659,14.791875966232654
661,0.0
690,104.78689302267836
716,74.43354796708743
843,4505.6335653191145
844,4505.6335653191145
907,0.0
908,0.0
971,0.0
972,0.0
1195,5265.3241928504085
1197,5265.3241928504085
2,3,12,24, 0, 9, 0.00,60.00,Wednesday
7,-9.0
718,19.70328547272541
719,-4.516456121334567
720,12.570279317846712
619,2624.5439638173784
633,948.3132470348966
659,9.570447724025604
661,0.0
690,104.78689302267836
716,0.0
843,4514.437230975049
844,4514.437230975049
907,0.0
908,0.0
971,0.0
972,0.0
1195,4181.447492046529
1197,4181.447492046529
2,3,12,24, 0,10, 0.00,60.00,Wednesday
7,-9.0
718,19.709241649801097
719,-3.410691705282116
720,12.487463433030026
619,2623.71431415852
633,949.2405919505477
659,9.570447724025604
661,0.0
690,104.78689302267836
716,0.0
843,3528.3529680939955
844,3528.3529680939955
907,0.0
908,0.0
971,0.0
972,0.0
1195,2962.1940962985973
1197,2962.1940962985973
2,3,12,24, 0,11, 0.00,60.00,Wednesday
7,-9.0
718,19.715713766106845
719,-3.6282395612091385
720,12.406460141343034
619,2623.751543379926
633,949.1989824381925
659,9.570447724025604
661,0.0
690,104.78689302267836
716,0.0
843,3535.8540124118445
844,3535.8540124118445
907,0.0
908,0.0
971,0.0
972,0.0
1195,2936.698143410312
1197,2936.698143410312
2,3,12,24, 0,12, 0.00,60.00,Wednesday
7,-9.0
718,19.706245733249148
719,-3.5050805351678593
720,12.341466698098783
619,2623.755127237848
633,949.1949768950357
659,9.570447724025604
661,0.0
690,104.78689302267836
716,0.0
843,3884.6716695431533
844,3884.6716695431533
907,0.0
908,0.0
971,0.0
972,0.0
1195,3364.906450761546
1197,3364.906450761546
2,3,12,24, 0,13, 0.00,60.00,Wednesday
7,-9.0
718,19.72392189760125
719,-3.0179671926551523
720,12.287005894334095
619,2623.942817866698
633,948.9851977117562
659,9.570447724025604
661,0.0
690,104.78689302267836
716,0.0
843,2983.956000657172
844,2983.956000657172
907,0.0
908,0.0
971,0.0
972,0.0
1195,2259.952138616571
1197,2259.952138616571
2,3,12,24, 0,14, 0.00,60.00,Wednesday
7,-8.0
718,19.716172284001093
719,-3.4095278748858084
720,12.240061874888015
619,2720.5190124699893
633,963.2678767928621
659,5.268154898142294
661,0.0
690,104.78689302267836
716,0.0
843,2686.1420349251384
844,2686.1420349251384
907,0.0
908,0.0
971,0.0
972,0.0
1195,1757.5953617503258
1197,1757.5953617503258
2,3,12,24, 0,15, 0.00,60.00,Wednesday
7,-8.0
718,19.69240826208734
719,-2.5179300204019666
720,12.20069663350796
619,2720.655667981092
633,963.1131888434387
659,5.268154898142294
661,0.0
690,104.78689302267836
716,74.24950773664443
843,2817.3350787050076
844,2817.3350787050076
907,0.0
908,0.0
971,0.0
972,0.0
1195,2990.7564544449806
1197,2990.7564544449806
2,3,12,24, 0,16, 0.00,60.00,Wednesday
7,-8.0
718,19.697701382020462
719,-2.1615169888725134
720,12.162293665752333
619,2699.4132573714746
633,955.0031775453832
659,11.032221821338837
661,0.0
690,104.78689302267836
716,85.44000000000004
843,2912.5231480726943
844,2912.5231480726943
907,0.0
908,0.0
971,0.0
972,0.0
1195,3242.5230118116265
1197,3242.5230118116265
2,3,12,24, 0,17, 0.00,60.00,Wednesday
7,-9.0
718,19.715048815836024
719,-3.2635419386869597
720,12.114791206911136
619,2624.242445291491
633,948.6502903702423
659,9.570447724025604
661,0.0
690,104.78689302267836
716,9.06773385554596
843,3206.8860680513317
844,3206.8860680513317
907,0.0
908,0.0
971,0.0
972,0.0
1195,2594.4468131562135
1197,2594.4468131562135
2,3,12,24, 0,18, 0.00,60.00,Wednesday
7,-10.0
718,19.71109819324207
719,-3.789654298058383
720,12.059850461295767
619,2532.492713361948
633,935.9066791119001
659,13.052154404636251
661,0.0
690,104.78689302267836
716,0.0
843,3195.3095448254917
844,3195.3095448254917
907,0.0
908,0.0
971,0.0
972,0.0
1195,2583.8212939970044
1197,2583.8212939970044
2,3,12,24, 0,19, 0.00,60.00,Wednesday
7,-11.0
718,19.713222521306953
719,-5.371253146769955
720,11.99318443397873
619,2460.5640511605866
633,929.2661019911108
659,11.475562806260855
661,0.0
690,104.78689302267836
716,0.0
843,3318.9756426141685
844,3318.9756426141685
907,0.0
908,0.0
971,0.0
972,0.0
1195,2858.1663212084973
1197,2858.1663212084973
2,3,12,24, 0,20, 0.00,60.00,Wednesday
7,-11.0
718,19.69865025394046
719,-5.9010420178033245
720,11.925985793577436
619,2460.620661152024
633,929.2046690415517
659,11.475562806260855
661,0.0
690,104.78689302267836
716,85.44000000000004
843,3341.9321588557905
844,3341.9321588557905
907,0.0
908,0.0
971,0.0
972,0.0
1195,4278.690703468312
1197,4278.690703468312
2,3,12,24, 0,21, 0.00,60.00,Wednesday
7,-12.0
718,19.686974766563207
719,-5.43941563764719
720,11.847250882112236
619,2376.1026131213516
633,916.9339057266085
659,14.045957717797267
661,0.0
690,104.78689302267836
716,85.44000000000004
843,3413.411372455248
844,3413.411372455248
907,0.0
908,0.0
971,0.0
972,0.0
1195,4493.14976811226
1197,4493.14976811226
2,3,12,24, 0,22, 0.00,60.00,Wednesday
7,-12.0
718,19.697566314115132
719,-6.410421271516679
720,11.766540892546914
619,2391.869600264554
633,922.6133691056533
659,9.379374449450168
661,0.0
690,104.78689302267836
716,37.13219361439015
843,3753.3119820696174
844,3753.3119820696174
907,0.0
908,0.0
971,0.0
972,0.0
1195,4055.07057230641
1197,4055.07057230641
2,3,12,24, 0,23, 0.00,60.00,Wednesday
7,-12.0
718,18.877822481799395
719,-6.5678249276475125
720,11.682202984752978
619,2391.7939752617604
633,922.6940757449445
659,9.379374449450168
661,0.0
690,104.78689302267836
716,0.0
843,2964.411716967479
844,2964.411716967479
907,0.0
908,0.0
971,0.0
972,0.0
1195,2638.8128426453613
1197,2638.8128426453613
2,3,12,24, 0,24, 0.00,60.00,Wednesday
7,-13.0
718,18.664086154088523
719,-6.918919678673828
720,11.550138953804934
619,2333.2912215873484
633,902.0964202610231
659,8.148688205949613
661,0.0
690,104.78689302267836
716,0.0
843,3512.440668256777
844,3512.440668256777
907,0.0
908,0.0
971,0.0
972,0.0
1195,3297.8626217540896
1197,3297.8626217540896
2,4,12,25, 0, 1, 0.00,60.00,Thursday
7,-13.0
718,18.611081417309045
719,-7.264883636422614
720,11.453677824517788
619,2322.840830183048
633,893.17984040218
659,12.427549306314548
661,0.0
690,104.78689302267836
716,0.0
843,4159.179361605558
844,4159.179361605558
907,0.0
908,0.0
971,0.0
972,0.0
1195,4139.851414211453
1197,4139.851414211453
2,4,12,25, 0, 2, 0.00,60.00,Thursday
7,-13.0
718,18.591490006949137
719,-7.175527214320846
720,11.35284594089462
619,2310.05281994886
633,886.9592883825146
659,16.65715688156209
661,0.0
690,104.78689302267836
716,0.0
843,4583.355755975819
844,4583.355755975819
907,0.0
908,0.0
971,0.0
972,0.0
1195,4669.738002195576
1197,4669.738002195576
2,4,12,25, 0, 3, 0.00,60.00,Thursday
7,-13.0
718,18.5973570452513
719,-7.064068804203507
720,11.254576970330524
619,2338.0115391043187
633,897.1123317730918
659,8.148688205949613
661,0.0
690,104.78689302267836
716,0.0
843,4721.7776620874865
844,4721.7776620874865
907,0.0
908,0.0
971,0.0
972,0.0
1195,4838.878150489656
1197,4838.878150489656
2,4,12,25, 0, 4, 0.00,60.00,Thursday
7,-14.0
718,18.58836654312412
719,-7.44398673342773
720,11.15217900950221
619,2243.087958078465
633,880.2493675466917
659,14.839229166790277
661,0.0
690,104.78689302267836
716,0.0
843,4893.80384804871
844,4893.80384804871
907,0.0
908,0.0
971,0.0
972,0.0
1195,5109.6430018509145
1197,5109.6430018509145
2,4,12,25, 0, 5, 0.00,60.00,Thursday
7,-14.0
718,18.594205596551095
719,-7.887761428828749
720,11.052990057913881
619,2243.3450180500495
633,879.9825937172941
659,14.839229166790277
661,0.0
690,104.78689302267836
716,0.0
843,5099.923584616214
844,5099.923584616214
907,0.0
908,0.0
971,0.0
972,0.0
1195,5429.030358985832
1197,5429.030358985832
2,4,12,25, 0, 6, 0.00,60.00,Thursday
7,-14.0
718,19.438087547234456
719,-7.402649164020535
720,10.954244398462542
619,2267.8275813717355
633,889.5530093690254
659,7.042209542896243
661,0.0
690,104.78689302267836
716,0.0
843,6242.965034507746
844,6242.965034507746
907,0.0
908,0.0
971,0.0
972,0.0
1195,6814.511283510613
1197,6814.511283510613
2,4,12,25, 0, 7, 0.00,60.00,Thursday
7,-14.0
718,19.591797154839615
719,-7.082685722456937
720,10.895832834653103
619,2255.1266683672707
633,902.6857819068152
659,7.042209542896243
661,0.0
690,104.78689302267836
716,85.44000000000004
843,5892.620375021779
844,5892.620375021779
907,0.0
908,0.0
971,0.0
972,0.0
1195,7753.838317720783
1197,7753.838317720783
2,4,12,25, 0, 8, 0.00,60.00,Thursday
7,-14.0
718,19.655673058891484
719,-6.763824982818095
720,10.804635898671295
619,2240.629734659753
633,900.1298954699745
659,10.961358782946608
661,0.0
690,104.78689302267836
716,85.44000000000004
843,5374.781675719403
844,5374.781675719403
907,0.0
908,0.0
971,0.0
972,0.0
1195,7123.929453979611
1197,7123.929453979611
2,4,12,25, 0, 9, 0.00,60.00,Thursday
7,-13.0
718,19.68327671458733
719,-5.565427567271923
720,10.730850416457521
619,2308.617323705502
633,908.1514036140902
659,12.427549306314548
661,0.0
690,104.78689302267836
716,85.44000000000004
843,4371.978703543644
844,4371.978703543644
907,0.0
908,0.0
971,0.0
972,0.0
1195,5701.402088090696
1197,5701.402088090696
2,4,12,25, 0,10, 0.00,60.00,Thursday
7,-12.0
718,19.701239490947096
719,-6.06607722937733
720,10.66362753382367
619,2420.2982166069855
633,931.5293342060601
659,1.2398038986971658
661,0.0
690,104.78689302267836
716,20.935240653637337
843,3748.280909225099
844,3748.280909225099
907,0.0
908,0.0
971,0.0
972,0.0
1195,3801.3453999809476
1197,3801.3453999809476
2,4,12,25, 0,11, 0.00,60.00,Thursday
7,-11.0
718,19.714016388321877