Program Version,EnergyPlus, Version 22.2.0-c249759bad, YMD=2023.09.01 20:44
1,5,Environment Title[],Latitude[deg],Longitude[deg],Time Zone[],Elevation[m]
2,8,Day of Simulation[],Month[],Day of Month[],DST Indicator[1=yes 0=no],Hour[],StartMinute[],EndMinute[],DayType
3,5,Cumulative Day of Simulation[],Month[],Day of Month[],DST Indicator[1=yes 0=no],DayType  ! When Daily Report Variables Requested
4,2,Cumulative Days of Simulation[],Month[]  ! When Monthly Report Variables Requested
5,1,Cumulative Days of Simulation[] ! When Run Period Report Variables Requested
6,1,Calendar Year of Simulation[] ! When Annual Report Variables Requested
581,11,LIVING,AFN Zone Infiltration Air Change Rate [ach] !RunPeriod [Value,Min,Month,Day,Hour,Minute,Max,Month,Day,Hour,Minute]
582,11,ATTIC,AFN Zone Infiltration Air Change Rate [ach] !RunPeriod [Value,Min,Month,Day,Hour,Minute,Max,Month,Day,Hour,Minute]
583,11,CRAWLSPACE,AFN Zone Infiltration Air Change Rate [ach] !RunPeriod [Value,Min,Month,Day,Hour,Minute,Max,Month,Day,Hour,Minute]
1038,11,Facility,Facility Heating Setpoint Not Met Time [hr] !RunPeriod [Value,Min,Month,Day,Hour,Minute,Max,Month,Day,Hour,Minute]
1039,11,Facility,Facility Cooling Setpoint Not Met Time [hr] !RunPeriod [Value,Min,Month,Day,Hour,Minute,Max,Month,Day,Hour,Minute]
1115,11,DX_HEATING_COIL,Heating Coil Heating Energy [J] !RunPeriod [Value,Min,Month,Day,Hour,Minute,Max,Month,Day,Hour,Minute]
1128,11,DX_HEATING_COIL,Heating Coil Electricity Energy [J] !RunPeriod [Value,Min,Month,Day,Hour,Minute,Max,Month,Day,Hour,Minute]
1153,11,DX_HEATING_COIL,Heating Coil Defrost Electricity Energy [J] !RunPeriod [Value,Min,Month,Day,Hour,Minute,Max,Month,Day,Hour,Minute]
1154,11,DX_HEATING_COIL,Heating Coil Crankcase Heater Electricity Energy [J] !RunPeriod [Value,Min,Month,Day,Hour,Minute,Max,Month,Day,Hour,Minute]
1155,11,HEATING_RESISTANCE_BACKUP,Heating Coil Heating Energy [J] !RunPeriod [Value,Min,Month,Day,Hour,Minute,Max,Month,Day,Hour,Minute]
1156,11,HEATING_RESISTANCE_BACKUP,Heating Coil Electricity Energy [J] !RunPeriod [Value,Min,Month,Day,Hour,Minute,Max,Month,Day,Hour,Minute]
1292,11,WATER HEATER,Water Heater Heat Loss Energy [J] !RunPeriod [Value,Min,Month,Day,Hour,Minute,Max,Month,Day,Hour,Minute]
1306,11,WATER HEATER,Water Heater Heating Energy [J] !RunPeriod [Value,Min,Month,Day,Hour,Minute,Max,Month,Day,Hour,Minute]
1307,11,WATER HEATER,Water Heater Unmet Demand Heat Transfer Energy [J] !RunPeriod [Value,Min,Month,Day,Hour,Minute,Max,Month,Day,Hour,Minute]
1308,11,WATER HEATER,Water Heater Electricity Energy [J] !RunPeriod [Value,Min,Month,Day,Hour,Minute,Max,Month,Day,Hour,Minute]
13,11,Electricity:Facility [J] !RunPeriod [Value,Min,Month,Day,Hour,Minute,Max,Month,Day,Hour,Minute]
1134,11,Heating:Electricity [J] !RunPeriod [Value,Min,Month,Day,Hour,Minute,Max,Month,Day,Hour,Minute]
1096,11,Cooling:Electricity [J] !RunPeriod [Value,Min,Month,Day,Hour,Minute,Max,Month,Day,Hour,Minute]
562,11,Fans:Electricity [J] !RunPeriod [Value,Min,Month,Day,Hour,Minute,Max,Month,Day,Hour,Minute]
1379,11,Pumps:Electricity [J] !RunPeriod [Value,Min,Month,Day,Hour,Minute,Max,Month,Day,Hour,Minute]
1326,11,WaterSystems:Electricity [J] !RunPeriod [Value,Min,Month,Day,Hour,Minute,Max,Month,Day,Hour,Minute]
61,11,InteriorLights:Electricity [J] !RunPeriod [Value,Min,Month,Day,Hour,Minute,Max,Month,Day,Hour,Minute]
1046,11,ExteriorLights:Electricity [J] !RunPeriod [Value,Min,Month,Day,Hour,Minute,Max,Month,Day,Hour,Minute]
134,11,InteriorEquipment:Electricity [J] !RunPeriod [Value,Min,Month,Day,Hour,Minute,Max,Month,Day,Hour,Minute]
170,11,gas_dryer:InteriorEquipment:Electricity [J] !RunPeriod [Value,Min,Month,Day,Hour,Minute,Max,Month,Day,Hour,Minute]
207,11,clotheswasher:InteriorEquipment:Electricity [J] !RunPeriod [Value,Min,Month,Day,Hour,Minute,Max,Month,Day,Hour,Minute]
244,11,dishwasher:InteriorEquipment:Electricity [J] !RunPeriod [Value,Min,Month,Day,Hour,Minute,Max,Month,Day,Hour,Minute]
281,11,refrigerator:InteriorEquipment:Electricity [J] !RunPeriod [Value,Min,Month,Day,Hour,Minute,Max,Month,Day,Hour,Minute]
318,11,electric_mels:InteriorEquipment:Electricity [J] !RunPeriod [Value,Min,Month,Day,Hour,Minute,Max,Month,Day,Hour,Minute]
355,11,NaturalGas:Facility [J] !RunPeriod [Value,Min,Month,Day,Hour,Minute,Max,Month,Day,Hour,Minute]
403,11,InteriorEquipment:NaturalGas [J] !RunPeriod [Value,Min,Month,Day,Hour,Minute,Max,Month,Day,Hour,Minute]
476,11,gas_dryer:InteriorEquipment:NaturalGas [J] !RunPeriod [Value,Min,Month,Day,Hour,Minute,Max,Month,Day,Hour,Minute]
513,11,gas_mels:InteriorEquipment:NaturalGas [J] !RunPeriod [Value,Min,Month,Day,Hour,Minute,Max,Month,Day,Hour,Minute]
End of Data Dictionary
1,EXTREME_WINTER,  45.81,-108.54,  -7.00,1088.00
5,7
1038,3.25,0.0, 3, 5, 1,15,0.25, 3, 9, 6,15
1039,0.0,0.0, 3, 5, 1,15,0.0, 3, 5, 1,15
581,0.4609610927178261,0.18858361753206793, 3, 5,21,60,0.7856909348381531, 3, 5,22,48
582,5.567787963565284,0.0, 3, 8, 6, 5,18.47504645937852, 3, 5,14,60
583,0.06493535242366316,0.0007610215581374091, 3, 7,22,60,0.09184839571269837, 3, 6, 2,60
1115,1771121482.719103,0.0, 3, 5,17,30,4368805.836935405, 3, 8,11,15
1128,672361631.8075793,0.0, 3, 5,17,30,1387073.937398275, 3, 6, 6,45
1153,13165258.164269688,0.0, 3, 5,13,20,87327.06470121765, 3, 8,11,60
1154,29559361.9185267,0.0, 3, 5, 6, 5,180000.0, 3, 5,17,30
1155,1119717319.718117,0.0, 3, 5, 1, 3,6163528.46054656, 3,11, 6,15
1156,1119717319.718117,0.0, 3, 5, 1, 3,6163528.46054656, 3,11, 6,15
1292,-25169196.895777278,-39737.036590946336, 3,10, 4,60,-2388.06026569135, 3,11,10,31
1306,280493412.1865171,0.0, 3, 5, 1, 3,4050000.0, 3, 5, 8,45
1307,98856260.01333797,0.0, 3, 5, 1, 3,15433020.523604076, 3, 5, 8,30
1308,280493412.1865171,0.0, 3, 5, 1, 3,4050000.0, 3, 5, 8,45
13,2565268988.728292,452017.0388981225, 3, 7,15,15,11489641.435750067, 3,10, 8,15
61,301924526.02383536,88139.10953165221, 3, 5, 1,15,1282023.4113694867, 3, 5,20,15
134,70666020.44019976,63564.01800854099, 3, 5, 4,15,156554.22484006523, 3,10,20,15
170,5241013.419656067,348.4159749238097, 3, 5, 4,15,17476.39704006126, 3,10,12,15
207,6509451.13922267,815.2532113832032, 3, 5, 3,15,22990.642799023623, 3,10,10,15
244,12749673.399825225,1521.856143006317, 3, 5, 4,15,53038.631142310165, 3,10,20,15
281,46165882.481495745,59938.60262432081, 3, 5, 5,15,81951.81706819107, 3, 5,19,15
318,0.0,0.0, 3, 5, 1,15,0.0, 3, 5, 1,15
355,197687796.27748066,18561.32405820678, 3, 5, 4,15,724774.895203776, 3,10,18,15
403,197687796.27748066,18561.32405820678, 3, 5, 4,15,724774.895203776, 3,10,18,15
476,106772067.24485716,7098.072629279515, 3, 5, 4,15,356036.3026282215, 3,10,12,15
513,0.0,0.0, 3, 5, 1,15,0.0, 3, 5, 1,15
562,77369284.47211976,0.0, 3, 5,17,30,152581.85514599874, 3, 6, 1,30
1046,0.0,0.0, 3, 5, 1,15,0.0, 3, 5, 1,15
1096,12173.997127793478,0.0, 3, 5, 1,15,7309.883144133697, 3, 7,18,15
1134,1834803571.6084945,178474.56981772365, 3, 7,18,15,7419695.832591583, 3,10, 6,15
1326,280493412.18651706,0.0, 3, 5, 1,15,4050000.0, 3, 5, 8,45
1379,0.0,0.0, 3, 5, 1,15,0.0, 3, 5, 1,15
1,EXTREME_SUMMER,  45.81,-108.54,  -7.00,1088.00
5,7
1038,0.0,0.0, 7, 8, 1,15,0.0, 7, 8, 1,15
1039,3.25,0.0, 7, 8, 1,15,0.25, 7,10,17,45
581,0.19442432593529432,0.0, 7,11, 6, 7,0.5548581659642402, 7,11, 7,52
582,4.267157189942573,0.043859156379305674, 7,13, 4,40,12.847205263650194, 7,13,16,47
583,0.035280275150941204,0.000053616431139213235, 7,11, 6, 7,0.07637551222382977, 7,13,18, 5
1115,0.0,0.0, 7, 8, 1, 7,0.0, 7, 8, 1, 7
1128,0.0,0.0, 7, 8, 1, 7,0.0, 7, 8, 1, 7
1153,0.0,0.0, 7, 8, 1, 7,0.0, 7, 8, 1, 7
1154,0.0,0.0, 7, 8, 1, 7,0.0, 7, 8, 1, 7
1155,0.0,0.0, 7, 8, 1, 7,0.0, 7, 8, 1, 7
1156,0.0,0.0, 7, 8, 1, 7,0.0, 7, 8, 1, 7
1292,-22054711.279239837,-34337.46219999667, 7,11,16,60,-2831.2431665733025, 7, 8, 8,32
1306,223645655.73335066,0.0, 7, 8, 1, 7,4050000.0, 7, 9,14,30
1307,63434132.07362855,0.0, 7, 8, 1, 7,2897582.169999255, 7, 9, 7,15
1308,223645655.73335066,0.0, 7, 8, 1, 7,4050000.0, 7, 9,14,30
13,1054240943.3554677,151703.1275401932, 7, 8, 4,30,6488076.553132582, 7,10,17,30
61,301924526.02383536,88139.10953165221, 7, 8, 1,15,1282023.4113694867, 7, 8,20,15
134,70666020.44019976,63564.01800854099, 7, 8, 4,15,156554.22484006523, 7,13,20,15
170,5241013.419656067,348.4159749238097, 7, 8, 4,15,17476.39704006126, 7,13,12,15
207,6509451.13922267,815.2532113832032, 7, 8, 3,15,22990.642799023623, 7,13,10,15
244,12749673.399825225,1521.856143006317, 7, 8, 4,15,53038.631142310165, 7,13,20,15
281,46165882.481495745,59938.60262432081, 7, 8, 5,15,81951.81706819107, 7, 8,19,15
318,0.0,0.0, 7, 8, 1,15,0.0, 7, 8, 1,15
355,197687796.27748066,18561.32405820678, 7, 8, 4,15,724774.895203776, 7,13,18,15
403,197687796.27748066,18561.32405820678, 7, 8, 4,15,724774.895203776, 7,13,18,15
476,106772067.24485716,7098.072629279515, 7, 8, 4,15,356036.3026282215, 7,13,12,15
513,0.0,0.0, 7, 8, 1,15,0.0, 7, 8, 1,15
562,46333341.35247584,0.0, 7, 8, 4,30,152581.85514599874, 7,10,16,15
1046,0.0,0.0, 7, 8, 1,15,0.0, 7, 8, 1,15
1096,411671399.8056069,0.0, 7, 8, 4,30,1560152.0508853951, 7,10,18,60
1134,0.0,0.0, 7, 8, 1,15,0.0, 7, 8, 1,15
1326,223645655.73335063,0.0, 7, 8, 1,15,4050000.0, 7, 8, 8,45
1379,0.0,0.0, 7, 8, 1,15,0.0, 7, 8, 1,15
1,ANNUAL,  45.81,-108.54,  -7.00,1088.00
5,365
1038,10.25,0.0, 1, 1, 1,15,0.25, 1,10, 6,15
1039,100.5,0.0, 1, 1, 1,15,0.25, 5, 1,11,60
581,0.3306773757392133,0.0, 7,11, 6, 7,1.3082875196061825, 2,25,17,60
582,5.8702462869319225,0.0, 1,18, 5,60,33.13014602516895, 6,11,16,46
583,0.0321445457592326,0.00003549317607061857, 5, 1, 8, 8,0.09808306255536382, 1, 1, 4,60
1115,34847784574.032326,0.0, 1, 1,23, 5,5200956.897224499, 1,13, 6,45
1128,11498517920.590282,0.0, 1, 1,23, 5,1516403.5730394397, 1,13, 6,45
1153,303228684.520103,0.0, 1, 1,23, 5,116782.2323007426, 3,17, 6,60
1154,1935045324.5728207,0.0, 1, 1, 1,15,180000.0, 1, 5,15,60
1155,7309420956.560161,0.0, 1, 1,11,60,6163528.46054656, 3,11, 4,45
1156,7309420956.560161,0.0, 1, 1,11,60,6163528.46054656, 3,11, 4,45
1292,-1240142953.224012,-39882.84505359166, 3, 2, 3,15,-1992.9977907140287, 5, 1, 8,31
1306,13103770195.527073,0.0, 1, 1, 1,15,4050000.0, 1, 1, 9,45
1307,4166806588.9854937,0.0, 1, 1, 1,15,15553137.164503582, 2,13, 8,30
1308,13103770195.527073,0.0, 1, 1, 1,15,4050000.0, 1, 1, 9,45
13,61872920096.91489,151703.1275401932, 4,20, 4,15,12066019.239907855, 3,11, 8,15
61,15743207428.383959,88139.10953165221, 1, 1, 1,15,1282023.4113694867, 1, 1,20,15
134,3685071073.4325233,63564.01800854099, 1, 2, 4,15,156554.22484006523, 1, 1,20,15
170,273393721.45532674,348.4159749238097, 1, 2, 4,15,17476.39704006126, 1, 1,12,15
207,339560869.0695816,815.2532113832032, 1, 2, 3,15,22990.642799023623, 1, 1,10,15
244,664895467.8009144,1521.856143006317, 1, 2, 4,15,53038.631142310165, 1, 1,20,15
281,2407221015.106824,59938.60262432081, 1, 1, 5,15,81951.81706819107, 1, 1,19,15
318,0.0,0.0, 1, 1, 1,15,0.0, 1, 1, 1,15
355,10310294493.051695,18561.32405820678, 1, 2, 4,15,724774.895203776, 1, 1,18,15
403,10310294493.051695,18561.32405820678, 1, 2, 4,15,724774.895203776, 1, 1,18,15
476,5569688622.066177,7098.072629279515, 1, 2, 4,15,356036.3026282215, 1, 1,12,15
513,0.0,0.0, 1, 1, 1,15,0.0, 1, 1, 1,15
562,1995775264.599226,0.0, 1, 5,15,60,152581.85514599874, 1, 1, 1,15
1046,0.0,0.0, 1, 1, 1,15,0.0, 1, 1, 1,15
1096,6298883248.727156,0.0, 1, 1, 1,15,1741531.028517063, 8,21,16,15
1134,21046212886.24325,0.0, 1,27,14,30,7459141.566270703, 3,12, 7,30
1326,13103770195.527052,0.0, 1, 1, 1,15,4050000.0, 1, 1, 9,45
1379,0.0,0.0, 1, 1, 1,15,0.0, 1, 1, 1,15
End of Data
 Number of Records Written=          99
