Program Version,EnergyPlus, Version 22.2.0-c249759bad, YMD=2023.07.07 15:18
1,5,Environment Title[],Latitude[deg],Longitude[deg],Time Zone[],Elevation[m]
2,8,Day of Simulation[],Month[],Day of Month[],DST Indicator[1=yes 0=no],Hour[],StartMinute[],EndMinute[],DayType
3,5,Cumulative Day of Simulation[],Month[],Day of Month[],DST Indicator[1=yes 0=no],DayType  ! When Daily Report Variables Requested
4,2,Cumulative Days of Simulation[],Month[]  ! When Monthly Report Variables Requested
5,1,Cumulative Days of Simulation[] ! When Run Period Report Variables Requested
6,1,Calendar Year of Simulation[] ! When Annual Report Variables Requested
581,11,LIVING,AFN Zone Infiltration Air Change Rate [ach] !RunPeriod [Value,Min,Month,Day,Hour,Minute,Max,Month,Day,Hour,Minute]
582,11,ATTIC,AFN Zone Infiltration Air Change Rate [ach] !RunPeriod [Value,Min,Month,Day,Hour,Minute,Max,Month,Day,Hour,Minute]
583,11,CRAWLSPACE,AFN Zone Infiltration Air Change Rate [ach] !RunPeriod [Value,Min,Month,Day,Hour,Minute,Max,Month,Day,Hour,Minute]
1038,11,Facility,Facility Heating Setpoint Not Met Time [hr] !RunPeriod [Value,Min,Month,Day,Hour,Minute,Max,Month,Day,Hour,Minute]
1039,11,Facility,Facility Cooling Setpoint Not Met Time [hr] !RunPeriod [Value,Min,Month,Day,Hour,Minute,Max,Month,Day,Hour,Minute]
1115,11,DX_HEATING_COIL,Heating Coil Heating Energy [J] !RunPeriod [Value,Min,Month,Day,Hour,Minute,Max,Month,Day,Hour,Minute]
1128,11,DX_HEATING_COIL,Heating Coil Electricity Energy [J] !RunPeriod [Value,Min,Month,Day,Hour,Minute,Max,Month,Day,Hour,Minute]
1153,11,DX_HEATING_COIL,Heating Coil Defrost Electricity Energy [J] !RunPeriod [Value,Min,Month,Day,Hour,Minute,Max,Month,Day,Hour,Minute]
1154,11,DX_HEATING_COIL,Heating Coil Crankcase Heater Electricity Energy [J] !RunPeriod [Value,Min,Month,Day,Hour,Minute,Max,Month,Day,Hour,Minute]
1156,11,HEATING_RESISTANCE_BACKUP,Heating Coil Electricity Energy [J] !RunPeriod [Value,Min,Month,Day,Hour,Minute,Max,Month,Day,Hour,Minute]
13,11,Electricity:Facility [J] !RunPeriod [Value,Min,Month,Day,Hour,Minute,Max,Month,Day,Hour,Minute]
1134,11,Heating:Electricity [J] !RunPeriod [Value,Min,Month,Day,Hour,Minute,Max,Month,Day,Hour,Minute]
1096,11,Cooling:Electricity [J] !RunPeriod [Value,Min,Month,Day,Hour,Minute,Max,Month,Day,Hour,Minute]
562,11,Fans:Electricity [J] !RunPeriod [Value,Min,Month,Day,Hour,Minute,Max,Month,Day,Hour,Minute]
1388,11,Pumps:Electricity [J] !RunPeriod [Value,Min,Month,Day,Hour,Minute,Max,Month,Day,Hour,Minute]
1360,11,WaterSystems:Electricity [J] !RunPeriod [Value,Min,Month,Day,Hour,Minute,Max,Month,Day,Hour,Minute]
61,11,InteriorLights:Electricity [J] !RunPeriod [Value,Min,Month,Day,Hour,Minute,Max,Month,Day,Hour,Minute]
1046,11,ExteriorLights:Electricity [J] !RunPeriod [Value,Min,Month,Day,Hour,Minute,Max,Month,Day,Hour,Minute]
134,11,InteriorEquipment:Electricity [J] !RunPeriod [Value,Min,Month,Day,Hour,Minute,Max,Month,Day,Hour,Minute]
170,11,gas_dryer:InteriorEquipment:Electricity [J] !RunPeriod [Value,Min,Month,Day,Hour,Minute,Max,Month,Day,Hour,Minute]
207,11,clotheswasher:InteriorEquipment:Electricity [J] !RunPeriod [Value,Min,Month,Day,Hour,Minute,Max,Month,Day,Hour,Minute]
244,11,dishwasher:InteriorEquipment:Electricity [J] !RunPeriod [Value,Min,Month,Day,Hour,Minute,Max,Month,Day,Hour,Minute]
281,11,refrigerator:InteriorEquipment:Electricity [J] !RunPeriod [Value,Min,Month,Day,Hour,Minute,Max,Month,Day,Hour,Minute]
318,11,electric_mels:InteriorEquipment:Electricity [J] !RunPeriod [Value,Min,Month,Day,Hour,Minute,Max,Month,Day,Hour,Minute]
355,11,NaturalGas:Facility [J] !RunPeriod [Value,Min,Month,Day,Hour,Minute,Max,Month,Day,Hour,Minute]
1323,11,WaterSystems:NaturalGas [J] !RunPeriod [Value,Min,Month,Day,Hour,Minute,Max,Month,Day,Hour,Minute]
403,11,InteriorEquipment:NaturalGas [J] !RunPeriod [Value,Min,Month,Day,Hour,Minute,Max,Month,Day,Hour,Minute]
476,11,gas_dryer:InteriorEquipment:NaturalGas [J] !RunPeriod [Value,Min,Month,Day,Hour,Minute,Max,Month,Day,Hour,Minute]
513,11,gas_mels:InteriorEquipment:NaturalGas [J] !RunPeriod [Value,Min,Month,Day,Hour,Minute,Max,Month,Day,Hour,Minute]
End of Data Dictionary
1,EXTREME_WINTER,  44.88, -93.22,  -6.00, 255.00
5,7
1038,8.833333333333334,0.0, 2, 5, 1,10,0.16666666666666666, 2, 8, 6,10
1039,0.0,0.0, 2, 5, 1,10,0.0, 2, 5, 1,10
581,0.3438062220518541,0.21309133016964665, 2, 5,24,10,0.611662051196872, 2, 8,17,56
582,3.614193038419433,0.0, 2, 5, 4,60,11.287409513502384, 2, 9,16,53
583,4.55395901452949,0.0003263782093227653, 2, 5,23, 7,14.129292719356851, 2, 8,17,53
1115,1996026756.8530324,0.0, 2, 5,23, 2,2908429.271255276, 2, 6, 7,10
1128,754127426.5099782,0.0, 2, 5,23, 2,899458.4691219907, 2, 6, 6,60
1153,10874592.033346968,0.0, 2, 5,23, 2,46825.03666954577, 2, 6, 4,60
1154,11756800.067323651,0.0, 2, 5, 4,60,87459.40272715095, 2, 5,23,30
1156,1579597641.8736532,0.0, 2, 5, 1,10,4626172.202326901, 2, 8, 5,60
13,2823962341.8170533,570768.3685352699, 2, 5,23,10,5976470.757620536, 2, 9, 7,60
61,301924526.0238348,58759.40635443481, 2, 5, 1,10,854682.2742463244, 2, 5,20,10
134,70666020.44019979,42376.01200569399, 2, 5, 4,10,104369.48322671017, 2,10,20,10
170,5241013.419656074,232.27731661587313, 2, 5, 4,10,11650.931360040839, 2,10,12,10
207,6509451.13922266,543.5021409221355, 2, 5, 3,10,15327.095199349082, 2,10,10,10
244,12749673.39982522,1014.5707620042115, 2, 5, 4,10,35359.08742820678, 2,10,20,10
281,46165882.48149605,39959.06841621388, 2, 5, 5,10,54634.54471212738, 2, 5,19,10
318,0.0,0.0, 2, 5, 1,10,0.0, 2, 5, 1,10
355,743444921.6680573,12374.216038804521, 2, 5, 4,10,3829218.154066982, 2, 6,18,60
403,197687796.27748126,12374.216038804521, 2, 5, 4,10,483183.26346918393, 2,10,18,10
476,106772067.24485692,4732.048419519677, 2, 5, 4,10,237357.535085481, 2,10,12,10
513,0.0,0.0, 2, 5, 1,10,0.0, 2, 5, 1,10
562,89995494.86871769,1585.4449762873298, 2, 5,23,10,99103.50088554053, 2,10,11,10
1046,0.0,0.0, 2, 5, 1,10,0.0, 2, 5, 1,10
1096,0.0,0.0, 2, 5, 1,10,0.0, 2, 5, 1,10
1134,2356356460.4843035,132973.27676418633, 2, 5,23,10,5414819.712694601, 2,11, 6,30
1323,545757125.3905729,0.0, 2, 5, 1,10,3375000.0000000005, 2, 5,16,60
1360,5019840.0,4979.999999999999, 2, 8, 9,40,4980.000000000001, 2, 5, 1,50
1388,0.0,0.0, 2, 5, 1,10,0.0, 2, 5, 1,10
1,EXTREME_SUMMER,  44.88, -93.22,  -6.00, 255.00
5,7
1038,0.0,0.0, 7,22, 1,10,0.0, 7,22, 1,10
1039,31.999999999999996,0.0, 7,22, 1,10,0.16666666666666666, 7,22,14,20
581,0.12987503028678068,0.0, 7,22, 1,10,0.8925372996149286, 7,22, 4,60
582,4.072291277114827,0.0, 7,23, 6, 2,17.794704945159882, 7,22, 4,60
583,4.74795805640244,0.07278913915945952, 7,26, 5,55,22.371287616790887, 7,22, 4,50
1115,0.0,0.0, 7,22, 1,10,0.0, 7,22, 1,10
1128,0.0,0.0, 7,22, 1,10,0.0, 7,22, 1,10
1153,0.0,0.0, 7,22, 1,10,0.0, 7,22, 1,10
1154,0.0,0.0, 7,22, 1,10,0.0, 7,22, 1,10
1156,0.0,0.0, 7,22, 1,10,0.0, 7,22, 1,10
13,994448471.6280856,173350.5824948883, 7,26, 4,60,2089013.6721095338, 7,23,20,10
61,301924526.0238348,58759.40635443481, 7,22, 1,10,854682.2742463244, 7,22,20,10
134,70666020.44019979,42376.01200569399, 7,22, 4,10,104369.48322671017, 7,27,20,10
170,5241013.419656074,232.27731661587313, 7,22, 4,10,11650.931360040839, 7,27,12,10
207,6509451.13922266,543.5021409221355, 7,22, 3,10,15327.095199349082, 7,27,10,10
244,12749673.39982522,1014.5707620042115, 7,22, 4,10,35359.08742820678, 7,27,20,10
281,46165882.48149605,39959.06841621388, 7,22, 5,10,54634.54471212738, 7,22,19,10
318,0.0,0.0, 7,22, 1,10,0.0, 7,22, 1,10
355,635694703.440725,12374.216038804521, 7,22, 4,10,3829218.154066982, 7,23,18,60
403,197687796.27748126,12374.216038804521, 7,22, 4,10,483183.26346918393, 7,27,18,10
476,106772067.24485692,4732.048419519677, 7,22, 4,10,237357.535085481, 7,27,12,10
513,0.0,0.0, 7,22, 1,10,0.0, 7,22, 1,10
562,59703163.31940204,496.1337884460754, 7,28,23,10,99103.50088554053, 7,22,20,30
1046,0.0,0.0, 7,22, 1,10,0.0, 7,22, 1,10
1096,557134921.8446488,4043.7647599998854, 7,28,23,10,1078993.0338935675, 7,23,17,60
1134,0.0,0.0, 7,22, 1,10,0.0, 7,22, 1,10
1323,438006907.1632423,0.0, 7,22, 1,10,3375000.0000000005, 7,24, 9,60
1360,5019840.0,4979.999999999999, 7,24, 8,50,4980.000000000001, 7,22, 8,40
1388,0.0,0.0, 7,22, 1,10,0.0, 7,22, 1,10
1,ANNUAL,  44.88, -93.22,  -6.00, 255.00
5,365
1038,94.33333333333341,0.0, 1, 1, 1,10,0.16666666666666666, 1, 1, 6,10
1039,203.83333333333323,0.0, 1, 1, 1,10,0.16666666666666666, 4,19,12,50
581,0.26650408436217404,0.0, 6,21,24,60,1.79926856228005, 6,14,13,60
582,4.910203706042618,0.0, 1, 5, 5,55,34.613967302301894, 6,14,13,60
583,5.670688800163322,0.0, 8, 8,23, 2,38.885544500216454, 6,14,14,10
1115,39146320331.948524,0.0, 1, 1,23, 2,3330697.962639721,10,28, 6,20
1128,12967034481.894613,0.0, 1, 1,23, 2,952497.4841816918,10,28, 6,20
1153,336339901.1485369,0.0, 1, 1,23, 2,95862.64750508108, 1,11, 6,30
1154,1383001897.4444065,0.0, 1, 1, 1, 1,120000.0, 1, 4,15,10
1156,18522015816.08991,0.0, 1, 1,23, 2,4626172.202326901, 1,21, 1,50
13,63169538317.92724,106115.4183601288, 4, 3, 4,10,6359294.639573524,12,19,20,20
61,15743207428.39043,58759.40635443481, 1, 1, 1,10,854682.2742463244, 1, 1,20,10
134,3685071073.433083,42376.01200569399, 1, 2, 4,10,104369.48322671017, 1, 1,20,10
170,273393721.45534325,232.27731661587313, 1, 2, 4,10,11650.931360040839, 1, 1,12,10
207,339560869.06955314,543.5021409221355, 1, 2, 3,10,15327.095199349082, 1, 1,10,10
244,664895467.8009839,1014.5707620042115, 1, 2, 4,10,35359.08742820678, 1, 1,20,10
281,2407221015.1057043,39959.06841621388, 1, 1, 5,10,54634.54471212738, 1, 1,19,10
318,0.0,0.0, 1, 1, 1,10,0.0, 1, 1, 1,10
355,35767955379.298996,12374.216038804521, 1, 2, 4,10,3829218.1540669827, 2, 3,18,30
403,10310294493.052883,12374.216038804521, 1, 2, 4,10,483183.26346918393, 1, 1,18,10
476,5569688622.065564,4732.048419519677, 1, 2, 4,10,237357.535085481, 1, 1,12,10
513,0.0,0.0, 1, 1, 1,10,0.0, 1, 1, 1,10
562,2406062521.8098726,0.0, 1, 4,15,10,99103.50088554053, 1, 5, 6,40
1046,0.0,0.0, 1, 1, 1,10,0.0, 1, 1, 1,10
1096,7865056397.721574,0.0, 1, 1, 1,10,1080821.0817514125, 7,23,17,60
1134,33208392096.577633,0.0, 2,16,14,50,5451723.561190582,12,18, 6,10
1323,25457660886.25005,0.0, 1, 1, 1,10,3375000.0000000023,10,31,20,30
1360,261748800.0,4979.999999999999, 3,10,20,50,4980.000000000002, 2, 6,21,20
1388,0.0,0.0, 1, 1, 1,10,0.0, 1, 1, 1,10
End of Data
 Number of Records Written=          87
