Program Version,EnergyPlus, Version 22.2.0-c249759bad, YMD=2023.09.01 14:31
1,5,Environment Title[],Latitude[deg],Longitude[deg],Time Zone[],Elevation[m]
2,8,Day of Simulation[],Month[],Day of Month[],DST Indicator[1=yes 0=no],Hour[],StartMinute[],EndMinute[],DayType
3,5,Cumulative Day of Simulation[],Month[],Day of Month[],DST Indicator[1=yes 0=no],DayType  ! When Daily Report Variables Requested
4,2,Cumulative Days of Simulation[],Month[]  ! When Monthly Report Variables Requested
5,1,Cumulative Days of Simulation[] ! When Run Period Report Variables Requested
6,1,Calendar Year of Simulation[] ! When Annual Report Variables Requested
7,1,Environment,Site Outdoor Air Drybulb Temperature [C] !Hourly
545,1,LIVING,Zone Mean Air Temperature [C] !Hourly
546,1,ATTIC,Zone Mean Air Temperature [C] !Hourly
547,1,CRAWLSPACE,Zone Mean Air Temperature [C] !Hourly
548,1,FAN,Fan Electricity Rate [W] !Hourly
720,1,LIVING,Zone Predicted Sensible Load to Heating Setpoint Heat Transfer Rate [W] !Hourly
721,1,LIVING,Zone System Predicted Sensible Load to Heating Setpoint Heat Transfer Rate [W] !Hourly
784,1,ATTIC,Zone Predicted Sensible Load to Heating Setpoint Heat Transfer Rate [W] !Hourly
785,1,ATTIC,Zone System Predicted Sensible Load to Heating Setpoint Heat Transfer Rate [W] !Hourly
848,1,CRAWLSPACE,Zone Predicted Sensible Load to Heating Setpoint Heat Transfer Rate [W] !Hourly
849,1,CRAWLSPACE,Zone System Predicted Sensible Load to Heating Setpoint Heat Transfer Rate [W] !Hourly
1121,1,DX_HEATING_COIL,Heating Coil Heating Rate [W] !Hourly
1135,1,DX_HEATING_COIL,Heating Coil Electricity Rate [W] !Hourly
1161,1,DX_HEATING_COIL,Heating Coil Defrost Electricity Rate [W] !Hourly
1163,1,DX_HEATING_COIL,Heating Coil Crankcase Heater Electricity Rate [W] !Hourly
1166,1,HEATING_RESISTANCE_BACKUP,Heating Coil Heating Rate [W] !Hourly
1168,1,HEATING_RESISTANCE_BACKUP,Heating Coil Electricity Rate [W] !Hourly
End of Data Dictionary
1,EXTREME_WINTER,  41.78, -87.75,  -6.00, 190.00
2,1, 1,20, 0, 1, 0.00,60.00,Monday
7,-19.4
545,18.586429846988192
546,-10.340753359334672
547,17.222081191997578
548,149.69985472048234
720,5119.714508281257
721,5119.714508281257
784,0.0
785,0.0
848,0.0
849,0.0
1121,3060.346906336469
1135,1376.1783266955488
1161,0.08546670208471982
1163,0.0
1166,4176.678516767286
1168,4176.678516767286
2,1, 1,20, 0, 2, 0.00,60.00,Monday
7,-19.4
545,18.54840178687862
546,-11.565923113962857
547,16.691454834543638
548,149.69985472048234
720,5522.758097277776
721,5522.758097277776
784,0.0
785,0.0
848,0.0
849,0.0
1121,3063.0699846679736
1135,1373.7150432192939
1161,0.08540882499389904
1163,0.0
1166,4808.583991250414
1168,4808.583991250414
2,1, 1,20, 0, 3, 0.00,60.00,Monday
7,-19.4
545,18.544861871627283
546,-12.328095017735176
547,16.43248940049375
548,149.69985472048234
720,5800.781895351758
721,5800.781895351758
784,0.0
785,0.0
848,0.0
849,0.0
1121,3064.657400564261
1135,1372.2769023136298
1161,0.08536716801320025
1163,0.0
1166,5233.8768404176735
1168,5233.8768404176735
2,1, 1,20, 0, 4, 0.00,60.00,Monday
7,-19.4
545,18.54667059681956
546,-12.615930223487643
547,16.133732127416646
548,149.69985472048234
720,6008.265836758957
721,6008.265836758957
784,0.0
785,0.0
848,0.0
849,0.0
1121,3065.069306041759
1135,1371.9034284600427
1161,0.08536716801320025
1163,0.0
1166,5536.522485153826
1168,5536.522485153826
2,1, 1,20, 0, 5, 0.00,60.00,Monday
7,-20.0
545,18.548565540866033
546,-12.959283365985575
547,15.865572138088899
548,149.69985472048234
720,6180.596641061376
721,6180.596641061376
784,0.0
785,0.0
848,0.0
849,0.0
1121,2996.974150280426
1135,1359.597613933264
1161,1.8881955647086603
1163,0.0
1166,5838.399945400335
1168,5838.399945400335
2,1, 1,20, 0, 6, 0.00,60.00,Monday
7,-20.0
545,19.31177773517026
546,-12.785475679650839
547,15.61393924621493
548,149.69985472048234
720,7330.081485524221
721,7330.081485524221
784,0.0
785,0.0
848,0.0
849,0.0
1121,2997.270098621356
1135,1359.3376723736862
1161,1.8871079415637124
1163,0.0
1166,7195.368153482306
1168,7195.368153482306
2,1, 1,20, 0, 7, 0.00,60.00,Monday
7,-20.0
545,19.557898716461185
546,-12.475505204668918
547,15.404523411825505
548,149.69985472048234
720,7115.1084652341
721,7115.1084652341
784,0.0
785,0.0
848,0.0
849,0.0
1121,2975.061472872826
1135,1373.694861153587
1161,3.4351974793285724
1163,0.0
1166,7055.150266395475
1168,7055.150266395475
2,1, 1,20, 0, 8, 0.00,60.00,Monday
7,-20.0
545,19.63054899629228
546,-13.598420231034506
547,15.177474251449722
548,149.69985472048234
720,7008.39210451012
721,7008.39210451012
784,0.0
785,0.0
848,0.0
849,0.0
1121,2969.3302441789965
1135,1378.7342720694412
1161,3.430878337768967
1163,0.0
1166,6954.388950403298
1168,6954.388950403298
2,1, 1,20, 0, 9, 0.00,60.00,Monday
7,-18.9
545,19.670417718755537
546,-12.102503951218528
547,14.976095556602656
548,149.69985472048234
720,6060.525064107571
721,6060.525064107571
784,0.0
785,0.0
848,0.0
849,0.0
1121,3081.078824703993
1135,1397.174774121072
1161,4.909826832224064
1163,0.0
1166,5811.222219207502
1168,5811.222219207502
2,1, 1,20, 0,10, 0.00,60.00,Monday
7,-18.9
545,19.698195766048556
546,-10.637730253372453
547,14.777292088572706
548,149.69985472048234
720,5277.9649863448285
721,5277.9649863448285
784,0.0
785,0.0
848,0.0
849,0.0
1121,3080.366362796269
1135,1397.818889892217
1161,4.909826832224064
1163,0.0
1166,4830.584607039901
1168,4830.584607039901
2,1, 1,20, 0,11, 0.00,60.00,Monday
7,-16.1
545,19.695881342900428
546,-9.476368049782986
547,14.621218679271847
548,149.69985472048234
720,5283.470024699014
721,5283.470024699014
784,0.0
785,0.0
848,0.0
849,0.0
1121,3403.956646610536
1135,1449.9618762373773
1161,0.08123394793424579
1163,0.0
1166,4423.793859702974
1168,4423.793859702974
2,1, 1,20, 0,12, 0.00,60.00,Monday
7,-14.4
545,19.742323448649778
546,-5.669345807576493
547,14.491924472106481
548,149.69985472048234
720,3517.026418550595
721,3517.026418550595
784,0.0
785,0.0
848,0.0
849,0.0
1121,3601.7721091044073
1135,1476.1475238179387
1161,0.08123394793424579
1163,0.0
1166,2117.3411891533365
1168,2117.3411891533365
2,1, 1,20, 0,13, 0.00,60.00,Monday
7,-13.3
545,19.751705826349188
546,-5.329015911947776
547,14.381540955553454
548,149.69985472048234
720,3187.83418809843
721,3187.83418809843
784,0.0
785,0.0
848,0.0
849,0.0
1121,3732.085411344843
1135,1493.727635891626
1161,0.08123394793424579
1163,0.0
1166,1382.1161278831414
1168,1382.1161278831414
2,1, 1,20, 0,14, 0.00,60.00,Monday
7,-12.8
545,19.734581160836324
546,-5.23906545675674
547,14.292610553959356
548,149.69985472048234
720,3049.0298141354524
721,3049.0298141354524
784,0.0
785,0.0
848,0.0
849,0.0
1121,3792.600810753466
1135,1501.2024696119877
1161,0.08123394793424579
1163,0.0
1166,1107.1282864605569
1168,1107.1282864605569
2,1, 1,20, 0,15, 0.00,60.00,Monday
7,-12.2
545,19.79393903658034
546,-3.541752591142347
547,14.231994051512306
548,144.18302621962764
720,2029.428736287222
721,2029.428736287222
784,0.0
785,0.0
848,0.0
849,0.0
1121,3707.1658266006525
1135,1453.880702248528
1161,0.07824235532047712
1163,7.365375412235786
1166,0.0
1168,0.0
2,1, 1,20, 0,16, 0.00,60.00,Monday
7,-12.2
545,19.836238922522362
546,-4.594147277222776
547,14.180951187140316
548,132.78145293956726
720,1897.9064395282312
721,1897.9064395282312
784,0.0
785,0.0
848,0.0
849,0.0
1121,3380.988042651917
1135,1340.3428068486523
1161,0.072055178771163
1163,22.598357943928747
1166,0.0
1168,0.0
2,1, 1,20, 0,17, 0.00,60.00,Monday
7,-13.3
545,19.69255031805553
546,-5.616533609073942
547,14.14345799643542
548,149.69985472048234
720,2367.854195455284
721,2367.854195455284
784,0.0
785,0.0
848,0.0
849,0.0
1121,3730.0961147375806
1135,1495.7929076815267
1161,0.08123394793424579
1163,0.0
1166,289.096111374909
1168,289.096111374909
2,1, 1,20, 0,18, 0.00,60.00,Monday
7,-13.9
545,19.68291314889724
546,-6.388727300182383
547,14.091414340757677
548,149.69985472048234
720,3034.8798103562367
721,3034.8798103562367
784,0.0
785,0.0
848,0.0
849,0.0
1121,3661.860999444645
1135,1482.9588158844579
1161,0.08123394793424579
1163,0.0
1166,1189.5836781320543
1168,1189.5836781320543
2,1, 1,20, 0,19, 0.00,60.00,Monday
7,-13.9
545,19.689243613351046
546,-7.612930771716549
547,14.032755267355393
548,149.69985472048234
720,3223.555507399651
721,3223.555507399651
784,0.0
785,0.0
848,0.0
849,0.0
1121,3662.1800419912265
1135,1482.6312982726356
1161,0.08123394793424579
1163,0.0
1166,1469.6561565190605
1168,1469.6561565190605
2,1, 1,20, 0,20, 0.00,60.00,Monday
7,-13.9
545,19.68883058474761
546,-8.029840566522683
547,13.953291480977212
548,149.69985472048234
720,3440.415217862166
721,3440.415217862166
784,0.0
785,0.0
848,0.0
849,0.0
1121,3662.1061782392176
1135,1482.7071277758037
1161,0.08123394793424579
1163,0.0
1166,1794.2492819507665
1168,1794.2492819507665
2,1, 1,20, 0,21, 0.00,60.00,Monday
7,-13.3
545,19.696003352072562
546,-7.669134537537016
547,13.866194164737689
548,149.69985472048234
720,3495.9318228077027
721,3495.9318228077027
784,0.0
785,0.0
848,0.0
849,0.0
1121,3734.1838824332535
1135,1491.5474168320475
1161,0.08123394793424579
1163,0.0
1166,1823.7291018945302
1168,1823.7291018945302
2,1, 1,20, 0,22, 0.00,60.00,Monday
7,-13.3
545,19.695410948875566
546,-7.586415760589772
547,13.76361779169538
548,149.69985472048234
720,3838.9383727281274
721,3838.9383727281274
784,0.0
785,0.0
848,0.0
849,0.0
1121,3734.123635496923
1135,1491.6100336082682
1161,0.08123394793424579
1163,0.0
1166,2211.9820988129554
1168,2211.9820988129554
2,1, 1,20, 0,23, 0.00,60.00,Monday
7,-12.8
545,18.95833574254189
546,-6.9307979022175585
547,13.660888317663048
548,149.69985472048234
720,3007.740127698851
721,3007.740127698851
784,0.0
785,0.0
848,0.0
849,0.0
1121,3794.8613810592105
1135,1498.8306110202416
1161,0.08123394793424579
1163,0.0
1166,1197.050093152266
1168,1197.050093152266
2,1, 1,20, 0,24, 0.00,60.00,Monday
7,-12.8
545,18.71169779097253
546,-7.170842816318681
547,13.51541261238542
548,149.69985472048234
720,3607.2545857359764
721,3607.2545857359764
784,0.0
785,0.0
848,0.0
849,0.0
1121,3813.813484839286
1135,1478.8769756679797
1161,0.08123394793424579
1163,0.0
1166,1767.9069818999837
1168,1767.9069818999837
2,2, 1,21, 0, 1, 0.00,60.00,Tuesday
7,-12.2
545,18.623974636947814
546,-6.301130391425876
547,13.401042286005444
548,149.69985472048234
720,3981.9010482949616
721,3981.9010482949616
784,0.0
785,0.0
848,0.0
849,0.0
1121,3893.782329780161
1135,1480.4432996513403
1161,0.08123394793424579
1163,0.0
1166,2117.2106828822093
1168,2117.2106828822093
2,2, 1,21, 0, 2, 0.00,60.00,Tuesday
7,-12.2
545,18.595762143867713
546,-6.5877916885583625
547,13.278511337609093
548,149.69985472048234
720,4417.629238952248
721,4417.629238952248
784,0.0
785,0.0
848,0.0
849,0.0
1121,3896.1692344266535
1135,1477.8903727362485
1161,0.08123394793424579
1163,0.0
1166,2582.327231782704
1168,2582.327231782704
2,2, 1,21, 0, 3, 0.00,60.00,Tuesday
7,-12.2
545,18.585527008624076
546,-5.828272950846473
547,13.163234824075246
548,149.69985472048234
720,4594.889591398012
721,4594.889591398012
784,0.0
785,0.0
848,0.0
849,0.0
1121,3897.047762523533
1135,1476.9503292174659
1161,0.08123394793424579
1163,0.0
1166,2804.656946325099
1168,2804.656946325099
2,2, 1,21, 0, 4, 0.00,60.00,Tuesday
7,-12.2
545,18.586230397791933
546,-5.789833896849217
547,13.049358441383973
548,149.69985472048234
720,4745.655157827283
721,4745.655157827283
784,0.0
785,0.0
848,0.0
849,0.0
1121,3897.4668392589074
1135,1476.501831193903
1161,0.08123394793424579
1163,0.0
1166,2951.01141815366
1168,2951.01141815366
2,2, 1,21, 0, 5, 0.00,60.00,Tuesday
7,-12.2
545,18.59010851679824
546,-5.127240231243105
547,12.940460574106515
548,149.69985472048234
720,4593.411700500816
721,4593.411700500816
784,0.0
785,0.0
848,0.0
849,0.0
1121,3891.9844477952547
1135,1474.2306811130993
1161,1.7739452384727472
1163,0.0
1166,2778.9796668319
1168,2778.9796668319
2,2, 1,21, 0, 6, 0.00,60.00,Tuesday
7,-12.2
545,19.345204069655363
546,-5.05744312043295
547,12.834187784187915
548,149.69985472048234
720,5805.489401703111
721,5805.489401703111
784,0.0
785,0.0
848,0.0
849,0.0
1121,3871.010827637034
1135,1466.2023261119864
1161,8.112323393607454
1163,0.0
1166,4166.1863906411345
1168,4166.1863906411345
2,2, 1,21, 0, 7, 0.00,60.00,Tuesday
7,-12.2
545,19.589046453252273
546,-4.725925006938418
547,12.766364659745179
548,149.69985472048234
720,5557.403524347743
721,5557.403524347743
784,0.0
785,0.0
848,0.0
849,0.0
1121,3827.93062294926
1135,1477.0766238990118
1161,15.429515161505744
1163,0.0
1166,4002.028963793895
1168,4002.028963793895
2,2, 1,21, 0, 8, 0.00,60.00,Tuesday
7,-11.7
545,19.66208948670386
546,-5.066363512822391
547,12.678152404979645
548,149.69985472048234
720,5451.590102323888
721,5451.590102323888
784,0.0
785,0.0
848,0.0
849,0.0
1121,3879.294753212589
1135,1489.2052866705894
1161,16.506593311668322
1163,0.0
1166,3840.7049181378925
1168,3840.7049181378925
2,2, 1,21, 0, 9, 0.00,60.00,Tuesday
7,-11.1
545,19.693415179988737
546,-4.24529285950303
547,12.595775275321643
548,149.69985472048234
720,4909.886469565983
721,4909.886469565983
784,0.0
785,0.0
848,0.0
849,0.0
1121,3931.2424512971506
1135,1491.819759276241
1161,22.42912500648473
1163,0.0
1166,3184.3983861024876
1168,3184.3983861024876
2,2, 1,21, 0,10, 0.00,60.00,Tuesday
7,-11.1
545,19.719678281226564
546,-2.1570623445188852
547,12.513766161490851
548,149.69985472048234
720,4077.1992123949876
721,4077.1992123949876
784,0.0
785,0.0
848,0.0
849,0.0
1121,3930.5651257847044
1135,1492.5530522307397
1161,22.42912500648473
1163,0.0
1166,2180.2321674312852
1168,2180.2321674312852
2,2, 1,21, 0,11, 0.00,60.00,Tuesday
7,-7.8
545,19.736043046851023
546,0.24709195895647476
547,12.470350493715618
548,149.69985472048234
720,3555.9613773910078
721,3555.9613773910078
784,0.0
785,0.0
848,0.0
849,0.0
1121,4432.868617329163
1135,1567.8423073581566
1161,0.08123394793424579
1163,0.0
1166,966.9301201815751
1168,966.9301201815751
2,2, 1,21, 0,12, 0.00,60.00,Tuesday
7,-6.1
545,19.826575816325494
546,3.533900166729503
547,12.421326654740199
548,136.45150117852742
720,2667.1901530442174
721,2667.1901530442174
784,0.0
785,0.0
848,0.0
849,0.0
1121,4203.177656885475
1135,1450.6567095798885
1161,0.07404591385834704
1163,17.69711865220942
1166,0.0
1168,0.0
2,2, 1,21, 0,13, 0.00,60.00,Tuesday
7,-5.0
545,19.96321736777193
546,4.51123743048005
547,12.368547987014546
548,100.38754702217486
720,2024.1920312315997
721,2024.1920312315997
784,0.0
785,0.0
848,0.0
849,0.0
1121,3099.95872335765
1135,1079.3072849730872
1161,0.054475583316062566
1163,65.87975913676529
1166,0.0
1168,0.0
2,2, 1,21, 0,14, 0.00,60.00,Tuesday
7,-3.9
545,19.954554671027733
546,6.055176165234751
547,12.342201477094708
548,68.82619411409232
720,1415.527292001525
721,1415.527292001525
784,0.0
785,0.0
848,0.0
849,0.0
1121,2138.3806587955646
1135,748.9687939861767
1161,0.03734866749769993
1163,108.04665180638142
1166,0.0
1168,0.0
2,2, 1,21, 0,15, 0.00,60.00,Tuesday
7,-3.3
545,19.69356790979703
546,5.007203842353137
547,12.340892096357747
548,50.3839077364309
720,1075.457060538176
721,1075.457060538176
784,0.0
785,0.0
848,0.0
849,0.0
1121,1569.9959796288142
1135,550.9936537737428
1161,0.02734090228055075
1163,132.6860186515085
1166,0.0
1168,0.0
2,2, 1,21, 0,16, 0.00,60.00,Tuesday
7,-3.3
545,19.676596360127768
546,3.8121557559121837
547,12.393786095963709
548,64.49455172102168
720,1477.8353530956283
721,1477.8353530956283
784,0.0
785,0.0
848,0.0
849,0.0
1121,2034.446666468585
1135,701.6674223857417
1161,0.03499806362379666
1163,113.83389700048659
1166,0.0
1168,0.0
2,2, 1,21, 0,17, 0.00,60.00,Tuesday
7,-2.2
545,19.947881160108317
546,3.3618345399268152
547,12.432948686898225
548,64.83002807864455
720,1515.4060719304744
721,1515.4060719304744
784,0.0
785,0.0
848,0.0
849,0.0
1121,2109.9478044325356
1135,711.7505487456499
1161,0.03518005902118911
1163,113.38581980611026
1166,0.0
1168,0.0
2,2, 1,21, 0,18, 0.00,60.00,Tuesday
7,-2.0
545,19.683958790034016
546,2.0774805382387536
547,12.467259548413825
548,65.22179316995383
720,1511.7959880449562
721,1511.7959880449562
784,0.0
785,0.0
848,0.0
849,0.0
1121,2132.18699113793
1135,721.1231874018617
1161,0.03539264201647882
1163,112.86243518503589
1166,0.0
1168,0.0
2,2, 1,21, 0,19, 0.00,60.00,Tuesday
7,-3.3
545,19.747950455334617
546,1.2582527316395768
547,12.491243983286918
548,76.31298634467332
720,1613.3181405250125
721,1613.3181405250125
784,0.0
785,0.0
848,0.0
849,0.0
1121,2314.2215603142545
1135,796.798185333174
1161,28.945691108664715
1163,97.2236020027622
1166,0.0
1168,0.0
2,2, 1,21, 0,20, 0.00,60.00,Tuesday
7,-4.0
545,19.66486724182019
546,0.5583598668063873
547,12.499096540817524
548,83.76723634981238
720,1687.140354418092
721,1687.140354418092
784,0.0
785,0.0
848,0.0
849,0.0
1121,2471.1345310314623
1135,861.6666142732839
1161,40.310329752563376
1163,86.82808689371004
1166,0.0
1168,0.0
2,2, 1,21, 0,21, 0.00,60.00,Tuesday
7,-3.0
545,19.727410903010668
546,0.6024869395622011
547,12.487676415435354
548,85.36442911868691
720,1775.9381201098386
721,1775.9381201098386
784,0.0
785,0.0
848,0.0
849,0.0
1121,2613.777746733023
1135,888.4019154919408
1161,36.32623956367447
1163,84.95384128166556
1166,0.0
1168,0.0
2,2, 1,21, 0,22, 0.00,60.00,Tuesday
7,-3.3
545,19.703460331743297
546,0.6264730526959528
547,12.481255064718516
548,96.4879488630311
720,1970.9661715344246
721,1970.9661715344246
784,0.0
785,0.0
848,0.0
849,0.0
1121,2906.218722056699
1135,989.259350825418
1161,53.21583374171449
1163,69.55140886577733
1166,0.0
1168,0.0
2,2, 1,21, 0,23, 0.00,60.00,Tuesday
7,-3.3
545,18.891268832303393
546,0.18803022210188794
547,12.411047880031612
548,73.89345409099843
720,1410.1993456707933
721,1410.1993456707933
784,0.0
785,0.0
848,0.0
849,0.0
1121,2186.0099743388237
1135,757.2398690373503
1161,40.833731804467
1163,100.09611293035583
1166,0.0
1168,0.0
2,2, 1,21, 0,24, 0.00,60.00,Tuesday
7,-3.0
545,18.545829260544167
546,0.3394848212743916
547,12.383678038916573
548,94.1110311639601
720,1986.0390553653997
721,1986.0390553653997
784,0.0
785,0.0
848,0.0
849,0.0
1121,2874.381644349396
1135,953.4934829517256
1161,49.764617648674324
1163,72.88865929329447
1166,0.0
1168,0.0
2,3, 1,22, 0, 1, 0.00,60.00,Wednesday
7,-2.0
545,18.52186132629921
546,0.994815998296446
547,12.353574493855543
548,114.34466530819427
720,2547.7068724160963
721,2547.7068724160963
784,0.0
785,0.0
848,0.0
849,0.0
1121,3623.8104801500695
1135,1149.7794765403883
1161,68.10215899755741
1163,45.56772212672624
1166,0.0
1168,0.0
2,3, 1,22, 0, 2, 0.00,60.00,Wednesday
7,-2.0
545,18.576915433654413
546,1.2472352332774326
547,12.313407106966277
548,123.9589190450632
720,2775.6508737511904
721,2775.6508737511904
784,0.0
785,0.0
848,0.0
849,0.0
1121,3959.9549209285574
1135,1245.7847851781146
1161,73.82816999646283
1163,32.58309822192314
1166,0.0
1168,0.0
2,3, 1,22, 0, 3, 0.00,60.00,Wednesday
7,-1.7
545,18.54269713841275
546,1.080123995077292
547,12.278844748054853
548,134.87573246998218
720,3058.537870871218
721,3058.537870871218
784,0.0
785,0.0
848,0.0
849,0.0
1121,4355.400423833062
1135,1352.3332242880647
1161,86.57661058742373
1163,17.75957119906495
1166,0.0
1168,0.0
2,3, 1,22, 0, 4, 0.00,60.00,Wednesday
7,-1.7
545,18.56613766456187
546,1.2402434780327274
547,12.234651562453106
548,142.11921227459763
720,3229.6307420289068
721,3229.6307420289068
784,0.0
785,0.0
848,0.0
849,0.0
1121,4617.810179949841
1135,1423.8961569417922
1161,91.22599779041653
1163,7.9727903146436185
1166,0.0
1168,0.0
2,3, 1,22, 0, 5, 0.00,60.00,Wednesday
7,-2.0
545,18.584649762850262
546,1.1319707817031446
547,12.190427994053747
548,146.30550013658745
720,3259.881405002934
721,3259.881405002934
784,0.0
785,0.0
848,0.0
849,0.0
1121,4692.338850318171
1135,1452.9978397512796
1161,102.91612249903363
1163,1.9839311934427784
1166,0.0
1168,0.0
2,3, 1,22, 0, 6, 0.00,60.00,Wednesday
7,-1.0
545,19.34548091350129
546,1.7534948926876042
547,12.153746481188202
548,149.69985472048234
720,4262.965545600535
721,4262.965545600535
784,0.0
785,0.0
848,0.0
849,0.0
1121,4975.173714478828
1135,1490.8929243700811
1161,96.54029501422032
1163,0.0
1166,913.1079459521825
1168,913.1079459521825
2,3, 1,22, 0, 7, 0.00,60.00,Wednesday
7,-1.0
545,19.59974374832381
546,1.4581215242564138
547,12.145362801026591
548,149.69985472048234
720,4425.25478112358
721,4425.25478112358
784,0.0
785,0.0
848,0.0
849,0.0
1121,4956.3965793863445
1135,1513.164834977201
1161,96.54029501422032
1163,0.0
1166,1177.3823936350682
1168,1177.3823936350682
2,3, 1,22, 0, 8, 0.00,60.00,Wednesday
7,-6.0
545,19.664417769445958
546,-0.23959377279014393
547,12.068378522357607
548,149.69985472048234
720,4740.388514806147
721,4740.388514806147
784,0.0
785,0.0
848,0.0
849,0.0
1121,4446.306885837057
1135,1508.783775435935
1161,58.644922330844096
1163,0.0
1166,2104.8488631546393
1168,2104.8488631546393
2,3, 1,22, 0, 9, 0.00,60.00,Wednesday
7,-8.0
545,19.67942973232573
546,-2.325738815680788
547,12.019207215345014
548,149.69985472048234
720,4887.569582769733
721,4887.569582769733
784,0.0
785,0.0
848,0.0
849,0.0
1121,4307.290095448535
1135,1526.8357249981273
1161,27.036569884798364
1163,0.0
1166,2510.6135531614023
1168,2510.6135531614023
2,3, 1,22, 0,10, 0.00,60.00,Wednesday
7,-8.9
545,19.68428938236169
546,-2.9967304196894666
547,11.967068655106601
548,149.69985472048234
720,4803.583789569828
721,4803.583789569828
784,0.0
785,0.0
848,0.0
849,0.0
1121,4197.037039417436
1135,1517.221495915332
1161,25.473498121361498
1163,0.0
1166,2642.899347578374
1168,2642.899347578374
2,3, 1,22, 0,11, 0.00,60.00,Wednesday
7,-8.3
545,19.71888749374637
546,-2.473930977269288
547,11.929532141096596
548,149.69985472048234
720,3659.2154626385436
721,3659.2154626385436
784,0.0
785,0.0
848,0.0
849,0.0
1121,4305.56338534025
1135,1536.6851357866096
1161,16.966762397473975
1163,0.0
1166,1249.5017154848902
1168,1249.5017154848902
2,3, 1,22, 0,12, 0.00,60.00,Wednesday
7,-7.8
545,19.77148989368209
546,-0.5311308468231227
547,11.88391496038452
548,145.23639158578843
720,2555.179759426166
721,2555.179759426166
784,0.0
785,0.0
848,0.0
849,0.0
1121,4238.221803138459
1135,1507.3809865018713
1161,13.14824626275332
1163,5.3751610427128504
1166,0.0
1168,0.0
2,3, 1,22, 0,13, 0.00,60.00,Wednesday
7,-7.8
545,19.85821911743209
546,0.36627847940178054
547,11.821941903969472
548,121.1349811217761
720,2099.3982339808044
721,2099.3982339808044
784,0.0
785,0.0
848,0.0
849,0.0
1121,3464.796440579994
1135,1258.5630004588563
1161,10.97171898517189
1163,37.67198730647574
1166,0.0
1168,0.0
2,3, 1,22, 0,14, 0.00,60.00,Wednesday
7,-7.8
545,19.89291877805305
546,-1.0366446261976745
547,11.767298600953207
548,83.84430747522848
720,1375.4695623302578
721,1375.4695623302578
784,0.0
785,0.0
848,0.0
849,0.0
1121,2335.9404333618513
1135,875.2624524316242
1161,4.939054317882995
1163,87.76301514866776
1166,0.0
1168,0.0
2,3, 1,22, 0,15, 0.00,60.00,Wednesday
7,-8.3
545,19.591901850386243
546,-1.614283307328702
547,11.787607085618395
548,83.372958361689
720,1415.8235140881952
721,1415.8235140881952
784,0.0
785,0.0
848,0.0
849,0.0
1121,2297.2335051257305
1135,870.0639820840129
1161,1.8932207453591463
1163,88.52482971391457
1166,0.0
1168,0.0
2,3, 1,22, 0,16, 0.00,60.00,Wednesday
7,-8.3
545,19.620156579226887
546,-2.780033997641852
547,11.832397288878852
548,103.20275825730718
720,1868.5364045041988
721,1868.5364045041988
784,0.0
785,0.0
848,0.0
849,0.0
1121,2893.7921731346096
1135,1070.790974551319
1161,2.343509491034741
1163,62.01127352922757
1166,0.0
1168,0.0
2,3, 1,22, 0,17, 0.00,60.00,Wednesday
7,-11.1
545,19.565093130470064
546,-5.255778099852062
547,11.87886380869962
548,134.03885100488762
720,2220.5126318158764
721,2220.5126318158764
784,0.0
785,0.0
848,0.0
849,0.0
1121,3544.422636025292
1135,1359.5200056845827
1161,0.07273734215218547
1163,20.918854735308056
1166,0.0
1168,0.0
2,3, 1,22, 0,18, 0.00,60.00,Wednesday
7,-11.7
545,19.534987061631874
546,-6.362909666742529
547,11.89688036922669
548,149.69985472048234
720,3276.1314978376813
721,3276.1314978376813
784,0.0
785,0.0
848,0.0
849,0.0
1121,3917.54912960671
1135,1501.099301943124
1161,5.657423150347056
1163,0.0
1166,1187.583997643108
1168,1187.583997643108
2,3, 1,22, 0,19, 0.00,60.00,Wednesday
7,-11.7
545,19.635257755280836
546,-6.701417761125666
547,11.882171228263346
548,149.69985472048234
720,3008.0129988028184
721,3008.0129988028184
784,0.0
785,0.0
848,0.0
849,0.0
1121,3906.9893856765034
1135,1496.0227228581641
1161,9.019808008152815
1163,0.0
1166,1012.4876350700881
1168,1012.4876350700881
2,3, 1,22, 0,20, 0.00,60.00,Wednesday
7,-11.1
545,19.673380160255512
546,-7.232583604453661
547,11.852496012331803
548,149.69985472048234
720,3374.5412467503174
721,3374.5412467503174
784,0.0
785,0.0
848,0.0
849,0.0
1121,3975.5137302496523
1135,1505.9126005980424
1161,9.995256257783959
1163,0.0
1166,1405.1203916049826
1168,1405.1203916049826
2,3, 1,22, 0,21, 0.00,60.00,Wednesday
7,-10.6
545,19.697329577336962
546,-6.703993350105156
547,11.802310655348446
548,149.69985472048234
720,3231.1839268654494
721,3231.1839268654494
784,0.0
785,0.0
848,0.0
849,0.0
1121,4034.109957491065
1135,1512.8147428647133
1161,10.855288306894684
1163,0.0
1166,1222.363355939816
1168,1222.363355939816
2,3, 1,22, 0,22, 0.00,60.00,Wednesday
7,-10.6
545,19.700884843581797
546,-6.636859140646314
547,11.733484354445455
548,149.69985472048234
720,3583.243143996622
721,3583.243143996622
784,0.0
785,0.0
848,0.0
849,0.0
1121,4033.568021908563
1135,1513.4063443157438
1161,10.855288306894684
1163,0.0
1166,1609.8527373002105
1168,1609.8527373002105
2,3, 1,22, 0,23, 0.00,60.00,Wednesday
7,-10.6
545,18.951435513709
546,-6.938291727460201
547,11.654738923945349
548,149.69985472048234
720,3216.0933933203505
721,3216.0933933203505
784,0.0
785,0.0
848,0.0
849,0.0
1121,4033.587804742163
1135,1513.3687932208472
1161,10.858427252321881
1163,0.0
1166,1191.9371480050688
1168,1191.9371480050688
2,3, 1,22, 0,24, 0.00,60.00,Wednesday
7,-11.1
545,18.70571993880157
546,-7.144749163704184
547,11.528806537053686
548,149.69985472048234
720,3738.0415416058077
721,3738.0415416058077
784,0.0
785,0.0
848,0.0
849,0.0
1121,3981.1328432127043
1135,1482.1775271356653
1161,13.523966794836964
1163,0.0
1166,1797.6256167877666
1168,1797.6256167877666
2,4, 1,23, 0, 1, 0.00,60.00,Thursday
7,-11.1
545,18.620942432464652
546,-7.3434494579488465
547,11.433952476346892
548,149.69985472048234
720,4120.102963446707
721,4120.102963446707
784,0.0
785,0.0
848,0.0
849,0.0
1121,3987.4924334463153
1135,1475.2492454442338
1161,13.52531272885733
1163,0.0
1166,2234.0786352205696
1168,2234.0786352205696
2,4, 1,23, 0, 2, 0.00,60.00,Thursday
7,-11.7
545,18.59116556750226
546,-7.457346648335937
547,11.330119031244106
548,149.69985472048234
720,4442.718688824636
721,4442.718688824636
784,0.0
785,0.0
848,0.0
849,0.0
1121,3915.722922110731
1135,1464.8075690829435
1161,13.480281367790976
1163,0.0
1166,2692.866242170993
1168,2692.866242170993
2,4, 1,23, 0, 3, 0.00,60.00,Thursday
7,-12.2
545,18.582295925177423
546,-7.152734755936767
547,11.230357569558652
548,149.69985472048234
720,4663.97502678319
721,4663.97502678319
784,0.0
785,0.0
848,0.0
849,0.0
1121,3847.9816614740034
1135,1454.3155880841773
1161,15.710563331538882
1163,0.0
1166,3029.5189502561198
1168,3029.5189502561198
2,4, 1,23, 0, 4, 0.00,60.00,Thursday
7,-12.2
545,18.5810968661594
546,-7.310670621991742
547,11.13339154730053
548,149.69985472048234
720,4838.553902852676
721,4838.553902852676
784,0.0
785,0.0
848,0.0
849,0.0
1121,3848.340897392888
1135,1453.9308492843634
1161,15.710563331538882
1163,0.0
1166,3224.9837089900457
1168,3224.9837089900457
2,4, 1,23, 0, 5, 0.00,60.00,Thursday
7,-13.9
545,18.57494264275609
546,-7.602584496252544
547,11.0222718204053
548,149.69985472048234
720,5077.621047296516
721,5077.621047296516
784,0.0
785,0.0
848,0.0
849,0.0
1121,3643.963058337673
1135,1429.980652481986
1161,16.025290361458907
1163,0.0
1166,3716.9089636637323
1168,3716.9089636637323
2,4, 1,23, 0, 6, 0.00,60.00,Thursday
7,-13.3
545,19.333679697639575
546,-7.961880437316954
547,10.931485641049852
548,149.69985472048234
720,6189.002718340498
721,6189.002718340498
784,0.0
785,0.0
848,0.0
849,0.0
1121,3723.496348629979
1135,1441.136338924137
1161,13.490784818404855
1163,0.0
1166,4943.510710607125
1168,4943.510710607125
2,4, 1,23, 0, 7, 0.00,60.00,Thursday
7,-13.9
545,19.577249131788115
546,-7.627910465969464
547,10.86837444937129
548,149.69985472048234
720,5974.934929794128
721,5974.934929794128
784,0.0
785,0.0
848,0.0
849,0.0
1121,3625.612636494383
1135,1449.0014876564253
1161,16.020677417183318
1163,0.0
1166,4899.028934227106
1168,4899.028934227106
2,4, 1,23, 0, 8, 0.00,60.00,Thursday
7,-13.3
545,19.660352105622593
546,-7.196464200944617
547,10.789426021655942
548,149.69985472048234
720,5555.415897611007
721,5555.415897611007
784,0.0
785,0.0
848,0.0
849,0.0
1121,3698.6810441287143
1135,1467.0986757119908
1161,13.491992499078505
1163,0.0
1166,4354.238371898898
1168,4354.238371898898
2,4, 1,23, 0, 9, 0.00,60.00,Thursday
7,-12.8
545,19.687990391636397
546,-5.99231791027211
547,10.711500709995878
548,149.69985472048234
720,5241.233323565721
721,5241.233323565721
784,0.0
785,0.0
848,0.0
849,0.0
1121,3753.4773222946897
1135,1475.1657940328428
1161,14.458490131801494
1163,0.0
1166,3915.3053274007298
1168,3915.3053274007298
2,4, 1,23, 0,10, 0.00,60.00,Thursday
7,-12.8
545,19.69974391074975
546,-4.775057711528891
547,10.632698023225599
548,149.69985472048234
720,5039.346359955376
721,5039.346359955376
784,0.0
785,0.0
848,0.0
849,0.0
1121,3752.891935383867
1135,1475.7812036596158
1161,14.458490131801494
1163,0.0
1166,3618.7774747434987
1168,3618.7774747434987
2,4, 1,23, 0,11, 0.00,60.00,Thursday
7,-11.1
545,19.70910639719445
546,-3.4103603985148356
547,10.574844695432567
548,149.69985472048234
720,4741.654277588954
721,4741.654277588954
784,0.0
785,0.0
848,0.0
849,0.0
1121,3975.6476526306965
1135,1505.811286632468
1161,9.986488502936202
1163,0.0
1166,2986.8788686117614
1168,2986.8788686117614
2,4, 1,23, 0,12, 0.00,60.00,Thursday
7,-10.0
545,19.73464236258995
546,2.000147159450572
547,10.523284760267076
548,149.69985472048234
720,3695.6870484486244
721,3695.6870484486244
784,0.0
785,0.0
848,0.0
849,0.0
1121,4075.0308308078897