Program Version,EnergyPlus, Version 22.2.0-c249759bad, YMD=2023.09.01 14:30
1,5,Environment Title[],Latitude[deg],Longitude[deg],Time Zone[],Elevation[m]
2,8,Day of Simulation[],Month[],Day of Month[],DST Indicator[1=yes 0=no],Hour[],StartMinute[],EndMinute[],DayType
3,5,Cumulative Day of Simulation[],Month[],Day of Month[],DST Indicator[1=yes 0=no],DayType  ! When Daily Report Variables Requested
4,2,Cumulative Days of Simulation[],Month[]  ! When Monthly Report Variables Requested
5,1,Cumulative Days of Simulation[] ! When Run Period Report Variables Requested
6,1,Calendar Year of Simulation[] ! When Annual Report Variables Requested
7,1,Environment,Site Outdoor Air Drybulb Temperature [C] !Hourly
619,1,DX_HEATING_COIL,Heating Coil Heating Rate [W] !Hourly
633,1,DX_HEATING_COIL,Heating Coil Electricity Rate [W] !Hourly
659,1,DX_HEATING_COIL,Heating Coil Defrost Electricity Rate [W] !Hourly
661,1,DX_HEATING_COIL,Heating Coil Crankcase Heater Electricity Rate [W] !Hourly
690,1,FAN,Fan Electricity Rate [W] !Hourly
716,1,HEAT PUMP WATER HEATER FAN,Fan Electricity Rate [W] !Hourly
718,1,LIVING,Zone Mean Air Temperature [C] !Hourly
719,1,ATTIC,Zone Mean Air Temperature [C] !Hourly
720,1,CRAWLSPACE,Zone Mean Air Temperature [C] !Hourly
843,1,LIVING,Zone Predicted Sensible Load to Heating Setpoint Heat Transfer Rate [W] !Hourly
844,1,LIVING,Zone System Predicted Sensible Load to Heating Setpoint Heat Transfer Rate [W] !Hourly
907,1,ATTIC,Zone Predicted Sensible Load to Heating Setpoint Heat Transfer Rate [W] !Hourly
908,1,ATTIC,Zone System Predicted Sensible Load to Heating Setpoint Heat Transfer Rate [W] !Hourly
971,1,CRAWLSPACE,Zone Predicted Sensible Load to Heating Setpoint Heat Transfer Rate [W] !Hourly
972,1,CRAWLSPACE,Zone System Predicted Sensible Load to Heating Setpoint Heat Transfer Rate [W] !Hourly
1195,1,HEATING_RESISTANCE_BACKUP,Heating Coil Heating Rate [W] !Hourly
1197,1,HEATING_RESISTANCE_BACKUP,Heating Coil Electricity Rate [W] !Hourly
End of Data Dictionary
1,EXTREME_WINTER,  32.90, -80.03,  -5.00,  14.30
2,1, 1, 6, 0, 1, 0.00,60.00,Monday
7,3.9
718,21.49820135014452
719,5.127738843716161
720,20.55356291418736
619,0.0
633,0.0
659,0.0
661,200.0
690,0.0
716,0.0
843,-2031.7162744137895
844,-2031.7162744137895
907,0.0
908,0.0
971,0.0
972,0.0
1195,0.0
1197,0.0
2,1, 1, 6, 0, 2, 0.00,60.00,Monday
7,3.9
718,20.892751381620247
719,3.644821760379776
720,20.392453902375863
619,0.0
633,0.0
659,0.0
661,200.0
690,0.0
716,0.0
843,-1750.9581774081653
844,-1750.9581774081653
907,0.0
908,0.0
971,0.0
972,0.0
1195,0.0
1197,0.0
2,1, 1, 6, 0, 3, 0.00,60.00,Monday
7,2.8
718,20.14072922736756
719,2.417935836415735
720,20.26696856844915
619,0.0
633,0.0
659,0.0
661,200.0
690,0.0
716,0.0
843,-1120.9989232708704
844,-1120.9989232708704
907,0.0
908,0.0
971,0.0
972,0.0
1195,0.0
1197,0.0
2,1, 1, 6, 0, 4, 0.00,60.00,Monday
7,2.2
718,19.44989270805005
719,1.3156500504913258
720,20.138410662792676
619,0.0
633,0.0
659,0.0
661,200.0
690,0.0
716,0.0
843,-622.7299888990947
844,-622.7299888990947
907,0.0
908,0.0
971,0.0
972,0.0
1195,0.0
1197,0.0
2,1, 1, 6, 0, 5, 0.00,60.00,Monday
7,2.2
718,18.946482538882826
719,0.43654493490442603
720,20.011249592564063
619,0.0
633,0.0
659,0.0
661,200.0
690,0.0
716,0.0
843,-244.90681746878727
844,-244.90681746878727
907,0.0
908,0.0
971,0.0
972,0.0
1195,0.0
1197,0.0
2,1, 1, 6, 0, 6, 0.00,60.00,Monday
7,2.2
718,19.533263570439033
719,1.6443140667928795
720,19.827204358767677
619,1218.4942901007296
633,387.3559904450808
659,38.95164320444016
661,149.19153376356203
690,38.69711379017008
716,0.0
843,894.6276118437618
844,894.6276118437618
907,0.0
908,0.0
971,0.0
972,0.0
1195,0.0
1197,0.0
2,1, 1, 6, 0, 7, 0.00,60.00,Monday
7,2.8
718,19.636667938702686
719,1.9678306882304721
720,19.673603119625906
619,2816.59686431782
633,866.5056505479937
659,82.00348634395624
661,88.83288350840448
690,84.802679233375
716,85.44000000000005
843,965.2397734141723
844,965.2397734141723
907,0.0
908,0.0
971,0.0
972,0.0
1195,0.0
1197,0.0
2,1, 1, 6, 0, 8, 0.00,60.00,Monday
7,2.8
718,19.70864280550637
719,1.6160874200671083
720,19.576916178542913
619,2241.695958480291
633,700.0768744157616
659,66.12101764014972
661,110.36377600198084
690,68.37780173927804
716,40.76910908273058
843,1083.9116922425565
844,1083.9116922425565
907,0.0
908,0.0
971,0.0
972,0.0
1195,0.0
1197,0.0
2,1, 1, 6, 0, 9, 0.00,60.00,Monday
7,7.8
718,19.943425754723762
719,4.503170286119623
720,19.51223584175809
619,433.0856959973783
633,119.3060786028357
659,0.0
661,187.85853589816676
690,9.335385175391481
716,0.0
843,325.88512335976884
844,325.88512335976884
907,0.0
908,0.0
971,0.0
972,0.0
1195,0.0
1197,0.0
2,1, 1, 6, 0,10, 0.00,60.00,Monday
7,11.1
718,20.53193167721381
719,9.986015403629395
720,19.41020623754368
619,0.0
633,0.0
659,0.0
661,0.0
690,0.0
716,0.0
843,-723.2112615032092
844,-723.2112615032092
907,0.0
908,0.0
971,0.0
972,0.0
1195,0.0
1197,0.0
2,1, 1, 6, 0,11, 0.00,60.00,Monday
7,11.1
718,21.48671334120773
719,14.5953092063959
720,19.343987957695443
619,0.0
633,0.0
659,0.0
661,0.0
690,0.0
716,0.0
843,-1509.6520404430994
844,-1509.6520404430994
907,0.0
908,0.0
971,0.0
972,0.0
1195,0.0
1197,0.0
2,1, 1, 6, 0,12, 0.00,60.00,Monday
7,15.0
718,22.629333092874194
719,18.70399560409035
720,19.313322090679964
619,0.0
633,0.0
659,0.0
661,0.0
690,0.0
716,0.0
843,-2439.354936685695
844,-2439.354936685695
907,0.0
908,0.0
971,0.0
972,0.0
1195,0.0
1197,0.0
2,1, 1, 6, 0,13, 0.00,60.00,Monday
7,16.1
718,23.32935321755784
719,20.517435651135685
720,19.314705683172942
619,0.0
633,0.0
659,0.0
661,0.0
690,0.8615483913679655
716,0.0
843,-3178.9984799517315
844,-3178.9984799517315
907,0.0
908,0.0
971,0.0
972,0.0
1195,0.0
1197,0.0
2,1, 1, 6, 0,14, 0.00,60.00,Monday
7,16.1
718,23.226171897511556
719,21.316500853956935
720,19.337510256191763
619,0.0
633,0.0
659,0.0
661,0.0
690,0.0
716,62.453051176227305
843,-3707.8326675747194
844,-3707.8326675747194
907,0.0
908,0.0
971,0.0
972,0.0
1195,0.0
1197,0.0
2,1, 1, 6, 0,15, 0.00,60.00,Monday
7,17.2
718,23.316762909642517
719,21.645489001628757
720,19.444614456970356
619,0.0
633,0.0
659,0.0
661,0.0
690,38.459767410636495
716,0.0
843,-4773.914986863119
844,-4773.914986863119
907,0.0
908,0.0
971,0.0
972,0.0
1195,0.0
1197,0.0
2,1, 1, 6, 0,16, 0.00,60.00,Monday
7,16.7
718,23.229453226325955
719,20.831960923921976
720,19.53562867962073
619,0.0
633,0.0
659,0.0
661,0.0
690,50.249036127687994
716,0.0
843,-5737.125612587442
844,-5737.125612587442
907,0.0
908,0.0
971,0.0
972,0.0
1195,0.0
1197,0.0
2,1, 1, 6, 0,17, 0.00,60.00,Monday
7,16.7
718,23.32043513499959
719,19.477432032101905
720,19.631252530000967
619,0.0
633,0.0
659,0.0
661,0.0
690,53.02967512179403
716,0.0
843,-6223.117256118101
844,-6223.117256118101
907,0.0
908,0.0
971,0.0
972,0.0
1195,0.0
1197,0.0
2,1, 1, 6, 0,18, 0.00,60.00,Monday
7,12.2
718,23.390598272420373
719,16.438257962567256
720,19.690130986168306
619,0.0
633,0.0
659,0.0
661,0.0
690,28.574071041129994
716,0.0
843,-5133.773386437253
844,-5133.773386437253
907,0.0
908,0.0
971,0.0
972,0.0
1195,0.0
1197,0.0
2,1, 1, 6, 0,19, 0.00,60.00,Monday
7,11.7
718,23.368306377562632
719,13.862392386898575
720,19.735686625638245
619,0.0
633,0.0
659,0.0
661,0.0
690,0.0
716,76.05690913316577
843,-4369.717093537205
844,-4369.717093537205
907,0.0
908,0.0
971,0.0
972,0.0
1195,0.0
1197,0.0
2,1, 1, 6, 0,20, 0.00,60.00,Monday
7,11.7
718,23.332135447023948
719,11.59885661448119
720,19.771447267752897
619,0.0
633,0.0
659,0.0
661,0.0
690,0.0
716,69.4079424938544
843,-4179.662202314563
844,-4179.662202314563
907,0.0
908,0.0
971,0.0
972,0.0
1195,0.0
1197,0.0
2,1, 1, 6, 0,21, 0.00,60.00,Monday
7,10.0
718,23.31887450564997
719,9.822229273173049
720,19.788379207190065
619,0.0
633,0.0
659,0.0
661,0.0
690,14.297663668846992
716,0.0
843,-3795.899588848126
844,-3795.899588848126
907,0.0
908,0.0
971,0.0
972,0.0
1195,0.0
1197,0.0
2,1, 1, 6, 0,22, 0.00,60.00,Monday
7,8.9
718,23.298512597688358
719,8.365792535337615
720,19.763706718312033
619,0.0
633,0.0
659,0.0
661,192.21778832919708
690,5.9836229678760775
716,0.0
843,-3256.625450155747
844,-3256.625450155747
907,0.0
908,0.0
971,0.0
972,0.0
1195,0.0
1197,0.0
2,1, 1, 6, 0,23, 0.00,60.00,Monday
7,8.9
718,23.14423608323208
719,7.387371371045035
720,19.72747257683909
619,0.0
633,0.0
659,0.0
661,200.0
690,0.0
716,0.0
843,-3361.88615633064
844,-3361.88615633064
907,0.0
908,0.0
971,0.0
972,0.0
1195,0.0
1197,0.0
2,1, 1, 6, 0,24, 0.00,60.00,Monday
7,7.8
718,22.3968046649726
719,6.861878487661626
720,19.679337772496524
619,0.0
633,0.0
659,0.0
661,200.0
690,0.0
716,0.0
843,-2425.9558707254655
844,-2425.9558707254655
907,0.0
908,0.0
971,0.0
972,0.0
1195,0.0
1197,0.0
2,2, 1, 7, 0, 1, 0.00,60.00,Tuesday
7,7.2
718,21.6958177635104
719,6.303258564704656
720,19.619127518098022
619,0.0
633,0.0
659,0.0
661,200.0
690,0.0
716,0.0
843,-2139.3597236142286
844,-2139.3597236142286
907,0.0
908,0.0
971,0.0
972,0.0
1195,0.0
1197,0.0
2,2, 1, 7, 0, 2, 0.00,60.00,Tuesday
7,7.2
718,21.095728183432243
719,5.943783136883541
720,19.548544596706975
619,0.0
633,0.0
659,0.0
661,200.0
690,0.0
716,0.0
843,-1718.8317293987002
844,-1718.8317293987002
907,0.0
908,0.0
971,0.0
972,0.0
1195,0.0
1197,0.0
2,2, 1, 7, 0, 3, 0.00,60.00,Tuesday
7,6.1
718,20.370458727128756
719,5.5294526198266345
720,19.46794275099244
619,0.0
633,0.0
659,0.0
661,200.0
690,0.0
716,0.0
843,-1175.9542486963728
844,-1175.9542486963728
907,0.0
908,0.0
971,0.0
972,0.0
1195,0.0
1197,0.0
2,2, 1, 7, 0, 4, 0.00,60.00,Tuesday
7,6.1
718,19.767063870509105
719,5.142887028399031
720,19.3830516614614
619,0.0
633,0.0
659,0.0
661,200.0
690,0.0
716,0.0
843,-794.0143836690968
844,-794.0143836690968
907,0.0
908,0.0
971,0.0
972,0.0
1195,0.0
1197,0.0
2,2, 1, 7, 0, 5, 0.00,60.00,Tuesday
7,6.1
718,19.320012198728598
719,4.876993484746607
720,19.29192790773537
619,0.0
633,0.0
659,0.0
661,200.0
690,0.0
716,0.0
843,-471.8777114798686
844,-471.8777114798686
907,0.0
908,0.0
971,0.0
972,0.0
1195,0.0
1197,0.0
2,2, 1, 7, 0, 6, 0.00,60.00,Tuesday
7,3.9
718,19.641716094028006
719,4.107808476158432
720,19.174029559994114
619,796.9361109001231
633,249.69652866589092
659,13.895771088785681
661,169.74991265606158
690,23.179570840606406
716,0.0
843,615.3781145990943
844,615.3781145990943
907,0.0
908,0.0
971,0.0
972,0.0
1195,0.0
1197,0.0
2,2, 1, 7, 0, 7, 0.00,60.00,Tuesday
7,3.3
718,19.634739287460516
719,4.088570262062184
720,19.044390541336817
619,2469.6528187626077
633,760.5422144054804
659,45.645023567860264
661,107.3307834021884
690,70.93773466370862
716,84.29279999884427
843,769.0179753621705
844,769.0179753621705
907,0.0
908,0.0
971,0.0
972,0.0
1195,0.0
1197,0.0
2,2, 1, 7, 0, 8, 0.00,60.00,Tuesday
7,3.3
718,19.66460269806771
719,3.7045416904864648
720,18.949676633785174
619,2766.265290178258
633,846.4058936443508
659,50.81275326196233
661,96.83918048670903
690,78.96901825273075
716,85.44000000000005
843,958.8907305330486
844,958.8907305330486
907,0.0
908,0.0
971,0.0
972,0.0
1195,0.0
1197,0.0
2,2, 1, 7, 0, 9, 0.00,60.00,Tuesday
7,5.6
718,19.755609565128164
719,5.241261154403812
720,18.89908695504846
619,1201.8927159933394
633,336.8548513723021
659,0.0
661,164.855077203615
690,27.022391081658153
716,35.14163282342129
843,452.6778167674165
844,452.6778167674165
907,0.0
908,0.0
971,0.0
972,0.0
1195,0.0
1197,0.0
2,2, 1, 7, 0,10, 0.00,60.00,Tuesday
7,8.3
718,20.10710240840341
719,8.734160158049592
720,18.8230018354946
619,0.0
633,0.0
659,0.0
661,200.0
690,0.0
716,0.0
843,-345.89598679190385
844,-345.89598679190385
907,0.0
908,0.0
971,0.0
972,0.0
1195,0.0
1197,0.0
2,2, 1, 7, 0,11, 0.00,60.00,Tuesday
7,8.3
718,20.88931546616415
719,11.862673145934151
720,18.76520507281135
619,0.0
633,0.0
659,0.0
661,200.0
690,0.0
716,0.0
843,-895.8804411539168
844,-895.8804411539168
907,0.0
908,0.0
971,0.0
972,0.0
1195,0.0
1197,0.0
2,2, 1, 7, 0,12, 0.00,60.00,Tuesday
7,12.2
718,22.13594513075433
719,16.638576546115072
720,18.741052356143623
619,0.0
633,0.0
659,0.0
661,0.0
690,0.0
716,0.0
843,-1815.0606316683752
844,-1815.0606316683752
907,0.0
908,0.0
971,0.0
972,0.0
1195,0.0
1197,0.0
2,2, 1, 7, 0,13, 0.00,60.00,Tuesday
7,13.3
718,22.421134152126843
719,18.356825526945855
720,18.740892221840767
619,0.0
633,0.0
659,0.0
661,0.0
690,0.0
716,0.0
843,-2227.0709027531266
844,-2227.0709027531266
907,0.0
908,0.0
971,0.0
972,0.0
1195,0.0
1197,0.0
2,2, 1, 7, 0,14, 0.00,60.00,Tuesday
7,13.3
718,22.64879296247128
719,18.379070308968707
720,18.761994812312178
619,0.0
633,0.0
659,0.0
661,0.0
690,0.0
716,0.0
843,-2071.154997380938
844,-2071.154997380938
907,0.0
908,0.0
971,0.0
972,0.0
1195,0.0
1197,0.0
2,2, 1, 7, 0,15, 0.00,60.00,Tuesday
7,10.0
718,22.67081431496124
719,16.772094112074893
720,18.800053284211682
619,0.0
633,0.0
659,0.0
661,0.0
690,0.0
716,0.0
843,-2189.139906838307
844,-2189.139906838307
907,0.0
908,0.0
971,0.0
972,0.0
1195,0.0
1197,0.0
2,2, 1, 7, 0,16, 0.00,60.00,Tuesday
7,9.4
718,22.174555069454776
719,14.134851224234161
720,18.843046014073597
619,0.0
633,0.0
659,0.0
661,200.0
690,0.0
716,0.0
843,-1925.7689920020748
844,-1925.7689920020748
907,0.0
908,0.0
971,0.0
972,0.0
1195,0.0
1197,0.0
2,2, 1, 7, 0,17, 0.00,60.00,Tuesday
7,9.4
718,22.05996070286656
719,12.428407049781574
720,18.881483983339812
619,0.0
633,0.0
659,0.0
661,200.0
690,0.0
716,0.0
843,-2086.6911452544136
844,-2086.6911452544136
907,0.0
908,0.0
971,0.0
972,0.0
1195,0.0
1197,0.0
2,2, 1, 7, 0,18, 0.00,60.00,Tuesday
7,7.8
718,21.270904013257447
719,10.68081151545299
720,18.90630670028496
619,0.0
633,0.0
659,0.0
661,200.0
690,0.0
716,62.47431473557521
843,-1968.0347961201005
844,-1968.0347961201005
907,0.0
908,0.0
971,0.0
972,0.0
1195,0.0
1197,0.0
2,2, 1, 7, 0,19, 0.00,60.00,Tuesday
7,7.2
718,21.85967680996636
719,9.278096079390385
720,18.911087685145258
619,0.0
633,0.0
659,0.0
661,200.0
690,0.0
716,0.0
843,-1980.9738829611942
844,-1980.9738829611942
907,0.0
908,0.0
971,0.0
972,0.0
1195,0.0
1197,0.0
2,2, 1, 7, 0,20, 0.00,60.00,Tuesday
7,7.2
718,20.672099155806947
719,8.610833950525828
720,18.89584188987599
619,0.0
633,0.0
659,0.0
661,200.0
690,0.0
716,85.44000000000005
843,-1587.221108975118
844,-1587.221108975118
907,0.0
908,0.0
971,0.0
972,0.0
1195,0.0
1197,0.0
2,2, 1, 7, 0,21, 0.00,60.00,Tuesday
7,6.1
718,19.812958544771263
719,7.809188516441779
720,18.862428014199253
619,0.0
633,0.0
659,0.0
661,200.0
690,0.0
716,81.94409602078497
843,-939.4117591801296
844,-939.4117591801296
907,0.0
908,0.0
971,0.0
972,0.0
1195,0.0
1197,0.0
2,2, 1, 7, 0,22, 0.00,60.00,Tuesday
7,4.4
718,19.70515295254927
719,6.627529948309592
720,18.79720563961965
619,818.0579001323474
633,256.6173935075386
659,1.7576297021812612
661,171.38482797015376
690,21.993877410595932
716,0.0
843,624.5340188903938
844,624.5340188903938
907,0.0
908,0.0
971,0.0
972,0.0
1195,0.0
1197,0.0
2,2, 1, 7, 0,23, 0.00,60.00,Tuesday
7,4.4
718,18.667403346010076
719,6.240461369417763
720,18.74950667413437
619,335.6382432728514
633,106.00074046704542
659,0.7275312082180748
661,188.15539436184656
690,9.103871545155576
716,0.0
843,258.21971331801797
844,258.21971331801797
907,0.0
908,0.0
971,0.0
972,0.0
1195,0.0
1197,0.0
2,2, 1, 7, 0,24, 0.00,60.00,Tuesday
7,1.1
718,18.357870367176123
719,3.8670121618756967
720,18.6251984082281
619,1510.8162481701563
633,479.6668583222017
659,0.023347395666882757
661,144.1406412381398
690,42.949158416727585
716,0.0
843,1162.937923327283
844,1162.937923327283
907,0.0
908,0.0
971,0.0
972,0.0
1195,0.0
1197,0.0
2,3, 1, 8, 0, 1, 0.00,60.00,Wednesday
7,-1.7
718,18.241682122543615
719,2.0845176251541955
720,18.463060493994607
619,3059.127957084873
633,978.8961141725524
659,0.04914660469046497
661,82.4152439740383
690,90.40830505113072
716,0.0
843,2316.5324859395423
844,2316.5324859395423
907,0.0
908,0.0
971,0.0
972,0.0
1195,0.0
1197,0.0
2,3, 1, 8, 0, 2, 0.00,60.00,Wednesday
7,-1.7
718,18.441702288332525
719,1.589524527207515
720,18.3445017706147
619,3969.468501676646
633,1242.2841868042608
659,0.06252988619437602
661,50.39533333371167
690,115.0277032286477
716,0.0
843,2944.5685627812036
844,2944.5685627812036
907,0.0
908,0.0
971,0.0
972,0.0
1195,0.0
1197,0.0
2,3, 1, 8, 0, 3, 0.00,60.00,Wednesday
7,-3.9
718,18.534171891869576
719,0.1341523537767902
720,18.1955688019488
619,4499.851141819158
633,1452.5414664397993
659,0.0742029173945563
661,22.467248893263392
690,136.50058832562965
716,0.0
843,3279.5590581346314
844,3279.5590581346314
907,0.0
908,0.0
971,0.0
972,0.0
1195,0.0
1197,0.0
2,3, 1, 8, 0, 4, 0.00,60.00,Wednesday
7,-5.0
718,18.522626731810846
719,-0.7489266130804688
720,18.046333905230547
619,4978.2964492194005
633,1623.991895410814
659,0.0835934968978697
661,0.0
690,153.77692668846979
716,0.0
843,3967.2534447712987
844,3967.2534447712987
907,0.0
908,0.0
971,0.0
972,0.0
1195,526.6487028773381
1197,526.6487028773381
2,3, 1, 8, 0, 5, 0.00,60.00,Wednesday
7,-5.0
718,18.579628108477614
719,-1.0294515672637008
720,17.920992956722714
619,4978.7931851859885
633,1623.4133177111407
659,0.0835934968978697
661,0.0
690,153.77692668846979
716,0.0
843,4209.6949128228225
844,4209.6949128228225
907,0.0
908,0.0
971,0.0
972,0.0
1195,865.6066065585956
1197,865.6066065585956
2,3, 1, 8, 0, 6, 0.00,60.00,Wednesday
7,-6.7
718,19.222302092164547
719,-1.6525753430020766
720,17.782151129782406
619,4736.856847754373
633,1602.002234092584
659,0.0835934968978697
661,0.0
690,153.77692668846979
716,77.22435497763641
843,4972.078154597099
844,4972.078154597099
907,0.0
908,0.0
971,0.0
972,0.0
1195,2949.681796809302
1197,2949.681796809302
2,3, 1, 8, 0, 7, 0.00,60.00,Wednesday
7,-7.8
718,19.508701411975252
719,-2.4021296238029812
720,17.659041623677012
619,4567.569047154612
633,1606.640859683731
659,0.0835934968978697
661,0.0
690,153.77692668846979
716,85.44000000000005
843,5644.805778898277
844,5644.805778898277
907,0.0
908,0.0
971,0.0
972,0.0
1195,4214.167807868631
1197,4214.167807868631
2,3, 1, 8, 0, 8, 0.00,60.00,Wednesday
7,-7.8
718,19.637143774865052
719,-2.6990903028547764
720,17.53403211079421
619,4559.935506299696
633,1615.301225062265
659,0.0835934968978697
661,0.0
690,153.77692668846979
716,47.40232713585202
843,5519.17149675576
844,5519.17149675576
907,0.0
908,0.0
971,0.0
972,0.0
1195,3667.440044113748
1197,3667.440044113748
2,3, 1, 8, 0, 9, 0.00,60.00,Wednesday
7,-6.1
718,19.699076840155527
719,-1.5910917062985759
720,17.42872579433539
619,4792.512830614187
633,1643.015671631944
659,0.0835934968978697
661,0.0
690,153.77692668846979
716,0.0
843,4087.923933307995
844,4087.923933307995
907,0.0
908,0.0
971,0.0
972,0.0
1195,1099.535134445835
1197,1099.535134445835
2,3, 1, 8, 0,10, 0.00,60.00,Wednesday
7,-5.0
718,19.743932913641395
719,0.8384768737823766
720,17.316043953545165
619,4535.40589456624
633,1536.2787942031252
659,0.07734594991562745
661,14.947447383078583
690,142.28214103180966
716,0.0
843,3047.6649160394227
844,3047.6649160394227
907,0.0
908,0.0
971,0.0
972,0.0
1195,0.0
1197,0.0
2,3, 1, 8, 0,11, 0.00,60.00,Wednesday
7,-5.0
718,19.801160062375562
719,2.418804499805596
720,17.234620140976386
619,3346.5285179177413
633,1166.01498192399
659,0.05864992582503947
661,59.6782572771301
690,107.88977311196321
716,0.0
843,2320.7425064097606
844,2320.7425064097606
907,0.0
908,0.0
971,0.0
972,0.0
1195,0.0
1197,0.0
2,3, 1, 8, 0,12, 0.00,60.00,Wednesday
7,-2.2
718,20.090702589225348
719,6.431865093326981
720,17.204761390948416
619,1581.2884811101103
633,545.5937785995302
659,0.026763446000544023
661,135.96763625466644
690,49.233026542706156
716,0.0
843,1133.5958281491767
844,1133.5958281491767
907,0.0
908,0.0
971,0.0
972,0.0
1195,0.0
1197,0.0
2,3, 1, 8, 0,13, 0.00,60.00,Wednesday
7,-1.1
718,19.953661586093464
719,9.165380503989875
720,17.17362734701522
619,615.8876863298237
633,214.28128659846908
659,0.010352328982410739
661,175.2317360402839
690,19.04378025254684
716,0.0
843,463.11420084981364
844,463.11420084981364
907,0.0
908,0.0
971,0.0
972,0.0
1195,0.0
1197,0.0
2,3, 1, 8, 0,14, 0.00,60.00,Wednesday
7,-1.1
718,19.88024687039121
719,10.377416890615223
720,17.16435588261085
619,0.0
633,0.0
659,0.0
661,200.0
690,0.0
716,0.0
843,-114.28588954908446
844,-114.28588954908446
907,0.0
908,0.0
971,0.0
972,0.0
1195,0.0
1197,0.0
2,3, 1, 8, 0,15, 0.00,60.00,Wednesday
7,0.6
718,21.202269785617414
719,16.750402274331584
720,17.181688851478796
619,0.0
633,0.0
659,0.0
661,200.0
690,0.0
716,0.0
843,-1267.9461412163346
844,-1267.9461412163346
907,0.0
908,0.0
971,0.0
972,0.0
1195,0.0
1197,0.0
2,3, 1, 8, 0,16, 0.00,60.00,Wednesday
7,0.6
718,20.626599500496198
719,14.399596601178475
720,17.2115820360123
619,0.0
633,0.0
659,0.0
661,200.0
690,0.0
716,85.44000000000005
843,-1604.7426215702344
844,-1604.7426215702344
907,0.0
908,0.0
971,0.0
972,0.0
1195,0.0
1197,0.0
2,3, 1, 8, 0,17, 0.00,60.00,Wednesday
7,0.6
718,21.058670481179004
719,11.927825521602017
720,17.261354552262375
619,0.0
633,0.0
659,0.0
661,200.0
690,0.0
716,72.41586569202589
843,-2217.79483396441
844,-2217.79483396441
907,0.0
908,0.0
971,0.0
972,0.0
1195,0.0
1197,0.0
2,3, 1, 8, 0,18, 0.00,60.00,Wednesday
7,-1.7
718,20.44852276113345
719,6.462542164328792
720,17.30574135454358
619,0.0
633,0.0
659,0.0
661,200.0
690,0.0
716,0.0
843,-702.2980804163744
844,-702.2980804163744
907,0.0
908,0.0
971,0.0
972,0.0
1195,0.0
1197,0.0
2,3, 1, 8, 0,19, 0.00,60.00,Wednesday
7,-2.8
718,20.09520904499096
719,3.3531405390928497
720,17.35184795619094
619,0.0
633,0.0
659,0.0
661,200.0
690,0.0
716,0.0
843,-338.7711587536287
844,-338.7711587536287
907,0.0
908,0.0
971,0.0
972,0.0
1195,0.0
1197,0.0
2,3, 1, 8, 0,20, 0.00,60.00,Wednesday
7,-2.8
718,19.029039612246972
719,0.9024216297394654
720,17.36017028952144
619,0.0
633,0.0
659,0.0
661,200.0
690,0.0
716,85.44000000000005
843,-34.05781550868596
844,-34.05781550868596
907,0.0
908,0.0
971,0.0
972,0.0
1195,0.0
1197,0.0
2,3, 1, 8, 0,21, 0.00,60.00,Wednesday
7,-3.3
718,19.47229751449055
719,0.23334443573477565
720,17.303258134514458
619,1782.9994990093287
633,613.4162093472268
659,0.9681837107864363
661,126.0724421232434
690,56.82205873993001
716,51.500269248417176
843,691.1681225483098
844,691.1681225483098
907,0.0
908,0.0
971,0.0
972,0.0
1195,0.0
1197,0.0
2,3, 1, 8, 0,22, 0.00,60.00,Wednesday
7,-2.8
718,19.723309935148198
719,-0.3512153667638631
720,17.27801968513594
619,1596.6261905838392
633,552.3910894441436
659,0.027410302553783294
661,134.4200121517304
690,50.42292070320843
716,0.0
843,1129.8917007967284
844,1129.8917007967284
907,0.0
908,0.0
971,0.0
972,0.0
1195,0.0
1197,0.0
2,3, 1, 8, 0,23, 0.00,60.00,Wednesday
7,-2.8
718,18.89351265466638
719,-1.0672523574288681
720,17.22399558360456
619,1157.4300306328855
633,407.00707854009
659,0.02009581935086426
661,151.92013710009928
690,36.96748291625019
716,0.0
843,781.7871594174676
844,781.7871594174676
907,0.0
908,0.0
971,0.0
972,0.0
1195,0.0
1197,0.0
2,3, 1, 8, 0,24, 0.00,60.00,Wednesday
7,-2.8
718,18.877655367186822
719,-1.5704294999237594
720,17.137130930320456
619,1573.0159246688427
633,536.7100973297769
659,0.026939348525290865
661,135.5467840800966
690,49.556573671090696
716,0.0
843,1111.6797061423158
844,1111.6797061423158
907,0.0
908,0.0
971,0.0
972,0.0
1195,0.0
1197,0.0
2,4, 1, 9, 0, 1, 0.00,60.00,Thursday
7,-3.3
718,18.60039243609859
719,-1.826045328496263
720,17.052570932070363
619,2001.7673340600886
633,682.7747250573827
659,3.0329473581210586
661,117.12494430542976
690,63.65948135745393
716,0.0
843,1399.7649783539127
844,1399.7649783539127
907,0.0
908,0.0
971,0.0
972,0.0
1195,0.0
1197,0.0
2,4, 1, 9, 0, 2, 0.00,60.00,Thursday
7,-3.3
718,18.57458172513727
719,-1.6761147355749293
720,16.947569760789932
619,2649.4408329115417
633,884.2858530474155
659,3.9502776949094893
661,92.05896267930702
690,82.91373683863304
716,0.0
843,1855.1054231302733
844,1855.1054231302733
907,0.0
908,0.0
971,0.0
972,0.0
1195,0.0
1197,0.0
2,4, 1, 9, 0, 3, 0.00,60.00,Thursday
7,-3.0
718,18.552253454758915
719,-0.8762664407939251
720,16.849594950848136
619,3175.667184247125
633,1042.967236752006
659,23.74309011023954
661,69.7642222801193
690,99.66069041695165
716,0.0
843,2218.2705023590697
844,2218.2705023590697
907,0.0
908,0.0
971,0.0
972,0.0
1195,0.0
1197,0.0
2,4, 1, 9, 0, 4, 0.00,60.00,Thursday
7,-2.0
718,18.652094861502647
719,-0.6025734970063785
720,16.767097476287265
619,3231.8104977550556
633,1038.6865017315477
659,0.052162681856750256
661,75.1991870360921
690,95.95653410804738
716,0.0
843,2303.2081822184427
844,2303.2081822184427
907,0.0
908,0.0
971,0.0
972,0.0
1195,0.0
1197,0.0
2,4, 1, 9, 0, 5, 0.00,60.00,Thursday
7,-1.1
718,18.59685751541979
719,0.245170237357801
720,16.682842888015703
619,3301.3171939313997
633,1045.6972495291025
659,0.05201334112514967
661,75.55648930754282
690,95.68191870017236
716,0.0
843,2350.9452210771706
844,2350.9452210771706
907,0.0
908,0.0
971,0.0
972,0.0
1195,0.0
1197,0.0
2,4, 1, 9, 0, 6, 0.00,60.00,Thursday
7,-0.6
718,19.312392307280003
719,1.6120659284083494
720,16.58515766651729
619,4757.636974763162
633,1448.6871715856735
659,0.07184364323892885
661,28.111884524453433
690,132.16112647965866
716,0.0
843,3449.985003615373
844,3449.985003615373
907,0.0
908,0.0
971,0.0
972,0.0
1195,0.0
1197,0.0
2,4, 1, 9, 0, 7, 0.00,60.00,Thursday
7,-1.0
718,19.502263205095602
719,2.3905699656565855
720,16.533484207333608
619,5550.903517515641
633,1703.2762262625565
659,0.0835934968978697
661,0.0
690,153.77692668846979
716,85.44000000000005
843,3427.9765491474336
844,3427.9765491474336
907,0.0
908,0.0
971,0.0
972,0.0
1195,490.93935402379884
1197,490.93935402379884
2,4, 1, 9, 0, 8, 0.00,60.00,Thursday
7,0.0
718,19.639388995498205
719,2.680065267682735
720,16.474340613683346
619,5415.912549315844
633,1647.8146439467312
659,0.0798742692383797
661,8.898366015322857
690,146.93409118801836
716,85.44000000000005
843,2941.8331543097556
844,2941.8331543097556
907,0.0
908,0.0
971,0.0
972,0.0
1195,0.0
1197,0.0
2,4, 1, 9, 0, 9, 0.00,60.00,Thursday
7,1.1
718,19.720918352536717
719,3.479883348650979
720,16.41531721626646
619,4212.781099107007
633,1293.7583434438332
659,32.18223744016275
661,46.511341754969315
690,117.66603075580487
716,58.49449044900868
843,2450.1330612391885
844,2450.1330612391885
907,0.0
908,0.0
971,0.0
972,0.0
1195,0.0
1197,0.0
2,4, 1, 9, 0,10, 0.00,60.00,Thursday
7,3.0
718,19.775428200584063
719,5.119791361539791
720,16.35139841553756
619,2324.263014914652
633,720.4500902367486
659,23.685929280243563
661,115.14257781435676
690,65.07495021711658
716,0.0
843,1719.726236227898
844,1719.726236227898
907,0.0
908,0.0
971,0.0
972,0.0
1195,0.0
1197,0.0
2,4, 1, 9, 0,11, 0.00,60.00,Thursday
7,3.3
718,19.79023795279754
719,7.607703183788801
720,16.297497390292772
619,1194.4055925160892
633,377.36316027408265
659,9.935813615451599
661,156.12954318038945
690,33.66588961976188
716,0.0
843,900.4251631151183
844,900.4251631151183
907,0.0
908,0.0
971,0.0
972,0.0
1195,0.0
1197,0.0
2,4, 1, 9, 0,12, 0.00,60.00,Thursday
7,7.0
718,19.610393173711856
719,10.642918309709511
720,16.26491489014572
619,272.9571505404654
633,76.09410240468546
659,0.0
661,192.17733975885628
690,6.014723252055837
716,0.0
843,214.2130630276497
844,214.2130630276497
907,0.0
908,0.0
971,0.0
972,0.0
1195,0.0
1197,0.0
2,4, 1, 9, 0,13, 0.00,60.00,Thursday
7,10.0
718,20.522235675844282
719,14.842187102139757
720,16.27171972428913
619,0.0
633,0.0
659,0.0
661,0.0
690,0.0
716,0.0
843,-277.6869952020443
844,-277.6869952020443
907,0.0
908,0.0
971,0.0
972,0.0
1195,0.0
1197,0.0
2,4, 1, 9, 0,14, 0.00,60.00,Thursday
7,10.0
718,21.31835671194956
719,16.737377996412015
720,16.30762398987628
619,0.0
633,0.0
659,0.0
661,0.0
690,0.0
716,0.0
843,-1123.4670999933915
844,-1123.4670999933915
907,0.0
908,0.0
971,0.0
972,0.0
1195,0.0
1197,0.0
2,4, 1, 9, 0,15, 0.00,60.00,Thursday
7,12.2
718,22.5800635728228
719,17.83718976938019
720,16.37202609373278
619,0.0
633,0.0
659,0.0
661,0.0
690,0.0
716,0.0
843,-2097.0859710267086
844,-2097.0859710267086
907,0.0
908,0.0
971,0.0
972,0.0
1195,0.0
1197,0.0
2,4, 1, 9, 0,16, 0.00,60.00,Thursday
7,12.2
718,23.319870072298386
719,17.337842161732404
720,16.46769398081625
619,0.0
633,0.0
659,0.0
661,0.0
690,3.707016591950975
716,0.0
843,-2990.8482767979694
844,-2990.8482767979694
907,0.0
908,0.0
971,0.0
972,0.0
1195,0.0
1197,0.0
2,4, 1, 9, 0,17, 0.00,60.00,Thursday
7,12.2
718,22.891781908403107
719,15.837580572998116
720,16.563704904937765
619,0.0
633,0.0
659,0.0
661,0.0
690,0.0
716,64.23486084622097
843,-3095.8300878709015
844,-3095.8300878709015
907,0.0
908,0.0
971,0.0
972,0.0
1195,0.0
1197,0.0
2,4, 1, 9, 0,18, 0.00,60.00,Thursday
7,9.4
718,23.15417603321879
719,13.208166577587765
720,16.671329271586384
619,0.0
633,0.0
659,0.0
661,200.0
690,0.0
716,0.0
843,-2901.7792616580955
844,-2901.7792616580955
907,0.0
908,0.0
971,0.0
972,0.0
1195,0.0
1197,0.0
2,4, 1, 9, 0,19, 0.00,60.00,Thursday
7,8.9
718,21.855217391585267
719,10.996152383616794
720,16.769510087002114
619,0.0
633,0.0
659,0.0
661,200.0
690,0.0
716,85.44000000000005
843,-2223.0344261160517
844,-2223.0344261160517
907,0.0
908,0.0
971,0.0
972,0.0
1195,0.0
1197,0.0
2,4, 1, 9, 0,20, 0.00,60.00,Thursday
7,8.9
718,22.027681436330266
719,9.758617342805538
720,16.839415757423126
619,0.0
633,0.0
659,0.0
661,200.0
690,0.0
716,46.75227285794039
843,-2764.063374936217
844,-2764.063374936217
907,0.0
908,0.0
971,0.0
972,0.0
1195,0.0
1197,0.0
2,4, 1, 9, 0,21, 0.00,60.00,Thursday
7,7.8
718,22.48722851913802
719,8.801027867447011
720,16.88328444074542
619,0.0
633,0.0
659,0.0
661,200.0
690,0.0
716,0.0
843,-2251.4405208935605
844,-2251.4405208935605
907,0.0
908,0.0
971,0.0
972,0.0
1195,0.0
1197,0.0
2,4, 1, 9, 0,22, 0.00,60.00,Thursday
7,7.8
718,22.289755320706277
719,8.232012288536769
720,16.906657937055083
619,0.0
633,0.0
659,0.0
661,200.0
690,0.0
716,0.0
843,-1564.908628688705
844,-1564.908628688705
907,0.0
908,0.0
971,0.0
972,0.0
1195,0.0
1197,0.0
2,4, 1, 9, 0,23, 0.00,60.00,Thursday
7,7.8
718,21.76894073502552
719,7.869440356794082
720,16.914466201639936
619,0.0
633,0.0
659,0.0
661,200.0
690,0.0
716,0.0
843,-1911.8502592142604
844,-1911.8502592142604
907,0.0
908,0.0
971,0.0
972,0.0
1195,0.0
1197,0.0
2,4, 1, 9, 0,24, 0.00,60.00,Thursday
7,6.1
718,20.586480929928356
719,6.939871032807382
720,16.90770923038804
619,0.0
633,0.0
659,0.0
661,200.0
690,0.0
716,0.0
843,-1232.5561089797648
844,-1232.5561089797648
907,0.0