Program Version,EnergyPlus, Version 22.2.0-c249759bad, YMD=2023.09.01 14:31
1,5,Environment Title[],Latitude[deg],Longitude[deg],Time Zone[],Elevation[m]
2,8,Day of Simulation[],Month[],Day of Month[],DST Indicator[1=yes 0=no],Hour[],StartMinute[],EndMinute[],DayType
3,5,Cumulative Day of Simulation[],Month[],Day of Month[],DST Indicator[1=yes 0=no],DayType  ! When Daily Report Variables Requested
4,2,Cumulative Days of Simulation[],Month[]  ! When Monthly Report Variables Requested
5,1,Cumulative Days of Simulation[] ! When Run Period Report Variables Requested
6,1,Calendar Year of Simulation[] ! When Annual Report Variables Requested
7,1,Environment,Site Outdoor Air Drybulb Temperature [C] !Hourly
545,1,LIVING,Zone Mean Air Temperature [C] !Hourly
546,1,ATTIC,Zone Mean Air Temperature [C] !Hourly
547,1,CRAWLSPACE,Zone Mean Air Temperature [C] !Hourly
548,1,FAN,Fan Electricity Rate [W] !Hourly
720,1,LIVING,Zone Predicted Sensible Load to Heating Setpoint Heat Transfer Rate [W] !Hourly
721,1,LIVING,Zone System Predicted Sensible Load to Heating Setpoint Heat Transfer Rate [W] !Hourly
784,1,ATTIC,Zone Predicted Sensible Load to Heating Setpoint Heat Transfer Rate [W] !Hourly
785,1,ATTIC,Zone System Predicted Sensible Load to Heating Setpoint Heat Transfer Rate [W] !Hourly
848,1,CRAWLSPACE,Zone Predicted Sensible Load to Heating Setpoint Heat Transfer Rate [W] !Hourly
849,1,CRAWLSPACE,Zone System Predicted Sensible Load to Heating Setpoint Heat Transfer Rate [W] !Hourly
1121,1,DX_HEATING_COIL,Heating Coil Heating Rate [W] !Hourly
1135,1,DX_HEATING_COIL,Heating Coil Electricity Rate [W] !Hourly
1161,1,DX_HEATING_COIL,Heating Coil Defrost Electricity Rate [W] !Hourly
1163,1,DX_HEATING_COIL,Heating Coil Crankcase Heater Electricity Rate [W] !Hourly
1166,1,HEATING_RESISTANCE_BACKUP,Heating Coil Heating Rate [W] !Hourly
1168,1,HEATING_RESISTANCE_BACKUP,Heating Coil Electricity Rate [W] !Hourly
End of Data Dictionary
1,EXTREME_WINTER,  36.01, -94.17,  -6.00, 381.00
2,1, 1, 8, 0, 1, 0.00,60.00,Monday
7,-15.0
545,18.118758690181934
546,-4.286097357649044
547,17.944219767362974
548,159.90951020172767
720,3065.8144478772465
721,3065.8144478772465
784,0.0
785,0.0
848,0.0
849,0.0
1121,3483.0426734835546
1135,1418.2248880134928
1161,16.245159819199706
1163,0.0
1166,963.2947915061686
1168,963.2947915061686
2,1, 1, 8, 0, 2, 0.00,60.00,Monday
7,-15.6
545,18.391150607137508
546,-6.029421304713487
547,17.481168502558738
548,159.90951020172767
720,4104.970303264441
721,4104.970303264441
784,0.0
785,0.0
848,0.0
849,0.0
1121,3411.905229972544
1135,1388.1902512924312
1161,21.96796742635449
1163,0.0
1166,2355.675021123804
1168,2355.675021123804
2,1, 1, 8, 0, 3, 0.00,60.00,Monday
7,-15.6
545,18.502361087427634
546,-7.290963341270624
547,17.26021309697762
548,159.90951020172767
720,4505.643633157009
721,4505.643633157009
784,0.0
785,0.0
848,0.0
849,0.0
1121,3405.659066417217
1135,1394.3142232344828
1161,22.001116215772495
1163,0.0
1166,2978.4504265625014
1168,2978.4504265625014
2,1, 1, 8, 0, 4, 0.00,60.00,Monday
7,-15.6
545,18.54565973886626
546,-8.08725365708157
547,16.99951001855402
548,159.90951020172767
720,4693.890785553123
721,4693.890785553123
784,0.0
785,0.0
848,0.0
849,0.0
1121,3414.5006218947565
1135,1401.4158331848741
1161,18.194657224735842
1163,0.0
1166,3288.775468523839
1168,3288.775468523839
2,1, 1, 8, 0, 5, 0.00,60.00,Monday
7,-16.1
545,18.56250349148129
546,-8.705748168826101
547,16.764196158534403
548,159.90951020172767
720,4819.365035075325
721,4819.365035075325
784,0.0
785,0.0
848,0.0
849,0.0
1121,3351.964083861055
1135,1392.5377847059535
1161,20.07224940066312
1163,0.0
1166,3560.7194460066607
1168,3560.7194460066607
2,1, 1, 8, 0, 6, 0.00,60.00,Monday
7,-15.6
545,19.31115565657068
546,-8.854216782923581
547,16.544952696164085
548,159.90951020172767
720,5986.328485420016
721,5986.328485420016
784,0.0
785,0.0
848,0.0
849,0.0
1121,3413.5077619917784
1135,1402.256242836623
1161,18.231041773171704
1163,0.0
1166,4890.870288252325
1168,4890.870288252325
2,1, 1, 8, 0, 7, 0.00,60.00,Monday
7,-15.0
545,19.5639397776962
546,-8.519618503554216
547,16.36519315639076
548,159.90951020172767
720,5974.415502727752
721,5974.415502727752
784,0.0
785,0.0
848,0.0
849,0.0
1121,3469.206757208851
1135,1431.672814493649
1161,16.361231712212835
1163,0.0
1166,4925.740345927083
1168,4925.740345927083
2,1, 1, 8, 0, 8, 0.00,60.00,Monday
7,-13.3
545,19.645785624316584
546,-7.949496927923724
547,16.176723038384804
548,159.90951020172767
720,5968.879523104479
721,5968.879523104479
784,0.0
785,0.0
848,0.0
849,0.0
1121,3691.5042782688715
1135,1475.153904845513
1161,6.767534574469442
1163,0.0
1166,4725.923413500805
1168,4725.923413500805
2,1, 1, 8, 0, 9, 0.00,60.00,Monday
7,-11.1
545,19.683574698008208
546,-6.228101634386201
547,15.996364372321535
548,159.90951020172767
720,5557.056027191298
721,5557.056027191298
784,0.0
785,0.0
848,0.0
849,0.0
1121,3958.3473448363716
1135,1509.0747437580526
1161,6.49048561467093
1163,0.0
1166,3990.6595554493174
1168,3990.6595554493174
2,1, 1, 8, 0,10, 0.00,60.00,Monday
7,-8.9
545,19.733523285676892
546,-3.3201118063085318
547,15.844261296405742
548,159.90951020172767
720,4080.307255712609
721,4080.307255712609
784,0.0
785,0.0
848,0.0
849,0.0
1121,4259.489582614389
1135,1548.961792830963
1161,0.08077781071617268
1163,0.0
1166,1897.69641502777
1168,1897.69641502777
2,1, 1, 8, 0,11, 0.00,60.00,Monday
7,-6.1
545,19.776934066619294
546,0.3424968185413493
547,15.724729900360117
548,158.46087325376976
720,2871.4044352263754
721,2871.4044352263754
784,0.0
785,0.0
848,0.0
849,0.0
1121,4583.348848347893
1135,1574.0780035741213
1161,0.0800472535636785
1163,1.8088065175747792
1166,0.0
1168,0.0
2,1, 1, 8, 0,12, 0.00,60.00,Monday
7,-5.0
545,19.8319357778711
546,1.8569787892718541
547,15.616441964956863
548,141.87203382178913
720,2749.925952632997
721,2749.925952632997
784,0.0
785,0.0
848,0.0
849,0.0
1121,4182.789670492763
1135,1423.6452407791735
1161,0.07166720213781803
1163,22.557205989071427
1166,0.0
1168,0.0
2,1, 1, 8, 0,13, 0.00,60.00,Monday
7,-3.9
545,19.875924784854465
546,3.272873867191627
547,15.54341158484175
548,116.55630587123923
720,2337.8283299737413
721,2337.8283299737413
784,0.0
785,0.0
848,0.0
849,0.0
1121,3478.6592511728204
1135,1181.8345853913809
1161,0.05887877108303006
1163,54.22043365371421
1166,0.0
1168,0.0
2,1, 1, 8, 0,14, 0.00,60.00,Monday
7,-2.2
545,20.007003571238236
546,4.511843389503389
547,15.48974242311158
548,83.48131715367741
720,1736.1866110398114
721,1736.1866110398114
784,0.0
785,0.0
848,0.0
849,0.0
1121,2550.394021790533
1135,859.5880634014038
1161,0.04217074360645631
1163,95.58829774520436
1166,0.0
1168,0.0
2,1, 1, 8, 0,15, 0.00,60.00,Monday
7,-1.7
545,19.74805584637676
546,4.448969911918879
547,15.445551039308022
548,61.87802448308273
720,1306.0593848141343
721,1306.0593848141343
784,0.0
785,0.0
848,0.0
849,0.0
1121,1885.88401228932
1135,641.5376159079714
1161,0.031257780160958926
1163,122.60800364895073
1166,0.0
1168,0.0
2,1, 1, 8, 0,16, 0.00,60.00,Monday
7,-1.1
545,20.157239678807606
546,4.399019417718564
547,15.41769557680082
548,48.104693400452994
720,1046.5363097388417
721,1046.5363097388417
784,0.0
785,0.0
848,0.0
849,0.0
1121,1478.01717224835
1135,498.7941485628061
1161,0.024300142249169245
1163,139.83461043639286
1166,0.0
1168,0.0
2,1, 1, 8, 0,17, 0.00,60.00,Monday
7,-1.7
545,20.00456405197101
546,2.9259603360111224
547,15.397110450590976
548,19.200875977924156
720,350.410224235382
721,350.410224235382
784,0.0
785,0.0
848,0.0
849,0.0
1121,567.3108590084358
1135,199.69599888966985
1161,0.009699352390959828
1163,175.98510703628688
1166,0.0
1168,0.0
2,1, 1, 8, 0,18, 0.00,60.00,Monday
7,-2.8
545,20.01924727102889
546,1.348983058543546
547,15.400256861031888
548,41.46290321932572
720,894.9912703251375
721,894.9912703251375
784,0.0
785,0.0
848,0.0
849,0.0
1121,1207.6298704422006
1135,425.88222496122245
1161,0.02094507980446525
1163,148.14150168525973
1166,0.0
1168,0.0
2,1, 1, 8, 0,19, 0.00,60.00,Monday
7,-3.9
545,19.778708299154523
546,-0.6340641676963124
547,15.378980510872099
548,41.76280529557919
720,832.3715855139144
721,832.3715855139144
784,0.0
785,0.0
848,0.0
849,0.0
1121,1179.1162698131543
1135,425.10506019529316
1161,0.02109660791213877
1163,147.76632908196663
1166,0.0
1168,0.0
2,1, 1, 8, 0,20, 0.00,60.00,Monday
7,-3.9
545,19.71149715546236
546,-1.8502599834172093
547,15.3422975423761
548,47.98099636361412
720,950.9650386147741
721,950.9650386147741
784,0.0
785,0.0
848,0.0
849,0.0
1121,1362.4842629353066
1135,486.08122689337966
1161,0.024237745627383414
1163,139.989099945907
1166,0.0
1168,0.0
2,1, 1, 8, 0,21, 0.00,60.00,Monday
7,-4.4
545,19.689434344513206
546,-2.710030949740087
547,15.292508798049615
548,56.816228973022625
720,1101.2543120857135
721,1101.2543120857135
784,0.0
785,0.0
848,0.0
849,0.0
1121,1601.1124264439964
1135,572.3621595695565
1161,0.02870091052948275
1163,128.93862739031502
1166,0.0
1168,0.0
2,1, 1, 8, 0,22, 0.00,60.00,Monday
7,-6.1
545,19.37347125051405
546,-3.04665711724114
547,15.226291421903907
548,85.91855390309388
720,1612.8561026292446
721,1612.8561026292446
784,0.0
785,0.0
848,0.0
849,0.0
1121,2348.4401308470538
1135,851.0011360162182
1161,1.5565712813440944
1163,92.48232413892204
1166,0.0
1168,0.0
2,1, 1, 8, 0,23, 0.00,60.00,Monday
7,-6.7
545,18.749145816693513
546,-3.6082844825114715
547,15.137560185934618
548,88.20849315139849
720,1552.3159172598625
721,1552.3159172598625
784,0.0
785,0.0
848,0.0
849,0.0
1121,2360.9388379107268
1135,859.3010099945126
1161,6.0622764070380555
1163,89.43294232451
1166,0.0
1168,0.0
2,1, 1, 8, 0,24, 0.00,60.00,Monday
7,-3.9
545,18.70349717852103
546,-2.465327591538079
547,15.048584798054614
548,93.61911376965092
720,1873.0743576526402
721,1873.0743576526402
784,0.0
785,0.0
848,0.0
849,0.0
1121,2763.3351520955816
1135,929.044483446046
1161,0.04729197565351207
1163,82.90849867253544
1166,0.0
1168,0.0
2,2, 1, 9, 0, 1, 0.00,60.00,Tuesday
7,-5.6
545,18.439323873895695
546,-2.0894600291796532
547,14.943553326446414
548,128.0086334925736
720,2515.397279232322
721,2515.397279232322
784,0.0
785,0.0
848,0.0
849,0.0
1121,3645.963887326321
1135,1238.0586105166356
1161,12.20063063798767
1163,39.460989746246675
1166,0.0
1168,0.0
2,2, 1, 9, 0, 2, 0.00,60.00,Tuesday
7,-6.7
545,18.468761765715524
546,-2.1411808806987844
547,14.827588886388765
548,155.53020448717106
720,2973.969240002123
721,2973.969240002123
784,0.0
785,0.0
848,0.0
849,0.0
1121,4339.664186115116
1135,1470.059878610349
1161,27.61785468989258
1163,4.358759887863828
1166,0.0
1168,0.0
2,2, 1, 9, 0, 3, 0.00,60.00,Tuesday
7,-3.9
545,18.559143227353857
546,-1.9155909385016119
547,14.748943973406977
548,149.7707419336852
720,3172.1337686738098
721,3172.1337686738098
784,0.0
785,0.0
848,0.0
849,0.0
1121,4618.758461020586
1135,1477.2498415499417
1161,0.07565713727865309
1163,12.678415995976899
1166,0.0
1168,0.0
2,2, 1, 9, 0, 4, 0.00,60.00,Tuesday
7,-3.9
545,18.5592915801938
546,-0.8595526004326983
547,14.647051488208827
548,159.90951020172767
720,3438.434116881088
721,3438.434116881088
784,0.0
785,0.0
848,0.0
849,0.0
1121,4912.960623035363
1135,1562.3597384968728
1161,12.988657218174051
1163,0.0
1166,89.8501188607679
1168,89.8501188607679
2,2, 1, 9, 0, 5, 0.00,60.00,Tuesday
7,-3.3
545,18.587636326912747
546,-0.1126315091675241
547,14.550336211401783
548,159.90951020172767
720,3859.4982015291625
721,3859.4982015291625
784,0.0
785,0.0
848,0.0
849,0.0
1121,5053.087103606185
1135,1587.5978514809792
1161,0.08077781071617268
1163,0.0
1166,420.1663230342747
1168,420.1663230342747
2,2, 1, 9, 0, 6, 0.00,60.00,Tuesday
7,-4.4
545,19.336749396222164
546,-0.18026083089098355
547,14.44433448048859
548,159.90951020172767
720,5351.537852963433
721,5351.537852963433
784,0.0
785,0.0
848,0.0
849,0.0
1121,4897.16322171262
1135,1573.7165090633628
1161,0.08077781071617268
1163,0.0
1166,2277.855764901035
1168,2277.855764901035
2,2, 1, 9, 0, 7, 0.00,60.00,Tuesday
7,-5.0
545,19.597612418910124
546,-0.10235715867647305
547,14.387319800921103
548,159.90951020172767
720,4890.187202436
721,4890.187202436
784,0.0
785,0.0
848,0.0
849,0.0
1121,4793.916548441825
1135,1588.7488431480967
1161,0.08077781071617268
1163,0.0
1166,1933.4280342006973
1168,1933.4280342006973
2,2, 1, 9, 0, 8, 0.00,60.00,Tuesday
7,-6.1
545,19.67682267138611
546,-0.7958456966920856
547,14.295906304128794
548,159.90951020172767
720,4695.875651570474
721,4695.875651570474
784,0.0
785,0.0
848,0.0
849,0.0
1121,4636.064062971122
1135,1581.9236773166829
1161,0.08077781071617268
1163,0.0
1166,1881.7786828316857
1168,1881.7786828316857
2,2, 1, 9, 0, 9, 0.00,60.00,Tuesday
7,-6.7
545,19.716742615348057
546,-0.32066555349613246
547,14.21554394667431
548,159.90951020172767
720,3731.2597751151134
721,3731.2597751151134
784,0.0
785,0.0
848,0.0
849,0.0
1121,4552.843034177256
1135,1576.1379148419664
1161,0.08077781071617268
1163,0.0
1166,882.4492290089897
1168,882.4492290089897
2,2, 1, 9, 0,10, 0.00,60.00,Tuesday
7,-6.1
545,19.717751939027224
546,0.031078274283308723
547,14.13586889355348
548,159.90951020172767
720,3755.5351275611265
721,3755.5351275611265
784,0.0
785,0.0
848,0.0
849,0.0
1121,4633.199359634263
1135,1585.2329014211778
1161,0.08077781071617268
1163,0.0
1166,814.963589560467
1168,814.963589560467
2,2, 1, 9, 0,11, 0.00,60.00,Tuesday
7,-5.0
545,19.90093888675692
546,2.528989030695191
547,14.066995424114575
548,122.60976995981837
720,2270.412327566655
721,2270.412327566655
784,0.0
785,0.0
848,0.0
849,0.0
1121,3565.2895320668445
1135,1227.0925993687877
1161,0.06193679501564471
1163,46.64898821467014
1166,0.0
1168,0.0
2,2, 1, 9, 0,12, 0.00,60.00,Tuesday
7,-3.3
545,19.998334011684218
546,5.217152160015796
547,14.013141612358032
548,77.03166260933375
720,1451.8739600675708
721,1451.8739600675708
784,0.0
785,0.0
848,0.0
849,0.0
1121,2271.497587996786
1135,785.0309371852065
1161,0.03891274532234276
1163,103.65486517313605
1166,0.0
1168,0.0
2,2, 1, 9, 0,13, 0.00,60.00,Tuesday
7,-2.8
545,19.985097962106238
546,7.438404420576429
547,13.982834158061477
548,47.7113393767333
720,921.9259903873135
721,921.9259903873135
784,0.0
785,0.0
848,0.0
849,0.0
1121,1396.4075880639216
1135,489.2727730411996
1161,0.024101491421533675
1163,140.3264554761986
1166,0.0
1168,0.0
2,2, 1, 9, 0,14, 0.00,60.00,Tuesday
7,-2.2
545,20.308787527505025
546,9.023100047853974
547,13.966320638847371
548,15.270478088340806
720,260.3776119743343
721,260.3776119743343
784,0.0
785,0.0
848,0.0
849,0.0
1121,444.2888503319142
1135,157.38085536528203
1161,0.007713910605272338
1163,180.9009168808089
1166,0.0
1168,0.0
2,2, 1, 9, 0,15, 0.00,60.00,Tuesday
7,-1.7
545,20.251699819498064
546,10.31651859115823
547,13.980658637140829
548,0.0
720,-588.1530267151084
721,-588.1530267151084
784,0.0
785,0.0
848,0.0
849,0.0
1121,0.0
1135,0.0
1161,0.0
1163,200.0
1166,0.0
1168,0.0
2,2, 1, 9, 0,16, 0.00,60.00,Tuesday
7,-2.2
545,20.486381985366794
546,8.002448209399187
547,14.02513961999505
548,0.0
720,-672.193523215743
721,-672.193523215743
784,0.0
785,0.0
848,0.0
849,0.0
1121,0.0
1135,0.0
1161,0.0
1163,200.0
1166,0.0
1168,0.0
2,2, 1, 9, 0,17, 0.00,60.00,Tuesday
7,-3.9
545,20.99118153712487
546,6.027168822119209
547,14.0767573477211
548,0.0
720,-1138.9870081875688
721,-1138.9870081875688
784,0.0
785,0.0
848,0.0
849,0.0
1121,0.0
1135,0.0
1161,0.0
1163,200.0
1166,0.0
1168,0.0
2,2, 1, 9, 0,18, 0.00,60.00,Tuesday
7,-5.6
545,19.768793287013413
546,1.6330870532172654
547,14.121431350371038
548,2.6403181698649307
720,11.942271352736498
721,11.942271352736498
784,0.0
785,0.0
848,0.0
849,0.0
1121,68.69601534853034
1135,26.961129616366737
1161,0.0013337681995224627
1163,196.6976866847533
1166,0.0
1168,0.0
2,2, 1, 9, 0,19, 0.00,60.00,Tuesday
7,-7.2
545,19.477598983125336
546,-1.265426512946762
547,14.170391846647282
548,31.88206301836559
720,605.7752102296727
721,605.7752102296727
784,0.0
785,0.0
848,0.0
849,0.0
1121,813.274161733729
1135,313.5911886798928
1161,0.016105402674043787
1163,160.12419120732795
1166,0.0
1168,0.0
2,2, 1, 9, 0,20, 0.00,60.00,Tuesday
7,-8.3
545,19.565957860710817
546,-2.7871982480894766
547,14.180275024168491
548,66.62281038813373
720,1201.2451875835668
721,1201.2451875835668
784,0.0
785,0.0
848,0.0
849,0.0
1121,1688.4970339430984
1135,645.390052683467
1161,0.033654948947645744
1163,116.67278761515725
1166,0.0
1168,0.0
2,2, 1, 9, 0,21, 0.00,60.00,Tuesday
7,-9.4
545,19.51801720911375
546,-4.238348596223767
547,14.158159630881046
548,89.36270356109235
720,1472.972861654016
721,1472.972861654016
784,0.0
785,0.0
848,0.0
849,0.0
1121,2208.921082715346
1135,854.0438681514436
1161,5.076498165830896
1163,87.9690229207575
1166,0.0
1168,0.0
2,2, 1, 9, 0,22, 0.00,60.00,Tuesday
7,-11.1
545,19.29899618525674
546,-5.368641506971439
547,14.109446043050516
548,125.45366547316367
720,1909.7664499606253
721,1909.7664499606253
784,0.0
785,0.0
848,0.0
849,0.0
1121,2988.4072310340052
1135,1170.572247936759
1161,18.100686216644892
1163,41.991178243188365
1166,0.0
1168,0.0
2,2, 1, 9, 0,23, 0.00,60.00,Tuesday
7,-11.7
545,18.70741197323735
546,-6.025771518522383
547,14.035103562114639
548,144.0651397097973
720,2074.7057132621285
721,2074.7057132621285
784,0.0
785,0.0
848,0.0
849,0.0
1121,3413.110331118364
1135,1329.60947438968
1161,23.322468342231964
1163,18.32145485119554
1166,0.0
1168,0.0
2,2, 1, 9, 0,24, 0.00,60.00,Tuesday
7,-12.2
545,18.580472476994565
546,-6.365325092315232
547,13.92861537218651
548,159.90951020172767
720,2728.9593637382513
721,2728.9593637382513
784,0.0
785,0.0
848,0.0
849,0.0
1121,3777.1179837070417
1135,1437.4921546561734
1161,28.3867838265245
1163,0.0
1166,606.0154549591571
1168,606.0154549591571
2,3, 1,10, 0, 1, 0.00,60.00,Wednesday
7,-12.8
545,18.569138597887164
546,-6.798205955875222
547,13.833745619308147
548,159.90951020172767
720,3605.3588799260488
721,3605.3588799260488
784,0.0
785,0.0
848,0.0
849,0.0
1121,3715.1461454778787
1135,1428.257652512646
1161,26.50826340666182
1163,0.0
1166,1735.3972514803745
1168,1735.3972514803745
2,3, 1,10, 0, 2, 0.00,60.00,Wednesday
7,-13.9
545,18.57039317122934
546,-7.163013164530725
547,13.722198979297945
548,159.90951020172767
720,4098.374430256956
721,4098.374430256956
784,0.0
785,0.0
848,0.0
849,0.0
1121,3596.5206717173046
1135,1416.6695469502104
1161,23.335252986099302
1163,0.0
1166,2469.6695957116854
1168,2469.6695957116854
2,3, 1,10, 0, 3, 0.00,60.00,Wednesday
7,-13.9
545,18.57330691735956
546,-7.719927258151627
547,13.617005220399587
548,159.90951020172767
720,4403.379928243212
721,4403.379928243212
784,0.0
785,0.0
848,0.0
849,0.0
1121,3574.1436181180457
1135,1407.696719285656
1161,30.493242034462
1163,0.0
1166,2880.553644252679
1168,2880.553644252679
2,3, 1,10, 0, 4, 0.00,60.00,Wednesday
7,-13.9
545,18.573975126190064
546,-8.04380534454673
547,13.50634151898933
548,159.90951020172767
720,4621.954497890132
721,4621.954497890132
784,0.0
785,0.0
848,0.0
849,0.0
1121,3585.3511604531536
1135,1412.0209770202412
1161,26.94591922410344
1163,0.0
1166,3162.032954410471
1168,3162.032954410471
2,3, 1,10, 0, 5, 0.00,60.00,Wednesday
7,-14.4
545,18.575256771109885
546,-8.384291916725827
547,13.390401833349706
548,159.90951020172767
720,4765.930887379636
721,4765.930887379636
784,0.0
785,0.0
848,0.0
849,0.0
1121,3534.943214198063
1135,1407.78926897172
1161,24.61549618730509
1163,0.0
1166,3406.687330843859
1168,3406.687330843859
2,3, 1,10, 0, 6, 0.00,60.00,Wednesday
7,-13.9
545,19.32285263363462
546,-8.333083164749153
547,13.282220414159259
548,159.90951020172767
720,5839.5308277123495
721,5839.5308277123495
784,0.0
785,0.0
848,0.0
849,0.0
1121,3585.536659032585
1135,1411.7476509194007
1161,26.963898093617942
1163,0.0
1166,4616.78890410183
1168,4616.78890410183
2,3, 1,10, 0, 7, 0.00,60.00,Wednesday
7,-13.9
545,19.57403363510898
546,-8.322697090744684
547,13.203663928654564
548,159.90951020172767
720,5666.969218721873
721,5666.969218721873
784,0.0
785,0.0
848,0.0
849,0.0
1121,3567.3401631203988
1135,1430.5647458204041
1161,26.963898093617942
1163,0.0
1166,4520.829333577018
1168,4520.829333577018
2,3, 1,10, 0, 8, 0.00,60.00,Wednesday
7,-13.3
545,19.65809239754119
546,-8.290231369384935
547,13.106044528743723
548,159.90951020172767
720,5308.387990238431
721,5308.387990238431
784,0.0
785,0.0
848,0.0
849,0.0
1121,3625.1606419871564
1135,1443.1124341144853
1161,28.848056591739805
1163,0.0
1166,4076.6922302282296
1168,4076.6922302282296
2,3, 1,10, 0, 9, 0.00,60.00,Wednesday
7,-10.0
545,19.714563885210424
546,-5.583021612343326
547,13.03538940798596
548,159.90951020172767
720,3856.4180491806565
721,3856.4180491806565
784,0.0
785,0.0
848,0.0
849,0.0
1121,4012.560883826768
1135,1487.8744017333534
1161,31.274504287764216
1163,0.0
1166,2022.6114745439254
1168,2022.6114745439254
2,3, 1,10, 0,10, 0.00,60.00,Wednesday
7,-4.4
545,19.7769802955373
546,-0.8522411556241568
547,12.98794191272497
548,155.9757547746744
720,2811.5615612201436
721,2811.5615612201436
784,0.0
785,0.0
848,0.0
849,0.0
1121,4688.56009035676
1135,1553.9836976977767
1161,11.55140262174792
1163,4.556116096718377
1166,0.0
1168,0.0
2,3, 1,10, 0,11, 0.00,60.00,Wednesday
7,-1.1
545,20.022590482984683
546,3.3768131344225334
547,12.876682038363366
548,93.7339786340903
720,1802.291766624372
721,1802.291766624372
784,0.0
785,0.0
848,0.0
849,0.0
1121,2978.2942296145625
1135,969.8026071339966
1161,0.04734982894038893
1163,82.76525813069868
1166,0.0
1168,0.0
2,3, 1,10, 0,12, 0.00,60.00,Wednesday
7,-0.6
545,19.8357732190318
546,6.109222490732691
547,12.837375680141886
548,67.62105963751027
720,1398.5197383074756
721,1398.5197383074756
784,0.0
785,0.0
848,0.0
849,0.0
1121,2134.62183774272
1135,706.0450134520279
1161,0.034158837176352486
1163,115.42519691112778
1166,0.0
1168,0.0
2,3, 1,10, 0,13, 0.00,60.00,Wednesday
7,-0.6
545,19.712745396533087
546,6.687636925846635
547,12.838302550815744
548,66.96476228716459
720,1525.984673798086
721,1525.984673798086
784,0.0
785,0.0
848,0.0
849,0.0
1121,2114.9287204846005
1135,696.597946414121
1161,0.03382730775052198
1163,116.24603972152627
1166,0.0
1168,0.0
2,3, 1,10, 0,14, 0.00,60.00,Wednesday
7,-0.6
545,19.784032526857523
546,6.3309854371643555
547,12.859913714428158
548,70.11920965778125
720,1652.8235618422113
721,1652.8235618422113
784,0.0
785,0.0
848,0.0
849,0.0
1121,2220.9843501856985
1135,727.6486716815956
1161,0.03542077940756122
1163,112.30071948342726
1166,0.0
1168,0.0
2,3, 1,10, 0,15, 0.00,60.00,Wednesday
7,0.0
545,19.88718391877645
546,6.759605040983799
547,12.876237483764452
548,59.72596899281527
720,1404.90700810425
721,1404.90700810425
784,0.0
785,0.0
848,0.0
849,0.0
1121,1907.9479329278647
1135,623.9723640802184
1161,0.030170603854818533
1163,125.29977332307665
1166,0.0
1168,0.0
2,3, 1,10, 0,16, 0.00,60.00,Wednesday
7,-0.6
545,19.749223307722954
546,5.711781459888054
547,12.906338309518677
548,59.43503767983975
720,1386.1469637178197
721,1386.1469637178197
784,0.0
785,0.0
848,0.0
849,0.0
1121,1866.4462041302122
1135,618.960676309903
1161,0.030023660900183286
1163,125.66359342003759
1166,0.0
1168,0.0
2,3, 1,10, 0,17, 0.00,60.00,Wednesday
7,-1.1
545,19.79808709473478
546,4.952627288966512
547,12.934027603084202
548,61.60003580775585
720,1415.9781065479492
721,1415.9781065479492
784,0.0
785,0.0
848,0.0
849,0.0
1121,1912.3259500640027
1135,637.0365636847752
1161,0.031117330105984938
1163,122.95574779732208
1166,0.0
1168,0.0
2,3, 1,10, 0,18, 0.00,60.00,Wednesday
7,-1.1
545,19.91293716014629
546,3.744728568814755
547,12.952574975924467
548,59.959827157055955
720,1360.7991316324733
721,1360.7991316324733
784,0.0
785,0.0
848,0.0
849,0.0
1121,1858.7245836237626
1135,620.7061920607188
1161,0.030288776854491262
1163,125.00718554773339
1166,0.0
1168,0.0
2,3, 1,10, 0,19, 0.00,60.00,Wednesday
7,-1.1
545,19.627144444683818
546,2.2688966175492307
547,12.955986892766433
548,56.52397015190341
720,1254.5489872040362
721,1254.5489872040362
784,0.0
785,0.0
848,0.0
849,0.0
1121,1746.8719377055622
1135,586.4703321406107
1161,0.02855314980685823
1163,129.30447222149945
1166,0.0
1168,0.0
2,3, 1,10, 0,20, 0.00,60.00,Wednesday
7,-1.1
545,19.80282247441237
546,1.9187562808720529
547,12.95380124876751
548,60.6060283081831
720,1349.4738641887252
721,1349.4738641887252
784,0.0
785,0.0
848,0.0
849,0.0
1121,1881.2586752091822
1135,625.3022708090201
1161,0.03061520590354901
1163,124.19897090026114
1166,0.0
1168,0.0
2,3, 1,10, 0,21, 0.00,60.00,Wednesday
7,-1.7
545,19.740196455778342
546,1.069226514632803
547,12.944923893456954
548,63.220656322967585
720,1367.7102267430346
721,1367.7102267430346
784,0.0
785,0.0
848,0.0
849,0.0
1121,1932.0157977474742
1135,651.1667828356889
1161,0.03193601222155718
1163,120.92875026343538
1166,0.0
1168,0.0
2,3, 1,10, 0,22, 0.00,60.00,Wednesday
7,-1.1
545,19.66765921748788
546,1.1682782277167711
547,12.9329568104166
548,70.89911341828132
720,1572.0381607168492
721,1572.0381607168492
784,0.0
785,0.0
848,0.0
849,0.0
1121,2215.905349979472
1135,733.0813594029106
1161,0.03581477001995936
1163,111.32522730579817
1166,0.0
1168,0.0
2,3, 1,10, 0,23, 0.00,60.00,Wednesday
7,-0.6
545,18.944888072873688
546,0.876389777144254
547,12.864637394980994
548,44.12314719149681
720,911.2365357529616
721,911.2365357529616
784,0.0
785,0.0
848,0.0
849,0.0
1121,1372.0053585943917
1135,457.61245798973135
1161,0.022288845942206537
1163,144.8144342001979
1166,0.0
1168,0.0
2,3, 1,10, 0,24, 0.00,60.00,Wednesday
7,-1.0
545,18.612759761632756
546,0.9155686784402816
547,12.838083344417411
548,57.20845559640081
720,1278.2272461752636
721,1278.2272461752636
784,0.0
785,0.0
848,0.0
849,0.0
1121,1782.506083490657
1135,582.8636897922211
1161,0.02889891377172094
1163,128.44838572497972
1166,0.0
1168,0.0
2,4, 1,11, 0, 1, 0.00,60.00,Thursday
7,-0.6
545,18.565793957435954
546,1.1637644599889923
547,12.808166448200504
548,74.73506668197106
720,1747.900079988367
721,1747.900079988367
784,0.0
785,0.0
848,0.0
849,0.0
1121,2388.1431125756067
1135,759.0325691970344
1161,0.037752482003209555
1163,106.52759298996189
1166,0.0
1168,0.0
2,4, 1,11, 0, 2, 0.00,60.00,Thursday
7,0.0
545,18.460097543246647
546,1.769848596336635
547,12.778386821876905
548,90.26611941495284
720,2174.535562162242
721,2174.535562162242
784,0.0
785,0.0
848,0.0
849,0.0
1121,2965.99352721813
1135,920.644677587091
1161,0.0455979745931654
1163,87.1027224211806
1166,0.0
1168,0.0
2,4, 1,11, 0, 3, 0.00,60.00,Thursday
7,-0.6
545,18.57584383731237
546,1.9977026186795646
547,12.738857410893194
548,102.53323098109588
720,2449.4408587498892
721,2449.4408587498892
784,0.0
785,0.0
848,0.0
849,0.0
1121,3346.5265961944842
1135,1038.0314056066964
1161,0.051794747841376255
1163,71.75996135036047
1166,0.0
1168,0.0
2,4, 1,11, 0, 4, 0.00,60.00,Thursday
7,-1.7
545,18.513442181441867
546,1.9631625039486993
547,12.713535708214023
548,123.68586772263548
720,2674.040000795405
721,2674.040000795405
784,0.0
785,0.0
848,0.0
849,0.0
1121,3710.6993409640822
1135,1169.584518834304
1161,61.88354813015154
1163,43.85219010540791
1166,0.0
1168,0.0
2,4, 1,11, 0, 5, 0.00,60.00,Thursday
7,-1.7
545,18.527534533687444
546,1.8858285398707493
547,12.671757660024628
548,133.17434920425134
720,2882.0274176273615
721,2882.0274176273615
784,0.0
785,0.0
848,0.0
849,0.0
1121,4022.2997000595933
1135,1256.7365112447555
1161,67.42536159460367
1163,31.854107590339066
1166,0.0
1168,0.0
2,4, 1,11, 0, 6, 0.00,60.00,Thursday
7,-1.7
545,19.30340511399055
546,2.6706158527485306
547,12.657996667121326
548,159.90951020172767
720,3527.0890992646837
721,3527.0890992646837
784,0.0
785,0.0
848,0.0
849,0.0
1121,4812.204866726717
1135,1460.8508195889667
1161,105.05157004484637
1163,0.0
1166,87.29864705980981
1168,87.29864705980981
2,4, 1,11, 0, 7, 0.00,60.00,Thursday
7,-1.1
545,19.593566848342597
546,2.5330921957305215
547,12.654638542744685
548,156.29737436145209
720,3292.727482269589
721,3292.727482269589
784,0.0
785,0.0
848,0.0
849,0.0
1121,4690.187335098756
1135,1456.098710817365
1161,119.04401056327511
1163,1.8548211702523076
1166,0.0
1168,0.0
2,4, 1,11, 0, 8, 0.00,60.00,Thursday
7,-0.6
545,19.733176316929143
546,2.758122964177283
547,12.60149933720606
548,138.01546064388077
720,2862.2948503334337
721,2862.2948503334337
784,0.0
785,0.0
848,0.0
849,0.0
1121,4146.217782006313
1135,1301.3116393693635
1161,102.00717470665764
1163,25.26839507300611
1166,0.0
1168,0.0
2,4, 1,11, 0, 9, 0.00,60.00,Thursday
7,-0.6
545,19.720668309024788
546,2.8935150051754825
547,12.578858348801948
548,139.17908826566457
720,2872.272765647811
721,2872.272765647811
784,0.0
785,0.0
848,0.0
849,0.0
1121,4133.988427621423
1135,1302.3353667590243
1161,113.81937133751218
1163,23.542149720003593
1166,0.0
1168,0.0
2,4, 1,11, 0,10, 0.00,60.00,Thursday
7,0.6
545,19.72847489682798
546,3.839385660567027
547,12.543873639604593
548,134.00301227132087
720,2828.862870161771
721,2828.862870161771
784,0.0
785,0.0
848,0.0
849,0.0
1121,4053.781714228459
1135,1252.1428242241075
1161,118.41470081424774
1163,30.344069318921484
1166,0.0
1168,0.0
2,4, 1,11, 0,11, 0.00,60.00,Thursday
7,2.0
545,19.807078238188907
546,5.5542434460329275
547,12.486686991839893
548,111.90940976514001
720,2402.9079079340063
721,2402.9079079340063
784,0.0
785,0.0
848,0.0
849,0.0
1121,3434.688749353698
1135,1050.3936800527968
1161,102.93302178144043
1163,58.664120684360114
1166,0.0
1168,0.0
2,4, 1,11, 0,12, 0.00,60.00,Thursday
7,1.7
545,19.78492838748388
546,6.650585912569461
547,12.452715271669765
548,102.39935920628685
720,2201.93314665453
721,2201.93314665453
784,0.0
785,0.0
848,0.0
849,0.0
1121,3081.8247678551106
1135,956.8890957638278
1161,97.04559995936202
1163,70.54670853088929
1166,0.0
1168,0.0
2,4, 1,11, 0,13, 0.00,60.00,Thursday
7,2.8
545,19.707549887946296
546,7.07934314899993
547,12.426684285224031
548,94.72328068348891
720,2137.5632238566814
721,2137.5632238566814
784,0.0
785,0.0
848,0.0
849,0.0
1121,2920.583880341757
1135,892.3791194560322
1161,89.02298040108502
1163,80.54161566107057
1166,0.0
1168,0.0
2,4, 1,11, 0,14, 0.00,60.00,Thursday
7,3.3
545,19.942589440786765
546,10.881514868176545
547,12.380251069622405
548,73.29329551321423
720,1635.7242309274152
721,1635.7242309274152
784,0.0
785,0.0
848,0.0
849,0.0
1121,2243.6673632291527
1135,688.9678266590162
1161,71.07765237849408