Program Version,EnergyPlus, Version 22.2.0-c249759bad, YMD=2023.07.07 15:04
1,5,Environment Title[],Latitude[deg],Longitude[deg],Time Zone[],Elevation[m]
2,8,Day of Simulation[],Month[],Day of Month[],DST Indicator[1=yes 0=no],Hour[],StartMinute[],EndMinute[],DayType
3,5,Cumulative Day of Simulation[],Month[],Day of Month[],DST Indicator[1=yes 0=no],DayType  ! When Daily Report Variables Requested
4,2,Cumulative Days of Simulation[],Month[]  ! When Monthly Report Variables Requested
5,1,Cumulative Days of Simulation[] ! When Run Period Report Variables Requested
6,1,Calendar Year of Simulation[] ! When Annual Report Variables Requested
581,11,LIVING,AFN Zone Infiltration Air Change Rate [ach] !RunPeriod [Value,Min,Month,Day,Hour,Minute,Max,Month,Day,Hour,Minute]
582,11,ATTIC,AFN Zone Infiltration Air Change Rate [ach] !RunPeriod [Value,Min,Month,Day,Hour,Minute,Max,Month,Day,Hour,Minute]
583,11,CRAWLSPACE,AFN Zone Infiltration Air Change Rate [ach] !RunPeriod [Value,Min,Month,Day,Hour,Minute,Max,Month,Day,Hour,Minute]
1038,11,Facility,Facility Heating Setpoint Not Met Time [hr] !RunPeriod [Value,Min,Month,Day,Hour,Minute,Max,Month,Day,Hour,Minute]
1039,11,Facility,Facility Cooling Setpoint Not Met Time [hr] !RunPeriod [Value,Min,Month,Day,Hour,Minute,Max,Month,Day,Hour,Minute]
1115,11,DX_HEATING_COIL,Heating Coil Heating Energy [J] !RunPeriod [Value,Min,Month,Day,Hour,Minute,Max,Month,Day,Hour,Minute]
1128,11,DX_HEATING_COIL,Heating Coil Electricity Energy [J] !RunPeriod [Value,Min,Month,Day,Hour,Minute,Max,Month,Day,Hour,Minute]
1153,11,DX_HEATING_COIL,Heating Coil Defrost Electricity Energy [J] !RunPeriod [Value,Min,Month,Day,Hour,Minute,Max,Month,Day,Hour,Minute]
1154,11,DX_HEATING_COIL,Heating Coil Crankcase Heater Electricity Energy [J] !RunPeriod [Value,Min,Month,Day,Hour,Minute,Max,Month,Day,Hour,Minute]
1156,11,HEATING_RESISTANCE_BACKUP,Heating Coil Electricity Energy [J] !RunPeriod [Value,Min,Month,Day,Hour,Minute,Max,Month,Day,Hour,Minute]
13,11,Electricity:Facility [J] !RunPeriod [Value,Min,Month,Day,Hour,Minute,Max,Month,Day,Hour,Minute]
1134,11,Heating:Electricity [J] !RunPeriod [Value,Min,Month,Day,Hour,Minute,Max,Month,Day,Hour,Minute]
1096,11,Cooling:Electricity [J] !RunPeriod [Value,Min,Month,Day,Hour,Minute,Max,Month,Day,Hour,Minute]
562,11,Fans:Electricity [J] !RunPeriod [Value,Min,Month,Day,Hour,Minute,Max,Month,Day,Hour,Minute]
1388,11,Pumps:Electricity [J] !RunPeriod [Value,Min,Month,Day,Hour,Minute,Max,Month,Day,Hour,Minute]
1360,11,WaterSystems:Electricity [J] !RunPeriod [Value,Min,Month,Day,Hour,Minute,Max,Month,Day,Hour,Minute]
61,11,InteriorLights:Electricity [J] !RunPeriod [Value,Min,Month,Day,Hour,Minute,Max,Month,Day,Hour,Minute]
1046,11,ExteriorLights:Electricity [J] !RunPeriod [Value,Min,Month,Day,Hour,Minute,Max,Month,Day,Hour,Minute]
134,11,InteriorEquipment:Electricity [J] !RunPeriod [Value,Min,Month,Day,Hour,Minute,Max,Month,Day,Hour,Minute]
170,11,gas_dryer:InteriorEquipment:Electricity [J] !RunPeriod [Value,Min,Month,Day,Hour,Minute,Max,Month,Day,Hour,Minute]
207,11,clotheswasher:InteriorEquipment:Electricity [J] !RunPeriod [Value,Min,Month,Day,Hour,Minute,Max,Month,Day,Hour,Minute]
244,11,dishwasher:InteriorEquipment:Electricity [J] !RunPeriod [Value,Min,Month,Day,Hour,Minute,Max,Month,Day,Hour,Minute]
281,11,refrigerator:InteriorEquipment:Electricity [J] !RunPeriod [Value,Min,Month,Day,Hour,Minute,Max,Month,Day,Hour,Minute]
318,11,electric_mels:InteriorEquipment:Electricity [J] !RunPeriod [Value,Min,Month,Day,Hour,Minute,Max,Month,Day,Hour,Minute]
355,11,NaturalGas:Facility [J] !RunPeriod [Value,Min,Month,Day,Hour,Minute,Max,Month,Day,Hour,Minute]
1323,11,WaterSystems:NaturalGas [J] !RunPeriod [Value,Min,Month,Day,Hour,Minute,Max,Month,Day,Hour,Minute]
403,11,InteriorEquipment:NaturalGas [J] !RunPeriod [Value,Min,Month,Day,Hour,Minute,Max,Month,Day,Hour,Minute]
476,11,gas_dryer:InteriorEquipment:NaturalGas [J] !RunPeriod [Value,Min,Month,Day,Hour,Minute,Max,Month,Day,Hour,Minute]
513,11,gas_mels:InteriorEquipment:NaturalGas [J] !RunPeriod [Value,Min,Month,Day,Hour,Minute,Max,Month,Day,Hour,Minute]
End of Data Dictionary
1,EXTREME_WINTER,  35.14,-111.67,  -7.00,2135.00
5,7
1038,0.8333333333333333,0.0, 1, 6, 1,10,0.16666666666666666, 1, 9, 6,10
1039,0.0,0.0, 1, 6, 1,10,0.0, 1, 6, 1,10
581,0.2858160302175207,0.21386271680779723, 1, 7, 5,60,0.629453594335352, 1, 6,22,55
582,3.015580188960104,0.0, 1, 9, 1,50,12.447960224422733, 1, 6,22,55
583,3.780885581604852,0.00026330396775957473, 1,12,23,15,17.08419513010544, 1, 6,22,55
1115,1518185204.8527763,0.0, 1, 6,23, 2,2643775.2506317585, 1, 6, 6,30
1128,519815490.52718705,0.0, 1, 6,23, 2,819323.8839450501, 1, 8, 7,60
1153,32717166.004850242,0.0, 1, 6,23, 2,92251.02836378808, 1, 6, 6,30
1154,43540618.537764,0.0, 1, 6, 6, 2,120000.0, 1, 9,13,50
1156,357296265.90691197,0.0, 1, 6, 1, 1,3484601.2738426076, 1,12, 6,30
13,1392461827.5050735,306324.6925987483, 1, 9,15,10,4773325.294244333, 1,12, 6,60
61,301924526.0238348,58759.40635443481, 1, 6, 1,10,854682.2742463244, 1, 6,20,10
134,70666020.44019979,42376.01200569399, 1, 6, 4,10,104369.48322671017, 1,11,20,10
170,5241013.419656074,232.27731661587313, 1, 6, 4,10,11650.931360040839, 1,11,12,10
207,6509451.13922266,543.5021409221355, 1, 6, 3,10,15327.095199349082, 1,11,10,10
244,12749673.39982522,1014.5707620042115, 1, 6, 4,10,35359.08742820678, 1,11,20,10
281,46165882.48149605,39959.06841621388, 1, 6, 5,10,54634.54471212738, 1, 6,19,10
318,0.0,0.0, 1, 6, 1,10,0.0, 1, 6, 1,10
355,738645380.3302073,12374.216038804521, 1, 6, 4,10,3829218.154066982, 1, 7,18,60
403,197687796.27748126,12374.216038804521, 1, 6, 4,10,483183.26346918393, 1,11,18,10
476,106772067.24485692,4732.048419519677, 1, 6, 4,10,237357.535085481, 1,11,12,10
513,0.0,0.0, 1, 6, 1,10,0.0, 1, 6, 1,10
562,61440046.00274732,0.0, 1, 9,13,50,96002.32019688847, 1,11, 3,30
1046,0.0,0.0, 1, 6, 1,10,0.0, 1, 6, 1,10
1096,41854.06158435719,0.0, 1, 6, 1,10,15953.315265945097, 1,12,17,30
1134,953369540.9767133,115868.02254406989, 1,12,17,30,4259025.654671071, 1,12, 6,60
1323,540957584.0527228,0.0, 1, 6, 1,10,3375000.000000001, 1,11, 8,50
1360,5019840.0,4980.0, 1, 6, 1,10,4980.000000000002, 1, 6,16,40
1388,0.0,0.0, 1, 6, 1,10,0.0, 1, 6, 1,10
1,EXTREME_SUMMER,  35.14,-111.67,  -7.00,2135.00
5,7
1038,0.0,0.0, 7,20, 1,10,0.0, 7,20, 1,10
1039,0.0,0.0, 7,20, 1,10,0.0, 7,20, 1,10
581,0.1024454703674753,0.0, 7,20,19,53,0.43032083978174585, 7,25,14,50
582,2.1914122520821686,0.0, 7,20, 8,41,10.810398088899106, 7,25,13,53
583,2.388060513996922,0.00018489243591032233, 7,24,23, 2,13.221469877539926, 7,25,14,40
1115,0.0,0.0, 7,20, 1,10,0.0, 7,20, 1,10
1128,0.0,0.0, 7,20, 1,10,0.0, 7,20, 1,10
1153,0.0,0.0, 7,20, 1,10,0.0, 7,20, 1,10
1154,0.0,0.0, 7,20, 1,10,0.0, 7,20, 1,10
1156,0.0,0.0, 7,20, 1,10,0.0, 7,20, 1,10
13,757353477.0416485,106115.4183601288, 7,20, 4,10,1774179.3952176892, 7,24,19,10
61,301924526.0238348,58759.40635443481, 7,20, 1,10,854682.2742463244, 7,20,20,10
134,70666020.44019979,42376.01200569399, 7,20, 4,10,104369.48322671017, 7,25,20,10
170,5241013.419656074,232.27731661587313, 7,20, 4,10,11650.931360040839, 7,25,12,10
207,6509451.13922266,543.5021409221355, 7,20, 3,10,15327.095199349082, 7,25,10,10
244,12749673.39982522,1014.5707620042115, 7,20, 4,10,35359.08742820678, 7,25,20,10
281,46165882.48149605,39959.06841621388, 7,20, 5,10,54634.54471212738, 7,20,19,10
318,0.0,0.0, 7,20, 1,10,0.0, 7,20, 1,10
355,637851914.2952092,12374.216038804521, 7,20, 4,10,3829218.154066982, 7,21,18,60
403,197687796.27748126,12374.216038804521, 7,20, 4,10,483183.26346918393, 7,25,18,10
476,106772067.24485692,4732.048419519677, 7,20, 4,10,237357.535085481, 7,25,12,10
513,0.0,0.0, 7,20, 1,10,0.0, 7,20, 1,10
562,39782526.268788114,0.0, 7,20, 3,20,96002.32019688845, 7,23,17,20
1046,0.0,0.0, 7,20, 1,10,0.0, 7,20, 1,10
1096,339960564.3088256,0.0, 7,20, 3,20,903815.4769283559, 7,23,16,40
1134,0.0,0.0, 7,20, 1,10,0.0, 7,20, 1,10
1323,440164118.0177262,0.0, 7,20, 1,10,3375000.0, 7,20, 9,50
1360,5019840.0,4979.999999999998, 7,24, 8,50,4980.000000000001, 7,20, 7,40
1388,0.0,0.0, 7,20, 1,10,0.0, 7,20, 1,10
1,ANNUAL,  35.14,-111.67,  -7.00,2135.00
5,365
1038,4.999999999999999,0.0, 1, 1, 1,10,0.16666666666666666, 1, 9, 6,10
1039,26.166666666666668,0.0, 1, 1, 1,10,0.16666666666666666, 3,28,14,60
581,0.2497182800612527,0.0, 6,17, 7,51,1.3777193719036884, 4,12,10,60
582,3.760976206269713,0.0, 1, 2, 2,50,27.761160133724264, 4,12,10,60
583,4.573309718010832,0.0, 4,23, 9,22,37.873150094948606, 4,12,10,60
1115,22708484799.272,0.0, 1, 1,13,43,3130058.281297978, 2,26, 6,40
1128,7366116824.198335,0.0, 1, 1,13,43,919805.8636254729,12,11, 6,30
1153,367734011.46441966,0.0, 1, 1,13,43,100305.46174613833,12,26,22,60
1154,2396700521.029473,0.0, 1, 1, 2,50,120000.0, 1, 1,15,10
1156,2653668792.4924283,0.0, 1, 1, 1, 5,3484601.2738426076, 1,12, 6,30
13,39749049336.31564,106115.4183601288, 5, 5, 4,10,4813970.976974368, 2, 5, 7,60
61,15743207428.39043,58759.40635443481, 1, 1, 1,10,854682.2742463244, 1, 1,20,10
134,3685071073.433083,42376.01200569399, 1, 2, 4,10,104369.48322671017, 1, 1,20,10
170,273393721.45534325,232.27731661587313, 1, 2, 4,10,11650.931360040839, 1, 1,12,10
207,339560869.06955314,543.5021409221355, 1, 2, 3,10,15327.095199349082, 1, 1,10,10
244,664895467.8009839,1014.5707620042115, 1, 2, 4,10,35359.08742820678, 1, 1,20,10
281,2407221015.1057043,39959.06841621388, 1, 1, 5,10,54634.54471212738, 1, 1,19,10
318,0.0,0.0, 1, 1, 1,10,0.0, 1, 1, 1,10
355,35748540964.099365,12374.216038804521, 1, 2, 4,10,3829218.1540669827, 1,31,18,60
403,10310294493.052883,12374.216038804521, 1, 2, 4,10,483183.26346918393, 1, 1,18,10
476,5569688622.065564,4732.048419519677, 1, 2, 4,10,237357.535085481, 1, 1,12,10
513,0.0,0.0, 1, 1, 1,10,0.0, 1, 1, 1,10
562,1584466724.6886327,0.0, 1, 1,13,50,96002.32019688847, 1,11, 3,30
1046,0.0,0.0, 1, 1, 1,10,0.0, 1, 1, 1,10
1096,5690335160.624491,0.0, 1, 1, 1,10,935339.1073949083, 7, 5,16,60
1134,12784220149.184563,0.0, 1,13,15,30,4270719.289565651,12,29, 6,10
1323,25438246471.05042,0.0, 1, 1, 1,10,3375000.000000001, 1, 2,21,60
1360,261748800.0,4979.999999999998, 1,28,11,10,4980.000000000002, 1,17,20,30
1388,0.0,0.0, 1, 1, 1,10,0.0, 1, 1, 1,10
End of Data
 Number of Records Written=          87
