Program Version,EnergyPlus, Version 22.2.0-c249759bad, YMD=2023.09.01 20:53
1,5,Environment Title[],Latitude[deg],Longitude[deg],Time Zone[],Elevation[m]
2,8,Day of Simulation[],Month[],Day of Month[],DST Indicator[1=yes 0=no],Hour[],StartMinute[],EndMinute[],DayType
3,5,Cumulative Day of Simulation[],Month[],Day of Month[],DST Indicator[1=yes 0=no],DayType  ! When Daily Report Variables Requested
4,2,Cumulative Days of Simulation[],Month[]  ! When Monthly Report Variables Requested
5,1,Cumulative Days of Simulation[] ! When Run Period Report Variables Requested
6,1,Calendar Year of Simulation[] ! When Annual Report Variables Requested
581,11,LIVING,AFN Zone Infiltration Air Change Rate [ach] !RunPeriod [Value,Min,Month,Day,Hour,Minute,Max,Month,Day,Hour,Minute]
582,11,ATTIC,AFN Zone Infiltration Air Change Rate [ach] !RunPeriod [Value,Min,Month,Day,Hour,Minute,Max,Month,Day,Hour,Minute]
583,11,CRAWLSPACE,AFN Zone Infiltration Air Change Rate [ach] !RunPeriod [Value,Min,Month,Day,Hour,Minute,Max,Month,Day,Hour,Minute]
1038,11,Facility,Facility Heating Setpoint Not Met Time [hr] !RunPeriod [Value,Min,Month,Day,Hour,Minute,Max,Month,Day,Hour,Minute]
1039,11,Facility,Facility Cooling Setpoint Not Met Time [hr] !RunPeriod [Value,Min,Month,Day,Hour,Minute,Max,Month,Day,Hour,Minute]
1115,11,DX_HEATING_COIL,Heating Coil Heating Energy [J] !RunPeriod [Value,Min,Month,Day,Hour,Minute,Max,Month,Day,Hour,Minute]
1128,11,DX_HEATING_COIL,Heating Coil Electricity Energy [J] !RunPeriod [Value,Min,Month,Day,Hour,Minute,Max,Month,Day,Hour,Minute]
1153,11,DX_HEATING_COIL,Heating Coil Defrost Electricity Energy [J] !RunPeriod [Value,Min,Month,Day,Hour,Minute,Max,Month,Day,Hour,Minute]
1154,11,DX_HEATING_COIL,Heating Coil Crankcase Heater Electricity Energy [J] !RunPeriod [Value,Min,Month,Day,Hour,Minute,Max,Month,Day,Hour,Minute]
1155,11,HEATING_RESISTANCE_BACKUP,Heating Coil Heating Energy [J] !RunPeriod [Value,Min,Month,Day,Hour,Minute,Max,Month,Day,Hour,Minute]
1156,11,HEATING_RESISTANCE_BACKUP,Heating Coil Electricity Energy [J] !RunPeriod [Value,Min,Month,Day,Hour,Minute,Max,Month,Day,Hour,Minute]
1292,11,WATER HEATER,Water Heater Heat Loss Energy [J] !RunPeriod [Value,Min,Month,Day,Hour,Minute,Max,Month,Day,Hour,Minute]
1306,11,WATER HEATER,Water Heater Heating Energy [J] !RunPeriod [Value,Min,Month,Day,Hour,Minute,Max,Month,Day,Hour,Minute]
1307,11,WATER HEATER,Water Heater Unmet Demand Heat Transfer Energy [J] !RunPeriod [Value,Min,Month,Day,Hour,Minute,Max,Month,Day,Hour,Minute]
1308,11,WATER HEATER,Water Heater Electricity Energy [J] !RunPeriod [Value,Min,Month,Day,Hour,Minute,Max,Month,Day,Hour,Minute]
13,11,Electricity:Facility [J] !RunPeriod [Value,Min,Month,Day,Hour,Minute,Max,Month,Day,Hour,Minute]
1134,11,Heating:Electricity [J] !RunPeriod [Value,Min,Month,Day,Hour,Minute,Max,Month,Day,Hour,Minute]
1096,11,Cooling:Electricity [J] !RunPeriod [Value,Min,Month,Day,Hour,Minute,Max,Month,Day,Hour,Minute]
562,11,Fans:Electricity [J] !RunPeriod [Value,Min,Month,Day,Hour,Minute,Max,Month,Day,Hour,Minute]
1379,11,Pumps:Electricity [J] !RunPeriod [Value,Min,Month,Day,Hour,Minute,Max,Month,Day,Hour,Minute]
1326,11,WaterSystems:Electricity [J] !RunPeriod [Value,Min,Month,Day,Hour,Minute,Max,Month,Day,Hour,Minute]
61,11,InteriorLights:Electricity [J] !RunPeriod [Value,Min,Month,Day,Hour,Minute,Max,Month,Day,Hour,Minute]
1046,11,ExteriorLights:Electricity [J] !RunPeriod [Value,Min,Month,Day,Hour,Minute,Max,Month,Day,Hour,Minute]
134,11,InteriorEquipment:Electricity [J] !RunPeriod [Value,Min,Month,Day,Hour,Minute,Max,Month,Day,Hour,Minute]
170,11,gas_dryer:InteriorEquipment:Electricity [J] !RunPeriod [Value,Min,Month,Day,Hour,Minute,Max,Month,Day,Hour,Minute]
207,11,clotheswasher:InteriorEquipment:Electricity [J] !RunPeriod [Value,Min,Month,Day,Hour,Minute,Max,Month,Day,Hour,Minute]
244,11,dishwasher:InteriorEquipment:Electricity [J] !RunPeriod [Value,Min,Month,Day,Hour,Minute,Max,Month,Day,Hour,Minute]
281,11,refrigerator:InteriorEquipment:Electricity [J] !RunPeriod [Value,Min,Month,Day,Hour,Minute,Max,Month,Day,Hour,Minute]
318,11,electric_mels:InteriorEquipment:Electricity [J] !RunPeriod [Value,Min,Month,Day,Hour,Minute,Max,Month,Day,Hour,Minute]
355,11,NaturalGas:Facility [J] !RunPeriod [Value,Min,Month,Day,Hour,Minute,Max,Month,Day,Hour,Minute]
403,11,InteriorEquipment:NaturalGas [J] !RunPeriod [Value,Min,Month,Day,Hour,Minute,Max,Month,Day,Hour,Minute]
476,11,gas_dryer:InteriorEquipment:NaturalGas [J] !RunPeriod [Value,Min,Month,Day,Hour,Minute,Max,Month,Day,Hour,Minute]
513,11,gas_mels:InteriorEquipment:NaturalGas [J] !RunPeriod [Value,Min,Month,Day,Hour,Minute,Max,Month,Day,Hour,Minute]
End of Data Dictionary
1,EXTREME_WINTER,  39.10, -84.42,  -5.00, 149.40
5,7
1038,0.5,0.0, 1,15, 1,15,0.25, 1,20, 6,15
1039,0.0,0.0, 1,15, 1,15,0.0, 1,15, 1,15
581,0.3317403762427618,0.19208420037282262, 1,16,20,60,0.4745797097435898, 1,18, 5,60
582,3.0908128447398555,0.0, 1,15,20,52,12.44983097207538, 1,17,24,52
583,0.04166655690933088,0.00029440642689618755, 1,21,20,35,0.07533130695148742, 1,15, 6,15
1115,1343531899.6016536,0.0, 1,15,15,22,4075081.509390213, 1,19, 6,30
1128,468908607.1999731,0.0, 1,15,15,22,1291388.398846224, 1,18, 9,15
1153,7877053.948141753,0.0, 1,15,15,22,66872.92631896379, 1,17, 6,45
1154,51883190.0114243,0.0, 1,15, 4,30,180000.0, 1,15,16,15
1155,407152124.7070247,0.0, 1,15, 1,15,4847714.987419551, 1,20, 6,45
1156,407152124.7070247,0.0, 1,15, 1,15,4847714.987419551, 1,20, 6,45
1292,-24994660.397869002,-39806.776174205406, 1,15, 1,15,-5145.886887839849, 1,16,11,15
1306,355277136.4608289,0.0, 1,15, 1,15,4050000.0, 1,15, 9,60
1307,161868619.0832205,0.0, 1,15, 1,15,16657333.097691352, 1,19, 9,60
1308,355277136.4608289,0.0, 1,15, 1,15,4050000.0, 1,15, 9,60
13,1715250310.9306562,452017.0388981225, 1,15,15,45,9336499.20305958, 1,20, 8,45
61,301924526.02383536,88139.10953165221, 1,15, 1,15,1282023.4113694867, 1,15,20,15
134,70666020.44019976,63564.01800854099, 1,15, 4,15,156554.22484006523, 1,20,20,15
170,5241013.419656067,348.4159749238097, 1,15, 4,15,17476.39704006126, 1,20,12,15
207,6509451.13922267,815.2532113832032, 1,15, 3,15,22990.642799023623, 1,20,10,15
244,12749673.399825225,1521.856143006317, 1,15, 4,15,53038.631142310165, 1,20,20,15
281,46165882.481495745,59938.60262432081, 1,15, 5,15,81951.81706819107, 1,15,19,15
318,0.0,0.0, 1,15, 1,15,0.0, 1,15, 1,15
355,197687796.27748066,18561.32405820678, 1,15, 4,15,724774.895203776, 1,20,18,15
403,197687796.27748066,18561.32405820678, 1,15, 4,15,724774.895203776, 1,20,18,15
476,106772067.24485716,7098.072629279515, 1,15, 4,15,356036.3026282215, 1,20,12,15
513,0.0,0.0, 1,15, 1,15,0.0, 1,15, 1,15
562,51561652.139229834,0.0, 1,15,15,45,134570.81196756806, 1,15, 4,30
1046,0.0,0.0, 1,15, 1,15,0.0, 1,15, 1,15
1096,0.0,0.0, 1,15, 1,15,0.0, 1,15, 1,15
1134,935820975.8665636,180000.0, 1,15,15,45,6116302.243819442, 1,21, 6,15
1326,355277136.4608289,0.0, 1,15, 1,15,4050000.0, 1,15, 9,60
1379,0.0,0.0, 1,15, 1,15,0.0, 1,15, 1,15
1,EXTREME_SUMMER,  39.10, -84.42,  -5.00, 149.40
5,7
1038,0.0,0.0, 7,15, 1,15,0.0, 7,15, 1,15
1039,40.25,0.0, 7,15, 1,15,0.25, 7,15,14,45
581,0.06880672373074505,0.0, 7,15, 6, 7,0.47427716452236685, 7,20,16,51
582,1.7544346422875174,0.0, 7,16,21,47,8.86898901120798, 7,20,16,48
583,0.03907000077360484,0.0, 7,15, 6, 7,0.06871285753613188, 7,18,17, 2
1115,0.0,0.0, 7,15, 1, 7,0.0, 7,15, 1, 7
1128,0.0,0.0, 7,15, 1, 7,0.0, 7,15, 1, 7
1153,0.0,0.0, 7,15, 1, 7,0.0, 7,15, 1, 7
1154,0.0,0.0, 7,15, 1, 7,0.0, 7,15, 1, 7
1155,0.0,0.0, 7,15, 1, 7,0.0, 7,15, 1, 7
1156,0.0,0.0, 7,15, 1, 7,0.0, 7,15, 1, 7
1292,-21721008.308089066,-34343.79750392244, 7,21,21,45,-1691.707661605601, 7,19,19,45
1306,265850307.1838395,0.0, 7,15, 1, 7,4050000.0, 7,21,21,15
1307,88440808.79688057,0.0, 7,15, 1, 7,6849549.511490222, 7,21,20,60
1308,265850307.1838395,0.0, 7,15, 1, 7,4050000.0, 7,21,21,15
13,1196578287.4862504,192712.97240854014, 7,19, 4,60,6848877.5874060225, 7,16,20,15
61,301924526.02383536,88139.10953165221, 7,15, 1,15,1282023.4113694867, 7,15,20,15
134,70666020.44019976,63564.01800854099, 7,15, 4,15,156554.22484006523, 7,20,20,15
170,5241013.419656067,348.4159749238097, 7,15, 4,15,17476.39704006126, 7,20,12,15
207,6509451.13922267,815.2532113832032, 7,15, 3,15,22990.642799023623, 7,20,10,15
244,12749673.399825225,1521.856143006317, 7,15, 4,15,53038.631142310165, 7,20,20,15
281,46165882.481495745,59938.60262432081, 7,15, 5,15,81951.81706819107, 7,15,19,15
318,0.0,0.0, 7,15, 1,15,0.0, 7,15, 1,15
355,197687796.27748066,18561.32405820678, 7,15, 4,15,724774.895203776, 7,20,18,15
403,197687796.27748066,18561.32405820678, 7,15, 4,15,724774.895203776, 7,20,18,15
476,106772067.24485716,7098.072629279515, 7,15, 4,15,356036.3026282215, 7,20,12,15
513,0.0,0.0, 7,15, 1,15,0.0, 7,15, 1,15
562,53791999.20279188,1351.7434824335664, 7,19, 6,30,134570.81196756806, 7,15,13,30
1046,0.0,0.0, 7,15, 1,15,0.0, 7,15, 1,15
1096,504345434.6355832,11106.792966036437, 7,19, 6,30,1425551.245432489, 7,16,15,60
1134,0.0,0.0, 7,15, 1,15,0.0, 7,15, 1,15
1326,265850307.18383956,0.0, 7,15, 1,15,4050000.0000000014, 7,19,19,60
1379,0.0,0.0, 7,15, 1,15,0.0, 7,15, 1,15
1,ANNUAL,  39.10, -84.42,  -5.00, 149.40
5,365
1038,6.0,0.0, 1, 1, 1,15,0.25, 1, 2, 6,15
1039,541.5,0.0, 1, 1, 1,15,0.25, 5, 2,16,60
581,0.21855835932018028,0.0, 5, 7, 8,32,1.2434804488211952, 2,18,22,50
582,3.11159867232359,0.0, 1, 9,20, 3,28.114799409356213, 1,29,21,60
583,0.027555630425398058,0.0, 6, 8,23, 3,0.09487717510527842, 9,15,14,60
1115,18813789189.836704,0.0, 1, 1,23, 5,4490546.053117793, 1,22, 4,60
1128,6075320723.861091,0.0, 1, 1,23, 5,1304291.9611409456, 1,26, 9,30
1153,210283144.74365273,0.0, 1, 1,23, 5,113936.59778360862, 2,14, 8,30
1154,1589491711.854514,0.0, 1, 1, 1, 3,180000.0, 1, 4,15,15
1155,2557836811.439378,0.0, 1, 1, 1,32,4943685.5915309, 1,25, 6,45
1156,2557836811.439378,0.0, 1, 1, 1,32,4943685.5915309, 1,25, 6,45
1292,-1205132462.2990193,-39778.787863891426, 2,12, 3,30,-1463.9916121008794, 4,21,10, 1
1306,16200267505.510504,0.0, 1, 1, 1, 3,4050000.0, 1, 1, 9,60
1307,6486882838.698446,0.0, 1, 1, 1, 3,16828134.32081153, 2, 3, 9,60
1308,16200267505.510504,0.0, 1, 1, 1, 3,4050000.0, 1, 1, 9,60
13,57792653299.37663,151703.1275401932, 3, 6, 4,15,10001217.275398348, 1,25, 8,60
61,15743207428.383959,88139.10953165221, 1, 1, 1,15,1282023.4113694867, 1, 1,20,15
134,3685071073.4325233,63564.01800854099, 1, 2, 4,15,156554.22484006523, 1, 1,20,15
170,273393721.45532674,348.4159749238097, 1, 2, 4,15,17476.39704006126, 1, 1,12,15
207,339560869.0695816,815.2532113832032, 1, 2, 3,15,22990.642799023623, 1, 1,10,15
244,664895467.8009144,1521.856143006317, 1, 2, 4,15,53038.631142310165, 1, 1,20,15
281,2407221015.106824,59938.60262432081, 1, 1, 5,15,81951.81706819107, 1, 1,19,15
318,0.0,0.0, 1, 1, 1,15,0.0, 1, 1, 1,15
355,10310294493.051695,18561.32405820678, 1, 2, 4,15,724774.895203776, 1, 1,18,15
403,10310294493.051695,18561.32405820678, 1, 2, 4,15,724774.895203776, 1, 1,18,15
476,5569688622.066177,7098.072629279515, 1, 2, 4,15,356036.3026282215, 1, 1,12,15
513,0.0,0.0, 1, 1, 1,15,0.0, 1, 1, 1,15
562,1797568966.7738688,0.0, 1, 3,16,30,134570.8119675681, 7,18,16,45
1046,0.0,0.0, 1, 1, 1,15,0.0, 1, 1, 1,15
1096,9933605933.375559,0.0, 1, 1, 1,15,1480950.7590649824, 8, 9,14,60
1134,10432932391.89864,0.0, 1, 6,17,15,6116341.972254406, 1,21, 6,15
1326,16200267505.510511,0.0, 1, 1, 1,15,4050000.0000000014, 4,18,10,60
1379,0.0,0.0, 1, 1, 1,15,0.0, 1, 1, 1,15
End of Data
 Number of Records Written=          99
