Program Version,EnergyPlus, Version 22.2.0-c249759bad, YMD=2023.09.01 14:31
1,5,Environment Title[],Latitude[deg],Longitude[deg],Time Zone[],Elevation[m]
2,8,Day of Simulation[],Month[],Day of Month[],DST Indicator[1=yes 0=no],Hour[],StartMinute[],EndMinute[],DayType
3,5,Cumulative Day of Simulation[],Month[],Day of Month[],DST Indicator[1=yes 0=no],DayType  ! When Daily Report Variables Requested
4,2,Cumulative Days of Simulation[],Month[]  ! When Monthly Report Variables Requested
5,1,Cumulative Days of Simulation[] ! When Run Period Report Variables Requested
6,1,Calendar Year of Simulation[] ! When Annual Report Variables Requested
7,1,Environment,Site Outdoor Air Drybulb Temperature [C] !Hourly
545,1,LIVING,Zone Mean Air Temperature [C] !Hourly
546,1,ATTIC,Zone Mean Air Temperature [C] !Hourly
547,1,CRAWLSPACE,Zone Mean Air Temperature [C] !Hourly
548,1,FAN,Fan Electricity Rate [W] !Hourly
720,1,LIVING,Zone Predicted Sensible Load to Heating Setpoint Heat Transfer Rate [W] !Hourly
721,1,LIVING,Zone System Predicted Sensible Load to Heating Setpoint Heat Transfer Rate [W] !Hourly
784,1,ATTIC,Zone Predicted Sensible Load to Heating Setpoint Heat Transfer Rate [W] !Hourly
785,1,ATTIC,Zone System Predicted Sensible Load to Heating Setpoint Heat Transfer Rate [W] !Hourly
848,1,CRAWLSPACE,Zone Predicted Sensible Load to Heating Setpoint Heat Transfer Rate [W] !Hourly
849,1,CRAWLSPACE,Zone System Predicted Sensible Load to Heating Setpoint Heat Transfer Rate [W] !Hourly
1121,1,DX_HEATING_COIL,Heating Coil Heating Rate [W] !Hourly
1135,1,DX_HEATING_COIL,Heating Coil Electricity Rate [W] !Hourly
1161,1,DX_HEATING_COIL,Heating Coil Defrost Electricity Rate [W] !Hourly
1163,1,DX_HEATING_COIL,Heating Coil Crankcase Heater Electricity Rate [W] !Hourly
1166,1,HEATING_RESISTANCE_BACKUP,Heating Coil Heating Rate [W] !Hourly
1168,1,HEATING_RESISTANCE_BACKUP,Heating Coil Electricity Rate [W] !Hourly
End of Data Dictionary
1,EXTREME_WINTER,  46.77,-100.76,  -6.00, 503.20
2,1, 1,29, 0, 1, 0.00,60.00,Monday
7,-5.6
545,18.659571170358944
546,-3.4456952384264845
547,16.033478148576442
548,146.60140667535111
720,2653.527544846209
721,2653.527544846209
784,0.0
785,0.0
848,0.0
849,0.0
1121,3864.6747258288096
1135,1276.6414407183463
1161,66.4026361485156
1163,0.0
1166,563.6356618982272
1168,563.6356618982272
2,1, 1,29, 0, 2, 0.00,60.00,Monday
7,-6.1
545,18.634226273303643
546,-3.0739130827299133
547,15.38338716088447
548,146.60140667535111
720,3073.2568438903327
721,3073.2568438903327
784,0.0
785,0.0
848,0.0
849,0.0
1121,3820.4652599061037
1135,1275.9623841784787
1161,63.34563566677959
1163,0.0
1166,877.6910336792871
1168,877.6910336792871
2,1, 1,29, 0, 3, 0.00,60.00,Monday
7,-6.1
545,18.6115700508256
546,-2.4543231464880573
547,15.07928044284251
548,146.60140667535111
720,3298.130105870987
721,3298.130105870987
784,0.0
785,0.0
848,0.0
849,0.0
1121,3821.7871899498805
1135,1274.4694523226067
1161,63.33994873200527
1163,0.0
1166,1111.22317851065
1168,1111.22317851065
2,1, 1,29, 0, 4, 0.00,60.00,Monday
7,-6.7
545,18.606469258996263
546,-1.4691737227360928
547,14.743712093378232
548,146.60140667535111
720,3343.5859967700417
721,3343.5859967700417
784,0.0
785,0.0
848,0.0
849,0.0
1121,3769.767105078823
1135,1271.749763062705
1161,59.81523140625828
1163,0.0
1166,1190.0911949715241
1168,1190.0911949715241
2,1, 1,29, 0, 5, 0.00,60.00,Monday
7,-8.9
545,18.599151345798987
546,-2.1780983829782405
547,14.460360744451846
548,146.60140667535111
720,3629.4284826376806
721,3629.4284826376806
784,0.0
785,0.0
848,0.0
849,0.0
1121,3551.0119284998755
1135,1254.7078908445023
1161,54.247148756630196
1163,0.0
1166,1696.7249361974777
1168,1696.7249361974777
2,1, 1,29, 0, 6, 0.00,60.00,Monday
7,-8.9
545,19.349314504730618
546,-2.1322152681401327
547,14.215372619527498
548,146.60140667535111
720,4641.507777942585
721,4641.507777942585
784,0.0
785,0.0
848,0.0
849,0.0
1121,3551.5001090883425
1135,1254.1601022823688
1161,54.247148756630196
1163,0.0
1166,2902.5231609610437
1168,2902.5231609610437
2,1, 1,29, 0, 7, 0.00,60.00,Monday
7,-8.3
545,19.59816534126112
546,-2.085905471872794
547,14.026192121012151
548,146.60140667535111
720,4352.124752461992
721,4352.124752461992
784,0.0
785,0.0
848,0.0
849,0.0
1121,3612.9433484577307
1135,1282.854918204212
1161,50.93406333787388
1163,0.0
1166,2595.1735806993074
1168,2595.1735806993074
2,1, 1,29, 0, 8, 0.00,60.00,Monday
7,-7.0
545,19.679171063934145
546,-2.4659870541845543
547,13.838354309751072
548,146.60140667535111
720,3969.3465394041086
721,3969.3465394041086
784,0.0
785,0.0
848,0.0
849,0.0
1121,3718.9039872971684
1135,1292.1385088771167
1161,59.22678045760856
1163,0.0
1166,2071.5890456001903
1168,2071.5890456001903
2,1, 1,29, 0, 9, 0.00,60.00,Monday
7,-7.8
545,19.698617258380963
546,-2.6344508957899495
547,13.651433787516702
548,146.60140667535111
720,3828.1298998782186
721,3828.1298998782186
784,0.0
785,0.0
848,0.0
849,0.0
1121,3626.5835305329815
1135,1283.8530031220232
1161,60.04661526853854
1163,0.0
1166,2022.7500162374956
1168,2022.7500162374956
2,1, 1,29, 0,10, 0.00,60.00,Monday
7,-8.9
545,19.71281109841536
546,-2.3833087406677933
547,13.474119204315086
548,146.60140667535111
720,3405.6634322462596
721,3405.6634322462596
784,0.0
785,0.0
848,0.0
849,0.0
1121,3551.8480836984
1135,1287.6487827101641
1161,47.98707858043913
1163,0.0
1166,1625.3748411579447
1168,1625.3748411579447
2,1, 1,29, 0,11, 0.00,60.00,Monday
7,-9.4
545,19.728726168036914
546,-0.39331248241866223
547,13.323898471815381
548,146.60140667535111
720,2745.562462672069
721,2745.562462672069
784,0.0
785,0.0
848,0.0
849,0.0
1121,3510.5484919056153
1135,1286.6473542253264
1161,44.475006904687206
1163,0.0
1166,889.9585245038411
1168,889.9585245038411
2,1, 1,29, 0,12, 0.00,60.00,Monday
7,-9.4
545,19.723086508327103
546,0.7886840092816612
547,13.197949593516045
548,146.60140667535111
720,3042.5615334066606
721,3042.5615334066606
784,0.0
785,0.0
848,0.0
849,0.0
1121,3510.317291517277
1135,1286.782308488221
1161,44.49795749955858
1163,0.0
1166,1130.5884505194776
1168,1130.5884505194776
2,1, 1,29, 0,13, 0.00,60.00,Monday
7,-8.3
545,19.71880393284001
546,1.1891243629541408
547,13.09407608939849
548,146.60140667535111
720,3219.219015665123
721,3219.219015665123
784,0.0
785,0.0
848,0.0
849,0.0
1121,3649.0415849028795
1135,1305.8754832030165
1161,39.39136866924261
1163,0.0
1166,1135.3020557313512
1168,1135.3020557313512
2,1, 1,29, 0,14, 0.00,60.00,Monday
7,-7.8
545,19.714003572866545
546,1.022251109225287
547,12.986688012390418
548,146.60140667535111
720,3319.227124708481
721,3319.227124708481
784,0.0
785,0.0
848,0.0
849,0.0
1121,3717.227427084863
1135,1315.7541930522068
1161,36.0555436892276
1163,0.0
1166,1168.392367851015
1168,1168.392367851015
2,1, 1,29, 0,15, 0.00,60.00,Monday
7,-6.7
545,19.725595225019223
546,2.3698549484826716
547,12.89681966574649
548,146.60140667535111
720,2847.2805995495964
721,2847.2805995495964
784,0.0
785,0.0
848,0.0
849,0.0
1121,3818.2272145328143
1135,1320.108008642028
1161,41.962157060903394
1163,0.0
1166,524.8804393429446
1168,524.8804393429446
2,1, 1,29, 0,16, 0.00,60.00,Monday
7,-7.0
545,19.722836277158205
546,1.3383127072091174
547,12.79925242427096
548,146.60140667535111
720,3035.489807565158
721,3035.489807565158
784,0.0
785,0.0
848,0.0
849,0.0
1121,3761.2492964088397
1135,1308.8455894866856
1161,47.92701772590697
1163,0.0
1166,730.6582152613528
1168,730.6582152613528
2,1, 1,29, 0,17, 0.00,60.00,Monday
7,-6.7
545,19.710782959368885
546,0.4075429311577484
547,12.711403423479709
548,146.60140667535111
720,3144.566362388021
721,3144.566362388021
784,0.0
785,0.0
848,0.0
849,0.0
1121,3818.029042317357
1135,1319.9514507888898
1161,42.028097683913934
1163,0.0
1166,844.7375940143443
1168,844.7375940143443
2,1, 1,29, 0,18, 0.00,60.00,Monday
7,-6.7
545,19.717794904910924
546,0.29769364624251365
547,12.622514609454646
548,146.60140667535111
720,2783.1015254433296
721,2783.1015254433296
784,0.0
785,0.0
848,0.0
849,0.0
1121,3818.9188603593966
1135,1319.7312442727723
1161,41.89049590169401
1163,0.0
1166,474.69408885653047
1168,474.69408885653047
2,1, 1,29, 0,19, 0.00,60.00,Monday
7,-6.7
545,19.72088894233246
546,-1.4694588426220268
547,12.530379851835058
548,146.60140667535111
720,2657.3452863806706
721,2657.3452863806706
784,0.0
785,0.0
848,0.0
849,0.0
1121,3818.345860329958
1135,1319.5876548808674
1161,42.028097683913934
1163,0.0
1166,334.7815042328739
1168,334.7815042328739
2,1, 1,29, 0,20, 0.00,60.00,Monday
7,-6.7
545,19.712885325779865
546,-1.6191468886439337
547,12.437110309645808
548,146.60140667535111
720,2587.2199381986047
721,2587.2199381986047
784,0.0
785,0.0
848,0.0
849,0.0
1121,3795.377374348039
1135,1311.593999007289
1161,47.92799271231177
1163,0.0
1166,356.77032308650723
1168,356.77032308650723
2,1, 1,29, 0,21, 0.00,60.00,Monday
7,-7.2
545,19.674576955860907
546,-2.219292930685032
547,12.327585940504243
548,146.60140667535111
720,3996.6451956821766
721,3996.6451956821766
784,0.0
785,0.0
848,0.0
849,0.0
1121,3799.1868287222132
1135,1326.1704641883136
1161,32.50347804716323
1163,0.0
1166,2029.0261016512109
1168,2029.0261016512109
2,1, 1,29, 0,22, 0.00,60.00,Monday
7,-7.8
545,19.679128083915472
546,-2.536574858193928
547,12.222271593390092
548,146.60140667535111
720,4274.614735450512
721,4274.614735450512
784,0.0
785,0.0
848,0.0
849,0.0
1121,3719.1844136092104
1135,1313.4475396724727
1161,36.0709869678375
1163,0.0
1166,2498.0271385531587
1168,2498.0271385531587
2,1, 1,29, 0,23, 0.00,60.00,Monday
7,-12.2
545,18.899671053552783
546,-6.250748938080692
547,12.078886391924714
548,146.60140667535111
720,4478.794077529239
721,4478.794077529239
784,0.0
785,0.0
848,0.0
849,0.0
1121,3309.338722925779
1135,1286.2020811990728
1161,17.079159472895956
1163,0.0
1166,3177.109641414224
1168,3177.109641414224
2,1, 1,29, 0,24, 0.00,60.00,Monday
7,-12.2
545,18.6487148986921
546,-6.8579963212819015
547,11.934448068789317
548,146.60140667535111
720,4978.70236300983
721,4978.70236300983
784,0.0
785,0.0
848,0.0
849,0.0
1121,3326.4738783525863
1135,1267.9450068254469
1161,17.079159472895956
1163,0.0
1166,3867.5406115049764
1168,3867.5406115049764
2,2, 1,30, 0, 1, 0.00,60.00,Tuesday
7,-16.1
545,18.53429857071959
546,-9.847503439764125
547,11.763307395463142
548,146.60140667535111
720,6753.8034533896825
721,6753.8034533896825
784,0.0
785,0.0
848,0.0
849,0.0
1121,2964.159301594285
1135,1225.7968822838757
1161,7.387979243761547
1163,0.0
1166,6350.272700064921
1168,6350.272700064921
2,2, 1,30, 0, 2, 0.00,60.00,Tuesday
7,-17.2
545,18.516587670550734
546,-10.729174706585
547,11.621271864562592
548,146.60140667535111
720,6918.692317912137
721,6918.692317912137
784,0.0
785,0.0
848,0.0
849,0.0
1121,2862.7369679091453
1135,1210.3509414948867
1161,6.145720243753496
1163,0.0
1166,6825.555337222658
1168,6825.555337222658
2,2, 1,30, 0, 3, 0.00,60.00,Tuesday
7,-18.0
545,18.501220136420482
546,-12.266978824263923
547,11.462367336532035
548,146.60140667535111
720,7772.146544738929
721,7772.146544738929
784,0.0
785,0.0
848,0.0
849,0.0
1121,2790.1448337531456
1135,1200.7263485807364
1161,4.8025005054121355
1163,0.0
1166,7959.929371643517
1168,7959.929371643517
2,2, 1,30, 0, 4, 0.00,60.00,Tuesday
7,-18.3
545,18.561237227715594
546,-11.355995620304551
547,11.31985609619537
548,146.60140667535111
720,5966.374295933061
721,5966.374295933061
784,0.0
785,0.0
848,0.0
849,0.0
1121,2756.6841864386615
1135,1193.9823734456359
1161,6.762713099297223
1163,0.0
1166,5973.55993460575
1168,5973.55993460575
2,2, 1,30, 0, 5, 0.00,60.00,Tuesday
7,-17.8
545,18.557611029764008
546,-10.72060344227671
547,11.164363037866552
548,146.60140667535111
720,6109.978425413679
721,6109.978425413679
784,0.0
785,0.0
848,0.0
849,0.0
1121,2806.533512968369
1135,1203.2006317587984
1161,5.540607823173019
1163,0.0
1166,6031.574773777062
1168,6031.574773777062
2,2, 1,30, 0, 6, 0.00,60.00,Tuesday
7,-17.8
545,19.32516350545617
546,-10.42444840343431
547,11.005865817868656
548,146.60140667535111
720,7314.17857896635
721,7314.17857896635
784,0.0
785,0.0
848,0.0
849,0.0
1121,2806.8016350979865
1135,1202.9454202863485
1161,5.540607823173019
1163,0.0
1166,7392.963747587469
1168,7392.963747587469
2,2, 1,30, 0, 7, 0.00,60.00,Tuesday
7,-18.3
545,19.54466408756618
546,-11.652398149500828
547,10.877163579541962
548,146.60140667535111
720,7745.223489790133
721,7745.223489790133
784,0.0
785,0.0
848,0.0
849,0.0
1121,2739.9221186605173
1135,1209.6435688120564
1161,6.762713099297223
1163,0.0
1166,8033.019798203011
1168,8033.019798203011
2,2, 1,30, 0, 8, 0.00,60.00,Tuesday
7,-20.0
545,19.595153329264253
546,-11.609017221606223
547,10.719014284320012
548,146.60140667535111
720,7977.9523237316625
721,7977.9523237316625
784,0.0
785,0.0
848,0.0
849,0.0
1121,2586.755943208816
1135,1193.303270050859
1161,3.156675008177194
1163,0.0
1166,8572.629894576343
1168,8572.629894576343
2,2, 1,30, 0, 9, 0.00,60.00,Tuesday
7,-20.6
545,19.615040503977966
546,-12.266617272228297
547,10.571288662831588
548,146.60140667535111
720,8098.058065684931
721,8098.058065684931
784,0.0
785,0.0
848,0.0
849,0.0
1121,2539.0028375481957
1135,1188.6202823183673
1161,0.07062075441856383
1163,0.0
1166,8789.307590589184
1168,8789.307590589184
2,2, 1,30, 0,10, 0.00,60.00,Tuesday
7,-20.6
545,19.63695411638391
546,-12.835304453201063
547,10.424135641398102
548,146.60140667535111
720,7555.301944933455
721,7555.301944933455
784,0.0
785,0.0
848,0.0
849,0.0
1121,2538.7776787475455
1135,1188.814269067304
1161,0.07062075441856383
1163,0.0
1166,8196.48912841021
1168,8196.48912841021
2,2, 1,30, 0,11, 0.00,60.00,Tuesday
7,-18.9
545,19.690344166258487
546,-10.516185013890272
547,10.301761452744453
548,146.60140667535111
720,5578.760304614998
721,5578.760304614998
784,0.0
785,0.0
848,0.0
849,0.0
1121,2695.3089241304083
1135,1214.4668346175597
1161,0.07062075441856383
1163,0.0
1166,5755.422940629618
1168,5755.422940629618
2,2, 1,30, 0,12, 0.00,60.00,Tuesday
7,-18.9
545,19.708415395137482
546,-8.72975570568671
547,10.176126926003109
548,146.60140667535111
720,4907.680293763591
721,4907.680293763591
784,0.0
785,0.0
848,0.0
849,0.0
1121,2694.3236144743864
1135,1215.3616031566917
1161,0.07062075441856383
1163,0.0
1166,4827.895627176729
1168,4827.895627176729
2,2, 1,30, 0,13, 0.00,60.00,Tuesday
7,-18.3
545,19.702031568453666
546,-7.971563680154162
547,10.080994889617394
548,146.60140667535111
720,4764.2108306226055
721,4764.2108306226055
784,0.0
785,0.0
848,0.0
849,0.0
1121,2750.840415516127
1135,1224.2499244489936
1161,0.07062075441856383
1163,0.0
1166,4487.3564642945785
1168,4487.3564642945785
2,2, 1,30, 0,14, 0.00,60.00,Tuesday
7,-18.3
545,19.691464599573216
546,-8.207555574608966
547,10.006220243776534
548,146.60140667535111
720,4723.634315969941
721,4723.634315969941
784,0.0
785,0.0
848,0.0
849,0.0
1121,2751.1084640477334
1135,1224.0023260492358
1161,0.07062075441856383
1163,0.0
1166,4381.06897343048
1168,4381.06897343048
2,2, 1,30, 0,15, 0.00,60.00,Tuesday
7,-18.3
545,19.68311715743177
546,-7.5121726982881265
547,9.950982081150533
548,146.60140667535111
720,4493.610391974404
721,4493.610391974404
784,0.0
785,0.0
848,0.0
849,0.0
1121,2751.471851172946
1135,1223.6665829025744
1161,0.07062075441856383
1163,0.0
1166,4129.55377428334
1168,4129.55377428334
2,2, 1,30, 0,16, 0.00,60.00,Tuesday
7,-19.4
545,19.70779121042068
546,-8.848281426890573
547,9.910838078153537
548,146.60140667535111
720,3744.4305924977198
721,3744.4305924977198
784,0.0
785,0.0
848,0.0
849,0.0
1121,2648.221459620068
1135,1207.4469240382882
1161,0.07062075441856383
1163,0.0
1166,3314.001085288346
1168,3314.001085288346
2,2, 1,30, 0,17, 0.00,60.00,Tuesday
7,-20.6
545,19.697078626466727
546,-8.484149712650309
547,9.879069432202535
548,146.60140667535111
720,3510.922339685283
721,3510.922339685283
784,0.0
785,0.0
848,0.0
849,0.0
1121,2537.5805369080563
1135,1189.8449781304248
1161,0.07062075441856383
1163,0.0
1166,3196.815555166074
1168,3196.815555166074
2,2, 1,30, 0,18, 0.00,60.00,Tuesday
7,-20.6
545,19.674885768785497
546,-10.03957226018259
547,9.854344354579204
548,146.60140667535111
720,4102.592615023572
721,4102.592615023572
784,0.0
785,0.0
848,0.0
849,0.0
1121,2537.8479787578335
1135,1189.6148189105438
1161,0.07062075441856383
1163,0.0
1166,3865.6017708286545
1168,3865.6017708286545
2,2, 1,30, 0,19, 0.00,60.00,Tuesday
7,-21.7
545,19.64859612556212
546,-12.427493045578169
547,9.806915138201191
548,146.60140667535111
720,4594.986871518051
721,4594.986871518051
784,0.0
785,0.0
848,0.0
849,0.0
1121,2439.8493404302717
1135,1172.1795088731046
1161,0.07062075441856383
1163,0.0
1166,4615.22695023514
1168,4615.22695023514
2,2, 1,30, 0,20, 0.00,60.00,Tuesday
7,-22.2
545,19.606437925224842
546,-14.223440464695035
547,9.733783088030743
548,146.60140667535111
720,5860.402842758023
721,5860.402842758023
784,0.0
785,0.0
848,0.0
849,0.0
1121,2396.099051424999
1135,1163.5151351356565
1161,0.26155716282490327
1163,0.0
1166,6276.917458287946
1168,6276.917458287946
2,2, 1,30, 0,21, 0.00,60.00,Tuesday
7,-22.8
545,19.628184124325678
546,-13.456900033859467
547,9.648064990468724
548,146.60140667535111
720,5783.484631410416
721,5783.484631410416
784,0.0
785,0.0
848,0.0
849,0.0
1121,2345.298972892829
1135,1153.4383451706663
1161,0.07062075441856383
1163,0.0
1166,6367.229431241636
1168,6367.229431241636
2,2, 1,30, 0,22, 0.00,60.00,Tuesday
7,-23.3
545,19.616232101162687
546,-15.225392048246709
547,9.533404396404155
548,146.60140667535111
720,6785.14775496839
721,6785.14775496839
784,0.0
785,0.0
848,0.0
849,0.0
1121,2302.093464409369
1135,1145.5865741201128
1161,0.07062075441856383
1163,0.0
1166,7568.593149993495
1168,7568.593149993495
2,2, 1,30, 0,23, 0.00,60.00,Tuesday
7,-23.3
545,18.823137126753757
546,-15.978729460161938
547,9.408442320876835
548,146.60140667535111
720,6723.084283566615
721,6723.084283566615
784,0.0
785,0.0
848,0.0
849,0.0
1121,2302.5521443867333
1135,1145.2280512954371
1161,0.07062075441856383
1163,0.0
1166,7617.102435038474
1168,7617.102435038474
2,2, 1,30, 0,24, 0.00,60.00,Tuesday
7,-23.3
545,18.590903834870353
546,-16.076486468123576
547,9.240482764234757
548,146.60140667535111
720,7403.249461250241
721,7403.249461250241
784,0.0
785,0.0
848,0.0
849,0.0
1121,2319.080934339365
1135,1132.1750407784386
1161,0.07062075441856383
1163,0.0
1166,8386.397569261955
1168,8386.397569261955
2,3, 1,31, 0, 1, 0.00,60.00,Wednesday
7,-23.3
545,18.527579013673556
546,-15.934507580650799
547,9.09561361988107
548,146.60140667535111
720,7772.702590625091
721,7772.702590625091
784,0.0
785,0.0
848,0.0
849,0.0
1121,2321.2798805530388
1135,1126.9125419007087
1161,1.2683775135653506
1163,0.0
1166,8817.344736908613
1168,8817.344736908613
2,3, 1,31, 0, 2, 0.00,60.00,Wednesday
7,-23.3
545,18.459645206623296
546,-16.560392023124248
547,8.931543288295078
548,146.60140667535111
720,9648.754262529072
721,9648.754262529072
784,0.0
785,0.0
848,0.0
849,0.0
1121,2322.8643592649137
1135,1125.6403238369721
1161,1.2683775135653506
1163,0.0
1166,11030.453631621502
1168,11030.453631621502
2,3, 1,31, 0, 3, 0.00,60.00,Wednesday
7,-24.4
545,18.487535446718592
546,-15.881772109991042
547,8.779509518965032
548,146.60140667535111
720,9079.56944277083
721,9079.56944277083
784,0.0
785,0.0
848,0.0
849,0.0
1121,2234.2075666513124
1135,1108.6281509040812
1161,0.07062075441856383
1163,0.0
1166,10525.304907517802
1168,10525.304907517802
2,3, 1,31, 0, 4, 0.00,60.00,Wednesday
7,-25.0
545,18.093325190554634
546,-18.139808295359316
547,8.616132697182044
548,146.60140667535111
720,10164.703944193274
721,10164.703944193274
784,0.0
785,0.0
848,0.0
849,0.0
1121,2184.2283658503275
1135,1099.327937341493
1161,0.07062075441856383
1163,0.0
1166,11032.90591760278
1168,11032.90591760278
2,3, 1,31, 0, 5, 0.00,60.00,Wednesday
7,-26.1
545,18.38531669978343
546,-17.905781234457333
547,8.446456338682971
548,146.60140667535111
720,9058.815193492239
721,9058.815193492239
784,0.0
785,0.0
848,0.0
849,0.0
1121,2102.9925106421883
1135,1075.7199960682156
1161,0.07062075441856383
1163,0.0
1166,10654.358868089294
1168,10654.358868089294
2,3, 1,31, 0, 6, 0.00,60.00,Wednesday
7,-26.7
545,18.589833413130368
546,-17.793085888390603
547,8.301401171642892
548,146.60140667535111
720,10461.068074017456
721,10461.068074017456
784,0.0
785,0.0
848,0.0
849,0.0
1121,2049.7189244808105
1135,1069.8962887142552
1161,0.07062075441856383
1163,0.0
1166,11032.90591760278
1168,11032.90591760278
2,3, 1,31, 0, 7, 0.00,60.00,Wednesday
7,-26.7
545,17.722384647968415
546,-19.32033474588726
547,8.137193119748783
548,146.60140667535111
720,12037.953839111102
721,12037.953839111102
784,0.0
785,0.0
848,0.0
849,0.0
1121,2045.9635132940698
1135,1072.5182231797585
1161,0.07062075441856383
1163,0.0
1166,11032.90591760278
1168,11032.90591760278
2,3, 1,31, 0, 8, 0.00,60.00,Wednesday
7,-26.1
545,18.605909189263514
546,-17.743041412223963
547,7.966387447350258
548,146.60140667535111
720,10093.119711700643
721,10093.119711700643
784,0.0
785,0.0
848,0.0
849,0.0
1121,2110.917089535164
1135,1069.9338292661635
1161,0.07062075441856383
1163,0.0
1166,11032.90591760278
1168,11032.90591760278
2,3, 1,31, 0, 9, 0.00,60.00,Wednesday
7,-25.0
545,18.346163814374844
546,-17.404823495755302
547,7.8537300850853775
548,146.60140667535111
720,11084.996972895275
721,11084.996972895275
784,0.0
785,0.0
848,0.0
849,0.0
1121,2182.8364664460355
1135,1100.3742389333952
1161,0.07062075441856383
1163,0.0
1166,11032.90591760278
1168,11032.90591760278
2,3, 1,31, 0,10, 0.00,60.00,Wednesday
7,-24.4
545,18.3275551282487
546,-16.797558402593733
547,7.684415940853741
548,146.60140667535111
720,10998.624490853514
721,10998.624490853514
784,0.0
785,0.0
848,0.0
849,0.0
1121,2237.992089867935
1135,1105.7012360581514
1161,0.07062075441856383
1163,0.0
1166,11032.90591760278
1168,11032.90591760278
2,3, 1,31, 0,11, 0.00,60.00,Wednesday
7,-23.3
545,19.278762462467142
546,-15.381521947913118
547,7.580931822999544
548,146.60140667535111
720,8737.305149473079
721,8737.305149473079
784,0.0
785,0.0
848,0.0
849,0.0
1121,2331.3322746915646
1135,1122.3334840401083
1161,0.07062075441856383
1163,0.0
1166,10068.567447971935
1168,10068.567447971935
2,3, 1,31, 0,12, 0.00,60.00,Wednesday
7,-23.3
545,19.549593092269717
546,-14.384355888008638
547,7.516768554095133
548,146.60140667535111
720,7878.3290894614765
721,7878.3290894614765
784,0.0
785,0.0
848,0.0
849,0.0
1121,2312.0139603017906
1135,1137.7876371301645
1161,0.07062075441856383
1163,0.0
1166,9066.599962663267
1168,9066.599962663267
2,3, 1,31, 0,13, 0.00,60.00,Wednesday
7,-22.2
545,19.655647292225073
546,-13.080165965209215
547,7.464676814045847
548,146.60140667535111
720,6310.226642513995
721,6310.226642513995
784,0.0
785,0.0
848,0.0
849,0.0
1121,2401.491475055824
1135,1159.6941139384821
1161,0.07062075441856383
1163,0.0
1166,7080.748376657979
1168,7080.748376657979
2,3, 1,31, 0,14, 0.00,60.00,Wednesday
7,-21.7
545,19.688369498354152
546,-10.556471752882471
547,7.432644005583407
548,146.60140667535111
720,5366.126555844909
721,5366.126555844909
784,0.0
785,0.0
848,0.0
849,0.0
1121,2443.3325300548618
1135,1169.2867461709036
1161,0.07062075441856383
1163,0.0
1166,5838.686642736107
1168,5838.686642736107
2,3, 1,31, 0,15, 0.00,60.00,Wednesday
7,-21.7
545,19.699419213323914
546,-10.29332952774295
547,7.41302321965464
548,146.60140667535111
720,4905.007650584534
721,4905.007650584534
784,0.0
785,0.0
848,0.0
849,0.0
1121,2442.6901255268035
1135,1169.821053624441
1161,0.07062075441856383
1163,0.0
1166,5148.205807728886
1168,5148.205807728886
2,3, 1,31, 0,16, 0.00,60.00,Wednesday
7,-21.7
545,19.69289598553188
546,-10.541599967775552
547,7.4122563162584845
548,146.60140667535111
720,4509.916932453085
721,4509.916932453085
784,0.0
785,0.0
848,0.0
849,0.0
1121,2442.4681715216784
1135,1170.0055759955285
1161,0.07062075441856383
1163,0.0
1166,4642.108341596865
1168,4642.108341596865
2,3, 1,31, 0,17, 0.00,60.00,Wednesday
7,-22.2
545,19.67639518468865
546,-12.322219035344288
547,7.416545242801706
548,146.60140667535111
720,4520.559445911167
721,4520.559445911167
784,0.0
785,0.0
848,0.0
849,0.0
1121,2398.6252489278177
1135,1162.0379691933665
1161,0.07062075441856383
1163,0.0
1166,4693.180526381035
1168,4693.180526381035
2,3, 1,31, 0,18, 0.00,60.00,Wednesday
7,-22.2
545,19.6563539793891
546,-13.683888010697288
547,7.428225636688234
548,146.60140667535111
720,4788.089665102398
721,4788.089665102398
784,0.0
785,0.0
848,0.0
849,0.0
1121,2398.9623555392027
1135,1161.762682438406
1161,0.07062075441856383
1163,0.0
1166,5084.664034633959
1168,5084.664034633959
2,3, 1,31, 0,19, 0.00,60.00,Wednesday
7,-24.4
545,19.650652764684963
546,-11.129389133469278
547,7.413976826074895
548,146.60140667535111
720,4766.057907625807
721,4766.057907625807
784,0.0
785,0.0
848,0.0
849,0.0
1121,2211.24507603487
1135,1125.7856918323878
1161,0.17871077646983002
1163,0.0
1166,5322.915834688522
1168,5322.915834688522
2,3, 1,31, 0,20, 0.00,60.00,Wednesday
7,-25.0
545,19.653390184498512
546,-12.817719427299012
547,7.384585760731661
548,146.60140667535111
720,5412.528968694911
721,5412.528968694911
784,0.0
785,0.0
848,0.0
849,0.0
1121,2161.589083699424
1135,1115.5323544583325
1161,0.28513307242909564
1163,0.0
1166,6011.675844934331
1168,6011.675844934331
2,3, 1,31, 0,21, 0.00,60.00,Wednesday
7,-25.1
545,19.64032718596013
546,-13.24576757576834
547,7.335286199073516
548,146.60140667535111
720,5697.849101174386
721,5697.849101174386
784,0.0
785,0.0
848,0.0
849,0.0
1121,2153.440576413528
1135,1113.8977490855648
1161,0.25361216358373256
1163,0.0
1166,6428.428265952458
1168,6428.428265952458
2,3, 1,31, 0,22, 0.00,60.00,Wednesday
7,-24.9
545,19.63487019548701
546,-13.830707359452836
547,7.270968651371296
548,146.60140667535111
720,6104.194836517572
721,6104.194836517572
784,0.0
785,0.0
848,0.0
849,0.0
1121,2168.793008734213
1135,1116.3148962641583
1161,0.9027343803228377
1163,0.0
1166,6924.454447024524
1168,6924.454447024524
2,3, 1,31, 0,23, 0.00,60.00,Wednesday
7,-24.2
545,18.86883865455188
546,-14.175754848827012
547,7.198735596365339
548,146.60140667535111
720,5319.954428181138
721,5319.954428181138
784,0.0
785,0.0
848,0.0
849,0.0
1121,2225.677550255821
1135,1127.1607589491389
1161,1.4992026459391194
1163,0.0
1166,6005.404404427083
1168,6005.404404427083
2,3, 1,31, 0,24, 0.00,60.00,Wednesday
7,-23.1
545,18.631998012891348
546,-14.04523420054058
547,7.084517777219073
548,146.60140667535111
720,5861.04220580716
721,5861.04220580716
784,0.0
785,0.0
848,0.0
849,0.0
1121,2332.5260207165775
1135,1131.40970234364
1161,2.3918667642432343
1163,0.0
1166,6473.790384278089
1168,6473.790384278089
2,4, 2, 1, 0, 1, 0.00,60.00,Thursday
7,-21.7
545,18.560302194139283
546,-13.760022461713323
547,6.995395965535505
548,146.60140667535111
720,6276.296787362284
721,6276.296787362284
784,0.0
785,0.0
848,0.0
849,0.0
1121,2457.25986228098
1135,1147.4817284917401
1161,3.2645631624066795
1163,0.0
1166,6816.317304273286
1168,6816.317304273286
2,4, 2, 1, 0, 2, 0.00,60.00,Thursday
7,-20.3
545,18.5407481121389
546,-13.048670700565339
547,6.902493369908705
548,146.60140667535111
720,6577.0781784231385
721,6577.0781784231385
784,0.0
785,0.0
848,0.0
849,0.0
1121,2582.947081009821
1135,1165.703453307498
1161,3.8521115100079406
1163,0.0
1166,7032.813329257104
1168,7032.813329257104
2,4, 2, 1, 0, 3, 0.00,60.00,Thursday
7,-19.1
545,18.53731220245374
546,-12.224726829227867
547,6.811055051854232
548,146.60140667535111
720,6815.381068800916
721,6815.381068800916
784,0.0
785,0.0
848,0.0
849,0.0
1121,2692.8242699333923
1135,1181.4189162021576
1161,4.336634103760071
1163,0.0
1166,7176.208058844475
1168,7176.208058844475
2,4, 2, 1, 0, 4, 0.00,60.00,Thursday
7,-18.3
545,18.541979629519172
546,-11.347029487375634
547,6.720894802334399
548,146.60140667535111
720,6846.969853675037
721,6846.969853675037
784,0.0
785,0.0
848,0.0
849,0.0
1121,2766.316290830721
1135,1191.2804622196466
1161,5.057960886418254
1163,0.0
1166,7104.171820015716
1168,7104.171820015716
2,4, 2, 1, 0, 5, 0.00,60.00,Thursday
7,-17.4
545,18.54954138544149
546,-10.557271742022756
547,6.636585386715189
548,146.60140667535111
720,6715.410618020143
721,6715.410618020143
784,0.0
785,0.0
848,0.0
849,0.0
1121,2848.2212717453594
1135,1201.4499256986217
1161,6.561326022912926
1163,0.0
1166,6826.283881847297
1168,6826.283881847297
2,4, 2, 1, 0, 6, 0.00,60.00,Thursday
7,-16.4
545,19.337480854219002
546,-9.503838258259027
547,6.558998329031931
548,146.60140667535111
720,7576.214291201728
721,7576.214291201728
784,0.0
785,0.0
848,0.0
849,0.0
1121,2940.1991690960504
1135,1212.2774152852187
1161,8.399404739872114
1163,0.0
1166,7681.682374397344
1168,7681.682374397344
2,4, 2, 1, 0, 7, 0.00,60.00,Thursday
7,-17.2
545,19.57027156597846
546,-9.357263206592695
547,6.510205178580827
548,146.60140667535111
720,7299.3106030106355
721,7299.3106030106355
784,0.0
785,0.0
848,0.0
849,0.0
1121,2851.969953661138
1135,1220.5381617285534
1161,6.19252971202032
1163,0.0
1166,7472.630554561507
1168,7472.630554561507
2,4, 2, 1, 0, 8, 0.00,60.00,Thursday
7,-15.6
545,19.643850122275047
546,-8.300645362471476
547,6.456547834952114
548,146.60140667535111
720,6724.218765981175
721,6724.218765981175
784,0.0
785,0.0
848,0.0
849,0.0
1121,2990.3045895227683
1135,1240.9099714044753
1161,10.921529365289931
1163,0.0
1166,6675.323835959918
1168,6675.323835959918
2,4, 2, 1, 0, 9, 0.00,60.00,Thursday
7,-14.4
545,19.673936779099648
546,-7.381570175854858
547,6.403251370256865
548,146.60140667535111
720,6218.862967810093
721,6218.862967810093
784,0.0
785,0.0
848,0.0
849,0.0
1121,3103.3107580377764
1135,1255.5428312844801
1161,12.893080526795119
1163,0.0
1166,5915.6224072066325
1168,5915.6224072066325
2,4, 2, 1, 0,10, 0.00,60.00,Thursday
7,-13.3
545,19.681907731218292
546,-6.496266099520685
547,6.353494563714934
548,146.60140667535111
720,5950.775520217954
721,5950.775520217954
784,0.0
785,0.0
848,0.0
849,0.0
1121,3197.9345396635863
1135,1263.088956404564
1161,18.40300905533731
1163,0.0
1166,5448.4635870914735
1168,5448.4635870914735
2,4, 2, 1, 0,11, 0.00,60.00,Thursday
7,-10.0
545,19.702801057712154
546,-4.830081843485055
547,6.3239298313267325
548,146.60140667535111
720,5161.583230060029
721,5161.583230060029
784,0.0
785,0.0