Program Version,EnergyPlus, Version 22.2.0-c249759bad, YMD=2023.09.01 14:31
1,5,Environment Title[],Latitude[deg],Longitude[deg],Time Zone[],Elevation[m]
2,8,Day of Simulation[],Month[],Day of Month[],DST Indicator[1=yes 0=no],Hour[],StartMinute[],EndMinute[],DayType
3,5,Cumulative Day of Simulation[],Month[],Day of Month[],DST Indicator[1=yes 0=no],DayType  ! When Daily Report Variables Requested
4,2,Cumulative Days of Simulation[],Month[]  ! When Monthly Report Variables Requested
5,1,Cumulative Days of Simulation[] ! When Run Period Report Variables Requested
6,1,Calendar Year of Simulation[] ! When Annual Report Variables Requested
7,1,Environment,Site Outdoor Air Drybulb Temperature [C] !Hourly
545,1,LIVING,Zone Mean Air Temperature [C] !Hourly
546,1,ATTIC,Zone Mean Air Temperature [C] !Hourly
547,1,CRAWLSPACE,Zone Mean Air Temperature [C] !Hourly
548,1,FAN,Fan Electricity Rate [W] !Hourly
720,1,LIVING,Zone Predicted Sensible Load to Heating Setpoint Heat Transfer Rate [W] !Hourly
721,1,LIVING,Zone System Predicted Sensible Load to Heating Setpoint Heat Transfer Rate [W] !Hourly
784,1,ATTIC,Zone Predicted Sensible Load to Heating Setpoint Heat Transfer Rate [W] !Hourly
785,1,ATTIC,Zone System Predicted Sensible Load to Heating Setpoint Heat Transfer Rate [W] !Hourly
848,1,CRAWLSPACE,Zone Predicted Sensible Load to Heating Setpoint Heat Transfer Rate [W] !Hourly
849,1,CRAWLSPACE,Zone System Predicted Sensible Load to Heating Setpoint Heat Transfer Rate [W] !Hourly
1121,1,DX_HEATING_COIL,Heating Coil Heating Rate [W] !Hourly
1135,1,DX_HEATING_COIL,Heating Coil Electricity Rate [W] !Hourly
1161,1,DX_HEATING_COIL,Heating Coil Defrost Electricity Rate [W] !Hourly
1163,1,DX_HEATING_COIL,Heating Coil Crankcase Heater Electricity Rate [W] !Hourly
1166,1,HEATING_RESISTANCE_BACKUP,Heating Coil Heating Rate [W] !Hourly
1168,1,HEATING_RESISTANCE_BACKUP,Heating Coil Electricity Rate [W] !Hourly
End of Data Dictionary
1,EXTREME_WINTER,  42.94, -78.72,  -5.00, 218.20
2,1, 2, 3, 0, 1, 0.00,60.00,Monday
7,-9.0
545,18.636746578656545
546,-2.4204421015078053
547,17.268240014597215
548,146.4109120889408
720,2998.7612728916683
721,2998.7612728916683
784,0.0
785,0.0
848,0.0
849,0.0
1121,3591.3150199647407
1135,1278.9484066149014
1161,37.63251153719975
1163,0.0
1166,1018.2409460674166
1168,1018.2409460674166
2,1, 2, 3, 0, 2, 0.00,60.00,Monday
7,-9.4
545,18.61505962792548
546,-2.8105556445483364
547,16.765476414822803
548,146.4109120889408
720,3297.9559031773806
721,3297.9559031773806
784,0.0
785,0.0
848,0.0
849,0.0
1121,3547.022183886697
1135,1271.8855687813095
1161,38.29086661572613
1163,0.0
1166,1310.9162503293094
1168,1310.9162503293094
2,1, 2, 3, 0, 3, 0.00,60.00,Monday
7,-9.0
545,18.5997171035704
546,-2.947785911983651
547,16.510427083922412
548,146.4109120889408
720,3465.436786726139
721,3465.436786726139
784,0.0
785,0.0
848,0.0
849,0.0
1121,3593.895530230269
1135,1276.05783344965
1161,37.63251153719975
1163,0.0
1166,1478.544253744508
1168,1478.544253744508
2,1, 2, 3, 0, 4, 0.00,60.00,Monday
7,-11.0
545,18.585715738457143
546,-3.4564223600299955
547,16.220777849734986
548,146.4109120889408
720,3897.5829981012794
721,3897.5829981012794
784,0.0
785,0.0
848,0.0
849,0.0
1121,3381.1321479010016
1135,1253.2435647690343
1161,37.3492129806779
1163,0.0
1166,2205.540518737235
1168,2205.540518737235
2,1, 2, 3, 0, 5, 0.00,60.00,Monday
7,-11.0
545,18.58587404210381
546,-3.864849278509059
547,15.9897072118466
548,146.4109120889408
720,3925.808472393275
721,3925.808472393275
784,0.0
785,0.0
848,0.0
849,0.0
1121,3381.873181454105
1135,1252.6071135246234
1161,37.31514903183196
1163,0.0
1166,2278.7624884372135
1168,2278.7624884372135
2,1, 2, 3, 0, 6, 0.00,60.00,Monday
7,-12.0
545,19.332439132202982
546,-4.044700168921721
547,15.761714451032864
548,146.4109120889408
720,5145.5911147850675
721,5145.5911147850675
784,0.0
785,0.0
848,0.0
849,0.0
1121,3290.030002958872
1135,1245.5140699947642
1161,33.62868912989312
1163,0.0
1166,3807.283150077151
1168,3807.283150077151
2,1, 2, 3, 0, 7, 0.00,60.00,Monday
7,-11.7
545,19.58058529555059
546,-4.3001514146173445
547,15.591559617587368
548,146.4109120889408
720,5047.56451032433
721,5047.56451032433
784,0.0
785,0.0
848,0.0
849,0.0
1121,3314.360656291059
1135,1269.364734256096
1161,30.98005513469959
1163,0.0
1166,3772.997314741489
1168,3772.997314741489
2,1, 2, 3, 0, 8, 0.00,60.00,Monday
7,-11.7
545,19.660616402047935
546,-4.282832356451067
547,15.403598754105282
548,146.4109120889408
720,4790.214948753148
721,4790.214948753148
784,0.0
785,0.0
848,0.0
849,0.0
1121,3309.1745160042105
1135,1274.924656181719
1161,30.98005513469959
1163,0.0
1166,3525.4464019265533
1168,3525.4464019265533
2,1, 2, 3, 0, 9, 0.00,60.00,Monday
7,-11.1
545,19.686527515520257
546,-4.259414288971531
547,15.230580940546147
548,146.4109120889408
720,4626.634830580186
721,4626.634830580186
784,0.0
785,0.0
848,0.0
849,0.0
1121,3350.290743395512
1135,1276.0023959593595
1161,36.978086104299805
1163,0.0
1166,3303.580432352972
1168,3303.580432352972
2,1, 2, 3, 0,10, 0.00,60.00,Monday
7,-10.6
545,19.703220896321568
546,-1.3797564985603565
547,15.061897207100543
548,146.4109120889408
720,4166.577683073912
721,4166.577683073912
784,0.0
785,0.0
848,0.0
849,0.0
1121,3364.3645570703497
1135,1267.8885310167498
1161,48.05069713813614
1163,0.0
1166,2758.5535323555096
1168,2758.5535323555096
2,1, 2, 3, 0,11, 0.00,60.00,Monday
7,-10.6
545,19.72517859654386
546,2.278601251037341
547,14.901301060554951
548,146.4109120889408
720,3721.8098596412983
721,3721.8098596412983
784,0.0
785,0.0
848,0.0
849,0.0
1121,3364.2060341825863
1135,1268.0613950660784
1161,48.05069713813614
1163,0.0
1166,2105.199570274484
1168,2105.199570274484
2,1, 2, 3, 0,12, 0.00,60.00,Monday
7,-6.1
545,19.754950094327604
546,6.555208601901061
547,14.79235544022087
548,146.4109120889408
720,2859.932064164921
721,2859.932064164921
784,0.0
785,0.0
848,0.0
849,0.0
1121,3897.537560657725
1135,1334.5573269601612
1161,37.16252965077031
1163,0.0
1166,384.19924193960105
1168,384.19924193960105
2,1, 2, 3, 0,13, 0.00,60.00,Monday
7,-6.1
545,19.788745390158862
546,9.531396477584076
547,14.664138860429215
548,140.312504462719
720,2632.792847818928
721,2632.792847818928
784,0.0
785,0.0
848,0.0
849,0.0
1121,3781.8225772724763
1135,1307.5100311491422
1161,19.396490426059483
1163,7.481165873834605
1166,0.0
1168,0.0
2,1, 2, 3, 0,14, 0.00,60.00,Monday
7,-6.1
545,19.814299178732337
546,10.730290271225437
547,14.560537834617193
548,125.44640064808269
720,2428.9429966361986
721,2428.9429966361986
784,0.0
785,0.0
848,0.0
849,0.0
1121,3338.6546044599477
1135,1169.6725219376822
1161,17.341446539694953
1163,27.878394670929872
1166,0.0
1168,0.0
2,1, 2, 3, 0,15, 0.00,60.00,Monday
7,-5.6
545,19.78488253605969
546,6.77358402255959
547,14.476082184161774
548,116.64838479688915
720,2392.9567853564313
721,2392.9567853564313
784,0.0
785,0.0
848,0.0
849,0.0
1121,3179.0413878980685
1135,1107.1636361439027
1161,2.492020009769946
1163,40.55397315582161
1166,0.0
1168,0.0
2,1, 2, 3, 0,16, 0.00,60.00,Monday
7,-5.6
545,19.742507139510323
546,7.06409432475918
547,14.402558873686448
548,113.28526361428025
720,2239.5500696672243
721,2239.5500696672243
784,0.0
785,0.0
848,0.0
849,0.0
1121,3088.4992318529835
1135,1077.1120128096832
1161,0.05457250619779909
1163,45.24801329937811
1166,0.0
1168,0.0
2,1, 2, 3, 0,17, 0.00,60.00,Monday
7,-5.6
545,19.746590283473
546,5.331576620667556
547,14.331958635239468
548,107.07035306454368
720,2090.648004604085
721,2090.648004604085
784,0.0
785,0.0
848,0.0
849,0.0
1121,2904.974679269404
1135,1017.1390560729944
1161,0.0515786193054746
1163,53.73781845629888
1166,0.0
1168,0.0
2,1, 2, 3, 0,18, 0.00,60.00,Monday
7,-7.0
545,19.63590544879398
546,1.4644805642657446
547,14.272918042901319
548,126.49422392852381
720,2275.2065783179896
721,2275.2065783179896
784,0.0
785,0.0
848,0.0
849,0.0
1121,3230.1978613949827
1135,1155.0680411301814
1161,31.79287408999083
1163,25.66213517628708
1166,0.0
1168,0.0
2,1, 2, 3, 0,19, 0.00,60.00,Monday
7,-7.0
545,19.62332075545099
546,-0.8513240105444453
547,14.207800649120086
548,135.82420194375638
720,2305.9607206098935
721,2305.9607206098935
784,0.0
785,0.0
848,0.0
849,0.0
1121,3464.4593097883535
1135,1228.2444949592468
1161,43.37697717135637
1163,12.340069256563591
1166,0.0
1168,0.0
2,1, 2, 3, 0,20, 0.00,60.00,Monday
7,-7.2
545,19.613928868619176
546,-2.183191905508875
547,14.135633896821206
548,144.8576244240431
720,2397.0958837102608
721,2397.0958837102608
784,0.0
785,0.0
848,0.0
849,0.0
1121,3755.728021960862
1135,1322.1623922907977
1161,31.498312950262463
1163,0.5682015565864562
1166,0.0
1168,0.0
2,1, 2, 3, 0,21, 0.00,60.00,Monday
7,-8.0
545,19.66285703469628
546,-3.079033258347328
547,14.043957205671328
548,146.4109120889408
720,2600.2755872041125
721,2600.2755872041125
784,0.0
785,0.0
848,0.0
849,0.0
1121,3669.6956964866426
1135,1302.889101695135
1161,41.750292503679994
1163,0.0
1166,469.06175434535817
1168,469.06175434535817
2,1, 2, 3, 0,22, 0.00,60.00,Monday
7,-8.0
545,19.67954392165581
546,-3.9949289494623765
547,13.952761034408335
548,146.4109120889408
720,3119.4251934626172
721,3119.4251934626172
784,0.0
785,0.0
848,0.0
849,0.0
1121,3702.569273724162
1135,1315.967224372034
1161,32.735514153744
1163,0.0
1166,1111.3575778001996
1168,1111.3575778001996
2,1, 2, 3, 0,23, 0.00,60.00,Monday
7,-8.3
545,18.96188247400905
546,-4.3292603663805
547,13.85268055246012
548,146.4109120889408
720,2252.1363365360376
721,2252.1363365360376
784,0.0
785,0.0
848,0.0
849,0.0
1121,3720.560614066826
1135,1331.2757101173715
1161,18.85575380614237
1163,0.0
1166,161.910233314381
1168,161.910233314381
2,1, 2, 3, 0,24, 0.00,60.00,Monday
7,-7.8
545,18.714645053080037
546,-4.328793601093294
547,13.716740036769467
548,146.4109120889408
720,2911.884700914252
721,2911.884700914252
784,0.0
785,0.0
848,0.0
849,0.0
1121,3783.2774241012685
1135,1315.332096647814
1161,21.459464009137793
1163,0.0
1166,816.5351238702124
1168,816.5351238702124
2,2, 2, 4, 0, 1, 0.00,60.00,Tuesday
7,-8.3
545,18.63117244517936
546,-4.502982777736788
547,13.596706188578123
548,146.4109120889408
720,3246.6886351682897
721,3246.6886351682897
784,0.0
785,0.0
848,0.0
849,0.0
1121,3722.961339726399
1135,1299.9841566360133
1161,24.02915431797394
1163,0.0
1166,1259.4858235357715
1168,1259.4858235357715
2,2, 2, 4, 0, 2, 0.00,60.00,Tuesday
7,-8.3
545,18.600509581236135
546,-4.533046497208591
547,13.478612827983683
548,146.4109120889408
720,3584.912017030945
721,3584.912017030945
784,0.0
785,0.0
848,0.0
849,0.0
1121,3724.937853057444
1135,1297.7506283032023
1161,24.02915431797394
1163,0.0
1166,1660.6190238576808
1168,1660.6190238576808
2,2, 2, 4, 0, 3, 0.00,60.00,Tuesday
7,-8.9
545,18.583598528907327
546,-5.644834304932294
547,13.350599373209782
548,146.4109120889408
720,4169.559041563714
721,4169.559041563714
784,0.0
785,0.0
848,0.0
849,0.0
1121,3683.273855903623
1135,1298.6570920792094
1161,17.416811107644726
1163,0.0
1166,2389.494998296578
1168,2389.494998296578
2,2, 2, 4, 0, 4, 0.00,60.00,Tuesday
7,-8.9
545,18.581436638792095
546,-5.014403604390877
547,13.23652466946013
548,146.4109120889408
720,4192.956021122163
721,4192.956021122163
784,0.0
785,0.0
848,0.0
849,0.0
1121,3683.79399831204
1135,1298.1101483240307
1161,17.410013046325016
1163,0.0
1166,2484.528440843041
1168,2484.528440843041
2,2, 2, 4, 0, 5, 0.00,60.00,Tuesday
7,-8.9
545,18.58891720401667
546,-5.333707591071486
547,13.115771572548825
548,146.4109120889408
720,4216.877620046049
721,4216.877620046049
784,0.0
785,0.0
848,0.0
849,0.0
1121,3683.981011098572
1135,1297.9002459385508
1161,17.410013046325016
1163,0.0
1166,2495.9148139816816
1168,2495.9148139816816
2,2, 2, 4, 0, 6, 0.00,60.00,Tuesday
7,-8.9
545,19.34549119913697
546,-5.648208880284469
547,12.99580527498422
548,146.4109120889408
720,5319.851373432615
721,5319.851373432615
784,0.0
785,0.0
848,0.0
849,0.0
1121,3697.722759459687
1135,1302.7276449646724
1161,13.673089207801166
1163,0.0
1166,3771.8269443839285
1168,3771.8269443839285
2,2, 2, 4, 0, 7, 0.00,60.00,Tuesday
7,-10.0
545,19.5869788112903
546,-5.581878681787206
547,12.909993683674038
548,146.4109120889408
720,5130.69801123871
721,5130.69801123871
784,0.0
785,0.0
848,0.0
849,0.0
1121,3554.5112183700685
1135,1306.7926267122464
1161,15.003474827417016
1163,0.0
1166,3798.9747435197346
1168,3798.9747435197346
2,2, 2, 4, 0, 8, 0.00,60.00,Tuesday
7,-10.0
545,19.665070641166523
546,-5.753183448716205
547,12.804176127432468
548,146.4109120889408
720,4853.979043255791
721,4853.979043255791
784,0.0
785,0.0
848,0.0
849,0.0
1121,3549.265395226652
1135,1312.5764859625765
1161,15.003474827417016
1163,0.0
1166,3509.6493267554715
1168,3509.6493267554715
2,2, 2, 4, 0, 9, 0.00,60.00,Tuesday
7,-9.4
545,19.690066668831996
546,-4.832361940899444
547,12.705990151239453
548,146.4109120889408
720,4605.439515562193
721,4605.439515562193
784,0.0
785,0.0
848,0.0
849,0.0
1121,3622.001370359889
1135,1324.5125403474483
1161,12.6992602673096
1163,0.0
1166,3161.4943069548744
1168,3161.4943069548744
2,2, 2, 4, 0,10, 0.00,60.00,Tuesday
7,-8.3
545,19.716699408784905
546,-3.772543128112029
547,12.609310650401449
548,146.4109120889408
720,3873.047509148417
721,3873.047509148417
784,0.0
785,0.0
848,0.0
849,0.0
1121,3766.078681744801
1135,1345.5359031299788
1161,6.975736540373732
1163,0.0
1166,2130.139295314323
1168,2130.139295314323
2,2, 2, 4, 0,11, 0.00,60.00,Tuesday
7,-8.3
545,19.717178947429638
546,-3.093590170221082
547,12.520218270342017
548,146.4109120889408
720,3801.597209976244
721,3801.597209976244
784,0.0
785,0.0
848,0.0
849,0.0
1121,3765.6008917525023
1135,1346.0745895594118
1161,6.975736540373732
1163,0.0
1166,1978.5702959745704
1168,1978.5702959745704
2,2, 2, 4, 0,12, 0.00,60.00,Tuesday
7,-7.8
545,19.73003918543099
546,-1.857395941904396
547,12.449859848999829
548,146.4109120889408
720,3169.336734321201
721,3169.336734321201
784,0.0
785,0.0
848,0.0
849,0.0
1121,3835.7529171197298
1135,1356.446074131729
1161,3.539920549663537
1163,0.0
1166,1136.4276658519152
1168,1136.4276658519152
2,2, 2, 4, 0,13, 0.00,60.00,Tuesday
7,-7.2
545,19.732839898837888
546,-0.45607543492985214
547,12.392393554052942
548,146.4109120889408
720,2927.9820418446707
721,2927.9820418446707
784,0.0
785,0.0
848,0.0
849,0.0
1121,3902.1440070437543
1135,1362.7638657819296
1161,4.267511079537659
1163,0.0
1166,714.7111622353218
1168,714.7111622353218
2,2, 2, 4, 0,14, 0.00,60.00,Tuesday
7,-7.2
545,19.735524648730923
546,0.02489278152065374
547,12.34540430026458
548,146.4109120889408
720,2725.7806798506736
721,2725.7806798506736
784,0.0
785,0.0
848,0.0
849,0.0
1121,3902.155443357409
1135,1362.750803769347
1161,4.267511079537659
1163,0.0
1166,400.4678662166002
1168,400.4678662166002
2,2, 2, 4, 0,15, 0.00,60.00,Tuesday
7,-7.2
545,19.73112501446919
546,0.5507541326860009
547,12.313583053718535
548,146.4109120889408
720,2628.3097954181885
721,2628.3097954181885
784,0.0
785,0.0
848,0.0
849,0.0
1121,3868.4894525634904
1135,1351.0268963094727
1161,13.024280799209498
1163,0.0
1166,282.5428093060027
1168,282.5428093060027
2,2, 2, 4, 0,16, 0.00,60.00,Tuesday
7,-7.8
545,19.726200076105595
546,2.8747342515735133
547,12.285012791123227
548,146.4109120889408
720,2646.9179598677892
721,2646.9179598677892
784,0.0
785,0.0
848,0.0
849,0.0
1121,3752.9854660901665
1135,1327.3053495557378
1161,25.448364696446202
1163,0.0
1166,385.81209591738843
1168,385.81209591738843
2,2, 2, 4, 0,17, 0.00,60.00,Tuesday
7,-7.8
545,19.73764178997465
546,1.930068314347355
547,12.26190058654191
548,146.4109120889408
720,2484.3796324298582
721,2484.3796324298582
784,0.0
785,0.0
848,0.0
849,0.0
1121,3753.1329887267443
1135,1327.1380087910957
1161,25.448364696446202
1163,0.0
1166,87.34284900417515
1168,87.34284900417515
2,2, 2, 4, 0,18, 0.00,60.00,Tuesday
7,-7.8
545,19.718377244780797
546,-0.17096759635855227
547,12.237267729595974
548,146.4109120889408
720,2712.1428542665053
721,2712.1428542665053
784,0.0
785,0.0
848,0.0
849,0.0
1121,3732.7076621782885
1135,1320.244636426655
1161,30.801862380793136
1163,0.0
1166,394.446962021063
1168,394.446962021063
2,2, 2, 4, 0,19, 0.00,60.00,Tuesday
7,-7.2
545,19.714917720086543
546,-0.43334538342660806
547,12.211834961402309
548,146.4109120889408
720,2429.7617593804716
721,2429.7617593804716
784,0.0
785,0.0
848,0.0
849,0.0
1121,3797.9469481541664
1135,1325.6624558867907
1161,31.512270568261595
1163,0.0
1166,106.65655920832069
1168,106.65655920832069
2,2, 2, 4, 0,20, 0.00,60.00,Tuesday
7,-7.2
545,19.717038490253938
546,-1.047720243786321
547,12.17184686816738
548,146.4109120889408
720,2424.200736491148
721,2424.200736491148
784,0.0
785,0.0
848,0.0
849,0.0
1121,3798.055585325236
1135,1325.5383713913484
1161,31.512270568261595
1163,0.0
1166,121.80292257605197
1168,121.80292257605197
2,2, 2, 4, 0,21, 0.00,60.00,Tuesday
7,-7.2
545,19.71623037812613
546,-0.9165520563678392
547,12.126237838730772
548,146.4109120889408
720,2427.601318496947
721,2427.601318496947
784,0.0
785,0.0
848,0.0
849,0.0
1121,3776.7540616119445
1135,1318.1039692736726
1161,37.055800406453656
1163,0.0
1166,179.16071805173578
1168,179.16071805173578
2,2, 2, 4, 0,22, 0.00,60.00,Tuesday
7,-7.2
545,19.7110098352603
546,-1.2658870335876256
547,12.073971645872744
548,146.4109120889408
720,2762.3219342711927
721,2762.3219342711927
784,0.0
785,0.0
848,0.0
849,0.0
1121,3776.8081305993064
1135,1318.0026030184683
1161,37.06271280140541
1163,0.0
1166,565.8283789033908
1168,565.8283789033908
2,2, 2, 4, 0,23, 0.00,60.00,Tuesday
7,-7.2
545,18.994329819699075
546,-1.496794206492945
547,12.00474900979388
548,136.55884886341224
720,2042.5250172924098
721,2042.5250172924098
784,0.0
785,0.0
848,0.0
849,0.0
1121,3497.432050185454
1135,1240.5604389829123
1161,34.88891625969852
1163,11.73036929786997
1166,0.0
1168,0.0
2,2, 2, 4, 0,24, 0.00,60.00,Tuesday
7,-7.2
545,18.722951638885853
546,-1.4467825414387305
547,11.923965951291532
548,146.4109120889408
720,2425.0151597711338
721,2425.0151597711338
784,0.0
785,0.0
848,0.0
849,0.0
1121,3814.259121945315
1135,1307.0741743639112
1161,31.50325063321185
1163,0.0
1166,105.12429266352228
1168,105.12429266352228
2,3, 2, 5, 0, 1, 0.00,60.00,Wednesday
7,-7.2
545,18.635858903345113
546,-1.6112029114763393
547,11.848156057802234
548,146.4109120889408
720,2905.4664387306093
721,2905.4664387306093
784,0.0
785,0.0
848,0.0
849,0.0
1121,3820.258681154181
1135,1300.145701683139
1161,31.51538208842819
1163,0.0
1166,640.9988002323116
1168,640.9988002323116
2,3, 2, 5, 0, 2, 0.00,60.00,Wednesday
7,-7.2
545,18.60620204516117
546,-1.6400810425476104
547,11.776030603679223
548,146.4109120889408
720,3222.3954397442867
721,3222.3954397442867
784,0.0
785,0.0
848,0.0
849,0.0
1121,3822.2548216568343
1135,1297.863401068677
1161,31.51538208842819
1163,0.0
1166,1017.5547074591987
1168,1017.5547074591987
2,3, 2, 5, 0, 3, 0.00,60.00,Wednesday
7,-7.8
545,18.591986109861093
546,-2.142009405657306
547,11.69909810324433
548,146.4109120889408
720,3663.1656830300217
721,3663.1656830300217
784,0.0
785,0.0
848,0.0
849,0.0
1121,3793.804704400963
1135,1303.6046179553568
1161,21.41796348871171
1163,0.0
1166,1566.5893589926845
1168,1566.5893589926845
2,3, 2, 5, 0, 4, 0.00,60.00,Wednesday
7,-8.3
545,18.588482641575336
546,-1.906752586295498
547,11.624786789912596
548,146.4109120889408
720,3824.861771189104
721,3824.861771189104
784,0.0
785,0.0
848,0.0
849,0.0
1121,3694.740627553921
1135,1282.6218159933708
1161,32.9358249806582
1163,0.0
1166,1887.085645700173
1168,1887.085645700173
2,3, 2, 5, 0, 5, 0.00,60.00,Wednesday
7,-8.3
545,18.59337541718633
546,-2.070289589844877
547,11.553537897062197
548,146.4109120889408
720,3835.6143592321587
721,3835.6143592321587
784,0.0
785,0.0
848,0.0
849,0.0
1121,3694.9072132950396
1135,1282.4335023845651
1161,32.9358249806582
1163,0.0
1166,1898.9183627329317
1168,1898.9183627329317
2,3, 2, 5, 0, 6, 0.00,60.00,Wednesday
7,-9.4
545,19.34326177181069
546,-2.208245224098182
547,11.473571936105738
548,146.4109120889408
720,5032.105282257453
721,5032.105282257453
784,0.0
785,0.0
848,0.0
849,0.0
1121,3554.5109312917325
1135,1263.3789040591862
1161,38.32012976338021
1163,0.0
1166,3427.774818467122
1168,3427.774818467122
2,3, 2, 5, 0, 7, 0.00,60.00,Wednesday
7,-9.4
545,19.590953160067677
546,-2.4763914344880087
547,11.44098887582668
548,146.4109120889408
720,4784.696759901533
721,4784.696759901533
784,0.0
785,0.0
848,0.0
849,0.0
1121,3538.440873569847
1135,1281.2489567438945
1161,38.327264741840274
1163,0.0
1166,3250.8885873697996
1168,3250.8885873697996
2,3, 2, 5, 0, 8, 0.00,60.00,Wednesday
7,-9.4
545,19.668348635609775
546,-2.7317304903000807
547,11.377051707148814
548,146.4109120889408
720,4501.112303749089
721,4501.112303749089
784,0.0
785,0.0
848,0.0
849,0.0
1121,3533.109085199233
1135,1287.1799784372922
1161,38.327264741840274
1163,0.0
1166,2965.9282871332002
1168,2965.9282871332002
2,3, 2, 5, 0, 9, 0.00,60.00,Wednesday
7,-9.0
545,19.69126406645719
546,-2.5746273119498477
547,11.316504152178533
548,146.4109120889408
720,4347.344815050637
721,4347.344815050637
784,0.0
785,0.0
848,0.0
849,0.0
1121,3577.439738033388
1135,1294.4724423229334
1161,37.63251153719975
1163,0.0
1166,2761.8433154016766
1168,2761.8433154016766
2,3, 2, 5, 0,10, 0.00,60.00,Wednesday
7,-6.7
545,19.728978282125947
546,2.5732096392861523
547,11.271772763806785
548,146.4109120889408
720,3091.014845989008
721,3091.014845989008
784,0.0
785,0.0
848,0.0
849,0.0
1121,3866.622791860787
1135,1332.852446699234
1161,28.90738196109
1163,0.0
1166,1018.2231530237327
1168,1018.2231530237327
2,3, 2, 5, 0,11, 0.00,60.00,Wednesday
7,-6.7
545,19.753690955685986
546,6.134720556463474
547,11.22063398483824
548,146.4109120889408
720,2776.1304596550126
721,2776.1304596550126
784,0.0
785,0.0
848,0.0
849,0.0
1121,3865.843107033218
1135,1333.747812553441
1161,28.90738196109
1163,0.0
1166,391.76996891248564
1168,391.76996891248564
2,3, 2, 5, 0,12, 0.00,60.00,Wednesday
7,-3.3
545,19.90547296362208
546,10.705806179056705
547,11.127150088830996
548,101.4332997496628
720,1929.1731449503768
721,1929.1731449503768
784,0.0
785,0.0
848,0.0
849,0.0
1121,2922.9013633145123
1135,977.5437057838888
1161,1.6028912890603826
1163,61.38985278082869
1166,0.0
1168,0.0
2,3, 2, 5, 0,13, 0.00,60.00,Wednesday
7,-4.4
545,19.823282033822252
546,10.781536624107822
547,11.085631799832667
548,81.2108146864497
720,1566.9976668344552
721,1566.9976668344552
784,0.0
785,0.0
848,0.0
849,0.0
1121,2212.0343553381404
1135,772.7410612604247
1161,5.73696864712576
1163,88.8574745594203
1166,0.0
1168,0.0
2,3, 2, 5, 0,14, 0.00,60.00,Wednesday
7,-4.4
545,19.82129308747248
546,11.400316051925865
547,11.06282207420126
548,64.40266120384382
720,1256.9636685893875
721,1256.9636685893875
784,0.0
785,0.0
848,0.0
849,0.0
1121,1731.6453558664227
1135,611.854034286326
1161,4.549587981129692
1163,111.86064818565882
1166,0.0
1168,0.0
2,3, 2, 5, 0,15, 0.00,60.00,Wednesday
7,-3.9
545,19.72400799133412
546,10.730589903972865
547,11.073371408249649
548,54.37523379388649
720,1090.0491471174646
721,1090.0491471174646
784,0.0
785,0.0
848,0.0
849,0.0
1121,1469.9892163157497
1135,518.2864136127534
1161,4.213198428824382
1163,125.57890855348752
1166,0.0
1168,0.0
2,3, 2, 5, 0,16, 0.00,60.00,Wednesday
7,-3.9
545,19.760389921152196
546,7.314336384873456
547,11.103574207685407
548,52.250826042226784
720,1053.9640785389201
721,1053.9640785389201
784,0.0
785,0.0
848,0.0
849,0.0
1121,1410.9444535096789
1135,497.10256699874947
1161,4.047808529844032
1163,128.4865945622645
1166,0.0
1168,0.0
2,3, 2, 5, 0,17, 0.00,60.00,Wednesday
7,-3.9
545,19.727026971763294
546,4.96113314723015
547,11.152796154733883
548,56.97100459850741
720,1120.2868579225124
721,1120.2868579225124
784,0.0
785,0.0
848,0.0
849,0.0
1121,1543.8078272403181
1135,542.3999071965638
1161,4.413476772394738
1163,122.02626396796128
1166,0.0
1168,0.0
2,3, 2, 5, 0,18, 0.00,60.00,Wednesday
7,-4.4
545,19.609250884394076
546,1.6824540927160796
547,11.209659145606631
548,70.88730856979153
720,1322.0675144311672
721,1322.0675144311672
784,0.0
785,0.0
848,0.0
849,0.0
1121,1875.839030605282
1135,660.3647268866804
1161,15.652197708412572
1163,102.59212319801082
1166,0.0
1168,0.0
2,3, 2, 5, 0,19, 0.00,60.00,Wednesday
7,-3.9
545,19.771129120550214
546,0.876562882131904
547,11.232335676393404
548,75.40936098236443
720,1353.1776163344311
721,1353.1776163344311
784,0.0
785,0.0
848,0.0
849,0.0
1121,2017.7842165289283
1135,699.318040662974
1161,20.494370020805054
1163,96.27558243631891
1166,0.0
1168,0.0
2,3, 2, 5, 0,20, 0.00,60.00,Wednesday
7,-3.9
545,19.717101253912887
546,0.12749540885731417
547,11.237470640986329
548,76.06398291437009
720,1319.5121552188593
721,1319.5121552188593
784,0.0
785,0.0
848,0.0
849,0.0
1121,2034.579853194472
1135,707.6380152486113
1161,20.67240504091923
1163,95.37452625608334
1166,0.0
1168,0.0
2,3, 2, 5, 0,21, 0.00,60.00,Wednesday
7,-3.9
545,19.51244797066641
546,-0.6898600942668272
547,11.249807379571708
548,90.13037754514622
720,1588.8129904446414
721,1588.8129904446414
784,0.0
785,0.0
848,0.0
849,0.0
1121,2439.148226711654
1135,837.5402171882481
1161,24.492844681059637
1163,76.02665797687598
1166,0.0
1168,0.0
2,3, 2, 5, 0,22, 0.00,60.00,Wednesday
7,-3.0
545,19.533416969050116
546,0.19590218419835342
547,11.269199644221976
548,113.68701795049215
720,2108.4416866715765
721,2108.4416866715765
784,0.0
785,0.0
848,0.0
849,0.0
1121,3208.4603469504173
1135,1055.8034780173712
1161,33.943525846795424
1163,43.63847155910614
1166,0.0
1168,0.0
2,3, 2, 5, 0,23, 0.00,60.00,Wednesday
7,-3.3
545,18.842504613198894
546,-0.19102488356978198
547,11.206841288249965
548,103.35017962592603
720,1777.6095432077364
721,1777.6095432077364
784,0.0
785,0.0
848,0.0
849,0.0
1121,2827.403773019332
1135,946.794022065005
1161,40.760474141633566
1163,57.48105790738769
1166,0.0
1168,0.0
2,3, 2, 5, 0,24, 0.00,60.00,Wednesday
7,-3.0
545,18.616549428776338
546,-0.49964810745138816
547,11.188248881056179
548,124.86300786082226
720,2325.862459160391
721,2325.862459160391
784,0.0
785,0.0
848,0.0
849,0.0
1121,3527.667520508883
1135,1132.9168400198764
1161,47.32776942895634
1163,27.94302250212286
1166,0.0
1168,0.0
2,4, 2, 6, 0, 1, 0.00,60.00,Thursday
7,-2.0
545,18.60896861264666
546,0.3246012316881714
547,11.145752288500752
548,131.3740816375406
720,2558.468169448208
721,2558.468169448208
784,0.0
785,0.0
848,0.0
849,0.0
1121,3868.3923806818143
1135,1202.787223354892
1161,43.5167729955723
1163,19.344539834158915
1166,0.0
1168,0.0
2,4, 2, 6, 0, 2, 0.00,60.00,Thursday
7,-2.2
545,18.603990293740043
546,0.5747266323244706
547,11.10630633441062
548,138.40999735265748
720,2681.3858825745046
721,2681.3858825745046
784,0.0
785,0.0
848,0.0
849,0.0
1121,4047.24985270826
1135,1256.8541751937153
1161,52.87332128757842
1163,9.427083764414279
1166,0.0
1168,0.0
2,4, 2, 6, 0, 3, 0.00,60.00,Thursday
7,-3.0
545,18.593982647005273
546,-0.24144295847889136
547,11.057301052843515
548,146.4109120889408
720,2906.739082163209
721,2906.739082163209
784,0.0
785,0.0
848,0.0
849,0.0
1121,4213.314048465871
1135,1310.50578057217
1161,55.01406582542143
1163,0.0
1166,151.12543627552395
1168,151.12543627552395
2,4, 2, 6, 0, 4, 0.00,60.00,Thursday
7,-2.8
545,18.594176978175472
546,0.0895171142832096
547,11.006666233423918
548,146.4109120889408
720,3160.2503430359084
721,3160.2503430359084
784,0.0
785,0.0
848,0.0
849,0.0
1121,4215.6104706503465
1135,1305.696558044165
1161,59.94535043928527
1163,0.0
1166,492.49851973528257
1168,492.49851973528257
2,4, 2, 6, 0, 5, 0.00,60.00,Thursday
7,-2.8
545,18.60356024799619
546,0.0005838330602634791
547,10.95482760491045
548,146.4109120889408
720,3154.9810209930365
721,3154.9810209930365
784,0.0
785,0.0
848,0.0
849,0.0
1121,4215.668682005452
1135,1305.6280311537948
1161,59.94535043928527
1163,0.0
1166,486.06960019181497
1168,486.06960019181497
2,4, 2, 6, 0, 6, 0.00,60.00,Thursday
7,-3.0
545,19.357077694938067
546,-0.18274114491635562
547,10.902350556761931
548,146.4109120889408
720,4055.038518737776
721,4055.038518737776
784,0.0
785,0.0
848,0.0
849,0.0
1121,4264.153548408596
1135,1326.0227756656313
1161,43.41672300757331
1163,0.0
1166,1481.1461520730463
1168,1481.1461520730463
2,4, 2, 6, 0, 7, 0.00,60.00,Thursday
7,-3.9
545,19.597239493815547
546,-0.6123047869733776
547,10.88649478520086
548,146.4109120889408
720,4196.3646865449955
721,4196.3646865449955
784,0.0
785,0.0
848,0.0
849,0.0
1121,4181.461584610894
1135,1348.5916973068947
1161,33.798757590211146
1163,0.0
1166,1815.445177108354
1168,1815.445177108354
2,4, 2, 6, 0, 8, 0.00,60.00,Thursday
7,-3.9
545,19.677043638898937
546,-0.8022554323372829
547,10.845982951788761
548,146.4109120889408
720,3916.504751744338
721,3916.504751744338
784,0.0
785,0.0
848,0.0
849,0.0
1121,4176.09540992963
1135,1354.8962858522905
1161,33.798757590211146
1163,0.0
1166,1549.7187651810364
1168,1549.7187651810364
2,4, 2, 6, 0, 9, 0.00,60.00,Thursday
7,-4.4
545,19.712100076032232
546,-0.6218463124949338
547,10.801104805527299
548,146.4109120889408
720,3320.2130935072164
721,3320.2130935072164
784,0.0
785,0.0
848,0.0
849,0.0
1121,4145.437481459214
1135,1361.191078073178
1161,26.526566902806717
1163,0.0
1166,909.6320675846564
1168,909.6320675846564
2,4, 2, 6, 0,10, 0.00,60.00,Thursday
7,-4.4
545,19.765106998930758
546,1.5930302144001687
547,10.759352811061875
548,141.3908832309395
720,2394.214932666424
721,2394.214932666424
784,0.0
785,0.0
848,0.0
849,0.0
1121,3967.2264343077873
1135,1316.0869517341562
1161,30.899460091138018
1163,5.72394390012767
1166,0.0
1168,0.0
2,4, 2, 6, 0,11, 0.00,60.00,Thursday
7,-4.4
545,19.902149363765055
546,3.2907795076673914
547,10.648100923865009
548,100.19564138186972
720,1596.647267069704
721,1596.647267069704
784,0.0
785,0.0
848,0.0
849,0.0
1121,2715.7395004880327
1135,933.7568428011313
1161,21.896725125257326
1163,62.32738739477106
1166,0.0
1168,0.0
2,4, 2, 6, 0,12, 0.00,60.00,Thursday
7,-4.4
545,19.926056520070084
546,5.82896118493412
547,10.594013556954279
548,67.4310400398591
720,1099.686492460387
721,1099.686492460387
784,0.0
785,0.0
848,0.0
849,0.0
1121,1835.1943075521106
1135,646.5677516260188
1161,0.032483255987286866
1163,107.88679595696769
1166,0.0
1168,0.0