Program Version,EnergyPlus, Version 22.2.0-c249759bad, YMD=2023.09.01 14:31
1,5,Environment Title[],Latitude[deg],Longitude[deg],Time Zone[],Elevation[m]
2,8,Day of Simulation[],Month[],Day of Month[],DST Indicator[1=yes 0=no],Hour[],StartMinute[],EndMinute[],DayType
3,5,Cumulative Day of Simulation[],Month[],Day of Month[],DST Indicator[1=yes 0=no],DayType  ! When Daily Report Variables Requested
4,2,Cumulative Days of Simulation[],Month[]  ! When Monthly Report Variables Requested
5,1,Cumulative Days of Simulation[] ! When Run Period Report Variables Requested
6,1,Calendar Year of Simulation[] ! When Annual Report Variables Requested
7,1,Environment,Site Outdoor Air Drybulb Temperature [C] !Hourly
545,1,LIVING,Zone Mean Air Temperature [C] !Hourly
546,1,ATTIC,Zone Mean Air Temperature [C] !Hourly
547,1,CRAWLSPACE,Zone Mean Air Temperature [C] !Hourly
548,1,FAN,Fan Electricity Rate [W] !Hourly
720,1,LIVING,Zone Predicted Sensible Load to Heating Setpoint Heat Transfer Rate [W] !Hourly
721,1,LIVING,Zone System Predicted Sensible Load to Heating Setpoint Heat Transfer Rate [W] !Hourly
784,1,ATTIC,Zone Predicted Sensible Load to Heating Setpoint Heat Transfer Rate [W] !Hourly
785,1,ATTIC,Zone System Predicted Sensible Load to Heating Setpoint Heat Transfer Rate [W] !Hourly
848,1,CRAWLSPACE,Zone Predicted Sensible Load to Heating Setpoint Heat Transfer Rate [W] !Hourly
849,1,CRAWLSPACE,Zone System Predicted Sensible Load to Heating Setpoint Heat Transfer Rate [W] !Hourly
1121,1,DX_HEATING_COIL,Heating Coil Heating Rate [W] !Hourly
1135,1,DX_HEATING_COIL,Heating Coil Electricity Rate [W] !Hourly
1161,1,DX_HEATING_COIL,Heating Coil Defrost Electricity Rate [W] !Hourly
1163,1,DX_HEATING_COIL,Heating Coil Crankcase Heater Electricity Rate [W] !Hourly
1166,1,HEATING_RESISTANCE_BACKUP,Heating Coil Heating Rate [W] !Hourly
1168,1,HEATING_RESISTANCE_BACKUP,Heating Coil Electricity Rate [W] !Hourly
End of Data Dictionary
1,EXTREME_WINTER,  46.68, -68.05,  -5.00, 146.00
2,1,12,22, 0, 1, 0.00,60.00,Monday
7,-3.0
545,18.358246278833324
546,3.213733671141858
547,17.395577604660446
548,89.75300021570798
720,1765.9777552733449
721,1765.9777552733449
784,0.0
785,0.0
848,0.0
849,0.0
1121,2536.951794296436
1135,813.7636951814578
1161,33.72389889628307
1163,28.45393101611893
1166,0.0
1168,0.0
2,1,12,22, 0, 2, 0.00,60.00,Monday
7,-3.0
545,18.445148929369942
546,2.0257681207422067
547,16.897393283824552
548,105.54672093851369
720,2408.394866390572
721,2408.394866390572
784,0.0
785,0.0
848,0.0
849,0.0
1121,3037.5899059735075
1135,946.6752881706184
1161,39.317600334463926
1163,0.0
1166,466.40451948119994
1168,466.40451948119994
2,1,12,22, 0, 3, 0.00,60.00,Monday
7,-3.0
545,18.54651326033814
546,2.007184569372331
547,16.67715093972655
548,105.54672093851369
720,2451.823690158946
721,2451.823690158946
784,0.0
785,0.0
848,0.0
849,0.0
1121,3036.7226539753756
1135,947.696039599808
1161,39.317600334463926
1163,0.0
1166,642.9658776343977
1168,642.9658776343977
2,1,12,22, 0, 4, 0.00,60.00,Monday
7,-3.0
545,18.587060194992922
546,1.8020413385827085
547,16.42679603140031
548,105.54672093851369
720,2420.596037606112
721,2420.596037606112
784,0.0
785,0.0
848,0.0
849,0.0
1121,3035.3599206136937
1135,949.3005022216249
1161,39.317600334463926
1163,0.0
1166,638.477072818139
1168,638.477072818139
2,1,12,22, 0, 5, 0.00,60.00,Monday
7,-3.0
545,18.590151837777835
546,1.0925985358130759
547,16.215600675966652
548,105.54672093851369
720,2639.4417800791307
721,2639.4417800791307
784,0.0
785,0.0
848,0.0
849,0.0
1121,3034.9902317828223
1135,949.7358791992896
1161,39.317600334463926
1163,0.0
1166,920.4581704945958
1168,920.4581704945958
2,1,12,22, 0, 6, 0.00,60.00,Monday
7,-3.0
545,19.391185011384515
546,1.4492653197302574
547,16.02241151462603
548,105.54672093851369
720,3552.7702160480385
721,3552.7702160480385
784,0.0
785,0.0
848,0.0
849,0.0
1121,3035.158984638004
1135,949.5371356853683
1161,39.317600334463926
1163,0.0
1166,2038.8190363651536
1168,2038.8190363651536
2,1,12,22, 0, 7, 0.00,60.00,Monday
7,-3.0
545,19.626338547687748
546,1.3440706132619662
547,15.876202873486536
548,105.54672093851369
720,3331.516416873985
721,3331.516416873985
784,0.0
785,0.0
848,0.0
849,0.0
1121,3022.7949788530655
1135,964.122700037931
1161,39.317600334463926
1163,0.0
1166,1867.7028557683375
1168,1867.7028557683375
2,1,12,22, 0, 8, 0.00,60.00,Monday
7,-3.0
545,19.69555242364147
546,1.812119097667685
547,15.719550916881
548,105.54672093851369
720,2914.2054847527543
721,2914.2054847527543
784,0.0
785,0.0
848,0.0
849,0.0
1121,3019.2328022481815
1135,968.3332960469453
1161,39.317600334463926
1163,0.0
1166,1403.9468956878518
1168,1403.9468956878518
2,1,12,22, 0, 9, 0.00,60.00,Monday
7,-3.0
545,19.709683244100557
546,2.051478051333605
547,15.574181345481879
548,105.54672093851369
720,2845.4692532971458
721,2845.4692532971458
784,0.0
785,0.0
848,0.0
849,0.0
1121,2977.3848826168023
1135,956.2822250863451
1161,48.753462142751275
1163,0.0
1166,1341.970410304468
1168,1341.970410304468
2,1,12,22, 0,10, 0.00,60.00,Monday
7,-3.0
545,19.711501602797075
546,2.4524273032693014
547,15.43685869318246
548,105.54672093851369
720,2814.3841409520737
721,2814.3841409520737
784,0.0
785,0.0
848,0.0
849,0.0
1121,2977.3234937455113
1135,956.3548331973036
1161,48.753462142751275
1163,0.0
1166,1293.116376108339
1168,1293.116376108339
2,1,12,22, 0,11, 0.00,60.00,Monday
7,-2.0
545,19.718846002904208
546,3.1719593566300754
547,15.314221041552548
548,105.54672093851369
720,2626.8757341225737
721,2626.8757341225737
784,0.0
785,0.0
848,0.0
849,0.0
1121,3034.6177753734332
1135,955.7062905178207
1161,54.91857804159421
1163,0.0
1166,997.5886834985629
1168,997.5886834985629
2,1,12,22, 0,12, 0.00,60.00,Monday
7,-1.0
545,19.723128019731
546,3.129377765831107
547,15.199694359097338
548,105.54672093851369
720,2520.364638406134
721,2520.364638406134
784,0.0
785,0.0
848,0.0
849,0.0
1121,3145.6670470960125
1135,971.8676333644472
1161,49.291517934599774
1163,0.0
1166,726.1006115219855
1168,726.1006115219855
2,1,12,22, 0,13, 0.00,60.00,Monday
7,-1.0
545,19.720327942231805
546,3.6434721392536265
547,15.09282204835341
548,105.54672093851369
720,2449.9739739827655
721,2449.9739739827655
784,0.0
785,0.0
848,0.0
849,0.0
1121,3145.7211587643046
1135,971.8030913652376
1161,49.291517934599774
1163,0.0
1166,637.661230808083
1168,637.661230808083
2,1,12,22, 0,14, 0.00,60.00,Monday
7,-1.0
545,19.7250930391581
546,3.56517651683541
547,14.992600258577752
548,105.54672093851369
720,2298.7529655515937
721,2298.7529655515937
784,0.0
785,0.0
848,0.0
849,0.0
1121,3096.2390642549694
1135,956.2716275917421
1161,60.11726585222096
1163,0.0
1166,485.55629558457395
1168,485.55629558457395
2,1,12,22, 0,15, 0.00,60.00,Monday
7,-1.0
545,19.723605239771206
546,4.018160910529841
547,14.900484256054371
548,105.54672093851369
720,2194.960940053017
721,2194.960940053017
784,0.0
785,0.0
848,0.0
849,0.0
1121,3096.2699703822077
1135,956.2347670201021
1161,60.11726585222096
1163,0.0
1166,359.8872644920134
1168,359.8872644920134
2,1,12,22, 0,16, 0.00,60.00,Monday
7,0.0
545,19.721704025591173
546,3.3289919404118824
547,14.81853617562131
548,105.54672093851369
720,2258.4484880691016
721,2258.4484880691016
784,0.0
785,0.0
848,0.0
849,0.0
1121,3210.6039914504936
1135,973.0001147599216
1161,54.10512208581878
1163,0.0
1166,299.68301776783414
1168,299.68301776783414
2,1,12,22, 0,17, 0.00,60.00,Monday
7,0.0
545,19.713482552929722
546,3.1189688053824804
547,14.736831189587482
548,105.54672093851369
720,2337.85131943779
721,2337.85131943779
784,0.0
785,0.0
848,0.0
849,0.0
1121,3210.7248907015414
1135,972.8556172229661
1161,54.10512208581878
1163,0.0
1166,422.58757343304205
1168,422.58757343304205
2,1,12,22, 0,18, 0.00,60.00,Monday
7,0.0
545,19.723576265033945
546,2.74222726915315
547,14.657833962015147
548,105.54672093851369
720,2056.5901482811223
721,2056.5901482811223
784,0.0
785,0.0
848,0.0
849,0.0
1121,3156.316760384287
1135,956.0481348487109
1161,65.69325412489202
1163,0.0
1166,163.31526047008015
1168,163.31526047008015
2,1,12,22, 0,19, 0.00,60.00,Monday
7,1.0
545,19.800518850783558
546,2.8564750841048254
547,14.560188947979318
548,85.00809842541547
720,1504.385353781954
721,1504.385353781954
784,0.0
785,0.0
848,0.0
849,0.0
1121,2574.8578055460707
1135,789.7924713841842
1161,48.456267696915276
1163,37.721181258315184
1166,0.0
1168,0.0
2,1,12,22, 0,20, 0.00,60.00,Monday
7,1.0
545,19.78652621816132
546,2.8385644626405027
547,14.480196034290493
548,78.04045044191436
720,1353.7209180932714
721,1353.7209180932714
784,0.0
785,0.0
848,0.0
849,0.0
1121,2301.994681256651
1135,714.1036344290727
1161,53.69977656143176
1163,50.771868838269874
1166,0.0
1168,0.0
2,1,12,22, 0,21, 0.00,60.00,Monday
7,2.0
545,19.834792138856756
546,3.4359341735501188
547,14.393941504719235
548,67.50481006450399
720,1211.8492099417126
721,1211.8492099417126
784,0.0
785,0.0
848,0.0
849,0.0
1121,2039.4777060348783
1135,627.5086277726008
1161,42.32511483448738
1163,71.22229446416979
1166,0.0
1168,0.0
2,1,12,22, 0,22, 0.00,60.00,Monday
7,2.0
545,19.651501102897825
546,3.343031788156934
547,14.330069102138912
548,72.8692607770775
720,1380.2310645673988
721,1380.2310645673988
784,0.0
785,0.0
848,0.0
849,0.0
1121,2214.5727800274376
1135,677.8698177267341
1161,45.688648180622295
1163,60.98846264818214
1166,0.0
1168,0.0
2,1,12,22, 0,23, 0.00,60.00,Monday
7,3.0
545,18.892329932179717
546,3.709534128281535
547,14.206962889114209
548,41.20567082130552
720,673.1899964548047
721,673.1899964548047
784,0.0
785,0.0
848,0.0
849,0.0
1121,1230.114390263964
1135,381.5655279621881
1161,28.342792341007467
1163,121.45988566797743
1166,0.0
1168,0.0
2,1,12,22, 0,24, 0.00,60.00,Monday
7,3.0
545,18.51256044812217
546,4.025796594904601
547,14.15216857281272
548,58.57193080232651
720,1150.8312092290907
721,1150.8312092290907
784,0.0
785,0.0
848,0.0
849,0.0
1121,1757.3210853773917
1135,525.5768181426791
1161,46.86668589449881
1163,88.24208684592973
1166,0.0
1168,0.0
2,2,12,23, 0, 1, 0.00,60.00,Tuesday
7,3.0
545,18.295953384124076
546,4.417740099936543
547,14.102940787948329
548,90.243248219325
720,1931.0776209235228
721,1931.0776209235228
784,0.0
785,0.0
848,0.0
849,0.0
1121,2811.96201570033
1135,803.7083566892021
1161,72.20779554205532
1163,27.813885509171254
1166,0.0
1168,0.0
2,2,12,23, 0, 2, 0.00,60.00,Tuesday
7,3.0
545,18.516645240318066
546,4.731771347756686
547,14.035623725415196
548,100.99573283312452
720,2163.674396118651
721,2163.674396118651
784,0.0
785,0.0
848,0.0
849,0.0
1121,3189.8948562743067
1135,895.6999366449108
1161,80.8108031282515
1163,7.299224480093125
1166,0.0
1168,0.0
2,2,12,23, 0, 3, 0.00,60.00,Tuesday
7,3.0
545,18.568181038621876
546,4.886100613780117
547,13.982189418272151
548,104.92378240936219
720,2224.622813059741
721,2224.622813059741
784,0.0
785,0.0
848,0.0
849,0.0
1121,3325.71165438825
1135,933.4027691323904
1161,83.87179855423402
1163,0.0
1166,0.0
1168,0.0
2,2,12,23, 0, 4, 0.00,60.00,Tuesday
7,3.0
545,18.55072917869289
546,4.924063703052353
547,13.917509156632288
548,105.54672093851369
720,2280.649482947816
721,2280.649482947816
784,0.0
785,0.0
848,0.0
849,0.0
1121,3344.740180376733
1135,934.2451523877176
1161,83.87179855423402
1163,0.0
1166,0.0
1168,0.0
2,2,12,23, 0, 5, 0.00,60.00,Tuesday
7,3.0
545,18.62169856720265
546,5.1993334607106405
547,13.846879677464758
548,97.45231169323347
720,2005.7266748076654
721,2005.7266748076654
784,0.0
785,0.0
848,0.0
849,0.0
1121,3061.8843513344523
1135,868.2719881649566
1161,77.9761532240513
1163,14.058707293299344
1166,0.0
1168,0.0
2,2,12,23, 0, 6, 0.00,60.00,Tuesday
7,4.0
545,18.85902665661426
546,5.954110510408577
547,13.80727406452615
548,105.54672093851369
720,3014.0543812729484
721,3014.0543812729484
784,0.0
785,0.0
848,0.0
849,0.0
1121,3403.250804305505
1135,936.2753559735855
1161,89.32814947321027
1163,0.0
1166,0.0
1168,0.0
2,2,12,23, 0, 7, 0.00,60.00,Tuesday
7,3.0
545,18.92285711728074
546,5.801440171420512
547,13.754730273390502
548,105.54672093851369
720,3001.768664182846
721,3001.768664182846
784,0.0
785,0.0
848,0.0
849,0.0
1121,3340.5649515558875
1135,939.164620916429
1161,83.87179855423402
1163,0.0
1166,0.0
1168,0.0
2,2,12,23, 0, 8, 0.00,60.00,Tuesday
7,3.0
545,18.822076102309065
546,5.681836991828242
547,13.70528162481835
548,105.54672093851369
720,3135.6705230770713
721,3135.6705230770713
784,0.0
785,0.0
848,0.0
849,0.0
1121,3339.694621049165
1135,940.1922316627381
1161,83.87179855423402
1163,0.0
1166,0.0
1168,0.0
2,2,12,23, 0, 9, 0.00,60.00,Tuesday
7,3.0
545,19.064719422821288
546,5.855814587360632
547,13.654841443110492
548,105.54672093851369
720,2758.683145501629
721,2758.683145501629
784,0.0
785,0.0
848,0.0
849,0.0
1121,3341.211418581593
1135,938.4018031213446
1161,83.87179855423402
1163,0.0
1166,0.0
1168,0.0
2,2,12,23, 0,10, 0.00,60.00,Tuesday
7,3.0
545,19.42005219122222
546,6.700369416904304
547,13.618996688853866
548,105.54672093851369
720,2432.930753046372
721,2432.930753046372
784,0.0
785,0.0
848,0.0
849,0.0
1121,3397.5690519006434
1135,959.5601230918244
1161,72.17405419398905
1163,0.0
1166,0.0
1168,0.0
2,2,12,23, 0,11, 0.00,60.00,Tuesday
7,3.0
545,19.711904162421845
546,7.715339103189932
547,13.568073005356464
548,90.05660820830508
720,1897.0806705306477
721,1897.0806705306477
784,0.0
785,0.0
848,0.0
849,0.0
1121,2904.8482197019775
1135,845.8115698517967
1161,49.71570575791123
1163,28.562806465268675
1166,0.0
1168,0.0
2,2,12,23, 0,12, 0.00,60.00,Tuesday
7,3.0
545,19.954383448057538
546,9.656293434052502
547,13.482668711374558
548,49.37937339766888
720,910.6686292537615
721,910.6686292537615
784,0.0
785,0.0
848,0.0
849,0.0
1121,1519.110737505005
1135,466.4842877706691
1161,27.260034276601342
1163,105.99783909740754
1166,0.0
1168,0.0
2,2,12,23, 0,13, 0.00,60.00,Tuesday
7,3.0
545,19.69598668451673
546,9.079764687937747
547,13.474090199182104
548,40.05852441545202
720,814.7458929720542
721,814.7458929720542
784,0.0
785,0.0
848,0.0
849,0.0
1121,1241.1443347874563
1135,386.8224692685509
1161,17.2807159468473
1163,123.82298316792361
1166,0.0
1168,0.0
2,2,12,23, 0,14, 0.00,60.00,Tuesday
7,3.0
545,20.0318187132135
546,10.035686641504837
547,13.47787225957119
548,39.875017707323984
720,834.8849679826635
721,834.8849679826635
784,0.0
785,0.0
848,0.0
849,0.0
1121,1214.0771630000836
1135,376.570125494551
1161,22.013117391138557
1163,124.09104911707207
1166,0.0
1168,0.0
2,2,12,23, 0,15, 0.00,60.00,Tuesday
7,3.0
545,19.705185599351754
546,8.73796055941121
547,13.473602666001852
548,31.679096848869875
720,665.099246252159
721,665.099246252159
784,0.0
785,0.0
848,0.0
849,0.0
1121,972.2547573765816
1135,306.3907015018956
1161,13.665960553611463
1163,139.75758236400625
1166,0.0
1168,0.0
2,2,12,23, 0,16, 0.00,60.00,Tuesday
7,2.0
545,19.677899512195562
546,7.10618787539042
547,13.493732518494463
548,41.80564130391515
720,863.5127995053945
721,863.5127995053945
784,0.0
785,0.0
848,0.0
849,0.0
1121,1228.2479709119775
1135,387.55110570530354
1161,26.211771167722315
1163,120.24849165301998
1166,0.0
1168,0.0
2,2,12,23, 0,17, 0.00,60.00,Tuesday
7,2.0
545,19.595245683446947
546,5.92610861397884
547,13.507246645006047
548,51.01730155675629
720,1044.6972677041958
721,1044.6972677041958
784,0.0
785,0.0
848,0.0
849,0.0
1121,1514.4040687138918
1135,472.6746790876919
1161,31.987371543020615
1163,102.67574395153574
1166,0.0
1168,0.0
2,2,12,23, 0,18, 0.00,60.00,Tuesday
7,1.0
545,19.721218813839325
546,5.073362658296161
547,13.500396672397468
548,55.636214059089895
720,1063.697094573985
721,1063.697094573985
784,0.0
785,0.0
848,0.0
849,0.0
1121,1602.1184223502682
1135,506.4534442732068
1161,38.28293420570915
1163,93.61425516603434
1166,0.0
1168,0.0
2,2,12,23, 0,19, 0.00,60.00,Tuesday
7,1.0
545,19.769255459455398
546,4.371780047581308
547,13.470159104534947
548,48.79401560638453
720,877.8095005987307
721,877.8095005987307
784,0.0
785,0.0
848,0.0
849,0.0
1121,1393.576763983604
1135,445.2694811692657
1161,33.575045717655414
1163,106.6971662278034
1166,0.0
1168,0.0
2,2,12,23, 0,20, 0.00,60.00,Tuesday
7,1.0
545,19.648272634405203
546,3.0947425046261046
547,13.444281012759044
548,48.952860049810326
720,875.5562161472353
721,875.5562161472353
784,0.0
785,0.0
848,0.0
849,0.0
1121,1398.0647813339178
1135,447.09925189481726
1161,33.68441044555044
1163,106.39324887462564
1166,0.0
1168,0.0
2,2,12,23, 0,21, 0.00,60.00,Tuesday
7,-1.0
545,19.385355850595506
546,1.796754595428993
547,13.443169966572002
548,70.78469072171649
720,1276.8051765082164
721,1276.8051765082164
784,0.0
785,0.0
848,0.0
849,0.0
1121,1998.6990968736175
1135,645.7956981656339
1161,40.73837033582845
1163,64.47031561291998
1166,0.0
1168,0.0
2,2,12,23, 0,22, 0.00,60.00,Tuesday
7,-2.0
545,19.519596887010007
546,1.5370548319478312
547,13.431570926469682
548,95.60268969039873
720,1709.5283269047814
721,1709.5283269047814
784,0.0
785,0.0
848,0.0
849,0.0
1121,2726.80550465449
1135,867.2744235403095
1161,50.286493879490436
1163,16.86891513686144
1166,0.0
1168,0.0
2,2,12,23, 0,23, 0.00,60.00,Tuesday
7,-3.0
545,18.88508190219184
546,0.8594081379184626
547,13.343843842088638
548,74.47008049610972
720,1145.4600529187683
721,1145.4600529187683
784,0.0
785,0.0
848,0.0
849,0.0
1121,2059.8478685241207
1135,685.6136102405251
1161,27.98246061126497
1163,57.65936693376028
1166,0.0
1168,0.0
2,2,12,23, 0,24, 0.00,60.00,Tuesday
7,-3.0
545,18.520063096359973
546,0.29535318723995063
547,13.307894186347692
548,98.65361696875397
720,1737.838520110874
721,1737.838520110874
784,0.0
785,0.0
848,0.0
849,0.0
1121,2848.5333130169124
1135,905.8735157763832
1161,29.195856116959494
1163,11.797762903506737
1166,0.0
1168,0.0
2,3,12,24, 0, 1, 0.00,60.00,Wednesday
7,-4.0
545,18.54829185299813
546,0.13639072467026472
547,13.224047127327122
548,105.54672093851369
720,2215.074906484677
721,2215.074906484677
784,0.0
785,0.0
848,0.0
849,0.0
1121,2970.6071758374287
1135,941.7024352436176
1161,35.58498925354326
1163,0.0
1166,574.8133608092376
1168,574.8133608092376
2,3,12,24, 0, 2, 0.00,60.00,Wednesday
7,-4.0
545,18.56657022409643
546,-0.4329589671180229
547,13.155691596693526
548,105.54672093851369
720,2708.1899416428223
721,2708.1899416428223
784,0.0
785,0.0
848,0.0
849,0.0
1121,3002.920971877024
1135,952.4497278455274
1161,27.894382067746545
1163,0.0
1166,1174.3311733660325
1168,1174.3311733660325
2,3,12,24, 0, 3, 0.00,60.00,Wednesday
7,-6.0
545,18.544253623343916
546,-2.692621734696987
547,13.058938923309272
548,105.54672093851369
720,3775.2609804390486
721,3775.2609804390486
784,0.0
785,0.0
848,0.0
849,0.0
1121,2861.3640267451838
1135,945.5917405450571
1161,21.27344662391878
1163,0.0
1166,2631.659965039239
1168,2631.659965039239
2,3,12,24, 0, 4, 0.00,60.00,Wednesday
7,-6.0
545,18.565777799927925
546,-2.0651341556411937
547,12.986047480432678
548,105.54672093851369
720,3442.0155356397227
721,3442.0155356397227
784,0.0
785,0.0
848,0.0
849,0.0
1121,2888.7426940948285
1135,954.0343837918474
1161,14.54341555540072
1163,0.0
1166,2348.0500785462555
1168,2348.0500785462555
2,3,12,24, 0, 5, 0.00,60.00,Wednesday
7,-7.0
545,18.552038078990964
546,-3.45472994793519
547,12.888081853342161
548,105.54672093851369
720,4243.790803050633
721,4243.790803050633
784,0.0
785,0.0
848,0.0
849,0.0
1121,2832.49442849384
1135,955.5537664213072
1161,7.489984627621329
1163,0.0
1166,3346.459530201273
1168,3346.459530201273
2,3,12,24, 0, 6, 0.00,60.00,Wednesday
7,-8.0
545,19.38378906779466
546,-2.697342401572841
547,12.801882353127443
548,105.54672093851369
720,4578.73876055602
721,4578.73876055602
784,0.0
785,0.0
848,0.0
849,0.0
1121,2714.563748330158
1135,935.0243060378342
1161,16.828578190742057
1163,0.0
1166,3936.4418399527226
1168,3936.4418399527226
2,3,12,24, 0, 7, 0.00,60.00,Wednesday
7,-8.0
545,19.603186335049617
546,-3.4665193200985485
547,12.74802989024496
548,105.54672093851369
720,4631.167447553436
721,4631.167447553436
784,0.0
785,0.0
848,0.0
849,0.0
1121,2701.668010598247
1135,949.6416152945619
1161,16.828578190742057
1163,0.0
1166,4061.7149441386623
1168,4061.7149441386623
2,3,12,24, 0, 8, 0.00,60.00,Wednesday
7,-9.0
545,19.655258820416176
546,-4.369685551253305
547,12.655222687069102
548,105.54672093851369
720,4486.038970447786
721,4486.038970447786
784,0.0
785,0.0
848,0.0
849,0.0
1121,2624.928315831113
1135,947.691636184304
1161,14.899134421584364
1163,0.0
1166,4026.6049656008236
1168,4026.6049656008236
2,3,12,24, 0, 9, 0.00,60.00,Wednesday
7,-9.0
545,19.663297789259328
546,-4.56790183052138
547,12.56981255148773
548,105.54672093851369
720,4496.9338687470645
721,4496.9338687470645
784,0.0
785,0.0
848,0.0
849,0.0
1121,2643.384227102055
1135,955.4028682507022
1161,9.639844698570727
1163,0.0
1166,4073.254204043498
1168,4073.254204043498
2,3,12,24, 0,10, 0.00,60.00,Wednesday
7,-9.0
545,19.70314601854429
546,-3.4415693991110508
547,12.485173267904317
548,105.54672093851369
720,3543.558385128952
721,3543.558385128952
784,0.0
785,0.0
848,0.0
849,0.0
1121,2643.3326027307467
1135,955.4605741764726
1161,9.639844698570727
1163,0.0
1166,2967.860552833478
1168,2967.860552833478
2,3,12,24, 0,11, 0.00,60.00,Wednesday
7,-9.0
545,19.700468801447368
546,-3.63741493915453
547,12.406126485712138
548,105.54672093851369
720,3556.0662242724266
721,3556.0662242724266
784,0.0
785,0.0
848,0.0
849,0.0
1121,2642.833388753862
1135,956.0185640122814
1161,9.639844698570727
1163,0.0
1166,2914.1081122141895
1168,2914.1081122141895
2,3,12,24, 0,12, 0.00,60.00,Wednesday
7,-9.0
545,19.677571710016693
546,-3.516924794911211
547,12.340247934434112
548,105.54672093851369
720,3905.2013512263347
721,3905.2013512263347
784,0.0
785,0.0
848,0.0
849,0.0
1121,2642.9791670545105
1135,955.8556285322694
1161,9.639844698570727
1163,0.0
1166,3326.0646427546776
1168,3326.0646427546776
2,3,12,24, 0,13, 0.00,60.00,Wednesday
7,-9.0
545,19.71543329165492
546,-3.0186934582000813
547,12.285289420122746
548,105.54672093851369
720,3009.1684503136185
721,3009.1684503136185
784,0.0
785,0.0
848,0.0
849,0.0
1121,2643.3822937101736
1135,955.4050294154487
1161,9.639844698570727
1163,0.0
1166,2270.4794561262743
1168,2270.4794561262743
2,3,12,24, 0,14, 0.00,60.00,Wednesday
7,-8.0
545,19.719363295156157
546,-3.4063229101127535
547,12.23930785312493
548,105.54672093851369
720,2709.741085535301
721,2709.741085535301
784,0.0
785,0.0
848,0.0
849,0.0
1121,2740.339336940374
1135,970.1470089619454
1161,5.306355202026547
1163,0.0
1166,1774.4892500800634
1168,1774.4892500800634
2,3,12,24, 0,15, 0.00,60.00,Wednesday
7,-8.0
545,19.701053428747766
546,-2.6852965440669267
547,12.200252637180123
548,105.54672093851369
720,2837.2148410173795
721,2837.2148410173795
784,0.0
785,0.0
848,0.0
849,0.0
1121,2740.2883174065273
1135,970.2047607931377
1161,5.306355202026547
1163,0.0
1166,1924.3527173541602
1168,1924.3527173541602
2,3,12,24, 0,16, 0.00,60.00,Wednesday
7,-8.0
545,19.700599582902292
546,-2.425059918807701
547,12.162083714511796
548,105.54672093851369
720,2920.990434471196
721,2920.990434471196
784,0.0
785,0.0
848,0.0
849,0.0
1121,2718.805538797059
1135,962.1336811932034
1161,11.112218373118713
1163,0.0
1166,2015.2633513201577
1168,2015.2633513201577
2,3,12,24, 0,17, 0.00,60.00,Wednesday
7,-9.0
545,19.68976075227425
546,-3.3331808847721214
547,12.114309852196781
548,105.54672093851369
720,3210.4086440546
721,3210.4086440546
784,0.0
785,0.0
848,0.0
849,0.0
1121,2643.1811597613573
1135,955.629853982808
1161,9.639844698570727
1163,0.0
1166,2417.066413680109
1168,2417.066413680109
2,3,12,24, 0,18, 0.00,60.00,Wednesday
7,-10.0
545,19.686494863079325
546,-3.859127920637342
547,12.058136055996915
548,105.54672093851369
720,3210.191311060262
721,3210.191311060262
784,0.0
785,0.0
848,0.0
849,0.0
1121,2551.2098629957013
1135,942.3033714806674
1161,13.146797837534766
1163,0.0
1166,2553.6301320407174
1168,2553.6301320407174
2,3,12,24, 0,19, 0.00,60.00,Wednesday
7,-11.0
545,19.68095438302422
546,-5.406967649198298
547,11.99167314551068
548,105.54672093851369
720,3341.707867809808
721,3341.707867809808
784,0.0
785,0.0
848,0.0
849,0.0
1121,2478.7485001217906
1135,935.6327014131759
1161,11.558774100332066
1163,0.0
1166,2815.337904398751
1168,2815.337904398751
2,3,12,24, 0,20, 0.00,60.00,Wednesday
7,-11.0
545,19.675387259775302
546,-6.172395687847997
547,11.923997911361747
548,105.54672093851369
720,3369.523908996811
721,3369.523908996811
784,0.0
785,0.0
848,0.0
849,0.0
1121,2478.9242704883327
1135,935.4419272462998
1161,11.558774100332066
1163,0.0
1166,2928.5292018309274
1168,2928.5292018309274
2,3,12,24, 0,21, 0.00,60.00,Wednesday
7,-12.0
545,19.675352585215162
546,-5.774984586489404
547,11.845639253618986
548,105.54672093851369
720,3426.339318212733
721,3426.339318212733
784,0.0
785,0.0
848,0.0
849,0.0
1121,2393.6497512163
1135,923.2438171424952
1161,14.14780739069782
1163,0.0
1166,3127.826814318177
1168,3127.826814318177
2,3,12,24, 0,22, 0.00,60.00,Wednesday
7,-12.0
545,19.67042707341065
546,-6.617526207927763
547,11.765272230648433
548,105.54672093851369
720,3763.449099306521
721,3763.449099306521
784,0.0
785,0.0
848,0.0
849,0.0
1121,2409.3507686408916
1135,929.1568574454212
1161,9.447385918577538
1163,0.0
1166,3505.3097323964234
1168,3505.3097323964234
2,3,12,24, 0,23, 0.00,60.00,Wednesday
7,-12.0
545,18.859156280418222
546,-6.6584431067578125
547,11.680097661304698
548,105.54672093851369
720,2989.974509946418
721,2989.974509946418
784,0.0
785,0.0
848,0.0
849,0.0
1121,2409.5159261355225
1135,928.9805814411204
1161,9.447385918577538
1163,0.0
1166,2642.0647165923147
1168,2642.0647165923147
2,3,12,24, 0,24, 0.00,60.00,Wednesday
7,-13.0
545,18.636037916279804
546,-6.992467790039685
547,11.548444693588428
548,105.54672093851369
720,3543.139008139262
721,3543.139008139262
784,0.0
785,0.0
848,0.0
849,0.0
1121,2350.458253831062
1135,908.3761818950802
1161,8.207775755906635
1163,0.0
1166,3281.792702825437
1168,3281.792702825437
2,4,12,25, 0, 1, 0.00,60.00,Thursday
7,-13.0
545,18.56017797514388
546,-7.323765724789406
547,11.451421288437137
548,105.54672093851369
720,4192.559584753479
721,4192.559584753479
784,0.0
785,0.0
848,0.0
849,0.0
1121,2340.0721736314176
1135,899.2464859167359
1161,12.517663619431115
1163,0.0
1166,4070.626581963392
1168,4070.626581963392
2,4,12,25, 0, 2, 0.00,60.00,Thursday
7,-13.0
545,18.539514374314898
546,-7.220420330592579
547,11.349611160707086
548,105.54672093851369
720,4625.113307373549
721,4625.113307373549
784,0.0
785,0.0
848,0.0
849,0.0
1121,2327.533828439012
1135,892.6186674496615
1161,16.77794081199431
1163,0.0
1166,4629.825890096115
1168,4629.825890096115
2,4,12,25, 0, 3, 0.00,60.00,Thursday
7,-13.0
545,18.543173403058294
546,-7.1037857328343454
547,11.251347855303548
548,105.54672093851369
720,4772.560002405533
721,4772.560002405533
784,0.0
785,0.0
848,0.0
849,0.0
1121,2355.720668359688
1135,902.8183348540261
1161,8.207775755906635
1163,0.0
1166,4790.280892312271
1168,4790.280892312271
2,4,12,25, 0, 4, 0.00,60.00,Thursday
7,-14.0
545,18.540899654433318
546,-7.4723407810110185
547,11.14768954892325
548,105.54672093851369
720,4949.557212640375
721,4949.557212640375
784,0.0
785,0.0
848,0.0
849,0.0
1121,2260.1300414144503
1135,885.8256595682806
1161,14.94683098840326
1163,0.0
1166,5095.168413786208
1168,5095.168413786208
2,4,12,25, 0, 5, 0.00,60.00,Thursday
7,-14.0
545,18.5344332546821
546,-7.919279045818733
547,11.048515330075029
548,105.54672093851369
720,5157.305696524214
721,5157.305696524214
784,0.0
785,0.0
848,0.0
849,0.0
1121,2260.288431468079
1135,885.6612152017185
1161,14.94683098840326
1163,0.0
1166,5370.148168858523
1168,5370.148168858523
2,4,12,25, 0, 6, 0.00,60.00,Thursday
7,-14.0
545,19.353687698950083
546,-7.441554579132883
547,10.949609418317392
548,105.54672093851369
720,6301.255281896827
721,6301.255281896827
784,0.0
785,0.0
848,0.0
849,0.0
1121,2285.141958782376
1135,895.1001670069702
1161,7.093273824367939
1163,0.0
1166,6733.56670816766
1168,6733.56670816766
2,4,12,25, 0, 7, 0.00,60.00,Thursday
7,-14.0
545,19.578433027396347
546,-7.386702224042867
547,10.89014895962182
548,105.54672093851369
720,5964.93825312146
721,5964.93825312146
784,0.0
785,0.0
848,0.0
849,0.0
1121,2272.7330658277197
1135,907.9390544422736
1161,7.093273824367939
1163,0.0
1166,6423.440770201427
1168,6423.440770201427
2,4,12,25, 0, 8, 0.00,60.00,Thursday
7,-14.0
545,19.645697630342053
546,-7.101179776363013
547,10.802117825770578
548,105.54672093851369
720,5414.357726656002
721,5414.357726656002
784,0.0
785,0.0
848,0.0
849,0.0
1121,2257.037776289949
1135,906.491439438116
1161,11.040841494557945
1163,0.0
1166,5803.215067709487
1168,5803.215067709487
2,4,12,25, 0, 9, 0.00,60.00,Thursday
7,-13.0
545,19.691342148849454
546,-5.904451498749004
547,10.727893013420443
548,105.54672093851369
720,4387.306656717485
721,4387.306656717485
784,0.0
785,0.0
848,0.0
849,0.0
1121,2325.4623745121526
1135,914.6265948623679
1161,12.517663619431115
1163,0.0
1166,4500.044745447252
1168,4500.044745447252
2,4,12,25, 0,10, 0.00,60.00,Thursday
7,-12.0
545,19.708043879900806
546,-6.1826988032497505
547,10.661800732135157
548,105.54672093851369
720,3764.806494355993
721,3764.806494355993
784,0.0
785,0.0
848,0.0
849,0.0
1121,2437.6710049288363
1135,938.4732524488703
1161,1.248793931564995
1163,0.0
1166,3573.265181401558
1168,3573.265181401558
2,4,12,25, 0,11, 0.00,60.00,Thursday
7,-11.0
545,19.695258846158552
546,-5.930573837336684
547,10.61867043297572
548,105.54672093851369
720,3600.1870144801796
721,3600.1870144801796
784,0.0
785,0.0
848,0.0
849,0.0
1121,2519.5648423216435
1135,948.9907194712266
1161,0.05084391226606634
1163,0.0
1166,3282.8561153953146
1168,3282.8561153953146
2,4,12,25, 0,12, 0.00,60.00,Thursday
7,-9.0
545,19.707479089620755
546,-4.229933994965851
547,10.60421379038812
548,105.54672093851369
720,3117.5361797511505
721,3117.5361797511505
784,0.0
785,0.0
848,0.0
849,0.0
1121,2680.144363810893
1135,965.9850362285442
1161,0.05084391226606634
1163,0.0
1166,2534.7651697166434
1168,2534.7651697166434
2,4,12,25, 0,13, 0.00,60.00,Thursday
7,-9.0
545,19.72242075153288
546,-3.999328944309367
547,10.596678141241489
548,105.54672093851369
720,2773.603165811708
721,2773.603165811708
784,0.0
785,0.0
848,0.0
849,0.0
1121,2679.9672775499553
1135,966.1830580097842