Program Version,EnergyPlus, Version 22.2.0-c249759bad, YMD=2023.09.01 14:32
1,5,Environment Title[],Latitude[deg],Longitude[deg],Time Zone[],Elevation[m]
2,8,Day of Simulation[],Month[],Day of Month[],DST Indicator[1=yes 0=no],Hour[],StartMinute[],EndMinute[],DayType
3,5,Cumulative Day of Simulation[],Month[],Day of Month[],DST Indicator[1=yes 0=no],DayType  ! When Daily Report Variables Requested
4,2,Cumulative Days of Simulation[],Month[]  ! When Monthly Report Variables Requested
5,1,Cumulative Days of Simulation[] ! When Run Period Report Variables Requested
6,1,Calendar Year of Simulation[] ! When Annual Report Variables Requested
7,1,Environment,Site Outdoor Air Drybulb Temperature [C] !Hourly
545,1,LIVING,Zone Mean Air Temperature [C] !Hourly
546,1,ATTIC,Zone Mean Air Temperature [C] !Hourly
547,1,CRAWLSPACE,Zone Mean Air Temperature [C] !Hourly
548,1,FAN,Fan Electricity Rate [W] !Hourly
720,1,LIVING,Zone Predicted Sensible Load to Heating Setpoint Heat Transfer Rate [W] !Hourly
721,1,LIVING,Zone System Predicted Sensible Load to Heating Setpoint Heat Transfer Rate [W] !Hourly
784,1,ATTIC,Zone Predicted Sensible Load to Heating Setpoint Heat Transfer Rate [W] !Hourly
785,1,ATTIC,Zone System Predicted Sensible Load to Heating Setpoint Heat Transfer Rate [W] !Hourly
848,1,CRAWLSPACE,Zone Predicted Sensible Load to Heating Setpoint Heat Transfer Rate [W] !Hourly
849,1,CRAWLSPACE,Zone System Predicted Sensible Load to Heating Setpoint Heat Transfer Rate [W] !Hourly
1121,1,DX_HEATING_COIL,Heating Coil Heating Rate [W] !Hourly
1135,1,DX_HEATING_COIL,Heating Coil Electricity Rate [W] !Hourly
1161,1,DX_HEATING_COIL,Heating Coil Defrost Electricity Rate [W] !Hourly
1163,1,DX_HEATING_COIL,Heating Coil Crankcase Heater Electricity Rate [W] !Hourly
1166,1,HEATING_RESISTANCE_BACKUP,Heating Coil Heating Rate [W] !Hourly
1168,1,HEATING_RESISTANCE_BACKUP,Heating Coil Electricity Rate [W] !Hourly
End of Data Dictionary
1,EXTREME_WINTER,  40.00, -82.88,  -5.00, 254.00
2,1, 1,20, 0, 1, 0.00,60.00,Monday
7,-12.2
545,18.60779008919262
546,-7.830812580084039
547,17.294404472337984
548,137.20017762184878
720,3693.8982171323205
721,3693.8982171323205
784,0.0
785,0.0
848,0.0
849,0.0
1121,3159.7413141713914
1135,1206.5262136668434
1161,1.4761070044579272
1163,0.0
1166,2390.2865224977904
1168,2390.2865224977904
2,1, 1,20, 0, 2, 0.00,60.00,Monday
7,-13.0
545,18.564240759443987
546,-7.994775801631631
547,16.76442326419686
548,137.20017762184878
720,4440.108553929473
721,4440.108553929473
784,0.0
785,0.0
848,0.0
849,0.0
1121,3086.4351923786057
1135,1197.4236059265515
1161,0.06609199918164915
1163,0.0
1166,3402.7107481121684
1168,3402.7107481121684
2,1, 1,20, 0, 3, 0.00,60.00,Monday
7,-13.0
545,18.565552388751808
546,-8.242154288120217
547,16.510263240696645
548,137.20017762184878
720,4613.146373215564
721,4613.146373215564
784,0.0
785,0.0
848,0.0
849,0.0
1121,3085.1447366726566
1135,1194.785201495554
1161,0.9247972282575297
1163,0.0
1166,3653.7541497658726
1168,3653.7541497658726
2,1, 1,20, 0, 4, 0.00,60.00,Monday
7,-13.9
545,18.560447637530594
546,-9.181010231111346
547,16.212980794440945
548,137.20017762184878
720,4966.270914769522
721,4966.270914769522
784,0.0
785,0.0
848,0.0
849,0.0
1121,3000.0127956398815
1135,1185.163805272256
1161,0.06609199918164915
1163,0.0
1166,4179.63820531166
1168,4179.63820531166
2,1, 1,20, 0, 5, 0.00,60.00,Monday
7,-14.4
545,18.543366547496177
546,-10.241332446646867
547,15.952688430420782
548,137.20017762184878
720,5628.848230227692
721,5628.848230227692
784,0.0
785,0.0
848,0.0
849,0.0
1121,2952.12192872804
1135,1178.8250031862085
1161,0.06609199918164915
1163,0.0
1166,5063.882471496188
1168,5063.882471496188
2,1, 1,20, 0, 6, 0.00,60.00,Monday
7,-14.4
545,19.33187738246764
546,-9.72926739706539
547,15.715242094539235
548,137.20017762184878
720,6374.59063847039
721,6374.59063847039
784,0.0
785,0.0
848,0.0
849,0.0
1121,2952.7562672079735
1135,1178.1739078727512
1161,0.06609199918164915
1163,0.0
1166,6005.994984909425
1168,6005.994984909425
2,1, 1,20, 0, 7, 0.00,60.00,Monday
7,-14.4
545,19.574819000271965
546,-9.898185615741365
547,15.515527772005308
548,137.20017762184878
720,6191.5051443632055
721,6191.5051443632055
784,0.0
785,0.0
848,0.0
849,0.0
1121,2936.9200952653496
1135,1194.3685615521638
1161,0.06609199918164915
1163,0.0
1166,5879.4071135319555
1168,5879.4071135319555
2,1, 1,20, 0, 8, 0.00,60.00,Monday
7,-14.4
545,19.65148948211452
546,-9.742168181809511
547,15.3037045290932
548,137.20017762184878
720,5699.490733155653
721,5699.490733155653
784,0.0
785,0.0
848,0.0
849,0.0
1121,2932.151329594348
1135,1199.2203303070803
1161,0.06609199918164915
1163,0.0
1166,5347.152003858024
1168,5347.152003858024
2,1, 1,20, 0, 9, 0.00,60.00,Monday
7,-13.3
545,19.690538709039867
546,-8.601579418514325
547,15.11031648973548
548,137.20017762184878
720,4889.406949472952
721,4889.406949472952
784,0.0
785,0.0
848,0.0
849,0.0
1121,3037.6514346743925
1135,1214.0263174963134
1161,0.06609199918164915
1163,0.0
1166,4295.585345360518
1168,4295.585345360518
2,1, 1,20, 0,10, 0.00,60.00,Monday
7,-12.2
545,19.72310795113639
546,-6.8767454935971
547,14.930083737660938
548,137.20017762184878
720,3828.0622532899342
721,3828.0622532899342
784,0.0
785,0.0
848,0.0
849,0.0
1121,3146.117461327523
1135,1227.782252568735
1161,0.06609199918164915
1163,0.0
1166,2887.576626944268
1168,2887.576626944268
2,1, 1,20, 0,11, 0.00,60.00,Monday
7,-10.6
545,19.7482516068204
546,-4.153632665714594
547,14.781584410122205
548,137.20017762184878
720,2755.7347371831947
721,2755.7347371831947
784,0.0
785,0.0
848,0.0
849,0.0
1121,3308.2077433790378
1135,1246.945779768292
1161,0.06609199918164915
1163,0.0
1166,1370.0423533977669
1168,1370.0423533977669
2,1, 1,20, 0,12, 0.00,60.00,Monday
7,-10.0
545,19.740927351679108
546,-3.0732300001863635
547,14.655751223009368
548,137.20017762184878
720,2778.4364431178183
721,2778.4364431178183
784,0.0
785,0.0
848,0.0
849,0.0
1121,3370.0484806731893
1135,1254.1779392380413
1161,0.06609199918164915
1163,0.0
1166,1170.08025628033
1168,1170.08025628033
2,1, 1,20, 0,13, 0.00,60.00,Monday
7,-10.0
545,19.737215339274094
546,-1.7982212347124993
547,14.562521116107956
548,137.20017762184878
720,2489.143363016652
721,2489.143363016652
784,0.0
785,0.0
848,0.0
849,0.0
1121,3370.3607665949876
1135,1253.8342281316986
1161,0.06609199918164915
1163,0.0
1166,760.9538593000798
1168,760.9538593000798
2,1, 1,20, 0,14, 0.00,60.00,Monday
7,-8.3
545,19.849590586987315
546,-0.3267265129931781
547,14.496670953120375
548,116.9561927148358
720,1618.416180760878
721,1618.416180760878
784,0.0
785,0.0
848,0.0
849,0.0
1121,2972.1096468089436
1135,1085.1535020853244
1161,0.05634114264018781
1163,29.50691963383285
1166,0.0
1168,0.0
2,1, 1,20, 0,15, 0.00,60.00,Monday
7,-7.8
545,19.87008622970418
546,0.014424772679249817
547,14.441147893139824
548,95.19960864918328
720,1342.6709998290335
721,1342.6709998290335
784,0.0
785,0.0
848,0.0
849,0.0
1121,2407.907200853952
1135,889.0960602838537
1161,0.045860334003702506
1163,61.22273627203001
1166,0.0
1168,0.0
2,1, 1,20, 0,16, 0.00,60.00,Monday
7,-8.3
545,19.971933839123075
546,-1.9235573078571018
547,14.389968357510387
548,65.67188281641374
720,842.75942285786
721,842.75942285786
784,0.0
785,0.0
848,0.0
849,0.0
1121,1595.0844764466765
1135,610.9371516633227
1161,0.031636024483746944
1163,104.26670436523615
1166,0.0
1168,0.0
2,1, 1,20, 0,17, 0.00,60.00,Monday
7,-8.9
545,19.907263339521705
546,-3.4188627933735485
547,14.36356686852756
548,50.91545123352281
720,615.8324324640216
721,615.8324324640216
784,0.0
785,0.0
848,0.0
849,0.0
1121,1198.61112581317
1135,472.0641932318655
1161,0.024527456404522
1163,125.77783481141181
1166,0.0
1168,0.0
2,1, 1,20, 0,18, 0.00,60.00,Monday
7,-9.4
545,19.449981121661736
546,-4.718221028704327
547,14.374940412080978
548,106.49803060123223
720,1608.4848311660844
721,1608.4848311660844
784,0.0
785,0.0
848,0.0
849,0.0
1121,2590.6560084713506
1135,981.4726279025311
1161,0.05130325207887065
1163,44.752004133307246
1166,0.0
1168,0.0
2,1, 1,20, 0,19, 0.00,60.00,Monday
7,-9.4
545,19.43547673660594
546,-5.482061762555844
547,14.333913405678146
548,137.20017762184878
720,2139.3133043298967
721,2139.3133043298967
784,0.0
785,0.0
848,0.0
849,0.0
1121,3439.678787246781
1135,1253.4353273229349
1161,0.06609199918164915
1163,0.0
1166,122.09997548337742
1168,122.09997548337742
2,1, 1,20, 0,20, 0.00,60.00,Monday
7,-10.0
545,19.571384119304224
546,-5.835300252448266
547,14.277019939093123
548,137.20017762184878
720,2247.213266517333
721,2247.213266517333
784,0.0
785,0.0
848,0.0
849,0.0
1121,3377.1772294092707
1135,1246.3256388230393
1161,0.06609199918164915
1163,0.0
1166,514.8151885745838
1168,514.8151885745838
2,1, 1,20, 0,21, 0.00,60.00,Monday
7,-10.6
545,19.647628289113086
546,-5.950746435550404
547,14.203268994664212
548,137.20017762184878
720,2629.4556606178376
721,2629.4556606178376
784,0.0
785,0.0
848,0.0
849,0.0
1121,3312.1992824863205
1135,1242.590885063124
1161,0.06609199918164915
1163,0.0
1166,1084.8504734038936
1168,1084.8504734038936
2,1, 1,20, 0,22, 0.00,60.00,Monday
7,-11.1
545,19.67588151126944
546,-6.056986945636423
547,14.110828242180416
548,137.20017762184878
720,3032.925193473893
721,3032.925193473893
784,0.0
785,0.0
848,0.0
849,0.0
1121,3259.3737970551365
1135,1238.497413135217
1161,0.06609199918164915
1163,0.0
1166,1635.7872817280022
1168,1635.7872817280022
2,1, 1,20, 0,23, 0.00,60.00,Monday
7,-10.6
545,18.94141551056807
546,-6.38690730489008
547,14.012481351274204
548,137.20017762184878
720,2426.4903029585294
721,2426.4903029585294
784,0.0
785,0.0
848,0.0
849,0.0
1121,3310.2037962655995
1135,1244.7686049432782
1161,0.06609199918164915
1163,0.0
1166,906.3857743571673
1168,906.3857743571673
2,1, 1,20, 0,24, 0.00,60.00,Monday
7,-11.1
545,18.70107005428371
546,-6.2875835173214565
547,13.866490524447626
548,137.20017762184878
720,2910.2142927411096
721,2910.2142927411096
784,0.0
785,0.0
848,0.0
849,0.0
1121,3274.3407794343952
1135,1222.262723518028
1161,0.06609199918164915
1163,0.0
1166,1453.8168772802157
1168,1453.8168772802157
2,2, 1,21, 0, 1, 0.00,60.00,Tuesday
7,-11.1
545,18.61477059044241
546,-7.0089743118102685
547,13.745415003239732
548,137.20017762184878
720,3463.9087632920055
721,3463.9087632920055
784,0.0
785,0.0
848,0.0
849,0.0
1121,3279.49668122992
1135,1216.6545552356124
1161,0.06609199918164915
1163,0.0
1166,2078.655496069012
1168,2078.655496069012
2,2, 1,21, 0, 2, 0.00,60.00,Tuesday
7,-12.2
545,18.572674250059773
546,-7.027874949022242
547,13.61078692015661
548,137.20017762184878
720,4203.596419010486
721,4203.596419010486
784,0.0
785,0.0
848,0.0
849,0.0
1121,3156.7715550654557
1135,1197.2674015084542
1161,4.064369064834925
1163,0.0
1166,3104.146782666818
1168,3104.146782666818
2,2, 1,21, 0, 3, 0.00,60.00,Tuesday
7,-12.2
545,18.571909875060943
546,-6.87469357871985
547,13.488600668527008
548,137.20017762184878
720,4390.648876160154
721,4390.648876160154
784,0.0
785,0.0
848,0.0
849,0.0
1121,3166.4442109436727
1135,1199.4582981117067
1161,1.455647661987882
1163,0.0
1166,3336.7373867058636
1168,3336.7373867058636
2,2, 1,21, 0, 4, 0.00,60.00,Tuesday
7,-11.7
545,18.578153127717673
546,-6.77083242933021
547,13.369137217868204
548,137.20017762184878
720,4377.066566214486
721,4377.066566214486
784,0.0
785,0.0
848,0.0
849,0.0
1121,3215.6197338206293
1135,1204.3844653046033
1161,1.833877911443335
1163,0.0
1166,3273.9517768493565
1168,3273.9517768493565
2,2, 1,21, 0, 5, 0.00,60.00,Tuesday
7,-11.7
545,18.57666517466114
546,-6.674547306506253
547,13.246928900155654
548,137.20017762184878
720,4517.178471058585
721,4517.178471058585
784,0.0
785,0.0
848,0.0
849,0.0
1121,3197.3234485433636
1135,1197.5038233743476
1161,7.26721834313471
1163,0.0
1166,3454.6251143578033
1168,3454.6251143578033
2,2, 1,21, 0, 6, 0.00,60.00,Tuesday
7,-10.6
545,19.35359607702745
546,-5.566253934051248
547,13.136194963334116
548,137.20017762184878
720,5546.867839114702
721,5546.867839114702
784,0.0
785,0.0
848,0.0
849,0.0
1121,3331.8016608010685
1135,1217.638868684363
1161,0.7521474567711721
1163,0.0
1166,4516.993175601732
1168,4516.993175601732
2,2, 1,21, 0, 7, 0.00,60.00,Tuesday
7,-10.6
545,19.596280758489357
546,-4.894564010970151
547,13.055063756528535
548,137.20017762184878
720,5335.36943271655
721,5335.36943271655
784,0.0
785,0.0
848,0.0
849,0.0
1121,3315.7952021120213
1135,1235.1729112710987
1161,0.7521474567711721
1163,0.0
1166,4321.999681359433
1168,4321.999681359433
2,2, 1,21, 0, 8, 0.00,60.00,Tuesday
7,-10.0
545,19.669286428434148
546,-4.488838217188021
547,12.956609230470407
548,137.20017762184878
720,5033.725594355501
721,5033.725594355501
784,0.0
785,0.0
848,0.0
849,0.0
1121,3375.088735266212
1135,1248.2003334085016
1161,0.14825870465571198
1163,0.0
1166,3900.1429892560004
1168,3900.1429892560004
2,2, 1,21, 0, 9, 0.00,60.00,Tuesday
7,-8.3
545,19.709302421718554
546,-3.258571511793209
547,12.871508370796088
548,137.20017762184878
720,4144.654527076422
721,4144.654527076422
784,0.0
785,0.0
848,0.0
849,0.0
1121,3553.6935369473313
1135,1268.9407215587614
1161,0.06609199918164915
1163,0.0
1166,2667.500616178329
1168,2667.500616178329
2,2, 1,21, 0,10, 0.00,60.00,Tuesday
7,-7.2
545,19.735287060399827
546,-0.8159912000454792
547,12.790063416316642
548,137.20017762184878
720,3215.3529494751238
721,3215.3529494751238
784,0.0
785,0.0
848,0.0
849,0.0
1121,3672.067417409313
1135,1281.9694500903877
1161,0.06609199918164915
1163,0.0
1166,1395.097133679405
1168,1395.097133679405
2,2, 1,21, 0,11, 0.00,60.00,Tuesday
7,-5.6
545,19.75103431176606
546,1.7592117373788443
547,12.732660886763046
548,137.20017762184878
720,2595.665845989688
721,2595.665845989688
784,0.0
785,0.0
848,0.0
849,0.0
1121,3848.850530716666
1135,1300.1048835331853
1161,0.06609199918164915
1163,0.0
1166,362.6635272681274
1168,362.6635272681274
2,2, 1,21, 0,12, 0.00,60.00,Tuesday
7,-4.4
545,19.829614411771797
546,3.68861948329355
547,12.68132959578843
548,123.24834267148066
720,2175.5834597676476
721,2175.5834597676476
784,0.0
785,0.0
848,0.0
849,0.0
1121,3534.8874143779262
1135,1180.1796702485435
1161,0.05937187745300758
1163,20.33565881453154
1166,0.0
1168,0.0
2,2, 1,21, 0,13, 0.00,60.00,Tuesday
7,-4.4
545,19.868810043133045
546,5.10726422434871
547,12.643245176838834
548,100.76839475052425
720,1776.3093498330873
721,1776.3093498330873
784,0.0
785,0.0
848,0.0
849,0.0
1121,2832.2032337943824
1135,966.4547032392534
1161,0.04854271212390381
1163,53.10563237620449
1166,0.0
1168,0.0
2,2, 1,21, 0,14, 0.00,60.00,Tuesday
7,-2.2
545,20.125289332770436
546,8.618073302223525
547,12.58932117950304
548,49.10160132119625
720,827.2363687675552
721,827.2363687675552
784,0.0
785,0.0
848,0.0
849,0.0
1121,1405.0600688592922
1135,480.2866506027283
1161,0.02365342567671968
1163,128.42272598923836
1166,0.0
1168,0.0
2,2, 1,21, 0,15, 0.00,60.00,Tuesday
7,-1.1
545,19.842692167074805
546,8.642376456736967
547,12.57487514241599
548,18.600908362742054
720,297.482455759171
721,297.482455759171
784,0.0
785,0.0
848,0.0
849,0.0
1121,534.4385548802464
1135,184.60350372128772
1161,0.008960493957298926
1163,172.88478463884366
1166,0.0
1168,0.0
2,2, 1,21, 0,16, 0.00,60.00,Tuesday
7,-1.7
545,19.628102579185132
546,6.578668373007486
547,12.583916978221323
548,0.0
720,-67.40262779547447
721,-67.40262779547447
784,0.0
785,0.0
848,0.0
849,0.0
1121,0.0
1135,0.0
1161,0.0
1163,200.0
1166,0.0
1168,0.0
2,2, 1,21, 0,17, 0.00,60.00,Tuesday
7,-2.2
545,20.28767551508589
546,6.023827496145529
547,12.639912863109343
548,0.0
720,-527.1022845845273
721,-527.1022845845273
784,0.0
785,0.0
848,0.0
849,0.0
1121,0.0
1135,0.0
1161,0.0
1163,200.0
1166,0.0
1168,0.0
2,2, 1,21, 0,18, 0.00,60.00,Tuesday
7,-2.8
545,19.758156188945183
546,2.8504026432136316
547,12.701354017057334
548,9.496339443628464
720,142.1856621488223
721,142.1856621488223
784,0.0
785,0.0
848,0.0
849,0.0
1121,258.0678964493744
1135,93.19384884130511
1161,0.004574619464030164
1163,186.15681316748447
1166,0.0
1168,0.0
2,2, 1,21, 0,19, 0.00,60.00,Tuesday
7,-2.8
545,19.656552760907186
546,1.4017616401454123
547,12.775577477855785
548,35.65935637348619
720,713.9263781992613
721,713.9263781992613
784,0.0
785,0.0
848,0.0
849,0.0
1121,992.7844018635312
1135,346.3305751783305
1161,0.017177985466559544
1163,148.01795775810297
1166,0.0
1168,0.0
2,2, 1,21, 0,20, 0.00,60.00,Tuesday
7,-3.9
545,19.610647837489303
546,-0.30932612822590083
547,12.815379556305082
548,55.06666434429423
720,1042.2009936357317
721,1042.2009936357317
784,0.0
785,0.0
848,0.0
849,0.0
1121,1511.0731930001805
1135,528.8120471424775
1161,0.02652700090169409
1163,119.72704342385975
1166,0.0
1168,0.0
2,2, 1,21, 0,21, 0.00,60.00,Tuesday
7,-3.9
545,19.60643462846538
546,-0.718840886329008
547,12.827295650121673
548,68.55690831042676
720,1258.698542938686
721,1258.698542938686
784,0.0
785,0.0
848,0.0
849,0.0
1121,1903.271969410724
1135,657.7553466155775
1161,0.033025591520974326
1163,100.06175655178522
1166,0.0
1168,0.0
2,2, 1,21, 0,22, 0.00,60.00,Tuesday
7,-3.9
545,19.288802965468612
546,-0.6832563709742495
547,12.835620764704256
548,93.33851978001532
720,1739.941854463079
721,1739.941854463079
784,0.0
785,0.0
848,0.0
849,0.0
1121,2647.084892330528
1135,895.3002561722307
1161,0.04496351864362405
1163,63.93657568128626
1166,0.0
1168,0.0
2,2, 1,21, 0,23, 0.00,60.00,Tuesday
7,-3.3
545,19.021920944339875
546,-0.546218883180857
547,12.763961155484623
548,75.74400550575619
720,1335.4550739953347
721,1335.4550739953347
784,0.0
785,0.0
848,0.0
849,0.0
1121,2155.7416922927882
1135,725.831652012554
1161,0.0364877664363149
1163,89.5849213577853
1166,0.0
1168,0.0
2,2, 1,21, 0,24, 0.00,60.00,Tuesday
7,-5.0
545,18.610049683543053
546,-0.8867166589468299
547,12.732188424351504
548,96.90030429915056
720,1731.422060280087
721,1731.422060280087
784,0.0
785,0.0
848,0.0
849,0.0
1121,2679.507748647594
1135,910.4746354768666
1161,0.04667939252591462
1163,58.74419565484883
1166,0.0
1168,0.0
2,3, 1,22, 0, 1, 0.00,60.00,Wednesday
7,-5.0
545,18.494107870196682
546,-0.7906253638696881
547,12.687404589288862
548,123.3726040410107
720,2301.0453642846805
721,2301.0453642846805
784,0.0
785,0.0
848,0.0
849,0.0
1121,3499.8856841649817
1135,1149.7688359206775
1161,0.059431784817740974
1163,20.1543740433787
1166,0.0
1168,0.0
2,3, 1,22, 0, 2, 0.00,60.00,Wednesday
7,-1.1
545,18.532618011531333
546,0.7301144015564209
547,12.643772893350985
548,126.35517440511722
720,2671.9519685420637
721,2671.9519685420637
784,0.0
785,0.0
848,0.0
849,0.0
1121,4012.618582355316
1135,1214.1485305377187
1161,0.06086824779515368
1163,15.807515133982752
1166,0.0
1168,0.0
2,3, 1,22, 0, 3, 0.00,60.00,Wednesday
7,-0.6
545,18.58853383094859
546,1.5768051157420544
547,12.583074205245541
548,128.77225990280417
720,2793.863633549463
721,2793.863633549463
784,0.0
785,0.0
848,0.0
849,0.0
1121,4153.864987542292
1135,1243.6208618262929
1161,0.06203257762351654
1163,12.28415423469209
1166,0.0
1168,0.0
2,3, 1,22, 0, 4, 0.00,60.00,Wednesday
7,0.0
545,18.588290788360847
546,2.3268529755849037
547,12.53070243237717
548,133.48348589054675
720,3000.03887664982
721,3000.03887664982
784,0.0
785,0.0
848,0.0
849,0.0
1121,4393.9904564702965
1135,1297.189335186263
1161,0.06430203961634619
1163,5.416569592284182
1166,0.0
1168,0.0
2,3, 1,22, 0, 5, 0.00,60.00,Wednesday
7,0.6
545,18.60366166144045
546,2.953309404475521
547,12.471513863051074
548,133.72866379640573
720,3083.265196911232
721,3083.265196911232
784,0.0
785,0.0
848,0.0
849,0.0
1121,4474.912821280262
1135,1306.4086607583022
1161,0.06442010397049792
1163,5.059296834269289
1166,0.0
1168,0.0
2,3, 1,22, 0, 6, 0.00,60.00,Wednesday
7,1.0
545,19.327424627843236
546,2.9525915942256504
547,12.416831946690957
548,137.20017762184878
720,5500.173036909591
721,5500.173036909591
784,0.0
785,0.0
848,0.0
849,0.0
1121,4654.985200563838
1135,1345.2276941608236
1161,0.06609199918164915
1163,0.0
1166,2645.1143009747475
1168,2645.1143009747475
2,3, 1,22, 0, 7, 0.00,60.00,Wednesday
7,-1.1
545,19.609154970356396
546,2.008170775550765
547,12.389507238006152
548,137.20017762184878
720,4580.06003374516
721,4580.06003374516
784,0.0
785,0.0
848,0.0
849,0.0
1121,4080.150358083711
1135,1247.124626986292
1161,65.87107879756358
1163,0.0
1166,2237.272484562839
1168,2237.272484562839
2,3, 1,22, 0, 8, 0.00,60.00,Wednesday
7,-1.0
545,19.68201809506005
546,2.4894200748813007
547,12.350527617078773
548,137.20017762184878
720,4143.734188135286
721,4143.734188135286
784,0.0
785,0.0
848,0.0
849,0.0
1121,4024.776901758612
1135,1236.3300625569052
1161,79.12807559231
1163,0.0
1166,1848.9463232873923
1168,1848.9463232873923
2,3, 1,22, 0, 9, 0.00,60.00,Wednesday
7,-1.0
545,19.72923923575801
546,3.143947833306504
547,12.31164244969149
548,137.20017762184878
720,3123.711099406961
721,3123.711099406961
784,0.0
785,0.0
848,0.0
849,0.0
1121,4023.251367057333
1135,1238.1474978047036
1161,79.12807559231
1163,0.0
1166,630.6004471354427
1168,630.6004471354427
2,3, 1,22, 0,10, 0.00,60.00,Wednesday
7,1.1
545,19.727651803541857
546,3.766736908751966
547,12.28733762533869
548,137.20017762184878
720,3127.5949354883287
721,3127.5949354883287
784,0.0
785,0.0
848,0.0
849,0.0
1121,4283.6153294829355
1135,1269.6596698117924
1161,73.95340594890553
1163,0.0
1166,325.8298537844421
1168,325.8298537844421
2,3, 1,22, 0,11, 0.00,60.00,Wednesday
7,1.1
545,19.727061570531287
546,3.955974540270776
547,12.252061119150454
548,137.20017762184878
720,3084.9677413248573
721,3084.9677413248573
784,0.0
785,0.0
848,0.0
849,0.0
1121,4249.174711725104
1135,1259.3665240037749
1161,81.05490135381227
1163,0.0
1166,271.6237788400358
1168,271.6237788400358
2,3, 1,22, 0,12, 0.00,60.00,Wednesday
7,1.1
545,19.722297896583385
546,4.235612807183017
547,12.2255747104243
548,137.20017762184878
720,3133.125511093205
721,3133.125511093205
784,0.0
785,0.0
848,0.0
849,0.0
1121,4248.839336245544
1135,1259.1792480605725
1161,81.136066653294
1163,0.0
1166,315.3181005725264
1168,315.3181005725264
2,3, 1,22, 0,13, 0.00,60.00,Wednesday
7,1.1
545,19.721500749620827
546,4.2169099500590645
547,12.200055323967394
548,137.20017762184878
720,3148.4820369371955
721,3148.4820369371955
784,0.0
785,0.0
848,0.0
849,0.0
1121,4248.969618112062
1135,1259.0235351426393
1161,81.136066653294
1163,0.0
1166,319.7829638730591
1168,319.7829638730591
2,3, 1,22, 0,14, 0.00,60.00,Wednesday
7,1.0
545,19.75920392114243
546,3.978843042466755
547,12.158670846446734
548,127.79720651158301
720,2573.9012102158467
721,2573.9012102158467
784,0.0
785,0.0
848,0.0
849,0.0
1121,3857.2974806175675
1135,1164.2753642654975
1161,89.02584654269786
1163,11.984927430416858
1166,0.0
1168,0.0
2,3, 1,22, 0,15, 0.00,60.00,Wednesday
7,2.0
545,19.719571870881758
546,4.357448453043315
547,12.14402609689325
548,128.07710784001495
720,2794.1197760541454
721,2794.1197760541454
784,0.0
785,0.0
848,0.0
849,0.0
1121,4088.0381069911427
1135,1208.888416812394
1161,64.61025915126048
1163,12.303403386298918
1166,0.0
1168,0.0
2,3, 1,22, 0,16, 0.00,60.00,Wednesday
7,1.0
545,19.684988903051906
546,3.535675715963681
547,12.125961932303092
548,137.20017762184878
720,3209.2164762975262
721,3209.2164762975262
784,0.0
785,0.0
848,0.0
849,0.0
1121,4330.928938600962
1135,1285.3984399939748
1161,61.89907261772771
1163,0.0
1166,276.81610467306973
1168,276.81610467306973
2,3, 1,22, 0,17, 0.00,60.00,Wednesday
7,0.0
545,19.70498980668911
546,1.8702303169893055
547,12.08889276386941
548,137.20017762184878
720,3168.8324468916308
721,3168.8324468916308
784,0.0
785,0.0
848,0.0
849,0.0
1121,4301.489694964572
1135,1298.772661624757
1161,43.85397327133152
1163,0.0
1166,311.18457426256373
1168,311.18457426256373
2,3, 1,22, 0,18, 0.00,60.00,Wednesday
7,-3.0
545,19.713384351174028
546,0.6230022919814241
547,12.047164978095616
548,137.20017762184878
720,2807.806473484672
721,2807.806473484672
784,0.0
785,0.0
848,0.0
849,0.0
1121,3971.2736539083567
1135,1270.488630446942
1161,40.86221905724836
1163,0.0
1166,302.6873435851767
1168,302.6873435851767
2,3, 1,22, 0,19, 0.00,60.00,Wednesday
7,-2.8
545,19.746353188715496
546,0.4760596265562684
547,12.00697612137248
548,127.72760299174683
720,2332.0728556499434
721,2332.0728556499434
784,0.0
785,0.0
848,0.0
849,0.0
1121,3731.374496035929
1135,1204.6831798686326
1161,28.25335826377334
1163,12.89550460030311
1166,0.0
1168,0.0
2,3, 1,22, 0,20, 0.00,60.00,Wednesday
7,-5.0
545,19.685958323823673
546,-1.310130805953604
547,11.97594822890974
548,137.20017762184878
720,2755.2243758373097
721,2755.2243758373097
784,0.0
785,0.0
848,0.0
849,0.0
1121,3802.8043599971215
1135,1267.6731425318565
1161,27.993706993175238
1163,0.0
1166,472.32798955821727
1168,472.32798955821727
2,3, 1,22, 0,21, 0.00,60.00,Wednesday
7,-6.1
545,19.705276793103497
546,-1.4198456387447844
547,11.925685954868738
548,137.20017762184878
720,2433.914431617268
721,2433.914431617268
784,0.0
785,0.0
848,0.0
849,0.0
1121,3703.355715251442
1135,1261.0020816497088
1161,23.15141531590752
1163,0.0
1166,292.8374739513024
1168,292.8374739513024
2,3, 1,22, 0,22, 0.00,60.00,Wednesday
7,-6.7
545,19.705388284100703
546,-2.405231602884992
547,11.875193201764647
548,137.20017762184878
720,2723.1741316716834
721,2723.1741316716834
784,0.0
785,0.0
848,0.0
849,0.0
1121,3639.1958198676793
1135,1255.3061995957496
1161,22.887601578342615
1163,0.0
1166,706.3834477171827
1168,706.3834477171827
2,3, 1,22, 0,23, 0.00,60.00,Wednesday
7,-8.3
545,18.948682682080726
546,-3.1052212318167527
547,11.807736687827797
548,137.20017762184878
720,2153.627757336628
721,2153.627757336628
784,0.0
785,0.0
848,0.0
849,0.0
1121,3471.157030157887
1135,1238.6269524212594
1161,22.415031848464917
1163,0.0
1166,268.966304830406
1168,268.966304830406
2,3, 1,22, 0,24, 0.00,60.00,Wednesday
7,-8.9
545,18.702793468637683
546,-4.054910622075437
547,11.702094734350096
548,137.20017762184878
720,2745.4451733466067
721,2745.4451733466067
784,0.0
785,0.0
848,0.0
849,0.0
1121,3459.597381150294
1135,1227.0944990818984
1161,12.785329290127136
1163,0.0
1166,939.4665966568814
1168,939.4665966568814
2,4, 1,23, 0, 1, 0.00,60.00,Thursday
7,-8.9
545,18.614973999662098
546,-4.435254222012
547,11.624325672971938
548,137.20017762184878
720,3244.1222393879907
721,3244.1222393879907
784,0.0
785,0.0
848,0.0
849,0.0
1121,3464.7984687241637
1135,1221.2589687294237
1161,12.785329290127136
1163,0.0
1166,1553.6591069080343
1168,1553.6591069080343
2,4, 1,23, 0, 2, 0.00,60.00,Thursday
7,-10.0
545,18.583308965666255
546,-5.049021929012643
547,11.531213951456607
548,137.20017762184878
720,3792.458404360297
721,3792.458404360297
784,0.0
785,0.0
848,0.0
849,0.0
1121,3347.9645409312684
1135,1205.846862309962
1161,14.035147468539103
1163,0.0
1166,2338.6422539431505
1168,2338.6422539431505
2,4, 1,23, 0, 3, 0.00,60.00,Thursday
7,-10.6
545,18.56991325624554
546,-4.884669743477528
547,11.44285436869517
548,137.20017762184878
720,4255.680791802755
721,4255.680791802755
784,0.0
785,0.0
848,0.0
849,0.0
1121,3277.350268584925
1135,1194.9373716880477
1161,16.9085598570572
1163,0.0
1166,2995.108465654257
1168,2995.108465654257
2,4, 1,23, 0, 4, 0.00,60.00,Thursday
7,-11.1
545,18.56787637929526
546,-5.342431024959786
547,11.351069145175916
548,137.20017762184878
720,4622.850072631982
721,4622.850072631982
784,0.0
785,0.0
848,0.0
849,0.0
1121,3221.0849647959662
1135,1186.876622907747
1161,18.70612146865953
1163,0.0
1166,3491.503924330402
1168,3491.503924330402
2,4, 1,23, 0, 5, 0.00,60.00,Thursday
7,-11.7
545,18.567318011062643
546,-5.577784753814066
547,11.257884375939422
548,137.20017762184878
720,4781.21077473148
721,4781.21077473148
784,0.0
785,0.0
848,0.0
849,0.0
1121,3153.783035529397
1135,1177.4015838674927
1161,20.957707382002162
1163,0.0
1166,3777.4576276870243
1168,3777.4576276870243
2,4, 1,23, 0, 6, 0.00,60.00,Thursday
7,-11.7
545,19.34497412570599
546,-5.528653791052194
547,11.169259319283034
548,137.20017762184878
720,5785.82499942902
721,5785.82499942902
784,0.0
785,0.0
848,0.0
849,0.0
1121,3153.9032101044068
1135,1177.2809676799568
1161,20.955835904385324
1163,0.0
1166,4961.2981079571
1168,4961.2981079571
2,4, 1,23, 0, 7, 0.00,60.00,Thursday
7,-11.7
545,19.58473506726878
546,-5.58121446730988
547,11.117203642462623
548,137.20017762184878
720,5585.52094299447
721,5585.52094299447
784,0.0
785,0.0
848,0.0
849,0.0
1121,3138.3372037002937
1135,1194.053375784933
1161,20.955835904385324
1163,0.0
1166,4830.236633974977
1168,4830.236633974977
2,4, 1,23, 0, 8, 0.00,60.00,Thursday
7,-10.0
545,19.662555318312915
546,-5.202420945446985
547,11.047591039158819
548,137.20017762184878
720,5143.909507263337
721,5143.909507263337
784,0.0
785,0.0
848,0.0
849,0.0
1121,3317.572711935462
1135,1223.071276734239
1161,17.175134679400983
1163,0.0
1166,4167.819082703125
1168,4167.819082703125
2,4, 1,23, 0, 9, 0.00,60.00,Thursday
7,-8.3
545,19.70088740194642
546,-4.060287695154147
547,10.97918549446146
548,137.20017762184878
720,4400.592997932292
721,4400.592997932292
784,0.0
785,0.0
848,0.0
849,0.0
1121,3491.141258489885
1135,1242.8405181170926
1161,17.569973274059645
1163,0.0
1166,3119.1478063616164
1168,3119.1478063616164
2,4, 1,23, 0,10, 0.00,60.00,Thursday
7,-6.7
545,19.73683080010714
546,-1.7442957500201535
547,10.922632484846135
548,137.20017762184878
720,3213.4400401444036
721,3213.4400401444036
784,0.0
785,0.0
848,0.0
849,0.0
1121,3678.6346902192226
1135,1266.9425754591966
1161,13.115636673473931
1163,0.0
1166,1484.9220411920853
1168,1484.9220411920853
2,4, 1,23, 0,11, 0.00,60.00,Thursday
7,-4.4
545,19.86170471454295
546,1.5806533183258977
547,10.860815878255396
548,120.98881655216958
720,1879.3983404244918
721,1879.3983404244918
784,0.0
785,0.0
848,0.0
849,0.0
1121,3431.371582315756
1135,1146.4288903254692
1161,8.50448469326338
1163,23.304543640224317
1166,0.0
1168,0.0
2,4, 1,23, 0,12, 0.00,60.00,Thursday
7,-2.8
545,19.936096994596173
546,3.9057509893553135
547,10.774116110381778
548,82.20336785573615
720,1351.5954466146432
721,1351.5954466146432
784,0.0
785,0.0
848,0.0
849,0.0
1121,2380.2823123884205
1135,798.068778084189
1161,0.03959937588379048
1163,80.1689270286577
1166,0.0
1168,0.0
2,4, 1,23, 0,13, 0.00,60.00,Thursday
7,-2.8
545,19.890899733323597
546,5.644160131251789
547,10.738791392711581