Program Version,EnergyPlus, Version 22.2.0-c249759bad, YMD=2023.07.07 15:12
1,5,Environment Title[],Latitude[deg],Longitude[deg],Time Zone[],Elevation[m]
2,8,Day of Simulation[],Month[],Day of Month[],DST Indicator[1=yes 0=no],Hour[],StartMinute[],EndMinute[],DayType
3,5,Cumulative Day of Simulation[],Month[],Day of Month[],DST Indicator[1=yes 0=no],DayType  ! When Daily Report Variables Requested
4,2,Cumulative Days of Simulation[],Month[]  ! When Monthly Report Variables Requested
5,1,Cumulative Days of Simulation[] ! When Run Period Report Variables Requested
6,1,Calendar Year of Simulation[] ! When Annual Report Variables Requested
581,11,LIVING,AFN Zone Infiltration Air Change Rate [ach] !RunPeriod [Value,Min,Month,Day,Hour,Minute,Max,Month,Day,Hour,Minute]
582,11,ATTIC,AFN Zone Infiltration Air Change Rate [ach] !RunPeriod [Value,Min,Month,Day,Hour,Minute,Max,Month,Day,Hour,Minute]
583,11,CRAWLSPACE,AFN Zone Infiltration Air Change Rate [ach] !RunPeriod [Value,Min,Month,Day,Hour,Minute,Max,Month,Day,Hour,Minute]
1038,11,Facility,Facility Heating Setpoint Not Met Time [hr] !RunPeriod [Value,Min,Month,Day,Hour,Minute,Max,Month,Day,Hour,Minute]
1039,11,Facility,Facility Cooling Setpoint Not Met Time [hr] !RunPeriod [Value,Min,Month,Day,Hour,Minute,Max,Month,Day,Hour,Minute]
1115,11,DX_HEATING_COIL,Heating Coil Heating Energy [J] !RunPeriod [Value,Min,Month,Day,Hour,Minute,Max,Month,Day,Hour,Minute]
1128,11,DX_HEATING_COIL,Heating Coil Electricity Energy [J] !RunPeriod [Value,Min,Month,Day,Hour,Minute,Max,Month,Day,Hour,Minute]
1153,11,DX_HEATING_COIL,Heating Coil Defrost Electricity Energy [J] !RunPeriod [Value,Min,Month,Day,Hour,Minute,Max,Month,Day,Hour,Minute]
1154,11,DX_HEATING_COIL,Heating Coil Crankcase Heater Electricity Energy [J] !RunPeriod [Value,Min,Month,Day,Hour,Minute,Max,Month,Day,Hour,Minute]
1156,11,HEATING_RESISTANCE_BACKUP,Heating Coil Electricity Energy [J] !RunPeriod [Value,Min,Month,Day,Hour,Minute,Max,Month,Day,Hour,Minute]
13,11,Electricity:Facility [J] !RunPeriod [Value,Min,Month,Day,Hour,Minute,Max,Month,Day,Hour,Minute]
1134,11,Heating:Electricity [J] !RunPeriod [Value,Min,Month,Day,Hour,Minute,Max,Month,Day,Hour,Minute]
1096,11,Cooling:Electricity [J] !RunPeriod [Value,Min,Month,Day,Hour,Minute,Max,Month,Day,Hour,Minute]
562,11,Fans:Electricity [J] !RunPeriod [Value,Min,Month,Day,Hour,Minute,Max,Month,Day,Hour,Minute]
1388,11,Pumps:Electricity [J] !RunPeriod [Value,Min,Month,Day,Hour,Minute,Max,Month,Day,Hour,Minute]
1360,11,WaterSystems:Electricity [J] !RunPeriod [Value,Min,Month,Day,Hour,Minute,Max,Month,Day,Hour,Minute]
61,11,InteriorLights:Electricity [J] !RunPeriod [Value,Min,Month,Day,Hour,Minute,Max,Month,Day,Hour,Minute]
1046,11,ExteriorLights:Electricity [J] !RunPeriod [Value,Min,Month,Day,Hour,Minute,Max,Month,Day,Hour,Minute]
134,11,InteriorEquipment:Electricity [J] !RunPeriod [Value,Min,Month,Day,Hour,Minute,Max,Month,Day,Hour,Minute]
170,11,gas_dryer:InteriorEquipment:Electricity [J] !RunPeriod [Value,Min,Month,Day,Hour,Minute,Max,Month,Day,Hour,Minute]
207,11,clotheswasher:InteriorEquipment:Electricity [J] !RunPeriod [Value,Min,Month,Day,Hour,Minute,Max,Month,Day,Hour,Minute]
244,11,dishwasher:InteriorEquipment:Electricity [J] !RunPeriod [Value,Min,Month,Day,Hour,Minute,Max,Month,Day,Hour,Minute]
281,11,refrigerator:InteriorEquipment:Electricity [J] !RunPeriod [Value,Min,Month,Day,Hour,Minute,Max,Month,Day,Hour,Minute]
318,11,electric_mels:InteriorEquipment:Electricity [J] !RunPeriod [Value,Min,Month,Day,Hour,Minute,Max,Month,Day,Hour,Minute]
355,11,NaturalGas:Facility [J] !RunPeriod [Value,Min,Month,Day,Hour,Minute,Max,Month,Day,Hour,Minute]
1323,11,WaterSystems:NaturalGas [J] !RunPeriod [Value,Min,Month,Day,Hour,Minute,Max,Month,Day,Hour,Minute]
403,11,InteriorEquipment:NaturalGas [J] !RunPeriod [Value,Min,Month,Day,Hour,Minute,Max,Month,Day,Hour,Minute]
476,11,gas_dryer:InteriorEquipment:NaturalGas [J] !RunPeriod [Value,Min,Month,Day,Hour,Minute,Max,Month,Day,Hour,Minute]
513,11,gas_mels:InteriorEquipment:NaturalGas [J] !RunPeriod [Value,Min,Month,Day,Hour,Minute,Max,Month,Day,Hour,Minute]
End of Data Dictionary
1,EXTREME_WINTER,  41.53, -93.65,  -6.00, 294.00
5,7
1038,9.166666666666664,0.0,12,15, 1,10,0.16666666666666666,12,16, 6,10
1039,0.0,0.0,12,15, 1,10,0.0,12,15, 1,10
581,0.4258227744768939,0.2245883871222491,12,21,14,60,0.8252175762344821,12,15,14,55
582,5.953653668319762,0.3242276750249936,12,16,10,42,17.51649338777496,12,15,14,55
583,8.247401868517649,0.7538720784672376,12,19,11,44,22.63328920584412,12,15,14,55
1115,2246747414.61222,0.0,12,15,23, 3,2987793.8645205516,12,21, 4,60
1128,798388475.9804658,0.0,12,15,23, 3,917530.1458862901,12,15, 7,10
1153,6932310.931770585,0.0,12,15,23, 3,43858.242692713364,12,17,21,60
1154,8857619.734394873,0.0,12,15, 1, 1,120000.0,12,21,15,20
1156,1717510832.4858048,0.0,12,15,11,35,5327093.914486839,12,19, 1,10
13,3002464775.7383866,310413.9030351998,12,21,15,10,6629777.810896028,12,19, 7,60
61,301924526.0238348,58759.40635443481,12,15, 1,10,854682.2742463244,12,15,20,10
134,70666020.44019979,42376.01200569399,12,15, 4,10,104369.48322671017,12,20,20,10
170,5241013.419656074,232.27731661587313,12,15, 4,10,11650.931360040839,12,20,12,10
207,6509451.13922266,543.5021409221355,12,15, 3,10,15327.095199349082,12,20,10,10
244,12749673.39982522,1014.5707620042115,12,15, 4,10,35359.08742820678,12,20,20,10
281,46165882.48149605,39959.06841621388,12,15, 5,10,54634.54471212738,12,15,19,10
318,0.0,0.0,12,15, 1,10,0.0,12,15, 1,10
355,723304326.3769044,12374.216038804521,12,15, 4,10,3829218.154066982,12,19,18,20
403,197687796.27748126,12374.216038804521,12,15, 4,10,483183.26346918393,12,20,18,10
476,106772067.24485692,4732.048419519677,12,15, 4,10,237357.535085481,12,20,12,10
513,0.0,0.0,12,15, 1,10,0.0,12,15, 1,10
562,93165150.14191915,0.0,12,21,15,10,99756.83820242959,12,15, 1,10
1046,0.0,0.0,12,15, 1,10,0.0,12,15, 1,10
1096,0.0,0.0,12,15, 1,10,0.0,12,15, 1,10
1134,2531689239.132432,120000.0,12,21,15,10,6093520.88137764,12,18,24,50
1323,525616530.0994209,0.0,12,15, 1,10,3375000.000000001,12,21,10,10
1360,5019840.0,4979.999999999998,12,15, 1,20,4980.000000000001,12,15, 1,10
1388,0.0,0.0,12,15, 1,10,0.0,12,15, 1,10
1,EXTREME_SUMMER,  41.53, -93.65,  -6.00, 294.00
5,7
1038,0.0,0.0, 7,13, 1,10,0.0, 7,13, 1,10
1039,42.833333333333336,0.0, 7,13, 1,10,0.16666666666666666, 7,13,12,20
581,0.12055227163269726,0.0, 7,13,21,43,0.5386230323429598, 7,18, 2,60
582,3.837898804165571,0.0, 7,18, 6, 2,13.373862469410188, 7,18, 2,30
583,4.559104058471578,0.11546392488566276, 7,14, 4,60,16.818938784655955, 7,18, 2,60
1115,0.0,0.0, 7,13, 1,10,0.0, 7,13, 1,10
1128,0.0,0.0, 7,13, 1,10,0.0, 7,13, 1,10
1153,0.0,0.0, 7,13, 1,10,0.0, 7,13, 1,10
1154,0.0,0.0, 7,13, 1,10,0.0, 7,13, 1,10
1156,0.0,0.0, 7,13, 1,10,0.0, 7,13, 1,10
13,1051039559.1402001,185508.14852171927, 7,16, 4,60,2101102.247970473, 7,17,20,10
61,301924526.0238348,58759.40635443481, 7,13, 1,10,854682.2742463244, 7,13,20,10
134,70666020.44019979,42376.01200569399, 7,13, 4,10,104369.48322671017, 7,18,20,10
170,5241013.419656074,232.27731661587313, 7,13, 4,10,11650.931360040839, 7,18,12,10
207,6509451.13922266,543.5021409221355, 7,13, 3,10,15327.095199349082, 7,18,10,10
244,12749673.39982522,1014.5707620042115, 7,13, 4,10,35359.08742820678, 7,18,20,10
281,46165882.48149605,39959.06841621388, 7,13, 5,10,54634.54471212738, 7,13,19,10
318,0.0,0.0, 7,13, 1,10,0.0, 7,13, 1,10
355,642752150.3432622,12374.216038804521, 7,13, 4,10,3829218.154066982, 7,14,18,60
403,197687796.27748126,12374.216038804521, 7,13, 4,10,483183.26346918393, 7,18,18,10
476,106772067.24485692,4732.048419519677, 7,13, 4,10,237357.535085481, 7,18,12,10
513,0.0,0.0, 7,13, 1,10,0.0, 7,13, 1,10
562,64019517.10942302,2461.9415643732605, 7,15,23,10,99756.83820242957, 7,13,11,40
1046,0.0,0.0, 7,13, 1,10,0.0, 7,13, 1,10
1096,609409655.5667429,20964.872315848013, 7,15,23,10,1088558.8870614576, 7,13,14,40
1134,0.0,0.0, 7,13, 1,10,0.0, 7,13, 1,10
1323,445064354.0657799,0.0, 7,13, 1,10,3375000.000000001, 7,19,10,10
1360,5019840.0,4980.0, 7,13, 1,10,4980.000000000001, 7,13, 8,10
1388,0.0,0.0, 7,13, 1,10,0.0, 7,13, 1,10
1,ANNUAL,  41.53, -93.65,  -6.00, 294.00
5,365
1038,27.83333333333332,0.0, 1, 1, 1,10,0.16666666666666666, 1, 8, 6,10
1039,345.3333333333332,0.0, 1, 1, 1,10,0.16666666666666666, 5, 7,15,50
581,0.26404690440166606,0.0, 5,20,22,50,1.387456620847036,10,27,10,60
582,4.807696989925633,0.0, 1,10,20,60,36.996119983693205,10,27,10,60
583,5.824787526195224,0.0, 6,18,23, 3,41.74370605040921,10,27,10,60
1115,32163709595.771576,0.0, 1, 1,15,30,3330618.130884626,12,30, 4,50
1128,10309601631.866749,0.0, 1, 1,15,30,950205.2206645404,11,27, 9,10
1153,314460806.35957104,0.0, 1, 1,15,30,99109.56276128342,12,26, 6,50
1154,1522573646.236342,0.0, 1, 1, 3,24,120000.0, 1, 1,15,30
1156,10396665710.94517,0.0, 1, 1, 1, 1,5327093.914486839, 1,10, 3,60
13,54132324025.246994,106115.4183601288, 3,31, 4,10,6812611.850737264, 1, 9,22,60
61,15743207428.39043,58759.40635443481, 1, 1, 1,10,854682.2742463244, 1, 1,20,10
134,3685071073.433083,42376.01200569399, 1, 2, 4,10,104369.48322671017, 1, 1,20,10
170,273393721.45534325,232.27731661587313, 1, 2, 4,10,11650.931360040839, 1, 1,12,10
207,339560869.06955314,543.5021409221355, 1, 2, 3,10,15327.095199349082, 1, 1,10,10
244,664895467.8009839,1014.5707620042115, 1, 2, 4,10,35359.08742820678, 1, 1,20,10
281,2407221015.1057043,39959.06841621388, 1, 1, 5,10,54634.54471212738, 1, 1,19,10
318,0.0,0.0, 1, 1, 1,10,0.0, 1, 1, 1,10
355,35748424460.08933,12374.216038804521, 1, 2, 4,10,3829218.154066983, 6,27,18,60
403,10310294493.052883,12374.216038804521, 1, 2, 4,10,483183.26346918393, 1, 1,18,10
476,5569688622.065564,4732.048419519677, 1, 2, 4,10,237357.535085481, 1, 1,12,10
513,0.0,0.0, 1, 1, 1,10,0.0, 1, 1, 1,10
562,2265428380.430688,0.0, 1, 1,15,30,99756.83820242957, 1, 1, 3,30
1046,0.0,0.0, 1, 1, 1,10,0.0, 1, 1, 1,10
1096,9633566547.591381,0.0, 1, 1, 1,10,1091314.3218487704, 8, 9,15,60
1134,22543301795.407715,0.0, 2,13,14,60,6145090.640894142, 1,12, 6,20
1323,25438129967.040535,0.0, 1, 1, 1,10,3375000.000000002, 1,24,20,20
1360,261748800.0,4979.999999999998, 4,15,12,40,4980.000000000002, 1, 6,19,10
1388,0.0,0.0, 1, 1, 1,10,0.0, 1, 1, 1,10
End of Data
 Number of Records Written=          87
