Program Version,EnergyPlus, Version 22.2.0-c249759bad, YMD=2023.09.01 14:30
1,5,Environment Title[],Latitude[deg],Longitude[deg],Time Zone[],Elevation[m]
2,8,Day of Simulation[],Month[],Day of Month[],DST Indicator[1=yes 0=no],Hour[],StartMinute[],EndMinute[],DayType
3,5,Cumulative Day of Simulation[],Month[],Day of Month[],DST Indicator[1=yes 0=no],DayType  ! When Daily Report Variables Requested
4,2,Cumulative Days of Simulation[],Month[]  ! When Monthly Report Variables Requested
5,1,Cumulative Days of Simulation[] ! When Run Period Report Variables Requested
6,1,Calendar Year of Simulation[] ! When Annual Report Variables Requested
7,1,Environment,Site Outdoor Air Drybulb Temperature [C] !Hourly
619,1,DX_HEATING_COIL,Heating Coil Heating Rate [W] !Hourly
633,1,DX_HEATING_COIL,Heating Coil Electricity Rate [W] !Hourly
659,1,DX_HEATING_COIL,Heating Coil Defrost Electricity Rate [W] !Hourly
661,1,DX_HEATING_COIL,Heating Coil Crankcase Heater Electricity Rate [W] !Hourly
690,1,FAN,Fan Electricity Rate [W] !Hourly
716,1,HEAT PUMP WATER HEATER FAN,Fan Electricity Rate [W] !Hourly
718,1,LIVING,Zone Mean Air Temperature [C] !Hourly
719,1,ATTIC,Zone Mean Air Temperature [C] !Hourly
720,1,CRAWLSPACE,Zone Mean Air Temperature [C] !Hourly
843,1,LIVING,Zone Predicted Sensible Load to Heating Setpoint Heat Transfer Rate [W] !Hourly
844,1,LIVING,Zone System Predicted Sensible Load to Heating Setpoint Heat Transfer Rate [W] !Hourly
907,1,ATTIC,Zone Predicted Sensible Load to Heating Setpoint Heat Transfer Rate [W] !Hourly
908,1,ATTIC,Zone System Predicted Sensible Load to Heating Setpoint Heat Transfer Rate [W] !Hourly
971,1,CRAWLSPACE,Zone Predicted Sensible Load to Heating Setpoint Heat Transfer Rate [W] !Hourly
972,1,CRAWLSPACE,Zone System Predicted Sensible Load to Heating Setpoint Heat Transfer Rate [W] !Hourly
1195,1,HEATING_RESISTANCE_BACKUP,Heating Coil Heating Rate [W] !Hourly
1197,1,HEATING_RESISTANCE_BACKUP,Heating Coil Electricity Rate [W] !Hourly
End of Data Dictionary
1,EXTREME_WINTER,  35.14,-111.67,  -7.00,2135.00
2,1, 1, 6, 0, 1, 0.00,60.00,Monday
7,0.0
718,18.802304465203946
719,1.7778221652402109
720,17.46474321256758
619,2607.9538908231325
633,822.8948014872391
659,103.38204411760793
661,71.88174013460078
690,97.19473588868746
716,0.0
843,1806.719323349138
844,1806.719323349138
907,0.0
908,0.0
971,0.0
972,0.0
1195,0.0
1197,0.0
2,1, 1, 6, 0, 2, 0.00,60.00,Monday
7,0.0
718,18.70478950430752
719,2.0763297520001722
720,16.99257247266718
619,2556.024750263312
633,811.9054973500746
659,101.5683325429366
661,74.12941837338931
690,95.48780926961243
716,0.0
843,1784.774954325314
844,1784.774954325314
907,0.0
908,0.0
971,0.0
972,0.0
1195,0.0
1197,0.0
2,1, 1, 6, 0, 3, 0.00,60.00,Monday
7,-1.0
718,18.556755073956346
719,1.8983175586330645
720,16.742143089603434
619,2857.7782168079193
633,914.4258624757259
659,105.47624854066817
661,58.5355307272277
690,107.19485489556597
716,0.0
843,2011.8029475953335
844,2011.8029475953335
907,0.0
908,0.0
971,0.0
972,0.0
1195,0.0
1197,0.0
2,1, 1, 6, 0, 4, 0.00,60.00,Monday
7,-1.1
718,18.59525847983954
719,2.1064195880819527
720,16.482845689259076
619,3214.9968627930543
633,1016.6093370928041
659,116.65709920819518
661,42.28194525587337
690,119.5006002743078
716,0.0
843,2249.9823613647004
844,2249.9823613647004
907,0.0
908,0.0
971,0.0
972,0.0
1195,0.0
1197,0.0
2,1, 1, 6, 0, 5, 0.00,60.00,Monday
7,-1.1
718,18.65029597153648
719,2.107597908537831
720,16.274722211572655
619,2983.6696671560535
633,950.0006900998641
659,108.95686470228218
661,52.692507627039234
690,111.61239808588371
716,0.0
843,2097.5205767103416
844,2097.5205767103416
907,0.0
908,0.0
971,0.0
972,0.0
1195,0.0
1197,0.0
2,1, 1, 6, 0, 6, 0.00,60.00,Monday
7,-1.1
718,19.299764659523838
719,2.37209948648555
720,16.075817253697235
619,4257.261074815266
633,1289.3566116706693
659,148.80753058986932
661,0.0
690,154.40130000892867
716,0.0
843,3033.723753486209
844,3033.723753486209
907,0.0
908,0.0
971,0.0
972,0.0
1195,55.980350927052314
1197,55.980350927052314
2,1, 1, 6, 0, 7, 0.00,60.00,Monday
7,-1.1
718,19.560566500081613
719,2.8065920992779683
720,15.927125773587592
619,4247.672818252216
633,1306.7521440096432
659,147.93119202167873
661,0.0
690,154.40130000892867
716,85.44000000000004
843,2900.312896622874
844,2900.312896622874
907,0.0
908,0.0
971,0.0
972,0.0
1195,1175.2834526325541
1197,1175.2834526325541
2,1, 1, 6, 0, 8, 0.00,60.00,Monday
7,-1.7
718,19.645243728018258
719,2.2144711651547393
720,15.767471702763473
619,4203.888255570149
633,1316.2897649133577
659,140.94162648394837
661,0.0
690,154.40130000892867
716,83.79102432254237
843,2830.7956992966356
844,2830.7956992966356
907,0.0
908,0.0
971,0.0
972,0.0
1195,1187.0963072734685
1197,1187.0963072734685
2,1, 1, 6, 0, 9, 0.00,60.00,Monday
7,-2.2
718,19.701027328085836
719,1.549160392269154
720,15.618801360963046
619,4169.152375278626
633,1320.5129062196086
659,135.30332627071903
661,0.0
690,154.40130000892867
716,0.0
843,3121.0824157592324
844,3121.0824157592324
907,0.0
908,0.0
971,0.0
972,0.0
1195,339.72755065591355
1197,339.72755065591355
2,1, 1, 6, 0,10, 0.00,60.00,Monday
7,-2.2
718,19.718619179611267
719,2.0717398934733424
720,15.480315954328534
619,4059.1863953936877
633,1313.9294219812425
659,134.50313328758264
661,1.1828134683626645
690,150.47615116243347
716,0.0
843,2730.09177346202
844,2730.09177346202
907,0.0
908,0.0
971,0.0
972,0.0
1195,0.0
1197,0.0
2,1, 1, 6, 0,11, 0.00,60.00,Monday
7,-2.2
718,19.73116517530649
719,2.3855665211191894
720,15.340013350705187
619,3764.2315731246904
633,1228.5779735986855
659,125.73598633456456
661,14.142061691834297
690,140.66767966667686
716,0.0
843,2547.2839806658976
844,2547.2839806658976
907,0.0
908,0.0
971,0.0
972,0.0
1195,0.0
1197,0.0
2,1, 1, 6, 0,12, 0.00,60.00,Monday
7,-2.2
718,19.721601512376317
719,3.269087060343958
720,15.213324435065326
619,3674.933223311344
633,1202.4872613076996
659,123.30625880571037
661,18.05776462640174
690,137.69848649761911
716,0.0
843,2493.493574852615
844,2493.493574852615
907,0.0
908,0.0
971,0.0
972,0.0
1195,0.0
1197,0.0
2,1, 1, 6, 0,13, 0.00,60.00,Monday
7,-1.7
718,19.72979394079403
719,3.0566471662084873
720,15.09593160406456
619,3351.6521246949387
633,1095.8114089249566
659,117.0466148456901
661,33.907671188936696
690,125.7608551736513
716,0.0
843,2306.6998084173483
844,2306.6998084173483
907,0.0
908,0.0
971,0.0
972,0.0
1195,0.0
1197,0.0
2,1, 1, 6, 0,14, 0.00,60.00,Monday
7,-1.1
718,19.706975074003758
719,4.84823089447101
720,15.010113942056053
619,4003.1504460535916
633,1271.2999524885518
659,117.72084018788806
661,11.51327632990724
690,143.2696947031832
716,81.27754462460729
843,1830.6457505671224
844,1830.6457505671224
907,0.0
908,0.0
971,0.0
972,0.0
1195,0.0
1197,0.0
2,1, 1, 6, 0,15, 0.00,60.00,Monday
7,-1.1
718,19.785693170684212
719,4.31317884119459
720,14.885546857531063
619,2373.090796483371
633,786.6658779447556
659,72.85791721605767
661,83.34478340824415
690,88.67027587518133
716,0.0
843,1676.9984000419536
844,1676.9984000419536
907,0.0
908,0.0
971,0.0
972,0.0
1195,0.0
1197,0.0
2,1, 1, 6, 0,16, 0.00,60.00,Monday
7,-1.1
718,19.88466401901195
719,5.407482133710112
720,14.809071004326615
619,1842.492493586885
633,621.358412973418
659,62.915425983187774
661,106.98372126103668
690,70.59840049205104
716,0.0
843,1292.258588390314
844,1292.258588390314
907,0.0
908,0.0
971,0.0
972,0.0
1195,0.0
1197,0.0
2,1, 1, 6, 0,17, 0.00,60.00,Monday
7,-1.7
718,19.75044090296883
719,4.187292366519782
720,14.727682682972539
619,1294.448182211432
633,449.6840426140602
659,44.10860808765091
661,132.76025704567743
690,50.98857747753598
716,0.0
843,917.6700940363535
844,917.6700940363535
907,0.0
908,0.0
971,0.0
972,0.0
1195,0.0
1197,0.0
2,1, 1, 6, 0,18, 0.00,60.00,Monday
7,-1.7
718,19.5855670016
719,2.1930064483785143
720,14.675181963201013
619,1624.2706997777975
633,557.0417055137654
659,54.8991744865714
661,116.45375738277379
690,63.35260692026138
716,0.0
843,1139.858960664933
844,1139.858960664933
907,0.0
908,0.0
971,0.0
972,0.0
1195,0.0
1197,0.0
2,1, 1, 6, 0,19, 0.00,60.00,Monday
7,-2.2
718,19.49948197852746
719,1.5481260575771276
720,14.653567937154312
619,3564.1751638232095
633,1163.9212551111757
659,107.71317911467322
661,25.50483684891558
690,132.32672825994578
716,85.44000000000004
843,1392.2739420881335
844,1392.2739420881335
907,0.0
908,0.0
971,0.0
972,0.0
1195,0.0
1197,0.0
2,1, 1, 6, 0,20, 0.00,60.00,Monday
7,-1.7
718,19.663035712993302
719,1.7239741973396774
720,14.57248908174304
619,3363.766274534792
633,1092.1822274768977
659,108.09918151032345
661,35.334013621691774
690,124.87078222229677
716,85.44000000000004
843,1214.91987997865
844,1214.91987997865
907,0.0
908,0.0
971,0.0
972,0.0
1195,0.0
1197,0.0
2,1, 1, 6, 0,21, 0.00,60.00,Monday
7,-1.7
718,19.743868171881843
719,1.5544523017452563
720,14.484556218116865
619,2584.2618782209383
633,860.5742210513798
659,84.82604587882895
661,70.6900587434113
690,98.05928257957379
716,45.94237796251985
843,1180.2138386851966
844,1180.2138386851966
907,0.0
908,0.0
971,0.0
972,0.0
1195,0.0
1197,0.0
2,1, 1, 6, 0,22, 0.00,60.00,Monday
7,-1.7
718,19.34683220740788
719,1.0586197295181294
720,14.4149855596001
619,3107.4065348360746
633,1022.2041355735203
659,109.23247728166919
661,44.99614484850647
690,117.36520872472661
716,0.0
843,2074.4639366932915
844,2074.4639366932915
907,0.0
908,0.0
971,0.0
972,0.0
1195,0.0
1197,0.0
2,1, 1, 6, 0,23, 0.00,60.00,Monday
7,-2.2
718,18.946249049747706
719,0.9709478607176945
720,14.295511735109333
619,2385.2626089148102
633,800.5079797004489
659,82.60235967909485
661,77.90047450301181
690,92.41570663453695
716,0.0
843,1585.9966698502158
844,1585.9966698502158
907,0.0
908,0.0
971,0.0
972,0.0
1195,0.0
1197,0.0
2,1, 1, 6, 0,24, 0.00,60.00,Monday
7,-2.2
718,18.59973509182368
719,0.665336220122101
720,14.208315691116988
619,2855.38647489231
633,936.3054486453618
659,97.46919222617584
661,56.01794678435896
690,108.98129460433954
716,0.0
843,1923.4519688769924
844,1923.4519688769924
907,0.0
908,0.0
971,0.0
972,0.0
1195,0.0
1197,0.0
2,2, 1, 7, 0, 1, 0.00,60.00,Tuesday
7,-2.2
718,18.6352176290772
719,0.8796722090778135
720,14.109466043550714
619,3381.690070963667
633,1082.8820371735872
659,102.21059555946968
661,34.41901265460321
690,125.57827046415142
716,0.0
843,2291.6429357693796
844,2291.6429357693796
907,0.0
908,0.0
971,0.0
972,0.0
1195,0.0
1197,0.0
2,2, 1, 7, 0, 2, 0.00,60.00,Tuesday
7,-2.2
718,18.575113626148042
719,1.3887447531339696
720,14.025028702155122
619,4010.5642337788354
633,1264.0153079309603
659,132.34745097202082
661,4.369257401379767
690,148.081723837965
716,0.0
843,2707.817576427289
844,2707.817576427289
907,0.0
908,0.0
971,0.0
972,0.0
1195,0.0
1197,0.0
2,2, 1, 7, 0, 3, 0.00,60.00,Tuesday
7,-2.2
718,18.587077171717134
719,1.1281357889373413
720,13.918393602753039
619,4194.464135089972
633,1290.5300403414212
659,135.30332627071903
661,0.0
690,154.40130000892867
716,0.0
843,3261.431353517546
844,3261.431353517546
907,0.0
908,0.0
971,0.0
972,0.0
1195,507.91046895303407
1197,507.91046895303407
2,2, 1, 7, 0, 4, 0.00,60.00,Tuesday
7,-2.2
718,18.604978855651588
719,1.4525945471125312
720,13.827783309184687
619,4194.291104325538
633,1290.73437716986
659,135.30332627071903
661,0.0
690,154.40130000892867
716,0.0
843,2915.937340722201
844,2915.937340722201
907,0.0
908,0.0
971,0.0
972,0.0
1195,91.45501972876491
1197,91.45501972876491
2,2, 1, 7, 0, 5, 0.00,60.00,Tuesday
7,-2.2
718,18.639325211506534
719,1.4721475965481228
720,13.71860928582514
619,3529.636948448774
633,1125.2957361578601
659,106.25017586414842
661,27.874899574657896
690,130.54159558921242
716,0.0
843,2406.5762099137664
844,2406.5762099137664
907,0.0
908,0.0
971,0.0
972,0.0
1195,0.0
1197,0.0
2,2, 1, 7, 0, 6, 0.00,60.00,Tuesday
7,-2.8
718,19.3500644259637
719,1.1531879336586677
720,13.638449814035821
619,4149.911514660476
633,1293.3618441069661
659,129.34173371734607
661,0.0
690,154.40130000892867
716,0.0
843,3630.757403276868
844,3630.757403276868
907,0.0
908,0.0
971,0.0
972,0.0
1195,984.5704589959901
1197,984.5704589959901
2,2, 1, 7, 0, 7, 0.00,60.00,Tuesday
7,-2.2
718,19.578596288296477
719,1.6695005721707905
720,13.582790912931635
619,4230.961157629538
633,1326.1340288662902
659,123.45692243791439
661,0.0
690,154.40130000892867
716,85.44000000000004
843,3457.0852088756837
844,3457.0852088756837
907,0.0
908,0.0
971,0.0
972,0.0
1195,1966.9949443488294
1197,1966.9949443488294
2,2, 1, 7, 0, 8, 0.00,60.00,Tuesday
7,-2.2
718,19.6534875618655
719,1.8546864055714236
720,13.503166229031402
619,4226.0357855640705
633,1331.976498283441
659,123.45692243791439
661,0.0
690,154.40130000892867
716,85.44000000000004
843,3095.151020742598
844,3095.151020742598
907,0.0
908,0.0
971,0.0
972,0.0
1195,1621.2945710625136
1197,1621.2945710625136
2,2, 1, 7, 0, 9, 0.00,60.00,Tuesday
7,-2.2
718,19.696502966985847
719,3.228449501131826
720,13.428753640623777
619,4224.4830313152925
633,1333.8196426428156
659,123.45692243791439
661,0.0
690,154.40130000892867
716,85.44000000000004
843,2388.7375877113645
844,2388.7375877113645
907,0.0
908,0.0
971,0.0
972,0.0
1195,754.2449867841137
1197,754.2449867841137
2,2, 1, 7, 0,10, 0.00,60.00,Tuesday
7,-2.2
718,19.716205293034538
719,2.542197268599105
720,13.354571830077004
619,4223.736553886712
633,1334.7059344916518
659,123.45692243791439
661,0.0
690,154.40130000892867
716,11.577349235116785
843,2740.039099705011
844,2740.039099705011
907,0.0
908,0.0
971,0.0
972,0.0
1195,1.092240995445536
1197,1.092240995445536
2,2, 1, 7, 0,11, 0.00,60.00,Tuesday
7,-2.2
718,19.77143945017891
719,3.665688450301484
720,13.243310922701149
619,2755.759679993213
633,920.6700786453465
659,77.63418937173802
661,63.52250220157738
690,103.65691095064929
716,0.0
843,1855.8979924638606
844,1855.8979924638606
907,0.0
908,0.0
971,0.0
972,0.0
1195,0.0
1197,0.0
2,2, 1, 7, 0,12, 0.00,60.00,Tuesday
7,-2.2
718,19.73400802996441
719,4.776012585741294
720,13.20417775503389
619,2653.932919567794
633,891.6146736318797
659,91.79299721517977
661,64.85322908103655
690,102.27823202297144
716,0.0
843,1813.6867180908648
844,1813.6867180908648
907,0.0
908,0.0
971,0.0
972,0.0
1195,0.0
1197,0.0
2,2, 1, 7, 0,13, 0.00,60.00,Tuesday
7,-2.2
718,19.737627827319212
719,5.254823423908135
720,13.157988698296098
619,2680.0917134696624
633,898.8282218575365
659,92.18799342769827
661,63.73137162460334
690,103.13688607655267
716,0.0
843,1856.0051127231218
844,1856.0051127231218
907,0.0
908,0.0
971,0.0
972,0.0
1195,0.0
1197,0.0
2,2, 1, 7, 0,14, 0.00,60.00,Tuesday
7,-1.7
718,19.716025203398885
719,5.816705014215706
720,13.109467564775178
619,2478.0526089310492
633,827.377509957194
659,81.57339771271816
661,75.64843843599944
690,94.29931227234404
716,0.0
843,1739.777667774728
844,1739.777667774728
907,0.0
908,0.0
971,0.0
972,0.0
1195,0.0
1197,0.0
2,2, 1, 7, 0,15, 0.00,60.00,Tuesday
7,-2.2
718,19.643685257208627
719,4.073777677594171
720,13.071175245084742
619,2442.498013705726
633,823.3961726029353
659,76.13112711983192
661,76.66770624690128
690,93.52746089925968
716,0.0
843,1728.7815472047569
844,1728.7815472047569
907,0.0
908,0.0
971,0.0
972,0.0
1195,0.0
1197,0.0
2,2, 1, 7, 0,16, 0.00,60.00,Tuesday
7,-2.2
718,19.79635385044741
719,4.364197863905143
720,13.053524798459199
619,2737.776879569513
633,913.7156201578463
659,84.60890693875467
661,62.93371765960893
690,103.9431892378143
716,0.0
843,1882.083445951621
844,1882.083445951621
907,0.0
908,0.0
971,0.0
972,0.0
1195,0.0
1197,0.0
2,2, 1, 7, 0,17, 0.00,60.00,Tuesday
7,-2.8
718,19.793158043464388
719,3.879267810058204
720,13.01132749746512
619,2449.5085762866106
633,836.8161873448175
659,74.95202861487851
661,74.71074330059857
690,94.93654087630588
716,0.0
843,1689.8150342270874
844,1689.8150342270874
907,0.0
908,0.0
971,0.0
972,0.0
1195,0.0
1197,0.0
2,2, 1, 7, 0,18, 0.00,60.00,Tuesday
7,-3.3
718,19.671911210860074
719,2.8284853657045335
720,13.022429034601993
619,3421.161529083816
633,1147.709384555379
659,97.08457265129128
661,28.527202165913845
690,129.92927741709647
716,66.05113858007049
843,1598.6035571245538
844,1598.6035571245538
907,0.0
908,0.0
971,0.0
972,0.0
1195,0.0
1197,0.0
2,2, 1, 7, 0,19, 0.00,60.00,Tuesday
7,-3.3
718,19.686833611477397
719,0.21579769888305983
720,12.934754167352686
619,2759.895273969741
633,940.3474577443487
659,79.08256421548309
661,59.31224015647707
690,106.61969235765199
716,0.0
843,1858.3436747816886
844,1858.3436747816886
907,0.0
908,0.0
971,0.0
972,0.0
1195,0.0
1197,0.0
2,2, 1, 7, 0,20, 0.00,60.00,Tuesday
7,-3.9
718,19.47303966219889
719,0.8697397177725295
720,12.956355668478661
619,4134.066742167828
633,1349.7705319603251
659,98.04579952519883
661,0.0
690,154.40130000892867
716,85.44000000000004
843,1745.4473531123876
844,1745.4473531123876
907,0.0
908,0.0
971,0.0
972,0.0
1195,227.9303967796959
1197,227.9303967796959
2,2, 1, 7, 0,21, 0.00,60.00,Tuesday
7,-4.4
718,19.615647099883034
719,-0.06449493225967866
720,12.875308303377196
619,4062.8756166681665
633,1332.9529189765972
659,102.15377175362833
661,0.0
690,154.40130000892867
716,85.44000000000004
843,1789.427565308095
844,1789.427565308095
907,0.0
908,0.0
971,0.0
972,0.0
1195,295.23798656133204
1197,295.23798656133204
2,2, 1, 7, 0,22, 0.00,60.00,Tuesday
7,-4.4
718,19.668564083734985
719,0.0528627520534748
720,12.830308553898663
619,4071.414784264458
633,1350.9614415247456
659,91.6337380480216
661,0.0
690,153.1862494927629
716,57.24211493906246
843,1988.867523794719
844,1988.867523794719
907,0.0
908,0.0
971,0.0
972,0.0
1195,0.0
1197,0.0
2,2, 1, 7, 0,23, 0.00,60.00,Tuesday
7,-4.4
718,18.92241110517008
719,-0.5594813521752904
720,12.688132991674939
619,2436.5609206143677
633,855.3692875930666
659,65.29315793597314
661,72.1669169623117
690,96.83405138572732
716,0.0
843,1544.1151515267738
844,1544.1151515267738
907,0.0
908,0.0
971,0.0
972,0.0
1195,0.0
1197,0.0
2,2, 1, 7, 0,24, 0.00,60.00,Tuesday
7,-4.4
718,18.740073806444723
719,-0.9042283439263168
720,12.621190799220537
619,2731.740195561794
633,933.5104707077728
659,72.77031795322078
661,58.341821751039035
690,107.30209380214957
716,0.0
843,1768.8386023699532
844,1768.8386023699532
907,0.0
908,0.0
971,0.0
972,0.0
1195,0.0
1197,0.0
2,3, 1, 8, 0, 1, 0.00,60.00,Wednesday
7,-5.0
718,18.613999853449773
719,-0.5471675632345803
720,12.554338849139597
619,3302.699825598196
633,1115.861031856333
659,65.87866694315761
661,33.24825484398595
690,126.78142289454446
716,0.0
843,2141.536029421244
844,2141.536029421244
907,0.0
908,0.0
971,0.0
972,0.0
1195,0.0
1197,0.0
2,3, 1, 8, 0, 2, 0.00,60.00,Wednesday
7,-5.6
718,18.572164007317163
719,-1.2366317750999987
720,12.490076389171744
619,3934.5671391751434
633,1316.5949517428746
659,75.3248297651976
661,2.2894118859196455
690,150.2608447387682
716,0.0
843,2558.452170776918
844,2558.452170776918
907,0.0
908,0.0
971,0.0
972,0.0
1195,0.0
1197,0.0
2,3, 1, 8, 0, 3, 0.00,60.00,Wednesday
7,-8.0
718,18.590330259196406
719,-2.4336112903954406
720,12.390671933516247
619,3801.7352690417583
633,1313.7721709636364
659,68.66524207869934
661,0.0
690,154.40130000892867
716,0.0
843,3134.2971763914793
844,3134.2971763914793
907,0.0
908,0.0
971,0.0
972,0.0
1195,897.0527517117116
1197,897.0527517117116
2,3, 1, 8, 0, 4, 0.00,60.00,Wednesday
7,-7.8
718,18.601902789053185
719,-2.6153517319198905
720,12.315808754114705
619,3794.172639264588
633,1305.9740745801348
659,76.5844689433024
661,0.0
690,154.40130000892867
716,0.0
843,3240.2307821661125
844,3240.2307821661125
907,0.0
908,0.0
971,0.0
972,0.0
1195,1095.05572703577
1197,1095.05572703577
2,3, 1, 8, 0, 5, 0.00,60.00,Wednesday
7,-6.7
718,18.608349062878673
719,-2.8372916712357115
720,12.23757192582851
619,3857.7896124192584
633,1297.5663525342059
659,92.36695509337467
661,0.0
690,154.40130000892867
716,0.0
843,3096.9326889417334
844,3096.9326889417334
907,0.0
908,0.0
971,0.0
972,0.0
1195,873.5081110498359
1197,873.5081110498359
2,3, 1, 8, 0, 6, 0.00,60.00,Wednesday
7,-6.7
718,19.306839336483453
719,-2.0398781368226246
720,12.15240143340218
619,3857.755043541583
633,1297.6060634871615
659,92.36695509337467
661,0.0
690,154.40130000892867
716,74.05756483658062
843,4061.335352283897
844,4061.335352283897
907,0.0
908,0.0
971,0.0
972,0.0
1195,2966.992370664725
1197,2966.992370664725
2,3, 1, 8, 0, 7, 0.00,60.00,Wednesday
7,-6.0
718,19.55439837518701
719,-1.911583534593898
720,12.108397552894028
619,3960.319400536574
633,1335.5232926332092
659,82.89287256095668
661,0.0
690,154.40130000892867
716,85.44000000000004
843,3900.1035452288725
844,3900.1035452288725
907,0.0
908,0.0
971,0.0
972,0.0
1195,2993.742135027782
1197,2993.742135027782
2,3, 1, 8, 0, 8, 0.00,60.00,Wednesday
7,-7.2
718,19.655752002720043
719,-1.854043291770625
720,12.025416645708937
619,3798.487331147745
633,1321.5831609215252
659,87.77861915185294
661,0.0
690,154.40130000892867
716,73.09220141057291
843,3908.672807794941
844,3908.672807794941
907,0.0
908,0.0
971,0.0
972,0.0
1195,3007.6025755669357
1197,3007.6025755669357
2,3, 1, 8, 0, 9, 0.00,60.00,Wednesday
7,-5.0
718,19.710904026962208
719,-1.1430252417512872
720,11.971816870289102
619,4010.864418667745
633,1336.1998971734686
659,97.19432796007769
661,0.0
690,154.40130000892867
716,0.0
843,3452.0836939146575
844,3452.0836939146575
907,0.0
908,0.0
971,0.0
972,0.0
1195,1201.9800676959098
1197,1201.9800676959098
2,3, 1, 8, 0,10, 0.00,60.00,Wednesday
7,-3.3
718,19.71948196999706
719,0.9402838622829788
720,11.911282840162617
619,4273.04608526005
633,1377.3231895009758
659,82.45479789674918
661,0.0
690,154.40130000892867
716,0.0
843,2959.1088032939624
844,2959.1088032939624
907,0.0
908,0.0
971,0.0
972,0.0
1195,307.5641134587613
1197,307.5641134587613
2,3, 1, 8, 0,11, 0.00,60.00,Wednesday
7,-2.8
718,19.76139538721054
719,3.0902570601571555
720,11.810582594642394
619,3592.6948079975577
633,1181.5227022028944
659,60.48064770016645
661,31.04482047878374
690,129.05122999632712
716,0.0
843,2353.2056354433043
844,2353.2056354433043
907,0.0
908,0.0
971,0.0
972,0.0
1195,0.0
1197,0.0
2,3, 1, 8, 0,12, 0.00,60.00,Wednesday
7,-2.8
718,19.76792195631144
719,4.7503018924359806
720,11.730207644567548
619,2847.0420709009713
633,955.7276095919195
659,48.881055877906064
661,63.44875782447197
690,104.30022378705671
716,0.0
843,1926.7887909317196
844,1926.7887909317196
907,0.0
908,0.0
971,0.0
972,0.0
1195,0.0
1197,0.0
2,3, 1, 8, 0,13, 0.00,60.00,Wednesday
7,-1.7
718,19.79400805665739
719,6.558458942589916
720,11.655488242903333
619,2054.0371536019175
633,689.1541391506888
659,28.950728191131553
661,103.58319082031473
690,73.86741317707813
716,0.0
843,1435.3415563136095
844,1435.3415563136095
907,0.0
908,0.0
971,0.0
972,0.0
1195,0.0
1197,0.0
2,3, 1, 8, 0,14, 0.00,60.00,Wednesday
7,-2.0
718,19.70957069305568
719,6.992202741209528
720,11.640733304865888
619,1846.716338480977
633,628.054548273413
659,37.116643240713174
661,109.95964419239827
690,68.73963806186309
716,0.0
843,1317.8539161458266
844,1317.8539161458266
907,0.0
908,0.0
971,0.0
972,0.0
1195,0.0
1197,0.0
2,3, 1, 8, 0,15, 0.00,60.00,Wednesday
7,-2.2
718,19.64269815944255
719,7.080679169272345
720,11.699469122266228
619,2772.330701407601
633,922.6092377684638
659,70.47327109052891
661,64.32588443632635
690,103.20816702209258
716,72.64219570491558
843,1163.2608335915374
844,1163.2608335915374
907,0.0
908,0.0
971,0.0
972,0.0
1195,0.0
1197,0.0
2,3, 1, 8, 0,16, 0.00,60.00,Wednesday
7,-1.7
718,19.721120633541776
719,7.728335006004591
720,11.708341635230012
619,3009.957393532229
633,983.7487681052291
659,64.11463612183593
661,57.77967131025845
690,108.50726110174884
716,83.5941962957271
843,1232.2351023533174
844,1232.2351023533174
907,0.0
908,0.0
971,0.0
972,0.0
1195,0.0
1197,0.0
2,3, 1, 8, 0,17, 0.00,60.00,Wednesday
7,-2.8
718,19.766376571495663
719,4.621274185579283
720,11.65011024389122
619,1852.7404385831198
633,639.26343961612
659,41.29677761609316
661,107.00509648427837
690,70.83430495402567
716,0.0
843,1336.97376178161
844,1336.97376178161
907,0.0
908,0.0
971,0.0
972,0.0
1195,0.0
1197,0.0
2,3, 1, 8, 0,18, 0.00,60.00,Wednesday
7,-2.8
718,19.739322594768232
719,3.015355195032591
720,11.674003214302166
619,1939.4806457792326
633,668.2574038074576
659,43.135726023249056
661,102.8640269005051
690,73.9883510087949
716,0.0
843,1343.6719442438225
844,1343.6719442438225
907,0.0
908,0.0
971,0.0
972,0.0
1195,0.0
1197,0.0
2,3, 1, 8, 0,19, 0.00,60.00,Wednesday
7,-3.3
718,19.710022120040524
719,1.7180806385391054
720,11.666003300766084
619,1940.7016558437424
633,675.3094054759993
659,46.70459706375497
661,100.83262723091941
690,75.39942608436033
716,0.0
843,1289.40413634578
844,1289.40413634578
907,0.0
908,0.0
971,0.0
972,0.0
1195,0.0
1197,0.0
2,3, 1, 8, 0,20, 0.00,60.00,Wednesday
7,-5.0
718,19.58920256909979
719,0.7652726245060432
720,11.761704491349903
619,3749.817593534095
633,1277.5908422456346
659,58.78322572823134
661,15.240515110103669
690,140.90640464035627
716,85.44000000000004
843,1420.8933416169493
844,1420.8933416169493
907,0.0
908,0.0
971,0.0
972,0.0
1195,0.0
1197,0.0
2,3, 1, 8, 0,21, 0.00,60.00,Wednesday
7,-4.4
718,19.63149242172964
719,-0.18129234132333372
720,11.734583872465203
619,4085.986850918979
633,1360.8616437265305
659,66.69047288686073
661,2.956821679907029
690,150.2789217381205
716,85.44000000000004
843,1631.5529019797214
844,1631.5529019797214
907,0.0
908,0.0
971,0.0
972,0.0
1195,0.0
1197,0.0
2,3, 1, 8, 0,22, 0.00,60.00,Wednesday
7,-5.6
718,19.691214004481537
719,-1.212276220924385
720,11.688703320991902
619,3754.692970100369
633,1291.765031262547
659,64.22044426143528
661,11.150351679387892
690,143.77217821635304
716,33.597135308846326
843,2008.3124907168549
844,2008.3124907168549
907,0.0
908,0.0
971,0.0
972,0.0
1195,0.0
1197,0.0
2,3, 1, 8, 0,23, 0.00,60.00,Wednesday
7,-6.1
718,18.916995962432328
719,-2.78969583184526
720,11.56018933250022
619,2368.1181429995163
633,856.9209853514694
659,40.54098276674687
661,74.77044111105546
690,95.33677434031075
716,0.0
843,1451.057395193755
844,1451.057395193755
907,0.0
908,0.0
971,0.0
972,0.0
1195,0.0
1197,0.0
2,3, 1, 8, 0,24, 0.00,60.00,Wednesday
7,-6.1
718,18.65604381998254
719,-3.1537903293513256
720,11.53145016991109
619,3018.921179319448
633,1051.660178906996
659,50.51433028721801
661,43.963148702268875
690,118.79753725347783
716,0.0
843,1863.6262304449938
844,1863.6262304449938
907,0.0
908,0.0
971,0.0
972,0.0
1195,0.0
1197,0.0
2,4, 1, 9, 0, 1, 0.00,60.00,Thursday
7,-7.2
718,18.511276212197583
719,-3.7549091967251473
720,11.490833675688936
619,3913.3368550854793
633,1330.344337144673
659,63.35358404406645
661,0.0
690,154.40130000892867
716,0.0
843,2428.347562159868
844,2428.347562159868
907,0.0
908,0.0
971,0.0
972,0.0
1195,56.17461384994431
1197,56.17461384994431
2,4, 1, 9, 0, 2, 0.00,60.00,Thursday
7,-7.8
718,18.57843873006128
719,-4.555301070742649
720,11.40517760918837
619,3829.5842463556337
633,1313.752260367923
659,68.04496535700439
661,0.0
690,154.40130000892867
716,0.0
843,2921.627929182743
844,2921.627929182743
907,0.0
908,0.0
971,0.0
972,0.0
1195,761.4435610769069
1197,761.4435610769069
2,4, 1, 9, 0, 3, 0.00,60.00,Thursday
7,-12.2
718,18.593445859416203
719,-5.683848245780409
720,11.306420695945278
619,3425.235601609061
633,1295.5424074488326
659,43.69163596012357
661,0.0
690,154.40130000892867
716,0.0
843,3675.4058077499412
844,3675.4058077499412
907,0.0
908,0.0
971,0.0
972,0.0
1195,2134.2871923296498
1197,2134.2871923296498
2,4, 1, 9, 0, 4, 0.00,60.00,Thursday
7,-13.3
718,18.59703628668555
719,-6.734124572438471
720,11.223744225277509
619,3325.983604788861
633,1289.6244572525895
659,37.81160078507135
661,0.0
690,154.40130000892867
716,0.0
843,4069.3361742935595
844,4069.3361742935595
907,0.0
908,0.0
971,0.0
972,0.0
1195,2765.1212708859866
1197,2765.1212708859866
2,4, 1, 9, 0, 5, 0.00,60.00,Thursday
7,-13.3
718,18.603153122868264
719,-7.317431576804643
720,11.138858525829049
619,3308.891392824207
633,1282.9526077869136
659,43.154348082846035
661,0.0
690,154.40130000892867
716,0.0
843,4041.144720074117
844,4041.144720074117
907,0.0
908,0.0
971,0.0
972,0.0
1195,2819.561938392546
1197,2819.561938392546
2,4, 1, 9, 0, 6, 0.00,60.00,Thursday
7,-13.3
718,19.40708066948346
719,-7.755009105439159
720,11.049147332260773
619,3308.874204927798
633,1282.9706578917283
659,43.154348082846035
661,0.0
690,154.40130000892867
716,0.0
843,5117.503661198911
844,5117.503661198911
907,0.0
908,0.0
971,0.0
972,0.0
1195,4142.550882310667
1197,4142.550882310667
2,4, 1, 9, 0, 7, 0.00,60.00,Thursday
7,-16.1
718,19.559379480071847
719,-8.224212273320465
720,10.97616663129593
619,3059.4115016550622
633,1288.5370149059775
659,23.437174450275485
661,0.0
690,154.40130000892867
716,85.44000000000004
843,5313.679064730717
844,5313.679064730717
907,0.0
908,0.0
971,0.0
972,0.0
1195,5861.358368199583
1197,5861.358368199583
2,4, 1, 9, 0, 8, 0.00,60.00,Thursday
7,-16.7
718,19.62266539961068
719,-8.970355200076964
720,10.882154569791137
619,2997.414301841258
633,1284.3125916262047
659,22.600864969822467
661,0.0
690,154.40130000892867
716,85.44000000000004
843,5185.884110034409
844,5185.884110034409
907,0.0
908,0.0
971,0.0
972,0.0
1195,5861.358368199583
1197,5861.358368199583
2,4, 1, 9, 0, 9, 0.00,60.00,Thursday
7,-12.2
718,19.678153288894183
719,-6.534203268919556
720,10.826719380309092
619,3387.8935951382673
633,1313.6983227226121
659,48.21253476361971
661,0.0
690,154.40130000892867
716,85.44000000000004
843,3670.6053212995575
844,3670.6053212995575
907,0.0
908,0.0
971,0.0
972,0.0
1195,3614.2892528318375
1197,3614.2892528318375
2,4, 1, 9, 0,10, 0.00,60.00,Thursday
7,-8.3
718,19.71360542330025
719,-1.634580275235242
720,10.771712911371814
619,3708.3359980166724
633,1322.181419456157
659,78.66217825906631
661,0.0
690,154.40130000892867
716,10.833695581286271
843,2414.228613762356
844,2414.228613762356
907,0.0
908,0.0
971,0.0
972,0.0
1195,656.5217694647904
1197,656.5217694647904
2,4, 1, 9, 0,11, 0.00,60.00,Thursday
7,-4.4
718,19.85970646418625
719,3.2295963780061046
720,10.609484335746997
619,2179.460726057941
633,766.6417112741715
659,41.110298595249354
661,88.5031245036763
690,84.93623244619576
716,0.0
843,1314.4892817284835
844,1314.4892817284835
907,0.0
908,0.0
971,0.0
972,0.0
1195,0.0
1197,0.0