Program Version,EnergyPlus, Version 22.2.0-c249759bad, YMD=2023.09.01 20:27
1,5,Environment Title[],Latitude[deg],Longitude[deg],Time Zone[],Elevation[m]
2,8,Day of Simulation[],Month[],Day of Month[],DST Indicator[1=yes 0=no],Hour[],StartMinute[],EndMinute[],DayType
3,5,Cumulative Day of Simulation[],Month[],Day of Month[],DST Indicator[1=yes 0=no],DayType  ! When Daily Report Variables Requested
4,2,Cumulative Days of Simulation[],Month[]  ! When Monthly Report Variables Requested
5,1,Cumulative Days of Simulation[] ! When Run Period Report Variables Requested
6,1,Calendar Year of Simulation[] ! When Annual Report Variables Requested
581,11,LIVING,AFN Zone Infiltration Air Change Rate [ach] !RunPeriod [Value,Min,Month,Day,Hour,Minute,Max,Month,Day,Hour,Minute]
582,11,ATTIC,AFN Zone Infiltration Air Change Rate [ach] !RunPeriod [Value,Min,Month,Day,Hour,Minute,Max,Month,Day,Hour,Minute]
583,11,CRAWLSPACE,AFN Zone Infiltration Air Change Rate [ach] !RunPeriod [Value,Min,Month,Day,Hour,Minute,Max,Month,Day,Hour,Minute]
1038,11,Facility,Facility Heating Setpoint Not Met Time [hr] !RunPeriod [Value,Min,Month,Day,Hour,Minute,Max,Month,Day,Hour,Minute]
1039,11,Facility,Facility Cooling Setpoint Not Met Time [hr] !RunPeriod [Value,Min,Month,Day,Hour,Minute,Max,Month,Day,Hour,Minute]
1115,11,DX_HEATING_COIL,Heating Coil Heating Energy [J] !RunPeriod [Value,Min,Month,Day,Hour,Minute,Max,Month,Day,Hour,Minute]
1128,11,DX_HEATING_COIL,Heating Coil Electricity Energy [J] !RunPeriod [Value,Min,Month,Day,Hour,Minute,Max,Month,Day,Hour,Minute]
1153,11,DX_HEATING_COIL,Heating Coil Defrost Electricity Energy [J] !RunPeriod [Value,Min,Month,Day,Hour,Minute,Max,Month,Day,Hour,Minute]
1154,11,DX_HEATING_COIL,Heating Coil Crankcase Heater Electricity Energy [J] !RunPeriod [Value,Min,Month,Day,Hour,Minute,Max,Month,Day,Hour,Minute]
1155,11,HEATING_RESISTANCE_BACKUP,Heating Coil Heating Energy [J] !RunPeriod [Value,Min,Month,Day,Hour,Minute,Max,Month,Day,Hour,Minute]
1156,11,HEATING_RESISTANCE_BACKUP,Heating Coil Electricity Energy [J] !RunPeriod [Value,Min,Month,Day,Hour,Minute,Max,Month,Day,Hour,Minute]
1292,11,WATER HEATER,Water Heater Heat Loss Energy [J] !RunPeriod [Value,Min,Month,Day,Hour,Minute,Max,Month,Day,Hour,Minute]
1306,11,WATER HEATER,Water Heater Heating Energy [J] !RunPeriod [Value,Min,Month,Day,Hour,Minute,Max,Month,Day,Hour,Minute]
1307,11,WATER HEATER,Water Heater Unmet Demand Heat Transfer Energy [J] !RunPeriod [Value,Min,Month,Day,Hour,Minute,Max,Month,Day,Hour,Minute]
1308,11,WATER HEATER,Water Heater Electricity Energy [J] !RunPeriod [Value,Min,Month,Day,Hour,Minute,Max,Month,Day,Hour,Minute]
13,11,Electricity:Facility [J] !RunPeriod [Value,Min,Month,Day,Hour,Minute,Max,Month,Day,Hour,Minute]
1134,11,Heating:Electricity [J] !RunPeriod [Value,Min,Month,Day,Hour,Minute,Max,Month,Day,Hour,Minute]
1096,11,Cooling:Electricity [J] !RunPeriod [Value,Min,Month,Day,Hour,Minute,Max,Month,Day,Hour,Minute]
562,11,Fans:Electricity [J] !RunPeriod [Value,Min,Month,Day,Hour,Minute,Max,Month,Day,Hour,Minute]
1379,11,Pumps:Electricity [J] !RunPeriod [Value,Min,Month,Day,Hour,Minute,Max,Month,Day,Hour,Minute]
1326,11,WaterSystems:Electricity [J] !RunPeriod [Value,Min,Month,Day,Hour,Minute,Max,Month,Day,Hour,Minute]
61,11,InteriorLights:Electricity [J] !RunPeriod [Value,Min,Month,Day,Hour,Minute,Max,Month,Day,Hour,Minute]
1046,11,ExteriorLights:Electricity [J] !RunPeriod [Value,Min,Month,Day,Hour,Minute,Max,Month,Day,Hour,Minute]
134,11,InteriorEquipment:Electricity [J] !RunPeriod [Value,Min,Month,Day,Hour,Minute,Max,Month,Day,Hour,Minute]
170,11,gas_dryer:InteriorEquipment:Electricity [J] !RunPeriod [Value,Min,Month,Day,Hour,Minute,Max,Month,Day,Hour,Minute]
207,11,clotheswasher:InteriorEquipment:Electricity [J] !RunPeriod [Value,Min,Month,Day,Hour,Minute,Max,Month,Day,Hour,Minute]
244,11,dishwasher:InteriorEquipment:Electricity [J] !RunPeriod [Value,Min,Month,Day,Hour,Minute,Max,Month,Day,Hour,Minute]
281,11,refrigerator:InteriorEquipment:Electricity [J] !RunPeriod [Value,Min,Month,Day,Hour,Minute,Max,Month,Day,Hour,Minute]
318,11,electric_mels:InteriorEquipment:Electricity [J] !RunPeriod [Value,Min,Month,Day,Hour,Minute,Max,Month,Day,Hour,Minute]
355,11,NaturalGas:Facility [J] !RunPeriod [Value,Min,Month,Day,Hour,Minute,Max,Month,Day,Hour,Minute]
403,11,InteriorEquipment:NaturalGas [J] !RunPeriod [Value,Min,Month,Day,Hour,Minute,Max,Month,Day,Hour,Minute]
476,11,gas_dryer:InteriorEquipment:NaturalGas [J] !RunPeriod [Value,Min,Month,Day,Hour,Minute,Max,Month,Day,Hour,Minute]
513,11,gas_mels:InteriorEquipment:NaturalGas [J] !RunPeriod [Value,Min,Month,Day,Hour,Minute,Max,Month,Day,Hour,Minute]
End of Data Dictionary
1,EXTREME_WINTER,  32.32, -90.08,  -6.00,  91.10
5,7
1038,0.25,0.0,12, 8, 1,15,0.25,12,10, 6,15
1039,0.0,0.0,12, 8, 1,15,0.0,12, 8, 1,15
581,0.22200708555518542,0.10506511289113182,12,13, 3,60,0.37693532004051616,12,10, 6,10
582,1.796329882330372,0.0,12, 8, 1,22,5.2558716016132365,12,10,13,60
583,0.01438220502169175,0.0001677369058618205,12,12,12,46,0.07386530707944304,12, 8, 6,45
1115,441027652.41260636,0.0,12, 8, 1, 7,4086759.366533607,12,11, 6,45
1128,139982248.09718737,0.0,12, 8, 1, 7,1262764.1716949984,12,11, 6,45
1153,8746468.915009212,0.0,12, 8, 1, 7,83691.91108366307,12,12, 6,45
1154,51904883.57136077,0.0,12, 8, 6, 5,180000.0,12, 8,12,60
1155,7807095.521649121,0.0,12, 8, 1, 7,928137.0228429103,12, 8, 6, 5
1156,7807095.521649121,0.0,12, 8, 1, 7,928137.0228429103,12, 8, 6, 5
1292,-24213659.092636205,-39773.07434090942,12,11, 3,15,-3811.0689909386147,12, 9,10,45
1306,156555166.43900156,0.0,12, 8, 1, 7,4050000.0,12,13,10,30
1307,24614946.45067406,0.0,12, 8, 1, 7,7256888.220119508,12,13,10,30
1308,156555166.43900156,0.0,12, 8, 1, 7,4050000.0,12,13,10,30
13,768128419.1845548,152071.80019841267,12,13, 4,15,5780120.911394773,12,12, 8,30
61,301924526.02383536,88139.10953165221,12, 8, 1,15,1282023.4113694867,12, 8,20,15
134,70666020.44019976,63564.01800854099,12, 8, 4,15,156554.22484006523,12,13,20,15
170,5241013.419656067,348.4159749238097,12, 8, 4,15,17476.39704006126,12,13,12,15
207,6509451.13922267,815.2532113832032,12, 8, 3,15,22990.642799023623,12,13,10,15
244,12749673.399825225,1521.856143006317,12, 8, 4,15,53038.631142310165,12,13,20,15
281,46165882.481495745,59938.60262432081,12, 8, 5,15,81951.81706819107,12, 8,19,15
318,0.0,0.0,12, 8, 1,15,0.0,12, 8, 1,15
355,197687796.27748066,18561.32405820678,12, 8, 4,15,724774.895203776,12,13,18,15
403,197687796.27748066,18561.32405820678,12, 8, 4,15,724774.895203776,12,13,18,15
476,106772067.24485716,7098.072629279515,12, 8, 4,15,356036.3026282215,12,13,12,15
513,0.0,0.0,12, 8, 1,15,0.0,12, 8, 1,15
562,17123865.40675684,0.0,12, 8, 1,15,137583.3134223096,12, 8, 6,45
1046,0.0,0.0,12, 8, 1,15,0.0,12, 8, 1,15
1096,13418144.769556824,0.0,12, 8, 1,15,356643.8801726516,12,14,17,15
1134,208440696.10520643,0.0,12, 8,14,60,2575764.5678812163,12,12, 6,15
1326,156555166.43900153,0.0,12, 8, 1,15,4050000.0,12, 8, 8,45
1379,0.0,0.0,12, 8, 1,15,0.0,12, 8, 1,15
1,EXTREME_SUMMER,  32.32, -90.08,  -6.00,  91.10
5,7
1038,0.0,0.0, 6,29, 1,15,0.0, 6,29, 1,15
1039,49.25,0.0, 6,29, 1,15,0.25, 6,29,15,45
581,0.0730494094513214,0.0, 6,29, 6, 7,0.508550719736441, 6,30,18,48
582,2.202521594140054,0.0, 7, 3,20,47,10.278694442105092, 6,30,18,48
583,0.04199602886793446,0.0, 7, 1,23, 3,0.07275217993708963, 7, 5,17,46
1115,0.0,0.0, 6,29, 1, 7,0.0, 6,29, 1, 7
1128,0.0,0.0, 6,29, 1, 7,0.0, 6,29, 1, 7
1153,0.0,0.0, 6,29, 1, 7,0.0, 6,29, 1, 7
1154,0.0,0.0, 6,29, 1, 7,0.0, 6,29, 1, 7
1155,0.0,0.0, 6,29, 1, 7,0.0, 6,29, 1, 7
1156,0.0,0.0, 6,29, 1, 7,0.0, 6,29, 1, 7
1292,-21719190.625176307,-34343.2178659677, 6,30,21,45,-2725.2146673326088, 7, 5,17,46
1306,118289673.04450262,0.0, 6,29, 1, 7,3365926.3123591193, 6,30, 7,15
1307,10224532.145500902,0.0, 6,29, 1, 7,837376.4170252974, 7, 2,10,21
1308,118289673.04450262,0.0, 6,29, 1, 7,3365926.3123591193, 6,30, 7,15
13,1109540226.3343954,173277.36817262208, 6,29, 4,60,5907248.268766299, 7, 5,20,60
61,301924526.02383536,88139.10953165221, 6,29, 1,15,1282023.4113694867, 6,29,20,15
134,70666020.44019976,63564.01800854099, 6,29, 4,15,156554.22484006523, 7, 4,20,15
170,5241013.419656067,348.4159749238097, 6,29, 4,15,17476.39704006126, 7, 4,12,15
207,6509451.13922267,815.2532113832032, 6,29, 3,15,22990.642799023623, 7, 4,10,15
244,12749673.399825225,1521.856143006317, 6,29, 4,15,53038.631142310165, 7, 4,20,15
281,46165882.481495745,59938.60262432081, 6,29, 5,15,81951.81706819107, 6,29,19,15
318,0.0,0.0, 6,29, 1,15,0.0, 6,29, 1,15
355,197687796.27748066,18561.32405820678, 6,29, 4,15,724774.895203776, 7, 4,18,15
403,197687796.27748066,18561.32405820678, 6,29, 4,15,724774.895203776, 7, 4,18,15
476,106772067.24485716,7098.072629279515, 6,29, 4,15,356036.3026282215, 7, 4,12,15
513,0.0,0.0, 6,29, 1,15,0.0, 6,29, 1,15
562,56797748.402427904,0.0, 6,29, 6,30,137583.3134223096, 6,29,14,60
1046,0.0,0.0, 6,29, 1,15,0.0, 6,29, 1,15
1096,561862258.4234296,0.0, 6,29, 6,30,1551730.5307087782, 7, 5,16,60
1134,0.0,0.0, 6,29, 1,15,0.0, 6,29, 1,15
1326,118289673.04450265,0.0, 6,29, 1,15,4050000.0, 7, 1, 9,30
1379,0.0,0.0, 6,29, 1,15,0.0, 6,29, 1,15
1,ANNUAL,  32.32, -90.08,  -6.00,  91.10
5,365
1038,3.25,0.0, 1, 1, 1,15,0.25, 1, 4, 6,15
1039,869.75,0.0, 1, 1, 1,15,0.25, 2, 4,10,30
581,0.16966491567014763,0.0, 3,20, 8,46,0.9087159584794677, 8, 9,14,48
582,2.754947829248923,0.0, 1, 2, 8,60,24.674667315239425, 8, 9,14,46
583,0.027309080533650276,0.0, 5,10,23, 3,0.08371118360574, 9, 1,16,50
1115,5129466216.258177,0.0, 1, 1,16,45,4357286.132316807, 1,23, 5,45
1128,1558840573.9072118,0.0, 1, 1,16,45,1343984.3187376033, 2,27, 6,45
1153,76768309.52854583,0.0, 1, 1, 1,15,89525.11200024279,12,29, 6,45
1154,981006657.8358829,0.0, 1, 1, 6, 5,180000.0, 1, 1,16,45
1155,79962902.05807465,0.0, 1, 1, 1,15,1759318.9234173999, 1,24, 6,45
1156,79962902.05807465,0.0, 1, 1, 1,15,1759318.9234173999, 1,24, 6,45
1292,-1182922287.9368072,-39816.60525389729,12,28, 3,15,-2208.3114248164848, 7,20,14,31
1306,7303268588.881581,0.0, 1, 1, 1,15,4050000.0, 1, 1, 9,45
1307,962705873.5223069,0.0, 1, 1, 1,15,7843091.74539625, 1,26,10,30
1308,7303268588.881581,0.0, 1, 1, 1,15,4050000.0, 1, 1, 9,45
13,45842388255.32824,151703.1275401932, 1, 9, 4,15,6722836.557450781, 1,24, 7,15
61,15743207428.383959,88139.10953165221, 1, 1, 1,15,1282023.4113694867, 1, 1,20,15
134,3685071073.4325233,63564.01800854099, 1, 2, 4,15,156554.22484006523, 1, 1,20,15
170,273393721.45532674,348.4159749238097, 1, 2, 4,15,17476.39704006126, 1, 1,12,15
207,339560869.0695816,815.2532113832032, 1, 2, 3,15,22990.642799023623, 1, 1,10,15
244,664895467.8009144,1521.856143006317, 1, 2, 4,15,53038.631142310165, 1, 1,20,15
281,2407221015.106824,59938.60262432081, 1, 1, 5,15,81951.81706819107, 1, 1,19,15
318,0.0,0.0, 1, 1, 1,15,0.0, 1, 1, 1,15
355,10310294493.051695,18561.32405820678, 1, 2, 4,15,724774.895203776, 1, 1,18,15
403,10310294493.051695,18561.32405820678, 1, 2, 4,15,724774.895203776, 1, 1,18,15
476,5569688622.066177,7098.072629279515, 1, 2, 4,15,356036.3026282215, 1, 1,12,15
513,0.0,0.0, 1, 1, 1,15,0.0, 1, 1, 1,15
562,1786596253.5735128,0.0, 1, 1,16,45,137583.3134223096, 1, 5, 6,30
1046,0.0,0.0, 1, 1, 1,15,0.0, 1, 1, 1,15
1096,14627666467.72484,0.0, 1, 1, 1,15,1554205.413886419, 7, 5,16,60
1134,2696578443.3297267,0.0, 1, 3,13,45,3679940.787525559, 1,24, 6,15
1326,7303268588.881579,0.0, 1, 1, 1,15,4050000.0000000014, 3, 2,10,30
1379,0.0,0.0, 1, 1, 1,15,0.0, 1, 1, 1,15
End of Data
 Number of Records Written=          99
