Program Version,EnergyPlus, Version 22.2.0-c249759bad, YMD=2023.09.01 18:17
1,5,Environment Title[],Latitude[deg],Longitude[deg],Time Zone[],Elevation[m]
2,8,Day of Simulation[],Month[],Day of Month[],DST Indicator[1=yes 0=no],Hour[],StartMinute[],EndMinute[],DayType
3,5,Cumulative Day of Simulation[],Month[],Day of Month[],DST Indicator[1=yes 0=no],DayType  ! When Daily Report Variables Requested
4,2,Cumulative Days of Simulation[],Month[]  ! When Monthly Report Variables Requested
5,1,Cumulative Days of Simulation[] ! When Run Period Report Variables Requested
6,1,Calendar Year of Simulation[] ! When Annual Report Variables Requested
581,11,LIVING,AFN Zone Infiltration Air Change Rate [ach] !RunPeriod [Value,Min,Month,Day,Hour,Minute,Max,Month,Day,Hour,Minute]
582,11,ATTIC,AFN Zone Infiltration Air Change Rate [ach] !RunPeriod [Value,Min,Month,Day,Hour,Minute,Max,Month,Day,Hour,Minute]
583,11,CRAWLSPACE,AFN Zone Infiltration Air Change Rate [ach] !RunPeriod [Value,Min,Month,Day,Hour,Minute,Max,Month,Day,Hour,Minute]
1038,11,Facility,Facility Heating Setpoint Not Met Time [hr] !RunPeriod [Value,Min,Month,Day,Hour,Minute,Max,Month,Day,Hour,Minute]
1039,11,Facility,Facility Cooling Setpoint Not Met Time [hr] !RunPeriod [Value,Min,Month,Day,Hour,Minute,Max,Month,Day,Hour,Minute]
1115,11,DX_HEATING_COIL,Heating Coil Heating Energy [J] !RunPeriod [Value,Min,Month,Day,Hour,Minute,Max,Month,Day,Hour,Minute]
1128,11,DX_HEATING_COIL,Heating Coil Electricity Energy [J] !RunPeriod [Value,Min,Month,Day,Hour,Minute,Max,Month,Day,Hour,Minute]
1153,11,DX_HEATING_COIL,Heating Coil Defrost Electricity Energy [J] !RunPeriod [Value,Min,Month,Day,Hour,Minute,Max,Month,Day,Hour,Minute]
1154,11,DX_HEATING_COIL,Heating Coil Crankcase Heater Electricity Energy [J] !RunPeriod [Value,Min,Month,Day,Hour,Minute,Max,Month,Day,Hour,Minute]
1155,11,HEATING_RESISTANCE_BACKUP,Heating Coil Heating Energy [J] !RunPeriod [Value,Min,Month,Day,Hour,Minute,Max,Month,Day,Hour,Minute]
1156,11,HEATING_RESISTANCE_BACKUP,Heating Coil Electricity Energy [J] !RunPeriod [Value,Min,Month,Day,Hour,Minute,Max,Month,Day,Hour,Minute]
1292,11,WATER HEATER,Water Heater Heat Loss Energy [J] !RunPeriod [Value,Min,Month,Day,Hour,Minute,Max,Month,Day,Hour,Minute]
1306,11,WATER HEATER,Water Heater Heating Energy [J] !RunPeriod [Value,Min,Month,Day,Hour,Minute,Max,Month,Day,Hour,Minute]
1307,11,WATER HEATER,Water Heater Unmet Demand Heat Transfer Energy [J] !RunPeriod [Value,Min,Month,Day,Hour,Minute,Max,Month,Day,Hour,Minute]
1308,11,WATER HEATER,Water Heater Electricity Energy [J] !RunPeriod [Value,Min,Month,Day,Hour,Minute,Max,Month,Day,Hour,Minute]
13,11,Electricity:Facility [J] !RunPeriod [Value,Min,Month,Day,Hour,Minute,Max,Month,Day,Hour,Minute]
1134,11,Heating:Electricity [J] !RunPeriod [Value,Min,Month,Day,Hour,Minute,Max,Month,Day,Hour,Minute]
1096,11,Cooling:Electricity [J] !RunPeriod [Value,Min,Month,Day,Hour,Minute,Max,Month,Day,Hour,Minute]
562,11,Fans:Electricity [J] !RunPeriod [Value,Min,Month,Day,Hour,Minute,Max,Month,Day,Hour,Minute]
1379,11,Pumps:Electricity [J] !RunPeriod [Value,Min,Month,Day,Hour,Minute,Max,Month,Day,Hour,Minute]
1326,11,WaterSystems:Electricity [J] !RunPeriod [Value,Min,Month,Day,Hour,Minute,Max,Month,Day,Hour,Minute]
61,11,InteriorLights:Electricity [J] !RunPeriod [Value,Min,Month,Day,Hour,Minute,Max,Month,Day,Hour,Minute]
1046,11,ExteriorLights:Electricity [J] !RunPeriod [Value,Min,Month,Day,Hour,Minute,Max,Month,Day,Hour,Minute]
134,11,InteriorEquipment:Electricity [J] !RunPeriod [Value,Min,Month,Day,Hour,Minute,Max,Month,Day,Hour,Minute]
170,11,gas_dryer:InteriorEquipment:Electricity [J] !RunPeriod [Value,Min,Month,Day,Hour,Minute,Max,Month,Day,Hour,Minute]
207,11,clotheswasher:InteriorEquipment:Electricity [J] !RunPeriod [Value,Min,Month,Day,Hour,Minute,Max,Month,Day,Hour,Minute]
244,11,dishwasher:InteriorEquipment:Electricity [J] !RunPeriod [Value,Min,Month,Day,Hour,Minute,Max,Month,Day,Hour,Minute]
281,11,refrigerator:InteriorEquipment:Electricity [J] !RunPeriod [Value,Min,Month,Day,Hour,Minute,Max,Month,Day,Hour,Minute]
318,11,electric_mels:InteriorEquipment:Electricity [J] !RunPeriod [Value,Min,Month,Day,Hour,Minute,Max,Month,Day,Hour,Minute]
355,11,NaturalGas:Facility [J] !RunPeriod [Value,Min,Month,Day,Hour,Minute,Max,Month,Day,Hour,Minute]
403,11,InteriorEquipment:NaturalGas [J] !RunPeriod [Value,Min,Month,Day,Hour,Minute,Max,Month,Day,Hour,Minute]
476,11,gas_dryer:InteriorEquipment:NaturalGas [J] !RunPeriod [Value,Min,Month,Day,Hour,Minute,Max,Month,Day,Hour,Minute]
513,11,gas_mels:InteriorEquipment:NaturalGas [J] !RunPeriod [Value,Min,Month,Day,Hour,Minute,Max,Month,Day,Hour,Minute]
End of Data Dictionary
1,EXTREME_WINTER,  44.47, -73.15,  -5.00, 104.00
5,7
1038,12.75,0.0, 1,20, 1,15,0.25, 1,21, 6,15
1039,0.0,0.0, 1,20, 1,15,0.0, 1,20, 1,15
581,0.4771270916890758,0.3058433468722114, 1,22,23, 3,0.7927869651103945, 1,20,10,60
582,3.9173939002460294,0.05779508330765536, 1,23, 5,60,15.79005036002713, 1,20, 7,48
583,0.06551551185285652,0.0004918593434690934, 1,22,23, 3,0.07827032495232077, 1,20,10,60
1115,1791457230.6328726,0.0, 1,21,23, 5,3609823.1143532554, 1,24, 3,60
1128,687468110.9946756,0.0, 1,21,23, 5,1162035.252065674, 1,24,11,60
1153,5685140.6044551525,0.0, 1,21,23, 5,49748.759384763194, 1,24, 8,60
1154,5708566.273571723,0.0, 1,20, 1, 5,150583.1095692771, 1,24,14,60
1155,1894355881.178017,0.0, 1,20,23, 5,6337069.590530483, 1,25, 6,15
1156,1894355881.178017,0.0, 1,20,23, 5,6337069.590530483, 1,25, 6,15
1292,-25417099.743550148,-39935.880381464645, 1,26, 6,15,-4190.5951231828285, 1,21,12,30
1306,244940141.98220676,0.0, 1,20, 1, 5,4050000.0, 1,21, 9,15
1307,48162868.860546775,0.0, 1,20, 1, 5,6895010.873913589, 1,26,19,60
1308,244940141.98220676,0.0, 1,20, 1, 5,4050000.0, 1,21, 9,15
13,3289389376.933099,623808.2031452735, 1,24,15,15,11884556.434651904, 1,26, 9,60
61,301924526.02383536,88139.10953165221, 1,20, 1,15,1282023.4113694867, 1,20,20,15
134,70666020.44019976,63564.01800854099, 1,20, 4,15,156554.22484006523, 1,25,20,15
170,5241013.419656067,348.4159749238097, 1,20, 4,15,17476.39704006126, 1,25,12,15
207,6509451.13922267,815.2532113832032, 1,20, 3,15,22990.642799023623, 1,25,10,15
244,12749673.399825225,1521.856143006317, 1,20, 4,15,53038.631142310165, 1,25,20,15
281,46165882.481495745,59938.60262432081, 1,20, 5,15,81951.81706819107, 1,20,19,15
318,0.0,0.0, 1,20, 1,15,0.0, 1,20, 1,15
355,197687796.27748066,18561.32405820678, 1,20, 4,15,724774.895203776, 1,25,18,15
403,197687796.27748066,18561.32405820678, 1,20, 4,15,724774.895203776, 1,25,18,15
476,106772067.24485716,7098.072629279515, 1,20, 4,15,356036.3026282215, 1,25,12,15
513,0.0,0.0, 1,20, 1,15,0.0, 1,20, 1,15
562,78640989.43613642,18910.0557269746, 1,24,15,15,122827.7377527937, 1,20, 1,30
1046,0.0,0.0, 1,20, 1,15,0.0, 1,20, 1,15
1096,0.0,0.0, 1,20, 1,15,0.0, 1,20, 1,15
1134,2593217699.0507193,332881.1085201764, 1,24,15,15,7374209.143074473, 1,21, 6,15
1326,244940141.98220682,0.0, 1,20, 1,15,4050000.0, 1,20, 7,60
1379,0.0,0.0, 1,20, 1,15,0.0, 1,20, 1,15
1,EXTREME_SUMMER,  44.47, -73.15,  -5.00, 104.00
5,7
1038,0.0,0.0, 7,27, 1,15,0.0, 7,27, 1,15
1039,28.75,0.0, 7,27, 1,15,0.25, 7,27,14,45
581,0.1242751492040293,0.0, 7,27,23, 3,0.46282702538105325, 7,30,15,55
582,2.4479223369141216,0.0, 7,27, 1,50,9.428935933712557, 7,31, 8,60
583,0.03336855313623208,0.0, 7,27,23, 3,0.06188116502250823, 7,31, 6, 3
1115,0.0,0.0, 7,27, 1,15,0.0, 7,27, 1,15
1128,0.0,0.0, 7,27, 1,15,0.0, 7,27, 1,15
1153,0.0,0.0, 7,27, 1,15,0.0, 7,27, 1,15
1154,0.0,0.0, 7,27, 1,15,0.0, 7,27, 1,15
1155,0.0,0.0, 7,27, 1,15,0.0, 7,27, 1,15
1156,0.0,0.0, 7,27, 1,15,0.0, 7,27, 1,15
1292,-21944956.932689533,-34348.28733395969, 8, 2,19,15,-3794.0478835010363, 7,29, 8, 1
1306,188721367.9276337,0.0, 7,27, 1,15,2905167.6828458128, 7,29,16,45
1307,23008880.559496783,0.0, 7,27, 1,15,3134702.911325696, 8, 2,19,55
1308,188721367.9276337,0.0, 7,27, 1,15,2905167.6828458128, 7,29,16,45
13,1012910294.3107781,152071.80019841267, 8, 1, 4,60,6745066.277738854, 7,28,20,30
61,301924526.02383536,88139.10953165221, 7,27, 1,15,1282023.4113694867, 7,27,20,15
134,70666020.44019976,63564.01800854099, 7,27, 4,15,156554.22484006523, 8, 1,20,15
170,5241013.419656067,348.4159749238097, 7,27, 4,15,17476.39704006126, 8, 1,12,15
207,6509451.13922267,815.2532113832032, 7,27, 3,15,22990.642799023623, 8, 1,10,15
244,12749673.399825225,1521.856143006317, 7,27, 4,15,53038.631142310165, 8, 1,20,15
281,46165882.481495745,59938.60262432081, 7,27, 5,15,81951.81706819107, 7,27,19,15
318,0.0,0.0, 7,27, 1,15,0.0, 7,27, 1,15
355,197687796.27748066,18561.32405820678, 7,27, 4,15,724774.895203776, 8, 1,18,15
403,197687796.27748066,18561.32405820678, 7,27, 4,15,724774.895203776, 8, 1,18,15
476,106772067.24485716,7098.072629279515, 7,27, 4,15,356036.3026282215, 8, 1,12,15
513,0.0,0.0, 7,27, 1,15,0.0, 7,27, 1,15
562,45494421.902289025,0.0, 8, 1, 4,60,122827.7377527937, 7,27,13,60
1046,0.0,0.0, 7,27, 1,15,0.0, 7,27, 1,15
1096,406103958.016821,0.0, 8, 1, 4,60,1270220.6148842939, 7,29,15,60
1134,0.0,0.0, 7,27, 1,15,0.0, 7,27, 1,15
1326,188721367.92763367,0.0, 7,27, 1,15,4050000.0, 7,28,20,30
1379,0.0,0.0, 7,27, 1,15,0.0, 7,27, 1,15
1,ANNUAL,  44.47, -73.15,  -5.00, 104.00
5,365
1038,88.75,0.0, 1, 1, 1,15,0.25, 1, 1, 6,15
1039,271.25,0.0, 1, 1, 1,15,0.25, 3,26,18,30
581,0.2875653390201728,0.0, 7,11,23, 3,1.0408636301654302,12,22,19,55
582,3.571585398094757,0.0, 1, 1,19,22,28.520845957215396,12,22,12,60
583,0.030325954850427734,0.0, 7,11,23, 3,0.07991299698709756, 1,16,24,52
1115,35672321979.222145,0.0, 1, 1,14,22,4425726.606500363,11,22, 6,15
1128,11605137282.400269,0.0, 1, 1,14,22,1235180.3430644018,12, 8, 7,45
1153,320035299.34183204,0.0, 1, 1,14,22,124990.61629336626,11, 9, 7,60
1154,1415688243.0552385,0.0, 1, 1, 6,15,180000.0, 1, 1,14,60
1155,12151089971.95578,0.0, 1, 1, 1,15,6337069.590530483, 1,17, 1,15
1156,12151089971.95578,0.0, 1, 1, 1,15,6337069.590530483, 1,17, 1,15
1292,-1244631124.120499,-42598.18115074351, 1,27, 6,15,-2210.7660344846886, 9,24, 9,46
1306,11404469670.76487,0.0, 1, 1, 1,15,4050000.0, 1, 1, 9,60
1307,1841472768.6987803,0.0, 1, 1, 1,15,13306447.46579504, 2,12,19,60
1308,11404469670.76487,0.0, 1, 1, 1,15,4050000.0, 1, 1, 9,60
13,64306378174.759735,151703.1275401932, 1, 6, 4,15,12195723.604488363, 1,26, 7,60
61,15743207428.383959,88139.10953165221, 1, 1, 1,15,1282023.4113694867, 1, 1,20,15
134,3685071073.4325233,63564.01800854099, 1, 2, 4,15,156554.22484006523, 1, 1,20,15
170,273393721.45532674,348.4159749238097, 1, 2, 4,15,17476.39704006126, 1, 1,12,15
207,339560869.0695816,815.2532113832032, 1, 2, 3,15,22990.642799023623, 1, 1,10,15
244,664895467.8009144,1521.856143006317, 1, 2, 4,15,53038.631142310165, 1, 1,20,15
281,2407221015.106824,59938.60262432081, 1, 1, 5,15,81951.81706819107, 1, 1,19,15
318,0.0,0.0, 1, 1, 1,15,0.0, 1, 1, 1,15
355,10310294493.051695,18561.32405820678, 1, 2, 4,15,724774.895203776, 1, 1,18,15
403,10310294493.051695,18561.32405820678, 1, 2, 4,15,724774.895203776, 1, 1,18,15
476,5569688622.066177,7098.072629279515, 1, 2, 4,15,356036.3026282215, 1, 1,12,15
513,0.0,0.0, 1, 1, 1,15,0.0, 1, 1, 1,15
562,1975100284.058596,0.0, 1, 1,14,30,122827.7377527937, 1, 1, 6,15
1046,0.0,0.0, 1, 1, 1,15,0.0, 1, 1, 1,15
1096,6006578921.3647375,0.0, 1, 1, 1,15,1342266.0802115593, 6,22,17,60
1134,25491950796.753193,0.0, 1, 4,15,60,7424937.890744183, 1,18, 6,15
1326,11404469670.764868,0.0, 1, 1, 1,15,4050000.0000000014, 4, 2,10,60
1379,0.0,0.0, 1, 1, 1,15,0.0, 1, 1, 1,15
End of Data
 Number of Records Written=          99
