Program Version,EnergyPlus, Version 9.5.0-de239b2e5f, YMD=2022.08.10 15:49
1,5,Environment Title[],Latitude[deg],Longitude[deg],Time Zone[],Elevation[m]
2,8,Day of Simulation[],Month[],Day of Month[],DST Indicator[1=yes 0=no],Hour[],StartMinute[],EndMinute[],DayType
3,5,Cumulative Day of Simulation[],Month[],Day of Month[],DST Indicator[1=yes 0=no],DayType  ! When Daily Report Variables Requested
4,2,Cumulative Days of Simulation[],Month[]  ! When Monthly Report Variables Requested
5,1,Cumulative Days of Simulation[] ! When Run Period Report Variables Requested
6,1,Calendar Year of Simulation[] ! When Annual Report Variables Requested
191,1,UNHEATEDBSMT_UNIT1,Zone Windows Total Transmitted Solar Radiation Rate [W] !Hourly
192,1,UNHEATEDBSMT_UNIT1,Zone Windows Total Transmitted Solar Radiation Energy [J] !Hourly
193,1,UNHEATEDBSMT_UNIT1,Zone Windows Total Heat Gain Energy [J] !Hourly
194,1,LIVING_UNIT1,Zone Windows Total Transmitted Solar Radiation Rate [W] !Hourly
195,1,LIVING_UNIT1,Zone Windows Total Transmitted Solar Radiation Energy [J] !Hourly
196,1,LIVING_UNIT1,Zone Windows Total Heat Gain Energy [J] !Hourly
197,1,ATTIC_UNIT1,Zone Windows Total Transmitted Solar Radiation Rate [W] !Hourly
198,1,ATTIC_UNIT1,Zone Windows Total Transmitted Solar Radiation Energy [J] !Hourly
199,1,ATTIC_UNIT1,Zone Windows Total Heat Gain Energy [J] !Hourly
200,1,UNHEATEDBSMT_UNIT1,Zone Mean Air Temperature [C] !Hourly
201,1,LIVING_UNIT1,Zone Mean Air Temperature [C] !Hourly
202,1,ATTIC_UNIT1,Zone Mean Air Temperature [C] !Hourly
279,1,UNHEATEDBSMT_UNIT1,AFN Zone Infiltration Sensible Heat Gain Rate [W] !Hourly
280,1,LIVING_UNIT1,AFN Zone Infiltration Sensible Heat Gain Rate [W] !Hourly
281,1,ATTIC_UNIT1,AFN Zone Infiltration Sensible Heat Gain Rate [W] !Hourly
282,1,UNHEATEDBSMT_UNIT1,AFN Zone Infiltration Air Change Rate [ach] !Hourly
283,1,LIVING_UNIT1,AFN Zone Infiltration Air Change Rate [ach] !Hourly
284,1,ATTIC_UNIT1,AFN Zone Infiltration Air Change Rate [ach] !Hourly
618,1,Whole Building,Facility Total HVAC Electricity Demand Rate [W] !Hourly
End of Data Dictionary
1,COEUR.DALENE.AP-BOYINGTON.FIE ANN HTG 99.6% CONDNS DB,  47.77,-116.82,  -8.00, 707.00
2,1,12,21, 0, 1, 0.00,60.00,WinterDesignDay
191,0.0
192,0.0
193,0.0
194,0.0
195,0.0
196,0.0
197,0.0
198,0.0
199,0.0
200,15.238094794937222
201,15.305580064088545
202,-4.695526280263388
279,0.0
280,0.0
281,0.0
282,0.7759424628460794
283,0.53598348002758
284,4.901745707517402
618,8497.781667507468
2,1,12,21, 0, 2, 0.00,60.00,WinterDesignDay
191,0.0
192,0.0
193,0.0
194,0.0
195,0.0
196,0.0
197,0.0
198,0.0
199,0.0
200,14.708791816484533
201,15.310999607038124
202,-4.6904791917338
279,0.0
280,0.0
281,0.0
282,0.7745996387171495
283,0.5358661764438231
284,4.901743521179305
618,8497.781667507468
2,1,12,21, 0, 3, 0.00,60.00,WinterDesignDay
191,0.0
192,0.0
193,0.0
194,0.0
195,0.0
196,0.0
197,0.0
198,0.0
199,0.0
200,14.38371665766835
201,15.299029006566212
202,-4.697223179612369
279,0.0
280,0.0
281,0.0
282,0.7736270080686418
283,0.5360133036881097
284,4.901739733357462
618,8497.781667507468
2,1,12,21, 0, 4, 0.00,60.00,WinterDesignDay
191,0.0
192,0.0
193,0.0
194,0.0
195,0.0
196,0.0
197,0.0
198,0.0
199,0.0
200,14.07835041847857
201,15.287045367528146
202,-4.703083435494187
279,0.0
280,0.0
281,0.0
282,0.7727338059975843
283,0.536012107278309
284,4.901743902460211
618,8497.781667507468
2,1,12,21, 0, 5, 0.00,60.00,WinterDesignDay
191,0.0
192,0.0
193,0.0
194,0.0
195,0.0
196,0.0
197,0.0
198,0.0
199,0.0
200,13.811387926714242
201,15.272361083128502
202,-4.710441599985743
279,0.0
280,0.0
281,0.0
282,0.771947900760788
283,0.5360017636216091
284,4.901718860402794
618,8497.781667507468
2,1,12,21, 0, 6, 0.00,60.00,WinterDesignDay
191,0.0
192,0.0
193,0.0
194,0.0
195,0.0
196,0.0
197,0.0
198,0.0
199,0.0
200,13.568520216316058
201,15.255867059337172
202,-4.718146980800706
279,0.0
280,0.0
281,0.0
282,0.7712323585985347
283,0.5359638045875748
284,4.901685396421228
618,8497.781667507468
2,1,12,21, 0, 7, 0.00,60.00,WinterDesignDay
191,0.0
192,0.0
193,0.0
194,0.0
195,0.0
196,0.0
197,0.0
198,0.0
199,0.0
200,13.344839261285124
201,15.237732881253079
202,-4.72628970058387
279,0.0
280,0.0
281,0.0
282,0.7705718872041107
283,0.5359078328351374
284,4.901644843196985
618,8497.781667507468
2,1,12,21, 0, 8, 0.00,60.00,WinterDesignDay
191,0.0
192,0.0
193,0.0
194,0.0
195,0.0
196,0.0
197,0.0
198,0.0
199,0.0
200,13.136716674886918
201,15.218238351070758
202,-4.734707542625165
279,0.0
280,0.0
281,0.0
282,0.7699558801055209
283,0.5358362974603419
284,4.901600345027079
618,8497.781667507468
2,1,12,21, 0, 9, 0.00,60.00,WinterDesignDay
191,0.0
192,0.0
193,0.0
194,0.0
195,0.0
196,0.0
197,0.0
198,0.0
199,0.0
200,12.941641681021047
201,15.197631380549414
202,-4.7433509218001739
279,0.0
280,0.0
281,0.0
282,0.7693770775895272
283,0.5357520831759809
284,4.901552957645159
618,8497.781667507468
2,1,12,21, 0,10, 0.00,60.00,WinterDesignDay
191,0.0
192,0.0
193,0.0
194,0.0
195,0.0
196,0.0
197,0.0
198,0.0
199,0.0
200,12.757802138581845
201,15.176133443493177
202,-4.75215812919331
279,0.0
280,0.0
281,0.0
282,0.7688302888605877
283,0.5356574417956311
284,4.901503500608596
618,8497.781667507468
2,1,12,21, 0,11, 0.00,60.00,WinterDesignDay
191,0.0
192,0.0
193,0.0
194,0.0
195,0.0
196,0.0
197,0.0
198,0.0
199,0.0
200,12.58375209253438
201,15.153938282608309
202,-4.761083371007757
279,0.0
280,0.0
281,0.0
282,0.7683114262346565
283,0.5355542880883576
284,4.9014524836750639
618,8497.781667507468
2,1,12,21, 0,12, 0.00,60.00,WinterDesignDay
191,0.0
192,0.0
193,0.0
194,0.0
195,0.0
196,0.0
197,0.0
198,0.0
199,0.0
200,12.418357530505546
201,15.131211239971134
202,-4.770085732750386
279,0.0
280,0.0
281,0.0
282,0.7678172925929863
283,0.5354442426436866
284,4.9014003121008919
618,8497.781667507468
2,1,12,21, 0,13, 0.00,60.00,WinterDesignDay
191,0.0
192,0.0
193,0.0
194,0.0
195,0.0
196,0.0
197,0.0
198,0.0
199,0.0
200,12.260697498399346
201,15.108093526473557
202,-4.7791303522589969
279,0.0
280,0.0
281,0.0
282,0.7673453046540334
283,0.5353286654606312
284,4.901347312255863
618,8497.781667507468
2,1,12,21, 0,14, 0.00,60.00,WinterDesignDay
191,0.0
192,0.0
193,0.0
194,0.0
195,0.0
196,0.0
197,0.0
198,0.0
199,0.0
200,12.110009644582093
201,15.084705116823939
202,-4.788186978988045
279,0.0
280,0.0
281,0.0
282,0.7668933302367494
283,0.5352087048693768
284,4.901293760051282
618,8497.781667507468
2,1,12,21, 0,15, 0.00,60.00,WinterDesignDay
191,0.0
192,0.0
193,0.0
194,0.0
195,0.0
196,0.0
197,0.0
198,0.0
199,0.0
200,11.96565254426945
201,15.061147830366665
202,-4.797229693713777
279,0.0
280,0.0
281,0.0
282,0.766459578407912
283,0.5350853323739551
284,4.9012398909104999
618,8497.781667507468
2,1,12,21, 0,16, 0.00,60.00,WinterDesignDay
191,0.0
192,0.0
193,0.0
194,0.0
195,0.0
196,0.0
197,0.0
198,0.0
199,0.0
200,11.827079439186783
201,15.037508040400259
202,-4.806236350425968
279,0.0
280,0.0
281,0.0
282,0.7660425236778564
283,0.5349593717534681
284,4.901185906701904
618,8497.781667507468
2,1,12,21, 0,17, 0.00,60.00,WinterDesignDay
191,0.0
192,0.0
193,0.0
194,0.0
195,0.0
196,0.0
197,0.0
198,0.0
199,0.0
200,11.693818935576092
201,15.013859018238387
202,-4.815188155241148
279,0.0
280,0.0
281,0.0
282,0.765640850885534
283,0.5348315231958147
284,4.901131979825628
618,8497.781667507468
2,1,12,21, 0,18, 0.00,60.00,WinterDesignDay
191,0.0
192,0.0
193,0.0
194,0.0
195,0.0
196,0.0
197,0.0
198,0.0
199,0.0
200,11.565459039841473
201,14.990262908581224
202,-4.824069247420689
279,0.0
280,0.0
281,0.0
282,0.7652534101555084
283,0.5347023830989752
284,4.901078256815276
618,8497.781667507468
2,1,12,21, 0,19, 0.00,60.00,WinterDesignDay
191,0.0
192,0.0
193,0.0
194,0.0
195,0.0
196,0.0
197,0.0
198,0.0
199,0.0
200,11.44162006149436
201,14.966772351684183
202,-4.832866349380777
279,0.0
280,0.0
281,0.0
282,0.7648791423420989
283,0.5345724606872993
284,4.901024861337183
618,8497.781667507468
2,1,12,21, 0,20, 0.00,60.00,WinterDesignDay
191,0.0
192,0.0
193,0.0
194,0.0
195,0.0
196,0.0
197,0.0
198,0.0
199,0.0
200,11.32229286296327
201,14.943431518222149
202,-4.841568667994229
279,0.0
280,0.0
281,0.0
282,0.7645179840202583
283,0.5344421947255568
284,4.90097189685721
618,8497.781667507468
2,1,12,21, 0,21, 0.00,60.00,WinterDesignDay
191,0.0
192,0.0
193,0.0
194,0.0
195,0.0
196,0.0
197,0.0
198,0.0
199,0.0
200,11.20704360179871
201,14.920284428163905
202,-4.850162650733138
279,0.0
280,0.0
281,0.0
282,0.7641687948135734
283,0.5343118859816525
284,4.900919453801635
618,8497.781667507468
2,1,12,21, 0,22, 0.00,60.00,WinterDesignDay
191,0.0
192,0.0
193,0.0
194,0.0
195,0.0
196,0.0
197,0.0
198,0.0
199,0.0
200,11.095180339889659
201,14.897361318819934
202,-4.858641982523765
279,0.0
280,0.0
281,0.0
282,0.7638296607968904
283,0.5341819231021717
284,4.900867605034538
618,8497.781667507468
2,1,12,21, 0,23, 0.00,60.00,WinterDesignDay
191,0.0
192,0.0
193,0.0
194,0.0
195,0.0
196,0.0
197,0.0
198,0.0
199,0.0
200,10.986590489372804
201,14.874680422239134
202,-4.8670064083081139
279,0.0
280,0.0
281,0.0
282,0.7635001667107354
283,0.5340526671570978
284,4.900816415240659
618,8497.781667507468
2,1,12,21, 0,24, 0.00,60.00,WinterDesignDay
191,0.0
192,0.0
193,0.0
194,0.0
195,0.0
196,0.0
197,0.0
198,0.0
199,0.0
200,10.881093180653746
201,14.852264470492385
202,-4.875250740189055
279,0.0
280,0.0
281,0.0
282,0.7631798150279795
283,0.5339242745142339
284,4.900765928400737
618,8497.781667507468
1,COEUR.DALENE.AP-BOYINGTON.FIE ANN CLG .4% CONDNS DB=>MWB,  47.77,-116.82,  -8.00, 707.00
2,1, 7,21, 0, 1, 0.00,60.00,SummerDesignDay
191,0.0
192,0.0
193,0.0
194,0.0
195,0.0
196,0.0
197,0.0
198,0.0
199,0.0
200,21.208496744055496
201,34.97813702179426
202,21.90511077303466
279,0.0
280,0.0
281,0.0
282,0.499495508095219
283,0.3114128076271298
284,3.5819611463604499
618,251.46757314415064
2,1, 7,21, 0, 2, 0.00,60.00,SummerDesignDay
191,0.0
192,0.0
193,0.0
194,0.0
195,0.0
196,0.0
197,0.0
198,0.0
199,0.0
200,21.01153990816376
201,33.98666342326471
202,20.93493656963464
279,0.0
280,0.0
281,0.0
282,0.49912746405819138
283,0.3078720755300733
284,3.5799631297712577
618,251.46757314415064
2,1, 7,21, 0, 3, 0.00,60.00,SummerDesignDay
191,0.0
192,0.0
193,0.0
194,0.0
195,0.0
196,0.0
197,0.0
198,0.0
199,0.0
200,20.82746551763804
201,33.037981741994538
202,20.167382995618405
279,0.0
280,0.0
281,0.0
282,0.49842566370299215
283,0.30300159718315719
284,3.578956333211358
618,251.46757314415064
2,1, 7,21, 0, 4, 0.00,60.00,SummerDesignDay
191,0.0
192,0.0
193,0.0
194,0.0
195,0.0
196,0.0
197,0.0
198,0.0
199,0.0
200,20.64323906789334
201,32.11383639902921
202,19.481268481421347
279,0.0
280,0.0
281,0.0
282,0.49780013505993006
283,0.2986285702090539
284,3.579382865659156
618,251.46757314415064
2,1, 7,21, 0, 5, 0.00,60.00,SummerDesignDay
191,0.0
192,0.0
193,0.0
194,700.8781257243388
195,2523161.25260762
196,581559.6983545979
197,0.0
198,0.0
199,0.0
200,20.469899895263209
201,31.49385846324537
202,19.323098694922537
279,0.0
280,0.0
281,0.0
282,0.4968494831392946
283,0.2930969914759506
284,3.584350255770711
618,251.46757314415064
2,1, 7,21, 0, 6, 0.00,60.00,SummerDesignDay
191,0.0
192,0.0
193,0.0
194,2166.0477240051216
195,7797771.806418437
196,7434758.6456870329
197,0.0
198,0.0
199,0.0
200,20.379031280504333
201,31.466082564952104
202,20.81617358345998
279,0.0
280,0.0
281,0.0
282,0.4949724914109188
283,0.2842938688342676
284,3.6014135400794449
618,251.46757314415064
2,1, 7,21, 0, 7, 0.00,60.00,SummerDesignDay
191,0.0
192,0.0
193,0.0
194,2662.8240206388666
195,9586166.474299919
196,9686865.468198277
197,0.0
198,0.0
199,0.0
200,20.423431056889119
201,31.694333966662403
202,24.33035942428171
279,0.0
280,0.0
281,0.0
282,0.4924048842353695
283,0.2735209358331711
284,3.6350592694103858
618,251.46757314415064
2,1, 7,21, 0, 8, 0.00,60.00,SummerDesignDay
191,0.0
192,0.0
193,0.0
194,2893.71200292066
195,10417363.210514376
196,11058056.07999423
197,0.0
198,0.0
199,0.0
200,20.627537146023767
201,32.163056570442069
202,29.35148158100296
279,32.45164069785068
280,0.0
281,0.0
282,0.4868181574454483
283,0.24982252330696975
284,3.670864752016432
618,251.46757314415064
2,1, 7,21, 0, 9, 0.00,60.00,SummerDesignDay
191,0.0
192,0.0
193,0.0
194,2987.1084550061866
195,10753590.43802227
196,12252859.823544072
197,0.0
198,0.0
199,0.0
200,20.875404781176369
201,32.865771218286578
202,34.613378467833708
279,129.0896131856921
280,0.0
281,0.0
282,0.48132071000697349
283,0.2326619702687302
284,3.710011764440999
618,251.46757314415064
2,1, 7,21, 0,10, 0.00,60.00,SummerDesignDay
191,0.0
192,0.0
193,0.0
194,2882.427926995242
195,10376740.537182872
196,12463111.806479138
197,0.0
198,0.0
199,0.0
200,21.13747490826735
201,33.705650664552248
202,39.85363928318561
279,212.44023145455794
280,0.0
281,0.0
282,0.4771292280047892
283,0.21769885426694333
284,3.7525122536540187
618,251.46757314415064
2,1, 7,21, 0,11, 0.00,60.00,SummerDesignDay
191,0.0
192,0.0
193,0.0
194,2528.1837803493738
195,9101461.609257745
196,11319470.093212549
197,0.0
198,0.0
199,0.0
200,21.405306758169926
201,34.57709762548674
202,44.31348362751828
279,283.6419053130574
280,0.0
281,0.0
282,0.4739418913617789
283,0.20286843645698958
284,3.7891614196555847
618,251.46757314415064
2,1, 7,21, 0,12, 0.00,60.00,SummerDesignDay
191,0.0
192,0.0
193,0.0
194,2238.9366988853614
195,8060172.115987301
196,9742946.578964996
197,0.0
198,0.0
199,0.0
200,21.641795593139994
201,35.36508693417946
202,47.628400061169298
279,328.93807931316749
280,0.0
281,0.0
282,0.4725220763126124
283,0.2080370116972542
284,3.815233616776837
618,251.46757314415064
2,1, 7,21, 0,13, 0.00,60.00,SummerDesignDay
191,0.0
192,0.0
193,0.0
194,2276.676649768613
195,8196035.939167007
196,10114581.392686293
197,0.0
198,0.0
199,0.0
200,21.86594607340055
201,36.25362863640489
202,49.78153807222073
279,363.80204221799905
280,0.0
281,0.0
282,0.47153785811841517
283,0.2100992127884328
284,3.8291899852048827
618,251.46757314415064
2,1, 7,21, 0,14, 0.00,60.00,SummerDesignDay
191,0.0
192,0.0
193,0.0
194,2615.0259427380049
195,9414093.393856816
196,11887125.802983582
197,0.0
198,0.0
199,0.0
200,22.077099927913559
201,37.3061820658532
202,50.73095831563386
279,383.53373058582818
280,0.0
281,0.0
282,0.471611266678411
283,0.21238181702770596
284,3.8299616881049909
618,251.46757314415064
2,1, 7,21, 0,15, 0.00,60.00,SummerDesignDay
191,0.0
192,0.0
193,0.0
194,2929.136463981488
195,10544891.270333358
196,12834859.748908962
197,0.0
198,0.0
199,0.0
200,22.260909777907547
201,38.40977419734637
202,50.37722550663659
279,378.399522953027
280,0.0
281,0.0
282,0.47333316358121227
283,0.21731161351066215
284,3.8183363381959705
618,251.46757314415064
2,1, 7,21, 0,16, 0.00,60.00,SummerDesignDay
191,0.0
192,0.0
193,0.0
194,2983.996121411712
195,10742386.037082164
196,12369763.849647245
197,0.0
198,0.0
199,0.0
200,22.398649397939655
201,39.36206713799242
202,48.624731962152029
279,343.6355500451983
280,0.0
281,0.0
282,0.4772002551101086
283,0.2375368078764133
284,3.7995413671851998
618,251.46757314415064
2,1, 7,21, 0,17, 0.00,60.00,SummerDesignDay
191,0.0
192,0.0
193,0.0
194,2852.6053516656554
195,10269379.26599636
196,11075418.630806033
197,0.0
198,0.0
199,0.0
200,22.503350958362338
201,40.068044688101249
202,45.66978354050868
279,298.622787408178
280,0.0
281,0.0
282,0.48139857348577388
283,0.25692750502396619
284,3.7690800452510246
618,251.46757314415064
2,1, 7,21, 0,18, 0.00,60.00,SummerDesignDay
191,0.0
192,0.0
193,0.0
194,2591.004381658103
195,9327615.77396917
196,9664493.981691719
197,0.0
198,0.0
199,0.0
200,22.567735357945979
201,40.52506799648225
202,41.69684888227721
279,243.21606724539056
280,0.0
281,0.0
282,0.48583952978130659
283,0.27337151838407239
284,3.7297701546250727
618,251.46757314415064
2,1, 7,21, 0,19, 0.00,60.00,SummerDesignDay
191,0.0
192,0.0
193,0.0
194,1972.962482899176
195,7102664.938437033
196,6513966.121231232
197,0.0
198,0.0
199,0.0
200,22.558358991673399
201,40.55450125999719
202,36.89590742488746
279,161.70120371814725
280,0.0
281,0.0
282,0.49162607935687016
283,0.2908789656871655
284,3.690152341502323
618,251.46757314415064
2,1, 7,21, 0,20, 0.00,60.00,SummerDesignDay
191,0.0
192,0.0
193,0.0
194,277.93934700082039
195,1000581.6492029533
196,0.0
197,0.0
198,0.0
199,0.0
200,22.5358891146169
201,39.81819815511294
202,32.38695978411299
279,101.13503137623015
280,0.0
281,0.0
282,0.4954454598827397
283,0.30325908334694598
284,3.6467813412621137
618,251.46757314415064
2,1, 7,21, 0,21, 0.00,60.00,SummerDesignDay
191,0.0
192,0.0
193,0.0
194,0.0
195,0.0
196,0.0
197,0.0
198,0.0
199,0.0
200,22.453366202284927
201,38.90155366972015
202,28.877092032728134
279,53.05543129743862
280,0.0
281,0.0
282,0.49732616339967808
283,0.30729093066676335
284,3.61440406332744
618,251.46757314415064
2,1, 7,21, 0,22, 0.00,60.00,SummerDesignDay
191,0.0
192,0.0
193,0.0
194,0.0
195,0.0
196,0.0
197,0.0
198,0.0
199,0.0
200,22.331299466344249
201,37.96162052240345
202,26.373401819451425
279,6.0074189203554699
280,0.0
281,0.0
282,0.49893041420738779
283,0.31045845338622959
284,3.597207184066632
618,251.46757314415064
2,1, 7,21, 0,23, 0.00,60.00,SummerDesignDay
191,0.0
192,0.0
193,0.0
194,0.0
195,0.0
196,0.0
197,0.0
198,0.0
199,0.0
200,22.19979417691808
201,37.00188017932436
202,24.581143907842607
279,0.0
280,0.0
281,0.0
282,0.4998041532856932
283,0.31105325677970827
284,3.58726700748021
618,251.46757314415064
2,1, 7,21, 0,24, 0.00,60.00,SummerDesignDay
191,0.0
192,0.0
193,0.0
194,0.0
195,0.0
196,0.0
197,0.0
198,0.0
199,0.0
200,22.04493489830387
201,36.01917313495082
202,23.104888330271228
279,0.0
280,0.0
281,0.0
282,0.5006650222607193
283,0.3121058954112039
284,3.5833050136057578
618,251.46757314415064
1,SUB-ANNUAL,  47.77,-116.82,  -8.00, 707.00
2,1, 1, 1, 0, 1, 0.00,60.00,Sunday
191,0.0
192,0.0
193,0.0
194,0.0
195,0.0
196,0.0
197,0.0
198,0.0
199,0.0
200,17.30218200370536
201,19.83582545546352
202,-0.19449325100049284
279,0.0
280,0.0
281,0.0
282,0.36361042110608757
283,0.5266034719774871
284,0.0
618,8497.781667507468
2,1, 1, 1, 0, 2, 0.00,60.00,Sunday
191,0.0
192,0.0
193,0.0
194,0.0
195,0.0
196,0.0
197,0.0
198,0.0
199,0.0
200,16.632163996472945
201,19.213068002675287
202,-3.1631190064993746
279,0.0
280,0.0
281,0.0
282,0.39263219115740508
283,0.5424115025068093
284,1.4780747232904903
618,8497.781667507468
2,1, 1, 1, 0, 3, 0.00,60.00,Sunday
191,0.0
192,0.0
193,0.0
194,0.0
195,0.0
196,0.0
197,0.0
198,0.0
199,0.0
200,15.660834983456029
201,18.91339770463289
202,-5.019148516205236
279,0.0
280,0.0
281,0.0
282,0.5606745392760667
283,0.5195246445735049
284,3.121526433074082
618,8497.781667507468
2,1, 1, 1, 0, 4, 0.00,60.00,Sunday
191,0.0
192,0.0
193,0.0
194,0.0
195,0.0
196,0.0
197,0.0
198,0.0
199,0.0
200,15.730825116698928
201,18.45910647124038
202,-5.858079355639756
279,0.0
280,0.0
281,0.0
282,0.47877642132967376
283,0.5253722436766033
284,3.367730141404307
618,8497.781667507468
2,1, 1, 1, 0, 5, 0.00,60.00,Sunday
191,0.0
192,0.0
193,0.0
194,0.0
195,0.0
196,0.0
197,0.0
198,0.0
199,0.0
200,15.648349721552929
201,18.140252695995799
202,-6.001453973909904
279,0.0
280,0.0
281,0.0
282,0.4263298047915967
283,0.505506572698735
284,2.4669890403807877
618,8497.781667507468
2,1, 1, 1, 0, 6, 0.00,60.00,Sunday
191,0.0
192,0.0
193,0.0
194,0.0
195,0.0
196,0.0
197,0.0
198,0.0
199,0.0
200,15.399616425316657
201,18.02692433588049
202,-5.887120802309072
279,0.0
280,0.0
281,0.0
282,0.45539870557904058
283,0.48156974050012876
284,2.342903404213673
618,8497.781667507468
2,1, 1, 1, 0, 7, 0.00,60.00,Sunday
191,0.0
192,0.0
193,0.0
194,0.0
195,0.0
196,0.0
197,0.0
198,0.0
199,0.0
200,15.347387976184072
201,17.7907612851332
202,-5.3799717689307
279,0.0
280,0.0
281,0.0
282,0.42000705142978447
283,0.48005855123635318
284,2.446853720151636
618,8497.781667507468
2,1, 1, 1, 0, 8, 0.00,60.00,Sunday
191,0.0
192,0.0
193,0.0
194,0.0
195,0.0
196,0.0
197,0.0
198,0.0
199,0.0
200,15.395406189332876
201,17.489162984173043
202,-4.52885359602628
279,0.0
280,0.0
281,0.0
282,0.350477568555257
283,0.48753197406728546
284,0.0
618,8497.781667507468
2,1, 1, 1, 0, 9, 0.00,60.00,Sunday
191,0.0
192,0.0
193,0.0
194,1635.4362222104736
195,5887570.399957704
196,3141173.6257278898
197,0.0
198,0.0
199,0.0
200,15.299887491523475
201,18.020419435821908
202,-2.345960046215417
279,0.0
280,0.0
281,0.0
282,0.34649433667238196
283,0.47163079081850625
284,0.0
618,8497.781667507468
2,1, 1, 1, 0,10, 0.00,60.00,Sunday
191,0.0
192,0.0
193,0.0
194,1401.5739345266503
195,5045666.164295941
196,2103930.5278592088
197,0.0
198,0.0
199,0.0
200,15.278721299866199
201,18.492156622126318
202,0.5904957000598676
279,0.0
280,0.0
281,0.0
282,0.3440184118233777
283,0.4623189482476843
284,0.14909514030704616
618,8497.781667507468
2,1, 1, 1, 0,11, 0.00,60.00,Sunday
191,0.0
192,0.0
193,0.0
194,2555.6400591157519
195,9200304.212816706
196,7489672.493657761
197,0.0
198,0.0
199,0.0
200,15.265066866560474
201,19.431047672830787
202,4.024436122065744
279,0.0
280,0.0
281,0.0
282,0.3417112365138892
283,0.4541594487253856
284,0.5248911674154986
618,8497.781667507468
2,1, 1, 1, 0,12, 0.00,60.00,Sunday
191,0.0
192,0.0
193,0.0
194,3018.2324873611985
195,10865636.954500314
196,9186550.279384315
197,0.0
198,0.0
199,0.0
200,15.300605796763735
201,20.325473690560754
202,7.476536805908141
279,0.0
280,0.0
281,0.0
282,0.34042352349155999
283,0.4504601984970682
284,0.8730298980446951
618,8010.356156419961
2,1, 1, 1, 0,13, 0.00,60.00,Sunday
191,0.0
192,0.0
193,0.0
194,3116.7435837885639
195,11220276.90163883
196,9800327.317277722
197,0.0
198,0.0
199,0.0
200,15.170630187168351
201,20.520933595645994
202,9.272348626385052
279,0.0
280,0.0
281,0.0
282,0.3896422170961715
283,0.44364161389385528
284,1.4267021900476827
618,6062.624618460816
2,1, 1, 1, 0,14, 0.00,60.00,Sunday
191,0.0
192,0.0
193,0.0
194,2614.8703127585247
195,9413533.125930688
196,7776176.88113589
197,0.0
198,0.0
199,0.0
200,15.13846335550661
201,20.55189561184315
202,9.282086324461245
279,0.0
280,0.0
281,0.0
282,0.4151561847171674
283,0.4254829478349968
284,2.1009228807562327
618,4822.767046609428
2,1, 1, 1, 0,15, 0.00,60.00,Sunday
191,0.0
192,0.0
193,0.0
194,2475.267729561789
195,8910963.82642244
196,6506907.155229737
197,0.0
198,0.0
199,0.0
200,15.073996421372782
201,20.55388810041088
202,10.83329703090244
279,0.0
280,0.0
281,0.0
282,0.3462775581718011
283,0.47967978142717757
284,0.0
618,5182.520354547269
2,1, 1, 1, 0,16, 0.00,60.00,Sunday
191,0.0
192,0.0
193,0.0
194,2201.83154254788
195,7926593.553172368
196,4874236.866196519
197,0.0
198,0.0
199,0.0
200,14.95496679975009
201,20.55400487911312
202,6.4956581932390649
279,0.0
280,0.0
281,0.0
282,0.3497159427687867
283,0.49247512027637538
284,1.6684661922379649
618,5133.840316686494
2,1, 1, 1, 0,17, 0.00,60.00,Sunday
191,0.0
192,0.0
193,0.0
194,0.0
195,0.0
196,0.0
197,0.0
198,0.0
199,0.0
200,14.841613534099654
201,20.55320602807697
202,5.029522859481022
279,0.0
280,0.0
281,0.0
282,0.35039138783815729
283,0.4993336263436902
284,0.0
618,6458.766728813407
2,1, 1, 1, 0,18, 0.00,60.00,Sunday
191,0.0
192,0.0
193,0.0
194,0.0
195,0.0
196,0.0
197,0.0
198,0.0
199,0.0
200,14.713445083704015
201,20.550181469823117
202,1.9729063186879346
279,0.0
280,0.0
281,0.0
282,0.35242227549304436
283,0.5090967688479732
284,0.0
618,7562.559738012211
2,1, 1, 1, 0,19, 0.00,60.00,Sunday
191,0.0
192,0.0
193,0.0
194,0.0
195,0.0
196,0.0
197,0.0
198,0.0
199,0.0
200,14.633898537863047
201,20.55053978122469
202,0.4409345400177613
279,0.0
280,0.0
281,0.0
282,0.3518301014551878
283,0.5072711549250636
284,0.0
618,8122.82768086051
2,1, 1, 1, 0,20, 0.00,60.00,Sunday
191,0.0
192,0.0
193,0.0
194,0.0
195,0.0
196,0.0
197,0.0
198,0.0
199,0.0
200,14.713964085510833
201,20.553701756203187
202,0.08768736637181311
279,0.0
280,0.0
281,0.0
282,0.3440693354167896
283,0.4737496120837768
284,0.0
618,7835.449623363732
2,1, 1, 1, 0,21, 0.00,60.00,Sunday
191,0.0
192,0.0
193,0.0
194,0.0
195,0.0
196,0.0
197,0.0
198,0.0
199,0.0
200,14.632835577424338
201,20.55025131369555
202,0.41606901976781687
279,0.0
280,0.0
281,0.0
282,0.3440108047338689
283,0.4731904220580854
284,0.0
618,8161.781612093936
2,1, 1, 1, 0,22, 0.00,60.00,Sunday
191,0.0
192,0.0
193,0.0
194,0.0
195,0.0
196,0.0
197,0.0
198,0.0
199,0.0
200,14.563077921040632
201,20.552180693691459
202,0.634651193396591
279,0.0
280,0.0
281,0.0
282,0.34388164574012655
283,0.47343334407044176
284,0.0
618,8466.128028982685
2,1, 1, 1, 0,23, 0.00,60.00,Sunday
191,0.0
192,0.0
193,0.0
194,0.0
195,0.0
196,0.0
197,0.0
198,0.0
199,0.0
200,14.544049179310243
201,20.553607918269944
202,0.9112268476262587
279,0.0
280,0.0
281,0.0
282,0.34127077536517427
283,0.4623683827685519
284,0.0
618,8487.98815163913
2,1, 1, 1, 0,24, 0.00,60.00,Sunday
191,0.0
192,0.0
193,0.0
194,0.0
195,0.0
196,0.0
197,0.0
198,0.0
199,0.0
200,14.47197253405595
201,20.48020327394124
202,0.9923682187166534
279,0.0
280,0.0
281,0.0
282,0.341251974050817
283,0.4625665070944547
284,0.0
618,8497.781667507468
End of Data
 Number of Records Written=        1368
