Program Version,EnergyPlus, Version 22.2.0-c249759bad, YMD=2023.09.01 14:30
1,5,Environment Title[],Latitude[deg],Longitude[deg],Time Zone[],Elevation[m]
2,8,Day of Simulation[],Month[],Day of Month[],DST Indicator[1=yes 0=no],Hour[],StartMinute[],EndMinute[],DayType
3,5,Cumulative Day of Simulation[],Month[],Day of Month[],DST Indicator[1=yes 0=no],DayType  ! When Daily Report Variables Requested
4,2,Cumulative Days of Simulation[],Month[]  ! When Monthly Report Variables Requested
5,1,Cumulative Days of Simulation[] ! When Run Period Report Variables Requested
6,1,Calendar Year of Simulation[] ! When Annual Report Variables Requested
7,1,Environment,Site Outdoor Air Drybulb Temperature [C] !Hourly
619,1,DX_HEATING_COIL,Heating Coil Heating Rate [W] !Hourly
633,1,DX_HEATING_COIL,Heating Coil Electricity Rate [W] !Hourly
659,1,DX_HEATING_COIL,Heating Coil Defrost Electricity Rate [W] !Hourly
661,1,DX_HEATING_COIL,Heating Coil Crankcase Heater Electricity Rate [W] !Hourly
690,1,FAN,Fan Electricity Rate [W] !Hourly
716,1,HEAT PUMP WATER HEATER FAN,Fan Electricity Rate [W] !Hourly
718,1,LIVING,Zone Mean Air Temperature [C] !Hourly
719,1,ATTIC,Zone Mean Air Temperature [C] !Hourly
720,1,CRAWLSPACE,Zone Mean Air Temperature [C] !Hourly
843,1,LIVING,Zone Predicted Sensible Load to Heating Setpoint Heat Transfer Rate [W] !Hourly
844,1,LIVING,Zone System Predicted Sensible Load to Heating Setpoint Heat Transfer Rate [W] !Hourly
907,1,ATTIC,Zone Predicted Sensible Load to Heating Setpoint Heat Transfer Rate [W] !Hourly
908,1,ATTIC,Zone System Predicted Sensible Load to Heating Setpoint Heat Transfer Rate [W] !Hourly
971,1,CRAWLSPACE,Zone Predicted Sensible Load to Heating Setpoint Heat Transfer Rate [W] !Hourly
972,1,CRAWLSPACE,Zone System Predicted Sensible Load to Heating Setpoint Heat Transfer Rate [W] !Hourly
1195,1,HEATING_RESISTANCE_BACKUP,Heating Coil Heating Rate [W] !Hourly
1197,1,HEATING_RESISTANCE_BACKUP,Heating Coil Electricity Rate [W] !Hourly
End of Data Dictionary
1,EXTREME_WINTER,  42.41, -83.01,  -5.00, 190.80
2,1,12,15, 0, 1, 0.00,60.00,Monday
7,-11.1
718,18.643439852575973
719,-5.766555208910564
720,18.258565615744228
619,3471.740148882471
633,1295.737227528551
659,20.233705929216192
661,0.0
690,148.3599726019572
716,0.0
843,3471.1488640580174
844,3471.1488640580174
907,0.0
908,0.0
971,0.0
972,0.0
1195,1848.278721718326
1197,1848.278721718326
2,1,12,15, 0, 2, 0.00,60.00,Monday
7,-10.6
718,18.619243448058405
719,-6.165903495083414
720,17.827548560815487
619,3523.075936790493
633,1298.6214082863007
659,21.495260794031182
661,0.0
690,148.3599726019572
716,0.0
843,3752.465405244242
844,3752.465405244242
907,0.0
908,0.0
971,0.0
972,0.0
1195,2043.3633632759486
1197,2043.3633632759486
2,1,12,15, 0, 3, 0.00,60.00,Monday
7,-11.1
718,18.607192180257567
719,-5.906188405739562
720,17.622647138020042
619,3474.0043415698397
633,1293.275321869922
659,20.233705929216192
661,0.0
690,148.3599726019572
716,0.0
843,4093.222455923951
844,4093.222455923951
907,0.0
908,0.0
971,0.0
972,0.0
1195,2520.632121714545
1197,2520.632121714545
2,1,12,15, 0, 4, 0.00,60.00,Monday
7,-11.1
718,18.60550779305536
719,-6.399865750011889
720,17.3851006890305
619,3488.5702862192434
633,1297.9807885598077
659,16.128501175589044
661,0.0
690,148.3599726019572
716,0.0
843,4443.780346641235
844,4443.780346641235
907,0.0
908,0.0
971,0.0
972,0.0
1195,2927.108307192931
1197,2927.108307192931
2,1,12,15, 0, 5, 0.00,60.00,Monday
7,-11.1
718,18.603044902202335
719,-6.421462146306484
720,17.181850061158926
619,3475.3427708082777
633,1292.6242417932324
659,20.072932612436883
661,0.0
690,148.3599726019572
716,0.0
843,4469.7027591135065
844,4469.7027591135065
907,0.0
908,0.0
971,0.0
972,0.0
1195,2994.362766968835
1197,2994.362766968835
2,1,12,15, 0, 6, 0.00,60.00,Monday
7,-11.1
718,19.37831000121888
719,-6.436975675453828
720,16.98329288600428
619,3475.6366563960555
633,1292.3233705114205
659,20.069168820109393
661,0.0
690,148.3599726019572
716,0.0
843,5608.5776198170115
844,5608.5776198170115
907,0.0
908,0.0
971,0.0
972,0.0
1195,4376.237571246
1197,4376.237571246
2,1,12,15, 0, 7, 0.00,60.00,Monday
7,-11.1
718,19.575965630291073
719,-6.200987727151023
720,16.828632299400375
619,3458.6275307756846
633,1310.797256912438
659,20.067188443654288
661,0.0
690,148.3599726019572
716,85.44000000000004
843,5400.754388790694
844,5400.754388790694
907,0.0
908,0.0
971,0.0
972,0.0
1195,5288.388917087937
1197,5288.388917087937
2,1,12,15, 0, 8, 0.00,60.00,Monday
7,-11.1
718,19.649398259587798
719,-6.722273597051679
720,16.651586125963686
619,3440.5863940365125
633,1310.1285348809836
659,24.116675457552905
661,0.0
690,148.3599726019572
716,85.44000000000004
843,5438.8135415006545
844,5438.8135415006545
907,0.0
908,0.0
971,0.0
972,0.0
1195,5442.433888269691
1197,5442.433888269691
2,1,12,15, 0, 9, 0.00,60.00,Monday
7,-10.0
718,19.69462041618062
719,-5.892763216124594
720,16.49296788383481
619,3579.018493241843
633,1332.5027734788837
659,18.43937397232777
661,0.0
690,148.3599726019572
716,10.021025793626807
843,5010.539249885278
844,5010.539249885278
907,0.0
908,0.0
971,0.0
972,0.0
1195,3785.3865352038115
1197,3785.3865352038115
2,1,12,15, 0,10, 0.00,60.00,Monday
7,-8.3
718,19.71198096027794
719,-4.688929554974409
720,16.34057549677948
619,3837.2866151067524
633,1378.3130827436053
659,0.07146788989460141
661,0.0
690,148.3599726019572
716,0.0
843,5015.093082211615
844,5015.093082211615
907,0.0
908,0.0
971,0.0
972,0.0
1195,3400.521770845514
1197,3400.521770845514
2,1,12,15, 0,11, 0.00,60.00,Monday
7,-7.8
718,19.715813765525752
719,-3.709145401207927
720,16.214098925012284
619,3895.277619658873
633,1384.6449849791568
659,0.07146788989460141
661,0.0
690,148.3599726019572
716,0.0
843,4152.173838927034
844,4152.173838927034
907,0.0
908,0.0
971,0.0
972,0.0
1195,2218.9652008337434
1197,2218.9652008337434
2,1,12,15, 0,12, 0.00,60.00,Monday
7,-7.2
718,19.721155946571145
719,-2.0931947413047913
720,16.09566092424901
619,3965.8873667615176
633,1391.799107991467
659,0.07146788989460141
661,0.0
690,148.3599726019572
716,0.0
843,3801.2961317816535
844,3801.2961317816535
907,0.0
908,0.0
971,0.0
972,0.0
1195,1689.7391062901656
1197,1689.7391062901656
2,1,12,15, 0,13, 0.00,60.00,Monday
7,-7.2
718,19.720025558802423
719,-1.8805441030103798
720,15.991942563304677
619,3965.9017117729923
633,1391.7827287923649
659,0.07146788989460141
661,0.0
690,148.3599726019572
716,0.0
843,3450.593815628499
844,3450.593815628499
907,0.0
908,0.0
971,0.0
972,0.0
1195,1173.5474401243919
1197,1173.5474401243919
2,1,12,15, 0,14, 0.00,60.00,Monday
7,-7.8
718,19.70666985415703
719,-1.04263224307242
720,15.895662292428732
619,3850.6906407104952
633,1368.4339616325317
659,11.964941771572283
661,0.0
690,148.3599726019572
716,78.99851499191712
843,3242.0586795197687
844,3242.0586795197687
907,0.0
908,0.0
971,0.0
972,0.0
1195,2020.8580546152125
1197,2020.8580546152125
2,1,12,15, 0,15, 0.00,60.00,Monday
7,-7.8
718,19.7138047361539
719,-2.043958613171919
720,15.81429274257464
619,3835.3549874122145
633,1362.3217542538953
659,16.151250368525396
661,0.0
690,148.3599726019572
716,0.0
843,3756.703668501157
844,3756.703668501157
907,0.0
908,0.0
971,0.0
972,0.0
1195,1622.3605258530333
1197,1622.3605258530333
2,1,12,15, 0,16, 0.00,60.00,Monday
7,-8.0
718,19.71630181770243
719,-3.1862624600989022
720,15.743897848493704
619,3783.6761029924683
633,1349.8104906628027
659,23.78855538609654
661,0.0
690,148.3599726019572
716,0.0
843,3884.574828635132
844,3884.574828635132
907,0.0
908,0.0
971,0.0
972,0.0
1195,1886.6322431312074
1197,1886.6322431312074
2,1,12,15, 0,17, 0.00,60.00,Monday
7,-8.3
718,19.714609730501717
719,-4.105766493492815
720,15.670814620181869
619,3747.9336333037895
633,1345.6116400844141
659,24.245228673686036
661,0.0
690,148.3599726019572
716,0.0
843,4074.932515548646
844,4074.932515548646
907,0.0
908,0.0
971,0.0
972,0.0
1195,2209.418689033115
1197,2209.418689033115
2,1,12,15, 0,18, 0.00,60.00,Monday
7,-8.9
718,19.716477711069317
719,-4.394933163939884
720,15.593733588949855
619,3704.7228138050386
633,1347.1734033108953
659,17.588268043804334
661,0.0
690,148.3599726019572
716,0.0
843,4105.48002407571
844,4105.48002407571
907,0.0
908,0.0
971,0.0
972,0.0
1195,2355.011476568731
1197,2355.011476568731
2,1,12,15, 0,19, 0.00,60.00,Monday
7,-8.3
718,19.710607490946675
719,-4.7065690193048635
720,15.519420592971157
619,3748.1082203122087
633,1345.4149034816658
659,24.245228673686036
661,0.0
690,148.3599726019572
716,85.44000000000004
843,4120.18859994402
844,4120.18859994402
907,0.0
908,0.0
971,0.0
972,0.0
1195,3480.5129397780815
1197,3480.5129397780815
2,1,12,15, 0,20, 0.00,60.00,Monday
7,-8.3
718,19.71017804061385
719,-3.7871496447995883
720,15.437594091403762
619,3654.06086077464
633,1311.4076600990475
659,49.61430285317159
661,0.0
690,148.3599726019572
716,85.44000000000004
843,2730.6956040759487
844,2730.6956040759487
907,0.0
908,0.0
971,0.0
972,0.0
1195,1957.4845810072782
1197,1957.4845810072782
2,1,12,15, 0,21, 0.00,60.00,Monday
7,-9.4
718,19.713955354925126
719,-4.625112538287303
720,15.332151059878509
619,3665.969044800729
633,1347.07724532311
659,12.828286282364504
661,0.0
690,148.3599726019572
716,53.25911540354873
843,2987.1282510122383
844,2987.1282510122383
907,0.0
908,0.0
971,0.0
972,0.0
1195,1739.8897792324078
1197,1739.8897792324078
2,1,12,15, 0,22, 0.00,60.00,Monday
7,-9.4
718,19.71303407633629
719,-5.599882947872526
720,15.227308431502546
619,3653.0046049819234
633,1342.1926235991325
659,16.46056489808086
661,0.0
690,148.3599726019572
716,0.0
843,4304.056003967295
844,4304.056003967295
907,0.0
908,0.0
971,0.0
972,0.0
1195,2672.8152315606076
1197,2672.8152315606076
2,1,12,15, 0,23, 0.00,60.00,Monday
7,-10.0
718,18.95476318592351
719,-6.387147926175204
720,15.11950165254908
619,3578.8019875554214
633,1331.982301407915
659,18.58547913570614
661,0.0
690,148.3599726019572
716,0.0
843,3080.726404440542
844,3080.726404440542
907,0.0
908,0.0
971,0.0
972,0.0
1195,1335.5937289846247
1197,1335.5937289846247
2,1,12,15, 0,24, 0.00,60.00,Monday
7,-11.1
718,18.715816421757992
719,-7.209692501702155
720,14.96758907233361
619,3538.7454622301607
633,1323.7767796318742
659,0.07146788989460141
661,0.0
690,148.3599726019572
716,0.0
843,4022.1750724401445
844,4022.1750724401445
907,0.0
908,0.0
971,0.0
972,0.0
1195,2491.418544919921
1197,2491.418544919921
2,2,12,16, 0, 1, 0.00,60.00,Tuesday
7,-11.7
718,18.636008730611774
719,-7.630601109896768
720,14.84393621625356
619,3478.3174044816797
633,1310.480784213553
659,0.07146788989460141
661,0.0
690,148.3599726019572
716,0.0
843,4471.632838123547
844,4471.632838123547
907,0.0
908,0.0
971,0.0
972,0.0
1195,3107.7236313129915
1197,3107.7236313129915
2,2,12,16, 0, 2, 0.00,60.00,Tuesday
7,-12.2
718,18.61295871868883
719,-8.114170313881006
720,14.713025218589667
619,3425.800889697641
633,1302.3185600041977
659,0.07146788989460141
661,0.0
690,148.3599726019572
716,0.0
843,4905.246210297184
844,4905.246210297184
907,0.0
908,0.0
971,0.0
972,0.0
1195,3712.5733401874672
1197,3712.5733401874672
2,2,12,16, 0, 3, 0.00,60.00,Tuesday
7,-12.8
718,18.60105048503286
719,-8.46765309960914
720,14.581568680446113
619,3358.3358747988964
633,1292.9201209644589
659,1.130183275981708
661,0.0
690,148.3599726019572
716,0.0
843,5417.410232195603
844,5417.410232195603
907,0.0
908,0.0
971,0.0
972,0.0
1195,4406.4807215569235
1197,4406.4807215569235
2,2,12,16, 0, 4, 0.00,60.00,Tuesday
7,-13.3
718,18.604214845324435
719,-8.616482776513918
720,14.451531413745112
619,3306.573962164971
633,1286.7443819120679
659,0.7744394675443588
661,0.0
690,148.3599726019572
716,0.0
843,5331.806319199328
844,5331.806319199328
907,0.0
908,0.0
971,0.0
972,0.0
1195,4393.775174990493
1197,4393.775174990493
2,2,12,16, 0, 5, 0.00,60.00,Tuesday
7,-13.9
718,18.596563444292983
719,-9.47828198535765
720,14.314371043566528
619,3245.5312874942965
633,1280.010526307014
659,0.07146788989460141
661,0.0
690,148.3599726019572
716,0.0
843,5969.0992113231605
844,5969.0992113231605
907,0.0
908,0.0
971,0.0
972,0.0
1195,5214.122161298489
1197,5214.122161298489
2,2,12,16, 0, 6, 0.00,60.00,Tuesday
7,-14.4
718,19.38633537965883
719,-9.567879691732475
720,14.184815219473098
619,3193.578181603799
633,1273.3425587541885
659,0.07146788989460141
661,0.0
690,148.3599726019572
716,0.0
843,6697.568400949207
844,6697.568400949207
907,0.0
908,0.0
971,0.0
972,0.0
1195,6213.454318593991
1197,6213.454318593991
2,2,12,16, 0, 7, 0.00,60.00,Tuesday
7,-14.4
718,19.518860441292954
719,-9.277624771790263
720,14.093131897281383
619,3171.371189749926
633,1289.1119902245762
659,1.652504489865848
661,0.0
690,148.3599726019572
716,85.44000000000004
843,6023.608194497789
844,6023.608194497789
907,0.0
908,0.0
971,0.0
972,0.0
1195,6396.941646920142
1197,6396.941646920142
2,2,12,16, 0, 8, 0.00,60.00,Tuesday
7,-13.9
718,19.628777725691187
719,-8.464532830575784
720,13.97355756849103
619,3216.9267822011907
633,1297.0976040522917
659,2.8499533955417458
661,0.0
690,148.3599726019572
716,85.44000000000004
843,5588.155475132338
844,5588.155475132338
907,0.0
908,0.0
971,0.0
972,0.0
1195,6075.1690260423475
1197,6075.1690260423475
2,2,12,16, 0, 9, 0.00,60.00,Tuesday
7,-12.8
718,19.67751108681314
719,-8.198155326231475
720,13.865651045543109
619,3339.92098779541
633,1317.2920043614722
659,0.07146788989460141
661,0.0
690,148.3599726019572
716,85.44000000000004
843,5014.0707203316015
844,5014.0707203316015
907,0.0
908,0.0
971,0.0
972,0.0
1195,5209.995302563566
1197,5209.995302563566
2,2,12,16, 0,10, 0.00,60.00,Tuesday
7,-11.1
718,19.712593163486233
719,-6.722891416534845
720,13.77069370926438
619,3523.903831393589
633,1339.8702092736464
659,0.07146788989460141
661,0.0
690,148.3599726019572
716,23.23279107793092
843,3926.076385386854
844,3926.076385386854
907,0.0
908,0.0
971,0.0
972,0.0
1195,2872.045397441904
1197,2872.045397441904
2,2,12,16, 0,11, 0.00,60.00,Tuesday
7,-10.6
718,19.716002114823265
719,-5.771272054585902
720,13.682931914608334
619,3578.7375927215835
633,1346.7991840436816
659,0.07146788989460141
661,0.0
690,148.3599726019572
716,0.0
843,3597.7298867982627
844,3597.7298867982627
907,0.0
908,0.0
971,0.0
972,0.0
1195,2055.0200802245163
1197,2055.0200802245163
2,2,12,16, 0,12, 0.00,60.00,Tuesday
7,-9.4
718,19.7224981422676
719,-4.250303024220962
720,13.632013425072147
619,3713.941941832829
633,1361.5218449887268
659,0.07146788989460141
661,0.0
690,148.3599726019572
716,0.0
843,3085.4798272835214
844,3085.4798272835214
907,0.0
908,0.0
971,0.0
972,0.0
1195,1265.6420795426352
1197,1265.6420795426352
2,2,12,16, 0,13, 0.00,60.00,Tuesday
7,-8.9
718,19.72248623371989
719,-2.8118464424593905
720,13.601666093702914
619,3771.0058739740207
633,1367.713408796309
659,0.07146788989460141
661,0.0
690,148.3599726019572
716,0.0
843,2546.3393072659273
844,2546.3393072659273
907,0.0
908,0.0
971,0.0
972,0.0
1195,478.43224949212436
1197,478.43224949212436
2,2,12,16, 0,14, 0.00,60.00,Tuesday
7,-8.9
718,19.7239602798637
719,-2.156796150378799
720,13.58791854524661
619,3771.0459432275247
633,1367.6685946107434
659,0.07146788989460141
661,0.0
690,148.3599726019572
716,0.0
843,2415.3549001631072
844,2415.3549001631072
907,0.0
908,0.0
971,0.0
972,0.0
1195,245.93855812448055
1197,245.93855812448055
2,2,12,16, 0,15, 0.00,60.00,Tuesday
7,-8.9
718,19.87213687941374
719,-0.6373007317222139
720,13.553325471569467
619,2164.7601635559254
633,824.0920153800815
659,0.04304809518623058
661,79.53164631076544
690,89.36162117958114
716,0.0
843,1264.1705720061145
844,1264.1705720061145
907,0.0
908,0.0
971,0.0
972,0.0
1195,0.0
1197,0.0
2,2,12,16, 0,16, 0.00,60.00,Tuesday
7,-9.4
718,19.67274989024977
719,-2.475670141607962
720,13.565300375192752
619,1870.6505766979642
633,728.423271165102
659,0.03811441297371957
661,93.33835648448694
690,79.11993457083042
716,0.0
843,1132.600285332197
844,1132.600285332197
907,0.0
908,0.0
971,0.0
972,0.0
1195,0.0
1197,0.0
2,2,12,16, 0,17, 0.00,60.00,Tuesday
7,-10.0
718,19.72599954106946
719,-2.8636329643704106
720,13.595653181029306
619,2403.6845937951894
633,927.4500453043795
659,2.4864823996763787
661,62.46216807385188
690,101.91126882996343
716,0.0
843,1413.9966258754885
844,1413.9966258754885
907,0.0
908,0.0
971,0.0
972,0.0
1195,0.0
1197,0.0
2,2,12,16, 0,18, 0.00,60.00,Tuesday
7,-10.6
718,19.564026159238466
719,-4.292561961179733
720,13.638413255451539
619,3553.4461595268754
633,1337.4781115916307
659,7.3360672373474545
661,0.0
690,148.3599726019572
716,0.0
843,2148.427772300751
844,2148.427772300751
907,0.0
908,0.0
971,0.0
972,0.0
1195,138.15826221126326
1197,138.15826221126326
2,2,12,16, 0,19, 0.00,60.00,Tuesday
7,-11.1
718,19.63270458725093
719,-5.488304601180803
720,13.62010868998096
619,3497.1963528381852
633,1325.5730552791279
659,8.734183506205103
661,0.0
690,148.3599726019572
716,85.44000000000004
843,2487.408249589762
844,2487.408249589762
907,0.0
908,0.0
971,0.0
972,0.0
1195,1768.178193355017
1197,1768.178193355017
2,2,12,16, 0,20, 0.00,60.00,Tuesday
7,-11.7
718,19.661737583292663
719,-5.903711688755152
720,13.595467267505178
619,3420.104341066071
633,1315.8590628616016
659,11.776360146691152
661,0.0
690,148.3599726019572
716,85.44000000000004
843,2732.52511150749
844,2732.52511150749
907,0.0
908,0.0
971,0.0
972,0.0
1195,2295.9831820335903
1197,2295.9831820335903
2,2,12,16, 0,21, 0.00,60.00,Tuesday
7,-12.2
718,19.687735218389268
719,-6.467689068785504
720,13.54454385211226
619,3359.29776602308
633,1307.7615320374844
659,13.722192202609008
661,0.0
690,148.3599726019572
716,85.44000000000004
843,3052.9242965842204
844,3052.9242965842204
907,0.0
908,0.0
971,0.0
972,0.0
1195,2759.836482392842
1197,2759.836482392842
2,2,12,16, 0,22, 0.00,60.00,Tuesday
7,-13.9
718,19.70037699989606
719,-8.041683315453534
720,13.46844553127837
619,3159.518446881732
633,1278.2597223415803
659,20.27756216022038
661,0.0
690,148.3599726019572
716,35.05659265428872
843,3762.8824934848126
844,3762.8824934848126
907,0.0
908,0.0
971,0.0
972,0.0
1195,3098.8292678159087
1197,3098.8292678159087
2,2,12,16, 0,23, 0.00,60.00,Tuesday
7,-14.4
718,18.953730746774955
719,-8.048372094714397
720,13.39541921371461
619,3113.9576078253854
633,1274.3403103564272
659,18.375320258040073
661,0.0
690,148.3599726019572
716,0.0
843,3119.5942231044264
844,3119.5942231044264
907,0.0
908,0.0
971,0.0
972,0.0
1195,2027.5012738262994
1197,2027.5012738262994
2,2,12,16, 0,24, 0.00,60.00,Tuesday
7,-14.4
718,18.71785110667521
719,-8.741595249609842
720,13.27434675664688
619,3130.362826655662
633,1257.6249150347944
659,18.371712917753648
661,0.0
690,148.3599726019572
716,0.0
843,3754.3714542028065
844,3754.3714542028065
907,0.0
908,0.0
971,0.0
972,0.0
1195,2717.7385789495843
1197,2717.7385789495843
2,3,12,17, 0, 1, 0.00,60.00,Wednesday
7,-15.0
718,18.634322408314258
719,-9.097938326419335
720,13.169303955648841
619,3078.5288453119674
633,1246.2424040277497
659,17.086379935817885
661,0.0
690,148.3599726019572
716,0.0
843,4418.100442888608
844,4418.100442888608
907,0.0
908,0.0
971,0.0
972,0.0
1195,3572.794056428608
1197,3572.794056428608
2,3,12,17, 0, 2, 0.00,60.00,Wednesday
7,-14.4
718,18.612525766017484
719,-9.058861305063322
720,13.06709263811007
619,3146.8522240454668
633,1253.9660277287087
659,15.361065310532874
661,0.0
690,148.3599726019572
716,0.0
843,4728.244514368624
844,4728.244514368624
907,0.0
908,0.0
971,0.0
972,0.0
1195,3905.4607933136663
1197,3905.4607933136663
2,3,12,17, 0, 3, 0.00,60.00,Wednesday
7,-13.9
718,18.60240855725794
719,-8.888725025632077
720,12.961511631560516
619,3195.022982472286
633,1258.0466131154476
659,16.608627160221527
661,0.0
690,148.3599726019572
716,0.0
843,4899.371877350002
844,4899.371877350002
907,0.0
908,0.0
971,0.0
972,0.0
1195,4040.9851673523294
1197,4040.9851673523294
2,3,12,17, 0, 4, 0.00,60.00,Wednesday
7,-13.3
718,18.604709484858223
719,-8.352742366432155
720,12.858187978974374
619,3253.6365753636314
633,1263.457180605186
659,17.891435913688113
661,0.0
690,148.3599726019572
716,0.0
843,4953.808866707686
844,4953.808866707686
907,0.0
908,0.0
971,0.0
972,0.0
1195,4054.7832748074106
1197,4054.7832748074106
2,3,12,17, 0, 5, 0.00,60.00,Wednesday
7,-12.8
718,18.60204320640087
719,-7.237193425944215
720,12.756772458046978
619,3302.4829468375183
633,1268.034962991057
659,19.019790893418037
661,0.0
690,148.3599726019572
716,0.0
843,4777.065384424013
844,4777.065384424013
907,0.0
908,0.0
971,0.0
972,0.0
1195,3749.788949807691
1197,3749.788949807691
2,3,12,17, 0, 6, 0.00,60.00,Wednesday
7,-12.8
718,19.263940896036896
719,-6.600618168579443
720,12.653891763221264
619,3289.538777472111
633,1262.7733428893537
659,23.058112034043976
661,0.0
690,148.3599726019572
716,79.89234557671284
843,6098.8113663971635
844,6098.8113663971635
907,0.0
908,0.0
971,0.0
972,0.0
1195,6247.683693755511
1197,6247.683693755511
2,3,12,17, 0, 7, 0.00,60.00,Wednesday
7,-12.2
718,19.53502412647581
719,-6.119826005086399
720,12.59258368728175
619,3348.0569825168295
633,1288.9233469886672
659,20.15612606937186
661,0.0
690,148.3599726019572
716,85.44000000000004
843,5805.251140838425
844,5805.251140838425
907,0.0
908,0.0
971,0.0
972,0.0
1195,6035.244689284102
1197,6035.244689284102
2,3,12,17, 0, 8, 0.00,60.00,Wednesday
7,-12.2
718,19.63973063613482
719,-5.512466457681598
720,12.50951337691567
619,3342.1826079755674
633,1295.2128861722776
659,20.148421970542888
661,0.0
690,148.3599726019572
716,72.38546236893147
843,5658.6153419274615
844,5658.6153419274615
907,0.0
908,0.0
971,0.0
972,0.0
1195,5728.113338104323
1197,5728.113338104323
2,3,12,17, 0, 9, 0.00,60.00,Wednesday
7,-11.7
718,19.691935200871026
719,-6.505292314374885
720,12.434419418817878
619,3398.799294457475
633,1305.848240748679
659,18.51304920832624
661,0.0
690,148.3599726019572
716,0.0
843,5347.431624954603
844,5347.431624954603
907,0.0
908,0.0
971,0.0
972,0.0
1195,4274.790211985436
1197,4274.790211985436
2,3,12,17, 0,10, 0.00,60.00,Wednesday
7,-10.6
718,19.710136730317785
719,-4.537925997356679
720,12.365896494605803
619,3507.7318610460975
633,1316.9748609567412
659,21.186174308895414
661,0.0
690,148.3599726019572
716,0.0
843,5114.33654332287
844,5114.33654332287
907,0.0
908,0.0
971,0.0
972,0.0
1195,3980.7794887117107
1197,3980.7794887117107
2,3,12,17, 0,11, 0.00,60.00,Wednesday
7,-9.4
718,19.71675256362789
719,-2.8634970702255416
720,12.30963072378088
619,3628.0436352100355
633,1327.4494626888136
659,24.459482040177917
661,0.0
690,148.3599726019572
716,0.0
843,4098.52384071163
844,4098.52384071163
907,0.0
908,0.0
971,0.0
972,0.0
1195,2519.166606901082
1197,2519.166606901082
2,3,12,17, 0,12, 0.00,60.00,Wednesday
7,-8.9
718,19.72256203934506
719,-0.550237919876411
720,12.264989041428192
619,3709.597955482365
633,1342.8505205967765
659,17.37931332000175
661,0.0
690,148.3599726019572
716,0.0
843,3712.6138025389846
844,3712.6138025389846
907,0.0
908,0.0
971,0.0
972,0.0
1195,1888.7539606589187
1197,1888.7539606589187
2,3,12,17, 0,13, 0.00,60.00,Wednesday
7,-8.3
718,19.7175844763635
719,0.1162154820605139
720,12.232762575142502
619,3786.873401892242
633,1353.3462727147232
659,14.891123087283319
661,0.0
690,148.3599726019572
716,0.0
843,3937.695948012055
844,3937.695948012055
907,0.0
908,0.0
971,0.0
972,0.0
1195,1948.0495046637973
1197,1948.0495046637973
2,3,12,17, 0,14, 0.00,60.00,Wednesday
7,-7.8
718,19.721992098747855
719,1.5583617742353795
720,12.208627918152738
619,3839.663694740847
633,1357.4351180218512
659,16.151250368525396
661,0.0
690,148.3599726019572
716,0.0
843,3605.745471354725
844,3605.745471354725
907,0.0
908,0.0
971,0.0
972,0.0
1195,1465.827669830905
1197,1465.827669830905
2,3,12,17, 0,15, 0.00,60.00,Wednesday
7,-7.8
718,19.71434606799802
719,1.387832010016867
720,12.186528534343708
619,3855.7444117566024
633,1363.1651763246343
659,11.8825294748686
661,0.0
690,148.3599726019572
716,73.03267628607136
843,3797.1640615509295
844,3797.1640615509295
907,0.0
908,0.0
971,0.0
972,0.0
1195,2526.5564779171846
1197,2526.5564779171846
2,3,12,17, 0,16, 0.00,60.00,Wednesday
7,-7.8
718,19.707780802243533
719,1.6886023502996494
720,12.1739941545592
619,3871.5484174855214
633,1368.4916953046002
659,7.741564826529885
661,0.0
690,148.3599726019572
716,82.11932313005701
843,3412.0773199732284
844,3412.0773199732284
907,0.0
908,0.0
971,0.0
972,0.0
1195,2191.93732008024
1197,2191.93732008024
2,3,12,17, 0,17, 0.00,60.00,Wednesday
7,-7.8
718,19.7198038154722
719,1.1342880276901879
720,12.163842815176151
619,3855.986568207946
633,1362.7675557094071
659,11.904418585594897
661,0.0
690,148.3599726019572
716,0.0
843,3062.7689949771066
844,3062.7689949771066
907,0.0
908,0.0
971,0.0
972,0.0
1195,711.4433780166437
1197,711.4433780166437
2,3,12,17, 0,18, 0.00,60.00,Wednesday
7,-7.2
718,19.71946917394679
719,-0.5065397613836943
720,12.159166551077899
619,3937.7949311253774
633,1374.4464826674653
659,8.69972572198778
661,0.0
690,148.3599726019572
716,0.0
843,3201.764499222083
844,3201.764499222083
907,0.0
908,0.0
971,0.0
972,0.0
1195,831.4597249521603
1197,831.4597249521603
2,3,12,17, 0,19, 0.00,60.00,Wednesday
7,-7.0
718,19.71879635228379
719,-1.3957869328057821
720,12.14543383138962
619,3891.3895659859427
633,1352.4927325205222
659,26.784511466112424
661,0.0
690,148.3599726019572
716,0.0
843,3260.2313925232465
844,3260.2313925232465
907,0.0
908,0.0
971,0.0
972,0.0
1195,1036.710463014886
1197,1036.710463014886
2,3,12,17, 0,20, 0.00,60.00,Wednesday
7,-7.2
718,19.703017666924946
719,-0.9607974775814448
720,12.12562883073716
619,3785.8326225381234
633,1321.3573511747093
659,48.25581068533407
661,0.0
690,148.3599726019572
716,85.44000000000004
843,2921.1493387405044
844,2921.1493387405044
907,0.0
908,0.0
971,0.0
972,0.0
1195,2002.764691729431
1197,2002.764691729431
2,3,12,17, 0,21, 0.00,60.00,Wednesday
7,-7.2
718,19.709068228279452
719,-1.5089377615752404
720,12.097896765183592
619,3785.3063462530504
633,1320.6142521719846
659,48.49039798916393
661,0.0
690,148.3599726019572
716,85.44000000000004
843,3056.041468288726
844,3056.041468288726
907,0.0
908,0.0
971,0.0
972,0.0
1195,2116.1613307887246
1197,2116.1613307887246
2,3,12,17, 0,22, 0.00,60.00,Wednesday
7,-7.2
718,19.71288067619331
719,-2.4801885625427356
720,12.065881333068692
619,3785.2277583658697
633,1320.7040165690892
659,48.49039798916393
661,0.0
690,148.3599726019572
716,30.692400352898336
843,3338.3053055417695
844,3338.3053055417695
907,0.0
908,0.0
971,0.0
972,0.0
1195,1684.3423023395248
1197,1684.3423023395248
2,3,12,17, 0,23, 0.00,60.00,Wednesday
7,-7.2
718,18.955083487697614
719,-2.253881384633127
720,12.029554849294923
619,3759.1354729685186
633,1311.653505118972
659,55.27092418561006
661,0.0
690,148.3599726019572
716,0.0
843,2779.171156415856
844,2779.171156415856
907,0.0
908,0.0
971,0.0
972,0.0
1195,709.3879279580638
1197,709.3879279580638
2,3,12,17, 0,24, 0.00,60.00,Wednesday
7,-7.2
718,18.72448902794348
719,-2.3858051486816363
720,11.954336062729256
619,3775.7185967861187
633,1292.7034055053757
659,55.27092418561006
661,0.0
690,148.3599726019572
716,0.0
843,2956.402268173324
844,2956.402268173324
907,0.0
908,0.0
971,0.0
972,0.0
1195,827.1108569515782
1197,827.1108569515782
2,4,12,18, 0, 1, 0.00,60.00,Thursday
7,-6.7
718,18.643109570657003
719,-2.270924582054947
720,11.906622897539577
619,3826.30077547961
633,1288.7051721663056
659,58.010680377779444
661,0.0
690,148.3599726019572
716,0.0
843,3426.1348662961027
844,3426.1348662961027
907,0.0
908,0.0
971,0.0
972,0.0
1195,1322.7603187765571
1197,1322.7603187765571
2,4,12,18, 0, 2, 0.00,60.00,Thursday
7,-5.6
718,18.618544724795626
719,-1.5292418996295256
720,11.860742280795886
619,3927.1310694909926
633,1290.0110163963857
659,64.42633949517844
661,0.0
690,148.3599726019572
716,0.0
843,3687.519236161821
844,3687.519236161821
907,0.0
908,0.0
971,0.0
972,0.0
1195,1528.4286388850542
1197,1528.4286388850542
2,4,12,18, 0, 3, 0.00,60.00,Thursday
7,-5.6
718,18.609791247838125
719,-1.0475424789014716
720,11.809613669336576
619,3897.159672696742
633,1279.3124822941595
659,71.96370995953173
661,0.0
690,148.3599726019572
716,0.0
843,3779.682194105664
844,3779.682194105664
907,0.0
908,0.0
971,0.0
972,0.0
1195,1618.2180799314183
1197,1618.2180799314183
2,4,12,18, 0, 4, 0.00,60.00,Thursday
7,-5.0
718,18.61165765733041
719,-0.4030229866324993
720,11.767925014873214
619,3955.2052907595007
633,1282.139915022228
659,74.46836821788246
661,0.0
690,148.3599726019572
716,0.0
843,3480.717993075941
844,3480.717993075941
907,0.0
908,0.0
971,0.0
972,0.0
1195,1177.4878157481498
1197,1177.4878157481498
2,4,12,18, 0, 5, 0.00,60.00,Thursday
7,-4.4
718,18.610163443909503
719,-0.18515255726523808
720,11.727046950675552
619,4038.8353281324053
633,1293.3978048550173
659,70.89325122052203
661,0.0
690,148.3599726019572
716,0.0
843,3267.5045200847817
844,3267.5045200847817
907,0.0
908,0.0
971,0.0
972,0.0
1195,799.1926867513407
1197,799.1926867513407
2,4,12,18, 0, 6, 0.00,60.00,Thursday
7,-4.4
718,19.376879682515057
719,0.22587273700611565
720,11.686262500719772
619,4006.376174001178
633,1282.8636172766178
659,78.6517944693195
661,0.0
690,148.3599726019572
716,0.0
843,4363.554502936264
844,4363.554502936264
907,0.0
908,0.0
971,0.0
972,0.0
1195,2131.308098284236
1197,2131.308098284236
2,4,12,18, 0, 7, 0.00,60.00,Thursday
7,-4.4
718,19.577932076819895
719,0.9693145999611207
720,11.687814836932814
619,3989.8955318886647
633,1302.1423131807335
659,78.6517944693195
661,0.0
690,148.3599726019572
716,85.44000000000004
843,3940.6540327181774
844,3940.6540327181774
907,0.0
908,0.0
971,0.0
972,0.0
1195,2903.860096647204
1197,2903.860096647204
2,4,12,18, 0, 8, 0.00,60.00,Thursday
7,-3.9
718,19.65176564319346
719,0.7584040008136291
720,11.664757901344625
619,4093.153192862669
633,1329.0818698438914
659,66.78925670414718
661,0.0
690,148.3599726019572
716,85.44000000000004
843,3628.2173274772886
844,3628.2173274772886
907,0.0
908,0.0
971,0.0
972,0.0
1195,2454.0193204812376
1197,2454.0193204812376
2,4,12,18, 0, 9, 0.00,60.00,Thursday
7,-3.9
718,19.691410563516207
719,0.7106038099108284
720,11.64247282363025
619,4091.5581914974823
633,1330.9567730485694
659,66.78925670414718
661,0.0
690,148.3599726019572
716,67.0377302561071
843,3614.7194833068224