Program Version,EnergyPlus, Version 22.2.0-c249759bad, YMD=2023.09.01 14:30
1,5,Environment Title[],Latitude[deg],Longitude[deg],Time Zone[],Elevation[m]
2,8,Day of Simulation[],Month[],Day of Month[],DST Indicator[1=yes 0=no],Hour[],StartMinute[],EndMinute[],DayType
3,5,Cumulative Day of Simulation[],Month[],Day of Month[],DST Indicator[1=yes 0=no],DayType  ! When Daily Report Variables Requested
4,2,Cumulative Days of Simulation[],Month[]  ! When Monthly Report Variables Requested
5,1,Cumulative Days of Simulation[] ! When Run Period Report Variables Requested
6,1,Calendar Year of Simulation[] ! When Annual Report Variables Requested
7,1,Environment,Site Outdoor Air Drybulb Temperature [C] !Hourly
619,1,DX_HEATING_COIL,Heating Coil Heating Rate [W] !Hourly
633,1,DX_HEATING_COIL,Heating Coil Electricity Rate [W] !Hourly
659,1,DX_HEATING_COIL,Heating Coil Defrost Electricity Rate [W] !Hourly
661,1,DX_HEATING_COIL,Heating Coil Crankcase Heater Electricity Rate [W] !Hourly
690,1,FAN,Fan Electricity Rate [W] !Hourly
716,1,HEAT PUMP WATER HEATER FAN,Fan Electricity Rate [W] !Hourly
718,1,LIVING,Zone Mean Air Temperature [C] !Hourly
719,1,ATTIC,Zone Mean Air Temperature [C] !Hourly
720,1,CRAWLSPACE,Zone Mean Air Temperature [C] !Hourly
843,1,LIVING,Zone Predicted Sensible Load to Heating Setpoint Heat Transfer Rate [W] !Hourly
844,1,LIVING,Zone System Predicted Sensible Load to Heating Setpoint Heat Transfer Rate [W] !Hourly
907,1,ATTIC,Zone Predicted Sensible Load to Heating Setpoint Heat Transfer Rate [W] !Hourly
908,1,ATTIC,Zone System Predicted Sensible Load to Heating Setpoint Heat Transfer Rate [W] !Hourly
971,1,CRAWLSPACE,Zone Predicted Sensible Load to Heating Setpoint Heat Transfer Rate [W] !Hourly
972,1,CRAWLSPACE,Zone System Predicted Sensible Load to Heating Setpoint Heat Transfer Rate [W] !Hourly
1195,1,HEATING_RESISTANCE_BACKUP,Heating Coil Heating Rate [W] !Hourly
1197,1,HEATING_RESISTANCE_BACKUP,Heating Coil Electricity Rate [W] !Hourly
End of Data Dictionary
1,EXTREME_WINTER,  38.68,-121.58,  -8.00,   8.00
2,1,12,22, 0, 1, 0.00,60.00,Monday
7,5.6
718,20.047190826628782
719,5.515242176099634
720,19.90508530486716
619,0.0
633,0.0
659,0.0
661,200.0
690,0.0
716,0.0
843,-1098.5839659328012
844,-1098.5839659328012
907,0.0
908,0.0
971,0.0
972,0.0
1195,0.0
1197,0.0
2,1,12,22, 0, 2, 0.00,60.00,Monday
7,6.0
718,19.54163210316281
719,5.977203853016581
720,19.685038683280798
619,0.0
633,0.0
659,0.0
661,200.0
690,0.0
716,0.0
843,-695.2995859254261
844,-695.2995859254261
907,0.0
908,0.0
971,0.0
972,0.0
1195,0.0
1197,0.0
2,1,12,22, 0, 3, 0.00,60.00,Monday
7,5.6
718,18.894234949242765
719,5.934095808749659
720,19.537719466732618
619,0.0
633,0.0
659,0.0
661,200.0
690,0.0
716,0.0
843,-196.76228309349608
844,-196.76228309349608
907,0.0
908,0.0
971,0.0
972,0.0
1195,0.0
1197,0.0
2,1,12,22, 0, 4, 0.00,60.00,Monday
7,6.0
718,18.611583929828722
719,6.2589691725116134
720,19.386940856531982
619,251.56241436673685
633,69.93568634884146
659,0.0
661,192.41674568027761
690,6.394606851535198
716,0.0
843,202.4721612580961
844,202.4721612580961
907,0.0
908,0.0
971,0.0
972,0.0
1195,0.0
1197,0.0
2,1,12,22, 0, 5, 0.00,60.00,Monday
7,5.6
718,18.486967909455977
719,6.423764720251359
720,19.246670265488422
619,521.7385940629896
633,144.26518050625992
659,0.0
661,184.20458605288647
690,13.319540396575317
716,0.0
843,408.434652556959
844,408.434652556959
907,0.0
908,0.0
971,0.0
972,0.0
1195,0.0
1197,0.0
2,1,12,22, 0, 6, 0.00,60.00,Monday
7,5.6
718,19.496789621766954
719,6.568012994113144
720,19.093340325973696
619,1569.7396669210152
633,425.25572495555986
659,0.0
661,153.31910527298726
690,39.363834664070296
716,0.0
843,1270.0158378398892
844,1270.0158378398892
907,0.0
908,0.0
971,0.0
972,0.0
1195,0.0
1197,0.0
2,1,12,22, 0, 7, 0.00,60.00,Monday
7,5.0
718,19.49822227757707
719,6.83676188176916
720,18.937123524183885
619,3370.7890169349444
633,985.017165939955
659,95.91487855986028
661,71.77002840597126
690,107.70532668023004
716,85.44000000000005
843,1540.3653972059165
844,1540.3653972059165
907,0.0
908,0.0
971,0.0
972,0.0
1195,0.0
1197,0.0
2,1,12,22, 0, 8, 0.00,60.00,Monday
7,4.4
718,19.61539655348166
719,6.076213575021601
720,18.829631394421888
619,3004.0215254466334
633,893.0608908220862
659,87.02069845413469
661,83.11809894350459
690,98.06458998196563
716,41.54320145526593
843,1791.0236784862063
844,1791.0236784862063
907,0.0
908,0.0
971,0.0
972,0.0
1195,0.0
1197,0.0
2,1,12,22, 0, 9, 0.00,60.00,Monday
7,5.6
718,19.86562814826611
719,6.910775931178702
720,18.763697167961446
619,1387.5674541001476
633,386.9891518346895
659,0.0
661,158.41251352586735
690,35.068799585683855
716,0.0
843,1096.7129332622808
844,1096.7129332622808
907,0.0
908,0.0
971,0.0
972,0.0
1195,0.0
1197,0.0
2,1,12,22, 0,10, 0.00,60.00,Monday
7,6.0
718,19.867129100421792
719,8.603697339903391
720,18.677535524680984
619,221.32416321914408
633,62.935804970941525
659,0.0
661,193.29707544430454
690,5.652265568582805
716,0.0
843,174.20963210850823
844,174.20963210850823
907,0.0
908,0.0
971,0.0
972,0.0
1195,0.0
1197,0.0
2,1,12,22, 0,11, 0.00,60.00,Monday
7,8.3
718,20.326996984927707
719,10.88424577433072
720,18.606175358339502
619,0.0
633,0.0
659,0.0
661,200.0
690,0.0
716,0.0
843,-649.9976955435704
844,-649.9976955435704
907,0.0
908,0.0
971,0.0
972,0.0
1195,0.0
1197,0.0
2,1,12,22, 0,12, 0.00,60.00,Monday
7,10.0
718,20.98939401281826
719,13.53694903119111
720,18.566469458718434
619,0.0
633,0.0
659,0.0
661,0.0
690,0.0
716,0.0
843,-1032.653104710731
844,-1032.653104710731
907,0.0
908,0.0
971,0.0
972,0.0
1195,0.0
1197,0.0
2,1,12,22, 0,13, 0.00,60.00,Monday
7,12.2
718,22.054068125647188
719,16.227351761197276
720,18.54988292936475
619,0.0
633,0.0
659,0.0
661,0.0
690,0.0
716,0.0
843,-1848.567683827332
844,-1848.567683827332
907,0.0
908,0.0
971,0.0
972,0.0
1195,0.0
1197,0.0
2,1,12,22, 0,14, 0.00,60.00,Monday
7,12.2
718,21.760882924870646
719,17.161504350091725
720,18.5536255126397
619,0.0
633,0.0
659,0.0
661,0.0
690,0.0
716,64.252997703623
843,-2418.643699298198
844,-2418.643699298198
907,0.0
908,0.0
971,0.0
972,0.0
1195,0.0
1197,0.0
2,1,12,22, 0,15, 0.00,60.00,Monday
7,12.2
718,23.332279471134978
719,16.970325375591443
720,18.57478569820025
619,0.0
633,0.0
659,0.0
661,0.0
690,0.18642479646976987
716,0.0
843,-3512.874217090759
844,-3512.874217090759
907,0.0
908,0.0
971,0.0
972,0.0
1195,0.0
1197,0.0
2,1,12,22, 0,16, 0.00,60.00,Monday
7,11.7
718,23.611212908122894
719,16.84833565209859
720,18.64315207538707
619,0.0
633,0.0
659,0.0
661,0.0
690,14.88372336943276
716,0.0
843,-3455.1562750339035
844,-3455.1562750339035
907,0.0
908,0.0
971,0.0
972,0.0
1195,0.0
1197,0.0
2,1,12,22, 0,17, 0.00,60.00,Monday
7,9.4
718,23.08074525092953
719,13.987624369081791
720,18.70020967946101
619,0.0
633,0.0
659,0.0
661,178.34002023523004
690,18.264856902884695
716,0.0
843,-3795.437798934634
844,-3795.437798934634
907,0.0
908,0.0
971,0.0
972,0.0
1195,0.0
1197,0.0
2,1,12,22, 0,18, 0.00,60.00,Monday
7,6.7
718,23.34674586122595
719,11.074112794457637
720,18.730765283110202
619,0.0
633,0.0
659,0.0
661,200.0
690,0.0
716,0.0
843,-3307.3588188693757
844,-3307.3588188693757
907,0.0
908,0.0
971,0.0
972,0.0
1195,0.0
1197,0.0
2,1,12,22, 0,19, 0.00,60.00,Monday
7,6.1
718,22.210258228435794
719,8.44290753220238
720,18.758039019276307
619,0.0
633,0.0
659,0.0
661,200.0
690,0.0
716,74.44476935043444
843,-2738.6165351469735
844,-2738.6165351469735
907,0.0
908,0.0
971,0.0
972,0.0
1195,0.0
1197,0.0
2,1,12,22, 0,20, 0.00,60.00,Monday
7,6.1
718,21.933901661180165
719,6.875937681691941
720,18.75416378367079
619,0.0
633,0.0
659,0.0
661,200.0
690,0.0
716,69.19540624597987
843,-3036.8583076745763
844,-3036.8583076745763
907,0.0
908,0.0
971,0.0
972,0.0
1195,0.0
1197,0.0
2,1,12,22, 0,21, 0.00,60.00,Monday
7,5.0
718,22.43008825229778
719,5.46186434964686
720,18.724508821736183
619,0.0
633,0.0
659,0.0
661,200.0
690,0.0
716,0.0
843,-2435.0021317539467
844,-2435.0021317539467
907,0.0
908,0.0
971,0.0
972,0.0
1195,0.0
1197,0.0
2,1,12,22, 0,22, 0.00,60.00,Monday
7,5.6
718,22.11148565860199
719,4.692276192919024
720,18.67741364032201
619,0.0
633,0.0
659,0.0
661,200.0
690,0.0
716,0.0
843,-1664.1730987674018
844,-1664.1730987674018
907,0.0
908,0.0
971,0.0
972,0.0
1195,0.0
1197,0.0
2,1,12,22, 0,23, 0.00,60.00,Monday
7,5.6
718,21.397309054122122
719,4.630209494601183
720,18.614449484051928
619,0.0
633,0.0
659,0.0
661,200.0
690,0.0
716,0.0
843,-1953.7481333795658
844,-1953.7481333795658
907,0.0
908,0.0
971,0.0
972,0.0
1195,0.0
1197,0.0
2,1,12,22, 0,24, 0.00,60.00,Monday
7,6.1
718,20.578975146840396
719,5.0353061328439095
720,18.543159155213534
619,0.0
633,0.0
659,0.0
661,200.0
690,0.0
716,0.0
843,-1462.2699114989227
844,-1462.2699114989227
907,0.0
908,0.0
971,0.0
972,0.0
1195,0.0
1197,0.0
2,2,12,23, 0, 1, 0.00,60.00,Tuesday
7,5.0
718,19.60984988988197
719,4.691769049603109
720,18.462207714829297
619,0.0
633,0.0
659,0.0
661,200.0
690,0.0
716,0.0
843,-767.6736163779296
844,-767.6736163779296
907,0.0
908,0.0
971,0.0
972,0.0
1195,0.0
1197,0.0
2,2,12,23, 0, 2, 0.00,60.00,Tuesday
7,5.0
718,18.877219408654337
719,4.729702936941408
720,18.376098184986812
619,0.0
633,0.0
659,0.0
661,200.0
690,0.0
716,0.0
843,-214.83678804807823
844,-214.83678804807823
907,0.0
908,0.0
971,0.0
972,0.0
1195,0.0
1197,0.0
2,2,12,23, 0, 3, 0.00,60.00,Tuesday
7,4.4
718,18.6239421508052
719,4.3933315889823294
720,18.274650985214826
619,412.8072342046993
633,128.00393414080773
659,12.615644607422706
661,183.04507654833643
690,14.22553188676744
716,0.0
843,303.39970028277276
844,303.39970028277276
907,0.0
908,0.0
971,0.0
972,0.0
1195,0.0
1197,0.0
2,2,12,23, 0, 4, 0.00,60.00,Tuesday
7,2.8
718,18.78429191520743
719,3.2276282080280474
720,18.167560049170444
619,844.2151351699102
633,265.09926582656067
659,27.85327997492463
661,163.95398123407497
690,30.136885119198073
716,0.0
843,649.3568464837181
844,649.3568464837181
907,0.0
908,0.0
971,0.0
972,0.0
1195,0.0
1197,0.0
2,2,12,23, 0, 5, 0.00,60.00,Tuesday
7,2.2
718,18.612643654645634
719,1.6679962268534996
720,18.07007989462219
619,949.4356452917646
633,301.7649440265875
659,30.44374982899606
661,159.0907964034763
690,34.17203093105065
716,0.0
843,715.9923618581288
844,715.9923618581288
907,0.0
908,0.0
971,0.0
972,0.0
1195,0.0
1197,0.0
2,2,12,23, 0, 6, 0.00,60.00,Tuesday
7,1.1
718,19.347127391360154
719,1.0435331291906915
720,17.927554967783625
619,2338.5246734856155
633,730.4487665346368
659,68.97175075619313
661,100.58305339127318
690,82.92122369199038
716,0.0
843,1712.0941798629337
844,1712.0941798629337
907,0.0
908,0.0
971,0.0
972,0.0
1195,0.0
1197,0.0
2,2,12,23, 0, 7, 0.00,60.00,Tuesday
7,3.3
718,19.530261691867608
719,2.6266789211209245
720,17.845903009219874
619,4055.050803659988
633,1194.0505665102282
659,116.99605699412936
661,41.612998625512866
690,132.60979941073091
716,85.15216577239467
843,1816.8581105862995
844,1816.8581105862995
907,0.0
908,0.0
971,0.0
972,0.0
1195,0.0
1197,0.0
2,2,12,23, 0, 8, 0.00,60.00,Tuesday
7,2.8
718,19.620294566111593
719,3.7261641421984124
720,17.751463813415683
619,4002.067012113024
633,1194.3363299765854
659,123.31208288038691
661,40.335203656482996
690,133.48650791691892
716,85.44000000000005
843,1780.7624264985207
844,1780.7624264985207
907,0.0
908,0.0
971,0.0
972,0.0
1195,0.0
1197,0.0
2,2,12,23, 0, 9, 0.00,60.00,Tuesday
7,5.0
718,19.72054466410995
719,5.138819649333225
720,17.690116578300483
619,2808.6730300958166
633,831.4376343527568
659,91.86258653413066
661,90.03293920394673
690,92.31605218881671
716,34.5646221037024
843,1622.4927820803277
844,1622.4927820803277
907,0.0
908,0.0
971,0.0
972,0.0
1195,0.0
1197,0.0
2,2,12,23, 0,10, 0.00,60.00,Tuesday
7,6.7
718,19.838146880784514
719,7.155250217971867
720,17.615018631949795
619,1417.272866175614
633,389.4413177481617
659,0.0
661,158.67111909781948
690,34.85072949433146
716,0.0
843,1109.8116985717552
844,1109.8116985717552
907,0.0
908,0.0
971,0.0
972,0.0
1195,0.0
1197,0.0
2,2,12,23, 0,11, 0.00,60.00,Tuesday
7,8.0
718,19.87296307211
719,12.533879343727909
720,17.54489033798079
619,262.3729395620146
633,72.34217323687298
659,0.0
661,192.44834188250334
690,6.367963238817397
716,0.0
843,207.71202188206917
844,207.71202188206917
907,0.0
908,0.0
971,0.0
972,0.0
1195,0.0
1197,0.0
2,2,12,23, 0,12, 0.00,60.00,Tuesday
7,8.9
718,19.529288081192362
719,12.133280995967043
720,17.493816808894117
619,224.21695870281843
633,61.17637745128071
659,0.0
661,193.68293654685914
690,5.326886787111738
716,0.0
843,186.41280570891104
844,186.41280570891104
907,0.0
908,0.0
971,0.0
972,0.0
1195,0.0
1197,0.0
2,2,12,23, 0,13, 0.00,60.00,Tuesday
7,10.0
718,19.973826610048256
719,13.873295085297082
720,17.464703466403375
619,317.87657946393614
633,84.79603156589727
659,0.0
661,0.0
690,7.332285212250493
716,0.0
843,257.6813474648534
844,257.6813474648534
907,0.0
908,0.0
971,0.0
972,0.0
1195,0.0
1197,0.0
2,2,12,23, 0,14, 0.00,60.00,Tuesday
7,10.0
718,19.889883300179797
719,13.657185353134865
720,17.441603838541997
619,0.0
633,0.0
659,0.0
661,0.0
690,0.0
716,0.0
843,-182.4816858121685
844,-182.4816858121685
907,0.0
908,0.0
971,0.0
972,0.0
1195,0.0
1197,0.0
2,2,12,23, 0,15, 0.00,60.00,Tuesday
7,10.0
718,20.117799092066583
719,15.485382131358936
720,17.432869532821957
619,0.0
633,0.0
659,0.0
661,0.0
690,0.0
716,0.0
843,-233.98351341017587
844,-233.98351341017587
907,0.0
908,0.0
971,0.0
972,0.0
1195,0.0
1197,0.0
2,2,12,23, 0,16, 0.00,60.00,Tuesday
7,9.4
718,19.773314357307193
719,12.937291685852202
720,17.42805266829422
619,0.0
633,0.0
659,0.0
661,200.0
690,0.0
716,0.0
843,-31.52056547911343
844,-31.52056547911343
907,0.0
908,0.0
971,0.0
972,0.0
1195,0.0
1197,0.0
2,2,12,23, 0,17, 0.00,60.00,Tuesday
7,7.8
718,19.847696480939053
719,10.944146220776407
720,17.42564641270635
619,0.0
633,0.0
659,0.0
661,200.0
690,0.0
716,0.0
843,-77.49009528482384
844,-77.49009528482384
907,0.0
908,0.0
971,0.0
972,0.0
1195,0.0
1197,0.0
2,2,12,23, 0,18, 0.00,60.00,Tuesday
7,6.7
718,19.72112247667507
719,8.807433437744306
720,17.421159997684125
619,1000.8317626035696
633,277.6089878596881
659,0.0
661,170.60388530509314
690,24.78838088651197
716,60.50240977568901
843,41.85831581333878
844,41.85831581333878
907,0.0
908,0.0
971,0.0
972,0.0
1195,0.0
1197,0.0
2,2,12,23, 0,19, 0.00,60.00,Tuesday
7,6.1
718,19.810289931902776
719,7.031506043124225
720,17.404931907065084
619,11.80013890883621
633,3.346194446889122
659,0.0
661,199.64260475816965
690,0.301374840636761
716,0.0
843,8.207944490161026
844,8.207944490161026
907,0.0
908,0.0
971,0.0
972,0.0
1195,0.0
1197,0.0
2,2,12,23, 0,20, 0.00,60.00,Tuesday
7,5.0
718,18.49544504791988
719,5.68950962624201
720,17.38154314848182
619,0.0
633,0.0
659,0.0
661,200.0
690,0.0
716,85.44000000000005
843,-49.3714493340558
844,-49.3714493340558
907,0.0
908,0.0
971,0.0
972,0.0
1195,0.0
1197,0.0
2,2,12,23, 0,21, 0.00,60.00,Tuesday
7,5.0
718,19.266058782897577
719,5.801726157287708
720,17.319818804076604
619,1869.329259498828
633,549.9829862680418
659,62.11581756099662
661,125.66109022684877
690,62.40796847327293
716,73.21059088641957
843,561.8114561765924
844,561.8114561765924
907,0.0
908,0.0
971,0.0
972,0.0
1195,0.0
1197,0.0
2,2,12,23, 0,22, 0.00,60.00,Tuesday
7,4.4
718,19.86633185893351
719,4.4023427953179475
720,17.298004296669816
619,742.1171388573824
633,230.33247644983268
659,24.73220352756218
661,169.319134928058
690,25.72918035239239
716,0.0
843,569.0895237768
844,569.0895237768
907,0.0
908,0.0
971,0.0
972,0.0
1195,0.0
1197,0.0
2,2,12,23, 0,23, 0.00,60.00,Tuesday
7,3.9
718,18.859973625435465
719,3.467035334834945
720,17.242120184965387
619,0.0
633,0.0
659,0.0
661,200.0
690,0.0
716,0.0
843,-147.80624707756397
844,-147.80624707756397
907,0.0
908,0.0
971,0.0
972,0.0
1195,0.0
1197,0.0
2,2,12,23, 0,24, 0.00,60.00,Tuesday
7,3.9
718,18.62410543697233
719,3.4055550696831878
720,17.174878893673686
619,545.0570606785409
633,169.8147157426452
659,19.034368796011478
661,176.9929092813567
690,19.26982587624262
716,0.0
843,391.40199433860107
844,391.40199433860107
907,0.0
908,0.0
971,0.0
972,0.0
1195,0.0
1197,0.0
2,3,12,24, 0, 1, 0.00,60.00,Wednesday
7,3.9
718,18.76531049468856
719,2.0881684685529436
720,17.103610116134416
619,905.4460352602479
633,278.15471458036
659,31.30494769430814
661,162.1420883460658
690,31.70864520857265
716,0.0
843,685.8693075205665
844,685.8693075205665
907,0.0
908,0.0
971,0.0
972,0.0
1195,0.0
1197,0.0
2,3,12,24, 0, 2, 0.00,60.00,Wednesday
7,3.3
718,18.616986143729378
719,1.2107241024725366
720,17.027373876298455
619,1264.943300338759
633,390.7288683261055
659,43.130628422808556
661,146.8162845260367
690,44.49317551846136
716,0.0
843,918.9543528192626
844,918.9543528192626
907,0.0
908,0.0
971,0.0
972,0.0
1195,0.0
1197,0.0
2,3,12,24, 0, 3, 0.00,60.00,Wednesday
7,3.3
718,18.593981224157858
719,1.4894840334754416
720,16.946762550240052
619,1598.5877590736175
633,488.2125233613805
659,54.111005191268895
661,133.33876843404477
690,55.768219743069245
716,0.0
843,1175.2471594818344
844,1175.2471594818344
907,0.0
908,0.0
971,0.0
972,0.0
1195,0.0
1197,0.0
2,3,12,24, 0, 4, 0.00,60.00,Wednesday
7,2.0
718,18.55024535691039
719,0.7656004229309156
720,16.862803077263386
619,1943.914594452809
633,602.0056482957448
659,57.31463889760869
661,118.48684561365008
690,68.10275146309904
716,0.0
843,1431.0941897878038
844,1431.0941897878038
907,0.0
908,0.0
971,0.0
972,0.0
1195,0.0
1197,0.0
2,3,12,24, 0, 5, 0.00,60.00,Wednesday
7,2.2
718,18.593436835866765
719,1.1622944578551637
720,16.785939151633706
619,2119.0899463333844
633,650.6475995107445
659,66.02008530990753
661,111.2769913185017
690,74.11262533920193
716,0.0
843,1544.178023054259
844,1544.178023054259
907,0.0
908,0.0
971,0.0
972,0.0
1195,0.0
1197,0.0
2,3,12,24, 0, 6, 0.00,60.00,Wednesday
7,2.0
718,19.153069671840576
719,2.8071652869827224
720,16.686367673610285
619,4604.873558177432
633,1342.7612074846002
659,127.90571824279458
661,18.091873933853098
690,151.9810924655622
716,66.04401522680627
843,2532.4183269768873
844,2532.4183269768873
907,0.0
908,0.0
971,0.0
972,0.0
1195,0.0
1197,0.0
2,3,12,24, 0, 7, 0.00,60.00,Wednesday
7,1.0
718,19.33535221800886
719,3.2717656979619436
720,16.633294517944215
619,5060.644688782309
633,1491.3660073566118
659,131.8517703557941
661,0.0
690,168.6507291441939
716,85.44000000000005
843,2700.5815850182935
844,2700.5815850182935
907,0.0
908,0.0
971,0.0
972,0.0
1195,126.60632772327381
1197,126.60632772327381
2,3,12,24, 0, 8, 0.00,60.00,Wednesday
7,1.1
718,19.63170395446475
719,3.5375252710794216
720,16.572494988377645
619,3869.021933648443
633,1185.0888879829547
659,119.72552070596636
661,39.17239315623113
690,134.01537573232835
716,24.691674087882916
843,2499.6244635917756
844,2499.6244635917756
907,0.0
908,0.0
971,0.0
972,0.0
1195,0.0
1197,0.0
2,3,12,24, 0, 9, 0.00,60.00,Wednesday
7,3.0
718,19.7508421723397
719,4.101917562347469
720,16.52494566097787
619,2998.576273752522
633,912.8519633406745
659,104.93860613186905
661,76.44799297724445
690,103.24104479723222
716,0.0
843,2205.535775782213
844,2205.535775782213
907,0.0
908,0.0
971,0.0
972,0.0
1195,0.0
1197,0.0
2,3,12,24, 0,10, 0.00,60.00,Wednesday
7,3.9
718,19.750542356117823
719,6.275401374123407
720,16.45769061989541
619,2085.9652889135873
633,640.1738404694382
659,70.50899531924969
661,114.68831277082816
690,71.4523770739313
716,0.0
843,1546.4898972843985
844,1546.4898972843985
907,0.0
908,0.0
971,0.0
972,0.0
1195,0.0
1197,0.0
2,3,12,24, 0,11, 0.00,60.00,Wednesday
7,4.4
718,19.749927642136058
719,7.75484779901326
720,16.404055714103663
619,1849.4464824394036
633,565.697081896981
659,69.61634018471801
661,123.68117690769402
690,63.94577973658471
716,0.0
843,1408.4854840469743
844,1408.4854840469743
907,0.0
908,0.0
971,0.0
972,0.0
1195,0.0
1197,0.0
2,3,12,24, 0,12, 0.00,60.00,Wednesday
7,4.0
718,19.728594619534206
719,9.832595529061827
720,16.355374928356543
619,1343.213602643344
633,418.57690513010033
659,51.07345832364754
661,143.41829894920545
690,47.36640458080244
716,0.0
843,1039.7098396238289
844,1039.7098396238289
907,0.0
908,0.0
971,0.0
972,0.0
1195,0.0
1197,0.0
2,3,12,24, 0,13, 0.00,60.00,Wednesday
7,6.0
718,19.927296942004677
719,11.441500304702965
720,16.321381975838936
619,950.1561398344086
633,265.389002996795
659,0.0
661,171.60022027399046
690,23.94821779163002
716,0.0
843,769.9596053309924
844,769.9596053309924
907,0.0
908,0.0
971,0.0
972,0.0
1195,0.0
1197,0.0
2,3,12,24, 0,14, 0.00,60.00,Wednesday
7,7.0
718,19.734703338718525
719,11.276019355288982
720,16.300799489963815
619,576.4766356317117
633,160.4403063800763
659,0.0
661,183.0754039742483
690,14.27172730106975
716,0.0
843,465.32575127056043
844,465.32575127056043
907,0.0
908,0.0
971,0.0
972,0.0
1195,0.0
1197,0.0
2,3,12,24, 0,15, 0.00,60.00,Wednesday
7,8.3
718,19.79642070997466
719,12.139538803918335
720,16.304942943302866
619,1380.5885110347556
633,371.165128317797
659,0.0
661,161.26458580246918
690,32.66377924057967
716,59.238217765581076
843,352.447447860588
844,352.447447860588
907,0.0
908,0.0
971,0.0
972,0.0
1195,0.0
1197,0.0
2,3,12,24, 0,16, 0.00,60.00,Wednesday
7,8.3
718,19.801360778653482
719,12.643296177986038
720,16.284923616956693
619,118.86548565250051
633,32.641608520754566
659,0.0
661,196.59776079808472
690,2.868950610629877
716,0.0
843,97.05049256253551
844,97.05049256253551
907,0.0
908,0.0
971,0.0
972,0.0
1195,0.0
1197,0.0
2,3,12,24, 0,17, 0.00,60.00,Wednesday
7,7.8
718,19.697800657103652
719,11.353640455822834
720,16.307612829183785
619,1293.9249223142374
633,351.11996847639597
659,0.0
661,163.1940936722083
690,31.03671469497483
716,75.2798700855563
843,50.80013787288772
844,50.80013787288772
907,0.0
908,0.0
971,0.0
972,0.0
1195,0.0
1197,0.0
2,3,12,24, 0,18, 0.00,60.00,Wednesday
7,7.2
718,19.730544819599302
719,8.353009638516394
720,16.291121973732988
619,132.03837238747533
633,36.715786417361365
659,0.0
661,196.11877619890595
690,3.272856120131572
716,0.0
843,107.33992733962896
844,107.33992733962896
907,0.0
908,0.0
971,0.0
972,0.0
1195,0.0
1197,0.0
2,3,12,24, 0,19, 0.00,60.00,Wednesday
7,6.1
718,19.668931493279416
719,6.522853413151221
720,16.28916101757551
619,38.0166433838308
633,10.764975507949124
659,0.0
661,198.84929616889224
690,0.9703352007267105
716,0.0
843,19.090577931449843
844,19.090577931449843
907,0.0
908,0.0
971,0.0
972,0.0
1195,0.0
1197,0.0
2,3,12,24, 0,20, 0.00,60.00,Wednesday
7,5.6
718,19.514942989730105
719,6.150856619296001
720,16.29268806763962
619,1421.576695586362
633,395.6815323977804
659,0.0
661,157.42849215084536
690,35.89857919763851
716,85.44000000000005
843,42.50071357608249
844,42.50071357608249
907,0.0
908,0.0
971,0.0
972,0.0
1195,0.0
1197,0.0
2,3,12,24, 0,21, 0.00,60.00,Wednesday
7,6.1
718,19.87411104874706
719,4.342165589352979
720,16.264990174682175
619,734.9317476061342
633,204.6725050508893
659,0.0
661,178.03089419410702
690,18.52552856404896
716,30.63186896645631
843,187.5335058178407
844,187.5335058178407
907,0.0
908,0.0
971,0.0
972,0.0
1195,0.0
1197,0.0
2,3,12,24, 0,22, 0.00,60.00,Wednesday
7,5.6
718,19.72969948353919
719,2.832078160389319
720,16.23466048870009
619,214.96327607390782
633,61.349879343323074
659,0.0
661,193.42586075987248
690,5.543666881714822
716,0.0
843,165.23915409824258
844,165.23915409824258
907,0.0
908,0.0
971,0.0
972,0.0
1195,0.0
1197,0.0
2,3,12,24, 0,23, 0.00,60.00,Wednesday
7,4.0
718,18.80834714327832
719,2.5566375875251275
720,16.19688535163418
619,0.0
633,0.0
659,0.0
661,200.0
690,0.0
716,0.0
843,-202.86859038817784
844,-202.86859038817784
907,0.0
908,0.0
971,0.0
972,0.0
1195,0.0
1197,0.0
2,3,12,24, 0,24, 0.00,60.00,Wednesday
7,5.6
718,18.606878894160733
719,1.581993979392876
720,16.159104178517932
619,187.26531585482897
633,52.14966046729983
659,0.0
661,194.29724074408153
690,4.808872533222237
716,0.0
843,145.20741123113203
844,145.20741123113203
907,0.0
908,0.0
971,0.0
972,0.0
1195,0.0
1197,0.0
2,4,12,25, 0, 1, 0.00,60.00,Thursday
7,5.6
718,18.612854868584943
719,2.252662429488523
720,16.112390918249226
619,640.4009016587346
633,176.15315606613586
659,0.0
661,180.66212412264179
690,16.306734334081916
716,0.0
843,473.28193746494435
844,473.28193746494435
907,0.0
908,0.0
971,0.0
972,0.0
1195,0.0
1197,0.0
2,4,12,25, 0, 2, 0.00,60.00,Thursday
7,6.1
718,18.507085721273807
719,3.4765565506372207
720,16.062067728994467
619,1054.9621446994695
633,286.1689100929085
659,0.0
661,168.75183760144898
690,26.350126864659057
716,0.0
843,816.283737006037
844,816.283737006037
907,0.0
908,0.0
971,0.0
972,0.0
1195,0.0
1197,0.0
2,4,12,25, 0, 3, 0.00,60.00,Thursday
7,6.0
718,18.588235313021993
719,4.0482443856918024
720,16.00866543015762
619,1457.0826035962377
633,392.23108336581663
659,0.0
661,157.03617636683487
690,36.229400912779255
716,0.0
843,1125.3264044466523
844,1125.3264044466523
907,0.0
908,0.0
971,0.0
972,0.0
1195,0.0
1197,0.0
2,4,12,25, 0, 4, 0.00,60.00,Thursday
7,3.9
718,18.537203704087908
719,3.6451700977873784
720,15.954311039280539
619,1814.0506015190986
633,544.674824692947
659,66.69432606258559
661,124.83208644699042
690,62.92210828595477
716,0.0
843,1372.8866310895028
844,1372.8866310895028
907,0.0
908,0.0
971,0.0
972,0.0
1195,0.0
1197,0.0
2,4,12,25, 0, 5, 0.00,60.00,Thursday
7,5.0
718,18.667985902432815
719,2.615533863040543
720,15.903753993391218
619,1819.0959769950316
633,535.5207758865373
659,60.6984066159868
661,127.55364057829853
690,60.81833296854786
716,0.0
843,1376.6924990190219
844,1376.6924990190219
907,0.0
908,0.0
971,0.0
972,0.0
1195,0.0
1197,0.0
2,4,12,25, 0, 6, 0.00,60.00,Thursday
7,4.4
718,19.41868636917325
719,2.4840589060848703
720,15.858109245346395
619,3003.9179811320996
633,872.4305445199592
659,103.67080838952668
661,80.77426235737516
690,99.93449280119691
716,0.0
843,2221.836515323166
844,2221.836515323166
907,0.0
908,0.0
971,0.0
972,0.0
1195,0.0
1197,0.0
2,4,12,25, 0, 7, 0.00,60.00,Thursday
7,4.4
718,19.551561656171728
719,2.712543346291807
720,15.849194238822445
619,4358.960112048125
633,1251.8114939341867
659,134.56541811561544
661,33.39457141588649
690,139.71448026360812
716,85.44000000000005
843,2072.0585122609846
844,2072.0585122609846
907,0.0
908,0.0
971,0.0
972,0.0
1195,0.0
1197,0.0
2,4,12,25, 0, 8, 0.00,60.00,Thursday
7,4.0
718,19.63974321541447
719,2.504156322758823
720,15.797352565260594
619,4191.553150580113
633,1218.2804182833017
659,149.35632800517985
661,34.53567902761985
690,138.5167621345318
716,85.44000000000005
843,1935.4051065449949
844,1935.4051065449949
907,0.0
908,0.0
971,0.0
972,0.0
1195,0.0
1197,0.0
2,4,12,25, 0, 9, 0.00,60.00,Thursday
7,6.7
718,19.76770689055567
719,3.727450853565091
720,15.727566476951257
619,2675.426094488204
633,717.7217513758762
659,0.0
661,123.5814592985989
690,64.44021304713277
716,23.62468663318117
843,1738.6865360302054
844,1738.6865360302054
907,0.0
908,0.0
971,0.0
972,0.0
1195,0.0
1197,0.0
2,4,12,25, 0,10, 0.00,60.00,Thursday
7,7.0
718,19.705164346654804
719,5.047003395376514
720,15.677561067760337
619,2037.5524824924044
633,551.526114028049
659,0.0
661,141.60690147500554
690,49.24019321614534
716,0.0
843,1570.7781331432852
844,1570.7781331432852
907,0.0
908,0.0
971,0.0
972,0.0
1195,0.0
1197,0.0
2,4,12,25, 0,11, 0.00,60.00,Thursday
7,8.0
718,19.81260586961162
719,6.8297319111644645
720,15.630396889303336
619,1670.5149781034238
633,448.21224065301874
659,0.0
661,153.01235263547144
690,39.62250494399001
716,0.0
843,1305.970940963578
844,1305.970940963578
907,0.0
908,0.0
971,0.0
972,0.0
1195,0.0
1197,0.0
2,4,12,25, 0,12, 0.00,60.00,Thursday
7,8.3
718,19.772310521640666
719,7.501884780107105
720,15.591420691948544
619,1407.7858568138174
633,378.7121998976074
659,0.0
661,160.51051861943714
690,33.29964914178997
716,0.0
843,1104.4698946988592
844,1104.4698946988592
907,0.0
908,0.0
971,0.0
972,0.0
1195,0.0
1197,0.0
2,4,12,25, 0,13, 0.00,60.00,Thursday
7,9.4
718,19.777623115927202
719,11.058830860019656
720,15.552259499103679
619,853.5851201196573
633,228.24320543301033
659,0.0
661,176.48774796417223
690,19.82679224832205
716,0.0
843,680.4496645083145
844,680.4496645083145
907,0.0
908,0.0
971,0.0
972,0.0
1195,0.0
1197,0.0
2,4,12,25, 0,14, 0.00,60.00,Thursday
7,10.0
718,19.73466094287752
719,14.142066507528394
720,15.528626317356297
619,528.0545122889916
633,140.90079304812653
659,0.0
661,0.0
690,12.149685206462676
716,0.0
843,424.7867659952317
844,424.7867659952317
907,0.0
908,0.0
971,0.0
972,0.0
1195,0.0
1197,0.0
2,4,12,25, 0,15, 0.00,60.00,Thursday
7,11.1
718,19.727080969389245
719,14.55899951639708
720,15.520326888523257
619,405.3646377552515
633,106.9262824529329
659,0.0
661,0.0
690,9.099934326983117
716,0.0
843,339.4468490447689
844,339.4468490447689
907,0.0
908,0.0
971,0.0
972,0.0
1195,0.0
1197,0.0
2,4,12,25, 0,16, 0.00,60.00,Thursday
7,10.0
718,19.693357781434695
719,13.387843177576325
720,15.520953632013054
619,289.66176317740735
633,77.48164719438289
659,0.0
661,0.0
690,6.687192945288354
716,0.0
843,237.90648636338847
844,237.90648636338847
907,0.0
908,0.0
971,0.0
972,0.0
1195,0.0
1197,0.0
2,4,12,25, 0,17, 0.00,60.00,Thursday
7,8.9
718,19.596425155813247
719,11.690370016494272
720,15.54805430516248
619,1152.2412827512444
633,308.00513712276967
659,0.0
661,168.03374566222712
690,26.95566051037072
716,64.26304722974722
843,185.994825569147
844,185.994825569147
907,0.0
908,0.0
971,0.0
972,0.0
1195,0.0
1197,0.0
2,4,12,25, 0,18, 0.00,60.00,Thursday
7,7.8
718,19.758809649729596
719,8.966715915223121
720,15.535823875376977
619,290.79247702311835
633,79.74161566188985
659,0.0
661,191.6048343959753
690,7.079254002025102
716,0.0
843,238.64711226119653
844,238.64711226119653
907,0.0
908,0.0
971,0.0
972,0.0
1195,0.0
1197,0.0
2,4,12,25, 0,19, 0.00,60.00,Thursday
7,7.8
718,19.7434288011319
719,7.926791365130959
720,15.567483765053968
619,1414.975787969118
633,382.5593760320062
659,0.0
661,159.84005652359593
690,33.865018748425804
716,85.44000000000005
843,42.26542884780065
844,42.26542884780065
907,0.0
908,0.0
971,0.0
972,0.0
1195,0.0
1197,0.0
2,4,12,25, 0,20, 0.00,60.00,Thursday
7,7.2
718,19.11082345678696
719,5.576828238415748
720,15.531842497275804
619,0.0
633,0.0
659,0.0
661,200.0
690,0.0
716,38.20214348152478
843,-16.309251178674458
844,-16.309251178674458
907,0.0
908,0.0
971,0.0
972,0.0
1195,0.0
1197,0.0