Program Version,EnergyPlus, Version 22.2.0-c249759bad, YMD=2023.07.07 15:16
1,5,Environment Title[],Latitude[deg],Longitude[deg],Time Zone[],Elevation[m]
2,8,Day of Simulation[],Month[],Day of Month[],DST Indicator[1=yes 0=no],Hour[],StartMinute[],EndMinute[],DayType
3,5,Cumulative Day of Simulation[],Month[],Day of Month[],DST Indicator[1=yes 0=no],DayType  ! When Daily Report Variables Requested
4,2,Cumulative Days of Simulation[],Month[]  ! When Monthly Report Variables Requested
5,1,Cumulative Days of Simulation[] ! When Run Period Report Variables Requested
6,1,Calendar Year of Simulation[] ! When Annual Report Variables Requested
581,11,LIVING,AFN Zone Infiltration Air Change Rate [ach] !RunPeriod [Value,Min,Month,Day,Hour,Minute,Max,Month,Day,Hour,Minute]
582,11,ATTIC,AFN Zone Infiltration Air Change Rate [ach] !RunPeriod [Value,Min,Month,Day,Hour,Minute,Max,Month,Day,Hour,Minute]
583,11,CRAWLSPACE,AFN Zone Infiltration Air Change Rate [ach] !RunPeriod [Value,Min,Month,Day,Hour,Minute,Max,Month,Day,Hour,Minute]
1038,11,Facility,Facility Heating Setpoint Not Met Time [hr] !RunPeriod [Value,Min,Month,Day,Hour,Minute,Max,Month,Day,Hour,Minute]
1039,11,Facility,Facility Cooling Setpoint Not Met Time [hr] !RunPeriod [Value,Min,Month,Day,Hour,Minute,Max,Month,Day,Hour,Minute]
1115,11,DX_HEATING_COIL,Heating Coil Heating Energy [J] !RunPeriod [Value,Min,Month,Day,Hour,Minute,Max,Month,Day,Hour,Minute]
1128,11,DX_HEATING_COIL,Heating Coil Electricity Energy [J] !RunPeriod [Value,Min,Month,Day,Hour,Minute,Max,Month,Day,Hour,Minute]
1153,11,DX_HEATING_COIL,Heating Coil Defrost Electricity Energy [J] !RunPeriod [Value,Min,Month,Day,Hour,Minute,Max,Month,Day,Hour,Minute]
1154,11,DX_HEATING_COIL,Heating Coil Crankcase Heater Electricity Energy [J] !RunPeriod [Value,Min,Month,Day,Hour,Minute,Max,Month,Day,Hour,Minute]
1156,11,HEATING_RESISTANCE_BACKUP,Heating Coil Electricity Energy [J] !RunPeriod [Value,Min,Month,Day,Hour,Minute,Max,Month,Day,Hour,Minute]
13,11,Electricity:Facility [J] !RunPeriod [Value,Min,Month,Day,Hour,Minute,Max,Month,Day,Hour,Minute]
1134,11,Heating:Electricity [J] !RunPeriod [Value,Min,Month,Day,Hour,Minute,Max,Month,Day,Hour,Minute]
1096,11,Cooling:Electricity [J] !RunPeriod [Value,Min,Month,Day,Hour,Minute,Max,Month,Day,Hour,Minute]
562,11,Fans:Electricity [J] !RunPeriod [Value,Min,Month,Day,Hour,Minute,Max,Month,Day,Hour,Minute]
1388,11,Pumps:Electricity [J] !RunPeriod [Value,Min,Month,Day,Hour,Minute,Max,Month,Day,Hour,Minute]
1360,11,WaterSystems:Electricity [J] !RunPeriod [Value,Min,Month,Day,Hour,Minute,Max,Month,Day,Hour,Minute]
61,11,InteriorLights:Electricity [J] !RunPeriod [Value,Min,Month,Day,Hour,Minute,Max,Month,Day,Hour,Minute]
1046,11,ExteriorLights:Electricity [J] !RunPeriod [Value,Min,Month,Day,Hour,Minute,Max,Month,Day,Hour,Minute]
134,11,InteriorEquipment:Electricity [J] !RunPeriod [Value,Min,Month,Day,Hour,Minute,Max,Month,Day,Hour,Minute]
170,11,gas_dryer:InteriorEquipment:Electricity [J] !RunPeriod [Value,Min,Month,Day,Hour,Minute,Max,Month,Day,Hour,Minute]
207,11,clotheswasher:InteriorEquipment:Electricity [J] !RunPeriod [Value,Min,Month,Day,Hour,Minute,Max,Month,Day,Hour,Minute]
244,11,dishwasher:InteriorEquipment:Electricity [J] !RunPeriod [Value,Min,Month,Day,Hour,Minute,Max,Month,Day,Hour,Minute]
281,11,refrigerator:InteriorEquipment:Electricity [J] !RunPeriod [Value,Min,Month,Day,Hour,Minute,Max,Month,Day,Hour,Minute]
318,11,electric_mels:InteriorEquipment:Electricity [J] !RunPeriod [Value,Min,Month,Day,Hour,Minute,Max,Month,Day,Hour,Minute]
355,11,NaturalGas:Facility [J] !RunPeriod [Value,Min,Month,Day,Hour,Minute,Max,Month,Day,Hour,Minute]
1323,11,WaterSystems:NaturalGas [J] !RunPeriod [Value,Min,Month,Day,Hour,Minute,Max,Month,Day,Hour,Minute]
403,11,InteriorEquipment:NaturalGas [J] !RunPeriod [Value,Min,Month,Day,Hour,Minute,Max,Month,Day,Hour,Minute]
476,11,gas_dryer:InteriorEquipment:NaturalGas [J] !RunPeriod [Value,Min,Month,Day,Hour,Minute,Max,Month,Day,Hour,Minute]
513,11,gas_mels:InteriorEquipment:NaturalGas [J] !RunPeriod [Value,Min,Month,Day,Hour,Minute,Max,Month,Day,Hour,Minute]
End of Data Dictionary
1,EXTREME_WINTER,  42.41, -83.01,  -5.00, 190.80
5,7
1038,1.5,0.0,12,15, 1,10,0.16666666666666666,12,15, 6,10
1039,0.0,0.0,12,15, 1,10,0.0,12,15, 1,10
581,0.3730007898721289,0.22889770698684658,12,18,11,40,0.6964086768796081,12,21,15,60
582,5.685591700365473,0.0,12,18, 7,60,16.498564276222368,12,21,15,60
583,7.060083317930758,0.7047655350332687,12,18, 7,50,19.30927578410933,12,21,15,60
1115,2219729822.8002505,0.0,12,15,23, 2,2963595.8445343208,12,21,14,10
1128,763137192.1275856,0.0,12,15,23, 2,881452.560422233,12,21,14,10
1153,12974407.785144946,0.0,12,15,23, 2,50453.835439049464,12,18,10,60
1154,7919794.174771002,0.0,12,15, 1, 1,109804.37202678247,12,19,16,30
1156,1244386224.4459016,0.0,12,15,23, 2,3964649.759010413,12,16, 6,10
13,2493931216.2511573,399151.85189748683,12,19,15,60,5277732.5709276665,12,21, 6,10
61,301924526.0238348,58759.40635443481,12,15, 1,10,854682.2742463244,12,15,20,10
134,70666020.44019979,42376.01200569399,12,15, 4,10,104369.48322671017,12,20,20,10
170,5241013.419656074,232.27731661587313,12,15, 4,10,11650.931360040839,12,20,12,10
207,6509451.13922266,543.5021409221355,12,15, 3,10,15327.095199349082,12,20,10,10
244,12749673.39982522,1014.5707620042115,12,15, 4,10,35359.08742820678,12,20,20,10
281,46165882.48149605,39959.06841621388,12,15, 5,10,54634.54471212738,12,15,19,10
318,0.0,0.0,12,15, 1,10,0.0,12,15, 1,10
355,723252308.7048231,12374.216038804521,12,15, 4,10,3829218.154066982,12,19,18,20
403,197687796.27748126,12374.216038804521,12,15, 4,10,483183.26346918393,12,20,18,10
476,106772067.24485692,4732.048419519677,12,15, 4,10,237357.535085481,12,20,12,10
513,0.0,0.0,12,15, 1,10,0.0,12,15, 1,10
562,87903211.25372021,7933.576906752337,12,19,16,30,93377.63648318086,12,15, 1,20
1046,0.0,0.0,12,15, 1,10,0.0,12,15, 1,10
1096,0.0,0.0,12,15, 1,10,0.0,12,15, 1,10
1134,2028417618.5334013,182443.39159807967,12,19,16,30,4766057.615068112,12,21, 6,10
1323,525564512.4273397,0.0,12,15, 1,10,3375000.000000001,12,17,16,60
1360,5019840.0,4979.999999999999,12,19,20,40,4980.000000000001,12,15, 1,10
1388,0.0,0.0,12,15, 1,10,0.0,12,15, 1,10
1,EXTREME_SUMMER,  42.41, -83.01,  -5.00, 190.80
5,7
1038,0.0,0.0, 7,27, 1,10,0.0, 7,27, 1,10
1039,19.0,0.0, 7,27, 1,10,0.16666666666666666, 7,27,17,10
581,0.10110644371238156,0.0, 7,30, 6,30,0.3658532688578529, 8, 1,11,60
582,3.542613876330343,0.0, 8, 1,20,52,12.335033116037758, 7,27,15,55
583,3.7103819122083492,0.0, 8, 1,23, 2,12.16787089671222, 8, 1,11,60
1115,0.0,0.0, 7,27, 1,10,0.0, 7,27, 1,10
1128,0.0,0.0, 7,27, 1,10,0.0, 7,27, 1,10
1153,0.0,0.0, 7,27, 1,10,0.0, 7,27, 1,10
1154,0.0,0.0, 7,27, 1,10,0.0, 7,27, 1,10
1156,0.0,0.0, 7,27, 1,10,0.0, 7,27, 1,10
13,898982113.7415444,106115.4183601288, 7,28, 4,60,1943292.7026947294, 8, 1,20,10
61,301924526.0238348,58759.40635443481, 7,27, 1,10,854682.2742463244, 7,27,20,10
134,70666020.44019979,42376.01200569399, 7,27, 4,10,104369.48322671017, 8, 1,20,10
170,5241013.419656074,232.27731661587313, 7,27, 4,10,11650.931360040839, 8, 1,12,10
207,6509451.13922266,543.5021409221355, 7,27, 3,10,15327.095199349082, 8, 1,10,10
244,12749673.39982522,1014.5707620042115, 7,27, 4,10,35359.08742820678, 8, 1,20,10
281,46165882.48149605,39959.06841621388, 7,27, 5,10,54634.54471212738, 7,27,19,10
318,0.0,0.0, 7,27, 1,10,0.0, 7,27, 1,10
355,632397125.9966285,12374.216038804521, 7,27, 4,10,3829218.154066982, 7,31,18,20
403,197687796.27748126,12374.216038804521, 7,27, 4,10,483183.26346918393, 8, 1,18,10
476,106772067.24485692,4732.048419519677, 7,27, 4,10,237357.535085481, 8, 1,12,10
513,0.0,0.0, 7,27, 1,10,0.0, 7,27, 1,10
562,51349179.00015377,0.0, 7,28, 4,60,93377.63648318086, 7,27,17,60
1046,0.0,0.0, 7,27, 1,10,0.0, 7,27, 1,10
1096,470022548.2773549,0.0, 7,28, 4,60,966355.116839606, 8, 1,13,60
1134,0.0,0.0, 7,27, 1,10,0.0, 7,27, 1,10
1323,434709329.7191454,0.0, 7,27, 1,10,3375000.000000001, 7,31, 9,60
1360,5019840.0,4980.0, 7,27, 1,10,4980.000000000001, 7,27, 8,30
1388,0.0,0.0, 7,27, 1,10,0.0, 7,27, 1,10
1,ANNUAL,  42.41, -83.01,  -5.00, 190.80
5,365
1038,15.16666666666666,0.0, 1, 1, 1,10,0.16666666666666666, 1, 5, 6,10
1039,172.83333333333323,0.0, 1, 1, 1,10,0.16666666666666666, 6, 4,14,20
581,0.2308743840848414,0.0, 5,27,22,35,0.8185870488094016, 2,21,19,55
582,4.221653995324536,0.0, 1, 5, 2,60,24.69457831415027, 4, 1,12,60
583,4.8270028565468195,0.0, 7,20, 6, 7,22.85001616976709, 4,14, 8,60
1115,31170259015.81729,0.0, 1, 1,23, 2,3190002.85328861, 3,24, 8,30
1128,9725885977.378967,0.0, 1, 1,23, 2,908037.895658729, 3,24, 8,30
1153,305031996.57569253,0.0, 1, 1,23, 2,92815.68737167175,12,27, 7,10
1154,1524150521.5088866,0.0, 1, 1, 4,30,120000.0, 1, 6,16,20
1156,6424200718.403769,0.0, 1, 1, 1, 1,3964649.759010413, 2, 5, 6,10
13,47255731607.40742,106115.4183601288, 4,14, 4,10,5307133.226316035,12,16, 7,30
61,15743207428.39043,58759.40635443481, 1, 1, 1,10,854682.2742463244, 1, 1,20,10
134,3685071073.433083,42376.01200569399, 1, 2, 4,10,104369.48322671017, 1, 1,20,10
170,273393721.45534325,232.27731661587313, 1, 2, 4,10,11650.931360040839, 1, 1,12,10
207,339560869.06955314,543.5021409221355, 1, 2, 3,10,15327.095199349082, 1, 1,10,10
244,664895467.8009839,1014.5707620042115, 1, 2, 4,10,35359.08742820678, 1, 1,20,10
281,2407221015.1057043,39959.06841621388, 1, 1, 5,10,54634.54471212738, 1, 1,19,10
318,0.0,0.0, 1, 1, 1,10,0.0, 1, 1, 1,10
355,35752362135.53635,12374.216038804521, 1, 2, 4,10,3829218.1540669827, 1,13,18,20
403,10310294493.052883,12374.216038804521, 1, 2, 4,10,483183.26346918393, 1, 1,18,10
476,5569688622.065564,4732.048419519677, 1, 2, 4,10,237357.535085481, 1, 1,12,10
513,0.0,0.0, 1, 1, 1,10,0.0, 1, 1, 1,10
562,1979945469.9112606,0.0, 1, 6,15,60,93377.63648318086, 1, 5, 3,40
1046,0.0,0.0, 1, 1, 1,10,0.0, 1, 1, 1,10
1096,7606489621.81211,0.0, 1, 1, 1,10,995152.7636572187, 6, 8,16,60
1134,17979269213.867363,0.0, 2,10,11,30,4763783.802461524,12,21, 6,10
1323,25442067642.48746,0.0, 1, 1, 1,10,3375000.0000000023,11,28, 9,60
1360,261748800.0,4979.999999999999, 1,13,19,30,4980.000000000002, 1, 7, 8,60
1388,0.0,0.0, 1, 1, 1,10,0.0, 1, 1, 1,10
End of Data
 Number of Records Written=          87
