Program Version,EnergyPlus, Version 22.2.0-c249759bad, YMD=2023.07.07 15:18
1,5,Environment Title[],Latitude[deg],Longitude[deg],Time Zone[],Elevation[m]
2,8,Day of Simulation[],Month[],Day of Month[],DST Indicator[1=yes 0=no],Hour[],StartMinute[],EndMinute[],DayType
3,5,Cumulative Day of Simulation[],Month[],Day of Month[],DST Indicator[1=yes 0=no],DayType  ! When Daily Report Variables Requested
4,2,Cumulative Days of Simulation[],Month[]  ! When Monthly Report Variables Requested
5,1,Cumulative Days of Simulation[] ! When Run Period Report Variables Requested
6,1,Calendar Year of Simulation[] ! When Annual Report Variables Requested
581,11,LIVING,AFN Zone Infiltration Air Change Rate [ach] !RunPeriod [Value,Min,Month,Day,Hour,Minute,Max,Month,Day,Hour,Minute]
582,11,ATTIC,AFN Zone Infiltration Air Change Rate [ach] !RunPeriod [Value,Min,Month,Day,Hour,Minute,Max,Month,Day,Hour,Minute]
583,11,CRAWLSPACE,AFN Zone Infiltration Air Change Rate [ach] !RunPeriod [Value,Min,Month,Day,Hour,Minute,Max,Month,Day,Hour,Minute]
1038,11,Facility,Facility Heating Setpoint Not Met Time [hr] !RunPeriod [Value,Min,Month,Day,Hour,Minute,Max,Month,Day,Hour,Minute]
1039,11,Facility,Facility Cooling Setpoint Not Met Time [hr] !RunPeriod [Value,Min,Month,Day,Hour,Minute,Max,Month,Day,Hour,Minute]
1115,11,DX_HEATING_COIL,Heating Coil Heating Energy [J] !RunPeriod [Value,Min,Month,Day,Hour,Minute,Max,Month,Day,Hour,Minute]
1128,11,DX_HEATING_COIL,Heating Coil Electricity Energy [J] !RunPeriod [Value,Min,Month,Day,Hour,Minute,Max,Month,Day,Hour,Minute]
1153,11,DX_HEATING_COIL,Heating Coil Defrost Electricity Energy [J] !RunPeriod [Value,Min,Month,Day,Hour,Minute,Max,Month,Day,Hour,Minute]
1154,11,DX_HEATING_COIL,Heating Coil Crankcase Heater Electricity Energy [J] !RunPeriod [Value,Min,Month,Day,Hour,Minute,Max,Month,Day,Hour,Minute]
1156,11,HEATING_RESISTANCE_BACKUP,Heating Coil Electricity Energy [J] !RunPeriod [Value,Min,Month,Day,Hour,Minute,Max,Month,Day,Hour,Minute]
13,11,Electricity:Facility [J] !RunPeriod [Value,Min,Month,Day,Hour,Minute,Max,Month,Day,Hour,Minute]
1134,11,Heating:Electricity [J] !RunPeriod [Value,Min,Month,Day,Hour,Minute,Max,Month,Day,Hour,Minute]
1096,11,Cooling:Electricity [J] !RunPeriod [Value,Min,Month,Day,Hour,Minute,Max,Month,Day,Hour,Minute]
562,11,Fans:Electricity [J] !RunPeriod [Value,Min,Month,Day,Hour,Minute,Max,Month,Day,Hour,Minute]
1388,11,Pumps:Electricity [J] !RunPeriod [Value,Min,Month,Day,Hour,Minute,Max,Month,Day,Hour,Minute]
1360,11,WaterSystems:Electricity [J] !RunPeriod [Value,Min,Month,Day,Hour,Minute,Max,Month,Day,Hour,Minute]
61,11,InteriorLights:Electricity [J] !RunPeriod [Value,Min,Month,Day,Hour,Minute,Max,Month,Day,Hour,Minute]
1046,11,ExteriorLights:Electricity [J] !RunPeriod [Value,Min,Month,Day,Hour,Minute,Max,Month,Day,Hour,Minute]
134,11,InteriorEquipment:Electricity [J] !RunPeriod [Value,Min,Month,Day,Hour,Minute,Max,Month,Day,Hour,Minute]
170,11,gas_dryer:InteriorEquipment:Electricity [J] !RunPeriod [Value,Min,Month,Day,Hour,Minute,Max,Month,Day,Hour,Minute]
207,11,clotheswasher:InteriorEquipment:Electricity [J] !RunPeriod [Value,Min,Month,Day,Hour,Minute,Max,Month,Day,Hour,Minute]
244,11,dishwasher:InteriorEquipment:Electricity [J] !RunPeriod [Value,Min,Month,Day,Hour,Minute,Max,Month,Day,Hour,Minute]
281,11,refrigerator:InteriorEquipment:Electricity [J] !RunPeriod [Value,Min,Month,Day,Hour,Minute,Max,Month,Day,Hour,Minute]
318,11,electric_mels:InteriorEquipment:Electricity [J] !RunPeriod [Value,Min,Month,Day,Hour,Minute,Max,Month,Day,Hour,Minute]
355,11,NaturalGas:Facility [J] !RunPeriod [Value,Min,Month,Day,Hour,Minute,Max,Month,Day,Hour,Minute]
1323,11,WaterSystems:NaturalGas [J] !RunPeriod [Value,Min,Month,Day,Hour,Minute,Max,Month,Day,Hour,Minute]
403,11,InteriorEquipment:NaturalGas [J] !RunPeriod [Value,Min,Month,Day,Hour,Minute,Max,Month,Day,Hour,Minute]
476,11,gas_dryer:InteriorEquipment:NaturalGas [J] !RunPeriod [Value,Min,Month,Day,Hour,Minute,Max,Month,Day,Hour,Minute]
513,11,gas_mels:InteriorEquipment:NaturalGas [J] !RunPeriod [Value,Min,Month,Day,Hour,Minute,Max,Month,Day,Hour,Minute]
End of Data Dictionary
1,EXTREME_WINTER,  46.90, -96.80,  -6.00, 274.30
5,7
1038,15.333333333333332,0.0, 2, 5, 1,10,0.16666666666666666, 2, 5, 6,10
1039,0.0,0.0, 2, 5, 1,10,0.0, 2, 5, 1,10
581,0.47569376603376073,0.2477028739360448, 2, 8,15,60,1.075730827414845, 2, 9,15,60
582,5.625411811547007,0.0, 2, 8, 8,60,22.072174115003023, 2, 9, 5,55
583,7.545239540124383,0.4538701972814945, 2, 7,12,60,27.286411983353105, 2, 9,15,55
1115,1867974472.3115287,0.0, 2, 5,23, 2,2538250.574090781, 2, 8,18,20
1128,731988533.7900617,0.0, 2, 5,23, 2,816956.7907533252, 2, 8,18,20
1153,11456917.565001138,0.0, 2, 5,23, 2,45498.36748407315, 2, 8,11,60
1154,1671780.5135505444,0.0, 2, 5, 1, 5,41621.25148766947, 2, 7,16,20
1156,3252662455.3463035,0.0, 2, 5,23, 2,6432973.7679397855, 2, 9,22,30
13,4467244887.2993145,827322.1112192301, 2, 7,12,60,7944578.184302592, 2, 9,22,30
61,301924526.0238348,58759.40635443481, 2, 5, 1,10,854682.2742463244, 2, 5,20,10
134,70666020.44019979,42376.01200569399, 2, 5, 4,10,104369.48322671017, 2,10,20,10
170,5241013.419656074,232.27731661587313, 2, 5, 4,10,11650.931360040839, 2,10,12,10
207,6509451.13922266,543.5021409221355, 2, 5, 3,10,15327.095199349082, 2,10,10,10
244,12749673.39982522,1014.5707620042115, 2, 5, 4,10,35359.08742820678, 2,10,20,10
281,46165882.48149605,39959.06841621388, 2, 5, 5,10,54634.54471212738, 2, 5,19,10
318,0.0,0.0, 2, 5, 1,10,0.0, 2, 5, 1,10
355,744338263.0608177,12374.216038804521, 2, 5, 4,10,3829218.1540669827, 2, 9,18,30
403,197687796.27748126,12374.216038804521, 2, 5, 4,10,483183.26346918393, 2,10,18,10
476,106772067.24485692,4732.048419519677, 2, 5, 4,10,237357.535085481, 2,10,12,10
513,0.0,0.0, 2, 5, 1,10,0.0, 2, 5, 1,10
562,91854813.62037106,44866.38930449191, 2, 8,23,10,92423.56117621048, 2, 5, 1,20
1046,0.0,0.0, 2, 5, 1,10,0.0, 2, 5, 1,10
1096,0.0,0.0, 2, 5, 1,10,0.0, 2, 5, 1,10
1134,3997779687.214917,574724.189820354, 2, 7,12,60,7141141.629428383, 2,11, 9,30
1323,546650466.7833339,0.0, 2, 5, 1,10,3375000.000000001, 2,11,21,20
1360,5019840.0,4979.999999999998, 2, 5, 1,40,4980.000000000002, 2, 6,10,60
1388,0.0,0.0, 2, 5, 1,10,0.0, 2, 5, 1,10
1,EXTREME_SUMMER,  46.90, -96.80,  -6.00, 274.30
5,7
1038,0.0,0.0, 7, 1, 1,10,0.0, 7, 1, 1,10
1039,27.333333333333332,0.0, 7, 1, 1,10,0.16666666666666666, 7, 1,17,40
581,0.1059789550869185,0.0, 7, 1, 1,10,0.4311468573256429, 7, 4,16,60
582,2.5904880486183934,0.0, 7, 1, 7,52,9.072257222547142, 7, 4,15,60
583,3.1430981357312295,0.0, 7, 1,23, 2,11.161082076688869, 7, 4,16,60
1115,0.0,0.0, 7, 1, 1,10,0.0, 7, 1, 1,10
1128,0.0,0.0, 7, 1, 1,10,0.0, 7, 1, 1,10
1153,0.0,0.0, 7, 1, 1,10,0.0, 7, 1, 1,10
1154,0.0,0.0, 7, 1, 1,10,0.0, 7, 1, 1,10
1156,0.0,0.0, 7, 1, 1,10,0.0, 7, 1, 1,10
13,919447693.6810683,124965.61966069389, 7, 1, 4,60,1962782.130416141, 7, 4,20,10
61,301924526.0238348,58759.40635443481, 7, 1, 1,10,854682.2742463244, 7, 1,20,10
134,70666020.44019979,42376.01200569399, 7, 1, 4,10,104369.48322671017, 7, 6,20,10
170,5241013.419656074,232.27731661587313, 7, 1, 4,10,11650.931360040839, 7, 6,12,10
207,6509451.13922266,543.5021409221355, 7, 1, 3,10,15327.095199349082, 7, 6,10,10
244,12749673.39982522,1014.5707620042115, 7, 1, 4,10,35359.08742820678, 7, 6,20,10
281,46165882.48149605,39959.06841621388, 7, 1, 5,10,54634.54471212738, 7, 1,19,10
318,0.0,0.0, 7, 1, 1,10,0.0, 7, 1, 1,10
355,654280511.9881005,12374.216038804521, 7, 1, 4,10,3829218.154066982, 7, 2,18,60
403,197687796.27748126,12374.216038804521, 7, 1, 4,10,483183.26346918393, 7, 6,18,10
476,106772067.24485692,4732.048419519677, 7, 1, 4,10,237357.535085481, 7, 6,12,10
513,0.0,0.0, 7, 1, 1,10,0.0, 7, 1, 1,10
562,53685442.450929575,1277.6316831191812, 7, 2, 6,20,92423.56117621047, 7, 1,15,50
1046,0.0,0.0, 7, 1, 1,10,0.0, 7, 1, 1,10
1096,488151864.76610434,10070.441908689836, 7, 2, 6,20,946278.3583145333, 7, 4,17,60
1134,0.0,0.0, 7, 1, 1,10,0.0, 7, 1, 1,10
1323,456592715.7106176,0.0, 7, 1, 1,10,3375000.0, 7, 1, 9,50
1360,5019840.0,4980.0, 7, 1, 1,10,4980.000000000002, 7, 2,20,20
1388,0.0,0.0, 7, 1, 1,10,0.0, 7, 1, 1,10
1,ANNUAL,  46.90, -96.80,  -6.00, 274.30
5,365
1038,129.3333333333334,0.0, 1, 1, 1,10,0.16666666666666666, 1,10, 8,50
1039,273.8333333333334,0.0, 1, 1, 1,10,0.16666666666666666, 4, 2,12,60
581,0.34120075026877283,0.0, 7, 1, 6, 2,1.4884635726691624,10,27, 9,60
582,5.6460021966281815,0.0, 1, 3, 8,55,42.2423496386153, 3, 7,18,60
583,7.041837326896087,0.0, 7, 1,23, 2,43.51335332362168,10,27, 9,60
1115,45241382119.20415,0.0, 1, 1,23, 2,3218941.170664086, 3,23, 8,60
1128,15216356678.505093,0.0, 1, 1,23, 2,894135.0893980158, 4,10,10,10
1153,371987055.44108987,0.0, 1, 1,23, 2,81345.54351473528, 3,24, 6,10
1154,1174852219.2286108,0.0, 1, 1, 1, 1,120000.0, 2,24,16,40
1156,39852925528.70778,0.0, 1, 1,23, 2,6432973.7679397855, 1,21, 4,60
13,85291348346.25781,106115.4183601288, 4, 3, 4,10,8141374.258924813, 1,24,19,40
61,15743207428.39043,58759.40635443481, 1, 1, 1,10,854682.2742463244, 1, 1,20,10
134,3685071073.433083,42376.01200569399, 1, 2, 4,10,104369.48322671017, 1, 1,20,10
170,273393721.45534325,232.27731661587313, 1, 2, 4,10,11650.931360040839, 1, 1,12,10
207,339560869.06955314,543.5021409221355, 1, 2, 3,10,15327.095199349082, 1, 1,10,10
244,664895467.8009839,1014.5707620042115, 1, 2, 4,10,35359.08742820678, 1, 1,20,10
281,2407221015.1057043,39959.06841621388, 1, 1, 5,10,54634.54471212738, 1, 1,19,10
318,0.0,0.0, 1, 1, 1,10,0.0, 1, 1, 1,10
355,35789631465.48578,12374.216038804521, 1, 2, 4,10,3829218.154066983, 2,28,18,60
403,10310294493.052883,12374.216038804521, 1, 2, 4,10,483183.26346918393, 1, 1,18,10
476,5569688622.065564,4732.048419519677, 1, 2, 4,10,237357.535085481, 1, 1,12,10
513,0.0,0.0, 1, 1, 1,10,0.0, 1, 1, 1,10
562,2533288916.912927,0.0, 2,24,16,40,92423.56117621047, 1, 1, 2,10
1046,0.0,0.0, 1, 1, 1,10,0.0, 1, 1, 1,10
1096,6451910645.646188,0.0, 1, 1, 1,10,1011096.5774637097, 9, 5,15,60
1134,56616121481.882545,0.0, 3, 5,14,40,7206635.890406693, 3, 8, 6,10
1323,25479336972.436993,0.0, 1, 1, 1,10,3375000.000000002, 2,13,17,20
1360,261748800.0,4979.999999999998, 6,18,18,50,4980.000000000002, 1, 1, 9,40
1388,0.0,0.0, 1, 1, 1,10,0.0, 1, 1, 1,10
End of Data
 Number of Records Written=          87
