Program Version,EnergyPlus, Version 22.2.0-c249759bad, YMD=2023.09.01 15:47
1,5,Environment Title[],Latitude[deg],Longitude[deg],Time Zone[],Elevation[m]
2,8,Day of Simulation[],Month[],Day of Month[],DST Indicator[1=yes 0=no],Hour[],StartMinute[],EndMinute[],DayType
3,5,Cumulative Day of Simulation[],Month[],Day of Month[],DST Indicator[1=yes 0=no],DayType  ! When Daily Report Variables Requested
4,2,Cumulative Days of Simulation[],Month[]  ! When Monthly Report Variables Requested
5,1,Cumulative Days of Simulation[] ! When Run Period Report Variables Requested
6,1,Calendar Year of Simulation[] ! When Annual Report Variables Requested
581,11,LIVING,AFN Zone Infiltration Air Change Rate [ach] !RunPeriod [Value,Min,Month,Day,Hour,Minute,Max,Month,Day,Hour,Minute]
582,11,ATTIC,AFN Zone Infiltration Air Change Rate [ach] !RunPeriod [Value,Min,Month,Day,Hour,Minute,Max,Month,Day,Hour,Minute]
583,11,CRAWLSPACE,AFN Zone Infiltration Air Change Rate [ach] !RunPeriod [Value,Min,Month,Day,Hour,Minute,Max,Month,Day,Hour,Minute]
1038,11,Facility,Facility Heating Setpoint Not Met Time [hr] !RunPeriod [Value,Min,Month,Day,Hour,Minute,Max,Month,Day,Hour,Minute]
1039,11,Facility,Facility Cooling Setpoint Not Met Time [hr] !RunPeriod [Value,Min,Month,Day,Hour,Minute,Max,Month,Day,Hour,Minute]
1115,11,DX_HEATING_COIL,Heating Coil Heating Energy [J] !RunPeriod [Value,Min,Month,Day,Hour,Minute,Max,Month,Day,Hour,Minute]
1128,11,DX_HEATING_COIL,Heating Coil Electricity Energy [J] !RunPeriod [Value,Min,Month,Day,Hour,Minute,Max,Month,Day,Hour,Minute]
1153,11,DX_HEATING_COIL,Heating Coil Defrost Electricity Energy [J] !RunPeriod [Value,Min,Month,Day,Hour,Minute,Max,Month,Day,Hour,Minute]
1154,11,DX_HEATING_COIL,Heating Coil Crankcase Heater Electricity Energy [J] !RunPeriod [Value,Min,Month,Day,Hour,Minute,Max,Month,Day,Hour,Minute]
1155,11,HEATING_RESISTANCE_BACKUP,Heating Coil Heating Energy [J] !RunPeriod [Value,Min,Month,Day,Hour,Minute,Max,Month,Day,Hour,Minute]
1156,11,HEATING_RESISTANCE_BACKUP,Heating Coil Electricity Energy [J] !RunPeriod [Value,Min,Month,Day,Hour,Minute,Max,Month,Day,Hour,Minute]
1292,11,WATER HEATER,Water Heater Heat Loss Energy [J] !RunPeriod [Value,Min,Month,Day,Hour,Minute,Max,Month,Day,Hour,Minute]
1306,11,WATER HEATER,Water Heater Heating Energy [J] !RunPeriod [Value,Min,Month,Day,Hour,Minute,Max,Month,Day,Hour,Minute]
1307,11,WATER HEATER,Water Heater Unmet Demand Heat Transfer Energy [J] !RunPeriod [Value,Min,Month,Day,Hour,Minute,Max,Month,Day,Hour,Minute]
1308,11,WATER HEATER,Water Heater Electricity Energy [J] !RunPeriod [Value,Min,Month,Day,Hour,Minute,Max,Month,Day,Hour,Minute]
13,11,Electricity:Facility [J] !RunPeriod [Value,Min,Month,Day,Hour,Minute,Max,Month,Day,Hour,Minute]
1134,11,Heating:Electricity [J] !RunPeriod [Value,Min,Month,Day,Hour,Minute,Max,Month,Day,Hour,Minute]
1096,11,Cooling:Electricity [J] !RunPeriod [Value,Min,Month,Day,Hour,Minute,Max,Month,Day,Hour,Minute]
562,11,Fans:Electricity [J] !RunPeriod [Value,Min,Month,Day,Hour,Minute,Max,Month,Day,Hour,Minute]
1379,11,Pumps:Electricity [J] !RunPeriod [Value,Min,Month,Day,Hour,Minute,Max,Month,Day,Hour,Minute]
1326,11,WaterSystems:Electricity [J] !RunPeriod [Value,Min,Month,Day,Hour,Minute,Max,Month,Day,Hour,Minute]
61,11,InteriorLights:Electricity [J] !RunPeriod [Value,Min,Month,Day,Hour,Minute,Max,Month,Day,Hour,Minute]
1046,11,ExteriorLights:Electricity [J] !RunPeriod [Value,Min,Month,Day,Hour,Minute,Max,Month,Day,Hour,Minute]
134,11,InteriorEquipment:Electricity [J] !RunPeriod [Value,Min,Month,Day,Hour,Minute,Max,Month,Day,Hour,Minute]
170,11,gas_dryer:InteriorEquipment:Electricity [J] !RunPeriod [Value,Min,Month,Day,Hour,Minute,Max,Month,Day,Hour,Minute]
207,11,clotheswasher:InteriorEquipment:Electricity [J] !RunPeriod [Value,Min,Month,Day,Hour,Minute,Max,Month,Day,Hour,Minute]
244,11,dishwasher:InteriorEquipment:Electricity [J] !RunPeriod [Value,Min,Month,Day,Hour,Minute,Max,Month,Day,Hour,Minute]
281,11,refrigerator:InteriorEquipment:Electricity [J] !RunPeriod [Value,Min,Month,Day,Hour,Minute,Max,Month,Day,Hour,Minute]
318,11,electric_mels:InteriorEquipment:Electricity [J] !RunPeriod [Value,Min,Month,Day,Hour,Minute,Max,Month,Day,Hour,Minute]
355,11,NaturalGas:Facility [J] !RunPeriod [Value,Min,Month,Day,Hour,Minute,Max,Month,Day,Hour,Minute]
403,11,InteriorEquipment:NaturalGas [J] !RunPeriod [Value,Min,Month,Day,Hour,Minute,Max,Month,Day,Hour,Minute]
476,11,gas_dryer:InteriorEquipment:NaturalGas [J] !RunPeriod [Value,Min,Month,Day,Hour,Minute,Max,Month,Day,Hour,Minute]
513,11,gas_mels:InteriorEquipment:NaturalGas [J] !RunPeriod [Value,Min,Month,Day,Hour,Minute,Max,Month,Day,Hour,Minute]
End of Data Dictionary
1,EXTREME_WINTER,  39.50,-119.77,  -8.00,1344.20
5,15
1038,0.5,0.0,12,22, 1,15,0.25, 1, 1, 4,30
1039,0.0,0.0,12,22, 1,15,0.0,12,22, 1,15
581,0.32125798662445754,0.15566881045588624, 1, 1, 2, 7,1.5446977542232054, 1, 1, 4,60
582,2.6965544109021025,0.0,12,22,21,60,25.504317916755745, 1, 1, 4,60
583,0.035647396632008256,0.0001995331950595242,12,28,19,37,0.11421271280684359, 1, 1, 6, 5
1115,2468116218.1002016,0.0,12,22,23, 7,4942546.624505045, 1, 1,12,15
1128,825282958.5852729,0.0,12,22,23, 7,1619274.855203525,12,26, 8,60
1153,30327009.983533256,0.0,12,22,23, 7,150085.89341607256, 1, 1,11,60
1154,162107760.74727368,0.0,12,22, 6, 5,180000.0,12,23,14,15
1155,87150728.39291637,0.0,12,22, 1,15,2137828.3061342495, 1, 4, 6,45
1156,87150728.39291637,0.0,12,22, 1,15,2137828.3061342495, 1, 4, 6,45
1292,-53790758.84285689,-39789.21796109873,12,25, 2,30,-4228.037241851154,12,29,16,60
1306,486514729.29486394,0.0,12,22, 1,15,7398727.136079789, 1, 5, 7,45
1307,10651656.557970703,0.0,12,22, 1,15,2789278.621741113, 1, 4,19,60
1308,486514729.29486394,0.0,12,22, 1,15,7398727.136079789, 1, 5, 7,45
13,2482422919.9198613,279566.45160502766,12,29,14,60,13397195.127820794, 1, 4, 9,45
61,646981127.1939323,88139.10953165221,12,22, 1,15,1282023.4113694867,12,22,20,15
134,151290040.75163814,63564.01800854099,12,22, 4,15,156554.22484006523,12,27,20,15
170,11185820.069951689,348.4159749238097,12,22, 4,15,17476.39704006126,12,27,12,15
207,13893028.5742839,815.2532113832032,12,22, 3,15,22990.642799023623,12,27,10,15
244,27284301.07562584,1521.856143006317,12,22, 4,15,53038.631142310165,12,27,20,15
281,98926891.03177746,59938.60262432081,12,22, 5,15,81951.81706819107,12,22,19,15
318,0.0,0.0,12,22, 1,15,0.0,12,22, 1,15
355,422701517.16107386,18561.32405820678,12,22, 4,15,724774.895203776,12,27,18,15
403,422701517.16107386,18561.32405820678,12,22, 4,15,724774.895203776,12,27,18,15
476,227882097.80545202,7098.072629279515,12,22, 4,15,356036.3026282215,12,27,12,15
513,0.0,0.0,12,22, 1,15,0.0,12,22, 1,15
562,90202711.81968862,0.0,12,22,23,15,176058.40554083508, 1, 4,10,15
1046,0.0,0.0,12,22, 1,15,0.0,12,22, 1,15
1096,2565853.1507428875,0.0,12,22, 1,15,133369.46665609654,12,29,16,30
1134,1104868457.7089963,0.0,12,29,14,60,4291284.797660544, 1, 4, 6,15
1326,486514729.29486376,0.0,12,22, 1,15,10327411.017115014, 1, 4, 9,45
1379,0.0,0.0,12,22, 1,15,0.0,12,22, 1,15
1,EXTREME_SUMMER,  39.50,-119.77,  -8.00,1344.20
5,7
1038,0.0,0.0, 7,20, 1,15,0.0, 7,20, 1,15
1039,2.5,0.0, 7,20, 1,15,0.25, 7,26,17,15
581,0.1365523905826896,0.0, 7,20, 6, 7,0.5246103616783003, 7,25,21,52
582,3.6406126912335077,0.0, 7,22, 8,13,16.53147465691481, 7,24,18,48
583,0.04195847560532489,0.00003662765424471106, 7,20, 6,11,0.09064132641227944, 7,26,19,33
1115,0.0,0.0, 7,20, 1, 7,0.0, 7,20, 1, 7
1128,0.0,0.0, 7,20, 1, 7,0.0, 7,20, 1, 7
1153,0.0,0.0, 7,20, 1, 7,0.0, 7,20, 1, 7
1154,0.0,0.0, 7,20, 1, 7,0.0, 7,20, 1, 7
1155,0.0,0.0, 7,20, 1, 7,0.0, 7,20, 1, 7
1156,0.0,0.0, 7,20, 1, 7,0.0, 7,20, 1, 7
1292,-22066916.237972558,-34257.727423834694, 7,23,13,45,-2690.1454487173096, 7,21, 8,50
1306,173816961.7153745,0.0, 7,20, 1, 7,3899744.858703237, 7,23, 7,60
1307,1435979.9500504741,0.0, 7,20, 1, 7,365160.8790488707, 7,26,19,52
1308,173816961.7153745,0.0, 7,20, 1, 7,3899744.858703237, 7,23, 7,60
13,1141349309.4866343,155989.3668033098, 7,22, 4,60,13479990.514555901, 7,26,19,60
61,301924526.02383536,88139.10953165221, 7,20, 1,15,1282023.4113694867, 7,20,20,15
134,70666020.44019976,63564.01800854099, 7,20, 4,15,156554.22484006523, 7,25,20,15
170,5241013.419656067,348.4159749238097, 7,20, 4,15,17476.39704006126, 7,25,12,15
207,6509451.13922267,815.2532113832032, 7,20, 3,15,22990.642799023623, 7,25,10,15
244,12749673.399825225,1521.856143006317, 7,20, 4,15,53038.631142310165, 7,25,20,15
281,46165882.481495745,59938.60262432081, 7,20, 5,15,81951.81706819107, 7,20,19,15
318,0.0,0.0, 7,20, 1,15,0.0, 7,20, 1,15
355,197687796.27748066,18561.32405820678, 7,20, 4,15,724774.895203776, 7,25,18,15
403,197687796.27748066,18561.32405820678, 7,20, 4,15,724774.895203776, 7,25,18,15
476,106772067.24485716,7098.072629279515, 7,20, 4,15,356036.3026282215, 7,25,12,15
513,0.0,0.0, 7,20, 1,15,0.0, 7,20, 1,15
562,54690698.59047905,0.0, 7,21, 5,45,176058.40554083508, 7,26,16,60
1046,0.0,0.0, 7,20, 1,15,0.0, 7,20, 1,15
1096,540251102.7167462,0.0, 7,21, 5,45,1982802.1817212244, 7,26,16,60
1134,0.0,0.0, 7,20, 1,15,0.0, 7,20, 1,15
1326,173816961.71537456,0.0, 7,20, 1,15,10363052.06812929, 7,26,19,60
1379,0.0,0.0, 7,20, 1,15,0.0, 7,20, 1,15
1,ANNUAL,  39.50,-119.77,  -8.00,1344.20
5,365
1038,0.25,0.0, 1, 1, 1,15,0.25, 3,12,23,60
1039,53.75,0.0, 1, 1, 1,15,0.25, 1,16,17,15
581,0.23308574205112517,0.0, 6,27,23, 3,1.6660293742077197, 3,29, 9,60
582,3.323296190090191,0.0, 1, 3,19,45,32.129470902690656, 3,29, 9,60
583,0.024073336224712322,0.0, 6,27,23, 3,0.1167791798237293, 1, 1, 6, 5
1115,12455789467.650578,0.0, 1, 1,23, 5,5011214.290318487, 3,13, 6,60
1128,4059398109.344552,0.0, 1, 1,23, 5,1645960.7679331584,11,17, 6,60
1153,149620778.7318372,0.0, 1, 1, 1,52,140784.67536567218, 1, 1,11,60
1154,2311318891.364077,0.0, 1, 1, 6, 5,180000.0, 1, 2,13,15
1155,175368361.9117582,0.0, 1, 1, 1, 5,1931314.8400494305, 1, 4, 6,45
1156,175368361.9117582,0.0, 1, 1, 1, 5,1931314.8400494305, 1, 4, 6,45
1292,-1216993684.137808,-39800.06175108875, 2,23, 1,45,-2297.6139029552824, 3,24,15,43
1306,10689877474.908894,0.0, 1, 1, 1, 5,10540800.0,12,17,19,60
1307,192517985.73158228,0.0, 1, 1, 1, 5,5641934.469074345, 2,26,19,60
1308,10689877474.908894,0.0, 1, 1, 1, 5,10540800.0,12,17,19,60
13,47294464990.730125,151703.1275401932, 3,29, 4,15,13467680.201771295, 7,16,19,60
61,15743207428.383959,88139.10953165221, 1, 1, 1,15,1282023.4113694867, 1, 1,20,15
134,3685071073.4325233,63564.01800854099, 1, 2, 4,15,156554.22484006523, 1, 1,20,15
170,273393721.45532674,348.4159749238097, 1, 2, 4,15,17476.39704006126, 1, 1,12,15
207,339560869.0695816,815.2532113832032, 1, 2, 3,15,22990.642799023623, 1, 1,10,15
244,664895467.8009144,1521.856143006317, 1, 2, 4,15,53038.631142310165, 1, 1,20,15
281,2407221015.106824,59938.60262432081, 1, 1, 5,15,81951.81706819107, 1, 1,19,15
318,0.0,0.0, 1, 1, 1,15,0.0, 1, 1, 1,15
355,10310294493.051695,18561.32405820678, 1, 2, 4,15,724774.895203776, 1, 1,18,15
403,10310294493.051695,18561.32405820678, 1, 2, 4,15,724774.895203776, 1, 1,18,15
476,5569688622.066177,7098.072629279515, 1, 2, 4,15,356036.3026282215, 1, 1,12,15
513,0.0,0.0, 1, 1, 1,15,0.0, 1, 1, 1,15
562,1490418481.213451,0.0, 1, 2,11,60,176058.4055408351, 8, 3,17,30
1046,0.0,0.0, 1, 1, 1,15,0.0, 1, 1, 1,15
1096,8990184391.437107,0.0, 1, 1, 1,15,2064916.394606481, 7,18,15,60
1134,6695706141.35224,0.0, 1, 7,17,60,4089192.675940456, 1, 4, 6,15
1326,10689877474.908897,0.0, 1, 1, 1,15,10540800.0, 3,26,19,60
1379,0.0,0.0, 1, 1, 1,15,0.0, 1, 1, 1,15
End of Data
 Number of Records Written=          99
