Program Version,EnergyPlus, Version 22.2.0-c249759bad, YMD=2023.07.07 15:18
1,5,Environment Title[],Latitude[deg],Longitude[deg],Time Zone[],Elevation[m]
2,8,Day of Simulation[],Month[],Day of Month[],DST Indicator[1=yes 0=no],Hour[],StartMinute[],EndMinute[],DayType
3,5,Cumulative Day of Simulation[],Month[],Day of Month[],DST Indicator[1=yes 0=no],DayType  ! When Daily Report Variables Requested
4,2,Cumulative Days of Simulation[],Month[]  ! When Monthly Report Variables Requested
5,1,Cumulative Days of Simulation[] ! When Run Period Report Variables Requested
6,1,Calendar Year of Simulation[] ! When Annual Report Variables Requested
581,11,LIVING,AFN Zone Infiltration Air Change Rate [ach] !RunPeriod [Value,Min,Month,Day,Hour,Minute,Max,Month,Day,Hour,Minute]
582,11,ATTIC,AFN Zone Infiltration Air Change Rate [ach] !RunPeriod [Value,Min,Month,Day,Hour,Minute,Max,Month,Day,Hour,Minute]
583,11,CRAWLSPACE,AFN Zone Infiltration Air Change Rate [ach] !RunPeriod [Value,Min,Month,Day,Hour,Minute,Max,Month,Day,Hour,Minute]
1038,11,Facility,Facility Heating Setpoint Not Met Time [hr] !RunPeriod [Value,Min,Month,Day,Hour,Minute,Max,Month,Day,Hour,Minute]
1039,11,Facility,Facility Cooling Setpoint Not Met Time [hr] !RunPeriod [Value,Min,Month,Day,Hour,Minute,Max,Month,Day,Hour,Minute]
1115,11,DX_HEATING_COIL,Heating Coil Heating Energy [J] !RunPeriod [Value,Min,Month,Day,Hour,Minute,Max,Month,Day,Hour,Minute]
1128,11,DX_HEATING_COIL,Heating Coil Electricity Energy [J] !RunPeriod [Value,Min,Month,Day,Hour,Minute,Max,Month,Day,Hour,Minute]
1153,11,DX_HEATING_COIL,Heating Coil Defrost Electricity Energy [J] !RunPeriod [Value,Min,Month,Day,Hour,Minute,Max,Month,Day,Hour,Minute]
1154,11,DX_HEATING_COIL,Heating Coil Crankcase Heater Electricity Energy [J] !RunPeriod [Value,Min,Month,Day,Hour,Minute,Max,Month,Day,Hour,Minute]
1156,11,HEATING_RESISTANCE_BACKUP,Heating Coil Electricity Energy [J] !RunPeriod [Value,Min,Month,Day,Hour,Minute,Max,Month,Day,Hour,Minute]
13,11,Electricity:Facility [J] !RunPeriod [Value,Min,Month,Day,Hour,Minute,Max,Month,Day,Hour,Minute]
1134,11,Heating:Electricity [J] !RunPeriod [Value,Min,Month,Day,Hour,Minute,Max,Month,Day,Hour,Minute]
1096,11,Cooling:Electricity [J] !RunPeriod [Value,Min,Month,Day,Hour,Minute,Max,Month,Day,Hour,Minute]
562,11,Fans:Electricity [J] !RunPeriod [Value,Min,Month,Day,Hour,Minute,Max,Month,Day,Hour,Minute]
1388,11,Pumps:Electricity [J] !RunPeriod [Value,Min,Month,Day,Hour,Minute,Max,Month,Day,Hour,Minute]
1360,11,WaterSystems:Electricity [J] !RunPeriod [Value,Min,Month,Day,Hour,Minute,Max,Month,Day,Hour,Minute]
61,11,InteriorLights:Electricity [J] !RunPeriod [Value,Min,Month,Day,Hour,Minute,Max,Month,Day,Hour,Minute]
1046,11,ExteriorLights:Electricity [J] !RunPeriod [Value,Min,Month,Day,Hour,Minute,Max,Month,Day,Hour,Minute]
134,11,InteriorEquipment:Electricity [J] !RunPeriod [Value,Min,Month,Day,Hour,Minute,Max,Month,Day,Hour,Minute]
170,11,gas_dryer:InteriorEquipment:Electricity [J] !RunPeriod [Value,Min,Month,Day,Hour,Minute,Max,Month,Day,Hour,Minute]
207,11,clotheswasher:InteriorEquipment:Electricity [J] !RunPeriod [Value,Min,Month,Day,Hour,Minute,Max,Month,Day,Hour,Minute]
244,11,dishwasher:InteriorEquipment:Electricity [J] !RunPeriod [Value,Min,Month,Day,Hour,Minute,Max,Month,Day,Hour,Minute]
281,11,refrigerator:InteriorEquipment:Electricity [J] !RunPeriod [Value,Min,Month,Day,Hour,Minute,Max,Month,Day,Hour,Minute]
318,11,electric_mels:InteriorEquipment:Electricity [J] !RunPeriod [Value,Min,Month,Day,Hour,Minute,Max,Month,Day,Hour,Minute]
355,11,NaturalGas:Facility [J] !RunPeriod [Value,Min,Month,Day,Hour,Minute,Max,Month,Day,Hour,Minute]
1323,11,WaterSystems:NaturalGas [J] !RunPeriod [Value,Min,Month,Day,Hour,Minute,Max,Month,Day,Hour,Minute]
403,11,InteriorEquipment:NaturalGas [J] !RunPeriod [Value,Min,Month,Day,Hour,Minute,Max,Month,Day,Hour,Minute]
476,11,gas_dryer:InteriorEquipment:NaturalGas [J] !RunPeriod [Value,Min,Month,Day,Hour,Minute,Max,Month,Day,Hour,Minute]
513,11,gas_mels:InteriorEquipment:NaturalGas [J] !RunPeriod [Value,Min,Month,Day,Hour,Minute,Max,Month,Day,Hour,Minute]
End of Data Dictionary
1,EXTREME_WINTER,  39.12, -94.60,  -6.00, 231.00
5,7
1038,0.8333333333333333,0.0, 1,13, 1,10,0.16666666666666666, 1,13, 6,10
1039,0.0,0.0, 1,13, 1,10,0.0, 1,13, 1,10
581,0.32408108994141654,0.18007149840983533, 1,19,19,54,0.6447444849604902, 1,18,15,60
582,3.6653495176640467,0.0, 1,17, 5,60,13.554074227412785, 1,18,15,10
583,4.923329038624032,0.0001491119964140187, 1,19,18,60,16.921385734365202, 1,18,15,60
1115,1987028368.108624,0.0, 1,13,23, 1,3071221.225831125, 1,18, 8,50
1128,675020187.6056331,0.0, 1,13,23, 1,911574.6392706957, 1,13, 9,10
1153,17056917.98200647,0.0, 1,13,23, 1,57763.04730538397, 1,18, 7,60
1154,28694830.224141914,0.0, 1,13, 1, 2,120000.0, 1,18,13,40
1156,552534979.3898308,0.0, 1,13,20,10,3642659.248858552, 1,16, 6,30
13,1727655161.78054,310413.9030351998, 1,19,15,10,4994468.318178317, 1,16, 6,30
61,301924526.0238348,58759.40635443481, 1,13, 1,10,854682.2742463244, 1,13,20,10
134,70666020.44019979,42376.01200569399, 1,13, 4,10,104369.48322671017, 1,18,20,10
170,5241013.419656074,232.27731661587313, 1,13, 4,10,11650.931360040839, 1,18,12,10
207,6509451.13922266,543.5021409221355, 1,13, 3,10,15327.095199349082, 1,18,10,10
244,12749673.39982522,1014.5707620042115, 1,13, 4,10,35359.08742820678, 1,18,20,10
281,46165882.48149605,39959.06841621388, 1,13, 5,10,54634.54471212738, 1,13,19,10
318,0.0,0.0, 1,13, 1,10,0.0, 1,13, 1,10
355,741920671.5136145,12374.216038804521, 1,13, 4,10,3829218.154066982, 1,14,18,60
403,197687796.27748126,12374.216038804521, 1,13, 4,10,483183.26346918393, 1,18,18,10
476,106772067.24485692,4732.048419519677, 1,13, 4,10,237357.535085481, 1,18,12,10
513,0.0,0.0, 1,13, 1,10,0.0, 1,13, 1,10
562,76737860.11489417,0.0, 1,16,17,10,99988.51724841508, 1,13, 1,10
1046,0.0,0.0, 1,13, 1,10,0.0, 1,13, 1,10
1096,0.0,0.0, 1,13, 1,10,0.0, 1,13, 1,10
1134,1273306915.2016103,120000.0, 1,16,17,10,4476920.477919249, 1,16, 6,30
1323,544232875.2361302,0.0, 1,13, 1,10,3375000.000000002, 1,13,17,20
1360,5019840.0,4980.0, 1,13, 1,20,4980.000000000001, 1,13, 1,10
1388,0.0,0.0, 1,13, 1,10,0.0, 1,13, 1,10
1,EXTREME_SUMMER,  39.12, -94.60,  -6.00, 231.00
5,7
1038,0.0,0.0, 8,24, 1,10,0.0, 8,24, 1,10
1039,64.66666666666666,0.0, 8,24, 1,10,0.16666666666666666, 8,24,13,50
581,0.12702302507530552,0.0, 8,28, 4,45,0.3093440997624785, 8,27,16,53
582,3.5661753386124895,0.31049278795295276, 8,29, 6,30,8.365342936165597, 8,28,15,53
583,4.732982033953078,0.0, 8,28, 6, 7,10.094115135564685, 8,27,10,54
1115,0.0,0.0, 8,24, 1,10,0.0, 8,24, 1,10
1128,0.0,0.0, 8,24, 1,10,0.0, 8,24, 1,10
1153,0.0,0.0, 8,24, 1,10,0.0, 8,24, 1,10
1154,0.0,0.0, 8,24, 1,10,0.0, 8,24, 1,10
1156,0.0,0.0, 8,24, 1,10,0.0, 8,24, 1,10
13,1160431902.0076957,261057.209569558, 8,28, 4,60,2126119.0727136754, 8,30,20,10
61,301924526.0238348,58759.40635443481, 8,24, 1,10,854682.2742463244, 8,24,20,10
134,70666020.44019979,42376.01200569399, 8,24, 4,10,104369.48322671017, 8,29,20,10
170,5241013.419656074,232.27731661587313, 8,24, 4,10,11650.931360040839, 8,29,12,10
207,6509451.13922266,543.5021409221355, 8,24, 3,10,15327.095199349082, 8,29,10,10
244,12749673.39982522,1014.5707620042115, 8,24, 4,10,35359.08742820678, 8,29,20,10
281,46165882.48149605,39959.06841621388, 8,24, 5,10,54634.54471212738, 8,24,19,10
318,0.0,0.0, 8,24, 1,10,0.0, 8,24, 1,10
355,617302563.5429827,12374.216038804521, 8,24, 4,10,3829218.154066982, 8,25,18,60
403,197687796.27748126,12374.216038804521, 8,24, 4,10,483183.26346918393, 8,29,18,10
476,106772067.24485692,4732.048419519677, 8,24, 4,10,237357.535085481, 8,29,12,10
513,0.0,0.0, 8,24, 1,10,0.0, 8,24, 1,10
562,70617505.91407534,15225.87730887143, 8,28, 5,60,99988.51724841508, 8,24,13,30
1046,0.0,0.0, 8,24, 1,10,0.0, 8,24, 1,10
1096,712204009.6295836,132025.3240662465, 8,28, 5,60,1162479.1879348862, 8,30,16,60
1134,0.0,0.0, 8,24, 1,10,0.0, 8,24, 1,10
1323,419614767.2655011,0.0, 8,24, 1,10,3375000.000000001, 8,26,16,40
1360,5019840.0,4980.0, 8,24, 1,10,4980.000000000002, 8,27,10,30
1388,0.0,0.0, 8,24, 1,10,0.0, 8,24, 1,10
1,ANNUAL,  39.12, -94.60,  -6.00, 231.00
5,365
1038,7.8333333333333375,0.0, 1, 1, 1,10,0.16666666666666666, 1, 9, 6,10
1039,477.1666666666668,0.0, 1, 1, 1,10,0.16666666666666666, 4, 3,15,30
581,0.21707709544482265,0.0, 3,17,19,53,1.1415770359634625, 6,27, 5,60
582,3.9236388824203003,0.0, 1, 1,19,55,23.366055913100848, 2,10,17,55
583,4.703533135654912,0.0, 5,27,23, 2,27.00533609472869, 6,19, 1,55
1115,19284069114.09314,0.0, 1, 1, 1, 5,3359194.0188360233, 3,28, 6,10
1128,6073943661.453601,0.0, 1, 1, 1, 5,959996.2190819618, 1, 8, 8,40
1153,172097368.64326584,0.0, 1, 1, 1, 5,91435.24492296731, 3,28,15,50
1154,1443650379.9380121,0.0, 1, 1, 6, 3,120000.0, 1, 1,21,10
1156,2539986981.8137317,0.0, 1, 1, 1, 5,3642659.248858552, 1,16, 6,30
13,43743028166.821724,106115.4183601288, 3, 6, 4,10,4993598.328351564, 1,16, 6,60
61,15743207428.39043,58759.40635443481, 1, 1, 1,10,854682.2742463244, 1, 1,20,10
134,3685071073.433083,42376.01200569399, 1, 2, 4,10,104369.48322671017, 1, 1,20,10
170,273393721.45534325,232.27731661587313, 1, 2, 4,10,11650.931360040839, 1, 1,12,10
207,339560869.06955314,543.5021409221355, 1, 2, 3,10,15327.095199349082, 1, 1,10,10
244,664895467.8009839,1014.5707620042115, 1, 2, 4,10,35359.08742820678, 1, 1,20,10
281,2407221015.1057043,39959.06841621388, 1, 1, 5,10,54634.54471212738, 1, 1,19,10
318,0.0,0.0, 1, 1, 1,10,0.0, 1, 1, 1,10
355,35708920897.497,12374.216038804521, 1, 2, 4,10,3829218.1540669827, 1,13,18,20
403,10310294493.052883,12374.216038804521, 1, 2, 4,10,483183.26346918393, 1, 1,18,10
476,5569688622.065564,4732.048419519677, 1, 2, 4,10,237357.535085481, 1, 1,12,10
513,0.0,0.0, 1, 1, 1,10,0.0, 1, 1, 1,10
562,1979998834.2467954,0.0, 1, 1, 1,10,99988.5172484151, 6,18,19,20
1046,0.0,0.0, 1, 1, 1,10,0.0, 1, 1, 1,10
1096,11843323638.909872,0.0, 1, 1, 1,10,1164111.9352584537, 8,30,16,60
1134,10229678391.84861,0.0, 1, 3,12,60,4476050.488092496, 1,16, 6,60
1323,25398626404.448124,0.0, 1, 1, 1,10,3375000.000000002, 4, 4, 9,60
1360,261748800.0,4979.999999999998, 4,12, 9,20,4980.000000000002, 1,31,12,10
1388,0.0,0.0, 1, 1, 1,10,0.0, 1, 1, 1,10
End of Data
 Number of Records Written=          87
