Program Version,EnergyPlus, Version 22.2.0-c249759bad, YMD=2023.08.31 12:58
1,5,Environment Title[],Latitude[deg],Longitude[deg],Time Zone[],Elevation[m]
2,8,Day of Simulation[],Month[],Day of Month[],DST Indicator[1=yes 0=no],Hour[],StartMinute[],EndMinute[],DayType
3,5,Cumulative Day of Simulation[],Month[],Day of Month[],DST Indicator[1=yes 0=no],DayType  ! When Daily Report Variables Requested
4,2,Cumulative Days of Simulation[],Month[]  ! When Monthly Report Variables Requested
5,1,Cumulative Days of Simulation[] ! When Run Period Report Variables Requested
6,1,Calendar Year of Simulation[] ! When Annual Report Variables Requested
618,11,DX_HEATING_COIL,Heating Coil Heating Energy [J] !RunPeriod [Value,Min,Month,Day,Hour,Minute,Max,Month,Day,Hour,Minute]
631,11,DX_HEATING_COIL,Heating Coil Electricity Energy [J] !RunPeriod [Value,Min,Month,Day,Hour,Minute,Max,Month,Day,Hour,Minute]
656,11,DX_HEATING_COIL,Heating Coil Defrost Electricity Energy [J] !RunPeriod [Value,Min,Month,Day,Hour,Minute,Max,Month,Day,Hour,Minute]
657,11,DX_HEATING_COIL,Heating Coil Crankcase Heater Electricity Energy [J] !RunPeriod [Value,Min,Month,Day,Hour,Minute,Max,Month,Day,Hour,Minute]
684,11,HEAT PUMP WATER HEATER EVAPORATOR,Cooling Coil Total Water Heating Energy [J] !RunPeriod [Value,Min,Month,Day,Hour,Minute,Max,Month,Day,Hour,Minute]
685,11,HEAT PUMP WATER HEATER EVAPORATOR,Cooling Coil Water Heating Electricity Energy [J] !RunPeriod [Value,Min,Month,Day,Hour,Minute,Max,Month,Day,Hour,Minute]
712,11,LIVING,AFN Zone Infiltration Air Change Rate [ach] !RunPeriod [Value,Min,Month,Day,Hour,Minute,Max,Month,Day,Hour,Minute]
713,11,ATTIC,AFN Zone Infiltration Air Change Rate [ach] !RunPeriod [Value,Min,Month,Day,Hour,Minute,Max,Month,Day,Hour,Minute]
714,11,CRAWLSPACE,AFN Zone Infiltration Air Change Rate [ach] !RunPeriod [Value,Min,Month,Day,Hour,Minute,Max,Month,Day,Hour,Minute]
1157,11,Facility,Facility Heating Setpoint Not Met Time [hr] !RunPeriod [Value,Min,Month,Day,Hour,Minute,Max,Month,Day,Hour,Minute]
1158,11,Facility,Facility Cooling Setpoint Not Met Time [hr] !RunPeriod [Value,Min,Month,Day,Hour,Minute,Max,Month,Day,Hour,Minute]
1184,11,HEATING_RESISTANCE_BACKUP,Heating Coil Heating Energy [J] !RunPeriod [Value,Min,Month,Day,Hour,Minute,Max,Month,Day,Hour,Minute]
1185,11,HEATING_RESISTANCE_BACKUP,Heating Coil Electricity Energy [J] !RunPeriod [Value,Min,Month,Day,Hour,Minute,Max,Month,Day,Hour,Minute]
1334,11,WATER HEATER TANK,Water Heater Heating Energy [J] !RunPeriod [Value,Min,Month,Day,Hour,Minute,Max,Month,Day,Hour,Minute]
13,11,Electricity:Facility [J] !RunPeriod [Value,Min,Month,Day,Hour,Minute,Max,Month,Day,Hour,Minute]
637,11,Heating:Electricity [J] !RunPeriod [Value,Min,Month,Day,Hour,Minute,Max,Month,Day,Hour,Minute]
599,11,Cooling:Electricity [J] !RunPeriod [Value,Min,Month,Day,Hour,Minute,Max,Month,Day,Hour,Minute]
692,11,Fans:Electricity [J] !RunPeriod [Value,Min,Month,Day,Hour,Minute,Max,Month,Day,Hour,Minute]
1372,11,Pumps:Electricity [J] !RunPeriod [Value,Min,Month,Day,Hour,Minute,Max,Month,Day,Hour,Minute]
677,11,WaterSystems:Electricity [J] !RunPeriod [Value,Min,Month,Day,Hour,Minute,Max,Month,Day,Hour,Minute]
61,11,InteriorLights:Electricity [J] !RunPeriod [Value,Min,Month,Day,Hour,Minute,Max,Month,Day,Hour,Minute]
1165,11,ExteriorLights:Electricity [J] !RunPeriod [Value,Min,Month,Day,Hour,Minute,Max,Month,Day,Hour,Minute]
134,11,InteriorEquipment:Electricity [J] !RunPeriod [Value,Min,Month,Day,Hour,Minute,Max,Month,Day,Hour,Minute]
170,11,gas_dryer:InteriorEquipment:Electricity [J] !RunPeriod [Value,Min,Month,Day,Hour,Minute,Max,Month,Day,Hour,Minute]
207,11,clotheswasher:InteriorEquipment:Electricity [J] !RunPeriod [Value,Min,Month,Day,Hour,Minute,Max,Month,Day,Hour,Minute]
244,11,dishwasher:InteriorEquipment:Electricity [J] !RunPeriod [Value,Min,Month,Day,Hour,Minute,Max,Month,Day,Hour,Minute]
281,11,refrigerator:InteriorEquipment:Electricity [J] !RunPeriod [Value,Min,Month,Day,Hour,Minute,Max,Month,Day,Hour,Minute]
318,11,electric_mels:InteriorEquipment:Electricity [J] !RunPeriod [Value,Min,Month,Day,Hour,Minute,Max,Month,Day,Hour,Minute]
355,11,NaturalGas:Facility [J] !RunPeriod [Value,Min,Month,Day,Hour,Minute,Max,Month,Day,Hour,Minute]
403,11,InteriorEquipment:NaturalGas [J] !RunPeriod [Value,Min,Month,Day,Hour,Minute,Max,Month,Day,Hour,Minute]
476,11,gas_dryer:InteriorEquipment:NaturalGas [J] !RunPeriod [Value,Min,Month,Day,Hour,Minute,Max,Month,Day,Hour,Minute]
513,11,gas_mels:InteriorEquipment:NaturalGas [J] !RunPeriod [Value,Min,Month,Day,Hour,Minute,Max,Month,Day,Hour,Minute]
End of Data Dictionary
1,EXTREME_WINTER,  33.63, -84.44,  -5.00, 307.90
5,7
1157,0.75,0.0, 2,10, 1,15,0.25, 2,11, 6,15
1158,0.0,0.0, 2,10, 1,15,0.0, 2,10, 1,15
618,1222675252.7962263,0.0, 2,10,15,22,4664355.194479073, 2,15, 9,60
631,358232088.4276496,0.0, 2,10,15,22,1315665.1455387557, 2,15, 9,60
656,23812996.29906131,0.0, 2,10, 1,18,125759.52126197674, 2,11, 7,15
657,54830957.57156988,0.0, 2,10, 6, 3,180000.0, 2,10,16,15
684,248193194.3087083,0.0, 2,10, 1, 2,1595781.8464857081, 2,10, 8,30
685,54201592.88606216,0.0, 2,10, 1, 2,361960.2193385631, 2,10,11,30
712,0.30553695810748793,0.1295400933012094, 2,10, 6, 3,0.7298523801768206, 2,12, 8,50
713,6.355113916741847,0.0, 2,10, 5,52,20.51353937013246, 2,12, 8,50
714,6.649584176522857,0.00020244211535527736, 2,15,23,37,19.68619614340232, 2,12, 8,50
1184,81091917.59969491,0.0, 2,10, 1, 2,2984328.6914080954, 2,12, 9,15
1185,81091917.59969491,0.0, 2,10, 1, 2,2984328.6914080954, 2,12, 9,15
1334,0.0,0.0, 2,10, 1, 2,0.0, 2,10, 1, 2
13,1009760230.2187786,279667.0388981225, 2,14,15,15,5486531.832598224, 2,12, 8,60
61,301924526.02383536,88139.10953165221, 2,10, 1,15,1282023.4113694867, 2,10,20,15
134,70666020.44019976,63564.01800854099, 2,10, 4,15,156554.22484006523, 2,15,20,15
170,5241013.419656067,348.4159749238097, 2,10, 4,15,17476.39704006126, 2,15,12,15
207,6509451.13922267,815.2532113832032, 2,10, 3,15,22990.642799023623, 2,15,10,15
244,12749673.399825225,1521.856143006317, 2,10, 4,15,53038.631142310165, 2,15,20,15
281,46165882.481495745,59938.60262432081, 2,10, 5,15,81951.81706819107, 2,10,19,15
318,0.0,0.0, 2,10, 1,15,0.0, 2,10, 1,15
355,197687796.27748066,18561.32405820678, 2,10, 4,15,724774.895203776, 2,15,18,15
403,197687796.27748066,18561.32405820678, 2,10, 4,15,724774.895203776, 2,15,18,15
476,106772067.24485716,7098.072629279515, 2,10, 4,15,356036.3026282215, 2,15,12,15
513,0.0,0.0, 2,10, 1,15,0.0, 2,10, 1,15
599,5809657.155202181,0.0, 2,10, 1,15,340412.1541369633, 2,16,17,15
637,517967959.8979755,0.0, 2,14,11,60,4326662.579587218, 2,12, 8,60
677,59342392.88606218,7650.0, 2,10, 1,15,369610.2193385631, 2,10,11,30
692,54049673.81550398,0.0, 2,10,15,30,218506.03860681728, 2,11, 7,15
1165,0.0,0.0, 2,10, 1,15,0.0, 2,10, 1,15
1372,0.0,0.0, 2,10, 1,15,0.0, 2,10, 1,15
1,EXTREME_SUMMER,  33.63, -84.44,  -5.00, 307.90
5,7
1157,0.0,0.0, 6,15, 1,15,0.0, 6,15, 1,15
1158,39.5,0.0, 6,15, 1,15,0.25, 6,15,15,15
618,0.0,0.0, 6,15, 1,15,0.0, 6,15, 1,15
631,0.0,0.0, 6,15, 1,15,0.0, 6,15, 1,15
656,0.0,0.0, 6,15, 1,15,0.0, 6,15, 1,15
657,0.0,0.0, 6,15, 1,15,0.0, 6,15, 1,15
684,194116958.63376477,0.0, 6,15, 1,15,1727651.4861782559, 6,21, 2,60
685,39367251.25659081,0.0, 6,15, 1,15,376530.2630459884, 6,21,12,30
712,0.07342541905150651,0.0, 6,15, 1,15,0.370939017228334, 6,20,12,48
713,3.1352927344548194,0.0, 6,15,21, 2,16.95463014251929, 6,20,12,48
714,3.3984445559294247,0.0, 6,18,23, 3,13.424792371571378, 6,20,12,48
1184,0.0,0.0, 6,15, 1,15,0.0, 6,15, 1,15
1185,0.0,0.0, 6,15, 1,15,0.0, 6,15, 1,15
1334,0.0,0.0, 6,15, 1,15,0.0, 6,15, 1,15
13,1065243118.8069454,246411.5945491633, 6,21, 3,30,3430231.6823150297, 6,16,20,15
61,301924526.02383536,88139.10953165221, 6,15, 1,15,1282023.4113694867, 6,15,20,15
134,70666020.44019976,63564.01800854099, 6,15, 4,15,156554.22484006523, 6,20,20,15
170,5241013.419656067,348.4159749238097, 6,15, 4,15,17476.39704006126, 6,20,12,15
207,6509451.13922267,815.2532113832032, 6,15, 3,15,22990.642799023623, 6,20,10,15
244,12749673.399825225,1521.856143006317, 6,15, 4,15,53038.631142310165, 6,20,20,15
281,46165882.481495745,59938.60262432081, 6,15, 5,15,81951.81706819107, 6,15,19,15
318,0.0,0.0, 6,15, 1,15,0.0, 6,15, 1,15
355,197687796.27748066,18561.32405820678, 6,15, 4,15,724774.895203776, 6,20,18,15
403,197687796.27748066,18561.32405820678, 6,15, 4,15,724774.895203776, 6,20,18,15
476,106772067.24485716,7098.072629279515, 6,15, 4,15,356036.3026282215, 6,20,12,15
513,0.0,0.0, 6,15, 1,15,0.0, 6,15, 1,15
599,579387754.9165579,0.0, 6,18, 5,45,1501893.9565579512, 6,17,16,60
637,0.0,0.0, 6,15, 1,15,0.0, 6,15, 1,15
677,44508051.25659083,7650.0, 6,15, 1,15,386147.86734243087, 6,19,10,15
692,68756766.16976166,11281.426896521176, 6,21, 3,30,218506.0386068173, 6,15,19,45
1165,0.0,0.0, 6,15, 1,15,0.0, 6,15, 1,15
1372,0.0,0.0, 6,15, 1,15,0.0, 6,15, 1,15
1,ANNUAL,  33.63, -84.44,  -5.00, 307.90
5,365
1157,13.5,0.0, 1, 1, 1,15,0.25, 1, 2, 6,15
1158,582.75,0.0, 1, 1, 1,15,0.25, 5, 5,17,45
618,9320018576.347876,0.0, 1, 1, 1, 1,5014760.582328591, 3,21, 7,30
631,2664322836.256572,0.0, 1, 1, 1, 1,1390812.1538690974, 1,20, 8,45
656,83743690.44613828,0.0, 1, 1, 1, 1,126745.94598412693, 2,11, 6,45
657,1057001159.773492,0.0, 1, 1, 1,33,180000.0, 1, 1,22,30
684,11488714875.95847,0.0, 1, 1, 1, 1,1897758.3781076802, 3,20,18,30
685,2388070735.5977387,0.0, 1, 1, 1, 1,384016.2677982008, 8,28,10,15
712,0.17931559506687167,0.0, 5, 7, 8,17,0.8865057423581727, 1,28,15,52
713,3.922785932440688,0.0, 1, 6,24, 5,22.59334816464627, 1,28,15,52
714,4.453393395023371,0.0, 5,12,23, 3,25.372690197591158, 1,28,15,52
1184,359901559.915435,0.0, 1, 1, 1, 1,3010954.025519526, 2,12, 9,15
1185,359901559.915435,0.0, 1, 1, 1, 1,3010954.025519526, 2,12, 9,15
1334,0.0,0.0, 1, 1, 1, 1,0.0, 1, 1, 1, 1
13,41022454470.767525,159353.1275401932, 1, 4, 4,15,5504340.908543717, 2,12, 8,60
61,15743207428.383959,88139.10953165221, 1, 1, 1,15,1282023.4113694867, 1, 1,20,15
134,3685071073.4325233,63564.01800854099, 1, 2, 4,15,156554.22484006523, 1, 1,20,15
170,273393721.45532674,348.4159749238097, 1, 2, 4,15,17476.39704006126, 1, 1,12,15
207,339560869.0695816,815.2532113832032, 1, 2, 3,15,22990.642799023623, 1, 1,10,15
244,664895467.8009144,1521.856143006317, 1, 2, 4,15,53038.631142310165, 1, 1,20,15
281,2407221015.106824,59938.60262432081, 1, 1, 5,15,81951.81706819107, 1, 1,19,15
318,0.0,0.0, 1, 1, 1,15,0.0, 1, 1, 1,15
355,10310294493.051695,18561.32405820678, 1, 2, 4,15,724774.895203776, 1, 1,18,15
403,10310294493.051695,18561.32405820678, 1, 2, 4,15,724774.895203776, 1, 1,18,15
476,5569688622.066177,7098.072629279515, 1, 2, 4,15,356036.3026282215, 1, 1,12,15
513,0.0,0.0, 1, 1, 1,15,0.0, 1, 1, 1,15
599,12525871894.929667,0.0, 1, 1, 1,15,1523070.2586586394, 8, 4,16,60
637,4164969246.391633,0.0, 1, 1, 1,45,4578760.568521805, 1,29, 6,15
677,2656126735.5977364,7650.0, 1, 1, 1,30,393194.6009527112, 9, 1,10,15
692,2247208092.0303526,0.0, 1, 1, 1,15,218506.0386068173, 6, 5,18,30
1165,0.0,0.0, 1, 1, 1,15,0.0, 1, 1, 1,15
1372,0.0,0.0, 1, 1, 1,15,0.0, 1, 1, 1,15
End of Data
 Number of Records Written=          96
