Program Version,EnergyPlus, Version 22.2.0-c249759bad, YMD=2023.07.07 15:04
1,5,Environment Title[],Latitude[deg],Longitude[deg],Time Zone[],Elevation[m]
2,8,Day of Simulation[],Month[],Day of Month[],DST Indicator[1=yes 0=no],Hour[],StartMinute[],EndMinute[],DayType
3,5,Cumulative Day of Simulation[],Month[],Day of Month[],DST Indicator[1=yes 0=no],DayType  ! When Daily Report Variables Requested
4,2,Cumulative Days of Simulation[],Month[]  ! When Monthly Report Variables Requested
5,1,Cumulative Days of Simulation[] ! When Run Period Report Variables Requested
6,1,Calendar Year of Simulation[] ! When Annual Report Variables Requested
581,11,LIVING,AFN Zone Infiltration Air Change Rate [ach] !RunPeriod [Value,Min,Month,Day,Hour,Minute,Max,Month,Day,Hour,Minute]
582,11,ATTIC,AFN Zone Infiltration Air Change Rate [ach] !RunPeriod [Value,Min,Month,Day,Hour,Minute,Max,Month,Day,Hour,Minute]
583,11,CRAWLSPACE,AFN Zone Infiltration Air Change Rate [ach] !RunPeriod [Value,Min,Month,Day,Hour,Minute,Max,Month,Day,Hour,Minute]
1038,11,Facility,Facility Heating Setpoint Not Met Time [hr] !RunPeriod [Value,Min,Month,Day,Hour,Minute,Max,Month,Day,Hour,Minute]
1039,11,Facility,Facility Cooling Setpoint Not Met Time [hr] !RunPeriod [Value,Min,Month,Day,Hour,Minute,Max,Month,Day,Hour,Minute]
1115,11,DX_HEATING_COIL,Heating Coil Heating Energy [J] !RunPeriod [Value,Min,Month,Day,Hour,Minute,Max,Month,Day,Hour,Minute]
1128,11,DX_HEATING_COIL,Heating Coil Electricity Energy [J] !RunPeriod [Value,Min,Month,Day,Hour,Minute,Max,Month,Day,Hour,Minute]
1153,11,DX_HEATING_COIL,Heating Coil Defrost Electricity Energy [J] !RunPeriod [Value,Min,Month,Day,Hour,Minute,Max,Month,Day,Hour,Minute]
1154,11,DX_HEATING_COIL,Heating Coil Crankcase Heater Electricity Energy [J] !RunPeriod [Value,Min,Month,Day,Hour,Minute,Max,Month,Day,Hour,Minute]
1156,11,HEATING_RESISTANCE_BACKUP,Heating Coil Electricity Energy [J] !RunPeriod [Value,Min,Month,Day,Hour,Minute,Max,Month,Day,Hour,Minute]
13,11,Electricity:Facility [J] !RunPeriod [Value,Min,Month,Day,Hour,Minute,Max,Month,Day,Hour,Minute]
1134,11,Heating:Electricity [J] !RunPeriod [Value,Min,Month,Day,Hour,Minute,Max,Month,Day,Hour,Minute]
1096,11,Cooling:Electricity [J] !RunPeriod [Value,Min,Month,Day,Hour,Minute,Max,Month,Day,Hour,Minute]
562,11,Fans:Electricity [J] !RunPeriod [Value,Min,Month,Day,Hour,Minute,Max,Month,Day,Hour,Minute]
1388,11,Pumps:Electricity [J] !RunPeriod [Value,Min,Month,Day,Hour,Minute,Max,Month,Day,Hour,Minute]
1360,11,WaterSystems:Electricity [J] !RunPeriod [Value,Min,Month,Day,Hour,Minute,Max,Month,Day,Hour,Minute]
61,11,InteriorLights:Electricity [J] !RunPeriod [Value,Min,Month,Day,Hour,Minute,Max,Month,Day,Hour,Minute]
1046,11,ExteriorLights:Electricity [J] !RunPeriod [Value,Min,Month,Day,Hour,Minute,Max,Month,Day,Hour,Minute]
134,11,InteriorEquipment:Electricity [J] !RunPeriod [Value,Min,Month,Day,Hour,Minute,Max,Month,Day,Hour,Minute]
170,11,gas_dryer:InteriorEquipment:Electricity [J] !RunPeriod [Value,Min,Month,Day,Hour,Minute,Max,Month,Day,Hour,Minute]
207,11,clotheswasher:InteriorEquipment:Electricity [J] !RunPeriod [Value,Min,Month,Day,Hour,Minute,Max,Month,Day,Hour,Minute]
244,11,dishwasher:InteriorEquipment:Electricity [J] !RunPeriod [Value,Min,Month,Day,Hour,Minute,Max,Month,Day,Hour,Minute]
281,11,refrigerator:InteriorEquipment:Electricity [J] !RunPeriod [Value,Min,Month,Day,Hour,Minute,Max,Month,Day,Hour,Minute]
318,11,electric_mels:InteriorEquipment:Electricity [J] !RunPeriod [Value,Min,Month,Day,Hour,Minute,Max,Month,Day,Hour,Minute]
355,11,NaturalGas:Facility [J] !RunPeriod [Value,Min,Month,Day,Hour,Minute,Max,Month,Day,Hour,Minute]
1323,11,WaterSystems:NaturalGas [J] !RunPeriod [Value,Min,Month,Day,Hour,Minute,Max,Month,Day,Hour,Minute]
403,11,InteriorEquipment:NaturalGas [J] !RunPeriod [Value,Min,Month,Day,Hour,Minute,Max,Month,Day,Hour,Minute]
476,11,gas_dryer:InteriorEquipment:NaturalGas [J] !RunPeriod [Value,Min,Month,Day,Hour,Minute,Max,Month,Day,Hour,Minute]
513,11,gas_mels:InteriorEquipment:NaturalGas [J] !RunPeriod [Value,Min,Month,Day,Hour,Minute,Max,Month,Day,Hour,Minute]
End of Data Dictionary
1,EXTREME_WINTER,  37.37,-118.37,  -8.00,1252.00
5,7
1038,0.16666666666666666,0.0, 1,13, 1,10,0.16666666666666666, 1,17, 6,10
1039,0.0,0.0, 1,13, 1,10,0.0, 1,13, 1,10
581,0.2601680286342215,0.14439250232203057, 1,15,17,60,0.8210301157288571, 1,16, 9,60
582,2.358140739517905,0.0, 1,15,10,55,13.827982641817576, 1,16, 9,60
583,3.088674452150092,0.000213324899670145, 1,15,16,40,17.46334476193538, 1,16, 8,55
1115,1014326212.3933438,0.0, 1,13,10,51,3155788.880643048, 1,15, 7,40
1128,340472550.00838774,0.0, 1,13,10,51,1062292.103652374, 1,13, 6,30
1153,784380.4840809827,0.0, 1,13,10,42,17398.882885209463, 1,19, 7,60
1154,66847499.12230767,0.0, 1,13, 6, 3,120000.0, 1,13,22,50
1156,68033624.1223923,0.0, 1,13, 1, 2,1617477.1080249168, 1,17, 6,30
13,897769295.7023108,190413.9030351998, 1,19,15,10,3717056.0347324265, 1,17, 6,10
61,301924526.0238348,58759.40635443481, 1,13, 1,10,854682.2742463244, 1,13,20,10
134,70666020.44019979,42376.01200569399, 1,13, 4,10,104369.48322671017, 1,18,20,10
170,5241013.419656074,232.27731661587313, 1,13, 4,10,11650.931360040839, 1,18,12,10
207,6509451.13922266,543.5021409221355, 1,13, 3,10,15327.095199349082, 1,18,10,10
244,12749673.39982522,1014.5707620042115, 1,13, 4,10,35359.08742820678, 1,18,20,10
281,46165882.48149605,39959.06841621388, 1,13, 5,10,54634.54471212738, 1,13,19,10
318,0.0,0.0, 1,13, 1,10,0.0, 1,13, 1,10
355,740290943.3429909,12374.216038804521, 1,13, 4,10,3829218.154066982, 1,14,18,60
403,197687796.27748126,12374.216038804521, 1,13, 4,10,483183.26346918393, 1,18,18,10
476,106772067.24485692,4732.048419519677, 1,13, 4,10,237357.535085481, 1,18,12,10
513,0.0,0.0, 1,13, 1,10,0.0, 1,13, 1,10
562,37992358.006844,0.0, 1,13,10,60,113745.03390563764, 1,13, 6,30
1046,0.0,0.0, 1,13, 1,10,0.0, 1,13, 1,10
1096,6028497.494264149,0.0, 1,13, 1,10,176890.6704169687, 1,13,17,20
1134,476138053.73716927,0.0, 1,13,12,40,3185751.6778161363, 1,17, 6,10
1323,542603147.0655063,0.0, 1,13, 1,10,3375000.0000000005, 1,13, 8,40
1360,5019840.0,4980.0, 1,13, 1,20,4980.000000000001, 1,13, 1,10
1388,0.0,0.0, 1,13, 1,10,0.0, 1,13, 1,10
1,EXTREME_SUMMER,  37.37,-118.37,  -8.00,1252.00
5,7
1038,0.0,0.0, 7,20, 1,10,0.0, 7,20, 1,10
1039,10.333333333333334,0.0, 7,20, 1,10,0.16666666666666666, 7,21,17,10
581,0.13125373073017577,0.0, 7,20, 7,23,1.0984303286829318, 7,20,15,51
582,3.3117879331406703,0.0, 7,21, 4,55,24.037843516719672, 7,20,15,51
583,4.163896678814783,0.0, 7,21,23, 2,32.85413869598025, 7,20,15,51
1115,0.0,0.0, 7,20, 1, 5,0.0, 7,20, 1, 5
1128,0.0,0.0, 7,20, 1, 5,0.0, 7,20, 1, 5
1153,0.0,0.0, 7,20, 1, 5,0.0, 7,20, 1, 5
1154,0.0,0.0, 7,20, 1, 5,0.0, 7,20, 1, 5
1156,0.0,0.0, 7,20, 1, 5,0.0, 7,20, 1, 5
13,1040804788.3462999,106115.4183601288, 7,20, 4,40,2200694.6590562537, 7,24,19,10
61,301924526.0238348,58759.40635443481, 7,20, 1,10,854682.2742463244, 7,20,20,10
134,70666020.44019979,42376.01200569399, 7,20, 4,10,104369.48322671017, 7,25,20,10
170,5241013.419656074,232.27731661587313, 7,20, 4,10,11650.931360040839, 7,25,12,10
207,6509451.13922266,543.5021409221355, 7,20, 3,10,15327.095199349082, 7,25,10,10
244,12749673.39982522,1014.5707620042115, 7,20, 4,10,35359.08742820678, 7,25,20,10
281,46165882.48149605,39959.06841621388, 7,20, 5,10,54634.54471212738, 7,20,19,10
318,0.0,0.0, 7,20, 1,10,0.0, 7,20, 1,10
355,637784372.7207451,12374.216038804521, 7,20, 4,10,3829218.154066982, 7,21,18,60
403,197687796.27748126,12374.216038804521, 7,20, 4,10,483183.26346918393, 7,25,18,10
476,106772067.24485692,4732.048419519677, 7,20, 4,10,237357.535085481, 7,25,12,10
513,0.0,0.0, 7,20, 1,10,0.0, 7,20, 1,10
562,59482771.73305533,0.0, 7,20, 4,40,113745.03390563765, 7,21,18,10
1046,0.0,0.0, 7,20, 1,10,0.0, 7,20, 1,10
1096,603711630.1492094,0.0, 7,20, 4,40,1368264.5601562983, 7,22,15,60
1134,0.0,0.0, 7,20, 1,10,0.0, 7,20, 1,10
1323,440096576.4432624,0.0, 7,20, 1,10,3375000.0000000005, 7,24,20,10
1360,5019840.0,4979.999999999998, 7,20,15,60,4980.000000000002, 7,24,17,20
1388,0.0,0.0, 7,20, 1,10,0.0, 7,20, 1,10
1,ANNUAL,  37.37,-118.37,  -8.00,1252.00
5,365
1038,0.8333333333333333,0.0, 1, 1, 1,10,0.16666666666666666, 1,17, 6,10
1039,224.33333333333343,0.0, 1, 1, 1,10,0.16666666666666666, 1,13,14,40
581,0.22625286821283958,0.0, 4,22,19,52,1.5456305864298086, 3,30,17,60
582,3.5982069565406114,0.0, 1, 1,10,51,28.878906152482735, 3,30,17,60
583,4.4473235794260795,0.0, 6,27,23, 2,39.066788937345464, 3,30,17,60
1115,11376056565.07345,0.0, 1, 1, 1, 2,3562476.023827864,12,18, 6,30
1128,3654938181.239141,0.0, 1, 1, 1, 2,1085667.3860283487,12,18, 6,30
1153,67816357.69543692,0.0, 1, 1, 1, 2,84093.35000110831, 1,21, 6,30
1154,1881629730.4607322,0.0, 1, 1, 6, 3,120000.0, 1, 1,21,50
1156,265759035.12564313,0.0, 1, 1, 1, 2,1740846.2550614055, 1,17, 6,40
13,39643168921.34293,106115.4183601288, 4,11, 4,10,3818275.8377885474, 1,17, 6,10
61,15743207428.39043,58759.40635443481, 1, 1, 1,10,854682.2742463244, 1, 1,20,10
134,3685071073.433083,42376.01200569399, 1, 2, 4,10,104369.48322671017, 1, 1,20,10
170,273393721.45534325,232.27731661587313, 1, 2, 4,10,11650.931360040839, 1, 1,12,10
207,339560869.06955314,543.5021409221355, 1, 2, 3,10,15327.095199349082, 1, 1,10,10
244,664895467.8009839,1014.5707620042115, 1, 2, 4,10,35359.08742820678, 1, 1,20,10
281,2407221015.1057043,39959.06841621388, 1, 1, 5,10,54634.54471212738, 1, 1,19,10
318,0.0,0.0, 1, 1, 1,10,0.0, 1, 1, 1,10
355,35698090151.08804,12374.216038804521, 1, 2, 4,10,3829218.154066983,12,12,18,60
403,10310294493.052883,12374.216038804521, 1, 2, 4,10,483183.26346918393, 1, 1,18,10
476,5569688622.065564,4732.048419519677, 1, 2, 4,10,237357.535085481, 1, 1,12,10
513,0.0,0.0, 1, 1, 1,10,0.0, 1, 1, 1,10
562,1761156669.125873,0.0, 1, 1,10,60,113745.03390563767, 7,20,15,10
1046,0.0,0.0, 1, 1, 1,10,0.0, 1, 1, 1,10
1096,12321841645.879488,0.0, 1, 1, 1,10,1366552.3422973615, 7,17,13,60
1134,5870143304.520905,0.0, 1, 1,12,30,3286971.4808722567, 1,17, 6,10
1323,25387795658.039005,0.0, 1, 1, 1,10,3375000.000000001, 2, 7,20,20
1360,261748800.0,4979.999999999998, 2,27,13,50,4980.000000000002, 1,17, 9,60
1388,0.0,0.0, 1, 1, 1,10,0.0, 1, 1, 1,10
End of Data
 Number of Records Written=          87
