Program Version,EnergyPlus, Version 22.2.0-c249759bad, YMD=2023.09.01 16:42
1,5,Environment Title[],Latitude[deg],Longitude[deg],Time Zone[],Elevation[m]
2,8,Day of Simulation[],Month[],Day of Month[],DST Indicator[1=yes 0=no],Hour[],StartMinute[],EndMinute[],DayType
3,5,Cumulative Day of Simulation[],Month[],Day of Month[],DST Indicator[1=yes 0=no],DayType  ! When Daily Report Variables Requested
4,2,Cumulative Days of Simulation[],Month[]  ! When Monthly Report Variables Requested
5,1,Cumulative Days of Simulation[] ! When Run Period Report Variables Requested
6,1,Calendar Year of Simulation[] ! When Annual Report Variables Requested
581,11,LIVING,AFN Zone Infiltration Air Change Rate [ach] !RunPeriod [Value,Min,Month,Day,Hour,Minute,Max,Month,Day,Hour,Minute]
582,11,ATTIC,AFN Zone Infiltration Air Change Rate [ach] !RunPeriod [Value,Min,Month,Day,Hour,Minute,Max,Month,Day,Hour,Minute]
583,11,CRAWLSPACE,AFN Zone Infiltration Air Change Rate [ach] !RunPeriod [Value,Min,Month,Day,Hour,Minute,Max,Month,Day,Hour,Minute]
1038,11,Facility,Facility Heating Setpoint Not Met Time [hr] !RunPeriod [Value,Min,Month,Day,Hour,Minute,Max,Month,Day,Hour,Minute]
1039,11,Facility,Facility Cooling Setpoint Not Met Time [hr] !RunPeriod [Value,Min,Month,Day,Hour,Minute,Max,Month,Day,Hour,Minute]
1115,11,DX_HEATING_COIL,Heating Coil Heating Energy [J] !RunPeriod [Value,Min,Month,Day,Hour,Minute,Max,Month,Day,Hour,Minute]
1128,11,DX_HEATING_COIL,Heating Coil Electricity Energy [J] !RunPeriod [Value,Min,Month,Day,Hour,Minute,Max,Month,Day,Hour,Minute]
1153,11,DX_HEATING_COIL,Heating Coil Defrost Electricity Energy [J] !RunPeriod [Value,Min,Month,Day,Hour,Minute,Max,Month,Day,Hour,Minute]
1154,11,DX_HEATING_COIL,Heating Coil Crankcase Heater Electricity Energy [J] !RunPeriod [Value,Min,Month,Day,Hour,Minute,Max,Month,Day,Hour,Minute]
1155,11,HEATING_RESISTANCE_BACKUP,Heating Coil Heating Energy [J] !RunPeriod [Value,Min,Month,Day,Hour,Minute,Max,Month,Day,Hour,Minute]
1156,11,HEATING_RESISTANCE_BACKUP,Heating Coil Electricity Energy [J] !RunPeriod [Value,Min,Month,Day,Hour,Minute,Max,Month,Day,Hour,Minute]
1292,11,WATER HEATER,Water Heater Heat Loss Energy [J] !RunPeriod [Value,Min,Month,Day,Hour,Minute,Max,Month,Day,Hour,Minute]
1306,11,WATER HEATER,Water Heater Heating Energy [J] !RunPeriod [Value,Min,Month,Day,Hour,Minute,Max,Month,Day,Hour,Minute]
1307,11,WATER HEATER,Water Heater Unmet Demand Heat Transfer Energy [J] !RunPeriod [Value,Min,Month,Day,Hour,Minute,Max,Month,Day,Hour,Minute]
1308,11,WATER HEATER,Water Heater Electricity Energy [J] !RunPeriod [Value,Min,Month,Day,Hour,Minute,Max,Month,Day,Hour,Minute]
13,11,Electricity:Facility [J] !RunPeriod [Value,Min,Month,Day,Hour,Minute,Max,Month,Day,Hour,Minute]
1134,11,Heating:Electricity [J] !RunPeriod [Value,Min,Month,Day,Hour,Minute,Max,Month,Day,Hour,Minute]
1096,11,Cooling:Electricity [J] !RunPeriod [Value,Min,Month,Day,Hour,Minute,Max,Month,Day,Hour,Minute]
562,11,Fans:Electricity [J] !RunPeriod [Value,Min,Month,Day,Hour,Minute,Max,Month,Day,Hour,Minute]
1379,11,Pumps:Electricity [J] !RunPeriod [Value,Min,Month,Day,Hour,Minute,Max,Month,Day,Hour,Minute]
1326,11,WaterSystems:Electricity [J] !RunPeriod [Value,Min,Month,Day,Hour,Minute,Max,Month,Day,Hour,Minute]
61,11,InteriorLights:Electricity [J] !RunPeriod [Value,Min,Month,Day,Hour,Minute,Max,Month,Day,Hour,Minute]
1046,11,ExteriorLights:Electricity [J] !RunPeriod [Value,Min,Month,Day,Hour,Minute,Max,Month,Day,Hour,Minute]
134,11,InteriorEquipment:Electricity [J] !RunPeriod [Value,Min,Month,Day,Hour,Minute,Max,Month,Day,Hour,Minute]
170,11,gas_dryer:InteriorEquipment:Electricity [J] !RunPeriod [Value,Min,Month,Day,Hour,Minute,Max,Month,Day,Hour,Minute]
207,11,clotheswasher:InteriorEquipment:Electricity [J] !RunPeriod [Value,Min,Month,Day,Hour,Minute,Max,Month,Day,Hour,Minute]
244,11,dishwasher:InteriorEquipment:Electricity [J] !RunPeriod [Value,Min,Month,Day,Hour,Minute,Max,Month,Day,Hour,Minute]
281,11,refrigerator:InteriorEquipment:Electricity [J] !RunPeriod [Value,Min,Month,Day,Hour,Minute,Max,Month,Day,Hour,Minute]
318,11,electric_mels:InteriorEquipment:Electricity [J] !RunPeriod [Value,Min,Month,Day,Hour,Minute,Max,Month,Day,Hour,Minute]
355,11,NaturalGas:Facility [J] !RunPeriod [Value,Min,Month,Day,Hour,Minute,Max,Month,Day,Hour,Minute]
403,11,InteriorEquipment:NaturalGas [J] !RunPeriod [Value,Min,Month,Day,Hour,Minute,Max,Month,Day,Hour,Minute]
476,11,gas_dryer:InteriorEquipment:NaturalGas [J] !RunPeriod [Value,Min,Month,Day,Hour,Minute,Max,Month,Day,Hour,Minute]
513,11,gas_mels:InteriorEquipment:NaturalGas [J] !RunPeriod [Value,Min,Month,Day,Hour,Minute,Max,Month,Day,Hour,Minute]
End of Data Dictionary
1,EXTREME_WINTER,  34.65,-112.42,  -7.00,1539.80
5,7
1038,0.25,0.0, 1, 6, 1,15,0.25, 1, 7, 6,15
1039,0.0,0.0, 1, 6, 1,15,0.0, 1, 6, 1,15
581,0.29437918125008683,0.19578585894100134, 1, 8,19,52,0.6264879129621264, 1, 7, 3,60
582,2.427833772721437,0.0, 1, 9, 9,48,9.36976820022366, 1, 8,16,48
583,0.031771071375332444,0.00030864746040244946, 1, 9,23,52,0.08712989527050931, 1, 7, 6,10
1115,1025561443.590549,0.0, 1, 6,23, 5,4435315.8413491165, 1,12, 8,45
1128,335214763.3615895,0.0, 1, 6,23, 5,1474137.9577822732, 1,12, 8,45
1153,25960912.052975293,0.0, 1, 6,23, 5,129488.16150214284, 1, 6, 6,45
1154,74772501.59781183,0.0, 1, 6, 6, 5,180000.0, 1, 8,14,15
1155,36967826.01840456,0.0, 1, 6, 1,15,1463538.5117446992, 1,12, 6,45
1156,36967826.01840456,0.0, 1, 6, 1,15,1463538.5117446992, 1,12, 6,45
1292,-25011715.48173699,-39769.931741426895, 1, 6, 1,15,-4170.346035504428, 1,12,11,30
1306,121136572.46902731,0.0, 1, 6, 1,15,4050000.0, 1, 6, 7,15
1307,21441174.578947037,0.0, 1, 6, 1,15,6678965.125148575, 1, 6, 6,60
1308,121136572.46902731,0.0, 1, 6, 1,15,4050000.0, 1, 6, 7,15
13,1008075761.8335631,286601.99457735504, 1,12,14,30,6946867.628443951, 1, 9, 8,30
61,301924526.02383536,88139.10953165221, 1, 6, 1,15,1282023.4113694867, 1, 6,20,15
134,70666020.44019976,63564.01800854099, 1, 6, 4,15,156554.22484006523, 1,11,20,15
170,5241013.419656067,348.4159749238097, 1, 6, 4,15,17476.39704006126, 1,11,12,15
207,6509451.13922267,815.2532113832032, 1, 6, 3,15,22990.642799023623, 1,11,10,15
244,12749673.399825225,1521.856143006317, 1, 6, 4,15,53038.631142310165, 1,11,20,15
281,46165882.481495745,59938.60262432081, 1, 6, 5,15,81951.81706819107, 1, 6,19,15
318,0.0,0.0, 1, 6, 1,15,0.0, 1, 6, 1,15
355,197687796.27748066,18561.32405820678, 1, 6, 4,15,724774.895203776, 1,11,18,15
403,197687796.27748066,18561.32405820678, 1, 6, 4,15,724774.895203776, 1,11,18,15
476,106772067.24485716,7098.072629279515, 1, 6, 4,15,356036.3026282215, 1,11,12,15
513,0.0,0.0, 1, 6, 1,15,0.0, 1, 6, 1,15
562,38392509.131317586,0.0, 1, 8,14,15,159482.56382849888, 1, 9, 6,30
1046,0.0,0.0, 1, 6, 1,15,0.0, 1, 6, 1,15
1096,3040130.73840308,0.0, 1, 6, 1,15,200456.61143814857, 1,12,17,30
1134,472916003.03078085,0.0, 1,12,14,30,3392773.4429093534, 1,12, 6,15
1326,121136572.46902734,0.0, 1, 6, 1,15,4050000.0, 1, 6, 7,15
1379,0.0,0.0, 1, 6, 1,15,0.0, 1, 6, 1,15
1,EXTREME_SUMMER,  34.65,-112.42,  -7.00,1539.80
5,7
1038,0.0,0.0, 7,27, 1,15,0.0, 7,27, 1,15
1039,0.5,0.0, 7,27, 1,15,0.25, 8, 1,18,45
581,0.12788240876618284,0.0, 8, 2,19,60,0.6142785401492673, 8, 2,17,46
582,2.9227449280019697,0.027986657463838525, 7,27,22,52,13.775734847064529, 8, 2,17,31
583,0.03529263953597542,0.00030724439149190446, 7,27,23, 3,0.08409168122178871, 8, 2,17,46
1115,0.0,0.0, 7,27, 1,15,0.0, 7,27, 1,15
1128,0.0,0.0, 7,27, 1,15,0.0, 7,27, 1,15
1153,0.0,0.0, 7,27, 1,15,0.0, 7,27, 1,15
1154,0.0,0.0, 7,27, 1,15,0.0, 7,27, 1,15
1155,0.0,0.0, 7,27, 1,15,0.0, 7,27, 1,15
1156,0.0,0.0, 7,27, 1,15,0.0, 7,27, 1,15
1292,-22125353.725044735,-34540.18564660492, 8, 1, 6,45,-2794.211840138411, 8, 2,10,60
1306,92935325.7549658,0.0, 7,27, 1,15,3971831.0904092574, 8, 2,13,60
1307,9445023.44682247,0.0, 7,27, 1,15,3840623.6513936524, 7,27, 6,60
1308,92935325.7549658,0.0, 7,27, 1,15,3971831.0904092574, 8, 2,13,60
13,959547446.8879791,151703.1275401932, 7,27, 4,15,5630127.386238361, 8, 2,13,60
61,301924526.02383536,88139.10953165221, 7,27, 1,15,1282023.4113694867, 7,27,20,15
134,70666020.44019976,63564.01800854099, 7,27, 4,15,156554.22484006523, 8, 1,20,15
170,5241013.419656067,348.4159749238097, 7,27, 4,15,17476.39704006126, 8, 1,12,15
207,6509451.13922267,815.2532113832032, 7,27, 3,15,22990.642799023623, 8, 1,10,15
244,12749673.399825225,1521.856143006317, 7,27, 4,15,53038.631142310165, 8, 1,20,15
281,46165882.481495745,59938.60262432081, 7,27, 5,15,81951.81706819107, 7,27,19,15
318,0.0,0.0, 7,27, 1,15,0.0, 7,27, 1,15
355,197687796.27748066,18561.32405820678, 7,27, 4,15,724774.895203776, 8, 1,18,15
403,197687796.27748066,18561.32405820678, 7,27, 4,15,724774.895203776, 8, 1,18,15
476,106772067.24485716,7098.072629279515, 7,27, 4,15,356036.3026282215, 8, 1,12,15
513,0.0,0.0, 7,27, 1,15,0.0, 7,27, 1,15
562,47025788.41391312,0.0, 7,27, 4,15,159482.56382849888, 8, 1,18,15
1046,0.0,0.0, 7,27, 1,15,0.0, 7,27, 1,15
1096,446995786.2550656,0.0, 7,27, 4,15,1711478.4987994907, 8, 2,16,30
1134,0.0,0.0, 7,27, 1,15,0.0, 7,27, 1,15
1326,92935325.7549658,0.0, 7,27, 1,15,4050000.0, 7,27, 7,15
1379,0.0,0.0, 7,27, 1,15,0.0, 7,27, 1,15
1,ANNUAL,  34.65,-112.42,  -7.00,1539.80
5,365
1038,1.5,0.0, 1, 1, 1,15,0.25, 1, 7, 6,15
1039,64.0,0.0, 1, 1, 1,15,0.25, 1,25,16,15
581,0.22234604640646885,0.0, 6,25, 6,11,1.5040850977466702,12,27, 2,60
582,3.1839233630967647,0.0, 1, 1, 9,48,32.09063252065133,12,27, 2,60
583,0.023892085677562194,0.0, 7,17, 6,11,0.10927284219506948,12,27, 2,60
1115,11349674508.665056,0.0, 1, 1, 1, 7,4894072.875036703,12,10, 6,45
1128,3647813169.320631,0.0, 1, 1, 1, 7,1524106.6469951582,12,10, 6,45
1153,150059299.88425273,0.0, 1, 1, 1, 7,172137.6986281063,12,27, 2,30
1154,1816172353.1725364,0.0, 1, 1, 6, 5,180000.0, 1, 1,21,15
1155,202504273.7959003,0.0, 1, 1, 1, 7,1799509.569569702,12,28, 6,45
1156,202504273.7959003,0.0, 1, 1, 1, 7,1799509.569569702,12,28, 6,45
1292,-1208054502.17146,-39803.68643949207,11,13, 2,30,-2139.1136264806605, 6,27,16,31
1306,5662568305.968215,0.0, 1, 1, 1, 7,4050000.0, 1, 2, 7,15
1307,840870844.6751746,0.0, 1, 1, 1, 7,6885561.774084695, 2, 6, 6,60
1308,5662568305.968215,0.0, 1, 1, 1, 7,4050000.0, 1, 2, 7,15
13,41833863022.867584,151703.1275401932, 4,10, 4,15,7884002.865581622,12,28, 8,30
61,15743207428.383959,88139.10953165221, 1, 1, 1,15,1282023.4113694867, 1, 1,20,15
134,3685071073.4325233,63564.01800854099, 1, 2, 4,15,156554.22484006523, 1, 1,20,15
170,273393721.45532674,348.4159749238097, 1, 2, 4,15,17476.39704006126, 1, 1,12,15
207,339560869.0695816,815.2532113832032, 1, 2, 3,15,22990.642799023623, 1, 1,10,15
244,664895467.8009144,1521.856143006317, 1, 2, 4,15,53038.631142310165, 1, 1,20,15
281,2407221015.106824,59938.60262432081, 1, 1, 5,15,81951.81706819107, 1, 1,19,15
318,0.0,0.0, 1, 1, 1,15,0.0, 1, 1, 1,15
355,10310294493.051695,18561.32405820678, 1, 2, 4,15,724774.895203776, 1, 1,18,15
403,10310294493.051695,18561.32405820678, 1, 2, 4,15,724774.895203776, 1, 1,18,15
476,5569688622.066177,7098.072629279515, 1, 2, 4,15,356036.3026282215, 1, 1,12,15
513,0.0,0.0, 1, 1, 1,15,0.0, 1, 1, 1,15
562,1519807942.6143575,0.0, 1, 1, 1,15,159482.56382849888, 1, 1, 6,30
1046,0.0,0.0, 1, 1, 1,15,0.0, 1, 1, 1,15
1096,9406659176.292923,0.0, 1, 1, 1,15,1794769.4419700657, 7, 5,17,60
1134,5816549096.173324,0.0, 1, 1,15,60,3828872.361139768,12,28, 6,15
1326,5662568305.968211,0.0, 1, 1, 1,15,4050000.0000000014, 3,18,10,30
1379,0.0,0.0, 1, 1, 1,15,0.0, 1, 1, 1,15
End of Data
 Number of Records Written=          99
