Program Version,EnergyPlus, Version 22.2.0-c249759bad, YMD=2023.07.07 15:08
1,5,Environment Title[],Latitude[deg],Longitude[deg],Time Zone[],Elevation[m]
2,8,Day of Simulation[],Month[],Day of Month[],DST Indicator[1=yes 0=no],Hour[],StartMinute[],EndMinute[],DayType
3,5,Cumulative Day of Simulation[],Month[],Day of Month[],DST Indicator[1=yes 0=no],DayType  ! When Daily Report Variables Requested
4,2,Cumulative Days of Simulation[],Month[]  ! When Monthly Report Variables Requested
5,1,Cumulative Days of Simulation[] ! When Run Period Report Variables Requested
6,1,Calendar Year of Simulation[] ! When Annual Report Variables Requested
581,11,LIVING,AFN Zone Infiltration Air Change Rate [ach] !RunPeriod [Value,Min,Month,Day,Hour,Minute,Max,Month,Day,Hour,Minute]
582,11,ATTIC,AFN Zone Infiltration Air Change Rate [ach] !RunPeriod [Value,Min,Month,Day,Hour,Minute,Max,Month,Day,Hour,Minute]
583,11,CRAWLSPACE,AFN Zone Infiltration Air Change Rate [ach] !RunPeriod [Value,Min,Month,Day,Hour,Minute,Max,Month,Day,Hour,Minute]
1038,11,Facility,Facility Heating Setpoint Not Met Time [hr] !RunPeriod [Value,Min,Month,Day,Hour,Minute,Max,Month,Day,Hour,Minute]
1039,11,Facility,Facility Cooling Setpoint Not Met Time [hr] !RunPeriod [Value,Min,Month,Day,Hour,Minute,Max,Month,Day,Hour,Minute]
1115,11,DX_HEATING_COIL,Heating Coil Heating Energy [J] !RunPeriod [Value,Min,Month,Day,Hour,Minute,Max,Month,Day,Hour,Minute]
1128,11,DX_HEATING_COIL,Heating Coil Electricity Energy [J] !RunPeriod [Value,Min,Month,Day,Hour,Minute,Max,Month,Day,Hour,Minute]
1153,11,DX_HEATING_COIL,Heating Coil Defrost Electricity Energy [J] !RunPeriod [Value,Min,Month,Day,Hour,Minute,Max,Month,Day,Hour,Minute]
1154,11,DX_HEATING_COIL,Heating Coil Crankcase Heater Electricity Energy [J] !RunPeriod [Value,Min,Month,Day,Hour,Minute,Max,Month,Day,Hour,Minute]
1156,11,HEATING_RESISTANCE_BACKUP,Heating Coil Electricity Energy [J] !RunPeriod [Value,Min,Month,Day,Hour,Minute,Max,Month,Day,Hour,Minute]
13,11,Electricity:Facility [J] !RunPeriod [Value,Min,Month,Day,Hour,Minute,Max,Month,Day,Hour,Minute]
1134,11,Heating:Electricity [J] !RunPeriod [Value,Min,Month,Day,Hour,Minute,Max,Month,Day,Hour,Minute]
1096,11,Cooling:Electricity [J] !RunPeriod [Value,Min,Month,Day,Hour,Minute,Max,Month,Day,Hour,Minute]
562,11,Fans:Electricity [J] !RunPeriod [Value,Min,Month,Day,Hour,Minute,Max,Month,Day,Hour,Minute]
1388,11,Pumps:Electricity [J] !RunPeriod [Value,Min,Month,Day,Hour,Minute,Max,Month,Day,Hour,Minute]
1360,11,WaterSystems:Electricity [J] !RunPeriod [Value,Min,Month,Day,Hour,Minute,Max,Month,Day,Hour,Minute]
61,11,InteriorLights:Electricity [J] !RunPeriod [Value,Min,Month,Day,Hour,Minute,Max,Month,Day,Hour,Minute]
1046,11,ExteriorLights:Electricity [J] !RunPeriod [Value,Min,Month,Day,Hour,Minute,Max,Month,Day,Hour,Minute]
134,11,InteriorEquipment:Electricity [J] !RunPeriod [Value,Min,Month,Day,Hour,Minute,Max,Month,Day,Hour,Minute]
170,11,gas_dryer:InteriorEquipment:Electricity [J] !RunPeriod [Value,Min,Month,Day,Hour,Minute,Max,Month,Day,Hour,Minute]
207,11,clotheswasher:InteriorEquipment:Electricity [J] !RunPeriod [Value,Min,Month,Day,Hour,Minute,Max,Month,Day,Hour,Minute]
244,11,dishwasher:InteriorEquipment:Electricity [J] !RunPeriod [Value,Min,Month,Day,Hour,Minute,Max,Month,Day,Hour,Minute]
281,11,refrigerator:InteriorEquipment:Electricity [J] !RunPeriod [Value,Min,Month,Day,Hour,Minute,Max,Month,Day,Hour,Minute]
318,11,electric_mels:InteriorEquipment:Electricity [J] !RunPeriod [Value,Min,Month,Day,Hour,Minute,Max,Month,Day,Hour,Minute]
355,11,NaturalGas:Facility [J] !RunPeriod [Value,Min,Month,Day,Hour,Minute,Max,Month,Day,Hour,Minute]
1323,11,WaterSystems:NaturalGas [J] !RunPeriod [Value,Min,Month,Day,Hour,Minute,Max,Month,Day,Hour,Minute]
403,11,InteriorEquipment:NaturalGas [J] !RunPeriod [Value,Min,Month,Day,Hour,Minute,Max,Month,Day,Hour,Minute]
476,11,gas_dryer:InteriorEquipment:NaturalGas [J] !RunPeriod [Value,Min,Month,Day,Hour,Minute,Max,Month,Day,Hour,Minute]
513,11,gas_mels:InteriorEquipment:NaturalGas [J] !RunPeriod [Value,Min,Month,Day,Hour,Minute,Max,Month,Day,Hour,Minute]
End of Data Dictionary
1,EXTREME_WINTER,  37.26,-104.34,  -7.00,1749.90
5,7
1038,0.3333333333333333,0.0, 1, 6, 1,10,0.16666666666666666, 1,10, 6,10
1039,0.0,0.0, 1, 6, 1,10,0.0, 1, 6, 1,10
581,0.2874784314624988,0.17707871102093808, 1, 6,11,25,0.6115823481664582, 1,11,23,55
582,4.18091614072312,0.0, 1, 6,24,55,13.896109770066383, 1,11,23,60
583,4.363857494830269,0.00026903895134330777, 1, 6,24,60,16.683005249291313, 1,11,23,55
1115,1298172076.6590977,0.0, 1, 6, 1, 5,3022715.823811647, 1,12, 5,20
1128,447156543.71874505,0.0, 1, 6, 1, 5,968974.2158244587, 1,12, 6,20
1153,14348670.502053652,0.0, 1, 6, 1, 5,64790.01478158244, 1, 8,12,60
1154,62611841.86126406,0.0, 1, 6, 6, 3,120000.0, 1, 6,13,10
1156,272337616.62395674,0.0, 1, 6, 1, 5,3692747.1894985805, 1,10, 7,20
13,1226081195.285296,234536.4257943999, 1, 6, 1,10,5127515.233793915, 1,10, 7,20
61,301924526.0238348,58759.40635443481, 1, 6, 1,10,854682.2742463244, 1, 6,20,10
134,70666020.44019979,42376.01200569399, 1, 6, 4,10,104369.48322671017, 1,11,20,10
170,5241013.419656074,232.27731661587313, 1, 6, 4,10,11650.931360040839, 1,11,12,10
207,6509451.13922266,543.5021409221355, 1, 6, 3,10,15327.095199349082, 1,11,10,10
244,12749673.39982522,1014.5707620042115, 1, 6, 4,10,35359.08742820678, 1,11,20,10
281,46165882.48149605,39959.06841621388, 1, 6, 5,10,54634.54471212738, 1, 6,19,10
318,0.0,0.0, 1, 6, 1,10,0.0, 1, 6, 1,10
355,737990661.1481318,12374.216038804521, 1, 6, 4,10,3829218.154066982, 1, 7,18,60
403,197687796.27748126,12374.216038804521, 1, 6, 4,10,483183.26346918393, 1,11,18,10
476,106772067.24485692,4732.048419519677, 1, 6, 4,10,237357.535085481, 1,11,12,10
513,0.0,0.0, 1, 6, 1,10,0.0, 1, 6, 1,10
562,51364791.57909604,0.0, 1, 6, 1,10,106216.41585420755, 1, 8, 5,60
1046,0.0,0.0, 1, 6, 1,10,0.0, 1, 6, 1,10
1096,651344.5361482578,0.0, 1, 6, 1,10,58561.60110918198, 1,12,17,10
1134,796454672.7060195,107576.67099824193, 1,12,17,10,4552267.458378173, 1,10, 7,20
1323,540302864.8706467,0.0, 1, 6, 1,10,3375000.000000002, 1, 7, 9,60
1360,5019840.0,4980.0, 1, 6, 1,10,4980.000000000001, 1, 6, 1,30
1388,0.0,0.0, 1, 6, 1,10,0.0, 1, 6, 1,10
1,EXTREME_SUMMER,  37.26,-104.34,  -7.00,1749.90
5,7
1038,0.0,0.0, 7,20, 1,10,0.0, 7,20, 1,10
1039,2.5,0.0, 7,20, 1,10,0.16666666666666666, 7,22,17,40
581,0.19680910506077132,0.0, 7,22,22,33,0.5726003272813792, 7,21,17,53
582,5.535851252253424,0.08914924443434186, 7,26, 8,51,17.32625417304511, 7,25,18,53
583,6.0487085589561085,0.1260278967691181, 7,22,23, 5,16.760865725036144, 7,21,17,53
1115,0.0,0.0, 7,20, 1,10,0.0, 7,20, 1,10
1128,0.0,0.0, 7,20, 1,10,0.0, 7,20, 1,10
1153,0.0,0.0, 7,20, 1,10,0.0, 7,20, 1,10
1154,0.0,0.0, 7,20, 1,10,0.0, 7,20, 1,10
1156,0.0,0.0, 7,20, 1,10,0.0, 7,20, 1,10
13,904419887.9821545,106361.20013227512, 7,25, 4,60,1949621.5879867496, 7,20,19,10
61,301924526.0238348,58759.40635443481, 7,20, 1,10,854682.2742463244, 7,20,20,10
134,70666020.44019979,42376.01200569399, 7,20, 4,10,104369.48322671017, 7,25,20,10
170,5241013.419656074,232.27731661587313, 7,20, 4,10,11650.931360040839, 7,25,12,10
207,6509451.13922266,543.5021409221355, 7,20, 3,10,15327.095199349082, 7,25,10,10
244,12749673.39982522,1014.5707620042115, 7,20, 4,10,35359.08742820678, 7,25,20,10
281,46165882.48149605,39959.06841621388, 7,20, 5,10,54634.54471212738, 7,20,19,10
318,0.0,0.0, 7,20, 1,10,0.0, 7,20, 1,10
355,637798066.02551,12374.216038804521, 7,20, 4,10,3829218.154066982, 7,21,18,60
403,197687796.27748126,12374.216038804521, 7,20, 4,10,483183.26346918393, 7,25,18,10
476,106772067.24485692,4732.048419519677, 7,20, 4,10,237357.535085481, 7,25,12,10
513,0.0,0.0, 7,20, 1,10,0.0, 7,20, 1,10
562,51597019.762436464,0.0, 7,20, 5,40,106216.41585420756, 7,22,17,20
1046,0.0,0.0, 7,20, 1,10,0.0, 7,20, 1,10
1096,475212481.7556835,0.0, 7,20, 5,40,1148548.965848189, 7,24,15,60
1134,0.0,0.0, 7,20, 1,10,0.0, 7,20, 1,10
1323,440110269.74802727,0.0, 7,20, 1,10,3375000.0000000005, 7,25,21,40
1360,5019840.0,4979.999999999999, 7,21,10,50,4980.000000000002, 7,20,17,10
1388,0.0,0.0, 7,20, 1,10,0.0, 7,20, 1,10
1,ANNUAL,  37.26,-104.34,  -7.00,1749.90
5,365
1038,3.166666666666666,0.0, 1, 1, 1,10,0.16666666666666666, 1,10, 6,10
1039,36.5,0.0, 1, 1, 1,10,0.16666666666666666, 2,19,15,30
581,0.2589017918936503,0.0, 6,20, 9,51,1.4348743922250045, 6,16,23,60
582,5.534266498809125,0.0, 1, 4, 1,53,44.249714649056784, 4,28,24,60
583,5.854072359990781,0.00008006111027259866, 8,14,23, 5,40.622434746847894, 6,16,23,60
1115,18236082491.719334,0.0, 1, 1,13,13,3414502.9480884224,12,23, 7,10
1128,5905067504.7058525,0.0, 1, 1,13,13,1012260.3210263359,12,23, 7,30
1153,158225447.24131835,0.0, 1, 1,13,13,84890.46129940936, 4, 7, 7,60
1154,1956502566.671678,0.0, 1, 1, 3,15,120000.0, 1, 1,15,10
1156,1959094933.6503572,0.0, 1, 1, 1, 1,3692747.1894985805, 1,10, 7,10
13,40075755156.086395,106115.4183601288, 3,17, 4,10,5128746.267859938, 1,10, 7,30
61,15743207428.39043,58759.40635443481, 1, 1, 1,10,854682.2742463244, 1, 1,20,10
134,3685071073.433083,42376.01200569399, 1, 2, 4,10,104369.48322671017, 1, 1,20,10
170,273393721.45534325,232.27731661587313, 1, 2, 4,10,11650.931360040839, 1, 1,12,10
207,339560869.06955314,543.5021409221355, 1, 2, 3,10,15327.095199349082, 1, 1,10,10
244,664895467.8009839,1014.5707620042115, 1, 2, 4,10,35359.08742820678, 1, 1,20,10
281,2407221015.1057043,39959.06841621388, 1, 1, 5,10,54634.54471212738, 1, 1,19,10
318,0.0,0.0, 1, 1, 1,10,0.0, 1, 1, 1,10
355,35722752575.59913,12374.216038804521, 1, 2, 4,10,3829218.1540669827, 6, 9,18,30
403,10310294493.052883,12374.216038804521, 1, 2, 4,10,483183.26346918393, 1, 1,18,10
476,5569688622.065564,4732.048419519677, 1, 2, 4,10,237357.535085481, 1, 1,12,10
513,0.0,0.0, 1, 1, 1,10,0.0, 1, 1, 1,10
562,1701198406.4647617,0.0, 1, 1,13,20,106216.41585420756, 6,25,15,40
1046,0.0,0.0, 1, 1, 1,10,0.0, 1, 1, 1,10
1096,8705638995.535421,0.0, 1, 1, 1,10,1162995.184170559, 7, 6,15,60
1134,9978890452.269213,0.0, 1, 4,14,60,4583425.339597824,12,21, 6,20
1323,25412458082.5502,0.0, 1, 1, 1,10,3375000.0000000023, 1,10,20,30
1360,261748800.0,4979.999999999998, 1, 1, 1,10,4980.000000000002, 1,10, 9,30
1388,0.0,0.0, 1, 1, 1,10,0.0, 1, 1, 1,10
End of Data
 Number of Records Written=          87
