Program Version,EnergyPlus, Version 22.2.0-c249759bad, YMD=2023.09.01 20:45
1,5,Environment Title[],Latitude[deg],Longitude[deg],Time Zone[],Elevation[m]
2,8,Day of Simulation[],Month[],Day of Month[],DST Indicator[1=yes 0=no],Hour[],StartMinute[],EndMinute[],DayType
3,5,Cumulative Day of Simulation[],Month[],Day of Month[],DST Indicator[1=yes 0=no],DayType  ! When Daily Report Variables Requested
4,2,Cumulative Days of Simulation[],Month[]  ! When Monthly Report Variables Requested
5,1,Cumulative Days of Simulation[] ! When Run Period Report Variables Requested
6,1,Calendar Year of Simulation[] ! When Annual Report Variables Requested
581,11,LIVING,AFN Zone Infiltration Air Change Rate [ach] !RunPeriod [Value,Min,Month,Day,Hour,Minute,Max,Month,Day,Hour,Minute]
582,11,ATTIC,AFN Zone Infiltration Air Change Rate [ach] !RunPeriod [Value,Min,Month,Day,Hour,Minute,Max,Month,Day,Hour,Minute]
583,11,CRAWLSPACE,AFN Zone Infiltration Air Change Rate [ach] !RunPeriod [Value,Min,Month,Day,Hour,Minute,Max,Month,Day,Hour,Minute]
1038,11,Facility,Facility Heating Setpoint Not Met Time [hr] !RunPeriod [Value,Min,Month,Day,Hour,Minute,Max,Month,Day,Hour,Minute]
1039,11,Facility,Facility Cooling Setpoint Not Met Time [hr] !RunPeriod [Value,Min,Month,Day,Hour,Minute,Max,Month,Day,Hour,Minute]
1115,11,DX_HEATING_COIL,Heating Coil Heating Energy [J] !RunPeriod [Value,Min,Month,Day,Hour,Minute,Max,Month,Day,Hour,Minute]
1128,11,DX_HEATING_COIL,Heating Coil Electricity Energy [J] !RunPeriod [Value,Min,Month,Day,Hour,Minute,Max,Month,Day,Hour,Minute]
1153,11,DX_HEATING_COIL,Heating Coil Defrost Electricity Energy [J] !RunPeriod [Value,Min,Month,Day,Hour,Minute,Max,Month,Day,Hour,Minute]
1154,11,DX_HEATING_COIL,Heating Coil Crankcase Heater Electricity Energy [J] !RunPeriod [Value,Min,Month,Day,Hour,Minute,Max,Month,Day,Hour,Minute]
1155,11,HEATING_RESISTANCE_BACKUP,Heating Coil Heating Energy [J] !RunPeriod [Value,Min,Month,Day,Hour,Minute,Max,Month,Day,Hour,Minute]
1156,11,HEATING_RESISTANCE_BACKUP,Heating Coil Electricity Energy [J] !RunPeriod [Value,Min,Month,Day,Hour,Minute,Max,Month,Day,Hour,Minute]
1292,11,WATER HEATER,Water Heater Heat Loss Energy [J] !RunPeriod [Value,Min,Month,Day,Hour,Minute,Max,Month,Day,Hour,Minute]
1306,11,WATER HEATER,Water Heater Heating Energy [J] !RunPeriod [Value,Min,Month,Day,Hour,Minute,Max,Month,Day,Hour,Minute]
1307,11,WATER HEATER,Water Heater Unmet Demand Heat Transfer Energy [J] !RunPeriod [Value,Min,Month,Day,Hour,Minute,Max,Month,Day,Hour,Minute]
1308,11,WATER HEATER,Water Heater Electricity Energy [J] !RunPeriod [Value,Min,Month,Day,Hour,Minute,Max,Month,Day,Hour,Minute]
13,11,Electricity:Facility [J] !RunPeriod [Value,Min,Month,Day,Hour,Minute,Max,Month,Day,Hour,Minute]
1134,11,Heating:Electricity [J] !RunPeriod [Value,Min,Month,Day,Hour,Minute,Max,Month,Day,Hour,Minute]
1096,11,Cooling:Electricity [J] !RunPeriod [Value,Min,Month,Day,Hour,Minute,Max,Month,Day,Hour,Minute]
562,11,Fans:Electricity [J] !RunPeriod [Value,Min,Month,Day,Hour,Minute,Max,Month,Day,Hour,Minute]
1379,11,Pumps:Electricity [J] !RunPeriod [Value,Min,Month,Day,Hour,Minute,Max,Month,Day,Hour,Minute]
1326,11,WaterSystems:Electricity [J] !RunPeriod [Value,Min,Month,Day,Hour,Minute,Max,Month,Day,Hour,Minute]
61,11,InteriorLights:Electricity [J] !RunPeriod [Value,Min,Month,Day,Hour,Minute,Max,Month,Day,Hour,Minute]
1046,11,ExteriorLights:Electricity [J] !RunPeriod [Value,Min,Month,Day,Hour,Minute,Max,Month,Day,Hour,Minute]
134,11,InteriorEquipment:Electricity [J] !RunPeriod [Value,Min,Month,Day,Hour,Minute,Max,Month,Day,Hour,Minute]
170,11,gas_dryer:InteriorEquipment:Electricity [J] !RunPeriod [Value,Min,Month,Day,Hour,Minute,Max,Month,Day,Hour,Minute]
207,11,clotheswasher:InteriorEquipment:Electricity [J] !RunPeriod [Value,Min,Month,Day,Hour,Minute,Max,Month,Day,Hour,Minute]
244,11,dishwasher:InteriorEquipment:Electricity [J] !RunPeriod [Value,Min,Month,Day,Hour,Minute,Max,Month,Day,Hour,Minute]
281,11,refrigerator:InteriorEquipment:Electricity [J] !RunPeriod [Value,Min,Month,Day,Hour,Minute,Max,Month,Day,Hour,Minute]
318,11,electric_mels:InteriorEquipment:Electricity [J] !RunPeriod [Value,Min,Month,Day,Hour,Minute,Max,Month,Day,Hour,Minute]
355,11,NaturalGas:Facility [J] !RunPeriod [Value,Min,Month,Day,Hour,Minute,Max,Month,Day,Hour,Minute]
403,11,InteriorEquipment:NaturalGas [J] !RunPeriod [Value,Min,Month,Day,Hour,Minute,Max,Month,Day,Hour,Minute]
476,11,gas_dryer:InteriorEquipment:NaturalGas [J] !RunPeriod [Value,Min,Month,Day,Hour,Minute,Max,Month,Day,Hour,Minute]
513,11,gas_mels:InteriorEquipment:NaturalGas [J] !RunPeriod [Value,Min,Month,Day,Hour,Minute,Max,Month,Day,Hour,Minute]
End of Data Dictionary
1,EXTREME_WINTER,  32.28,-106.92,  -7.00,1358.00
5,7
1038,0.0,0.0, 1,13, 1,15,0.0, 1,13, 1,15
1039,1.25,0.0, 1,13, 1,15,0.25, 1,18,15,30
581,0.27730188901001884,0.16910269246590223, 1,13, 4,22,0.6765473620899294, 1,17, 2,60
582,3.101791585860331,0.0, 1,13, 4,37,10.817913461435534, 1,17, 2,60
583,0.01538708449574655,0.0003029655882470365, 1,15,11,48,0.09918161104684198, 1,17, 6, 5
1115,400521212.3474642,0.0, 1,13, 1, 7,4499572.361388241, 1,18, 6,45
1128,131310980.93086495,0.0, 1,13, 1, 7,1494982.408106359, 1,18, 6,45
1153,19192.190684598525,0.0, 1,13, 1, 7,5685.265409226271, 1,18, 4,60
1154,87166764.78386557,0.0, 1,13,13,30,180000.0, 1,13, 2,45
1155,2489591.5173771833,0.0, 1,13, 1, 7,943448.2035894697, 1,18, 6, 5
1156,2489591.5173771833,0.0, 1,13, 1, 7,943448.2035894697, 1,18, 6, 5
1292,-23998800.700812776,-39706.48275939422, 1,15, 4,30,-3324.383268288302, 1,19,10,32
1306,237617250.7387065,0.0, 1,13, 1, 7,4050000.0, 1,13, 8,45
1307,71056924.8075968,0.0, 1,13, 1, 7,11975445.980246287, 1,13, 8,30
1308,237617250.7387065,0.0, 1,13, 1, 7,4050000.0, 1,13, 8,45
13,870295313.7056865,272017.0388981225, 1,13,15,15,6227439.887093752, 1,18, 8,15
61,301924526.02383536,88139.10953165221, 1,13, 1,15,1282023.4113694867, 1,13,20,15
134,70666020.44019976,63564.01800854099, 1,13, 4,15,156554.22484006523, 1,18,20,15
170,5241013.419656067,348.4159749238097, 1,13, 4,15,17476.39704006126, 1,18,12,15
207,6509451.13922267,815.2532113832032, 1,13, 3,15,22990.642799023623, 1,18,10,15
244,12749673.399825225,1521.856143006317, 1,13, 4,15,53038.631142310165, 1,18,20,15
281,46165882.481495745,59938.60262432081, 1,13, 5,15,81951.81706819107, 1,13,19,15
318,0.0,0.0, 1,13, 1,15,0.0, 1,13, 1,15
355,197687796.27748066,18561.32405820678, 1,13, 4,15,724774.895203776, 1,18,18,15
403,197687796.27748066,18561.32405820678, 1,13, 4,15,724774.895203776, 1,18,18,15
476,106772067.24485716,7098.072629279515, 1,13, 4,15,356036.3026282215, 1,18,12,15
513,0.0,0.0, 1,13, 1,15,0.0, 1,13, 1,15
562,17115816.440808907,0.0, 1,13, 1,15,154615.89439767716, 1,18, 6,45
1046,0.0,0.0, 1,13, 1,15,0.0, 1,13, 1,15
1096,21985170.63934382,0.0, 1,13, 1,15,329776.74326267233, 1,14,17,15
1134,220986529.42279235,0.0, 1,13,13,30,2365211.5111925877, 1,18, 6,15
1326,237617250.7387065,0.0, 1,13, 1,15,4050000.0, 1,13, 8,45
1379,0.0,0.0, 1,13, 1,15,0.0, 1,13, 1,15
1,EXTREME_SUMMER,  32.28,-106.92,  -7.00,1358.00
5,7
1038,0.0,0.0, 7,20, 1,15,0.0, 7,20, 1,15
1039,7.0,0.0, 7,20, 1,15,0.25, 7,25,17,45
581,0.12857408181037414,0.0, 7,22, 6, 7,0.4016800723501211, 7,23,15,51
582,3.471853303067726,0.09113936369210539, 7,22, 8,49,16.252361419401943, 7,22,17,46
583,0.04678539476703622,0.0, 7,22, 6, 7,0.09102894827685751, 7,26,18,46
1115,0.0,0.0, 7,20, 1, 7,0.0, 7,20, 1, 7
1128,0.0,0.0, 7,20, 1, 7,0.0, 7,20, 1, 7
1153,0.0,0.0, 7,20, 1, 7,0.0, 7,20, 1, 7
1154,0.0,0.0, 7,20, 1, 7,0.0, 7,20, 1, 7
1155,0.0,0.0, 7,20, 1, 7,0.0, 7,20, 1, 7
1156,0.0,0.0, 7,20, 1, 7,0.0, 7,20, 1, 7
1292,-22075036.622732043,-34343.79529120884, 7,20,22,15,-2998.746825051484, 7,24, 8,44
1306,170227522.02866527,0.0, 7,20, 1, 7,4050000.0, 7,23, 6,60
1307,31693716.369493634,0.0, 7,20, 1, 7,1574691.6222791856, 7,21, 7,15
1308,170227522.02866527,0.0, 7,20, 1, 7,4050000.0, 7,23, 6,60
13,1211940255.8975766,263411.91059337126, 7,24, 4,60,6411666.456081836, 7,20,18,15
61,301924526.02383536,88139.10953165221, 7,20, 1,15,1282023.4113694867, 7,20,20,15
134,70666020.44019976,63564.01800854099, 7,20, 4,15,156554.22484006523, 7,25,20,15
170,5241013.419656067,348.4159749238097, 7,20, 4,15,17476.39704006126, 7,25,12,15
207,6509451.13922267,815.2532113832032, 7,20, 3,15,22990.642799023623, 7,25,10,15
244,12749673.399825225,1521.856143006317, 7,20, 4,15,53038.631142310165, 7,25,20,15
281,46165882.481495745,59938.60262432081, 7,20, 5,15,81951.81706819107, 7,20,19,15
318,0.0,0.0, 7,20, 1,15,0.0, 7,20, 1,15
355,197687796.27748066,18561.32405820678, 7,20, 4,15,724774.895203776, 7,25,18,15
403,197687796.27748066,18561.32405820678, 7,20, 4,15,724774.895203776, 7,25,18,15
476,106772067.24485716,7098.072629279515, 7,20, 4,15,356036.3026282215, 7,25,12,15
513,0.0,0.0, 7,20, 1,15,0.0, 7,20, 1,15
562,60633017.84201905,11908.810503214572, 7,25, 5,60,176733.83880358934, 7,26,18,60
1046,0.0,0.0, 7,20, 1,15,0.0, 7,20, 1,15
1096,608489169.5628566,93352.45787080117, 7,25, 5,60,2051072.5829805336, 7,26,16,60
1134,0.0,0.0, 7,20, 1,15,0.0, 7,20, 1,15
1326,170227522.0286652,0.0, 7,20, 1,15,4050000.0, 7,20, 8,45
1379,0.0,0.0, 7,20, 1,15,0.0, 7,20, 1,15
1,ANNUAL,  32.28,-106.92,  -7.00,1358.00
5,365
1038,0.0,0.0, 1, 1, 1,15,0.0, 1, 1, 1,15
1039,145.75,0.0, 1, 1, 1,15,0.25, 1,26,14,30
581,0.21471461372893313,0.0, 6,23, 6, 7,1.3321718528966364,12,20,13,52
582,4.25551853608836,0.0, 1, 2, 4,45,49.02375062146753,12,20,12,60
583,0.028312361235372122,0.0, 6,23, 6, 7,0.10212035357446109, 8,11, 6, 3
1115,3804915564.095711,0.0, 1, 1, 1, 7,4718655.007669794, 1,20, 7,45
1128,1225970637.7779098,0.0, 1, 1, 1, 7,1655750.6929977122, 1,20, 7,45
1153,26682430.105334915,0.0, 1, 1, 1, 7,107316.12128711915, 2, 2, 6,45
1154,1478694577.9531229,0.0, 1, 1, 6, 5,180000.0, 1, 1,20,60
1155,19874467.31304249,0.0, 1, 1, 1, 7,971077.2115760356, 1,20, 6, 5
1156,19874467.31304249,0.0, 1, 1, 1, 7,971077.2115760356, 1,20, 6, 5
1292,-1184852285.68165,-39792.81850021603,12,30, 2,45,-1600.7306675285547, 2,19,10,31
1306,10681245789.629498,0.0, 1, 1, 1, 7,4050000.0, 1, 2, 8,45
1307,2678411778.504547,0.0, 1, 1, 1, 7,12608937.669149289, 3, 6, 8,30
1308,10681245789.629498,0.0, 1, 1, 1, 7,4050000.0, 1, 2, 8,45
13,49006903796.17686,151703.1275401932, 1, 6, 4,30,6824904.47929099, 6, 7,17,30
61,15743207428.383959,88139.10953165221, 1, 1, 1,15,1282023.4113694867, 1, 1,20,15
134,3685071073.4325233,63564.01800854099, 1, 2, 4,15,156554.22484006523, 1, 1,20,15
170,273393721.45532674,348.4159749238097, 1, 2, 4,15,17476.39704006126, 1, 1,12,15
207,339560869.0695816,815.2532113832032, 1, 2, 3,15,22990.642799023623, 1, 1,10,15
244,664895467.8009144,1521.856143006317, 1, 2, 4,15,53038.631142310165, 1, 1,20,15
281,2407221015.106824,59938.60262432081, 1, 1, 5,15,81951.81706819107, 1, 1,19,15
318,0.0,0.0, 1, 1, 1,15,0.0, 1, 1, 1,15
355,10310294493.051695,18561.32405820678, 1, 2, 4,15,724774.895203776, 1, 1,18,15
403,10310294493.051695,18561.32405820678, 1, 2, 4,15,724774.895203776, 1, 1,18,15
476,5569688622.066177,7098.072629279515, 1, 2, 4,15,356036.3026282215, 1, 1,12,15
513,0.0,0.0, 1, 1, 1,15,0.0, 1, 1, 1,15
562,1766336802.054107,0.0, 1, 1, 1,15,176733.83880358934, 6, 6,16,30
1046,0.0,0.0, 1, 1, 1,15,0.0, 1, 1, 1,15
1096,14379820589.52575,0.0, 1, 1, 1,15,2128194.769236533, 6, 6,16,60
1134,2751222113.1494126,0.0, 1, 3,15,60,3147222.3872269164, 1,20, 6,15
1326,10681245789.62949,0.0, 1, 1, 1,15,4050000.0000000014, 2, 5,10,60
1379,0.0,0.0, 1, 1, 1,15,0.0, 1, 1, 1,15
End of Data
 Number of Records Written=          99
