Program Version,EnergyPlus, Version 22.2.0-c249759bad, YMD=2023.07.07 15:21
1,5,Environment Title[],Latitude[deg],Longitude[deg],Time Zone[],Elevation[m]
2,8,Day of Simulation[],Month[],Day of Month[],DST Indicator[1=yes 0=no],Hour[],StartMinute[],EndMinute[],DayType
3,5,Cumulative Day of Simulation[],Month[],Day of Month[],DST Indicator[1=yes 0=no],DayType  ! When Daily Report Variables Requested
4,2,Cumulative Days of Simulation[],Month[]  ! When Monthly Report Variables Requested
5,1,Cumulative Days of Simulation[] ! When Run Period Report Variables Requested
6,1,Calendar Year of Simulation[] ! When Annual Report Variables Requested
581,11,LIVING,AFN Zone Infiltration Air Change Rate [ach] !RunPeriod [Value,Min,Month,Day,Hour,Minute,Max,Month,Day,Hour,Minute]
582,11,ATTIC,AFN Zone Infiltration Air Change Rate [ach] !RunPeriod [Value,Min,Month,Day,Hour,Minute,Max,Month,Day,Hour,Minute]
583,11,CRAWLSPACE,AFN Zone Infiltration Air Change Rate [ach] !RunPeriod [Value,Min,Month,Day,Hour,Minute,Max,Month,Day,Hour,Minute]
1038,11,Facility,Facility Heating Setpoint Not Met Time [hr] !RunPeriod [Value,Min,Month,Day,Hour,Minute,Max,Month,Day,Hour,Minute]
1039,11,Facility,Facility Cooling Setpoint Not Met Time [hr] !RunPeriod [Value,Min,Month,Day,Hour,Minute,Max,Month,Day,Hour,Minute]
1115,11,DX_HEATING_COIL,Heating Coil Heating Energy [J] !RunPeriod [Value,Min,Month,Day,Hour,Minute,Max,Month,Day,Hour,Minute]
1128,11,DX_HEATING_COIL,Heating Coil Electricity Energy [J] !RunPeriod [Value,Min,Month,Day,Hour,Minute,Max,Month,Day,Hour,Minute]
1153,11,DX_HEATING_COIL,Heating Coil Defrost Electricity Energy [J] !RunPeriod [Value,Min,Month,Day,Hour,Minute,Max,Month,Day,Hour,Minute]
1154,11,DX_HEATING_COIL,Heating Coil Crankcase Heater Electricity Energy [J] !RunPeriod [Value,Min,Month,Day,Hour,Minute,Max,Month,Day,Hour,Minute]
1156,11,HEATING_RESISTANCE_BACKUP,Heating Coil Electricity Energy [J] !RunPeriod [Value,Min,Month,Day,Hour,Minute,Max,Month,Day,Hour,Minute]
13,11,Electricity:Facility [J] !RunPeriod [Value,Min,Month,Day,Hour,Minute,Max,Month,Day,Hour,Minute]
1134,11,Heating:Electricity [J] !RunPeriod [Value,Min,Month,Day,Hour,Minute,Max,Month,Day,Hour,Minute]
1096,11,Cooling:Electricity [J] !RunPeriod [Value,Min,Month,Day,Hour,Minute,Max,Month,Day,Hour,Minute]
562,11,Fans:Electricity [J] !RunPeriod [Value,Min,Month,Day,Hour,Minute,Max,Month,Day,Hour,Minute]
1388,11,Pumps:Electricity [J] !RunPeriod [Value,Min,Month,Day,Hour,Minute,Max,Month,Day,Hour,Minute]
1360,11,WaterSystems:Electricity [J] !RunPeriod [Value,Min,Month,Day,Hour,Minute,Max,Month,Day,Hour,Minute]
61,11,InteriorLights:Electricity [J] !RunPeriod [Value,Min,Month,Day,Hour,Minute,Max,Month,Day,Hour,Minute]
1046,11,ExteriorLights:Electricity [J] !RunPeriod [Value,Min,Month,Day,Hour,Minute,Max,Month,Day,Hour,Minute]
134,11,InteriorEquipment:Electricity [J] !RunPeriod [Value,Min,Month,Day,Hour,Minute,Max,Month,Day,Hour,Minute]
170,11,gas_dryer:InteriorEquipment:Electricity [J] !RunPeriod [Value,Min,Month,Day,Hour,Minute,Max,Month,Day,Hour,Minute]
207,11,clotheswasher:InteriorEquipment:Electricity [J] !RunPeriod [Value,Min,Month,Day,Hour,Minute,Max,Month,Day,Hour,Minute]
244,11,dishwasher:InteriorEquipment:Electricity [J] !RunPeriod [Value,Min,Month,Day,Hour,Minute,Max,Month,Day,Hour,Minute]
281,11,refrigerator:InteriorEquipment:Electricity [J] !RunPeriod [Value,Min,Month,Day,Hour,Minute,Max,Month,Day,Hour,Minute]
318,11,electric_mels:InteriorEquipment:Electricity [J] !RunPeriod [Value,Min,Month,Day,Hour,Minute,Max,Month,Day,Hour,Minute]
355,11,NaturalGas:Facility [J] !RunPeriod [Value,Min,Month,Day,Hour,Minute,Max,Month,Day,Hour,Minute]
1323,11,WaterSystems:NaturalGas [J] !RunPeriod [Value,Min,Month,Day,Hour,Minute,Max,Month,Day,Hour,Minute]
403,11,InteriorEquipment:NaturalGas [J] !RunPeriod [Value,Min,Month,Day,Hour,Minute,Max,Month,Day,Hour,Minute]
476,11,gas_dryer:InteriorEquipment:NaturalGas [J] !RunPeriod [Value,Min,Month,Day,Hour,Minute,Max,Month,Day,Hour,Minute]
513,11,gas_mels:InteriorEquipment:NaturalGas [J] !RunPeriod [Value,Min,Month,Day,Hour,Minute,Max,Month,Day,Hour,Minute]
End of Data Dictionary
1,EXTREME_WINTER,  35.06, -89.99,  -6.00,  77.40
5,7
1038,0.5,0.0, 1, 6, 1,10,0.16666666666666666, 1, 8, 6,10
1039,0.0,0.0, 1, 6, 1,10,0.0, 1, 6, 1,10
581,0.30764694010158006,0.13451622030752142, 1,12, 4,40,0.8673467918352653, 1, 7,13,60
582,3.5374592777090177,0.0, 1, 6, 1, 3,15.24112235946772, 1, 7,13,60
583,4.598467519518507,0.00018699684202300743, 1, 6, 1,10,17.982132984224908, 1, 7,13,60
1115,1278172039.4389014,0.0, 1, 6, 1, 3,2959433.1516925422, 1, 7,11,20
1128,407876582.51250285,0.0, 1, 6, 1, 3,878528.3506228476, 1, 7,11,20
1153,5057907.741935003,0.0, 1, 6, 1, 3,53403.83924174312, 1,12,15,60
1154,62901510.75431701,0.0, 1, 6, 6, 2,120000.0, 1, 6,12,50
1156,238098870.5094245,0.0, 1, 6, 1, 3,2302802.2195895435, 1, 8, 6,60
13,1136342559.7323604,234536.4257943999, 1, 6, 1,10,4442075.482566658, 1, 8, 6,10
61,301924526.0238348,58759.40635443481, 1, 6, 1,10,854682.2742463244, 1, 6,20,10
134,70666020.44019979,42376.01200569399, 1, 6, 4,10,104369.48322671017, 1,11,20,10
170,5241013.419656074,232.27731661587313, 1, 6, 4,10,11650.931360040839, 1,11,12,10
207,6509451.13922266,543.5021409221355, 1, 6, 3,10,15327.095199349082, 1,11,10,10
244,12749673.39982522,1014.5707620042115, 1, 6, 4,10,35359.08742820678, 1,11,20,10
281,46165882.48149605,39959.06841621388, 1, 6, 5,10,54634.54471212738, 1, 6,19,10
318,0.0,0.0, 1, 6, 1,10,0.0, 1, 6, 1,10
355,738369498.5980242,12374.216038804521, 1, 6, 4,10,3829218.154066982, 1, 7,18,60
403,197687796.27748126,12374.216038804521, 1, 6, 4,10,483183.26346918393, 1,11,18,10
476,106772067.24485692,4732.048419519677, 1, 6, 4,10,237357.535085481, 1,11,12,10
513,0.0,0.0, 1, 6, 1,10,0.0, 1, 6, 1,10
562,44131116.10136199,0.0, 1, 6, 1,10,91322.23409621541, 1, 7, 6,30
1046,0.0,0.0, 1, 6, 1,10,0.0, 1, 6, 1,10
1096,666185.6487835648,0.0, 1, 6, 1,10,61190.5572880003, 1, 6,17,10
1134,713934871.5181786,107266.0401603767, 1, 6,17,10,3933193.92545979, 1, 8, 6,10
1323,540681702.3205396,0.0, 1, 6, 1,10,3375000.0000000005, 1, 6,16,60
1360,5019840.0,4980.0, 1, 6, 1,20,4980.000000000001, 1, 6, 1,10
1388,0.0,0.0, 1, 6, 1,10,0.0, 1, 6, 1,10
1,EXTREME_SUMMER,  35.06, -89.99,  -6.00,  77.40
5,7
1038,0.0,0.0, 8, 3, 1,10,0.0, 8, 3, 1,10
1039,67.66666666666666,0.0, 8, 3, 1,10,0.16666666666666666, 8, 3, 6,10
581,0.09354058585414637,0.0, 8, 4,18,55,0.4324590156223552, 8, 6,16,53
582,2.935778533482157,0.07916332297171604, 8, 6,20,40,9.096330523520132, 8, 6,16,51
583,3.7458156623806422,0.12087682831592646, 8, 8, 6, 7,11.287459915827638, 8, 6,16,51
1115,0.0,0.0, 8, 3, 1, 5,0.0, 8, 3, 1, 5
1128,0.0,0.0, 8, 3, 1, 5,0.0, 8, 3, 1, 5
1153,0.0,0.0, 8, 3, 1, 5,0.0, 8, 3, 1, 5
1154,0.0,0.0, 8, 3, 1, 5,0.0, 8, 3, 1, 5
1156,0.0,0.0, 8, 3, 1, 5,0.0, 8, 3, 1, 5
13,1116254564.6500676,268853.03054965683, 8, 8, 4,60,2018333.5836945772, 8, 9,20,10
61,301924526.0238348,58759.40635443481, 8, 3, 1,10,854682.2742463244, 8, 3,20,10
134,70666020.44019979,42376.01200569399, 8, 3, 4,10,104369.48322671017, 8, 8,20,10
170,5241013.419656074,232.27731661587313, 8, 3, 4,10,11650.931360040839, 8, 8,12,10
207,6509451.13922266,543.5021409221355, 8, 3, 3,10,15327.095199349082, 8, 8,10,10
244,12749673.39982522,1014.5707620042115, 8, 3, 4,10,35359.08742820678, 8, 8,20,10
281,46165882.48149605,39959.06841621388, 8, 3, 5,10,54634.54471212738, 8, 3,19,10
318,0.0,0.0, 8, 3, 1,10,0.0, 8, 3, 1,10
355,628120684.0837934,12374.216038804521, 8, 3, 4,10,3829218.154066982, 8, 7,18,20
403,197687796.27748126,12374.216038804521, 8, 3, 4,10,483183.26346918393, 8, 8,18,10
476,106772067.24485692,4732.048419519677, 8, 3, 4,10,237357.535085481, 8, 8,12,10
513,0.0,0.0, 8, 3, 1,10,0.0, 8, 3, 1,10
562,67285783.92717712,16066.553925866447, 8, 8, 5,60,91322.23409621543, 8, 6,11,40
1046,0.0,0.0, 8, 3, 1,10,0.0, 8, 3, 1,10
1096,671358394.2588565,137081.19836185197, 8, 8, 5,60,1007761.5099249303, 8, 9,16,60
1134,0.0,0.0, 8, 3, 1,10,0.0, 8, 3, 1,10
1323,430432887.80631024,0.0, 8, 3, 1,10,3375000.0000000005, 8, 4, 9,40
1360,5019840.0,4979.999999999998, 8, 6,11,50,4980.000000000001, 8, 3, 7,40
1388,0.0,0.0, 8, 3, 1,10,0.0, 8, 3, 1,10
1,ANNUAL,  35.06, -89.99,  -6.00,  77.40
5,365
1038,6.333333333333336,0.0, 1, 1, 1,10,0.16666666666666666, 1, 1, 6,10
1039,1169.5,0.0, 1, 1, 1,10,0.16666666666666666, 3, 9,17,20
581,0.20184114189991958,0.0, 5,23, 2,45,0.9734036797537239, 2,17, 2,60
582,3.8319435063462732,0.0, 1, 1, 3,60,22.463412078814187, 8,14,18,51
583,4.729183443623113,0.0, 5,23,23, 2,30.1269640613142, 8,14,18,51
1115,8729246311.267038,0.0, 1, 1,23, 5,2986526.031211685, 3, 8, 6,60
1128,2627796746.820933,0.0, 1, 1,23, 5,875571.4891595045, 2,11, 6,30
1153,103554408.06314549,0.0, 1, 1,12, 3,68896.12086039216,12,27, 6,30
1154,1198500825.9356403,0.0, 1, 1, 6, 2,120000.0, 1, 1,23,30
1156,434146134.050869,0.0, 1, 1, 1, 5,2443792.8897587312, 1, 8, 6,60
13,41433889908.21885,106115.41836012878,10,30, 4,20,4439155.128885716, 1, 8, 6,10
61,15743207428.39043,58759.40635443481, 1, 1, 1,10,854682.2742463244, 1, 1,20,10
134,3685071073.433083,42376.01200569399, 1, 2, 4,10,104369.48322671017, 1, 1,20,10
170,273393721.45534325,232.27731661587313, 1, 2, 4,10,11650.931360040839, 1, 1,12,10
207,339560869.06955314,543.5021409221355, 1, 2, 3,10,15327.095199349082, 1, 1,10,10
244,664895467.8009839,1014.5707620042115, 1, 2, 4,10,35359.08742820678, 1, 1,20,10
281,2407221015.1057043,39959.06841621388, 1, 1, 5,10,54634.54471212738, 1, 1,19,10
318,0.0,0.0, 1, 1, 1,10,0.0, 1, 1, 1,10
355,35654162454.22153,12374.216038804521, 1, 2, 4,10,3829218.1540669827, 2, 3,18,30
403,10310294493.052883,12374.216038804521, 1, 2, 4,10,483183.26346918393, 1, 1,18,10
476,5569688622.065564,4732.048419519677, 1, 2, 4,10,237357.535085481, 1, 1,12,10
513,0.0,0.0, 1, 1, 1,10,0.0, 1, 1, 1,10
562,1971972711.0575545,0.0, 1, 1,23,10,91322.23409621543, 8, 6,11,40
1046,0.0,0.0, 1, 1, 1,10,0.0, 1, 1, 1,10
1096,15407891780.473412,0.0, 1, 1, 1,10,1049012.182313791, 7,30,16,60
1134,4363998114.870574,0.0, 1, 2,24,60,3929535.5754131274, 1, 8, 6,10
1323,25343867961.172558,0.0, 1, 1, 1,10,3375000.000000001, 1, 3,10,60
1360,261748800.0,4979.999999999998, 3,21, 9,40,4980.000000000002, 1,16,17,20
1388,0.0,0.0, 1, 1, 1,10,0.0, 1, 1, 1,10
End of Data
 Number of Records Written=          87
