Program Version,EnergyPlus, Version 22.2.0-c249759bad, YMD=2023.09.01 20:53
1,5,Environment Title[],Latitude[deg],Longitude[deg],Time Zone[],Elevation[m]
2,8,Day of Simulation[],Month[],Day of Month[],DST Indicator[1=yes 0=no],Hour[],StartMinute[],EndMinute[],DayType
3,5,Cumulative Day of Simulation[],Month[],Day of Month[],DST Indicator[1=yes 0=no],DayType  ! When Daily Report Variables Requested
4,2,Cumulative Days of Simulation[],Month[]  ! When Monthly Report Variables Requested
5,1,Cumulative Days of Simulation[] ! When Run Period Report Variables Requested
6,1,Calendar Year of Simulation[] ! When Annual Report Variables Requested
581,11,LIVING,AFN Zone Infiltration Air Change Rate [ach] !RunPeriod [Value,Min,Month,Day,Hour,Minute,Max,Month,Day,Hour,Minute]
582,11,ATTIC,AFN Zone Infiltration Air Change Rate [ach] !RunPeriod [Value,Min,Month,Day,Hour,Minute,Max,Month,Day,Hour,Minute]
583,11,CRAWLSPACE,AFN Zone Infiltration Air Change Rate [ach] !RunPeriod [Value,Min,Month,Day,Hour,Minute,Max,Month,Day,Hour,Minute]
1038,11,Facility,Facility Heating Setpoint Not Met Time [hr] !RunPeriod [Value,Min,Month,Day,Hour,Minute,Max,Month,Day,Hour,Minute]
1039,11,Facility,Facility Cooling Setpoint Not Met Time [hr] !RunPeriod [Value,Min,Month,Day,Hour,Minute,Max,Month,Day,Hour,Minute]
1115,11,DX_HEATING_COIL,Heating Coil Heating Energy [J] !RunPeriod [Value,Min,Month,Day,Hour,Minute,Max,Month,Day,Hour,Minute]
1128,11,DX_HEATING_COIL,Heating Coil Electricity Energy [J] !RunPeriod [Value,Min,Month,Day,Hour,Minute,Max,Month,Day,Hour,Minute]
1153,11,DX_HEATING_COIL,Heating Coil Defrost Electricity Energy [J] !RunPeriod [Value,Min,Month,Day,Hour,Minute,Max,Month,Day,Hour,Minute]
1154,11,DX_HEATING_COIL,Heating Coil Crankcase Heater Electricity Energy [J] !RunPeriod [Value,Min,Month,Day,Hour,Minute,Max,Month,Day,Hour,Minute]
1155,11,HEATING_RESISTANCE_BACKUP,Heating Coil Heating Energy [J] !RunPeriod [Value,Min,Month,Day,Hour,Minute,Max,Month,Day,Hour,Minute]
1156,11,HEATING_RESISTANCE_BACKUP,Heating Coil Electricity Energy [J] !RunPeriod [Value,Min,Month,Day,Hour,Minute,Max,Month,Day,Hour,Minute]
1292,11,WATER HEATER,Water Heater Heat Loss Energy [J] !RunPeriod [Value,Min,Month,Day,Hour,Minute,Max,Month,Day,Hour,Minute]
1306,11,WATER HEATER,Water Heater Heating Energy [J] !RunPeriod [Value,Min,Month,Day,Hour,Minute,Max,Month,Day,Hour,Minute]
1307,11,WATER HEATER,Water Heater Unmet Demand Heat Transfer Energy [J] !RunPeriod [Value,Min,Month,Day,Hour,Minute,Max,Month,Day,Hour,Minute]
1308,11,WATER HEATER,Water Heater Electricity Energy [J] !RunPeriod [Value,Min,Month,Day,Hour,Minute,Max,Month,Day,Hour,Minute]
13,11,Electricity:Facility [J] !RunPeriod [Value,Min,Month,Day,Hour,Minute,Max,Month,Day,Hour,Minute]
1134,11,Heating:Electricity [J] !RunPeriod [Value,Min,Month,Day,Hour,Minute,Max,Month,Day,Hour,Minute]
1096,11,Cooling:Electricity [J] !RunPeriod [Value,Min,Month,Day,Hour,Minute,Max,Month,Day,Hour,Minute]
562,11,Fans:Electricity [J] !RunPeriod [Value,Min,Month,Day,Hour,Minute,Max,Month,Day,Hour,Minute]
1379,11,Pumps:Electricity [J] !RunPeriod [Value,Min,Month,Day,Hour,Minute,Max,Month,Day,Hour,Minute]
1326,11,WaterSystems:Electricity [J] !RunPeriod [Value,Min,Month,Day,Hour,Minute,Max,Month,Day,Hour,Minute]
61,11,InteriorLights:Electricity [J] !RunPeriod [Value,Min,Month,Day,Hour,Minute,Max,Month,Day,Hour,Minute]
1046,11,ExteriorLights:Electricity [J] !RunPeriod [Value,Min,Month,Day,Hour,Minute,Max,Month,Day,Hour,Minute]
134,11,InteriorEquipment:Electricity [J] !RunPeriod [Value,Min,Month,Day,Hour,Minute,Max,Month,Day,Hour,Minute]
170,11,gas_dryer:InteriorEquipment:Electricity [J] !RunPeriod [Value,Min,Month,Day,Hour,Minute,Max,Month,Day,Hour,Minute]
207,11,clotheswasher:InteriorEquipment:Electricity [J] !RunPeriod [Value,Min,Month,Day,Hour,Minute,Max,Month,Day,Hour,Minute]
244,11,dishwasher:InteriorEquipment:Electricity [J] !RunPeriod [Value,Min,Month,Day,Hour,Minute,Max,Month,Day,Hour,Minute]
281,11,refrigerator:InteriorEquipment:Electricity [J] !RunPeriod [Value,Min,Month,Day,Hour,Minute,Max,Month,Day,Hour,Minute]
318,11,electric_mels:InteriorEquipment:Electricity [J] !RunPeriod [Value,Min,Month,Day,Hour,Minute,Max,Month,Day,Hour,Minute]
355,11,NaturalGas:Facility [J] !RunPeriod [Value,Min,Month,Day,Hour,Minute,Max,Month,Day,Hour,Minute]
403,11,InteriorEquipment:NaturalGas [J] !RunPeriod [Value,Min,Month,Day,Hour,Minute,Max,Month,Day,Hour,Minute]
476,11,gas_dryer:InteriorEquipment:NaturalGas [J] !RunPeriod [Value,Min,Month,Day,Hour,Minute,Max,Month,Day,Hour,Minute]
513,11,gas_mels:InteriorEquipment:NaturalGas [J] !RunPeriod [Value,Min,Month,Day,Hour,Minute,Max,Month,Day,Hour,Minute]
End of Data Dictionary
1,EXTREME_WINTER,  42.94, -78.72,  -5.00, 218.20
5,7
1038,0.5,0.0, 2, 3, 1,15,0.25, 2, 3, 6,15
1039,0.0,0.0, 2, 3, 1,15,0.0, 2, 3, 1,15
581,0.3850940114590653,0.24819623038952038, 2, 8,10,60,0.8484032090299408, 2, 8,18,55
582,4.479253760281814,0.12431247836676981, 2, 4,24,60,12.961907775238931, 2, 4, 3,60
583,0.057421323606477816,0.0007223569769014913, 2, 4,23, 5,0.08310465938955229, 2, 8,18,50
1115,2164741006.8356466,0.0, 2, 3,23, 5,4800967.38131996, 2, 8, 6,45
1128,750702211.37288,0.0, 2, 3,23, 5,1486495.1823612975, 2, 8, 6,45
1153,20538596.718396362,0.0, 2, 3,23, 5,87667.42269164906, 2, 8,15,60
1154,26419342.333050497,0.0, 2, 3, 1,15,180000.0, 2, 6,14,60
1155,330013467.13405603,0.0, 2, 3,12,18,2596876.679718216, 2, 3, 6,45
1156,330013467.13405603,0.0, 2, 3,12,18,2596876.679718216, 2, 3, 6,45
1292,-24985877.778609972,-39768.34824685072, 2, 3, 1,15,-4952.953982633817, 2, 5,10,32
1306,377638192.7033982,0.0, 2, 3, 1,15,4050000.0, 2, 3, 9,60
1307,181608540.68946907,0.0, 2, 3, 1,15,16082395.980020981, 2, 9, 9,45
1308,377638192.7033982,0.0, 2, 3, 1,15,4050000.0, 2, 3, 9,60
13,1948628739.6322606,452017.0388981225, 2, 6,15,15,8011951.664734693, 2, 9,21,45
61,301924526.02383536,88139.10953165221, 2, 3, 1,15,1282023.4113694867, 2, 3,20,15
134,70666020.44019976,63564.01800854099, 2, 3, 4,15,156554.22484006523, 2, 8,20,15
170,5241013.419656067,348.4159749238097, 2, 3, 4,15,17476.39704006126, 2, 8,12,15
207,6509451.13922267,815.2532113832032, 2, 3, 3,15,22990.642799023623, 2, 8,10,15
244,12749673.399825225,1521.856143006317, 2, 3, 4,15,53038.631142310165, 2, 8,20,15
281,46165882.481495745,59938.60262432081, 2, 3, 5,15,81951.81706819107, 2, 3,19,15
318,0.0,0.0, 2, 3, 1,15,0.0, 2, 3, 1,15
355,197687796.27748066,18561.32405820678, 2, 3, 4,15,724774.895203776, 2, 8,18,15
403,197687796.27748066,18561.32405820678, 2, 3, 4,15,724774.895203776, 2, 8,18,15
476,106772067.24485716,7098.072629279515, 2, 3, 4,15,356036.3026282215, 2, 8,12,15
513,0.0,0.0, 2, 3, 1,15,0.0, 2, 3, 1,15
562,70726382.90644403,0.0, 2, 6,14,60,135016.63742756267, 2, 3, 1,15
1046,0.0,0.0, 2, 3, 1,15,0.0, 2, 3, 1,15
1096,0.0,0.0, 2, 3, 1,15,0.0, 2, 3, 1,15
1134,1127673617.5583825,180000.0, 2, 6,14,60,4665386.23077235, 2, 4, 6,15
1326,377638192.7033983,0.0, 2, 3, 1,15,4050000.0, 2, 3, 9,60
1379,0.0,0.0, 2, 3, 1,15,0.0, 2, 3, 1,15
1,EXTREME_SUMMER,  42.94, -78.72,  -5.00, 218.20
5,7
1038,0.0,0.0, 7,13, 1,15,0.0, 7,13, 1,15
1039,26.5,0.0, 7,13, 1,15,0.25, 7,14,16,15
581,0.20161906525317483,0.005962482097501175, 7,15, 2,60,1.0018340737331486, 7,19,22,52
582,5.070616653368053,0.0, 7,13, 4,60,23.346067816085135, 7,19,22,52
583,0.0410738952878662,0.0002329401634175071, 7,13, 6,11,0.07695492701661374, 7,19,17, 7
1115,0.0,0.0, 7,13, 1, 7,0.0, 7,13, 1, 7
1128,0.0,0.0, 7,13, 1, 7,0.0, 7,13, 1, 7
1153,0.0,0.0, 7,13, 1, 7,0.0, 7,13, 1, 7
1154,0.0,0.0, 7,13, 1, 7,0.0, 7,13, 1, 7
1155,0.0,0.0, 7,13, 1, 7,0.0, 7,13, 1, 7
1156,0.0,0.0, 7,13, 1, 7,0.0, 7,13, 1, 7
1292,-21873993.367483355,-34308.123932187016, 7,18,14,30,-2820.738616971099, 7,13, 9,46
1306,295273813.8015448,0.0, 7,13, 1, 7,4050000.0, 7,13,16,60
1307,111193461.77664368,0.0, 7,13, 1, 7,4941785.48211294, 7,17,19,45
1308,295273813.8015448,0.0, 7,13, 1, 7,4050000.0, 7,13,16,60
13,1312654418.930535,193710.62600425357, 7,13, 4,60,7105555.986411197, 7,14,20,15
61,301924526.02383536,88139.10953165221, 7,13, 1,15,1282023.4113694867, 7,13,20,15
134,70666020.44019976,63564.01800854099, 7,13, 4,15,156554.22484006523, 7,18,20,15
170,5241013.419656067,348.4159749238097, 7,13, 4,15,17476.39704006126, 7,18,12,15
207,6509451.13922267,815.2532113832032, 7,13, 3,15,22990.642799023623, 7,18,10,15
244,12749673.399825225,1521.856143006317, 7,13, 4,15,53038.631142310165, 7,18,20,15
281,46165882.481495745,59938.60262432081, 7,13, 5,15,81951.81706819107, 7,13,19,15
318,0.0,0.0, 7,13, 1,15,0.0, 7,13, 1,15
355,197687796.27748066,18561.32405820678, 7,13, 4,15,724774.895203776, 7,18,18,15
403,197687796.27748066,18561.32405820678, 7,13, 4,15,724774.895203776, 7,18,18,15
476,106772067.24485716,7098.072629279515, 7,13, 4,15,356036.3026282215, 7,18,12,15
513,0.0,0.0, 7,13, 1,15,0.0, 7,13, 1,15
562,53887537.383133344,0.0, 7,13, 6,30,135016.63742756267, 7,14,15,30
1046,0.0,0.0, 7,13, 1,15,0.0, 7,13, 1,15
1096,590902521.28182,0.0, 7,13, 6,30,1623066.9662152496, 7,16,17,60
1134,0.0,0.0, 7,13, 1,15,0.0, 7,13, 1,15
1326,295273813.8015449,0.0, 7,13, 1,15,4050000.0, 7,13, 8,30
1379,0.0,0.0, 7,13, 1,15,0.0, 7,13, 1,15
1,ANNUAL,  42.94, -78.72,  -5.00, 218.20
5,365
1038,21.75,0.0, 1, 1, 1,15,0.25, 1, 4, 6,15
1039,54.25,0.0, 1, 1, 1,15,0.25, 3,25,18,15
581,0.30363646070814504,0.0, 5,25,23, 3,1.3345327808341307,12,25, 2,60
582,5.469971168390441,0.0, 1, 8, 1,60,35.03302678289164, 5, 8,12,60
583,0.028553456281728843,0.0, 5,25,23, 3,0.08737712708473953, 1,12,13,60
1115,36123694728.73085,0.0, 1, 1,23, 3,5090065.109515274, 3, 3, 6,30
1128,11747527930.26951,0.0, 1, 1,23, 3,1525796.6055649114, 3, 1,10,15
1153,393622371.28700334,0.0, 1, 1,23, 3,146355.68367639463, 3, 2, 9,30
1154,1693704543.4998913,0.0, 1, 1, 6, 5,180000.0, 1, 6,16,15
1155,3871697619.7430987,0.0, 1, 1, 1,15,4314376.459449526, 2,10, 6,45
1156,3871697619.7430987,0.0, 1, 1, 1,15,4314376.459449526, 2,10, 6,45
1292,-1226202906.1812556,-43500.50666074737, 3, 6, 6,60,-1818.8481038897203, 6, 1, 9,46
1306,17425162281.203568,0.0, 1, 1, 1,15,4050000.0, 1, 1, 9,60
1307,7512077576.832714,0.0, 1, 1, 1,15,18171059.882760547, 2,17, 9,60
1308,17425162281.203568,0.0, 1, 1, 1,15,4050000.0, 1, 1, 9,60
13,63360445420.09003,151703.1275401932, 3,14, 4,15,10257680.526569907, 3, 5,21,45
61,15743207428.383959,88139.10953165221, 1, 1, 1,15,1282023.4113694867, 1, 1,20,15
134,3685071073.4325233,63564.01800854099, 1, 2, 4,15,156554.22484006523, 1, 1,20,15
170,273393721.45532674,348.4159749238097, 1, 2, 4,15,17476.39704006126, 1, 1,12,15
207,339560869.0695816,815.2532113832032, 1, 2, 3,15,22990.642799023623, 1, 1,10,15
244,664895467.8009144,1521.856143006317, 1, 2, 4,15,53038.631142310165, 1, 1,20,15
281,2407221015.106824,59938.60262432081, 1, 1, 5,15,81951.81706819107, 1, 1,19,15
318,0.0,0.0, 1, 1, 1,15,0.0, 1, 1, 1,15
355,10310294493.051695,18561.32405820678, 1, 2, 4,15,724774.895203776, 1, 1,18,15
403,10310294493.051695,18561.32405820678, 1, 2, 4,15,724774.895203776, 1, 1,18,15
476,5569688622.066177,7098.072629279515, 1, 2, 4,15,356036.3026282215, 1, 1,12,15
513,0.0,0.0, 1, 1, 1,15,0.0, 1, 1, 1,15
562,1788479720.534942,0.0, 1, 6,16,15,135016.6374275627, 5,25,18,60
1046,0.0,0.0, 1, 1, 1,15,0.0, 1, 1, 1,15
1096,7011972451.733521,0.0, 1, 1, 1,15,1626123.8932376583, 7,16,17,60
1134,17706552464.79959,0.0, 1,31,18,60,5729763.544249742, 3, 8, 6,45
1326,17425162281.203617,0.0, 1, 1, 1,15,4050000.0000000014, 4,15, 9,60
1379,0.0,0.0, 1, 1, 1,15,0.0, 1, 1, 1,15
End of Data
 Number of Records Written=          99
