Program Version,EnergyPlus, Version 22.2.0-c249759bad, YMD=2023.09.01 14:30
1,5,Environment Title[],Latitude[deg],Longitude[deg],Time Zone[],Elevation[m]
2,8,Day of Simulation[],Month[],Day of Month[],DST Indicator[1=yes 0=no],Hour[],StartMinute[],EndMinute[],DayType
3,5,Cumulative Day of Simulation[],Month[],Day of Month[],DST Indicator[1=yes 0=no],DayType  ! When Daily Report Variables Requested
4,2,Cumulative Days of Simulation[],Month[]  ! When Monthly Report Variables Requested
5,1,Cumulative Days of Simulation[] ! When Run Period Report Variables Requested
6,1,Calendar Year of Simulation[] ! When Annual Report Variables Requested
7,1,Environment,Site Outdoor Air Drybulb Temperature [C] !Hourly
619,1,DX_HEATING_COIL,Heating Coil Heating Rate [W] !Hourly
633,1,DX_HEATING_COIL,Heating Coil Electricity Rate [W] !Hourly
659,1,DX_HEATING_COIL,Heating Coil Defrost Electricity Rate [W] !Hourly
661,1,DX_HEATING_COIL,Heating Coil Crankcase Heater Electricity Rate [W] !Hourly
690,1,FAN,Fan Electricity Rate [W] !Hourly
716,1,HEAT PUMP WATER HEATER FAN,Fan Electricity Rate [W] !Hourly
718,1,LIVING,Zone Mean Air Temperature [C] !Hourly
719,1,ATTIC,Zone Mean Air Temperature [C] !Hourly
720,1,CRAWLSPACE,Zone Mean Air Temperature [C] !Hourly
843,1,LIVING,Zone Predicted Sensible Load to Heating Setpoint Heat Transfer Rate [W] !Hourly
844,1,LIVING,Zone System Predicted Sensible Load to Heating Setpoint Heat Transfer Rate [W] !Hourly
907,1,ATTIC,Zone Predicted Sensible Load to Heating Setpoint Heat Transfer Rate [W] !Hourly
908,1,ATTIC,Zone System Predicted Sensible Load to Heating Setpoint Heat Transfer Rate [W] !Hourly
971,1,CRAWLSPACE,Zone Predicted Sensible Load to Heating Setpoint Heat Transfer Rate [W] !Hourly
972,1,CRAWLSPACE,Zone System Predicted Sensible Load to Heating Setpoint Heat Transfer Rate [W] !Hourly
1195,1,HEATING_RESISTANCE_BACKUP,Heating Coil Heating Rate [W] !Hourly
1197,1,HEATING_RESISTANCE_BACKUP,Heating Coil Electricity Rate [W] !Hourly
End of Data Dictionary
1,EXTREME_WINTER,  40.48, -80.21,  -5.00, 366.70
2,1, 1,22, 0, 1, 0.00,60.00,Monday
7,-12.0
718,18.625647036140396
719,-8.880634123808111
720,18.606044231069216
619,3193.6075111337855
633,1215.8541302717044
659,1.6788520431276954
661,0.0
690,137.8780260469796
716,0.0
843,4934.28434876991
844,4934.28434876991
907,0.0
908,0.0
971,0.0
972,0.0
1195,3962.2490990805604
1197,3962.2490990805604
2,1, 1,22, 0, 2, 0.00,60.00,Monday
7,-12.2
718,18.6067402136143
719,-8.213424886987411
720,18.189263631760028
619,3175.0818429655837
633,1212.6282398688036
659,1.5141691653506715
661,0.0
690,137.8780260469796
716,0.0
843,4616.283862433456
844,4616.283862433456
907,0.0
908,0.0
971,0.0
972,0.0
1195,3624.316892916279
1197,3624.316892916279
2,1, 1,22, 0, 3, 0.00,60.00,Monday
7,-13.0
718,18.606597229679746
719,-8.506911834887473
720,18.007974712015425
619,3081.4616278443086
633,1196.9564843223175
659,6.013908925386091
661,0.0
690,137.8780260469796
716,0.0
843,4617.9823192406875
844,4617.9823192406875
907,0.0
908,0.0
971,0.0
972,0.0
1195,3704.728262827769
1197,3704.728262827769
2,1, 1,22, 0, 4, 0.00,60.00,Monday
7,-13.9
718,18.59871496227427
719,-8.848341814520555
720,17.776087728114426
619,2989.5347456610543
633,1184.6877944512976
659,7.310374689347889
661,0.0
690,137.8780260469796
716,0.0
843,4875.560501718686
844,4875.560501718686
907,0.0
908,0.0
971,0.0
972,0.0
1195,4111.130138093248
1197,4111.130138093248
2,1, 1,22, 0, 5, 0.00,60.00,Monday
7,-13.9
718,18.602950730956223
719,-9.070954942394264
720,17.577639803423363
619,2989.9388845895587
633,1184.2693974832077
659,7.310374689347889
661,0.0
690,137.8780260469796
716,0.0
843,4873.993318345671
844,4873.993318345671
907,0.0
908,0.0
971,0.0
972,0.0
1195,4151.349103900642
1197,4151.349103900642
2,1, 1,22, 0, 6, 0.00,60.00,Monday
7,-14.4
718,19.39636042365033
719,-8.63430901813556
720,17.380401467082706
619,2943.701600171917
633,1178.999809976173
659,6.710406290271829
661,0.0
690,137.8780260469796
716,0.0
843,5990.331306160149
844,5990.331306160149
907,0.0
908,0.0
971,0.0
972,0.0
1195,5540.235678104418
1197,5540.235678104418
2,1, 1,22, 0, 7, 0.00,60.00,Monday
7,-14.4
718,19.35191630998559
719,-8.492373765489095
720,17.225909640812763
619,2948.0434113432
633,1203.7163816836103
659,0.06641853197727356
661,0.0
690,137.8780260469796
716,85.44000000000005
843,5737.321670075715
844,5737.321670075715
907,0.0
908,0.0
971,0.0
972,0.0
1195,5825.875957402535
1197,5825.875957402535
2,1, 1,22, 0, 8, 0.00,60.00,Monday
7,-14.4
718,19.42373161854884
719,-8.51290065578491
720,17.04028186775205
619,2949.143166448141
633,1202.597732838207
659,0.06641853197727356
661,0.0
690,137.8780260469796
716,85.44000000000005
843,5517.692285194613
844,5517.692285194613
907,0.0
908,0.0
971,0.0
972,0.0
1195,5825.875957402535
1197,5825.875957402535
2,1, 1,22, 0, 9, 0.00,60.00,Monday
7,-14.4
718,19.63199583652084
719,-9.365768007536301
720,16.87047842679452
619,2943.3154056596163
633,1202.0149789470079
659,1.5543376872583756
661,0.0
690,137.8780260469796
716,19.64904748241943
843,5027.338936685899
844,5027.338936685899
907,0.0
908,0.0
971,0.0
972,0.0
1195,4690.184574312116
1197,4690.184574312116
2,1, 1,22, 0,10, 0.00,60.00,Monday
7,-13.3
718,19.689440418497657
719,-8.277884711804964
720,16.726429937096317
619,3051.122728974846
633,1221.6203533507162
659,0.06641853197727356
661,0.0
690,137.8780260469796
716,0.0
843,4477.073700587765
844,4477.073700587765
907,0.0
908,0.0
971,0.0
972,0.0
1195,3731.6442203233605
1197,3731.6442203233605
2,1, 1,22, 0,11, 0.00,60.00,Monday
7,-13.3
718,19.713540628089362
719,-7.506260062193307
720,16.592430878262064
619,3050.09350075921
633,1222.6888862789954
659,0.06641853197727356
661,0.0
690,137.8780260469796
716,0.0
843,3908.2523203266537
844,3908.2523203266537
907,0.0
908,0.0
971,0.0
972,0.0
1195,3009.9530301433565
1197,3009.9530301433565
2,1, 1,22, 0,12, 0.00,60.00,Monday
7,-12.2
718,19.715503238770758
719,-6.103540851072144
720,16.492329406769045
619,3159.3141988331536
633,1236.3373278896247
659,0.06641853197727356
661,0.0
690,137.8780260469796
716,0.0
843,3027.2205081111424
844,3027.2205081111424
907,0.0
908,0.0
971,0.0
972,0.0
1195,1787.0981752562807
1197,1787.0981752562807
2,1, 1,22, 0,13, 0.00,60.00,Monday
7,-12.0
718,19.713827108057476
719,-4.866487605587911
720,16.40028816493374
619,3174.2035256376516
633,1236.571081740135
659,1.6788520431276954
661,0.0
690,137.8780260469796
716,0.0
843,3818.767692620686
844,3818.767692620686
907,0.0
908,0.0
971,0.0
972,0.0
1195,2657.8568248142524
1197,2657.8568248142524
2,1, 1,22, 0,14, 0.00,60.00,Monday
7,-11.7
718,19.707613356742286
719,-5.0077214379929185
720,16.317416893691103
619,3194.5208437932483
633,1236.0275194011967
659,4.719779415070841
661,0.0
690,137.8780260469796
716,81.27992411583003
843,3915.788000322729
844,3915.788000322729
907,0.0
908,0.0
971,0.0
972,0.0
1195,3674.581431092869
1197,3674.581431092869
2,1, 1,22, 0,15, 0.00,60.00,Monday
7,-11.7
718,19.723789073703568
719,-5.3176175576970355
720,16.233496025171707
619,3210.311112179318
633,1241.7919729894445
659,0.06641853197727356
661,0.0
690,137.8780260469796
716,0.0
843,3313.860525882583
844,3313.860525882583
907,0.0
908,0.0
971,0.0
972,0.0
1195,1959.2199015171223
1197,1959.2199015171223
2,1, 1,22, 0,16, 0.00,60.00,Monday
7,-12.0
718,19.719620653720003
719,-4.8394069894635425
720,16.16047648662229
619,3174.337696817335
633,1236.4283122853635
659,1.6788520431276954
661,0.0
690,137.8780260469796
716,0.0
843,2891.3286593449466
844,2891.3286593449466
907,0.0
908,0.0
971,0.0
972,0.0
1195,1495.3157357498123
1197,1495.3157357498123
2,1, 1,22, 0,17, 0.00,60.00,Monday
7,-11.7
718,19.716361325168528
719,-5.834673926437569
720,16.09520541632623
619,3185.325197084764
633,1232.2233589992004
659,7.5215520242148
661,0.0
690,137.8780260469796
716,0.0
843,3399.182518008196
844,3399.182518008196
907,0.0
908,0.0
971,0.0
972,0.0
1195,2080.391242766994
1197,2080.391242766994
2,1, 1,22, 0,18, 0.00,60.00,Monday
7,-12.8
718,19.715198376032532
719,-5.857768676667257
720,16.026066393415686
619,3099.788786895183
633,1228.587079200445
659,0.06641853197727356
661,0.0
690,137.8780260469796
716,0.0
843,3273.3363282341743
844,3273.3363282341743
907,0.0
908,0.0
971,0.0
972,0.0
1195,2060.458401833571
1197,2060.458401833571
2,1, 1,22, 0,19, 0.00,60.00,Monday
7,-13.3
718,19.697526488796534
719,-6.177918150236598
720,15.948238349469923
619,3048.243175562866
633,1221.5653964093312
659,0.7325890104071604
661,0.0
690,137.8780260469796
716,85.44000000000005
843,3267.3574625971305
844,3267.3574625971305
907,0.0
908,0.0
971,0.0
972,0.0
1195,3253.042406802199
1197,3253.042406802199
2,1, 1,22, 0,20, 0.00,60.00,Monday
7,-13.3
718,19.703440452743113
719,-6.454599439089389
720,15.860392310551102
619,3048.7063188065536
633,1221.0845700724615
659,0.7325890104071604
661,0.0
690,137.8780260469796
716,85.44000000000005
843,3311.514921787182
844,3311.514921787182
907,0.0
908,0.0
971,0.0
972,0.0
1195,3343.869322090944
1197,3343.869322090944
2,1, 1,22, 0,21, 0.00,60.00,Monday
7,-13.9
718,19.702116383366462
719,-6.255584674871662
720,15.76256997014611
619,2976.669329612935
633,1208.3780087545804
659,4.978628534761495
661,0.0
690,137.8780260469796
716,64.94570483874372
843,3434.4599034259754
844,3434.4599034259754
907,0.0
908,0.0
971,0.0
972,0.0
1195,3283.373595395625
1197,3283.373595395625
2,1, 1,22, 0,22, 0.00,60.00,Monday
7,-14.4
718,19.709948163981903
719,-6.939790536660597
720,15.659651848309721
619,2923.322072704285
633,1199.9069366842912
659,6.682417378186637
661,0.0
690,137.8780260469796
716,0.0
843,3820.4130109166254
844,3820.4130109166254
907,0.0
908,0.0
971,0.0
972,0.0
1195,2921.7354521557177
1197,2921.7354521557177
2,1, 1,22, 0,23, 0.00,60.00,Monday
7,-14.4
718,18.93375706141756
719,-7.064758200972547
720,15.557287499485335
619,2923.2832483146517
633,1199.9463270346741
659,6.682417378186637
661,0.0
690,137.8780260469796
716,0.0
843,3082.358483804499
844,3082.358483804499
907,0.0
908,0.0
971,0.0
972,0.0
1195,2086.7704408168847
1197,2086.7704408168847
2,1, 1,22, 0,24, 0.00,60.00,Monday
7,-14.0
718,18.70070427553546
719,-7.646969176871018
720,15.419321210613901
619,2983.2996332992057
633,1190.5411445184097
659,4.942574833267287
661,0.0
690,137.8780260469796
716,0.0
843,3708.2784850101034
844,3708.2784850101034
907,0.0
908,0.0
971,0.0
972,0.0
1195,2713.6934113572015
1197,2713.6934113572015
2,2, 1,23, 0, 1, 0.00,60.00,Tuesday
7,-14.4
718,18.629824125539017
719,-7.9696014320178765
720,15.300823283766166
619,2944.2268533807896
633,1178.58151184682
659,6.683097256406765
661,0.0
690,137.8780260469796
716,0.0
843,4251.17467582276
844,4251.17467582276
907,0.0
908,0.0
971,0.0
972,0.0
1195,3438.281040317282
1197,3438.281040317282
2,2, 1,23, 0, 2, 0.00,60.00,Tuesday
7,-14.4
718,18.60559896643273
719,-8.113589592076456
720,15.181813917783193
619,2945.8028913380995
633,1176.9650562847105
659,6.683097256406765
661,0.0
690,137.8780260469796
716,0.0
843,4597.731821238842
844,4597.731821238842
907,0.0
908,0.0
971,0.0
972,0.0
1195,3853.480824520399
1197,3853.480824520399
2,2, 1,23, 0, 3, 0.00,60.00,Tuesday
7,-15.0
718,18.602926661603572
719,-8.354850313930692
720,15.059058107527084
619,2891.1529940292153
633,1170.0275478963738
659,6.016079305344383
661,0.0
690,137.8780260469796
716,0.0
843,4887.962978302863
844,4887.962978302863
907,0.0
908,0.0
971,0.0
972,0.0
1195,4285.325838392968
1197,4285.325838392968
2,2, 1,23, 0, 4, 0.00,60.00,Tuesday
7,-15.6
718,18.59653712397422
719,-8.73882301358113
720,14.936967991886345
619,2828.74589151411
633,1160.1884055474059
659,8.00995230297978
661,0.0
690,137.8780260469796
716,0.0
843,5137.59265510898
844,5137.59265510898
907,0.0
908,0.0
971,0.0
972,0.0
1195,4645.630104566569
1197,4645.630104566569
2,2, 1,23, 0, 5, 0.00,60.00,Tuesday
7,-15.6
718,18.60169782785648
719,-8.807173883848066
720,14.819218201288475
619,2829.0154276535322
633,1159.9187270370712
659,8.00995230297978
661,0.0
690,137.8780260469796
716,0.0
843,5133.669858042926
844,5133.669858042926
907,0.0
908,0.0
971,0.0
972,0.0
1195,4686.048625507977
1197,4686.048625507977
2,2, 1,23, 0, 6, 0.00,60.00,Tuesday
7,-15.6
718,19.285197071838173
719,-8.648476784022657
720,14.702322773332764
619,2829.050626663233
633,1159.8865742107891
659,8.009220104818901
661,0.0
690,137.8780260469796
716,0.0
843,6264.805208229351
844,6264.805208229351
907,0.0
908,0.0
971,0.0
972,0.0
1195,5825.875957402535
1197,5825.875957402535
2,2, 1,23, 0, 7, 0.00,60.00,Tuesday
7,-15.6
718,19.060429116470196
719,-8.586150958100822
720,14.615808215503511
619,2815.3950175816685
633,1173.5073349151571
659,8.006861709956954
661,0.0
690,137.8780260469796
716,85.44000000000005
843,6061.958892300159
844,6061.958892300159
907,0.0
908,0.0
971,0.0
972,0.0
1195,5825.875957402535
1197,5825.875957402535
2,2, 1,23, 0, 8, 0.00,60.00,Tuesday
7,-15.6
718,19.028890838269984
719,-8.553476124082469
720,14.490492394142981
619,2820.0510964774494
633,1168.87855130486
659,8.006861709956954
661,0.0
690,137.8780260469796
716,85.44000000000005
843,5882.475764007066
844,5882.475764007066
907,0.0
908,0.0
971,0.0
972,0.0
1195,5825.875957402535
1197,5825.875957402535
2,2, 1,23, 0, 9, 0.00,60.00,Tuesday
7,-13.9
718,19.441335835234415
719,-6.884243567929661
720,14.398716950048229
619,2992.2227902187633
633,1192.3885005756338
659,4.97426906659728
661,0.0
690,137.8780260469796
716,85.44000000000005
843,5014.283616539722
844,5014.283616539722
907,0.0
908,0.0
971,0.0
972,0.0
1195,5562.421478467575
1197,5562.421478467575
2,2, 1,23, 0,10, 0.00,60.00,Tuesday
7,-12.2
718,19.626990601402596
719,-5.034914904772593
720,14.329036258461795
619,3162.935851587044
633,1225.6316123391482
659,1.5016420272415514
661,0.0
690,137.8780260469796
716,32.53390990363971
843,4243.77916269223
844,4243.77916269223
907,0.0
908,0.0
971,0.0
972,0.0
1195,3638.00846448184
1197,3638.00846448184
2,2, 1,23, 0,11, 0.00,60.00,Tuesday
7,-12.2
718,19.70126969094087
719,-2.43877812226137
720,14.258852168456242
619,3159.14324076845
633,1229.6618083536796
659,1.5016420272415514
661,0.0
690,137.8780260469796
716,0.0
843,3466.4145424704293
844,3466.4145424704293
907,0.0
908,0.0
971,0.0
972,0.0
1195,2235.5714026201786
1197,2235.5714026201786
2,2, 1,23, 0,12, 0.00,60.00,Tuesday
7,-11.1
718,19.71169679284634
719,-3.0943325699331385
720,14.215744028502163
619,3274.2339396133953
633,1245.9614929623663
659,0.06641853197727356
661,0.0
690,137.8780260469796
716,0.0
843,3297.0018545417606
844,3297.0018545417606
907,0.0
908,0.0
971,0.0
972,0.0
1195,1771.9441522713364
1197,1771.9441522713364
2,2, 1,23, 0,13, 0.00,60.00,Tuesday
7,-10.0
718,19.7162902960966
719,-3.2488570349668597
720,14.187213304701071
619,3388.12844528777
633,1258.8002317105174
659,0.06641853197727356
661,0.0
690,137.8780260469796
716,0.0
843,3345.135928512742
844,3345.135928512742
907,0.0
908,0.0
971,0.0
972,0.0
1195,1764.147127749484
1197,1764.147127749484
2,2, 1,23, 0,14, 0.00,60.00,Tuesday
7,-10.0
718,19.71691471542669
719,-3.154230630663918
720,14.168171654536913
619,3388.0669315545238
633,1258.867955163008
659,0.06641853197727356
661,0.0
690,137.8780260469796
716,0.0
843,3097.1409101600475
844,3097.1409101600475
907,0.0
908,0.0
971,0.0
972,0.0
1195,1469.001327510965
1197,1469.001327510965
2,2, 1,23, 0,15, 0.00,60.00,Tuesday
7,-9.4
718,19.724441434176818
719,-0.4203319993547027
720,14.1689302592222
619,3451.1669363046562
633,1265.746317204456
659,0.06641853197727356
661,0.0
690,137.8780260469796
716,0.0
843,2350.1597060898475
844,2350.1597060898475
907,0.0
908,0.0
971,0.0
972,0.0
1195,504.5800139556186
1197,504.5800139556186
2,2, 1,23, 0,16, 0.00,60.00,Tuesday
7,-9.4
718,19.738305862374723
719,2.4923024017715663
720,14.166816699042267
619,3306.6041075649846
633,1218.6563406281366
659,0.06393566377277522
661,7.476432045646209
690,132.72106883362414
716,0.0
843,1965.7593896277886
844,1965.7593896277886
907,0.0
908,0.0
971,0.0
972,0.0
1195,0.0
1197,0.0
2,2, 1,23, 0,17, 0.00,60.00,Tuesday
7,-9.4
718,19.771447164865787
719,1.2973647317789876
720,14.166345353502042
619,2828.4876276475943
633,1059.136488571112
659,0.05554714350557497
661,32.73600950836568
690,115.30772973673416
716,0.0
843,1782.7894085119606
844,1782.7894085119606
907,0.0
908,0.0
971,0.0
972,0.0
1195,0.0
1197,0.0
2,2, 1,23, 0,18, 0.00,60.00,Tuesday
7,-9.4
718,19.66087340421495
719,1.0893026295766548
720,14.195931785650151
619,3449.9833317832117
633,1267.0607232168102
659,0.06641853197727356
661,0.0
690,137.8780260469796
716,0.0
843,2170.6619934806786
844,2170.6619934806786
907,0.0
908,0.0
971,0.0
972,0.0
1195,45.67924410449041
1197,45.67924410449041
2,2, 1,23, 0,19, 0.00,60.00,Tuesday
7,-9.4
718,19.68762090885301
719,-0.7332531357929524
720,14.192139044504136
619,3450.336337306583
633,1263.7710222727223
659,0.6122264913977234
661,0.0
690,137.8780260469796
716,85.44000000000005
843,2221.8716700677433
844,2221.8716700677433
907,0.0
908,0.0
971,0.0
972,0.0
1195,1206.0258322916163
1197,1206.0258322916163
2,2, 1,23, 0,20, 0.00,60.00,Tuesday
7,-9.4
718,19.68877123712525
719,-1.448778689774958
720,14.183550056578841
619,3449.7708925819134
633,1264.3991329038286
659,0.6122264913977234
661,0.0
690,137.8780260469796
716,85.44000000000005
843,2310.4834950421955
844,2310.4834950421955
907,0.0
908,0.0
971,0.0
972,0.0
1195,1505.1866753076688
1197,1505.1866753076688
2,2, 1,23, 0,21, 0.00,60.00,Tuesday
7,-10.0
718,19.70182685703004
719,-2.0792676706475843
720,14.154058963071785
619,3326.998042684218
633,1235.434601425508
659,17.52051356345473
661,0.0
690,137.8780260469796
716,85.44000000000005
843,2515.1018034652516
844,2515.1018034652516
907,0.0
908,0.0
971,0.0
972,0.0
1195,1914.2993701361088
1197,1914.2993701361088
2,2, 1,23, 0,22, 0.00,60.00,Tuesday
7,-10.0
718,19.707086176528126
719,-2.5111229601943243
720,14.12067904081961
619,3296.8882870399943
633,1224.5995423721815
659,25.987840982495776
661,0.0
690,137.8780260469796
716,44.309116485710994
843,2788.896428112881
844,2788.896428112881
907,0.0
908,0.0
971,0.0
972,0.0
1195,1667.027178569934
1197,1667.027178569934
2,2, 1,23, 0,23, 0.00,60.00,Tuesday
7,-10.0
718,18.94979348757474
719,-3.065550397800256
720,14.077298632413688
619,3296.820032150551
633,1224.6746910892311
659,25.987840982495776
661,0.0
690,137.8780260469796
716,0.0
843,2123.4948496627585
844,2123.4948496627585
907,0.0
908,0.0
971,0.0
972,0.0
1195,347.8170270790631
1197,347.8170270790631
2,2, 1,23, 0,24, 0.00,60.00,Tuesday
7,-10.0
718,18.716755518531905
719,-3.30362065906793
720,13.993193630979635
619,3312.314101617768
633,1207.4171327428762
659,26.020190273985648
661,0.0
690,137.8780260469796
716,0.0
843,2640.4961217228592
844,2640.4961217228592
907,0.0
908,0.0
971,0.0
972,0.0
1195,923.6937149684622
1197,923.6937149684622
2,3, 1,24, 0, 1, 0.00,60.00,Wednesday
7,-10.0
718,18.638183815203046
719,-3.40466256305435
720,13.930572083865076
619,3302.2682843977886
633,1196.6570490974798
659,30.216610526931753
661,0.0
690,137.8780260469796
716,0.0
843,3142.9231783656833
844,3142.9231783656833
907,0.0
908,0.0
971,0.0
972,0.0
1195,1527.2746127386672
1197,1527.2746127386672
2,3, 1,24, 0, 2, 0.00,60.00,Wednesday
7,-10.0
718,18.614979520450856
719,-3.6436503142057837
720,13.863140960723989
619,3303.9331253682244
633,1194.8155515852495
659,30.216610526931753
661,0.0
690,137.8780260469796
716,0.0
843,3500.152800422653
844,3500.152800422653
907,0.0
908,0.0
971,0.0
972,0.0
1195,1962.1409880156602
1197,1962.1409880156602
2,3, 1,24, 0, 3, 0.00,60.00,Wednesday
7,-11.0
718,18.604991472054774
719,-3.756872713116066
720,13.789086171735386
619,3184.5150565105573
633,1176.4146349656842
659,35.83160326068758
661,0.0
690,137.8780260469796
716,0.0
843,3849.1613780172647
844,3849.1613780172647
907,0.0
908,0.0
971,0.0
972,0.0
1195,2503.663534699336
1197,2503.663534699336
2,3, 1,24, 0, 4, 0.00,60.00,Wednesday
7,-11.0
718,18.605504272449977
719,-3.8176121537259204
720,13.722290017185282
619,3184.8011305433283
633,1176.1026332383162
659,35.83160326068758
661,0.0
690,137.8780260469796
716,0.0
843,4008.9958656825984
844,4008.9958656825984
907,0.0
908,0.0
971,0.0
972,0.0
1195,2713.8717084559075
1197,2713.8717084559075
2,3, 1,24, 0, 5, 0.00,60.00,Wednesday
7,-10.6
718,18.602774156734277
719,-4.471014583651847
720,13.656232019814215
619,3251.1024100929776
633,1189.941458882707
659,28.25349435692217
661,0.0
690,137.8780260469796
716,0.0
843,4074.832075765704
844,4074.832075765704
907,0.0
908,0.0
971,0.0
972,0.0
1195,2722.3280804325955
1197,2722.3280804325955
2,3, 1,24, 0, 6, 0.00,60.00,Wednesday
7,-11.0
718,19.266686494245533
719,-4.782286350377934
720,13.582971442969125
619,3207.9935463400393
633,1184.3551818193057
659,29.160184999442816
661,0.0
690,137.8780260469796
716,80.13402198301347
843,5296.085589876564
844,5296.085589876564
907,0.0
908,0.0
971,0.0
972,0.0
1195,5242.290719093966
1197,5242.290719093966
2,3, 1,24, 0, 7, 0.00,60.00,Wednesday
7,-11.0
718,19.538469924611427
719,-5.35456734342807
720,13.542652432208973
619,3194.667633101928
633,1198.8645108722621
659,29.160184999442816
661,0.0
690,137.8780260469796
716,85.44000000000005
843,5316.434676343197
844,5316.434676343197
907,0.0
908,0.0
971,0.0
972,0.0
1195,5537.0044812218
1197,5537.0044812218
2,3, 1,24, 0, 8, 0.00,60.00,Wednesday
7,-10.6
718,19.63783256655108
719,-5.547736646033299
720,13.481501293441966
619,3246.5377526216676
633,1215.7051250284767
659,24.176854621811074
661,0.0
690,137.8780260469796
716,75.7752651182784
843,5412.491826769001
844,5412.491826769001
907,0.0
908,0.0
971,0.0
972,0.0
1195,5580.1140973020065
1197,5580.1140973020065
2,3, 1,24, 0, 9, 0.00,60.00,Wednesday
7,-10.0
718,19.698542576634917
719,-3.9009579878756044
720,13.42743607787956
619,3299.7407598710124
633,1222.4699126751184
659,25.79311166300195
661,0.0
690,137.8780260469796
716,0.0
843,4165.597429074889
844,4165.597429074889
907,0.0
908,0.0
971,0.0
972,0.0
1195,2974.50434548663
1197,2974.50434548663
2,3, 1,24, 0,10, 0.00,60.00,Wednesday
7,-8.9
718,19.718174784787923
719,-3.0062071694310895
720,13.374314720748647
619,3445.8734968952863
633,1248.2288016979878
659,16.442579025401006
661,0.0
690,137.8780260469796
716,0.0
843,3516.275798545703
844,3516.275798545703
907,0.0
908,0.0
971,0.0
972,0.0
1195,1977.4385495981105
1197,1977.4385495981105
2,3, 1,24, 0,11, 0.00,60.00,Wednesday
7,-8.9
718,19.71777987071296
719,-1.8216760220056405
720,13.335771808798881
619,3445.529092608983
633,1248.6140461085708
659,16.442579025401006
661,0.0
690,137.8780260469796
716,0.0
843,3176.3374982592395
844,3176.3374982592395
907,0.0
908,0.0
971,0.0
972,0.0
1195,1514.105736824094
1197,1514.105736824094
2,3, 1,24, 0,12, 0.00,60.00,Wednesday
7,-7.2
718,19.72144013109856
719,1.0383996197271603
720,13.325594662476027
619,3658.3119002529666
633,1278.3177013284742
659,8.167298549084146
661,0.0
690,137.8780260469796
716,0.0
843,3062.820938449704
844,3062.820938449704
907,0.0
908,0.0
971,0.0
972,0.0
1195,1118.8063032071623
1197,1118.8063032071623
2,3, 1,24, 0,13, 0.00,60.00,Wednesday
7,-6.0
718,19.72243498103425
719,2.7728808102865727
720,13.328992606568136
619,3775.4191524873295
633,1286.6522085412143
659,11.87345639658413
661,0.0
690,137.8780260469796
716,0.0
843,2685.8855817415824
844,2685.8855817415824
907,0.0
908,0.0
971,0.0
972,0.0
1195,375.3675836716702
1197,375.3675836716702
2,3, 1,24, 0,14, 0.00,60.00,Wednesday
7,-7.2
718,19.723083695002387
719,2.663020160110959
720,13.319154240402433
619,3658.2027587179687
633,1278.4470787132955
659,8.166473774856032
661,0.0
690,137.8780260469796
716,0.0
843,2727.3714025905865
844,2727.3714025905865
907,0.0
908,0.0
971,0.0
972,0.0
1195,459.02042303081635
1197,459.02042303081635
2,3, 1,24, 0,15, 0.00,60.00,Wednesday
7,-6.0
718,19.71948348588052
719,2.614914325090909
720,13.335858722450643
619,3822.4603444874847
633,1302.6095552586817
659,0.06641853197727356
661,0.0
690,137.8780260469796
716,73.97319414075086
843,2424.565281342022
844,2424.565281342022
907,0.0
908,0.0
971,0.0
972,0.0
1195,887.5936799004216
1197,887.5936799004216
2,3, 1,24, 0,16, 0.00,60.00,Wednesday
7,-6.7
718,19.726121875893377
719,3.231255993346412
720,13.354559821200226
619,3489.474921523041
633,1215.846797344341
659,0.06236392925071052
661,12.209251261230536
690,129.45899648554567
716,83.9513090013193
843,1353.988486185066
844,1353.988486185066
907,0.0
908,0.0
971,0.0
972,0.0
1195,0.0
1197,0.0
2,3, 1,24, 0,17, 0.00,60.00,Wednesday
7,-6.7
718,19.9070051352115
719,1.226643709430184
720,13.329665954472572
619,1718.2285050713313
633,632.2135007087531
659,0.032411793380495525
661,102.40135571925654
690,67.28245454736843
716,0.0
843,1107.201252779254
844,1107.201252779254
907,0.0
908,0.0
971,0.0
972,0.0
1195,0.0
1197,0.0
2,3, 1,24, 0,18, 0.00,60.00,Wednesday
7,-8.9
718,19.573735912110813
719,-0.43124192612775575
720,13.432555530086942
619,2979.275789265492
633,1102.937598083213
659,0.05746098916380596
661,26.97302257909766
690,119.28070301699492
716,0.0
843,1839.0836446346002
844,1839.0836446346002
907,0.0
908,0.0
971,0.0
972,0.0
1195,0.0
1197,0.0
2,3, 1,24, 0,19, 0.00,60.00,Wednesday
7,-9.4
718,19.6005753057034
719,-2.2697291034306337
720,13.44809215313773
619,3455.1537754567603
633,1261.31665260954
659,0.06641853197727356
661,0.0
690,137.8780260469796
716,0.0
843,2243.77951201607
844,2243.77951201607
907,0.0
908,0.0
971,0.0
972,0.0
1195,234.15431714470856
1197,234.15431714470856
2,3, 1,24, 0,20, 0.00,60.00,Wednesday
7,-9.4
718,19.65354062623979
719,-3.025387931957963
720,13.45518632550476
619,3454.563133997965
633,1261.9731121859782
659,0.06641853197727356
661,0.0
690,137.8780260469796
716,85.44000000000005
843,2503.101452767143
844,2503.101452767143
907,0.0
908,0.0
971,0.0
972,0.0
1195,1865.6643925461578
1197,1865.6643925461578
2,3, 1,24, 0,21, 0.00,60.00,Wednesday
7,-11.1
718,19.67258413117751
719,-3.608249659362178
720,13.427303188509246
619,3268.328338522295
633,1240.8098657516248
659,2.3810524309353545
661,0.0
690,137.8780260469796
716,85.44000000000005
843,2688.7405173348434
844,2688.7405173348434
907,0.0
908,0.0
971,0.0
972,0.0
1195,2307.4448495298175
1197,2307.4448495298175
2,3, 1,24, 0,22, 0.00,60.00,Wednesday
7,-11.1
718,19.70004557748127
719,-4.331844173907558
720,13.395806710134414
619,3267.9500619154273
633,1241.214671360442
659,2.381993461531661
661,0.0
690,137.8780260469796
716,38.62352193945352
843,2852.0679824640138
844,2852.0679824640138
907,0.0
908,0.0
971,0.0
972,0.0
1195,1816.9982386859147
1197,1816.9982386859147
2,3, 1,24, 0,23, 0.00,60.00,Wednesday
7,-11.1
718,18.95182275361418
719,-4.914787856644424
720,13.349239133882758
619,3267.411536832243
633,1241.7975672179996
659,2.381993461531661
661,0.0
690,137.8780260469796
716,0.0
843,2231.9870253166064
844,2231.9870253166064
907,0.0
908,0.0
971,0.0
972,0.0
1195,630.2014212673646
1197,630.2014212673646
2,3, 1,24, 0,24, 0.00,60.00,Wednesday
7,-12.2
718,18.71455815240306
719,-4.950781006757972
720,13.250102644405317
619,3136.441539760375
633,1198.926002470566
659,12.964769725185716
661,0.0
690,137.8780260469796
716,0.0
843,2928.1052764714204
844,2928.1052764714204
907,0.0
908,0.0
971,0.0
972,0.0
1195,1563.2759231567413
1197,1563.2759231567413
2,4, 1,25, 0, 1, 0.00,60.00,Thursday
7,-11.7
718,18.637701785696354
719,-4.903319121998499
720,13.187262296777051
619,3175.9848591518357
633,1193.4320180407076
659,17.519110350500895
661,0.0
690,137.8780260469796
716,0.0
843,3411.387937257319
844,3411.387937257319
907,0.0
908,0.0
971,0.0
972,0.0
1195,2095.993036182521
1197,2095.993036182521
2,4, 1,25, 0, 2, 0.00,60.00,Thursday
7,-11.7
718,18.611380255995627
719,-4.819818984452769
720,13.11363851207662
619,3177.6203719919426
633,1191.667993984219
659,17.519110350500895
661,0.0
690,137.8780260469796
716,0.0
843,3795.220403209427
844,3795.220403209427
907,0.0
908,0.0
971,0.0
972,0.0
1195,2538.4076375998593
1197,2538.4076375998593
2,4, 1,25, 0, 3, 0.00,60.00,Thursday
7,-11.1
718,18.60748102755625
719,-4.694417381832403
720,13.046715431657272
619,3260.225376577617
633,1205.597144842569
659,11.184125502842855
661,0.0
690,137.8780260469796
716,0.0
843,3971.183780687079
844,3971.183780687079
907,0.0
908,0.0
971,0.0
972,0.0
1195,2673.1665678139434
1197,2673.1665678139434
2,4, 1,25, 0, 4, 0.00,60.00,Thursday
7,-10.6
718,18.602636922583887
719,-4.663049677508285
720,12.978264161765896
619,3319.0808727723015
633,1213.6725576912927
659,8.986584857493845
661,0.0
690,137.8780260469796
716,0.0
843,4166.112312233252
844,4166.112312233252
907,0.0
908,0.0
971,0.0
972,0.0
1195,2831.878283390858
1197,2831.878283390858
2,4, 1,25, 0, 5, 0.00,60.00,Thursday
7,-10.6
718,18.605769994540722
719,-4.4065128070117145
720,12.908429895942177
619,3319.263758187929
633,1213.4718606653696
659,8.986584857493845
661,0.0
690,137.8780260469796
716,0.0
843,4187.611548628232
844,4187.611548628232
907,0.0
908,0.0
971,0.0
972,0.0
1195,2869.7228125684146
1197,2869.7228125684146
2,4, 1,25, 0, 6, 0.00,60.00,Thursday
7,-10.6
718,19.397583361832226
719,-4.155582462392953
720,12.83908547262431
619,3319.229850843018
633,1213.4251310796642
659,9.003031898897056
661,0.0
690,137.8780260469796
716,0.0
843,5383.794616042753
844,5383.794616042753
907,0.0
908,0.0
971,0.0
972,0.0
1195,4283.645550172392
1197,4283.645550172392
2,4, 1,25, 0, 7, 0.00,60.00,Thursday
7,-10.6
718,19.579284073246473
719,-4.43192445744663
720,12.807149478954424
619,3309.994341521513
633,1233.916868867673
659,6.967079555103117
661,0.0
690,137.8780260469796
716,85.44000000000005
843,5128.368772123156
844,5128.368772123156
907,0.0
908,0.0
971,0.0
972,0.0
1195,5239.933100048793
1197,5239.933100048793
2,4, 1,25, 0, 8, 0.00,60.00,Thursday
7,-10.6
718,19.657893065781792
719,-4.401525140256535
720,12.745642804850304
619,3306.236876281065
633,1238.0222809185875
659,6.967079555103117
661,0.0
690,137.8780260469796
716,85.44000000000005
843,4844.520786100644
844,4844.520786100644
907,0.0
908,0.0
971,0.0
972,0.0
1195,4960.068898062643
1197,4960.068898062643
2,4, 1,25, 0, 9, 0.00,60.00,Thursday
7,-10.0
718,19.682728239406813
719,-4.648694514151229
720,12.690927273249674
619,3379.166761139764
633,1251.1308079893438
659,3.4419722620745223
661,0.0
690,137.8780260469796
716,82.74614675147176
843,4849.791823235193
844,4849.791823235193
907,0.0
908,0.0
971,0.0