Program Version,EnergyPlus, Version 22.2.0-c249759bad, YMD=2023.09.01 20:24
1,5,Environment Title[],Latitude[deg],Longitude[deg],Time Zone[],Elevation[m]
2,8,Day of Simulation[],Month[],Day of Month[],DST Indicator[1=yes 0=no],Hour[],StartMinute[],EndMinute[],DayType
3,5,Cumulative Day of Simulation[],Month[],Day of Month[],DST Indicator[1=yes 0=no],DayType  ! When Daily Report Variables Requested
4,2,Cumulative Days of Simulation[],Month[]  ! When Monthly Report Variables Requested
5,1,Cumulative Days of Simulation[] ! When Run Period Report Variables Requested
6,1,Calendar Year of Simulation[] ! When Annual Report Variables Requested
581,11,LIVING,AFN Zone Infiltration Air Change Rate [ach] !RunPeriod [Value,Min,Month,Day,Hour,Minute,Max,Month,Day,Hour,Minute]
582,11,ATTIC,AFN Zone Infiltration Air Change Rate [ach] !RunPeriod [Value,Min,Month,Day,Hour,Minute,Max,Month,Day,Hour,Minute]
583,11,CRAWLSPACE,AFN Zone Infiltration Air Change Rate [ach] !RunPeriod [Value,Min,Month,Day,Hour,Minute,Max,Month,Day,Hour,Minute]
1038,11,Facility,Facility Heating Setpoint Not Met Time [hr] !RunPeriod [Value,Min,Month,Day,Hour,Minute,Max,Month,Day,Hour,Minute]
1039,11,Facility,Facility Cooling Setpoint Not Met Time [hr] !RunPeriod [Value,Min,Month,Day,Hour,Minute,Max,Month,Day,Hour,Minute]
1115,11,DX_HEATING_COIL,Heating Coil Heating Energy [J] !RunPeriod [Value,Min,Month,Day,Hour,Minute,Max,Month,Day,Hour,Minute]
1128,11,DX_HEATING_COIL,Heating Coil Electricity Energy [J] !RunPeriod [Value,Min,Month,Day,Hour,Minute,Max,Month,Day,Hour,Minute]
1153,11,DX_HEATING_COIL,Heating Coil Defrost Electricity Energy [J] !RunPeriod [Value,Min,Month,Day,Hour,Minute,Max,Month,Day,Hour,Minute]
1154,11,DX_HEATING_COIL,Heating Coil Crankcase Heater Electricity Energy [J] !RunPeriod [Value,Min,Month,Day,Hour,Minute,Max,Month,Day,Hour,Minute]
1155,11,HEATING_RESISTANCE_BACKUP,Heating Coil Heating Energy [J] !RunPeriod [Value,Min,Month,Day,Hour,Minute,Max,Month,Day,Hour,Minute]
1156,11,HEATING_RESISTANCE_BACKUP,Heating Coil Electricity Energy [J] !RunPeriod [Value,Min,Month,Day,Hour,Minute,Max,Month,Day,Hour,Minute]
1292,11,WATER HEATER,Water Heater Heat Loss Energy [J] !RunPeriod [Value,Min,Month,Day,Hour,Minute,Max,Month,Day,Hour,Minute]
1306,11,WATER HEATER,Water Heater Heating Energy [J] !RunPeriod [Value,Min,Month,Day,Hour,Minute,Max,Month,Day,Hour,Minute]
1307,11,WATER HEATER,Water Heater Unmet Demand Heat Transfer Energy [J] !RunPeriod [Value,Min,Month,Day,Hour,Minute,Max,Month,Day,Hour,Minute]
1308,11,WATER HEATER,Water Heater Electricity Energy [J] !RunPeriod [Value,Min,Month,Day,Hour,Minute,Max,Month,Day,Hour,Minute]
13,11,Electricity:Facility [J] !RunPeriod [Value,Min,Month,Day,Hour,Minute,Max,Month,Day,Hour,Minute]
1134,11,Heating:Electricity [J] !RunPeriod [Value,Min,Month,Day,Hour,Minute,Max,Month,Day,Hour,Minute]
1096,11,Cooling:Electricity [J] !RunPeriod [Value,Min,Month,Day,Hour,Minute,Max,Month,Day,Hour,Minute]
562,11,Fans:Electricity [J] !RunPeriod [Value,Min,Month,Day,Hour,Minute,Max,Month,Day,Hour,Minute]
1379,11,Pumps:Electricity [J] !RunPeriod [Value,Min,Month,Day,Hour,Minute,Max,Month,Day,Hour,Minute]
1326,11,WaterSystems:Electricity [J] !RunPeriod [Value,Min,Month,Day,Hour,Minute,Max,Month,Day,Hour,Minute]
61,11,InteriorLights:Electricity [J] !RunPeriod [Value,Min,Month,Day,Hour,Minute,Max,Month,Day,Hour,Minute]
1046,11,ExteriorLights:Electricity [J] !RunPeriod [Value,Min,Month,Day,Hour,Minute,Max,Month,Day,Hour,Minute]
134,11,InteriorEquipment:Electricity [J] !RunPeriod [Value,Min,Month,Day,Hour,Minute,Max,Month,Day,Hour,Minute]
170,11,gas_dryer:InteriorEquipment:Electricity [J] !RunPeriod [Value,Min,Month,Day,Hour,Minute,Max,Month,Day,Hour,Minute]
207,11,clotheswasher:InteriorEquipment:Electricity [J] !RunPeriod [Value,Min,Month,Day,Hour,Minute,Max,Month,Day,Hour,Minute]
244,11,dishwasher:InteriorEquipment:Electricity [J] !RunPeriod [Value,Min,Month,Day,Hour,Minute,Max,Month,Day,Hour,Minute]
281,11,refrigerator:InteriorEquipment:Electricity [J] !RunPeriod [Value,Min,Month,Day,Hour,Minute,Max,Month,Day,Hour,Minute]
318,11,electric_mels:InteriorEquipment:Electricity [J] !RunPeriod [Value,Min,Month,Day,Hour,Minute,Max,Month,Day,Hour,Minute]
355,11,NaturalGas:Facility [J] !RunPeriod [Value,Min,Month,Day,Hour,Minute,Max,Month,Day,Hour,Minute]
403,11,InteriorEquipment:NaturalGas [J] !RunPeriod [Value,Min,Month,Day,Hour,Minute,Max,Month,Day,Hour,Minute]
476,11,gas_dryer:InteriorEquipment:NaturalGas [J] !RunPeriod [Value,Min,Month,Day,Hour,Minute,Max,Month,Day,Hour,Minute]
513,11,gas_mels:InteriorEquipment:NaturalGas [J] !RunPeriod [Value,Min,Month,Day,Hour,Minute,Max,Month,Day,Hour,Minute]
End of Data Dictionary
1,EXTREME_WINTER,  33.93,-118.40,  -8.00,  32.00
5,7
1038,0.0,0.0, 2,15, 1,15,0.0, 2,15, 1,15
1039,0.0,0.0, 2,15, 1,15,0.0, 2,15, 1,15
581,0.19332685707878433,0.08644752482677283, 2,17, 7, 7,0.6534593722215675, 2,16,16,48
582,3.436299954857882,0.0, 2,18, 2,15,13.07577720502293, 2,15,12,50
583,0.009459672497768069,0.00017282221926107627, 2,21, 9,51,0.04752667679247361, 2,16,17, 5
1115,25866257.036648903,0.0, 2,15, 1, 7,1555216.0008109037, 2,16, 6,60
1128,6869401.226736154,0.0, 2,15, 1, 7,422138.4853082969, 2,16, 6,60
1153,0.0,0.0, 2,15, 1, 7,0.0, 2,15, 1, 7
1154,15226952.738733668,0.0, 2,15, 1, 7,180000.0, 2,15, 1,45
1155,0.0,0.0, 2,15, 1, 7,0.0, 2,15, 1, 7
1156,0.0,0.0, 2,15, 1, 7,0.0, 2,15, 1, 7
1292,-23312486.520347018,-38515.55154645725, 2,15, 5,60,-3180.9700973486883, 2,21,10,45
1306,152128901.80457124,0.0, 2,15, 1, 7,4030192.1083817566, 2,16, 7,15
1307,23619135.069032915,0.0, 2,15, 1, 7,1729653.9509161967, 2,20,10,18
1308,152128901.80457124,0.0, 2,15, 1, 7,4030192.1083817566, 2,16, 7,15
13,637592987.0033039,151703.1275401932, 2,17, 4,15,5251730.0855223425, 2,16, 7,15
61,301924526.02383536,88139.10953165221, 2,15, 1,15,1282023.4113694867, 2,15,20,15
134,70666020.44019976,63564.01800854099, 2,15, 4,15,156554.22484006523, 2,20,20,15
170,5241013.419656067,348.4159749238097, 2,15, 4,15,17476.39704006126, 2,20,12,15
207,6509451.13922267,815.2532113832032, 2,15, 3,15,22990.642799023623, 2,20,10,15
244,12749673.399825225,1521.856143006317, 2,15, 4,15,53038.631142310165, 2,20,20,15
281,46165882.481495745,59938.60262432081, 2,15, 5,15,81951.81706819107, 2,15,19,15
318,0.0,0.0, 2,15, 1,15,0.0, 2,15, 1,15
355,197687796.27748066,18561.32405820678, 2,15, 4,15,724774.895203776, 2,20,18,15
403,197687796.27748066,18561.32405820678, 2,15, 4,15,724774.895203776, 2,20,18,15
476,106772067.24485716,7098.072629279515, 2,15, 4,15,356036.3026282215, 2,20,12,15
513,0.0,0.0, 2,15, 1,15,0.0, 2,15, 1,15
562,11491255.039685888,0.0, 2,15, 1,15,78653.95562200734, 2,16,17,15
1046,0.0,0.0, 2,15, 1,15,0.0, 2,15, 1,15
1096,79285929.72954272,0.0, 2,15, 1,15,598232.8458676055, 2,16,16,15
1134,22096353.965469822,0.0, 2,15, 1,15,628108.9884226833, 2,16, 6,15
1326,152128901.80457118,0.0, 2,15, 1,15,4050000.0, 2,15, 8,45
1379,0.0,0.0, 2,15, 1,15,0.0, 2,15, 1,15
1,EXTREME_SUMMER,  33.93,-118.40,  -8.00,  32.00
5,7
1038,0.0,0.0, 8,29, 1,15,0.0, 8,29, 1,15
1039,41.75,0.0, 8,29, 1,15,0.25, 8,30,13,45
581,0.11875044505112722,0.0, 8,29, 3, 7,0.480432117210835, 8,29,14,55
582,3.5522242860424393,0.03853047706710063, 8,30, 8,31,14.472436585140233, 8,31,14,48
583,0.02569648866031705,0.0, 9, 3, 6,11,0.0500061380267913, 8,31,14,48
1115,0.0,0.0, 8,29, 1,15,0.0, 8,29, 1,15
1128,0.0,0.0, 8,29, 1,15,0.0, 8,29, 1,15
1153,0.0,0.0, 8,29, 1,15,0.0, 8,29, 1,15
1154,0.0,0.0, 8,29, 1,15,0.0, 8,29, 1,15
1155,0.0,0.0, 8,29, 1,15,0.0, 8,29, 1,15
1156,0.0,0.0, 8,29, 1,15,0.0, 8,29, 1,15
1292,-21942718.097598962,-34346.71476884977, 8,30,11,15,-2650.954471886725, 9, 1,10,31
1306,135936963.7097511,0.0, 8,29, 1,15,3976917.863311923, 9, 4,20,60
1307,17689219.920962896,0.0, 8,29, 1,15,1137315.3725145436, 9, 3,10,18
1308,135936963.7097511,0.0, 8,29, 1,15,3976917.863311923, 9, 4,20,60
13,856904943.147735,151703.1275401932, 8,29, 4,15,6151402.668387493, 9, 4,20,60
61,301924526.02383536,88139.10953165221, 8,29, 1,15,1282023.4113694867, 8,29,20,15
134,70666020.44019976,63564.01800854099, 8,29, 4,15,156554.22484006523, 9, 3,20,15
170,5241013.419656067,348.4159749238097, 8,29, 4,15,17476.39704006126, 9, 3,12,15
207,6509451.13922267,815.2532113832032, 8,29, 3,15,22990.642799023623, 9, 3,10,15
244,12749673.399825225,1521.856143006317, 8,29, 4,15,53038.631142310165, 9, 3,20,15
281,46165882.481495745,59938.60262432081, 8,29, 5,15,81951.81706819107, 8,29,19,15
318,0.0,0.0, 8,29, 1,15,0.0, 8,29, 1,15
355,197687796.27748066,18561.32405820678, 8,29, 4,15,724774.895203776, 9, 3,18,15
403,197687796.27748066,18561.32405820678, 8,29, 4,15,724774.895203776, 9, 3,18,15
476,106772067.24485716,7098.072629279515, 8,29, 4,15,356036.3026282215, 9, 3,12,15
513,0.0,0.0, 8,29, 1,15,0.0, 8,29, 1,15
562,36597332.61305175,0.0, 8,29, 2,60,96578.66500138528, 8,29,16,15
1046,0.0,0.0, 8,29, 1,15,0.0, 8,29, 1,15
1096,311780100.3608976,0.0, 8,29, 2,60,904087.6355654319, 9, 3,12,60
1134,0.0,0.0, 8,29, 1,15,0.0, 8,29, 1,15
1326,135936963.7097511,0.0, 8,29, 1,15,4050000.0, 8,31, 9,45
1379,0.0,0.0, 8,29, 1,15,0.0, 8,29, 1,15
1,ANNUAL,  33.93,-118.40,  -8.00,  32.00
5,365
1038,0.0,0.0, 1, 1, 1,15,0.0, 1, 1, 1,15
1039,780.5,0.0, 1, 1, 1,15,0.25, 1, 5,14,45
581,0.1805808802449383,0.0, 5,18,23, 3,0.9558254718164202, 3,27,12,60
582,4.122447745068241,0.0, 1, 1, 1,60,32.33687984424633,11,10,12,52
583,0.019307424205045626,0.0, 5,18,23, 3,0.05539877115528366,10, 4,14,50
1115,108966568.42760916,0.0, 1, 1, 1,15,1501869.1720320827, 2,28, 6,45
1128,29067350.370300885,0.0, 1, 1, 1,15,404286.88658881735, 2,28, 6,45
1153,6096.974403950716,0.0, 1, 1, 1,15,6096.974403950716,12,19, 7,60
1154,117621874.87960847,0.0, 1, 1, 1,15,180000.0, 1, 4, 3,15
1155,0.0,0.0, 1, 1, 1,15,0.0, 1, 1, 1,15
1156,0.0,0.0, 1, 1, 1,15,0.0, 1, 1, 1,15
1292,-1166277740.0077806,-39494.1111154483, 2,16, 4,45,-2166.8178921009194, 4,14,12,59
1306,7512022352.87623,0.0, 1, 1, 1,15,4050000.0, 1, 1, 9,45
1307,1067532787.5358872,0.0, 1, 1, 1,15,6932571.455583215, 1,14,10,30
1308,7512022352.87623,0.0, 1, 1, 1,15,4050000.0, 1, 1, 9,45
13,38770366020.285225,151703.1275401932, 1, 2, 4,15,6380355.242935687,10, 8,20,60
61,15743207428.383959,88139.10953165221, 1, 1, 1,15,1282023.4113694867, 1, 1,20,15
134,3685071073.4325233,63564.01800854099, 1, 2, 4,15,156554.22484006523, 1, 1,20,15
170,273393721.45532674,348.4159749238097, 1, 2, 4,15,17476.39704006126, 1, 1,12,15
207,339560869.0695816,815.2532113832032, 1, 2, 3,15,22990.642799023623, 1, 1,10,15
244,664895467.8009144,1521.856143006317, 1, 2, 4,15,53038.631142310165, 1, 1,20,15
281,2407221015.106824,59938.60262432081, 1, 1, 5,15,81951.81706819107, 1, 1,19,15
318,0.0,0.0, 1, 1, 1,15,0.0, 1, 1, 1,15
355,10310294493.051695,18561.32405820678, 1, 2, 4,15,724774.895203776, 1, 1,18,15
403,10310294493.051695,18561.32405820678, 1, 2, 4,15,724774.895203776, 1, 1,18,15
476,5569688622.066177,7098.072629279515, 1, 2, 4,15,356036.3026282215, 1, 1,12,15
513,0.0,0.0, 1, 1, 1,15,0.0, 1, 1, 1,15
562,1308408604.5556881,0.0, 1, 1, 1,15,96578.66500138528, 1, 5,14,15
1046,0.0,0.0, 1, 1, 1,15,0.0, 1, 1, 1,15
1096,10374961238.81026,0.0, 1, 1, 1,15,1034570.7527385704,10,21,13,60
1134,146695322.2243133,0.0, 1, 1, 1,15,606912.7741329799, 2,28, 6,15
1326,7512022352.87625,0.0, 1, 1, 1,15,4050000.0000000014, 3,11,10,30
1379,0.0,0.0, 1, 1, 1,15,0.0, 1, 1, 1,15
End of Data
 Number of Records Written=          99
