Program Version,EnergyPlus, Version 22.2.0-c249759bad, YMD=2023.09.01 20:18
1,5,Environment Title[],Latitude[deg],Longitude[deg],Time Zone[],Elevation[m]
2,8,Day of Simulation[],Month[],Day of Month[],DST Indicator[1=yes 0=no],Hour[],StartMinute[],EndMinute[],DayType
3,5,Cumulative Day of Simulation[],Month[],Day of Month[],DST Indicator[1=yes 0=no],DayType  ! When Daily Report Variables Requested
4,2,Cumulative Days of Simulation[],Month[]  ! When Monthly Report Variables Requested
5,1,Cumulative Days of Simulation[] ! When Run Period Report Variables Requested
6,1,Calendar Year of Simulation[] ! When Annual Report Variables Requested
581,11,LIVING,AFN Zone Infiltration Air Change Rate [ach] !RunPeriod [Value,Min,Month,Day,Hour,Minute,Max,Month,Day,Hour,Minute]
582,11,ATTIC,AFN Zone Infiltration Air Change Rate [ach] !RunPeriod [Value,Min,Month,Day,Hour,Minute,Max,Month,Day,Hour,Minute]
583,11,CRAWLSPACE,AFN Zone Infiltration Air Change Rate [ach] !RunPeriod [Value,Min,Month,Day,Hour,Minute,Max,Month,Day,Hour,Minute]
1038,11,Facility,Facility Heating Setpoint Not Met Time [hr] !RunPeriod [Value,Min,Month,Day,Hour,Minute,Max,Month,Day,Hour,Minute]
1039,11,Facility,Facility Cooling Setpoint Not Met Time [hr] !RunPeriod [Value,Min,Month,Day,Hour,Minute,Max,Month,Day,Hour,Minute]
1115,11,DX_HEATING_COIL,Heating Coil Heating Energy [J] !RunPeriod [Value,Min,Month,Day,Hour,Minute,Max,Month,Day,Hour,Minute]
1128,11,DX_HEATING_COIL,Heating Coil Electricity Energy [J] !RunPeriod [Value,Min,Month,Day,Hour,Minute,Max,Month,Day,Hour,Minute]
1153,11,DX_HEATING_COIL,Heating Coil Defrost Electricity Energy [J] !RunPeriod [Value,Min,Month,Day,Hour,Minute,Max,Month,Day,Hour,Minute]
1154,11,DX_HEATING_COIL,Heating Coil Crankcase Heater Electricity Energy [J] !RunPeriod [Value,Min,Month,Day,Hour,Minute,Max,Month,Day,Hour,Minute]
1155,11,HEATING_RESISTANCE_BACKUP,Heating Coil Heating Energy [J] !RunPeriod [Value,Min,Month,Day,Hour,Minute,Max,Month,Day,Hour,Minute]
1156,11,HEATING_RESISTANCE_BACKUP,Heating Coil Electricity Energy [J] !RunPeriod [Value,Min,Month,Day,Hour,Minute,Max,Month,Day,Hour,Minute]
1292,11,WATER HEATER,Water Heater Heat Loss Energy [J] !RunPeriod [Value,Min,Month,Day,Hour,Minute,Max,Month,Day,Hour,Minute]
1306,11,WATER HEATER,Water Heater Heating Energy [J] !RunPeriod [Value,Min,Month,Day,Hour,Minute,Max,Month,Day,Hour,Minute]
1307,11,WATER HEATER,Water Heater Unmet Demand Heat Transfer Energy [J] !RunPeriod [Value,Min,Month,Day,Hour,Minute,Max,Month,Day,Hour,Minute]
1308,11,WATER HEATER,Water Heater Electricity Energy [J] !RunPeriod [Value,Min,Month,Day,Hour,Minute,Max,Month,Day,Hour,Minute]
13,11,Electricity:Facility [J] !RunPeriod [Value,Min,Month,Day,Hour,Minute,Max,Month,Day,Hour,Minute]
1134,11,Heating:Electricity [J] !RunPeriod [Value,Min,Month,Day,Hour,Minute,Max,Month,Day,Hour,Minute]
1096,11,Cooling:Electricity [J] !RunPeriod [Value,Min,Month,Day,Hour,Minute,Max,Month,Day,Hour,Minute]
562,11,Fans:Electricity [J] !RunPeriod [Value,Min,Month,Day,Hour,Minute,Max,Month,Day,Hour,Minute]
1379,11,Pumps:Electricity [J] !RunPeriod [Value,Min,Month,Day,Hour,Minute,Max,Month,Day,Hour,Minute]
1326,11,WaterSystems:Electricity [J] !RunPeriod [Value,Min,Month,Day,Hour,Minute,Max,Month,Day,Hour,Minute]
61,11,InteriorLights:Electricity [J] !RunPeriod [Value,Min,Month,Day,Hour,Minute,Max,Month,Day,Hour,Minute]
1046,11,ExteriorLights:Electricity [J] !RunPeriod [Value,Min,Month,Day,Hour,Minute,Max,Month,Day,Hour,Minute]
134,11,InteriorEquipment:Electricity [J] !RunPeriod [Value,Min,Month,Day,Hour,Minute,Max,Month,Day,Hour,Minute]
170,11,gas_dryer:InteriorEquipment:Electricity [J] !RunPeriod [Value,Min,Month,Day,Hour,Minute,Max,Month,Day,Hour,Minute]
207,11,clotheswasher:InteriorEquipment:Electricity [J] !RunPeriod [Value,Min,Month,Day,Hour,Minute,Max,Month,Day,Hour,Minute]
244,11,dishwasher:InteriorEquipment:Electricity [J] !RunPeriod [Value,Min,Month,Day,Hour,Minute,Max,Month,Day,Hour,Minute]
281,11,refrigerator:InteriorEquipment:Electricity [J] !RunPeriod [Value,Min,Month,Day,Hour,Minute,Max,Month,Day,Hour,Minute]
318,11,electric_mels:InteriorEquipment:Electricity [J] !RunPeriod [Value,Min,Month,Day,Hour,Minute,Max,Month,Day,Hour,Minute]
355,11,NaturalGas:Facility [J] !RunPeriod [Value,Min,Month,Day,Hour,Minute,Max,Month,Day,Hour,Minute]
403,11,InteriorEquipment:NaturalGas [J] !RunPeriod [Value,Min,Month,Day,Hour,Minute,Max,Month,Day,Hour,Minute]
476,11,gas_dryer:InteriorEquipment:NaturalGas [J] !RunPeriod [Value,Min,Month,Day,Hour,Minute,Max,Month,Day,Hour,Minute]
513,11,gas_mels:InteriorEquipment:NaturalGas [J] !RunPeriod [Value,Min,Month,Day,Hour,Minute,Max,Month,Day,Hour,Minute]
End of Data Dictionary
1,EXTREME_WINTER,  38.84, -99.27,  -6.00, 609.00
5,7
1038,0.5,0.0, 1, 6, 1,15,0.25, 1, 7, 6,15
1039,0.0,0.0, 1, 6, 1,15,0.0, 1, 6, 1,15
581,0.5426237763104693,0.20441796065995665, 1,11,17,60,1.1428419906871499, 1, 7, 3,60
582,6.547695095473557,0.0, 1, 6,19,52,18.144891502432515, 1, 8,19,52
583,0.060537638119110684,0.0003024301968817406, 1,11,16,60,0.10112232307420073, 1, 7, 3,60
1115,1861139521.6524587,0.0, 1, 6,15,35,4514901.561411037, 1,10, 2,60
1128,644516319.7676677,0.0, 1, 6,15,35,1438942.0964888402, 1, 8,22,60
1153,835080.365924034,0.0, 1, 6,15,35,22812.020613220448, 1, 6, 2,60
1154,36832596.39071176,0.0, 1, 6, 1, 7,180000.0, 1, 8,14,60
1155,708450105.1133443,0.0, 1, 6, 1,45,5675903.576176055, 1, 7, 7,60
1156,708450105.1133443,0.0, 1, 6, 1,45,5675903.576176055, 1, 7, 7,60
1292,-25354216.52467585,-39750.930478355236, 1, 7, 5,45,-3958.7051048826074, 1,11,18,31
1306,127602011.83497201,0.0, 1, 6, 1, 7,4050000.0, 1, 6, 7,15
1307,24855484.99209162,0.0, 1, 6, 1, 7,7386892.453591332, 1, 6, 6,60
1308,127602011.83497201,0.0, 1, 6, 1, 7,4050000.0, 1, 6, 7,15
13,1960225296.3972347,452017.0388981225, 1, 6,15,45,11078303.27094715, 1, 7, 7,30
61,301924526.02383536,88139.10953165221, 1, 6, 1,15,1282023.4113694867, 1, 6,20,15
134,70666020.44019976,63564.01800854099, 1, 6, 4,15,156554.22484006523, 1,11,20,15
170,5241013.419656067,348.4159749238097, 1, 6, 4,15,17476.39704006126, 1,11,12,15
207,6509451.13922267,815.2532113832032, 1, 6, 3,15,22990.642799023623, 1,11,10,15
244,12749673.399825225,1521.856143006317, 1, 6, 4,15,53038.631142310165, 1,11,20,15
281,46165882.481495745,59938.60262432081, 1, 6, 5,15,81951.81706819107, 1, 6,19,15
318,0.0,0.0, 1, 6, 1,15,0.0, 1, 6, 1,15
355,197687796.27748066,18561.32405820678, 1, 6, 4,15,724774.895203776, 1,11,18,15
403,197687796.27748066,18561.32405820678, 1, 6, 4,15,724774.895203776, 1,11,18,15
476,106772067.24485716,7098.072629279515, 1, 6, 4,15,356036.3026282215, 1,11,12,15
513,0.0,0.0, 1, 6, 1,15,0.0, 1, 6, 1,15
562,69398636.46058133,0.0, 1, 6,15,45,148504.03306415072, 1, 6, 6,15
1046,0.0,0.0, 1, 6, 1,15,0.0, 1, 6, 1,15
1096,0.0,0.0, 1, 6, 1,15,0.0, 1, 6, 1,15
1134,1390634101.6376472,180000.0, 1, 6,15,45,7101861.092033433, 1, 8, 6,15
1326,127602011.83497202,0.0, 1, 6, 1,15,4050000.0, 1, 6, 7,15
1379,0.0,0.0, 1, 6, 1,15,0.0, 1, 6, 1,15
1,EXTREME_SUMMER,  38.84, -99.27,  -6.00, 609.00
5,7
1038,0.0,0.0, 6,22, 1,15,0.0, 6,22, 1,15
1039,40.75,0.0, 6,22, 1,15,0.25, 6,22,14,60
581,0.3239400482434431,0.007673412282011055, 6,26, 2,15,0.968376629496795, 6,24,18,60
582,7.537926724316763,0.1616826153027093, 6,26, 3,37,25.072956603903965, 6,24,13,60
583,0.046425520535188856,0.0001165403830964449, 6,26, 4,52,0.09210253831352695, 6,24,18,60
1115,0.0,0.0, 6,22, 1,15,0.0, 6,22, 1,15
1128,0.0,0.0, 6,22, 1,15,0.0, 6,22, 1,15
1153,0.0,0.0, 6,22, 1,15,0.0, 6,22, 1,15
1154,0.0,0.0, 6,22, 1,15,0.0, 6,22, 1,15
1155,0.0,0.0, 6,22, 1,15,0.0, 6,22, 1,15
1156,0.0,0.0, 6,22, 1,15,0.0, 6,22, 1,15
1292,-21905557.16625837,-34347.54474135317, 6,22,22,60,-2765.326187175295, 6,27,16,47
1306,97982840.3569965,0.0, 6,22, 1,15,3796243.3813862116, 6,23, 7,15
1307,11947144.013288615,0.0, 6,22, 1,15,4479766.332691132, 6,22, 6,60
1308,97982840.3569965,0.0, 6,22, 1,15,3796243.3813862116, 6,23, 7,15
13,1117792833.8371418,152071.80019841267, 6,28, 4,15,5825979.925750069, 6,28,13,60
61,301924526.02383536,88139.10953165221, 6,22, 1,15,1282023.4113694867, 6,22,20,15
134,70666020.44019976,63564.01800854099, 6,22, 4,15,156554.22484006523, 6,27,20,15
170,5241013.419656067,348.4159749238097, 6,22, 4,15,17476.39704006126, 6,27,12,15
207,6509451.13922267,815.2532113832032, 6,22, 3,15,22990.642799023623, 6,27,10,15
244,12749673.399825225,1521.856143006317, 6,22, 4,15,53038.631142310165, 6,27,20,15
281,46165882.481495745,59938.60262432081, 6,22, 5,15,81951.81706819107, 6,22,19,15
318,0.0,0.0, 6,22, 1,15,0.0, 6,22, 1,15
355,197687796.27748066,18561.32405820678, 6,22, 4,15,724774.895203776, 6,27,18,15
403,197687796.27748066,18561.32405820678, 6,22, 4,15,724774.895203776, 6,27,18,15
476,106772067.24485716,7098.072629279515, 6,22, 4,15,356036.3026282215, 6,27,12,15
513,0.0,0.0, 6,22, 1,15,0.0, 6,22, 1,15
562,58306071.020433776,0.0, 6,26, 5,45,148504.03306415072, 6,22,19,60
1046,0.0,0.0, 6,22, 1,15,0.0, 6,22, 1,15
1096,588913375.9956774,0.0, 6,26, 5,45,1891384.5506560635, 6,27,14,60
1134,0.0,0.0, 6,22, 1,15,0.0, 6,22, 1,15
1326,97982840.3569965,0.0, 6,22, 1,15,4050000.0, 6,22, 7,15
1379,0.0,0.0, 6,22, 1,15,0.0, 6,22, 1,15
1,ANNUAL,  38.84, -99.27,  -6.00, 609.00
5,365
1038,15.0,0.0, 1, 1, 1,15,0.25, 1, 2, 6,15
1039,466.0,0.0, 1, 1, 1,15,0.25, 1,16,17,30
581,0.36190134270342844,0.0, 7,17, 6, 7,1.7733460564450565, 4,15,11,52
582,6.155690075847249,0.0, 1, 2,24,60,36.31274569862877, 3,16,13,48
583,0.03426432085137095,0.0, 7,17, 6, 7,0.12012552064628684, 4,15,11,52
1115,28984114831.28413,0.0, 1, 1,23, 5,5147826.954529178, 3, 6, 7,15
1128,9326163038.125374,0.0, 1, 1,23, 5,1496330.4923382257, 3, 6, 7,15
1153,279333320.9260705,0.0, 1, 1,23, 5,146660.46255070224, 3,26, 6,45
1154,1446230082.6078825,0.0, 1, 1, 1,15,180000.0, 1, 8,15,60
1155,5046554546.761432,0.0, 1, 1,13,20,6029445.319899114, 1, 4, 6,45
1156,5046554546.761432,0.0, 1, 1,13,20,6029445.319899114, 1, 4, 6,45
1292,-1227592886.858123,-40121.96650882797, 4,15, 6,15,-2473.3046873897547, 5, 8,19,19
1306,5873937953.214682,0.0, 1, 1, 1,15,4050000.0, 1, 2, 7,15
1307,932942347.4104595,0.0, 1, 1, 1,15,7692817.138549814, 2, 6, 6,60
1308,5873937953.214682,0.0, 1, 1, 1,15,4050000.0, 1, 2, 7,15
13,53327437808.25868,151703.1275401932, 3,16, 4,15,11162238.824788366, 1, 5, 8,30
61,15743207428.383959,88139.10953165221, 1, 1, 1,15,1282023.4113694867, 1, 1,20,15
134,3685071073.4325233,63564.01800854099, 1, 2, 4,15,156554.22484006523, 1, 1,20,15
170,273393721.45532674,348.4159749238097, 1, 2, 4,15,17476.39704006126, 1, 1,12,15
207,339560869.0695816,815.2532113832032, 1, 2, 3,15,22990.642799023623, 1, 1,10,15
244,664895467.8009144,1521.856143006317, 1, 2, 4,15,53038.631142310165, 1, 1,20,15
281,2407221015.106824,59938.60262432081, 1, 1, 5,15,81951.81706819107, 1, 1,19,15
318,0.0,0.0, 1, 1, 1,15,0.0, 1, 1, 1,15
355,10310294493.051695,18561.32405820678, 1, 2, 4,15,724774.895203776, 1, 1,18,15
403,10310294493.051695,18561.32405820678, 1, 2, 4,15,724774.895203776, 1, 1,18,15
476,5569688622.066177,7098.072629279515, 1, 2, 4,15,356036.3026282215, 1, 1,12,15
513,0.0,0.0, 1, 1, 1,15,0.0, 1, 1, 1,15
562,2079231084.388006,0.0, 1, 6,17,15,148504.03306415072, 1, 1, 6,15
1046,0.0,0.0, 1, 1, 1,15,0.0, 1, 1, 1,15
1096,9847709280.416843,0.0, 1, 1, 1,15,1890828.4365827309, 6,27,14,60
1134,16098280988.4207,0.0, 1,15,13,60,7371538.56089997, 1, 8, 6,15
1326,5873937953.214684,0.0, 1, 1, 1,15,4050000.0000000014, 4,12, 9,15
1379,0.0,0.0, 1, 1, 1,15,0.0, 1, 1, 1,15
End of Data
 Number of Records Written=          99
