Program Version,EnergyPlus, Version 22.2.0-c249759bad, YMD=2023.09.01 20:55
1,5,Environment Title[],Latitude[deg],Longitude[deg],Time Zone[],Elevation[m]
2,8,Day of Simulation[],Month[],Day of Month[],DST Indicator[1=yes 0=no],Hour[],StartMinute[],EndMinute[],DayType
3,5,Cumulative Day of Simulation[],Month[],Day of Month[],DST Indicator[1=yes 0=no],DayType  ! When Daily Report Variables Requested
4,2,Cumulative Days of Simulation[],Month[]  ! When Monthly Report Variables Requested
5,1,Cumulative Days of Simulation[] ! When Run Period Report Variables Requested
6,1,Calendar Year of Simulation[] ! When Annual Report Variables Requested
581,11,LIVING,AFN Zone Infiltration Air Change Rate [ach] !RunPeriod [Value,Min,Month,Day,Hour,Minute,Max,Month,Day,Hour,Minute]
582,11,ATTIC,AFN Zone Infiltration Air Change Rate [ach] !RunPeriod [Value,Min,Month,Day,Hour,Minute,Max,Month,Day,Hour,Minute]
583,11,CRAWLSPACE,AFN Zone Infiltration Air Change Rate [ach] !RunPeriod [Value,Min,Month,Day,Hour,Minute,Max,Month,Day,Hour,Minute]
1038,11,Facility,Facility Heating Setpoint Not Met Time [hr] !RunPeriod [Value,Min,Month,Day,Hour,Minute,Max,Month,Day,Hour,Minute]
1039,11,Facility,Facility Cooling Setpoint Not Met Time [hr] !RunPeriod [Value,Min,Month,Day,Hour,Minute,Max,Month,Day,Hour,Minute]
1115,11,DX_HEATING_COIL,Heating Coil Heating Energy [J] !RunPeriod [Value,Min,Month,Day,Hour,Minute,Max,Month,Day,Hour,Minute]
1128,11,DX_HEATING_COIL,Heating Coil Electricity Energy [J] !RunPeriod [Value,Min,Month,Day,Hour,Minute,Max,Month,Day,Hour,Minute]
1153,11,DX_HEATING_COIL,Heating Coil Defrost Electricity Energy [J] !RunPeriod [Value,Min,Month,Day,Hour,Minute,Max,Month,Day,Hour,Minute]
1154,11,DX_HEATING_COIL,Heating Coil Crankcase Heater Electricity Energy [J] !RunPeriod [Value,Min,Month,Day,Hour,Minute,Max,Month,Day,Hour,Minute]
1155,11,HEATING_RESISTANCE_BACKUP,Heating Coil Heating Energy [J] !RunPeriod [Value,Min,Month,Day,Hour,Minute,Max,Month,Day,Hour,Minute]
1156,11,HEATING_RESISTANCE_BACKUP,Heating Coil Electricity Energy [J] !RunPeriod [Value,Min,Month,Day,Hour,Minute,Max,Month,Day,Hour,Minute]
1292,11,WATER HEATER,Water Heater Heat Loss Energy [J] !RunPeriod [Value,Min,Month,Day,Hour,Minute,Max,Month,Day,Hour,Minute]
1306,11,WATER HEATER,Water Heater Heating Energy [J] !RunPeriod [Value,Min,Month,Day,Hour,Minute,Max,Month,Day,Hour,Minute]
1307,11,WATER HEATER,Water Heater Unmet Demand Heat Transfer Energy [J] !RunPeriod [Value,Min,Month,Day,Hour,Minute,Max,Month,Day,Hour,Minute]
1308,11,WATER HEATER,Water Heater Electricity Energy [J] !RunPeriod [Value,Min,Month,Day,Hour,Minute,Max,Month,Day,Hour,Minute]
13,11,Electricity:Facility [J] !RunPeriod [Value,Min,Month,Day,Hour,Minute,Max,Month,Day,Hour,Minute]
1134,11,Heating:Electricity [J] !RunPeriod [Value,Min,Month,Day,Hour,Minute,Max,Month,Day,Hour,Minute]
1096,11,Cooling:Electricity [J] !RunPeriod [Value,Min,Month,Day,Hour,Minute,Max,Month,Day,Hour,Minute]
562,11,Fans:Electricity [J] !RunPeriod [Value,Min,Month,Day,Hour,Minute,Max,Month,Day,Hour,Minute]
1379,11,Pumps:Electricity [J] !RunPeriod [Value,Min,Month,Day,Hour,Minute,Max,Month,Day,Hour,Minute]
1326,11,WaterSystems:Electricity [J] !RunPeriod [Value,Min,Month,Day,Hour,Minute,Max,Month,Day,Hour,Minute]
61,11,InteriorLights:Electricity [J] !RunPeriod [Value,Min,Month,Day,Hour,Minute,Max,Month,Day,Hour,Minute]
1046,11,ExteriorLights:Electricity [J] !RunPeriod [Value,Min,Month,Day,Hour,Minute,Max,Month,Day,Hour,Minute]
134,11,InteriorEquipment:Electricity [J] !RunPeriod [Value,Min,Month,Day,Hour,Minute,Max,Month,Day,Hour,Minute]
170,11,gas_dryer:InteriorEquipment:Electricity [J] !RunPeriod [Value,Min,Month,Day,Hour,Minute,Max,Month,Day,Hour,Minute]
207,11,clotheswasher:InteriorEquipment:Electricity [J] !RunPeriod [Value,Min,Month,Day,Hour,Minute,Max,Month,Day,Hour,Minute]
244,11,dishwasher:InteriorEquipment:Electricity [J] !RunPeriod [Value,Min,Month,Day,Hour,Minute,Max,Month,Day,Hour,Minute]
281,11,refrigerator:InteriorEquipment:Electricity [J] !RunPeriod [Value,Min,Month,Day,Hour,Minute,Max,Month,Day,Hour,Minute]
318,11,electric_mels:InteriorEquipment:Electricity [J] !RunPeriod [Value,Min,Month,Day,Hour,Minute,Max,Month,Day,Hour,Minute]
355,11,NaturalGas:Facility [J] !RunPeriod [Value,Min,Month,Day,Hour,Minute,Max,Month,Day,Hour,Minute]
403,11,InteriorEquipment:NaturalGas [J] !RunPeriod [Value,Min,Month,Day,Hour,Minute,Max,Month,Day,Hour,Minute]
476,11,gas_dryer:InteriorEquipment:NaturalGas [J] !RunPeriod [Value,Min,Month,Day,Hour,Minute,Max,Month,Day,Hour,Minute]
513,11,gas_mels:InteriorEquipment:NaturalGas [J] !RunPeriod [Value,Min,Month,Day,Hour,Minute,Max,Month,Day,Hour,Minute]
End of Data Dictionary
1,EXTREME_WINTER,  47.63,-117.53,  -8.00, 717.20
5,7
1038,1.0,0.0, 1, 1, 1,15,0.25, 1, 1, 6,15
1039,0.0,0.0, 1, 1, 1,15,0.0, 1, 1, 1,15
581,0.3749063729041813,0.21886425475968455, 1, 6,20,60,0.6581614929331091, 1, 7,21,60
582,1.6538667749177773,0.008136750447459202, 1, 3, 4,15,10.108676154338344, 1, 7,21,60
583,0.06660014910987125,0.0004266610858376407, 1, 3,23, 3,0.0861795993086856, 1, 1, 1,52
1115,2067207478.528781,0.0, 1, 1,23, 5,4091957.0291029504, 1, 4,16,15
1128,721136495.1065595,0.0, 1, 1,23, 5,1344072.5202942404, 1, 4,16,15
1153,36132331.732892595,0.0, 1, 1,23, 5,117377.70414334934, 1, 7, 6,45
1154,20386274.504085135,0.0, 1, 1, 1,15,128233.02872389901, 1, 6,23,45
1155,469062832.1121606,0.0, 1, 1,13,20,4171938.3160476163, 1, 1, 7,60
1156,469062832.1121606,0.0, 1, 1,13,20,4171938.3160476163, 1, 1, 7,60
1292,-25023792.674810957,-39763.08456353529, 1, 1, 1,15,-7077.273500080981, 1, 4, 9,45
1306,370713319.4137055,0.0, 1, 1, 1,15,4050000.0, 1, 1,21,45
1307,175479382.6911809,0.0, 1, 1, 1,15,17715448.532900367, 1, 5, 9,60
1308,370713319.4137055,0.0, 1, 1, 1,15,4050000.0, 1, 1,21,45
13,2072252511.4064486,943181.5434170585, 1, 7, 1,15,9443387.346569197, 1, 1, 9,45
61,301924526.02383536,88139.10953165221, 1, 1, 1,15,1282023.4113694867, 1, 1,20,15
134,70666020.44019976,63564.01800854099, 1, 1, 4,15,156554.22484006523, 1, 6,20,15
170,5241013.419656067,348.4159749238097, 1, 1, 4,15,17476.39704006126, 1, 6,12,15
207,6509451.13922267,815.2532113832032, 1, 1, 3,15,22990.642799023623, 1, 6,10,15
244,12749673.399825225,1521.856143006317, 1, 1, 4,15,53038.631142310165, 1, 6,20,15
281,46165882.481495745,59938.60262432081, 1, 1, 5,15,81951.81706819107, 1, 1,19,15
318,0.0,0.0, 1, 1, 1,15,0.0, 1, 1, 1,15
355,197687796.27748066,18561.32405820678, 1, 1, 4,15,724774.895203776, 1, 6,18,15
403,197687796.27748066,18561.32405820678, 1, 1, 4,15,724774.895203776, 1, 6,18,15
476,106772067.24485716,7098.072629279515, 1, 1, 4,15,356036.3026282215, 1, 6,12,15
513,0.0,0.0, 1, 1, 1,15,0.0, 1, 1, 1,15
562,82230712.07300903,12989.671822979817, 1, 6,23,15,147848.46796262427, 1, 1, 1,15
1046,0.0,0.0, 1, 1, 1,15,0.0, 1, 1, 1,15
1096,0.0,0.0, 1, 1, 1,15,0.0, 1, 1, 1,15
1134,1246717933.4556973,289298.8014916558, 1, 6,23,15,5836861.765576298, 1, 1, 6,15
1326,370713319.4137055,0.0, 1, 1, 1,15,4050000.0, 1, 1, 9,60
1379,0.0,0.0, 1, 1, 1,15,0.0, 1, 1, 1,15
1,EXTREME_SUMMER,  47.63,-117.53,  -8.00, 717.20
5,7
1038,0.0,0.0, 7,29, 1,15,0.0, 7,29, 1,15
1039,27.5,0.0, 7,29, 1,15,0.25, 7,30,15,45
581,0.14432930520553203,0.01268791576754633, 8, 3,23, 3,0.39139972665764317, 8, 2,19,48
582,3.3153391607339895,0.12437609214291497, 8, 4,21,37,10.031700857635787, 7,29,11,52
583,0.042047188298820204,0.00010767174039133995, 7,30, 6,11,0.07728862875508336, 8, 4, 6, 3
1115,0.0,0.0, 7,29, 1,15,0.0, 7,29, 1,15
1128,0.0,0.0, 7,29, 1,15,0.0, 7,29, 1,15
1153,0.0,0.0, 7,29, 1,15,0.0, 7,29, 1,15
1154,0.0,0.0, 7,29, 1,15,0.0, 7,29, 1,15
1155,0.0,0.0, 7,29, 1,15,0.0, 7,29, 1,15
1156,0.0,0.0, 7,29, 1,15,0.0, 7,29, 1,15
1292,-21854697.280243665,-34079.73219103287, 8, 2,21,45,-2188.331812909538, 8, 2,19,46
1306,293668557.94365096,0.0, 7,29, 1,15,3055121.6092529683, 7,31,16,30
1307,109934923.04111244,0.0, 7,29, 1,15,3827156.6977369403, 8, 1, 9,40
1308,293668557.94365096,0.0, 7,29, 1,15,3055121.6092529683, 7,31,16,30
13,1247552337.281962,200675.76084311836, 8, 3, 4,15,7058358.872212855, 8, 4,21,15
61,301924526.02383536,88139.10953165221, 7,29, 1,15,1282023.4113694867, 7,29,20,15
134,70666020.44019976,63564.01800854099, 7,29, 4,15,156554.22484006523, 8, 3,20,15
170,5241013.419656067,348.4159749238097, 7,29, 4,15,17476.39704006126, 8, 3,12,15
207,6509451.13922267,815.2532113832032, 7,29, 3,15,22990.642799023623, 8, 3,10,15
244,12749673.399825225,1521.856143006317, 7,29, 4,15,53038.631142310165, 8, 3,20,15
281,46165882.481495745,59938.60262432081, 7,29, 5,15,81951.81706819107, 7,29,19,15
318,0.0,0.0, 7,29, 1,15,0.0, 7,29, 1,15
355,197687796.27748066,18561.32405820678, 7,29, 4,15,724774.895203776, 8, 3,18,15
403,197687796.27748066,18561.32405820678, 7,29, 4,15,724774.895203776, 8, 3,18,15
476,106772067.24485716,7098.072629279515, 7,29, 4,15,356036.3026282215, 8, 3,12,15
513,0.0,0.0, 7,29, 1,15,0.0, 7,29, 1,15
562,56108804.78209243,5479.300479351999, 8, 3, 4,15,147848.46796262427, 7,30,14,60
1046,0.0,0.0, 7,29, 1,15,0.0, 7,29, 1,15
1096,525184428.0921826,43124.660165353685, 8, 3, 4,15,1580346.569272388, 8, 4,17,60
1134,0.0,0.0, 7,29, 1,15,0.0, 7,29, 1,15
1326,293668557.943651,0.0, 7,29, 1,15,4050000.0, 7,29, 8,30
1379,0.0,0.0, 7,29, 1,15,0.0, 7,29, 1,15
1,ANNUAL,  47.63,-117.53,  -8.00, 717.20
5,365
1038,22.75,0.0, 1, 1, 1,15,0.25, 1, 1, 6,15
1039,164.25,0.0, 1, 1, 1,15,0.25, 4,10,18,45
581,0.29156381518463637,0.0, 7,25,23, 3,1.0103807237663744, 3,16,22,60
582,3.9870655502659433,0.0, 1, 9, 1,15,32.285422699584345, 4, 9,16,50
583,0.02997479672029117,0.0, 8,11,23, 3,0.09098510451382241,12, 3, 9,60
1115,30995689942.561607,0.0, 1, 1,23, 5,4610971.987381517, 2,23, 2,45
1128,9964656946.040976,0.0, 1, 1,23, 5,1409430.835408371,12, 3,10,15
1153,556201419.729171,0.0, 1, 1,23, 5,141373.4750379818, 1,21,17,60
1154,2103774136.4407253,0.0, 1, 1, 1,15,180000.0, 1,17,15,60
1155,2827539920.7096243,0.0, 1, 1,13,20,4573725.792566412,12, 7, 1,60
1156,2827539920.7096243,0.0, 1, 1,13,20,4573725.792566412,12, 7, 1,60
1292,-1225976021.6343825,-41061.76806174135,12, 7, 7,60,-1220.7459063373324, 5,18, 9,46
1306,17573738695.255356,0.0, 1, 1, 1,15,4050000.0, 1, 1,21,15
1307,7643818784.111753,0.0, 1, 1, 1,15,18118788.047964286, 1,20, 9,60
1308,17573738695.255356,0.0, 1, 1, 1,15,4050000.0, 1, 1,21,15
13,61000732469.46381,151703.1275401932, 4,28, 4,15,10399727.27833671,12, 7, 9,60
61,15743207428.383959,88139.10953165221, 1, 1, 1,15,1282023.4113694867, 1, 1,20,15
134,3685071073.4325233,63564.01800854099, 1, 2, 4,15,156554.22484006523, 1, 1,20,15
170,273393721.45532674,348.4159749238097, 1, 2, 4,15,17476.39704006126, 1, 1,12,15
207,339560869.0695816,815.2532113832032, 1, 2, 3,15,22990.642799023623, 1, 1,10,15
244,664895467.8009144,1521.856143006317, 1, 2, 4,15,53038.631142310165, 1, 1,20,15
281,2407221015.106824,59938.60262432081, 1, 1, 5,15,81951.81706819107, 1, 1,19,15
318,0.0,0.0, 1, 1, 1,15,0.0, 1, 1, 1,15
355,10310294493.051695,18561.32405820678, 1, 2, 4,15,724774.895203776, 1, 1,18,15
403,10310294493.051695,18561.32405820678, 1, 2, 4,15,724774.895203776, 1, 1,18,15
476,5569688622.066177,7098.072629279515, 1, 2, 4,15,356036.3026282215, 1, 1,12,15
513,0.0,0.0, 1, 1, 1,15,0.0, 1, 1, 1,15
562,1896631108.2368317,0.0, 1,14,23,15,147848.46796262427, 1, 1, 1,15
1046,0.0,0.0, 1, 1, 1,15,0.0, 1, 1, 1,15
1096,6649911741.233027,0.0, 1, 1, 1,15,1643808.9702246217, 8,11,17,60
1134,15452172422.920542,0.0, 3, 2,12,60,5870786.119045902, 1,11, 6,30
1326,17573738695.25534,0.0, 1, 1, 1,15,4050000.0000000014, 5,10, 9,60
1379,0.0,0.0, 1, 1, 1,15,0.0, 1, 1, 1,15
End of Data
 Number of Records Written=          99
