Program Version,EnergyPlus, Version 22.2.0-c249759bad, YMD=2023.07.07 15:18
1,5,Environment Title[],Latitude[deg],Longitude[deg],Time Zone[],Elevation[m]
2,8,Day of Simulation[],Month[],Day of Month[],DST Indicator[1=yes 0=no],Hour[],StartMinute[],EndMinute[],DayType
3,5,Cumulative Day of Simulation[],Month[],Day of Month[],DST Indicator[1=yes 0=no],DayType  ! When Daily Report Variables Requested
4,2,Cumulative Days of Simulation[],Month[]  ! When Monthly Report Variables Requested
5,1,Cumulative Days of Simulation[] ! When Run Period Report Variables Requested
6,1,Calendar Year of Simulation[] ! When Annual Report Variables Requested
581,11,LIVING,AFN Zone Infiltration Air Change Rate [ach] !RunPeriod [Value,Min,Month,Day,Hour,Minute,Max,Month,Day,Hour,Minute]
582,11,ATTIC,AFN Zone Infiltration Air Change Rate [ach] !RunPeriod [Value,Min,Month,Day,Hour,Minute,Max,Month,Day,Hour,Minute]
583,11,CRAWLSPACE,AFN Zone Infiltration Air Change Rate [ach] !RunPeriod [Value,Min,Month,Day,Hour,Minute,Max,Month,Day,Hour,Minute]
1038,11,Facility,Facility Heating Setpoint Not Met Time [hr] !RunPeriod [Value,Min,Month,Day,Hour,Minute,Max,Month,Day,Hour,Minute]
1039,11,Facility,Facility Cooling Setpoint Not Met Time [hr] !RunPeriod [Value,Min,Month,Day,Hour,Minute,Max,Month,Day,Hour,Minute]
1115,11,DX_HEATING_COIL,Heating Coil Heating Energy [J] !RunPeriod [Value,Min,Month,Day,Hour,Minute,Max,Month,Day,Hour,Minute]
1128,11,DX_HEATING_COIL,Heating Coil Electricity Energy [J] !RunPeriod [Value,Min,Month,Day,Hour,Minute,Max,Month,Day,Hour,Minute]
1153,11,DX_HEATING_COIL,Heating Coil Defrost Electricity Energy [J] !RunPeriod [Value,Min,Month,Day,Hour,Minute,Max,Month,Day,Hour,Minute]
1154,11,DX_HEATING_COIL,Heating Coil Crankcase Heater Electricity Energy [J] !RunPeriod [Value,Min,Month,Day,Hour,Minute,Max,Month,Day,Hour,Minute]
1156,11,HEATING_RESISTANCE_BACKUP,Heating Coil Electricity Energy [J] !RunPeriod [Value,Min,Month,Day,Hour,Minute,Max,Month,Day,Hour,Minute]
13,11,Electricity:Facility [J] !RunPeriod [Value,Min,Month,Day,Hour,Minute,Max,Month,Day,Hour,Minute]
1134,11,Heating:Electricity [J] !RunPeriod [Value,Min,Month,Day,Hour,Minute,Max,Month,Day,Hour,Minute]
1096,11,Cooling:Electricity [J] !RunPeriod [Value,Min,Month,Day,Hour,Minute,Max,Month,Day,Hour,Minute]
562,11,Fans:Electricity [J] !RunPeriod [Value,Min,Month,Day,Hour,Minute,Max,Month,Day,Hour,Minute]
1388,11,Pumps:Electricity [J] !RunPeriod [Value,Min,Month,Day,Hour,Minute,Max,Month,Day,Hour,Minute]
1360,11,WaterSystems:Electricity [J] !RunPeriod [Value,Min,Month,Day,Hour,Minute,Max,Month,Day,Hour,Minute]
61,11,InteriorLights:Electricity [J] !RunPeriod [Value,Min,Month,Day,Hour,Minute,Max,Month,Day,Hour,Minute]
1046,11,ExteriorLights:Electricity [J] !RunPeriod [Value,Min,Month,Day,Hour,Minute,Max,Month,Day,Hour,Minute]
134,11,InteriorEquipment:Electricity [J] !RunPeriod [Value,Min,Month,Day,Hour,Minute,Max,Month,Day,Hour,Minute]
170,11,gas_dryer:InteriorEquipment:Electricity [J] !RunPeriod [Value,Min,Month,Day,Hour,Minute,Max,Month,Day,Hour,Minute]
207,11,clotheswasher:InteriorEquipment:Electricity [J] !RunPeriod [Value,Min,Month,Day,Hour,Minute,Max,Month,Day,Hour,Minute]
244,11,dishwasher:InteriorEquipment:Electricity [J] !RunPeriod [Value,Min,Month,Day,Hour,Minute,Max,Month,Day,Hour,Minute]
281,11,refrigerator:InteriorEquipment:Electricity [J] !RunPeriod [Value,Min,Month,Day,Hour,Minute,Max,Month,Day,Hour,Minute]
318,11,electric_mels:InteriorEquipment:Electricity [J] !RunPeriod [Value,Min,Month,Day,Hour,Minute,Max,Month,Day,Hour,Minute]
355,11,NaturalGas:Facility [J] !RunPeriod [Value,Min,Month,Day,Hour,Minute,Max,Month,Day,Hour,Minute]
1323,11,WaterSystems:NaturalGas [J] !RunPeriod [Value,Min,Month,Day,Hour,Minute,Max,Month,Day,Hour,Minute]
403,11,InteriorEquipment:NaturalGas [J] !RunPeriod [Value,Min,Month,Day,Hour,Minute,Max,Month,Day,Hour,Minute]
476,11,gas_dryer:InteriorEquipment:NaturalGas [J] !RunPeriod [Value,Min,Month,Day,Hour,Minute,Max,Month,Day,Hour,Minute]
513,11,gas_mels:InteriorEquipment:NaturalGas [J] !RunPeriod [Value,Min,Month,Day,Hour,Minute,Max,Month,Day,Hour,Minute]
End of Data Dictionary
1,EXTREME_WINTER,  46.77,-100.76,  -6.00, 503.20
5,7
1038,11.666666666666664,0.0, 1,29, 1,10,0.16666666666666666, 1,30, 6,10
1039,0.0,0.0, 1,29, 1,10,0.0, 1,29, 1,10
581,0.40911584990410993,0.2106280308202789, 2, 4,19,19,0.9266751795625807, 2, 2,14,55
582,5.350527127485891,0.0, 1,29, 4,55,20.599405641270206, 2, 2,14,55
583,6.9911889402997565,0.46174728110011465, 1,31,23, 2,26.16410330854664, 2, 2,14,55
1115,2065028659.3478417,0.0, 1,29,23, 3,3014075.708210518, 2, 2,14,10
1128,748111653.1385497,0.0, 1,29,23, 3,836960.6896119146, 2, 2,14,10
1153,16340630.972173922,0.0, 1,29,23, 3,54752.74028230831, 2, 4,15,60
1154,3214723.8901220434,0.0, 1,29, 1, 1,88736.00540269587, 2, 4,18,30
1156,2440024799.455353,0.0, 1,29, 6, 5,6251249.522322632, 1,31, 3,10
13,3676214250.3559484,697048.2219227776, 2, 4,23,10,7445063.820739628, 1,31, 7,10
61,301924526.0238348,58759.40635443481, 1,29, 1,10,854682.2742463244, 1,29,20,10
134,70666020.44019979,42376.01200569399, 1,29, 4,10,104369.48322671017, 2, 3,20,10
170,5241013.419656074,232.27731661587313, 1,29, 4,10,11650.931360040839, 2, 3,12,10
207,6509451.13922266,543.5021409221355, 1,29, 3,10,15327.095199349082, 2, 3,10,10
244,12749673.39982522,1014.5707620042115, 1,29, 4,10,35359.08742820678, 2, 3,20,10
281,46165882.48149605,39959.06841621388, 1,29, 5,10,54634.54471212738, 1,29,19,10
318,0.0,0.0, 1,29, 1,10,0.0, 1,29, 1,10
355,744576108.2460774,12374.216038804521, 1,29, 4,10,3829218.154066982, 2, 2,18,20
403,197687796.27748126,12374.216038804521, 1,29, 4,10,483183.26346918393, 2, 3,18,10
476,106772067.24485692,4732.048419519677, 1,29, 4,10,237357.535085481, 2, 3,12,10
513,0.0,0.0, 1,29, 1,10,0.0, 1,29, 1,10
562,90912056.43571307,15004.020512813006, 2, 4,23,10,92670.59922445331, 1,29, 1,10
1046,0.0,0.0, 1,29, 1,10,0.0, 1,29, 1,10
1096,0.0,0.0, 1,29, 1,10,0.0, 1,29, 1,10
1134,3207691807.4562,242716.005548165, 2, 4,23,10,6938617.330538825, 1,31,13,20
1323,546888311.9685935,0.0, 1,29, 1,10,3375000.000000001, 1,31,10,30
1360,5019840.0,4979.999999999998, 1,29, 1,20,4980.000000000001, 1,29, 1,10
1388,0.0,0.0, 1,29, 1,10,0.0, 1,29, 1,10
1,EXTREME_SUMMER,  46.77,-100.76,  -6.00, 503.20
5,7
1038,0.0,0.0, 7,22, 1,10,0.0, 7,22, 1,10
1039,42.166666666666664,0.0, 7,22, 1,10,0.16666666666666666, 7,22,14,30
581,0.2725726788922191,0.008579770191737363, 7,24,24,60,1.0630278123284391, 7,28,16,60
582,7.358477150895418,0.0319390972938768, 7,25, 4,45,43.39411700101122, 7,28,16,60
583,8.157632549446394,0.034547009944873516, 7,25, 4,60,34.85285853143952, 7,28,16,60
1115,0.0,0.0, 7,22, 1,10,0.0, 7,22, 1,10
1128,0.0,0.0, 7,22, 1,10,0.0, 7,22, 1,10
1153,0.0,0.0, 7,22, 1,10,0.0, 7,22, 1,10
1154,0.0,0.0, 7,22, 1,10,0.0, 7,22, 1,10
1156,0.0,0.0, 7,22, 1,10,0.0, 7,22, 1,10
13,898719964.9619612,111148.15758130253, 7,28, 4,60,1926746.4379956806, 7,27,20,10
61,301924526.0238348,58759.40635443481, 7,22, 1,10,854682.2742463244, 7,22,20,10
134,70666020.44019979,42376.01200569399, 7,22, 4,10,104369.48322671017, 7,27,20,10
170,5241013.419656074,232.27731661587313, 7,22, 4,10,11650.931360040839, 7,27,12,10
207,6509451.13922266,543.5021409221355, 7,22, 3,10,15327.095199349082, 7,27,10,10
244,12749673.39982522,1014.5707620042115, 7,22, 4,10,35359.08742820678, 7,27,20,10
281,46165882.48149605,39959.06841621388, 7,22, 5,10,54634.54471212738, 7,22,19,10
318,0.0,0.0, 7,22, 1,10,0.0, 7,22, 1,10
355,635384314.9520335,12374.216038804521, 7,22, 4,10,3829218.154066982, 7,23,18,60
403,197687796.27748126,12374.216038804521, 7,22, 4,10,483183.26346918393, 7,27,18,10
476,106772067.24485692,4732.048419519677, 7,22, 4,10,237357.535085481, 7,27,12,10
513,0.0,0.0, 7,22, 1,10,0.0, 7,22, 1,10
562,51336372.65281438,0.0, 7,22, 6,20,92670.5992244533, 7,23,19,20
1046,0.0,0.0, 7,22, 1,10,0.0, 7,22, 1,10
1096,469773205.8451122,0.0, 7,22, 6,20,986752.8926509357, 7,23,15,60
1134,0.0,0.0, 7,22, 1,10,0.0, 7,22, 1,10
1323,437696518.6745506,0.0, 7,22, 1,10,3375000.0000000005, 7,22,17,10
1360,5019840.0,4979.999999999999, 7,26, 9,50,4980.000000000002, 7,23, 9,60
1388,0.0,0.0, 7,22, 1,10,0.0, 7,22, 1,10
1,ANNUAL,  46.77,-100.76,  -6.00, 503.20
5,365
1038,33.33333333333336,0.0, 1, 1, 1,10,0.16666666666666666, 1,10, 6,10
1039,255.99999999999997,0.0, 1, 1, 1,10,0.16666666666666666, 6, 1,14,10
581,0.28560617302393265,0.0, 7, 2,21,45,1.2682558954120897, 3,30,11,60
582,4.865452804737497,0.0, 1, 4, 3,59,43.37866998608032, 7,28,16,60
583,5.7079074447385,0.0, 7,13,23, 2,36.186274466047266,10,27, 8,30
1115,45064036294.94294,0.0, 1, 1,23, 2,3224778.794191427,10,27,10,40
1128,14799612560.805231,0.0, 1, 1,23, 2,903632.8375316215,10,27,10,40
1153,491956210.4141692,0.0, 1, 1,23, 2,81977.04624146987,10,13, 6,30
1154,1410968810.349626,0.0, 1, 1, 1,30,120000.0, 1, 3,17,10
1156,22769800699.562885,0.0, 1, 1, 1, 1,6251249.522322632, 1,21, 6,10
13,68023078360.65274,106115.41836012878, 9,18, 4,20,7533180.9347125, 1,24, 7,60
61,15743207428.39043,58759.40635443481, 1, 1, 1,10,854682.2742463244, 1, 1,20,10
134,3685071073.433083,42376.01200569399, 1, 2, 4,10,104369.48322671017, 1, 1,20,10
170,273393721.45534325,232.27731661587313, 1, 2, 4,10,11650.931360040839, 1, 1,12,10
207,339560869.06955314,543.5021409221355, 1, 2, 3,10,15327.095199349082, 1, 1,10,10
244,664895467.8009839,1014.5707620042115, 1, 2, 4,10,35359.08742820678, 1, 1,20,10
281,2407221015.1057043,39959.06841621388, 1, 1, 5,10,54634.54471212738, 1, 1,19,10
318,0.0,0.0, 1, 1, 1,10,0.0, 1, 1, 1,10
355,35789286207.31976,12374.216038804521, 1, 2, 4,10,3829218.154066983, 4,18,18,60
403,10310294493.052883,12374.216038804521, 1, 2, 4,10,483183.26346918393, 1, 1,18,10
476,5569688622.065564,4732.048419519677, 1, 2, 4,10,237357.535085481, 1, 1,12,10
513,0.0,0.0, 1, 1, 1,10,0.0, 1, 1, 1,10
562,2468636230.636241,0.0, 1, 3,17,10,92670.59922445331, 8,15,18,30
1046,0.0,0.0, 1, 1, 1,10,0.0, 1, 1, 1,10
1096,6392076547.068379,0.0, 1, 1, 1,10,1008154.9655619736, 9, 1,16,60
1134,39472338281.13187,0.0, 3, 2,13,60,6997691.994650157, 1,12, 6,10
1323,25478991714.270912,0.0, 1, 1, 1,10,3375000.000000002, 5,30,20,20
1360,261748800.0,4979.999999999998, 5,13, 8,30,4980.000000000002, 3,25,22,30
1388,0.0,0.0, 1, 1, 1,10,0.0, 1, 1, 1,10
End of Data
 Number of Records Written=          87
