Program Version,EnergyPlus, Version 22.2.0-c249759bad, YMD=2023.07.07 15:18
1,5,Environment Title[],Latitude[deg],Longitude[deg],Time Zone[],Elevation[m]
2,8,Day of Simulation[],Month[],Day of Month[],DST Indicator[1=yes 0=no],Hour[],StartMinute[],EndMinute[],DayType
3,5,Cumulative Day of Simulation[],Month[],Day of Month[],DST Indicator[1=yes 0=no],DayType  ! When Daily Report Variables Requested
4,2,Cumulative Days of Simulation[],Month[]  ! When Monthly Report Variables Requested
5,1,Cumulative Days of Simulation[] ! When Run Period Report Variables Requested
6,1,Calendar Year of Simulation[] ! When Annual Report Variables Requested
581,11,LIVING,AFN Zone Infiltration Air Change Rate [ach] !RunPeriod [Value,Min,Month,Day,Hour,Minute,Max,Month,Day,Hour,Minute]
582,11,ATTIC,AFN Zone Infiltration Air Change Rate [ach] !RunPeriod [Value,Min,Month,Day,Hour,Minute,Max,Month,Day,Hour,Minute]
583,11,CRAWLSPACE,AFN Zone Infiltration Air Change Rate [ach] !RunPeriod [Value,Min,Month,Day,Hour,Minute,Max,Month,Day,Hour,Minute]
1038,11,Facility,Facility Heating Setpoint Not Met Time [hr] !RunPeriod [Value,Min,Month,Day,Hour,Minute,Max,Month,Day,Hour,Minute]
1039,11,Facility,Facility Cooling Setpoint Not Met Time [hr] !RunPeriod [Value,Min,Month,Day,Hour,Minute,Max,Month,Day,Hour,Minute]
1115,11,DX_HEATING_COIL,Heating Coil Heating Energy [J] !RunPeriod [Value,Min,Month,Day,Hour,Minute,Max,Month,Day,Hour,Minute]
1128,11,DX_HEATING_COIL,Heating Coil Electricity Energy [J] !RunPeriod [Value,Min,Month,Day,Hour,Minute,Max,Month,Day,Hour,Minute]
1153,11,DX_HEATING_COIL,Heating Coil Defrost Electricity Energy [J] !RunPeriod [Value,Min,Month,Day,Hour,Minute,Max,Month,Day,Hour,Minute]
1154,11,DX_HEATING_COIL,Heating Coil Crankcase Heater Electricity Energy [J] !RunPeriod [Value,Min,Month,Day,Hour,Minute,Max,Month,Day,Hour,Minute]
1156,11,HEATING_RESISTANCE_BACKUP,Heating Coil Electricity Energy [J] !RunPeriod [Value,Min,Month,Day,Hour,Minute,Max,Month,Day,Hour,Minute]
13,11,Electricity:Facility [J] !RunPeriod [Value,Min,Month,Day,Hour,Minute,Max,Month,Day,Hour,Minute]
1134,11,Heating:Electricity [J] !RunPeriod [Value,Min,Month,Day,Hour,Minute,Max,Month,Day,Hour,Minute]
1096,11,Cooling:Electricity [J] !RunPeriod [Value,Min,Month,Day,Hour,Minute,Max,Month,Day,Hour,Minute]
562,11,Fans:Electricity [J] !RunPeriod [Value,Min,Month,Day,Hour,Minute,Max,Month,Day,Hour,Minute]
1388,11,Pumps:Electricity [J] !RunPeriod [Value,Min,Month,Day,Hour,Minute,Max,Month,Day,Hour,Minute]
1360,11,WaterSystems:Electricity [J] !RunPeriod [Value,Min,Month,Day,Hour,Minute,Max,Month,Day,Hour,Minute]
61,11,InteriorLights:Electricity [J] !RunPeriod [Value,Min,Month,Day,Hour,Minute,Max,Month,Day,Hour,Minute]
1046,11,ExteriorLights:Electricity [J] !RunPeriod [Value,Min,Month,Day,Hour,Minute,Max,Month,Day,Hour,Minute]
134,11,InteriorEquipment:Electricity [J] !RunPeriod [Value,Min,Month,Day,Hour,Minute,Max,Month,Day,Hour,Minute]
170,11,gas_dryer:InteriorEquipment:Electricity [J] !RunPeriod [Value,Min,Month,Day,Hour,Minute,Max,Month,Day,Hour,Minute]
207,11,clotheswasher:InteriorEquipment:Electricity [J] !RunPeriod [Value,Min,Month,Day,Hour,Minute,Max,Month,Day,Hour,Minute]
244,11,dishwasher:InteriorEquipment:Electricity [J] !RunPeriod [Value,Min,Month,Day,Hour,Minute,Max,Month,Day,Hour,Minute]
281,11,refrigerator:InteriorEquipment:Electricity [J] !RunPeriod [Value,Min,Month,Day,Hour,Minute,Max,Month,Day,Hour,Minute]
318,11,electric_mels:InteriorEquipment:Electricity [J] !RunPeriod [Value,Min,Month,Day,Hour,Minute,Max,Month,Day,Hour,Minute]
355,11,NaturalGas:Facility [J] !RunPeriod [Value,Min,Month,Day,Hour,Minute,Max,Month,Day,Hour,Minute]
1323,11,WaterSystems:NaturalGas [J] !RunPeriod [Value,Min,Month,Day,Hour,Minute,Max,Month,Day,Hour,Minute]
403,11,InteriorEquipment:NaturalGas [J] !RunPeriod [Value,Min,Month,Day,Hour,Minute,Max,Month,Day,Hour,Minute]
476,11,gas_dryer:InteriorEquipment:NaturalGas [J] !RunPeriod [Value,Min,Month,Day,Hour,Minute,Max,Month,Day,Hour,Minute]
513,11,gas_mels:InteriorEquipment:NaturalGas [J] !RunPeriod [Value,Min,Month,Day,Hour,Minute,Max,Month,Day,Hour,Minute]
End of Data Dictionary
1,EXTREME_WINTER,  35.87, -78.78,  -5.00, 126.80
5,7
1038,0.3333333333333333,0.0, 1,20, 1,10,0.16666666666666666, 1,23, 6,10
1039,0.0,0.0, 1,20, 1,10,0.0, 1,20, 1,10
581,0.22793033913092042,0.15157750679951063, 1,23, 1,20,0.4592243494322817, 1,25,22,60
582,2.1125037568149927,0.0, 1,20, 1,10,8.364013606222384, 1,25,22,60
583,2.4937078256048437,0.00016365274929595178, 1,22,24,10,11.394860123781042, 1,25,22,60
1115,663533586.3952482,0.0, 1,20, 1,10,2569141.211009956, 1,26, 8,10
1128,208174185.5196216,0.0, 1,20, 1,10,846504.2542261597, 1,26, 8,40
1153,9504483.91611899,0.0, 1,20, 1,10,60759.604395594746, 1,22, 6,30
1154,90665200.1996562,0.0, 1,20, 6, 2,120000.0, 1,20, 1,10
1156,9199425.426912492,0.0, 1,20, 1,10,802985.1162549346, 1,26, 6,15
13,721235957.9883661,230316.09050215792, 1,20, 2,10,2545220.711984505, 1,26, 6,10
61,301924526.0238348,58759.40635443481, 1,20, 1,10,854682.2742463244, 1,20,20,10
134,70666020.44019979,42376.01200569399, 1,20, 4,10,104369.48322671017, 1,25,20,10
170,5241013.419656074,232.27731661587313, 1,20, 4,10,11650.931360040839, 1,25,12,10
207,6509451.13922266,543.5021409221355, 1,20, 3,10,15327.095199349082, 1,25,10,10
244,12749673.39982522,1014.5707620042115, 1,20, 4,10,35359.08742820678, 1,25,20,10
281,46165882.48149605,39959.06841621388, 1,20, 5,10,54634.54471212738, 1,20,19,10
318,0.0,0.0, 1,20, 1,10,0.0, 1,20, 1,10
355,745178090.4588948,12374.216038804521, 1,20, 4,10,3829218.154066982, 1,24,18,20
403,197687796.27748126,12374.216038804521, 1,20, 4,10,483183.26346918393, 1,25,18,10
476,106772067.24485692,4732.048419519677, 1,20, 4,10,237357.535085481, 1,25,12,10
513,0.0,0.0, 1,20, 1,10,0.0, 1,20, 1,10
562,22938783.509559274,0.0, 1,20, 1,10,91319.03127476438, 1,23, 6,10
1046,0.0,0.0, 1,20, 1,10,0.0, 1,20, 1,10
1096,3143492.9524644664,0.0, 1,20, 1,10,123632.74956520832, 1,20,17,30
1134,317543295.0623093,93910.27525752904, 1,20,17,30,2035604.3613333667, 1,26, 6,10
1323,547490294.1814108,0.0, 1,20, 1,10,3375000.0000000005, 1,20,16,50
1360,5019840.0,4979.999999999999, 1,23, 9,40,4980.000000000002, 1,24,10,30
1388,0.0,0.0, 1,20, 1,10,0.0, 1,20, 1,10
1,EXTREME_SUMMER,  35.87, -78.78,  -5.00, 126.80
5,7
1038,0.0,0.0, 8,17, 1,10,0.0, 8,17, 1,10
1039,69.66666666666664,0.0, 8,17, 1,10,0.16666666666666666, 8,17,12,20
581,0.06338756213077919,0.0, 8,17, 1,40,0.3362282119728499, 8,22,22,60
582,2.3543533954507447,0.0, 8,19,21,50,8.12335522581087, 8,22,22,60
583,2.8489122674556793,0.0, 8,17, 6, 7,11.245142862672175, 8,22,22,60
1115,0.0,0.0, 8,17, 1,10,0.0, 8,17, 1,10
1128,0.0,0.0, 8,17, 1,10,0.0, 8,17, 1,10
1153,0.0,0.0, 8,17, 1,10,0.0, 8,17, 1,10
1154,0.0,0.0, 8,17, 1,10,0.0, 8,17, 1,10
1156,0.0,0.0, 8,17, 1,10,0.0, 8,17, 1,10
13,1071526028.1737993,226957.5559674073, 8,20, 4,60,1979682.8390718922, 8,18,20,30
61,301924526.0238348,58759.40635443481, 8,17, 1,10,854682.2742463244, 8,17,20,10
134,70666020.44019979,42376.01200569399, 8,17, 4,10,104369.48322671017, 8,22,20,10
170,5241013.419656074,232.27731661587313, 8,17, 4,10,11650.931360040839, 8,22,12,10
207,6509451.13922266,543.5021409221355, 8,17, 3,10,15327.095199349082, 8,22,10,10
244,12749673.39982522,1014.5707620042115, 8,17, 4,10,35359.08742820678, 8,22,20,10
281,46165882.48149605,39959.06841621388, 8,17, 5,10,54634.54471212738, 8,17,19,10
318,0.0,0.0, 8,17, 1,10,0.0, 8,17, 1,10
355,621514546.6054347,12374.216038804521, 8,17, 4,10,3829218.154066982, 8,18,18,60
403,197687796.27748126,12374.216038804521, 8,17, 4,10,483183.26346918393, 8,22,18,10
476,106772067.24485692,4732.048419519677, 8,17, 4,10,237357.535085481, 8,22,12,10
513,0.0,0.0, 8,17, 1,10,0.0, 8,17, 1,10
562,65063349.34912738,12485.97450151698, 8,20, 5,60,91319.03127476439, 8,17,12,20
1046,0.0,0.0, 8,17, 1,10,0.0, 8,17, 1,10
1096,628852292.3606396,104905.60963259201, 8,20, 5,60,1010183.7351053071, 8,18,15,60
1134,0.0,0.0, 8,17, 1,10,0.0, 8,17, 1,10
1323,423826750.32795274,0.0, 8,17, 1,10,3375000.0000000005, 8,22,21,50
1360,5019840.0,4980.0, 8,17, 1,10,4980.000000000001, 8,17, 7,60
1388,0.0,0.0, 8,17, 1,10,0.0, 8,17, 1,10
1,ANNUAL,  35.87, -78.78,  -5.00, 126.80
5,365
1038,3.9999999999999987,0.0, 1, 1, 1,10,0.16666666666666666, 1,11, 6,10
1039,927.166666666666,0.0, 1, 1, 1,10,0.16666666666666666, 2, 7,14,10
581,0.16544640047400871,0.0, 5,20,20,23,1.1314881288544736,11,16,11,60
582,2.875083301108836,0.0, 1, 2, 7,55,26.973442247818973,11,16,11,60
583,3.494337333970311,0.0, 5,29,23, 2,33.99334298674726,11,16,11,60
1115,5855690958.200748,0.0, 1, 1, 1, 3,2833328.9630265646, 1,31, 6,30
1128,1797802508.331645,0.0, 1, 1, 1, 3,873834.4029572373, 1,30, 7,10
1153,74001871.8059237,0.0, 1, 1, 1, 3,75917.50995364245, 1,19, 6,40
1154,1339044434.0018256,0.0, 1, 1, 1, 3,120000.0, 1, 1,24,40
1156,106162174.5391414,0.0, 1, 1, 1, 3,1468822.5759773136, 1,29, 6,40
13,38635550107.42738,106115.4183601288, 1, 5, 4,10,3409857.999573095, 1,29, 6,10
61,15743207428.39043,58759.40635443481, 1, 1, 1,10,854682.2742463244, 1, 1,20,10
134,3685071073.433083,42376.01200569399, 1, 2, 4,10,104369.48322671017, 1, 1,20,10
170,273393721.45534325,232.27731661587313, 1, 2, 4,10,11650.931360040839, 1, 1,12,10
207,339560869.06955314,543.5021409221355, 1, 2, 3,10,15327.095199349082, 1, 1,10,10
244,664895467.8009839,1014.5707620042115, 1, 2, 4,10,35359.08742820678, 1, 1,20,10
281,2407221015.1057043,39959.06841621388, 1, 1, 5,10,54634.54471212738, 1, 1,19,10
318,0.0,0.0, 1, 1, 1,10,0.0, 1, 1, 1,10
355,35651877896.24524,12374.216038804521, 1, 2, 4,20,3829218.154066983,11, 7,18,60
403,10310294493.052883,12374.216038804521, 1, 2, 4,10,483183.26346918393, 1, 1,18,10
476,5569688622.065564,4732.048419519677, 1, 2, 4,10,237357.535085481, 1, 1,12,10
513,0.0,0.0, 1, 1, 1,10,0.0, 1, 1, 1,10
562,1762838920.7368205,0.0, 1, 1, 1,10,91319.0312747644, 7,19,13,60
1046,0.0,0.0, 1, 1, 1,10,0.0, 1, 1, 1,10
1096,13865672896.194714,0.0, 1, 1, 1,10,1011038.4289456365, 8,18,15,60
1134,3317010988.6785293,0.0, 1, 1, 1,10,2900241.648921957, 1,29, 6,10
1323,25341583403.19633,0.0, 1, 1, 1,10,3375000.000000002, 1, 5,11,10
1360,261748800.0,4979.999999999998, 5,11,12,50,4980.000000000002, 1,12,10,50
1388,0.0,0.0, 1, 1, 1,10,0.0, 1, 1, 1,10
End of Data
 Number of Records Written=          87
