Program Version,EnergyPlus, Version 22.2.0-c249759bad, YMD=2023.09.01 14:30
1,5,Environment Title[],Latitude[deg],Longitude[deg],Time Zone[],Elevation[m]
2,8,Day of Simulation[],Month[],Day of Month[],DST Indicator[1=yes 0=no],Hour[],StartMinute[],EndMinute[],DayType
3,5,Cumulative Day of Simulation[],Month[],Day of Month[],DST Indicator[1=yes 0=no],DayType  ! When Daily Report Variables Requested
4,2,Cumulative Days of Simulation[],Month[]  ! When Monthly Report Variables Requested
5,1,Cumulative Days of Simulation[] ! When Run Period Report Variables Requested
6,1,Calendar Year of Simulation[] ! When Annual Report Variables Requested
7,1,Environment,Site Outdoor Air Drybulb Temperature [C] !Hourly
619,1,DX_HEATING_COIL,Heating Coil Heating Rate [W] !Hourly
633,1,DX_HEATING_COIL,Heating Coil Electricity Rate [W] !Hourly
659,1,DX_HEATING_COIL,Heating Coil Defrost Electricity Rate [W] !Hourly
661,1,DX_HEATING_COIL,Heating Coil Crankcase Heater Electricity Rate [W] !Hourly
690,1,FAN,Fan Electricity Rate [W] !Hourly
716,1,HEAT PUMP WATER HEATER FAN,Fan Electricity Rate [W] !Hourly
718,1,LIVING,Zone Mean Air Temperature [C] !Hourly
719,1,ATTIC,Zone Mean Air Temperature [C] !Hourly
720,1,CRAWLSPACE,Zone Mean Air Temperature [C] !Hourly
843,1,LIVING,Zone Predicted Sensible Load to Heating Setpoint Heat Transfer Rate [W] !Hourly
844,1,LIVING,Zone System Predicted Sensible Load to Heating Setpoint Heat Transfer Rate [W] !Hourly
907,1,ATTIC,Zone Predicted Sensible Load to Heating Setpoint Heat Transfer Rate [W] !Hourly
908,1,ATTIC,Zone System Predicted Sensible Load to Heating Setpoint Heat Transfer Rate [W] !Hourly
971,1,CRAWLSPACE,Zone Predicted Sensible Load to Heating Setpoint Heat Transfer Rate [W] !Hourly
972,1,CRAWLSPACE,Zone System Predicted Sensible Load to Heating Setpoint Heat Transfer Rate [W] !Hourly
1195,1,HEATING_RESISTANCE_BACKUP,Heating Coil Heating Rate [W] !Hourly
1197,1,HEATING_RESISTANCE_BACKUP,Heating Coil Electricity Rate [W] !Hourly
End of Data Dictionary
1,EXTREME_WINTER,  37.36,-121.92,  -8.00,  15.50
2,1, 1,15, 0, 1, 0.00,60.00,Monday
7,7.8
718,21.13042981721282
719,5.740438849193478
720,19.233226994765552
619,0.0
633,0.0
659,0.0
661,200.0
690,0.0
716,0.0
843,-1864.5061323054615
844,-1864.5061323054615
907,0.0
908,0.0
971,0.0
972,0.0
1195,0.0
1197,0.0
2,1, 1,15, 0, 2, 0.00,60.00,Monday
7,7.2
718,20.376807293536903
719,6.12029149189285
720,18.95267285568732
619,0.0
633,0.0
659,0.0
661,200.0
690,0.0
716,0.0
843,-1136.1595840635382
844,-1136.1595840635382
907,0.0
908,0.0
971,0.0
972,0.0
1195,0.0
1197,0.0
2,1, 1,15, 0, 3, 0.00,60.00,Monday
7,7.2
718,19.70039770702553
719,6.256796514930085
720,18.769178999522232
619,0.0
633,0.0
659,0.0
661,200.0
690,0.0
716,0.0
843,-746.8714377534343
844,-746.8714377534343
907,0.0
908,0.0
971,0.0
972,0.0
1195,0.0
1197,0.0
2,1, 1,15, 0, 4, 0.00,60.00,Monday
7,6.1
718,19.291414789245135
719,4.215512079220437
720,18.5927708473825
619,0.0
633,0.0
659,0.0
661,200.0
690,0.0
716,0.0
843,-459.93160771036673
844,-459.93160771036673
907,0.0
908,0.0
971,0.0
972,0.0
1195,0.0
1197,0.0
2,1, 1,15, 0, 5, 0.00,60.00,Monday
7,6.7
718,18.94856712156048
719,4.159150877822494
720,18.42857275684399
619,0.0
633,0.0
659,0.0
661,200.0
690,0.0
716,0.0
843,-197.36156944484264
844,-197.36156944484264
907,0.0
908,0.0
971,0.0
972,0.0
1195,0.0
1197,0.0
2,1, 1,15, 0, 6, 0.00,60.00,Monday
7,6.1
718,19.616420481462956
719,3.961383089760094
720,18.267457974520806
619,758.0711131356231
633,208.13939129869718
659,0.0
661,172.36963650424863
690,19.008948850707608
716,0.0
843,578.5448427795791
844,578.5448427795791
907,0.0
908,0.0
971,0.0
972,0.0
1195,0.0
1197,0.0
2,1, 1,15, 0, 7, 0.00,60.00,Monday
7,3.9
718,19.5157688048126
719,4.12336627879588
720,18.10729291471127
619,2660.916412962235
633,794.868855368747
659,69.62173849739071
661,73.75188986601758
690,86.38785464678237
716,85.44000000000005
843,814.5243766323565
844,814.5243766323565
907,0.0
908,0.0
971,0.0
972,0.0
1195,0.0
1197,0.0
2,1, 1,15, 0, 8, 0.00,60.00,Monday
7,3.9
718,19.654911018197673
719,3.8629276026282873
720,17.97781632390458
619,2291.452599942272
633,689.3372211987335
659,65.24834599793493
661,89.29915168760378
690,75.71756496856888
716,40.11110939732239
843,1111.4311658331117
844,1111.4311658331117
907,0.0
908,0.0
971,0.0
972,0.0
1195,0.0
1197,0.0
2,1, 1,15, 0, 9, 0.00,60.00,Monday
7,6.7
718,19.903836267455066
719,5.585113020630814
720,17.87247513419182
619,443.6790973330901
633,123.48037843880229
659,0.0
661,183.9204778717433
690,11.062279862038473
716,0.0
843,324.7886532864213
844,324.7886532864213
907,0.0
908,0.0
971,0.0
972,0.0
1195,0.0
1197,0.0
2,1, 1,15, 0,10, 0.00,60.00,Monday
7,9.4
718,20.498140171587227
719,9.971015091376447
720,17.759659005807578
619,0.0
633,0.0
659,0.0
661,200.0
690,0.0
716,0.0
843,-656.5791355870297
844,-656.5791355870297
907,0.0
908,0.0
971,0.0
972,0.0
1195,0.0
1197,0.0
2,1, 1,15, 0,11, 0.00,60.00,Monday
7,10.0
718,21.05997839737186
719,13.021388478992808
720,17.68058830520294
619,0.0
633,0.0
659,0.0
661,0.0
690,0.0
716,0.0
843,-1154.372085441255
844,-1154.372085441255
907,0.0
908,0.0
971,0.0
972,0.0
1195,0.0
1197,0.0
2,1, 1,15, 0,12, 0.00,60.00,Monday
7,10.6
718,22.14925748324912
719,17.469119050194085
720,17.636157869143908
619,0.0
633,0.0
659,0.0
661,0.0
690,0.0
716,0.0
843,-1825.938859856462
844,-1825.938859856462
907,0.0
908,0.0
971,0.0
972,0.0
1195,0.0
1197,0.0
2,1, 1,15, 0,13, 0.00,60.00,Monday
7,11.1
718,23.101154238497248
719,21.446454150069314
720,17.614376486588093
619,0.0
633,0.0
659,0.0
661,0.0
690,0.0
716,0.0
843,-2570.6222004902356
844,-2570.6222004902356
907,0.0
908,0.0
971,0.0
972,0.0
1195,0.0
1197,0.0
2,1, 1,15, 0,14, 0.00,60.00,Monday
7,12.2
718,22.721477601624184
719,20.83353237648286
720,17.621278230738007
619,0.0
633,0.0
659,0.0
661,0.0
690,0.0
716,63.56291945395373
843,-3236.1102716994574
844,-3236.1102716994574
907,0.0
908,0.0
971,0.0
972,0.0
1195,0.0
1197,0.0
2,1, 1,15, 0,15, 0.00,60.00,Monday
7,11.7
718,23.279747039502666
719,19.58045504225652
720,17.687226199391002
619,0.0
633,0.0
659,0.0
661,0.0
690,21.926938780164875
716,0.0
843,-4181.167655533576
844,-4181.167655533576
907,0.0
908,0.0
971,0.0
972,0.0
1195,0.0
1197,0.0
2,1, 1,15, 0,16, 0.00,60.00,Monday
7,11.7
718,23.37435312569174
719,18.493487877422236
720,17.75688885358485
619,0.0
633,0.0
659,0.0
661,0.0
690,31.00526049783239
716,0.0
843,-4607.670588503643
844,-4607.670588503643
907,0.0
908,0.0
971,0.0
972,0.0
1195,0.0
1197,0.0
2,1, 1,15, 0,17, 0.00,60.00,Monday
7,11.1
718,23.368839838543767
719,16.781418872235488
720,17.82655672807475
619,0.0
633,0.0
659,0.0
661,0.0
690,34.94684729107767
716,0.0
843,-4972.019594723004
844,-4972.019594723004
907,0.0
908,0.0
971,0.0
972,0.0
1195,0.0
1197,0.0
2,1, 1,15, 0,18, 0.00,60.00,Monday
7,8.9
718,23.33036360832688
719,13.105543106211783
720,17.85062619707361
619,0.0
633,0.0
659,0.0
661,176.1701626161771
690,16.39428884167315
716,0.0
843,-4233.279625387928
844,-4233.279625387928
907,0.0
908,0.0
971,0.0
972,0.0
1195,0.0
1197,0.0
2,1, 1,15, 0,19, 0.00,60.00,Monday
7,8.3
718,22.81897364836795
719,11.087813809816703
720,17.86156269651209
619,0.0
633,0.0
659,0.0
661,200.0
690,0.0
716,75.6137208760763
843,-3592.0435459239143
844,-3592.0435459239143
907,0.0
908,0.0
971,0.0
972,0.0
1195,0.0
1197,0.0
2,1, 1,15, 0,20, 0.00,60.00,Monday
7,7.8
718,22.530191467500362
719,9.384173624421422
720,17.865421520690656
619,0.0
633,0.0
659,0.0
661,200.0
690,0.0
716,69.4966306739854
843,-3524.5949627596983
844,-3524.5949627596983
907,0.0
908,0.0
971,0.0
972,0.0
1195,0.0
1197,0.0
2,1, 1,15, 0,21, 0.00,60.00,Monday
7,7.2
718,23.12710350562148
719,8.184435021062859
720,17.842501084625738
619,0.0
633,0.0
659,0.0
661,200.0
690,0.0
716,0.0
843,-3063.968476299864
844,-3063.968476299864
907,0.0
908,0.0
971,0.0
972,0.0
1195,0.0
1197,0.0
2,1, 1,15, 0,22, 0.00,60.00,Monday
7,6.7
718,22.7777985302318
719,7.240690339301095
720,17.801783502699113
619,0.0
633,0.0
659,0.0
661,200.0
690,0.0
716,0.0
843,-2087.8640326914283
844,-2087.8640326914283
907,0.0
908,0.0
971,0.0
972,0.0
1195,0.0
1197,0.0
2,1, 1,15, 0,23, 0.00,60.00,Monday
7,5.6
718,22.107745786551362
719,5.877339155916147
720,17.749017813353287
619,0.0
633,0.0
659,0.0
661,200.0
690,0.0
716,0.0
843,-2487.364637424369
844,-2487.364637424369
907,0.0
908,0.0
971,0.0
972,0.0
1195,0.0
1197,0.0
2,1, 1,15, 0,24, 0.00,60.00,Monday
7,5.0
718,21.321737625489863
719,4.675970024899634
720,17.683781218239265
619,0.0
633,0.0
659,0.0
661,200.0
690,0.0
716,0.0
843,-1988.2691507579311
844,-1988.2691507579311
907,0.0
908,0.0
971,0.0
972,0.0
1195,0.0
1197,0.0
2,2, 1,16, 0, 1, 0.00,60.00,Tuesday
7,5.0
718,20.68238863081633
719,3.020466055568508
720,17.608597749495445
619,0.0
633,0.0
659,0.0
661,200.0
690,0.0
716,0.0
843,-1526.2116464563842
844,-1526.2116464563842
907,0.0
908,0.0
971,0.0
972,0.0
1195,0.0
1197,0.0
2,2, 1,16, 0, 2, 0.00,60.00,Tuesday
7,5.6
718,20.154403427670072
719,2.3540520072066737
720,17.524336471801387
619,0.0
633,0.0
659,0.0
661,200.0
690,0.0
716,0.0
843,-1065.2818783985404
844,-1065.2818783985404
907,0.0
908,0.0
971,0.0
972,0.0
1195,0.0
1197,0.0
2,2, 1,16, 0, 3, 0.00,60.00,Tuesday
7,5.6
718,19.416999643140652
719,3.203312686998965
720,17.43340242651202
619,0.0
633,0.0
659,0.0
661,200.0
690,0.0
716,0.0
843,-503.34716771507556
844,-503.34716771507556
907,0.0
908,0.0
971,0.0
972,0.0
1195,0.0
1197,0.0
2,2, 1,16, 0, 4, 0.00,60.00,Tuesday
7,5.6
718,18.999532594531452
719,3.2990832559742347
720,17.341925579681426
619,0.0
633,0.0
659,0.0
661,200.0
690,0.0
716,0.0
843,-248.27467468855502
844,-248.27467468855502
907,0.0
908,0.0
971,0.0
972,0.0
1195,0.0
1197,0.0
2,2, 1,16, 0, 5, 0.00,60.00,Tuesday
7,6.1
718,18.687994445863605
719,3.7044079310313127
720,17.248830931775206
619,0.0
633,0.0
659,0.0
661,200.0
690,0.0
716,0.0
843,-43.39593214642082
844,-43.39593214642082
907,0.0
908,0.0
971,0.0
972,0.0
1195,0.0
1197,0.0
2,2, 1,16, 0, 6, 0.00,60.00,Tuesday
7,6.1
718,19.53750533985805
719,5.501551490737238
720,17.15235541105792
619,1090.3659739802056
633,295.20979779417877
659,0.0
661,160.57482263104546
690,27.123464378301428
716,0.0
843,827.0364661261683
844,827.0364661261683
907,0.0
908,0.0
971,0.0
972,0.0
1195,0.0
1197,0.0
2,2, 1,16, 0, 7, 0.00,60.00,Tuesday
7,6.7
718,19.639688454800417
719,6.835980302553756
720,17.086772698273816
619,2836.23730245303
633,750.3975579394705
659,0.0
661,101.96087356174239
690,67.44828891300902
716,82.64857120224607
843,1066.854242185158
844,1066.854242185158
907,0.0
908,0.0
971,0.0
972,0.0
1195,0.0
1197,0.0
2,2, 1,16, 0, 8, 0.00,60.00,Tuesday
7,6.7
718,19.68920013471724
719,7.139344918847862
720,17.00451676258767
619,2822.136571078264
633,748.5471330119725
659,0.0
661,102.38266716969035
690,67.15810622611562
716,85.44000000000005
843,1021.8675783992621
844,1021.8675783992621
907,0.0
908,0.0
971,0.0
972,0.0
1195,0.0
1197,0.0
2,2, 1,16, 0, 9, 0.00,60.00,Tuesday
7,7.8
718,19.785558915268826
719,7.999564082370716
720,16.92266472135459
619,1703.1892009935875
633,455.4745851743861
659,0.0
661,141.3701652683222
690,40.33575344425982
716,31.47365645716532
843,884.3754121152906
844,884.3754121152906
907,0.0
908,0.0
971,0.0
972,0.0
1195,0.0
1197,0.0
2,2, 1,16, 0,10, 0.00,60.00,Tuesday
7,9.4
718,19.751747144173514
719,10.319017733483264
720,16.842795280981278
619,615.9107410132104
633,165.1453755398729
659,0.0
661,179.16934226679876
690,14.33093370045262
716,0.0
843,477.52069994810154
844,477.52069994810154
907,0.0
908,0.0
971,0.0
972,0.0
1195,0.0
1197,0.0
2,2, 1,16, 0,11, 0.00,60.00,Tuesday
7,10.6
718,19.958732324370278
719,15.502219715129517
720,16.776154997467394
619,0.0
633,0.0
659,0.0
661,0.0
690,0.0
716,0.0
843,-79.61951772416433
844,-79.61951772416433
907,0.0
908,0.0
971,0.0
972,0.0
1195,0.0
1197,0.0
2,2, 1,16, 0,12, 0.00,60.00,Tuesday
7,11.7
718,20.51046596455001
719,20.53101613631258
720,16.73741073398216
619,0.0
633,0.0
659,0.0
661,0.0
690,0.0
716,0.0
843,-576.1137928904063
844,-576.1137928904063
907,0.0
908,0.0
971,0.0
972,0.0
1195,0.0
1197,0.0
2,2, 1,16, 0,13, 0.00,60.00,Tuesday
7,13.3
718,21.10730250842056
719,22.586570015039044
720,16.719783221222077
619,0.0
633,0.0
659,0.0
661,0.0
690,0.0
716,0.0
843,-963.4172193811264
844,-963.4172193811264
907,0.0
908,0.0
971,0.0
972,0.0
1195,0.0
1197,0.0
2,2, 1,16, 0,14, 0.00,60.00,Tuesday
7,13.9
718,22.164582286705816
719,24.75759845349858
720,16.72343622733763
619,0.0
633,0.0
659,0.0
661,0.0
690,0.0
716,0.0
843,-1731.2104290600819
844,-1731.2104290600819
907,0.0
908,0.0
971,0.0
972,0.0
1195,0.0
1197,0.0
2,2, 1,16, 0,15, 0.00,60.00,Tuesday
7,13.9
718,22.90038560722027
719,23.629071734896492
720,16.74921384023284
619,0.0
633,0.0
659,0.0
661,0.0
690,0.0
716,0.0
843,-2474.6433187203293
844,-2474.6433187203293
907,0.0
908,0.0
971,0.0
972,0.0
1195,0.0
1197,0.0
2,2, 1,16, 0,16, 0.00,60.00,Tuesday
7,13.9
718,23.299708401754593
719,22.211184835946302
720,16.82809602541653
619,0.0
633,0.0
659,0.0
661,0.0
690,10.608433844288143
716,0.0
843,-2892.8715634132295
844,-2892.8715634132295
907,0.0
908,0.0
971,0.0
972,0.0
1195,0.0
1197,0.0
2,2, 1,16, 0,17, 0.00,60.00,Tuesday
7,11.7
718,23.2135570696299
719,19.10152192991659
720,16.914386110071284
619,0.0
633,0.0
659,0.0
661,0.0
690,20.426812586331916
716,0.0
843,-3445.4937460375913
844,-3445.4937460375913
907,0.0
908,0.0
971,0.0
972,0.0
1195,0.0
1197,0.0
2,2, 1,16, 0,18, 0.00,60.00,Tuesday
7,10.6
718,22.730179667884602
719,16.022370149115
720,16.93090458854277
619,0.0
633,0.0
659,0.0
661,0.0
690,0.0
716,58.09237969350861
843,-3496.1271571683174
844,-3496.1271571683174
907,0.0
908,0.0
971,0.0
972,0.0
1195,0.0
1197,0.0
2,2, 1,16, 0,19, 0.00,60.00,Tuesday
7,11.1
718,23.312673123215855
719,14.139922726331998
720,17.00043815102867
619,0.0
633,0.0
659,0.0
661,0.0
690,6.507085446332584
716,0.0
843,-3386.9385854408865
844,-3386.9385854408865
907,0.0
908,0.0
971,0.0
972,0.0
1195,0.0
1197,0.0
2,2, 1,16, 0,20, 0.00,60.00,Tuesday
7,11.1
718,22.336186496597417
719,12.679668071740878
720,17.00870998115877
619,0.0
633,0.0
659,0.0
661,0.0
690,0.0
716,85.44000000000005
843,-2875.125477537553
844,-2875.125477537553
907,0.0
908,0.0
971,0.0
972,0.0
1195,0.0
1197,0.0
2,2, 1,16, 0,21, 0.00,60.00,Tuesday
7,10.6
718,22.23897471973168
719,11.677286607401928
720,17.018468822879267
619,0.0
633,0.0
659,0.0
661,0.0
690,0.0
716,66.34131067883199
843,-3263.418574487072
844,-3263.418574487072
907,0.0
908,0.0
971,0.0
972,0.0
1195,0.0
1197,0.0
2,2, 1,16, 0,22, 0.00,60.00,Tuesday
7,9.4
718,22.81639873412034
719,10.856722051417545
720,17.010303328354915
619,0.0
633,0.0
659,0.0
661,200.0
690,0.0
716,0.0
843,-2647.498096772397
844,-2647.498096772397
907,0.0
908,0.0
971,0.0
972,0.0
1195,0.0
1197,0.0
2,2, 1,16, 0,23, 0.00,60.00,Tuesday
7,8.9
718,22.393763368497638
719,10.014654393149117
720,16.988974718498305
619,0.0
633,0.0
659,0.0
661,200.0
690,0.0
716,0.0
843,-2200.404647938539
844,-2200.404647938539
907,0.0
908,0.0
971,0.0
972,0.0
1195,0.0
1197,0.0
2,2, 1,16, 0,24, 0.00,60.00,Tuesday
7,8.3
718,21.857473181027654
719,8.907050486333382
720,16.958212498763313
619,0.0
633,0.0
659,0.0
661,200.0
690,0.0
716,0.0
843,-2006.6286756770196
844,-2006.6286756770196
907,0.0
908,0.0
971,0.0
972,0.0
1195,0.0
1197,0.0
2,3, 1,17, 0, 1, 0.00,60.00,Wednesday
7,7.8
718,21.23912104904175
719,7.8801164520907285
720,16.91857052120466
619,0.0
633,0.0
659,0.0
661,200.0
690,0.0
716,0.0
843,-1599.2670889352949
844,-1599.2670889352949
907,0.0
908,0.0
971,0.0
972,0.0
1195,0.0
1197,0.0
2,3, 1,17, 0, 2, 0.00,60.00,Wednesday
7,7.2
718,20.493598024676164
719,7.482408024164814
720,16.871158200740922
619,0.0
633,0.0
659,0.0
661,200.0
690,0.0
716,0.0
843,-1171.1079517540757
844,-1171.1079517540757
907,0.0
908,0.0
971,0.0
972,0.0
1195,0.0
1197,0.0
2,3, 1,17, 0, 3, 0.00,60.00,Wednesday
7,7.2
718,20.06486133507967
719,7.221333415369414
720,16.81869359885592
619,0.0
633,0.0
659,0.0
661,200.0
690,0.0
716,0.0
843,-976.7302729281764
844,-976.7302729281764
907,0.0
908,0.0
971,0.0
972,0.0
1195,0.0
1197,0.0
2,3, 1,17, 0, 4, 0.00,60.00,Wednesday
7,7.2
718,19.64039514348259
719,6.781723073774565
720,16.760451572181456
619,0.0
633,0.0
659,0.0
661,200.0
690,0.0
716,0.0
843,-611.6005223760685
844,-611.6005223760685
907,0.0
908,0.0
971,0.0
972,0.0
1195,0.0
1197,0.0
2,3, 1,17, 0, 5, 0.00,60.00,Wednesday
7,6.7
718,19.14300996815325
719,6.497265297098215
720,16.69801083266338
619,0.0
633,0.0
659,0.0
661,200.0
690,0.0
716,0.0
843,-286.40832507140385
844,-286.40832507140385
907,0.0
908,0.0
971,0.0
972,0.0
1195,0.0
1197,0.0
2,3, 1,17, 0, 6, 0.00,60.00,Wednesday
7,7.2
718,19.459216886547935
719,6.657577460208071
720,16.648631683972177
619,1445.310054232973
633,386.5463141446396
659,0.0
661,149.38992701939793
690,34.81837250410314
716,62.89211944948892
843,331.4236076741872
844,331.4236076741872
907,0.0
908,0.0
971,0.0
972,0.0
1195,0.0
1197,0.0
2,3, 1,17, 0, 7, 0.00,60.00,Wednesday
7,6.7
718,19.542466835830233
719,6.9952819946462625
720,16.59572942089518
619,2145.1197501441143
633,573.7824375507463
659,0.0
661,124.89458352357272
690,51.67051169743129
716,85.44000000000005
843,532.0547082428184
844,532.0547082428184
907,0.0
908,0.0
971,0.0
972,0.0
1195,0.0
1197,0.0
2,3, 1,17, 0, 8, 0.00,60.00,Wednesday
7,6.7
718,19.692501026846276
719,7.010744656447946
720,16.522240493871607
619,1297.020308723915
633,353.3820573892356
659,0.0
661,153.81781077833446
690,31.772107263928294
716,20.96636417708818
843,716.0785416183735
844,716.0785416183735
907,0.0
908,0.0
971,0.0
972,0.0
1195,0.0
1197,0.0
2,3, 1,17, 0, 9, 0.00,60.00,Wednesday
7,8.9
718,19.7040045395524
719,8.716470347180117
720,16.46369519523214
619,1024.8887435681822
633,273.67614773186415
659,0.0
661,165.20102804145384
690,23.940759162250178
716,0.0
843,775.8168268722347
844,775.8168268722347
907,0.0
908,0.0
971,0.0
972,0.0
1195,0.0
1197,0.0
2,3, 1,17, 0,10, 0.00,60.00,Wednesday
7,11.1
718,19.86574176919702
719,11.209665001802708
720,16.399985401655996
619,632.3392361849629
633,165.8619625922858
659,0.0
661,0.0
690,14.118218845057227
716,0.0
843,495.59248907890833
844,495.59248907890833
907,0.0
908,0.0
971,0.0
972,0.0
1195,0.0
1197,0.0
2,3, 1,17, 0,11, 0.00,60.00,Wednesday
7,12.2
718,20.181756365399046
719,14.26544376370269
720,16.339536990185053
619,0.0
633,0.0
659,0.0
661,0.0
690,0.0
716,0.0
843,-293.1379577474727
844,-293.1379577474727
907,0.0
908,0.0
971,0.0
972,0.0
1195,0.0
1197,0.0
2,3, 1,17, 0,12, 0.00,60.00,Wednesday
7,15.0
718,21.275556816262483
719,18.753257197172257
720,16.317931001127974
619,0.0
633,0.0
659,0.0
661,0.0
690,0.0
716,0.0
843,-1190.5813126746725
844,-1190.5813126746725
907,0.0
908,0.0
971,0.0
972,0.0
1195,0.0
1197,0.0
2,3, 1,17, 0,13, 0.00,60.00,Wednesday
7,16.1
718,22.214608470885246
719,21.7706906187869
720,16.324285850116418
619,0.0
633,0.0
659,0.0
661,0.0
690,0.0
716,0.0
843,-1998.1601172998453
844,-1998.1601172998453
907,0.0
908,0.0
971,0.0
972,0.0
1195,0.0
1197,0.0
2,3, 1,17, 0,14, 0.00,60.00,Wednesday
7,16.7
718,23.274440702113814
719,24.33549759132869
720,16.35716207953445
619,0.0
633,0.0
659,0.0
661,0.0
690,0.0
716,0.0
843,-2797.4820296191792
844,-2797.4820296191792
907,0.0
908,0.0
971,0.0
972,0.0
1195,0.0
1197,0.0
2,3, 1,17, 0,15, 0.00,60.00,Wednesday
7,16.7
718,23.31601425674554
719,23.73514457690393
720,16.464380624475538
619,0.0
633,0.0
659,0.0
661,0.0
690,15.830372886501625
716,0.0
843,-3410.363911812101
844,-3410.363911812101
907,0.0
908,0.0
971,0.0
972,0.0
1195,0.0
1197,0.0
2,3, 1,17, 0,16, 0.00,60.00,Wednesday
7,16.1
718,22.73673840542339
719,21.810075715399662
720,16.495681751858175
619,0.0
633,0.0
659,0.0
661,0.0
690,0.0
716,85.44000000000005
843,-3519.3500185775574
844,-3519.3500185775574
907,0.0
908,0.0
971,0.0
972,0.0
1195,0.0
1197,0.0
2,3, 1,17, 0,17, 0.00,60.00,Wednesday
7,13.9
718,23.186222019405797
719,18.708416349801993
720,16.590945021796422
619,0.0
633,0.0
659,0.0
661,0.0
690,0.0
716,45.28289396338984
843,-4095.061286297816
844,-4095.061286297816
907,0.0
908,0.0
971,0.0
972,0.0
1195,0.0
1197,0.0
2,3, 1,17, 0,18, 0.00,60.00,Wednesday
7,13.3
718,23.318407345872302
719,16.87912208332217
720,16.705824721071274
619,0.0
633,0.0
659,0.0
661,0.0
690,11.319480010111192
716,0.0
843,-3590.141521263391
844,-3590.141521263391
907,0.0
908,0.0
971,0.0
972,0.0
1195,0.0
1197,0.0
2,3, 1,17, 0,19, 0.00,60.00,Wednesday
7,13.3
718,23.381576991040273
719,15.37997353025737
720,16.76497179775996
619,0.0
633,0.0
659,0.0
661,0.0
690,12.123995293841272
716,0.0
843,-3340.0428684510807
844,-3340.0428684510807
907,0.0
908,0.0
971,0.0
972,0.0
1195,0.0
1197,0.0
2,3, 1,17, 0,20, 0.00,60.00,Wednesday
7,12.8
718,22.536512606623166
719,14.381324336570328
720,16.76569662941242
619,0.0
633,0.0
659,0.0
661,0.0
690,0.0
716,84.24685586923293
843,-3344.0604917404016
844,-3344.0604917404016
907,0.0
908,0.0
971,0.0
972,0.0
1195,0.0
1197,0.0
2,3, 1,17, 0,21, 0.00,60.00,Wednesday
7,12.2
718,23.330189819276637
719,13.375744755388544
720,16.790495979454565
619,0.0
633,0.0
659,0.0
661,0.0
690,0.8898217643196867
716,0.0
843,-3396.628487525135
844,-3396.628487525135
907,0.0
908,0.0
971,0.0
972,0.0
1195,0.0
1197,0.0
2,3, 1,17, 0,22, 0.00,60.00,Wednesday
7,11.7
718,23.23277904037863
719,12.96816700549975
720,16.790168810793645
619,0.0
633,0.0
659,0.0
661,0.0
690,0.0
716,0.0
843,-2362.148045988857
844,-2362.148045988857
907,0.0
908,0.0
971,0.0
972,0.0
1195,0.0
1197,0.0
2,3, 1,17, 0,23, 0.00,60.00,Wednesday
7,11.7
718,22.851331915966952
719,12.599510410326358
720,16.78151502236786
619,0.0
633,0.0
659,0.0
661,0.0
690,0.0
716,0.0
843,-2843.70843094884
844,-2843.70843094884
907,0.0
908,0.0
971,0.0
972,0.0
1195,0.0
1197,0.0
2,3, 1,17, 0,24, 0.00,60.00,Wednesday
7,12.0
718,22.3010546937847
719,12.596095446402154
720,16.762656827115343
619,0.0
633,0.0
659,0.0
661,0.0
690,0.0
716,0.0
843,-2454.76237932219
844,-2454.76237932219
907,0.0
908,0.0
971,0.0
972,0.0
1195,0.0
1197,0.0
2,4, 1,18, 0, 1, 0.00,60.00,Thursday
7,11.1
718,22.090232763077125
719,11.910511683026703
720,16.738033649634236
619,0.0
633,0.0
659,0.0
661,0.0
690,0.0
716,0.0
843,-2277.1043616168226
844,-2277.1043616168226
907,0.0
908,0.0
971,0.0
972,0.0
1195,0.0
1197,0.0
2,4, 1,18, 0, 2, 0.00,60.00,Thursday
7,11.0
718,21.73326546055516
719,11.339855483998367
720,16.705275538739095
619,0.0
633,0.0
659,0.0
661,0.0
690,0.0
716,0.0
843,-1345.8267353276096
844,-1345.8267353276096
907,0.0
908,0.0
971,0.0
972,0.0
1195,0.0
1197,0.0
2,4, 1,18, 0, 3, 0.00,60.00,Thursday
7,11.0
718,21.22986553937446
719,10.940379773190436
720,16.668321622424067
619,0.0
633,0.0
659,0.0
661,0.0
690,0.0
716,0.0
843,-1126.4834143425933
844,-1126.4834143425933
907,0.0
908,0.0
971,0.0
972,0.0
1195,0.0
1197,0.0
2,4, 1,18, 0, 4, 0.00,60.00,Thursday
7,10.0
718,20.763951842543023
719,10.017199501146246
720,16.62960512853003
619,0.0
633,0.0
659,0.0
661,0.0
690,0.0
716,0.0
843,-911.7038375581078
844,-911.7038375581078
907,0.0
908,0.0
971,0.0
972,0.0
1195,0.0
1197,0.0
2,4, 1,18, 0, 5, 0.00,60.00,Thursday
7,9.0
718,20.267573095430375
719,8.82195860067526
720,16.586266925401116
619,0.0
633,0.0
659,0.0
661,200.0
690,0.0
716,0.0
843,-701.6503043040284
844,-701.6503043040284
907,0.0
908,0.0
971,0.0
972,0.0
1195,0.0
1197,0.0
2,4, 1,18, 0, 6, 0.00,60.00,Thursday
7,8.9
718,19.125743554439108
719,8.430692487614747
720,16.539992670616325
619,0.0
633,0.0
659,0.0
661,200.0
690,0.0
716,55.35579059489246
843,-173.01448457755396
844,-173.01448457755396
907,0.0
908,0.0
971,0.0
972,0.0
1195,0.0
1197,0.0
2,4, 1,18, 0, 7, 0.00,60.00,Thursday
7,8.9
718,19.502455089353465
719,8.916210084773377
720,16.510594077529873
619,1280.1197518967465
633,335.9967327023722
659,0.0
661,156.83978782002853
690,29.69306812923111
716,85.44000000000005
843,85.68724631849182
844,85.68724631849182
907,0.0
908,0.0
971,0.0
972,0.0
1195,0.0
1197,0.0
2,4, 1,18, 0, 8, 0.00,60.00,Thursday
7,9.0
718,19.64182582411845
719,8.913299261331694
720,16.453291936955335
619,777.0695851482741
633,207.34484130571698
659,0.0
661,173.57693373764457
690,18.178360742058487
716,46.44051353996226
843,75.10178104876286
844,75.10178104876286
907,0.0
908,0.0
971,0.0
972,0.0
1195,0.0
1197,0.0
2,4, 1,18, 0, 9, 0.00,60.00,Thursday
7,10.0
718,19.80292773614989
719,9.532709074616694
720,16.393189110453207
619,259.2604249605973
633,69.22511546581896
659,0.0
661,0.0
690,5.981278448438493
716,0.0
843,203.12926535249062
844,203.12926535249062
907,0.0
908,0.0
971,0.0
972,0.0
1195,0.0
1197,0.0
2,4, 1,18, 0,10, 0.00,60.00,Thursday
7,12.8
718,20.308084467560498
719,12.87197661018604
720,16.3399341208407
619,0.0
633,0.0
659,0.0
661,0.0
690,0.0
716,0.0
843,-299.83459353258877
844,-299.83459353258877
907,0.0
908,0.0
971,0.0
972,0.0
1195,0.0
1197,0.0
2,4, 1,18, 0,11, 0.00,60.00,Thursday
7,13.9
718,20.92999986587222
719,15.284376940756436
720,16.306607526011828
619,0.0
633,0.0
659,0.0
661,0.0
690,0.0
716,0.0
843,-903.08108544465
844,-903.08108544465
907,0.0
908,0.0
971,0.0
972,0.0
1195,0.0
1197,0.0
2,4, 1,18, 0,12, 0.00,60.00,Thursday
7,14.4
718,21.705024907081384
719,17.344399101784067
720,16.29664551582491
619,0.0
633,0.0
659,0.0
661,0.0
690,0.0
716,0.0
843,-1464.9354207200813
844,-1464.9354207200813
907,0.0
908,0.0
971,0.0
972,0.0
1195,0.0
1197,0.0
2,4, 1,18, 0,13, 0.00,60.00,Thursday
7,15.0
718,21.979817324840724
719,18.08374538873531
720,16.309492246551503
619,0.0
633,0.0
659,0.0
661,0.0
690,0.0
716,0.0
843,-1611.8671823611676
844,-1611.8671823611676
907,0.0
908,0.0
971,0.0
972,0.0
1195,0.0
1197,0.0
2,4, 1,18, 0,14, 0.00,60.00,Thursday
7,12.2
718,21.22314437224116
719,15.771002718893431
720,16.333342007672442
619,0.0
633,0.0
659,0.0
661,0.0
690,0.0
716,0.0
843,-1054.8654998186594
844,-1054.8654998186594
907,0.0
908,0.0
971,0.0
972,0.0
1195,0.0
1197,0.0
2,4, 1,18, 0,15, 0.00,60.00,Thursday
7,12.2
718,22.43534940417896
719,17.917958563392453
720,16.37405612162732
619,0.0
633,0.0
659,0.0
661,0.0
690,0.0
716,0.0
843,-2309.5627827082735
844,-2309.5627827082735
907,0.0
908,0.0
971,0.0
972,0.0
1195,0.0
1197,0.0
2,4, 1,18, 0,16, 0.00,60.00,Thursday
7,13.3
718,23.3221130803157
719,19.262483390038287
720,16.42393591832433
619,0.0
633,0.0
659,0.0
661,0.0
690,1.8445781505409204
716,0.0
843,-2357.4199923442065
844,-2357.4199923442065
907,0.0
908,0.0
971,0.0
972,0.0
1195,0.0
1197,0.0
2,4, 1,18, 0,17, 0.00,60.00,Thursday
7,12.2
718,22.403346107724595
719,16.87154443203833
720,16.466102701297537
619,0.0
633,0.0
659,0.0
661,0.0
690,0.0
716,72.24456741203284
843,-2561.888054640651
844,-2561.888054640651
907,0.0
908,0.0
971,0.0
972,0.0
1195,0.0
1197,0.0
2,4, 1,18, 0,18, 0.00,60.00,Thursday
7,11.7
718,23.084311677494355
719,14.192873763957387
720,16.512525240633952
619,0.0
633,0.0
659,0.0
661,0.0
690,0.0
716,0.0
843,-2982.6116414219505
844,-2982.6116414219505
907,0.0
908,0.0
971,0.0
972,0.0
1195,0.0
1197,0.0
2,4, 1,18, 0,19, 0.00,60.00,Thursday
7,10.6
718,21.794739601628955
719,12.652416369526797
720,16.544160792173766
619,0.0
633,0.0
659,0.0
661,0.0
690,0.0
716,85.44000000000005
843,-2115.4113292990623
844,-2115.4113292990623
907,0.0
908,0.0
971,0.0
972,0.0
1195,0.0
1197,0.0
2,4, 1,18, 0,20, 0.00,60.00,Thursday
7,10.0
718,22.39616008885837
719,11.256312024539053
720,16.559387175507595
619,0.0
633,0.0
659,0.0
661,0.0
690,0.0
716,30.216252103560468
843,-2913.63099528786
844,-2913.63099528786
907,0.0
908,0.0
971,0.0
972,0.0
1195,0.0
1197,0.0
2,4, 1,18, 0,21, 0.00,60.00,Thursday
7,10.0
718,22.93171367040537
719,9.669087138701828
720,16.55743435655726
619,0.0
633,0.0
659,0.0
661,0.0
690,0.0
716,0.0
843,-2325.1908422567776
844,-2325.1908422567776
907,0.0
908,0.0
971,0.0
972,0.0
1195,0.0
1197,0.0
2,4, 1,18, 0,22, 0.00,60.00,Thursday
7,8.3
718,22.47395477099495
719,8.473878787953062
720,16.54209971700398
619,0.0
633,0.0
659,0.0
661,200.0
690,0.0
716,0.0
843,-1226.1766673332813
844,-1226.1766673332813
907,0.0
908,0.0
971,0.0
972,0.0
1195,0.0
1197,0.0
2,4, 1,18, 0,23, 0.00,60.00,Thursday
7,8.3
718,22.054072003274438
719,8.168462253028899
720,16.517818816058632
619,0.0
633,0.0
659,0.0
661,200.0
690,0.0
716,0.0
843,-2105.844413733661
844,-2105.844413733661
907,0.0
908,0.0
971,0.0
972,0.0
1195,0.0
1197,0.0
2,4, 1,18, 0,24, 0.00,60.00,Thursday
7,7.8
718,21.400426078556347
719,7.009770823535507
720,16.485599893994497
619,0.0
633,0.0
659,0.0
661,200.0
690,0.0
716,0.0
843,-1622.5572593122442
844,-1622.5572593122442
907,0.0
908,0.0
971,0.0
972,0.0
1195,0.0
1197,0.0
2,5, 1,19, 0, 1, 0.00,60.00,Friday
7,8.0
718,20.825924899232042
719,5.7523171623457205
720,16.443715935839712
619,0.0
633,0.0
659,0.0
661,200.0
690,0.0
716,0.0
843,-1323.5102972611776
844,-1323.5102972611776
907,0.0
908,0.0
971,0.0
972,0.0
1195,0.0
1197,0.0
2,5, 1,19, 0, 2, 0.00,60.00,Friday
7,6.7
718,20.131330534610797
719,4.779307873131945
720,16.393169908594277
619,0.0
633,0.0
659,0.0
661,200.0
690,0.0
716,0.0
843,-835.0113164064169
844,-835.0113164064169
907,0.0
908,0.0
971,0.0
972,0.0
1195,0.0
1197,0.0
2,5, 1,19, 0, 3, 0.00,60.00,Friday
7,5.6
718,19.446008213958965
719,3.6567333647779647
720,16.33570501056545
619,0.0
633,0.0
659,0.0
661,200.0
690,0.0
716,0.0
843,-493.7449080362121
844,-493.7449080362121
907,0.0
908,0.0
971,0.0
972,0.0
1195,0.0
1197,0.0
2,5, 1,19, 0, 4, 0.00,60.00,Friday
7,5.6
718,18.91690005830705
719,2.732465305452203
720,16.272530187498695
619,0.0
633,0.0
659,0.0
661,200.0
690,0.0
716,0.0
843,-187.19876400108296
844,-187.19876400108296
907,0.0
908,0.0
971,0.0
972,0.0
1195,0.0
1197,0.0
2,5, 1,19, 0, 5, 0.00,60.00,Friday
7,5.0
718,18.65459663797352
719,2.0893378259216657
720,16.206936998550866
619,157.20226438511247
633,48.428068865373454
659,5.472059106385683
661,192.02405446941856
690,5.462629377432583
716,0.0
843,85.39350407533038
844,85.39350407533038
907,0.0
908,0.0
971,0.0
972,0.0
1195,0.0
1197,0.0
2,5, 1,19, 0, 6, 0.00,60.00,Friday
7,4.4
718,18.969456552636725
719,4.1908031092320455
720,16.15573090021498
619,2408.579101956124
633,700.2873757848033
659,76.70329526027099
661,84.02892919762334
690,79.34381580763687
716,85.44000000000005
843,721.9401275713481
844,721.9401275713481
907,0.0
908,0.0
971,0.0
972,0.0
1195,0.0
1197,0.0
2,5, 1,19, 0, 7, 0.00,60.00,Friday
7,5.6
718,19.48713618667548
719,3.82810824040638
720,16.096849366036466
619,2755.7954867962435
633,730.5758208463315
659,0.0
661,102.3044702234099
690,67.21190362738237
716,69.18185641509915