Program Version,EnergyPlus, Version 22.2.0-c249759bad, YMD=2023.09.01 20:17
1,5,Environment Title[],Latitude[deg],Longitude[deg],Time Zone[],Elevation[m]
2,8,Day of Simulation[],Month[],Day of Month[],DST Indicator[1=yes 0=no],Hour[],StartMinute[],EndMinute[],DayType
3,5,Cumulative Day of Simulation[],Month[],Day of Month[],DST Indicator[1=yes 0=no],DayType  ! When Daily Report Variables Requested
4,2,Cumulative Days of Simulation[],Month[]  ! When Monthly Report Variables Requested
5,1,Cumulative Days of Simulation[] ! When Run Period Report Variables Requested
6,1,Calendar Year of Simulation[] ! When Annual Report Variables Requested
581,11,LIVING,AFN Zone Infiltration Air Change Rate [ach] !RunPeriod [Value,Min,Month,Day,Hour,Minute,Max,Month,Day,Hour,Minute]
582,11,ATTIC,AFN Zone Infiltration Air Change Rate [ach] !RunPeriod [Value,Min,Month,Day,Hour,Minute,Max,Month,Day,Hour,Minute]
583,11,CRAWLSPACE,AFN Zone Infiltration Air Change Rate [ach] !RunPeriod [Value,Min,Month,Day,Hour,Minute,Max,Month,Day,Hour,Minute]
1038,11,Facility,Facility Heating Setpoint Not Met Time [hr] !RunPeriod [Value,Min,Month,Day,Hour,Minute,Max,Month,Day,Hour,Minute]
1039,11,Facility,Facility Cooling Setpoint Not Met Time [hr] !RunPeriod [Value,Min,Month,Day,Hour,Minute,Max,Month,Day,Hour,Minute]
1115,11,DX_HEATING_COIL,Heating Coil Heating Energy [J] !RunPeriod [Value,Min,Month,Day,Hour,Minute,Max,Month,Day,Hour,Minute]
1128,11,DX_HEATING_COIL,Heating Coil Electricity Energy [J] !RunPeriod [Value,Min,Month,Day,Hour,Minute,Max,Month,Day,Hour,Minute]
1153,11,DX_HEATING_COIL,Heating Coil Defrost Electricity Energy [J] !RunPeriod [Value,Min,Month,Day,Hour,Minute,Max,Month,Day,Hour,Minute]
1154,11,DX_HEATING_COIL,Heating Coil Crankcase Heater Electricity Energy [J] !RunPeriod [Value,Min,Month,Day,Hour,Minute,Max,Month,Day,Hour,Minute]
1155,11,HEATING_RESISTANCE_BACKUP,Heating Coil Heating Energy [J] !RunPeriod [Value,Min,Month,Day,Hour,Minute,Max,Month,Day,Hour,Minute]
1156,11,HEATING_RESISTANCE_BACKUP,Heating Coil Electricity Energy [J] !RunPeriod [Value,Min,Month,Day,Hour,Minute,Max,Month,Day,Hour,Minute]
1292,11,WATER HEATER,Water Heater Heat Loss Energy [J] !RunPeriod [Value,Min,Month,Day,Hour,Minute,Max,Month,Day,Hour,Minute]
1306,11,WATER HEATER,Water Heater Heating Energy [J] !RunPeriod [Value,Min,Month,Day,Hour,Minute,Max,Month,Day,Hour,Minute]
1307,11,WATER HEATER,Water Heater Unmet Demand Heat Transfer Energy [J] !RunPeriod [Value,Min,Month,Day,Hour,Minute,Max,Month,Day,Hour,Minute]
1308,11,WATER HEATER,Water Heater Electricity Energy [J] !RunPeriod [Value,Min,Month,Day,Hour,Minute,Max,Month,Day,Hour,Minute]
13,11,Electricity:Facility [J] !RunPeriod [Value,Min,Month,Day,Hour,Minute,Max,Month,Day,Hour,Minute]
1134,11,Heating:Electricity [J] !RunPeriod [Value,Min,Month,Day,Hour,Minute,Max,Month,Day,Hour,Minute]
1096,11,Cooling:Electricity [J] !RunPeriod [Value,Min,Month,Day,Hour,Minute,Max,Month,Day,Hour,Minute]
562,11,Fans:Electricity [J] !RunPeriod [Value,Min,Month,Day,Hour,Minute,Max,Month,Day,Hour,Minute]
1379,11,Pumps:Electricity [J] !RunPeriod [Value,Min,Month,Day,Hour,Minute,Max,Month,Day,Hour,Minute]
1326,11,WaterSystems:Electricity [J] !RunPeriod [Value,Min,Month,Day,Hour,Minute,Max,Month,Day,Hour,Minute]
61,11,InteriorLights:Electricity [J] !RunPeriod [Value,Min,Month,Day,Hour,Minute,Max,Month,Day,Hour,Minute]
1046,11,ExteriorLights:Electricity [J] !RunPeriod [Value,Min,Month,Day,Hour,Minute,Max,Month,Day,Hour,Minute]
134,11,InteriorEquipment:Electricity [J] !RunPeriod [Value,Min,Month,Day,Hour,Minute,Max,Month,Day,Hour,Minute]
170,11,gas_dryer:InteriorEquipment:Electricity [J] !RunPeriod [Value,Min,Month,Day,Hour,Minute,Max,Month,Day,Hour,Minute]
207,11,clotheswasher:InteriorEquipment:Electricity [J] !RunPeriod [Value,Min,Month,Day,Hour,Minute,Max,Month,Day,Hour,Minute]
244,11,dishwasher:InteriorEquipment:Electricity [J] !RunPeriod [Value,Min,Month,Day,Hour,Minute,Max,Month,Day,Hour,Minute]
281,11,refrigerator:InteriorEquipment:Electricity [J] !RunPeriod [Value,Min,Month,Day,Hour,Minute,Max,Month,Day,Hour,Minute]
318,11,electric_mels:InteriorEquipment:Electricity [J] !RunPeriod [Value,Min,Month,Day,Hour,Minute,Max,Month,Day,Hour,Minute]
355,11,NaturalGas:Facility [J] !RunPeriod [Value,Min,Month,Day,Hour,Minute,Max,Month,Day,Hour,Minute]
403,11,InteriorEquipment:NaturalGas [J] !RunPeriod [Value,Min,Month,Day,Hour,Minute,Max,Month,Day,Hour,Minute]
476,11,gas_dryer:InteriorEquipment:NaturalGas [J] !RunPeriod [Value,Min,Month,Day,Hour,Minute,Max,Month,Day,Hour,Minute]
513,11,gas_mels:InteriorEquipment:NaturalGas [J] !RunPeriod [Value,Min,Month,Day,Hour,Minute,Max,Month,Day,Hour,Minute]
End of Data Dictionary
1,EXTREME_WINTER,  26.59, -81.86,  -5.00,   4.60
5,7
1038,0.25,0.0, 1,20, 1,15,0.25, 1,24, 6,15
1039,0.0,0.0, 1,20, 1,15,0.0, 1,20, 1,15
581,0.20858327872052532,0.0, 1,26, 9,46,0.4681525814705559, 1,24, 7,60
582,3.490296961306888,0.0, 1,20, 3,50,9.434640045541402, 1,23, 3,45
583,0.013649396242685024,0.00009090085169134454, 1,26, 9,46,0.067439167813459, 1,24, 6, 5
1115,80224390.25643131,0.0, 1,20, 1, 7,2957629.0261216587, 1,24, 6,60
1128,23580606.861190062,0.0, 1,20, 1, 7,889962.0687812876, 1,24, 6,60
1153,128738.01543300197,0.0, 1,20, 1, 7,12542.741128342937, 1,24, 8,30
1154,26723975.013188593,0.0, 1,20, 1, 7,180000.0, 1,20, 5,60
1155,0.0,0.0, 1,20, 1, 7,0.0, 1,20, 1, 7
1156,0.0,0.0, 1,20, 1, 7,0.0, 1,20, 1, 7
1292,-23200974.906846542,-39089.714551101955, 1,25, 5,45,-2895.994320087403, 1,26,10,45
1306,93575506.3191756,0.0, 1,20, 1, 7,4050000.0, 1,20, 7,15
1307,9247540.21655464,0.0, 1,20, 1, 7,3781940.1631828058, 1,20, 6,60
1308,93575506.3191756,0.0, 1,20, 1, 7,4050000.0, 1,20, 7,15
13,641572329.5554345,151703.1275401932, 1,21, 4,15,5065622.851999646, 1,20, 7,15
61,301924526.02383536,88139.10953165221, 1,20, 1,15,1282023.4113694867, 1,20,20,15
134,70666020.44019976,63564.01800854099, 1,20, 4,15,156554.22484006523, 1,25,20,15
170,5241013.419656067,348.4159749238097, 1,20, 4,15,17476.39704006126, 1,25,12,15
207,6509451.13922267,815.2532113832032, 1,20, 3,15,22990.642799023623, 1,25,10,15
244,12749673.399825225,1521.856143006317, 1,20, 4,15,53038.631142310165, 1,25,20,15
281,46165882.481495745,59938.60262432081, 1,20, 5,15,81951.81706819107, 1,20,19,15
318,0.0,0.0, 1,20, 1,15,0.0, 1,20, 1,15
355,197687796.27748066,18561.32405820678, 1,20, 4,15,724774.895203776, 1,25,18,15
403,197687796.27748066,18561.32405820678, 1,20, 4,15,724774.895203776, 1,25,18,15
476,106772067.24485716,7098.072629279515, 1,20, 4,15,356036.3026282215, 1,25,12,15
513,0.0,0.0, 1,20, 1,15,0.0, 1,20, 1,15
562,16418329.168343645,0.0, 1,20, 1,15,99967.73297047758, 1,24, 6,15
1046,0.0,0.0, 1,20, 1,15,0.0, 1,20, 1,15
1096,108554627.71406853,0.0, 1,20, 1,15,795027.2609283226, 1,21,17,15
1134,50433319.88981162,0.0, 1,20, 1,15,1048149.784578305, 1,24, 6,15
1326,93575506.31917562,0.0, 1,20, 1,15,4050000.0, 1,20, 7,15
1379,0.0,0.0, 1,20, 1,15,0.0, 1,20, 1,15
1,EXTREME_SUMMER,  26.59, -81.86,  -5.00,   4.60
5,7
1038,0.0,0.0, 6,29, 1,15,0.0, 6,29, 1,15
1039,55.5,0.0, 6,29, 1,15,0.25, 6,29,16,15
581,0.10476567326513482,0.0, 6,29, 1,60,0.5222390226003091, 7, 5,17,46
582,3.659107738777935,0.26410397631707494, 7, 5,24,45,15.160062372352638, 7, 5,11,46
583,0.04022180622501764,0.0005640992024997576, 6,30,23, 3,0.06829686139154957, 7, 5,17,46
1115,0.0,0.0, 6,29, 1,15,0.0, 6,29, 1,15
1128,0.0,0.0, 6,29, 1,15,0.0, 6,29, 1,15
1153,0.0,0.0, 6,29, 1,15,0.0, 6,29, 1,15
1154,0.0,0.0, 6,29, 1,15,0.0, 6,29, 1,15
1155,0.0,0.0, 6,29, 1,15,0.0, 6,29, 1,15
1156,0.0,0.0, 6,29, 1,15,0.0, 6,29, 1,15
1292,-21773228.5672013,-34272.807131901, 7, 4,12,30,-2536.9672858990475, 7, 5,13,44
1306,75261280.30060622,0.0, 6,29, 1,15,2880616.099227652, 7, 5,15,60
1307,2435419.9230667204,0.0, 6,29, 1,15,1254642.2213576427, 6,29, 6,60
1308,75261280.30060622,0.0, 6,29, 1,15,2880616.099227652, 7, 5,15,60
13,1039408404.0004101,215242.65847620118, 6,30, 4,60,5573453.264456024, 6,29,19,30
61,301924526.02383536,88139.10953165221, 6,29, 1,15,1282023.4113694867, 6,29,20,15
134,70666020.44019976,63564.01800854099, 6,29, 4,15,156554.22484006523, 7, 4,20,15
170,5241013.419656067,348.4159749238097, 6,29, 4,15,17476.39704006126, 7, 4,12,15
207,6509451.13922267,815.2532113832032, 6,29, 3,15,22990.642799023623, 7, 4,10,15
244,12749673.399825225,1521.856143006317, 6,29, 4,15,53038.631142310165, 7, 4,20,15
281,46165882.481495745,59938.60262432081, 6,29, 5,15,81951.81706819107, 6,29,19,15
318,0.0,0.0, 6,29, 1,15,0.0, 6,29, 1,15
355,197687796.27748066,18561.32405820678, 6,29, 4,15,724774.895203776, 7, 4,18,15
403,197687796.27748066,18561.32405820678, 6,29, 4,15,724774.895203776, 7, 4,18,15
476,106772067.24485716,7098.072629279515, 6,29, 4,15,356036.3026282215, 7, 4,12,15
513,0.0,0.0, 6,29, 1,15,0.0, 6,29, 1,15
562,55344203.42666383,5876.8433025482245, 6,30, 5,60,123178.70411989652, 7, 5,13,60
1046,0.0,0.0, 6,29, 1,15,0.0, 6,29, 1,15
1096,536212373.8091043,50219.84391004758, 6,30, 5,60,1306625.872692783, 7, 1,14,60
1134,0.0,0.0, 6,29, 1,15,0.0, 6,29, 1,15
1326,75261280.30060622,0.0, 6,29, 1,15,4050000.0, 7, 4,10,30
1379,0.0,0.0, 6,29, 1,15,0.0, 6,29, 1,15
1,ANNUAL,  26.59, -81.86,  -5.00,   4.60
5,365
1038,0.25,0.0, 1, 1, 1,15,0.25, 1,24, 6,15
1039,1840.25,0.0, 1, 1, 1,15,0.25, 1, 6,16,30
581,0.14217843176628955,0.0, 1, 6,23, 5,0.7297118410287781, 2,16,16,55
582,3.525423791158938,0.0, 1, 7, 2,50,25.55331689384166,10, 7,14,52
583,0.03355243808275199,0.0, 1, 6,23, 5,0.07726853811127253, 7,20,19,47
1115,180909244.00121307,0.0, 1, 1, 1,15,2860338.781649847, 1,24, 6,60
1128,51720290.24997139,0.0, 1, 1, 1,15,863940.5535401392, 1,24, 6,60
1153,312589.27471301745,0.0, 1, 1, 1,15,16469.662550370835,12,24, 6, 7
1154,104233814.37973519,0.0, 1, 1, 1,15,180000.0, 1,17, 1,15
1155,0.0,0.0, 1, 1, 1,15,0.0, 1, 1, 1,15
1156,0.0,0.0, 1, 1, 1,15,0.0, 1, 1, 1,15
1292,-1146165670.0616925,-39751.30887063125, 1,19, 5,60,-2131.216913096657, 6,20,16,31
1306,4422479313.822803,0.0, 1, 1, 1,15,4050000.0, 1, 2, 7,15
1307,286646793.3340568,0.0, 1, 1, 1,15,3779079.5662419945, 1,16, 6,60
1308,4422479313.822803,0.0, 1, 1, 1,15,4050000.0, 1, 2, 7,15
13,46861008330.462875,151703.1275401932, 1, 2, 4,15,6478412.136332676, 3,13,19,30
61,15743207428.383959,88139.10953165221, 1, 1, 1,15,1282023.4113694867, 1, 1,20,15
134,3685071073.4325233,63564.01800854099, 1, 2, 4,15,156554.22484006523, 1, 1,20,15
170,273393721.45532674,348.4159749238097, 1, 2, 4,15,17476.39704006126, 1, 1,12,15
207,339560869.0695816,815.2532113832032, 1, 2, 3,15,22990.642799023623, 1, 1,10,15
244,664895467.8009144,1521.856143006317, 1, 2, 4,15,53038.631142310165, 1, 1,20,15
281,2407221015.106824,59938.60262432081, 1, 1, 5,15,81951.81706819107, 1, 1,19,15
318,0.0,0.0, 1, 1, 1,15,0.0, 1, 1, 1,15
355,10310294493.051695,18561.32405820678, 1, 2, 4,15,724774.895203776, 1, 1,18,15
403,10310294493.051695,18561.32405820678, 1, 2, 4,15,724774.895203776, 1, 1,18,15
476,5569688622.066177,7098.072629279515, 1, 2, 4,15,356036.3026282215, 1, 1,12,15
513,0.0,0.0, 1, 1, 1,15,0.0, 1, 1, 1,15
562,2273353363.2537503,0.0, 1, 1, 1,15,123178.70411989655, 6,20,16,30
1046,0.0,0.0, 1, 1, 1,15,0.0, 1, 1, 1,15
1096,20580630457.66385,0.0, 1, 1, 1,15,1356115.9169651365, 6,18,10,60
1134,156266693.9044195,0.0, 1, 1, 1,15,1020400.919996971, 1,24, 6,15
1326,4422479313.822801,0.0, 1, 1, 1,15,4050000.0000000014, 2, 4,10,30
1379,0.0,0.0, 1, 1, 1,15,0.0, 1, 1, 1,15
End of Data
 Number of Records Written=          99
