Program Version,EnergyPlus, Version 22.2.0-c249759bad, YMD=2023.09.01 14:31
1,5,Environment Title[],Latitude[deg],Longitude[deg],Time Zone[],Elevation[m]
2,8,Day of Simulation[],Month[],Day of Month[],DST Indicator[1=yes 0=no],Hour[],StartMinute[],EndMinute[],DayType
3,5,Cumulative Day of Simulation[],Month[],Day of Month[],DST Indicator[1=yes 0=no],DayType  ! When Daily Report Variables Requested
4,2,Cumulative Days of Simulation[],Month[]  ! When Monthly Report Variables Requested
5,1,Cumulative Days of Simulation[] ! When Run Period Report Variables Requested
6,1,Calendar Year of Simulation[] ! When Annual Report Variables Requested
7,1,Environment,Site Outdoor Air Drybulb Temperature [C] !Hourly
619,1,DX_HEATING_COIL,Heating Coil Heating Rate [W] !Hourly
633,1,DX_HEATING_COIL,Heating Coil Electricity Rate [W] !Hourly
659,1,DX_HEATING_COIL,Heating Coil Defrost Electricity Rate [W] !Hourly
661,1,DX_HEATING_COIL,Heating Coil Crankcase Heater Electricity Rate [W] !Hourly
690,1,FAN,Fan Electricity Rate [W] !Hourly
716,1,HEAT PUMP WATER HEATER FAN,Fan Electricity Rate [W] !Hourly
718,1,LIVING,Zone Mean Air Temperature [C] !Hourly
719,1,ATTIC,Zone Mean Air Temperature [C] !Hourly
720,1,CRAWLSPACE,Zone Mean Air Temperature [C] !Hourly
843,1,LIVING,Zone Predicted Sensible Load to Heating Setpoint Heat Transfer Rate [W] !Hourly
844,1,LIVING,Zone System Predicted Sensible Load to Heating Setpoint Heat Transfer Rate [W] !Hourly
907,1,ATTIC,Zone Predicted Sensible Load to Heating Setpoint Heat Transfer Rate [W] !Hourly
908,1,ATTIC,Zone System Predicted Sensible Load to Heating Setpoint Heat Transfer Rate [W] !Hourly
971,1,CRAWLSPACE,Zone Predicted Sensible Load to Heating Setpoint Heat Transfer Rate [W] !Hourly
972,1,CRAWLSPACE,Zone System Predicted Sensible Load to Heating Setpoint Heat Transfer Rate [W] !Hourly
1195,1,HEATING_RESISTANCE_BACKUP,Heating Coil Heating Rate [W] !Hourly
1197,1,HEATING_RESISTANCE_BACKUP,Heating Coil Electricity Rate [W] !Hourly
End of Data Dictionary
1,EXTREME_WINTER,  30.32, -97.76,  -6.00, 204.20
2,1, 1,29, 0, 1, 0.00,60.00,Monday
7,21.7
718,24.351703834070985
719,17.10310356868823
720,19.765650121024425
619,0.0
633,0.0
659,0.0
661,0.0
690,0.0
716,0.0
843,-2919.4532083153326
844,-2919.4532083153326
907,0.0
908,0.0
971,0.0
972,0.0
1195,0.0
1197,0.0
2,1, 1,29, 0, 2, 0.00,60.00,Monday
7,21.1
718,24.21256493106095
719,18.88269407393364
720,19.554341570423666
619,0.0
633,0.0
659,0.0
661,0.0
690,0.0
716,0.0
843,-3645.851307587096
844,-3645.851307587096
907,0.0
908,0.0
971,0.0
972,0.0
1195,0.0
1197,0.0
2,1, 1,29, 0, 3, 0.00,60.00,Monday
7,21.7
718,24.1600452967966
719,19.90078221736023
720,19.430439391434128
619,0.0
633,0.0
659,0.0
661,0.0
690,0.0
716,0.0
843,-3512.4351748333684
844,-3512.4351748333684
907,0.0
908,0.0
971,0.0
972,0.0
1195,0.0
1197,0.0
2,1, 1,29, 0, 4, 0.00,60.00,Monday
7,21.7
718,24.005166622574425
719,20.784978160472125
720,19.321003058022203
619,0.0
633,0.0
659,0.0
661,0.0
690,0.0
716,0.0
843,-3668.887199066159
844,-3668.887199066159
907,0.0
908,0.0
971,0.0
972,0.0
1195,0.0
1197,0.0
2,1, 1,29, 0, 5, 0.00,60.00,Monday
7,21.7
718,24.052678452386765
719,21.037338219035792
720,19.23360857128638
619,0.0
633,0.0
659,0.0
661,0.0
690,0.0
716,0.0
843,-3558.362377214533
844,-3558.362377214533
907,0.0
908,0.0
971,0.0
972,0.0
1195,0.0
1197,0.0
2,1, 1,29, 0, 6, 0.00,60.00,Monday
7,22.2
718,23.400418968843685
719,21.02559767822594
720,19.20117631956652
619,0.0
633,0.0
659,0.0
661,0.0
690,23.432465639697895
716,0.0
843,-3035.583942478517
844,-3035.583942478517
907,0.0
908,0.0
971,0.0
972,0.0
1195,0.0
1197,0.0
2,1, 1,29, 0, 7, 0.00,60.00,Monday
7,21.7
718,22.816370918696975
719,20.832215284660027
720,19.097485171397704
619,0.0
633,0.0
659,0.0
661,0.0
690,0.0
716,85.44000000000005
843,-2625.5195914443066
844,-2625.5195914443066
907,0.0
908,0.0
971,0.0
972,0.0
1195,0.0
1197,0.0
2,1, 1,29, 0, 8, 0.00,60.00,Monday
7,21.7
718,23.2968800537206
719,20.885732272872925
720,19.070106647483726
619,0.0
633,0.0
659,0.0
661,0.0
690,11.721389889765991
716,5.95075833662552
843,-3116.5073361048508
844,-3116.5073361048508
907,0.0
908,0.0
971,0.0
972,0.0
1195,0.0
1197,0.0
2,1, 1,29, 0, 9, 0.00,60.00,Monday
7,22.2
718,23.33345841164496
719,21.6189382464131
720,19.028421859331026
619,0.0
633,0.0
659,0.0
661,0.0
690,13.319580865415718
716,0.0
843,-2374.7067057636477
844,-2374.7067057636477
907,0.0
908,0.0
971,0.0
972,0.0
1195,0.0
1197,0.0
2,1, 1,29, 0,10, 0.00,60.00,Monday
7,22.8
718,23.36302168328894
719,22.915657410947826
720,19.00507742216183
619,0.0
633,0.0
659,0.0
661,0.0
690,20.53903763746758
716,0.0
843,-2633.460174414585
844,-2633.460174414585
907,0.0
908,0.0
971,0.0
972,0.0
1195,0.0
1197,0.0
2,1, 1,29, 0,11, 0.00,60.00,Monday
7,24.4
718,23.389790554944483
719,24.429600286439907
720,18.991846959155286
619,0.0
633,0.0
659,0.0
661,0.0
690,27.479324594975285
716,0.0
843,-3259.4091873454818
844,-3259.4091873454818
907,0.0
908,0.0
971,0.0
972,0.0
1195,0.0
1197,0.0
2,1, 1,29, 0,12, 0.00,60.00,Monday
7,25.6
718,23.386129404549102
719,27.086054340449813
720,19.022655312121618
619,0.0
633,0.0
659,0.0
661,0.0
690,47.905934873807645
716,0.0
843,-3801.2697325889603
844,-3801.2697325889603
907,0.0
908,0.0
971,0.0
972,0.0
1195,0.0
1197,0.0
2,1, 1,29, 0,13, 0.00,60.00,Monday
7,27.2
718,23.378321448153006
719,30.46428602234516
720,19.08034299610695
619,0.0
633,0.0
659,0.0
661,0.0
690,73.59859052067705
716,0.0
843,-5004.628638463188
844,-5004.628638463188
907,0.0
908,0.0
971,0.0
972,0.0
1195,0.0
1197,0.0
2,1, 1,29, 0,14, 0.00,60.00,Monday
7,27.8
718,23.344434168477594
719,33.435764308726164
720,19.096427283221168
619,0.0
633,0.0
659,0.0
661,0.0
690,69.01428856993843
716,58.87511510562585
843,-5913.965679263198
844,-5913.965679263198
907,0.0
908,0.0
971,0.0
972,0.0
1195,0.0
1197,0.0
2,1, 1,29, 0,15, 0.00,60.00,Monday
7,28.3
718,23.376153756570062
719,33.669515226116346
720,19.252542667866166
619,0.0
633,0.0
659,0.0
661,0.0
690,115.3828620798831
716,0.0
843,-6702.987513040625
844,-6702.987513040625
907,0.0
908,0.0
971,0.0
972,0.0
1195,0.0
1197,0.0
2,1, 1,29, 0,16, 0.00,60.00,Monday
7,28.3
718,23.347996726910228
719,33.335706098940314
720,19.351192557765287
619,0.0
633,0.0
659,0.0
661,0.0
690,128.04509957125677
716,0.0
843,-7408.605631432045
844,-7408.605631432045
907,0.0
908,0.0
971,0.0
972,0.0
1195,0.0
1197,0.0
2,1, 1,29, 0,17, 0.00,60.00,Monday
7,22.8
718,23.312811698278917
719,27.950904798422425
720,19.365107503239898
619,0.0
633,0.0
659,0.0
661,0.0
690,111.00432039780688
716,0.0
843,-7304.587525416129
844,-7304.587525416129
907,0.0
908,0.0
971,0.0
972,0.0
1195,0.0
1197,0.0
2,1, 1,29, 0,18, 0.00,60.00,Monday
7,17.8
718,23.26420847687544
719,23.05078159791835
720,19.37949380391498
619,0.0
633,0.0
659,0.0
661,0.0
690,81.19936920134043
716,0.0
843,-6635.087252089874
844,-6635.087252089874
907,0.0
908,0.0
971,0.0
972,0.0
1195,0.0
1197,0.0
2,1, 1,29, 0,19, 0.00,60.00,Monday
7,17.2
718,23.361738998233363
719,20.48682772375647
720,19.379553748996763
619,0.0
633,0.0
659,0.0
661,0.0
690,29.547774539182765
716,71.27779107446865
843,-5869.125420305882
844,-5869.125420305882
907,0.0
908,0.0
971,0.0
972,0.0
1195,0.0
1197,0.0
2,1, 1,29, 0,20, 0.00,60.00,Monday
7,17.8
718,23.345351375299153
719,19.03682218846528
720,19.429397061263085
619,0.0
633,0.0
659,0.0
661,0.0
690,26.45683771653255
716,63.885093616006884
843,-5417.003661784209
844,-5417.003661784209
907,0.0
908,0.0
971,0.0
972,0.0
1195,0.0
1197,0.0
2,1, 1,29, 0,21, 0.00,60.00,Monday
7,16.7
718,23.384867278311074
719,17.128473557907704
720,19.466565439429147
619,0.0
633,0.0
659,0.0
661,0.0
690,43.97156323627274
716,0.0
843,-5134.578180729461
844,-5134.578180729461
907,0.0
908,0.0
971,0.0
972,0.0
1195,0.0
1197,0.0
2,1, 1,29, 0,22, 0.00,60.00,Monday
7,15.6
718,23.286461604552965
719,15.520834018601478
720,19.42793870951026
619,0.0
633,0.0
659,0.0
661,0.0
690,32.14155883703789
716,0.0
843,-4565.27222731712
844,-4565.27222731712
907,0.0
908,0.0
971,0.0
972,0.0
1195,0.0
1197,0.0
2,1, 1,29, 0,23, 0.00,60.00,Monday
7,14.4
718,24.00722481985858
719,14.24530583476378
720,19.344776939351405
619,0.0
633,0.0
659,0.0
661,0.0
690,0.0
716,0.0
843,-4852.916562574088
844,-4852.916562574088
907,0.0
908,0.0
971,0.0
972,0.0
1195,0.0
1197,0.0
2,1, 1,29, 0,24, 0.00,60.00,Monday
7,13.3
718,23.87725070407868
719,13.00038845985466
720,19.316107575109886
619,0.0
633,0.0
659,0.0
661,0.0
690,0.0
716,0.0
843,-3132.9457522371877
844,-3132.9457522371877
907,0.0
908,0.0
971,0.0
972,0.0
1195,0.0
1197,0.0
2,2, 1,30, 0, 1, 0.00,60.00,Tuesday
7,12.2
718,23.387594973938253
719,12.276370224858422
720,19.264221338117565
619,0.0
633,0.0
659,0.0
661,0.0
690,0.0
716,0.0
843,-2466.317456511051
844,-2466.317456511051
907,0.0
908,0.0
971,0.0
972,0.0
1195,0.0
1197,0.0
2,2, 1,30, 0, 2, 0.00,60.00,Tuesday
7,11.1
718,22.886001193759213
719,11.413563967205773
720,19.205964933155784
619,0.0
633,0.0
659,0.0
661,0.0
690,0.0
716,0.0
843,-2410.0982080017075
844,-2410.0982080017075
907,0.0
908,0.0
971,0.0
972,0.0
1195,0.0
1197,0.0
2,2, 1,30, 0, 3, 0.00,60.00,Tuesday
7,10.6
718,22.4202822709545
719,10.66852997647181
720,19.141386107491854
619,0.0
633,0.0
659,0.0
661,0.0
690,0.0
716,0.0
843,-2225.7687330721374
844,-2225.7687330721374
907,0.0
908,0.0
971,0.0
972,0.0
1195,0.0
1197,0.0
2,2, 1,30, 0, 4, 0.00,60.00,Tuesday
7,10.6
718,21.892429259584688
719,9.70396924378723
720,19.070832417960855
619,0.0
633,0.0
659,0.0
661,0.0
690,0.0
716,0.0
843,-1883.110071845509
844,-1883.110071845509
907,0.0
908,0.0
971,0.0
972,0.0
1195,0.0
1197,0.0
2,2, 1,30, 0, 5, 0.00,60.00,Tuesday
7,10.6
718,21.54471960319322
719,8.901543389264363
720,18.995852093021547
619,0.0
633,0.0
659,0.0
661,0.0
690,0.0
716,0.0
843,-1693.1016661739104
844,-1693.1016661739104
907,0.0
908,0.0
971,0.0
972,0.0
1195,0.0
1197,0.0
2,2, 1,30, 0, 6, 0.00,60.00,Tuesday
7,10.6
718,21.037885899124714
719,9.197451075585697
720,18.915906559406416
619,0.0
633,0.0
659,0.0
661,0.0
690,0.0
716,0.0
843,-693.9233195021179
844,-693.9233195021179
907,0.0
908,0.0
971,0.0
972,0.0
1195,0.0
1197,0.0
2,2, 1,30, 0, 7, 0.00,60.00,Tuesday
7,8.9
718,19.508969183405508
719,8.470803182271732
720,18.836226676682074
619,0.0
633,0.0
659,0.0
661,200.0
690,0.0
716,82.53606239383289
843,-528.3657888453108
844,-528.3657888453108
907,0.0
908,0.0
971,0.0
972,0.0
1195,0.0
1197,0.0
2,2, 1,30, 0, 8, 0.00,60.00,Tuesday
7,8.3
718,19.03842627036782
719,7.352147214280773
720,18.75977324874813
619,0.0
633,0.0
659,0.0
661,200.0
690,0.0
716,85.44000000000005
843,-339.5598152971288
844,-339.5598152971288
907,0.0
908,0.0
971,0.0
972,0.0
1195,0.0
1197,0.0
2,2, 1,30, 0, 9, 0.00,60.00,Tuesday
7,10.6
718,19.853417023624225
719,9.457254721772223
720,18.673408449295223
619,0.0
633,0.0
659,0.0
661,0.0
690,0.0
716,36.43630627656391
843,-668.2269769838858
844,-668.2269769838858
907,0.0
908,0.0
971,0.0
972,0.0
1195,0.0
1197,0.0
2,2, 1,30, 0,10, 0.00,60.00,Tuesday
7,11.7
718,21.514014069216607
719,13.136924342078972
720,18.59767095811889
619,0.0
633,0.0
659,0.0
661,0.0
690,0.0
716,0.0
843,-1382.9210389241398
844,-1382.9210389241398
907,0.0
908,0.0
971,0.0
972,0.0
1195,0.0
1197,0.0
2,2, 1,30, 0,11, 0.00,60.00,Tuesday
7,13.3
718,22.757425333235066
719,17.450052148990373
720,18.546753425245967
619,0.0
633,0.0
659,0.0
661,0.0
690,0.0
716,0.0
843,-2334.6882345486465
844,-2334.6882345486465
907,0.0
908,0.0
971,0.0
972,0.0
1195,0.0
1197,0.0
2,2, 1,30, 0,12, 0.00,60.00,Tuesday
7,13.9
718,23.311944863201273
719,21.586848610266983
720,18.5353732224546
619,0.0
633,0.0
659,0.0
661,0.0
690,7.4074104919869415
716,0.0
843,-3263.3029873980468
844,-3263.3029873980468
907,0.0
908,0.0
971,0.0
972,0.0
1195,0.0
1197,0.0
2,2, 1,30, 0,13, 0.00,60.00,Tuesday
7,14.4
718,23.43887787176092
719,25.314382807171373
720,18.562680830365387
619,0.0
633,0.0
659,0.0
661,0.0
690,19.944475589462716
716,0.0
843,-3426.6053003653396
844,-3426.6053003653396
907,0.0
908,0.0
971,0.0
972,0.0
1195,0.0
1197,0.0
2,2, 1,30, 0,14, 0.00,60.00,Tuesday
7,15.0
718,23.27727111550159
719,26.471539010013444
720,18.63221787383007
619,0.0
633,0.0
659,0.0
661,0.0
690,38.615647642584584
716,0.0
843,-4538.454606344347
844,-4538.454606344347
907,0.0
908,0.0
971,0.0
972,0.0
1195,0.0
1197,0.0
2,2, 1,30, 0,15, 0.00,60.00,Tuesday
7,15.0
718,23.349020044754305
719,26.700536818032788
720,18.71424576971636
619,0.0
633,0.0
659,0.0
661,0.0
690,54.69010932953685
716,0.0
843,-5654.904042469276
844,-5654.904042469276
907,0.0
908,0.0
971,0.0
972,0.0
1195,0.0
1197,0.0
2,2, 1,30, 0,16, 0.00,60.00,Tuesday
7,13.9
718,23.301258715231583
719,25.091055201653816
720,18.809736641409202
619,0.0
633,0.0
659,0.0
661,0.0
690,68.15618445381007
716,0.0
843,-6388.998397987238
844,-6388.998397987238
907,0.0
908,0.0
971,0.0
972,0.0
1195,0.0
1197,0.0
2,2, 1,30, 0,17, 0.00,60.00,Tuesday
7,13.3
718,23.30801337547908
719,22.678827723520577
720,18.896469598013418
619,0.0
633,0.0
659,0.0
661,0.0
690,75.65337212249486
716,0.0
843,-6939.818195785017
844,-6939.818195785017
907,0.0
908,0.0
971,0.0
972,0.0
1195,0.0
1197,0.0
2,2, 1,30, 0,18, 0.00,60.00,Tuesday
7,11.7
718,23.333337236498643
719,19.66766040405803
720,18.957847023117186
619,0.0
633,0.0
659,0.0
661,0.0
690,70.58610136066713
716,0.0
843,-6883.755840292295
844,-6883.755840292295
907,0.0
908,0.0
971,0.0
972,0.0
1195,0.0
1197,0.0
2,2, 1,30, 0,19, 0.00,60.00,Tuesday
7,10.0
718,23.382969776381238
719,15.819058797214621
720,18.938367373496646
619,0.0
633,0.0
659,0.0
661,0.0
690,14.56604475828235
716,85.44000000000005
843,-5648.156286003155
844,-5648.156286003155
907,0.0
908,0.0
971,0.0
972,0.0
1195,0.0
1197,0.0
2,2, 1,30, 0,20, 0.00,60.00,Tuesday
7,7.8
718,23.29240630667965
719,11.630861452363618
720,18.98424038291684
619,0.0
633,0.0
659,0.0
661,196.95352360625296
690,2.40716079954073
716,85.44000000000005
843,-4735.611788117358
844,-4735.611788117358
907,0.0
908,0.0
971,0.0
972,0.0
1195,0.0
1197,0.0
2,2, 1,30, 0,21, 0.00,60.00,Tuesday
7,6.1
718,23.26897425394914
719,8.402510186172618
720,19.002859072172935
619,0.0
633,0.0
659,0.0
661,191.78231898844118
690,6.493166871325889
716,36.67885062791252
843,-4150.603481153581
844,-4150.603481153581
907,0.0
908,0.0
971,0.0
972,0.0
1195,0.0
1197,0.0
2,2, 1,30, 0,22, 0.00,60.00,Tuesday
7,5.0
718,23.293594847804833
719,5.846301654544682
720,18.974163618557537
619,0.0
633,0.0
659,0.0
661,193.86959103065809
690,4.843917447199528
716,0.0
843,-3402.7194602183354
844,-3402.7194602183354
907,0.0
908,0.0
971,0.0
972,0.0
1195,0.0
1197,0.0
2,2, 1,30, 0,23, 0.00,60.00,Tuesday
7,2.8
718,22.720274160186428
719,3.6138199177693813
720,18.915286507315955
619,0.0
633,0.0
659,0.0
661,200.0
690,0.0
716,0.0
843,-3362.0346692423755
844,-3362.0346692423755
907,0.0
908,0.0
971,0.0
972,0.0
1195,0.0
1197,0.0
2,2, 1,30, 0,24, 0.00,60.00,Tuesday
7,1.7
718,21.86033146340981
719,1.6902012463979343
720,18.853854097309974
619,0.0
633,0.0
659,0.0
661,200.0
690,0.0
716,0.0
843,-2563.0549798622233
844,-2563.0549798622233
907,0.0
908,0.0
971,0.0
972,0.0
1195,0.0
1197,0.0
2,3, 1,31, 0, 1, 0.00,60.00,Wednesday
7,2.8
718,21.186405718779447
719,0.2618581257380036
720,18.78007344401942
619,0.0
633,0.0
659,0.0
661,200.0
690,0.0
716,0.0
843,-2048.431670614702
844,-2048.431670614702
907,0.0
908,0.0
971,0.0
972,0.0
1195,0.0
1197,0.0
2,3, 1,31, 0, 2, 0.00,60.00,Wednesday
7,4.4
718,20.62416936002836
719,-0.5153005448156697
720,18.692883781609243
619,0.0
633,0.0
659,0.0
661,200.0
690,0.0
716,0.0
843,-1499.274927141414
844,-1499.274927141414
907,0.0
908,0.0
971,0.0
972,0.0
1195,0.0
1197,0.0
2,3, 1,31, 0, 3, 0.00,60.00,Wednesday
7,0.6
718,19.496447919079284
719,-1.6069838461018975
720,18.59383264233748
619,0.0
633,0.0
659,0.0
661,200.0
690,0.0
716,0.0
843,-605.5390888163602
844,-605.5390888163602
907,0.0
908,0.0
971,0.0
972,0.0
1195,0.0
1197,0.0
2,3, 1,31, 0, 4, 0.00,60.00,Wednesday
7,1.1
718,18.827764560796023
719,-2.6379839623932138
720,18.487701594204392
619,0.0
633,0.0
659,0.0
661,200.0
690,0.0
716,0.0
843,-165.90449252136932
844,-165.90449252136932
907,0.0
908,0.0
971,0.0
972,0.0
1195,0.0
1197,0.0
2,3, 1,31, 0, 5, 0.00,60.00,Wednesday
7,0.6
718,18.639213075037265
719,-2.953051015042538
720,18.35543083100384
619,495.58033541350426
633,163.54081884534304
659,8.900425733129484
661,177.44539569974046
690,17.698149499955818
716,0.0
843,304.6040119839854
844,304.6040119839854
907,0.0
908,0.0
971,0.0
972,0.0
1195,0.0
1197,0.0
2,3, 1,31, 0, 6, 0.00,60.00,Wednesday
7,0.6
718,19.03279127816739
719,-0.9396289530144765
720,18.157924500666052
619,2867.1224456100263
633,888.1482808212935
659,36.295477474425354
661,79.21968883017081
690,94.94008494589566
716,76.20698607793028
843,1116.2531829943
844,1116.2531829943
907,0.0
908,0.0
971,0.0
972,0.0
1195,0.0
1197,0.0
2,3, 1,31, 0, 7, 0.00,60.00,Wednesday
7,2.8
718,19.434738518656026
719,-0.7374466683196261
720,18.0814901027814
619,3599.153834062862
633,1068.810529036811
659,14.049518176380252
661,63.77917843023597
690,107.51759392570764
716,85.44000000000005
843,1544.910602592945
844,1544.910602592945
907,0.0
908,0.0
971,0.0
972,0.0
1195,0.0
1197,0.0
2,3, 1,31, 0, 8, 0.00,60.00,Wednesday
7,6.7
718,19.76223974960795
719,-0.3669473640745801
720,18.021241588186562
619,2361.386676662446
633,633.6613893116055
659,0.0
661,127.87019289807012
690,56.99307058166471
716,30.112622668881773
843,1370.4389280372216
844,1370.4389280372216
907,0.0
908,0.0
971,0.0
972,0.0
1195,0.0
1197,0.0
2,3, 1,31, 0, 9, 0.00,60.00,Wednesday
7,10.6
718,19.89500599850156
719,3.353754574268107
720,17.92640242921457
619,830.9849166714309
633,219.53212862628038
659,0.0
661,0.0
690,18.7552494609473
716,0.0
843,598.4383821169595
844,598.4383821169595
907,0.0
908,0.0
971,0.0
972,0.0
1195,0.0
1197,0.0
2,3, 1,31, 0,10, 0.00,60.00,Wednesday
7,16.1
718,20.522734513019735
719,11.998877781760209
720,17.83598426756279
619,0.0
633,0.0
659,0.0
661,0.0
690,0.0
716,0.0
843,-642.3882279040627
844,-642.3882279040627
907,0.0
908,0.0
971,0.0
972,0.0
1195,0.0
1197,0.0
2,3, 1,31, 0,11, 0.00,60.00,Wednesday
7,17.8
718,21.81592321044087
719,20.08148258743941
720,17.78835964357209
619,0.0
633,0.0
659,0.0
661,0.0
690,0.0
716,0.0
843,-1832.317744159911
844,-1832.317744159911
907,0.0
908,0.0
971,0.0
972,0.0
1195,0.0
1197,0.0
2,3, 1,31, 0,12, 0.00,60.00,Wednesday
7,19.4
718,22.795757410356707
719,25.147271118721697
720,17.782521376326404
619,0.0
633,0.0
659,0.0
661,0.0
690,0.0
716,0.0
843,-2721.3693401757555
844,-2721.3693401757555
907,0.0
908,0.0
971,0.0
972,0.0
1195,0.0
1197,0.0
2,3, 1,31, 0,13, 0.00,60.00,Wednesday
7,20.6
718,23.303618745261932
719,29.805710680158484
720,17.841628500316045
619,0.0
633,0.0
659,0.0
661,0.0
690,13.055499757177069
716,0.0
843,-3595.3815940528784
844,-3595.3815940528784
907,0.0
908,0.0
971,0.0
972,0.0
1195,0.0
1197,0.0
2,3, 1,31, 0,14, 0.00,60.00,Wednesday
7,20.6
718,23.31718534419209
719,31.591176776572805
720,17.940818154721235
619,0.0
633,0.0
659,0.0
661,0.0
690,29.763688003625646
716,0.0
843,-3470.507510039868
844,-3470.507510039868
907,0.0
908,0.0
971,0.0
972,0.0
1195,0.0
1197,0.0
2,3, 1,31, 0,15, 0.00,60.00,Wednesday
7,20.6
718,23.311846875663132
719,31.403991312448746
720,18.09562099504036
619,0.0
633,0.0
659,0.0
661,0.0
690,56.430801534505804
716,0.0
843,-5190.36135693223
844,-5190.36135693223
907,0.0
908,0.0
971,0.0
972,0.0
1195,0.0
1197,0.0
2,3, 1,31, 0,16, 0.00,60.00,Wednesday
7,19.4
718,23.317028752454497
719,31.069992786944734
720,18.18065037106631
619,0.0
633,0.0
659,0.0
661,0.0
690,44.70970372685042
716,85.44000000000005
843,-6468.933910444186
844,-6468.933910444186
907,0.0
908,0.0
971,0.0
972,0.0
1195,0.0
1197,0.0
2,3, 1,31, 0,17, 0.00,60.00,Wednesday
7,17.2
718,23.268538064826927
719,27.946343825898452
720,18.366494699974677
619,0.0
633,0.0
659,0.0
661,0.0
690,71.38444141041407
716,47.80975031650753
843,-7152.509363978857
844,-7152.509363978857
907,0.0
908,0.0
971,0.0
972,0.0
1195,0.0
1197,0.0
2,3, 1,31, 0,18, 0.00,60.00,Wednesday
7,13.9
718,23.30062357042375
719,24.585963296419482
720,18.500416909828388
619,0.0
633,0.0
659,0.0
661,0.0
690,80.37457825144206
716,0.0
843,-7118.749226798751
844,-7118.749226798751
907,0.0
908,0.0
971,0.0
972,0.0
1195,0.0
1197,0.0
2,3, 1,31, 0,19, 0.00,60.00,Wednesday
7,11.1
718,23.30533467231474
719,19.10816897510745
720,18.525486421149335
619,0.0
633,0.0
659,0.0
661,0.0
690,48.56591909522844
716,0.0
843,-5858.678270173121
844,-5858.678270173121
907,0.0
908,0.0
971,0.0
972,0.0
1195,0.0
1197,0.0
2,3, 1,31, 0,20, 0.00,60.00,Wednesday
7,10.3
718,23.354898860921576
719,15.07164758474741
720,18.54356210853611
619,0.0
633,0.0
659,0.0
661,0.0
690,7.32073874845682
716,85.44000000000005
843,-4982.928598685428
844,-4982.928598685428
907,0.0
908,0.0
971,0.0
972,0.0
1195,0.0
1197,0.0
2,3, 1,31, 0,21, 0.00,60.00,Wednesday
7,9.9
718,23.327749255397475
719,11.91851442948757
720,18.627049678214778
619,0.0
633,0.0
659,0.0
661,175.89282535325324
690,19.048184951125354
716,24.718945268122383
843,-4525.148876040455
844,-4525.148876040455
907,0.0
908,0.0
971,0.0
972,0.0
1195,0.0
1197,0.0
2,3, 1,31, 0,22, 0.00,60.00,Wednesday
7,11.9
718,23.426359157628877
719,10.371174050552948
720,18.636838731923568
619,0.0
633,0.0
659,0.0
661,0.0
690,17.625021630396343
716,0.0
843,-3997.8667798804618
844,-3997.8667798804618
907,0.0
908,0.0
971,0.0
972,0.0
1195,0.0
1197,0.0
2,3, 1,31, 0,23, 0.00,60.00,Wednesday
7,14.2
718,23.973432573572584
719,10.042758984630918
720,18.578458027485294
619,0.0
633,0.0
659,0.0
661,0.0
690,0.0
716,0.0
843,-4264.151490353621
844,-4264.151490353621
907,0.0
908,0.0
971,0.0
972,0.0
1195,0.0
1197,0.0
2,3, 1,31, 0,24, 0.00,60.00,Wednesday
7,13.1
718,23.5367013002447
719,9.697474548117974
720,18.52246711819865
619,0.0
633,0.0
659,0.0
661,0.0
690,0.0
716,0.0
843,-2334.0721495469706
844,-2334.0721495469706
907,0.0
908,0.0
971,0.0
972,0.0
1195,0.0
1197,0.0
2,4, 2, 1, 0, 1, 0.00,60.00,Thursday
7,11.6
718,22.989741546727018
719,10.878369878219234
720,18.473928099786054
619,0.0
633,0.0
659,0.0
661,0.0
690,0.0
716,0.0
843,-1963.6145417163561
844,-1963.6145417163561
907,0.0
908,0.0
971,0.0
972,0.0
1195,0.0
1197,0.0
2,4, 2, 1, 0, 2, 0.00,60.00,Thursday
7,7.6
718,22.02540193583686
719,11.375055159963924
720,18.42665798650795
619,0.0
633,0.0
659,0.0
661,200.0
690,0.0
716,0.0
843,-1770.7264934437517
844,-1770.7264934437517
907,0.0
908,0.0
971,0.0
972,0.0
1195,0.0
1197,0.0
2,4, 2, 1, 0, 3, 0.00,60.00,Thursday
7,3.7
718,21.037236519393396
719,9.01591891484816
720,18.367265158395902
619,0.0
633,0.0
659,0.0
661,200.0
690,0.0
716,0.0
843,-1714.6077473520145
844,-1714.6077473520145
907,0.0
908,0.0
971,0.0
972,0.0
1195,0.0
1197,0.0
2,4, 2, 1, 0, 4, 0.00,60.00,Thursday
7,2.7
718,20.340026161298955
719,6.953892605927558
720,18.313554770706883
619,0.0
633,0.0
659,0.0
661,200.0
690,0.0
716,0.0
843,-1346.8268146371229
844,-1346.8268146371229
907,0.0
908,0.0
971,0.0
972,0.0
1195,0.0
1197,0.0
2,4, 2, 1, 0, 5, 0.00,60.00,Thursday
7,1.4
718,19.588005590523107
719,5.17903160654157
720,18.245032442807204
619,0.0
633,0.0
659,0.0
661,200.0
690,0.0
716,0.0
843,-756.9780561395346
844,-756.9780561395346
907,0.0
908,0.0
971,0.0
972,0.0
1195,0.0
1197,0.0
2,4, 2, 1, 0, 6, 0.00,60.00,Thursday
7,0.0
718,19.634363904428053
719,4.11038867120259
720,18.132236555015897
619,969.5372039717058
633,325.6233928040496
659,16.91628231753913
661,155.62792907974097
690,34.80054316737059
716,0.0
843,730.1144025760295
844,730.1144025760295
907,0.0
908,0.0
971,0.0
972,0.0
1195,0.0
1197,0.0
2,4, 2, 1, 0, 7, 0.00,60.00,Thursday
7,1.0
718,19.770676302601537
719,4.7576277987548306
720,18.019520505597743
619,2730.3013609551044
633,863.2708409398718
659,41.08734545462148
661,84.06898987928217
690,91.07493983800414
716,85.44000000000005
843,838.8038873829773
844,838.8038873829773
907,0.0
908,0.0
971,0.0
972,0.0
1195,0.0
1197,0.0
2,4, 2, 1, 0, 8, 0.00,60.00,Thursday
7,-1.7
718,19.42379683148982
719,2.7761158371714996
720,17.88571420985254
619,3590.942298799586
633,1169.229096231808
659,43.92387465328816
661,41.976641152227145
690,124.00416788879525
716,85.44000000000005
843,1486.8396958521662
844,1486.8396958521662
907,0.0
908,0.0
971,0.0
972,0.0
1195,0.0
1197,0.0
2,4, 2, 1, 0, 9, 0.00,60.00,Thursday
7,-2.2
718,19.63948122475014
719,2.439751208191115
720,17.78732965113016
619,3295.971760867296
633,1080.664648323646
659,31.984790095422216
661,53.95078119854328
690,114.73956301349821
716,21.66240971823093
843,2108.3966205509023
844,2108.3966205509023
907,0.0
908,0.0
971,0.0
972,0.0
1195,0.0
1197,0.0
2,4, 2, 1, 0,10, 0.00,60.00,Thursday
7,-1.7
718,19.714807671205765
719,2.995773003804792
720,17.708391855868374
619,2984.5272241504185
633,981.4474739189149
659,15.980892673482598
661,70.81053339530034
690,101.77457177368889
716,0.0
843,2138.163831215732
844,2138.163831215732
907,0.0
908,0.0
971,0.0
972,0.0
1195,0.0
1197,0.0
2,4, 2, 1, 0,11, 0.00,60.00,Thursday
7,-1.0
718,19.754501808583292
719,4.616297799953186
720,17.62651938267465
619,2377.281575931209
633,784.5160303710309
659,8.600416279051528
661,98.24803769706212
690,80.25188213421411
716,0.0
843,1718.2697975063002
844,1718.2697975063002
907,0.0
908,0.0
971,0.0
972,0.0
1195,0.0
1197,0.0
2,4, 2, 1, 0,12, 0.00,60.00,Thursday
7,0.6
718,19.89189826411522
719,7.148014976777944
720,17.561688678129144
619,1326.9929486415424
633,436.45099931341014
659,0.7150190049515271
661,144.95265259762996
690,43.48611745115399
716,0.0
843,983.518006565957
844,983.518006565957
907,0.0
908,0.0
971,0.0
972,0.0
1195,0.0
1197,0.0
2,4, 2, 1, 0,13, 0.00,60.00,Thursday
7,0.0
718,19.555438148592565
719,8.939873096551707
720,17.496558482053086
619,652.3990921292566
633,221.04308797334716
659,0.3385894067708072
661,172.05465651065043
690,22.076004608010738
716,0.0
843,495.4040892892572
844,495.4040892892572
907,0.0
908,0.0
971,0.0
972,0.0
1195,0.0
1197,0.0
2,4, 2, 1, 0,14, 0.00,60.00,Thursday
7,1.0
718,19.927093345107618
719,10.51911782334273
720,17.456632006589555
619,347.77626919319476
633,115.5836521400029
659,0.005537882061370928
661,185.4506965404499
690,11.496005444975482
716,0.0
843,272.52782169178136
844,272.52782169178136
907,0.0
908,0.0
971,0.0
972,0.0
1195,0.0
1197,0.0
2,4, 2, 1, 0,15, 0.00,60.00,Thursday
7,-0.6
718,19.704553850684572
719,9.362233268350174
720,17.435163710925146
619,0.0
633,0.0
659,0.0
661,200.0
690,0.0
716,0.0
843,-225.0447055100758
844,-225.0447055100758
907,0.0
908,0.0
971,0.0
972,0.0
1195,0.0
1197,0.0
2,4, 2, 1, 0,16, 0.00,60.00,Thursday
7,-2.2
718,20.541920413877584
719,10.35721731745994
720,17.433113253436996
619,0.0
633,0.0
659,0.0
661,200.0
690,0.0
716,0.0
843,-803.6664300997891
844,-803.6664300997891
907,0.0
908,0.0
971,0.0
972,0.0
1195,0.0
1197,0.0
2,4, 2, 1, 0,17, 0.00,60.00,Thursday
7,-2.8
718,19.982768113672503
719,7.831134525438854
720,17.438418448122306
619,0.0
633,0.0
659,0.0
661,200.0
690,0.0
716,73.43735557698615
843,-930.7128888346233
844,-930.7128888346233
907,0.0
908,0.0
971,0.0
972,0.0
1195,0.0
1197,0.0
2,4, 2, 1, 0,18, 0.00,60.00,Thursday
7,-3.3
718,20.147661605833488
719,3.8058964820861187
720,17.453582336311783
619,0.0
633,0.0
659,0.0
661,200.0
690,0.0
716,0.0
843,-457.30147361003037
844,-457.30147361003037
907,0.0
908,0.0
971,0.0
972,0.0
1195,0.0
1197,0.0
2,4, 2, 1, 0,19, 0.00,60.00,Thursday
7,-4.4
718,19.772904820605948
719,2.0056335245344616
720,17.443624020011278
619,1551.337114945972
633,562.4191300332
659,5.53440705394108
661,125.67635768724608
690,58.579392889315734
716,85.44000000000005
843,47.16667543301446
844,47.16667543301446
907,0.0
908,0.0
971,0.0
972,0.0
1195,0.0
1197,0.0
2,4, 2, 1, 0,20, 0.00,60.00,Thursday
7,-5.0
718,19.393269532837717
719,-0.34828768408908994
720,17.385022541142757
619,2394.5346384853274
633,850.2876723854189
659,5.539622712620123
661,86.74372488721114
690,89.33235996305598
716,59.16795828202301
843,1012.5082378439056
844,1012.5082378439056
907,0.0
908,0.0
971,0.0
972,0.0
1195,0.0
1197,0.0
2,4, 2, 1, 0,21, 0.00,60.00,Thursday
7,-5.6
718,19.751495667034728
719,-1.2262164012769687
720,17.317599210707982
619,2564.5514956583775
633,908.7215311103951
659,8.621638600371174
661,76.95192865424904
690,96.96550044444042
716,0.0
843,1736.7685480413274
844,1736.7685480413274
907,0.0
908,0.0
971,0.0
972,0.0
1195,0.0
1197,0.0
2,4, 2, 1, 0,22, 0.00,60.00,Thursday
7,-6.7
718,19.718426062613617
719,-1.9168894610090543
720,17.23741104093302
619,2894.99199405891
633,1046.7929217563099
659,7.151175113213171
661,58.40052592488772
690,111.64225149645279
716,0.0
843,1901.2807302101464
844,1901.2807302101464
907,0.0
908,0.0
971,0.0
972,0.0
1195,0.0
1197,0.0
2,4, 2, 1, 0,23, 0.00,60.00,Thursday
7,-7.2
718,18.767383321291227
719,-2.859389756606466
720,17.109434681458616
619,3415.1147538402047
633,1227.7421490999502
659,7.672560879290734
661,33.20418415033095
690,131.52031319096486
716,0.0
843,2199.138342349761
844,2199.138342349761
907,0.0
908,0.0
971,0.0
972,0.0
1195,0.0
1197,0.0
2,4, 2, 1, 0,24, 0.00,60.00,Thursday
7,-7.2
718,18.69163824396962
719,-2.8153581008297555
720,16.946222201747727
619,4027.034592394686
633,1390.4281011005341
659,4.338853968010824
661,8.386808429708314
690,151.2495127937134
716,0.0
843,2619.5003317353357
844,2619.5003317353357
907,0.0
908,0.0
971,0.0
972,0.0
1195,0.0
1197,0.0
2,5, 2, 2, 0, 1, 0.00,60.00,Friday
7,-7.8
718,18.628125405247353
719,-3.098666571961882
720,16.82441364994903
619,4159.464411408897
633,1442.5129199652795
659,3.7548037186357743
661,0.0
690,158.02917787129314
716,0.0
843,3120.1193611748295
844,3120.1193611748295
907,0.0
908,0.0
971,0.0
972,0.0
1195,509.6324653115462
1197,509.6324653115462
2,5, 2, 2, 0, 2, 0.00,60.00,Friday
7,-7.8
718,18.614795997601746
719,-3.1453214459748686
720,16.68737561131148
619,4161.170426475102
633,1440.5954175037323
659,3.751144583000636
661,0.0
690,158.02917787129314
716,0.0
843,3343.5832688891423
844,3343.5832688891423
907,0.0
908,0.0
971,0.0
972,0.0
1195,781.0356407406853
1197,781.0356407406853
2,5, 2, 2, 0, 3, 0.00,60.00,Friday
7,-8.3
718,18.607728496319513
719,-3.4517752741413075
720,16.540400594741755
619,4101.999583885605
633,1434.644930448036
659,3.1536657886930946
661,0.0
690,158.02917787129314
716,0.0
843,3965.825462533714
844,3965.825462533714
907,0.0
908,0.0
971,0.0
972,0.0
1195,1591.5505676537769
1197,1591.5505676537769
2,5, 2, 2, 0, 4, 0.00,60.00,Friday
7,-7.8