Program Version,EnergyPlus, Version 22.2.0-c249759bad, YMD=2023.08.31 13:04
1,5,Environment Title[],Latitude[deg],Longitude[deg],Time Zone[],Elevation[m]
2,8,Day of Simulation[],Month[],Day of Month[],DST Indicator[1=yes 0=no],Hour[],StartMinute[],EndMinute[],DayType
3,5,Cumulative Day of Simulation[],Month[],Day of Month[],DST Indicator[1=yes 0=no],DayType  ! When Daily Report Variables Requested
4,2,Cumulative Days of Simulation[],Month[]  ! When Monthly Report Variables Requested
5,1,Cumulative Days of Simulation[] ! When Run Period Report Variables Requested
6,1,Calendar Year of Simulation[] ! When Annual Report Variables Requested
618,11,DX_HEATING_COIL,Heating Coil Heating Energy [J] !RunPeriod [Value,Min,Month,Day,Hour,Minute,Max,Month,Day,Hour,Minute]
631,11,DX_HEATING_COIL,Heating Coil Electricity Energy [J] !RunPeriod [Value,Min,Month,Day,Hour,Minute,Max,Month,Day,Hour,Minute]
656,11,DX_HEATING_COIL,Heating Coil Defrost Electricity Energy [J] !RunPeriod [Value,Min,Month,Day,Hour,Minute,Max,Month,Day,Hour,Minute]
657,11,DX_HEATING_COIL,Heating Coil Crankcase Heater Electricity Energy [J] !RunPeriod [Value,Min,Month,Day,Hour,Minute,Max,Month,Day,Hour,Minute]
684,11,HEAT PUMP WATER HEATER EVAPORATOR,Cooling Coil Total Water Heating Energy [J] !RunPeriod [Value,Min,Month,Day,Hour,Minute,Max,Month,Day,Hour,Minute]
685,11,HEAT PUMP WATER HEATER EVAPORATOR,Cooling Coil Water Heating Electricity Energy [J] !RunPeriod [Value,Min,Month,Day,Hour,Minute,Max,Month,Day,Hour,Minute]
712,11,LIVING,AFN Zone Infiltration Air Change Rate [ach] !RunPeriod [Value,Min,Month,Day,Hour,Minute,Max,Month,Day,Hour,Minute]
713,11,ATTIC,AFN Zone Infiltration Air Change Rate [ach] !RunPeriod [Value,Min,Month,Day,Hour,Minute,Max,Month,Day,Hour,Minute]
714,11,CRAWLSPACE,AFN Zone Infiltration Air Change Rate [ach] !RunPeriod [Value,Min,Month,Day,Hour,Minute,Max,Month,Day,Hour,Minute]
1157,11,Facility,Facility Heating Setpoint Not Met Time [hr] !RunPeriod [Value,Min,Month,Day,Hour,Minute,Max,Month,Day,Hour,Minute]
1158,11,Facility,Facility Cooling Setpoint Not Met Time [hr] !RunPeriod [Value,Min,Month,Day,Hour,Minute,Max,Month,Day,Hour,Minute]
1184,11,HEATING_RESISTANCE_BACKUP,Heating Coil Heating Energy [J] !RunPeriod [Value,Min,Month,Day,Hour,Minute,Max,Month,Day,Hour,Minute]
1185,11,HEATING_RESISTANCE_BACKUP,Heating Coil Electricity Energy [J] !RunPeriod [Value,Min,Month,Day,Hour,Minute,Max,Month,Day,Hour,Minute]
1334,11,WATER HEATER TANK,Water Heater Heating Energy [J] !RunPeriod [Value,Min,Month,Day,Hour,Minute,Max,Month,Day,Hour,Minute]
13,11,Electricity:Facility [J] !RunPeriod [Value,Min,Month,Day,Hour,Minute,Max,Month,Day,Hour,Minute]
637,11,Heating:Electricity [J] !RunPeriod [Value,Min,Month,Day,Hour,Minute,Max,Month,Day,Hour,Minute]
599,11,Cooling:Electricity [J] !RunPeriod [Value,Min,Month,Day,Hour,Minute,Max,Month,Day,Hour,Minute]
692,11,Fans:Electricity [J] !RunPeriod [Value,Min,Month,Day,Hour,Minute,Max,Month,Day,Hour,Minute]
1372,11,Pumps:Electricity [J] !RunPeriod [Value,Min,Month,Day,Hour,Minute,Max,Month,Day,Hour,Minute]
677,11,WaterSystems:Electricity [J] !RunPeriod [Value,Min,Month,Day,Hour,Minute,Max,Month,Day,Hour,Minute]
61,11,InteriorLights:Electricity [J] !RunPeriod [Value,Min,Month,Day,Hour,Minute,Max,Month,Day,Hour,Minute]
1165,11,ExteriorLights:Electricity [J] !RunPeriod [Value,Min,Month,Day,Hour,Minute,Max,Month,Day,Hour,Minute]
134,11,InteriorEquipment:Electricity [J] !RunPeriod [Value,Min,Month,Day,Hour,Minute,Max,Month,Day,Hour,Minute]
170,11,gas_dryer:InteriorEquipment:Electricity [J] !RunPeriod [Value,Min,Month,Day,Hour,Minute,Max,Month,Day,Hour,Minute]
207,11,clotheswasher:InteriorEquipment:Electricity [J] !RunPeriod [Value,Min,Month,Day,Hour,Minute,Max,Month,Day,Hour,Minute]
244,11,dishwasher:InteriorEquipment:Electricity [J] !RunPeriod [Value,Min,Month,Day,Hour,Minute,Max,Month,Day,Hour,Minute]
281,11,refrigerator:InteriorEquipment:Electricity [J] !RunPeriod [Value,Min,Month,Day,Hour,Minute,Max,Month,Day,Hour,Minute]
318,11,electric_mels:InteriorEquipment:Electricity [J] !RunPeriod [Value,Min,Month,Day,Hour,Minute,Max,Month,Day,Hour,Minute]
355,11,NaturalGas:Facility [J] !RunPeriod [Value,Min,Month,Day,Hour,Minute,Max,Month,Day,Hour,Minute]
403,11,InteriorEquipment:NaturalGas [J] !RunPeriod [Value,Min,Month,Day,Hour,Minute,Max,Month,Day,Hour,Minute]
476,11,gas_dryer:InteriorEquipment:NaturalGas [J] !RunPeriod [Value,Min,Month,Day,Hour,Minute,Max,Month,Day,Hour,Minute]
513,11,gas_mels:InteriorEquipment:NaturalGas [J] !RunPeriod [Value,Min,Month,Day,Hour,Minute,Max,Month,Day,Hour,Minute]
End of Data Dictionary
1,EXTREME_WINTER,  46.84, -92.18,  -6.00, 432.00
5,7
1157,45.25,0.0, 1,20, 1,15,0.25, 1,20, 6,15
1158,0.0,0.0, 1,20, 1,15,0.0, 1,20, 1,15
618,1639760712.8506844,0.0, 1,22,23, 3,3482226.23369095, 1,26,18,60
631,689309958.3689483,0.0, 1,22,23, 3,1170088.7050575374, 1,26,20,60
656,2370353.189336842,0.0, 1,22,23, 3,21991.751642530984, 1,25, 8,60
657,136978.4618935351,0.0, 1,20, 1, 1,45000.0, 1,22,23, 3
684,219080122.73758253,0.0, 1,20, 1, 1,1312599.24485327, 1,25,12,15
685,53069737.56510933,0.0, 1,20, 1, 1,327225.945330758, 1,25,15,45
712,0.43020826699450265,0.29057689928375735, 1,26,23,11,0.8025671324504068, 1,23,15,55
713,5.398353813180993,0.3187757913970931, 1,26, 9,15,16.081270986027874, 1,21,14,50
714,6.6890366222647355,0.6384817985452468, 1,24,10,48,19.12303634052369, 1,23,15,50
1184,4516510622.755226,0.0, 1,22,23, 3,8577083.779328143, 1,20, 8,15
1185,4516510622.755226,0.0, 1,22,23, 3,8577083.779328143, 1,20, 8,15
1334,0.0,0.0, 1,20, 1, 1,0.0, 1,20, 1, 1
13,5741966157.838892,3132999.090092317, 1,26,23,15,11507332.441242961, 1,23,21,15
61,301924526.02383536,88139.10953165221, 1,20, 1,15,1282023.4113694867, 1,20,20,15
134,70666020.44019976,63564.01800854099, 1,20, 4,15,156554.22484006523, 1,25,20,15
170,5241013.419656067,348.4159749238097, 1,20, 4,15,17476.39704006126, 1,25,12,15
207,6509451.13922267,815.2532113832032, 1,20, 3,15,22990.642799023623, 1,25,10,15
244,12749673.399825225,1521.856143006317, 1,20, 4,15,53038.631142310165, 1,25,20,15
281,46165882.481495745,59938.60262432081, 1,20, 5,15,81951.81706819107, 1,20,19,15
318,0.0,0.0, 1,20, 1,15,0.0, 1,20, 1,15
355,197687796.27748066,18561.32405820678, 1,20, 4,15,724774.895203776, 1,25,18,15
403,197687796.27748066,18561.32405820678, 1,20, 4,15,724774.895203776, 1,25,18,15
476,106772067.24485716,7098.072629279515, 1,20, 4,15,356036.3026282215, 1,25,12,15
513,0.0,0.0, 1,20, 1,15,0.0, 1,20, 1,15
599,0.0,0.0, 1,20, 1,15,0.0, 1,20, 1,15
637,5208327912.775406,2375335.232392953, 1,26,23,15,9633310.410067433, 1,23, 7,15
677,58210537.565109305,7650.0, 1,20, 1,15,334875.945330758, 1,25,15,45
692,102837161.03433007,98491.5639066652, 1,22,23,15,208218.085208887, 1,22,11,30
1165,0.0,0.0, 1,20, 1,15,0.0, 1,20, 1,15
1372,0.0,0.0, 1,20, 1,15,0.0, 1,20, 1,15
1,EXTREME_SUMMER,  46.84, -92.18,  -6.00, 432.00
5,7
1157,0.0,0.0, 7,13, 1,15,0.0, 7,13, 1,15
1158,23.75,0.0, 7,13, 1,15,0.25, 7,16,14,30
618,0.0,0.0, 7,13, 1,15,0.0, 7,13, 1,15
631,0.0,0.0, 7,13, 1,15,0.0, 7,13, 1,15
656,0.0,0.0, 7,13, 1,15,0.0, 7,13, 1,15
657,0.0,0.0, 7,13, 1,15,0.0, 7,13, 1,15
684,177935498.30866483,0.0, 7,13, 1,15,1789614.0290068188, 7,14, 7,45
685,33797291.406551525,0.0, 7,13, 1,15,369628.19530415395, 7,16,13,15
712,0.1649317927913716,0.0, 7,14,21,45,0.49125711275186285, 7,18,17,52
713,4.756504050793563,0.0, 7,15, 7,22,15.201104966486952, 7,18,16,52
714,5.259496690443122,0.0, 7,14,23, 5,17.521139644536728, 7,18,16,52
1184,0.0,0.0, 7,13, 1,15,0.0, 7,13, 1,15
1185,0.0,0.0, 7,13, 1,15,0.0, 7,13, 1,15
1334,0.0,0.0, 7,13, 1,15,0.0, 7,13, 1,15
13,825149743.9335034,159353.1275401932, 7,13, 4,15,3316486.5775331464, 7,18,20,15
61,301924526.02383536,88139.10953165221, 7,13, 1,15,1282023.4113694867, 7,13,20,15
134,70666020.44019976,63564.01800854099, 7,13, 4,15,156554.22484006523, 7,18,20,15
170,5241013.419656067,348.4159749238097, 7,13, 4,15,17476.39704006126, 7,18,12,15
207,6509451.13922267,815.2532113832032, 7,13, 3,15,22990.642799023623, 7,18,10,15
244,12749673.399825225,1521.856143006317, 7,13, 4,15,53038.631142310165, 7,18,20,15
281,46165882.481495745,59938.60262432081, 7,13, 5,15,81951.81706819107, 7,13,19,15
318,0.0,0.0, 7,13, 1,15,0.0, 7,13, 1,15
355,197687796.27748066,18561.32405820678, 7,13, 4,15,724774.895203776, 7,18,18,15
403,197687796.27748066,18561.32405820678, 7,13, 4,15,724774.895203776, 7,18,18,15
476,106772067.24485716,7098.072629279515, 7,13, 4,15,356036.3026282215, 7,18,12,15
513,0.0,0.0, 7,13, 1,15,0.0, 7,13, 1,15
599,366203958.3763305,0.0, 7,13, 3,60,1405924.6219799593, 7,18,15,60
637,0.0,0.0, 7,13, 1,15,0.0, 7,13, 1,15
677,38938091.40655154,7650.0, 7,13, 1,15,377354.23773038964, 7,18,13,15
692,47417147.6865869,0.0, 7,13, 3,60,208218.08520888697, 7,16,19,30
1165,0.0,0.0, 7,13, 1,15,0.0, 7,13, 1,15
1372,0.0,0.0, 7,13, 1,15,0.0, 7,13, 1,15
1,ANNUAL,  46.84, -92.18,  -6.00, 432.00
5,365
1157,191.0,0.0, 1, 1, 1,15,0.25, 1,12, 3,30
1158,72.75,0.0, 1, 1, 1,15,0.25, 6,20,13,60
618,53200386158.60704,0.0, 1, 1,23, 3,5279577.319032484,12, 4, 9,30
631,16984887359.353424,0.0, 1, 1,23, 3,1305115.8783573923,12, 4, 9,30
656,552668008.1622461,0.0, 1, 1,23, 3,149256.6529201565, 4,19, 8,60
657,1300983549.6690948,0.0, 1, 1, 1, 1,180000.0, 2, 8,15,60
684,10497492881.679235,0.0, 1, 1, 1, 1,1863393.2163991535, 9, 1, 8,45
685,2235178183.553437,0.0, 1, 1, 1, 1,376703.6940516933, 8,31,13,15
712,0.2923546324231536,0.0, 7, 6,17,52,1.3269241285804971, 3, 1,20,60
713,5.493090023658044,0.0, 1, 4,22,60,38.87175845029209, 3, 1,20,60
714,6.049591580189528,0.0, 7,14,23, 5,36.15181335322452, 3, 1,20,60
1184,32745109778.179184,0.0, 1, 1,23, 3,8577083.779328143, 1,20, 6,15
1185,32745109778.179184,0.0, 1, 1,23, 3,8577083.779328143, 1,20, 6,15
1334,0.0,0.0, 1, 1, 1, 1,0.0, 1, 1, 1, 1
13,79821223992.93529,159353.1275401932, 5,24, 4,30,11530657.930870539, 1,31,20,45
61,15743207428.383959,88139.10953165221, 1, 1, 1,15,1282023.4113694867, 1, 1,20,15
134,3685071073.4325233,63564.01800854099, 1, 2, 4,15,156554.22484006523, 1, 1,20,15
170,273393721.45532674,348.4159749238097, 1, 2, 4,15,17476.39704006126, 1, 1,12,15
207,339560869.0695816,815.2532113832032, 1, 2, 3,15,22990.642799023623, 1, 1,10,15
244,664895467.8009144,1521.856143006317, 1, 2, 4,15,53038.631142310165, 1, 1,20,15
281,2407221015.106824,59938.60262432081, 1, 1, 5,15,81951.81706819107, 1, 1,19,15
318,0.0,0.0, 1, 1, 1,15,0.0, 1, 1, 1,15
355,10310294493.051695,18561.32405820678, 1, 2, 4,15,724774.895203776, 1, 1,18,15
403,10310294493.051695,18561.32405820678, 1, 2, 4,15,724774.895203776, 1, 1,18,15
476,5569688622.066177,7098.072629279515, 1, 2, 4,15,356036.3026282215, 1, 1,12,15
513,0.0,0.0, 1, 1, 1,15,0.0, 1, 1, 1,15
599,3417315626.803116,0.0, 1, 1, 1,15,1406885.808712927, 7,18,15,60
637,51583648695.36407,0.0, 3,12,16,60,9670162.75466132, 1,19,19,30
677,2503234183.553441,7650.0, 1, 1, 1,30,384353.6940516933, 8,31,13,15
692,2888746985.396935,0.0, 2, 8,15,60,208218.085208887, 1, 5,11,45
1165,0.0,0.0, 1, 1, 1,15,0.0, 1, 1, 1,15
1372,0.0,0.0, 1, 1, 1,15,0.0, 1, 1, 1,15
End of Data
 Number of Records Written=          96
