Program Version,EnergyPlus, Version 22.2.0-c249759bad, YMD=2023.09.01 14:32
1,5,Environment Title[],Latitude[deg],Longitude[deg],Time Zone[],Elevation[m]
2,8,Day of Simulation[],Month[],Day of Month[],DST Indicator[1=yes 0=no],Hour[],StartMinute[],EndMinute[],DayType
3,5,Cumulative Day of Simulation[],Month[],Day of Month[],DST Indicator[1=yes 0=no],DayType  ! When Daily Report Variables Requested
4,2,Cumulative Days of Simulation[],Month[]  ! When Monthly Report Variables Requested
5,1,Cumulative Days of Simulation[] ! When Run Period Report Variables Requested
6,1,Calendar Year of Simulation[] ! When Annual Report Variables Requested
7,1,Environment,Site Outdoor Air Drybulb Temperature [C] !Hourly
545,1,LIVING,Zone Mean Air Temperature [C] !Hourly
546,1,ATTIC,Zone Mean Air Temperature [C] !Hourly
547,1,CRAWLSPACE,Zone Mean Air Temperature [C] !Hourly
548,1,FAN,Fan Electricity Rate [W] !Hourly
720,1,LIVING,Zone Predicted Sensible Load to Heating Setpoint Heat Transfer Rate [W] !Hourly
721,1,LIVING,Zone System Predicted Sensible Load to Heating Setpoint Heat Transfer Rate [W] !Hourly
784,1,ATTIC,Zone Predicted Sensible Load to Heating Setpoint Heat Transfer Rate [W] !Hourly
785,1,ATTIC,Zone System Predicted Sensible Load to Heating Setpoint Heat Transfer Rate [W] !Hourly
848,1,CRAWLSPACE,Zone Predicted Sensible Load to Heating Setpoint Heat Transfer Rate [W] !Hourly
849,1,CRAWLSPACE,Zone System Predicted Sensible Load to Heating Setpoint Heat Transfer Rate [W] !Hourly
1121,1,DX_HEATING_COIL,Heating Coil Heating Rate [W] !Hourly
1135,1,DX_HEATING_COIL,Heating Coil Electricity Rate [W] !Hourly
1161,1,DX_HEATING_COIL,Heating Coil Defrost Electricity Rate [W] !Hourly
1163,1,DX_HEATING_COIL,Heating Coil Crankcase Heater Electricity Rate [W] !Hourly
1166,1,HEATING_RESISTANCE_BACKUP,Heating Coil Heating Rate [W] !Hourly
1168,1,HEATING_RESISTANCE_BACKUP,Heating Coil Electricity Rate [W] !Hourly
End of Data Dictionary
1,EXTREME_WINTER,  47.63,-117.53,  -8.00, 717.20
2,1, 1, 1, 0, 1, 0.00,60.00,Monday
7,-19.4
545,18.599685260833404
546,-6.770533501837103
547,18.40098992989716
548,161.02322658204147
720,4487.503542717899
721,4487.503542717899
784,0.0
785,0.0
848,0.0
849,0.0
1121,2879.2726270597855
1135,1297.6625461638234
1161,15.747841540593111
1163,0.0
1166,3464.438124414525
1168,3464.438124414525
2,1, 1, 1, 0, 2, 0.00,60.00,Monday
7,-19.4
545,18.56741256958357
546,-7.748386080794952
547,17.99476303496364
548,161.02322658204147
720,4885.72547955202
721,4885.72547955202
784,0.0
785,0.0
848,0.0
849,0.0
1121,2881.9115904253695
1135,1295.2789737048336
1161,15.747841540593111
1163,0.0
1166,3991.354844852645
1168,3991.354844852645
2,1, 1, 1, 0, 3, 0.00,60.00,Monday
7,-18.0
545,18.56598596553637
546,-8.09714646704806
547,17.79658729017344
548,161.02322658204147
720,4922.790311776187
721,4922.790311776187
784,0.0
785,0.0
848,0.0
849,0.0
1121,3042.0889746925764
1135,1322.4804736379542
1161,9.951432297699657
1163,0.0
1166,3945.8104806155493
1168,3945.8104806155493
2,1, 1, 1, 0, 4, 0.00,60.00,Monday
7,-15.6
545,18.575161095660906
546,-7.839968722409433
547,17.57317137105442
548,161.02322658204147
720,4767.7912095757165
721,4767.7912095757165
784,0.0
785,0.0
848,0.0
849,0.0
1121,3273.401998203487
1135,1346.882829866703
1161,18.490161335999623
1163,0.0
1166,3570.247523492351
1168,3570.247523492351
2,1, 1, 1, 0, 5, 0.00,60.00,Monday
7,-15.6
545,18.577147169761826
546,-8.440550299537307
547,17.356510467233246
548,161.02322658204147
720,4854.10198594378
721,4854.10198594378
784,0.0
785,0.0
848,0.0
849,0.0
1121,3273.434455919813
1135,1346.850405835262
1161,18.490161335999623
1163,0.0
1166,3664.0689063239333
1168,3664.0689063239333
2,1, 1, 1, 0, 6, 0.00,60.00,Monday
7,-14.0
545,19.32697233561861
546,-8.376803459625636
547,17.163497022728983
548,161.02322658204147
720,5908.464877934248
721,5908.464877934248
784,0.0
785,0.0
848,0.0
849,0.0
1121,3431.1105746568905
1135,1361.2512984031935
1161,24.533191815164795
1163,0.0
1166,4755.779500542667
1168,4755.779500542667
2,1, 1, 1, 0, 7, 0.00,60.00,Monday
7,-17.0
545,19.56506510547273
546,-8.176062120176894
547,16.97113154770024
548,161.02322658204147
720,6072.3703405509
721,6072.3703405509
784,0.0
785,0.0
848,0.0
849,0.0
1121,3094.616737222161
1135,1338.2331811897463
1161,22.664275501010035
1163,0.0
1166,5363.5269208687805
1168,5363.5269208687805
2,1, 1, 1, 0, 8, 0.00,60.00,Monday
7,-16.7
545,19.651064868718038
546,-8.012100087061446
547,16.796676875466012
548,161.02322658204147
720,5642.6721184847775
721,5642.6721184847775
784,0.0
785,0.0
848,0.0
849,0.0
1121,3139.5111555767157
1135,1355.9502410619186
1161,16.097399105695402
1163,0.0
1166,4849.749622613679
1168,4849.749622613679
2,1, 1, 1, 0, 9, 0.00,60.00,Monday
7,-16.7
545,19.67231966171106
546,-7.844337672083677
547,16.617800357597634
548,161.02322658204147
720,5597.94916184125
721,5597.94916184125
784,0.0
785,0.0
848,0.0
849,0.0
1121,3137.7262892270137
1135,1357.7254627292978
1161,16.08192746146262
1163,0.0
1166,4795.415161056175
1168,4795.415161056175
2,1, 1, 1, 0,10, 0.00,60.00,Monday
7,-16.0
545,19.70285010374476
546,-4.9785525439078375
547,16.45267597926583
548,161.02322658204147
720,4627.857078905068
721,4627.857078905068
784,0.0
785,0.0
848,0.0
849,0.0
1121,3202.9000221143456
1135,1364.540780729069
1161,19.341349962627547
1163,0.0
1166,3605.572888375445
1168,3605.572888375445
2,1, 1, 1, 0,11, 0.00,60.00,Monday
7,-17.2
545,19.722438468291944
546,-1.6114793381560724
547,16.287038158701016
548,161.02322658204147
720,4074.6876359185426
721,4074.6876359185426
784,0.0
785,0.0
848,0.0
849,0.0
1121,3060.5584785003525
1135,1340.5460403393668
1161,24.496875371505944
1163,0.0
1166,2960.3389919023443
1168,2960.3389919023443
2,1, 1, 1, 0,12, 0.00,60.00,Monday
7,-14.4
545,19.75092319312565
546,2.3285299000678465
547,16.18271195452443
548,161.02322658204147
720,3083.1394779000657
721,3083.1394779000657
784,0.0
785,0.0
848,0.0
849,0.0
1121,3333.7564526800415
1135,1371.0596474068054
1161,33.38719730612638
1163,0.0
1166,1358.841845193525
1168,1358.841845193525
2,1, 1, 1, 0,13, 0.00,60.00,Monday
7,-10.0
545,19.884260604967007
546,6.11798416083262
547,16.117648382696203
548,141.12715438272016
720,2098.2861579814034
721,2098.2861579814034
784,0.0
785,0.0
848,0.0
849,0.0
1121,3319.3245458419815
1135,1268.4378194604778
1161,27.88140891158442
1163,23.090893167459157
1166,0.0
1168,0.0
2,1, 1, 1, 0,14, 0.00,60.00,Monday
7,-10.0
545,19.95029361517106
546,7.018751926707739
547,16.053355219038004
548,100.49398929580816
720,1506.2192927268607
721,1506.2192927268607
784,0.0
785,0.0
848,0.0
849,0.0
1121,2290.4425793280166
1135,905.6078098968268
1161,19.85398850628638
1163,74.02532688183803
1166,0.0
1168,0.0
2,1, 1, 1, 0,15, 0.00,60.00,Monday
7,-10.0
545,19.888996238415302
546,6.1061817228312
547,16.011778022423638
548,74.9023206316102
720,1134.2411534137955
721,1134.2411534137955
784,0.0
785,0.0
848,0.0
849,0.0
1121,1667.0377196998725
1135,673.7517321555572
1161,17.196546162897285
1163,105.96271493244897
1166,0.0
1168,0.0
2,1, 1, 1, 0,16, 0.00,60.00,Monday
7,-11.7
545,19.653786193327594
546,3.939989901879691
547,15.969364278757228
548,85.9352914025403
720,1298.8754701577946
721,1298.8754701577946
784,0.0
785,0.0
848,0.0
849,0.0
1121,1830.433618427473
1135,761.4826021587579
1161,19.325465214329675
1163,91.95895852173344
1166,0.0
1168,0.0
2,1, 1, 1, 0,17, 0.00,60.00,Monday
7,-11.7
545,19.515454024051607
546,1.481118710005366
547,15.921882547319267
548,133.8950400827393
720,2133.515797863365
721,2133.515797863365
784,0.0
785,0.0
848,0.0
849,0.0
1121,2961.104863096737
1135,1181.0324516480437
1161,30.11024028860827
1163,31.665541612425407
1166,0.0
1168,0.0
2,1, 1, 1, 0,18, 0.00,60.00,Monday
7,-15.0
545,19.483876802697807
546,-1.8212986495978625
547,15.838817175835098
548,161.02322658204147
720,2744.222865592794
721,2744.222865592794
784,0.0
785,0.0
848,0.0
849,0.0
1121,3292.3151303599207
1135,1364.8078904397282
1161,27.234135005222118
1163,0.0
1166,691.287071638932
1168,691.287071638932
2,1, 1, 1, 0,19, 0.00,60.00,Monday
7,-14.4
545,19.601880901490905
546,-3.21646103518988
547,15.781484167672279
548,161.02322658204147
720,2839.9488105546225
721,2839.9488105546225
784,0.0
785,0.0
848,0.0
849,0.0
1121,3366.2742564999658
1135,1375.5196836505427
1161,24.81154383681569
1163,0.0
1166,942.706934466135
1168,942.706934466135
2,1, 1, 1, 0,20, 0.00,60.00,Monday
7,-14.4
545,19.65842363644823
546,-4.190888456524633
547,15.699676770885631
548,161.02322658204147
720,2937.067409147854
721,2937.067409147854
784,0.0
785,0.0
848,0.0
849,0.0
1121,3363.536745041733
1135,1378.3008488044948
1161,24.81154383681569
1163,0.0
1166,1166.209199164839
1168,1166.209199164839
2,1, 1, 1, 0,21, 0.00,60.00,Monday
7,-13.3
545,19.686331724416544
546,-4.588611067667069
547,15.615643456421532
548,161.02322658204147
720,2939.9080068534768
721,2939.9080068534768
784,0.0
785,0.0
848,0.0
849,0.0
1121,3471.352141646638
1135,1389.6281621933117
1161,29.075911909441
1163,0.0
1166,1131.458878720467
1168,1131.458878720467
2,1, 1, 1, 0,22, 0.00,60.00,Monday
7,-14.4
545,19.68719288899885
546,-4.982033465060258
547,15.501881655491083
548,161.02322658204147
720,3413.8048665822334
721,3413.8048665822334
784,0.0
785,0.0
848,0.0
849,0.0
1121,3348.5452525740247
1135,1374.7189015444299
1161,29.11422287365669
1163,0.0
1166,1832.0613505790386
1168,1832.0613505790386
2,1, 1, 1, 0,23, 0.00,60.00,Monday
7,-14.4
545,18.96469242572186
546,-5.478814607247154
547,15.394308100054342
548,161.02322658204147
720,2788.2061959228704
721,2788.2061959228704
784,0.0
785,0.0
848,0.0
849,0.0
1121,3348.6675638668466
1135,1374.5948134198075
1161,29.11422287365669
1163,0.0
1166,1148.315806795642
1168,1148.315806795642
2,1, 1, 1, 0,24, 0.00,60.00,Monday
7,-13.3
545,18.718433828493758
546,-5.6089910171149375
547,15.255510917824475
548,161.02322658204147
720,3180.9327997387736
721,3180.9327997387736
784,0.0
785,0.0
848,0.0
849,0.0
1121,3488.2086156730734
1135,1372.054160800616
1161,29.0786426959952
1163,0.0
1166,1425.6368695300573
1168,1425.6368695300573
2,2, 1, 2, 0, 1, 0.00,60.00,Tuesday
7,-13.9
545,18.620259793454956
546,-6.190241477046762
547,15.123951283005328
548,161.02322658204147
720,3881.4882376002242
721,3881.4882376002242
784,0.0
785,0.0
848,0.0
849,0.0
1121,3433.115393843698
1135,1360.1442485688506
1161,27.18658924137498
1163,0.0
1166,2285.442257802606
1168,2285.442257802606
2,2, 1, 2, 0, 2, 0.00,60.00,Tuesday
7,-13.9
545,18.58769091176678
546,-6.313359031716932
547,14.997786915656114
548,161.02322658204147
720,4256.370282941049
721,4256.370282941049
784,0.0
785,0.0
848,0.0
849,0.0
1121,3435.58116788579
1135,1357.5902601814755
1161,27.18658924137498
1163,0.0
1166,2754.075394620687
1168,2754.075394620687
2,2, 1, 2, 0, 3, 0.00,60.00,Tuesday
7,-13.9
545,18.581313839397218
546,-6.160077154456775
547,14.872189672362122
548,161.02322658204147
720,4433.3711690916025
721,4433.3711690916025
784,0.0
785,0.0
848,0.0
849,0.0
1121,3436.489860609496
1135,1356.6369427933876
1161,27.189147909688263
1163,0.0
1166,2976.6927663311617
1168,2976.6927663311617
2,2, 1, 2, 0, 4, 0.00,60.00,Tuesday
7,-13.0
545,18.582039767822078
546,-6.135758533838857
547,14.754654288793805
548,161.02322658204147
720,4563.204459049173
721,4563.204459049173
784,0.0
785,0.0
848,0.0
849,0.0
1121,3536.684072565444
1135,1367.8135742076315
1161,27.526139754647204
1163,0.0
1166,3027.5244227574835
1168,3027.5244227574835
2,2, 1, 2, 0, 5, 0.00,60.00,Tuesday
7,-12.8
545,18.586593558212634
546,-5.647825399646818
547,14.634694625565647
548,161.02322658204147
720,4455.896731564417
721,4455.896731564417
784,0.0
785,0.0
848,0.0
849,0.0
1121,3549.004443272099
1135,1366.2511813205974
1161,30.747695020440005
1163,0.0
1166,2897.1918525625424
1168,2897.1918525625424
2,2, 1, 2, 0, 6, 0.00,60.00,Tuesday
7,-11.1
545,19.341011413877442
546,-5.381435297031057
547,14.53028666751128
548,161.02322658204147
720,5462.335532066085
721,5462.335532066085
784,0.0
785,0.0
848,0.0
849,0.0
1121,3723.083331724227
1135,1380.0379363573234
1161,36.98968846722263
1163,0.0
1166,3862.883399683251
1168,3862.883399683251
2,2, 1, 2, 0, 7, 0.00,60.00,Tuesday
7,-11.1
545,19.589781745546233
546,-4.58773427802266
547,14.449653153125906
548,161.02322658204147
720,5177.003467868246
721,5177.003467868246
784,0.0
785,0.0
848,0.0
849,0.0
1121,3705.344454404058
1135,1399.343435358221
1161,36.982793853194266
1163,0.0
1166,3616.7467240376054
1168,3616.7467240376054
2,2, 1, 2, 0, 8, 0.00,60.00,Tuesday
7,-11.1
545,19.671066762169712
546,-4.368629337371551
547,14.350304393834561
548,161.02322658204147
720,4874.071013955867
721,4874.071013955867
784,0.0
785,0.0
848,0.0
849,0.0
1121,3699.5036295453842
1135,1405.6701804865147
1161,36.982793853194266
1163,0.0
1166,3256.77266919359
1168,3256.77266919359
2,2, 1, 2, 0, 9, 0.00,60.00,Tuesday
7,-11.1
545,19.70737830460383
546,-3.0531087778892325
547,14.256665431898819
548,161.02322658204147
720,4114.543130346223
721,4114.543130346223
784,0.0
785,0.0
848,0.0
849,0.0
1121,3678.461007460769
1135,1400.3194726825902
1161,42.62231098740327
1163,0.0
1166,2390.6952466115526
1168,2390.6952466115526
2,2, 1, 2, 0,10, 0.00,60.00,Tuesday
7,-9.4
545,19.735178244149687
546,0.003940791414937166
547,14.187303310852196
548,161.02322658204147
720,3168.3519664424603
721,3168.3519664424603
784,0.0
785,0.0
848,0.0
849,0.0
1121,3871.0342791582198
1135,1421.0064408684882
1161,44.21674738057926
1163,0.0
1166,1031.9687737462418
1168,1031.9687737462418
2,2, 1, 2, 0,11, 0.00,60.00,Tuesday
7,-9.4
545,19.727368056750652
546,0.33483850093375045
547,14.117742731111472
548,161.02322658204147
720,3619.9659658264463
721,3619.9659658264463
784,0.0
785,0.0
848,0.0
849,0.0
1121,3870.4575554823973
1135,1421.6468441716502
1161,44.21674738057926
1163,0.0
1166,1380.3614351095216
1168,1380.3614351095216
2,2, 1, 2, 0,12, 0.00,60.00,Tuesday
7,-7.8
545,19.735528098226602
546,2.264877173791802
547,14.071643019589452
548,161.02322658204147
720,2960.6998382448564
721,2960.6998382448564
784,0.0
785,0.0
848,0.0
849,0.0
1121,4078.7020925789566
1135,1447.0691268554467
1161,40.11734592004828
1163,0.0
1166,385.3746308696609
1168,385.3746308696609
2,2, 1, 2, 0,13, 0.00,60.00,Tuesday
7,-7.2
545,19.75644054394817
546,4.353817134057962
547,14.024161932122452
548,157.80575829862593
720,2696.830895956955
721,2696.830895956955
784,0.0
785,0.0
848,0.0
849,0.0
1121,4054.1669806758036
1135,1436.0816726321493
1161,42.333722614024516
1163,2.0856383497149134
1166,0.0
1168,0.0
2,2, 1, 2, 0,14, 0.00,60.00,Tuesday
7,-7.2
545,19.87787563449398
546,5.681715177968703
547,13.965893383213125
548,120.68731404040038
720,1997.2898583486021
721,1997.2898583486021
784,0.0
785,0.0
848,0.0
849,0.0
1121,3013.470051910835
1135,1098.8838887099064
1161,32.376203885625536
1163,48.63802828999786
1166,0.0
1168,0.0
2,2, 1, 2, 0,15, 0.00,60.00,Tuesday
7,-6.7
545,19.895404834725014
546,6.21437737444575
547,13.936476913770354
548,94.01385521226794
720,1589.3457391853972
721,1589.3457391853972
784,0.0
785,0.0
848,0.0
849,0.0
1121,2339.529255161038
1135,862.9874760152034
1161,23.63732947773304
1163,82.21529633887059
1166,0.0
1168,0.0
2,2, 1, 2, 0,16, 0.00,60.00,Tuesday
7,-8.9
545,19.7244973075483
546,4.4226866233046
547,13.9194069354868
548,91.02738462284445
720,1468.6982651441158
721,1468.6982651441158
784,0.0
785,0.0
848,0.0
849,0.0
1121,2113.7911684819487
1135,821.0266486884652
1161,23.525509608461157
1163,85.69168425690611
1166,0.0
1168,0.0
2,2, 1, 2, 0,17, 0.00,60.00,Tuesday
7,-8.9
545,19.613051119207803
546,2.319236389220115
547,13.933453133337263
548,123.1241832988009
720,2089.7242153930165
721,2089.7242153930165
784,0.0
785,0.0
848,0.0
849,0.0
1121,2931.639783500566
1135,1106.74305238549
1161,31.820360420247287
1163,45.3877570980024
1166,0.0
1168,0.0
2,2, 1, 2, 0,18, 0.00,60.00,Tuesday
7,-13.9
545,19.46674531512152
546,-2.569481752338163
547,13.89372763695545
548,161.02322658204147
720,2866.8532674804446
721,2866.8532674804446
784,0.0
785,0.0
848,0.0
849,0.0
1121,3402.4521803019056
1135,1375.697828418043
1161,30.775350419870087
1163,0.0
1166,736.6697589828236
1168,736.6697589828236
2,2, 1, 2, 0,19, 0.00,60.00,Tuesday
7,-13.3
545,19.590591449986256
546,-3.986972625010199
547,13.866232854265405
548,161.02322658204147
720,3035.446861793076
721,3035.446861793076
784,0.0
785,0.0
848,0.0
849,0.0
1121,3466.153783884392
1135,1377.6870647218618
1161,32.86711431432631
1163,0.0
1166,1148.37261788774
1168,1148.37261788774
2,2, 1, 2, 0,20, 0.00,60.00,Tuesday
7,-13.3
545,19.654647396675905
546,-5.42370480724935
547,13.820301788936323
548,161.02322658204147
720,3127.038145447639
721,3127.038145447639
784,0.0
785,0.0
848,0.0
849,0.0
1121,3463.253612896332
1135,1380.7051329183253
1161,32.86711431432631
1163,0.0
1166,1379.0888084899857
1168,1379.0888084899857
2,2, 1, 2, 0,21, 0.00,60.00,Tuesday
7,-15.0
545,19.675396139738584
546,-5.378220815690839
547,13.744021458670714
548,161.02322658204147
720,3336.8405940502307
721,3336.8405940502307
784,0.0
785,0.0
848,0.0
849,0.0
1121,3288.021855544635
1135,1363.9540456812917
1161,28.444158570239424
1163,0.0
1166,1884.3987807601188
1168,1884.3987807601188
2,2, 1, 2, 0,22, 0.00,60.00,Tuesday
7,-15.0
545,19.685435627949413
546,-6.032317593049906
547,13.671287897050458
548,161.02322658204147
720,3653.1272003905724
721,3653.1272003905724
784,0.0
785,0.0
848,0.0
849,0.0
1121,3287.6292361941996
1135,1364.3475665603512
1161,28.444158570239424
1163,0.0
1166,2267.9699308722097
1168,2267.9699308722097
2,2, 1, 2, 0,23, 0.00,60.00,Tuesday
7,-16.7
545,18.945584155763044
546,-7.207451704293567
547,13.571988046567531
548,161.02322658204147
720,3321.3700421642625
721,3321.3700421642625
784,0.0
785,0.0
848,0.0
849,0.0
1121,3112.8972979239948
1135,1342.6543495824249
1161,25.92513624390346
1163,0.0
1166,2106.649353211751
1168,2106.649353211751
2,2, 1, 2, 0,24, 0.00,60.00,Tuesday
7,-15.6
545,18.70075288757159
546,-7.013189079276836
547,13.45811887739448
548,161.02322658204147
720,3656.0236710827467
721,3656.0236710827467
784,0.0
785,0.0
848,0.0
849,0.0
1121,3237.5358320416162
1135,1337.439210074453
1161,29.30734432706079
1163,0.0
1166,2369.0735887440032
1168,2369.0735887440032
2,3, 1, 3, 0, 1, 0.00,60.00,Wednesday
7,-13.9
545,18.620623918094342
546,-6.87043751964519
547,13.365257374145862
548,161.02322658204147
720,3956.628700632262
721,3956.628700632262
784,0.0
785,0.0
848,0.0
849,0.0
1121,3424.4728360031204
1135,1352.9379952455877
1161,30.784012668474894
1163,0.0
1166,2514.986809822748
1168,2514.986809822748
2,3, 1, 3, 0, 2, 0.00,60.00,Wednesday
7,-13.9
545,18.59058462300574
546,-6.495068463432454
547,13.25729610009103
548,161.02322658204147
720,4327.195333188531
721,4327.195333188531
784,0.0
785,0.0
848,0.0
849,0.0
1121,3426.4582342307
1135,1350.8796448513672
1161,30.784012668474894
1163,0.0
1166,2934.691511989037
1168,2934.691511989037
2,3, 1, 3, 0, 3, 0.00,60.00,Wednesday
7,-11.0
545,18.59445787598546
546,-5.891824094907687
547,13.178571590148147
548,161.02322658204147
720,4154.086939233681
721,4154.086939233681
784,0.0
785,0.0
848,0.0
849,0.0
1121,3713.1751494187292
1135,1370.9874179327628
1161,43.708036902755516
1163,0.0
1166,2437.5203799151022
1168,2437.5203799151022
2,3, 1, 3, 0, 4, 0.00,60.00,Wednesday
7,-10.0
545,18.59487787780583
546,-5.1474929578469055
547,13.085632084580013
548,161.02322658204147
720,4179.683433983882
721,4179.683433983882
784,0.0
785,0.0
848,0.0
849,0.0
1121,3815.3547219625166
1135,1378.0799996421251
1161,47.77541361736514
1163,0.0
1166,2335.8243082594154
1168,2335.8243082594154
2,3, 1, 3, 0, 5, 0.00,60.00,Wednesday
7,-10.0
545,18.596624543113183
546,-4.623651874582903
547,12.994530156283144
548,161.02322658204147
720,4170.8447209870155
721,4170.8447209870155
784,0.0
785,0.0
848,0.0
849,0.0
1121,3815.462337913361
1135,1377.960920859556
1161,47.77541361736514
1163,0.0
1166,2288.889792860451
1168,2288.889792860451
2,3, 1, 3, 0, 6, 0.00,60.00,Wednesday
7,-9.4
545,19.348226593280597
546,-3.943544953018791
547,12.914731563109909
548,161.02322658204147
720,5145.613001229436
721,5145.613001229436
784,0.0
785,0.0
848,0.0
849,0.0
1121,3880.2392184607093
1135,1383.0421268565392
1161,49.429574654985494
1163,0.0
1166,3317.8297730414074
1168,3317.8297730414074
2,3, 1, 3, 0, 7, 0.00,60.00,Wednesday
7,-9.4
545,19.59617141655978
546,-3.515285528871048
547,12.86963543420759
548,161.02322658204147
720,4886.9995545060465
721,4886.9995545060465
784,0.0
785,0.0
848,0.0
849,0.0
1121,3862.610524048546
1135,1402.7034520067953
1161,49.425022746723926
1163,0.0
1166,3081.0681878153946
1168,3081.0681878153946
2,3, 1, 3, 0, 8, 0.00,60.00,Wednesday
7,-9.4
545,19.675244571178922
546,-3.2625242301910147
547,12.804101078751467
548,161.02322658204147
720,4553.637581025267
721,4553.637581025267
784,0.0
785,0.0
848,0.0
849,0.0
1121,3856.7701072528776
1135,1409.1972995461194
1161,49.425022746723926
1163,0.0
1166,2700.059441985042
1168,2700.059441985042
2,3, 1, 3, 0, 9, 0.00,60.00,Wednesday
7,-8.9
545,19.714113278577493
546,-1.3163523022873604
547,12.74836426225799
548,161.02322658204147
720,3694.9721317620006
721,3694.9721317620006
784,0.0
785,0.0
848,0.0
849,0.0
1121,3900.1399237039604
1135,1412.3784896888606
1161,53.29860722095601
1163,0.0
1166,1655.2517747310949
1168,1655.2517747310949
2,3, 1, 3, 0,10, 0.00,60.00,Wednesday
7,-8.3
545,19.737226211093116
546,1.3350358558921505
547,12.70302552921634
548,161.02322658204147
720,3025.190551878848
721,3025.190551878848
784,0.0
785,0.0
848,0.0
849,0.0
1121,3958.8055225924027
1135,1416.5161838458832
1161,56.54578200030854
1163,0.0
1166,717.8906631456775
1168,717.8906631456775
2,3, 1, 3, 0,11, 0.00,60.00,Wednesday
7,-8.3
545,19.728292801681704
546,1.7342111525314114
547,12.66797776957306
548,161.02322658204147
720,3461.4868101865122
721,3461.4868101865122
784,0.0
785,0.0
848,0.0
849,0.0
1121,3958.3150322113956
1135,1417.0690963296117
1161,56.54578200030854
1163,0.0
1166,1068.7263374412455
1168,1068.7263374412455
2,3, 1, 3, 0,12, 0.00,60.00,Wednesday
7,-7.2
545,19.717715975911695
546,0.9943317919840281
547,12.645594448194501
548,161.02322658204147
720,3648.411141199911
721,3648.411141199911
784,0.0
785,0.0
848,0.0
849,0.0
1121,4096.15375837118
1135,1432.0755065347305
1161,55.29036581047885
1163,0.0
1166,1117.1324692963644
1168,1117.1324692963644
2,3, 1, 3, 0,13, 0.00,60.00,Wednesday
7,-7.2
545,19.713852307799414
546,1.3270436806699242
547,12.612358844368435
548,161.02322658204147
720,3546.4016979178705
721,3546.4016979178705
784,0.0
785,0.0
848,0.0
849,0.0
1121,4096.3534766995235
1135,1431.7313423555076
1161,55.31062321994862
1163,0.0
1166,1032.2651636155915
1168,1032.2651636155915
2,3, 1, 3, 0,14, 0.00,60.00,Wednesday
7,-7.2
545,19.714887984445983
546,1.1218644429179563
547,12.579117868674619
548,161.02322658204147
720,3562.4247809025965
721,3562.4247809025965
784,0.0
785,0.0
848,0.0
849,0.0
1121,4096.490261396921
1135,1431.5751202024173
1161,55.31062321994862
1163,0.0
1166,1038.3649854290625
1168,1038.3649854290625
2,3, 1, 3, 0,15, 0.00,60.00,Wednesday
7,-6.1
545,19.71880529879212
546,1.434547278802265
547,12.553472470322946
548,161.02322658204147
720,3357.8980281363765
721,3357.8980281363765
784,0.0
785,0.0
848,0.0
849,0.0
1121,4226.802635988372
1135,1443.3888835093007
1161,56.58913875183174
1163,0.0
1166,680.8710181526644
1168,680.8710181526644
2,3, 1, 3, 0,16, 0.00,60.00,Wednesday
7,-6.1
545,19.71979381132897
546,1.19471497798385
547,12.51760539165492
548,161.02322658204147
720,3326.1486560115227
721,3326.1486560115227
784,0.0
785,0.0
848,0.0
849,0.0
1121,4206.462818447514
1135,1436.534025015512
1161,61.699316467856775
1163,0.0
1166,647.5121710246794
1168,647.5121710246794
2,3, 1, 3, 0,17, 0.00,60.00,Wednesday
7,-6.1
545,19.72127681142145
546,0.6270912916813095
547,12.483977203650177
548,161.02322658204147
720,3144.299527769401
721,3144.299527769401
784,0.0
785,0.0
848,0.0
849,0.0
1121,4206.486003455855
1135,1436.5072422332473
1161,61.699316467856775
1163,0.0
1166,447.0155907227909
1168,447.0155907227909
2,3, 1, 3, 0,18, 0.00,60.00,Wednesday
7,-6.7
545,19.720804446790773
546,0.018020415577400105
547,12.445908339307284
548,161.02322658204147
720,2965.05423504781
721,2965.05423504781
784,0.0
785,0.0
848,0.0
849,0.0
1121,4115.396883122803
1135,1423.1337752182253
1161,66.16114737878245
1163,0.0
1166,355.7967187729346
1168,355.7967187729346
2,3, 1, 3, 0,19, 0.00,60.00,Wednesday
7,-6.7
545,19.722716882854805
546,-0.4265533578349477
547,12.41369119295694
548,161.02322658204147
720,2717.7721511843483
721,2717.7721511843483
784,0.0
785,0.0
848,0.0
849,0.0
1121,4115.43382307513
1135,1423.0563889741006
1161,66.16715060449407
1163,0.0
1166,99.76155460276823
1168,99.76155460276823
2,3, 1, 3, 0,20, 0.00,60.00,Wednesday
7,-6.7
545,19.72325684854454
546,-0.7177373893211251
547,12.3793130400398
548,160.2027020611479
720,2598.84616259382
721,2598.84616259382
784,0.0
785,0.0
848,0.0
849,0.0
1121,4094.45899088921
1135,1423.0608385300402
1161,66.16715060449407
1163,0.0
1166,0.0
1168,0.0
2,3, 1, 3, 0,21, 0.00,60.00,Wednesday
7,-6.0
545,19.750100277339765
546,-0.9056592558241435
547,12.338046995487991
548,150.4079974930027
720,2481.236578152566
721,2481.236578152566
784,0.0
785,0.0
848,0.0
849,0.0
1121,3921.8446946080417
1135,1361.926147981015
1161,56.42195054125209
1163,10.902514753334769
1166,0.0
1168,0.0
2,3, 1, 3, 0,22, 0.00,60.00,Wednesday
7,-6.7
545,19.706319353805746
546,-0.8819368128781296
547,12.309844002766068
548,161.02322658204147
720,2709.46662019392
721,2709.46662019392
784,0.0
785,0.0
848,0.0
849,0.0
1121,4084.0081816329757
1135,1413.019176542213
1161,74.08496414235488
1163,0.0
1166,158.85613450903656
1168,158.85613450903656
2,3, 1, 3, 0,23, 0.00,60.00,Wednesday
7,-6.7
545,19.02337852974468
546,-1.4635782328011167
547,12.233495445570233
548,130.56816164392228
720,1950.685417960638
721,1950.685417960638
784,0.0
785,0.0
848,0.0
849,0.0
1121,3241.8956269818395
1135,1163.8504679532743
1161,61.065603633103834
1163,35.14710619076291
1166,0.0
1168,0.0
2,3, 1, 3, 0,24, 0.00,60.00,Wednesday
7,-6.7
545,18.708095683695912
546,-1.4309682796760455
547,12.188644740208547
548,145.867872265438
720,2348.120807910007
721,2348.120807910007
784,0.0
785,0.0
848,0.0
849,0.0
1121,3679.0844958930297
1135,1282.923515031776
1161,68.23620684487322
1163,15.84095888577519
1166,0.0
1168,0.0
2,4, 1, 4, 0, 1, 0.00,60.00,Thursday
7,-6.1
545,18.597463575577684
546,-1.3139886621603591
547,12.147168855550635
548,159.62246675686228
720,2748.6572732978802
721,2748.6572732978802
784,0.0
785,0.0
848,0.0
849,0.0
1121,4194.1292127137285
1135,1408.1295447507161
1161,61.72244397722547
1163,0.0
1166,0.0
1168,0.0
2,4, 1, 4, 0, 2, 0.00,60.00,Thursday
7,-6.1
545,18.595629444508887
546,-1.2081275499680926
547,12.094651155927666
548,161.02322658204147
720,3070.8474435937314
721,3070.8474435937314
784,0.0
785,0.0
848,0.0
849,0.0
1121,4233.601980272198
1135,1405.0493792566567
1161,61.72244397722547
1163,0.0
1166,369.17989244371347
1168,369.17989244371347
2,4, 1, 4, 0, 3, 0.00,60.00,Thursday
7,-6.7
545,18.596847765496175
546,-1.193324952776509
547,12.043958563401086
548,161.02322658204147
720,3332.614566355018
721,3332.614566355018
784,0.0
785,0.0
848,0.0
849,0.0
1121,4111.272356916765
1135,1381.504342411299
1161,74.11909625778405
1163,0.0
1166,801.3100064002556
1168,801.3100064002556
2,4, 1, 4, 0, 4, 0.00,60.00,Thursday
7,-6.1
545,18.597215500020052
546,-1.1886825608536882
547,12.00197218369484
548,161.02322658204147
720,3552.887863723825
721,3552.887863723825
784,0.0
785,0.0
848,0.0
849,0.0
1121,4233.667463074967
1135,1404.8400618485398
1161,61.7449630664885
1163,0.0
1166,942.5734533758869
1168,942.5734533758869
2,4, 1, 4, 0, 5, 0.00,60.00,Thursday
7,-6.1
545,18.60157363260123
546,-0.9703157012673336
547,11.955211999309006
548,161.02322658204147
720,3534.6991871915634
721,3534.6991871915634
784,0.0
785,0.0
848,0.0
849,0.0
1121,4233.712397398593
1135,1404.7881765832735
1161,61.7449630664885
1163,0.0
1166,928.8161233217843
1168,928.8161233217843
2,4, 1, 4, 0, 6, 0.00,60.00,Thursday
7,-9.0
545,19.340496156550955
546,-0.952498226284699
547,11.887692454066459
548,161.02322658204147
720,4742.400659586521
721,4742.400659586521
784,0.0
785,0.0
848,0.0
849,0.0
1121,3908.8003982510704
1135,1379.4466901662306
1161,54.91369170944713
1163,0.0
1166,2628.82082603204
1168,2628.82082603204
2,4, 1, 4, 0, 7, 0.00,60.00,Thursday
7,-6.7
545,19.599241557180648
546,-1.0386963977516332
547,11.901421720890216
548,161.02322658204147
720,4229.079821724499
721,4229.079821724499
784,0.0
785,0.0
848,0.0
849,0.0
1121,4094.0395696481564
1135,1401.1831299698074
1161,74.13914497701946
1163,0.0
1166,1936.016929767893
1168,1936.016929767893
2,4, 1, 4, 0, 8, 0.00,60.00,Thursday
7,-6.7
545,19.67958152858754
546,-0.9532316492657422
547,11.861159314535875
548,161.02322658204147
720,3920.171676301101
721,3920.171676301101
784,0.0
785,0.0
848,0.0
849,0.0
1121,4087.9263827640284
1135,1408.2041779360684
1161,74.13914497701946
1163,0.0
1166,1607.195148963624
1168,1607.195148963624
2,4, 1, 4, 0, 9, 0.00,60.00,Thursday
7,-6.0
545,19.718950976392033
546,0.772098491649135
547,11.834049680919941
548,161.02322658204147
720,3130.6647470481694
721,3130.6647470481694
784,0.0
785,0.0
848,0.0
849,0.0
1121,4174.124250725776
1135,1419.8174056309865
1161,73.38359963817793
1163,0.0
1166,609.1328503302739
1168,609.1328503302739
2,4, 1, 4, 0,10, 0.00,60.00,Thursday
7,-5.6
545,19.725625775382227
546,1.312813269711303
547,11.809354506622636
548,161.02322658204147
720,3215.4127257747095
721,3215.4127257747095
784,0.0
785,0.0
848,0.0
849,0.0
1121,4221.619120544934
1135,1425.4374204585386
1161,73.55743837829243
1163,0.0
1166,566.5162522490782
1168,566.5162522490782
2,4, 1, 4, 0,11, 0.00,60.00,Thursday
7,-5.6
545,19.721120505038787
546,1.6370464550519
547,11.786629344987984
548,161.02322658204147
720,3336.6542813243977
721,3336.6542813243977
784,0.0
785,0.0
848,0.0
849,0.0
1121,4221.492938644377
1135,1425.5838574941552
1161,73.55743837829243
1163,0.0
1166,669.9759309204064
1168,669.9759309204064
2,4, 1, 4, 0,12, 0.00,60.00,Thursday
7,-3.9
545,19.726045809392726
546,2.2504862996648205
547,11.777664113352806
548,161.02322658204147
720,3122.444091590436
721,3122.444091590436