Program Version,EnergyPlus, Version 22.2.0-c249759bad, YMD=2023.07.07 15:12
1,5,Environment Title[],Latitude[deg],Longitude[deg],Time Zone[],Elevation[m]
2,8,Day of Simulation[],Month[],Day of Month[],DST Indicator[1=yes 0=no],Hour[],StartMinute[],EndMinute[],DayType
3,5,Cumulative Day of Simulation[],Month[],Day of Month[],DST Indicator[1=yes 0=no],DayType  ! When Daily Report Variables Requested
4,2,Cumulative Days of Simulation[],Month[]  ! When Monthly Report Variables Requested
5,1,Cumulative Days of Simulation[] ! When Run Period Report Variables Requested
6,1,Calendar Year of Simulation[] ! When Annual Report Variables Requested
581,11,LIVING,AFN Zone Infiltration Air Change Rate [ach] !RunPeriod [Value,Min,Month,Day,Hour,Minute,Max,Month,Day,Hour,Minute]
582,11,ATTIC,AFN Zone Infiltration Air Change Rate [ach] !RunPeriod [Value,Min,Month,Day,Hour,Minute,Max,Month,Day,Hour,Minute]
583,11,CRAWLSPACE,AFN Zone Infiltration Air Change Rate [ach] !RunPeriod [Value,Min,Month,Day,Hour,Minute,Max,Month,Day,Hour,Minute]
1038,11,Facility,Facility Heating Setpoint Not Met Time [hr] !RunPeriod [Value,Min,Month,Day,Hour,Minute,Max,Month,Day,Hour,Minute]
1039,11,Facility,Facility Cooling Setpoint Not Met Time [hr] !RunPeriod [Value,Min,Month,Day,Hour,Minute,Max,Month,Day,Hour,Minute]
1115,11,DX_HEATING_COIL,Heating Coil Heating Energy [J] !RunPeriod [Value,Min,Month,Day,Hour,Minute,Max,Month,Day,Hour,Minute]
1128,11,DX_HEATING_COIL,Heating Coil Electricity Energy [J] !RunPeriod [Value,Min,Month,Day,Hour,Minute,Max,Month,Day,Hour,Minute]
1153,11,DX_HEATING_COIL,Heating Coil Defrost Electricity Energy [J] !RunPeriod [Value,Min,Month,Day,Hour,Minute,Max,Month,Day,Hour,Minute]
1154,11,DX_HEATING_COIL,Heating Coil Crankcase Heater Electricity Energy [J] !RunPeriod [Value,Min,Month,Day,Hour,Minute,Max,Month,Day,Hour,Minute]
1156,11,HEATING_RESISTANCE_BACKUP,Heating Coil Electricity Energy [J] !RunPeriod [Value,Min,Month,Day,Hour,Minute,Max,Month,Day,Hour,Minute]
13,11,Electricity:Facility [J] !RunPeriod [Value,Min,Month,Day,Hour,Minute,Max,Month,Day,Hour,Minute]
1134,11,Heating:Electricity [J] !RunPeriod [Value,Min,Month,Day,Hour,Minute,Max,Month,Day,Hour,Minute]
1096,11,Cooling:Electricity [J] !RunPeriod [Value,Min,Month,Day,Hour,Minute,Max,Month,Day,Hour,Minute]
562,11,Fans:Electricity [J] !RunPeriod [Value,Min,Month,Day,Hour,Minute,Max,Month,Day,Hour,Minute]
1388,11,Pumps:Electricity [J] !RunPeriod [Value,Min,Month,Day,Hour,Minute,Max,Month,Day,Hour,Minute]
1360,11,WaterSystems:Electricity [J] !RunPeriod [Value,Min,Month,Day,Hour,Minute,Max,Month,Day,Hour,Minute]
61,11,InteriorLights:Electricity [J] !RunPeriod [Value,Min,Month,Day,Hour,Minute,Max,Month,Day,Hour,Minute]
1046,11,ExteriorLights:Electricity [J] !RunPeriod [Value,Min,Month,Day,Hour,Minute,Max,Month,Day,Hour,Minute]
134,11,InteriorEquipment:Electricity [J] !RunPeriod [Value,Min,Month,Day,Hour,Minute,Max,Month,Day,Hour,Minute]
170,11,gas_dryer:InteriorEquipment:Electricity [J] !RunPeriod [Value,Min,Month,Day,Hour,Minute,Max,Month,Day,Hour,Minute]
207,11,clotheswasher:InteriorEquipment:Electricity [J] !RunPeriod [Value,Min,Month,Day,Hour,Minute,Max,Month,Day,Hour,Minute]
244,11,dishwasher:InteriorEquipment:Electricity [J] !RunPeriod [Value,Min,Month,Day,Hour,Minute,Max,Month,Day,Hour,Minute]
281,11,refrigerator:InteriorEquipment:Electricity [J] !RunPeriod [Value,Min,Month,Day,Hour,Minute,Max,Month,Day,Hour,Minute]
318,11,electric_mels:InteriorEquipment:Electricity [J] !RunPeriod [Value,Min,Month,Day,Hour,Minute,Max,Month,Day,Hour,Minute]
355,11,NaturalGas:Facility [J] !RunPeriod [Value,Min,Month,Day,Hour,Minute,Max,Month,Day,Hour,Minute]
1323,11,WaterSystems:NaturalGas [J] !RunPeriod [Value,Min,Month,Day,Hour,Minute,Max,Month,Day,Hour,Minute]
403,11,InteriorEquipment:NaturalGas [J] !RunPeriod [Value,Min,Month,Day,Hour,Minute,Max,Month,Day,Hour,Minute]
476,11,gas_dryer:InteriorEquipment:NaturalGas [J] !RunPeriod [Value,Min,Month,Day,Hour,Minute,Max,Month,Day,Hour,Minute]
513,11,gas_mels:InteriorEquipment:NaturalGas [J] !RunPeriod [Value,Min,Month,Day,Hour,Minute,Max,Month,Day,Hour,Minute]
End of Data Dictionary
1,EXTREME_WINTER,  32.13, -81.20,  -5.00,  15.00
5,7
1038,0.16666666666666666,0.0, 1, 6, 1,10,0.16666666666666666, 1, 8, 6,10
1039,0.0,0.0, 1, 6, 1,10,0.0, 1, 6, 1,10
581,0.25221938164169166,0.1041828019243706, 1,12, 6,60,0.6866588983549781, 1, 8, 1,55
582,4.061723204175497,0.0, 1, 6, 1,55,13.584933053575716, 1, 7,21,55
583,4.619656636262286,0.00016276558930482902, 1,12, 6,10,17.076351512384463, 1, 7,22,60
1115,332654969.4804748,0.0, 1, 6, 1, 3,3139578.1982279164, 1, 8, 5,50
1128,103166106.90502562,0.0, 1, 6, 1, 3,984895.2125571776, 1, 8, 6,20
1153,550127.7358810705,0.0, 1, 6, 1, 3,29995.89911205475, 1, 6, 6, 3
1154,63354363.73476298,0.0, 1, 6, 6, 3,120000.0, 1, 6, 3,20
1156,7389378.060456742,0.0, 1, 6, 1, 3,732564.4702237262, 1, 8, 6,30
13,581854205.2910935,106361.20013227512, 1,12, 4,10,2929137.2190067163, 1, 8, 6,10
61,301924526.0238348,58759.40635443481, 1, 6, 1,10,854682.2742463244, 1, 6,20,10
134,70666020.44019979,42376.01200569399, 1, 6, 4,10,104369.48322671017, 1,11,20,10
170,5241013.419656074,232.27731661587313, 1, 6, 4,10,11650.931360040839, 1,11,12,10
207,6509451.13922266,543.5021409221355, 1, 6, 3,10,15327.095199349082, 1,11,10,10
244,12749673.39982522,1014.5707620042115, 1, 6, 4,10,35359.08742820678, 1,11,20,10
281,46165882.48149605,39959.06841621388, 1, 6, 5,10,54634.54471212738, 1, 6,19,10
318,0.0,0.0, 1, 6, 1,10,0.0, 1, 6, 1,10
355,736109181.5706308,12374.216038804521, 1, 6, 4,10,3829218.154066982, 1, 7,18,60
403,197687796.27748126,12374.216038804521, 1, 6, 4,10,483183.26346918393, 1,11,18,10
476,106772067.24485692,4732.048419519677, 1, 6, 4,10,237357.535085481, 1,11,12,10
513,0.0,0.0, 1, 6, 1,10,0.0, 1, 6, 1,10
562,12323333.992536167,0.0, 1, 6, 1,10,98245.50115725622, 1, 8, 5,60
1046,0.0,0.0, 1, 6, 1,10,0.0, 1, 6, 1,10
1096,17460508.39839728,0.0, 1, 6, 1,10,313305.0842986291, 1, 6,17,20
1134,174459976.43612656,0.0, 1, 6,11,20,2413332.394838807, 1, 8, 6,10
1323,538421385.2931468,0.0, 1, 6, 1,10,3375000.000000001, 1, 6,21,60
1360,5019840.0,4979.999999999999, 1, 9, 9,40,4980.000000000001, 1, 6, 1,10
1388,0.0,0.0, 1, 6, 1,10,0.0, 1, 6, 1,10
1,EXTREME_SUMMER,  32.13, -81.20,  -5.00,  15.00
5,7
1038,0.0,0.0, 6,15, 1,10,0.0, 6,15, 1,10
1039,49.66666666666666,0.0, 6,15, 1,10,0.16666666666666666, 6,15,15,60
581,0.06728377171942292,0.0, 6,15, 1,25,0.45271069207572195, 6,19,20, 3
582,2.7821082612692445,0.0053890990547167325, 6,20, 6, 2,15.585443693807994, 6,19,19,53
583,3.1554715070162858,0.0, 6,15, 6, 7,15.65290722078967, 6,19,20, 3
1115,0.0,0.0, 6,15, 1,10,0.0, 6,15, 1,10
1128,0.0,0.0, 6,15, 1,10,0.0, 6,15, 1,10
1153,0.0,0.0, 6,15, 1,10,0.0, 6,15, 1,10
1154,0.0,0.0, 6,15, 1,10,0.0, 6,15, 1,10
1156,0.0,0.0, 6,15, 1,10,0.0, 6,15, 1,10
13,1164662903.9940753,226656.43171488593, 6,15, 4,60,2146372.83666657, 6,21,20,10
61,301924526.0238348,58759.40635443481, 6,15, 1,10,854682.2742463244, 6,15,20,10
134,70666020.44019979,42376.01200569399, 6,15, 4,10,104369.48322671017, 6,20,20,10
170,5241013.419656074,232.27731661587313, 6,15, 4,10,11650.931360040839, 6,20,12,10
207,6509451.13922266,543.5021409221355, 6,15, 3,10,15327.095199349082, 6,20,10,10
244,12749673.39982522,1014.5707620042115, 6,15, 4,10,35359.08742820678, 6,20,20,10
281,46165882.48149605,39959.06841621388, 6,15, 5,10,54634.54471212738, 6,15,19,10
318,0.0,0.0, 6,15, 1,10,0.0, 6,15, 1,10
355,660922285.6833997,12374.216038804521, 6,15, 4,10,3829218.154066982, 6,16,18,60
403,197687796.27748126,12374.216038804521, 6,15, 4,10,483183.26346918393, 6,20,18,10
476,106772067.24485692,4732.048419519677, 6,15, 4,10,237357.535085481, 6,20,12,10
513,0.0,0.0, 6,15, 1,10,0.0, 6,15, 1,10
562,67006913.63206503,10783.620362784242, 6,15, 6,20,98245.50115725624, 6,15,18,20
1046,0.0,0.0, 6,15, 1,10,0.0, 6,15, 1,10
1096,720045603.8979752,98982.94620488246, 6,15, 6,20,1162057.7734132302, 6,19,17,60
1134,0.0,0.0, 6,15, 1,10,0.0, 6,15, 1,10
1323,463234489.40591705,0.0, 6,15, 1,10,3375000.0000000005, 6,18, 9,60
1360,5019840.0,4980.0, 6,15, 1,10,4980.000000000002, 6,16,20,20
1388,0.0,0.0, 6,15, 1,10,0.0, 6,15, 1,10
1,ANNUAL,  32.13, -81.20,  -5.00,  15.00
5,365
1038,1.1666666666666665,0.0, 1, 1, 1,10,0.16666666666666666, 1, 8, 6,10
1039,608.1666666666665,0.0, 1, 1, 1,10,0.16666666666666666, 3, 5,13,40
581,0.1532479877184372,0.0, 4,24,21,55,1.679407915702945, 6,22,19,51
582,3.327873599139149,0.0, 1, 1, 1,10,35.13092678296833, 6,22,19,51
583,3.7514792711902305,0.0, 5,26,23, 3,48.87298219841498, 6,22,19,51
1115,2256502369.159862,0.0, 1, 1, 1,10,3155745.1352957236, 1, 8, 5,50
1128,685931695.8279073,0.0, 1, 1, 1,10,984317.6315809313, 1, 8, 6,20
1153,34187162.22488277,0.0, 1, 1, 1,10,69689.32784048731, 2,13, 6,30
1154,806839126.3384535,0.0, 1, 1, 1,10,120000.0, 1, 1, 1,20
1156,18787462.377229158,0.0, 1, 1, 1,10,809146.0571126274, 1,28, 6, 3
13,40456401878.837006,106115.4183601288, 1, 2, 4,10,2949954.619530093, 1, 8, 6,10
61,15743207428.39043,58759.40635443481, 1, 1, 1,10,854682.2742463244, 1, 1,20,10
134,3685071073.433083,42376.01200569399, 1, 2, 4,10,104369.48322671017, 1, 1,20,10
170,273393721.45534325,232.27731661587313, 1, 2, 4,10,11650.931360040839, 1, 1,12,10
207,339560869.06955314,543.5021409221355, 1, 2, 3,10,15327.095199349082, 1, 1,10,10
244,664895467.8009839,1014.5707620042115, 1, 2, 4,10,35359.08742820678, 1, 1,20,10
281,2407221015.1057043,39959.06841621388, 1, 1, 5,10,54634.54471212738, 1, 1,19,10
318,0.0,0.0, 1, 1, 1,10,0.0, 1, 1, 1,10
355,35627936458.116844,12374.216038804521, 1, 2, 4,10,3829218.1540669827, 2, 3,18,30
403,10310294493.052883,12374.216038804521, 1, 2, 4,10,483183.26346918393, 1, 1,18,10
476,5569688622.065564,4732.048419519677, 1, 2, 4,10,237357.535085481, 1, 1,12,10
513,0.0,0.0, 1, 1, 1,10,0.0, 1, 1, 1,10
562,1871872834.3840194,0.0, 1, 1, 1,10,98245.50115725624, 5, 6,18,20
1046,0.0,0.0, 1, 1, 1,10,0.0, 1, 1, 1,10
1096,17348756295.866726,0.0, 1, 1, 1,10,1177724.013712695, 7,11,17,60
1134,1545745446.7684731,0.0, 1, 1, 1,10,2433411.798996463, 1, 8, 6,10
1323,25317641965.068092,0.0, 1, 1, 1,10,3375000.000000002, 2, 6,21,60
1360,261748800.0,4979.999999999998, 2,10,11,50,4980.000000000002, 1,16,17,20
1388,0.0,0.0, 1, 1, 1,10,0.0, 1, 1, 1,10
End of Data
 Number of Records Written=          87
