Program Version,EnergyPlus, Version 22.2.0-c249759bad, YMD=2023.09.01 14:31
1,5,Environment Title[],Latitude[deg],Longitude[deg],Time Zone[],Elevation[m]
2,8,Day of Simulation[],Month[],Day of Month[],DST Indicator[1=yes 0=no],Hour[],StartMinute[],EndMinute[],DayType
3,5,Cumulative Day of Simulation[],Month[],Day of Month[],DST Indicator[1=yes 0=no],DayType  ! When Daily Report Variables Requested
4,2,Cumulative Days of Simulation[],Month[]  ! When Monthly Report Variables Requested
5,1,Cumulative Days of Simulation[] ! When Run Period Report Variables Requested
6,1,Calendar Year of Simulation[] ! When Annual Report Variables Requested
7,1,Environment,Site Outdoor Air Drybulb Temperature [C] !Hourly
545,1,LIVING,Zone Mean Air Temperature [C] !Hourly
546,1,ATTIC,Zone Mean Air Temperature [C] !Hourly
547,1,CRAWLSPACE,Zone Mean Air Temperature [C] !Hourly
548,1,FAN,Fan Electricity Rate [W] !Hourly
720,1,LIVING,Zone Predicted Sensible Load to Heating Setpoint Heat Transfer Rate [W] !Hourly
721,1,LIVING,Zone System Predicted Sensible Load to Heating Setpoint Heat Transfer Rate [W] !Hourly
784,1,ATTIC,Zone Predicted Sensible Load to Heating Setpoint Heat Transfer Rate [W] !Hourly
785,1,ATTIC,Zone System Predicted Sensible Load to Heating Setpoint Heat Transfer Rate [W] !Hourly
848,1,CRAWLSPACE,Zone Predicted Sensible Load to Heating Setpoint Heat Transfer Rate [W] !Hourly
849,1,CRAWLSPACE,Zone System Predicted Sensible Load to Heating Setpoint Heat Transfer Rate [W] !Hourly
1121,1,DX_HEATING_COIL,Heating Coil Heating Rate [W] !Hourly
1135,1,DX_HEATING_COIL,Heating Coil Electricity Rate [W] !Hourly
1161,1,DX_HEATING_COIL,Heating Coil Defrost Electricity Rate [W] !Hourly
1163,1,DX_HEATING_COIL,Heating Coil Crankcase Heater Electricity Rate [W] !Hourly
1166,1,HEATING_RESISTANCE_BACKUP,Heating Coil Heating Rate [W] !Hourly
1168,1,HEATING_RESISTANCE_BACKUP,Heating Coil Electricity Rate [W] !Hourly
End of Data Dictionary
1,EXTREME_WINTER,  29.98, -90.25,  -6.00,   1.20
2,1, 2, 3, 0, 1, 0.00,60.00,Monday
7,2.8
545,18.237647385595377
546,4.262934595471399
547,20.567386700454275
548,46.54936674044428
720,1159.9999975571045
721,1159.9999975571045
784,0.0
785,0.0
848,0.0
849,0.0
1121,1485.2064843989806
1135,456.7347797189291
1161,10.860653874733744
1163,135.73125623911358
1166,0.0
1168,0.0
2,1, 2, 3, 0, 2, 0.00,60.00,Monday
7,2.8
545,18.357960996050426
546,4.568079864927286
547,20.35500647694232
548,68.90267580667606
720,1757.9056660789538
721,1757.9056660789538
784,0.0
785,0.0
848,0.0
849,0.0
1121,2241.5054140347943
1135,671.3656062623751
1161,16.077485510560404
1163,104.86927621352957
1166,0.0
1168,0.0
2,1, 2, 3, 0, 3, 0.00,60.00,Monday
7,2.8
545,18.294275900044287
546,4.852146324982939
547,20.239733206236576
548,90.19403584143679
720,2334.0115316175434
721,2334.0115316175434
784,0.0
785,0.0
848,0.0
849,0.0
1121,3001.8145143545185
1135,885.6724060700654
1161,17.287912060579988
1163,75.51750213111403
1166,0.0
1168,0.0
2,1, 2, 3, 0, 4, 0.00,60.00,Monday
7,2.8
545,18.534924070444188
546,4.67620634705789
547,20.12855765445213
548,100.34009785128987
720,2603.631000531137
721,2603.631000531137
784,0.0
785,0.0
848,0.0
849,0.0
1121,3368.3419582815673
1135,983.8907220718164
1161,19.25656835482897
1163,61.514072604249506
1166,0.0
1168,0.0
2,1, 2, 3, 0, 5, 0.00,60.00,Monday
7,2.8
545,18.680433699152317
546,4.918117407993075
547,20.05659183765061
548,93.98205972141491
720,2375.5799803899354
721,2375.5799803899354
784,0.0
785,0.0
848,0.0
849,0.0
1121,3135.1323736752324
1135,925.7676284097411
1161,18.029508854332807
1163,70.28907328776506
1166,0.0
1168,0.0
2,1, 2, 3, 0, 6, 0.00,60.00,Monday
7,2.8
545,19.34223711085414
546,5.3386257829677195
547,19.92226509854133
548,122.77827673290442
720,3214.7729253320067
721,3214.7729253320067
784,0.0
785,0.0
848,0.0
849,0.0
1121,4166.554404720583
1135,1205.6353523618416
1161,28.662326004513762
1163,30.4849631710284
1166,0.0
1168,0.0
2,1, 2, 3, 0, 7, 0.00,60.00,Monday
7,2.8
545,19.621720141599223
546,5.406902762218646
547,19.8676637141675
548,119.62370926340765
720,3040.584477401586
721,3040.584477401586
784,0.0
785,0.0
848,0.0
849,0.0
1121,4036.42956808494
1135,1189.7268995238444
1161,27.926065676921027
1163,34.839361921776636
1166,0.0
1168,0.0
2,1, 2, 3, 0, 8, 0.00,60.00,Monday
7,2.8
545,19.720968372518747
546,5.4542639787061455
547,19.790012521338078
548,110.50763632267005
720,2750.919287109027
721,2750.919287109027
784,0.0
785,0.0
848,0.0
849,0.0
1121,3695.9492898756544
1135,1105.132913939794
1161,25.761272633537963
1163,47.42567763711245
1166,0.0
1168,0.0
2,1, 2, 3, 0, 9, 0.00,60.00,Monday
7,2.8
545,19.77855901085343
546,5.738655102497557
547,19.715578939507964
548,101.09134531591762
720,2486.3552818812404
721,2486.3552818812404
784,0.0
785,0.0
848,0.0
849,0.0
1121,3353.2832663605327
1135,1012.9293184739452
1161,23.56171974659541
1163,60.426371966523384
1166,0.0
1168,0.0
2,1, 2, 3, 0,10, 0.00,60.00,Monday
7,2.8
545,19.785151283856823
546,6.026489345882733
547,19.641450944170824
548,92.43061952504019
720,2260.57064940115
721,2260.57064940115
784,0.0
785,0.0
848,0.0
849,0.0
1121,3043.476893740432
1135,927.1997376872869
1161,21.543145120255197
1163,72.38389404405908
1166,0.0
1168,0.0
2,1, 2, 3, 0,11, 0.00,60.00,Monday
7,3.3
545,19.80824853840503
546,6.771778847292802
547,19.5766836669421
548,79.73059618264517
720,1946.2571240680609
721,1946.2571240680609
784,0.0
785,0.0
848,0.0
849,0.0
1121,2621.110919704638
1135,800.1585790771265
1161,20.94238228794477
1163,89.92038775330687
1166,0.0
1168,0.0
2,1, 2, 3, 0,12, 0.00,60.00,Monday
7,3.3
545,19.73923137203216
546,7.39690935992409
547,19.51028170973575
548,69.04461759164782
720,1700.0130164319617
721,1700.0130164319617
784,0.0
785,0.0
848,0.0
849,0.0
1121,2271.435176163478
1135,699.4718324884766
1161,13.692125484202634
1163,104.72035529076452
1166,0.0
1168,0.0
2,1, 2, 3, 0,13, 0.00,60.00,Monday
7,3.3
545,19.742110570193923
546,7.491372181260284
547,19.446713569742123
548,65.92097981597469
720,1647.1482464244
721,1647.1482464244
784,0.0
785,0.0
848,0.0
849,0.0
1121,2163.985681723777
1135,666.8994045317716
1161,13.072675630574773
1163,109.03093234740528
1166,0.0
1168,0.0
2,1, 2, 3, 0,14, 0.00,60.00,Monday
7,2.8
545,19.62785777317401
546,7.331153221367836
547,19.384778227955888
548,68.39664150845114
720,1675.701315054188
721,1675.701315054188
784,0.0
785,0.0
848,0.0
849,0.0
1121,2189.0194545820646
1135,679.6393318273879
1161,20.210714701442434
1163,105.51548499186536
1166,0.0
1168,0.0
2,1, 2, 3, 0,15, 0.00,60.00,Monday
7,3.0
545,19.70050863383584
546,7.221561185941671
547,19.32817476291776
548,74.39164460451316
720,1814.363140974252
721,1814.363140974252
784,0.0
785,0.0
848,0.0
849,0.0
1121,2359.60455644711
1135,725.2041511477607
1161,31.77886964632741
1163,97.13174416720317
1166,0.0
1168,0.0
2,1, 2, 3, 0,16, 0.00,60.00,Monday
7,2.8
545,19.65799909053394
546,6.610049449024071
547,19.277301653293655
548,75.3523917941961
720,1818.6498945082421
721,1818.6498945082421
784,0.0
785,0.0
848,0.0
849,0.0
1121,2382.393456609669
1135,735.4286052993637
1161,31.401989028084024
1163,95.79387317017564
1166,0.0
1168,0.0
2,1, 2, 3, 0,17, 0.00,60.00,Monday
7,3.0
545,19.81609873187479
546,6.635173727899805
547,19.237205094317787
548,68.23207054122724
720,1621.2373577363887
721,1621.2373577363887
784,0.0
785,0.0
848,0.0
849,0.0
1121,2153.2634008024233
1135,665.5088333070689
1161,29.14761529596902
1163,105.6491190356673
1166,0.0
1168,0.0
2,1, 2, 3, 0,18, 0.00,60.00,Monday
7,3.0
545,19.79299041498856
546,6.175506070389931
547,19.199515415955265
548,57.896017404525985
720,1347.6100597467666
721,1347.6100597467666
784,0.0
785,0.0
848,0.0
849,0.0
1121,1810.6944619853828
1135,566.4528960557152
1161,24.732288644135124
1163,119.94153901979678
1166,0.0
1168,0.0
2,1, 2, 3, 0,19, 0.00,60.00,Monday
7,3.0
545,19.671738593973256
546,5.468082190217227
547,19.15035869692623
548,54.22176452164971
720,1261.1944224968483
721,1261.1944224968483
784,0.0
785,0.0
848,0.0
849,0.0
1121,1692.2466252792992
1135,530.6141386916099
1161,22.903611828193547
1163,125.02541730192165
1166,0.0
1168,0.0
2,1, 2, 3, 0,20, 0.00,60.00,Monday
7,3.0
545,19.67244822734142
546,5.06625538080603
547,19.09406594961066
548,56.49621941450241
720,1294.1858218064972
721,1294.1858218064972
784,0.0
785,0.0
848,0.0
849,0.0
1121,1734.471182831074
1135,541.8062141344486
1161,30.89387310623537
1163,121.79505454891309
1166,0.0
1168,0.0
2,1, 2, 3, 0,21, 0.00,60.00,Monday
7,3.0
545,20.062361531514387
546,4.855679270802854
547,19.049798864752034
548,50.51038877366386
720,1135.8284065800617
721,1135.8284065800617
784,0.0
785,0.0
848,0.0
849,0.0
1121,1543.3534927290325
1135,484.40025276499165
1161,27.620636456288384
1163,130.08094647244585
1166,0.0
1168,0.0
2,1, 2, 3, 0,22, 0.00,60.00,Monday
7,3.0
545,19.79537171957105
546,4.556642813308179
547,19.00035794726975
548,43.79175246009214
720,939.0737834452411
721,939.0737834452411
784,0.0
785,0.0
848,0.0
849,0.0
1121,1301.2334903648946
1135,414.9736093896483
1161,29.846417834206264
1163,139.30607180215108
1166,0.0
1168,0.0
2,1, 2, 3, 0,23, 0.00,60.00,Monday
7,3.3
545,18.796522613735057
546,4.308972293111685
547,18.951881528046805
548,18.100042572264194
720,335.2734926062458
721,335.2734926062458
784,0.0
785,0.0
848,0.0
849,0.0
1121,529.8416206315156
1135,170.39806836629572
1161,12.794076044378528
1163,174.91990523297258
1166,0.0
1168,0.0
2,1, 2, 3, 0,24, 0.00,60.00,Monday
7,3.3
545,18.604523717491027
546,4.414000712777873
547,18.86973391104484
548,34.05394587529173
720,774.3733262127007
721,774.3733262127007
784,0.0
785,0.0
848,0.0
849,0.0
1121,1013.9600782864859
1135,314.33590270068987
1161,24.089879625078137
1163,152.8145725765785
1166,0.0
1168,0.0
2,2, 2, 4, 0, 1, 0.00,60.00,Tuesday
7,3.3
545,18.560229304459245
546,4.54339984990215
547,18.793991854284887
548,48.01643789189373
720,1114.0178806081512
721,1114.0178806081512
784,0.0
785,0.0
848,0.0
849,0.0
1121,1446.814713017868
1135,441.50471159296427
1161,33.96682298131303
1163,133.46836573975813
1166,0.0
1168,0.0
2,2, 2, 4, 0, 2, 0.00,60.00,Tuesday
7,3.0
545,18.547172537990164
546,4.559580685173013
547,18.713522044497058
548,62.24508492440782
720,1423.250117271531
721,1423.250117271531
784,0.0
785,0.0
848,0.0
849,0.0
1121,1857.577088209136
1135,563.2375792560754
1161,49.36254721399814
1163,113.64350885945656
1166,0.0
1168,0.0
2,2, 2, 4, 0, 3, 0.00,60.00,Tuesday
7,3.3
545,18.592253730580385
546,4.667823508975162
547,18.641573215056738
548,70.18324703180826
720,1601.6705854099
721,1601.6705854099
784,0.0
785,0.0
848,0.0
849,0.0
1121,2108.682149849836
1135,631.826921049686
1161,58.9502167208517
1163,102.64119336813033
1166,0.0
1168,0.0
2,2, 2, 4, 0, 4, 0.00,60.00,Tuesday
7,4.0
545,18.678237734873598
546,5.302833600138722
547,18.578978224263548
548,70.26115695249736
720,1618.082991119416
721,1618.082991119416
784,0.0
785,0.0
848,0.0
849,0.0
1121,2147.619494367872
1135,636.1013842884128
1161,59.274536579322785
1163,102.65506973165519
1166,0.0
1168,0.0
2,2, 2, 4, 0, 5, 0.00,60.00,Tuesday
7,3.9
545,18.475890339121822
546,5.34857487345889
547,18.509362163287037
548,71.83100817740484
720,1646.7046961770484
721,1646.7046961770484
784,0.0
785,0.0
848,0.0
849,0.0
1121,2182.1499250119373
1135,648.0809308626483
1161,62.61250458164485
1163,100.44084966126788
1166,0.0
1168,0.0
2,2, 2, 4, 0, 6, 0.00,60.00,Tuesday
7,3.9
545,19.372194979826453
546,6.149688603994829
547,18.419873119490173
548,108.34141501655411
720,2637.0624554548704
721,2637.0624554548704
784,0.0
785,0.0
848,0.0
849,0.0
1121,3395.054030347567
1135,973.5832689617209
1161,94.3212536853502
1163,49.838790075978444
1166,0.0
1168,0.0
2,2, 2, 4, 0, 7, 0.00,60.00,Tuesday
7,3.9
545,19.635965931313542
546,6.217187519858586
547,18.395050128344003
548,103.59614227144705
720,2424.2021522764626
721,2424.2021522764626
784,0.0
785,0.0
848,0.0
849,0.0
1121,3220.435808375569
1135,947.1652893083557
1161,90.1921903775106
1163,56.412336524231165
1166,0.0
1168,0.0
2,2, 2, 4, 0, 8, 0.00,60.00,Tuesday
7,3.0
545,19.643156370365293
546,5.943715313884994
547,18.33461821275641
548,105.12408324876023
720,2368.2251251466732
721,2368.2251251466732
784,0.0
785,0.0
848,0.0
849,0.0
1121,3178.0562893877714
1135,955.2775503898005
1161,94.7296557808378
1163,53.99642460322265
1166,0.0
1168,0.0
2,2, 2, 4, 0, 9, 0.00,60.00,Tuesday
7,3.0
545,19.61649119938755
546,5.854691837779831
547,18.277173333806495
548,114.13194609574415
720,2592.531206910311
721,2592.531206910311
784,0.0
785,0.0
848,0.0
849,0.0
1121,3476.363872141213
1135,1037.1614253991895
1161,102.84684715029366
1163,41.48567543653823
1166,0.0
1168,0.0
2,2, 2, 4, 0,10, 0.00,60.00,Tuesday
7,4.0
545,19.697573270477438
546,6.248795678492294
547,18.23340647840235
548,110.7953751978158
720,2588.0871211347403
721,2588.0871211347403
784,0.0
785,0.0
848,0.0
849,0.0
1121,3484.953308987538
1135,1022.5708776856501
1161,93.47279543317647
1163,46.49221607573164
1166,0.0
1168,0.0
2,2, 2, 4, 0,11, 0.00,60.00,Tuesday
7,5.0
545,19.748651048456377
546,6.7530818269351
547,18.194397833893554
548,102.6410330905583
720,2419.319363190916
721,2419.319363190916
784,0.0
785,0.0
848,0.0
849,0.0
1121,3260.1763718996885
1135,948.4133358075895
1161,91.99901087254634
1163,58.00536702887236
1166,0.0
1168,0.0
2,2, 2, 4, 0,12, 0.00,60.00,Tuesday
7,5.0
545,19.802922599291755
546,7.4109342516917565
547,18.150261745303624
548,92.81312399157913
720,2170.560665545372
721,2170.560665545372
784,0.0
785,0.0
848,0.0
849,0.0
1121,2923.6106508417574
1135,858.4542952470481
1161,83.1901549513706
1163,71.6012769365967
1166,0.0
1168,0.0
2,2, 2, 4, 0,13, 0.00,60.00,Tuesday
7,5.0
545,19.855446806240405
546,7.772308680828525
547,18.11223989335888
548,79.93080241841385
720,1842.4200468420931
721,1842.4200468420931
784,0.0
785,0.0
848,0.0
849,0.0
1121,2476.4136637964707
1135,735.9086014998844
1161,74.52345025605115
1163,89.40266607232394
1166,0.0
1168,0.0
2,2, 2, 4, 0,14, 0.00,60.00,Tuesday
7,6.0
545,19.934153243159876
546,8.72870190076772
547,18.082850749105603
548,44.60929812761403
720,1369.8156092097397
721,1369.8156092097397
784,0.0
785,0.0
848,0.0
849,0.0
1121,1814.706518822968
1135,499.75899002770734
1161,0.0
1163,138.52961249710245
1166,0.0
1168,0.0
2,2, 2, 4, 0,15, 0.00,60.00,Tuesday
7,6.0
545,19.80536593698408
546,9.047744476958346
547,18.050735165752656
548,36.71435832032558
720,1145.0083657045852
721,1145.0083657045852
784,0.0
785,0.0
848,0.0
849,0.0
1121,1483.8266425898137
1135,411.9304457900951
1161,0.0
1163,149.40862269532968
1166,0.0
1168,0.0
2,2, 2, 4, 0,16, 0.00,60.00,Tuesday
7,5.0
545,19.471033548968894
546,7.283683628414492
547,18.015615943657146
548,50.85282853370305
720,1204.5094272920323
721,1204.5094272920323
784,0.0
785,0.0
848,0.0
849,0.0
1121,1548.2372570262405
1135,470.9002306696345
1161,45.58039928080117
1163,129.64954725957614
1166,0.0
1168,0.0
2,2, 2, 4, 0,17, 0.00,60.00,Tuesday
7,5.0
545,19.823439547101287
546,7.626386913554885
547,17.988146825058273
548,50.87263832002114
720,1189.3741460887031
721,1189.3741460887031
784,0.0
785,0.0
848,0.0
849,0.0
1121,1551.2076735623923
1135,468.0655232336126
1161,45.59788429883645
1163,129.6225602442282
1166,0.0
1168,0.0
2,2, 2, 4, 0,18, 0.00,60.00,Tuesday
7,5.0
545,19.977594917788547
546,8.229289879012953
547,17.976139834618674
548,28.005889356131764
720,601.2924649167799
721,601.2924649167799
784,0.0
785,0.0
848,0.0
849,0.0
1121,837.4258719802854
1135,259.4427697931016
1161,25.102243902807636
1163,161.25628008469647
1166,0.0
1168,0.0
2,2, 2, 4, 0,19, 0.00,60.00,Tuesday
7,5.6
545,19.787036918596208
546,7.133718843957153
547,17.95675679699513
548,9.42413442663803
720,257.77358502328025
721,257.77358502328025
784,0.0
785,0.0
848,0.0
849,0.0
1121,369.1004274676836
1135,105.39506315343543
1161,0.0
1163,187.0138016198413
1166,0.0
1168,0.0
2,2, 2, 4, 0,20, 0.00,60.00,Tuesday
7,4.4
545,19.18970213443985
546,5.646883878286527
547,17.933300771371385
548,12.558121380039955
720,275.2179873913392
721,275.2179873913392
784,0.0
785,0.0
848,0.0
849,0.0
1121,368.70581548489844
1135,116.69850700456603
1161,10.572483465307855
1163,182.61329276078396
1166,0.0
1168,0.0
2,2, 2, 4, 0,21, 0.00,60.00,Tuesday
7,3.9
545,19.650956334854172
546,5.28177524951736
547,17.903451705706285
548,33.29447994350996
720,777.3592269024066
721,777.3592269024066
784,0.0
785,0.0
848,0.0
849,0.0
1121,987.4736878934334
1135,305.8264661931996
1161,27.176878909659393
1163,153.87179958799396
1166,0.0
1168,0.0
2,2, 2, 4, 0,22, 0.00,60.00,Tuesday
7,3.3
545,19.58737009013449
546,4.6346660265226856
547,17.87886840352563
548,40.89365144369831
720,916.1887215935567
721,916.1887215935567
784,0.0
785,0.0
848,0.0
849,0.0
1121,1208.1392950141246
1135,380.00493002743025
1161,31.389750512469302
1163,143.30653851100683
1166,0.0
1168,0.0
2,2, 2, 4, 0,23, 0.00,60.00,Tuesday
7,2.8
545,18.68734697673513
546,4.063470048476649
547,17.84713094915468
548,24.19517019508121
720,486.061865986916
721,486.061865986916
784,0.0
785,0.0
848,0.0
849,0.0
1121,699.2352679985746
1135,224.51516502949684
1161,17.997132703788356
1163,166.43604231128162
1166,0.0
1168,0.0
2,2, 2, 4, 0,24, 0.00,60.00,Tuesday
7,2.2
545,18.433364818794253
546,3.6334550416339804
547,17.786472926966077
548,44.80644843220113
720,985.5747290580985
721,985.5747290580985
784,0.0
785,0.0
848,0.0
849,0.0
1121,1292.5711101562508
1135,404.19844868943716
1161,35.20313412732311
1163,137.75277036401107
1166,0.0
1168,0.0
2,3, 2, 5, 0, 1, 0.00,60.00,Wednesday
7,2.2
545,18.500652362938702
546,3.6766960679988507
547,17.72659351650642
548,64.49311734048354
720,1439.6240471920246
721,1439.6240471920246
784,0.0
785,0.0
848,0.0
849,0.0
1121,1892.2455578241213
1135,578.8289621858745
1161,50.66987784300283
1163,110.40401373601382
1166,0.0
1168,0.0
2,3, 2, 5, 0, 2, 0.00,60.00,Wednesday
7,1.7
545,18.50938663594228
546,3.4425635688234526
547,17.66391560069306
548,80.82605029594185
720,1817.3178386068066
721,1817.3178386068066
784,0.0
785,0.0
848,0.0
849,0.0
1121,2411.941048762476
1135,735.1510589148135
1161,54.63393676792084
1163,87.7657221924378
1166,0.0
1168,0.0
2,3, 2, 5, 0, 3, 0.00,60.00,Wednesday
7,1.1
545,18.51357585973514
546,2.904159634418319
547,17.59400507154193
548,96.17580999561336
720,2115.727262712391
721,2115.727262712391
784,0.0
785,0.0
848,0.0
849,0.0
1121,2843.1922369888653
1135,866.0467873175303
1161,68.85126530358461
1163,66.24842498377863
1166,0.0
1168,0.0
2,3, 2, 5, 0, 4, 0.00,60.00,Wednesday
7,0.6
545,18.390805727728484
546,2.6833432166938236
547,17.517168765821758
548,118.32665396246061
720,2666.7454124301694
721,2666.7454124301694
784,0.0
785,0.0
848,0.0
849,0.0
1121,3599.0621049788956
1135,1084.3371405767377
1161,66.67724931501577
1163,35.678155614580696
1166,0.0
1168,0.0
2,3, 2, 5, 0, 5, 0.00,60.00,Wednesday
7,0.0
545,18.5334396022468
546,2.376809423339651
547,17.44465050605133
548,128.01062845424642
720,2791.4695295904094
721,2791.4695295904094
784,0.0
785,0.0
848,0.0
849,0.0
1121,3831.308858279174
1135,1155.626944173869
1161,79.68716156723823
1163,21.910264307898863
1166,0.0
1168,0.0
2,3, 2, 5, 0, 6, 0.00,60.00,Wednesday
7,0.0
545,19.341532668039203
546,2.800502915851164
547,17.383836803910807
548,143.24475279916902
720,3169.245111121434
721,3169.245111121434
784,0.0
785,0.0
848,0.0
849,0.0
1121,4363.136589696711
1135,1302.7126260684067
1161,84.23383874004638
1163,0.8285981964811118
1166,0.0
1168,0.0
2,3, 2, 5, 0, 7, 0.00,60.00,Wednesday
7,0.0
545,19.615731337234962
546,2.6278324499891785
547,17.35817550879311
548,136.9165679429941
720,2916.6848432816496
721,2916.6848432816496
784,0.0
785,0.0
848,0.0
849,0.0
1121,4131.390789337432
1135,1265.0963528208408
1161,80.51547913443379
1163,9.620681118701624
1166,0.0
1168,0.0
2,3, 2, 5, 0, 8, 0.00,60.00,Wednesday
7,0.0
545,19.736562099599148
546,2.8063431950531275
547,17.307666420098908
548,120.93345880582038
720,2564.145330142368
721,2564.145330142368
784,0.0
785,0.0
848,0.0
849,0.0
1121,3691.0537369215676
1135,1150.5989039984393
1161,49.762095003034084
1163,32.322368911943734
1166,0.0
1168,0.0
2,3, 2, 5, 0, 9, 0.00,60.00,Wednesday
7,1.1
545,19.748927812088723
546,3.4370688884448275
547,17.262836485340877
548,110.13369912224395
720,2398.639758586314
721,2398.639758586314
784,0.0
785,0.0
848,0.0
849,0.0
1121,3430.510712402694
1135,1059.795384051724
1161,45.00783529621278
1163,47.4677018192005
1166,0.0
1168,0.0
2,3, 2, 5, 0,10, 0.00,60.00,Wednesday
7,2.8
545,19.948258862266712
546,6.814998428876412
547,17.221077099633316
548,52.2984283385616
720,1043.9995849995812
721,1043.9995849995812
784,0.0
785,0.0
848,0.0
849,0.0
1121,1637.8402667310434
1135,514.1467370976051
1161,18.75349041604061
1163,127.71354586814934
1166,0.0
1168,0.0
2,3, 2, 5, 0,11, 0.00,60.00,Wednesday
7,4.4
545,19.803162276425045
546,10.611410768693935
547,17.18875405766535
548,13.73700432794186
720,234.0754275145464
721,234.0754275145464
784,0.0
785,0.0
848,0.0
849,0.0
1121,447.16699061725933
1135,141.27957417016154
1161,2.3128511432595866
1163,181.05453695823144
1166,0.0
1168,0.0
2,3, 2, 5, 0,12, 0.00,60.00,Wednesday
7,6.1
545,20.415517271672986
546,16.38516546375664
547,17.189812551367638
548,0.0
720,-300.71559775283094
721,-300.71559775283094
784,0.0
785,0.0
848,0.0
849,0.0
1121,0.0
1135,0.0
1161,0.0
1163,200.0
1166,0.0
1168,0.0
2,3, 2, 5, 0,13, 0.00,60.00,Wednesday
7,6.1
545,20.937275462330504
546,19.97762997803181
547,17.224479053482856
548,0.0
720,-918.8458999628401
721,-918.8458999628401
784,0.0
785,0.0
848,0.0
849,0.0
1121,0.0
1135,0.0
1161,0.0
1163,200.0
1166,0.0
1168,0.0
2,3, 2, 5, 0,14, 0.00,60.00,Wednesday
7,8.3
545,22.167944086012774
546,24.653258265762545
547,17.290216188463088
548,0.0
720,-1824.4814817160568
721,-1824.4814817160568
784,0.0
785,0.0
848,0.0
849,0.0
1121,0.0
1135,0.0
1161,0.0
1163,200.0
1166,0.0
1168,0.0
2,3, 2, 5, 0,15, 0.00,60.00,Wednesday
7,9.4
545,23.204778207910753
546,22.122282032304906
547,17.37829408431437
548,0.0
720,-2461.675973315423
721,-2461.675973315423
784,0.0
785,0.0
848,0.0
849,0.0
1121,0.0
1135,0.0
1161,0.0
1163,200.0
1166,0.0
1168,0.0
2,3, 2, 5, 0,16, 0.00,60.00,Wednesday
7,9.4
545,23.360697414255636
546,19.871394469680013
547,17.512855399585508
548,13.594164521842506
720,-3338.0657470998285
721,-3338.0657470998285
784,0.0
785,0.0
848,0.0
849,0.0
1121,0.0
1135,0.0
1161,0.0
1163,181.26761468998492
1166,0.0
1168,0.0
2,3, 2, 5, 0,17, 0.00,60.00,Wednesday
7,8.3
545,23.394582579335875
546,18.411093197614235
547,17.664821780125035
548,28.519595800222646
720,-4347.991767750231
721,-4347.991767750231
784,0.0
785,0.0
848,0.0
849,0.0
1121,0.0
1135,0.0
1161,0.0
1163,160.7007803563606
1166,0.0
1168,0.0
2,3, 2, 5, 0,18, 0.00,60.00,Wednesday
7,6.7
545,23.217869902427715
546,14.566316331988231
547,17.786217661518172
548,24.222022288735616
720,-4472.7397012169495
721,-4472.7397012169495
784,0.0
785,0.0
848,0.0
849,0.0
1121,0.0
1135,0.0
1161,0.0
1163,166.62271861052398
1166,0.0
1168,0.0
2,3, 2, 5, 0,19, 0.00,60.00,Wednesday
7,6.7
545,23.37383707997626
546,11.163071732382182
547,17.881211560756785
548,7.849096141481336
720,-3779.899689336078
721,-3779.899689336078
784,0.0
785,0.0
848,0.0
849,0.0
1121,0.0
1135,0.0
1161,0.0
1163,189.18416111403272
1166,0.0
1168,0.0
2,3, 2, 5, 0,20, 0.00,60.00,Wednesday
7,5.6
545,23.416235031127044
546,8.28836826531587
547,17.969910423950758
548,3.674063241286649
720,-3155.360277238624
721,-3155.360277238624
784,0.0
785,0.0
848,0.0
849,0.0
1121,0.0
1135,0.0
1161,0.0
1163,194.93724177174985
1166,0.0
1168,0.0
2,3, 2, 5, 0,21, 0.00,60.00,Wednesday
7,3.9
545,23.237863352598936
546,5.615023491886752
547,18.02356723507571
548,0.27921000700934634
720,-2802.6595543634503
721,-2802.6595543634503
784,0.0
785,0.0
848,0.0
849,0.0
1121,0.0
1135,0.0
1161,0.0
1163,199.6152562796112
1166,0.0
1168,0.0
2,3, 2, 5, 0,22, 0.00,60.00,Wednesday
7,2.8
545,22.594593946592564
546,3.953576433178604
547,18.053292627577104
548,0.0
720,-2269.884531423644
721,-2269.884531423644
784,0.0
785,0.0
848,0.0
849,0.0
1121,0.0
1135,0.0
1161,0.0
1163,200.0
1166,0.0
1168,0.0
2,3, 2, 5, 0,23, 0.00,60.00,Wednesday
7,1.7
545,21.851324983855903
546,2.0695241312810526
547,18.060618703762184
548,0.0
720,-2578.016066976672
721,-2578.016066976672
784,0.0
785,0.0
848,0.0
849,0.0
1121,0.0
1135,0.0
1161,0.0
1163,200.0
1166,0.0
1168,0.0
2,3, 2, 5, 0,24, 0.00,60.00,Wednesday
7,1.7
545,20.847126830182056
546,1.4220416896238597
547,18.04513682888742
548,0.0
720,-1783.6884751556572
721,-1783.6884751556572
784,0.0
785,0.0
848,0.0
849,0.0
1121,0.0
1135,0.0
1161,0.0
1163,200.0
1166,0.0
1168,0.0
2,4, 2, 6, 0, 1, 0.00,60.00,Thursday
7,1.7
545,19.981055624779355
546,1.037721383120016
547,18.013618805183413
548,0.0
720,-1122.2590828055563
721,-1122.2590828055563
784,0.0
785,0.0
848,0.0
849,0.0
1121,0.0
1135,0.0
1161,0.0
1163,200.0
1166,0.0
1168,0.0
2,4, 2, 6, 0, 2, 0.00,60.00,Thursday
7,1.1
545,18.862799926494645
546,1.0860829387366178
547,17.965496684885355
548,0.0
720,-204.12387432426658
721,-204.12387432426658
784,0.0
785,0.0
848,0.0
849,0.0
1121,0.0
1135,0.0
1161,0.0
1163,200.0
1166,0.0
1168,0.0
2,4, 2, 6, 0, 3, 0.00,60.00,Thursday
7,2.2
545,18.566066372753053
546,1.4106140532584603
547,17.89931348419842
548,13.290841937852596
720,293.0062293060546
721,293.0062293060546
784,0.0
785,0.0
848,0.0
849,0.0
1121,373.68920226563733
1135,120.323416915777
1161,10.456265426715875
1163,181.53537857697796
1166,0.0
1168,0.0
2,4, 2, 6, 0, 4, 0.00,60.00,Thursday
7,2.2
545,18.743312173678376
546,0.34072775111235226
547,17.819044802971803
548,31.964436677604574
720,706.853654294946
721,706.853654294946
784,0.0
785,0.0
848,0.0
849,0.0
1121,923.2162304723282
1135,290.60030120565415
1161,22.914216967098753
1163,155.62850767778082
1166,0.0
1168,0.0
2,4, 2, 6, 0, 5, 0.00,60.00,Thursday
7,1.1
545,18.525624019186854
546,-0.6034490855757653
547,17.742104792515256
548,38.37391097824085
720,781.5573863811333
721,781.5573863811333
784,0.0
785,0.0
848,0.0
849,0.0
1121,1081.2470165842649
1135,347.24784540987
1161,27.511407488312678
1163,146.63207194295785
1166,0.0
1168,0.0
2,4, 2, 6, 0, 6, 0.00,60.00,Thursday
7,1.1
545,19.241486165258276
546,-0.5373957974210873
547,17.632112918225438
548,83.77976025420709
720,1835.2674921947473
721,1835.2674921947473
784,0.0
785,0.0
848,0.0
849,0.0
1121,2476.0298788011933
1135,761.7251812113419
1161,54.528048164516704
1163,83.59319687663185
1166,0.0
1168,0.0
2,4, 2, 6, 0, 7, 0.00,60.00,Thursday
7,1.1
545,19.523079136761567
546,-0.31530721623331975
547,17.580112279388057
548,97.39096158708291
720,2042.8622797127282
721,2042.8622797127282
784,0.0
785,0.0
848,0.0
849,0.0
1121,2900.752039729499
1135,897.8478729444911
1161,63.38868168157799
1163,64.67746348641556
1166,0.0
1168,0.0
2,4, 2, 6, 0, 8, 0.00,60.00,Thursday
7,4.4
545,19.817004054083185
546,2.2533596456249776
547,17.538703700088767
548,62.17183800405675
720,1287.3007623876656
721,1287.3007623876656
784,0.0
785,0.0
848,0.0
849,0.0
1121,1962.2739396907573
1135,592.5045938935888
1161,39.680141213620054
1163,114.03106312946574
1166,0.0
1168,0.0
2,4, 2, 6, 0, 9, 0.00,60.00,Thursday
7,9.4
545,19.92520214958627
546,7.505453195258027
547,17.488549222659422
548,12.558867589744262
720,287.5270464305431
721,287.5270464305431
784,0.0
785,0.0
848,0.0
849,0.0
1121,542.4384020076017
1135,145.95329471043647
1161,0.0
1163,182.69422542514118
1166,0.0
1168,0.0
2,4, 2, 6, 0,10, 0.00,60.00,Thursday
7,12.2
545,20.664132074783545
546,13.5131312121641
547,17.45795796450178
548,0.0
720,-694.6651484055656
721,-694.6651484055656
784,0.0
785,0.0
848,0.0
849,0.0
1121,0.0
1135,0.0
1161,0.0
1163,0.0
1166,0.0
1168,0.0
2,4, 2, 6, 0,11, 0.00,60.00,Thursday
7,15.6
545,21.73523136831926
546,19.503177835191476
547,17.468566154619644
548,0.0
720,-1747.151058223506
721,-1747.151058223506
784,0.0
785,0.0
848,0.0
849,0.0
1121,0.0
1135,0.0
1161,0.0
1163,0.0
1166,0.0
1168,0.0
2,4, 2, 6, 0,12, 0.00,60.00,Thursday
7,15.6
545,22.50147862762861
546,23.26056324796318
547,17.515332434929288
548,0.0
720,-2403.13358595906
721,-2403.13358595906
784,0.0
785,0.0
848,0.0
849,0.0
1121,0.0
1135,0.0
1161,0.0
1163,0.0
1166,0.0
1168,0.0
2,4, 2, 6, 0,13, 0.00,60.00,Thursday
7,15.6
545,23.30345953792653
546,25.54516922407168
547,17.59538360974929
548,0.0
720,-2920.1473831610565
721,-2920.1473831610565
784,0.0
785,0.0
848,0.0
849,0.0
1121,0.0
1135,0.0
1161,0.0
1163,0.0
1166,0.0
1168,0.0
2,4, 2, 6, 0,14, 0.00,60.00,Thursday
7,15.6
545,23.38092320336662
546,25.27265012697965
547,17.725136483583025
548,13.255916187415606
720,-3230.300800397663
721,-3230.300800397663
784,0.0
785,0.0
848,0.0
849,0.0
1121,0.0
1135,0.0
1161,0.0
1163,0.0
1166,0.0
1168,0.0
2,4, 2, 6, 0,15, 0.00,60.00,Thursday
7,16.1
545,23.462775876332913
546,25.844125335728766
547,17.88133228299723
548,33.29114233333496
720,-4116.081440855032
721,-4116.081440855032
784,0.0
785,0.0
848,0.0
849,0.0
1121,0.0
1135,0.0
1161,0.0
1163,0.0
1166,0.0
1168,0.0
2,4, 2, 6, 0,16, 0.00,60.00,Thursday
7,16.1
545,23.351984185487012
546,24.384447083741545
547,18.07485910024461
548,53.92378264217241
720,-5456.308170672506
721,-5456.308170672506
784,0.0
785,0.0
848,0.0
849,0.0
1121,0.0
1135,0.0
1161,0.0
1163,0.0
1166,0.0
1168,0.0
2,4, 2, 6, 0,17, 0.00,60.00,Thursday
7,15.0
545,23.32286907432433
546,22.125171424958882
547,18.248871043984206
548,63.56323532850799
720,-6074.520470048112
721,-6074.520470048112
784,0.0
785,0.0
848,0.0
849,0.0
1121,0.0
1135,0.0
1161,0.0
1163,0.0
1166,0.0
1168,0.0
2,4, 2, 6, 0,18, 0.00,60.00,Thursday
7,12.8
545,23.322389813844875
546,18.668360897663607
547,18.372694792194498
548,50.00697070227439
720,-5683.113398813777
721,-5683.113398813777
784,0.0
785,0.0
848,0.0
849,0.0
1121,0.0
1135,0.0
1161,0.0
1163,0.0
1166,0.0
1168,0.0
2,4, 2, 6, 0,19, 0.00,60.00,Thursday
7,12.8
545,23.338213147886165
546,15.968484993553307
547,18.477406840925877
548,34.405445397510164
720,-4926.651348703879
721,-4926.651348703879
784,0.0
785,0.0
848,0.0
849,0.0
1121,0.0
1135,0.0
1161,0.0
1163,0.0
1166,0.0
1168,0.0
2,4, 2, 6, 0,20, 0.00,60.00,Thursday
7,10.6
545,23.2594025492708
546,13.36659293717567
547,18.551052166435703
548,24.902780314575224
720,-4345.831782986648
721,-4345.831782986648
784,0.0
785,0.0
848,0.0
849,0.0
1121,0.0
1135,0.0
1161,0.0
1163,0.0
1166,0.0
1168,0.0
2,4, 2, 6, 0,21, 0.00,60.00,Thursday
7,10.0