Program Version,EnergyPlus, Version 22.2.0-c249759bad, YMD=2023.09.01 15:45
1,5,Environment Title[],Latitude[deg],Longitude[deg],Time Zone[],Elevation[m]
2,8,Day of Simulation[],Month[],Day of Month[],DST Indicator[1=yes 0=no],Hour[],StartMinute[],EndMinute[],DayType
3,5,Cumulative Day of Simulation[],Month[],Day of Month[],DST Indicator[1=yes 0=no],DayType  ! When Daily Report Variables Requested
4,2,Cumulative Days of Simulation[],Month[]  ! When Monthly Report Variables Requested
5,1,Cumulative Days of Simulation[] ! When Run Period Report Variables Requested
6,1,Calendar Year of Simulation[] ! When Annual Report Variables Requested
581,11,LIVING,AFN Zone Infiltration Air Change Rate [ach] !RunPeriod [Value,Min,Month,Day,Hour,Minute,Max,Month,Day,Hour,Minute]
582,11,ATTIC,AFN Zone Infiltration Air Change Rate [ach] !RunPeriod [Value,Min,Month,Day,Hour,Minute,Max,Month,Day,Hour,Minute]
583,11,CRAWLSPACE,AFN Zone Infiltration Air Change Rate [ach] !RunPeriod [Value,Min,Month,Day,Hour,Minute,Max,Month,Day,Hour,Minute]
1038,11,Facility,Facility Heating Setpoint Not Met Time [hr] !RunPeriod [Value,Min,Month,Day,Hour,Minute,Max,Month,Day,Hour,Minute]
1039,11,Facility,Facility Cooling Setpoint Not Met Time [hr] !RunPeriod [Value,Min,Month,Day,Hour,Minute,Max,Month,Day,Hour,Minute]
1115,11,DX_HEATING_COIL,Heating Coil Heating Energy [J] !RunPeriod [Value,Min,Month,Day,Hour,Minute,Max,Month,Day,Hour,Minute]
1128,11,DX_HEATING_COIL,Heating Coil Electricity Energy [J] !RunPeriod [Value,Min,Month,Day,Hour,Minute,Max,Month,Day,Hour,Minute]
1153,11,DX_HEATING_COIL,Heating Coil Defrost Electricity Energy [J] !RunPeriod [Value,Min,Month,Day,Hour,Minute,Max,Month,Day,Hour,Minute]
1154,11,DX_HEATING_COIL,Heating Coil Crankcase Heater Electricity Energy [J] !RunPeriod [Value,Min,Month,Day,Hour,Minute,Max,Month,Day,Hour,Minute]
1155,11,HEATING_RESISTANCE_BACKUP,Heating Coil Heating Energy [J] !RunPeriod [Value,Min,Month,Day,Hour,Minute,Max,Month,Day,Hour,Minute]
1156,11,HEATING_RESISTANCE_BACKUP,Heating Coil Electricity Energy [J] !RunPeriod [Value,Min,Month,Day,Hour,Minute,Max,Month,Day,Hour,Minute]
1292,11,WATER HEATER,Water Heater Heat Loss Energy [J] !RunPeriod [Value,Min,Month,Day,Hour,Minute,Max,Month,Day,Hour,Minute]
1306,11,WATER HEATER,Water Heater Heating Energy [J] !RunPeriod [Value,Min,Month,Day,Hour,Minute,Max,Month,Day,Hour,Minute]
1307,11,WATER HEATER,Water Heater Unmet Demand Heat Transfer Energy [J] !RunPeriod [Value,Min,Month,Day,Hour,Minute,Max,Month,Day,Hour,Minute]
1308,11,WATER HEATER,Water Heater Electricity Energy [J] !RunPeriod [Value,Min,Month,Day,Hour,Minute,Max,Month,Day,Hour,Minute]
13,11,Electricity:Facility [J] !RunPeriod [Value,Min,Month,Day,Hour,Minute,Max,Month,Day,Hour,Minute]
1134,11,Heating:Electricity [J] !RunPeriod [Value,Min,Month,Day,Hour,Minute,Max,Month,Day,Hour,Minute]
1096,11,Cooling:Electricity [J] !RunPeriod [Value,Min,Month,Day,Hour,Minute,Max,Month,Day,Hour,Minute]
562,11,Fans:Electricity [J] !RunPeriod [Value,Min,Month,Day,Hour,Minute,Max,Month,Day,Hour,Minute]
1379,11,Pumps:Electricity [J] !RunPeriod [Value,Min,Month,Day,Hour,Minute,Max,Month,Day,Hour,Minute]
1326,11,WaterSystems:Electricity [J] !RunPeriod [Value,Min,Month,Day,Hour,Minute,Max,Month,Day,Hour,Minute]
61,11,InteriorLights:Electricity [J] !RunPeriod [Value,Min,Month,Day,Hour,Minute,Max,Month,Day,Hour,Minute]
1046,11,ExteriorLights:Electricity [J] !RunPeriod [Value,Min,Month,Day,Hour,Minute,Max,Month,Day,Hour,Minute]
134,11,InteriorEquipment:Electricity [J] !RunPeriod [Value,Min,Month,Day,Hour,Minute,Max,Month,Day,Hour,Minute]
170,11,gas_dryer:InteriorEquipment:Electricity [J] !RunPeriod [Value,Min,Month,Day,Hour,Minute,Max,Month,Day,Hour,Minute]
207,11,clotheswasher:InteriorEquipment:Electricity [J] !RunPeriod [Value,Min,Month,Day,Hour,Minute,Max,Month,Day,Hour,Minute]
244,11,dishwasher:InteriorEquipment:Electricity [J] !RunPeriod [Value,Min,Month,Day,Hour,Minute,Max,Month,Day,Hour,Minute]
281,11,refrigerator:InteriorEquipment:Electricity [J] !RunPeriod [Value,Min,Month,Day,Hour,Minute,Max,Month,Day,Hour,Minute]
318,11,electric_mels:InteriorEquipment:Electricity [J] !RunPeriod [Value,Min,Month,Day,Hour,Minute,Max,Month,Day,Hour,Minute]
355,11,NaturalGas:Facility [J] !RunPeriod [Value,Min,Month,Day,Hour,Minute,Max,Month,Day,Hour,Minute]
403,11,InteriorEquipment:NaturalGas [J] !RunPeriod [Value,Min,Month,Day,Hour,Minute,Max,Month,Day,Hour,Minute]
476,11,gas_dryer:InteriorEquipment:NaturalGas [J] !RunPeriod [Value,Min,Month,Day,Hour,Minute,Max,Month,Day,Hour,Minute]
513,11,gas_mels:InteriorEquipment:NaturalGas [J] !RunPeriod [Value,Min,Month,Day,Hour,Minute,Max,Month,Day,Hour,Minute]
End of Data Dictionary
1,EXTREME_WINTER,  39.12, -94.60,  -6.00, 231.00
5,7
1038,0.75,0.0, 1,13, 1,15,0.25, 1,16, 6,15
1039,0.0,0.0, 1,13, 1,15,0.0, 1,13, 1,15
581,0.40504746809949904,0.1760275238281847, 1,19,19,60,0.6572739139138575, 1,13, 3,60
582,3.736718482579961,0.0, 1,19, 4,60,13.669768599861642, 1,18,14,45
583,0.06102032475510452,0.00019429427941264522, 1,19,19,40,0.08497377871726583, 1,13, 3,60
1115,1899947914.3731947,0.0, 1,13,23, 5,4352969.007871381, 1,18, 8,45
1128,666645938.6284317,0.0, 1,13,23, 5,1331972.7456293681, 1,13, 8,60
1153,16462030.103366088,0.0, 1,13,23, 5,82760.54701500942, 1,18, 7,60
1154,27977479.168540403,0.0, 1,13, 1, 7,180000.0, 1,18,13,45
1155,592875570.2841758,0.0, 1,13,23, 5,5350391.311201403, 1,16, 6,45
1156,592875570.2841758,0.0, 1,13,23, 5,5350391.311201403, 1,16, 6,45
1292,-25369242.43903135,-39766.21056048545, 1,17, 5,15,-5175.306168759966, 1,16,12,45
1306,230344958.29807302,0.0, 1,13, 1, 7,7396941.846567995, 1,13, 7,45
1307,5684214.096202086,0.0, 1,13, 1, 7,1890196.836782646, 1,19,19,55
1308,230344958.29807302,0.0, 1,13, 1, 7,7396941.846567995, 1,13, 7,45
13,1981086108.132356,458150.8545527997, 1,19,15,15,12497678.329069167, 1,17, 6,60
61,301924526.02383536,88139.10953165221, 1,13, 1,15,1282023.4113694867, 1,13,20,15
134,70666020.44019976,63564.01800854099, 1,13, 4,15,156554.22484006523, 1,18,20,15
170,5241013.419656067,348.4159749238097, 1,13, 4,15,17476.39704006126, 1,18,12,15
207,6509451.13922267,815.2532113832032, 1,13, 3,15,22990.642799023623, 1,18,10,15
244,12749673.399825225,1521.856143006317, 1,13, 4,15,53038.631142310165, 1,18,20,15
281,46165882.481495745,59938.60262432081, 1,13, 5,15,81951.81706819107, 1,13,19,15
318,0.0,0.0, 1,13, 1,15,0.0, 1,13, 1,15
355,197687796.27748066,18561.32405820678, 1,13, 4,15,724774.895203776, 1,18,18,15
403,197687796.27748066,18561.32405820678, 1,13, 4,15,724774.895203776, 1,18,18,15
476,106772067.24485716,7098.072629279515, 1,13, 4,15,356036.3026282215, 1,18,12,15
513,0.0,0.0, 1,13, 1,15,0.0, 1,13, 1,15
562,74189585.18573697,0.0, 1,16,17,15,143879.57346637867, 1,16,10,30
1046,0.0,0.0, 1,13, 1,15,0.0, 1,13, 1,15
1096,0.0,0.0, 1,13, 1,15,0.0, 1,13, 1,15
1134,1303961018.1845138,180000.0, 1,16,17,15,6581653.334800551, 1,16, 6,60
1326,230344958.29807302,0.0, 1,13, 1,15,10340693.228234742, 1,19, 9,45
1379,0.0,0.0, 1,13, 1,15,0.0, 1,13, 1,15
1,EXTREME_SUMMER,  39.12, -94.60,  -6.00, 231.00
5,7
1038,0.0,0.0, 8,24, 1,15,0.0, 8,24, 1,15
1039,58.5,0.0, 8,24, 1,15,0.25, 8,24,14,30
581,0.15873210722553266,0.0009226275706978333, 8,28, 6, 7,0.36024439383827184, 8,24,16,51
582,3.7054907624355757,0.40312841692498946, 8,28, 4,37,8.70684472435232, 8,28,15,48
583,0.04906081508499851,0.0009695206625279247, 8,29,23, 3,0.07554637251718634, 8,27, 6, 3
1115,0.0,0.0, 8,24, 1,15,0.0, 8,24, 1,15
1128,0.0,0.0, 8,24, 1,15,0.0, 8,24, 1,15
1153,0.0,0.0, 8,24, 1,15,0.0, 8,24, 1,15
1154,0.0,0.0, 8,24, 1,15,0.0, 8,24, 1,15
1155,0.0,0.0, 8,24, 1,15,0.0, 8,24, 1,15
1156,0.0,0.0, 8,24, 1,15,0.0, 8,24, 1,15
1292,-21688223.16143784,-34347.84187419449, 8,28, 7,15,-4777.34230118681, 8,28, 9,14
1306,160076108.37674233,0.0, 8,24, 1,15,5045162.141279768, 8,28, 6,60
1307,435467.2811100441,0.0, 8,24, 1,15,99967.27186148652, 8,30,19,60
1308,160076108.37674233,0.0, 8,24, 1,15,5045162.141279768, 8,28, 6,60
13,1247367333.7597973,309163.1804381589, 8,28, 4,60,12163968.621489638, 8,30,19,60
61,301924526.02383536,88139.10953165221, 8,24, 1,15,1282023.4113694867, 8,24,20,15
134,70666020.44019976,63564.01800854099, 8,24, 4,15,156554.22484006523, 8,29,20,15
170,5241013.419656067,348.4159749238097, 8,24, 4,15,17476.39704006126, 8,29,12,15
207,6509451.13922267,815.2532113832032, 8,24, 3,15,22990.642799023623, 8,29,10,15
244,12749673.399825225,1521.856143006317, 8,24, 4,15,53038.631142310165, 8,29,20,15
281,46165882.481495745,59938.60262432081, 8,24, 5,15,81951.81706819107, 8,24,19,15
318,0.0,0.0, 8,24, 1,15,0.0, 8,24, 1,15
355,197687796.27748066,18561.32405820678, 8,24, 4,15,724774.895203776, 8,29,18,15
403,197687796.27748066,18561.32405820678, 8,24, 4,15,724774.895203776, 8,29,18,15
476,106772067.24485716,7098.072629279515, 8,24, 4,15,356036.3026282215, 8,29,12,15
513,0.0,0.0, 8,24, 1,15,0.0, 8,24, 1,15
562,64714808.85474295,15306.877324240682, 8,28, 5,60,143879.57346637867, 8,24,16,15
1046,0.0,0.0, 8,24, 1,15,0.0, 8,24, 1,15
1096,649985870.0642757,131778.01674265694, 8,28, 5,60,1662161.5445238394, 8,30,16,60
1134,0.0,0.0, 8,24, 1,15,0.0, 8,24, 1,15
1326,160076108.37674233,0.0, 8,24, 1,15,9184693.107206065, 8,30,19,60
1379,0.0,0.0, 8,24, 1,15,0.0, 8,24, 1,15
1,ANNUAL,  39.12, -94.60,  -6.00, 231.00
5,365
1038,7.75,0.0, 1, 1, 1,15,0.25, 1, 9, 6,15
1039,464.25,0.0, 1, 1, 1,15,0.25, 1, 6,16,15
581,0.24636280334060612,0.0, 5,27,23, 3,1.1408484228445097, 6,27, 5,60
582,3.984177167459762,0.0, 1, 1,19,50,23.370043554834343, 2,10,17,52
583,0.029728608162689296,0.0, 5,27,23, 3,0.092143445884435, 9,23,14,52
1115,19330103201.548378,0.0, 1, 1,11,51,4686771.463505844, 3,28, 6,45
1128,6242282965.98019,0.0, 1, 1,11,51,1406644.5435760245, 1, 8, 8,30
1153,173582701.9643698,0.0, 1, 1,11,51,131004.70351346601, 3,28,15,45
1154,1402859433.117741,0.0, 1, 1, 6, 5,180000.0, 1, 1,14,30
1155,2564616134.8091793,0.0, 1, 1, 1, 7,5350391.311201403, 1,16, 6,30
1156,2564616134.8091793,0.0, 1, 1, 1, 7,5350391.311201403, 1,16, 6,30
1292,-1215000883.3548691,-39804.86944489005,12,25, 1,30,-2166.1950990909304, 6,18,19,24
1306,10248800977.144697,0.0, 1, 1, 1, 7,10540800.0,12,24,19,60
1307,157495946.7918219,0.0, 1, 1, 1, 7,5452089.269474333, 1,22,19,60
1308,10248800977.144697,0.0, 1, 1, 1, 7,10540800.0,12,24,19,60
13,52870713043.33347,151703.1275401932, 3, 6, 4,15,14773875.244344145, 1,16, 7,45
61,15743207428.383959,88139.10953165221, 1, 1, 1,15,1282023.4113694867, 1, 1,20,15
134,3685071073.4325233,63564.01800854099, 1, 2, 4,15,156554.22484006523, 1, 1,20,15
170,273393721.45532674,348.4159749238097, 1, 2, 4,15,17476.39704006126, 1, 1,12,15
207,339560869.0695816,815.2532113832032, 1, 2, 3,15,22990.642799023623, 1, 1,10,15
244,664895467.8009144,1521.856143006317, 1, 2, 4,15,53038.631142310165, 1, 1,20,15
281,2407221015.106824,59938.60262432081, 1, 1, 5,15,81951.81706819107, 1, 1,19,15
318,0.0,0.0, 1, 1, 1,15,0.0, 1, 1, 1,15
355,10310294493.051695,18561.32405820678, 1, 2, 4,15,724774.895203776, 1, 1,18,15
403,10310294493.051695,18561.32405820678, 1, 2, 4,15,724774.895203776, 1, 1,18,15
476,5569688622.066177,7098.072629279515, 1, 2, 4,15,356036.3026282215, 1, 1,12,15
513,0.0,0.0, 1, 1, 1,15,0.0, 1, 1, 1,15
562,1888151159.7347112,0.0, 1, 1,12,15,143879.5734663787, 6,18,19,15
1046,0.0,0.0, 1, 1, 1,15,0.0, 1, 1, 1,15
1096,10922141168.764048,0.0, 1, 1, 1,15,1664874.6803286134, 8,30,16,60
1134,10383341235.871485,0.0, 1, 3,12,60,6575092.588775849, 1,16, 6,60
1326,10248800977.144705,0.0, 1, 1, 1,15,10540800.0, 3,19,19,60
1379,0.0,0.0, 1, 1, 1,15,0.0, 1, 1, 1,15
End of Data
 Number of Records Written=          99
