Program Version,EnergyPlus, Version 22.2.0-c249759bad, YMD=2023.09.01 20:47
1,5,Environment Title[],Latitude[deg],Longitude[deg],Time Zone[],Elevation[m]
2,8,Day of Simulation[],Month[],Day of Month[],DST Indicator[1=yes 0=no],Hour[],StartMinute[],EndMinute[],DayType
3,5,Cumulative Day of Simulation[],Month[],Day of Month[],DST Indicator[1=yes 0=no],DayType  ! When Daily Report Variables Requested
4,2,Cumulative Days of Simulation[],Month[]  ! When Monthly Report Variables Requested
5,1,Cumulative Days of Simulation[] ! When Run Period Report Variables Requested
6,1,Calendar Year of Simulation[] ! When Annual Report Variables Requested
581,11,LIVING,AFN Zone Infiltration Air Change Rate [ach] !RunPeriod [Value,Min,Month,Day,Hour,Minute,Max,Month,Day,Hour,Minute]
582,11,ATTIC,AFN Zone Infiltration Air Change Rate [ach] !RunPeriod [Value,Min,Month,Day,Hour,Minute,Max,Month,Day,Hour,Minute]
583,11,CRAWLSPACE,AFN Zone Infiltration Air Change Rate [ach] !RunPeriod [Value,Min,Month,Day,Hour,Minute,Max,Month,Day,Hour,Minute]
1038,11,Facility,Facility Heating Setpoint Not Met Time [hr] !RunPeriod [Value,Min,Month,Day,Hour,Minute,Max,Month,Day,Hour,Minute]
1039,11,Facility,Facility Cooling Setpoint Not Met Time [hr] !RunPeriod [Value,Min,Month,Day,Hour,Minute,Max,Month,Day,Hour,Minute]
1115,11,DX_HEATING_COIL,Heating Coil Heating Energy [J] !RunPeriod [Value,Min,Month,Day,Hour,Minute,Max,Month,Day,Hour,Minute]
1128,11,DX_HEATING_COIL,Heating Coil Electricity Energy [J] !RunPeriod [Value,Min,Month,Day,Hour,Minute,Max,Month,Day,Hour,Minute]
1153,11,DX_HEATING_COIL,Heating Coil Defrost Electricity Energy [J] !RunPeriod [Value,Min,Month,Day,Hour,Minute,Max,Month,Day,Hour,Minute]
1154,11,DX_HEATING_COIL,Heating Coil Crankcase Heater Electricity Energy [J] !RunPeriod [Value,Min,Month,Day,Hour,Minute,Max,Month,Day,Hour,Minute]
1155,11,HEATING_RESISTANCE_BACKUP,Heating Coil Heating Energy [J] !RunPeriod [Value,Min,Month,Day,Hour,Minute,Max,Month,Day,Hour,Minute]
1156,11,HEATING_RESISTANCE_BACKUP,Heating Coil Electricity Energy [J] !RunPeriod [Value,Min,Month,Day,Hour,Minute,Max,Month,Day,Hour,Minute]
1292,11,WATER HEATER,Water Heater Heat Loss Energy [J] !RunPeriod [Value,Min,Month,Day,Hour,Minute,Max,Month,Day,Hour,Minute]
1306,11,WATER HEATER,Water Heater Heating Energy [J] !RunPeriod [Value,Min,Month,Day,Hour,Minute,Max,Month,Day,Hour,Minute]
1307,11,WATER HEATER,Water Heater Unmet Demand Heat Transfer Energy [J] !RunPeriod [Value,Min,Month,Day,Hour,Minute,Max,Month,Day,Hour,Minute]
1308,11,WATER HEATER,Water Heater Electricity Energy [J] !RunPeriod [Value,Min,Month,Day,Hour,Minute,Max,Month,Day,Hour,Minute]
13,11,Electricity:Facility [J] !RunPeriod [Value,Min,Month,Day,Hour,Minute,Max,Month,Day,Hour,Minute]
1134,11,Heating:Electricity [J] !RunPeriod [Value,Min,Month,Day,Hour,Minute,Max,Month,Day,Hour,Minute]
1096,11,Cooling:Electricity [J] !RunPeriod [Value,Min,Month,Day,Hour,Minute,Max,Month,Day,Hour,Minute]
562,11,Fans:Electricity [J] !RunPeriod [Value,Min,Month,Day,Hour,Minute,Max,Month,Day,Hour,Minute]
1379,11,Pumps:Electricity [J] !RunPeriod [Value,Min,Month,Day,Hour,Minute,Max,Month,Day,Hour,Minute]
1326,11,WaterSystems:Electricity [J] !RunPeriod [Value,Min,Month,Day,Hour,Minute,Max,Month,Day,Hour,Minute]
61,11,InteriorLights:Electricity [J] !RunPeriod [Value,Min,Month,Day,Hour,Minute,Max,Month,Day,Hour,Minute]
1046,11,ExteriorLights:Electricity [J] !RunPeriod [Value,Min,Month,Day,Hour,Minute,Max,Month,Day,Hour,Minute]
134,11,InteriorEquipment:Electricity [J] !RunPeriod [Value,Min,Month,Day,Hour,Minute,Max,Month,Day,Hour,Minute]
170,11,gas_dryer:InteriorEquipment:Electricity [J] !RunPeriod [Value,Min,Month,Day,Hour,Minute,Max,Month,Day,Hour,Minute]
207,11,clotheswasher:InteriorEquipment:Electricity [J] !RunPeriod [Value,Min,Month,Day,Hour,Minute,Max,Month,Day,Hour,Minute]
244,11,dishwasher:InteriorEquipment:Electricity [J] !RunPeriod [Value,Min,Month,Day,Hour,Minute,Max,Month,Day,Hour,Minute]
281,11,refrigerator:InteriorEquipment:Electricity [J] !RunPeriod [Value,Min,Month,Day,Hour,Minute,Max,Month,Day,Hour,Minute]
318,11,electric_mels:InteriorEquipment:Electricity [J] !RunPeriod [Value,Min,Month,Day,Hour,Minute,Max,Month,Day,Hour,Minute]
355,11,NaturalGas:Facility [J] !RunPeriod [Value,Min,Month,Day,Hour,Minute,Max,Month,Day,Hour,Minute]
403,11,InteriorEquipment:NaturalGas [J] !RunPeriod [Value,Min,Month,Day,Hour,Minute,Max,Month,Day,Hour,Minute]
476,11,gas_dryer:InteriorEquipment:NaturalGas [J] !RunPeriod [Value,Min,Month,Day,Hour,Minute,Max,Month,Day,Hour,Minute]
513,11,gas_mels:InteriorEquipment:NaturalGas [J] !RunPeriod [Value,Min,Month,Day,Hour,Minute,Max,Month,Day,Hour,Minute]
End of Data Dictionary
1,EXTREME_WINTER,  34.92, -92.15,  -6.00,  95.00
5,7
1038,0.0,0.0, 1,29, 1,15,0.0, 1,29, 1,15
1039,0.0,0.0, 1,29, 1,15,0.0, 1,29, 1,15
581,0.2584336585916729,0.12204644724118759, 2, 4, 3,50,0.48132069910344843, 1,30, 8,60
582,2.6318552619528597,0.0, 2, 1,20,50,8.777090105222397, 2, 3,14,60
583,0.01882206249026172,0.00019645946492860067, 2, 4,23,15,0.07640864601888749, 1,29, 6,60
1115,612122860.0805379,0.0, 1,29, 1,15,4170479.2055993243, 2, 1, 7,60
1128,198632930.57188264,0.0, 1,29, 1,15,1382411.2253730197, 2, 1, 6,30
1153,7845110.874669707,0.0, 1,29, 1,15,72900.26869870855, 1,29, 7,15
1154,78378435.36822006,0.0, 1,29, 6, 5,180000.0, 1,29, 1,15
1155,8799944.248193623,0.0, 1,29, 1,15,961379.0917847722, 1,29, 6, 5
1156,8799944.248193623,0.0, 1,29, 1,15,961379.0917847722, 1,29, 6, 5
1292,-24354977.016512573,-39750.79737571068, 1,31, 2,45,-3319.398524483994, 2, 2,10, 2
1306,330239312.2871997,0.0, 1,29, 1,15,4050000.0, 1,29,16,60
1307,140399475.84483883,0.0, 1,29, 1,15,10240582.882635124, 2, 4,20,60
1308,330239312.2871997,0.0, 1,29, 1,15,4050000.0, 1,29,16,60
13,1029052831.4574151,279566.45160502766, 2, 2,14,15,5990556.20587216, 1,31, 8,60
61,301924526.02383536,88139.10953165221, 1,29, 1,15,1282023.4113694867, 1,29,20,15
134,70666020.44019976,63564.01800854099, 1,29, 4,15,156554.22484006523, 2, 3,20,15
170,5241013.419656067,348.4159749238097, 1,29, 4,15,17476.39704006126, 2, 3,12,15
207,6509451.13922267,815.2532113832032, 1,29, 3,15,22990.642799023623, 2, 3,10,15
244,12749673.399825225,1521.856143006317, 1,29, 4,15,53038.631142310165, 2, 3,20,15
281,46165882.481495745,59938.60262432081, 1,29, 5,15,81951.81706819107, 1,29,19,15
318,0.0,0.0, 1,29, 1,15,0.0, 1,29, 1,15
355,197687796.27748066,18561.32405820678, 1,29, 4,15,724774.895203776, 2, 3,18,15
403,197687796.27748066,18561.32405820678, 1,29, 4,15,724774.895203776, 2, 3,18,15
476,106772067.24485716,7098.072629279515, 1,29, 4,15,356036.3026282215, 2, 3,12,15
513,0.0,0.0, 1,29, 1,15,0.0, 1,29, 1,15
562,22230599.241245583,0.0, 1,29, 1,15,140245.70751400516, 1,29, 6,45
1046,0.0,0.0, 1,29, 1,15,0.0, 1,29, 1,15
1096,10335952.401969293,0.0, 1,29, 1,15,342080.40791334107, 2, 2,17,30
1134,293656421.06296575,0.0, 2, 2,12,60,2614952.187521795, 2, 1, 6,15
1326,330239312.2871998,0.0, 1,29, 1,15,4050000.0, 1,29, 9,60
1379,0.0,0.0, 1,29, 1,15,0.0, 1,29, 1,15
1,EXTREME_SUMMER,  34.92, -92.15,  -6.00,  95.00
5,7
1038,0.0,0.0, 9, 2, 1,15,0.0, 9, 2, 1,15
1039,66.25,0.0, 9, 2, 1,15,0.25, 9, 2,14,30
581,0.10553105222104353,0.0, 9, 3,23,52,0.6241926360983708, 9, 7,22,60
582,3.007865585994278,0.0, 9, 7,19,57,13.408224431803507, 9, 7,22,55
583,0.04772390149740365,0.0000582376727558237, 9, 4,23, 3,0.07678367226485175, 9, 7,22,60
1115,0.0,0.0, 9, 2, 1,15,0.0, 9, 2, 1,15
1128,0.0,0.0, 9, 2, 1,15,0.0, 9, 2, 1,15
1153,0.0,0.0, 9, 2, 1,15,0.0, 9, 2, 1,15
1154,0.0,0.0, 9, 2, 1,15,0.0, 9, 2, 1,15
1155,0.0,0.0, 9, 2, 1,15,0.0, 9, 2, 1,15
1156,0.0,0.0, 9, 2, 1,15,0.0, 9, 2, 1,15
1292,-21485889.654462095,-34351.3396275366, 9, 2,22,45,-2671.158166519542, 9, 7, 9,46
1306,239062106.55351028,0.0, 9, 2, 1,15,4050000.0, 9, 2,21,45
1307,68904778.47000039,0.0, 9, 2, 1,15,3076187.7376987, 9, 8,20,60
1308,239062106.55351028,0.0, 9, 2, 1,15,4050000.0, 9, 2,21,45
13,1327141597.778742,341065.1793064455, 9, 7, 4,60,7052543.192887337, 9, 3,20,15
61,301924526.02383536,88139.10953165221, 9, 2, 1,15,1282023.4113694867, 9, 2,20,15
134,70666020.44019976,63564.01800854099, 9, 2, 4,15,156554.22484006523, 9, 7,20,15
170,5241013.419656067,348.4159749238097, 9, 2, 4,15,17476.39704006126, 9, 7,12,15
207,6509451.13922267,815.2532113832032, 9, 2, 3,15,22990.642799023623, 9, 7,10,15
244,12749673.399825225,1521.856143006317, 9, 2, 4,15,53038.631142310165, 9, 7,20,15
281,46165882.481495745,59938.60262432081, 9, 2, 5,15,81951.81706819107, 9, 2,19,15
318,0.0,0.0, 9, 2, 1,15,0.0, 9, 2, 1,15
355,197687796.27748066,18561.32405820678, 9, 2, 4,15,724774.895203776, 9, 7,18,15
403,197687796.27748066,18561.32405820678, 9, 2, 4,15,724774.895203776, 9, 7,18,15
476,106772067.24485716,7098.072629279515, 9, 2, 4,15,356036.3026282215, 9, 7,12,15
513,0.0,0.0, 9, 2, 1,15,0.0, 9, 2, 1,15
562,63248843.849247605,17207.52673185959, 9, 4, 5,60,140245.7075140052, 9, 5,12,15
1046,0.0,0.0, 9, 2, 1,15,0.0, 9, 2, 1,15
1096,652240100.9119498,151160.71758223037, 9, 4, 5,60,1666696.6018506987, 9, 4,15,60
1134,0.0,0.0, 9, 2, 1,15,0.0, 9, 2, 1,15
1326,239062106.55351025,0.0, 9, 2, 1,15,4050000.0, 9, 2, 9,60
1379,0.0,0.0, 9, 2, 1,15,0.0, 9, 2, 1,15
1,ANNUAL,  34.92, -92.15,  -6.00,  95.00
5,365
1038,2.5,0.0, 1, 1, 1,15,0.25, 1, 7, 6,15
1039,907.0,0.0, 1, 1, 1,15,0.25, 1,21,16,15
581,0.17012202540352026,0.0, 4,29,23, 3,0.6841551587770303,12,18,17,60
582,2.6592622423011028,0.0, 1, 1, 8,60,24.345965591022033, 3, 6,14,60
583,0.02812582862334287,0.0, 5,23,23, 3,0.08337897557228843, 9, 7,22,50
1115,7160648946.986057,0.0, 1, 1, 1,30,4289220.375992734, 2,21, 6,45
1128,2277979683.0031257,0.0, 1, 1, 1,30,1379958.470216268, 2, 1, 6,30
1153,92762734.75934911,0.0, 1, 1, 1,30,111592.07808365762, 1,11, 6,45
1154,1383672896.6672692,0.0, 1, 1, 6, 3,180000.0, 1, 1, 1,30
1155,256060884.61471114,0.0, 1, 1, 1,15,2773789.4471275597,12,20, 6,45
1156,256060884.61471114,0.0, 1, 1, 1,15,2773789.4471275597,12,20, 6,45
1292,-1180911164.4791887,-39779.01010365083, 1,17, 5,15,-1861.2995967440868, 4,10, 9,46
1306,14649350832.402369,0.0, 1, 1, 1,15,4050000.0, 1, 2,10,15
1307,5254997317.857253,0.0, 1, 1, 1,15,14951786.2892416, 1,27, 9,60
1308,14649350832.402369,0.0, 1, 1, 1,15,4050000.0, 1, 2,10,15
13,54693045498.24106,151703.1275401932, 1, 4, 4,15,7425616.720448804,12,20, 8,60
61,15743207428.383959,88139.10953165221, 1, 1, 1,15,1282023.4113694867, 1, 1,20,15
134,3685071073.4325233,63564.01800854099, 1, 2, 4,15,156554.22484006523, 1, 1,20,15
170,273393721.45532674,348.4159749238097, 1, 2, 4,15,17476.39704006126, 1, 1,12,15
207,339560869.0695816,815.2532113832032, 1, 2, 3,15,22990.642799023623, 1, 1,10,15
244,664895467.8009144,1521.856143006317, 1, 2, 4,15,53038.631142310165, 1, 1,20,15
281,2407221015.106824,59938.60262432081, 1, 1, 5,15,81951.81706819107, 1, 1,19,15
318,0.0,0.0, 1, 1, 1,15,0.0, 1, 1, 1,15
355,10310294493.051695,18561.32405820678, 1, 2, 4,15,724774.895203776, 1, 1,18,15
403,10310294493.051695,18561.32405820678, 1, 2, 4,15,724774.895203776, 1, 1,18,15
476,5569688622.066177,7098.072629279515, 1, 2, 4,15,356036.3026282215, 1, 1,12,15
513,0.0,0.0, 1, 1, 1,15,0.0, 1, 1, 1,15
562,1832900050.4712527,0.0, 1, 1, 1,30,140245.70751400522, 7, 4,17,60
1046,0.0,0.0, 1, 1, 1,15,0.0, 1, 1, 1,15
1096,14772039914.504454,0.0, 1, 1, 1,15,1670428.6568764432, 7,30,15,60
1134,4010476199.0444613,0.0, 1, 1,13,45,4190758.3355410914,12,20, 6,30
1326,14649350832.402391,0.0, 1, 1, 1,15,4050000.0000000014, 3,22, 9,60
1379,0.0,0.0, 1, 1, 1,15,0.0, 1, 1, 1,15
End of Data
 Number of Records Written=          99
