Program Version,EnergyPlus, Version 22.2.0-c249759bad, YMD=2023.07.07 15:12
1,5,Environment Title[],Latitude[deg],Longitude[deg],Time Zone[],Elevation[m]
2,8,Day of Simulation[],Month[],Day of Month[],DST Indicator[1=yes 0=no],Hour[],StartMinute[],EndMinute[],DayType
3,5,Cumulative Day of Simulation[],Month[],Day of Month[],DST Indicator[1=yes 0=no],DayType  ! When Daily Report Variables Requested
4,2,Cumulative Days of Simulation[],Month[]  ! When Monthly Report Variables Requested
5,1,Cumulative Days of Simulation[] ! When Run Period Report Variables Requested
6,1,Calendar Year of Simulation[] ! When Annual Report Variables Requested
581,11,LIVING,AFN Zone Infiltration Air Change Rate [ach] !RunPeriod [Value,Min,Month,Day,Hour,Minute,Max,Month,Day,Hour,Minute]
582,11,ATTIC,AFN Zone Infiltration Air Change Rate [ach] !RunPeriod [Value,Min,Month,Day,Hour,Minute,Max,Month,Day,Hour,Minute]
583,11,CRAWLSPACE,AFN Zone Infiltration Air Change Rate [ach] !RunPeriod [Value,Min,Month,Day,Hour,Minute,Max,Month,Day,Hour,Minute]
1038,11,Facility,Facility Heating Setpoint Not Met Time [hr] !RunPeriod [Value,Min,Month,Day,Hour,Minute,Max,Month,Day,Hour,Minute]
1039,11,Facility,Facility Cooling Setpoint Not Met Time [hr] !RunPeriod [Value,Min,Month,Day,Hour,Minute,Max,Month,Day,Hour,Minute]
1115,11,DX_HEATING_COIL,Heating Coil Heating Energy [J] !RunPeriod [Value,Min,Month,Day,Hour,Minute,Max,Month,Day,Hour,Minute]
1128,11,DX_HEATING_COIL,Heating Coil Electricity Energy [J] !RunPeriod [Value,Min,Month,Day,Hour,Minute,Max,Month,Day,Hour,Minute]
1153,11,DX_HEATING_COIL,Heating Coil Defrost Electricity Energy [J] !RunPeriod [Value,Min,Month,Day,Hour,Minute,Max,Month,Day,Hour,Minute]
1154,11,DX_HEATING_COIL,Heating Coil Crankcase Heater Electricity Energy [J] !RunPeriod [Value,Min,Month,Day,Hour,Minute,Max,Month,Day,Hour,Minute]
1156,11,HEATING_RESISTANCE_BACKUP,Heating Coil Electricity Energy [J] !RunPeriod [Value,Min,Month,Day,Hour,Minute,Max,Month,Day,Hour,Minute]
13,11,Electricity:Facility [J] !RunPeriod [Value,Min,Month,Day,Hour,Minute,Max,Month,Day,Hour,Minute]
1134,11,Heating:Electricity [J] !RunPeriod [Value,Min,Month,Day,Hour,Minute,Max,Month,Day,Hour,Minute]
1096,11,Cooling:Electricity [J] !RunPeriod [Value,Min,Month,Day,Hour,Minute,Max,Month,Day,Hour,Minute]
562,11,Fans:Electricity [J] !RunPeriod [Value,Min,Month,Day,Hour,Minute,Max,Month,Day,Hour,Minute]
1388,11,Pumps:Electricity [J] !RunPeriod [Value,Min,Month,Day,Hour,Minute,Max,Month,Day,Hour,Minute]
1360,11,WaterSystems:Electricity [J] !RunPeriod [Value,Min,Month,Day,Hour,Minute,Max,Month,Day,Hour,Minute]
61,11,InteriorLights:Electricity [J] !RunPeriod [Value,Min,Month,Day,Hour,Minute,Max,Month,Day,Hour,Minute]
1046,11,ExteriorLights:Electricity [J] !RunPeriod [Value,Min,Month,Day,Hour,Minute,Max,Month,Day,Hour,Minute]
134,11,InteriorEquipment:Electricity [J] !RunPeriod [Value,Min,Month,Day,Hour,Minute,Max,Month,Day,Hour,Minute]
170,11,gas_dryer:InteriorEquipment:Electricity [J] !RunPeriod [Value,Min,Month,Day,Hour,Minute,Max,Month,Day,Hour,Minute]
207,11,clotheswasher:InteriorEquipment:Electricity [J] !RunPeriod [Value,Min,Month,Day,Hour,Minute,Max,Month,Day,Hour,Minute]
244,11,dishwasher:InteriorEquipment:Electricity [J] !RunPeriod [Value,Min,Month,Day,Hour,Minute,Max,Month,Day,Hour,Minute]
281,11,refrigerator:InteriorEquipment:Electricity [J] !RunPeriod [Value,Min,Month,Day,Hour,Minute,Max,Month,Day,Hour,Minute]
318,11,electric_mels:InteriorEquipment:Electricity [J] !RunPeriod [Value,Min,Month,Day,Hour,Minute,Max,Month,Day,Hour,Minute]
355,11,NaturalGas:Facility [J] !RunPeriod [Value,Min,Month,Day,Hour,Minute,Max,Month,Day,Hour,Minute]
1323,11,WaterSystems:NaturalGas [J] !RunPeriod [Value,Min,Month,Day,Hour,Minute,Max,Month,Day,Hour,Minute]
403,11,InteriorEquipment:NaturalGas [J] !RunPeriod [Value,Min,Month,Day,Hour,Minute,Max,Month,Day,Hour,Minute]
476,11,gas_dryer:InteriorEquipment:NaturalGas [J] !RunPeriod [Value,Min,Month,Day,Hour,Minute,Max,Month,Day,Hour,Minute]
513,11,gas_mels:InteriorEquipment:NaturalGas [J] !RunPeriod [Value,Min,Month,Day,Hour,Minute,Max,Month,Day,Hour,Minute]
End of Data Dictionary
1,EXTREME_WINTER,  43.57,-116.21,  -7.00, 857.70
5,7
1038,0.16666666666666666,0.0,12,15, 1,10,0.16666666666666666,12,18, 6,10
1039,0.0,0.0,12,15, 1,10,0.0,12,15, 1,10
581,0.30752561750479784,0.19526057346749193,12,20, 2,50,0.6585448459973635,12,19,10,55
582,3.623967645805745,0.0,12,17,24,20,15.136930641936429,12,19,18,20
583,4.887876439709797,0.00034014393102977064,12,16,23,15,18.145629131806775,12,19,16,60
1115,2281372387.0562835,0.0,12,15,23, 2,3476689.553141287,12,16,11,20
1128,759477294.4065702,0.0,12,15,23, 2,1056886.9022512988,12,16,11,20
1153,21024924.95249708,0.0,12,15,23, 2,53412.89069016925,12,15, 6,30
1154,32930443.82969209,0.0,12,15, 6, 3,107306.48980618462,12,17,16,30
1156,157972729.18743867,0.0,12,15, 1, 1,2015628.9840786797,12,18, 7,60
13,1433870613.671759,465649.12239917926,12,17,15,50,4419877.5015984755,12,18, 6,10
61,301924526.0238348,58759.40635443481,12,15, 1,10,854682.2742463244,12,15,20,10
134,70666020.44019979,42376.01200569399,12,15, 4,10,104369.48322671017,12,20,20,10
170,5241013.419656074,232.27731661587313,12,15, 4,10,11650.931360040839,12,20,12,10
207,6509451.13922266,543.5021409221355,12,15, 3,10,15327.095199349082,12,20,10,10
244,12749673.39982522,1014.5707620042115,12,15, 4,10,35359.08742820678,12,20,20,10
281,46165882.48149605,39959.06841621388,12,15, 5,10,54634.54471212738,12,15,19,10
318,0.0,0.0,12,15, 1,10,0.0,12,15, 1,10
355,723095860.9856358,12374.216038804521,12,15, 4,10,3829218.1540669827,12,16,18,60
403,197687796.27748126,12374.216038804521,12,15, 4,10,483183.26346918393,12,20,18,10
476,106772067.24485692,4732.048419519677,12,15, 4,10,237357.535085481,12,20,12,10
513,0.0,0.0,12,15, 1,10,0.0,12,15, 1,10
562,84854834.83152433,9638.907164214736,12,17,17,20,116186.60563452935,12,16, 6,10
1046,0.0,0.0,12,15, 1,10,0.0,12,15, 1,10
1096,0.0,0.0,12,15, 1,10,0.0,12,15, 1,10
1134,971405392.3761972,198815.5486019483,12,17,17,20,3886131.5729532936,12,18, 6,10
1323,525408064.7081521,0.0,12,15, 1,10,3375000.0000000005,12,15,16,60
1360,5019840.0,4979.999999999998,12,15, 1,10,4980.000000000002,12,15,21,10
1388,0.0,0.0,12,15, 1,10,0.0,12,15, 1,10
1,EXTREME_SUMMER,  43.57,-116.21,  -7.00, 857.70
5,7
1038,0.0,0.0, 7,20, 1,10,0.0, 7,20, 1,10
1039,8.999999999999998,0.0, 7,20, 1,10,0.16666666666666666, 7,21,19,10
581,0.09779101754792256,0.0, 7,21, 9,41,0.34134708921259616, 7,26,13,60
582,2.7373010093459733,0.0, 7,20, 6, 2,8.53645610454106, 7,26,18,53
583,3.3923498301998185,0.0, 7,25,23, 2,11.040829931213986, 7,26,18,53
1115,0.0,0.0, 7,20, 1,10,0.0, 7,20, 1,10
1128,0.0,0.0, 7,20, 1,10,0.0, 7,20, 1,10
1153,0.0,0.0, 7,20, 1,10,0.0, 7,20, 1,10
1154,0.0,0.0, 7,20, 1,10,0.0, 7,20, 1,10
1156,0.0,0.0, 7,20, 1,10,0.0, 7,20, 1,10
13,1025048257.4911432,125959.28074065765, 7,20, 4,60,2327210.301613897, 7,22,19,10
61,301924526.0238348,58759.40635443481, 7,20, 1,10,854682.2742463244, 7,20,20,10
134,70666020.44019979,42376.01200569399, 7,20, 4,10,104369.48322671017, 7,25,20,10
170,5241013.419656074,232.27731661587313, 7,20, 4,10,11650.931360040839, 7,25,12,10
207,6509451.13922266,543.5021409221355, 7,20, 3,10,15327.095199349082, 7,25,10,10
244,12749673.39982522,1014.5707620042115, 7,20, 4,10,35359.08742820678, 7,25,20,10
281,46165882.48149605,39959.06841621388, 7,20, 5,10,54634.54471212738, 7,20,19,10
318,0.0,0.0, 7,20, 1,10,0.0, 7,20, 1,10
355,637772279.1715275,12374.216038804521, 7,20, 4,10,3829218.154066982, 7,21,18,60
403,197687796.27748126,12374.216038804521, 7,20, 4,10,483183.26346918393, 7,25,18,10
476,106772067.24485692,4732.048419519677, 7,20, 4,10,237357.535085481, 7,25,12,10
513,0.0,0.0, 7,20, 1,10,0.0, 7,20, 1,10
562,59293810.10110795,0.0, 7,20, 6,20,116186.60563452935, 7,21,19,10
1046,0.0,0.0, 7,20, 1,10,0.0, 7,20, 1,10
1096,588144060.9259992,0.0, 7,20, 6,20,1396903.4750567842, 7,22,16,10
1134,0.0,0.0, 7,20, 1,10,0.0, 7,20, 1,10
1323,440084482.8940447,0.0, 7,20, 1,10,3375000.0, 7,20, 9,50
1360,5019840.0,4980.0, 7,20, 1,10,4980.000000000001, 7,20, 7,50
1388,0.0,0.0, 7,20, 1,10,0.0, 7,20, 1,10
1,ANNUAL,  43.57,-116.21,  -7.00, 857.70
5,365
1038,3.9999999999999982,0.0, 1, 1, 1,10,0.16666666666666666, 1, 1, 6,10
1039,129.83333333333337,0.0, 1, 1, 1,10,0.16666666666666666, 4, 5,14,40
581,0.216224686073741,0.0, 5,17,21,43,1.2466257951975814, 5,21,16,52
582,3.537760368291379,0.0, 1, 1, 1,60,33.18584822717348,10,17, 9,60
583,4.304173922618686,0.0, 7,25,23, 2,37.86904338078856, 5,21,16,52
1115,21850569732.65067,0.0, 1, 1,23, 2,3597276.1182583324, 2,20, 6,30
1128,6832419035.590462,0.0, 1, 1,23, 2,1073613.4091019959, 2,20, 6,30
1153,321101937.7746739,0.0, 1, 1,23, 2,93589.4891055799, 1,19, 6,30
1154,2195823564.3204083,0.0, 1, 1, 1, 1,120000.0, 1, 7,14,10
1156,609583853.2737339,0.0, 1, 1,11,35,2565844.1622742168,12,27, 6,30
13,40533712763.9338,106115.4183601288, 3, 6, 4,10,4608864.331801849,12,18, 6,10
61,15743207428.39043,58759.40635443481, 1, 1, 1,10,854682.2742463244, 1, 1,20,10
134,3685071073.433083,42376.01200569399, 1, 2, 4,10,104369.48322671017, 1, 1,20,10
170,273393721.45534325,232.27731661587313, 1, 2, 4,10,11650.931360040839, 1, 1,12,10
207,339560869.06955314,543.5021409221355, 1, 2, 3,10,15327.095199349082, 1, 1,10,10
244,664895467.8009839,1014.5707620042115, 1, 2, 4,10,35359.08742820678, 1, 1,20,10
281,2407221015.1057043,39959.06841621388, 1, 1, 5,10,54634.54471212738, 1, 1,19,10
318,0.0,0.0, 1, 1, 1,10,0.0, 1, 1, 1,10
355,35743293255.93546,12374.216038804521, 1, 2, 4,10,3829218.154066983,10,27,18,30
403,10310294493.052883,12374.216038804521, 1, 2, 4,10,483183.26346918393, 1, 1,18,10
476,5569688622.065564,4732.048419519677, 1, 2, 4,10,237357.535085481, 1, 1,12,10
513,0.0,0.0, 1, 1, 1,10,0.0, 1, 1, 1,10
562,1789665948.0278795,0.0, 1, 4,23,10,116186.60563452938, 6,27,16,60
1046,0.0,0.0, 1, 1, 1,10,0.0, 1, 1, 1,10
1096,9095091123.12847,0.0, 1, 1, 1,10,1412071.0252587174, 7,18,14,60
1134,9958928390.959267,0.0, 2, 7,14,60,4075118.403156667,12,18, 6,10
1323,25432998762.886566,0.0, 1, 1, 1,10,3375000.000000002, 1,10,20,30
1360,261748800.0,4979.999999999998, 4, 5,18,30,4980.000000000002, 1, 8,11,30
1388,0.0,0.0, 1, 1, 1,10,0.0, 1, 1, 1,10
End of Data
 Number of Records Written=          87
