Program Version,EnergyPlus, Version 22.2.0-c249759bad, YMD=2023.09.01 20:23
1,5,Environment Title[],Latitude[deg],Longitude[deg],Time Zone[],Elevation[m]
2,8,Day of Simulation[],Month[],Day of Month[],DST Indicator[1=yes 0=no],Hour[],StartMinute[],EndMinute[],DayType
3,5,Cumulative Day of Simulation[],Month[],Day of Month[],DST Indicator[1=yes 0=no],DayType  ! When Daily Report Variables Requested
4,2,Cumulative Days of Simulation[],Month[]  ! When Monthly Report Variables Requested
5,1,Cumulative Days of Simulation[] ! When Run Period Report Variables Requested
6,1,Calendar Year of Simulation[] ! When Annual Report Variables Requested
581,11,LIVING,AFN Zone Infiltration Air Change Rate [ach] !RunPeriod [Value,Min,Month,Day,Hour,Minute,Max,Month,Day,Hour,Minute]
582,11,ATTIC,AFN Zone Infiltration Air Change Rate [ach] !RunPeriod [Value,Min,Month,Day,Hour,Minute,Max,Month,Day,Hour,Minute]
583,11,CRAWLSPACE,AFN Zone Infiltration Air Change Rate [ach] !RunPeriod [Value,Min,Month,Day,Hour,Minute,Max,Month,Day,Hour,Minute]
1038,11,Facility,Facility Heating Setpoint Not Met Time [hr] !RunPeriod [Value,Min,Month,Day,Hour,Minute,Max,Month,Day,Hour,Minute]
1039,11,Facility,Facility Cooling Setpoint Not Met Time [hr] !RunPeriod [Value,Min,Month,Day,Hour,Minute,Max,Month,Day,Hour,Minute]
1115,11,DX_HEATING_COIL,Heating Coil Heating Energy [J] !RunPeriod [Value,Min,Month,Day,Hour,Minute,Max,Month,Day,Hour,Minute]
1128,11,DX_HEATING_COIL,Heating Coil Electricity Energy [J] !RunPeriod [Value,Min,Month,Day,Hour,Minute,Max,Month,Day,Hour,Minute]
1153,11,DX_HEATING_COIL,Heating Coil Defrost Electricity Energy [J] !RunPeriod [Value,Min,Month,Day,Hour,Minute,Max,Month,Day,Hour,Minute]
1154,11,DX_HEATING_COIL,Heating Coil Crankcase Heater Electricity Energy [J] !RunPeriod [Value,Min,Month,Day,Hour,Minute,Max,Month,Day,Hour,Minute]
1155,11,HEATING_RESISTANCE_BACKUP,Heating Coil Heating Energy [J] !RunPeriod [Value,Min,Month,Day,Hour,Minute,Max,Month,Day,Hour,Minute]
1156,11,HEATING_RESISTANCE_BACKUP,Heating Coil Electricity Energy [J] !RunPeriod [Value,Min,Month,Day,Hour,Minute,Max,Month,Day,Hour,Minute]
1292,11,WATER HEATER,Water Heater Heat Loss Energy [J] !RunPeriod [Value,Min,Month,Day,Hour,Minute,Max,Month,Day,Hour,Minute]
1306,11,WATER HEATER,Water Heater Heating Energy [J] !RunPeriod [Value,Min,Month,Day,Hour,Minute,Max,Month,Day,Hour,Minute]
1307,11,WATER HEATER,Water Heater Unmet Demand Heat Transfer Energy [J] !RunPeriod [Value,Min,Month,Day,Hour,Minute,Max,Month,Day,Hour,Minute]
1308,11,WATER HEATER,Water Heater Electricity Energy [J] !RunPeriod [Value,Min,Month,Day,Hour,Minute,Max,Month,Day,Hour,Minute]
13,11,Electricity:Facility [J] !RunPeriod [Value,Min,Month,Day,Hour,Minute,Max,Month,Day,Hour,Minute]
1134,11,Heating:Electricity [J] !RunPeriod [Value,Min,Month,Day,Hour,Minute,Max,Month,Day,Hour,Minute]
1096,11,Cooling:Electricity [J] !RunPeriod [Value,Min,Month,Day,Hour,Minute,Max,Month,Day,Hour,Minute]
562,11,Fans:Electricity [J] !RunPeriod [Value,Min,Month,Day,Hour,Minute,Max,Month,Day,Hour,Minute]
1379,11,Pumps:Electricity [J] !RunPeriod [Value,Min,Month,Day,Hour,Minute,Max,Month,Day,Hour,Minute]
1326,11,WaterSystems:Electricity [J] !RunPeriod [Value,Min,Month,Day,Hour,Minute,Max,Month,Day,Hour,Minute]
61,11,InteriorLights:Electricity [J] !RunPeriod [Value,Min,Month,Day,Hour,Minute,Max,Month,Day,Hour,Minute]
1046,11,ExteriorLights:Electricity [J] !RunPeriod [Value,Min,Month,Day,Hour,Minute,Max,Month,Day,Hour,Minute]
134,11,InteriorEquipment:Electricity [J] !RunPeriod [Value,Min,Month,Day,Hour,Minute,Max,Month,Day,Hour,Minute]
170,11,gas_dryer:InteriorEquipment:Electricity [J] !RunPeriod [Value,Min,Month,Day,Hour,Minute,Max,Month,Day,Hour,Minute]
207,11,clotheswasher:InteriorEquipment:Electricity [J] !RunPeriod [Value,Min,Month,Day,Hour,Minute,Max,Month,Day,Hour,Minute]
244,11,dishwasher:InteriorEquipment:Electricity [J] !RunPeriod [Value,Min,Month,Day,Hour,Minute,Max,Month,Day,Hour,Minute]
281,11,refrigerator:InteriorEquipment:Electricity [J] !RunPeriod [Value,Min,Month,Day,Hour,Minute,Max,Month,Day,Hour,Minute]
318,11,electric_mels:InteriorEquipment:Electricity [J] !RunPeriod [Value,Min,Month,Day,Hour,Minute,Max,Month,Day,Hour,Minute]
355,11,NaturalGas:Facility [J] !RunPeriod [Value,Min,Month,Day,Hour,Minute,Max,Month,Day,Hour,Minute]
403,11,InteriorEquipment:NaturalGas [J] !RunPeriod [Value,Min,Month,Day,Hour,Minute,Max,Month,Day,Hour,Minute]
476,11,gas_dryer:InteriorEquipment:NaturalGas [J] !RunPeriod [Value,Min,Month,Day,Hour,Minute,Max,Month,Day,Hour,Minute]
513,11,gas_mels:InteriorEquipment:NaturalGas [J] !RunPeriod [Value,Min,Month,Day,Hour,Minute,Max,Month,Day,Hour,Minute]
End of Data Dictionary
1,EXTREME_WINTER,  30.68, -88.25,  -6.00,  67.00
5,7
1038,0.0,0.0, 1,13, 1,15,0.0, 1,13, 1,15
1039,0.0,0.0, 1,13, 1,15,0.0, 1,13, 1,15
581,0.26954371706072533,0.13293410235262332, 1,13, 9,32,0.5673875824740698, 1,16, 3,60
582,3.3750279456335424,0.0, 1,13, 2,37,12.019599760898679, 1,19,14,37
583,0.014147218190600077,0.0002608029624781344, 1,13, 2,60,0.0713427458190053, 1,16, 6,15
1115,402624329.50834835,0.0, 1,13, 1,15,4117328.060881079, 1,17, 7,30
1128,126851307.41087614,0.0, 1,13, 1,15,1293038.8445087613, 1,17, 7,30
1153,2447097.6801551604,0.0, 1,13, 1,15,62068.00457901074, 1,13, 6,60
1154,62387180.26812353,0.0, 1,13, 6, 3,180000.0, 1,13, 1,15
1155,10361984.75142759,0.0, 1,13, 1,15,1041335.7847323713, 1,14, 6, 5
1156,10361984.75142759,0.0, 1,13, 1,15,1041335.7847323713, 1,14, 6, 5
1292,-24123828.5864286,-39766.03351758534, 1,16, 3,15,-3349.491640559505, 1,14,11,14
1306,155109010.8596401,0.0, 1,13, 1,15,4037150.7149583646, 1,14, 7,15
1307,24531199.026071787,0.0, 1,13, 1,15,3559761.1211351035, 1,18,10,22
1308,155109010.8596401,0.0, 1,13, 1,15,4037150.7149583646, 1,14, 7,15
13,766536730.7099189,152071.80019841267, 1,18, 4,15,5979734.3975440115, 1,14, 7,15
61,301924526.02383536,88139.10953165221, 1,13, 1,15,1282023.4113694867, 1,13,20,15
134,70666020.44019976,63564.01800854099, 1,13, 4,15,156554.22484006523, 1,18,20,15
170,5241013.419656067,348.4159749238097, 1,13, 4,15,17476.39704006126, 1,18,12,15
207,6509451.13922267,815.2532113832032, 1,13, 3,15,22990.642799023623, 1,18,10,15
244,12749673.399825225,1521.856143006317, 1,13, 4,15,53038.631142310165, 1,18,20,15
281,46165882.481495745,59938.60262432081, 1,13, 5,15,81951.81706819107, 1,13,19,15
318,0.0,0.0, 1,13, 1,15,0.0, 1,13, 1,15
355,197687796.27748066,18561.32405820678, 1,13, 4,15,724774.895203776, 1,18,18,15
403,197687796.27748066,18561.32405820678, 1,13, 4,15,724774.895203776, 1,18,18,15
476,106772067.24485716,7098.072629279515, 1,13, 4,15,356036.3026282215, 1,18,12,15
513,0.0,0.0, 1,13, 1,15,0.0, 1,13, 1,15
562,16123081.350436887,0.0, 1,13, 1,15,131497.19218302987, 1,16, 6,15
1046,0.0,0.0, 1,13, 1,15,0.0, 1,13, 1,15
1096,20666521.92522572,0.0, 1,13, 1,15,441331.98086640175, 1,18,17,15
1134,202047570.11058238,0.0, 1,13,10,30,2829295.5969422334, 1,16, 6,15
1326,155109010.85964012,0.0, 1,13, 1,15,4050000.0, 1,13, 8,45
1379,0.0,0.0, 1,13, 1,15,0.0, 1,13, 1,15
1,EXTREME_SUMMER,  30.68, -88.25,  -6.00,  67.00
5,7
1038,0.0,0.0, 6,29, 1,15,0.0, 6,29, 1,15
1039,54.5,0.0, 6,29, 1,15,0.25, 6,29,14,15
581,0.08654569665493603,0.0, 6,29,23, 3,0.5410009019656308, 7, 2,18,47
582,2.5751338631206417,0.09175335410212376, 6,30, 7,57,16.351665294362512, 7, 2,18,47
583,0.04218087689717911,0.0, 6,29,23, 3,0.07221319306183428, 7, 2,18,47
1115,0.0,0.0, 6,29, 1,15,0.0, 6,29, 1,15
1128,0.0,0.0, 6,29, 1,15,0.0, 6,29, 1,15
1153,0.0,0.0, 6,29, 1,15,0.0, 6,29, 1,15
1154,0.0,0.0, 6,29, 1,15,0.0, 6,29, 1,15
1155,0.0,0.0, 6,29, 1,15,0.0, 6,29, 1,15
1156,0.0,0.0, 6,29, 1,15,0.0, 6,29, 1,15
1292,-21782164.193671566,-34350.079408635895, 6,30,22,30,-3353.647443783475, 7, 2,18,26
1306,116811970.82088526,0.0, 6,29, 1,15,2025000.0, 7, 5,13,60
1307,9663603.683630735,0.0, 6,29, 1,15,1019214.169626131, 7, 2,10,22
1308,116811970.82088526,0.0, 6,29, 1,15,2025000.0, 7, 5,13,60
13,1105183257.5920188,195630.4576767771, 6,30, 4,60,5833704.984726698, 7, 5,20,60
61,301924526.02383536,88139.10953165221, 6,29, 1,15,1282023.4113694867, 6,29,20,15
134,70666020.44019976,63564.01800854099, 6,29, 4,15,156554.22484006523, 7, 4,20,15
170,5241013.419656067,348.4159749238097, 6,29, 4,15,17476.39704006126, 7, 4,12,15
207,6509451.13922267,815.2532113832032, 6,29, 3,15,22990.642799023623, 7, 4,10,15
244,12749673.399825225,1521.856143006317, 6,29, 4,15,53038.631142310165, 7, 4,20,15
281,46165882.481495745,59938.60262432081, 6,29, 5,15,81951.81706819107, 6,29,19,15
318,0.0,0.0, 6,29, 1,15,0.0, 6,29, 1,15
355,197687796.27748066,18561.32405820678, 6,29, 4,15,724774.895203776, 7, 4,18,15
403,197687796.27748066,18561.32405820678, 6,29, 4,15,724774.895203776, 7, 4,18,15
476,106772067.24485716,7098.072629279515, 6,29, 4,15,356036.3026282215, 7, 4,12,15
513,0.0,0.0, 6,29, 1,15,0.0, 6,29, 1,15
562,57450298.36234897,4683.420045203874, 6,30, 4,60,131497.1921830299, 7, 2,18,30
1046,0.0,0.0, 6,29, 1,15,0.0, 6,29, 1,15
1096,558330441.9447483,39243.91009137999, 6,30, 4,60,1482209.2452743645, 7, 2,15,60
1134,0.0,0.0, 6,29, 1,15,0.0, 6,29, 1,15
1326,116811970.82088527,0.0, 6,29, 1,15,4050000.0, 7, 1, 9,30
1379,0.0,0.0, 6,29, 1,15,0.0, 6,29, 1,15
1,ANNUAL,  30.68, -88.25,  -6.00,  67.00
5,365
1038,1.25,0.0, 1, 1, 1,15,0.25, 1,21, 6,15
1039,1027.75,0.0, 1, 1, 1,15,0.25, 2, 6,12,60
581,0.17702480784747623,0.0, 5, 9, 6, 7,0.7621220906100674, 6,18,22,60
582,3.2618820998380365,0.0, 1, 4,20,50,19.818826464535945, 3, 8,19,60
583,0.02805823297963706,0.0, 5,10,23, 3,0.07847830531473188, 7,13,16,46
1115,2345176402.712094,0.0, 1, 1, 1, 7,4117407.316502835, 1,17, 7,30
1128,722731877.8036113,0.0, 1, 1, 1, 7,1292944.4764120951, 1,17, 7,30
1153,23708684.085801233,0.0, 1, 1, 1, 7,75857.69256695683, 1,12, 6,45
1154,633070324.3058997,0.0, 1, 1, 1, 7,180000.0, 1, 1, 3,60
1155,45104133.55786322,0.0, 1, 1, 1, 7,1477834.055971964, 1,21, 6,45
1156,45104133.55786322,0.0, 1, 1, 1, 7,1477834.055971964, 1,21, 6,45
1292,-1170451214.611029,-39768.21712019514, 4, 8, 5,30,-2012.7653390635076,11, 9,10,29
1306,7058742779.443574,0.0, 1, 1, 1, 7,4050000.0, 1, 6, 8,30
1307,873193944.6800604,0.0, 1, 1, 1, 7,7132237.284373782, 1,28,10,30
1308,7058742779.443574,0.0, 1, 1, 1, 7,4050000.0, 1, 6, 8,30
13,45426466658.871765,151703.1275401932, 1, 2, 4,15,6156663.4699300155, 5,14,20,60
61,15743207428.383959,88139.10953165221, 1, 1, 1,15,1282023.4113694867, 1, 1,20,15
134,3685071073.4325233,63564.01800854099, 1, 2, 4,15,156554.22484006523, 1, 1,20,15
170,273393721.45532674,348.4159749238097, 1, 2, 4,15,17476.39704006126, 1, 1,12,15
207,339560869.0695816,815.2532113832032, 1, 2, 3,15,22990.642799023623, 1, 1,10,15
244,664895467.8009144,1521.856143006317, 1, 2, 4,15,53038.631142310165, 1, 1,20,15
281,2407221015.106824,59938.60262432081, 1, 1, 5,15,81951.81706819107, 1, 1,19,15
318,0.0,0.0, 1, 1, 1,15,0.0, 1, 1, 1,15
355,10310294493.051695,18561.32405820678, 1, 2, 4,15,724774.895203776, 1, 1,18,15
403,10310294493.051695,18561.32405820678, 1, 2, 4,15,724774.895203776, 1, 1,18,15
476,5569688622.066177,7098.072629279515, 1, 2, 4,15,356036.3026282215, 1, 1,12,15
513,0.0,0.0, 1, 1, 1,15,0.0, 1, 1, 1,15
562,1837238740.3767927,0.0, 1, 1, 1,15,131497.1921830299, 5,22,18,45
1046,0.0,0.0, 1, 1, 1,15,0.0, 1, 1, 1,15
1096,15677591617.4798,0.0, 1, 1, 1,15,1485600.2190260645, 7, 2,15,60
1134,1424615019.75317,0.0, 1, 1, 1,15,3396195.5904895775, 1,21, 6,15
1326,7058742779.443578,0.0, 1, 1, 1,15,4050000.0000000014, 3,18,10,30
1379,0.0,0.0, 1, 1, 1,15,0.0, 1, 1, 1,15
End of Data
 Number of Records Written=          99
