Program Version,EnergyPlus, Version 22.2.0-c249759bad, YMD=2023.09.01 17:56
1,5,Environment Title[],Latitude[deg],Longitude[deg],Time Zone[],Elevation[m]
2,8,Day of Simulation[],Month[],Day of Month[],DST Indicator[1=yes 0=no],Hour[],StartMinute[],EndMinute[],DayType
3,5,Cumulative Day of Simulation[],Month[],Day of Month[],DST Indicator[1=yes 0=no],DayType  ! When Daily Report Variables Requested
4,2,Cumulative Days of Simulation[],Month[]  ! When Monthly Report Variables Requested
5,1,Cumulative Days of Simulation[] ! When Run Period Report Variables Requested
6,1,Calendar Year of Simulation[] ! When Annual Report Variables Requested
581,11,LIVING,AFN Zone Infiltration Air Change Rate [ach] !RunPeriod [Value,Min,Month,Day,Hour,Minute,Max,Month,Day,Hour,Minute]
582,11,ATTIC,AFN Zone Infiltration Air Change Rate [ach] !RunPeriod [Value,Min,Month,Day,Hour,Minute,Max,Month,Day,Hour,Minute]
583,11,CRAWLSPACE,AFN Zone Infiltration Air Change Rate [ach] !RunPeriod [Value,Min,Month,Day,Hour,Minute,Max,Month,Day,Hour,Minute]
1038,11,Facility,Facility Heating Setpoint Not Met Time [hr] !RunPeriod [Value,Min,Month,Day,Hour,Minute,Max,Month,Day,Hour,Minute]
1039,11,Facility,Facility Cooling Setpoint Not Met Time [hr] !RunPeriod [Value,Min,Month,Day,Hour,Minute,Max,Month,Day,Hour,Minute]
1115,11,DX_HEATING_COIL,Heating Coil Heating Energy [J] !RunPeriod [Value,Min,Month,Day,Hour,Minute,Max,Month,Day,Hour,Minute]
1128,11,DX_HEATING_COIL,Heating Coil Electricity Energy [J] !RunPeriod [Value,Min,Month,Day,Hour,Minute,Max,Month,Day,Hour,Minute]
1153,11,DX_HEATING_COIL,Heating Coil Defrost Electricity Energy [J] !RunPeriod [Value,Min,Month,Day,Hour,Minute,Max,Month,Day,Hour,Minute]
1154,11,DX_HEATING_COIL,Heating Coil Crankcase Heater Electricity Energy [J] !RunPeriod [Value,Min,Month,Day,Hour,Minute,Max,Month,Day,Hour,Minute]
1155,11,HEATING_RESISTANCE_BACKUP,Heating Coil Heating Energy [J] !RunPeriod [Value,Min,Month,Day,Hour,Minute,Max,Month,Day,Hour,Minute]
1156,11,HEATING_RESISTANCE_BACKUP,Heating Coil Electricity Energy [J] !RunPeriod [Value,Min,Month,Day,Hour,Minute,Max,Month,Day,Hour,Minute]
1292,11,WATER HEATER,Water Heater Heat Loss Energy [J] !RunPeriod [Value,Min,Month,Day,Hour,Minute,Max,Month,Day,Hour,Minute]
1306,11,WATER HEATER,Water Heater Heating Energy [J] !RunPeriod [Value,Min,Month,Day,Hour,Minute,Max,Month,Day,Hour,Minute]
1307,11,WATER HEATER,Water Heater Unmet Demand Heat Transfer Energy [J] !RunPeriod [Value,Min,Month,Day,Hour,Minute,Max,Month,Day,Hour,Minute]
1308,11,WATER HEATER,Water Heater Electricity Energy [J] !RunPeriod [Value,Min,Month,Day,Hour,Minute,Max,Month,Day,Hour,Minute]
13,11,Electricity:Facility [J] !RunPeriod [Value,Min,Month,Day,Hour,Minute,Max,Month,Day,Hour,Minute]
1134,11,Heating:Electricity [J] !RunPeriod [Value,Min,Month,Day,Hour,Minute,Max,Month,Day,Hour,Minute]
1096,11,Cooling:Electricity [J] !RunPeriod [Value,Min,Month,Day,Hour,Minute,Max,Month,Day,Hour,Minute]
562,11,Fans:Electricity [J] !RunPeriod [Value,Min,Month,Day,Hour,Minute,Max,Month,Day,Hour,Minute]
1379,11,Pumps:Electricity [J] !RunPeriod [Value,Min,Month,Day,Hour,Minute,Max,Month,Day,Hour,Minute]
1326,11,WaterSystems:Electricity [J] !RunPeriod [Value,Min,Month,Day,Hour,Minute,Max,Month,Day,Hour,Minute]
61,11,InteriorLights:Electricity [J] !RunPeriod [Value,Min,Month,Day,Hour,Minute,Max,Month,Day,Hour,Minute]
1046,11,ExteriorLights:Electricity [J] !RunPeriod [Value,Min,Month,Day,Hour,Minute,Max,Month,Day,Hour,Minute]
134,11,InteriorEquipment:Electricity [J] !RunPeriod [Value,Min,Month,Day,Hour,Minute,Max,Month,Day,Hour,Minute]
170,11,gas_dryer:InteriorEquipment:Electricity [J] !RunPeriod [Value,Min,Month,Day,Hour,Minute,Max,Month,Day,Hour,Minute]
207,11,clotheswasher:InteriorEquipment:Electricity [J] !RunPeriod [Value,Min,Month,Day,Hour,Minute,Max,Month,Day,Hour,Minute]
244,11,dishwasher:InteriorEquipment:Electricity [J] !RunPeriod [Value,Min,Month,Day,Hour,Minute,Max,Month,Day,Hour,Minute]
281,11,refrigerator:InteriorEquipment:Electricity [J] !RunPeriod [Value,Min,Month,Day,Hour,Minute,Max,Month,Day,Hour,Minute]
318,11,electric_mels:InteriorEquipment:Electricity [J] !RunPeriod [Value,Min,Month,Day,Hour,Minute,Max,Month,Day,Hour,Minute]
355,11,NaturalGas:Facility [J] !RunPeriod [Value,Min,Month,Day,Hour,Minute,Max,Month,Day,Hour,Minute]
403,11,InteriorEquipment:NaturalGas [J] !RunPeriod [Value,Min,Month,Day,Hour,Minute,Max,Month,Day,Hour,Minute]
476,11,gas_dryer:InteriorEquipment:NaturalGas [J] !RunPeriod [Value,Min,Month,Day,Hour,Minute,Max,Month,Day,Hour,Minute]
513,11,gas_mels:InteriorEquipment:NaturalGas [J] !RunPeriod [Value,Min,Month,Day,Hour,Minute,Max,Month,Day,Hour,Minute]
End of Data Dictionary
1,EXTREME_WINTER,  41.78,-124.24,  -8.00,  17.00
5,7
1038,12.5,0.0, 1, 1, 1,15,0.25, 1, 1, 6,15
1039,0.0,0.0, 1, 1, 1,15,0.0, 1, 1, 1,15
581,0.20927439525525177,0.13651099523559188, 1, 6,10,48,0.6708620403076273, 1, 1, 4,60
582,2.0171841749906303,0.0, 1, 1,22,60,13.02688964166005, 1, 1, 4,60
583,0.009139052573895355,0.00011091613903338893, 1, 7,21,15,0.03891852692799057, 1, 1, 6,10
1115,377098503.0948627,0.0, 1, 1, 1,15,2592214.1494196765, 1, 2, 6,45
1128,104764253.55037807,0.0, 1, 1, 1,15,668938.004563658, 1, 2, 6,45
1153,6036817.823364383,0.0, 1, 1, 1,15,62747.22262331211, 1, 6, 4,45
1154,79301768.13304467,0.0, 1, 1, 6, 5,180000.0, 1, 1, 1,15
1155,28013047.461688742,0.0, 1, 1, 1,15,1805872.498823816, 1, 6, 6,60
1156,28013047.461688742,0.0, 1, 1, 1,15,1805872.498823816, 1, 6, 6,60
1292,-24374880.03962846,-40156.748910584545, 1, 4, 8,60,-4550.388408603089, 1, 6,11,60
1306,211510818.10184392,0.0, 1, 1, 1,15,4050000.0, 1, 1, 7,60
1307,31388086.883036777,0.0, 1, 1, 1,15,10477434.544819886, 1, 7,19,60
1308,211510818.10184392,0.0, 1, 1, 1,15,4050000.0, 1, 1, 7,60
13,818629485.7377292,272017.0388981225, 1, 1,15,15,5668577.636209551, 1, 7,20,15
61,301924526.02383536,88139.10953165221, 1, 1, 1,15,1282023.4113694867, 1, 1,20,15
134,70666020.44019976,63564.01800854099, 1, 1, 4,15,156554.22484006523, 1, 6,20,15
170,5241013.419656067,348.4159749238097, 1, 1, 4,15,17476.39704006126, 1, 6,12,15
207,6509451.13922267,815.2532113832032, 1, 1, 3,15,22990.642799023623, 1, 6,10,15
244,12749673.399825225,1521.856143006317, 1, 1, 4,15,53038.631142310165, 1, 6,20,15
281,46165882.481495745,59938.60262432081, 1, 1, 5,15,81951.81706819107, 1, 1,19,15
318,0.0,0.0, 1, 1, 1,15,0.0, 1, 1, 1,15
355,197687796.27748066,18561.32405820678, 1, 1, 4,15,724774.895203776, 1, 6,18,15
403,197687796.27748066,18561.32405820678, 1, 1, 4,15,724774.895203776, 1, 6,18,15
476,106772067.24485716,7098.072629279515, 1, 1, 4,15,356036.3026282215, 1, 6,12,15
513,0.0,0.0, 1, 1, 1,15,0.0, 1, 1, 1,15
562,11655754.776234841,0.0, 1, 1, 1,15,70044.38727698164, 1, 2, 6,15
1046,0.0,0.0, 1, 1, 1,15,0.0, 1, 1, 1,15
1096,4756479.427140652,0.0, 1, 1, 1,15,201023.0116457877, 1, 2,17,15
1134,218115886.96847588,0.0, 1, 1,11,60,2771189.189153985, 1, 6, 6,30
1326,211510818.10184395,0.0, 1, 1, 1,15,4050000.0, 1, 1, 7,60
1379,0.0,0.0, 1, 1, 1,15,0.0, 1, 1, 1,15
1,EXTREME_SUMMER,  41.78,-124.24,  -8.00,  17.00
5,7
1038,0.0,0.0, 8,19, 1,15,0.0, 8,19, 1,15
1039,6.75,0.0, 8,19, 1,15,0.25, 8,22,16,30
581,0.2289729049481753,0.08555556159233114, 8,25,23, 7,0.5195162589655254, 8,20,23,60
582,3.195229432776292,0.0, 8,22, 3,60,9.570197038325164, 8,20,23,60
583,0.00827759916831874,0.000046390662178258056, 8,24, 2,30,0.034630707044507686, 8,22,15,50
1115,0.0,0.0, 8,19, 1,15,0.0, 8,19, 1,15
1128,0.0,0.0, 8,19, 1,15,0.0, 8,19, 1,15
1153,0.0,0.0, 8,19, 1,15,0.0, 8,19, 1,15
1154,0.0,0.0, 8,19, 1,15,0.0, 8,19, 1,15
1155,0.0,0.0, 8,19, 1,15,0.0, 8,19, 1,15
1156,0.0,0.0, 8,19, 1,15,0.0, 8,19, 1,15
1292,-22935267.172693163,-37165.237791884065, 8,21, 8,30,-2753.214220259977, 8,25,18,45
1306,200427320.59043428,0.0, 8,19, 1,15,4050000.0, 8,20,20,30
1307,27161557.073113985,0.0, 8,19, 1,15,3441194.4566103215, 8,25,19,55
1308,200427320.59043428,0.0, 8,19, 1,15,4050000.0, 8,20,20,30
13,656601019.2659762,151703.1275401932, 8,19, 4,15,5864004.950710872, 8,25,20,15
61,301924526.02383536,88139.10953165221, 8,19, 1,15,1282023.4113694867, 8,19,20,15
134,70666020.44019976,63564.01800854099, 8,19, 4,15,156554.22484006523, 8,24,20,15
170,5241013.419656067,348.4159749238097, 8,19, 4,15,17476.39704006126, 8,24,12,15
207,6509451.13922267,815.2532113832032, 8,19, 3,15,22990.642799023623, 8,24,10,15
244,12749673.399825225,1521.856143006317, 8,19, 4,15,53038.631142310165, 8,24,20,15
281,46165882.481495745,59938.60262432081, 8,19, 5,15,81951.81706819107, 8,19,19,15
318,0.0,0.0, 8,19, 1,15,0.0, 8,19, 1,15
355,197687796.27748066,18561.32405820678, 8,19, 4,15,724774.895203776, 8,24,18,15
403,197687796.27748066,18561.32405820678, 8,19, 4,15,724774.895203776, 8,24,18,15
476,106772067.24485716,7098.072629279515, 8,19, 4,15,356036.3026282215, 8,24,12,15
513,0.0,0.0, 8,19, 1,15,0.0, 8,19, 1,15
562,9807634.395164704,0.0, 8,19, 1,15,70044.38727698164, 8,22,15,15
1046,0.0,0.0, 8,19, 1,15,0.0, 8,19, 1,15
1096,73775517.81634218,0.0, 8,19, 1,15,535846.6730422085, 8,22,15,15
1134,0.0,0.0, 8,19, 1,15,0.0, 8,19, 1,15
1326,200427320.59043425,0.0, 8,19, 1,15,4050000.0, 8,20,20,30
1379,0.0,0.0, 8,19, 1,15,0.0, 8,19, 1,15
1,ANNUAL,  41.78,-124.24,  -8.00,  17.00
5,365
1038,153.75,0.0, 1, 1, 1,15,0.25, 1, 1, 6,15
1039,195.25,0.0, 1, 1, 1,15,0.25, 1,19,15,45
581,0.2632033825730571,0.0, 5,15, 8,46,1.3504074861439326, 3,29, 6,60
582,3.724577437418692,0.0, 1, 1,23, 7,27.129958919668425, 3,30, 2,60
583,0.009535934381996852,0.000014408358116786175, 5,20, 9, 4,0.07110335307965376, 3,29, 6,22
1115,8030161049.17969,0.0, 1, 1, 1,15,3416156.928188098, 3,29, 6,45
1128,2118506118.2346714,0.0, 1, 1, 1,15,797316.6490696715, 3,29, 6,45
1153,57717795.72729618,0.0, 1, 1, 1,15,79661.56791462471, 1,18, 8,60
1154,1413923098.1139627,0.0, 1, 1, 6, 5,180000.0, 1, 1, 1,15
1155,109994447.09261143,0.0, 1, 1, 1,15,2070582.115487016, 1, 9, 6,60
1156,109994447.09261143,0.0, 1, 1, 1,15,2070582.115487016, 1, 9, 6,60
1292,-1231945919.9909518,-40582.61040485471, 1,10, 8,45,-2423.6088163424215, 9,24, 9,46
1306,10836663112.935896,0.0, 1, 1, 1,15,4050000.0, 1, 1, 9,60
1307,1548281243.141918,0.0, 1, 1, 1,15,10564263.325238485, 2,12,19,60
1308,10836663112.935896,0.0, 1, 1, 1,15,4050000.0, 1, 1, 9,60
13,37133738768.2803,151703.1275401932, 1,23, 4,30,6987611.062627355, 1, 9, 7,60
61,15743207428.383959,88139.10953165221, 1, 1, 1,15,1282023.4113694867, 1, 1,20,15
134,3685071073.4325233,63564.01800854099, 1, 2, 4,15,156554.22484006523, 1, 1,20,15
170,273393721.45532674,348.4159749238097, 1, 2, 4,15,17476.39704006126, 1, 1,12,15
207,339560869.0695816,815.2532113832032, 1, 2, 3,15,22990.642799023623, 1, 1,10,15
244,664895467.8009144,1521.856143006317, 1, 2, 4,15,53038.631142310165, 1, 1,20,15
281,2407221015.106824,59938.60262432081, 1, 1, 5,15,81951.81706819107, 1, 1,19,15
318,0.0,0.0, 1, 1, 1,15,0.0, 1, 1, 1,15
355,10310294493.051695,18561.32405820678, 1, 2, 4,15,724774.895203776, 1, 1,18,15
403,10310294493.051695,18561.32405820678, 1, 2, 4,15,724774.895203776, 1, 1,18,15
476,5569688622.066177,7098.072629279515, 1, 2, 4,15,356036.3026282215, 1, 1,12,15
513,0.0,0.0, 1, 1, 1,15,0.0, 1, 1, 1,15
562,555993712.9117107,0.0, 1, 1, 1,15,70044.38727698164, 1, 2, 6,15
1046,0.0,0.0, 1, 1, 1,15,0.0, 1, 1, 1,15
1096,2612661981.4462657,0.0, 1, 1, 1,15,607149.9749596127, 4,30,17,60
1134,3700141459.1685376,0.0, 1, 1,11,60,2785017.5510784863,12,19, 8,30
1326,10836663112.935892,0.0, 1, 1, 1,15,4050000.0000000014, 9,24, 9,60
1379,0.0,0.0, 1, 1, 1,15,0.0, 1, 1, 1,15
End of Data
 Number of Records Written=          99
