Program Version,EnergyPlus, Version 22.2.0-c249759bad, YMD=2023.09.01 14:30
1,5,Environment Title[],Latitude[deg],Longitude[deg],Time Zone[],Elevation[m]
2,8,Day of Simulation[],Month[],Day of Month[],DST Indicator[1=yes 0=no],Hour[],StartMinute[],EndMinute[],DayType
3,5,Cumulative Day of Simulation[],Month[],Day of Month[],DST Indicator[1=yes 0=no],DayType  ! When Daily Report Variables Requested
4,2,Cumulative Days of Simulation[],Month[]  ! When Monthly Report Variables Requested
5,1,Cumulative Days of Simulation[] ! When Run Period Report Variables Requested
6,1,Calendar Year of Simulation[] ! When Annual Report Variables Requested
7,1,Environment,Site Outdoor Air Drybulb Temperature [C] !Hourly
619,1,DX_HEATING_COIL,Heating Coil Heating Rate [W] !Hourly
633,1,DX_HEATING_COIL,Heating Coil Electricity Rate [W] !Hourly
659,1,DX_HEATING_COIL,Heating Coil Defrost Electricity Rate [W] !Hourly
661,1,DX_HEATING_COIL,Heating Coil Crankcase Heater Electricity Rate [W] !Hourly
690,1,FAN,Fan Electricity Rate [W] !Hourly
716,1,HEAT PUMP WATER HEATER FAN,Fan Electricity Rate [W] !Hourly
718,1,LIVING,Zone Mean Air Temperature [C] !Hourly
719,1,ATTIC,Zone Mean Air Temperature [C] !Hourly
720,1,CRAWLSPACE,Zone Mean Air Temperature [C] !Hourly
843,1,LIVING,Zone Predicted Sensible Load to Heating Setpoint Heat Transfer Rate [W] !Hourly
844,1,LIVING,Zone System Predicted Sensible Load to Heating Setpoint Heat Transfer Rate [W] !Hourly
907,1,ATTIC,Zone Predicted Sensible Load to Heating Setpoint Heat Transfer Rate [W] !Hourly
908,1,ATTIC,Zone System Predicted Sensible Load to Heating Setpoint Heat Transfer Rate [W] !Hourly
971,1,CRAWLSPACE,Zone Predicted Sensible Load to Heating Setpoint Heat Transfer Rate [W] !Hourly
972,1,CRAWLSPACE,Zone System Predicted Sensible Load to Heating Setpoint Heat Transfer Rate [W] !Hourly
1195,1,HEATING_RESISTANCE_BACKUP,Heating Coil Heating Rate [W] !Hourly
1197,1,HEATING_RESISTANCE_BACKUP,Heating Coil Electricity Rate [W] !Hourly
End of Data Dictionary
1,EXTREME_WINTER,  40.70, -74.17,  -5.00,   9.00
2,1, 1,27, 0, 1, 0.00,60.00,Monday
7,0.6
718,18.534709329550942
719,0.982717681566759
720,19.638139353590486
619,1628.0731895087251
633,517.314942418287
659,0.02528382315960819
661,129.1033134415852
690,51.83534938478255
716,0.0
843,1178.1315406933318
844,1178.1315406933318
907,0.0
908,0.0
971,0.0
972,0.0
1195,0.0
1197,0.0
2,1, 1,27, 0, 2, 0.00,60.00,Monday
7,0.6
718,18.57560433273077
719,1.1761499561999942
720,19.344142208709037
619,2201.2294806454365
633,687.989253524387
659,0.03370363198696546
661,105.493887622291
690,69.09712723423331
716,0.0
843,1600.8121177709181
844,1600.8121177709181
907,0.0
908,0.0
971,0.0
972,0.0
1195,0.0
1197,0.0
2,1, 1,27, 0, 3, 0.00,60.00,Monday
7,-0.6
718,18.608281216876097
719,0.8055426190758631
720,19.17084699723915
619,2621.2311905548304
633,827.9984743558482
659,0.04097480931615837
661,85.10526297623767
690,84.00393545030181
716,0.0
843,1894.4218692149661
844,1894.4218692149661
907,0.0
908,0.0
971,0.0
972,0.0
1195,0.0
1197,0.0
2,1, 1,27, 0, 4, 0.00,60.00,Monday
7,-0.6
718,18.629114122278498
719,0.6527222832537226
720,18.99700586139301
619,2871.990909735435
633,902.2928754487998
659,0.8493672168945928
661,74.69588059572354
690,91.60207528188417
716,0.0
843,2059.944267717625
844,2059.944267717625
907,0.0
908,0.0
971,0.0
972,0.0
1195,0.0
1197,0.0
2,1, 1,27, 0, 5, 0.00,60.00,Monday
7,-1.1
718,18.605815404524318
719,0.35058108640192576
720,18.839820082312855
619,2917.3847550574355
633,923.7112588948377
659,3.594998287929568
661,70.66822999503582
690,94.4993922316354
716,0.0
843,2077.4424311649655
844,2077.4424311649655
907,0.0
908,0.0
971,0.0
972,0.0
1195,0.0
1197,0.0
2,1, 1,27, 0, 6, 0.00,60.00,Monday
7,-1.1
718,19.319840562141113
719,0.6857640372420327
720,18.64697755110337
619,4349.904426833799
633,1329.4733075778393
659,5.174271601233635
661,13.706168981833855
690,136.12019004734003
716,0.0
843,3074.7264505404128
844,3074.7264505404128
907,0.0
908,0.0
971,0.0
972,0.0
1195,0.0
1197,0.0
2,1, 1,27, 0, 7, 0.00,60.00,Monday
7,-1.7
718,19.524451584592736
719,0.818921786559248
720,18.526959489912556
619,4591.845580903887
633,1431.640315610111
659,11.454950058171713
661,0.0
690,146.22875902831782
716,85.44000000000004
843,3062.119372275356
844,3062.119372275356
907,0.0
908,0.0
971,0.0
972,0.0
1195,1005.4547844490826
1197,1005.4547844490826
2,1, 1,27, 0, 8, 0.00,60.00,Monday
7,-1.7
718,19.639976710502296
719,0.9208239307190064
720,18.396898202973635
619,4587.107985382705
633,1437.2757938403468
659,11.454950058171713
661,0.0
690,146.22875902831782
716,82.0841615425227
843,2674.938487910258
844,2674.938487910258
907,0.0
908,0.0
971,0.0
972,0.0
1195,583.0097364594126
1197,583.0097364594126
2,1, 1,27, 0, 9, 0.00,60.00,Monday
7,1.1
718,19.789389792367665
719,2.359488043151865
720,18.337140575666666
619,2338.2128930939234
633,741.1389636334726
659,0.0354064694081576
661,100.71907448789675
690,72.58821808377296
716,0.0
843,1635.3133507126659
844,1635.3133507126659
907,0.0
908,0.0
971,0.0
972,0.0
1195,0.0
1197,0.0
2,1, 1,27, 0,10, 0.00,60.00,Monday
7,2.2
718,19.725633522509188
719,4.351416077595658
720,18.24209266006986
619,1113.9537142706713
633,358.13681802350624
659,0.01688797490485416
661,152.6455530131791
690,34.62275244384938
716,0.0
843,796.914208771761
844,796.914208771761
907,0.0
908,0.0
971,0.0
972,0.0
1195,0.0
1197,0.0
2,1, 1,27, 0,11, 0.00,60.00,Monday
7,3.3
718,19.90668716770333
719,7.572644691429731
720,18.177567555042415
619,63.80585206853283
633,20.61106469263468
659,0.0009631343366745999
661,197.29933907740858
690,1.9745646574074183
716,0.0
843,42.608012575874454
844,42.608012575874454
907,0.0
908,0.0
971,0.0
972,0.0
1195,0.0
1197,0.0
2,1, 1,27, 0,12, 0.00,60.00,Monday
7,5.0
718,19.905309114692482
719,8.774700956455412
720,18.12723809452274
619,0.0
633,0.0
659,0.0
661,200.0
690,0.0
716,0.0
843,-448.3072914495424
844,-448.3072914495424
907,0.0
908,0.0
971,0.0
972,0.0
1195,0.0
1197,0.0
2,1, 1,27, 0,13, 0.00,60.00,Monday
7,4.4
718,19.73837857152986
719,8.12394495871059
720,18.10420571155117
619,161.91613107332606
633,51.47062087944221
659,0.0023719305736583235
661,193.3490272670622
690,4.862805693311481
716,0.0
843,113.73341658061327
844,113.73341658061327
907,0.0
908,0.0
971,0.0
972,0.0
1195,0.0
1197,0.0
2,1, 1,27, 0,14, 0.00,60.00,Monday
7,4.4
718,19.702664799871105
719,7.559838593481178
720,18.079515378724352
619,1620.0487911441667
633,496.4561238031578
659,0.022957301210944848
661,135.6269588699063
690,47.06583594489354
716,79.99428926031506
843,343.3751532221395
844,343.3751532221395
907,0.0
908,0.0
971,0.0
972,0.0
1195,0.0
1197,0.0
2,1, 1,27, 0,15, 0.00,60.00,Monday
7,3.9
718,19.69655745288397
719,7.128228653677352
720,18.072718412005763
619,58.87982487709597
633,18.8207597953779
659,0.0008749816766636772
661,197.54652208713907
690,1.793839987537427
716,0.0
843,41.36763227260417
844,41.36763227260417
907,0.0
908,0.0
971,0.0
972,0.0
1195,0.0
1197,0.0
2,1, 1,27, 0,16, 0.00,60.00,Monday
7,2.8
718,19.761143860655935
719,6.349529112859297
720,18.055627419671882
619,0.0
633,0.0
659,0.0
661,200.0
690,0.0
716,0.0
843,-318.76955303399154
844,-318.76955303399154
907,0.0
908,0.0
971,0.0
972,0.0
1195,0.0
1197,0.0
2,1, 1,27, 0,17, 0.00,60.00,Monday
7,2.8
718,20.195795293621536
719,5.570115905669413
720,18.05074362639072
619,0.0
633,0.0
659,0.0
661,200.0
690,0.0
716,0.0
843,-422.19024916571107
844,-422.19024916571107
907,0.0
908,0.0
971,0.0
972,0.0
1195,0.0
1197,0.0
2,1, 1,27, 0,18, 0.00,60.00,Monday
7,2.2
718,19.749620588048924
719,4.15579779622609
720,18.043565347900355
619,0.0
633,0.0
659,0.0
661,200.0
690,0.0
716,0.0
843,-22.622696306318176
844,-22.622696306318176
907,0.0
908,0.0
971,0.0
972,0.0
1195,0.0
1197,0.0
2,1, 1,27, 0,19, 0.00,60.00,Monday
7,1.7
718,19.704583452637074
719,3.5681116100496713
720,18.00748180272553
619,1638.678607423442
633,524.006343954492
659,0.02485093241393795
661,130.31715358419663
690,50.94792237540457
716,85.44000000000004
843,143.48831303876432
844,143.48831303876432
907,0.0
908,0.0
971,0.0
972,0.0
1195,0.0
1197,0.0
2,1, 1,27, 0,20, 0.00,60.00,Monday
7,1.7
718,19.696884671336306
719,3.063158023894146
720,17.97002963589346
619,1863.4629463046922
633,592.0732535312504
659,0.028105731689067735
661,121.19058745680533
690,57.62072079437979
716,85.44000000000004
843,320.76518090197715
844,320.76518090197715
907,0.0
908,0.0
971,0.0
972,0.0
1195,0.0
1197,0.0
2,1, 1,27, 0,21, 0.00,60.00,Monday
7,0.6
718,19.810854464597703
719,2.238778656359452
720,17.922395975066177
619,1313.8984088512334
633,430.80942974890826
659,0.02065510602871155
661,142.0823912307778
690,42.34583507166025
716,40.05642125612448
843,468.39943121851684
844,468.39943121851684
907,0.0
908,0.0
971,0.0
972,0.0
1195,0.0
1197,0.0
2,1, 1,27, 0,22, 0.00,60.00,Monday
7,-1.1
718,19.540839207072764
719,1.305313110576454
720,17.858590301416488
619,971.6934274597479
633,332.51356595361204
659,2.913981657984446
661,154.169430470862
690,33.45891637907754
716,0.0
843,684.4190630499443
844,684.4190630499443
907,0.0
908,0.0
971,0.0
972,0.0
1195,0.0
1197,0.0
2,1, 1,27, 0,23, 0.00,60.00,Monday
7,-1.1
718,18.755755978931102
719,0.7535141912408166
720,17.786995580553807
619,723.8916450830856
633,247.82424905052886
659,3.4263186720750585
661,165.4183058432149
690,25.225332079721724
716,0.0
843,504.9194200926786
844,504.9194200926786
907,0.0
908,0.0
971,0.0
972,0.0
1195,0.0
1197,0.0
2,1, 1,27, 0,24, 0.00,60.00,Monday
7,-0.6
718,18.653894824601867
719,0.8771008694515354
720,17.687082851161648
619,1274.8625027509881
633,418.12607106033886
659,6.283216823337218
661,140.9060810734042
690,43.106338578188506
716,0.0
843,905.2786751150816
844,905.2786751150816
907,0.0
908,0.0
971,0.0
972,0.0
1195,0.0
1197,0.0
2,2, 1,28, 0, 1, 0.00,60.00,Tuesday
7,-1.7
718,18.469237573566904
719,0.7321250941745044
720,17.578215917618458
619,1954.0650437964375
633,640.5521262558789
659,8.29465602795292
661,108.68492839733108
690,66.61009978490698
716,0.0
843,1382.7101064674007
844,1382.7101064674007
907,0.0
908,0.0
971,0.0
972,0.0
1195,0.0
1197,0.0
2,2, 1,28, 0, 2, 0.00,60.00,Tuesday
7,-1.7
718,18.53585697284717
719,0.8793259244841589
720,17.46556217861868
619,2675.1705700425873
633,856.8594065406922
659,11.138596818092394
661,77.37625736743328
690,89.44852602657916
716,0.0
843,1892.3541216380781
844,1892.3541216380781
907,0.0
908,0.0
971,0.0
972,0.0
1195,0.0
1197,0.0
2,2, 1,28, 0, 3, 0.00,60.00,Tuesday
7,-2.8
718,18.541113307573397
719,0.46805920633974524
720,17.35085794394843
619,3263.987890715425
633,1051.879443049534
659,19.55941184398964
661,47.10136014256805
690,111.36716550800216
716,0.0
843,2288.882332956635
844,2288.882332956635
907,0.0
908,0.0
971,0.0
972,0.0
1195,0.0
1197,0.0
2,2, 1,28, 0, 4, 0.00,60.00,Tuesday
7,-1.1
718,18.656696538299247
719,0.46954166640595885
720,17.274271446677982
619,3120.692035896774
633,979.7912235744841
659,13.840137260694055
661,60.433654325262886
690,101.80656392275324
716,0.0
843,2193.2255840046673
844,2193.2255840046673
907,0.0
908,0.0
971,0.0
972,0.0
1195,0.0
1197,0.0
2,2, 1,28, 0, 5, 0.00,60.00,Tuesday
7,-1.1
718,18.6156719445419
719,0.6625666023661909
720,17.175960638876404
619,3127.7026984128256
633,984.7270016419725
659,18.91767003352611
661,59.06130397676641
690,102.72101871835025
716,0.0
843,2178.6781602309475
844,2178.6781602309475
907,0.0
908,0.0
971,0.0
972,0.0
1195,0.0
1197,0.0
2,2, 1,28, 0, 6, 0.00,60.00,Tuesday
7,0.0
718,19.354923879788707
719,1.856565499077962
720,17.073469220797115
619,4355.697709645237
633,1305.862237694291
659,14.099435157234469
661,16.773917088016944
690,133.76236888802222
716,0.0
843,3086.0440117930084
844,3086.0440117930084
907,0.0
908,0.0
971,0.0
972,0.0
1195,0.0
1197,0.0
2,2, 1,28, 0, 7, 0.00,60.00,Tuesday
7,0.0
718,19.5361090543395
719,2.4155980725793045
720,17.014310790893425
619,4793.662462640899
633,1446.0015745392598
659,15.396200393353402
661,0.0
690,146.22875902831782
716,85.44000000000004
843,2984.9608657806966
844,2984.9608657806966
907,0.0
908,0.0
971,0.0
972,0.0
1195,695.6356721491379
1197,695.6356721491379
2,2, 1,28, 0, 8, 0.00,60.00,Tuesday
7,0.0
718,19.64408741106023
719,2.820892099386916
720,16.934768829863714
619,4789.418339262455
633,1451.0704921523927
659,15.396200393353402
661,0.0
690,146.22875902831782
716,85.44000000000004
843,2762.240448613791
844,2762.240448613791
907,0.0
908,0.0
971,0.0
972,0.0
1195,507.3718587353883
1197,507.3718587353883
2,2, 1,28, 0, 9, 0.00,60.00,Tuesday
7,-1.0
718,19.67658011436168
719,3.3704636885302746
720,16.85508784973789
619,4416.3985790419465
633,1366.784278206511
659,68.04078153569536
661,0.0
690,146.22875902831782
716,82.7416908538609
843,2791.952891977533
844,2791.952891977533
907,0.0
908,0.0
971,0.0
972,0.0
1195,852.73606606059
1197,852.73606606059
2,2, 1,28, 0,10, 0.00,60.00,Tuesday
7,-1.0
718,19.73274310391942
719,3.498021211667865
720,16.783028214271692
619,3821.933749178291
633,1210.8044619813897
659,74.64495737532744
661,20.14310284355463
690,130.16388966145374
716,0.0
843,2685.3159071010887
844,2685.3159071010887
907,0.0
908,0.0
971,0.0
972,0.0
1195,0.0
1197,0.0
2,2, 1,28, 0,11, 0.00,60.00,Tuesday
7,0.0
718,19.758456850082634
719,4.9340781337913215
720,16.719475309094356
619,3290.9227659283974
633,1040.3769131008735
659,83.32180623690847
661,43.12525840917188
690,113.39135208002885
716,0.0
843,2316.7866459460765
844,2316.7866459460765
907,0.0
908,0.0
971,0.0
972,0.0
1195,0.0
1197,0.0
2,2, 1,28, 0,12, 0.00,60.00,Tuesday
7,1.0
718,19.711701728986565
719,5.468569391629545
720,16.65215594543907
619,2696.051113229952
633,850.5984849368247
659,51.077866342032586
661,76.12102794287614
690,89.91565696476181
716,0.0
843,1952.6173236396116
844,1952.6173236396116
907,0.0
908,0.0
971,0.0
972,0.0
1195,0.0
1197,0.0
2,2, 1,28, 0,13, 0.00,60.00,Tuesday
7,3.3
718,19.860482168835087
719,8.994651446934101
720,16.597726206138304
619,1642.8273948822982
633,510.9873132952302
659,27.483689206920975
661,127.58015364313337
690,52.740231301415356
716,0.0
843,1210.1873740021783
844,1210.1873740021783
907,0.0
908,0.0
971,0.0
972,0.0
1195,0.0
1197,0.0
2,2, 1,28, 0,14, 0.00,60.00,Tuesday
7,3.3
718,19.768086863531124
719,11.660935787691551
720,16.552239811061938
619,536.0506224819346
633,171.96957107307878
659,9.221737540562552
661,175.70061243223805
690,17.69613895669386
716,0.0
843,409.6506203101908
844,409.6506203101908
907,0.0
908,0.0
971,0.0
972,0.0
1195,0.0
1197,0.0
2,2, 1,28, 0,15, 0.00,60.00,Tuesday
7,5.6
718,19.916997386419467
719,10.946680920903981
720,16.53650192427078
619,0.0
633,0.0
659,0.0
661,200.0
690,0.0
716,0.0
843,-245.0002093389303
844,-245.0002093389303
907,0.0
908,0.0
971,0.0
972,0.0
1195,0.0
1197,0.0
2,2, 1,28, 0,16, 0.00,60.00,Tuesday
7,5.6
718,19.732132709417318
719,8.78012931837337
720,16.552880315044636
619,181.7185663111189
633,51.9162736101972
659,0.0
661,193.6679701844289
690,4.629624310306356
716,0.0
843,135.39384775747567
844,135.39384775747567
907,0.0
908,0.0
971,0.0
972,0.0
1195,0.0
1197,0.0
2,2, 1,28, 0,17, 0.00,60.00,Tuesday
7,3.9
718,20.03410046852174
719,6.605241739861634
720,16.58956675804795
619,217.83590390867428
633,69.29265455715515
659,0.003224632886489229
661,190.95802143622785
690,6.610967492387434
716,0.0
843,169.12713491756404
844,169.12713491756404
907,0.0
908,0.0
971,0.0
972,0.0
1195,0.0
1197,0.0
2,2, 1,28, 0,18, 0.00,60.00,Tuesday
7,2.8
718,19.42437353337874
719,4.625716489016744
720,16.637497263480025
619,1731.678446867522
633,545.4485275667489
659,0.02550535037583513
661,128.4821437112855
690,52.28963038102223
716,68.79552452881238
843,453.21939880586797
844,453.21939880586797
907,0.0
908,0.0
971,0.0
972,0.0
1195,0.0
1197,0.0
2,2, 1,28, 0,19, 0.00,60.00,Tuesday
7,0.0
718,19.360450820271527
719,2.934397042991365
720,16.628378333107648
619,2016.9320577507626
633,651.3255508959769
659,0.03160953386448894
661,111.36580886120235
690,64.80388977740512
716,0.0
843,1473.7657904816042
844,1473.7657904816042
907,0.0
908,0.0
971,0.0
972,0.0
1195,0.0
1197,0.0
2,2, 1,28, 0,20, 0.00,60.00,Tuesday
7,0.0
718,19.484416987816058
719,2.734419378185474
720,16.61952776069048
619,4289.664543177788
633,1310.5499986881698
659,0.06370414112848581
661,21.37145567152954
690,130.60224707240036
716,85.44000000000004
843,1974.9560855807686
844,1974.9560855807686
907,0.0
908,0.0
971,0.0
972,0.0
1195,0.0
1197,0.0
2,2, 1,28, 0,21, 0.00,60.00,Tuesday
7,-4.4
718,19.478493915788484
719,-0.8227041181242479
720,16.54505146724875
619,4301.100729826143
633,1416.53514152349
659,0.07132582462447175
661,0.0
690,146.22875902831782
716,85.44000000000004
843,3446.540346809268
844,3446.540346809268
907,0.0
908,0.0
971,0.0
972,0.0
1195,1871.8336422064203
1197,1871.8336422064203
2,2, 1,28, 0,22, 0.00,60.00,Tuesday
7,-5.6
718,19.59831131970653
719,-2.0961111075411702
720,16.501696332459158
619,4154.533742080831
633,1402.0241512057405
659,0.07132582462447175
661,0.0
690,146.22875902831782
716,49.55018467931633
843,3062.769978252305
844,3062.769978252305
907,0.0
908,0.0
971,0.0
972,0.0
1195,1077.4755229168095
1197,1077.4755229168095
2,2, 1,28, 0,23, 0.00,60.00,Tuesday
7,-6.1
718,18.96813523914271
719,-3.6421708283370493
720,16.420541398299264
619,4091.5072412184945
633,1399.2232339750396
659,0.07132582462447175
661,0.0
690,146.22875902831782
716,0.0
843,2817.612444818851
844,2817.612444818851
907,0.0
908,0.0
971,0.0
972,0.0
1195,291.72149800512125
1197,291.72149800512125
2,2, 1,28, 0,24, 0.00,60.00,Tuesday
7,-6.7
718,18.742834602074304
719,-3.563728182792045
720,16.308929178303533
619,4034.5007963669723
633,1375.1773500615843
659,0.07132582462447175
661,0.0
690,146.22875902831782
716,0.0
843,2986.1344001817033
844,2986.1344001817033
907,0.0
908,0.0
971,0.0
972,0.0
1195,577.055343132829
1197,577.055343132829
2,3, 1,29, 0, 1, 0.00,60.00,Wednesday
7,-7.2
718,18.6460118683191
719,-4.355685596996902
720,16.186426653884563
619,3980.592237841532
633,1363.2239738496055
659,0.07132582462447175
661,0.0
690,146.22875902831782
716,0.0
843,4429.903338635861
844,4429.903338635861
907,0.0
908,0.0
971,0.0
972,0.0
1195,2346.660668254092
1197,2346.660668254092
2,3, 1,29, 0, 2, 0.00,60.00,Wednesday
7,-7.2
718,18.614800099043105
719,-4.438913676970959
720,16.071212217337898
619,3982.962525907344
633,1360.514281251135
659,0.07132582462447175
661,0.0
690,146.22875902831782
716,0.0
843,4845.213888642378
844,4845.213888642378
907,0.0
908,0.0
971,0.0
972,0.0
1195,2870.9052554855703
1197,2870.9052554855703
2,3, 1,29, 0, 3, 0.00,60.00,Wednesday
7,-7.8
718,18.614054208764333
719,-4.98802170117595
720,15.950527912770221
619,3913.317120230043
633,1352.6267861630747
659,0.07132582462447175
661,0.0
690,146.22875902831782
716,0.0
843,4100.560984525417
844,4100.560984525417
907,0.0
908,0.0
971,0.0
972,0.0
1195,2056.1064425608092
1197,2056.1064425608092
2,3, 1,29, 0, 4, 0.00,60.00,Wednesday
7,-7.8
718,18.605961694454397
719,-4.685466416884146
720,15.83104262366671
619,3913.4704300046724
633,1352.4525976899824
659,0.07132582462447175
661,0.0
690,146.22875902831782
716,0.0
843,4469.088869837831
844,4469.088869837831
907,0.0
908,0.0
971,0.0
972,0.0
1195,2518.8037563111466
1197,2518.8037563111466
2,3, 1,29, 0, 5, 0.00,60.00,Wednesday
7,-8.3
718,18.607732204162687
719,-5.205786150812887
720,15.703075866736086
619,3855.606316762966
633,1346.292230563294
659,0.07132582462447175
661,0.0
690,146.22875902831782
716,0.0
843,4448.693716960714
844,4448.693716960714
907,0.0
908,0.0
971,0.0
972,0.0
1195,2547.57892349292
1197,2547.57892349292
2,3, 1,29, 0, 6, 0.00,60.00,Wednesday
7,-8.3
718,19.270484005161467
719,-4.449562643299156
720,15.582408925004392
619,3855.7228867309686
633,1346.1605131411657
659,0.07132582462447175
661,0.0
690,146.22875902831782
716,75.93124658128963
843,5678.914335609361
844,5678.914335609361
907,0.0
908,0.0
971,0.0
972,0.0
1195,4923.841718759777
1197,4923.841718759777
2,3, 1,29, 0, 7, 0.00,60.00,Wednesday
7,-8.9
718,19.530390499748716
719,-5.1138561319413975
720,15.49055027907468
619,3771.5614151013297
633,1355.9840935398377
659,0.07132582462447175
661,0.0
690,146.22875902831782
716,85.44000000000004
843,5374.280782371985
844,5374.280782371985
907,0.0
908,0.0
971,0.0
972,0.0
1195,4922.197464377448
1197,4922.197464377448
2,3, 1,29, 0, 8, 0.00,60.00,Wednesday
7,-8.9
718,19.641611171550814
719,-5.058820848371432
720,15.383218633369806
619,3765.705573369504
633,1362.5384329328872
659,0.07132582462447175
661,0.0
690,146.22875902831782
716,73.9138818186917
843,4865.9050649104865
844,4865.9050649104865
907,0.0
908,0.0
971,0.0
972,0.0
1195,4225.922111629772
1197,4225.922111629772
2,3, 1,29, 0, 9, 0.00,60.00,Wednesday
7,-7.8
718,19.70144801818494
719,-3.73129427233185
720,15.287622923720754
619,3890.537960879145
633,1378.486718086722
659,0.07132582462447175
661,0.0
690,146.22875902831782
716,0.0
843,4464.391418793828
844,4464.391418793828
907,0.0
908,0.0
971,0.0
972,0.0
1195,2660.66324996772
1197,2660.66324996772
2,3, 1,29, 0,10, 0.00,60.00,Wednesday
7,-6.7
718,19.71037256459107
719,-1.7455967608771124
720,15.198124823905003
619,4018.9606459399997
633,1393.02459164527
659,0.07132582462447175
661,0.0
690,146.22875902831782
716,0.0
843,4353.723533202945
844,4353.723533202945
907,0.0
908,0.0
971,0.0
972,0.0
1195,2356.7454613730665
1197,2356.7454613730665
2,3, 1,29, 0,11, 0.00,60.00,Wednesday
7,-7.0
718,19.722723198850513
719,-2.6700688818093483
720,15.13715806391847
619,3983.2137267555145
633,1389.6190886088837
659,0.07132582462447175
661,0.0
690,146.22875902831782
716,0.0
843,3663.0794639958785
844,3663.0794639958785
907,0.0
908,0.0
971,0.0
972,0.0
1195,1430.2029891945922
1197,1430.2029891945922
2,3, 1,29, 0,12, 0.00,60.00,Wednesday
7,-6.1
718,19.71986677512428
719,-1.18930339799833
720,15.096673068442575
619,4090.29332296671
633,1400.625499315268
659,0.07132582462447175
661,0.0
690,146.22875902831782
716,0.0
843,3494.045455567777
844,3494.045455567777
907,0.0
908,0.0
971,0.0
972,0.0
1195,1170.6085704099514
1197,1170.6085704099514
2,3, 1,29, 0,13, 0.00,60.00,Wednesday
7,-5.0
718,19.745197708912034
719,-0.3251452232863023
720,15.0661984296015
619,3905.093929707798
633,1318.0478982662348
659,0.06649885152522785
661,13.534994161393211
690,136.33089052656015
716,0.0
843,2478.9020990271347
844,2478.9020990271347
907,0.0
908,0.0
971,0.0
972,0.0
1195,0.0
1197,0.0
2,3, 1,29, 0,14, 0.00,60.00,Wednesday
7,-5.0
718,19.77895397896135
719,0.19116525038379042
720,15.032383038202074
619,2956.2646925584004
633,1024.0953547755835
659,0.05163636277591516
661,55.2099101614906
690,105.86094560291738
716,0.0
843,1902.5854067562123
844,1902.5854067562123
907,0.0
908,0.0
971,0.0
972,0.0
1195,0.0
1197,0.0
2,3, 1,29, 0,15, 0.00,60.00,Wednesday
7,-3.9
718,19.625125249908194
719,0.8647974903089284
720,15.04588606797699
619,3720.0411990791504
633,1239.3890870147497
659,0.06188200078597582
661,26.48079819116671
690,126.86597638497834
716,74.74627845981581
843,1692.726558693339
844,1692.726558693339
907,0.0
908,0.0
971,0.0
972,0.0
1195,0.0
1197,0.0
2,3, 1,29, 0,16, 0.00,60.00,Wednesday
7,-3.9
718,19.700879221070778
719,0.6481192116792548
720,15.046972657122694
619,3375.672021904152
633,1130.535724587338
659,0.05661204494191037
661,41.25793079863842
690,116.06189740042863
716,84.96469556940218
843,1379.8322020590858
844,1379.8322020590858
907,0.0
908,0.0
971,0.0
972,0.0
1195,0.0
1197,0.0
2,3, 1,29, 0,17, 0.00,60.00,Wednesday
7,-5.0
718,19.844511468866845
719,-0.4990008926792502
720,15.049235031327372
619,1817.351757570676
633,648.9399796031304
659,0.03274205632675887
661,108.1901779638868
690,67.12527502433659
716,0.0
843,1186.5647274602616
844,1186.5647274602616
907,0.0
908,0.0
971,0.0
972,0.0
1195,0.0
1197,0.0
2,3, 1,29, 0,18, 0.00,60.00,Wednesday
7,-5.6
718,19.799941525056305
719,-1.6268805087619924
720,15.089305256397305
619,2743.1092399206386
633,968.772155380915
659,0.04899975609397791
661,62.60304356252422
690,100.45548251178829
716,0.0
843,1770.6609198220885
844,1770.6609198220885
907,0.0
908,0.0
971,0.0
972,0.0
1195,0.0
1197,0.0
2,3, 1,29, 0,19, 0.00,60.00,Wednesday
7,-6.1
718,19.8739138790827
719,-2.4548091064074224
720,15.08527847386985
619,2595.993536840698
633,928.2342824157527
659,0.04718715547575779
661,67.68563637589415
690,96.73935444995365
716,0.0
843,1627.688774199648
844,1627.688774199648
907,0.0
908,0.0
971,0.0
972,0.0
1195,0.0
1197,0.0
2,3, 1,29, 0,20, 0.00,60.00,Wednesday
7,-6.1
718,19.750858648479422
719,-2.3551069026743203
720,15.091775499563987
619,4086.748181224002
633,1404.7205644635546
659,0.07132582462447175
661,0.0
690,146.22875902831782
716,85.44000000000004
843,1651.1823461094154
844,1651.1823461094154
907,0.0
908,0.0
971,0.0
972,0.0
1195,172.30726367834495
1197,172.30726367834495
2,3, 1,29, 0,21, 0.00,60.00,Wednesday
7,-6.7
718,19.716359847505988
719,-3.4263009910698217
720,15.034545926729368
619,4017.960166473077
633,1394.173279557787
659,0.07132582462447175
661,0.0
690,146.22875902831782
716,85.44000000000004
843,2856.9124528324155
844,2856.9124528324155
907,0.0
908,0.0
971,0.0
972,0.0
1195,1646.0214300326543
1197,1646.0214300326543
2,3, 1,29, 0,22, 0.00,60.00,Wednesday
7,-7.2
718,19.713858317155605
719,-3.331044330605066
720,14.974297688979146
619,3959.6728175418793
633,1387.126772496614
659,0.07132582462447175
661,0.0
690,146.22875902831782
716,37.1698296738773
843,3779.653060682558
844,3779.653060682558
907,0.0
908,0.0
971,0.0
972,0.0
1195,2161.1986140635104
1197,2161.1986140635104
2,3, 1,29, 0,23, 0.00,60.00,Wednesday
7,-7.8
718,18.98770922003807
719,-3.5276942404831346
720,14.913109982172399
619,3889.3535670460615
633,1379.8299149774077
659,0.07132582462447175
661,0.0
690,146.22875902831782
716,0.0
843,2425.3642927584824
844,2425.3642927584824
907,0.0
908,0.0
971,0.0
972,0.0
1195,141.41075859201783
1197,141.41075859201783
2,3, 1,29, 0,24, 0.00,60.00,Wednesday
7,-8.3
718,18.730091178764543
719,-4.2417122072065245
720,14.788624159742918
619,3848.0530057657675
633,1354.8241002555517
659,0.07132582462447175
661,0.0
690,146.22875902831782
716,0.0
843,3927.8541729467743
844,3927.8541729467743
907,0.0
908,0.0
971,0.0
972,0.0
1195,1933.1904904020612
1197,1933.1904904020612
2,4, 1,30, 0, 1, 0.00,60.00,Thursday
7,-8.3
718,18.645255657157303
719,-4.930171277627803
720,14.705304128979202
619,3854.061269151229
633,1348.0379209009334
659,0.07132582462447175
661,0.0
690,146.22875902831782
716,0.0
843,4309.6592360755585
844,4309.6592360755585
907,0.0
908,0.0
971,0.0
972,0.0
1195,2398.4151804329176
1197,2398.4151804329176
2,4, 1,30, 0, 2, 0.00,60.00,Thursday
7,-8.3
718,18.61466257450643
719,-4.975770472464682
720,14.607505752769207
619,3856.0948793455555
633,1345.7401739203365
659,0.07132582462447175
661,0.0
690,146.22875902831782
716,0.0
843,4682.652410316714
844,4682.652410316714
907,0.0
908,0.0
971,0.0
972,0.0
1195,2865.3917151848796
1197,2865.3917151848796
2,4, 1,30, 0, 3, 0.00,60.00,Thursday
7,-8.9
718,18.611241113693836
719,-4.99037042045635
720,14.510616674237722
619,3787.7040542826226
633,1337.8886069249786
659,0.07132582462447175
661,0.0
690,146.22875902831782
716,0.0
843,4405.667124858564
844,4405.667124858564
907,0.0
908,0.0
971,0.0
972,0.0
1195,2610.5993072420197
1197,2610.5993072420197
2,4, 1,30, 0, 4, 0.00,60.00,Thursday
7,-8.9
718,18.60283562136296
719,-4.19145195314289
720,14.410493577840466
619,3787.9170940229865
633,1337.6495503069225
659,0.07132582462447175
661,0.0
690,146.22875902831782
716,0.0
843,4854.234622396696
844,4854.234622396696
907,0.0
908,0.0
971,0.0
972,0.0
1195,3156.3111497317627
1197,3156.3111497317627
2,4, 1,30, 0, 5, 0.00,60.00,Thursday
7,-8.9
718,18.607518856084642
719,-4.542379539932255
720,14.314442295584442
619,3788.2275333379794
633,1337.3011889015522
659,0.07132582462447175
661,0.0
690,146.22875902831782
716,0.0
843,4697.932489857176
844,4697.932489857176
907,0.0
908,0.0
971,0.0
972,0.0
1195,2930.8855977572775
1197,2930.8855977572775
2,4, 1,30, 0, 6, 0.00,60.00,Thursday
7,-9.4
718,19.380446378717203
719,-3.8736721116169246
720,14.215961140705659
619,3731.1235776369203
633,1331.4743114622565
659,0.07132582462447175
661,0.0
690,146.22875902831782
716,0.0
843,5986.37231938838
844,5986.37231938838
907,0.0
908,0.0
971,0.0
972,0.0
1195,4542.968036232502
1197,4542.968036232502
2,4, 1,30, 0, 7, 0.00,60.00,Thursday
7,-9.4
718,19.570502422302958
719,-3.7279925797020788
720,14.159960766316065
619,3713.6891781295367
633,1350.8910019359878
659,0.07132582462447175
661,0.0
690,146.22875902831782
716,85.44000000000004
843,5782.906465120226
844,5782.906465120226
907,0.0
908,0.0
971,0.0
972,0.0
1195,5518.297663979101
1197,5518.297663979101
2,4, 1,30, 0, 8, 0.00,60.00,Thursday
7,-9.4
718,19.653418636164034
719,-3.6056411122823353
720,14.074366347883066
619,3709.411703592989
633,1355.6463295777803
659,0.07132582462447175
661,0.0
690,146.22875902831782
716,85.44000000000004
843,5496.459578859542
844,5496.459578859542
907,0.0
908,0.0
971,0.0
972,0.0
1195,5214.720746367173
1197,5214.720746367173
2,4, 1,30, 0, 9, 0.00,60.00,Thursday
7,-8.9
718,19.684923716818915
719,-2.896874573371467
720,14.002148954347623
619,3764.644782194055
633,1363.7251426910043
659,0.07132582462447175
661,0.0
690,146.22875902831782
716,83.47891913370907
843,4930.9801568244675
844,4930.9801568244675
907,0.0
908,0.0
971,0.0
972,0.0
1195,4340.565603598376
1197,4340.565603598376
2,4, 1,30, 0,10, 0.00,60.00,Thursday
7,-8.3
718,19.712009125722634
719,-0.8896193013382057
720,13.930834385369455
619,3833.1035325577714
633,1371.6908689406503
659,0.07132582462447175
661,0.0
690,146.22875902831782
716,0.0
843,4015.5097649329255
844,4015.5097649329255
907,0.0
908,0.0
971,0.0
972,0.0
1195,2081.778419027839
1197,2081.778419027839
2,4, 1,30, 0,11, 0.00,60.00,Thursday
7,-8.3
718,19.718734279518852
719,-0.08014953472886957
720,13.863666738653569
619,3832.5943222962364
633,1372.2648752009206
659,0.07132582462447175
661,0.0
690,146.22875902831782
716,0.0
843,4043.8603572558623
844,4043.8603572558623
907,0.0
908,0.0
971,0.0
972,0.0
1195,2023.798778690796
1197,2023.798778690796
2,4, 1,30, 0,12, 0.00,60.00,Thursday
7,-7.8
718,19.71891770682381
719,1.2428422947960165
720,13.819801533368583
619,3890.6401096448326
633,1378.37086594011
659,0.07132582462447175
661,0.0
690,146.22875902831782
716,0.0