Program Version,EnergyPlus, Version 22.2.0-c249759bad, YMD=2023.09.01 18:00
1,5,Environment Title[],Latitude[deg],Longitude[deg],Time Zone[],Elevation[m]
2,8,Day of Simulation[],Month[],Day of Month[],DST Indicator[1=yes 0=no],Hour[],StartMinute[],EndMinute[],DayType
3,5,Cumulative Day of Simulation[],Month[],Day of Month[],DST Indicator[1=yes 0=no],DayType  ! When Daily Report Variables Requested
4,2,Cumulative Days of Simulation[],Month[]  ! When Monthly Report Variables Requested
5,1,Cumulative Days of Simulation[] ! When Run Period Report Variables Requested
6,1,Calendar Year of Simulation[] ! When Annual Report Variables Requested
581,11,LIVING,AFN Zone Infiltration Air Change Rate [ach] !RunPeriod [Value,Min,Month,Day,Hour,Minute,Max,Month,Day,Hour,Minute]
582,11,ATTIC,AFN Zone Infiltration Air Change Rate [ach] !RunPeriod [Value,Min,Month,Day,Hour,Minute,Max,Month,Day,Hour,Minute]
583,11,CRAWLSPACE,AFN Zone Infiltration Air Change Rate [ach] !RunPeriod [Value,Min,Month,Day,Hour,Minute,Max,Month,Day,Hour,Minute]
1038,11,Facility,Facility Heating Setpoint Not Met Time [hr] !RunPeriod [Value,Min,Month,Day,Hour,Minute,Max,Month,Day,Hour,Minute]
1039,11,Facility,Facility Cooling Setpoint Not Met Time [hr] !RunPeriod [Value,Min,Month,Day,Hour,Minute,Max,Month,Day,Hour,Minute]
1115,11,DX_HEATING_COIL,Heating Coil Heating Energy [J] !RunPeriod [Value,Min,Month,Day,Hour,Minute,Max,Month,Day,Hour,Minute]
1128,11,DX_HEATING_COIL,Heating Coil Electricity Energy [J] !RunPeriod [Value,Min,Month,Day,Hour,Minute,Max,Month,Day,Hour,Minute]
1153,11,DX_HEATING_COIL,Heating Coil Defrost Electricity Energy [J] !RunPeriod [Value,Min,Month,Day,Hour,Minute,Max,Month,Day,Hour,Minute]
1154,11,DX_HEATING_COIL,Heating Coil Crankcase Heater Electricity Energy [J] !RunPeriod [Value,Min,Month,Day,Hour,Minute,Max,Month,Day,Hour,Minute]
1155,11,HEATING_RESISTANCE_BACKUP,Heating Coil Heating Energy [J] !RunPeriod [Value,Min,Month,Day,Hour,Minute,Max,Month,Day,Hour,Minute]
1156,11,HEATING_RESISTANCE_BACKUP,Heating Coil Electricity Energy [J] !RunPeriod [Value,Min,Month,Day,Hour,Minute,Max,Month,Day,Hour,Minute]
1292,11,WATER HEATER,Water Heater Heat Loss Energy [J] !RunPeriod [Value,Min,Month,Day,Hour,Minute,Max,Month,Day,Hour,Minute]
1306,11,WATER HEATER,Water Heater Heating Energy [J] !RunPeriod [Value,Min,Month,Day,Hour,Minute,Max,Month,Day,Hour,Minute]
1307,11,WATER HEATER,Water Heater Unmet Demand Heat Transfer Energy [J] !RunPeriod [Value,Min,Month,Day,Hour,Minute,Max,Month,Day,Hour,Minute]
1308,11,WATER HEATER,Water Heater Electricity Energy [J] !RunPeriod [Value,Min,Month,Day,Hour,Minute,Max,Month,Day,Hour,Minute]
13,11,Electricity:Facility [J] !RunPeriod [Value,Min,Month,Day,Hour,Minute,Max,Month,Day,Hour,Minute]
1134,11,Heating:Electricity [J] !RunPeriod [Value,Min,Month,Day,Hour,Minute,Max,Month,Day,Hour,Minute]
1096,11,Cooling:Electricity [J] !RunPeriod [Value,Min,Month,Day,Hour,Minute,Max,Month,Day,Hour,Minute]
562,11,Fans:Electricity [J] !RunPeriod [Value,Min,Month,Day,Hour,Minute,Max,Month,Day,Hour,Minute]
1379,11,Pumps:Electricity [J] !RunPeriod [Value,Min,Month,Day,Hour,Minute,Max,Month,Day,Hour,Minute]
1326,11,WaterSystems:Electricity [J] !RunPeriod [Value,Min,Month,Day,Hour,Minute,Max,Month,Day,Hour,Minute]
61,11,InteriorLights:Electricity [J] !RunPeriod [Value,Min,Month,Day,Hour,Minute,Max,Month,Day,Hour,Minute]
1046,11,ExteriorLights:Electricity [J] !RunPeriod [Value,Min,Month,Day,Hour,Minute,Max,Month,Day,Hour,Minute]
134,11,InteriorEquipment:Electricity [J] !RunPeriod [Value,Min,Month,Day,Hour,Minute,Max,Month,Day,Hour,Minute]
170,11,gas_dryer:InteriorEquipment:Electricity [J] !RunPeriod [Value,Min,Month,Day,Hour,Minute,Max,Month,Day,Hour,Minute]
207,11,clotheswasher:InteriorEquipment:Electricity [J] !RunPeriod [Value,Min,Month,Day,Hour,Minute,Max,Month,Day,Hour,Minute]
244,11,dishwasher:InteriorEquipment:Electricity [J] !RunPeriod [Value,Min,Month,Day,Hour,Minute,Max,Month,Day,Hour,Minute]
281,11,refrigerator:InteriorEquipment:Electricity [J] !RunPeriod [Value,Min,Month,Day,Hour,Minute,Max,Month,Day,Hour,Minute]
318,11,electric_mels:InteriorEquipment:Electricity [J] !RunPeriod [Value,Min,Month,Day,Hour,Minute,Max,Month,Day,Hour,Minute]
355,11,NaturalGas:Facility [J] !RunPeriod [Value,Min,Month,Day,Hour,Minute,Max,Month,Day,Hour,Minute]
403,11,InteriorEquipment:NaturalGas [J] !RunPeriod [Value,Min,Month,Day,Hour,Minute,Max,Month,Day,Hour,Minute]
476,11,gas_dryer:InteriorEquipment:NaturalGas [J] !RunPeriod [Value,Min,Month,Day,Hour,Minute,Max,Month,Day,Hour,Minute]
513,11,gas_mels:InteriorEquipment:NaturalGas [J] !RunPeriod [Value,Min,Month,Day,Hour,Minute,Max,Month,Day,Hour,Minute]
End of Data Dictionary
1,EXTREME_WINTER,  30.48, -81.70,  -5.00,   7.90
5,7
1038,0.0,0.0, 1,27, 1,15,0.0, 1,27, 1,15
1039,3.75,0.0, 1,27, 1,15,0.25, 1,29,13,60
581,0.23656796650756712,0.12834330690769327, 1,29,10,46,0.5449400613418004, 1,27,15,55
582,3.196637477632495,0.0, 1,27,24,52,13.79756674928393, 1,27,15,50
583,0.012657748819366028,0.0002366779178276283, 2, 2,10,20,0.07077709461818299, 1,27, 6, 5
1115,211700129.69586337,0.0, 1,27, 1, 7,3112553.345521329, 1,29, 6,60
1128,66608687.88885599,0.0, 1,27, 1, 7,982304.4911618712, 1,29, 6,60
1153,4342549.270253431,0.0, 1,27, 1, 7,83312.3248232338, 1,29, 6,45
1154,60592600.70754806,0.0, 1,27, 6, 5,180000.0, 1,27, 1,30
1155,1773707.4819319206,0.0, 1,27, 1, 7,605147.8038702995, 2, 1, 6, 5
1156,1773707.4819319206,0.0, 1,27, 1, 7,605147.8038702995, 2, 1, 6, 5
1292,-23673249.206243176,-39240.187287142544, 1,28, 4,30,-2715.522660880072, 2, 2,10,56
1306,188831741.6054498,0.0, 1,27, 1, 7,3731544.39750517, 1,30, 7,60
1307,22246464.881396156,0.0, 1,27, 1, 7,1819768.821711471, 1,27, 7,45
1308,188831741.6054498,0.0, 1,27, 1, 7,3731544.39750517, 1,30, 7,60
13,765453450.6660379,278150.8545527997, 2, 1,15,15,5842197.690819911, 2, 2,20,15
61,301924526.02383536,88139.10953165221, 1,27, 1,15,1282023.4113694867, 1,27,20,15
134,70666020.44019976,63564.01800854099, 1,27, 4,15,156554.22484006523, 2, 1,20,15
170,5241013.419656067,348.4159749238097, 1,27, 4,15,17476.39704006126, 2, 1,12,15
207,6509451.13922267,815.2532113832032, 1,27, 3,15,22990.642799023623, 2, 1,10,15
244,12749673.399825225,1521.856143006317, 1,27, 4,15,53038.631142310165, 2, 1,20,15
281,46165882.481495745,59938.60262432081, 1,27, 5,15,81951.81706819107, 1,27,19,15
318,0.0,0.0, 1,27, 1,15,0.0, 1,27, 1,15
355,197687796.27748066,18561.32405820678, 1,27, 4,15,724774.895203776, 2, 1,18,15
403,197687796.27748066,18561.32405820678, 1,27, 4,15,724774.895203776, 2, 1,18,15
476,106772067.24485716,7098.072629279515, 1,27, 4,15,356036.3026282215, 2, 1,12,15
513,0.0,0.0, 1,27, 1,15,0.0, 1,27, 1,15
562,14698825.28727104,0.0, 1,27, 1,15,106964.55237698782, 1,29, 6,15
1046,0.0,0.0, 1,27, 1,15,0.0, 1,27, 1,15
1096,56014791.96069436,0.0, 1,27, 1,15,570404.200068949, 2, 2,17,30
1134,133317545.34858938,0.0, 1,27,12,15,1650462.2697847956, 1,29, 6,15
1326,188831741.60544974,0.0, 1,27, 1,15,4050000.0, 1,28,20,30
1379,0.0,0.0, 1,27, 1,15,0.0, 1,27, 1,15
1,EXTREME_SUMMER,  30.48, -81.70,  -5.00,   7.90
5,7
1038,0.0,0.0, 8,17, 1,15,0.0, 8,17, 1,15
1039,62.75,0.0, 8,17, 1,15,0.25, 8,17,14,30
581,0.08407746169264353,0.0, 8,17, 6, 7,0.3487658470097908, 8,19,18,52
582,3.1013480133047735,0.0, 8,20,20,37,10.574339327848081, 8,17,16,52
583,0.0443528040567494,0.0005205926936317798, 8,23,23, 3,0.06908148449536382, 8,20,18,48
1115,0.0,0.0, 8,17, 1, 7,0.0, 8,17, 1, 7
1128,0.0,0.0, 8,17, 1, 7,0.0, 8,17, 1, 7
1153,0.0,0.0, 8,17, 1, 7,0.0, 8,17, 1, 7
1154,0.0,0.0, 8,17, 1, 7,0.0, 8,17, 1, 7
1155,0.0,0.0, 8,17, 1, 7,0.0, 8,17, 1, 7
1156,0.0,0.0, 8,17, 1, 7,0.0, 8,17, 1, 7
1292,-21681370.832298562,-34340.476212585534, 8,20, 7,30,-3218.0525208587096, 8,23,10,43
1306,139478550.39942577,0.0, 8,17, 1, 7,4050000.0, 8,21, 6,60
1307,7738604.2350061955,0.0, 8,17, 1, 7,1394166.8911672947, 8,23,19,52
1308,139478550.39942577,0.0, 8,17, 1, 7,4050000.0, 8,21, 6,60
13,1173571216.8278482,250217.26225105865, 8,18, 4,60,6984170.40660507, 8,23,20,15
61,301924526.02383536,88139.10953165221, 8,17, 1,15,1282023.4113694867, 8,17,20,15
134,70666020.44019976,63564.01800854099, 8,17, 4,15,156554.22484006523, 8,22,20,15
170,5241013.419656067,348.4159749238097, 8,17, 4,15,17476.39704006126, 8,22,12,15
207,6509451.13922267,815.2532113832032, 8,17, 3,15,22990.642799023623, 8,22,10,15
244,12749673.399825225,1521.856143006317, 8,17, 4,15,53038.631142310165, 8,22,20,15
281,46165882.481495745,59938.60262432081, 8,17, 5,15,81951.81706819107, 8,17,19,15
318,0.0,0.0, 8,17, 1,15,0.0, 8,17, 1,15
355,197687796.27748066,18561.32405820678, 8,17, 4,15,724774.895203776, 8,22,18,15
403,197687796.27748066,18561.32405820678, 8,17, 4,15,724774.895203776, 8,22,18,15
476,106772067.24485716,7098.072629279515, 8,17, 4,15,356036.3026282215, 8,22,12,15
513,0.0,0.0, 8,17, 1,15,0.0, 8,17, 1,15
562,60161102.869250566,9484.29791558164, 8,18, 5,60,133047.48363468613, 8,23,11,30
1046,0.0,0.0, 8,17, 1,15,0.0, 8,17, 1,15
1096,601341017.0951368,82531.15044285095, 8,18, 5,60,1501753.2187558967, 8,22,15,60
1134,0.0,0.0, 8,17, 1,15,0.0, 8,17, 1,15
1326,139478550.39942577,0.0, 8,17, 1,15,4050000.0, 8,21, 6,60
1379,0.0,0.0, 8,17, 1,15,0.0, 8,17, 1,15
1,ANNUAL,  30.48, -81.70,  -5.00,   7.90
5,365
1038,0.75,0.0, 1, 1, 1,15,0.25, 1, 9, 6,15
1039,965.75,0.0, 1, 1, 1,15,0.25, 1,10,15,15
581,0.1669330913234929,0.0, 2,10, 9,46,0.910618429736434, 7,26,14,47
582,3.352757107747483,0.0, 1, 1, 6,60,25.609621977515136, 4, 6,15,52
583,0.028912184550793984,0.0, 5,25,23, 7,0.08622713413077855, 6,14,16,46
1115,1425546203.9366896,0.0, 1, 1, 1,15,4135634.1198321055, 1, 8, 8,15
1128,441481232.7493039,0.0, 1, 1, 1,15,1330499.4403941128, 1, 8, 8,30
1153,24298948.42483641,0.0, 1, 1, 1,15,84718.34398613848, 1,29, 6,45
1154,570588590.908659,0.0, 1, 1, 1,15,180000.0, 1, 1, 2,30
1155,8135857.515911983,0.0, 1, 1, 1,15,605147.8038702995, 1, 8, 6, 5
1156,8135857.515911983,0.0, 1, 1, 1,15,605147.8038702995, 1, 8, 6, 5
1292,-1166076864.5558302,-39755.28880948017, 1,27, 5,60,-2030.7349759228478, 7,11,15,30
1306,8558774970.264158,0.0, 1, 1, 1,15,4050000.0, 1, 1, 9,60
1307,753017443.9501423,0.0, 1, 1, 1,15,8560021.98557015, 1, 8,19,60
1308,8558774970.264158,0.0, 1, 1, 1,15,4050000.0, 1, 1, 9,60
13,47820590687.87555,151703.1275401932, 1, 2, 4,15,6997340.624491993, 7,30,20,15
61,15743207428.383959,88139.10953165221, 1, 1, 1,15,1282023.4113694867, 1, 1,20,15
134,3685071073.4325233,63564.01800854099, 1, 2, 4,15,156554.22484006523, 1, 1,20,15
170,273393721.45532674,348.4159749238097, 1, 2, 4,15,17476.39704006126, 1, 1,12,15
207,339560869.0695816,815.2532113832032, 1, 2, 3,15,22990.642799023623, 1, 1,10,15
244,664895467.8009144,1521.856143006317, 1, 2, 4,15,53038.631142310165, 1, 1,20,15
281,2407221015.106824,59938.60262432081, 1, 1, 5,15,81951.81706819107, 1, 1,19,15
318,0.0,0.0, 1, 1, 1,15,0.0, 1, 1, 1,15
355,10310294493.051695,18561.32405820678, 1, 2, 4,15,724774.895203776, 1, 1,18,15
403,10310294493.051695,18561.32405820678, 1, 2, 4,15,724774.895203776, 1, 1,18,15
476,5569688622.066177,7098.072629279515, 1, 2, 4,15,356036.3026282215, 1, 1,12,15
513,0.0,0.0, 1, 1, 1,15,0.0, 1, 1, 1,15
562,1897795106.036569,0.0, 1, 1, 1,15,133047.48363468613, 5, 5,19,45
1046,0.0,0.0, 1, 1, 1,15,0.0, 1, 1, 1,15
1096,16891237480.157677,0.0, 1, 1, 1,15,1504651.8108974448, 8,22,15,60
1134,1044504629.5987104,0.0, 1, 1, 1,15,2337860.582610657, 2,18, 6,15
1326,8558774970.264165,0.0, 1, 1, 1,15,4050000.0, 1, 1, 9,60
1379,0.0,0.0, 1, 1, 1,15,0.0, 1, 1, 1,15
End of Data
 Number of Records Written=          99
