Program Version,EnergyPlus, Version 22.2.0-c249759bad, YMD=2023.09.01 18:09
1,5,Environment Title[],Latitude[deg],Longitude[deg],Time Zone[],Elevation[m]
2,8,Day of Simulation[],Month[],Day of Month[],DST Indicator[1=yes 0=no],Hour[],StartMinute[],EndMinute[],DayType
3,5,Cumulative Day of Simulation[],Month[],Day of Month[],DST Indicator[1=yes 0=no],DayType  ! When Daily Report Variables Requested
4,2,Cumulative Days of Simulation[],Month[]  ! When Monthly Report Variables Requested
5,1,Cumulative Days of Simulation[] ! When Run Period Report Variables Requested
6,1,Calendar Year of Simulation[] ! When Annual Report Variables Requested
581,11,LIVING,AFN Zone Infiltration Air Change Rate [ach] !RunPeriod [Value,Min,Month,Day,Hour,Minute,Max,Month,Day,Hour,Minute]
582,11,ATTIC,AFN Zone Infiltration Air Change Rate [ach] !RunPeriod [Value,Min,Month,Day,Hour,Minute,Max,Month,Day,Hour,Minute]
583,11,CRAWLSPACE,AFN Zone Infiltration Air Change Rate [ach] !RunPeriod [Value,Min,Month,Day,Hour,Minute,Max,Month,Day,Hour,Minute]
1038,11,Facility,Facility Heating Setpoint Not Met Time [hr] !RunPeriod [Value,Min,Month,Day,Hour,Minute,Max,Month,Day,Hour,Minute]
1039,11,Facility,Facility Cooling Setpoint Not Met Time [hr] !RunPeriod [Value,Min,Month,Day,Hour,Minute,Max,Month,Day,Hour,Minute]
1115,11,DX_HEATING_COIL,Heating Coil Heating Energy [J] !RunPeriod [Value,Min,Month,Day,Hour,Minute,Max,Month,Day,Hour,Minute]
1128,11,DX_HEATING_COIL,Heating Coil Electricity Energy [J] !RunPeriod [Value,Min,Month,Day,Hour,Minute,Max,Month,Day,Hour,Minute]
1153,11,DX_HEATING_COIL,Heating Coil Defrost Electricity Energy [J] !RunPeriod [Value,Min,Month,Day,Hour,Minute,Max,Month,Day,Hour,Minute]
1154,11,DX_HEATING_COIL,Heating Coil Crankcase Heater Electricity Energy [J] !RunPeriod [Value,Min,Month,Day,Hour,Minute,Max,Month,Day,Hour,Minute]
1155,11,HEATING_RESISTANCE_BACKUP,Heating Coil Heating Energy [J] !RunPeriod [Value,Min,Month,Day,Hour,Minute,Max,Month,Day,Hour,Minute]
1156,11,HEATING_RESISTANCE_BACKUP,Heating Coil Electricity Energy [J] !RunPeriod [Value,Min,Month,Day,Hour,Minute,Max,Month,Day,Hour,Minute]
1292,11,WATER HEATER,Water Heater Heat Loss Energy [J] !RunPeriod [Value,Min,Month,Day,Hour,Minute,Max,Month,Day,Hour,Minute]
1306,11,WATER HEATER,Water Heater Heating Energy [J] !RunPeriod [Value,Min,Month,Day,Hour,Minute,Max,Month,Day,Hour,Minute]
1307,11,WATER HEATER,Water Heater Unmet Demand Heat Transfer Energy [J] !RunPeriod [Value,Min,Month,Day,Hour,Minute,Max,Month,Day,Hour,Minute]
1308,11,WATER HEATER,Water Heater Electricity Energy [J] !RunPeriod [Value,Min,Month,Day,Hour,Minute,Max,Month,Day,Hour,Minute]
13,11,Electricity:Facility [J] !RunPeriod [Value,Min,Month,Day,Hour,Minute,Max,Month,Day,Hour,Minute]
1134,11,Heating:Electricity [J] !RunPeriod [Value,Min,Month,Day,Hour,Minute,Max,Month,Day,Hour,Minute]
1096,11,Cooling:Electricity [J] !RunPeriod [Value,Min,Month,Day,Hour,Minute,Max,Month,Day,Hour,Minute]
562,11,Fans:Electricity [J] !RunPeriod [Value,Min,Month,Day,Hour,Minute,Max,Month,Day,Hour,Minute]
1379,11,Pumps:Electricity [J] !RunPeriod [Value,Min,Month,Day,Hour,Minute,Max,Month,Day,Hour,Minute]
1326,11,WaterSystems:Electricity [J] !RunPeriod [Value,Min,Month,Day,Hour,Minute,Max,Month,Day,Hour,Minute]
61,11,InteriorLights:Electricity [J] !RunPeriod [Value,Min,Month,Day,Hour,Minute,Max,Month,Day,Hour,Minute]
1046,11,ExteriorLights:Electricity [J] !RunPeriod [Value,Min,Month,Day,Hour,Minute,Max,Month,Day,Hour,Minute]
134,11,InteriorEquipment:Electricity [J] !RunPeriod [Value,Min,Month,Day,Hour,Minute,Max,Month,Day,Hour,Minute]
170,11,gas_dryer:InteriorEquipment:Electricity [J] !RunPeriod [Value,Min,Month,Day,Hour,Minute,Max,Month,Day,Hour,Minute]
207,11,clotheswasher:InteriorEquipment:Electricity [J] !RunPeriod [Value,Min,Month,Day,Hour,Minute,Max,Month,Day,Hour,Minute]
244,11,dishwasher:InteriorEquipment:Electricity [J] !RunPeriod [Value,Min,Month,Day,Hour,Minute,Max,Month,Day,Hour,Minute]
281,11,refrigerator:InteriorEquipment:Electricity [J] !RunPeriod [Value,Min,Month,Day,Hour,Minute,Max,Month,Day,Hour,Minute]
318,11,electric_mels:InteriorEquipment:Electricity [J] !RunPeriod [Value,Min,Month,Day,Hour,Minute,Max,Month,Day,Hour,Minute]
355,11,NaturalGas:Facility [J] !RunPeriod [Value,Min,Month,Day,Hour,Minute,Max,Month,Day,Hour,Minute]
403,11,InteriorEquipment:NaturalGas [J] !RunPeriod [Value,Min,Month,Day,Hour,Minute,Max,Month,Day,Hour,Minute]
476,11,gas_dryer:InteriorEquipment:NaturalGas [J] !RunPeriod [Value,Min,Month,Day,Hour,Minute,Max,Month,Day,Hour,Minute]
513,11,gas_mels:InteriorEquipment:NaturalGas [J] !RunPeriod [Value,Min,Month,Day,Hour,Minute,Max,Month,Day,Hour,Minute]
End of Data Dictionary
1,EXTREME_WINTER,  32.32, -90.08,  -6.00,  91.10
5,7
1038,0.25,0.0,12, 8, 1,15,0.25,12,10, 6,15
1039,0.25,0.0,12, 8, 1,15,0.25,12,12,14,45
581,0.22273046528331145,0.10958091405375579,12,13, 3,60,0.37894313887358555,12,10, 6,10
582,1.7960253617170734,0.0,12, 8, 1,15,5.254707388326241,12,10,13,60
583,0.013757602632600698,0.00017227582386728117,12,12,12,46,0.07494495897844605,12, 8, 6,45
1115,404323641.6125737,0.0,12, 8, 1,15,3963890.5195136718,12,12, 6,30
1128,129098648.0444382,0.0,12, 8, 1,15,1257372.919047739,12, 9, 6,45
1153,8081312.558189291,0.0,12, 8, 1,15,84553.09710411224,12,12, 6,30
1154,53537882.86537704,0.0,12, 8, 6, 5,180000.0,12, 8, 1,15
1155,5739649.295787839,0.0,12, 8, 1,15,901145.513216112,12, 8, 6, 5
1156,5739649.295787839,0.0,12, 8, 1,15,901145.513216112,12, 8, 6, 5
1292,-24131847.398975335,-39751.115819013954,12, 9, 2,15,-3415.196602554361,12, 9,10,45
1306,190993315.08686125,0.0,12, 8, 1,15,4050000.0,12,13, 9,45
1307,22948493.844454817,0.0,12, 8, 1,15,8855869.526711559,12,14,19,60
1308,190993315.08686125,0.0,12, 8, 1,15,4050000.0,12,13, 9,45
13,792305157.3029795,152071.80019841267,12,13, 4,15,5785164.041362041,12,11, 7,15
61,301924526.02383536,88139.10953165221,12, 8, 1,15,1282023.4113694867,12, 8,20,15
134,70666020.44019976,63564.01800854099,12, 8, 4,15,156554.22484006523,12,13,20,15
170,5241013.419656067,348.4159749238097,12, 8, 4,15,17476.39704006126,12,13,12,15
207,6509451.13922267,815.2532113832032,12, 8, 3,15,22990.642799023623,12,13,10,15
244,12749673.399825225,1521.856143006317,12, 8, 4,15,53038.631142310165,12,13,20,15
281,46165882.481495745,59938.60262432081,12, 8, 5,15,81951.81706819107,12, 8,19,15
318,0.0,0.0,12, 8, 1,15,0.0,12, 8, 1,15
355,197687796.27748066,18561.32405820678,12, 8, 4,15,724774.895203776,12,13,18,15
403,197687796.27748066,18561.32405820678,12, 8, 4,15,724774.895203776,12,13,18,15
476,106772067.24485716,7098.072629279515,12, 8, 4,15,356036.3026282215,12,13,12,15
513,0.0,0.0,12, 8, 1,15,0.0,12, 8, 1,15
562,16278722.427731553,0.0,12, 8, 1,15,139255.78243251468,12, 8, 6,45
1046,0.0,0.0,12, 8, 1,15,0.0,12, 8, 1,15
1096,15985080.56056126,0.0,12, 8, 1,15,388008.4135928212,12,14,17,15
1134,196457492.76379225,0.0,12, 8,14,60,2454612.631344146,12,12, 6,15
1326,190993315.08686122,0.0,12, 8, 1,15,4050000.0,12, 9,20,30
1379,0.0,0.0,12, 8, 1,15,0.0,12, 8, 1,15
1,EXTREME_SUMMER,  32.32, -90.08,  -6.00,  91.10
5,7
1038,0.0,0.0, 6,29, 1,15,0.0, 6,29, 1,15
1039,50.5,0.0, 6,29, 1,15,0.25, 6,29,15,30
581,0.07427775748825256,0.0, 6,29, 6, 7,0.5095916331263618, 6,30,18,48
582,2.1982893991184826,0.0, 7, 3,20,47,10.277184907881844, 6,30,18,48
583,0.0433423662493097,0.0, 7, 1,23, 3,0.07385705351774487, 7, 5,17,46
1115,0.0,0.0, 6,29, 1, 7,0.0, 6,29, 1, 7
1128,0.0,0.0, 6,29, 1, 7,0.0, 6,29, 1, 7
1153,0.0,0.0, 6,29, 1, 7,0.0, 6,29, 1, 7
1154,0.0,0.0, 6,29, 1, 7,0.0, 6,29, 1, 7
1155,0.0,0.0, 6,29, 1, 7,0.0, 6,29, 1, 7
1156,0.0,0.0, 6,29, 1, 7,0.0, 6,29, 1, 7
1292,-21714646.230203196,-34315.15223194986, 6,29,14,45,-2688.2548371479447, 7, 5,17,46
1306,142919973.33760568,0.0, 6,29, 1, 7,3484217.298285675, 6,29,14,30
1307,8641531.367002772,0.0, 6,29, 1, 7,1443060.9732691492, 7, 5,19,52
1308,142919973.33760568,0.0, 6,29, 1, 7,3484217.298285675, 6,29,14,30
13,1150939540.2883542,191185.64629274182, 6,29, 4,60,6919609.495797496, 7, 5,20,15
61,301924526.02383536,88139.10953165221, 6,29, 1,15,1282023.4113694867, 6,29,20,15
134,70666020.44019976,63564.01800854099, 6,29, 4,15,156554.22484006523, 7, 4,20,15
170,5241013.419656067,348.4159749238097, 6,29, 4,15,17476.39704006126, 7, 4,12,15
207,6509451.13922267,815.2532113832032, 6,29, 3,15,22990.642799023623, 7, 4,10,15
244,12749673.399825225,1521.856143006317, 6,29, 4,15,53038.631142310165, 7, 4,20,15
281,46165882.481495745,59938.60262432081, 6,29, 5,15,81951.81706819107, 6,29,19,15
318,0.0,0.0, 6,29, 1,15,0.0, 6,29, 1,15
355,197687796.27748066,18561.32405820678, 6,29, 4,15,724774.895203776, 7, 4,18,15
403,197687796.27748066,18561.32405820678, 6,29, 4,15,724774.895203776, 7, 4,18,15
476,106772067.24485716,7098.072629279515, 6,29, 4,15,356036.3026282215, 7, 4,12,15
513,0.0,0.0, 6,29, 1,15,0.0, 6,29, 1,15
562,58389036.714730635,0.0, 6,29, 6,30,139255.7824325147, 6,29,18,15
1046,0.0,0.0, 6,29, 1,15,0.0, 6,29, 1,15
1096,577039983.7719817,0.0, 6,29, 6,30,1571063.1102974755, 7, 5,16,60
1134,0.0,0.0, 6,29, 1,15,0.0, 6,29, 1,15
1326,142919973.33760566,0.0, 6,29, 1,15,4050000.0, 7, 4, 9,60
1379,0.0,0.0, 6,29, 1,15,0.0, 6,29, 1,15
1,ANNUAL,  32.32, -90.08,  -6.00,  91.10
5,365
1038,2.75,0.0, 1, 1, 1,15,0.25, 1, 4, 6,15
1039,894.25,0.0, 1, 1, 1,15,0.25, 1,18,16,30
581,0.171102870783299,0.0, 4, 1, 2,22,0.9099545599090983, 8, 9,14,48
582,2.751931229122379,0.0, 1, 2, 8,60,24.669933247198053, 8, 9,14,46
583,0.028056691521590554,0.0, 5,10,23, 3,0.08475292367020322, 9, 1,16,50
1115,4604358484.667909,0.0, 1, 1,16,15,4393039.41825824, 1,23, 5,60
1128,1409168844.697837,0.0, 1, 1,16,15,1350245.5801278243, 2,27, 6,45
1153,70679433.07853822,0.0, 1, 1, 1,15,85162.22626687546,12,29, 6,45
1154,1000714617.2843707,0.0, 1, 1, 6, 5,180000.0, 1, 1,16,15
1155,64426481.917945355,0.0, 1, 1, 1,15,1538138.7488050163, 1,24, 6,45
1156,64426481.917945355,0.0, 1, 1, 1,15,1538138.7488050163, 1,24, 6,45
1292,-1181604638.4322746,-39783.35042811366, 2,27, 2,30,-2157.822856175337, 7,20,14,31
1306,8924668734.043036,0.0, 1, 1, 1,15,4050000.0, 1, 1, 9,60
1307,874020191.2121145,0.0, 1, 1, 1,15,9540134.869798671, 1,22,19,60
1308,8924668734.043036,0.0, 1, 1, 1,15,4050000.0, 1, 1, 9,60
13,47881251679.05585,151703.1275401932, 1, 9, 4,15,7084400.356695523, 7,30,20,15
61,15743207428.383959,88139.10953165221, 1, 1, 1,15,1282023.4113694867, 1, 1,20,15
134,3685071073.4325233,63564.01800854099, 1, 2, 4,15,156554.22484006523, 1, 1,20,15
170,273393721.45532674,348.4159749238097, 1, 2, 4,15,17476.39704006126, 1, 1,12,15
207,339560869.0695816,815.2532113832032, 1, 2, 3,15,22990.642799023623, 1, 1,10,15
244,664895467.8009144,1521.856143006317, 1, 2, 4,15,53038.631142310165, 1, 1,20,15
281,2407221015.106824,59938.60262432081, 1, 1, 5,15,81951.81706819107, 1, 1,19,15
318,0.0,0.0, 1, 1, 1,15,0.0, 1, 1, 1,15
355,10310294493.051695,18561.32405820678, 1, 2, 4,15,724774.895203776, 1, 1,18,15
403,10310294493.051695,18561.32405820678, 1, 2, 4,15,724774.895203776, 1, 1,18,15
476,5569688622.066177,7098.072629279515, 1, 2, 4,15,356036.3026282215, 1, 1,12,15
513,0.0,0.0, 1, 1, 1,15,0.0, 1, 1, 1,15
562,1831432061.6841042,0.0, 1, 1,16,15,139255.78243251474, 7,20,14,45
1046,0.0,0.0, 1, 1, 1,15,0.0, 1, 1, 1,15
1096,15151883004.531704,0.0, 1, 1, 1,15,1573593.3846911653, 7, 5,16,60
1134,2544989376.978695,0.0, 1, 3,13,30,3559333.466674301, 1,24, 6,15
1326,8924668734.043041,0.0, 1, 1, 1,15,4050000.0000000014, 3,12, 9,60
1379,0.0,0.0, 1, 1, 1,15,0.0, 1, 1, 1,15
End of Data
 Number of Records Written=          99
