Program Version,EnergyPlus, Version 22.2.0-c249759bad, YMD=2023.07.07 15:18
1,5,Environment Title[],Latitude[deg],Longitude[deg],Time Zone[],Elevation[m]
2,8,Day of Simulation[],Month[],Day of Month[],DST Indicator[1=yes 0=no],Hour[],StartMinute[],EndMinute[],DayType
3,5,Cumulative Day of Simulation[],Month[],Day of Month[],DST Indicator[1=yes 0=no],DayType  ! When Daily Report Variables Requested
4,2,Cumulative Days of Simulation[],Month[]  ! When Monthly Report Variables Requested
5,1,Cumulative Days of Simulation[] ! When Run Period Report Variables Requested
6,1,Calendar Year of Simulation[] ! When Annual Report Variables Requested
581,11,LIVING,AFN Zone Infiltration Air Change Rate [ach] !RunPeriod [Value,Min,Month,Day,Hour,Minute,Max,Month,Day,Hour,Minute]
582,11,ATTIC,AFN Zone Infiltration Air Change Rate [ach] !RunPeriod [Value,Min,Month,Day,Hour,Minute,Max,Month,Day,Hour,Minute]
583,11,CRAWLSPACE,AFN Zone Infiltration Air Change Rate [ach] !RunPeriod [Value,Min,Month,Day,Hour,Minute,Max,Month,Day,Hour,Minute]
1038,11,Facility,Facility Heating Setpoint Not Met Time [hr] !RunPeriod [Value,Min,Month,Day,Hour,Minute,Max,Month,Day,Hour,Minute]
1039,11,Facility,Facility Cooling Setpoint Not Met Time [hr] !RunPeriod [Value,Min,Month,Day,Hour,Minute,Max,Month,Day,Hour,Minute]
1115,11,DX_HEATING_COIL,Heating Coil Heating Energy [J] !RunPeriod [Value,Min,Month,Day,Hour,Minute,Max,Month,Day,Hour,Minute]
1128,11,DX_HEATING_COIL,Heating Coil Electricity Energy [J] !RunPeriod [Value,Min,Month,Day,Hour,Minute,Max,Month,Day,Hour,Minute]
1153,11,DX_HEATING_COIL,Heating Coil Defrost Electricity Energy [J] !RunPeriod [Value,Min,Month,Day,Hour,Minute,Max,Month,Day,Hour,Minute]
1154,11,DX_HEATING_COIL,Heating Coil Crankcase Heater Electricity Energy [J] !RunPeriod [Value,Min,Month,Day,Hour,Minute,Max,Month,Day,Hour,Minute]
1156,11,HEATING_RESISTANCE_BACKUP,Heating Coil Electricity Energy [J] !RunPeriod [Value,Min,Month,Day,Hour,Minute,Max,Month,Day,Hour,Minute]
13,11,Electricity:Facility [J] !RunPeriod [Value,Min,Month,Day,Hour,Minute,Max,Month,Day,Hour,Minute]
1134,11,Heating:Electricity [J] !RunPeriod [Value,Min,Month,Day,Hour,Minute,Max,Month,Day,Hour,Minute]
1096,11,Cooling:Electricity [J] !RunPeriod [Value,Min,Month,Day,Hour,Minute,Max,Month,Day,Hour,Minute]
562,11,Fans:Electricity [J] !RunPeriod [Value,Min,Month,Day,Hour,Minute,Max,Month,Day,Hour,Minute]
1388,11,Pumps:Electricity [J] !RunPeriod [Value,Min,Month,Day,Hour,Minute,Max,Month,Day,Hour,Minute]
1360,11,WaterSystems:Electricity [J] !RunPeriod [Value,Min,Month,Day,Hour,Minute,Max,Month,Day,Hour,Minute]
61,11,InteriorLights:Electricity [J] !RunPeriod [Value,Min,Month,Day,Hour,Minute,Max,Month,Day,Hour,Minute]
1046,11,ExteriorLights:Electricity [J] !RunPeriod [Value,Min,Month,Day,Hour,Minute,Max,Month,Day,Hour,Minute]
134,11,InteriorEquipment:Electricity [J] !RunPeriod [Value,Min,Month,Day,Hour,Minute,Max,Month,Day,Hour,Minute]
170,11,gas_dryer:InteriorEquipment:Electricity [J] !RunPeriod [Value,Min,Month,Day,Hour,Minute,Max,Month,Day,Hour,Minute]
207,11,clotheswasher:InteriorEquipment:Electricity [J] !RunPeriod [Value,Min,Month,Day,Hour,Minute,Max,Month,Day,Hour,Minute]
244,11,dishwasher:InteriorEquipment:Electricity [J] !RunPeriod [Value,Min,Month,Day,Hour,Minute,Max,Month,Day,Hour,Minute]
281,11,refrigerator:InteriorEquipment:Electricity [J] !RunPeriod [Value,Min,Month,Day,Hour,Minute,Max,Month,Day,Hour,Minute]
318,11,electric_mels:InteriorEquipment:Electricity [J] !RunPeriod [Value,Min,Month,Day,Hour,Minute,Max,Month,Day,Hour,Minute]
355,11,NaturalGas:Facility [J] !RunPeriod [Value,Min,Month,Day,Hour,Minute,Max,Month,Day,Hour,Minute]
1323,11,WaterSystems:NaturalGas [J] !RunPeriod [Value,Min,Month,Day,Hour,Minute,Max,Month,Day,Hour,Minute]
403,11,InteriorEquipment:NaturalGas [J] !RunPeriod [Value,Min,Month,Day,Hour,Minute,Max,Month,Day,Hour,Minute]
476,11,gas_dryer:InteriorEquipment:NaturalGas [J] !RunPeriod [Value,Min,Month,Day,Hour,Minute,Max,Month,Day,Hour,Minute]
513,11,gas_mels:InteriorEquipment:NaturalGas [J] !RunPeriod [Value,Min,Month,Day,Hour,Minute,Max,Month,Day,Hour,Minute]
End of Data Dictionary
1,EXTREME_WINTER,  30.41, -89.07,  -6.00,  16.00
5,7
1038,0.3333333333333333,0.0, 1, 6, 1,10,0.16666666666666666, 1, 8, 6,10
1039,0.0,0.0, 1, 6, 1,10,0.0, 1, 6, 1,10
581,0.25794486138633377,0.07141446433262105, 1,12,19,55,0.6747117959335456, 1, 7,20,60
582,3.6404453894871516,0.0, 1, 6, 6, 2,12.875857310915773, 1,11,24,55
583,4.318313324099881,0.00019300101582704382, 1, 8,20,25,16.096762391668765, 1, 7,13,55
1115,491435934.54521686,0.0, 1, 6, 1,10,2973353.19546216, 1,10, 6,40
1128,149105026.12364307,0.0, 1, 6, 1,10,879015.2152457127, 1,10, 6,40
1153,2369472.0617700783,0.0, 1, 6, 1,10,36729.68050681364, 1, 6, 6,30
1154,59945945.80693414,0.0, 1, 6, 6, 2,120000.0, 1, 6, 1,10
1156,24453641.09473619,0.0, 1, 6, 1,10,1213885.1119985746, 1, 8, 6,40
13,671965552.2922832,106361.20013227512, 1,12, 4,10,3085378.292806276, 1, 8, 6,10
61,301924526.0238348,58759.40635443481, 1, 6, 1,10,854682.2742463244, 1, 6,20,10
134,70666020.44019979,42376.01200569399, 1, 6, 4,10,104369.48322671017, 1,11,20,10
170,5241013.419656074,232.27731661587313, 1, 6, 4,10,11650.931360040839, 1,11,12,10
207,6509451.13922266,543.5021409221355, 1, 6, 3,10,15327.095199349082, 1,11,10,10
244,12749673.39982522,1014.5707620042115, 1, 6, 4,10,35359.08742820678, 1,11,20,10
281,46165882.48149605,39959.06841621388, 1, 6, 5,10,54634.54471212738, 1, 6,19,10
318,0.0,0.0, 1, 6, 1,10,0.0, 1, 6, 1,10
355,736473071.7964768,12374.216038804521, 1, 6, 4,10,3829218.154066982, 1, 7,18,60
403,197687796.27748126,12374.216038804521, 1, 6, 4,10,483183.26346918393, 1,11,18,10
476,106772067.24485692,4732.048419519677, 1, 6, 4,10,237357.535085481, 1,11,12,10
513,0.0,0.0, 1, 6, 1,10,0.0, 1, 6, 1,10
562,19616642.69057585,0.0, 1, 6, 1,10,88519.35535198469, 1, 8, 4,30
1046,0.0,0.0, 1, 6, 1,10,0.0, 1, 6, 1,10
1096,38864438.05058972,0.0, 1, 6, 1,10,596204.9543352652, 1,12,15,30
1134,235874085.0870835,0.0, 1, 6,10,60,2579299.6144436384, 1, 8, 6,10
1323,538785275.5189917,0.0, 1, 6, 1,10,3375000.0000000005, 1, 9,10,30
1360,5019840.0,4980.0, 1, 6, 1,10,4980.000000000002, 1, 6,17,20
1388,0.0,0.0, 1, 6, 1,10,0.0, 1, 6, 1,10
1,EXTREME_SUMMER,  30.41, -89.07,  -6.00,  16.00
5,7
1038,0.0,0.0, 7, 6, 1,10,0.0, 7, 6, 1,10
1039,66.49999999999999,0.0, 7, 6, 1,10,0.16666666666666666, 7, 6, 6,10
581,0.06360648719747075,0.0, 7, 6, 3,40,0.27953871055716467, 7,12,15,52
582,2.4578217600617713,0.0, 7,10,19,53,8.958696361556992, 7, 9,12,51
583,3.0739150763029914,0.0, 7, 9,23, 2,9.014953096756699, 7,12,15,52
1115,0.0,0.0, 7, 6, 1,10,0.0, 7, 6, 1,10
1128,0.0,0.0, 7, 6, 1,10,0.0, 7, 6, 1,10
1153,0.0,0.0, 7, 6, 1,10,0.0, 7, 6, 1,10
1154,0.0,0.0, 7, 6, 1,10,0.0, 7, 6, 1,10
1156,0.0,0.0, 7, 6, 1,10,0.0, 7, 6, 1,10
13,1115790838.9882512,208169.21522265382, 7,12, 4,60,1961529.6609267124, 7,10,20,10
61,301924526.0238348,58759.40635443481, 7, 6, 1,10,854682.2742463244, 7, 6,20,10
134,70666020.44019979,42376.01200569399, 7, 6, 4,10,104369.48322671017, 7,11,20,10
170,5241013.419656074,232.27731661587313, 7, 6, 4,10,11650.931360040839, 7,11,12,10
207,6509451.13922266,543.5021409221355, 7, 6, 3,10,15327.095199349082, 7,11,10,10
244,12749673.39982522,1014.5707620042115, 7, 6, 4,10,35359.08742820678, 7,11,20,10
281,46165882.48149605,39959.06841621388, 7, 6, 5,10,54634.54471212738, 7, 6,19,10
318,0.0,0.0, 7, 6, 1,10,0.0, 7, 6, 1,10
355,649404854.3070858,12374.216038804521, 7, 6, 4,10,3829218.154066982, 7, 7,18,60
403,197687796.27748126,12374.216038804521, 7, 6, 4,10,483183.26346918393, 7,11,18,10
476,106772067.24485692,4732.048419519677, 7, 6, 4,10,237357.535085481, 7,11,12,10
513,0.0,0.0, 7, 6, 1,10,0.0, 7, 6, 1,10
562,65847223.577361636,9976.82333620398, 7,11,23,10,88519.35535198469, 7, 6,10,40
1046,0.0,0.0, 7, 6, 1,10,0.0, 7, 6, 1,10
1096,672333228.9468554,91658.81587012952, 7,12, 4,60,975156.0219540726, 7,10,15,60
1134,0.0,0.0, 7, 6, 1,10,0.0, 7, 6, 1,10
1323,451717058.0296031,0.0, 7, 6, 1,10,3375000.0000000005, 7, 6,16,60
1360,5019840.0,4980.0, 7, 6, 1,10,4980.000000000002, 7,12,19,30
1388,0.0,0.0, 7, 6, 1,10,0.0, 7, 6, 1,10
1,ANNUAL,  30.41, -89.07,  -6.00,  16.00
5,365
1038,2.8333333333333326,0.0, 1, 1, 1,10,0.16666666666666666, 1, 5, 6,10
1039,1273.1666666666663,0.0, 1, 1, 1,10,0.16666666666666666, 1,17,13,20
581,0.1558976303590794,0.0, 3,29, 2, 5,1.013198711194548, 8,29,14,55
582,3.2452363206962893,0.0, 1, 5,21,45,23.515290348596093, 8,29,14,52
583,3.9586476064487828,0.0, 4,28,23, 3,31.57892667256688, 8,29,14,52
1115,1979810975.6184855,0.0, 1, 1, 1, 5,2974467.7061042613, 1,10, 6,40
1128,591217053.162165,0.0, 1, 1, 1, 5,877694.1453462715, 1,10, 6,40
1153,25003926.755935896,0.0, 1, 1, 1, 5,65553.94901868555, 1,16, 6,30
1154,684498616.926869,0.0, 1, 1, 1, 5,120000.0, 1, 1, 4,10
1156,35375925.30384711,0.0, 1, 1, 1, 5,1301353.0066004598, 1, 8, 6,40
13,41472596868.127945,106115.4183601288, 1, 2, 4,10,3195648.8259722805, 1, 8, 6,10
61,15743207428.39043,58759.40635443481, 1, 1, 1,10,854682.2742463244, 1, 1,20,10
134,3685071073.433083,42376.01200569399, 1, 2, 4,10,104369.48322671017, 1, 1,20,10
170,273393721.45534325,232.27731661587313, 1, 2, 4,10,11650.931360040839, 1, 1,12,10
207,339560869.06955314,543.5021409221355, 1, 2, 3,10,15327.095199349082, 1, 1,10,10
244,664895467.8009839,1014.5707620042115, 1, 2, 4,10,35359.08742820678, 1, 1,20,10
281,2407221015.1057043,39959.06841621388, 1, 1, 5,10,54634.54471212738, 1, 1,19,10
318,0.0,0.0, 1, 1, 1,10,0.0, 1, 1, 1,10
355,35606686891.11212,12374.216038804521, 1, 2, 4,20,3829218.154066983, 5,30,18,60
403,10310294493.052883,12374.216038804521, 1, 2, 4,10,483183.26346918393, 1, 1,18,10
476,5569688622.065564,4732.048419519677, 1, 2, 4,10,237357.535085481, 1, 1,12,10
513,0.0,0.0, 1, 1, 1,10,0.0, 1, 1, 1,10
562,2019516292.8668199,0.0, 1, 1, 1,10,88519.3553519847, 7,30,13,20
1046,0.0,0.0, 1, 1, 1,10,0.0, 1, 1, 1,10
1096,18426957751.294106,0.0, 1, 1, 1,10,1058918.8111756896, 6,27,15,60
1134,1336095522.1488225,0.0, 1, 1, 1,10,2688832.151243922, 1, 8, 6,10
1323,25296392398.063305,0.0, 1, 1, 1,10,3375000.000000001, 1, 2, 8,40
1360,261748800.0,4979.999999999998, 1,29, 9,50,4980.000000000002, 1, 9,20,50
1388,0.0,0.0, 1, 1, 1,10,0.0, 1, 1, 1,10
End of Data
 Number of Records Written=          87
