Program Version,EnergyPlus, Version 22.2.0-c249759bad, YMD=2023.09.01 14:32
1,5,Environment Title[],Latitude[deg],Longitude[deg],Time Zone[],Elevation[m]
2,8,Day of Simulation[],Month[],Day of Month[],DST Indicator[1=yes 0=no],Hour[],StartMinute[],EndMinute[],DayType
3,5,Cumulative Day of Simulation[],Month[],Day of Month[],DST Indicator[1=yes 0=no],DayType  ! When Daily Report Variables Requested
4,2,Cumulative Days of Simulation[],Month[]  ! When Monthly Report Variables Requested
5,1,Cumulative Days of Simulation[] ! When Run Period Report Variables Requested
6,1,Calendar Year of Simulation[] ! When Annual Report Variables Requested
7,1,Environment,Site Outdoor Air Drybulb Temperature [C] !Hourly
545,1,LIVING,Zone Mean Air Temperature [C] !Hourly
546,1,ATTIC,Zone Mean Air Temperature [C] !Hourly
547,1,CRAWLSPACE,Zone Mean Air Temperature [C] !Hourly
548,1,FAN,Fan Electricity Rate [W] !Hourly
720,1,LIVING,Zone Predicted Sensible Load to Heating Setpoint Heat Transfer Rate [W] !Hourly
721,1,LIVING,Zone System Predicted Sensible Load to Heating Setpoint Heat Transfer Rate [W] !Hourly
784,1,ATTIC,Zone Predicted Sensible Load to Heating Setpoint Heat Transfer Rate [W] !Hourly
785,1,ATTIC,Zone System Predicted Sensible Load to Heating Setpoint Heat Transfer Rate [W] !Hourly
848,1,CRAWLSPACE,Zone Predicted Sensible Load to Heating Setpoint Heat Transfer Rate [W] !Hourly
849,1,CRAWLSPACE,Zone System Predicted Sensible Load to Heating Setpoint Heat Transfer Rate [W] !Hourly
1121,1,DX_HEATING_COIL,Heating Coil Heating Rate [W] !Hourly
1135,1,DX_HEATING_COIL,Heating Coil Electricity Rate [W] !Hourly
1161,1,DX_HEATING_COIL,Heating Coil Defrost Electricity Rate [W] !Hourly
1163,1,DX_HEATING_COIL,Heating Coil Crankcase Heater Electricity Rate [W] !Hourly
1166,1,HEATING_RESISTANCE_BACKUP,Heating Coil Heating Rate [W] !Hourly
1168,1,HEATING_RESISTANCE_BACKUP,Heating Coil Electricity Rate [W] !Hourly
End of Data Dictionary
1,EXTREME_WINTER,  29.54, -98.48,  -6.00, 240.50
2,1, 1,29, 0, 1, 0.00,60.00,Monday
7,21.7
545,24.052087595184535
546,19.28619256936915
547,19.837850199553607
548,0.0
720,-3582.814256431002
721,-3582.814256431002
784,0.0
785,0.0
848,0.0
849,0.0
1121,0.0
1135,0.0
1161,0.0
1163,0.0
1166,0.0
1168,0.0
2,1, 1,29, 0, 2, 0.00,60.00,Monday
7,21.7
545,24.17426598517279
546,20.113613673796173
547,19.627955779096226
548,0.0
720,-2890.002452293382
721,-2890.002452293382
784,0.0
785,0.0
848,0.0
849,0.0
1121,0.0
1135,0.0
1161,0.0
1163,0.0
1166,0.0
1168,0.0
2,1, 1,29, 0, 3, 0.00,60.00,Monday
7,21.7
545,24.03484197642021
546,20.856560900462927
547,19.506405540576676
548,0.0
720,-3556.1619616337484
721,-3556.1619616337484
784,0.0
785,0.0
848,0.0
849,0.0
1121,0.0
1135,0.0
1161,0.0
1163,0.0
1166,0.0
1168,0.0
2,1, 1,29, 0, 4, 0.00,60.00,Monday
7,21.7
545,23.942496453604875
546,21.176580848308777
547,19.399229176326912
548,0.0
720,-3433.122525976216
721,-3433.122525976216
784,0.0
785,0.0
848,0.0
849,0.0
1121,0.0
1135,0.0
1161,0.0
1163,0.0
1166,0.0
1168,0.0
2,1, 1,29, 0, 5, 0.00,60.00,Monday
7,21.0
545,23.8282518549354
546,21.022990433704226
547,19.315073849394636
548,0.0
720,-3490.2624683885424
721,-3490.2624683885424
784,0.0
785,0.0
848,0.0
849,0.0
1121,0.0
1135,0.0
1161,0.0
1163,0.0
1166,0.0
1168,0.0
2,1, 1,29, 0, 6, 0.00,60.00,Monday
7,21.1
545,23.352271011138214
546,21.06284376718655
547,19.269444201499244
548,16.023384117145174
720,-2703.6930518876998
721,-2703.6930518876998
784,0.0
785,0.0
848,0.0
849,0.0
1121,0.0
1135,0.0
1161,0.0
1163,0.0
1166,0.0
1168,0.0
2,1, 1,29, 0, 7, 0.00,60.00,Monday
7,21.1
545,23.411292458831724
546,20.96564944926068
547,19.20564591075053
548,14.717469915989348
720,-2587.385829162675
721,-2587.385829162675
784,0.0
785,0.0
848,0.0
849,0.0
1121,0.0
1135,0.0
1161,0.0
1163,0.0
1166,0.0
1168,0.0
2,1, 1,29, 0, 8, 0.00,60.00,Monday
7,21.1
545,23.35601769068608
546,20.94371661559262
547,19.16372850681438
548,16.93551328200009
720,-2494.2477946624203
721,-2494.2477946624203
784,0.0
785,0.0
848,0.0
849,0.0
1121,0.0
1135,0.0
1161,0.0
1163,0.0
1166,0.0
1168,0.0
2,1, 1,29, 0, 9, 0.00,60.00,Monday
7,21.1
545,23.334194127777913
546,21.018887666114722
547,19.11849866465791
548,13.644094533933988
720,-2534.8433112394705
721,-2534.8433112394705
784,0.0
785,0.0
848,0.0
849,0.0
1121,0.0
1135,0.0
1161,0.0
1163,0.0
1166,0.0
1168,0.0
2,1, 1,29, 0,10, 0.00,60.00,Monday
7,22.0
545,23.410014513950873
546,22.29076852930117
547,19.0942892785164
548,19.146814963759727
720,-2648.829446376363
721,-2648.829446376363
784,0.0
785,0.0
848,0.0
849,0.0
1121,0.0
1135,0.0
1161,0.0
1163,0.0
1166,0.0
1168,0.0
2,1, 1,29, 0,11, 0.00,60.00,Monday
7,25.0
545,23.501629978553485
546,24.80900397911071
547,19.10151638764912
548,34.92949768437902
720,-3288.773558624467
721,-3288.773558624467
784,0.0
785,0.0
848,0.0
849,0.0
1121,0.0
1135,0.0
1161,0.0
1163,0.0
1166,0.0
1168,0.0
2,1, 1,29, 0,12, 0.00,60.00,Monday
7,25.0
545,23.392515051592028
546,26.679876437774958
547,19.145408242783347
548,64.81403919639821
720,-4418.268975240679
721,-4418.268975240679
784,0.0
785,0.0
848,0.0
849,0.0
1121,0.0
1135,0.0
1161,0.0
1163,0.0
1166,0.0
1168,0.0
2,1, 1,29, 0,13, 0.00,60.00,Monday
7,26.1
545,23.400296832440176
546,29.23604529515738
547,19.19854257703758
548,87.99658933416993
720,-5636.148463313053
721,-5636.148463313053
784,0.0
785,0.0
848,0.0
849,0.0
1121,0.0
1135,0.0
1161,0.0
1163,0.0
1166,0.0
1168,0.0
2,1, 1,29, 0,14, 0.00,60.00,Monday
7,27.2
545,23.36468938637934
546,31.85023757126425
547,19.25807137553207
548,99.22031492751105
720,-6184.892249592069
721,-6184.892249592069
784,0.0
785,0.0
848,0.0
849,0.0
1121,0.0
1135,0.0
1161,0.0
1163,0.0
1166,0.0
1168,0.0
2,1, 1,29, 0,15, 0.00,60.00,Monday
7,27.2
545,23.35311906128433
546,31.819850270413944
547,19.30717961988173
548,94.99966356197407
720,-6244.222220625179
721,-6244.222220625179
784,0.0
785,0.0
848,0.0
849,0.0
1121,0.0
1135,0.0
1161,0.0
1163,0.0
1166,0.0
1168,0.0
2,1, 1,29, 0,16, 0.00,60.00,Monday
7,30.0
545,23.48380367879272
546,31.68495233697875
547,19.465116798167834
548,120.57659681725688
720,-7151.687751931484
721,-7151.687751931484
784,0.0
785,0.0
848,0.0
849,0.0
1121,0.0
1135,0.0
1161,0.0
1163,0.0
1166,0.0
1168,0.0
2,1, 1,29, 0,17, 0.00,60.00,Monday
7,27.0
545,23.3782026237508
546,29.05001106260714
547,19.575496659301063
548,137.90950327214006
720,-8307.33902728681
721,-8307.33902728681
784,0.0
785,0.0
848,0.0
849,0.0
1121,0.0
1135,0.0
1161,0.0
1163,0.0
1166,0.0
1168,0.0
2,1, 1,29, 0,18, 0.00,60.00,Monday
7,20.0
545,23.212293079066765
546,23.269778309552006
547,19.53318538635727
548,103.50379458404917
720,-7770.5323082971845
721,-7770.5323082971845
784,0.0
785,0.0
848,0.0
849,0.0
1121,0.0
1135,0.0
1161,0.0
1163,0.0
1166,0.0
1168,0.0
2,1, 1,29, 0,19, 0.00,60.00,Monday
7,17.8
545,23.35952093394065
546,21.233756561328942
547,19.54967662927002
548,66.75258553408435
720,-6486.323699614084
721,-6486.323699614084
784,0.0
785,0.0
848,0.0
849,0.0
1121,0.0
1135,0.0
1161,0.0
1163,0.0
1166,0.0
1168,0.0
2,1, 1,29, 0,20, 0.00,60.00,Monday
7,16.1
545,23.305862135803935
546,18.623406182943242
547,19.599358567708794
548,52.74117838359748
720,-5596.184385896187
721,-5596.184385896187
784,0.0
785,0.0
848,0.0
849,0.0
1121,0.0
1135,0.0
1161,0.0
1163,0.0
1166,0.0
1168,0.0
2,1, 1,29, 0,21, 0.00,60.00,Monday
7,16.1
545,23.333268793361263
546,17.349038645008427
547,19.613934836330003
548,42.8640974351616
720,-5185.622338506317
721,-5185.622338506317
784,0.0
785,0.0
848,0.0
849,0.0
1121,0.0
1135,0.0
1161,0.0
1163,0.0
1166,0.0
1168,0.0
2,1, 1,29, 0,22, 0.00,60.00,Monday
7,15.0
545,23.10453975978549
546,15.95354860973096
547,19.583262806819903
548,28.563611964107256
720,-4569.267806711074
721,-4569.267806711074
784,0.0
785,0.0
848,0.0
849,0.0
1121,0.0
1135,0.0
1161,0.0
1163,0.0
1166,0.0
1168,0.0
2,1, 1,29, 0,23, 0.00,60.00,Monday
7,13.9
545,23.933453033772068
546,14.941647374080036
547,19.52096686455182
548,0.0
720,-4851.930532448241
721,-4851.930532448241
784,0.0
785,0.0
848,0.0
849,0.0
1121,0.0
1135,0.0
1161,0.0
1163,0.0
1166,0.0
1168,0.0
2,1, 1,29, 0,24, 0.00,60.00,Monday
7,13.9
545,23.656128073198367
546,14.362418581456755
547,19.48010879558542
548,0.0
720,-3231.7406558132498
721,-3231.7406558132498
784,0.0
785,0.0
848,0.0
849,0.0
1121,0.0
1135,0.0
1161,0.0
1163,0.0
1166,0.0
1168,0.0
2,2, 1,30, 0, 1, 0.00,60.00,Tuesday
7,11.7
545,23.032641244860194
546,12.823385717029913
547,19.43011041577179
548,0.0
720,-2938.104720338346
721,-2938.104720338346
784,0.0
785,0.0
848,0.0
849,0.0
1121,0.0
1135,0.0
1161,0.0
1163,0.0
1166,0.0
1168,0.0
2,2, 1,30, 0, 2, 0.00,60.00,Tuesday
7,12.2
545,22.540524657485225
546,12.425490238820428
547,19.37247536429966
548,0.0
720,-2841.15280889325
721,-2841.15280889325
784,0.0
785,0.0
848,0.0
849,0.0
1121,0.0
1135,0.0
1161,0.0
1163,0.0
1166,0.0
1168,0.0
2,2, 1,30, 0, 3, 0.00,60.00,Tuesday
7,12.2
545,22.09997955920601
546,12.146993804949908
547,19.30883909428225
548,0.0
720,-2509.4908836933537
721,-2509.4908836933537
784,0.0
785,0.0
848,0.0
849,0.0
1121,0.0
1135,0.0
1161,0.0
1163,0.0
1166,0.0
1168,0.0
2,2, 1,30, 0, 4, 0.00,60.00,Tuesday
7,11.1
545,21.566016875730014
546,11.223696751973007
547,19.23883195265714
548,0.0
720,-2070.3764357262717
721,-2070.3764357262717
784,0.0
785,0.0
848,0.0
849,0.0
1121,0.0
1135,0.0
1161,0.0
1163,0.0
1166,0.0
1168,0.0
2,2, 1,30, 0, 5, 0.00,60.00,Tuesday
7,10.6
545,21.122711224687194
546,10.499154246065691
547,19.163512911597138
548,0.0
720,-1782.0441441030307
721,-1782.0441441030307
784,0.0
785,0.0
848,0.0
849,0.0
1121,0.0
1135,0.0
1161,0.0
1163,0.0
1166,0.0
1168,0.0
2,2, 1,30, 0, 6, 0.00,60.00,Tuesday
7,10.6
545,20.913412066781223
546,10.197304284933287
547,19.08509354946817
548,0.0
720,-844.9861257036719
721,-844.9861257036719
784,0.0
785,0.0
848,0.0
849,0.0
1121,0.0
1135,0.0
1161,0.0
1163,0.0
1166,0.0
1168,0.0
2,2, 1,30, 0, 7, 0.00,60.00,Tuesday
7,10.0
545,20.079904504297787
546,10.005563748512234
547,19.002153857627125
548,0.0
720,-254.3388811255918
721,-254.3388811255918
784,0.0
785,0.0
848,0.0
849,0.0
1121,0.0
1135,0.0
1161,0.0
1163,0.0
1166,0.0
1168,0.0
2,2, 1,30, 0, 8, 0.00,60.00,Tuesday
7,10.0
545,21.121282793135766
546,10.426948881141492
547,18.913374720822635
548,39.50815988498734
720,91.6308586481191
721,91.6308586481191
784,0.0
785,0.0
848,0.0
849,0.0
1121,1771.9916923201276
1135,469.41064775596436
1161,0.0
1163,0.0
1166,0.0
1168,0.0
2,2, 1,30, 0, 9, 0.00,60.00,Tuesday
7,10.0
545,20.28433412967757
546,10.824079290554245
547,18.843083133569788
548,0.0
720,-407.93362310899283
721,-407.93362310899283
784,0.0
785,0.0
848,0.0
849,0.0
1121,0.0
1135,0.0
1161,0.0
1163,0.0
1166,0.0
1168,0.0
2,2, 1,30, 0,10, 0.00,60.00,Tuesday
7,13.3
545,21.26557828433082
546,13.988106005350978
547,18.77292469099857
548,0.0
720,-1460.1126910656876
721,-1460.1126910656876
784,0.0
785,0.0
848,0.0
849,0.0
1121,0.0
1135,0.0
1161,0.0
1163,0.0
1166,0.0
1168,0.0
2,2, 1,30, 0,11, 0.00,60.00,Tuesday
7,13.9
545,22.253937628927776
546,16.021205174125242
547,18.72769620296262
548,0.0
720,-2158.1355579483225
721,-2158.1355579483225
784,0.0
785,0.0
848,0.0
849,0.0
1121,0.0
1135,0.0
1161,0.0
1163,0.0
1166,0.0
1168,0.0
2,2, 1,30, 0,12, 0.00,60.00,Tuesday
7,13.9
545,22.935302240586072
546,17.50739682413262
547,18.701548664358963
548,0.0
720,-2638.8802787186705
721,-2638.8802787186705
784,0.0
785,0.0
848,0.0
849,0.0
1121,0.0
1135,0.0
1161,0.0
1163,0.0
1166,0.0
1168,0.0
2,2, 1,30, 0,13, 0.00,60.00,Tuesday
7,15.6
545,24.07019646866549
546,20.689660563228404
547,18.7038576155068
548,0.0
720,-3615.0249070997925
721,-3615.0249070997925
784,0.0
785,0.0
848,0.0
849,0.0
1121,0.0
1135,0.0
1161,0.0
1163,0.0
1166,0.0
1168,0.0
2,2, 1,30, 0,14, 0.00,60.00,Tuesday
7,15.6
545,24.851289168922218
546,22.117026922674803
547,18.728546433959735
548,0.0
720,-3954.6637634626786
721,-3954.6637634626786
784,0.0
785,0.0
848,0.0
849,0.0
1121,0.0
1135,0.0
1161,0.0
1163,0.0
1166,0.0
1168,0.0
2,2, 1,30, 0,15, 0.00,60.00,Tuesday
7,15.6
545,25.793609916829705
546,22.480453835659016
547,18.77750351335708
548,0.0
720,-4939.072765651194
721,-4939.072765651194
784,0.0
785,0.0
848,0.0
849,0.0
1121,0.0
1135,0.0
1161,0.0
1163,0.0
1166,0.0
1168,0.0
2,2, 1,30, 0,16, 0.00,60.00,Tuesday
7,15.6
545,27.246104779353658
546,23.796958512394998
547,18.847671293235088
548,0.0
720,-5981.216905965075
721,-5981.216905965075
784,0.0
785,0.0
848,0.0
849,0.0
1121,0.0
1135,0.0
1161,0.0
1163,0.0
1166,0.0
1168,0.0
2,2, 1,30, 0,17, 0.00,60.00,Tuesday
7,13.3
545,28.150066052205922
546,22.211456394971428
547,18.92940885297997
548,0.0
720,-6280.5172136247475
721,-6280.5172136247475
784,0.0
785,0.0
848,0.0
849,0.0
1121,0.0
1135,0.0
1161,0.0
1163,0.0
1166,0.0
1168,0.0
2,2, 1,30, 0,18, 0.00,60.00,Tuesday
7,13.3
545,28.819238792023246
546,19.541263598225356
547,19.02160885134769
548,0.0
720,-7181.722190360413
721,-7181.722190360413
784,0.0
785,0.0
848,0.0
849,0.0
1121,0.0
1135,0.0
1161,0.0
1163,0.0
1166,0.0
1168,0.0
2,2, 1,30, 0,19, 0.00,60.00,Tuesday
7,9.4
545,28.3246508156356
546,16.138644391358866
547,19.11283200863121
548,0.0
720,-6707.889763338104
721,-6707.889763338104
784,0.0
785,0.0
848,0.0
849,0.0
1121,0.0
1135,0.0
1161,0.0
1163,200.0
1166,0.0
1168,0.0
2,2, 1,30, 0,20, 0.00,60.00,Tuesday
7,7.8
545,27.842813172147995
546,11.908462233903643
547,19.178556855039332
548,0.0
720,-6112.1881607903615
721,-6112.1881607903615
784,0.0
785,0.0
848,0.0
849,0.0
1121,0.0
1135,0.0
1161,0.0
1163,200.0
1166,0.0
1168,0.0
2,2, 1,30, 0,21, 0.00,60.00,Tuesday
7,7.8
545,27.536980454947358
546,9.609123708734097
547,19.1981558618652
548,0.0
720,-6134.288786204488
721,-6134.288786204488
784,0.0
785,0.0
848,0.0
849,0.0
1121,0.0
1135,0.0
1161,0.0
1163,200.0
1166,0.0
1168,0.0
2,2, 1,30, 0,22, 0.00,60.00,Tuesday
7,5.0
545,26.611042665790766
546,7.358947401037069
547,19.181334331097734
548,0.0
720,-5267.8853197640565
721,-5267.8853197640565
784,0.0
785,0.0
848,0.0
849,0.0
1121,0.0
1135,0.0
1161,0.0
1163,200.0
1166,0.0
1168,0.0
2,2, 1,30, 0,23, 0.00,60.00,Tuesday
7,3.9
545,25.655150286957472
546,5.688308982445494
547,19.139943261814295
548,0.0
720,-5847.953240143377
721,-5847.953240143377
784,0.0
785,0.0
848,0.0
849,0.0
1121,0.0
1135,0.0
1161,0.0
1163,200.0
1166,0.0
1168,0.0
2,2, 1,30, 0,24, 0.00,60.00,Tuesday
7,3.9
545,24.66693776559835
546,4.534127497683374
547,19.081445946825095
548,0.0
720,-5040.638859533932
721,-5040.638859533932
784,0.0
785,0.0
848,0.0
849,0.0
1121,0.0
1135,0.0
1161,0.0
1163,200.0
1166,0.0
1168,0.0
2,3, 1,31, 0, 1, 0.00,60.00,Wednesday
7,0.6
545,23.1800861486856
546,2.73303725099264
547,19.008754543269553
548,0.0
720,-3796.703047871624
721,-3796.703047871624
784,0.0
785,0.0
848,0.0
849,0.0
1121,0.0
1135,0.0
1161,0.0
1163,200.0
1166,0.0
1168,0.0
2,3, 1,31, 0, 2, 0.00,60.00,Wednesday
7,1.1
545,22.2588590744684
546,1.8304324010971746
547,18.922167640268462
548,0.0
720,-3244.824334438934
721,-3244.824334438934
784,0.0
785,0.0
848,0.0
849,0.0
1121,0.0
1135,0.0
1161,0.0
1163,200.0
1166,0.0
1168,0.0
2,3, 1,31, 0, 3, 0.00,60.00,Wednesday
7,1.1
545,21.27455282014263
546,1.271245661506148
547,18.81829902393876
548,0.0
720,-2251.85052229292
721,-2251.85052229292
784,0.0
785,0.0
848,0.0
849,0.0
1121,0.0
1135,0.0
1161,0.0
1163,200.0
1166,0.0
1168,0.0
2,3, 1,31, 0, 4, 0.00,60.00,Wednesday
7,0.6
545,20.404124259200376
546,0.406145932374815
547,18.7067481600518
548,0.0
720,-1485.5827810224437
721,-1485.5827810224437
784,0.0
785,0.0
848,0.0
849,0.0
1121,0.0
1135,0.0
1161,0.0
1163,200.0
1166,0.0
1168,0.0
2,3, 1,31, 0, 5, 0.00,60.00,Wednesday
7,0.6
545,19.567666060286662
546,-0.05100755325400109
547,18.58585253253735
548,0.0
720,-767.1527698815335
721,-767.1527698815335
784,0.0
785,0.0
848,0.0
849,0.0
1121,0.0
1135,0.0
1161,0.0
1163,200.0
1166,0.0
1168,0.0
2,3, 1,31, 0, 6, 0.00,60.00,Wednesday
7,0.6
545,20.781344218157745
546,1.1040888135219245
547,18.384879443163406
548,85.96955484591861
720,593.8525233191704
721,593.8525233191704
784,0.0
785,0.0
848,0.0
849,0.0
1121,2613.214668759072
1135,838.3137239017394
1161,28.955211371452922
1163,100.3056882248435
1166,0.0
1168,0.0
2,3, 1,31, 0, 7, 0.00,60.00,Wednesday
7,1.7
545,20.370651359077417
546,0.4913906436252311
547,18.336009083578254
548,43.163284557177846
720,571.6237759076594
721,571.6237759076594
784,0.0
785,0.0
848,0.0
849,0.0
1121,1319.2864057121044
1135,439.2423966977944
1161,11.436390055519457
1163,150.0276918623813
1166,0.0
1168,0.0
2,3, 1,31, 0, 8, 0.00,60.00,Wednesday
7,9.4
545,20.359807157185408
546,2.5003660415598556
547,18.221500092384687
548,14.606302528280665
720,361.03084514482
721,361.03084514482
784,0.0
785,0.0
848,0.0
849,0.0
1121,634.6078030286292
1135,173.1417935699465
1161,0.0
1163,183.1377530340447
1166,0.0
1168,0.0
2,3, 1,31, 0, 9, 0.00,60.00,Wednesday
7,9.4
545,19.931082376919925
546,5.458809935335253
547,18.105131169664304
548,0.0
720,-162.85092404858733
721,-162.85092404858733
784,0.0
785,0.0
848,0.0
849,0.0
1121,0.0
1135,0.0
1161,0.0
1163,200.0
1166,0.0
1168,0.0
2,3, 1,31, 0,10, 0.00,60.00,Wednesday
7,14.4
545,20.38785447526734
546,12.297886495273428
547,18.010803520271843
548,0.0
720,-492.1337458409016
721,-492.1337458409016
784,0.0
785,0.0
848,0.0
849,0.0
1121,0.0
1135,0.0
1161,0.0
1163,0.0
1166,0.0
1168,0.0
2,3, 1,31, 0,11, 0.00,60.00,Wednesday
7,15.6
545,21.575527754189466
546,17.161613144698148
547,17.94796728628808
548,0.0
720,-1444.9714365569016
721,-1444.9714365569016
784,0.0
785,0.0
848,0.0
849,0.0
1121,0.0
1135,0.0
1161,0.0
1163,0.0
1166,0.0
1168,0.0
2,3, 1,31, 0,12, 0.00,60.00,Wednesday
7,15.6
545,22.38353514431729
546,20.990563459120853
547,17.920733792037648
548,0.0
720,-2242.5689327775162
721,-2242.5689327775162
784,0.0
785,0.0
848,0.0
849,0.0
1121,0.0
1135,0.0
1161,0.0
1163,0.0
1166,0.0
1168,0.0
2,3, 1,31, 0,13, 0.00,60.00,Wednesday
7,18.9
545,23.441077152749592
546,24.542829049803366
547,17.934142432511674
548,0.0
720,-3029.0363023740356
721,-3029.0363023740356
784,0.0
785,0.0
848,0.0
849,0.0
1121,0.0
1135,0.0
1161,0.0
1163,0.0
1166,0.0
1168,0.0
2,3, 1,31, 0,14, 0.00,60.00,Wednesday
7,18.9
545,24.61287257233758
546,28.650430814683574
547,17.979992019529398
548,0.0
720,-3908.6753015503145
721,-3908.6753015503145
784,0.0
785,0.0
848,0.0
849,0.0
1121,0.0
1135,0.0
1161,0.0
1163,0.0
1166,0.0
1168,0.0
2,3, 1,31, 0,15, 0.00,60.00,Wednesday
7,18.9
545,25.892755915269717
546,30.523586938738386
547,18.047369806407037
548,0.0
720,-4946.5770734551825
721,-4946.5770734551825
784,0.0
785,0.0
848,0.0
849,0.0
1121,0.0
1135,0.0
1161,0.0
1163,0.0
1166,0.0
1168,0.0
2,3, 1,31, 0,16, 0.00,60.00,Wednesday
7,18.3
545,27.329431866300485
546,31.902193684834646
547,18.15159828021235
548,0.0
720,-6056.946678412722
721,-6056.946678412722
784,0.0
785,0.0
848,0.0
849,0.0
1121,0.0
1135,0.0
1161,0.0
1163,0.0
1166,0.0
1168,0.0
2,3, 1,31, 0,17, 0.00,60.00,Wednesday
7,17.8
545,27.9871620455819
546,29.14361054718226
547,18.276336115031484
548,0.0
720,-6516.376110138512
721,-6516.376110138512
784,0.0
785,0.0
848,0.0
849,0.0
1121,0.0
1135,0.0
1161,0.0
1163,0.0
1166,0.0
1168,0.0
2,3, 1,31, 0,18, 0.00,60.00,Wednesday
7,17.8
545,28.91738975951785
546,26.004398302425773
547,18.412880040214922
548,0.0
720,-6111.6035016971055
721,-6111.6035016971055
784,0.0
785,0.0
848,0.0
849,0.0
1121,0.0
1135,0.0
1161,0.0
1163,0.0
1166,0.0
1168,0.0
2,3, 1,31, 0,19, 0.00,60.00,Wednesday
7,9.5
545,28.088922448337946
546,21.214610819574265
547,18.540219606899164
548,0.0
720,-5743.942402019737
721,-5743.942402019737
784,0.0
785,0.0
848,0.0
849,0.0
1121,0.0
1135,0.0
1161,0.0
1163,200.0
1166,0.0
1168,0.0
2,3, 1,31, 0,20, 0.00,60.00,Wednesday
7,8.3
545,27.85008654290679
546,16.802622511490945
547,18.646059805596906
548,0.0
720,-6365.87302015981
721,-6365.87302015981
784,0.0
785,0.0
848,0.0
849,0.0
1121,0.0
1135,0.0
1161,0.0
1163,200.0
1166,0.0
1168,0.0
2,3, 1,31, 0,21, 0.00,60.00,Wednesday
7,7.8
545,27.58879113891776
546,14.008939252412189
547,18.70939665066147
548,0.0
720,-6098.316302319463
721,-6098.316302319463
784,0.0
785,0.0
848,0.0
849,0.0
1121,0.0
1135,0.0
1161,0.0
1163,200.0
1166,0.0
1168,0.0
2,3, 1,31, 0,22, 0.00,60.00,Wednesday
7,10.1
545,27.34207764938716
546,12.353246034410198
547,18.72785056919448
548,0.0
720,-5835.8094991912985
721,-5835.8094991912985
784,0.0
785,0.0
848,0.0
849,0.0
1121,0.0
1135,0.0
1161,0.0
1163,0.0
1166,0.0
1168,0.0
2,3, 1,31, 0,23, 0.00,60.00,Wednesday
7,13.1
545,26.854445565308204
546,12.381355246283814
547,18.718896637694563
548,0.0
720,-5878.061740400264
721,-5878.061740400264
784,0.0
785,0.0
848,0.0
849,0.0
1121,0.0
1135,0.0
1161,0.0
1163,0.0
1166,0.0
1168,0.0
2,3, 1,31, 0,24, 0.00,60.00,Wednesday
7,16.0
545,26.28996903339362
546,13.751513232421765
547,18.69351408301431
548,0.0
720,-5257.553636536666
721,-5257.553636536666
784,0.0
785,0.0
848,0.0
849,0.0
1121,0.0
1135,0.0
1161,0.0
1163,0.0
1166,0.0
1168,0.0
2,4, 2, 1, 0, 1, 0.00,60.00,Thursday
7,15.6
545,25.371540291234222
546,15.173089881464767
547,18.656217771194864
548,0.0
720,-4448.819011757312
721,-4448.819011757312
784,0.0
785,0.0
848,0.0
849,0.0
1121,0.0
1135,0.0
1161,0.0
1163,0.0
1166,0.0
1168,0.0
2,4, 2, 1, 0, 2, 0.00,60.00,Thursday
7,12.2
545,24.448283799241445
546,13.635872206930593
547,18.611180118826262
548,0.0
720,-4327.78413642683
721,-4327.78413642683
784,0.0
785,0.0
848,0.0
849,0.0
1121,0.0
1135,0.0
1161,0.0
1163,0.0
1166,0.0
1168,0.0
2,4, 2, 1, 0, 3, 0.00,60.00,Thursday
7,8.9
545,23.10624384619108
546,11.220250416825893
547,18.570239986370296
548,0.0
720,-3635.497744480568
721,-3635.497744480568
784,0.0
785,0.0
848,0.0
849,0.0
1121,0.0
1135,0.0
1161,0.0
1163,200.0
1166,0.0
1168,0.0
2,4, 2, 1, 0, 4, 0.00,60.00,Thursday
7,4.8
545,21.423054340215174
546,8.477879394440984
547,18.522980419757204
548,0.0
720,-2647.2866724270352
721,-2647.2866724270352
784,0.0
785,0.0
848,0.0
849,0.0
1121,0.0
1135,0.0
1161,0.0
1163,200.0
1166,0.0
1168,0.0
2,4, 2, 1, 0, 5, 0.00,60.00,Thursday
7,3.5
545,20.34086203041714
546,6.494731939947117
547,18.465289690111263
548,0.0
720,-1800.1079372140175
721,-1800.1079372140175
784,0.0
785,0.0
848,0.0
849,0.0
1121,0.0
1135,0.0
1161,0.0
1163,200.0
1166,0.0
1168,0.0
2,4, 2, 1, 0, 6, 0.00,60.00,Thursday
7,2.3
545,20.538612962057936
546,5.466150756554879
547,18.355527667130424
548,61.63879044504294
720,434.4927296152164
721,434.4927296152164
784,0.0
785,0.0
848,0.0
849,0.0
1121,1837.0520605189909
1135,593.3555444447038
1161,39.2902435036854
1163,128.3897520582325
1166,0.0
1168,0.0
2,4, 2, 1, 0, 7, 0.00,60.00,Thursday
7,2.2
545,20.08475850421155
546,4.895781940543846
547,18.284873453474493
548,57.14098492299406
720,1043.3538141128192
721,1043.3538141128192
784,0.0
785,0.0
848,0.0
849,0.0
1121,1664.1554492878088
1135,543.3443866713126
1161,42.55953600481254
1163,133.52529605983574
1166,0.0
1168,0.0
2,4, 2, 1, 0, 8, 0.00,60.00,Thursday
7,0.6
545,19.507451873422315
546,3.5988255283765485
547,18.147457479784688
548,73.66609083790411
720,1620.4767109271797
721,1620.4767109271797
784,0.0
785,0.0
848,0.0
849,0.0
1121,2173.92590419818
1135,713.2442556586783
1161,34.21656734614003
1163,114.41779657346154
1166,0.0
1168,0.0
2,4, 2, 1, 0, 9, 0.00,60.00,Thursday
7,0.6
545,19.5966895273305
546,3.639475049725647
547,18.0142418138836
548,102.06235769547757
720,2355.24885454542
721,2355.24885454542
784,0.0
785,0.0
848,0.0
849,0.0
1121,3079.3996206360925
1135,976.7200263467561
1161,47.40524569733545
1163,81.43038020989341
1166,0.0
1168,0.0
2,4, 2, 1, 0,10, 0.00,60.00,Thursday
7,1.0
545,20.08441608837783
546,4.8757423051958275
547,17.94866056187428
548,80.93499102326375
720,1825.906950537351
721,1825.906950537351
784,0.0
785,0.0
848,0.0
849,0.0
1121,2466.856585142954
1135,788.4866381861465
1161,29.809385017479574
1163,106.13511120414398
1166,0.0
1168,0.0
2,4, 2, 1, 0,11, 0.00,60.00,Thursday
7,2.8
545,20.31847555779142
546,7.271430113794641
547,17.885482430118316
548,28.73117811213742
720,619.3604465141416
721,619.3604465141416
784,0.0
785,0.0
848,0.0
849,0.0
1121,930.9403167096431
1135,300.80296273834534
1161,0.5925230886974302
1163,166.82575182999378
1166,0.0
1168,0.0
2,4, 2, 1, 0,12, 0.00,60.00,Thursday
7,2.8
545,20.256960782349097
546,10.099069602775945
547,17.80893483668341
548,0.0
720,-386.51002846718984
721,-386.51002846718984
784,0.0
785,0.0
848,0.0
849,0.0
1121,0.0
1135,0.0
1161,0.0
1163,200.0
1166,0.0
1168,0.0
2,4, 2, 1, 0,13, 0.00,60.00,Thursday
7,3.9
545,20.31705742428168
546,11.24140406484974
547,17.759482513780686
548,0.0
720,-549.087862608747
721,-549.087862608747
784,0.0
785,0.0
848,0.0
849,0.0
1121,0.0
1135,0.0
1161,0.0
1163,200.0
1166,0.0
1168,0.0
2,4, 2, 1, 0,14, 0.00,60.00,Thursday
7,3.9
545,19.90279760515219
546,10.653418303656453
547,17.733069807910567
548,0.0
720,-179.2274773861991
721,-179.2274773861991
784,0.0
785,0.0
848,0.0
849,0.0
1121,0.0
1135,0.0
1161,0.0
1163,200.0
1166,0.0
1168,0.0
2,4, 2, 1, 0,15, 0.00,60.00,Thursday
7,3.9
545,20.204628013180745
546,10.228283238523343
547,17.72667535395508
548,0.0
720,-526.4461299040486
721,-526.4461299040486
784,0.0
785,0.0
848,0.0
849,0.0
1121,0.0
1135,0.0
1161,0.0
1163,200.0
1166,0.0
1168,0.0
2,4, 2, 1, 0,16, 0.00,60.00,Thursday
7,0.6
545,20.59487021955595
546,8.66883290632958
547,17.732150087262326
548,0.0
720,-918.5799804807029
721,-918.5799804807029
784,0.0
785,0.0
848,0.0
849,0.0
1121,0.0
1135,0.0
1161,0.0
1163,200.0
1166,0.0
1168,0.0
2,4, 2, 1, 0,17, 0.00,60.00,Thursday
7,-1.7
545,20.75036079870691
546,6.578300908210221
547,17.752696971391668
548,0.0
720,-1074.4608376923607
721,-1074.4608376923607
784,0.0
785,0.0
848,0.0
849,0.0
1121,0.0
1135,0.0
1161,0.0
1163,200.0
1166,0.0
1168,0.0
2,4, 2, 1, 0,18, 0.00,60.00,Thursday
7,-1.7
545,20.714240088152543
546,4.32417468978832
547,17.773140259520876
548,0.0
720,-1046.387953755664
721,-1046.387953755664
784,0.0
785,0.0
848,0.0
849,0.0
1121,0.0
1135,0.0
1161,0.0
1163,200.0
1166,0.0
1168,0.0
2,4, 2, 1, 0,19, 0.00,60.00,Thursday
7,-3.9
545,19.733653509949143
546,1.163148926004542
547,17.75640390906507
548,38.99046534675382
720,762.3176893245
721,762.3176893245
784,0.0
785,0.0
848,0.0
849,0.0
1121,1051.9504146870572
1135,389.04784160676314
1161,1.4716555868585481
1163,154.9456630409422
1166,0.0
1168,0.0
2,4, 2, 1, 0,20, 0.00,60.00,Thursday
7,-3.9
545,20.179330282310588
546,0.35692418712761687
547,17.70741497177419
548,69.12030881316116
720,1437.2080947028517
721,1437.2080947028517
784,0.0
785,0.0
848,0.0
849,0.0
1121,1912.6485218940188
1135,676.4496230147254
1161,2.6070764814122045
1163,120.13042416893227
1166,0.0
1168,0.0
2,4, 2, 1, 0,21, 0.00,60.00,Thursday
7,-3.9
545,19.810366719611626
546,-0.43439543059551683
547,17.669684108897197
548,63.05245170214982
720,1227.149532755433
721,1227.149532755433
784,0.0
785,0.0
848,0.0
849,0.0
1121,1733.4701096281208
1135,622.487409829254
1161,2.3782147317983893
1163,127.14176081207901
1166,0.0
1168,0.0
2,4, 2, 1, 0,22, 0.00,60.00,Thursday
7,-5.0
545,19.987296136228213
546,-1.0736456759524484
547,17.56425390022249
548,79.06170968997179
720,1519.6626345980021
721,1519.6626345980021
784,0.0
785,0.0
848,0.0
849,0.0
1121,2125.1785155128114
1135,765.4893345800034
1161,5.00865797323088
1163,108.5662432475962
1166,0.0
1168,0.0
2,4, 2, 1, 0,23, 0.00,60.00,Thursday
7,-5.6
545,18.58999405965614
546,-2.0732255496662177
547,17.469659554867636
548,73.21996708343517
720,1309.188990753466
721,1309.188990753466
784,0.0
785,0.0
848,0.0
849,0.0
1121,1917.2541857249862
1135,705.6100241147567
1161,6.643914825954277
1163,115.24236506260588
1166,0.0
1168,0.0
2,4, 2, 1, 0,24, 0.00,60.00,Thursday
7,-5.6
545,18.448794026344444
546,-2.076748845858445
547,17.27366270631887
548,114.94314792017997
720,2263.1955954602363
721,2263.1955954602363
784,0.0
785,0.0
848,0.0
849,0.0
1121,3120.905040696226
1135,1077.5250523323166
1161,10.429614758491718
1163,66.9474995698895
1166,0.0
1168,0.0
2,5, 2, 2, 0, 1, 0.00,60.00,Friday
7,-6.7
545,18.176063910352685
546,-2.5907806587266373
547,17.100723810016458
548,157.5999646024714
720,3088.6062465128553
721,3088.6062465128553
784,0.0
785,0.0
848,0.0
849,0.0
1121,4300.317601164148
1135,1467.0961899188303
1161,6.983112756081453
1163,17.79283669801024
1166,0.0
1168,0.0
2,5, 2, 2, 0, 2, 0.00,60.00,Friday
7,-6.7
545,18.348872988159993
546,-2.459340410683046
547,16.941246004587338
548,173.24265927038815
720,4326.212316142526
721,4326.212316142526
784,0.0
785,0.0
848,0.0
849,0.0
1121,4808.41384676929
1135,1608.6611473172684
1161,2.1828962772194256
1163,0.0
1166,1131.9723406354387
1168,1131.9723406354387
2,5, 2, 2, 0, 3, 0.00,60.00,Friday
7,-6.7
545,18.49804918497643
546,-2.338100767499545
547,16.814552563299387
548,173.24265927038815
720,4801.3605165324025
721,4801.3605165324025
784,0.0
785,0.0
848,0.0
849,0.0
1121,4803.879529896356
1135,1613.869794941623
1161,2.1828962772194256
1163,0.0
1166,1754.187945189322
1168,1754.187945189322
2,5, 2, 2, 0, 4, 0.00,60.00,Friday
7,-6.7
545,18.577804517844083
546,-1.9288100243628865
547,16.690595985191077
548,173.24265927038815
720,4116.473321547117
721,4116.473321547117
784,0.0
785,0.0
848,0.0
849,0.0
1121,4808.152326851188
1135,1621.1870893809455
1161,0.08479320389876387
1163,0.0
1166,974.7322336967345
1168,974.7322336967345
2,5, 2, 2, 0, 5, 0.00,60.00,Friday
7,-6.7
545,18.572943955049126
546,-2.0896508192977397
547,16.536282263896553
548,173.24265927038815
720,5232.474450429167
721,5232.474450429167
784,0.0
785,0.0
848,0.0
849,0.0
1121,4806.1453934944275
1135,1623.492573801645
1161,0.08479320389876387
1163,0.0
1166,2255.270943049596
1168,2255.270943049596
2,5, 2, 2, 0, 6, 0.00,60.00,Friday
7,-6.7
545,19.310717989940727
546,-1.8902555355308304
547,16.402955752896958
548,173.24265927038815
720,6334.224937294839
721,6334.224937294839
784,0.0
785,0.0
848,0.0
849,0.0
1121,4806.4753128977945
1135,1623.1135756110305
1161,0.08479320389876387
1163,0.0
1166,3554.6545290221275
1168,3554.6545290221275
2,5, 2, 2, 0, 7, 0.00,60.00,Friday
7,-6.7
545,19.58593736931594
546,-1.8170204526836025
547,16.31453655231814
548,173.24265927038815
720,5533.908886689098
721,5533.908886689098
784,0.0
785,0.0
848,0.0
849,0.0
1121,4786.233351509948
1135,1646.3646393908934
1161,0.08479320389876387
1163,0.0
1166,2718.028291698436
1168,2718.028291698436
2,5, 2, 2, 0, 8, 0.00,60.00,Friday
7,-6.7
545,19.673901843239108
546,-1.760510316993582
547,16.194979113107184
548,173.24265927038815