Program Version,EnergyPlus, Version 22.2.0-c249759bad, YMD=2023.09.01 20:45
1,5,Environment Title[],Latitude[deg],Longitude[deg],Time Zone[],Elevation[m]
2,8,Day of Simulation[],Month[],Day of Month[],DST Indicator[1=yes 0=no],Hour[],StartMinute[],EndMinute[],DayType
3,5,Cumulative Day of Simulation[],Month[],Day of Month[],DST Indicator[1=yes 0=no],DayType  ! When Daily Report Variables Requested
4,2,Cumulative Days of Simulation[],Month[]  ! When Monthly Report Variables Requested
5,1,Cumulative Days of Simulation[] ! When Run Period Report Variables Requested
6,1,Calendar Year of Simulation[] ! When Annual Report Variables Requested
581,11,LIVING,AFN Zone Infiltration Air Change Rate [ach] !RunPeriod [Value,Min,Month,Day,Hour,Minute,Max,Month,Day,Hour,Minute]
582,11,ATTIC,AFN Zone Infiltration Air Change Rate [ach] !RunPeriod [Value,Min,Month,Day,Hour,Minute,Max,Month,Day,Hour,Minute]
583,11,CRAWLSPACE,AFN Zone Infiltration Air Change Rate [ach] !RunPeriod [Value,Min,Month,Day,Hour,Minute,Max,Month,Day,Hour,Minute]
1038,11,Facility,Facility Heating Setpoint Not Met Time [hr] !RunPeriod [Value,Min,Month,Day,Hour,Minute,Max,Month,Day,Hour,Minute]
1039,11,Facility,Facility Cooling Setpoint Not Met Time [hr] !RunPeriod [Value,Min,Month,Day,Hour,Minute,Max,Month,Day,Hour,Minute]
1115,11,DX_HEATING_COIL,Heating Coil Heating Energy [J] !RunPeriod [Value,Min,Month,Day,Hour,Minute,Max,Month,Day,Hour,Minute]
1128,11,DX_HEATING_COIL,Heating Coil Electricity Energy [J] !RunPeriod [Value,Min,Month,Day,Hour,Minute,Max,Month,Day,Hour,Minute]
1153,11,DX_HEATING_COIL,Heating Coil Defrost Electricity Energy [J] !RunPeriod [Value,Min,Month,Day,Hour,Minute,Max,Month,Day,Hour,Minute]
1154,11,DX_HEATING_COIL,Heating Coil Crankcase Heater Electricity Energy [J] !RunPeriod [Value,Min,Month,Day,Hour,Minute,Max,Month,Day,Hour,Minute]
1155,11,HEATING_RESISTANCE_BACKUP,Heating Coil Heating Energy [J] !RunPeriod [Value,Min,Month,Day,Hour,Minute,Max,Month,Day,Hour,Minute]
1156,11,HEATING_RESISTANCE_BACKUP,Heating Coil Electricity Energy [J] !RunPeriod [Value,Min,Month,Day,Hour,Minute,Max,Month,Day,Hour,Minute]
1292,11,WATER HEATER,Water Heater Heat Loss Energy [J] !RunPeriod [Value,Min,Month,Day,Hour,Minute,Max,Month,Day,Hour,Minute]
1306,11,WATER HEATER,Water Heater Heating Energy [J] !RunPeriod [Value,Min,Month,Day,Hour,Minute,Max,Month,Day,Hour,Minute]
1307,11,WATER HEATER,Water Heater Unmet Demand Heat Transfer Energy [J] !RunPeriod [Value,Min,Month,Day,Hour,Minute,Max,Month,Day,Hour,Minute]
1308,11,WATER HEATER,Water Heater Electricity Energy [J] !RunPeriod [Value,Min,Month,Day,Hour,Minute,Max,Month,Day,Hour,Minute]
13,11,Electricity:Facility [J] !RunPeriod [Value,Min,Month,Day,Hour,Minute,Max,Month,Day,Hour,Minute]
1134,11,Heating:Electricity [J] !RunPeriod [Value,Min,Month,Day,Hour,Minute,Max,Month,Day,Hour,Minute]
1096,11,Cooling:Electricity [J] !RunPeriod [Value,Min,Month,Day,Hour,Minute,Max,Month,Day,Hour,Minute]
562,11,Fans:Electricity [J] !RunPeriod [Value,Min,Month,Day,Hour,Minute,Max,Month,Day,Hour,Minute]
1379,11,Pumps:Electricity [J] !RunPeriod [Value,Min,Month,Day,Hour,Minute,Max,Month,Day,Hour,Minute]
1326,11,WaterSystems:Electricity [J] !RunPeriod [Value,Min,Month,Day,Hour,Minute,Max,Month,Day,Hour,Minute]
61,11,InteriorLights:Electricity [J] !RunPeriod [Value,Min,Month,Day,Hour,Minute,Max,Month,Day,Hour,Minute]
1046,11,ExteriorLights:Electricity [J] !RunPeriod [Value,Min,Month,Day,Hour,Minute,Max,Month,Day,Hour,Minute]
134,11,InteriorEquipment:Electricity [J] !RunPeriod [Value,Min,Month,Day,Hour,Minute,Max,Month,Day,Hour,Minute]
170,11,gas_dryer:InteriorEquipment:Electricity [J] !RunPeriod [Value,Min,Month,Day,Hour,Minute,Max,Month,Day,Hour,Minute]
207,11,clotheswasher:InteriorEquipment:Electricity [J] !RunPeriod [Value,Min,Month,Day,Hour,Minute,Max,Month,Day,Hour,Minute]
244,11,dishwasher:InteriorEquipment:Electricity [J] !RunPeriod [Value,Min,Month,Day,Hour,Minute,Max,Month,Day,Hour,Minute]
281,11,refrigerator:InteriorEquipment:Electricity [J] !RunPeriod [Value,Min,Month,Day,Hour,Minute,Max,Month,Day,Hour,Minute]
318,11,electric_mels:InteriorEquipment:Electricity [J] !RunPeriod [Value,Min,Month,Day,Hour,Minute,Max,Month,Day,Hour,Minute]
355,11,NaturalGas:Facility [J] !RunPeriod [Value,Min,Month,Day,Hour,Minute,Max,Month,Day,Hour,Minute]
403,11,InteriorEquipment:NaturalGas [J] !RunPeriod [Value,Min,Month,Day,Hour,Minute,Max,Month,Day,Hour,Minute]
476,11,gas_dryer:InteriorEquipment:NaturalGas [J] !RunPeriod [Value,Min,Month,Day,Hour,Minute,Max,Month,Day,Hour,Minute]
513,11,gas_mels:InteriorEquipment:NaturalGas [J] !RunPeriod [Value,Min,Month,Day,Hour,Minute,Max,Month,Day,Hour,Minute]
End of Data Dictionary
1,EXTREME_WINTER,  40.65, -73.78,  -5.00,   3.40
5,7
1038,0.5,0.0, 1, 6, 1,15,0.25, 1, 8, 6,15
1039,0.0,0.0, 1, 6, 1,15,0.0, 1, 6, 1,15
581,0.4855726981797889,0.21261839152861417, 1,12,19,30,1.3164473121849973, 1, 7,19,52
582,9.280203981395843,0.3126212343574921, 1,12,17,60,26.293565058924433, 1, 7,19,52
583,0.054552749763272616,0.0025359853348255156, 1,11,23,15,0.0897818699611547, 1, 7,18,60
1115,1908727913.535993,0.0, 1, 6,23, 5,4011892.6289506643, 1, 9, 5,60
1128,643782420.141127,0.0, 1, 6,23, 5,1258653.2763798302, 1, 9, 6,45
1153,5156771.507032531,0.0, 1, 6,23, 5,64237.66633039821, 1,12,11,60
1154,24886210.51804418,0.0, 1, 6, 1, 7,180000.0, 1,10,16,15
1155,738050562.7415956,0.0, 1, 6,13, 7,6258351.729755742, 1, 7,24,60
1156,738050562.7415956,0.0, 1, 6,13, 7,6258351.729755742, 1, 7,24,60
1292,-25290457.28159961,-39756.583802100286, 1,10,24,30,-6181.697208980765, 1, 6,14,60
1306,262645737.32923555,0.0, 1, 6, 1, 7,4050000.0, 1, 6, 8,45
1307,86642131.67855978,0.0, 1, 6, 1, 7,13836949.38513569, 1, 6, 8,30
1308,262645737.32923555,0.0, 1, 6, 1, 7,4050000.0, 1, 6, 8,45
13,2111605011.9626107,483729.1208860341, 1,10,15,60,11760185.225910528, 1, 7,19,30
61,301924526.02383536,88139.10953165221, 1, 6, 1,15,1282023.4113694867, 1, 6,20,15
134,70666020.44019976,63564.01800854099, 1, 6, 4,15,156554.22484006523, 1,11,20,15
170,5241013.419656067,348.4159749238097, 1, 6, 4,15,17476.39704006126, 1,11,12,15
207,6509451.13922267,815.2532113832032, 1, 6, 3,15,22990.642799023623, 1,11,10,15
244,12749673.399825225,1521.856143006317, 1, 6, 4,15,53038.631142310165, 1,11,20,15
281,46165882.481495745,59938.60262432081, 1, 6, 5,15,81951.81706819107, 1, 6,19,15
318,0.0,0.0, 1, 6, 1,15,0.0, 1, 6, 1,15
355,197687796.27748066,18561.32405820678, 1, 6, 4,15,724774.895203776, 1,11,18,15
403,197687796.27748066,18561.32405820678, 1, 6, 4,15,724774.895203776, 1,11,18,15
476,106772067.24485716,7098.072629279515, 1, 6, 4,15,356036.3026282215, 1,11,12,15
513,0.0,0.0, 1, 6, 1,15,0.0, 1, 6, 1,15
562,64492763.261540286,0.0, 1,10,16,15,120922.18609931311, 1, 6, 1,15
1046,0.0,0.0, 1, 6, 1,15,0.0, 1, 6, 1,15
1096,0.0,0.0, 1, 6, 1,15,0.0, 1, 6, 1,15
1134,1411875964.9077976,180000.0, 1,10,16,15,7389184.756913768, 1, 7,24,60
1326,262645737.32923558,0.0, 1, 6, 1,15,4050000.0, 1, 6, 8,45
1379,0.0,0.0, 1, 6, 1,15,0.0, 1, 6, 1,15
1,EXTREME_SUMMER,  40.65, -73.78,  -5.00,   3.40
5,7
1038,0.0,0.0, 6,29, 1,15,0.0, 6,29, 1,15
1039,30.75,0.0, 6,29, 1,15,0.25, 6,29,17,15
581,0.25017545607551583,0.0, 7, 5,19,52,0.647611547278037, 7, 1,16,48
582,5.80720000786687,0.05521647828559223, 7, 5,20,22,14.125167584299197, 7, 2,18,20
583,0.039419717589165695,0.001418775354724204, 7, 2,23, 3,0.07003971155824242, 7, 1,16,48
1115,0.0,0.0, 6,29, 1,15,0.0, 6,29, 1,15
1128,0.0,0.0, 6,29, 1,15,0.0, 6,29, 1,15
1153,0.0,0.0, 6,29, 1,15,0.0, 6,29, 1,15
1154,0.0,0.0, 6,29, 1,15,0.0, 6,29, 1,15
1155,0.0,0.0, 6,29, 1,15,0.0, 6,29, 1,15
1156,0.0,0.0, 6,29, 1,15,0.0, 6,29, 1,15
1292,-21983081.567215834,-34348.57391187109, 7, 4,21,30,-3740.203307174921, 7, 4,10,59
1306,198276015.72167182,0.0, 6,29, 1,15,3293159.1963818427, 7, 5,18,60
1307,48484278.27365805,0.0, 6,29, 1,15,2537899.794849854, 6,29, 8,22
1308,198276015.72167182,0.0, 6,29, 1,15,3293159.1963818427, 7, 5,18,60
13,1129018932.9740145,151703.1275401932, 6,30, 4,60,6147817.604785917, 6,29,18,30
61,301924526.02383536,88139.10953165221, 6,29, 1,15,1282023.4113694867, 6,29,20,15
134,70666020.44019976,63564.01800854099, 6,29, 4,15,156554.22484006523, 7, 4,20,15
170,5241013.419656067,348.4159749238097, 6,29, 4,15,17476.39704006126, 7, 4,12,15
207,6509451.13922267,815.2532113832032, 6,29, 3,15,22990.642799023623, 7, 4,10,15
244,12749673.399825225,1521.856143006317, 6,29, 4,15,53038.631142310165, 7, 4,20,15
281,46165882.481495745,59938.60262432081, 6,29, 5,15,81951.81706819107, 6,29,19,15
318,0.0,0.0, 6,29, 1,15,0.0, 6,29, 1,15
355,197687796.27748066,18561.32405820678, 6,29, 4,15,724774.895203776, 7, 4,18,15
403,197687796.27748066,18561.32405820678, 6,29, 4,15,724774.895203776, 7, 4,18,15
476,106772067.24485716,7098.072629279515, 6,29, 4,15,356036.3026282215, 7, 4,12,15
513,0.0,0.0, 6,29, 1,15,0.0, 6,29, 1,15
562,51580766.86877437,0.0, 6,30, 4,60,120922.18609931313, 6,29,15,45
1046,0.0,0.0, 6,29, 1,15,0.0, 6,29, 1,15
1096,506571603.919533,0.0, 6,30, 4,60,1330859.0379702984, 7, 2,18,60
1134,0.0,0.0, 6,29, 1,15,0.0, 6,29, 1,15
1326,198276015.72167182,0.0, 6,29, 1,15,4050000.0, 6,29, 8,45
1379,0.0,0.0, 6,29, 1,15,0.0, 6,29, 1,15
1,ANNUAL,  40.65, -73.78,  -5.00,   3.40
5,365
1038,17.5,0.0, 1, 1, 1,15,0.25, 1, 2, 6,15
1039,467.0,0.0, 1, 1, 1,15,0.25, 3,21,16,45
581,0.32835576681481926,0.0, 5,30,23, 3,1.3817734419432182, 3, 2,14,60
582,6.338054969188031,0.0, 1, 3, 5,60,34.09150510528443, 2,12,15,60
583,0.026626227222207963,0.0, 5,30,23, 3,0.09517444024455152, 3, 2,14,60
1115,22604679363.806133,0.0, 1, 1,15,30,4525482.624172656, 3,12, 6,15
1128,7009566147.413689,0.0, 1, 1,15,30,1296185.2733256386, 2,22,22,15
1153,103054985.81065513,0.0, 1, 1,15,30,97201.90479519586,10,29,22,60
1154,1544697272.1323156,0.0, 1, 1, 6, 5,180000.0, 1, 1,15,30
1155,3309054828.614307,0.0, 1, 1, 1, 7,6258351.729755742, 1, 7,24,60
1156,3309054828.614307,0.0, 1, 1, 1, 7,6258351.729755742, 1, 7,24,60
1292,-1220752100.3014138,-39794.39089658896, 1,31, 8,45,-2082.9636978816534, 3, 5,10,31
1306,11981353277.469381,0.0, 1, 1, 1, 7,4050000.0, 1, 2, 8,45
1307,3456845073.18644,0.0, 1, 1, 1, 7,14288816.146363977, 2, 6, 8,30
1308,11981353277.469381,0.0, 1, 1, 1, 7,4050000.0, 1, 2, 8,45
13,53796164158.719345,151703.1275401932, 4,13, 4,15,12296503.386290833, 1,31, 7,30
61,15743207428.383959,88139.10953165221, 1, 1, 1,15,1282023.4113694867, 1, 1,20,15
134,3685071073.4325233,63564.01800854099, 1, 2, 4,15,156554.22484006523, 1, 1,20,15
170,273393721.45532674,348.4159749238097, 1, 2, 4,15,17476.39704006126, 1, 1,12,15
207,339560869.0695816,815.2532113832032, 1, 2, 3,15,22990.642799023623, 1, 1,10,15
244,664895467.8009144,1521.856143006317, 1, 2, 4,15,53038.631142310165, 1, 1,20,15
281,2407221015.106824,59938.60262432081, 1, 1, 5,15,81951.81706819107, 1, 1,19,15
318,0.0,0.0, 1, 1, 1,15,0.0, 1, 1, 1,15
355,10310294493.051695,18561.32405820678, 1, 2, 4,15,724774.895203776, 1, 1,18,15
403,10310294493.051695,18561.32405820678, 1, 2, 4,15,724774.895203776, 1, 1,18,15
476,5569688622.066177,7098.072629279515, 1, 2, 4,15,356036.3026282215, 1, 1,12,15
513,0.0,0.0, 1, 1, 1,15,0.0, 1, 1, 1,15
562,1632176257.792864,0.0, 1, 1,15,30,120922.18609931313, 5,30,14,15
1046,0.0,0.0, 1, 1, 1,15,0.0, 1, 1, 1,15
1096,8787982887.667982,0.0, 1, 1, 1,15,1457151.1822179572, 7, 8,14,60
1134,11966373233.970957,0.0, 1, 4,18,15,7432468.6375426585, 1,31, 7,15
1326,11981353277.46939,0.0, 1, 1, 1,15,4050000.0, 1, 1,10,30
1379,0.0,0.0, 1, 1, 1,15,0.0, 1, 1, 1,15
End of Data
 Number of Records Written=          99
