Program Version,EnergyPlus, Version 22.2.0-c249759bad, YMD=2023.09.01 14:30
1,5,Environment Title[],Latitude[deg],Longitude[deg],Time Zone[],Elevation[m]
2,8,Day of Simulation[],Month[],Day of Month[],DST Indicator[1=yes 0=no],Hour[],StartMinute[],EndMinute[],DayType
3,5,Cumulative Day of Simulation[],Month[],Day of Month[],DST Indicator[1=yes 0=no],DayType  ! When Daily Report Variables Requested
4,2,Cumulative Days of Simulation[],Month[]  ! When Monthly Report Variables Requested
5,1,Cumulative Days of Simulation[] ! When Run Period Report Variables Requested
6,1,Calendar Year of Simulation[] ! When Annual Report Variables Requested
7,1,Environment,Site Outdoor Air Drybulb Temperature [C] !Hourly
619,1,DX_HEATING_COIL,Heating Coil Heating Rate [W] !Hourly
633,1,DX_HEATING_COIL,Heating Coil Electricity Rate [W] !Hourly
659,1,DX_HEATING_COIL,Heating Coil Defrost Electricity Rate [W] !Hourly
661,1,DX_HEATING_COIL,Heating Coil Crankcase Heater Electricity Rate [W] !Hourly
690,1,FAN,Fan Electricity Rate [W] !Hourly
716,1,HEAT PUMP WATER HEATER FAN,Fan Electricity Rate [W] !Hourly
718,1,LIVING,Zone Mean Air Temperature [C] !Hourly
719,1,ATTIC,Zone Mean Air Temperature [C] !Hourly
720,1,CRAWLSPACE,Zone Mean Air Temperature [C] !Hourly
843,1,LIVING,Zone Predicted Sensible Load to Heating Setpoint Heat Transfer Rate [W] !Hourly
844,1,LIVING,Zone System Predicted Sensible Load to Heating Setpoint Heat Transfer Rate [W] !Hourly
907,1,ATTIC,Zone Predicted Sensible Load to Heating Setpoint Heat Transfer Rate [W] !Hourly
908,1,ATTIC,Zone System Predicted Sensible Load to Heating Setpoint Heat Transfer Rate [W] !Hourly
971,1,CRAWLSPACE,Zone Predicted Sensible Load to Heating Setpoint Heat Transfer Rate [W] !Hourly
972,1,CRAWLSPACE,Zone System Predicted Sensible Load to Heating Setpoint Heat Transfer Rate [W] !Hourly
1195,1,HEATING_RESISTANCE_BACKUP,Heating Coil Heating Rate [W] !Hourly
1197,1,HEATING_RESISTANCE_BACKUP,Heating Coil Electricity Rate [W] !Hourly
End of Data Dictionary
1,EXTREME_WINTER,  33.94, -81.12,  -5.00,  69.00
2,1, 1,20, 0, 1, 0.00,60.00,Monday
7,-3.3
718,18.82046009512905
719,3.2644721238801013
720,19.996460764115472
619,0.0
633,0.0
659,0.0
661,200.0
690,0.0
716,0.0
843,-138.43810807554655
844,-138.43810807554655
907,0.0
908,0.0
971,0.0
972,0.0
1195,0.0
1197,0.0
2,1, 1,20, 0, 2, 0.00,60.00,Monday
7,-3.3
718,18.58656100733249
719,1.0480365272102221
720,19.7479445038505
619,429.83993089912354
633,152.85200714590917
659,3.964463210453525
661,178.76563684911696
690,16.106507188755554
716,0.0
843,320.01524122523915
844,320.01524122523915
907,0.0
908,0.0
971,0.0
972,0.0
1195,0.0
1197,0.0
2,1, 1,20, 0, 3, 0.00,60.00,Monday
7,-2.8
718,18.620118888718682
719,0.19915511790573256
720,19.569825063806647
619,1186.9880633797404
633,407.4913777850314
659,13.646466348558757
661,142.78212423149185
690,43.34891076037973
716,0.0
843,858.7004963204035
844,858.7004963204035
907,0.0
908,0.0
971,0.0
972,0.0
1195,0.0
1197,0.0
2,1, 1,20, 0, 4, 0.00,60.00,Monday
7,-2.8
718,18.593203659264883
719,-1.2729989733673819
720,19.4032813158169
619,1468.5452794724533
633,500.69753565887424
659,16.766766414636926
661,129.7249534546404
690,53.24098784150602
716,0.0
843,1043.2937009563557
844,1043.2937009563557
907,0.0
908,0.0
971,0.0
972,0.0
1195,0.0
1197,0.0
2,1, 1,20, 0, 5, 0.00,60.00,Monday
7,-3.3
718,18.519199358148864
719,-1.7506660386994746
720,19.21418376238141
619,2138.54947936274
633,723.3827751166166
659,30.354165621033612
661,96.8519867148252
690,77.9713447032416
716,0.0
843,1480.0363665480018
844,1480.0363665480018
907,0.0
908,0.0
971,0.0
972,0.0
1195,0.0
1197,0.0
2,1, 1,20, 0, 6, 0.00,60.00,Monday
7,-3.3
718,19.216503167609527
719,-0.9855478724849777
720,18.99324263409576
619,3829.7246176633585
633,1236.8747879154132
659,52.03098708642537
661,23.289840517220984
690,133.5781311226313
716,0.0
843,2629.7271938327085
844,2629.7271938327085
907,0.0
908,0.0
971,0.0
972,0.0
1195,0.0
1197,0.0
2,1, 1,20, 0, 7, 0.00,60.00,Monday
7,-2.8
718,19.46138176701365
719,-0.20675528615616026
720,18.869509589001996
619,4497.03830355988
633,1429.2934955883206
659,55.81042776454262
661,0.0
690,152.5650141275108
716,85.44000000000007
843,2703.221868417526
844,2703.221868417526
907,0.0
908,0.0
971,0.0
972,0.0
1195,758.7745100864886
1197,758.7745100864886
2,1, 1,20, 0, 8, 0.00,60.00,Monday
7,-2.8
718,19.615756383100646
719,0.19822745047626497
720,18.734140780057487
619,4491.296063860662
633,1436.0887819496488
659,55.81042776454262
661,0.0
690,152.5650141275108
716,61.20161442676155
843,2678.771335461028
844,2678.771335461028
907,0.0
908,0.0
971,0.0
972,0.0
1195,429.0464978814216
1197,429.0464978814216
2,1, 1,20, 0, 9, 0.00,60.00,Monday
7,-1.7
718,19.73616693415126
719,0.21203077158374645
720,18.638829265049093
619,3787.888968836542
633,1221.4810821263793
659,31.071516776355192
661,34.9010027889894
690,125.3566457913818
716,0.0
843,2621.328315740304
844,2621.328315740304
907,0.0
908,0.0
971,0.0
972,0.0
1195,0.0
1197,0.0
2,1, 1,20, 0,10, 0.00,60.00,Monday
7,0.6
718,19.73550336181353
719,1.1845489606833743
720,18.535790981016426
619,3520.1723939436793
633,1101.6355050355646
659,0.05275591859679507
661,59.429596096663715
690,107.22995651428504
716,0.0
843,2486.3439373211204
844,2486.3439373211204
907,0.0
908,0.0
971,0.0
972,0.0
1195,0.0
1197,0.0
2,1, 1,20, 0,11, 0.00,60.00,Monday
7,1.7
718,19.791436300590796
719,3.844605192534884
720,18.432131385485008
619,2852.818567583505
633,890.0582637071195
659,0.04220631081994537
661,87.53947771103921
690,85.78727073186248
716,0.0
843,2048.122406555687
844,2048.122406555687
907,0.0
908,0.0
971,0.0
972,0.0
1195,0.0
1197,0.0
2,1, 1,20, 0,12, 0.00,60.00,Monday
7,3.3
718,19.876392913395865
719,11.797838412168433
720,18.352582054614103
619,1298.8062862169065
633,409.1068271162338
659,0.019091240317392216
661,149.13057276203858
690,38.80434037609624
716,0.0
843,962.9793293094481
844,962.9793293094481
907,0.0
908,0.0
971,0.0
972,0.0
1195,0.0
1197,0.0
2,1, 1,20, 0,13, 0.00,60.00,Monday
7,5.6
718,19.786055522319067
719,17.32352647481537
720,18.280003919102263
619,150.29096114874014
633,43.029317532114945
659,0.0
661,195.01856640385557
690,3.799962434855158
716,0.0
843,120.77181853930051
844,120.77181853930051
907,0.0
908,0.0
971,0.0
972,0.0
1195,0.0
1197,0.0
2,1, 1,20, 0,14, 0.00,60.00,Monday
7,5.6
718,19.40843071202541
719,21.545293623012487
720,18.23388628612169
619,0.0
633,0.0
659,0.0
661,200.0
690,0.0
716,73.92878960868484
843,-585.5582327540687
844,-585.5582327540687
907,0.0
908,0.0
971,0.0
972,0.0
1195,0.0
1197,0.0
2,1, 1,20, 0,15, 0.00,60.00,Monday
7,8.9
718,20.612394969429968
719,19.527117466644853
720,18.221680965079656
619,0.0
633,0.0
659,0.0
661,200.0
690,0.0
716,0.0
843,-772.5121272451725
844,-772.5121272451725
907,0.0
908,0.0
971,0.0
972,0.0
1195,0.0
1197,0.0
2,1, 1,20, 0,16, 0.00,60.00,Monday
7,8.9
718,20.741146139684226
719,16.776710432197838
720,18.23310256026298
619,0.0
633,0.0
659,0.0
661,200.0
690,0.0
716,0.0
843,-736.9217216169909
844,-736.9217216169909
907,0.0
908,0.0
971,0.0
972,0.0
1195,0.0
1197,0.0
2,1, 1,20, 0,17, 0.00,60.00,Monday
7,9.4
718,22.121675639522657
719,16.571610012455842
720,18.260850834748094
619,0.0
633,0.0
659,0.0
661,200.0
690,0.0
716,0.0
843,-1765.2181899723528
844,-1765.2181899723528
907,0.0
908,0.0
971,0.0
972,0.0
1195,0.0
1197,0.0
2,1, 1,20, 0,18, 0.00,60.00,Monday
7,8.9
718,22.48092778583315
719,14.12088954991019
720,18.294014854455206
619,0.0
633,0.0
659,0.0
661,200.0
690,0.0
716,0.0
843,-1782.512726981875
844,-1782.512726981875
907,0.0
908,0.0
971,0.0
972,0.0
1195,0.0
1197,0.0
2,1, 1,20, 0,19, 0.00,60.00,Monday
7,7.2
718,21.201647740729733
719,12.096561537454795
720,18.328500970944432
619,0.0
633,0.0
659,0.0
661,200.0
690,0.0
716,85.44000000000007
843,-1740.5589664538911
844,-1740.5589664538911
907,0.0
908,0.0
971,0.0
972,0.0
1195,0.0
1197,0.0
2,1, 1,20, 0,20, 0.00,60.00,Monday
7,7.2
718,20.90589534526857
719,10.11404245993871
720,18.352130626593805
619,0.0
633,0.0
659,0.0
661,200.0
690,0.0
716,82.23178715617614
843,-2000.7680145220056
844,-2000.7680145220056
907,0.0
908,0.0
971,0.0
972,0.0
1195,0.0
1197,0.0
2,1, 1,20, 0,21, 0.00,60.00,Monday
7,6.7
718,21.720394419637138
719,8.746383450302151
720,18.363085904893865
619,0.0
633,0.0
659,0.0
661,200.0
690,0.0
716,0.0
843,-1736.525321259227
844,-1736.525321259227
907,0.0
908,0.0
971,0.0
972,0.0
1195,0.0
1197,0.0
2,1, 1,20, 0,22, 0.00,60.00,Monday
7,6.7
718,21.612494627813284
719,7.601111039605906
720,18.35594203864112
619,0.0
633,0.0
659,0.0
661,200.0
690,0.0
716,0.0
843,-1134.138680727714
844,-1134.138680727714
907,0.0
908,0.0
971,0.0
972,0.0
1195,0.0
1197,0.0
2,1, 1,20, 0,23, 0.00,60.00,Monday
7,6.1
718,21.055114585979144
719,6.90256237793555
720,18.334854180405504
619,0.0
633,0.0
659,0.0
661,200.0
690,0.0
716,0.0
843,-1506.7043767435025
844,-1506.7043767435025
907,0.0
908,0.0
971,0.0
972,0.0
1195,0.0
1197,0.0
2,1, 1,20, 0,24, 0.00,60.00,Monday
7,6.1
718,20.5316422002005
719,6.33040173323152
720,18.306279807023536
619,0.0
633,0.0
659,0.0
661,200.0
690,0.0
716,0.0
843,-1209.9650998623292
844,-1209.9650998623292
907,0.0
908,0.0
971,0.0
972,0.0
1195,0.0
1197,0.0
2,2, 1,21, 0, 1, 0.00,60.00,Tuesday
7,5.6
718,19.81222738917581
719,5.915734601514371
720,18.26733059689196
619,0.0
633,0.0
659,0.0
661,200.0
690,0.0
716,0.0
843,-751.5935711007423
844,-751.5935711007423
907,0.0
908,0.0
971,0.0
972,0.0
1195,0.0
1197,0.0
2,2, 1,21, 0, 2, 0.00,60.00,Tuesday
7,5.6
718,19.22611808367323
719,5.034609306865485
720,18.219316106067176
619,0.0
633,0.0
659,0.0
661,200.0
690,0.0
716,0.0
843,-402.3092467391998
844,-402.3092467391998
907,0.0
908,0.0
971,0.0
972,0.0
1195,0.0
1197,0.0
2,2, 1,21, 0, 3, 0.00,60.00,Tuesday
7,1.7
718,18.644263618326253
719,3.68734125850061
720,18.15823789081443
619,276.7664240434269
633,90.84603027943301
659,5.372819880037222
661,187.41780916783551
690,9.538411649858833
716,0.0
843,189.28693321981882
844,189.28693321981882
907,0.0
908,0.0
971,0.0
972,0.0
1195,0.0
1197,0.0
2,2, 1,21, 0, 4, 0.00,60.00,Tuesday
7,0.6
718,18.483246269315448
719,2.2980281872524913
720,18.076162465082714
619,811.429477496565
633,264.4280845796951
659,16.273648058736672
661,162.5266675016965
690,28.36331708642527
716,0.0
843,606.8752393954228
844,606.8752393954228
907,0.0
908,0.0
971,0.0
972,0.0
1195,0.0
1197,0.0
2,2, 1,21, 0, 5, 0.00,60.00,Tuesday
7,2.2
718,18.742417024294458
719,2.1744811858311808
720,18.00533032634039
619,1020.3197102695422
633,320.0472177822804
659,20.509154122812426
661,154.96451526408904
690,34.14953476131903
716,0.0
843,754.1758830602485
844,754.1758830602485
907,0.0
908,0.0
971,0.0
972,0.0
1195,0.0
1197,0.0
2,2, 1,21, 0, 6, 0.00,60.00,Tuesday
7,2.8
718,19.45998148660337
719,3.235221279049686
720,17.90804132673216
619,2252.006268516747
633,682.9708006106425
659,34.6267613020895
661,106.49400901280863
690,71.03337706197459
716,0.0
843,1642.909275129894
844,1642.909275129894
907,0.0
908,0.0
971,0.0
972,0.0
1195,0.0
1197,0.0
2,2, 1,21, 0, 7, 0.00,60.00,Tuesday
7,1.7
718,19.53560237425106
719,3.3832127258879643
720,17.8250292805503
619,3898.4106098651164
633,1178.741545168517
659,69.37133389456656
661,37.36741452176737
690,123.29006518951437
716,85.44000000000007
843,1772.773367702639
844,1772.773367702639
907,0.0
908,0.0
971,0.0
972,0.0
1195,0.0
1197,0.0
2,2, 1,21, 0, 8, 0.00,60.00,Tuesday
7,1.7
718,19.631340480231824
719,3.2834677292783976
720,17.754012891949696
619,3948.6427348638927
633,1194.5961037404998
659,70.20634782686456
661,35.40982675321784
690,124.77382628188029
716,85.44000000000007
843,1775.7787173376146
844,1775.7787173376146
907,0.0
908,0.0
971,0.0
972,0.0
1195,0.0
1197,0.0
2,2, 1,21, 0, 9, 0.00,60.00,Tuesday
7,3.9
718,19.73437470516264
719,4.372816315781102
720,17.706751830820828
619,3072.2130464628995
633,917.4892074538968
659,51.015618976432854
661,76.720431934644
690,93.71882491063819
716,52.092396643356025
843,1577.3914170634362
844,1577.3914170634362
907,0.0
908,0.0
971,0.0
972,0.0
1195,0.0
1197,0.0
2,2, 1,21, 0,10, 0.00,60.00,Tuesday
7,5.6
718,19.775850013326856
719,6.085169343942437
720,17.64621536302131
619,1734.1182715423588
633,480.4891580124126
659,0.0
661,144.17957726034786
690,42.58121791939329
716,0.0
843,1323.4793225602261
844,1323.4793225602261
907,0.0
908,0.0
971,0.0
972,0.0
1195,0.0
1197,0.0
2,2, 1,21, 0,11, 0.00,60.00,Tuesday
7,6.1
718,19.781359845334826
719,8.355296628900277
720,17.58572347424649
619,1346.1967485679509
633,373.2362620399271
659,0.0
661,156.89634628191382
690,32.88054769223575
716,0.0
843,1046.538861784582
844,1046.538861784582
907,0.0
908,0.0
971,0.0
972,0.0
1195,0.0
1197,0.0
2,2, 1,21, 0,12, 0.00,60.00,Tuesday
7,7.8
718,19.71628473856889
719,10.565129386866774
720,17.534060648843298
619,465.5475212886322
633,128.0296899852597
659,0.0
661,185.48479374221805
690,11.072563238911185
716,0.0
843,358.5927794069448
844,358.5927794069448
907,0.0
908,0.0
971,0.0
972,0.0
1195,0.0
1197,0.0
2,2, 1,21, 0,13, 0.00,60.00,Tuesday
7,8.3
718,19.976302644990522
719,12.937387383396958
720,17.50019776248027
619,0.0
633,0.0
659,0.0
661,200.0
690,0.0
716,0.0
843,-200.47969317192474
844,-200.47969317192474
907,0.0
908,0.0
971,0.0
972,0.0
1195,0.0
1197,0.0
2,2, 1,21, 0,14, 0.00,60.00,Tuesday
7,10.0
718,20.835986699665213
719,16.80029220139118
720,17.49752939403327
619,0.0
633,0.0
659,0.0
661,0.0
690,0.0
716,0.0
843,-796.1144320476469
844,-796.1144320476469
907,0.0
908,0.0
971,0.0
972,0.0
1195,0.0
1197,0.0
2,2, 1,21, 0,15, 0.00,60.00,Tuesday
7,11.1
718,21.811501738649714
719,22.745118417959763
720,17.52089375691752
619,0.0
633,0.0
659,0.0
661,0.0
690,0.0
716,0.0
843,-1402.7384480759083
844,-1402.7384480759083
907,0.0
908,0.0
971,0.0
972,0.0
1195,0.0
1197,0.0
2,2, 1,21, 0,16, 0.00,60.00,Tuesday
7,11.1
718,22.390333285309186
719,23.9169011029765
720,17.56595207042526
619,0.0
633,0.0
659,0.0
661,0.0
690,0.0
716,0.0
843,-1980.20535531126
844,-1980.20535531126
907,0.0
908,0.0
971,0.0
972,0.0
1195,0.0
1197,0.0
2,2, 1,21, 0,17, 0.00,60.00,Tuesday
7,11.1
718,23.32949741587798
719,22.022250155777314
720,17.6296285797646
619,0.0
633,0.0
659,0.0
661,0.0
690,0.7067026572876273
716,0.0
843,-2399.5145218155994
844,-2399.5145218155994
907,0.0
908,0.0
971,0.0
972,0.0
1195,0.0
1197,0.0
2,2, 1,21, 0,18, 0.00,60.00,Tuesday
7,10.6
718,22.566786892599744
719,17.759778487364223
720,17.702297722129572
619,0.0
633,0.0
659,0.0
661,0.0
690,0.0
716,58.52416371891311
843,-2606.780993372153
844,-2606.780993372153
907,0.0
908,0.0
971,0.0
972,0.0
1195,0.0
1197,0.0
2,2, 1,21, 0,19, 0.00,60.00,Tuesday
7,10.0
718,23.229347940319624
719,14.33245804498508
720,17.772222312765386
619,0.0
633,0.0
659,0.0
661,0.0
690,0.0
716,0.0
843,-3005.034067617793
844,-3005.034067617793
907,0.0
908,0.0
971,0.0
972,0.0
1195,0.0
1197,0.0
2,2, 1,21, 0,20, 0.00,60.00,Tuesday
7,10.0
718,21.857134125801874
719,12.515600793796333
720,17.82950211630144
619,0.0
633,0.0
659,0.0
661,0.0
690,0.0
716,85.44000000000007
843,-2220.5817314123733
844,-2220.5817314123733
907,0.0
908,0.0
971,0.0
972,0.0
1195,0.0
1197,0.0
2,2, 1,21, 0,21, 0.00,60.00,Tuesday
7,8.3
718,21.523836663598015
719,10.445661461783095
720,17.863604579292765
619,0.0
633,0.0
659,0.0
661,200.0
690,0.0
716,72.69000827886003
843,-2681.453164094537
844,-2681.453164094537
907,0.0
908,0.0
971,0.0
972,0.0
1195,0.0
1197,0.0
2,2, 1,21, 0,22, 0.00,60.00,Tuesday
7,8.9
718,22.1709537234571
719,10.03929838928382
720,17.880414413802942
619,0.0
633,0.0
659,0.0
661,200.0
690,0.0
716,0.0
843,-2220.7393631666837
844,-2220.7393631666837
907,0.0
908,0.0
971,0.0
972,0.0
1195,0.0
1197,0.0
2,2, 1,21, 0,23, 0.00,60.00,Tuesday
7,8.3
718,21.914467550523376
719,9.382606858056512
720,17.879579431432422
619,0.0
633,0.0
659,0.0
661,200.0
690,0.0
716,0.0
843,-2151.1829016904576
844,-2151.1829016904576
907,0.0
908,0.0
971,0.0
972,0.0
1195,0.0
1197,0.0
2,2, 1,21, 0,24, 0.00,60.00,Tuesday
7,7.8
718,21.111052660371723
719,8.762030231459448
720,17.864072232182885
619,0.0
633,0.0
659,0.0
661,200.0
690,0.0
716,0.0
843,-1578.0173195733732
844,-1578.0173195733732
907,0.0
908,0.0
971,0.0
972,0.0
1195,0.0
1197,0.0
2,3, 1,22, 0, 1, 0.00,60.00,Wednesday
7,7.2
718,20.479745354552012
719,8.14536404305803
720,17.839867763608517
619,0.0
633,0.0
659,0.0
661,200.0
690,0.0
716,0.0
843,-1357.5931536313365
844,-1357.5931536313365
907,0.0
908,0.0
971,0.0
972,0.0
1195,0.0
1197,0.0
2,3, 1,22, 0, 2, 0.00,60.00,Wednesday
7,6.7
718,19.866032586671142
719,7.572337147003549
720,17.806712623685097
619,0.0
633,0.0
659,0.0
661,200.0
690,0.0
716,0.0
843,-908.2989621042216
844,-908.2989621042216
907,0.0
908,0.0
971,0.0
972,0.0
1195,0.0
1197,0.0
2,3, 1,22, 0, 3, 0.00,60.00,Wednesday
7,5.6
718,19.139945599122438
719,6.828702591480122
720,17.76578993843514
619,0.0
633,0.0
659,0.0
661,200.0
690,0.0
716,0.0
843,-384.4845321474895
844,-384.4845321474895
907,0.0
908,0.0
971,0.0
972,0.0
1195,0.0
1197,0.0
2,3, 1,22, 0, 4, 0.00,60.00,Wednesday
7,3.9
718,18.634157962076525
719,5.581753220767879
720,17.71427561708769
619,206.64027269420663
633,65.2603315784607
659,5.849007732258249
661,190.74832125437163
690,7.0189841156475765
716,0.0
843,146.35926524741262
844,146.35926524741262
907,0.0
908,0.0
971,0.0
972,0.0
1195,0.0
1197,0.0
2,3, 1,22, 0, 5, 0.00,60.00,Wednesday
7,3.9
718,18.534859506284125
719,5.180363704395784
720,17.64953550158322
619,604.8638841328396
633,186.8900113598477
659,16.99939802253406
661,173.22795566254973
690,20.3108965309845
716,0.0
843,464.5373769728685
844,464.5373769728685
907,0.0
908,0.0
971,0.0
972,0.0
1195,0.0
1197,0.0
2,3, 1,22, 0, 6, 0.00,60.00,Wednesday
7,3.9
718,19.186886204775
719,5.5302308561867015
720,17.553410305812314
619,2691.0677607946877
633,789.0991442360795
659,71.69313112371327
661,86.7487213559779
690,85.92114829833635
716,67.17569178346619
843,1195.9761177425744
844,1195.9761177425744
907,0.0
908,0.0
971,0.0
972,0.0
1195,0.0
1197,0.0
2,3, 1,22, 0, 7, 0.00,60.00,Wednesday
7,3.9
718,19.41216713908889
719,5.737595467252825
720,17.506950305452328
619,3561.442930963846
633,1039.1771000982985
659,93.29416327433066
661,52.67719060826024
690,111.76842644135576
716,85.44000000000007
843,1557.1598872166796
844,1557.1598872166796
907,0.0
908,0.0
971,0.0
972,0.0
1195,0.0
1197,0.0
2,3, 1,22, 0, 8, 0.00,60.00,Wednesday
7,3.9
718,19.64369717040464
719,5.525381929998552
720,17.451066274874695
619,2780.787151650145
633,830.5329023518685
659,74.23466725576549
661,82.77444857700476
690,88.93422951336134
716,29.463943779063452
843,1694.705524610581
844,1694.705524610581
907,0.0
908,0.0
971,0.0
972,0.0
1195,0.0
1197,0.0
2,3, 1,22, 0, 9, 0.00,60.00,Wednesday
7,2.8
718,19.622155037168326
719,4.528530061030999
720,17.382989586472114
619,2645.782394264739
633,811.8092933668074
659,65.681443781349
661,86.0724144830862
690,86.32194028327196
716,0.0
843,1975.3994399315397
844,1975.3994399315397
907,0.0
908,0.0
971,0.0
972,0.0
1195,0.0
1197,0.0
2,3, 1,22, 0,10, 0.00,60.00,Wednesday
7,2.8
718,19.883828721413572
719,5.157399565103457
720,17.321640342663667
619,2506.286198431372
633,771.1333728012593
659,62.61408274237619
661,91.69640671101553
690,82.05901797695942
716,0.0
843,1839.3904079138792
844,1839.3904079138792
907,0.0
908,0.0
971,0.0
972,0.0
1195,0.0
1197,0.0
2,3, 1,22, 0,11, 0.00,60.00,Wednesday
7,2.2
718,19.62812847682309
719,4.5922529350426355
720,17.255747068512612
619,2410.209792174522
633,755.5615477719787
659,52.38950436867861
661,95.48694858905303
690,79.19448976771602
716,0.0
843,1782.5111604180038
844,1782.5111604180038
907,0.0
908,0.0
971,0.0
972,0.0
1195,0.0
1197,0.0
2,3, 1,22, 0,12, 0.00,60.00,Wednesday
7,1.7
718,19.61576634498174
719,4.430875836244523
720,17.17768895597438
619,2776.135272016594
633,864.659391920946
659,58.37959316426257
661,79.62924948670258
690,91.16620463989581
716,0.0
843,2034.8367849778497
844,2034.8367849778497
907,0.0
908,0.0
971,0.0
972,0.0
1195,0.0
1197,0.0
2,3, 1,22, 0,13, 0.00,60.00,Wednesday
7,1.0
718,19.743734268816024
719,4.62342052231174
720,17.113093670204208
619,2755.5200296780918
633,868.9641073817987
659,64.67449777424041
661,77.19158545709304
690,92.84200500663854
716,0.0
843,2016.718992405762
844,2016.718992405762
907,0.0
908,0.0
971,0.0
972,0.0
1195,0.0
1197,0.0
2,3, 1,22, 0,14, 0.00,60.00,Wednesday
7,1.1
718,19.772688209725338
719,4.93132874008389
720,17.05755049317873
619,2567.523295256866
633,814.4072639971308
659,57.94012279296463
661,85.74519781619139
690,86.42064929400566
716,0.0
843,1870.938488727701
844,1870.938488727701
907,0.0
908,0.0
971,0.0
972,0.0
1195,0.0
1197,0.0
2,3, 1,22, 0,15, 0.00,60.00,Wednesday
7,1.7
718,19.741784912311633
719,5.958406337973014
720,17.00445876518705
619,3554.276550716868
633,1090.1306356802256
659,80.86980008790508
661,47.25091475313186
690,115.60449668907259
716,63.01862585836876
843,1816.0191243171867
844,1816.0191243171867
907,0.0
908,0.0
971,0.0
972,0.0
1195,0.0
1197,0.0
2,3, 1,22, 0,16, 0.00,60.00,Wednesday
7,1.7
718,19.784143770639055
719,5.873283448028016
720,16.9470678296189
619,2437.492929817285
633,767.3971301466353
659,56.437222863544264
661,92.51529334323565
690,81.35313834170324
716,0.0
843,1813.5871216427404
844,1813.5871216427404
907,0.0
908,0.0
971,0.0
972,0.0
1195,0.0
1197,0.0
2,3, 1,22, 0,17, 0.00,60.00,Wednesday
7,1.7
718,19.767552674433517
719,7.300213239004573
720,16.897765667822682
619,2533.8172105550484
633,796.611860949285
659,58.541163996097914
661,88.50833687051194
690,84.38580422610941
716,79.94964851933035
843,805.3009452184015
844,805.3009452184015
907,0.0
908,0.0
971,0.0
972,0.0
1195,0.0
1197,0.0
2,3, 1,22, 0,18, 0.00,60.00,Wednesday
7,2.0
718,19.7966163743057
719,6.402913178331646
720,16.85161522331804
619,809.3572355710776
633,263.90628278351534
659,17.560325433790524
661,163.4899794177833
690,27.66568257344228
716,0.0
843,609.7306700327936
844,609.7306700327936
907,0.0
908,0.0
971,0.0
972,0.0
1195,0.0
1197,0.0
2,3, 1,22, 0,19, 0.00,60.00,Wednesday
7,1.7
718,19.522725088864846
719,5.0557691914039635
720,16.82185894599769
619,986.3422313324257
633,322.19594094346985
659,21.9124911989548
661,155.24751092979798
690,33.8918310825764
716,0.0
843,740.3587391373367
844,740.3587391373367
907,0.0
908,0.0
971,0.0
972,0.0
1195,0.0
1197,0.0
2,3, 1,22, 0,20, 0.00,60.00,Wednesday
7,1.7
718,19.561773319340254
719,5.0387002363255835
720,16.79122307969037
619,2808.388641950609
633,871.370564032781
659,59.599122691665684
661,78.27905724477282
690,92.1822969600484
716,85.44000000000007
843,956.7545581143404
844,956.7545581143404
907,0.0
908,0.0
971,0.0
972,0.0
1195,0.0
1197,0.0
2,3, 1,22, 0,21, 0.00,60.00,Wednesday
7,1.0
718,19.788374992175594
719,4.344601204189137
720,16.754052858067332
619,2094.902769567035
633,670.4102713690177
659,49.96279489173116
661,105.12718555303819
690,71.72316615366152
716,45.59942111232124
843,947.6291268067835
844,947.6291268067835
907,0.0
908,0.0
971,0.0
972,0.0
1195,0.0
1197,0.0
2,3, 1,22, 0,22, 0.00,60.00,Wednesday
7,1.0
718,19.715371486716084
719,3.613239579589467
720,16.71128689596126
619,1466.1425879154476
633,478.8922406928949
659,28.947035224362224
661,133.7477507084649
690,50.16905582315049
716,0.0
843,1066.6473440314148
844,1066.6473440314148
907,0.0
908,0.0
971,0.0
972,0.0
1195,0.0
1197,0.0
2,3, 1,22, 0,23, 0.00,60.00,Wednesday
7,0.6
718,18.699998589080227
719,2.9340937719029316
720,16.655322471925643
619,779.8816020330291
633,260.6982531853884
659,16.038112485635946
661,163.7187581961639
690,27.45579835438626
716,0.0
843,559.8111580942568
844,559.8111580942568
907,0.0
908,0.0
971,0.0
972,0.0
1195,0.0
1197,0.0
2,3, 1,22, 0,24, 0.00,60.00,Wednesday
7,0.0
718,18.828132898085784
719,2.6845485321832565
720,16.58644797977325
619,1320.8768279646756
633,429.6709744312562
659,28.38267939064747
661,138.4316643520193
690,46.53450574437933
716,0.0
843,965.0254768635386
844,965.0254768635386
907,0.0
908,0.0
971,0.0
972,0.0
1195,0.0
1197,0.0
2,4, 1,23, 0, 1, 0.00,60.00,Thursday
7,-0.6
718,18.53970114480849
719,2.256533377304811
720,16.520034252714844
619,1878.7908908423512
633,610.9008942097174
659,38.18908389648191
661,112.62967980842924
690,66.01221874514624
716,0.0
843,1359.2671201536505
844,1359.2671201536505
907,0.0
908,0.0
971,0.0
972,0.0
1195,0.0
1197,0.0
2,4, 1,23, 0, 2, 0.00,60.00,Thursday
7,-0.6
718,18.569968533574205
719,2.2610404243715747
720,16.441210852852503
619,2421.1485261704906
633,770.8945482650694
659,48.472225636829734
661,89.10354891550507
690,83.78844866311691
716,0.0
843,1749.199366241979
844,1749.199366241979
907,0.0
908,0.0
971,0.0
972,0.0
1195,0.0
1197,0.0
2,4, 1,23, 0, 3, 0.00,60.00,Thursday
7,-0.6
718,18.51768522510196
719,2.435772799151624
720,16.36909313395807
619,2927.3300943554505
633,920.5856036801243
659,52.801534777089465
661,68.5597063360609
690,99.39316553638805
716,0.0
843,2111.598413268941
844,2111.598413268941
907,0.0
908,0.0
971,0.0
972,0.0
1195,0.0
1197,0.0
2,4, 1,23, 0, 4, 0.00,60.00,Thursday
7,-1.1
718,18.551444887088994
719,2.4124245428276594
720,16.290479382520267
619,3362.285083052234
633,1053.668245532275
659,55.38860463706233
661,49.71902956794207
690,113.65721964774924
716,0.0
843,2426.693668734899
844,2426.693668734899
907,0.0
908,0.0
971,0.0
972,0.0
1195,0.0
1197,0.0
2,4, 1,23, 0, 5, 0.00,60.00,Thursday
7,-1.0
718,18.559103526504018
719,2.224296678429011
720,16.219759612280207
619,3625.885425709229
633,1127.698720800813
659,57.81869670120572
661,39.640704363943
690,121.31838976935921
716,0.0
843,2611.149373210299
844,2611.149373210299
907,0.0
908,0.0
971,0.0
972,0.0
1195,0.0
1197,0.0
2,4, 1,23, 0, 6, 0.00,60.00,Thursday
7,-1.0
718,19.357002695162233
719,2.877662205067013
720,16.148265904849605
619,4589.911437909079
633,1394.7142748917313
659,54.42110353265709
661,4.81235136341942
690,147.95877335033143
716,0.0
843,3309.9451324149304
844,3309.9451324149304
907,0.0
908,0.0
971,0.0
972,0.0
1195,0.0
1197,0.0
2,4, 1,23, 0, 7, 0.00,60.00,Thursday
7,-1.1
718,19.54645020500832
719,2.8851786999230074
720,16.117853702564215
619,4706.772963632916
633,1447.803352367625
659,57.55285766747607
661,0.0
690,152.5650141275108
716,85.44000000000007
843,3221.970122752111
844,3221.970122752111
907,0.0
908,0.0
971,0.0
972,0.0
1195,1187.8781730619535
1197,1187.8781730619535
2,4, 1,23, 0, 8, 0.00,60.00,Thursday
7,-0.6
718,19.647812123746938
719,3.11513571574481
720,16.06086002557124
619,4785.730521543718
633,1465.1129725148649
659,53.575158719776056
661,0.0
690,152.5650141275108
716,85.44000000000007
843,2917.508847580928
844,2917.508847580928
907,0.0
908,0.0
971,0.0
972,0.0
1195,747.0513533463595
1197,747.0513533463595
2,4, 1,23, 0, 9, 0.00,60.00,Thursday
7,1.1
718,19.70341159375883
719,3.4747300786485
720,16.014126424897327
619,4368.9646932984715
633,1323.1762122309638
659,57.60945969146739
661,20.566163978216068
690,136.169931192463
716,47.01517367444176
843,2581.278861707935
844,2581.278861707935
907,0.0
908,0.0
971,0.0
972,0.0
1195,0.0
1197,0.0
2,4, 1,23, 0,10, 0.00,60.00,Thursday
7,1.1
718,19.72665517514615
719,3.795609668403281
720,15.947830575674303
619,3527.267666583991
633,1090.49514527298
659,53.56930223094221
661,51.15711563450933
690,112.87916473536225
716,0.0
843,2535.9262652397774
844,2535.9262652397774
907,0.0
908,0.0
971,0.0
972,0.0
1195,0.0
1197,0.0
2,4, 1,23, 0,11, 0.00,60.00,Thursday
7,1.1
718,19.760408324135277
719,4.773942127259798
720,15.891479953121179
619,2804.699894248421
633,882.8268940612801
659,62.56926844119063
661,76.01830010376003
690,93.78244529240587
716,0.0
843,2014.108711961153
844,2014.108711961153
907,0.0
908,0.0
971,0.0
972,0.0
1195,0.0
1197,0.0
2,4, 1,23, 0,12, 0.00,60.00,Thursday
7,2.8
718,19.705155348312534
719,6.269804689225909
720,15.846504864019092
619,2239.5509255547913
633,694.3314135366328
659,30.508344404755917
661,107.36126318344859
690,70.4078055097048
716,0.0
843,1648.898247949499
844,1648.898247949499
907,0.0
908,0.0
971,0.0
972,0.0
1195,0.0
1197,0.0
2,4, 1,23, 0,13, 0.00,60.00,Thursday
7,3.3
718,19.74744551887981
719,7.528086918724433
720,15.812260317269704
619,1831.3269262487336
633,567.5492559001153
659,19.158436668452048
661,125.60096824892848
690,56.61272876926375
716,0.0
843,1379.3638011311614
844,1379.3638011311614
907,0.0
908,0.0
971,0.0
972,0.0
1195,0.0
1197,0.0
2,4, 1,23, 0,14, 0.00,60.00,Thursday
7,3.9
718,19.679763481246002
719,8.174292386290787
720,15.788832512248103
619,1101.5292166897384
633,343.88576938794523
659,7.236531809258259
661,156.00996445053093
690,33.51310187742133
716,0.0
843,842.8672888766432
844,842.8672888766432
907,0.0
908,0.0
971,0.0
972,0.0
1195,0.0
1197,0.0
2,4, 1,23, 0,15, 0.00,60.00,Thursday
7,4.4
718,19.62592259489037
719,8.952174366200168
720,15.79358467145886
619,991.4221241098242
633,307.240896431854
659,3.675370060403899
661,161.3471117896225
690,29.46705785004034
716,0.0
843,767.4940788891581
844,767.4940788891581
907,0.0
908,0.0
971,0.0
972,0.0
1195,0.0
1197,0.0
2,4, 1,23, 0,16, 0.00,60.00,Thursday
7,4.4
718,19.94403364701717
719,8.393787830967995
720,15.815503257574331
619,909.8932320299543
633,282.24142350546504
659,8.895277637891462
661,163.44014828970478
690,27.843186357129426
716,0.0
843,700.3444450101924
844,700.3444450101924
907,0.0
908,0.0
971,0.0
972,0.0
1195,0.0
1197,0.0
2,4, 1,23, 0,17, 0.00,60.00,Thursday
7,4.4
718,19.707646541887836
719,8.100077400758135
720,15.85320035901853
619,1125.1843513405006
633,349.9104682112308
659,5.85265290375728
661,155.891581142442
690,33.61757674314852
716,71.59305813111261
843,35.40549529519558
844,35.40549529519558
907,0.0
908,0.0
971,0.0
972,0.0
1195,0.0
1197,0.0
2,4, 1,23, 0,18, 0.00,60.00,Thursday
7,3.9
718,19.924608042533634
719,6.960163576154332
720,15.868437698711325
619,11.019901694190528
633,3.5177620246657875
659,0.0001638654459634425
661,199.56337350315266
690,0.33306867975415066
716,0.0
843,5.973895441411514
844,5.973895441411514
907,0.0
908,0.0
971,0.0
972,0.0
1195,0.0
1197,0.0
2,4, 1,23, 0,19, 0.00,60.00,Thursday
7,3.9
718,19.655121773684115
719,6.301812559327496
720,15.940718652720834
619,1652.3133636131122
633,511.7220858801801
659,0.023743025065232154
661,136.73569313018314
690,48.25946033858214
716,85.44000000000007
843,146.9426730332034
844,146.9426730332034
907,0.0
908,0.0
971,0.0
972,0.0
1195,0.0
1197,0.0
2,4, 1,23, 0,20, 0.00,60.00,Thursday
7,3.9