Program Version,EnergyPlus, Version 22.2.0-c249759bad, YMD=2023.09.01 14:31
1,5,Environment Title[],Latitude[deg],Longitude[deg],Time Zone[],Elevation[m]
2,8,Day of Simulation[],Month[],Day of Month[],DST Indicator[1=yes 0=no],Hour[],StartMinute[],EndMinute[],DayType
3,5,Cumulative Day of Simulation[],Month[],Day of Month[],DST Indicator[1=yes 0=no],DayType  ! When Daily Report Variables Requested
4,2,Cumulative Days of Simulation[],Month[]  ! When Monthly Report Variables Requested
5,1,Cumulative Days of Simulation[] ! When Run Period Report Variables Requested
6,1,Calendar Year of Simulation[] ! When Annual Report Variables Requested
7,1,Environment,Site Outdoor Air Drybulb Temperature [C] !Hourly
619,1,DX_HEATING_COIL,Heating Coil Heating Rate [W] !Hourly
633,1,DX_HEATING_COIL,Heating Coil Electricity Rate [W] !Hourly
659,1,DX_HEATING_COIL,Heating Coil Defrost Electricity Rate [W] !Hourly
661,1,DX_HEATING_COIL,Heating Coil Crankcase Heater Electricity Rate [W] !Hourly
690,1,FAN,Fan Electricity Rate [W] !Hourly
716,1,HEAT PUMP WATER HEATER FAN,Fan Electricity Rate [W] !Hourly
718,1,LIVING,Zone Mean Air Temperature [C] !Hourly
719,1,ATTIC,Zone Mean Air Temperature [C] !Hourly
720,1,CRAWLSPACE,Zone Mean Air Temperature [C] !Hourly
843,1,LIVING,Zone Predicted Sensible Load to Heating Setpoint Heat Transfer Rate [W] !Hourly
844,1,LIVING,Zone System Predicted Sensible Load to Heating Setpoint Heat Transfer Rate [W] !Hourly
907,1,ATTIC,Zone Predicted Sensible Load to Heating Setpoint Heat Transfer Rate [W] !Hourly
908,1,ATTIC,Zone System Predicted Sensible Load to Heating Setpoint Heat Transfer Rate [W] !Hourly
971,1,CRAWLSPACE,Zone Predicted Sensible Load to Heating Setpoint Heat Transfer Rate [W] !Hourly
972,1,CRAWLSPACE,Zone System Predicted Sensible Load to Heating Setpoint Heat Transfer Rate [W] !Hourly
1195,1,HEATING_RESISTANCE_BACKUP,Heating Coil Heating Rate [W] !Hourly
1197,1,HEATING_RESISTANCE_BACKUP,Heating Coil Electricity Rate [W] !Hourly
End of Data Dictionary
1,EXTREME_WINTER,  43.60,-110.73,  -7.00,1966.00
2,1, 1, 1, 0, 1, 0.00,60.00,Monday
7,-23.0
718,18.6298682240158
719,-11.70991738225396
720,17.036897114274694
619,2741.1164466222813
633,1340.612767647835
659,1.4968938957626121
661,0.0
690,172.14619962373578
716,0.0
843,5045.170733503719
844,5045.170733503719
907,0.0
908,0.0
971,0.0
972,0.0
1195,4733.1529317506665
1197,4733.1529317506665
2,1, 1, 1, 0, 2, 0.00,60.00,Monday
7,-22.0
718,18.604129825475162
719,-11.925498473915333
720,16.472183126273997
619,2842.8980044349423
633,1357.017224907589
659,2.171396954500931
661,0.0
690,172.14619962373578
716,0.0
843,5298.828612157393
844,5298.828612157393
907,0.0
908,0.0
971,0.0
972,0.0
1195,4865.700056234259
1197,4865.700056234259
2,1, 1, 1, 0, 3, 0.00,60.00,Monday
7,-20.0
718,18.6041145584466
719,-11.514433798888138
720,16.216267578809813
619,3025.0694661852726
633,1377.3009530252946
659,13.920404654455622
661,0.0
690,172.14619962373578
716,0.0
843,5263.522256296157
844,5263.522256296157
907,0.0
908,0.0
971,0.0
972,0.0
1195,4683.700601574596
1197,4683.700601574596
2,1, 1, 1, 0, 4, 0.00,60.00,Monday
7,-20.0
718,18.596729593113608
719,-11.482877226313523
720,15.902900834793101
619,3049.413949157361
633,1387.932199649652
659,4.513802107362564
661,0.0
690,172.14619962373578
716,0.0
843,5513.645433223048
844,5513.645433223048
907,0.0
908,0.0
971,0.0
972,0.0
1195,4923.188458223987
1197,4923.188458223987
2,1, 1, 1, 0, 5, 0.00,60.00,Monday
7,-20.0
718,18.60224529119617
719,-10.898823248869443
720,15.640907337821288
619,3050.0094886493494
633,1387.402866796961
659,4.513802107362564
661,0.0
690,172.14619962373578
716,0.0
843,5447.9672077422565
844,5447.9672077422565
907,0.0
908,0.0
971,0.0
972,0.0
1195,4869.258358024841
1197,4869.258358024841
2,1, 1, 1, 0, 6, 0.00,60.00,Monday
7,-21.0
718,19.367649219712217
719,-11.128651364042076
720,15.382068642907868
619,2935.6259949912146
633,1366.1331218227358
659,7.863950419971539
661,0.0
690,172.14619962373578
716,0.0
843,6905.027701660454
844,6905.027701660454
907,0.0
908,0.0
971,0.0
972,0.0
1195,6653.338580486257
1197,6653.338580486257
2,1, 1, 1, 0, 7, 0.00,60.00,Monday
7,-21.0
718,18.945004254219914
719,-11.649266536349929
720,15.176691534277204
619,2917.137916918442
633,1381.934717268692
659,7.863950419971539
661,0.0
690,172.14619962373578
716,85.44000000000005
843,7129.538119146608
844,7129.538119146608
907,0.0
908,0.0
971,0.0
972,0.0
1195,6653.338580486257
1197,6653.338580486257
2,1, 1, 1, 0, 8, 0.00,60.00,Monday
7,-20.0
718,19.146194631707587
719,-10.916185260127552
720,14.941653820958349
619,3030.3465154308333
633,1388.6652585495801
659,9.23525774031834
661,0.0
690,172.14619962373578
716,85.44000000000005
843,6487.948642961832
844,6487.948642961832
907,0.0
908,0.0
971,0.0
972,0.0
1195,6653.338580486257
1197,6653.338580486257
2,1, 1, 1, 0, 9, 0.00,60.00,Monday
7,-19.0
718,19.5142954118108
719,-10.266873220395018
720,14.747104678924854
619,3143.4093942310524
633,1414.2272978763883
659,5.592907284229173
661,0.0
690,172.14619962373578
716,55.4329767917191
843,6411.730911937937
844,6411.730911937937
907,0.0
908,0.0
971,0.0
972,0.0
1195,6587.787240092549
1197,6587.787240092549
2,1, 1, 1, 0,10, 0.00,60.00,Monday
7,-19.0
718,19.65273855704909
719,-9.770163343492216
720,14.552256486861113
619,3134.461919338956
633,1422.3287592233107
659,5.592907284229173
661,0.0
690,172.14619962373578
716,0.0
843,6455.719866464209
844,6455.719866464209
907,0.0
908,0.0
971,0.0
972,0.0
1195,6017.066324730724
1197,6017.066324730724
2,1, 1, 1, 0,11, 0.00,60.00,Monday
7,-19.0
718,19.710670281698484
719,-7.808606217418283
720,14.368535358325175
619,3125.4064865738355
633,1422.5732683990454
659,7.818065249561545
661,0.0
690,172.14619962373578
716,0.0
843,4677.037987465948
844,4677.037987465948
907,0.0
908,0.0
971,0.0
972,0.0
1195,3891.4454905061293
1197,3891.4454905061293
2,1, 1, 1, 0,12, 0.00,60.00,Monday
7,-19.0
718,19.715912043341586
719,-3.6995117951609964
720,14.207066829966921
619,3116.4640661720155
633,1420.1189443845815
659,10.772368624971069
661,0.0
690,172.14619962373578
716,0.0
843,3782.114269256139
844,3782.114269256139
907,0.0
908,0.0
971,0.0
972,0.0
1195,2713.2703931726664
1197,2713.2703931726664
2,1, 1, 1, 0,13, 0.00,60.00,Monday
7,-18.0
718,19.727418993225406
719,0.3258235967897397
720,14.088028099494734
619,3237.489125850197
633,1441.9244614046713
659,6.8146227787862195
661,0.0
690,172.14619962373578
716,0.0
843,3106.2095681129067
844,3106.2095681129067
907,0.0
908,0.0
971,0.0
972,0.0
1195,1572.6679105596845
1197,1572.6679105596845
2,1, 1, 1, 0,14, 0.00,60.00,Monday
7,-18.0
718,19.71883439702582
719,0.9654804832202029
720,13.99161821458363
619,3237.3724692304454
633,1442.0325764832842
659,6.8146227787862195
661,0.0
690,172.14619962373578
716,85.44000000000005
843,2702.1384630282355
844,2702.1384630282355
907,0.0
908,0.0
971,0.0
972,0.0
1195,1814.9143128052117
1197,1814.9143128052117
2,1, 1, 1, 0,15, 0.00,60.00,Monday
7,-16.0
718,19.72675176985659
719,0.9197930485326482
720,13.935031038341863
619,3437.4216036302596
633,1462.6967796644606
659,16.539455025668687
661,0.0
690,172.14619962373578
716,15.05412697187442
843,2218.779260820451
844,2218.779260820451
907,0.0
908,0.0
971,0.0
972,0.0
1195,236.52891937334016
1197,236.52891937334016
2,1, 1, 1, 0,16, 0.00,60.00,Monday
7,-17.0
718,19.751040061317333
719,0.1162197793243123
720,13.874310706598092
619,3127.9452005287717
633,1373.9034966426846
659,2.6433469064942545
661,12.244476643064672
690,161.39270234277416
716,0.0
843,1947.1794033577116
844,1947.1794033577116
907,0.0
908,0.0
971,0.0
972,0.0
1195,0.0
1197,0.0
2,1, 1, 1, 0,17, 0.00,60.00,Monday
7,-21.0
718,19.667786698566214
719,-4.694364533492482
720,13.80836591142716
619,2909.7258025369397
633,1388.201012423954
659,7.863950419971539
661,0.0
690,172.14619962373578
716,0.0
843,2725.5547336562886
844,2725.5547336562886
907,0.0
908,0.0
971,0.0
972,0.0
1195,1251.9758773263
1197,1251.9758773263
2,1, 1, 1, 0,18, 0.00,60.00,Monday
7,-21.0
718,19.69383626211416
719,-6.024295518727749
720,13.764338628457937
619,2901.4373430657347
633,1381.4210889853207
659,12.133525027322118
661,0.0
690,172.14619962373578
716,0.0
843,3291.4834926614276
844,3291.4834926614276
907,0.0
908,0.0
971,0.0
972,0.0
1195,2181.405045172687
1197,2181.405045172687
2,1, 1, 1, 0,19, 0.00,60.00,Monday
7,-23.0
718,19.68211360797151
719,-9.32112105803062
720,13.679905762143589
619,2720.7854398347736
633,1356.7016080255053
659,1.4968938957626121
661,0.0
690,172.14619962373578
716,85.44000000000005
843,3690.636202845759
844,3690.636202845759
907,0.0
908,0.0
971,0.0
972,0.0
1195,3956.272459749086
1197,3956.272459749086
2,1, 1, 1, 0,20, 0.00,60.00,Monday
7,-23.0
718,19.691921778304238
719,-10.909162191673644
720,13.586867010229442
619,2693.6694397820656
633,1342.6613334912302
659,13.611675627330515
661,0.0
690,172.14619962373578
716,85.44000000000005
843,4035.970389188513
844,4035.970389188513
907,0.0
908,0.0
971,0.0
972,0.0
1195,4621.30594325387
1197,4621.30594325387
2,1, 1, 1, 0,21, 0.00,60.00,Monday
7,-23.0
718,19.687406166755203
719,-12.244258677759445
720,13.469746133133429
619,2724.304392199497
633,1358.0629101880747
659,0.08292617897343103
661,0.0
690,172.14619962373578
716,85.44000000000005
843,4543.523445185352
844,4543.523445185352
907,0.0
908,0.0
971,0.0
972,0.0
1195,5275.905222898504
1197,5275.905222898504
2,1, 1, 1, 0,22, 0.00,60.00,Monday
7,-21.8
718,19.700050090759618
719,-12.819254858425952
720,13.348647263480288
619,2847.263858654919
633,1380.6306775490116
659,0.08292617897343103
661,0.0
690,172.14619962373578
716,26.43530397842685
843,4806.8729181073795
844,4806.8729181073795
907,0.0
908,0.0
971,0.0
972,0.0
1195,4767.478430186428
1197,4767.478430186428
2,1, 1, 1, 0,23, 0.00,60.00,Monday
7,-19.7
718,18.94065271024181
719,-12.457398999899999
720,13.222367974197029
619,3061.192628786791
633,1415.0666841292775
659,3.4294330813212457
661,0.0
690,172.14619962373578
716,0.0
843,3758.300193554516
844,3758.300193554516
907,0.0
908,0.0
971,0.0
972,0.0
1195,3052.4141262374283
1197,3052.4141262374283
2,1, 1, 1, 0,24, 0.00,60.00,Monday
7,-19.0
718,18.699488843854308
719,-12.325455874892327
720,13.041762251072827
619,3150.947094357213
633,1407.361773474565
659,5.593405987528269
661,0.0
690,172.14619962373578
716,0.0
843,4628.586089534603
844,4628.586089534603
907,0.0
908,0.0
971,0.0
972,0.0
1195,3917.9839747324195
1197,3917.9839747324195
2,2, 1, 2, 0, 1, 0.00,60.00,Tuesday
7,-17.8
718,18.632713153417892
719,-11.160868143660736
720,12.89680672012083
619,3272.662630271718
633,1413.5355753943838
659,12.037022300831875
661,0.0
690,172.14619962373578
716,0.0
843,4788.470397087196
844,4788.470397087196
907,0.0
908,0.0
971,0.0
972,0.0
1195,3978.3107059952367
1197,3978.3107059952367
2,2, 1, 2, 0, 2, 0.00,60.00,Tuesday
7,-16.7
718,18.606708780459467
719,-10.728668907406952
720,12.745778980812835
619,3395.551410181639
633,1427.6016915129314
659,13.207224318945407
661,0.0
690,172.14619962373578
716,0.0
843,5085.117709841557
844,5085.117709841557
907,0.0
908,0.0
971,0.0
972,0.0
1195,4128.178706283132
1197,4128.178706283132
2,2, 1, 2, 0, 3, 0.00,60.00,Tuesday
7,-15.5
718,18.606073313187302
719,-10.147299487028967
720,12.603491961216465
619,3509.7348102456644
633,1434.6279182417863
659,21.716737469146008
661,0.0
690,172.14619962373578
716,0.0
843,5094.498352051374
844,5094.498352051374
907,0.0
908,0.0
971,0.0
972,0.0
1195,4019.0413881589943
1197,4019.0413881589943
2,2, 1, 2, 0, 4, 0.00,60.00,Tuesday
7,-12.3
718,18.600982648597743
719,-8.621390070488617
720,12.478592564424543
619,3863.6453129036245
633,1469.1146384076408
659,30.604585304627943
661,0.0
690,172.14619962373578
716,0.0
843,5148.7116136912755
844,5148.7116136912755
907,0.0
908,0.0
971,0.0
972,0.0
1195,3690.6709590163564
1197,3690.6709590163564
2,2, 1, 2, 0, 5, 0.00,60.00,Tuesday
7,-9.2
718,18.607209112024158
719,-6.371348904875603
720,12.359514829562011
619,4207.276882030006
633,1493.791260098776
659,43.46821345888076
661,0.0
690,172.14619962373578
716,0.0
843,5001.325644387
844,5001.325644387
907,0.0
908,0.0
971,0.0
972,0.0
1195,3109.727308480274
1197,3109.727308480274
2,2, 1, 2, 0, 6, 0.00,60.00,Tuesday
7,-5.5
718,19.399272218155794
719,-4.430000137734409
720,12.262464511670395
619,4724.454515564395
633,1551.0862529538765
659,36.358958065942794
661,0.0
690,172.14619962373578
716,0.0
843,5073.906904041007
844,5073.906904041007
907,0.0
908,0.0
971,0.0
972,0.0
1195,2533.152422570718
1197,2533.152422570718
2,2, 1, 2, 0, 7, 0.00,60.00,Tuesday
7,-26.0
718,18.774091217212334
719,-7.7401259516684044
720,12.03282352139078
619,2423.4830022591022
633,1282.7579408565007
659,8.671068252345647
661,0.0
690,172.14619962373578
716,85.44000000000005
843,7285.328584819721
844,7285.328584819721
907,0.0
908,0.0
971,0.0
972,0.0
1195,6653.338580486257
1197,6653.338580486257
2,2, 1, 2, 0, 8, 0.00,60.00,Tuesday
7,-24.3
718,18.75666044310571
719,-9.640098589170305
720,11.934836770272007
619,2600.5477985472135
633,1304.6665021535537
659,8.793165342604512
661,0.0
690,172.14619962373578
716,85.44000000000005
843,6800.3437748273445
844,6800.3437748273445
907,0.0
908,0.0
971,0.0
972,0.0
1195,6653.338580486257
1197,6653.338580486257
2,2, 1, 2, 0, 9, 0.00,60.00,Tuesday
7,-22.7
718,18.85743994069247
719,-10.044032319894544
720,11.824508864382178
619,2761.656889015116
633,1334.746153816489
659,7.953879624253939
661,0.0
690,172.14619962373578
716,85.44000000000005
843,6647.484844754668
844,6647.484844754668
907,0.0
908,0.0
971,0.0
972,0.0
1195,6653.338580486257
1197,6653.338580486257
2,2, 1, 2, 0,10, 0.00,60.00,Tuesday
7,-21.0
718,19.224961286649865
719,-9.354625016694541
720,11.720180305306776
619,2934.6136129953975
633,1367.0046904921742
659,7.863950419971539
661,0.0
690,172.14619962373578
716,73.90537519697338
843,6421.639591377143
844,6421.639591377143
907,0.0
908,0.0
971,0.0
972,0.0
1195,6653.338580486257
1197,6653.338580486257
2,2, 1, 2, 0,11, 0.00,60.00,Tuesday
7,-19.0
718,19.582934658142904
719,-7.914822128353037
720,11.628268142137237
619,3116.8796779614004
633,1398.8143219794986
659,16.638254448533107
661,0.0
690,172.14619962373578
716,0.0
843,6055.058766903165
844,6055.058766903165
907,0.0
908,0.0
971,0.0
972,0.0
1195,5569.820785477466
1197,5569.820785477466
2,2, 1, 2, 0,12, 0.00,60.00,Tuesday
7,-19.0
718,19.672240577603574
719,-6.464562006972717
720,11.525530337263227
619,3123.5721723036127
633,1413.7066877283914
659,10.772368624971069
661,0.0
690,172.14619962373578
716,0.0
843,5863.366144796535
844,5863.366144796535
907,0.0
908,0.0
971,0.0
972,0.0
1195,5260.270795900715
1197,5260.270795900715
2,2, 1, 2, 0,13, 0.00,60.00,Tuesday
7,-18.0
718,19.70714597855902
719,-4.476483186638639
720,11.43063256378207
619,3227.030880359612
633,1430.4622808532015
659,12.490788104176158
661,0.0
690,172.14619962373578
716,0.0
843,5430.173345420002
844,5430.173345420002
907,0.0
908,0.0
971,0.0
972,0.0
1195,4587.419630856968
1197,4587.419630856968
2,2, 1, 2, 0,14, 0.00,60.00,Tuesday
7,-17.0
718,19.710156485522756
719,-2.887474526915599
720,11.342308021803078
619,3350.703437843204
633,1452.9098925533
659,8.193147576826892
661,0.0
690,172.14619962373578
716,0.0
843,5124.213875809621
844,5124.213875809621
907,0.0
908,0.0
971,0.0
972,0.0
1195,3973.397264208347
1197,3973.397264208347
2,2, 1, 2, 0,15, 0.00,60.00,Tuesday
7,-17.0
718,19.72227097153617
719,-1.3657603152665914
720,11.257022002969615
619,3350.7618465091386
633,1452.8541146402404
659,8.193147576826892
661,0.0
690,172.14619962373578
716,0.0
843,4318.572105242143
844,4318.572105242143
907,0.0
908,0.0
971,0.0
972,0.0
1195,2939.550646010425
1197,2939.550646010425
2,2, 1, 2, 0,16, 0.00,60.00,Tuesday
7,-17.0
718,19.714570877278277
719,-1.0416781379509203
720,11.189259374891693
619,3333.0951225188633
633,1445.4487915599314
659,14.407427868608394
661,0.0
690,172.14619962373578
716,0.0
843,4484.990193018248
844,4484.990193018248
907,0.0
908,0.0
971,0.0
972,0.0
1195,3062.9949083322035
1197,3062.9949083322035
2,2, 1, 2, 0,17, 0.00,60.00,Tuesday
7,-16.0
718,19.71829058207585
719,-2.4621781999555923
720,11.135821510879644
619,3419.2538361840348
633,1449.1542378520217
659,24.214279454540275
661,0.0
690,172.14619962373578
716,0.0
843,4347.670023504083
844,4347.670023504083
907,0.0
908,0.0
971,0.0
972,0.0
1195,2807.7567165092173
1197,2807.7567165092173
2,2, 1, 2, 0,18, 0.00,60.00,Tuesday
7,-16.0
718,19.711194668969473
719,-3.8760639383334268
720,11.075315101515121
619,3441.5718693095296
633,1458.6356844372497
659,16.539455025668687
661,0.0
690,172.14619962373578
716,73.10894539362121
843,4224.648189224001
844,4224.648189224001
907,0.0
908,0.0
971,0.0
972,0.0
1195,3511.7110593638563
1197,3511.7110593638563
2,2, 1, 2, 0,19, 0.00,60.00,Tuesday
7,-17.0
718,19.719692500948046
719,-5.481108286119227
720,11.00669588571398
619,3333.6382152917527
633,1444.9301254428074
659,14.407427868608394
661,0.0
690,172.14619962373578
716,0.0
843,4149.133123152196
844,4149.133123152196
907,0.0
908,0.0
971,0.0
972,0.0
1195,2812.1981427568503
1197,2812.1981427568503
2,2, 1, 2, 0,20, 0.00,60.00,Tuesday
7,-18.0
718,19.708483898902
719,-6.333513974131526
720,10.935779459931084
619,3226.5974064852
633,1430.8652404536072
659,12.490788104176158
661,0.0
690,172.14619962373578
716,85.44000000000005
843,4178.337330284368
844,4178.337330284368
907,0.0
908,0.0
971,0.0
972,0.0
1195,4176.468745162028
1197,4176.468745162028
2,2, 1, 2, 0,21, 0.00,60.00,Tuesday
7,-19.0
718,19.697907788893207
719,-7.462653483149252
720,10.858590351588619
619,3146.8021049856998
633,1427.1290203607318
659,1.1181492893294236
661,0.0
690,172.14619962373578
716,85.44000000000005
843,4361.78403751362
844,4361.78403751362
907,0.0
908,0.0
971,0.0
972,0.0
1195,4550.001521536604
1197,4550.001521536604
2,2, 1, 2, 0,22, 0.00,60.00,Tuesday
7,-19.0
718,19.701895951524484
719,-8.029990023287997
720,10.783640178550659
619,3106.4106112131744
633,1408.305110987013
659,16.638254448533107
661,0.0
690,172.14619962373578
716,85.44000000000005
843,4561.317260463318
844,4561.317260463318
907,0.0
908,0.0
971,0.0
972,0.0
1195,4719.113767705582
1197,4719.113767705582
2,2, 1, 2, 0,23, 0.00,60.00,Tuesday
7,-19.0
718,18.971984662057856
719,-9.131555136461076
720,10.70167409038303
619,3091.168613689532
633,1401.3692801063712
659,22.44786215321476
661,0.0
690,172.14619962373578
716,34.68903760306562
843,3956.052116845398
844,3956.052116845398
907,0.0
908,0.0
971,0.0
972,0.0
1195,3419.3735156532257
1197,3419.3735156532257
2,2, 1, 2, 0,24, 0.00,60.00,Tuesday
7,-19.0
718,18.71316606186927
719,-9.089553523058612
720,10.584960656548851
619,3153.7379923277786
633,1404.8132842792284
659,5.592907284229173
661,0.0
690,172.14619962373578
716,0.0
843,4262.131254044343
844,4262.131254044343
907,0.0
908,0.0
971,0.0
972,0.0
1195,3351.402413879481
1197,3351.402413879481
2,3, 1, 3, 0, 1, 0.00,60.00,Wednesday
7,-22.0
718,18.630000691205826
719,-9.813430482249139
720,10.465551895424737
619,2817.9276599812865
633,1336.363101270514
659,15.49212188703521
661,0.0
690,172.14619962373578
716,0.0
843,5190.441960701546
844,5190.441960701546
907,0.0
908,0.0
971,0.0
972,0.0
1195,4798.6254810900555
1197,4798.6254810900555
2,3, 1, 3, 0, 2, 0.00,60.00,Wednesday
7,-20.0
718,18.605328839475888
719,-10.1880215513405
720,10.38336747048579
619,3044.634800172451
633,1375.9670922286502
659,9.23525774031834
661,0.0
690,172.14619962373578
716,0.0
843,5277.143714660067
844,5277.143714660067
907,0.0
908,0.0
971,0.0
972,0.0
1195,4691.771530823071
1197,4691.771530823071
2,3, 1, 3, 0, 3, 0.00,60.00,Wednesday
7,-22.0
718,18.597918801302754
719,-11.069721754063487
720,10.262479508322238
619,2857.5258901122415
633,1351.3207473665518
659,0.08292617897343103
661,0.0
690,172.14619962373578
716,0.0
843,5984.322521472714
844,5984.322521472714
907,0.0
908,0.0
971,0.0
972,0.0
1195,5776.183580583853
1197,5776.183580583853
2,3, 1, 3, 0, 4, 0.00,60.00,Wednesday
7,-19.0
718,18.597685345832623
719,-10.432722009634938
720,10.187655294487838
619,3149.870186508429
633,1389.7082057299583
659,10.772368624971069
661,0.0
690,172.14619962373578
716,0.0
843,5514.868017825842
844,5514.868017825842
907,0.0
908,0.0
971,0.0
972,0.0
1195,4943.367431810313
1197,4943.367431810313
2,3, 1, 3, 0, 5, 0.00,60.00,Wednesday
7,-19.0
718,18.602490703642186
719,-10.303471558886256
720,10.081118944492163
619,3134.4347226964956
633,1382.7458297693345
659,16.638254448533107
661,0.0
690,172.14619962373578
716,0.0
843,5521.765760158552
844,5521.765760158552
907,0.0
908,0.0
971,0.0
972,0.0
1195,4955.002693961488
1197,4955.002693961488
2,3, 1, 3, 0, 6, 0.00,60.00,Wednesday
7,-21.0
718,18.78716560634407
719,-10.973421093653366
720,9.970467772530895
619,2943.2785493010674
633,1359.521551764429
659,7.863950419971539
661,0.0
690,172.14619962373578
716,79.64939476942985
843,7019.105577972528
844,7019.105577972528
907,0.0
908,0.0
971,0.0
972,0.0
1195,6653.338580486257
1197,6653.338580486257
2,3, 1, 3, 0, 7, 0.00,60.00,Wednesday
7,-20.0
718,18.988351515474182
719,-10.123662304062577
720,9.892938435973385
619,3064.8919097018097
633,1389.3701117016267
659,0.08292617897343103
661,0.0
690,172.14619962373578
716,85.44000000000005
843,6666.797495072453
844,6666.797495072453
907,0.0
908,0.0
971,0.0
972,0.0
1195,6653.338580486257
1197,6653.338580486257
2,3, 1, 3, 0, 8, 0.00,60.00,Wednesday
7,-23.0
718,18.706876540791217
719,-11.511945267695378
720,9.781874783710075
619,2746.7495507625963
633,1340.276845168208
659,0.08292617897343103
661,0.0
690,172.14619962373578
716,85.44000000000005
843,7040.711450176315
844,7040.711450176315
907,0.0
908,0.0
971,0.0
972,0.0
1195,6653.338580486257
1197,6653.338580486257
2,3, 1, 3, 0, 9, 0.00,60.00,Wednesday
7,-23.0
718,18.998081134671892
719,-11.976240275932545
720,9.680387868580537
619,2753.733478174232
633,1334.6608467866745
659,0.08292617897343103
661,0.0
690,172.14619962373578
716,38.23715545260368
843,6839.620759587277
844,6839.620759587277
907,0.0
908,0.0
971,0.0
972,0.0
1195,6653.338580486257
1197,6653.338580486257
2,3, 1, 3, 0,10, 0.00,60.00,Wednesday
7,-22.0
718,19.50852063123155
719,-9.30640194363015
720,9.614791123212816
619,2843.992468758424
633,1356.1078209747293
659,2.171396954500931
661,0.0
690,172.14619962373578
716,0.0
843,5722.547695187237
844,5722.547695187237
907,0.0
908,0.0
971,0.0
972,0.0
1195,5598.675038396679
1197,5598.675038396679
2,3, 1, 3, 0,11, 0.00,60.00,Wednesday
7,-19.0
718,19.667950256266916
719,-4.886467096861428
720,9.583440465405646
619,3153.7633915197603
633,1420.8277682052103
659,1.1181492893294236
661,0.0
690,172.14619962373578
716,0.0
843,4272.454880440437
844,4272.454880440437
907,0.0
908,0.0
971,0.0
972,0.0
1195,3462.187188157832
1197,3462.187188157832
2,3, 1, 3, 0,12, 0.00,60.00,Wednesday
7,-17.0
718,19.7052163179532
719,0.7476892909763293
720,9.556488367967614
619,3354.418913833045
633,1449.358104276135
659,8.193147576826892
661,0.0
690,172.14619962373578
716,0.0
843,3259.73982626659
844,3259.73982626659
907,0.0
908,0.0
971,0.0
972,0.0
1195,1806.7039434940739
1197,1806.7039434940739
2,3, 1, 3, 0,13, 0.00,60.00,Wednesday
7,-18.0
718,19.721138902873076
719,2.8261817600320733
720,9.53838457235185
619,3257.893919904455
633,1441.2829226803124
659,1.9069645505266994
661,0.0
690,172.14619962373578
716,0.0
843,3150.9332978325147
844,3150.9332978325147
907,0.0
908,0.0
971,0.0
972,0.0
1195,1482.7830245663272
1197,1482.7830245663272
2,3, 1, 3, 0,14, 0.00,60.00,Wednesday
7,-16.0
718,19.724641219519658
719,6.129689931533037
720,9.568136524332893
619,3460.8102492653898
633,1463.5603395246314
659,10.718789812037194
661,0.0
690,172.14619962373578
716,0.0
843,2392.962275011276
844,2392.962275011276
907,0.0
908,0.0
971,0.0
972,0.0
1195,261.98017645845766
1197,261.98017645845766
2,3, 1, 3, 0,15, 0.00,60.00,Wednesday
7,-16.0
718,19.71173273132738
719,6.293842420920117
720,9.59656131964896
619,3443.7307886834387
633,1456.5197653993182
659,16.539455025668687
661,0.0
690,172.14619962373578
716,76.40220778257697
843,1894.9698425035967
844,1894.9698425035967
907,0.0
908,0.0
971,0.0
972,0.0
1195,352.0651432937857
1197,352.0651432937857
2,3, 1, 3, 0,16, 0.00,60.00,Wednesday
7,-15.0
718,19.724562879599333
719,4.832502649927394
720,9.645651913977032
619,3507.7434948214577
633,1456.5982653131032
659,4.943738110744994
661,3.9791834214315758
690,168.3776194383305
716,85.44000000000005
843,1546.350199437009
844,1546.350199437009
907,0.0
908,0.0
971,0.0
972,0.0
1195,0.0
1197,0.0
2,3, 1, 3, 0,17, 0.00,60.00,Wednesday
7,-18.0
718,19.71218906235441
719,1.1004549454842312
720,9.683137379196536
619,3193.713740442398
633,1413.7291997873772
659,25.268773590762095
661,0.0
690,172.14619962373578
716,26.368051419994536
843,1974.7048590941286
844,1974.7048590941286
907,0.0
908,0.0
971,0.0
972,0.0
1195,236.32638156340363
1197,236.32638156340363
2,3, 1, 3, 0,18, 0.00,60.00,Wednesday
7,-13.5
718,19.712244510197245
719,-5.350277289831436
720,9.762537204155429
619,3749.468338853802
633,1500.3497888231777
659,12.042047165644698
661,0.0
690,171.95863435801985
716,0.0
843,2348.406784806959
844,2348.406784806959
907,0.0
908,0.0
971,0.0
972,0.0
1195,0.0
1197,0.0
2,3, 1, 3, 0,19, 0.00,60.00,Wednesday
7,-23.0
718,19.694207417275617
719,-8.08342951637789
720,9.70687090677205
619,2726.067358688256
633,1352.5536140322351
659,1.4968938957626121
661,0.0
690,172.14619962373578
716,0.0
843,3930.6890911235096
844,3930.6890911235096
907,0.0
908,0.0
971,0.0
972,0.0
1195,3276.1846433764454
1197,3276.1846433764454
2,3, 1, 3, 0,20, 0.00,60.00,Wednesday
7,-23.5
718,19.690790847318507
719,-11.132901010892757
720,9.704423469340506
619,2673.9233979799187
633,1341.2552240555988
659,2.650231590532838
661,0.0
690,172.14619962373578
716,85.44000000000005
843,4408.769035083054
844,4408.769035083054
907,0.0
908,0.0
971,0.0
972,0.0
1195,5134.78193367262
1197,5134.78193367262
2,3, 1, 3, 0,21, 0.00,60.00,Wednesday
7,-24.0
718,19.683209969847358
719,-12.666901354380151
720,9.653916348030753
619,2621.2613170467016
633,1329.828128082687
659,4.144934051029253
661,0.0
690,172.14619962373578
716,85.44000000000005
843,4931.495022579093
844,4931.495022579093
907,0.0
908,0.0
971,0.0
972,0.0
1195,6021.944538711508
1197,6021.944538711508
2,3, 1, 3, 0,22, 0.00,60.00,Wednesday
7,-25.0
718,19.690108529077772
719,-13.685265127760973
720,9.58213724340304
619,2526.082162906414
633,1310.8269134485188
659,3.3443062148778293
661,0.0
690,172.14619962373578
716,71.60505838337944
843,5454.292989971367
844,5454.292989971367
907,0.0
908,0.0
971,0.0
972,0.0
1195,6523.3660302396875
1197,6523.3660302396875
2,3, 1, 3, 0,23, 0.00,60.00,Wednesday
7,-24.0
718,18.936025220652947
719,-14.040261097207159
720,9.506890986839164
619,2628.512296353374
633,1333.2991944140624
659,0.9140241694019843
661,0.0
690,172.14619962373578
716,0.0
843,4513.890235508063
844,4513.890235508063
907,0.0
908,0.0
971,0.0
972,0.0
1195,4541.817279212664
1197,4541.817279212664
2,3, 1, 3, 0,24, 0.00,60.00,Wednesday
7,-24.0
718,18.69454330960516
719,-14.441399505411582
720,9.36948949044519
619,2648.7276358358863
633,1320.1657701964325
659,0.08292617897343103
661,0.0
690,172.14619962373578
716,0.0
843,5163.625081380975
844,5163.625081380975
907,0.0
908,0.0
971,0.0
972,0.0
1195,5239.596925259224
1197,5239.596925259224
2,4, 1, 4, 0, 1, 0.00,60.00,Thursday
7,-23.0
718,18.6281698775369
719,-13.832528557022565
720,9.264919106767339
619,2754.599836778741
633,1333.9614903029437
659,0.08292617897343103
661,0.0
690,172.14619962373578
716,0.0
843,5373.397151932306
844,5373.397151932306
907,0.0
908,0.0
971,0.0
972,0.0
1195,5410.771425650024
1197,5410.771425650024
2,4, 1, 4, 0, 2, 0.00,60.00,Thursday
7,-22.0
718,18.600799587859004
719,-13.556019959260167
720,9.15127934579675
619,2853.5690025260797
633,1348.1123063028488
659,2.171396954500931
661,0.0
690,172.14619962373578
716,0.0
843,5787.300266194947
844,5787.300266194947
907,0.0
908,0.0
971,0.0
972,0.0
1195,5749.674521591311
1197,5749.674521591311
2,4, 1, 4, 0, 3, 0.00,60.00,Thursday
7,-23.0
718,18.59894902198212
719,-13.003691002856044
720,9.027834713965143
619,2757.1715395651736
633,1331.8820276988392
659,0.08292617897343103
661,0.0
690,172.14619962373578
716,0.0
843,6149.165605324262
844,6149.165605324262
907,0.0
908,0.0
971,0.0
972,0.0
1195,6293.2947256641655
1197,6293.2947256641655
2,4, 1, 4, 0, 4, 0.00,60.00,Thursday
7,-23.0
718,18.592175588505622
719,-13.242184973051353
720,8.917642266505114
619,2757.3895618412193
633,1331.7054963885946
659,0.08292617897343103
661,0.0
690,172.14619962373578
716,0.0
843,6321.141429090074
844,6321.141429090074
907,0.0
908,0.0
971,0.0
972,0.0
1195,6443.974918258466
1197,6443.974918258466
2,4, 1, 4, 0, 5, 0.00,60.00,Thursday
7,-23.0
718,18.422665330267556
719,-13.868822817880872
720,8.805701564774207
619,2757.731777642615
633,1331.4283307714693
659,0.08292617897343103
661,0.0
690,172.14619962373578
716,0.0
843,6737.542884986651
844,6737.542884986651
907,0.0
908,0.0
971,0.0
972,0.0
1195,6653.338580486257
1197,6653.338580486257
2,4, 1, 4, 0, 6, 0.00,60.00,Thursday
7,-21.0
718,18.973544241551625
719,-12.221906274510607
720,8.709131609588109
619,2949.424967119088
633,1354.181413542611
659,7.863950419971539
661,0.0
690,172.14619962373578
716,0.0
843,7200.703139534015
844,7200.703139534015
907,0.0
908,0.0
971,0.0
972,0.0
1195,6653.338580486257
1197,6653.338580486257
2,4, 1, 4, 0, 7, 0.00,60.00,Thursday
7,-22.0
718,18.59359984321494
719,-12.106373283235113
720,8.621774965784422
619,2836.6658555585573
633,1350.02809950693
659,6.086752808598756
661,0.0
690,172.14619962373578
716,85.44000000000005
843,7235.139611963812
844,7235.139611963812
907,0.0
908,0.0
971,0.0
972,0.0
1195,6653.338580486257
1197,6653.338580486257
2,4, 1, 4, 0, 8, 0.00,60.00,Thursday
7,-21.0
718,18.619444418914256
719,-11.707592010797633
720,8.513528642574732
619,2957.7115200048506
633,1363.1484401474502
659,2.9475628940217233
661,0.0
690,172.14619962373578
716,85.44000000000005
843,6973.7089421662695
844,6973.7089421662695
907,0.0
908,0.0
971,0.0
972,0.0
1195,6653.338580486257
1197,6653.338580486257
2,4, 1, 4, 0, 9, 0.00,60.00,Thursday
7,-21.0
718,18.86304030727314
719,-10.339999117550676
720,8.427375325206393
619,2961.8214632753084
633,1365.672234019581