Program Version,EnergyPlus, Version 22.2.0-c249759bad, YMD=2023.09.01 20:46
1,5,Environment Title[],Latitude[deg],Longitude[deg],Time Zone[],Elevation[m]
2,8,Day of Simulation[],Month[],Day of Month[],DST Indicator[1=yes 0=no],Hour[],StartMinute[],EndMinute[],DayType
3,5,Cumulative Day of Simulation[],Month[],Day of Month[],DST Indicator[1=yes 0=no],DayType  ! When Daily Report Variables Requested
4,2,Cumulative Days of Simulation[],Month[]  ! When Monthly Report Variables Requested
5,1,Cumulative Days of Simulation[] ! When Run Period Report Variables Requested
6,1,Calendar Year of Simulation[] ! When Annual Report Variables Requested
581,11,LIVING,AFN Zone Infiltration Air Change Rate [ach] !RunPeriod [Value,Min,Month,Day,Hour,Minute,Max,Month,Day,Hour,Minute]
582,11,ATTIC,AFN Zone Infiltration Air Change Rate [ach] !RunPeriod [Value,Min,Month,Day,Hour,Minute,Max,Month,Day,Hour,Minute]
583,11,CRAWLSPACE,AFN Zone Infiltration Air Change Rate [ach] !RunPeriod [Value,Min,Month,Day,Hour,Minute,Max,Month,Day,Hour,Minute]
1038,11,Facility,Facility Heating Setpoint Not Met Time [hr] !RunPeriod [Value,Min,Month,Day,Hour,Minute,Max,Month,Day,Hour,Minute]
1039,11,Facility,Facility Cooling Setpoint Not Met Time [hr] !RunPeriod [Value,Min,Month,Day,Hour,Minute,Max,Month,Day,Hour,Minute]
1115,11,DX_HEATING_COIL,Heating Coil Heating Energy [J] !RunPeriod [Value,Min,Month,Day,Hour,Minute,Max,Month,Day,Hour,Minute]
1128,11,DX_HEATING_COIL,Heating Coil Electricity Energy [J] !RunPeriod [Value,Min,Month,Day,Hour,Minute,Max,Month,Day,Hour,Minute]
1153,11,DX_HEATING_COIL,Heating Coil Defrost Electricity Energy [J] !RunPeriod [Value,Min,Month,Day,Hour,Minute,Max,Month,Day,Hour,Minute]
1154,11,DX_HEATING_COIL,Heating Coil Crankcase Heater Electricity Energy [J] !RunPeriod [Value,Min,Month,Day,Hour,Minute,Max,Month,Day,Hour,Minute]
1155,11,HEATING_RESISTANCE_BACKUP,Heating Coil Heating Energy [J] !RunPeriod [Value,Min,Month,Day,Hour,Minute,Max,Month,Day,Hour,Minute]
1156,11,HEATING_RESISTANCE_BACKUP,Heating Coil Electricity Energy [J] !RunPeriod [Value,Min,Month,Day,Hour,Minute,Max,Month,Day,Hour,Minute]
1292,11,WATER HEATER,Water Heater Heat Loss Energy [J] !RunPeriod [Value,Min,Month,Day,Hour,Minute,Max,Month,Day,Hour,Minute]
1306,11,WATER HEATER,Water Heater Heating Energy [J] !RunPeriod [Value,Min,Month,Day,Hour,Minute,Max,Month,Day,Hour,Minute]
1307,11,WATER HEATER,Water Heater Unmet Demand Heat Transfer Energy [J] !RunPeriod [Value,Min,Month,Day,Hour,Minute,Max,Month,Day,Hour,Minute]
1308,11,WATER HEATER,Water Heater Electricity Energy [J] !RunPeriod [Value,Min,Month,Day,Hour,Minute,Max,Month,Day,Hour,Minute]
13,11,Electricity:Facility [J] !RunPeriod [Value,Min,Month,Day,Hour,Minute,Max,Month,Day,Hour,Minute]
1134,11,Heating:Electricity [J] !RunPeriod [Value,Min,Month,Day,Hour,Minute,Max,Month,Day,Hour,Minute]
1096,11,Cooling:Electricity [J] !RunPeriod [Value,Min,Month,Day,Hour,Minute,Max,Month,Day,Hour,Minute]
562,11,Fans:Electricity [J] !RunPeriod [Value,Min,Month,Day,Hour,Minute,Max,Month,Day,Hour,Minute]
1379,11,Pumps:Electricity [J] !RunPeriod [Value,Min,Month,Day,Hour,Minute,Max,Month,Day,Hour,Minute]
1326,11,WaterSystems:Electricity [J] !RunPeriod [Value,Min,Month,Day,Hour,Minute,Max,Month,Day,Hour,Minute]
61,11,InteriorLights:Electricity [J] !RunPeriod [Value,Min,Month,Day,Hour,Minute,Max,Month,Day,Hour,Minute]
1046,11,ExteriorLights:Electricity [J] !RunPeriod [Value,Min,Month,Day,Hour,Minute,Max,Month,Day,Hour,Minute]
134,11,InteriorEquipment:Electricity [J] !RunPeriod [Value,Min,Month,Day,Hour,Minute,Max,Month,Day,Hour,Minute]
170,11,gas_dryer:InteriorEquipment:Electricity [J] !RunPeriod [Value,Min,Month,Day,Hour,Minute,Max,Month,Day,Hour,Minute]
207,11,clotheswasher:InteriorEquipment:Electricity [J] !RunPeriod [Value,Min,Month,Day,Hour,Minute,Max,Month,Day,Hour,Minute]
244,11,dishwasher:InteriorEquipment:Electricity [J] !RunPeriod [Value,Min,Month,Day,Hour,Minute,Max,Month,Day,Hour,Minute]
281,11,refrigerator:InteriorEquipment:Electricity [J] !RunPeriod [Value,Min,Month,Day,Hour,Minute,Max,Month,Day,Hour,Minute]
318,11,electric_mels:InteriorEquipment:Electricity [J] !RunPeriod [Value,Min,Month,Day,Hour,Minute,Max,Month,Day,Hour,Minute]
355,11,NaturalGas:Facility [J] !RunPeriod [Value,Min,Month,Day,Hour,Minute,Max,Month,Day,Hour,Minute]
403,11,InteriorEquipment:NaturalGas [J] !RunPeriod [Value,Min,Month,Day,Hour,Minute,Max,Month,Day,Hour,Minute]
476,11,gas_dryer:InteriorEquipment:NaturalGas [J] !RunPeriod [Value,Min,Month,Day,Hour,Minute,Max,Month,Day,Hour,Minute]
513,11,gas_mels:InteriorEquipment:NaturalGas [J] !RunPeriod [Value,Min,Month,Day,Hour,Minute,Max,Month,Day,Hour,Minute]
End of Data Dictionary
1,EXTREME_WINTER,  41.73, -71.43,  -5.00,  19.00
5,7
1038,0.75,0.0, 1,27, 1,15,0.25, 1,29, 6,15
1039,0.0,0.0, 1,27, 1,15,0.0, 1,27, 1,15
581,0.40771952899561786,0.2047007834660872, 1,27,20,60,1.1037804169138576, 1,29,16,60
582,5.797712046541617,0.0, 1,27,19,52,24.982008766541657, 1,29,13,60
583,0.04673157175527295,0.0003209867979657271, 1,27,24,45,0.08162583105450684, 1,29,16,52
1115,1533205004.0107243,0.0, 1,27,11,20,3802673.921118421, 2, 2, 3,30
1128,528344462.51901877,0.0, 1,27,11,20,1216081.9432907654, 2, 1, 6,60
1153,3538764.1747932155,0.0, 1,27,11,20,50545.66808197995, 1,28,14,45
1154,40928220.462847,0.0, 1,27, 6, 5,180000.0, 1,27,13,60
1155,558934592.0377927,0.0, 1,27, 1,15,5515255.450503317, 1,30, 6,45
1156,558934592.0377927,0.0, 1,27, 1,15,5515255.450503317, 1,30, 6,45
1292,-25130922.650208473,-39744.6481136906, 1,30, 3,15,-6869.7942853537115, 2, 2,10,35
1306,270770677.44155735,0.0, 1,27, 1,15,4050000.0, 1,27, 8,45
1307,92581625.30884233,0.0, 1,27, 1,15,14556562.88583633, 1,27, 8,30
1308,270770677.44155735,0.0, 1,27, 1,15,4050000.0, 1,27, 8,45
13,1831301695.4111085,426471.8663174034, 1,27, 1,15,11434544.431473983, 1,30, 6,60
61,301924526.02383536,88139.10953165221, 1,27, 1,15,1282023.4113694867, 1,27,20,15
134,70666020.44019976,63564.01800854099, 1,27, 4,15,156554.22484006523, 2, 1,20,15
170,5241013.419656067,348.4159749238097, 1,27, 4,15,17476.39704006126, 2, 1,12,15
207,6509451.13922267,815.2532113832032, 1,27, 3,15,22990.642799023623, 2, 1,10,15
244,12749673.399825225,1521.856143006317, 1,27, 4,15,53038.631142310165, 2, 1,20,15
281,46165882.481495745,59938.60262432081, 1,27, 5,15,81951.81706819107, 1,27,19,15
318,0.0,0.0, 1,27, 1,15,0.0, 1,27, 1,15
355,197687796.27748066,18561.32405820678, 1,27, 4,15,724774.895203776, 2, 1,18,15
403,197687796.27748066,18561.32405820678, 1,27, 4,15,724774.895203776, 2, 1,18,15
476,106772067.24485716,7098.072629279515, 1,27, 4,15,356036.3026282215, 2, 1,12,15
513,0.0,0.0, 1,27, 1,15,0.0, 1,27, 1,15
562,56064010.37591038,0.0, 1,27,11,30,126197.37752631515, 1,28,21,45
1046,0.0,0.0, 1,27, 1,15,0.0, 1,27, 1,15
1096,130421.93515506033,0.0, 1,27, 1,15,31403.243837583985, 1,27,16,30
1134,1131746039.1944513,173116.94603386836, 1,27,16,30,6664250.361225058, 1,29, 6,15
1326,270770677.4415573,0.0, 1,27, 1,15,4050000.0, 1,27, 8,45
1379,0.0,0.0, 1,27, 1,15,0.0, 1,27, 1,15
1,EXTREME_SUMMER,  41.73, -71.43,  -5.00,  19.00
5,7
1038,0.0,0.0, 7,13, 1,15,0.0, 7,13, 1,15
1039,33.75,0.0, 7,13, 1,15,0.25, 7,13,17,30
581,0.15452962113048102,0.005516493832544921, 7,19,24,60,0.9889282719205569, 7,19,16,48
582,3.8568404268348475,0.06228349795263932, 7,19,20,15,22.65549027134291, 7,19,16,46
583,0.03791594278219477,0.00012713088856973543, 7,13, 6, 7,0.07955793052069707, 7,19,16,46
1115,0.0,0.0, 7,13, 1, 7,0.0, 7,13, 1, 7
1128,0.0,0.0, 7,13, 1, 7,0.0, 7,13, 1, 7
1153,0.0,0.0, 7,13, 1, 7,0.0, 7,13, 1, 7
1154,0.0,0.0, 7,13, 1, 7,0.0, 7,13, 1, 7
1155,0.0,0.0, 7,13, 1, 7,0.0, 7,13, 1, 7
1156,0.0,0.0, 7,13, 1, 7,0.0, 7,13, 1, 7
1292,-21918147.684768956,-34192.88176601408, 7,16,21,30,-3161.841089899394, 7,19,15,16
1306,203789088.16055614,0.0, 7,13, 1, 7,3303817.5659595937, 7,19,18,60
1307,51967091.24104086,0.0, 7,13, 1, 7,2900109.573243215, 7,19,10,22
1308,203789088.16055614,0.0, 7,13, 1, 7,3303817.5659595937, 7,19,18,60
13,1112891148.0410225,151703.1275401932, 7,13, 4,60,6305371.3556252085, 7,13,18,30
61,301924526.02383536,88139.10953165221, 7,13, 1,15,1282023.4113694867, 7,13,20,15
134,70666020.44019976,63564.01800854099, 7,13, 4,15,156554.22484006523, 7,18,20,15
170,5241013.419656067,348.4159749238097, 7,13, 4,15,17476.39704006126, 7,18,12,15
207,6509451.13922267,815.2532113832032, 7,13, 3,15,22990.642799023623, 7,18,10,15
244,12749673.399825225,1521.856143006317, 7,13, 4,15,53038.631142310165, 7,18,20,15
281,46165882.481495745,59938.60262432081, 7,13, 5,15,81951.81706819107, 7,13,19,15
318,0.0,0.0, 7,13, 1,15,0.0, 7,13, 1,15
355,197687796.27748066,18561.32405820678, 7,13, 4,15,724774.895203776, 7,18,18,15
403,197687796.27748066,18561.32405820678, 7,13, 4,15,724774.895203776, 7,18,18,15
476,106772067.24485716,7098.072629279515, 7,13, 4,15,356036.3026282215, 7,18,12,15
513,0.0,0.0, 7,13, 1,15,0.0, 7,13, 1,15
562,51373259.240273826,0.0, 7,13, 4,60,126197.37752631515, 7,13,15,30
1046,0.0,0.0, 7,13, 1,15,0.0, 7,13, 1,15
1096,485138254.1761562,0.0, 7,13, 4,60,1376070.9519345765, 7,18,14,60
1134,0.0,0.0, 7,13, 1,15,0.0, 7,13, 1,15
1326,203789088.16055617,0.0, 7,13, 1,15,4050000.0, 7,13, 8,45
1379,0.0,0.0, 7,13, 1,15,0.0, 7,13, 1,15
1,ANNUAL,  41.73, -71.43,  -5.00,  19.00
5,365
1038,13.75,0.0, 1, 1, 1,15,0.25, 1, 3, 6,15
1039,302.25,0.0, 1, 1, 1,15,0.25, 6, 1,13,60
581,0.26897131598136303,0.0, 4,26, 5,37,1.2234524611070619, 8,28,11,60
582,4.334520124822782,0.0, 1, 7,22,52,26.7362709260268, 8,28, 7,60
583,0.025766860897771873,0.0, 7,28,23, 3,0.08772206728261453, 2,10,21,60
1115,23547849816.185787,0.0, 1, 1,23, 5,4335328.672902111,12,24, 6,60
1128,7368166403.440777,0.0, 1, 1,23, 5,1284073.7048709597,12,24, 6,60
1153,221388392.44838524,0.0, 1, 1,23, 5,123684.02069693062, 2,26, 2,30
1154,1647096129.2695107,0.0, 1, 1, 6, 5,180000.0, 1, 4,15,30
1155,3091864415.9789295,0.0, 1, 1, 1,15,5515255.450503317, 1,30, 6,30
1156,3091864415.9789295,0.0, 1, 1, 1,15,5515255.450503317, 1,30, 6,30
1292,-1225714838.4093683,-40068.312466538235, 1,18, 8,45,-1886.6639411242845, 5, 8, 8,31
1306,12350644562.657019,0.0, 1, 1, 1,15,4050000.0, 1, 2, 8,45
1307,3692558242.6476407,0.0, 1, 1, 1,15,14631265.38509319, 2,13, 8,30
1308,12350644562.657019,0.0, 1, 1, 1,15,4050000.0, 1, 2, 8,45
13,53257583333.58671,151703.1275401932, 4,18, 4,15,10542601.743075378, 3, 2, 6,60
61,15743207428.383959,88139.10953165221, 1, 1, 1,15,1282023.4113694867, 1, 1,20,15
134,3685071073.4325233,63564.01800854099, 1, 2, 4,15,156554.22484006523, 1, 1,20,15
170,273393721.45532674,348.4159749238097, 1, 2, 4,15,17476.39704006126, 1, 1,12,15
207,339560869.0695816,815.2532113832032, 1, 2, 3,15,22990.642799023623, 1, 1,10,15
244,664895467.8009144,1521.856143006317, 1, 2, 4,15,53038.631142310165, 1, 1,20,15
281,2407221015.106824,59938.60262432081, 1, 1, 5,15,81951.81706819107, 1, 1,19,15
318,0.0,0.0, 1, 1, 1,15,0.0, 1, 1, 1,15
355,10310294493.051695,18561.32405820678, 1, 2, 4,15,724774.895203776, 1, 1,18,15
403,10310294493.051695,18561.32405820678, 1, 2, 4,15,724774.895203776, 1, 1,18,15
476,5569688622.066177,7098.072629279515, 1, 2, 4,15,356036.3026282215, 1, 1,12,15
513,0.0,0.0, 1, 1, 1,15,0.0, 1, 1, 1,15
562,1643482475.2441912,0.0, 1, 4,15,30,126197.37752631515, 1, 2,18,60
1046,0.0,0.0, 1, 1, 1,15,0.0, 1, 1, 1,15
1096,7506662452.729614,0.0, 1, 1, 1,15,1378279.2375225597, 7,18,14,60
1134,12328515341.137611,0.0, 1,25,23,15,6665595.006669257, 1,29, 6,30
1326,12350644562.65707,0.0, 1, 1, 1,15,4050000.0000000014, 5, 8, 8,45
1379,0.0,0.0, 1, 1, 1,15,0.0, 1, 1, 1,15
End of Data
 Number of Records Written=          99
