Program Version,EnergyPlus, Version 22.2.0-c249759bad, YMD=2023.09.01 14:30
1,5,Environment Title[],Latitude[deg],Longitude[deg],Time Zone[],Elevation[m]
2,8,Day of Simulation[],Month[],Day of Month[],DST Indicator[1=yes 0=no],Hour[],StartMinute[],EndMinute[],DayType
3,5,Cumulative Day of Simulation[],Month[],Day of Month[],DST Indicator[1=yes 0=no],DayType  ! When Daily Report Variables Requested
4,2,Cumulative Days of Simulation[],Month[]  ! When Monthly Report Variables Requested
5,1,Cumulative Days of Simulation[] ! When Run Period Report Variables Requested
6,1,Calendar Year of Simulation[] ! When Annual Report Variables Requested
7,1,Environment,Site Outdoor Air Drybulb Temperature [C] !Hourly
619,1,DX_HEATING_COIL,Heating Coil Heating Rate [W] !Hourly
633,1,DX_HEATING_COIL,Heating Coil Electricity Rate [W] !Hourly
659,1,DX_HEATING_COIL,Heating Coil Defrost Electricity Rate [W] !Hourly
661,1,DX_HEATING_COIL,Heating Coil Crankcase Heater Electricity Rate [W] !Hourly
690,1,FAN,Fan Electricity Rate [W] !Hourly
716,1,HEAT PUMP WATER HEATER FAN,Fan Electricity Rate [W] !Hourly
718,1,LIVING,Zone Mean Air Temperature [C] !Hourly
719,1,ATTIC,Zone Mean Air Temperature [C] !Hourly
720,1,CRAWLSPACE,Zone Mean Air Temperature [C] !Hourly
843,1,LIVING,Zone Predicted Sensible Load to Heating Setpoint Heat Transfer Rate [W] !Hourly
844,1,LIVING,Zone System Predicted Sensible Load to Heating Setpoint Heat Transfer Rate [W] !Hourly
907,1,ATTIC,Zone Predicted Sensible Load to Heating Setpoint Heat Transfer Rate [W] !Hourly
908,1,ATTIC,Zone System Predicted Sensible Load to Heating Setpoint Heat Transfer Rate [W] !Hourly
971,1,CRAWLSPACE,Zone Predicted Sensible Load to Heating Setpoint Heat Transfer Rate [W] !Hourly
972,1,CRAWLSPACE,Zone System Predicted Sensible Load to Heating Setpoint Heat Transfer Rate [W] !Hourly
1195,1,HEATING_RESISTANCE_BACKUP,Heating Coil Heating Rate [W] !Hourly
1197,1,HEATING_RESISTANCE_BACKUP,Heating Coil Electricity Rate [W] !Hourly
End of Data Dictionary
1,EXTREME_WINTER,  35.22, -80.93,  -5.00, 221.90
2,1, 1,20, 0, 1, 0.00,60.00,Monday
7,1.0
718,19.049402952265932
719,-4.373722011383675
720,19.813216271221155
619,1452.4580129347812
633,462.17142841886766
659,42.367036549432655
661,130.54502540314186
690,52.34826472507569
716,0.0
843,943.1983181217365
844,943.1983181217365
907,0.0
908,0.0
971,0.0
972,0.0
1195,0.0
1197,0.0
2,1, 1,20, 0, 2, 0.00,60.00,Monday
7,1.1
718,18.628001222517472
719,-1.5049367512750524
720,19.556355618652635
619,1439.1307783952414
633,463.25628151382114
659,41.15492053734231
661,131.33649753279636
690,51.77146600867632
716,0.0
843,946.4814327997465
844,946.4814327997465
907,0.0
908,0.0
971,0.0
972,0.0
1195,0.0
1197,0.0
2,1, 1,20, 0, 3, 0.00,60.00,Monday
7,-0.6
718,18.469420194838257
719,-0.4716269952188686
720,19.359171648085674
619,2140.8798989161965
633,690.3211918729211
659,53.35959381511396
661,97.00732688843404
690,77.54717116125862
716,0.0
843,1450.3039315379265
844,1450.3039315379265
907,0.0
908,0.0
971,0.0
972,0.0
1195,0.0
1197,0.0
2,1, 1,20, 0, 4, 0.00,60.00,Monday
7,-1.1
718,18.565634708232576
719,-1.1447454033069349
720,19.18812528210447
619,2705.1907840826507
633,860.6645231110401
659,17.003213307971343
661,80.02726423679567
690,91.11045973302895
716,0.0
843,1918.6055184132147
844,1918.6055184132147
907,0.0
908,0.0
971,0.0
972,0.0
1195,0.0
1197,0.0
2,1, 1,20, 0, 5, 0.00,60.00,Monday
7,-1.1
718,18.593354648765008
719,-1.9137691638226932
720,19.03988780710604
619,2896.4490480556387
633,919.181424075835
659,18.128199093970668
661,72.08949271111689
690,97.13847517993315
716,0.0
843,2028.0871399686202
844,2028.0871399686202
907,0.0
908,0.0
971,0.0
972,0.0
1195,0.0
1197,0.0
2,1, 1,20, 0, 6, 0.00,60.00,Monday
7,-2.8
718,19.240791976122026
719,-1.8308584761647875
720,18.82592595388211
619,4588.369075156562
633,1438.0600777185632
659,0.07252296023900397
661,2.40048305673648
690,150.54863148942988
716,0.0
843,3165.572911211717
844,3165.572911211717
907,0.0
908,0.0
971,0.0
972,0.0
1195,0.0
1197,0.0
2,1, 1,20, 0, 7, 0.00,60.00,Monday
7,-3.9
718,19.501641534979296
719,-2.145890610325927
720,18.717575267918598
619,4493.179877010193
633,1460.4774251578333
659,0.07340398535470852
661,0.0
690,152.3791072068808
716,85.44000000000005
843,3318.636625001236
844,3318.636625001236
907,0.0
908,0.0
971,0.0
972,0.0
1195,1492.5903755329518
1197,1492.5903755329518
2,1, 1,20, 0, 8, 0.00,60.00,Monday
7,-3.9
718,19.63087157957048
719,-2.47764906270755
720,18.59057400628458
619,4486.900872899811
633,1467.8608624163196
659,0.07340398535470852
661,0.0
690,152.3791072068808
716,72.72481436186798
843,3139.6260658464544
844,3139.6260658464544
907,0.0
908,0.0
971,0.0
972,0.0
1195,1210.6131367267708
1197,1210.6131367267708
2,1, 1,20, 0, 9, 0.00,60.00,Monday
7,-3.9
718,19.704498732123323
719,-0.7120349873819817
720,18.467448631412587
619,4379.520703684993
633,1440.8992611826338
659,0.07188060936548314
661,4.1506628880271235
690,149.21495764985576
716,0.0
843,2868.7276177469503
844,2868.7276177469503
907,0.0
908,0.0
971,0.0
972,0.0
1195,0.0
1197,0.0
2,1, 1,20, 0,10, 0.00,60.00,Monday
7,-3.3
718,19.756085299514694
719,1.728194050314795
720,18.37400450859827
619,3694.8337780638226
633,1225.8261262081921
659,0.06075445004853115
661,34.46552730087142
690,126.11857757640385
716,0.0
843,2480.5008737070348
844,2480.5008737070348
907,0.0
908,0.0
971,0.0
972,0.0
1195,0.0
1197,0.0
2,1, 1,20, 0,11, 0.00,60.00,Monday
7,-3.3
718,19.812175486285366
719,3.4395661714368053
720,18.312676539942167
619,2421.2708525127878
633,830.5057073440743
659,0.041115038345312285
661,87.97600526283973
690,85.34963498276701
716,0.0
843,1679.3773707152068
844,1679.3773707152068
907,0.0
908,0.0
971,0.0
972,0.0
1195,0.0
1197,0.0
2,1, 1,20, 0,12, 0.00,60.00,Monday
7,-1.7
718,20.233928389023575
719,8.027548463631245
720,18.28903266467784
619,998.581698772175
633,345.39563105566714
659,0.01684596585652074
661,154.10067784435319
690,34.97017414378743
716,0.0
843,713.5176401414446
844,713.5176401414446
907,0.0
908,0.0
971,0.0
972,0.0
1195,0.0
1197,0.0
2,1, 1,20, 0,13, 0.00,60.00,Monday
7,-1.7
718,19.596695089026433
719,9.291318345046811
720,18.26147216229229
619,55.73509408338471
633,19.961114346940704
659,0.0009653691013635511
661,197.3697092965767
690,2.003988681424184
716,0.0
843,38.633108065745546
844,38.633108065745546
907,0.0
908,0.0
971,0.0
972,0.0
1195,0.0
1197,0.0
2,1, 1,20, 0,14, 0.00,60.00,Monday
7,-1.7
718,19.118622143873257
719,10.261601017480755
720,18.242722339805844
619,0.0
633,0.0
659,0.0
661,200.0
690,0.0
716,79.87430941446281
843,-177.89272264112878
844,-177.89272264112878
907,0.0
908,0.0
971,0.0
972,0.0
1195,0.0
1197,0.0
2,1, 1,20, 0,15, 0.00,60.00,Monday
7,0.0
718,20.82630072784622
719,13.474170757656253
720,18.2411976292829
619,0.0
633,0.0
659,0.0
661,200.0
690,0.0
716,0.0
843,-1114.1301696268129
844,-1114.1301696268129
907,0.0
908,0.0
971,0.0
972,0.0
1195,0.0
1197,0.0
2,1, 1,20, 0,16, 0.00,60.00,Monday
7,0.0
718,21.503276151285558
719,11.831323404667657
720,18.246490664998678
619,0.0
633,0.0
659,0.0
661,200.0
690,0.0
716,0.0
843,-1455.671727947174
844,-1455.671727947174
907,0.0
908,0.0
971,0.0
972,0.0
1195,0.0
1197,0.0
2,1, 1,20, 0,17, 0.00,60.00,Monday
7,0.0
718,22.17568876638357
719,9.609373773654553
720,18.264502754022566
619,0.0
633,0.0
659,0.0
661,200.0
690,0.0
716,0.0
843,-2102.239063136223
844,-2102.239063136223
907,0.0
908,0.0
971,0.0
972,0.0
1195,0.0
1197,0.0
2,1, 1,20, 0,18, 0.00,60.00,Monday
7,-1.1
718,22.034101563629168
719,7.400886206948093
720,18.302945538996806
619,0.0
633,0.0
659,0.0
661,200.0
690,0.0
716,0.0
843,-1908.8558618476363
844,-1908.8558618476363
907,0.0
908,0.0
971,0.0
972,0.0
1195,0.0
1197,0.0
2,1, 1,20, 0,19, 0.00,60.00,Monday
7,-2.8
718,20.463361602859784
719,3.337207131092826
720,18.329057629280396
619,0.0
633,0.0
659,0.0
661,200.0
690,0.0
716,85.44000000000005
843,-1225.5730113368645
844,-1225.5730113368645
907,0.0
908,0.0
971,0.0
972,0.0
1195,0.0
1197,0.0
2,1, 1,20, 0,20, 0.00,60.00,Monday
7,-2.8
718,19.78870980818606
719,0.5238342150265071
720,18.33157045656625
619,0.0
633,0.0
659,0.0
661,200.0
690,0.0
716,85.44000000000005
843,-883.6186198741434
844,-883.6186198741434
907,0.0
908,0.0
971,0.0
972,0.0
1195,0.0
1197,0.0
2,1, 1,20, 0,21, 0.00,60.00,Monday
7,-4.4
718,19.606446571998507
719,-2.024747709106053
720,18.30328717010556
619,0.0
633,0.0
659,0.0
661,200.0
690,0.0
716,23.90901475459309
843,-148.7817160071845
844,-148.7817160071845
907,0.0
908,0.0
971,0.0
972,0.0
1195,0.0
1197,0.0
2,1, 1,20, 0,22, 0.00,60.00,Monday
7,-5.0
718,19.63470387282331
719,-3.6706876799393506
720,18.218696724077628
619,797.9545956820531
633,294.13752953677044
659,0.014812693663649205
661,159.64062825180366
690,30.74920960438365
716,0.0
843,534.4382713504801
844,534.4382713504801
907,0.0
908,0.0
971,0.0
972,0.0
1195,0.0
1197,0.0
2,1, 1,20, 0,23, 0.00,60.00,Monday
7,-5.0
718,18.73748762793417
719,-5.335050345847558
720,18.156072653205143
619,487.45684379887746
633,181.37272319977532
659,0.009129037032520361
661,175.12659022965497
690,18.950683717204136
716,0.0
843,308.54016965245137
844,308.54016965245137
907,0.0
908,0.0
971,0.0
972,0.0
1195,0.0
1197,0.0
2,1, 1,20, 0,24, 0.00,60.00,Monday
7,-5.6
718,18.52495841474201
719,-5.790775421225469
720,18.011044175950424
619,1514.4787450563933
633,541.6869216374266
659,0.027895340492401024
661,123.99502463632469
690,57.90702013989302
716,0.0
843,972.5361347355247
844,972.5361347355247
907,0.0
908,0.0
971,0.0
972,0.0
1195,0.0
1197,0.0
2,2, 1,21, 0, 1, 0.00,60.00,Tuesday
7,-6.1
718,18.47311481215643
719,-6.110318022412002
720,17.880831383518267
619,2250.6972652739337
633,792.0255101343588
659,0.04114064107285173
661,87.90624685008946
690,85.40243925109101
716,0.0
843,1421.607400945054
844,1421.607400945054
907,0.0
908,0.0
971,0.0
972,0.0
1195,0.0
1197,0.0
2,2, 1,21, 0, 2, 0.00,60.00,Tuesday
7,-6.1
718,18.483961173386678
719,-5.759322644066046
720,17.72997291560962
619,3410.159658641971
633,1161.1520879526859
659,0.06039462487099704
661,35.44592414389116
690,125.37112152489539
716,0.0
843,2140.1313330802823
844,2140.1313330802823
907,0.0
908,0.0
971,0.0
972,0.0
1195,0.0
1197,0.0
2,2, 1,21, 0, 3, 0.00,60.00,Tuesday
7,-7.2
718,18.5048090072566
719,-5.614814446924611
720,17.584584422691723
619,4100.766845592955
633,1398.1467891570994
659,0.07340398535470852
661,0.0
690,152.3791072068808
716,0.0
843,2749.3819310533763
844,2749.3819310533763
907,0.0
908,0.0
971,0.0
972,0.0
1195,258.57813242040265
1197,258.57813242040265
2,2, 1,21, 0, 4, 0.00,60.00,Tuesday
7,-7.2
718,18.574081065699115
719,-5.7155368308449574
720,17.470539862584992
619,4100.4344160711535
633,1398.5268492814469
659,0.07340398535470852
661,0.0
690,152.3791072068808
716,0.0
843,3113.757311681711
844,3113.757311681711
907,0.0
908,0.0
971,0.0
972,0.0
1195,688.4767582299737
1197,688.4767582299737
2,2, 1,21, 0, 5, 0.00,60.00,Tuesday
7,-7.2
718,18.59803409678959
719,-5.7751449927600875
720,17.350070654332047
619,4098.920451415867
633,1400.25769342354
659,0.07340398535470852
661,0.0
690,152.3791072068808
716,0.0
843,3213.750922035457
844,3213.750922035457
907,0.0
908,0.0
971,0.0
972,0.0
1195,825.246149311929
1197,825.246149311929
2,2, 1,21, 0, 6, 0.00,60.00,Tuesday
7,-7.8
718,19.361162898273964
719,-5.620442452536157
720,17.22534033254128
619,4025.9590239107133
633,1393.6017503201738
659,0.07340398535470852
661,0.0
690,152.3791072068808
716,0.0
843,4375.397642594569
844,4375.397642594569
907,0.0
908,0.0
971,0.0
972,0.0
1195,2281.7764734880475
1197,2281.7764734880475
2,2, 1,21, 0, 7, 0.00,60.00,Tuesday
7,-7.8
718,19.560365539110503
719,-5.397524476932729
720,17.142534466782973
619,4007.9767715458265
633,1414.0184041268728
659,0.07340398535470852
661,0.0
690,152.3791072068808
716,85.44000000000005
843,4228.645569989196
844,4228.645569989196
907,0.0
908,0.0
971,0.0
972,0.0
1195,3294.9614617068664
1197,3294.9614617068664
2,2, 1,21, 0, 8, 0.00,60.00,Tuesday
7,-7.8
718,19.651135810236557
719,-5.381880050539512
720,17.029961452125974
619,4003.3146687763597
633,1419.3067661427538
659,0.07340398535470852
661,0.0
690,152.3791072068808
716,85.44000000000005
843,4005.0171604724856
844,4005.0171604724856
907,0.0
908,0.0
971,0.0
972,0.0
1195,3096.1477970357814
1197,3096.1477970357814
2,2, 1,21, 0, 9, 0.00,60.00,Tuesday
7,-5.6
718,19.686784263016715
719,-2.7922517960506292
720,16.944475078629196
619,4270.504829920303
633,1448.7648494959087
659,0.07340398535470852
661,0.0
690,152.3791072068808
716,82.45253396287072
843,2777.5994754972216
844,2777.5994754972216
907,0.0
908,0.0
971,0.0
972,0.0
1195,1329.6651950004862
1197,1329.6651950004862
2,2, 1,21, 0,10, 0.00,60.00,Tuesday
7,-2.2
718,19.854846043523178
719,2.683560595541193
720,16.88812182741769
619,2280.3326264796506
633,766.9197828581904
659,0.0377167989459003
661,97.23501043262921
690,78.29543354962344
716,0.0
843,1470.7956496440056
844,1470.7956496440056
907,0.0
908,0.0
971,0.0
972,0.0
1195,0.0
1197,0.0
2,2, 1,21, 0,11, 0.00,60.00,Tuesday
7,-2.2
718,19.798649481542377
719,9.608504439106559
720,16.82582426248482
619,843.229370499109
633,295.3671660500468
659,0.01447541526535874
661,160.55959306457407
690,30.049180617145392
716,0.0
843,586.0148228861235
844,586.0148228861235
907,0.0
908,0.0
971,0.0
972,0.0
1195,0.0
1197,0.0
2,2, 1,21, 0,12, 0.00,60.00,Tuesday
7,0.6
718,19.856846740079114
719,11.997713530313952
720,16.79652260727813
619,0.0
633,0.0
659,0.0
661,200.0
690,0.0
716,0.0
843,-4.730370084251263
844,-4.730370084251263
907,0.0
908,0.0
971,0.0
972,0.0
1195,0.0
1197,0.0
2,2, 1,21, 0,13, 0.00,60.00,Tuesday
7,1.7
718,20.17429392377866
719,14.7390847037905
720,16.794408209976673
619,0.0
633,0.0
659,0.0
661,200.0
690,0.0
716,0.0
843,-358.669533805667
844,-358.669533805667
907,0.0
908,0.0
971,0.0
972,0.0
1195,0.0
1197,0.0
2,2, 1,21, 0,14, 0.00,60.00,Tuesday
7,1.7
718,20.720178467472767
719,16.108835695081012
720,16.81548910900367
619,0.0
633,0.0
659,0.0
661,200.0
690,0.0
716,0.0
843,-790.8303765492819
844,-790.8303765492819
907,0.0
908,0.0
971,0.0
972,0.0
1195,0.0
1197,0.0
2,2, 1,21, 0,15, 0.00,60.00,Tuesday
7,2.2
718,21.619355617561634
719,17.618635018673437
720,16.8557681567525
619,0.0
633,0.0
659,0.0
661,200.0
690,0.0
716,0.0
843,-1558.7055760362746
844,-1558.7055760362746
907,0.0
908,0.0
971,0.0
972,0.0
1195,0.0
1197,0.0
2,2, 1,21, 0,16, 0.00,60.00,Tuesday
7,2.8
718,22.52645337850522
719,18.00223176002756
720,16.910791628629028
619,0.0
633,0.0
659,0.0
661,200.0
690,0.0
716,0.0
843,-2275.095174680144
844,-2275.095174680144
907,0.0
908,0.0
971,0.0
972,0.0
1195,0.0
1197,0.0
2,2, 1,21, 0,17, 0.00,60.00,Tuesday
7,2.8
718,23.23043640077429
719,14.703294844120439
720,16.980322421330836
619,0.0
633,0.0
659,0.0
661,200.0
690,0.0
716,0.0
843,-2837.0314327283486
844,-2837.0314327283486
907,0.0
908,0.0
971,0.0
972,0.0
1195,0.0
1197,0.0
2,2, 1,21, 0,18, 0.00,60.00,Tuesday
7,1.1
718,22.315746715148684
719,9.926969408129183
720,17.06658612034378
619,0.0
633,0.0
659,0.0
661,200.0
690,0.0
716,65.0199944503308
843,-2654.992562272744
844,-2654.992562272744
907,0.0
908,0.0
971,0.0
972,0.0
1195,0.0
1197,0.0
2,2, 1,21, 0,19, 0.00,60.00,Tuesday
7,0.0
718,22.19365131520949
719,5.565169177547119
720,17.140451500150792
619,0.0
633,0.0
659,0.0
661,200.0
690,0.0
716,0.0
843,-2356.916610753993
844,-2356.916610753993
907,0.0
908,0.0
971,0.0
972,0.0
1195,0.0
1197,0.0
2,2, 1,21, 0,20, 0.00,60.00,Tuesday
7,0.0
718,20.89502418088494
719,3.2207435113996032
720,17.186445811919665
619,0.0
633,0.0
659,0.0
661,200.0
690,0.0
716,85.44000000000005
843,-1746.4447899906645
844,-1746.4447899906645
907,0.0
908,0.0
971,0.0
972,0.0
1195,0.0
1197,0.0
2,2, 1,21, 0,21, 0.00,60.00,Tuesday
7,-1.7
718,20.13471378689576
719,1.3742577108183998
720,17.1969784103056
619,0.0
633,0.0
659,0.0
661,200.0
690,0.0
716,85.44000000000005
843,-1247.2193134396766
844,-1247.2193134396766
907,0.0
908,0.0
971,0.0
972,0.0
1195,0.0
1197,0.0
2,2, 1,21, 0,22, 0.00,60.00,Tuesday
7,-1.1
718,19.951710327153474
719,0.5428734337343192
720,17.178621355840814
619,0.0
633,0.0
659,0.0
661,200.0
690,0.0
716,29.855142590638692
843,-519.4560819403741
844,-519.4560819403741
907,0.0
908,0.0
971,0.0
972,0.0
1195,0.0
1197,0.0
2,2, 1,21, 0,23, 0.00,60.00,Tuesday
7,-1.1
718,19.473619681827937
719,0.07824684786806729
720,17.135332370811422
619,0.0
633,0.0
659,0.0
661,200.0
690,0.0
716,0.0
843,-741.5875987193158
844,-741.5875987193158
907,0.0
908,0.0
971,0.0
972,0.0
1195,0.0
1197,0.0
2,2, 1,21, 0,24, 0.00,60.00,Tuesday
7,-0.6
718,18.643240556535012
719,-0.00023115335302981098
720,17.07552840008508
619,0.0
633,0.0
659,0.0
661,200.0
690,0.0
716,0.0
843,-25.611109060448143
844,-25.611109060448143
907,0.0
908,0.0
971,0.0
972,0.0
1195,0.0
1197,0.0
2,3, 1,22, 0, 1, 0.00,60.00,Wednesday
7,-1.1
718,18.584915979727896
719,0.21810934155160974
720,16.98952351770154
619,960.1425462707269
633,318.9406066279535
659,0.015855261777557056
661,156.79999743626993
690,32.91361924436831
716,0.0
843,649.7535165639893
844,649.7535165639893
907,0.0
908,0.0
971,0.0
972,0.0
1195,0.0
1197,0.0
2,3, 1,22, 0, 2, 0.00,60.00,Wednesday
7,-1.1
718,18.570582430201387
719,0.18695020669501325
720,16.909346607826887
619,1315.0275049019813
633,432.32723895161536
659,0.021519724724871295
661,141.36633148491327
690,44.672364145603304
716,0.0
843,933.258115418148
844,933.258115418148
907,0.0
908,0.0
971,0.0
972,0.0
1195,0.0
1197,0.0
2,3, 1,22, 0, 3, 0.00,60.00,Wednesday
7,-0.6
718,18.636364043383274
719,0.1839974029547924
720,16.824443622000846
619,1924.7142603103714
633,617.6857405572808
659,0.030627207874078625
661,116.55164845320205
690,63.57844343325397
716,0.0
843,1369.7788939689708
844,1369.7788939689708
907,0.0
908,0.0
971,0.0
972,0.0
1195,0.0
1197,0.0
2,3, 1,22, 0, 4, 0.00,60.00,Wednesday
7,-0.6
718,18.53533268714979
719,0.7020435703576513
720,16.743290224057525
619,2385.487671158073
633,758.3047961818289
659,0.037556934213858355
661,97.67058550738687
690,77.96373153085094
716,0.0
843,1691.5209758669444
844,1691.5209758669444
907,0.0
908,0.0
971,0.0
972,0.0
1195,0.0
1197,0.0
2,3, 1,22, 0, 5, 0.00,60.00,Wednesday
7,-0.6
718,18.579476504865433
719,1.14091492670684
720,16.657282173856817
619,2672.9868161118416
633,841.7723948131315
659,0.041778909268516636
661,86.16719087763613
690,86.72805028481527
716,0.0
843,1908.9224742460137
844,1908.9224742460137
907,0.0
908,0.0
971,0.0
972,0.0
1195,0.0
1197,0.0
2,3, 1,22, 0, 6, 0.00,60.00,Wednesday
7,-1.0
718,19.18631512798746
719,2.129422365113883
720,16.557687542878746
619,4892.079567228847
633,1474.5181988751217
659,0.07340398535470852
661,0.0
690,152.3791072068808
716,72.9888530968007
843,2862.9252753449928
844,2862.9252753449928
907,0.0
908,0.0
971,0.0
972,0.0
1195,109.7458705361405
1197,109.7458705361405
2,3, 1,22, 0, 7, 0.00,60.00,Wednesday
7,-1.1
718,19.478632172662948
719,2.021270920616314
720,16.515653221249792
619,4863.911989292333
633,1490.778192829393
659,0.07340398535470852
661,0.0
690,152.3791072068808
716,85.44000000000005
843,2951.6680735266837
844,2951.6680735266837
907,0.0
908,0.0
971,0.0
972,0.0
1195,516.9528986368832
1197,516.9528986368832
2,3, 1,22, 0, 8, 0.00,60.00,Wednesday
7,-1.1
718,19.62888302625285
719,2.257664355773128
720,16.45232556148064
619,4838.817088256153
633,1494.4001967671272
659,0.07316332299702569
661,0.6557201397713985
690,151.87826677335454
716,56.80779719738184
843,2775.8034551807086
844,2775.8034551807086
907,0.0
908,0.0
971,0.0
972,0.0
1195,0.0
1197,0.0
2,3, 1,22, 0, 9, 0.00,60.00,Wednesday
7,0.0
718,19.767342247366027
719,3.0843640602738467
720,16.394352256053573
619,3296.5098059644915
633,1039.892044298267
659,0.050269430335974766
661,63.03351216406339
690,104.35343174710201
716,0.0
843,2343.570877831995
844,2343.570877831995
907,0.0
908,0.0
971,0.0
972,0.0
1195,0.0
1197,0.0
2,3, 1,22, 0,10, 0.00,60.00,Wednesday
7,1.1
718,19.752079192599325
719,4.03045005580805
720,16.336155401054647
619,2871.9575031631994
633,901.5085689904013
659,0.04304041137501109
661,82.73004206235444
690,89.34694708660506
716,0.0
843,2072.688018840674
844,2072.688018840674
907,0.0
908,0.0
971,0.0
972,0.0
1195,0.0
1197,0.0
2,3, 1,22, 0,11, 0.00,60.00,Wednesday
7,1.1
718,19.749375759512304
719,5.018628772087612
720,16.277125059805762
619,2694.4207230332263
633,848.8188668123992
659,0.04053827301077438
661,89.54748760606894
690,84.15279546988681
716,0.0
843,1969.5110042922042
844,1969.5110042922042
907,0.0
908,0.0
971,0.0
972,0.0
1195,0.0
1197,0.0
2,3, 1,22, 0,12, 0.00,60.00,Wednesday
7,1.7
718,19.762101795900023
719,6.659745977852937
720,16.22626803843146
619,2412.6315821092826
633,757.4083961331285
659,0.0359800415342212
661,101.96706252295265
690,74.69047877189269
716,0.0
843,1779.0721857830376
844,1779.0721857830376
907,0.0
908,0.0
971,0.0
972,0.0
1195,0.0
1197,0.0
2,3, 1,22, 0,13, 0.00,60.00,Wednesday
7,2.2
718,19.73699901259104
719,6.914383468967205
720,16.179316706122023
619,2151.892268602072
633,674.2409813991829
659,0.03187582467693057
661,113.14960755087698
690,66.17062521407297
716,0.0
843,1628.2954875942123
844,1628.2954875942123
907,0.0
908,0.0
971,0.0
972,0.0
1195,0.0
1197,0.0
2,3, 1,22, 0,14, 0.00,60.00,Wednesday
7,2.2
718,19.725717783055767
719,7.104890246777949
720,16.139118318514157
619,2088.9836855977687
633,655.0183900957775
659,0.030983418824439002
661,115.58109910594503
690,64.31809111974563
716,0.0
843,1586.7992443165203
844,1586.7992443165203
907,0.0
908,0.0
971,0.0
972,0.0
1195,0.0
1197,0.0
2,3, 1,22, 0,15, 0.00,60.00,Wednesday
7,3.0
718,19.729121351705345
719,7.700701591919767
720,16.119422592526906
619,3069.348773359603
633,929.9380856829179
659,1.8823157178549772
661,80.64454103137354
690,90.92171845486605
716,69.10384970249457
843,1569.7775442621678
844,1569.7775442621678
907,0.0
908,0.0
971,0.0
972,0.0
1195,0.0
1197,0.0
2,3, 1,22, 0,16, 0.00,60.00,Wednesday
7,2.8
718,19.70224408542776
719,8.13932256310785
720,16.086853706598003
619,2989.223323175144
633,909.4968460790907
659,34.048067711096785
661,76.98466264141351
690,93.43176135658206
716,74.27881524263779
843,1452.4251428256393
844,1452.4251428256393
907,0.0
908,0.0
971,0.0
972,0.0
1195,0.0
1197,0.0
2,3, 1,22, 0,17, 0.00,60.00,Wednesday
7,2.8
718,19.79018700510571
719,8.32875997897325
720,16.036823510848937
619,1374.7576192048402
633,433.9796674614344
659,16.251585033647885
661,141.28318139844447
690,44.59620395538359
716,0.0
843,1051.6112797072528
844,1051.6112797072528
907,0.0
908,0.0
971,0.0
972,0.0
1195,0.0
1197,0.0
2,3, 1,22, 0,18, 0.00,60.00,Wednesday
7,2.2
718,19.64888524225128
719,6.961411348299875
720,16.011155180509608
619,951.5861146086559
633,308.2934141490686
659,28.94288686248476
661,154.85788014642134
690,34.08539199718746
716,0.0
843,723.1569760830916
844,723.1569760830916
907,0.0
908,0.0
971,0.0
972,0.0
1195,0.0
1197,0.0
2,3, 1,22, 0,19, 0.00,60.00,Wednesday
7,2.0
718,19.704359854156685
719,5.664153799444902
720,15.991921414282354
619,1054.7837240407089
633,340.92614041915306
659,32.68430264911146
661,149.7480928025802
690,37.922620855286105
716,0.0
843,790.88535841064
844,790.88535841064
907,0.0
908,0.0
971,0.0
972,0.0
1195,0.0
1197,0.0
2,3, 1,22, 0,20, 0.00,60.00,Wednesday
7,2.2
718,19.707185525930846
719,5.582446483064835
720,15.997772538511212
619,2545.380009438681
633,789.8329634074745
659,81.14269666878897
661,82.8275536490224
690,88.40067275897759
716,85.44000000000005
843,752.1999044045951
844,752.1999044045951
907,0.0
908,0.0
971,0.0
972,0.0
1195,0.0
1197,0.0
2,3, 1,22, 0,21, 0.00,60.00,Wednesday
7,3.3
718,19.74449257354395
719,5.38509388964506
720,15.971703388994966
619,2295.8386486740637
633,703.3782546341225
659,70.96559717946836
661,96.83439414220942
690,78.02165257179705
716,79.65199820584402
843,696.4192927395561
844,696.4192927395561
907,0.0
908,0.0
971,0.0
972,0.0
1195,0.0
1197,0.0
2,3, 1,22, 0,22, 0.00,60.00,Wednesday
7,3.3
718,19.825069873805205
719,4.809702052487166
720,15.924690529328961
619,1039.1269474180804
633,328.9311882728719
659,33.15664830626995
661,151.79881736104554
690,36.45333011392949
716,0.0
843,759.0209405701135
844,759.0209405701135
907,0.0
908,0.0
971,0.0
972,0.0
1195,0.0
1197,0.0
2,3, 1,22, 0,23, 0.00,60.00,Wednesday
7,3.3
718,18.68440228448224
719,4.120065708588474
720,15.876908504553215
619,84.02828849373759
633,27.320008770163504
659,2.7492692864054766
661,196.00327422200152
690,3.0226131818959803
716,0.0
843,56.8069508551871
844,56.8069508551871
907,0.0
908,0.0
971,0.0
972,0.0
1195,0.0
1197,0.0
2,3, 1,22, 0,24, 0.00,60.00,Wednesday
7,3.0
718,18.5855078995443
719,4.076708391637276
720,15.84586685574753
619,674.0303671889158
633,211.13078842591486
659,21.960718327186544
661,168.2965930430333
690,23.96086577428921
716,0.0
843,499.9239057275363
844,499.9239057275363
907,0.0
908,0.0
971,0.0
972,0.0
1195,0.0
1197,0.0
2,4, 1,23, 0, 1, 0.00,60.00,Thursday
7,2.8
718,18.55031295628208
719,4.208797538835868
720,15.808203705265417
619,1243.4874598408996
633,384.192961620417
659,38.45452733205812
661,142.39537768934244
690,43.533508425355784
716,0.0
843,920.5575618527528
844,920.5575618527528
907,0.0
908,0.0
971,0.0
972,0.0
1195,0.0
1197,0.0
2,4, 1,23, 0, 2, 0.00,60.00,Thursday
7,2.8
718,18.57869028912326
719,4.283525845759991
720,15.767587109998738
619,1680.813270931224
633,513.089580145355
659,51.396574627911484
661,123.00827822075047
690,58.184998771013156
716,0.0
843,1244.9761599307203
844,1244.9761599307203
907,0.0
908,0.0
971,0.0
972,0.0
1195,0.0
1197,0.0
2,4, 1,23, 0, 3, 0.00,60.00,Thursday
7,2.2
718,18.566176036992754
719,4.06594430674228
720,15.723623606654023
619,2019.9190574860204
633,618.1073956477742
659,59.598030892090605
661,107.26362759756707
690,70.02428309322423
716,0.0
843,1492.712310917217
844,1492.712310917217
907,0.0
908,0.0
971,0.0
972,0.0
1195,0.0
1197,0.0
2,4, 1,23, 0, 4, 0.00,60.00,Thursday
7,2.2
718,18.614746421507576
719,4.228768896699496
720,15.68100318996209
619,2178.4662337960754
633,663.7141115787517
659,64.05308164225372
661,100.38321229112945
690,75.21926664684509
716,0.0
843,1604.469936855212
844,1604.469936855212
907,0.0
908,0.0
971,0.0
972,0.0
1195,0.0
1197,0.0
2,4, 1,23, 0, 5, 0.00,60.00,Thursday
7,2.2
718,18.62038976641302
719,3.6634394589943464
720,15.638050447811588
619,2169.4791842034183
633,661.8574227552888
659,63.81643663697664
661,100.75124790547684
690,74.94122298398757
716,0.0
843,1587.447549441953
844,1587.447549441953
907,0.0
908,0.0
971,0.0
972,0.0
1195,0.0
1197,0.0
2,4, 1,23, 0, 6, 0.00,60.00,Thursday
7,1.7
718,19.34700444591507
719,2.9819418258722274
720,15.602331857983865
619,3506.8217138511463
633,1043.468647200451
659,106.39330669386148
661,41.77783206593393
690,119.28714514002002
716,0.0
843,2558.7387193013037
844,2558.7387193013037
907,0.0
908,0.0
971,0.0
972,0.0
1195,0.0
1197,0.0
2,4, 1,23, 0, 7, 0.00,60.00,Thursday
7,1.7
718,19.281388936362262
719,2.9515391831442974
720,15.60339777879034
619,4580.018898633635
633,1337.6069380333297
659,134.42732011411175
661,0.0
690,152.3791072068808
716,85.44000000000005
843,2511.73243664286
844,2511.73243664286
907,0.0
908,0.0
971,0.0
972,0.0
1195,0.0
1197,0.0
2,4, 1,23, 0, 8, 0.00,60.00,Thursday
7,1.7
718,19.33987268453813
719,2.9256444530077443
720,15.553124733591432
619,4581.452296033759
633,1335.897523151438
659,134.42732011411175
661,0.0
690,152.3791072068808
716,85.44000000000005
843,2408.256849575764
844,2408.256849575764
907,0.0
908,0.0
971,0.0
972,0.0
1195,0.0
1197,0.0
2,4, 1,23, 0, 9, 0.00,60.00,Thursday
7,1.7
718,19.60642335007837
719,3.729347762574315
720,15.50909677391897
619,3837.95061257544
633,1152.0649735328136
659,115.69843955047465
661,27.745201370209283
690,129.86381660672475
716,39.46802742678696
843,2227.0146165031
844,2227.0146165031
907,0.0
908,0.0
971,0.0
972,0.0
1195,0.0
1197,0.0
2,4, 1,23, 0,10, 0.00,60.00,Thursday
7,2.2
718,19.759125325213002
719,5.673788143697907
720,15.4618121630432
619,2576.5482053288747
633,796.5122595311723
659,82.09874662483959
661,81.53822686451568
690,89.37314400146593
716,0.0
843,1833.4632499733416
844,1833.4632499733416
907,0.0
908,0.0
971,0.0
972,0.0
1195,0.0
1197,0.0
2,4, 1,23, 0,11, 0.00,60.00,Thursday
7,2.2
718,19.740148434171267
719,8.045185911102775
720,15.425516363302084
619,2162.443640363879
633,678.0683532498216
659,69.68149579295235
661,99.45530369560555
690,75.8551149446586
716,0.0
843,1579.2650044177208
844,1579.2650044177208
907,0.0
908,0.0
971,0.0
972,0.0
1195,0.0
1197,0.0
2,4, 1,23, 0,12, 0.00,60.00,Thursday
7,3.0
718,19.763153370709162
719,11.095745015289884
720,15.391435827898205
619,1671.1253144381544
633,523.0578860981615
659,61.69032561445427
661,121.42280462421957
690,59.31011390930081
716,0.0
843,1260.930648988453
844,1260.930648988453
907,0.0
908,0.0
971,0.0
972,0.0
1195,0.0
1197,0.0
2,4, 1,23, 0,13, 0.00,60.00,Thursday
7,4.0
718,19.738014413837494
719,12.665976934936186
720,15.366183373574517
619,1199.2613647580235
633,373.3772479405455
659,40.48674329773739
661,145.0550229051626
690,41.59235903175531
716,0.0
843,943.2992348834214
844,943.2992348834214
907,0.0
908,0.0
971,0.0
972,0.0
1195,0.0
1197,0.0
2,4, 1,23, 0,14, 0.00,60.00,Thursday
7,3.9
718,19.796501735675136
719,17.951265923809125
720,15.340285454364759
619,323.18802377680214
633,103.02650911240893
659,11.041555935393946
661,184.84607239136685
690,11.469753516612139
716,0.0
843,258.196410108907
844,258.196410108907
907,0.0
908,0.0
971,0.0
972,0.0
1195,0.0
1197,0.0
2,4, 1,23, 0,15, 0.00,60.00,Thursday
7,6.0
718,20.324308276256826
719,19.156168334096893
720,15.350618659583121
619,0.0
633,0.0
659,0.0
661,200.0
690,0.0
716,0.0
843,-433.9454329768523
844,-433.9454329768523
907,0.0
908,0.0
971,0.0
972,0.0
1195,0.0
1197,0.0
2,4, 1,23, 0,16, 0.00,60.00,Thursday
7,6.7
718,20.90071537119915
719,17.03253908039846
720,15.393051734933529
619,0.0
633,0.0
659,0.0
661,200.0
690,0.0
716,0.0
843,-864.9894020285119
844,-864.9894020285119
907,0.0
908,0.0
971,0.0
972,0.0
1195,0.0
1197,0.0
2,4, 1,23, 0,17, 0.00,60.00,Thursday
7,6.7
718,20.558123624338826
719,14.878098010223233
720,15.461003517038847
619,0.0
633,0.0
659,0.0
661,200.0
690,0.0
716,68.34818377817587
843,-1474.3506527978989
844,-1474.3506527978989
907,0.0
908,0.0
971,0.0
972,0.0
1195,0.0
1197,0.0
2,4, 1,23, 0,18, 0.00,60.00,Thursday
7,3.9