Program Version,EnergyPlus, Version 22.2.0-c249759bad, YMD=2023.09.01 20:26
1,5,Environment Title[],Latitude[deg],Longitude[deg],Time Zone[],Elevation[m]
2,8,Day of Simulation[],Month[],Day of Month[],DST Indicator[1=yes 0=no],Hour[],StartMinute[],EndMinute[],DayType
3,5,Cumulative Day of Simulation[],Month[],Day of Month[],DST Indicator[1=yes 0=no],DayType  ! When Daily Report Variables Requested
4,2,Cumulative Days of Simulation[],Month[]  ! When Monthly Report Variables Requested
5,1,Cumulative Days of Simulation[] ! When Run Period Report Variables Requested
6,1,Calendar Year of Simulation[] ! When Annual Report Variables Requested
581,11,LIVING,AFN Zone Infiltration Air Change Rate [ach] !RunPeriod [Value,Min,Month,Day,Hour,Minute,Max,Month,Day,Hour,Minute]
582,11,ATTIC,AFN Zone Infiltration Air Change Rate [ach] !RunPeriod [Value,Min,Month,Day,Hour,Minute,Max,Month,Day,Hour,Minute]
583,11,CRAWLSPACE,AFN Zone Infiltration Air Change Rate [ach] !RunPeriod [Value,Min,Month,Day,Hour,Minute,Max,Month,Day,Hour,Minute]
1038,11,Facility,Facility Heating Setpoint Not Met Time [hr] !RunPeriod [Value,Min,Month,Day,Hour,Minute,Max,Month,Day,Hour,Minute]
1039,11,Facility,Facility Cooling Setpoint Not Met Time [hr] !RunPeriod [Value,Min,Month,Day,Hour,Minute,Max,Month,Day,Hour,Minute]
1115,11,DX_HEATING_COIL,Heating Coil Heating Energy [J] !RunPeriod [Value,Min,Month,Day,Hour,Minute,Max,Month,Day,Hour,Minute]
1128,11,DX_HEATING_COIL,Heating Coil Electricity Energy [J] !RunPeriod [Value,Min,Month,Day,Hour,Minute,Max,Month,Day,Hour,Minute]
1153,11,DX_HEATING_COIL,Heating Coil Defrost Electricity Energy [J] !RunPeriod [Value,Min,Month,Day,Hour,Minute,Max,Month,Day,Hour,Minute]
1154,11,DX_HEATING_COIL,Heating Coil Crankcase Heater Electricity Energy [J] !RunPeriod [Value,Min,Month,Day,Hour,Minute,Max,Month,Day,Hour,Minute]
1155,11,HEATING_RESISTANCE_BACKUP,Heating Coil Heating Energy [J] !RunPeriod [Value,Min,Month,Day,Hour,Minute,Max,Month,Day,Hour,Minute]
1156,11,HEATING_RESISTANCE_BACKUP,Heating Coil Electricity Energy [J] !RunPeriod [Value,Min,Month,Day,Hour,Minute,Max,Month,Day,Hour,Minute]
1292,11,WATER HEATER,Water Heater Heat Loss Energy [J] !RunPeriod [Value,Min,Month,Day,Hour,Minute,Max,Month,Day,Hour,Minute]
1306,11,WATER HEATER,Water Heater Heating Energy [J] !RunPeriod [Value,Min,Month,Day,Hour,Minute,Max,Month,Day,Hour,Minute]
1307,11,WATER HEATER,Water Heater Unmet Demand Heat Transfer Energy [J] !RunPeriod [Value,Min,Month,Day,Hour,Minute,Max,Month,Day,Hour,Minute]
1308,11,WATER HEATER,Water Heater Electricity Energy [J] !RunPeriod [Value,Min,Month,Day,Hour,Minute,Max,Month,Day,Hour,Minute]
13,11,Electricity:Facility [J] !RunPeriod [Value,Min,Month,Day,Hour,Minute,Max,Month,Day,Hour,Minute]
1134,11,Heating:Electricity [J] !RunPeriod [Value,Min,Month,Day,Hour,Minute,Max,Month,Day,Hour,Minute]
1096,11,Cooling:Electricity [J] !RunPeriod [Value,Min,Month,Day,Hour,Minute,Max,Month,Day,Hour,Minute]
562,11,Fans:Electricity [J] !RunPeriod [Value,Min,Month,Day,Hour,Minute,Max,Month,Day,Hour,Minute]
1379,11,Pumps:Electricity [J] !RunPeriod [Value,Min,Month,Day,Hour,Minute,Max,Month,Day,Hour,Minute]
1326,11,WaterSystems:Electricity [J] !RunPeriod [Value,Min,Month,Day,Hour,Minute,Max,Month,Day,Hour,Minute]
61,11,InteriorLights:Electricity [J] !RunPeriod [Value,Min,Month,Day,Hour,Minute,Max,Month,Day,Hour,Minute]
1046,11,ExteriorLights:Electricity [J] !RunPeriod [Value,Min,Month,Day,Hour,Minute,Max,Month,Day,Hour,Minute]
134,11,InteriorEquipment:Electricity [J] !RunPeriod [Value,Min,Month,Day,Hour,Minute,Max,Month,Day,Hour,Minute]
170,11,gas_dryer:InteriorEquipment:Electricity [J] !RunPeriod [Value,Min,Month,Day,Hour,Minute,Max,Month,Day,Hour,Minute]
207,11,clotheswasher:InteriorEquipment:Electricity [J] !RunPeriod [Value,Min,Month,Day,Hour,Minute,Max,Month,Day,Hour,Minute]
244,11,dishwasher:InteriorEquipment:Electricity [J] !RunPeriod [Value,Min,Month,Day,Hour,Minute,Max,Month,Day,Hour,Minute]
281,11,refrigerator:InteriorEquipment:Electricity [J] !RunPeriod [Value,Min,Month,Day,Hour,Minute,Max,Month,Day,Hour,Minute]
318,11,electric_mels:InteriorEquipment:Electricity [J] !RunPeriod [Value,Min,Month,Day,Hour,Minute,Max,Month,Day,Hour,Minute]
355,11,NaturalGas:Facility [J] !RunPeriod [Value,Min,Month,Day,Hour,Minute,Max,Month,Day,Hour,Minute]
403,11,InteriorEquipment:NaturalGas [J] !RunPeriod [Value,Min,Month,Day,Hour,Minute,Max,Month,Day,Hour,Minute]
476,11,gas_dryer:InteriorEquipment:NaturalGas [J] !RunPeriod [Value,Min,Month,Day,Hour,Minute,Max,Month,Day,Hour,Minute]
513,11,gas_mels:InteriorEquipment:NaturalGas [J] !RunPeriod [Value,Min,Month,Day,Hour,Minute,Max,Month,Day,Hour,Minute]
End of Data Dictionary
1,EXTREME_WINTER,  46.68, -68.05,  -5.00, 146.00
5,15
1038,73.75,0.0,12,22, 1,15,0.25,12,23, 1,60
1039,0.0,0.0,12,22, 1,15,0.0,12,22, 1,15
581,0.45615805920034563,0.25248125745339134,12,23,19,60,0.8791480878646103,12,31,13,60
582,4.370632576901206,0.08461785373601245, 1, 5,21,60,15.871019306043154,12,31,13,60
583,0.05020637597618152,0.0005279922438880057,12,27,23, 3,0.06300336598292408,12,31,11,60
1115,2998106897.1708837,0.0,12,22,23, 3,3006439.884566543,12,23,11,15
1128,1113546485.538997,0.0,12,22,23, 3,861251.7520957781,12,29,11,60
1153,22007939.34988952,0.0,12,22,23, 3,78785.1714864119,12,23, 6,60
1154,4946397.36953947,0.0,12,22, 1,30,116896.3886231333,12,23,15,15
1155,6025821707.827834,0.0,12,22, 1,15,9412860.99276614, 1, 3, 4,45
1156,6025821707.827834,0.0,12,22, 1,15,9412860.99276614, 1, 3, 4,45
1292,-55140927.979282275,-44694.81948566449, 1, 3, 7,15,-4730.562361972863, 1, 1,10,33
1306,434171512.86516726,0.0,12,22, 1,15,4050000.0,12,22, 8,45
1307,98969120.73114514,0.0,12,22, 1,15,11184240.916442724,12,27,10,30
1308,434171512.86516726,0.0,12,22, 1,15,4050000.0,12,22, 8,45
13,8530223467.445889,746857.7970040209,12,23,15,15,14739400.66801307, 1, 2, 8,30
61,646981127.1939323,88139.10953165221,12,22, 1,15,1282023.4113694867,12,22,20,15
134,151290040.75163814,63564.01800854099,12,22, 4,15,156554.22484006523,12,27,20,15
170,11185820.069951689,348.4159749238097,12,22, 4,15,17476.39704006126,12,27,12,15
207,13893028.5742839,815.2532113832032,12,22, 3,15,22990.642799023623,12,27,10,15
244,27284301.07562584,1521.856143006317,12,22, 4,15,53038.631142310165,12,27,20,15
281,98926891.03177746,59938.60262432081,12,22, 5,15,81951.81706819107,12,22,19,15
318,0.0,0.0,12,22, 1,15,0.0,12,22, 1,15
355,422701517.16107386,18561.32405820678,12,22, 4,15,724774.895203776,12,27,18,15
403,422701517.16107386,18561.32405820678,12,22, 4,15,724774.895203776,12,27,18,15
476,227882097.80545202,7098.072629279515,12,22, 4,15,356036.3026282215,12,27,12,15
513,0.0,0.0,12,22, 1,15,0.0,12,22, 1,15
562,131458256.5488879,25037.723416760913,12,22,23,15,93089.5418522367,12,26,10,60
1046,0.0,0.0,12,22, 1,15,0.0,12,22, 1,15
1096,0.0,0.0,12,22, 1,15,0.0,12,22, 1,15
1134,7166322530.086265,375349.3308098403,12,22,23,15,10051624.015080988, 1, 3, 4,45
1326,434171512.86516726,0.0,12,22, 1,15,4050000.0,12,22, 8,45
1379,0.0,0.0,12,22, 1,15,0.0,12,22, 1,15
1,EXTREME_SUMMER,  46.68, -68.05,  -5.00, 146.00
5,7
1038,0.0,0.0, 7, 6, 1,15,0.0, 7, 6, 1,15
1039,20.25,0.0, 7, 6, 1,15,0.25, 7, 6,12,60
581,0.17829524409144737,0.03146319083872919, 7,12, 2,60,0.6865166976312395, 7, 9,17,52
582,3.1834268387174363,0.0, 7, 6, 2,18,13.865924829324893, 7, 9,17,52
583,0.020713499958269273,0.0001409534768450402, 7,10,23, 3,0.047304134637897725, 7, 6,15,48
1115,0.0,0.0, 7, 6, 1, 7,0.0, 7, 6, 1, 7
1128,0.0,0.0, 7, 6, 1, 7,0.0, 7, 6, 1, 7
1153,0.0,0.0, 7, 6, 1, 7,0.0, 7, 6, 1, 7
1154,3420000.0,0.0, 7, 6, 1, 7,180000.0, 7, 8, 2,45
1155,0.0,0.0, 7, 6, 1, 7,0.0, 7, 6, 1, 7
1156,0.0,0.0, 7, 6, 1, 7,0.0, 7, 6, 1, 7
1292,-22262496.690154355,-34897.299673949085, 7, 8, 4,60,-3777.497102588553, 7,10, 7,59
1306,174792995.60431063,0.0, 7, 6, 1, 7,4050000.0, 7,11,10,30
1307,33066526.853625696,0.0, 7, 6, 1, 7,8902066.860993877, 7,11,10,30
1308,174792995.60431063,0.0, 7, 6, 1, 7,4050000.0, 7,11,10,30
13,824239555.9439346,151703.1275401932, 7, 6, 4,15,6226444.871780731, 7,11,19,30
61,301924526.02383536,88139.10953165221, 7, 6, 1,15,1282023.4113694867, 7, 6,20,15
134,70666020.44019976,63564.01800854099, 7, 6, 4,15,156554.22484006523, 7,11,20,15
170,5241013.419656067,348.4159749238097, 7, 6, 4,15,17476.39704006126, 7,11,12,15
207,6509451.13922267,815.2532113832032, 7, 6, 3,15,22990.642799023623, 7,11,10,15
244,12749673.399825225,1521.856143006317, 7, 6, 4,15,53038.631142310165, 7,11,20,15
281,46165882.481495745,59938.60262432081, 7, 6, 5,15,81951.81706819107, 7, 6,19,15
318,0.0,0.0, 7, 6, 1,15,0.0, 7, 6, 1,15
355,197687796.27748066,18561.32405820678, 7, 6, 4,15,724774.895203776, 7,11,18,15
403,197687796.27748066,18561.32405820678, 7, 6, 4,15,724774.895203776, 7,11,18,15
476,106772067.24485716,7098.072629279515, 7, 6, 4,15,356036.3026282215, 7,11,12,15
513,0.0,0.0, 7, 6, 1,15,0.0, 7, 6, 1,15
562,29290167.84094099,0.0, 7, 6, 1,30,93089.54185223668, 7, 6,11,60
1046,0.0,0.0, 7, 6, 1,15,0.0, 7, 6, 1,15
1096,244145846.03464735,0.0, 7, 6, 1,30,877580.3791075563, 7,11,16,15
1134,3420000.0,0.0, 7, 6, 1,15,180000.0, 7, 8, 2,45
1326,174792995.60431063,0.0, 7, 6, 1,15,4050000.0, 7, 6, 8,45
1379,0.0,0.0, 7, 6, 1,15,0.0, 7, 6, 1,15
1,ANNUAL,  46.68, -68.05,  -5.00, 146.00
5,365
1038,349.0,0.0, 1, 1, 1,15,0.25, 1, 1, 4,60
1039,298.25,0.0, 1, 1, 1,15,0.25, 5,21,14,45
581,0.29819550677012857,0.0, 8, 3,23, 3,1.1179341744574787, 2,10,14,60
582,3.639842183050805,0.0, 1,15,19,52,27.01762702593119, 4, 3,17,52
583,0.02683072026480677,0.0000406341149958461, 8, 3,23, 7,0.06847193913307897,12, 7, 8,60
1115,38112245279.3054,0.0, 1, 4,23, 3,4160417.8710136316, 1, 6,17,30
1128,12489479124.40838,0.0, 1, 4,23, 3,1011979.0688274148, 1, 6,17,30
1153,342975189.4224009,0.0, 1, 4,23, 3,102572.0062646587, 2,25,19,30
1154,1209568689.3252573,0.0, 1, 1, 1, 7,180000.0, 2,24,16,60
1155,35798772705.03181,0.0, 1, 4,23, 3,9412860.99276614, 1, 4, 5,15
1156,35798772705.03181,0.0, 1, 4,23, 3,9412860.99276614, 1, 4, 5,15
1292,-1261416780.3120573,-44208.91245680861, 1, 3, 6,15,-2298.1547041999165, 4, 8,10,31
1306,9990023699.56852,0.0, 1, 1, 1, 7,4050000.0, 1, 5,19,30
1307,2125944108.2632184,0.0, 1, 1, 1, 7,11955915.929914156, 2,16,10,30
1308,9990023699.56852,0.0, 1, 1, 1, 7,4050000.0, 1, 5,19,30
13,84477391289.20564,151703.1275401932, 5,11, 4,15,14792281.396265035, 1, 3, 7,30
61,15743207428.383959,88139.10953165221, 1, 1, 1,15,1282023.4113694867, 1, 1,20,15
134,3685071073.4325233,63564.01800854099, 1, 2, 4,15,156554.22484006523, 1, 1,20,15
170,273393721.45532674,348.4159749238097, 1, 2, 4,15,17476.39704006126, 1, 1,12,15
207,339560869.0695816,815.2532113832032, 1, 2, 3,15,22990.642799023623, 1, 1,10,15
244,664895467.8009144,1521.856143006317, 1, 2, 4,15,53038.631142310165, 1, 1,20,15
281,2407221015.106824,59938.60262432081, 1, 1, 5,15,81951.81706819107, 1, 1,19,15
318,0.0,0.0, 1, 1, 1,15,0.0, 1, 1, 1,15
355,10310294493.051695,18561.32405820678, 1, 2, 4,15,724774.895203776, 1, 1,18,15
403,10310294493.051695,18561.32405820678, 1, 2, 4,15,724774.895203776, 1, 1,18,15
476,5569688622.066177,7098.072629279515, 1, 2, 4,15,356036.3026282215, 1, 1,12,15
513,0.0,0.0, 1, 1, 1,15,0.0, 1, 1, 1,15
562,1813618374.9545925,0.0, 2,23,23,15,93089.54185223671, 2,21,10,15
1046,0.0,0.0, 1, 1, 1,15,0.0, 1, 1, 1,15
1096,3404675004.676847,0.0, 1, 1, 1,15,919423.3381353696, 7,23,15,60
1134,49840795708.18778,0.0, 2,24,14,60,10020265.869609632, 1, 4, 8,45
1326,9990023699.568518,0.0, 1, 1, 1,15,4050000.0, 1, 1, 9,45
1379,0.0,0.0, 1, 1, 1,15,0.0, 1, 1, 1,15
End of Data
 Number of Records Written=          99
