Program Version,EnergyPlus, Version 22.2.0-c249759bad, YMD=2023.09.01 15:42
1,5,Environment Title[],Latitude[deg],Longitude[deg],Time Zone[],Elevation[m]
2,8,Day of Simulation[],Month[],Day of Month[],DST Indicator[1=yes 0=no],Hour[],StartMinute[],EndMinute[],DayType
3,5,Cumulative Day of Simulation[],Month[],Day of Month[],DST Indicator[1=yes 0=no],DayType  ! When Daily Report Variables Requested
4,2,Cumulative Days of Simulation[],Month[]  ! When Monthly Report Variables Requested
5,1,Cumulative Days of Simulation[] ! When Run Period Report Variables Requested
6,1,Calendar Year of Simulation[] ! When Annual Report Variables Requested
581,11,LIVING,AFN Zone Infiltration Air Change Rate [ach] !RunPeriod [Value,Min,Month,Day,Hour,Minute,Max,Month,Day,Hour,Minute]
582,11,ATTIC,AFN Zone Infiltration Air Change Rate [ach] !RunPeriod [Value,Min,Month,Day,Hour,Minute,Max,Month,Day,Hour,Minute]
583,11,CRAWLSPACE,AFN Zone Infiltration Air Change Rate [ach] !RunPeriod [Value,Min,Month,Day,Hour,Minute,Max,Month,Day,Hour,Minute]
1038,11,Facility,Facility Heating Setpoint Not Met Time [hr] !RunPeriod [Value,Min,Month,Day,Hour,Minute,Max,Month,Day,Hour,Minute]
1039,11,Facility,Facility Cooling Setpoint Not Met Time [hr] !RunPeriod [Value,Min,Month,Day,Hour,Minute,Max,Month,Day,Hour,Minute]
1115,11,DX_HEATING_COIL,Heating Coil Heating Energy [J] !RunPeriod [Value,Min,Month,Day,Hour,Minute,Max,Month,Day,Hour,Minute]
1128,11,DX_HEATING_COIL,Heating Coil Electricity Energy [J] !RunPeriod [Value,Min,Month,Day,Hour,Minute,Max,Month,Day,Hour,Minute]
1153,11,DX_HEATING_COIL,Heating Coil Defrost Electricity Energy [J] !RunPeriod [Value,Min,Month,Day,Hour,Minute,Max,Month,Day,Hour,Minute]
1154,11,DX_HEATING_COIL,Heating Coil Crankcase Heater Electricity Energy [J] !RunPeriod [Value,Min,Month,Day,Hour,Minute,Max,Month,Day,Hour,Minute]
1155,11,HEATING_RESISTANCE_BACKUP,Heating Coil Heating Energy [J] !RunPeriod [Value,Min,Month,Day,Hour,Minute,Max,Month,Day,Hour,Minute]
1156,11,HEATING_RESISTANCE_BACKUP,Heating Coil Electricity Energy [J] !RunPeriod [Value,Min,Month,Day,Hour,Minute,Max,Month,Day,Hour,Minute]
1292,11,WATER HEATER,Water Heater Heat Loss Energy [J] !RunPeriod [Value,Min,Month,Day,Hour,Minute,Max,Month,Day,Hour,Minute]
1306,11,WATER HEATER,Water Heater Heating Energy [J] !RunPeriod [Value,Min,Month,Day,Hour,Minute,Max,Month,Day,Hour,Minute]
1307,11,WATER HEATER,Water Heater Unmet Demand Heat Transfer Energy [J] !RunPeriod [Value,Min,Month,Day,Hour,Minute,Max,Month,Day,Hour,Minute]
1308,11,WATER HEATER,Water Heater Electricity Energy [J] !RunPeriod [Value,Min,Month,Day,Hour,Minute,Max,Month,Day,Hour,Minute]
13,11,Electricity:Facility [J] !RunPeriod [Value,Min,Month,Day,Hour,Minute,Max,Month,Day,Hour,Minute]
1134,11,Heating:Electricity [J] !RunPeriod [Value,Min,Month,Day,Hour,Minute,Max,Month,Day,Hour,Minute]
1096,11,Cooling:Electricity [J] !RunPeriod [Value,Min,Month,Day,Hour,Minute,Max,Month,Day,Hour,Minute]
562,11,Fans:Electricity [J] !RunPeriod [Value,Min,Month,Day,Hour,Minute,Max,Month,Day,Hour,Minute]
1379,11,Pumps:Electricity [J] !RunPeriod [Value,Min,Month,Day,Hour,Minute,Max,Month,Day,Hour,Minute]
1326,11,WaterSystems:Electricity [J] !RunPeriod [Value,Min,Month,Day,Hour,Minute,Max,Month,Day,Hour,Minute]
61,11,InteriorLights:Electricity [J] !RunPeriod [Value,Min,Month,Day,Hour,Minute,Max,Month,Day,Hour,Minute]
1046,11,ExteriorLights:Electricity [J] !RunPeriod [Value,Min,Month,Day,Hour,Minute,Max,Month,Day,Hour,Minute]
134,11,InteriorEquipment:Electricity [J] !RunPeriod [Value,Min,Month,Day,Hour,Minute,Max,Month,Day,Hour,Minute]
170,11,gas_dryer:InteriorEquipment:Electricity [J] !RunPeriod [Value,Min,Month,Day,Hour,Minute,Max,Month,Day,Hour,Minute]
207,11,clotheswasher:InteriorEquipment:Electricity [J] !RunPeriod [Value,Min,Month,Day,Hour,Minute,Max,Month,Day,Hour,Minute]
244,11,dishwasher:InteriorEquipment:Electricity [J] !RunPeriod [Value,Min,Month,Day,Hour,Minute,Max,Month,Day,Hour,Minute]
281,11,refrigerator:InteriorEquipment:Electricity [J] !RunPeriod [Value,Min,Month,Day,Hour,Minute,Max,Month,Day,Hour,Minute]
318,11,electric_mels:InteriorEquipment:Electricity [J] !RunPeriod [Value,Min,Month,Day,Hour,Minute,Max,Month,Day,Hour,Minute]
355,11,NaturalGas:Facility [J] !RunPeriod [Value,Min,Month,Day,Hour,Minute,Max,Month,Day,Hour,Minute]
403,11,InteriorEquipment:NaturalGas [J] !RunPeriod [Value,Min,Month,Day,Hour,Minute,Max,Month,Day,Hour,Minute]
476,11,gas_dryer:InteriorEquipment:NaturalGas [J] !RunPeriod [Value,Min,Month,Day,Hour,Minute,Max,Month,Day,Hour,Minute]
513,11,gas_mels:InteriorEquipment:NaturalGas [J] !RunPeriod [Value,Min,Month,Day,Hour,Minute,Max,Month,Day,Hour,Minute]
End of Data Dictionary
1,EXTREME_WINTER,  46.84, -92.18,  -6.00, 432.00
5,7
1038,35.25,0.0, 1,20, 1,15,0.25, 1,20, 6,15
1039,0.0,0.0, 1,20, 1,15,0.0, 1,20, 1,15
581,0.5226735154454186,0.3150063239027811, 1,26,23, 5,0.8849516162174456, 1,23,15,60
582,5.455955160880294,0.43907982060480427, 1,26, 9,15,16.258184302303814, 1,21,14,50
583,0.07348700443836335,0.0015856447732161684, 1,26,23, 5,0.0825966941048432, 1,23,15,52
1115,1596806066.5605075,0.0, 1,26,23, 5,3415549.713309513, 1,26,18,60
1128,714157245.0607989,0.0, 1,26,23, 5,1208395.59442604, 1,26,20,60
1153,2356019.569041855,0.0, 1,26,23, 5,21843.34232687172, 1,25, 8,60
1154,62994.65087573203,0.0, 1,20, 1, 7,60000.0, 1,26,23, 5
1155,3865325974.5336466,0.0, 1,25,23, 5,8006621.8199700415, 1,20, 6,45
1156,3865325974.5336466,0.0, 1,25,23, 5,8006621.8199700415, 1,20, 6,45
1292,-25726456.21356748,-42947.9835195637, 1,22, 8,30,-7296.839672746928, 1,26,11,27
1306,267198604.76652005,0.0, 1,20, 1, 7,10198603.407728428, 1,26,19,60
1307,10048216.692911034,0.0, 1,20, 1, 7,8132016.449798098, 1,26,19,60
1308,267198604.76652005,0.0, 1,20, 1, 7,10198603.407728428, 1,26,19,60
13,5308614402.826334,2722220.074490438, 1,26,23,15,17970917.116720162, 1,24, 6,60
61,301924526.02383536,88139.10953165221, 1,20, 1,15,1282023.4113694867, 1,20,20,15
134,70666020.44019976,63564.01800854099, 1,20, 4,15,156554.22484006523, 1,25,20,15
170,5241013.419656067,348.4159749238097, 1,20, 4,15,17476.39704006126, 1,25,12,15
207,6509451.13922267,815.2532113832032, 1,20, 3,15,22990.642799023623, 1,25,10,15
244,12749673.399825225,1521.856143006317, 1,20, 4,15,53038.631142310165, 1,25,20,15
281,46165882.481495745,59938.60262432081, 1,20, 5,15,81951.81706819107, 1,20,19,15
318,0.0,0.0, 1,20, 1,15,0.0, 1,20, 1,15
355,197687796.27748066,18561.32405820678, 1,20, 4,15,724774.895203776, 1,25,18,15
403,197687796.27748066,18561.32405820678, 1,20, 4,15,724774.895203776, 1,25,18,15
476,106772067.24485716,7098.072629279515, 1,20, 4,15,356036.3026282215, 1,25,12,15
513,0.0,0.0, 1,20, 1,15,0.0, 1,20, 1,15
562,86923017.78140874,86278.28595441836, 1,26,23,15,129417.42893162754, 1,20, 1,15
1046,0.0,0.0, 1,20, 1,15,0.0, 1,20, 1,15
1096,0.0,0.0, 1,20, 1,15,0.0, 1,20, 1,15
1134,4581902233.814369,1984419.4947433206, 1,26,23,15,9073647.872895464, 1,23, 6,15
1326,267198604.76652002,0.0, 1,20, 1,15,10198603.407728428, 1,26,19,60
1379,0.0,0.0, 1,20, 1,15,0.0, 1,20, 1,15
1,EXTREME_SUMMER,  46.84, -92.18,  -6.00, 432.00
5,7
1038,0.0,0.0, 7,13, 1,15,0.0, 7,13, 1,15
1039,22.25,0.0, 7,13, 1,15,0.25, 7,16,14,45
581,0.19175162308920563,0.0, 7,14,23, 5,0.5647732898587939, 7,18,17,37
582,4.83220361329553,0.0, 7,15, 7,22,15.488987429816438, 7,18,16,52
583,0.031312632896660565,0.0, 7,14,23, 5,0.06870801515721386, 7,18,17,52
1115,0.0,0.0, 7,13, 1,15,0.0, 7,13, 1,15
1128,0.0,0.0, 7,13, 1,15,0.0, 7,13, 1,15
1153,0.0,0.0, 7,13, 1,15,0.0, 7,13, 1,15
1154,0.0,0.0, 7,13, 1,15,0.0, 7,13, 1,15
1155,0.0,0.0, 7,13, 1,15,0.0, 7,13, 1,15
1156,0.0,0.0, 7,13, 1,15,0.0, 7,13, 1,15
1292,-22011206.531297002,-34330.44773509278, 7,14,15,30,-4754.0010870301185, 7,15,12,60
1306,215213329.08677793,0.0, 7,13, 1,15,3986508.3565015774, 7,13, 7,37
1307,4451322.602908976,0.0, 7,13, 1,15,1546334.6405004198, 7,19,19,55
1308,215213329.08677793,0.0, 7,13, 1,15,3986508.3565015774, 7,13, 7,37
13,1020224732.990199,151703.1275401932, 7,13, 4,30,12547402.66524127, 7,19,19,60
61,301924526.02383536,88139.10953165221, 7,13, 1,15,1282023.4113694867, 7,13,20,15
134,70666020.44019976,63564.01800854099, 7,13, 4,15,156554.22484006523, 7,18,20,15
170,5241013.419656067,348.4159749238097, 7,13, 4,15,17476.39704006126, 7,18,12,15
207,6509451.13922267,815.2532113832032, 7,13, 3,15,22990.642799023623, 7,18,10,15
244,12749673.399825225,1521.856143006317, 7,13, 4,15,53038.631142310165, 7,18,20,15
281,46165882.481495745,59938.60262432081, 7,13, 5,15,81951.81706819107, 7,13,19,15
318,0.0,0.0, 7,13, 1,15,0.0, 7,13, 1,15
355,197687796.27748066,18561.32405820678, 7,13, 4,15,724774.895203776, 7,18,18,15
403,197687796.27748066,18561.32405820678, 7,13, 4,15,724774.895203776, 7,18,18,15
476,106772067.24485716,7098.072629279515, 7,13, 4,15,356036.3026282215, 7,18,12,15
513,0.0,0.0, 7,13, 1,15,0.0, 7,13, 1,15
562,41931297.914938904,0.0, 7,13, 4,30,129417.42893162754, 7,16,14,15
1046,0.0,0.0, 7,13, 1,15,0.0, 7,13, 1,15
1096,390489559.5244482,0.0, 7,13, 4,30,1392153.5293878769, 7,18,15,60
1134,0.0,0.0, 7,13, 1,15,0.0, 7,13, 1,15
1326,215213329.0867779,0.0, 7,13, 1,15,10112961.346305646, 7,19,19,60
1379,0.0,0.0, 7,13, 1,15,0.0, 7,13, 1,15
1,ANNUAL,  46.84, -92.18,  -6.00, 432.00
5,365
1038,86.75,0.0, 1, 1, 1,15,0.25, 1, 1, 6,15
1039,89.5,0.0, 1, 1, 1,15,0.25, 5,22,12,60
581,0.33379542918986105,0.0, 7,14,23, 5,1.4202786511984096, 3, 1,20,60
582,5.5417180113144955,0.0, 1, 8, 7,45,39.125005453015675, 3, 1,20,60
583,0.03424065985209542,0.0, 7,14,23, 5,0.0904033218774284, 3, 1,20,60
1115,45328172545.20035,0.0, 1, 1,23, 5,4645635.578492463,12, 7, 6,45
1128,15430003647.026073,0.0, 1, 1,23, 5,1315480.1330672274, 4,10, 6,45
1153,482649917.7822459,0.0, 1, 1,23, 5,148249.40810957793,12, 4, 6,60
1154,1554061134.0665402,0.0, 1, 1, 1, 7,180000.0, 2, 8,15,30
1155,24697606725.31356,0.0, 1, 1,23, 5,8006621.8199700415, 1,20, 6,15
1156,24697606725.31356,0.0, 1, 1,23, 5,8006621.8199700415, 1,20, 6,15
1292,-1261857752.7810433,-42624.7129095549, 1,21,10,15,-2271.6924000540243, 5,23,15,60
1306,12591180917.72577,0.0, 1, 1, 1, 7,10540800.0,10,15,19,60
1307,375522081.38171166,0.0, 1, 1, 1, 7,8376782.080349072, 2,19,19,60
1308,12591180917.72577,0.0, 1, 1, 1, 7,10540800.0,10,15,19,60
13,80536550242.66534,151703.1275401932, 5,24, 4,30,19136820.229213238, 1,22, 9,45
61,15743207428.383959,88139.10953165221, 1, 1, 1,15,1282023.4113694867, 1, 1,20,15
134,3685071073.4325233,63564.01800854099, 1, 2, 4,15,156554.22484006523, 1, 1,20,15
170,273393721.45532674,348.4159749238097, 1, 2, 4,15,17476.39704006126, 1, 1,12,15
207,339560869.0695816,815.2532113832032, 1, 2, 3,15,22990.642799023623, 1, 1,10,15
244,664895467.8009144,1521.856143006317, 1, 2, 4,15,53038.631142310165, 1, 1,20,15
281,2407221015.106824,59938.60262432081, 1, 1, 5,15,81951.81706819107, 1, 1,19,15
318,0.0,0.0, 1, 1, 1,15,0.0, 1, 1, 1,15
355,10310294493.051695,18561.32405820678, 1, 2, 4,15,724774.895203776, 1, 1,18,15
403,10310294493.051695,18561.32405820678, 1, 2, 4,15,724774.895203776, 1, 1,18,15
476,5569688622.066177,7098.072629279515, 1, 2, 4,15,356036.3026282215, 1, 1,12,15
513,0.0,0.0, 1, 1, 1,15,0.0, 1, 1, 1,15
562,2185394212.842836,0.0, 2, 8,15,15,129417.42893162754, 1, 1, 1,15
1046,0.0,0.0, 1, 1, 1,15,0.0, 1, 1, 1,15
1096,4167375186.090141,0.0, 1, 1, 1,15,1394182.4906527165, 7,18,15,60
1134,42164321424.18875,0.0, 3,12,16,60,9133635.298724815,12,22, 6,45
1326,12591180917.725801,0.0, 1, 1, 1,15,10540800.0, 6,25,19,60
1379,0.0,0.0, 1, 1, 1,15,0.0, 1, 1, 1,15
End of Data
 Number of Records Written=          99
