Program Version,EnergyPlus, Version 22.2.0-c249759bad, YMD=2023.09.01 20:50
1,5,Environment Title[],Latitude[deg],Longitude[deg],Time Zone[],Elevation[m]
2,8,Day of Simulation[],Month[],Day of Month[],DST Indicator[1=yes 0=no],Hour[],StartMinute[],EndMinute[],DayType
3,5,Cumulative Day of Simulation[],Month[],Day of Month[],DST Indicator[1=yes 0=no],DayType  ! When Daily Report Variables Requested
4,2,Cumulative Days of Simulation[],Month[]  ! When Monthly Report Variables Requested
5,1,Cumulative Days of Simulation[] ! When Run Period Report Variables Requested
6,1,Calendar Year of Simulation[] ! When Annual Report Variables Requested
581,11,LIVING,AFN Zone Infiltration Air Change Rate [ach] !RunPeriod [Value,Min,Month,Day,Hour,Minute,Max,Month,Day,Hour,Minute]
582,11,ATTIC,AFN Zone Infiltration Air Change Rate [ach] !RunPeriod [Value,Min,Month,Day,Hour,Minute,Max,Month,Day,Hour,Minute]
583,11,CRAWLSPACE,AFN Zone Infiltration Air Change Rate [ach] !RunPeriod [Value,Min,Month,Day,Hour,Minute,Max,Month,Day,Hour,Minute]
1038,11,Facility,Facility Heating Setpoint Not Met Time [hr] !RunPeriod [Value,Min,Month,Day,Hour,Minute,Max,Month,Day,Hour,Minute]
1039,11,Facility,Facility Cooling Setpoint Not Met Time [hr] !RunPeriod [Value,Min,Month,Day,Hour,Minute,Max,Month,Day,Hour,Minute]
1115,11,DX_HEATING_COIL,Heating Coil Heating Energy [J] !RunPeriod [Value,Min,Month,Day,Hour,Minute,Max,Month,Day,Hour,Minute]
1128,11,DX_HEATING_COIL,Heating Coil Electricity Energy [J] !RunPeriod [Value,Min,Month,Day,Hour,Minute,Max,Month,Day,Hour,Minute]
1153,11,DX_HEATING_COIL,Heating Coil Defrost Electricity Energy [J] !RunPeriod [Value,Min,Month,Day,Hour,Minute,Max,Month,Day,Hour,Minute]
1154,11,DX_HEATING_COIL,Heating Coil Crankcase Heater Electricity Energy [J] !RunPeriod [Value,Min,Month,Day,Hour,Minute,Max,Month,Day,Hour,Minute]
1155,11,HEATING_RESISTANCE_BACKUP,Heating Coil Heating Energy [J] !RunPeriod [Value,Min,Month,Day,Hour,Minute,Max,Month,Day,Hour,Minute]
1156,11,HEATING_RESISTANCE_BACKUP,Heating Coil Electricity Energy [J] !RunPeriod [Value,Min,Month,Day,Hour,Minute,Max,Month,Day,Hour,Minute]
1292,11,WATER HEATER,Water Heater Heat Loss Energy [J] !RunPeriod [Value,Min,Month,Day,Hour,Minute,Max,Month,Day,Hour,Minute]
1306,11,WATER HEATER,Water Heater Heating Energy [J] !RunPeriod [Value,Min,Month,Day,Hour,Minute,Max,Month,Day,Hour,Minute]
1307,11,WATER HEATER,Water Heater Unmet Demand Heat Transfer Energy [J] !RunPeriod [Value,Min,Month,Day,Hour,Minute,Max,Month,Day,Hour,Minute]
1308,11,WATER HEATER,Water Heater Electricity Energy [J] !RunPeriod [Value,Min,Month,Day,Hour,Minute,Max,Month,Day,Hour,Minute]
13,11,Electricity:Facility [J] !RunPeriod [Value,Min,Month,Day,Hour,Minute,Max,Month,Day,Hour,Minute]
1134,11,Heating:Electricity [J] !RunPeriod [Value,Min,Month,Day,Hour,Minute,Max,Month,Day,Hour,Minute]
1096,11,Cooling:Electricity [J] !RunPeriod [Value,Min,Month,Day,Hour,Minute,Max,Month,Day,Hour,Minute]
562,11,Fans:Electricity [J] !RunPeriod [Value,Min,Month,Day,Hour,Minute,Max,Month,Day,Hour,Minute]
1379,11,Pumps:Electricity [J] !RunPeriod [Value,Min,Month,Day,Hour,Minute,Max,Month,Day,Hour,Minute]
1326,11,WaterSystems:Electricity [J] !RunPeriod [Value,Min,Month,Day,Hour,Minute,Max,Month,Day,Hour,Minute]
61,11,InteriorLights:Electricity [J] !RunPeriod [Value,Min,Month,Day,Hour,Minute,Max,Month,Day,Hour,Minute]
1046,11,ExteriorLights:Electricity [J] !RunPeriod [Value,Min,Month,Day,Hour,Minute,Max,Month,Day,Hour,Minute]
134,11,InteriorEquipment:Electricity [J] !RunPeriod [Value,Min,Month,Day,Hour,Minute,Max,Month,Day,Hour,Minute]
170,11,gas_dryer:InteriorEquipment:Electricity [J] !RunPeriod [Value,Min,Month,Day,Hour,Minute,Max,Month,Day,Hour,Minute]
207,11,clotheswasher:InteriorEquipment:Electricity [J] !RunPeriod [Value,Min,Month,Day,Hour,Minute,Max,Month,Day,Hour,Minute]
244,11,dishwasher:InteriorEquipment:Electricity [J] !RunPeriod [Value,Min,Month,Day,Hour,Minute,Max,Month,Day,Hour,Minute]
281,11,refrigerator:InteriorEquipment:Electricity [J] !RunPeriod [Value,Min,Month,Day,Hour,Minute,Max,Month,Day,Hour,Minute]
318,11,electric_mels:InteriorEquipment:Electricity [J] !RunPeriod [Value,Min,Month,Day,Hour,Minute,Max,Month,Day,Hour,Minute]
355,11,NaturalGas:Facility [J] !RunPeriod [Value,Min,Month,Day,Hour,Minute,Max,Month,Day,Hour,Minute]
403,11,InteriorEquipment:NaturalGas [J] !RunPeriod [Value,Min,Month,Day,Hour,Minute,Max,Month,Day,Hour,Minute]
476,11,gas_dryer:InteriorEquipment:NaturalGas [J] !RunPeriod [Value,Min,Month,Day,Hour,Minute,Max,Month,Day,Hour,Minute]
513,11,gas_mels:InteriorEquipment:NaturalGas [J] !RunPeriod [Value,Min,Month,Day,Hour,Minute,Max,Month,Day,Hour,Minute]
End of Data Dictionary
1,EXTREME_WINTER,  38.05, -87.53,  -6.00, 121.90
5,7
1038,1.0,0.0, 1, 8, 1,15,0.25, 1, 8, 6,15
1039,0.0,0.0, 1, 8, 1,15,0.0, 1, 8, 1,15
581,0.3901180079966394,0.174727250568246, 1,11,23,22,0.8156795990294627, 1, 8,21,60
582,3.550065749616775,0.0, 1,10,24,45,15.565130861176646, 1, 8,23,60
583,0.051774054326318986,0.0002990680794147205, 1,11,23,15,0.08346291774618989, 1, 8,21,60
1115,1729407947.5319247,0.0, 1, 8,23, 5,4401836.636246646, 1,11, 6,45
1128,586237939.0549423,0.0, 1, 8,23, 5,1363463.3414356594, 1,11, 6,45
1153,10189344.71323555,0.0, 1, 8,23, 5,90708.42000135093, 1,12, 6,45
1154,38385247.72314321,0.0, 1, 8, 1, 3,180000.0, 1,10,15,30
1155,345842368.7105431,0.0, 1, 8,20,30,4489134.149923006, 1, 8, 6,45
1156,345842368.7105431,0.0, 1, 8,20,30,4489134.149923006, 1, 8, 6,45
1292,-25092733.296652146,-39746.987134360155, 1, 9, 4,45,-6211.421403632744, 1,10,10,30
1306,345844933.1067944,0.0, 1, 8, 1, 3,4050000.0, 1, 8, 9,60
1307,152650329.00804645,0.0, 1, 8, 1, 3,15991005.552387133, 1,12, 9,60
1308,345844933.1067944,0.0, 1, 8, 1, 3,4050000.0, 1, 8, 9,60
13,1762386939.751422,452017.0388981225, 1,10,15,30,9262005.531740237, 1, 8, 9,45
61,301924526.02383536,88139.10953165221, 1, 8, 1,15,1282023.4113694867, 1, 8,20,15
134,70666020.44019976,63564.01800854099, 1, 8, 4,15,156554.22484006523, 1,13,20,15
170,5241013.419656067,348.4159749238097, 1, 8, 4,15,17476.39704006126, 1,13,12,15
207,6509451.13922267,815.2532113832032, 1, 8, 3,15,22990.642799023623, 1,13,10,15
244,12749673.399825225,1521.856143006317, 1, 8, 4,15,53038.631142310165, 1,13,20,15
281,46165882.481495745,59938.60262432081, 1, 8, 5,15,81951.81706819107, 1, 8,19,15
318,0.0,0.0, 1, 8, 1,15,0.0, 1, 8, 1,15
355,197687796.27748066,18561.32405820678, 1, 8, 4,15,724774.895203776, 1,13,18,15
403,197687796.27748066,18561.32405820678, 1, 8, 4,15,724774.895203776, 1,13,18,15
476,106772067.24485716,7098.072629279515, 1, 8, 4,15,356036.3026282215, 1,13,12,15
513,0.0,0.0, 1, 8, 1,15,0.0, 1, 8, 1,15
562,63296559.97872884,0.0, 1, 9,16,30,138202.33743458238, 1, 8, 1,15
1046,0.0,0.0, 1, 8, 1,15,0.0, 1, 8, 1,15
1096,0.0,0.0, 1, 8, 1,15,0.0, 1, 8, 1,15
1134,980654900.2018647,180000.0, 1, 9,16,30,5795010.9888380375, 1,10, 6,15
1326,345844933.10679454,0.0, 1, 8, 1,15,4050000.0, 1, 8, 9,60
1379,0.0,0.0, 1, 8, 1,15,0.0, 1, 8, 1,15
1,EXTREME_SUMMER,  38.05, -87.53,  -6.00, 121.90
5,7
1038,0.0,0.0, 7,15, 1,15,0.0, 7,15, 1,15
1039,50.0,0.0, 7,15, 1,15,0.25, 7,15,13,60
581,0.06356892262367607,0.0, 7,15,21,27,0.33485534578368864, 7,21,15,50
582,1.8340524175994077,0.0, 7,15,20,52,7.7184477072754065, 7,21, 9,52
583,0.04484277274633505,0.0, 7,17,23, 3,0.07091760134269971, 7,21, 6, 3
1115,0.0,0.0, 7,15, 1, 7,0.0, 7,15, 1, 7
1128,0.0,0.0, 7,15, 1, 7,0.0, 7,15, 1, 7
1153,0.0,0.0, 7,15, 1, 7,0.0, 7,15, 1, 7
1154,0.0,0.0, 7,15, 1, 7,0.0, 7,15, 1, 7
1155,0.0,0.0, 7,15, 1, 7,0.0, 7,15, 1, 7
1156,0.0,0.0, 7,15, 1, 7,0.0, 7,15, 1, 7
1292,-21631696.07272276,-34339.280355932795, 7,20,22,15,-2726.396503099301, 7,19,10, 1
1306,250019493.16760117,0.0, 7,15, 1, 7,4050000.0, 7,20,21,45
1307,77065517.84019414,0.0, 7,15, 1, 7,3364793.087324719, 7,20,21,45
1308,250019493.16760117,0.0, 7,15, 1, 7,4050000.0, 7,20,21,45
13,1264478982.6354005,251863.58245120425, 7,15, 4,60,6981840.746582697, 7,16,20,15
61,301924526.02383536,88139.10953165221, 7,15, 1,15,1282023.4113694867, 7,15,20,15
134,70666020.44019976,63564.01800854099, 7,15, 4,15,156554.22484006523, 7,20,20,15
170,5241013.419656067,348.4159749238097, 7,15, 4,15,17476.39704006126, 7,20,12,15
207,6509451.13922267,815.2532113832032, 7,15, 3,15,22990.642799023623, 7,20,10,15
244,12749673.399825225,1521.856143006317, 7,15, 4,15,53038.631142310165, 7,20,20,15
281,46165882.481495745,59938.60262432081, 7,15, 5,15,81951.81706819107, 7,15,19,15
318,0.0,0.0, 7,15, 1,15,0.0, 7,15, 1,15
355,197687796.27748066,18561.32405820678, 7,15, 4,15,724774.895203776, 7,20,18,15
403,197687796.27748066,18561.32405820678, 7,15, 4,15,724774.895203776, 7,20,18,15
476,106772067.24485716,7098.072629279515, 7,15, 4,15,356036.3026282215, 7,20,12,15
513,0.0,0.0, 7,15, 1,15,0.0, 7,15, 1,15
562,60668607.77001104,10739.133811244585, 7,15, 4,60,138202.3374345824, 7,16,10,45
1046,0.0,0.0, 7,15, 1,15,0.0, 7,15, 1,15
1096,581200335.2337528,89421.32109976646, 7,15, 4,60,1467744.6331736562, 7,19,14,60
1134,0.0,0.0, 7,15, 1,15,0.0, 7,15, 1,15
1326,250019493.1676012,0.0, 7,15, 1,15,4050000.0, 7,15, 9,60
1379,0.0,0.0, 7,15, 1,15,0.0, 7,15, 1,15
1,ANNUAL,  38.05, -87.53,  -6.00, 121.90
5,365
1038,7.75,0.0, 1, 1, 1,15,0.25, 1, 2, 6,15
1039,600.0,0.0, 1, 1, 1,15,0.25, 1,19,14,60
581,0.2170384830398144,0.0, 5, 7,23, 3,1.2172252349711228, 2,11,15,60
582,3.2719021618811053,0.0, 1, 3, 2,60,27.100132113062998, 2,11,15,60
583,0.027964908121504903,0.0, 5, 8,23, 5,0.08537352559343199, 2, 3,12,60
1115,14888324996.093395,0.0, 1, 1,16,15,4436266.681583468, 2, 6, 6,60
1128,4755906016.42063,0.0, 1, 1,16,15,1359251.5907099235, 1,11, 6,45
1153,162831210.52923074,0.0, 1, 1,16,15,101420.52723711132,12,16, 4,15
1154,1531712787.6186085,0.0, 1, 1, 6, 5,180000.0, 1, 1,16,15
1155,1348091979.0069609,0.0, 1, 1, 1,15,4590978.440239026, 1, 8, 6,15
1156,1348091979.0069609,0.0, 1, 1, 1,15,4590978.440239026, 1, 8, 6,15
1292,-1198796744.753028,-39859.48695901264, 2,14, 5,15,-1748.7336740237445, 9,15, 9,59
1306,15584830616.411024,0.0, 1, 1, 1,15,4050000.0, 1, 1,21,15
1307,5996194481.586066,0.0, 1, 1, 1,15,16272635.126850823, 2, 3, 9,60
1308,15584830616.411024,0.0, 1, 1, 1,15,4050000.0, 1, 1,21,15
13,56052188517.22551,151703.1275401932, 2, 7, 4,15,10254779.426852291, 1, 8, 9,45
61,15743207428.383959,88139.10953165221, 1, 1, 1,15,1282023.4113694867, 1, 1,20,15
134,3685071073.4325233,63564.01800854099, 1, 2, 4,15,156554.22484006523, 1, 1,20,15
170,273393721.45532674,348.4159749238097, 1, 2, 4,15,17476.39704006126, 1, 1,12,15
207,339560869.0695816,815.2532113832032, 1, 2, 3,15,22990.642799023623, 1, 1,10,15
244,664895467.8009144,1521.856143006317, 1, 2, 4,15,53038.631142310165, 1, 1,20,15
281,2407221015.106824,59938.60262432081, 1, 1, 5,15,81951.81706819107, 1, 1,19,15
318,0.0,0.0, 1, 1, 1,15,0.0, 1, 1, 1,15
355,10310294493.051695,18561.32405820678, 1, 2, 4,15,724774.895203776, 1, 1,18,15
403,10310294493.051695,18561.32405820678, 1, 2, 4,15,724774.895203776, 1, 1,18,15
476,5569688622.066177,7098.072629279515, 1, 2, 4,15,356036.3026282215, 1, 1,12,15
513,0.0,0.0, 1, 1, 1,15,0.0, 1, 1, 1,15
562,1807438508.6842895,0.0, 1, 1,16,15,138202.3374345824, 5, 6,15,60
1046,0.0,0.0, 1, 1, 1,15,0.0, 1, 1, 1,15
1096,11433098896.735928,0.0, 1, 1, 1,15,1512549.2501788116, 8,31,15,60
1134,7798541993.575446,0.0, 1, 3,17,15,5803984.218907906, 2, 4, 6,15
1326,15584830616.411001,0.0, 1, 1, 1,15,4050000.0000000014, 4,18, 9,60
1379,0.0,0.0, 1, 1, 1,15,0.0, 1, 1, 1,15
End of Data
 Number of Records Written=          99
