Program Version,EnergyPlus, Version 22.2.0-c249759bad, YMD=2023.07.07 15:20
1,5,Environment Title[],Latitude[deg],Longitude[deg],Time Zone[],Elevation[m]
2,8,Day of Simulation[],Month[],Day of Month[],DST Indicator[1=yes 0=no],Hour[],StartMinute[],EndMinute[],DayType
3,5,Cumulative Day of Simulation[],Month[],Day of Month[],DST Indicator[1=yes 0=no],DayType  ! When Daily Report Variables Requested
4,2,Cumulative Days of Simulation[],Month[]  ! When Monthly Report Variables Requested
5,1,Cumulative Days of Simulation[] ! When Run Period Report Variables Requested
6,1,Calendar Year of Simulation[] ! When Annual Report Variables Requested
581,11,LIVING,AFN Zone Infiltration Air Change Rate [ach] !RunPeriod [Value,Min,Month,Day,Hour,Minute,Max,Month,Day,Hour,Minute]
582,11,ATTIC,AFN Zone Infiltration Air Change Rate [ach] !RunPeriod [Value,Min,Month,Day,Hour,Minute,Max,Month,Day,Hour,Minute]
583,11,CRAWLSPACE,AFN Zone Infiltration Air Change Rate [ach] !RunPeriod [Value,Min,Month,Day,Hour,Minute,Max,Month,Day,Hour,Minute]
1038,11,Facility,Facility Heating Setpoint Not Met Time [hr] !RunPeriod [Value,Min,Month,Day,Hour,Minute,Max,Month,Day,Hour,Minute]
1039,11,Facility,Facility Cooling Setpoint Not Met Time [hr] !RunPeriod [Value,Min,Month,Day,Hour,Minute,Max,Month,Day,Hour,Minute]
1115,11,DX_HEATING_COIL,Heating Coil Heating Energy [J] !RunPeriod [Value,Min,Month,Day,Hour,Minute,Max,Month,Day,Hour,Minute]
1128,11,DX_HEATING_COIL,Heating Coil Electricity Energy [J] !RunPeriod [Value,Min,Month,Day,Hour,Minute,Max,Month,Day,Hour,Minute]
1153,11,DX_HEATING_COIL,Heating Coil Defrost Electricity Energy [J] !RunPeriod [Value,Min,Month,Day,Hour,Minute,Max,Month,Day,Hour,Minute]
1154,11,DX_HEATING_COIL,Heating Coil Crankcase Heater Electricity Energy [J] !RunPeriod [Value,Min,Month,Day,Hour,Minute,Max,Month,Day,Hour,Minute]
1156,11,HEATING_RESISTANCE_BACKUP,Heating Coil Electricity Energy [J] !RunPeriod [Value,Min,Month,Day,Hour,Minute,Max,Month,Day,Hour,Minute]
13,11,Electricity:Facility [J] !RunPeriod [Value,Min,Month,Day,Hour,Minute,Max,Month,Day,Hour,Minute]
1134,11,Heating:Electricity [J] !RunPeriod [Value,Min,Month,Day,Hour,Minute,Max,Month,Day,Hour,Minute]
1096,11,Cooling:Electricity [J] !RunPeriod [Value,Min,Month,Day,Hour,Minute,Max,Month,Day,Hour,Minute]
562,11,Fans:Electricity [J] !RunPeriod [Value,Min,Month,Day,Hour,Minute,Max,Month,Day,Hour,Minute]
1388,11,Pumps:Electricity [J] !RunPeriod [Value,Min,Month,Day,Hour,Minute,Max,Month,Day,Hour,Minute]
1360,11,WaterSystems:Electricity [J] !RunPeriod [Value,Min,Month,Day,Hour,Minute,Max,Month,Day,Hour,Minute]
61,11,InteriorLights:Electricity [J] !RunPeriod [Value,Min,Month,Day,Hour,Minute,Max,Month,Day,Hour,Minute]
1046,11,ExteriorLights:Electricity [J] !RunPeriod [Value,Min,Month,Day,Hour,Minute,Max,Month,Day,Hour,Minute]
134,11,InteriorEquipment:Electricity [J] !RunPeriod [Value,Min,Month,Day,Hour,Minute,Max,Month,Day,Hour,Minute]
170,11,gas_dryer:InteriorEquipment:Electricity [J] !RunPeriod [Value,Min,Month,Day,Hour,Minute,Max,Month,Day,Hour,Minute]
207,11,clotheswasher:InteriorEquipment:Electricity [J] !RunPeriod [Value,Min,Month,Day,Hour,Minute,Max,Month,Day,Hour,Minute]
244,11,dishwasher:InteriorEquipment:Electricity [J] !RunPeriod [Value,Min,Month,Day,Hour,Minute,Max,Month,Day,Hour,Minute]
281,11,refrigerator:InteriorEquipment:Electricity [J] !RunPeriod [Value,Min,Month,Day,Hour,Minute,Max,Month,Day,Hour,Minute]
318,11,electric_mels:InteriorEquipment:Electricity [J] !RunPeriod [Value,Min,Month,Day,Hour,Minute,Max,Month,Day,Hour,Minute]
355,11,NaturalGas:Facility [J] !RunPeriod [Value,Min,Month,Day,Hour,Minute,Max,Month,Day,Hour,Minute]
1323,11,WaterSystems:NaturalGas [J] !RunPeriod [Value,Min,Month,Day,Hour,Minute,Max,Month,Day,Hour,Minute]
403,11,InteriorEquipment:NaturalGas [J] !RunPeriod [Value,Min,Month,Day,Hour,Minute,Max,Month,Day,Hour,Minute]
476,11,gas_dryer:InteriorEquipment:NaturalGas [J] !RunPeriod [Value,Min,Month,Day,Hour,Minute,Max,Month,Day,Hour,Minute]
513,11,gas_mels:InteriorEquipment:NaturalGas [J] !RunPeriod [Value,Min,Month,Day,Hour,Minute,Max,Month,Day,Hour,Minute]
End of Data Dictionary
1,EXTREME_WINTER,  40.48, -80.21,  -5.00, 366.70
5,7
1038,0.9999999999999999,0.0, 1,22, 1,10,0.16666666666666666, 1,22, 6,10
1039,0.0,0.0, 1,22, 1,10,0.0, 1,22, 1,10
581,0.3048736233693563,0.19480239657676165, 1,28,24,60,0.5356729367725075, 1,22, 1,59
582,3.4622321088965213,0.0, 1,23,23, 6,15.750238274842541, 1,22, 1,57
583,4.047146269264779,0.00034688305714172227, 1,23,23, 3,13.743248666331672, 1,22, 1,52
1115,1888765705.153601,0.0, 1,22,23, 3,2571202.3217493994, 1,28, 7,60
1128,658871960.0976268,0.0, 1,22,23, 3,790196.2623929005, 1,26,18,10
1153,12920975.898699319,0.0, 1,22,23, 3,67486.93733214657, 1,28, 9,10
1154,16745531.763882283,0.0, 1,22, 1, 5,120000.0, 1,28,17,10
1156,946389616.4740881,0.0, 1,22,23, 3,3439338.6316624293, 1,23, 6,30
13,2088188388.623053,333345.29582559643, 1,28,24,10,4679432.160169573, 1,22, 6,10
61,301924526.0238348,58759.40635443481, 1,22, 1,10,854682.2742463244, 1,22,20,10
134,70666020.44019979,42376.01200569399, 1,22, 4,10,104369.48322671017, 1,27,20,10
170,5241013.419656074,232.27731661587313, 1,22, 4,10,11650.931360040839, 1,27,12,10
207,6509451.13922266,543.5021409221355, 1,22, 3,10,15327.095199349082, 1,27,10,10
244,12749673.39982522,1014.5707620042115, 1,22, 4,10,35359.08742820678, 1,27,20,10
281,46165882.48149605,39959.06841621388, 1,22, 5,10,54634.54471212738, 1,22,19,10
318,0.0,0.0, 1,22, 1,10,0.0, 1,22, 1,10
355,746412845.3212852,12374.216038804521, 1,22, 4,10,3829218.154066982, 1,23,18,60
403,197687796.27748126,12374.216038804521, 1,22, 4,10,483183.26346918393, 1,27,18,10
476,106772067.24485692,4732.048419519677, 1,22, 4,10,237357.535085481, 1,27,12,10
513,0.0,0.0, 1,22, 1,10,0.0, 1,22, 1,10
562,75649917.92472301,0.0, 1,27,23,10,87162.49570500739, 1,22, 1,10
1046,0.0,0.0, 1,22, 1,10,0.0, 1,22, 1,10
1096,0.0,0.0, 1,22, 1,10,0.0, 1,22, 1,10
1134,1634928084.2342956,120000.0, 1,27,23,10,4174710.3414539127, 1,22, 6,10
1323,548725049.0438014,0.0, 1,22, 1,10,3375000.000000001, 1,25,10,30
1360,5019840.0,4980.0, 1,22, 1,10,4980.000000000001, 1,22, 1,20
1388,0.0,0.0, 1,22, 1,10,0.0, 1,22, 1,10
1,EXTREME_SUMMER,  40.48, -80.21,  -5.00, 366.70
5,7
1038,0.0,0.0, 7,29, 1,10,0.0, 7,29, 1,10
1039,37.99999999999999,0.0, 7,29, 1,10,0.16666666666666666, 7,29,13,20
581,0.09093747931826615,0.0, 7,29, 1,30,0.30387217904772384, 8, 4,12,60
582,3.357011303281156,0.03283647143386322, 8, 2, 8,30,10.829654188878727, 7,30,13,53
583,3.538569570747272,0.0, 7,29, 6, 7,10.826948314628046, 7,30,17,55
1115,0.0,0.0, 7,29, 1,10,0.0, 7,29, 1,10
1128,0.0,0.0, 7,29, 1,10,0.0, 7,29, 1,10
1153,0.0,0.0, 7,29, 1,10,0.0, 7,29, 1,10
1154,0.0,0.0, 7,29, 1,10,0.0, 7,29, 1,10
1156,0.0,0.0, 7,29, 1,10,0.0, 7,29, 1,10
13,916435395.1324437,156158.45198295327, 7,31, 4,60,1890574.9783912173, 7,29,20,10
61,301924526.0238348,58759.40635443481, 7,29, 1,10,854682.2742463244, 7,29,20,10
134,70666020.44019979,42376.01200569399, 7,29, 4,10,104369.48322671017, 8, 3,20,10
170,5241013.419656074,232.27731661587313, 7,29, 4,10,11650.931360040839, 8, 3,12,10
207,6509451.13922266,543.5021409221355, 7,29, 3,10,15327.095199349082, 8, 3,10,10
244,12749673.39982522,1014.5707620042115, 7,29, 4,10,35359.08742820678, 8, 3,20,10
281,46165882.48149605,39959.06841621388, 7,29, 5,10,54634.54471212738, 7,29,19,10
318,0.0,0.0, 7,29, 1,10,0.0, 7,29, 1,10
355,631230391.2573093,12374.216038804521, 7,29, 4,10,3829218.154066982, 8, 2,18,20
403,197687796.27748126,12374.216038804521, 7,29, 4,10,483183.26346918393, 8, 3,18,10
476,106772067.24485692,4732.048419519677, 7,29, 4,10,237357.535085481, 8, 3,12,10
513,0.0,0.0, 7,29, 1,10,0.0, 7,29, 1,10
562,53129413.384889595,2265.0867557474476, 7,31, 6,20,87162.49570500739, 7,29,12,40
1046,0.0,0.0, 7,29, 1,10,0.0, 7,29, 1,10
1096,485695595.28352046,17913.167139475194, 7,31, 6,20,895739.2044165232, 7,29,17,60
1134,0.0,0.0, 7,29, 1,10,0.0, 7,29, 1,10
1323,433542594.9798265,0.0, 7,29, 1,10,3375000.0000000005, 7,29,17,10
1360,5019840.0,4980.0, 7,29, 1,10,4980.000000000001, 7,29, 7,50
1388,0.0,0.0, 7,29, 1,10,0.0, 7,29, 1,10
1,ANNUAL,  40.48, -80.21,  -5.00, 366.70
5,365
1038,16.333333333333314,0.0, 1, 1, 1,10,0.16666666666666666, 1, 3, 6,10
1039,401.83333333333326,0.0, 1, 1, 1,10,0.16666666666666666, 5, 2,20,60
581,0.21706944942899453,0.0, 5,11,20,52,1.0510153241434155,10,30,24,60
582,3.8032901667765575,0.0, 1, 2, 3,60,25.659536584616482,12,31,12,55
583,4.3579008974806825,0.0, 6, 9,23, 2,30.681971171040434,10,30,24,60
1115,26211678131.378445,0.0, 1, 1,23, 2,3097591.95085771, 1,19, 6,50
1128,8132578618.485615,0.0, 1, 1,23, 2,863180.4878908133, 1,19, 6,50
1153,298668047.9293824,0.0, 1, 1,23, 2,87309.92406028339,12,30, 6,60
1154,1534450147.1002688,0.0, 1, 1, 6, 2,120000.0, 1, 3,17,10
1156,3952484547.098379,0.0, 1, 1, 1, 1,3439338.6316624293, 1,22, 6,10
13,43614595830.04674,106115.4183601288, 1,13, 4,10,4730666.44540509, 1,22, 7,30
61,15743207428.39043,58759.40635443481, 1, 1, 1,10,854682.2742463244, 1, 1,20,10
134,3685071073.433083,42376.01200569399, 1, 2, 4,10,104369.48322671017, 1, 1,20,10
170,273393721.45534325,232.27731661587313, 1, 2, 4,10,11650.931360040839, 1, 1,12,10
207,339560869.06955314,543.5021409221355, 1, 2, 3,10,15327.095199349082, 1, 1,10,10
244,664895467.8009839,1014.5707620042115, 1, 2, 4,10,35359.08742820678, 1, 1,20,10
281,2407221015.1057043,39959.06841621388, 1, 1, 5,10,54634.54471212738, 1, 1,19,10
318,0.0,0.0, 1, 1, 1,10,0.0, 1, 1, 1,10
355,35741011486.50941,12374.216038804521, 1, 2, 4,10,3829218.154066983,11, 7,18,60
403,10310294493.052883,12374.216038804521, 1, 2, 4,10,483183.26346918393, 1, 1,18,10
476,5569688622.065564,4732.048419519677, 1, 2, 4,10,237357.535085481, 1, 1,12,10
513,0.0,0.0, 1, 1, 1,10,0.0, 1, 1, 1,10
562,1857276160.7170298,0.0, 1, 3,17,10,87162.49570500739, 1, 1, 6,30
1046,0.0,0.0, 1, 1, 1,10,0.0, 1, 1, 1,10
1096,8149111006.897767,0.0, 1, 1, 1,10,915098.5750671048, 9, 2,17,60
1134,13918181360.613716,0.0, 1,11,19,10,4194634.527194267,12,16, 6,10
1323,25430716993.46045,0.0, 1, 1, 1,10,3375000.000000002, 1,10,20,20
1360,261748800.0,4979.999999999998, 5, 6,15,50,4980.000000000002, 1,23,22,30
1388,0.0,0.0, 1, 1, 1,10,0.0, 1, 1, 1,10
End of Data
 Number of Records Written=          87
