Program Version,EnergyPlus, Version 22.2.0-c249759bad, YMD=2023.09.01 14:31
1,5,Environment Title[],Latitude[deg],Longitude[deg],Time Zone[],Elevation[m]
2,8,Day of Simulation[],Month[],Day of Month[],DST Indicator[1=yes 0=no],Hour[],StartMinute[],EndMinute[],DayType
3,5,Cumulative Day of Simulation[],Month[],Day of Month[],DST Indicator[1=yes 0=no],DayType  ! When Daily Report Variables Requested
4,2,Cumulative Days of Simulation[],Month[]  ! When Monthly Report Variables Requested
5,1,Cumulative Days of Simulation[] ! When Run Period Report Variables Requested
6,1,Calendar Year of Simulation[] ! When Annual Report Variables Requested
7,1,Environment,Site Outdoor Air Drybulb Temperature [C] !Hourly
545,1,LIVING,Zone Mean Air Temperature [C] !Hourly
546,1,ATTIC,Zone Mean Air Temperature [C] !Hourly
547,1,CRAWLSPACE,Zone Mean Air Temperature [C] !Hourly
548,1,FAN,Fan Electricity Rate [W] !Hourly
720,1,LIVING,Zone Predicted Sensible Load to Heating Setpoint Heat Transfer Rate [W] !Hourly
721,1,LIVING,Zone System Predicted Sensible Load to Heating Setpoint Heat Transfer Rate [W] !Hourly
784,1,ATTIC,Zone Predicted Sensible Load to Heating Setpoint Heat Transfer Rate [W] !Hourly
785,1,ATTIC,Zone System Predicted Sensible Load to Heating Setpoint Heat Transfer Rate [W] !Hourly
848,1,CRAWLSPACE,Zone Predicted Sensible Load to Heating Setpoint Heat Transfer Rate [W] !Hourly
849,1,CRAWLSPACE,Zone System Predicted Sensible Load to Heating Setpoint Heat Transfer Rate [W] !Hourly
1121,1,DX_HEATING_COIL,Heating Coil Heating Rate [W] !Hourly
1135,1,DX_HEATING_COIL,Heating Coil Electricity Rate [W] !Hourly
1161,1,DX_HEATING_COIL,Heating Coil Defrost Electricity Rate [W] !Hourly
1163,1,DX_HEATING_COIL,Heating Coil Crankcase Heater Electricity Rate [W] !Hourly
1166,1,HEATING_RESISTANCE_BACKUP,Heating Coil Heating Rate [W] !Hourly
1168,1,HEATING_RESISTANCE_BACKUP,Heating Coil Electricity Rate [W] !Hourly
End of Data Dictionary
1,EXTREME_WINTER,  43.52,-112.07,  -7.00,1441.40
2,1,12,15, 0, 1, 0.00,60.00,Monday
7,-16.0
545,18.57551278886035
546,-8.929749183804034
547,17.38540620210958
548,179.46076067170247
720,5946.684477867626
721,5946.684477867626
784,0.0
785,0.0
848,0.0
849,0.0
1121,3645.7823001051347
1135,1518.7962333721905
1161,3.7610800091226104
1163,0.0
1166,4499.980868159793
1168,4499.980868159793
2,1,12,15, 0, 2, 0.00,60.00,Monday
7,-17.0
545,18.55497344251512
546,-9.793938235157269
547,16.857951469780392
548,179.46076067170247
720,6106.197176399741
721,6106.197176399741
784,0.0
785,0.0
848,0.0
849,0.0
1121,3516.302077360725
1135,1494.5005482064182
1161,7.989481861844366
1163,0.0
1166,4917.997039602853
1168,4917.997039602853
2,1,12,15, 0, 3, 0.00,60.00,Monday
7,-16.7
545,18.558910553316778
546,-9.40793504336398
547,16.63254788792502
548,179.46076067170247
720,6048.816416821475
721,6048.816416821475
784,0.0
785,0.0
848,0.0
849,0.0
1121,3567.42126919774
1135,1504.1997016054315
1161,3.045076400153195
1163,0.0
1166,4868.790028215304
1168,4868.790028215304
2,1,12,15, 0, 4, 0.00,60.00,Monday
7,-16.7
545,18.575057537712826
546,-9.43235072845788
547,16.35262779523791
548,179.46076067170247
720,5697.139065697189
721,5697.139065697189
784,0.0
785,0.0
848,0.0
849,0.0
1121,3557.305864156682
1135,1499.689154447381
1161,6.642710763673342
1163,0.0
1166,4459.308632417276
1168,4459.308632417276
2,1,12,15, 0, 5, 0.00,60.00,Monday
7,-16.7
545,18.572504047252927
546,-9.207086245964494
547,16.109698984930453
548,179.46076067170247
720,5735.0705165878735
721,5735.0705165878735
784,0.0
785,0.0
848,0.0
849,0.0
1121,3557.256919765459
1135,1499.7547854894717
1161,6.638209796940338
1163,0.0
1166,4501.642033287107
1168,4501.642033287107
2,1,12,15, 0, 6, 0.00,60.00,Monday
7,-17.0
545,19.322402166978407
546,-8.940605357525081
547,15.874401689834045
548,179.46076067170247
720,6743.312268474285
721,6743.312268474285
784,0.0
785,0.0
848,0.0
849,0.0
1121,3517.9970403426005
1135,1492.8625352891231
1161,7.989481861844366
1163,0.0
1166,5693.388889944465
1168,5693.388889944465
2,1,12,15, 0, 7, 0.00,60.00,Monday
7,-17.2
545,19.56819385250633
546,-8.945710800432407
547,15.683947549575924
548,179.46076067170247
720,6570.579795197791
721,6570.579795197791
784,0.0
785,0.0
848,0.0
849,0.0
1121,3482.8093335685926
1135,1511.6546271077061
1161,5.134367324188931
1163,0.0
1166,5598.932872662392
1168,5598.932872662392
2,1,12,15, 0, 8, 0.00,60.00,Monday
7,-16.7
545,19.634211494450444
546,-9.616292786905145
547,15.480289769804774
548,179.46076067170247
720,6772.590261352816
721,6772.590261352816
784,0.0
785,0.0
848,0.0
849,0.0
1121,3524.2768924136303
1135,1521.0668092774717
1161,9.30519713623504
1163,0.0
1166,5827.958400014928
1168,5827.958400014928
2,1,12,15, 0, 9, 0.00,60.00,Monday
7,-16.7
545,19.668452415087835
546,-9.537918040604916
547,15.290812859282518
548,179.46076067170247
720,6245.908252058383
721,6245.908252058383
784,0.0
785,0.0
848,0.0
849,0.0
1121,3522.7948685403
1135,1522.5086721903258
1161,9.300683516042783
1163,0.0
1166,5263.509700626437
1168,5263.509700626437
2,1,12,15, 0,10, 0.00,60.00,Monday
7,-16.1
545,19.672451013496225
546,-8.725193046126392
547,15.106061566818342
548,179.46076067170247
720,6312.111251029515
721,6312.111251029515
784,0.0
785,0.0
848,0.0
849,0.0
1121,3610.5587150316164
1135,1540.2799332006384
1161,3.642679694439721
1163,0.0
1166,5253.237295094059
1168,5253.237295094059
2,1,12,15, 0,11, 0.00,60.00,Monday
7,-16.1
545,19.668239382623177
546,-8.461348333100156
547,14.920186137635907
548,179.46076067170247
720,6654.536676504693
721,6654.536676504693
784,0.0
785,0.0
848,0.0
849,0.0
1121,3602.5143544323932
1135,1536.606171083422
1161,6.479521343476465
1163,0.0
1166,5632.473814393113
1168,5632.473814393113
2,1,12,15, 0,12, 0.00,60.00,Monday
7,-16.0
545,19.677438037346754
546,-8.023654022664573
547,14.74814712184082
548,179.46076067170247
720,6406.921317063425
721,6406.921317063425
784,0.0
785,0.0
848,0.0
849,0.0
1121,3622.8957503543156
1135,1541.292516433728
1161,3.7610800091226104
1163,0.0
1166,5319.364166012801
1168,5319.364166012801
2,1,12,15, 0,13, 0.00,60.00,Monday
7,-15.0
545,19.694924494325186
546,-7.146790039477163
547,14.593374999159456
548,179.46076067170247
720,5763.688980659988
721,5763.688980659988
784,0.0
785,0.0
848,0.0
849,0.0
1121,3720.094241628679
1135,1547.340020152027
1161,12.244225171399613
1163,0.0
1166,4450.463699638587
1168,4450.463699638587
2,1,12,15, 0,14, 0.00,60.00,Monday
7,-14.0
545,19.715571103512534
546,-4.742010245643159
547,14.4480913706417
548,179.46076067170247
720,4867.337007204786
721,4867.337007204786
784,0.0
785,0.0
848,0.0
849,0.0
1121,3859.154396381899
1135,1569.8870262429964
1161,7.386256423370043
1163,0.0
1166,3216.6405923186812
1168,3216.6405923186812
2,1,12,15, 0,15, 0.00,60.00,Monday
7,-14.0
545,19.71655522324808
546,-4.147399623756298
547,14.306350778042727
548,179.46076067170247
720,4793.33698955189
721,4793.33698955189
784,0.0
785,0.0
848,0.0
849,0.0
1121,3837.5137429957463
1135,1561.5923336034868
1161,14.240664286851192
1163,0.0
1166,3013.3030337743216
1168,3013.3030337743216
2,1,12,15, 0,16, 0.00,60.00,Monday
7,-14.0
545,19.70956172770551
546,-3.7248363022844915
547,14.177718274486796
548,179.46076067170247
720,4711.668017803908
721,4711.668017803908
784,0.0
785,0.0
848,0.0
849,0.0
1121,3813.1422039029203
1135,1551.4307712266054
1161,22.14472507150243
1163,0.0
1166,2895.706567635062
1168,2895.706567635062
2,1,12,15, 0,17, 0.00,60.00,Monday
7,-14.0
545,19.71105335962875
546,-3.829087426288306
547,14.057209823748233
548,179.46076067170247
720,4429.469884777105
721,4429.469884777105
784,0.0
785,0.0
848,0.0
849,0.0
1121,3813.5075835402913
1135,1551.056844860207
1161,22.14472507150243
1163,0.0
1166,2543.5268360565124
1168,2543.5268360565124
2,1,12,15, 0,18, 0.00,60.00,Monday
7,-14.0
545,19.704801241625994
546,-5.079833536915671
547,13.94258588599557
548,179.46076067170247
720,4417.890002979395
721,4417.890002979395
784,0.0
785,0.0
848,0.0
849,0.0
1121,3813.644462828012
1135,1550.9167503570707
1161,22.14472507150243
1163,0.0
1166,2529.0684592260336
1168,2529.0684592260336
2,1,12,15, 0,19, 0.00,60.00,Monday
7,-13.0
545,19.703794200734837
546,-5.524979230264182
547,13.840038639261127
548,179.46076067170247
720,4141.485243925581
721,4141.485243925581
784,0.0
785,0.0
848,0.0
849,0.0
1121,3930.159647656721
1135,1562.4645043077835
1161,25.082722415444746
1163,0.0
1166,2156.096389456522
1168,2156.096389456522
2,1,12,15, 0,20, 0.00,60.00,Monday
7,-12.8
545,19.70516748523686
546,-5.673018412392191
547,13.732950803271654
548,179.46076067170247
720,4002.953108004902
721,4002.953108004902
784,0.0
785,0.0
848,0.0
849,0.0
1121,3950.17239401846
1135,1563.1762655093592
1161,26.788943764447165
1163,0.0
1166,2003.8451356803994
1168,2003.8451356803994
2,1,12,15, 0,21, 0.00,60.00,Monday
7,-13.0
545,19.703996383344933
546,-5.7565416124194515
547,13.625326438048171
548,179.46076067170247
720,4031.8808785975416
721,4031.8808785975416
784,0.0
785,0.0
848,0.0
849,0.0
1121,3930.4479282079124
1135,1562.1632979579256
1161,25.082722415444746
1163,0.0
1166,2066.1207978084312
1168,2066.1207978084312
2,1,12,15, 0,22, 0.00,60.00,Monday
7,-13.0
545,19.69697490424616
546,-5.982834131503253
547,13.519633101382034
548,179.46076067170247
720,4322.831828984634
721,4322.831828984634
784,0.0
785,0.0
848,0.0
849,0.0
1121,3930.6383440425952
1135,1561.964328654443
1161,25.082722415444746
1163,0.0
1166,2410.297279660249
1168,2410.297279660249
2,1,12,15, 0,23, 0.00,60.00,Monday
7,-15.0
545,18.945943738568754
546,-7.048668102043042
547,13.397598881249047
548,179.46076067170247
720,3846.3981781130788
721,3846.3981781130788
784,0.0
785,0.0
848,0.0
849,0.0
1121,3696.887964373474
1135,1535.9831051467725
1161,20.366566539072693
1163,0.0
1166,2117.3801115190718
1168,2117.3801115190718
2,1,12,15, 0,24, 0.00,60.00,Monday
7,-15.0
545,18.702430622425897
546,-7.136546342314211
547,13.261527683644438
548,179.46076067170247
720,4115.471673209633
721,4115.471673209633
784,0.0
785,0.0
848,0.0
849,0.0
1121,3716.897916159242
1135,1515.8288906243483
1161,20.372503004400283
1163,0.0
1166,2394.2796322643608
1168,2394.2796322643608
2,2,12,16, 0, 1, 0.00,60.00,Tuesday
7,-16.7
545,18.60666768299968
546,-7.860045543906212
547,13.128812198960835
548,179.46076067170247
720,4875.298195115305
721,4875.298195115305
784,0.0
785,0.0
848,0.0
849,0.0
1121,3530.3979981790394
1135,1487.3019923145769
1161,16.310069458856262
1163,0.0
1166,3450.705627826837
1168,3450.705627826837
2,2,12,16, 0, 2, 0.00,60.00,Tuesday
7,-17.2
545,18.572416936736296
546,-8.54874270768567
547,13.005189500672381
548,179.46076067170247
720,5350.5881598919095
721,5350.5881598919095
784,0.0
785,0.0
848,0.0
849,0.0
1121,3476.939246682854
1135,1477.8893283133516
1161,15.250657251194918
1163,0.0
1166,4098.810531348479
1168,4098.810531348479
2,2,12,16, 0, 3, 0.00,60.00,Tuesday
7,-16.7
545,18.571299731783597
546,-8.61869462253582
547,12.889027067425406
548,179.46076067170247
720,5305.814189343571
721,5305.814189343571
784,0.0
785,0.0
848,0.0
849,0.0
1121,3534.097263523797
1135,1483.6627022001483
1161,16.318091902486444
1163,0.0
1166,4038.333864951487
1168,4038.333864951487
2,2,12,16, 0, 4, 0.00,60.00,Tuesday
7,-18.9
545,18.55670134157064
546,-9.615942533679096
547,12.74805631032395
548,179.46076067170247
720,5917.773081232544
721,5917.773081232544
784,0.0
785,0.0
848,0.0
849,0.0
1121,3291.9038848277046
1135,1453.1310041876636
1161,11.306274992212074
1163,0.0
1166,4997.504429035908
1168,4997.504429035908
2,2,12,16, 0, 5, 0.00,60.00,Tuesday
7,-18.3
545,18.565742081297937
546,-9.667501707586712
547,12.635405140623945
548,179.46076067170247
720,5617.0789211176525
721,5617.0789211176525
784,0.0
785,0.0
848,0.0
849,0.0
1121,3350.3165572531857
1135,1457.930166295448
1161,15.370936189919233
1163,0.0
1166,4654.983418394463
1168,4654.983418394463
2,2,12,16, 0, 6, 0.00,60.00,Tuesday
7,-13.9
545,19.331553485797272
546,-8.446211509999031
547,12.545429543029876
548,179.46076067170247
720,6266.1766575130805
721,6266.1766575130805
784,0.0
785,0.0
848,0.0
849,0.0
1121,3836.8852265144255
1135,1510.630258122176
1161,29.00757417756281
1163,0.0
1166,4927.933247897263
1168,4927.933247897263
2,2,12,16, 0, 7, 0.00,60.00,Tuesday
7,-14.4
545,19.578271284858918
546,-7.714588584740617
547,12.451605432612544
548,179.46076067170247
720,6216.978724558718
721,6216.978724558718
784,0.0
785,0.0
848,0.0
849,0.0
1121,3776.780377092399
1135,1532.3118621636513
1161,21.987160669052894
1163,0.0
1166,4951.175635375363
1168,4951.175635375363
2,2,12,16, 0, 8, 0.00,60.00,Tuesday
7,-17.2
545,19.653770602044546
546,-7.961195331600576
547,12.329690743715126
548,179.46076067170247
720,6037.3431731857
721,6037.3431731857
784,0.0
785,0.0
848,0.0
849,0.0
1121,3452.520510003321
1135,1501.3047679747633
1161,15.240295614881774
1163,0.0
1166,5047.440711613972
1168,5047.440711613972
2,2,12,16, 0, 9, 0.00,60.00,Tuesday
7,-16.7
545,19.668646514470005
546,-8.478799087214362
547,12.235097145543119
548,179.46076067170247
720,6089.769663166808
721,6089.769663166808
784,0.0
785,0.0
848,0.0
849,0.0
1121,3506.7835436415367
1135,1510.1945375944792
1161,16.303771641909428
1163,0.0
1166,5068.507091607955
1168,5068.507091607955
2,2,12,16, 0,10, 0.00,60.00,Tuesday
7,-14.4
545,19.67894931612033
546,-7.786325617876422
547,12.148544553499832
548,179.46076067170247
720,5869.442071425512
721,5869.442071425512
784,0.0
785,0.0
848,0.0
849,0.0
1121,3768.294538670935
1135,1540.9690225215097
1161,21.982809201309994
1163,0.0
1166,4588.959073005088
1168,4588.959073005088
2,2,12,16, 0,11, 0.00,60.00,Tuesday
7,-10.6
545,19.706402633333244
546,-6.0131575714835686
547,12.078356830033714
548,179.46076067170247
720,5062.915500299421
721,5062.915500299421
784,0.0
785,0.0
848,0.0
849,0.0
1121,4241.5162738069
1135,1594.220052606018
1161,25.72924641237416
1163,0.0
1166,3156.464467234933
1168,3156.464467234933
2,2,12,16, 0,12, 0.00,60.00,Tuesday
7,-9.4
545,19.72313173110499
546,-3.418069961158446
547,11.993667900652133
548,179.46076067170247
720,4493.861472701548
721,4493.861472701548
784,0.0
785,0.0
848,0.0
849,0.0
1121,4392.144591701792
1135,1609.1639292208208
1161,28.195876457682356
1163,0.0
1166,2247.40230068587
1168,2247.40230068587
2,2,12,16, 0,13, 0.00,60.00,Tuesday
7,-8.0
545,19.72713472595833
546,-1.536464819768412
547,11.924579413755266
548,179.46076067170247
720,4387.87815875635
721,4387.87815875635
784,0.0
785,0.0
848,0.0
849,0.0
1121,4562.308565027619
1135,1622.371323145893
1161,33.59085241077939
1163,0.0
1166,1812.5922097835874
1168,1812.5922097835874
2,2,12,16, 0,14, 0.00,60.00,Tuesday
7,-7.0
545,19.73053638425528
546,-0.17911029085820043
547,11.866274048321626
548,179.46076067170247
720,4144.633126239987
721,4144.633126239987
784,0.0
785,0.0
848,0.0
849,0.0
1121,4684.513466630546
1135,1630.8666571552164
1161,37.783114126785385
1163,0.0
1166,1300.8807017416548
1168,1300.8807017416548
2,2,12,16, 0,15, 0.00,60.00,Tuesday
7,-5.0
545,19.741285596068916
546,1.2401235448817423
547,11.829491178072088
548,179.46076067170247
720,3500.1475524574107
721,3500.1475524574107
784,0.0
785,0.0
848,0.0
849,0.0
1121,4860.615534936044
1135,1623.3133483850022
1161,63.824283282889496
1163,0.0
1166,296.83204271696377
1168,296.83204271696377
2,2,12,16, 0,16, 0.00,60.00,Tuesday
7,-5.0
545,19.73639620939556
546,1.333801971787778
547,11.786486212401044
548,179.46076067170247
720,3459.446403099382
721,3459.446403099382
784,0.0
785,0.0
848,0.0
849,0.0
1121,4860.380594899455
1135,1623.5874119469154
1161,63.824283282889496
1163,0.0
1166,159.74098203483845
1168,159.74098203483845
2,2,12,16, 0,17, 0.00,60.00,Tuesday
7,-4.0
545,19.777261666085646
546,1.329614568997123
547,11.74219575817926
548,161.76772230907366
720,3020.608017058177
721,3020.608017058177
784,0.0
785,0.0
848,0.0
849,0.0
1121,4434.551428337891
1135,1482.7536972114387
1161,64.27415053090381
1163,17.83945402388629
1166,0.0
1168,0.0
2,2,12,16, 0,18, 0.00,60.00,Tuesday
7,-5.0
545,19.74780882546808
546,0.6294103324615945
547,11.708402570407436
548,159.83414970173052
720,2867.418909286869
721,2867.418909286869
784,0.0
785,0.0
848,0.0
849,0.0
1121,4218.740171840465
1135,1446.5217615197269
1161,72.04538837755962
1163,19.500276533795933
1166,0.0
1168,0.0
2,2,12,16, 0,19, 0.00,60.00,Tuesday
7,-5.0
545,19.751438857943103
546,-0.09987131182732202
547,11.667588972143356
548,150.178594139398
720,2696.3593902670655
721,2696.3593902670655
784,0.0
785,0.0
848,0.0
849,0.0
1121,3991.0230367734457
1135,1373.1202056790512
1161,53.971249472585356
1163,30.875501622579506
1166,0.0
1168,0.0
2,2,12,16, 0,20, 0.00,60.00,Tuesday
7,-6.1
545,19.74042679953753
546,-0.34047324627809655
547,11.636007758127644
548,148.80213752307
720,2535.177100872341
721,2535.177100872341
784,0.0
785,0.0
848,0.0
849,0.0
1121,3808.4464434537144
1135,1344.6557209882649
1161,58.43172637416502
1163,32.02006455262549
1166,0.0
1168,0.0
2,2,12,16, 0,21, 0.00,60.00,Tuesday
7,-6.7
545,19.73156457986859
546,-0.8034795011514152
547,11.605261285796276
548,148.77849692111423
720,2463.8290080530314
721,2463.8290080530314
784,0.0
785,0.0
848,0.0
849,0.0
1121,3729.60124061008
1135,1334.9884527420804
1161,61.79245397313402
1163,31.774397939032696
1166,0.0
1168,0.0
2,2,12,16, 0,22, 0.00,60.00,Tuesday
7,-6.1
545,19.72335402751245
546,-1.1151159581731884
547,11.580211178610412
548,149.5416147504132
720,2538.4178170957057
721,2538.4178170957057
784,0.0
785,0.0
848,0.0
849,0.0
1121,3829.6308551554735
1135,1350.6789823429606
1161,58.77213269484442
1163,31.18364394866959
1166,0.0
1168,0.0
2,2,12,16, 0,23, 0.00,60.00,Tuesday
7,-8.3
545,18.921062149861477
546,-2.164397615145362
547,11.519667972665067
548,138.85967729883572
720,2123.553628382335
721,2123.553628382335
784,0.0
785,0.0
848,0.0
849,0.0
1121,3330.9029823791852
1135,1240.6667833603449
1161,47.91651537281699
1163,43.07556290874053
1166,0.0
1168,0.0
2,2,12,16, 0,24, 0.00,60.00,Tuesday
7,-7.2
545,18.667779731198912
546,-2.159057322631731
547,11.480505401960825
548,153.49272850882986
720,2562.8060352218545
721,2562.8060352218545
784,0.0
785,0.0
848,0.0
849,0.0
1121,3862.9555374833994
1135,1361.7023180445296
1161,52.400876044870515
1163,26.812108908282873
1166,0.0
1168,0.0
2,3,12,17, 0, 1, 0.00,60.00,Wednesday
7,-7.2
545,18.543099922821977
546,-2.0284390086122595
547,11.450500684262742
548,179.46076067170247
720,3111.3569226752734
721,3111.3569226752734
784,0.0
785,0.0
848,0.0
849,0.0
1121,4598.028292315529
1135,1564.5286727300513
1161,60.57027328810201
1163,0.0
1166,21.31037175696474
1168,21.31037175696474
2,3,12,17, 0, 2, 0.00,60.00,Wednesday
7,-8.0
545,18.578968300218044
546,-1.8179711762231219
547,11.39057821371493
548,179.46076067170247
720,3273.675688628984
721,3273.675688628984
784,0.0
785,0.0
848,0.0
849,0.0
1121,4497.676524444859
1135,1551.743822082612
1161,59.36023959315705
1163,0.0
1166,359.7155315103928
1168,359.7155315103928
2,3,12,17, 0, 3, 0.00,60.00,Wednesday
7,-7.8
545,18.589705029566943
546,-2.2572461565273314
547,11.34674707523064
548,179.46076067170247
720,3674.2246220362613
721,3674.2246220362613
784,0.0
785,0.0
848,0.0
849,0.0
1121,4560.929119067148
1135,1568.1306421610966
1161,49.58085969053318
1163,0.0
1166,764.9564333395251
1168,764.9564333395251
2,3,12,17, 0, 4, 0.00,60.00,Wednesday
7,-9.4
545,18.588608727856574
546,-2.570547931130441
547,11.28331290595919
548,179.46076067170247
720,4011.83683772473
721,4011.83683772473
784,0.0
785,0.0
848,0.0
849,0.0
1121,4356.733578161548
1135,1550.7320959119415
1161,46.594937175130184
1163,0.0
1166,1388.2756010162448
1168,1388.2756010162448
2,3,12,17, 0, 5, 0.00,60.00,Wednesday
7,-8.3
545,18.594475057081514
546,-2.7268038373885335
547,11.242794814681561
548,179.46076067170247
720,4012.9203167574415
721,4012.9203167574415
784,0.0
785,0.0
848,0.0
849,0.0
1121,4502.6947979193465
1135,1564.8855659970147
1161,47.01281421747597
1163,0.0
1166,1273.9489650622281
1168,1273.9489650622281
2,3,12,17, 0, 6, 0.00,60.00,Wednesday
7,-8.9
545,19.332767237359896
546,-2.7531151084654724
547,11.183243253168834
548,179.46076067170247
720,5278.352616322529
721,5278.352616322529
784,0.0
785,0.0
848,0.0
849,0.0
1121,4432.771581144412
1135,1560.737394576821
1161,44.05287272177356
1163,0.0
1166,2813.8818183947387
1168,2813.8818183947387
2,3,12,17, 0, 7, 0.00,60.00,Wednesday
7,-8.9
545,19.591278543238438
546,-2.5684541203157916
547,11.16837974513565
548,179.46076067170247
720,4858.9371244566555
721,4858.9371244566555
784,0.0
785,0.0
848,0.0
849,0.0
1121,4388.316814358374
1135,1573.7807954993914
1161,50.84946031193365
1163,0.0
1166,2459.920644447861
1168,2459.920644447861
2,3,12,17, 0, 8, 0.00,60.00,Wednesday
7,-8.9
545,19.667990895607886
546,-2.9630182361416786
547,11.121878136860024
548,179.46076067170247
720,4854.107717797855
721,4854.107717797855
784,0.0
785,0.0
848,0.0
849,0.0
1121,4406.43954637233
1135,1590.4588271765604
1161,44.014869928161765
1163,0.0
1166,2452.234193070415
1168,2452.234193070415
2,3,12,17, 0, 9, 0.00,60.00,Wednesday
7,-9.0
545,19.697121281108597
546,-2.5805981721977873
547,11.077700726984297
548,179.46076067170247
720,4529.183425368183
721,4529.183425368183
784,0.0
785,0.0
848,0.0
849,0.0
1121,4399.15495864915
1135,1594.2528748124132
1161,41.782997769211626
1163,0.0
1166,2107.8005725045978
1168,2107.8005725045978
2,3,12,17, 0,10, 0.00,60.00,Wednesday
7,-10.0
545,19.704448013005948
546,-2.4940618683208475
547,11.02202416482421
548,179.46076067170247
720,4511.8458405023885
721,4511.8458405023885
784,0.0
785,0.0
848,0.0
849,0.0
1121,4286.698863928334
1135,1588.6469892897849
1161,35.79572275697699
1163,0.0
1166,2180.6648766477524
1168,2180.6648766477524
2,3,12,17, 0,11, 0.00,60.00,Wednesday
7,-9.0
545,19.70688752668395
546,-2.1102615103133413
547,10.983358626942207
548,179.46076067170247
720,4455.433077580858
721,4455.433077580858
784,0.0
785,0.0
848,0.0
849,0.0
1121,4398.326720837631
1135,1595.1782835978943
1161,41.782997769211626
1163,0.0
1166,2000.773836247201
1168,2000.773836247201
2,3,12,17, 0,12, 0.00,60.00,Wednesday
7,-10.0
545,19.70830345571434
546,-1.9256249140656356
547,10.92712573438255
548,179.46076067170247
720,4426.957250358848
721,4426.957250358848
784,0.0
785,0.0
848,0.0
849,0.0
1121,4286.57499445357
1135,1588.7834301155592
1161,35.79572275697699
1163,0.0
1166,2059.2163538107343
1168,2059.2163538107343
2,3,12,17, 0,13, 0.00,60.00,Wednesday
7,-9.4
545,19.730724480913196
546,1.8643416077962147
547,10.89171829219737
548,179.46076067170247
720,3428.4337697070514
721,3428.4337697070514
784,0.0
785,0.0
848,0.0
849,0.0
1121,4345.7751976817935
1135,1589.8088533532355
1161,41.542139709000054
1163,0.0
1166,838.8176541986759
1168,838.8176541986759
2,3,12,17, 0,14, 0.00,60.00,Wednesday
7,-9.0
545,19.74803909472749
546,4.541432267456049
547,10.861205916058108
548,179.46076067170247
720,3095.75431003672
721,3095.75431003672
784,0.0
785,0.0
848,0.0
849,0.0
1121,4397.775491453617
1135,1595.794127375708
1161,41.782997769211626
1163,0.0
1166,208.02482521980073
1168,208.02482521980073
2,3,12,17, 0,15, 0.00,60.00,Wednesday
7,-7.0
545,19.737276484567005
546,2.210653089263761
547,10.855547187270622
548,179.46076067170247
720,3475.6215824315186
721,3475.6215824315186
784,0.0
785,0.0
848,0.0
849,0.0
1121,4631.069840808706
1135,1610.7650040421897
1161,51.873819713878774
1163,0.0
1166,262.1986897812726
1168,262.1986897812726
2,3,12,17, 0,16, 0.00,60.00,Wednesday
7,-7.0
545,19.715680972157276
546,1.1929051257598342
547,10.840052480949135
548,179.46076067170247
720,3510.389882248279
721,3510.389882248279
784,0.0
785,0.0
848,0.0
849,0.0
1121,4631.379283828216
1135,1610.4108003859747
1161,51.873819713878774
1163,0.0
1166,394.49627951111324
1168,394.49627951111324
2,3,12,17, 0,17, 0.00,60.00,Wednesday
7,-7.0
545,19.7315159803601
546,0.8066591036809829
547,10.829244287391004
548,175.36836523481966
720,2989.558587599513
721,2989.558587599513
784,0.0
785,0.0
848,0.0
849,0.0
1121,4468.889827262163
1135,1575.7285592146907
1161,65.00747021994815
1163,1.9526248745278973
1166,0.0
1168,0.0
2,3,12,17, 0,18, 0.00,60.00,Wednesday
7,-6.7
545,19.695786540740567
546,-1.355724107088088
547,10.82188321813209
548,179.46076067170247
720,3796.899414238371
721,3796.899414238371
784,0.0
785,0.0
848,0.0
849,0.0
1121,4651.592588929426
1135,1606.8409600860227
1161,57.36599865817235
1163,0.0
1166,788.5986991185209
1168,788.5986991185209
2,3,12,17, 0,19, 0.00,60.00,Wednesday
7,-6.7
545,19.714600915458714
546,-1.6544421330811505
547,10.808966627172703
548,179.46076067170247
720,3083.074761517011
721,3083.074761517011
784,0.0
785,0.0
848,0.0
849,0.0
1121,4652.57469589325
1135,1605.8378016441168
1161,57.344606583126186
1163,0.0
1166,76.81077636308419
1168,76.81077636308419
2,3,12,17, 0,20, 0.00,60.00,Wednesday
7,-8.0
545,19.690219078244084
546,-3.4039871008282
547,10.773559594543292
548,179.46076067170247
720,4215.047611251888
721,4215.047611251888
784,0.0
785,0.0
848,0.0
849,0.0
1121,4515.5936049258635
1135,1602.6218489523362
1161,46.61014890780706
1163,0.0
1166,1543.8460920515472
1168,1543.8460920515472
2,3,12,17, 0,21, 0.00,60.00,Wednesday
7,-9.4
545,19.689659458537562
546,-4.74942607846358
547,10.736839024378819
548,179.46076067170247
720,4295.530082066352
721,4295.530082066352
784,0.0
785,0.0
848,0.0
849,0.0
1121,4347.392807667528
1135,1589.1238885047894
1161,41.33266413537924
1163,0.0
1166,1907.5714891036778
1168,1907.5714891036778
2,3,12,17, 0,22, 0.00,60.00,Wednesday
7,-10.0
545,19.678442071292096
546,-5.139880612040873
547,10.69317966752675
548,179.46076067170247
720,4839.484120367773
721,4839.484120367773
784,0.0
785,0.0
848,0.0
849,0.0
1121,4277.499470161748
1135,1583.9429332041916
1161,38.650910137723436
1163,0.0
1166,2693.458338550321
1168,2693.458338550321
2,3,12,17, 0,23, 0.00,60.00,Wednesday
7,-11.0
545,18.93752656102777
546,-5.288233318061014
547,10.63671914779064
548,179.46076067170247
720,4311.595506377764
721,4311.595506377764
784,0.0
785,0.0
848,0.0
849,0.0
1121,4130.858482330701
1135,1562.991011023424
1161,43.35631371676788
1163,0.0
1166,2283.0217296314004
1168,2283.0217296314004
2,3,12,17, 0,24, 0.00,60.00,Wednesday
7,-11.1
545,18.72932015508653
546,-5.589327216978739
547,10.553436014575746
548,179.46076067170247
720,3692.957489488601
721,3692.957489488601
784,0.0
785,0.0
848,0.0
849,0.0
1121,4169.240274516034
1135,1552.16154031694
1161,34.09291184924456
1163,0.0
1166,1460.4920488761172
1168,1460.4920488761172
2,4,12,18, 0, 1, 0.00,60.00,Thursday
7,-11.0
545,18.627072725143133
546,-5.087405456707586
547,10.484432253291306
548,179.46076067170247
720,4347.89364202837
721,4347.89364202837
784,0.0
785,0.0
848,0.0
849,0.0
1121,4155.980173559302
1135,1535.6666932219946
1161,43.35631371676788
1163,0.0
1166,2207.4181921875183
1168,2207.4181921875183
2,4,12,18, 0, 2, 0.00,60.00,Thursday
7,-11.1
545,18.60379099756568
546,-5.520175140543548
547,10.411510330156716
548,179.46076067170247
720,4418.613218607539
721,4418.613218607539
784,0.0
785,0.0
848,0.0
849,0.0
1121,4158.202757859942
1135,1535.8364674754198
1161,39.75129464347152
1163,0.0
1166,2266.8620832658753
1168,2266.8620832658753
2,4,12,18, 0, 3, 0.00,60.00,Thursday
7,-11.1
545,18.5933211642873
546,-5.230845395177693
547,10.341672005462716
548,179.46076067170247
720,4467.71962313065
721,4467.71962313065
784,0.0
785,0.0
848,0.0
849,0.0
1121,4158.936506665606
1135,1535.093984300589
1161,39.73992508149677
1163,0.0
1166,2339.1215278903346
1168,2339.1215278903346
2,4,12,18, 0, 4, 0.00,60.00,Thursday
7,-11.0
545,18.597064969668256
546,-4.930276311764847
547,10.27302856714428
548,179.46076067170247
720,4325.189043509528
721,4325.189043509528
784,0.0
785,0.0
848,0.0
849,0.0
1121,4159.775980647267
1135,1531.5256734999966
1161,43.35631371676788
1163,0.0
1166,2160.0288574742426
1168,2160.0288574742426
2,4,12,18, 0, 5, 0.00,60.00,Thursday
7,-9.4
545,18.593874710170237
546,-4.500851868911785
547,10.217838417148148
548,179.46076067170247
720,4470.647197977229
721,4470.647197977229
784,0.0
785,0.0
848,0.0
849,0.0
1121,4377.278495687858
1135,1556.0520001110594
1161,41.29347501883619
1163,0.0
1166,2099.9591895354965
1168,2099.9591895354965
2,4,12,18, 0, 6, 0.00,60.00,Thursday
7,-9.0
545,19.340669790647254
546,-4.2011376232045174
547,10.15426931277274
548,179.46076067170247
720,5545.983812816929
721,5545.983812816929
784,0.0
785,0.0
848,0.0
849,0.0
1121,4429.163549502198
1135,1560.6602183482892
1161,41.782997769211626
1163,0.0
1166,3267.5902276560887
1168,3267.5902276560887
2,4,12,18, 0, 7, 0.00,60.00,Thursday
7,-10.0
545,19.593614178384257
546,-4.086243061840077
547,10.124968297053117
548,179.46076067170247
720,5130.771747812414
721,5130.771747812414
784,0.0
785,0.0
848,0.0
849,0.0
1121,4253.553523348871
1135,1560.4636509304064
1161,48.242737970986546
1163,0.0
1166,3023.6398343111914
1168,3023.6398343111914
2,4,12,18, 0, 8, 0.00,60.00,Thursday
7,-11.0
545,19.66038858914078
546,-4.499990287137956
547,10.068170539611401
548,179.46076067170247
720,5317.682490385527
721,5317.682490385527
784,0.0
785,0.0
848,0.0
849,0.0
1121,4133.770083701891
1135,1559.831771372899
1161,43.35631371676788
1163,0.0
1166,3374.3719697261467
1168,3374.3719697261467
2,4,12,18, 0, 9, 0.00,60.00,Thursday
7,-10.6
545,19.69075632663252
546,-4.324861015803814
547,10.02691685007036
548,179.46076067170247
720,4923.023805464229
721,4923.023805464229
784,0.0
785,0.0
848,0.0
849,0.0
1121,4188.897292577338
1135,1569.302834446672
1161,41.930162912611095
1163,0.0
1166,2893.959897217746
1168,2893.959897217746
2,4,12,18, 0,10, 0.00,60.00,Thursday
7,-10.6
545,19.701230691368746
546,-3.8923323701786474
547,9.977301797427959
548,179.46076067170247
720,4752.651589698085
721,4752.651589698085
784,0.0
785,0.0
848,0.0
849,0.0
1121,4208.514181313018
1135,1577.7680455546151
1161,36.05248006549125
1163,0.0
1166,2667.5989213975063
1168,2667.5989213975063
2,4,12,18, 0,11, 0.00,60.00,Thursday
7,-10.0
545,19.717252824202138
546,-2.184814345332895
547,9.93488465393625
548,179.46076067170247
720,4143.921164985311
721,4143.921164985311
784,0.0
785,0.0
848,0.0
849,0.0
1121,4288.225893203764
1135,1586.9647338909363
1161,35.79572275697699
1163,0.0
1166,1868.791545372651
1168,1868.791545372651
2,4,12,18, 0,12, 0.00,60.00,Thursday
7,-10.0
545,19.72476235861711