Program Version,EnergyPlus, Version 22.2.0-c249759bad, YMD=2023.09.01 14:31
1,5,Environment Title[],Latitude[deg],Longitude[deg],Time Zone[],Elevation[m]
2,8,Day of Simulation[],Month[],Day of Month[],DST Indicator[1=yes 0=no],Hour[],StartMinute[],EndMinute[],DayType
3,5,Cumulative Day of Simulation[],Month[],Day of Month[],DST Indicator[1=yes 0=no],DayType  ! When Daily Report Variables Requested
4,2,Cumulative Days of Simulation[],Month[]  ! When Monthly Report Variables Requested
5,1,Cumulative Days of Simulation[] ! When Run Period Report Variables Requested
6,1,Calendar Year of Simulation[] ! When Annual Report Variables Requested
7,1,Environment,Site Outdoor Air Drybulb Temperature [C] !Hourly
545,1,LIVING,Zone Mean Air Temperature [C] !Hourly
546,1,ATTIC,Zone Mean Air Temperature [C] !Hourly
547,1,CRAWLSPACE,Zone Mean Air Temperature [C] !Hourly
548,1,FAN,Fan Electricity Rate [W] !Hourly
720,1,LIVING,Zone Predicted Sensible Load to Heating Setpoint Heat Transfer Rate [W] !Hourly
721,1,LIVING,Zone System Predicted Sensible Load to Heating Setpoint Heat Transfer Rate [W] !Hourly
784,1,ATTIC,Zone Predicted Sensible Load to Heating Setpoint Heat Transfer Rate [W] !Hourly
785,1,ATTIC,Zone System Predicted Sensible Load to Heating Setpoint Heat Transfer Rate [W] !Hourly
848,1,CRAWLSPACE,Zone Predicted Sensible Load to Heating Setpoint Heat Transfer Rate [W] !Hourly
849,1,CRAWLSPACE,Zone System Predicted Sensible Load to Heating Setpoint Heat Transfer Rate [W] !Hourly
1121,1,DX_HEATING_COIL,Heating Coil Heating Rate [W] !Hourly
1135,1,DX_HEATING_COIL,Heating Coil Electricity Rate [W] !Hourly
1161,1,DX_HEATING_COIL,Heating Coil Defrost Electricity Rate [W] !Hourly
1163,1,DX_HEATING_COIL,Heating Coil Crankcase Heater Electricity Rate [W] !Hourly
1166,1,HEATING_RESISTANCE_BACKUP,Heating Coil Heating Rate [W] !Hourly
1168,1,HEATING_RESISTANCE_BACKUP,Heating Coil Electricity Rate [W] !Hourly
End of Data Dictionary
1,EXTREME_WINTER,  44.36, -84.67,  -5.00, 351.00
2,1,12,15, 0, 1, 0.00,60.00,Monday
7,-13.3
545,18.613424059139362
546,-8.27872353287595
547,17.702828408290635
548,141.36092627471385
720,4230.283409814414
721,4230.283409814414
784,0.0
785,0.0
848,0.0
849,0.0
1121,3111.2126589472914
1135,1217.381626467467
1161,11.586342973086715
1163,0.0
1166,3308.620958049677
1168,3308.620958049677
2,1,12,15, 0, 2, 0.00,60.00,Monday
7,-13.9
545,18.582767958409544
546,-8.418422124074018
547,17.231565375859788
548,141.36092627471385
720,4868.304774444792
721,4868.304774444792
784,0.0
785,0.0
848,0.0
849,0.0
1121,3045.5911072278464
1135,1206.6426800879333
1161,13.757733980549865
1163,0.0
1166,4001.555705198643
1168,4001.555705198643
2,1,12,15, 0, 3, 0.00,60.00,Monday
7,-12.8
545,18.565860451299066
546,-7.883818199833512
547,16.99271876643111
548,141.36092627471385
720,5210.339161175683
721,5210.339161175683
784,0.0
785,0.0
848,0.0
849,0.0
1121,3149.5726516042837
1135,1215.7382020058094
1161,15.869029322444842
1163,0.0
1166,4314.569437597601
1168,4314.569437597601
2,1,12,15, 0, 4, 0.00,60.00,Monday
7,-12.2
545,18.56184623255506
546,-6.707297834940401
547,16.728498757597055
548,141.36092627471385
720,5511.97517508511
721,5511.97517508511
784,0.0
785,0.0
848,0.0
849,0.0
1121,3209.6344394387424
1135,1221.5399164209284
1161,16.232977983095513
1163,0.0
1166,4599.851073993315
1168,4599.851073993315
2,1,12,15, 0, 5, 0.00,60.00,Monday
7,-11.7
545,18.573067859448585
546,-6.215652561490083
547,16.500556432984627
548,141.36092627471385
720,5434.659427855795
721,5434.659427855795
784,0.0
785,0.0
848,0.0
849,0.0
1121,3254.229257547287
1135,1224.2666511553514
1161,18.257891293772502
1163,0.0
1166,4422.270106770666
1168,4422.270106770666
2,1,12,15, 0, 6, 0.00,60.00,Monday
7,-11.7
545,19.338709728744107
546,-6.186640609140549
547,16.27679860842772
548,141.36092627471385
720,6822.024526069872
721,6822.024526069872
784,0.0
785,0.0
848,0.0
849,0.0
1121,3241.510766448925
1135,1219.4360639392141
1161,22.04454431911772
1163,0.0
1166,6025.922145250277
1168,6025.922145250277
2,1,12,15, 0, 7, 0.00,60.00,Monday
7,-11.1
545,19.594738735170306
546,-5.842258880915859
547,16.11316920162378
548,141.36092627471385
720,5931.819789770823
721,5931.819789770823
784,0.0
785,0.0
848,0.0
849,0.0
1121,3268.36705870706
1135,1236.2799847224003
1161,27.54286538535236
1163,0.0
1166,5041.928344158056
1168,5041.928344158056
2,1,12,15, 0, 8, 0.00,60.00,Monday
7,-9.4
545,19.672208977529092
546,-6.1381621883376285
547,15.935583406110277
548,141.36092627471385
720,5318.93091780553
721,5318.93091780553
784,0.0
785,0.0
848,0.0
849,0.0
1121,3403.4262821240573
1135,1248.0406618340987
1161,37.6513546703664
1163,0.0
1166,4179.498207039203
1168,4179.498207039203
2,1,12,15, 0, 9, 0.00,60.00,Monday
7,-10.0
545,19.680908556243782
546,-6.230159562607763
547,15.753109599020068
548,141.36092627471385
720,5286.836537021651
721,5286.836537021651
784,0.0
785,0.0
848,0.0
849,0.0
1121,3347.8274760210925
1135,1245.8628217144353
1161,35.360740405669965
1163,0.0
1166,4201.959085708813
1168,4201.959085708813
2,1,12,15, 0,10, 0.00,60.00,Monday
7,-10.0
545,19.69425707107133
546,-5.634438488609828
547,15.586444814183757
548,141.36092627471385
720,4826.809657990432
721,4826.809657990432
784,0.0
785,0.0
848,0.0
849,0.0
1121,3362.8926707779246
1135,1251.4325968202727
1161,31.09558525331955
1163,0.0
1166,3660.504295839246
1168,3660.504295839246
2,1,12,15, 0,11, 0.00,60.00,Monday
7,-10.0
545,19.690500068489715
546,-5.364999832696607
547,15.42338657039842
548,141.36092627471385
720,4971.343430324419
721,4971.343430324419
784,0.0
785,0.0
848,0.0
849,0.0
1121,3408.745349207863
1135,1268.5996812509911
1161,18.072722686815336
1163,0.0
1166,3751.56555413442
1168,3751.56555413442
2,1,12,15, 0,12, 0.00,60.00,Monday
7,-10.0
545,19.69731350294786
546,-5.004052238518201
547,15.274133498695628
548,141.36092627471385
720,4677.317414882631
721,4677.317414882631
784,0.0
785,0.0
848,0.0
849,0.0
1121,3409.032083186409
1135,1268.2840954629253
1161,18.072722686815336
1163,0.0
1166,3401.433264923199
1168,3401.433264923199
2,1,12,15, 0,13, 0.00,60.00,Monday
7,-9.4
545,19.682829477476588
546,-5.153550386950095
547,15.140055137933834
548,141.36092627471385
720,5130.175622800083
721,5130.175622800083
784,0.0
785,0.0
848,0.0
849,0.0
1121,3480.0166496725114
1135,1277.8247423449736
1161,16.018232653552477
1163,0.0
1166,3838.778574236693
1168,3838.778574236693
2,1,12,15, 0,14, 0.00,60.00,Monday
7,-11.1
545,19.710728661448194
546,-5.448072889336135
547,15.00728204032849
548,141.36092627471385
720,4080.676344389227
721,4080.676344389227
784,0.0
785,0.0
848,0.0
849,0.0
1121,3302.9046718422273
1135,1258.0348313846514
1161,15.685690319809687
1163,0.0
1166,2809.429957822499
1168,2809.429957822499
2,1,12,15, 0,15, 0.00,60.00,Monday
7,-11.1
545,19.71586606440595
546,-5.3451667964510525
547,14.897348367873972
548,141.36092627471385
720,3551.858726992259
721,3551.858726992259
784,0.0
785,0.0
848,0.0
849,0.0
1121,3326.539797375096
1135,1267.6738740645176
1161,8.62353555007948
1163,0.0
1166,2167.474036317464
1168,2167.474036317464
2,1,12,15, 0,16, 0.00,60.00,Monday
7,-11.7
545,19.720024925677514
546,-6.708359529061534
547,14.791415874740753
548,141.36092627471385
720,3096.14481434562
721,3096.14481434562
784,0.0
785,0.0
848,0.0
849,0.0
1121,3232.0265406611115
1135,1248.0024546485197
1161,18.281841767988155
1163,0.0
1166,1716.5431363153225
1168,1716.5431363153225
2,1,12,15, 0,17, 0.00,60.00,Monday
7,-12.2
545,19.707864761137117
546,-6.387744154400029
547,14.711068637530662
548,141.36092627471385
720,2922.6944402381796
721,2922.6944402381796
784,0.0
785,0.0
848,0.0
849,0.0
1121,3161.1491756442833
1135,1234.2179048956823
1161,24.36511454856011
1163,0.0
1166,1636.8572636528374
1168,1636.8572636528374
2,1,12,15, 0,18, 0.00,60.00,Monday
7,-12.8
545,19.697763034219093
546,-6.837663291951416
547,14.627337268636158
548,141.36092627471385
720,3243.980677195799
721,3243.980677195799
784,0.0
785,0.0
848,0.0
849,0.0
1121,3128.689002823887
1135,1237.4586744211354
1161,15.928391817863039
1163,0.0
1166,2030.5044658632241
1168,2030.5044658632241
2,1,12,15, 0,19, 0.00,60.00,Monday
7,-12.8
545,19.69329385365296
546,-7.767807063334833
547,14.538138439312084
548,141.36092627471385
720,3427.629296994359
721,3427.629296994359
784,0.0
785,0.0
848,0.0
849,0.0
1121,3128.971462205249
1135,1237.1145716697545
1161,15.938626801909738
1163,0.0
1166,2271.064861166443
1168,2271.064861166443
2,1,12,15, 0,20, 0.00,60.00,Monday
7,-13.3
545,19.682822838690527
546,-9.32496161511179
547,14.424553153023028
548,141.36092627471385
720,3799.566114454461
721,3799.566114454461
784,0.0
785,0.0
848,0.0
849,0.0
1121,3085.0366816065184
1135,1233.0762461555296
1161,14.117886218486397
1163,0.0
1166,2800.755347946483
1168,2800.755347946483
2,1,12,15, 0,21, 0.00,60.00,Monday
7,-13.3
545,19.658257375471386
546,-9.41452771431158
547,14.309701765229486
548,141.36092627471385
720,4642.220297218555
721,4642.220297218555
784,0.0
785,0.0
848,0.0
849,0.0
1121,3074.9709877480213
1135,1228.5152363906086
1161,17.402376840214085
1163,0.0
1166,3885.072805741753
1168,3885.072805741753
2,1,12,15, 0,22, 0.00,60.00,Monday
7,-13.3
545,19.672557700497027
546,-9.253544654906442
547,14.188564582282948
548,141.36092627471385
720,4635.735042381397
721,4635.735042381397
784,0.0
785,0.0
848,0.0
849,0.0
1121,3075.6084783452734
1135,1227.852626530043
1161,17.402376840214085
1163,0.0
1166,3915.5219031045203
1168,3915.5219031045203
2,1,12,15, 0,23, 0.00,60.00,Monday
7,-14.4
545,18.89196753451328
546,-10.12807710844693
547,14.048993230725117
548,141.36092627471385
720,4518.957475374447
721,4518.957475374447
784,0.0
785,0.0
848,0.0
849,0.0
1121,2999.461335412529
1135,1227.5578114309749
1161,6.926902868367677
1163,0.0
1166,3861.4184012907435
1168,3861.4184012907435
2,1,12,15, 0,24, 0.00,60.00,Monday
7,-15.0
545,18.659993965555675
546,-10.31706188994472
547,13.878782346237074
548,141.36092627471385
720,4833.132028365022
721,4833.132028365022
784,0.0
785,0.0
848,0.0
849,0.0
1121,2944.254233214052
1135,1198.0435747194424
1161,11.227600072069686
1163,0.0
1166,4261.9177079076635
1168,4261.9177079076635
2,2,12,16, 0, 1, 0.00,60.00,Tuesday
7,-15.0
545,18.587005632114543
546,-10.586851941424483
547,13.732645019779314
548,141.36092627471385
720,5131.254821663722
721,5131.254821663722
784,0.0
785,0.0
848,0.0
849,0.0
1121,2949.3187793667275
1135,1193.0168725615702
1161,11.20407729693848
1163,0.0
1166,4605.593345455278
1168,4605.593345455278
2,2,12,16, 0, 2, 0.00,60.00,Tuesday
7,-15.0
545,18.560902002977066
546,-10.57740726512216
547,13.583054711792379
548,141.36092627471385
720,5479.498359812753
721,5479.498359812753
784,0.0
785,0.0
848,0.0
849,0.0
1121,2944.4877357226915
1135,1188.692030415145
1161,13.350331758044412
1163,0.0
1166,5032.641209740106
1168,5032.641209740106
2,2,12,16, 0, 3, 0.00,60.00,Tuesday
7,-15.0
545,18.567029495906993
546,-10.527788889143205
547,13.437436557240222
548,141.36092627471385
720,5262.701068048016
721,5262.701068048016
784,0.0
785,0.0
848,0.0
849,0.0
1121,2951.6293457860247
1135,1190.5719870960424
1161,11.227600072069686
1163,0.0
1166,4785.768021736543
1168,4785.768021736543
2,2,12,16, 0, 4, 0.00,60.00,Tuesday
7,-15.0
545,18.545879188618546
546,-10.700577293572959
547,13.290095963203273
548,141.36092627471385
720,6016.401337745463
721,6016.401337745463
784,0.0
785,0.0
848,0.0
849,0.0
1121,2943.30138611196
1135,1187.117192128173
1161,13.996582441632391
1163,0.0
1166,5668.654734382531
1168,5668.654734382531
2,2,12,16, 0, 5, 0.00,60.00,Tuesday
7,-15.0
545,18.557663192390912
546,-10.429357833713949
547,13.150232999110733
548,141.36092627471385
720,5747.099365856313
721,5747.099365856313
784,0.0
785,0.0
848,0.0
849,0.0
1121,2943.711254377124
1135,1186.4459814652798
1161,14.055901578525699
1163,0.0
1166,5381.349896327609
1168,5381.349896327609
2,2,12,16, 0, 6, 0.00,60.00,Tuesday
7,-15.0
545,19.334148568932783
546,-10.467748920236716
547,13.011399775284467
548,141.36092627471385
720,6915.764119106379
721,6915.764119106379
784,0.0
785,0.0
848,0.0
849,0.0
1121,2943.6369356868868
1135,1186.5214373084862
1161,14.055901578525699
1163,0.0
1166,6723.594843545605
1168,6723.594843545605
2,2,12,16, 0, 7, 0.00,60.00,Tuesday
7,-14.4
545,19.575871634244542
546,-10.650081982096554
547,12.911449750337342
548,141.36092627471385
720,6449.411550761743
721,6449.411550761743
784,0.0
785,0.0
848,0.0
849,0.0
1121,2992.047953401765
1135,1212.35537994423
1161,12.122906047927719
1163,0.0
1166,6225.026130927465
1168,6225.026130927465
2,2,12,16, 0, 8, 0.00,60.00,Tuesday
7,-14.4
545,19.631529529952473
546,-9.935199031588539
547,12.787297646752577
548,141.36092627471385
720,6628.651877600565
721,6628.651877600565
784,0.0
785,0.0
848,0.0
849,0.0
1121,2986.8977127813205
1135,1217.3098043971356
1161,12.189884646239905
1163,0.0
1166,6468.375039788252
1168,6468.375039788252
2,2,12,16, 0, 9, 0.00,60.00,Tuesday
7,-13.9
545,19.68277643341436
546,-9.616493271623701
547,12.670495343437592
548,141.36092627471385
720,5597.531805206399
721,5597.531805206399
784,0.0
785,0.0
848,0.0
849,0.0
1121,3029.9341659639385
1135,1222.5161726071472
1161,13.820128914425554
1163,0.0
1166,5209.101734077829
1168,5209.101734077829
2,2,12,16, 0,10, 0.00,60.00,Tuesday
7,-13.3
545,19.69455207492068
546,-9.333756052115785
547,12.555836439233017
548,141.36092627471385
720,5050.979349192097
721,5050.979349192097
784,0.0
785,0.0
848,0.0
849,0.0
1121,3095.465393494208
1135,1233.5690357217684
1161,11.640191345445288
1163,0.0
1166,4472.357812064542
1168,4472.357812064542
2,2,12,16, 0,11, 0.00,60.00,Tuesday
7,-12.2
545,19.701166215347282
546,-8.573665119540195
547,12.459773013929384
548,141.36092627471385
720,4549.120298335496
721,4549.120298335496
784,0.0
785,0.0
848,0.0
849,0.0
1121,3212.2164580487643
1135,1249.1895036789608
1161,9.88979135818145
1163,0.0
1166,3747.62859885778
1168,3747.62859885778
2,2,12,16, 0,12, 0.00,60.00,Tuesday
7,-11.1
545,19.70678612376657
546,-6.274473064685293
547,12.39340190823688
548,141.36092627471385
720,4170.948106354179
721,4170.948106354179
784,0.0
785,0.0
848,0.0
849,0.0
1121,3330.2394889182538
1135,1264.0363731942903
1161,8.550138653100415
1163,0.0
1166,3147.081628248025
1168,3147.081628248025
2,2,12,16, 0,13, 0.00,60.00,Tuesday
7,-11.1
545,19.718174448700495
546,-5.393260400570197
547,12.338370965773068
548,141.36092627471385
720,3880.079395450577
721,3880.079395450577
784,0.0
785,0.0
848,0.0
849,0.0
1121,3330.2054866117924
1135,1264.0731859208531
1161,8.550138653100415
1163,0.0
1166,2687.764270724354
1168,2687.764270724354
2,2,12,16, 0,14, 0.00,60.00,Tuesday
7,-10.6
545,19.73208555766515
546,-4.935976549988731
547,12.310775037675905
548,141.36092627471385
720,3146.498567156661
721,3146.498567156661
784,0.0
785,0.0
848,0.0
849,0.0
1121,3379.9209388670447
1135,1269.1773054384273
1161,9.278113328708901
1163,0.0
1166,1721.0793850665516
1168,1721.0793850665516
2,2,12,16, 0,15, 0.00,60.00,Tuesday
7,-10.6
545,19.728728796184463
546,-5.012477788514412
547,12.294414961836255
548,141.36092627471385
720,2837.4894584342474
721,2837.4894584342474
784,0.0
785,0.0
848,0.0
849,0.0
1121,3365.1820024391254
1135,1264.0258075808579
1161,13.45648160725752
1163,0.0
1166,1328.9684962223046
1168,1328.9684962223046
2,2,12,16, 0,16, 0.00,60.00,Tuesday
7,-11.1
545,19.743601449517882
546,-4.825949114914679
547,12.291492479345663
548,141.36092627471385
720,1950.6190043489623
721,1950.6190043489623
784,0.0
785,0.0
848,0.0
849,0.0
1121,3306.039495274309
1135,1255.4827745696205
1161,15.51719740063107
1163,0.0
1166,344.5656290111924
1168,344.5656290111924
2,2,12,16, 0,17, 0.00,60.00,Tuesday
7,-11.7
545,19.726328502844705
546,-4.031733791115975
547,12.292296870235356
548,141.36092627471385
720,2118.4190323901457
721,2118.4190323901457
784,0.0
785,0.0
848,0.0
849,0.0
1121,3257.320383376587
1135,1253.9828541117731
1161,11.495396514215564
1163,0.0
1166,553.5180188478214
1168,553.5180188478214
2,2,12,16, 0,18, 0.00,60.00,Tuesday
7,-12.8
545,19.700991394945948
546,-5.674963606075819
547,12.280525553289833
548,141.36092627471385
720,2867.950122847551
721,2867.950122847551
784,0.0
785,0.0
848,0.0
849,0.0
1121,3123.645842089497
1135,1231.730004155705
1161,18.290101721909977
1163,0.0
1166,1515.3231578220802
1168,1515.3231578220802
2,2,12,16, 0,19, 0.00,60.00,Tuesday
7,-12.8
545,19.689371486759107
546,-6.823898869797176
547,12.260732951085588
548,141.36092627471385
720,3060.3178216017805
721,3060.3178216017805
784,0.0
785,0.0
848,0.0
849,0.0
1121,3124.1915850556393
1135,1231.156800066237
1161,18.290101721909977
1163,0.0
1166,1824.2525344828346
1168,1824.2525344828346
2,2,12,16, 0,20, 0.00,60.00,Tuesday
7,-12.8
545,19.68590278211441
546,-7.772700781163347
547,12.216875483619848
548,141.36092627471385
720,3275.5647633385215
721,3275.5647633385215
784,0.0
785,0.0
848,0.0
849,0.0
1121,3124.515618200913
1135,1230.8738883063832
1161,18.27779217971948
1163,0.0
1166,2145.0890162450514
1168,2145.0890162450514
2,2,12,16, 0,21, 0.00,60.00,Tuesday
7,-13.3
545,19.683584682688856
546,-7.717850286692204
547,12.156766988831482
548,141.36092627471385
720,3499.2523747054165
721,3499.2523747054165
784,0.0
785,0.0
848,0.0
849,0.0
1121,3067.961007293905
1135,1222.0023547284034
1161,20.418950747335224
1163,0.0
1166,2521.8038196519356
1168,2521.8038196519356
2,2,12,16, 0,22, 0.00,60.00,Tuesday
7,-13.3
545,19.68287450096607
546,-8.006681069870043
547,12.086855563276506
548,141.36092627471385
720,3846.992729497062
721,3846.992729497062
784,0.0
785,0.0
848,0.0
849,0.0
1121,3068.090024954405
1135,1221.877485706012
1161,20.416904292866484
1163,0.0
1166,2938.2942852204596
1168,2938.2942852204596
2,2,12,16, 0,23, 0.00,60.00,Tuesday
7,-13.3
545,18.92778462034297
546,-8.098180782069967
547,12.008004949835016
548,141.36092627471385
720,3115.92302241604
721,3115.92302241604
784,0.0
785,0.0
848,0.0
849,0.0
1121,3068.173218799927
1135,1221.773122360275
1161,20.420792907148364
1163,0.0
1166,2116.7493516118993
1168,2116.7493516118993
2,2,12,16, 0,24, 0.00,60.00,Tuesday
7,-13.9
545,18.68270318056524
546,-8.110600472254719
547,11.882874233198963
548,141.36092627471385
720,3755.120839750656
721,3755.120839750656
784,0.0
785,0.0
848,0.0
849,0.0
1121,3017.2923230644724
1135,1195.2655532192489
1161,22.816661718597345
1163,0.0
1166,2843.783206004952
1168,2843.783206004952
2,3,12,17, 0, 1, 0.00,60.00,Wednesday
7,-13.9
545,18.59873679703591
546,-8.224466598895853
547,11.786076893751789
548,141.36092627471385
720,4316.2805094035975
721,4316.2805094035975
784,0.0
785,0.0
848,0.0
849,0.0
1121,3022.4614607542153
1135,1189.9077219497829
1161,22.816661718597345
1163,0.0
1166,3482.5660666779413
1168,3482.5660666779413
2,3,12,17, 0, 2, 0.00,60.00,Wednesday
7,-15.0
545,18.566274562562917
546,-8.199968813935437
547,11.676383605176163
548,141.36092627471385
720,4892.665027609357
721,4892.665027609357
784,0.0
785,0.0
848,0.0
849,0.0
1121,2936.4962867595427
1135,1182.5700867455673
1161,16.660032239681406
1163,0.0
1166,4251.709341495129
1168,4251.709341495129
2,3,12,17, 0, 3, 0.00,60.00,Wednesday
7,-15.0
545,18.564397795632576
546,-8.383681073136191
547,11.576506556200364
548,141.36092627471385
720,5034.272116472619
721,5034.272116472619
784,0.0
785,0.0
848,0.0
849,0.0
1121,2945.688777379573
1135,1185.1508677416637
1161,13.890078891626482
1163,0.0
1166,4420.558249232449
1168,4420.558249232449
2,3,12,17, 0, 4, 0.00,60.00,Wednesday
7,-13.3
545,18.562491173675294
546,-8.271436188442937
547,11.48500254996536
548,141.36092627471385
720,5210.213318972146
721,5210.213318972146
784,0.0
785,0.0
848,0.0
849,0.0
1121,3091.9194178029306
1135,1196.8966191471966
1161,20.430623375917012
1163,0.0
1166,4498.994321922084
1168,4498.994321922084
2,3,12,17, 0, 5, 0.00,60.00,Wednesday
7,-12.8
545,18.572999483706454
546,-7.72157307699725
547,11.387784480153428
548,141.36092627471385
720,5004.717980562569
721,5004.717980562569
784,0.0
785,0.0
848,0.0
849,0.0
1121,3135.1230557958725
1135,1199.8840867637896
1161,22.501924943281512
1163,0.0
1166,4219.378740135789
1168,4219.378740135789
2,3,12,17, 0, 6, 0.00,60.00,Wednesday
7,-12.8
545,19.34544875180045
546,-6.793062065062568
547,11.291028085541534
548,141.36092627471385
720,6212.240307343398
721,6212.240307343398
784,0.0
785,0.0
848,0.0
849,0.0
1121,3135.0152260175973
1135,1199.9782846739943
1161,22.50620581124361
1163,0.0
1166,5591.70629710534
1168,5591.70629710534
2,3,12,17, 0, 7, 0.00,60.00,Wednesday
7,-12.8
545,19.586274446851146
546,-6.2081018864684765
547,11.233588145247849
548,141.36092627471385
720,5958.19023052615
721,5958.19023052615
784,0.0
785,0.0
848,0.0
849,0.0
1121,3119.18875810099
1135,1216.7090650068342
1161,22.50620581124361
1163,0.0
1166,5355.181912454469
1168,5355.181912454469
2,3,12,17, 0, 8, 0.00,60.00,Wednesday
7,-11.7
545,19.650727653255988
546,-5.983618084271982
547,11.158157992919953
548,141.36092627471385
720,5927.942706114518
721,5927.942706114518
784,0.0
785,0.0
848,0.0
849,0.0
1121,3215.075674883511
1135,1230.9549548287716
1161,25.504629542653056
1163,0.0
1166,5223.967025124731
1168,5223.967025124731
2,3,12,17, 0, 9, 0.00,60.00,Wednesday
7,-11.1
545,19.679604432982
546,-5.441133836088899
547,11.086399832912905
548,141.36092627471385
720,5509.486590883711
721,5509.486590883711
784,0.0
785,0.0
848,0.0
849,0.0
1121,3282.2786316136826
1135,1242.011874106945
1161,23.374506391112114
1163,0.0
1166,4660.091847635847
1168,4660.091847635847
2,3,12,17, 0,10, 0.00,60.00,Wednesday
7,-10.0
545,19.697597018674987
546,-4.560455161427246
547,11.019989262396383
548,141.36092627471385
720,4986.429376017848
721,4986.429376017848
784,0.0
785,0.0
848,0.0
849,0.0
1121,3384.8526785945883
1135,1251.0829264747551
1161,26.508236345375252
1163,0.0
1166,3914.355746005336
1168,3914.355746005336
2,3,12,17, 0,11, 0.00,60.00,Wednesday
7,-8.9
545,19.706058060919723
546,-2.4272425301393716
547,10.959197929550848
548,141.36092627471385
720,4608.663179965353
721,4608.663179965353
784,0.0
785,0.0
848,0.0
849,0.0
1121,3487.8416030057933
1135,1259.192805478677
1161,29.991321085885495
1163,0.0
1166,3318.7885495165597
1168,3318.7885495165597
2,3,12,17, 0,12, 0.00,60.00,Wednesday
7,-8.9
545,19.72165834563682
546,-0.20702641301896127
547,10.9013051438013
548,141.36092627471385
720,4106.802452979688
721,4106.802452979688
784,0.0
785,0.0
848,0.0
849,0.0
1121,3486.64980493882
1135,1258.9461707055402
1161,30.28359904511191
1163,0.0
1166,2619.929937674391
1168,2619.929937674391
2,3,12,17, 0,13, 0.00,60.00,Wednesday
7,-8.9
545,19.723979025590587
546,0.8795617329394052
547,10.859394972018801
548,141.36092627471385
720,3918.47447591713
721,3918.47447591713
784,0.0
785,0.0
848,0.0
849,0.0
1121,3470.2727049827417
1135,1253.3920218843
1161,34.70033096693746
1163,0.0
1166,2288.527181014655
1168,2288.527181014655
2,3,12,17, 0,14, 0.00,60.00,Wednesday
7,-8.3
545,19.718270354437667
546,1.648086183704349
547,10.83345097060182
548,141.36092627471385
720,3850.8777986117857
721,3850.8777986117857
784,0.0
785,0.0
848,0.0
849,0.0
1121,3542.733438216342
1135,1263.1533599693823
1161,32.33735379535629
1163,0.0
1166,2065.4460644147207
1168,2065.4460644147207
2,3,12,17, 0,15, 0.00,60.00,Wednesday
7,-8.3
545,19.71040536384874
546,0.900954453628951
547,10.811262580451233
548,141.36092627471385
720,3946.05303934284
721,3946.05303934284
784,0.0
785,0.0
848,0.0
849,0.0
1121,3561.4696259160232
1135,1269.5756648389097
1161,27.347184910419944
1163,0.0
1166,2112.3641270547187
1168,2112.3641270547187
2,3,12,17, 0,16, 0.00,60.00,Wednesday
7,-8.3
545,19.709529431644494
546,1.109930986832359
547,10.796390435877044
548,141.36092627471385
720,3687.140351920747
721,3687.140351920747
784,0.0
785,0.0
848,0.0
849,0.0
1121,3575.6944098211375
1135,1274.3833322522426
1161,23.57093521938498
1163,0.0
1166,1824.631723080703
1168,1824.631723080703
2,3,12,17, 0,17, 0.00,60.00,Wednesday
7,-9.4
545,19.703914560987563
546,-0.6533174316280234
547,10.774535408278886
548,141.36092627471385
720,3812.403404903278
721,3812.403404903278
784,0.0
785,0.0
848,0.0
849,0.0
1121,3439.8720735862494
1135,1255.3273202435844
1161,28.653899392935987
1163,0.0
1166,2095.039074947584
1168,2095.039074947584
2,3,12,17, 0,18, 0.00,60.00,Wednesday
7,-10.0
545,19.69571038184574
546,-1.845921114858168
547,10.756859976437198
548,141.36092627471385
720,3761.9357140883094
721,3761.9357140883094
784,0.0
785,0.0
848,0.0
849,0.0
1121,3368.5172176928063
1135,1245.2381457886436
1161,31.09558525331955
1163,0.0
1166,2187.945419914876
1168,2187.945419914876
2,3,12,17, 0,19, 0.00,60.00,Wednesday
7,-10.0
545,19.69281428804979
546,-3.0851900405604535
547,10.734980478677118
548,141.36092627471385
720,3772.8243366770675
721,3772.8243366770675
784,0.0
785,0.0
848,0.0
849,0.0
1121,3369.2165618115596
1135,1245.1846740847805
1161,30.95761379012815
1163,0.0
1166,2268.7751464265493
1168,2268.7751464265493
2,3,12,17, 0,20, 0.00,60.00,Wednesday
7,-10.6
545,19.701271421666174
546,-3.988127940222132
547,10.702686881090045
548,141.36092627471385
720,3423.826739767139
721,3423.826739767139
784,0.0
785,0.0
848,0.0
849,0.0
1121,3295.9822500740106
1135,1234.137151003675
1161,34.195784897821
1163,0.0
1166,1999.325273834664
1168,1999.325273834664
2,3,12,17, 0,21, 0.00,60.00,Wednesday
7,-10.6
545,19.701027760451527
546,-4.3580002450351
547,10.667222428913377
548,141.36092627471385
720,3347.715962077711
721,3347.715962077711
784,0.0
785,0.0
848,0.0
849,0.0
1121,3313.5296503995
1135,1240.9195759601664
1161,29.093503947755497
1163,0.0
1166,1936.7123986590232
1168,1936.7123986590232
2,3,12,17, 0,22, 0.00,60.00,Wednesday
7,-10.6
545,19.6942852028062
546,-4.917547935729749
547,10.6228371456568
548,141.36092627471385
720,3607.4168269974834
721,3607.4168269974834
784,0.0
785,0.0
848,0.0
849,0.0
1121,3313.478684156608
1135,1240.8130473410276
1161,29.12539909762777
1163,0.0
1166,2260.6635415707224
1168,2260.6635415707224
2,3,12,17, 0,23, 0.00,60.00,Wednesday
7,-10.6
545,18.934352796643584
546,-5.148238718531868
547,10.574159001261885
548,141.36092627471385
720,2833.1256196115555
721,2833.1256196115555
784,0.0
785,0.0
848,0.0
849,0.0
1121,3313.673735801566
1135,1240.6000351075604
1161,29.12539909762777
1163,0.0
1166,1400.9666748145005
1168,1400.9666748145005
2,3,12,17, 0,24, 0.00,60.00,Wednesday
7,-11.0
545,18.692666054288765
546,-5.151707256028447
547,10.481850947122755
548,141.36092627471385
720,3367.9401934545076
721,3367.9401934545076
784,0.0
785,0.0
848,0.0
849,0.0
1121,3262.5090612485906
1135,1209.1631273697567
1161,36.66487438466713
1163,0.0
1166,2013.1825036162063
1168,2013.1825036162063
2,4,12,18, 0, 1, 0.00,60.00,Thursday
7,-10.6
545,18.61207486882798
546,-5.071491692985795
547,10.42093807238664
548,141.36092627471385
720,3809.670615575422
721,3809.670615575422
784,0.0
785,0.0
848,0.0
849,0.0
1121,3316.6167336246244
1135,1210.9996547573849
1161,34.30252643726926
1163,0.0
1166,2461.6007899453025
1168,2461.6007899453025
2,4,12,18, 0, 2, 0.00,60.00,Thursday
7,-10.0
545,18.591557595042296
546,-4.411972456607266
547,10.358385587701306
548,141.36092627471385
720,3982.279674280544
721,3982.279674280544
784,0.0
785,0.0
848,0.0
849,0.0
1121,3391.660543303661
1135,1219.670831495956
1161,31.09558525331955
1163,0.0
1166,2588.137357158942
1168,2588.137357158942
2,4,12,18, 0, 3, 0.00,60.00,Thursday
7,-10.0
545,18.585129090503855
546,-4.641288361959949
547,10.29345633749358
548,141.36092627471385
720,4234.360533880539
721,4234.360533880539
784,0.0
785,0.0
848,0.0
849,0.0
1121,3376.993080809296
1135,1213.6603929796277
1161,35.360740405669965
1163,0.0
1166,2868.8622068621453
1168,2868.8622068621453
2,4,12,18, 0, 4, 0.00,60.00,Thursday
7,-10.0
545,18.58026803593324
546,-4.717126104445483
547,10.230839311494531
548,141.36092627471385
720,4379.636591474256
721,4379.636591474256
784,0.0
785,0.0
848,0.0
849,0.0
1121,3377.208203990105
1135,1213.42216950198
1161,35.360740405669965
1163,0.0
1166,3051.0166027833857
1168,3051.0166027833857
2,4,12,18, 0, 5, 0.00,60.00,Thursday
7,-10.0
545,18.586327958052454
546,-3.560159878982008
547,10.17084673492924
548,141.36092627471385
720,4202.156370345878
721,4202.156370345878
784,0.0
785,0.0
848,0.0
849,0.0
1121,3377.370017658446
1135,1213.2429738703836
1161,35.360740405669965
1163,0.0
1166,2853.2804685316314
1168,2853.2804685316314
2,4,12,18, 0, 6, 0.00,60.00,Thursday
7,-10.0
545,19.357102582752827
546,-3.7198760095258074
547,10.112626205093934
548,141.36092627471385
720,5353.82753929
721,5353.82753929
784,0.0
785,0.0
848,0.0
849,0.0
1121,3377.3235135245964
1135,1213.2944739993625
1161,35.360740405669965
1163,0.0
1166,4131.422734271182
1168,4131.422734271182
2,4,12,18, 0, 7, 0.00,60.00,Thursday
7,-9.4
545,19.59568278802996
546,-3.6348830750972705
547,10.098124474151852
548,141.36092627471385
720,5070.294527208338
721,5070.294527208338
784,0.0
785,0.0
848,0.0
849,0.0
1121,3435.0578078692206
1135,1241.4687408804741
1161,32.26877208291664
1163,0.0
1166,3830.4407060359986
1168,3830.4407060359986
2,4,12,18, 0, 8, 0.00,60.00,Thursday
7,-12.2
545,19.65867385703826
546,-4.6489369316266576
547,10.031623970957218
548,141.36092627471385
720,5057.946803562863
721,5057.946803562863
784,0.0
785,0.0
848,0.0
849,0.0
1121,3157.139996010589
1135,1220.610431382351
1161,28.101104937152897
1163,0.0
1166,4108.650254280876
1168,4108.650254280876
2,4,12,18, 0, 9, 0.00,60.00,Thursday
7,-11.7
545,19.67556929080464
546,-5.350865942287699
547,9.992947612491433
548,141.36092627471385
720,4904.542591165853
721,4904.542591165853
784,0.0
785,0.0
848,0.0
849,0.0
1121,3197.8917893650873
1135,1224.519390068719
1161,30.602107158328845
1163,0.0
1166,3944.8293472734067
1168,3944.8293472734067
2,4,12,18, 0,10, 0.00,60.00,Thursday
7,-8.9
545,19.706424142628006
546,-4.172265145510109
547,9.963020118206265
548,141.36092627471385
720,3935.330223279083
721,3935.330223279083
784,0.0
785,0.0
848,0.0
849,0.0
1121,3487.8346707162455
1135,1256.663415264388
1161,30.460485005163438
1163,0.0
1166,2575.5583547139167
1168,2575.5583547139167
2,4,12,18, 0,11, 0.00,60.00,Thursday
7,-8.9
545,19.71443007731066
546,-2.4993023738686153
547,9.921213571228082
548,141.36092627471385
720,3717.269186386051
721,3717.269186386051
784,0.0
785,0.0
848,0.0
849,0.0
1121,3487.877462958057
1135,1257.5721434009845