Program Version,EnergyPlus, Version 22.2.0-c249759bad, YMD=2023.09.01 20:43
1,5,Environment Title[],Latitude[deg],Longitude[deg],Time Zone[],Elevation[m]
2,8,Day of Simulation[],Month[],Day of Month[],DST Indicator[1=yes 0=no],Hour[],StartMinute[],EndMinute[],DayType
3,5,Cumulative Day of Simulation[],Month[],Day of Month[],DST Indicator[1=yes 0=no],DayType  ! When Daily Report Variables Requested
4,2,Cumulative Days of Simulation[],Month[]  ! When Monthly Report Variables Requested
5,1,Cumulative Days of Simulation[] ! When Run Period Report Variables Requested
6,1,Calendar Year of Simulation[] ! When Annual Report Variables Requested
581,11,LIVING,AFN Zone Infiltration Air Change Rate [ach] !RunPeriod [Value,Min,Month,Day,Hour,Minute,Max,Month,Day,Hour,Minute]
582,11,ATTIC,AFN Zone Infiltration Air Change Rate [ach] !RunPeriod [Value,Min,Month,Day,Hour,Minute,Max,Month,Day,Hour,Minute]
583,11,CRAWLSPACE,AFN Zone Infiltration Air Change Rate [ach] !RunPeriod [Value,Min,Month,Day,Hour,Minute,Max,Month,Day,Hour,Minute]
1038,11,Facility,Facility Heating Setpoint Not Met Time [hr] !RunPeriod [Value,Min,Month,Day,Hour,Minute,Max,Month,Day,Hour,Minute]
1039,11,Facility,Facility Cooling Setpoint Not Met Time [hr] !RunPeriod [Value,Min,Month,Day,Hour,Minute,Max,Month,Day,Hour,Minute]
1115,11,DX_HEATING_COIL,Heating Coil Heating Energy [J] !RunPeriod [Value,Min,Month,Day,Hour,Minute,Max,Month,Day,Hour,Minute]
1128,11,DX_HEATING_COIL,Heating Coil Electricity Energy [J] !RunPeriod [Value,Min,Month,Day,Hour,Minute,Max,Month,Day,Hour,Minute]
1153,11,DX_HEATING_COIL,Heating Coil Defrost Electricity Energy [J] !RunPeriod [Value,Min,Month,Day,Hour,Minute,Max,Month,Day,Hour,Minute]
1154,11,DX_HEATING_COIL,Heating Coil Crankcase Heater Electricity Energy [J] !RunPeriod [Value,Min,Month,Day,Hour,Minute,Max,Month,Day,Hour,Minute]
1155,11,HEATING_RESISTANCE_BACKUP,Heating Coil Heating Energy [J] !RunPeriod [Value,Min,Month,Day,Hour,Minute,Max,Month,Day,Hour,Minute]
1156,11,HEATING_RESISTANCE_BACKUP,Heating Coil Electricity Energy [J] !RunPeriod [Value,Min,Month,Day,Hour,Minute,Max,Month,Day,Hour,Minute]
1292,11,WATER HEATER,Water Heater Heat Loss Energy [J] !RunPeriod [Value,Min,Month,Day,Hour,Minute,Max,Month,Day,Hour,Minute]
1306,11,WATER HEATER,Water Heater Heating Energy [J] !RunPeriod [Value,Min,Month,Day,Hour,Minute,Max,Month,Day,Hour,Minute]
1307,11,WATER HEATER,Water Heater Unmet Demand Heat Transfer Energy [J] !RunPeriod [Value,Min,Month,Day,Hour,Minute,Max,Month,Day,Hour,Minute]
1308,11,WATER HEATER,Water Heater Electricity Energy [J] !RunPeriod [Value,Min,Month,Day,Hour,Minute,Max,Month,Day,Hour,Minute]
13,11,Electricity:Facility [J] !RunPeriod [Value,Min,Month,Day,Hour,Minute,Max,Month,Day,Hour,Minute]
1134,11,Heating:Electricity [J] !RunPeriod [Value,Min,Month,Day,Hour,Minute,Max,Month,Day,Hour,Minute]
1096,11,Cooling:Electricity [J] !RunPeriod [Value,Min,Month,Day,Hour,Minute,Max,Month,Day,Hour,Minute]
562,11,Fans:Electricity [J] !RunPeriod [Value,Min,Month,Day,Hour,Minute,Max,Month,Day,Hour,Minute]
1379,11,Pumps:Electricity [J] !RunPeriod [Value,Min,Month,Day,Hour,Minute,Max,Month,Day,Hour,Minute]
1326,11,WaterSystems:Electricity [J] !RunPeriod [Value,Min,Month,Day,Hour,Minute,Max,Month,Day,Hour,Minute]
61,11,InteriorLights:Electricity [J] !RunPeriod [Value,Min,Month,Day,Hour,Minute,Max,Month,Day,Hour,Minute]
1046,11,ExteriorLights:Electricity [J] !RunPeriod [Value,Min,Month,Day,Hour,Minute,Max,Month,Day,Hour,Minute]
134,11,InteriorEquipment:Electricity [J] !RunPeriod [Value,Min,Month,Day,Hour,Minute,Max,Month,Day,Hour,Minute]
170,11,gas_dryer:InteriorEquipment:Electricity [J] !RunPeriod [Value,Min,Month,Day,Hour,Minute,Max,Month,Day,Hour,Minute]
207,11,clotheswasher:InteriorEquipment:Electricity [J] !RunPeriod [Value,Min,Month,Day,Hour,Minute,Max,Month,Day,Hour,Minute]
244,11,dishwasher:InteriorEquipment:Electricity [J] !RunPeriod [Value,Min,Month,Day,Hour,Minute,Max,Month,Day,Hour,Minute]
281,11,refrigerator:InteriorEquipment:Electricity [J] !RunPeriod [Value,Min,Month,Day,Hour,Minute,Max,Month,Day,Hour,Minute]
318,11,electric_mels:InteriorEquipment:Electricity [J] !RunPeriod [Value,Min,Month,Day,Hour,Minute,Max,Month,Day,Hour,Minute]
355,11,NaturalGas:Facility [J] !RunPeriod [Value,Min,Month,Day,Hour,Minute,Max,Month,Day,Hour,Minute]
403,11,InteriorEquipment:NaturalGas [J] !RunPeriod [Value,Min,Month,Day,Hour,Minute,Max,Month,Day,Hour,Minute]
476,11,gas_dryer:InteriorEquipment:NaturalGas [J] !RunPeriod [Value,Min,Month,Day,Hour,Minute,Max,Month,Day,Hour,Minute]
513,11,gas_mels:InteriorEquipment:NaturalGas [J] !RunPeriod [Value,Min,Month,Day,Hour,Minute,Max,Month,Day,Hour,Minute]
End of Data Dictionary
1,EXTREME_WINTER,  39.18, -76.67,  -5.00,  47.60
5,7
1038,0.5,0.0, 1, 6, 1,15,0.25, 1,10, 6,15
1039,0.0,0.0, 1, 6, 1,15,0.0, 1, 6, 1,15
581,0.3477090649992497,0.20182818531853913, 1, 7,23,30,0.6996774107876029, 1, 9,10,60
582,4.840566321519525,0.0, 1, 7, 7,60,16.47501133796764, 1, 6,15,60
583,0.042748695990491664,0.0003264709240550008, 1, 7,23,30,0.07398687809092748, 1, 6, 6,60
1115,1507114948.3274434,0.0, 1, 6,23, 5,4112960.5679407483, 1,12, 6,60
1128,493971776.88702846,0.0, 1, 6,23, 5,1296443.3195799738, 1,12, 6,45
1153,6184518.3971230695,0.0, 1, 6,23, 5,80955.97371299448, 1, 8, 6,30
1154,50266012.04500511,0.0, 1, 6, 6, 5,180000.0, 1, 7,14,30
1155,142538225.68060693,0.0, 1, 6, 1,15,2358022.135362866, 1,11, 6,45
1156,142538225.68060693,0.0, 1, 6, 1,15,2358022.135362866, 1,11, 6,45
1292,-25247210.990151215,-39775.51876429005, 1, 6, 1,15,-7520.5529838443945, 1,11,13,45
1306,258949059.92000127,0.0, 1, 6, 1,15,4050000.0, 1, 6, 8,45
1307,83933133.67835785,0.0, 1, 6, 1,15,13525859.952855974, 1, 6, 8,30
1308,258949059.92000127,0.0, 1, 6, 1,15,4050000.0, 1, 6, 8,45
13,1376860090.0907347,452017.0388981225, 1, 7,15,15,7927231.690540006, 1,10, 8,45
61,301924526.02383536,88139.10953165221, 1, 6, 1,15,1282023.4113694867, 1, 6,20,15
134,70666020.44019976,63564.01800854099, 1, 6, 4,15,156554.22484006523, 1,11,20,15
170,5241013.419656067,348.4159749238097, 1, 6, 4,15,17476.39704006126, 1,11,12,15
207,6509451.13922267,815.2532113832032, 1, 6, 3,15,22990.642799023623, 1,11,10,15
244,12749673.399825225,1521.856143006317, 1, 6, 4,15,53038.631142310165, 1,11,20,15
281,46165882.481495745,59938.60262432081, 1, 6, 5,15,81951.81706819107, 1, 6,19,15
318,0.0,0.0, 1, 6, 1,15,0.0, 1, 6, 1,15
355,197687796.27748066,18561.32405820678, 1, 6, 4,15,724774.895203776, 1,11,18,15
403,197687796.27748066,18561.32405820678, 1, 6, 4,15,724774.895203776, 1,11,18,15
476,106772067.24485716,7098.072629279515, 1, 6, 4,15,356036.3026282215, 1,11,12,15
513,0.0,0.0, 1, 6, 1,15,0.0, 1, 6, 1,15
562,52359950.69693454,0.0, 1, 7,12,60,133511.80577610355, 1, 6, 6,45
1046,0.0,0.0, 1, 6, 1,15,0.0, 1, 6, 1,15
1096,0.0,0.0, 1, 6, 1,15,0.0, 1, 6, 1,15
1134,692960533.0097637,180000.0, 1, 7,12,60,4303302.614844864, 1,11, 6,15
1326,258949059.92000127,0.0, 1, 6, 1,15,4050000.0, 1, 6, 8,45
1379,0.0,0.0, 1, 6, 1,15,0.0, 1, 6, 1,15
1,EXTREME_SUMMER,  39.18, -76.67,  -5.00,  47.60
5,7
1038,0.0,0.0, 7,20, 1,15,0.0, 7,20, 1,15
1039,56.25,0.0, 7,20, 1,15,0.25, 7,20,16,30
581,0.10209683722111088,0.0, 7,21, 6, 7,0.33503794611047194, 7,22,16,46
582,2.9279418506843355,0.011020975574382448, 7,21, 1,60,10.707167467823394, 7,23,15,48
583,0.043755655124906645,0.0, 7,21,23, 7,0.06827713916901233, 7,26,22,50
1115,0.0,0.0, 7,20, 1, 7,0.0, 7,20, 1, 7
1128,0.0,0.0, 7,20, 1, 7,0.0, 7,20, 1, 7
1153,0.0,0.0, 7,20, 1, 7,0.0, 7,20, 1, 7
1154,0.0,0.0, 7,20, 1, 7,0.0, 7,20, 1, 7
1155,0.0,0.0, 7,20, 1, 7,0.0, 7,20, 1, 7
1156,0.0,0.0, 7,20, 1, 7,0.0, 7,20, 1, 7
1292,-21656647.171123724,-34321.827375475295, 7,22,13,15,-3289.870394128809, 7,22, 8,60
1306,185837480.2943751,0.0, 7,20, 1, 7,4050000.0, 7,23, 6,60
1307,40958111.58617475,0.0, 7,20, 1, 7,1822569.0653565181, 7,20, 8,21
1308,185837480.2943751,0.0, 7,20, 1, 7,4050000.0, 7,23, 6,60
13,1193127945.1424644,179639.60360297875, 7,22, 4,60,6202581.251648424, 7,22,17,30
61,301924526.02383536,88139.10953165221, 7,20, 1,15,1282023.4113694867, 7,20,20,15
134,70666020.44019976,63564.01800854099, 7,20, 4,15,156554.22484006523, 7,25,20,15
170,5241013.419656067,348.4159749238097, 7,20, 4,15,17476.39704006126, 7,25,12,15
207,6509451.13922267,815.2532113832032, 7,20, 3,15,22990.642799023623, 7,25,10,15
244,12749673.399825225,1521.856143006317, 7,20, 4,15,53038.631142310165, 7,25,20,15
281,46165882.481495745,59938.60262432081, 7,20, 5,15,81951.81706819107, 7,20,19,15
318,0.0,0.0, 7,20, 1,15,0.0, 7,20, 1,15
355,197687796.27748066,18561.32405820678, 7,20, 4,15,724774.895203776, 7,25,18,15
403,197687796.27748066,18561.32405820678, 7,20, 4,15,724774.895203776, 7,25,18,15
476,106772067.24485716,7098.072629279515, 7,20, 4,15,356036.3026282215, 7,25,12,15
513,0.0,0.0, 7,20, 1,15,0.0, 7,20, 1,15
562,59635665.038446516,661.0994885878432, 7,22, 6,30,133511.80577610355, 7,20,15,15
1046,0.0,0.0, 7,20, 1,15,0.0, 7,20, 1,15
1096,575064253.3456074,5260.2264427016435, 7,22, 6,30,1493365.1638503205, 7,26,15,60
1134,0.0,0.0, 7,20, 1,15,0.0, 7,20, 1,15
1326,185837480.294375,0.0, 7,20, 1,15,4050000.0, 7,20, 8,45
1379,0.0,0.0, 7,20, 1,15,0.0, 7,20, 1,15
1,ANNUAL,  39.18, -76.67,  -5.00,  47.60
5,365
1038,9.5,0.0, 1, 1, 1,15,0.25, 1, 3, 6,15
1039,615.5,0.0, 1, 1, 1,15,0.25, 5,14,12,45
581,0.20987693000739277,0.0, 5,20,23, 3,1.1435683596012267, 2,19,16,52
582,3.4768074317417774,0.0, 1, 1, 1,60,35.71957464679036, 2,25,15,46
583,0.02597517461024636,0.0, 5,20,23, 3,0.08771836541731094, 1, 2,11,60
1115,15968486060.096453,0.0, 1, 1,23, 3,4383843.0017366335,12, 8,11,60
1128,5050894203.988705,0.0, 1, 1,23, 3,1328309.7020467916,12, 8,13,15
1153,140859134.92945328,0.0, 1, 1,12,37,116051.66581798304, 1,17,12,60
1154,1625452600.1243193,0.0, 1, 1, 6, 5,180000.0, 1, 7,14,30
1155,1447986623.791708,0.0, 1, 1, 1,15,3779591.6228109295, 1, 3, 6,45
1156,1447986623.791708,0.0, 1, 1, 1,15,3779591.6228109295, 1, 3, 6,45
1292,-1208768345.487039,-39805.63775809003, 2, 3,24,30,-2070.2709460940173, 6, 3,15,59
1306,11703136644.332928,0.0, 1, 1, 1,15,4050000.0, 1, 2, 8,45
1307,3290465908.136184,0.0, 1, 1, 1,15,13942867.704201102, 2, 6, 8,30
1308,11703136644.332928,0.0, 1, 1, 1,15,4050000.0, 1, 2, 8,45
13,51180698281.18519,151703.1275401932, 3, 6, 4,15,9718898.001054361, 1, 3, 7,30
61,15743207428.383959,88139.10953165221, 1, 1, 1,15,1282023.4113694867, 1, 1,20,15
134,3685071073.4325233,63564.01800854099, 1, 2, 4,15,156554.22484006523, 1, 1,20,15
170,273393721.45532674,348.4159749238097, 1, 2, 4,15,17476.39704006126, 1, 1,12,15
207,339560869.0695816,815.2532113832032, 1, 2, 3,15,22990.642799023623, 1, 1,10,15
244,664895467.8009144,1521.856143006317, 1, 2, 4,15,53038.631142310165, 1, 1,20,15
281,2407221015.106824,59938.60262432081, 1, 1, 5,15,81951.81706819107, 1, 1,19,15
318,0.0,0.0, 1, 1, 1,15,0.0, 1, 1, 1,15
355,10310294493.051695,18561.32405820678, 1, 2, 4,15,724774.895203776, 1, 1,18,15
403,10310294493.051695,18561.32405820678, 1, 2, 4,15,724774.895203776, 1, 1,18,15
476,5569688622.066177,7098.072629279515, 1, 2, 4,15,356036.3026282215, 1, 1,12,15
513,0.0,0.0, 1, 1, 1,15,0.0, 1, 1, 1,15
562,1688054796.836584,0.0, 1, 7,13,15,133511.80577610355, 1, 2, 3,45
1046,0.0,0.0, 1, 1, 1,15,0.0, 1, 1, 1,15
1096,10096035775.36337,0.0, 1, 1, 1,15,1495686.69391702, 7,26,15,60
1134,8265192562.83419,0.0, 1,15,12,15,5006068.208555812, 1, 3, 6,60
1326,11703136644.33289,0.0, 1, 1, 1,15,4050000.0000000014,10,21, 9,45
1379,0.0,0.0, 1, 1, 1,15,0.0, 1, 1, 1,15
End of Data
 Number of Records Written=          99
