Program Version,EnergyPlus, Version 22.2.0-c249759bad, YMD=2023.09.01 14:31
1,5,Environment Title[],Latitude[deg],Longitude[deg],Time Zone[],Elevation[m]
2,8,Day of Simulation[],Month[],Day of Month[],DST Indicator[1=yes 0=no],Hour[],StartMinute[],EndMinute[],DayType
3,5,Cumulative Day of Simulation[],Month[],Day of Month[],DST Indicator[1=yes 0=no],DayType  ! When Daily Report Variables Requested
4,2,Cumulative Days of Simulation[],Month[]  ! When Monthly Report Variables Requested
5,1,Cumulative Days of Simulation[] ! When Run Period Report Variables Requested
6,1,Calendar Year of Simulation[] ! When Annual Report Variables Requested
7,1,Environment,Site Outdoor Air Drybulb Temperature [C] !Hourly
545,1,LIVING,Zone Mean Air Temperature [C] !Hourly
546,1,ATTIC,Zone Mean Air Temperature [C] !Hourly
547,1,CRAWLSPACE,Zone Mean Air Temperature [C] !Hourly
548,1,FAN,Fan Electricity Rate [W] !Hourly
720,1,LIVING,Zone Predicted Sensible Load to Heating Setpoint Heat Transfer Rate [W] !Hourly
721,1,LIVING,Zone System Predicted Sensible Load to Heating Setpoint Heat Transfer Rate [W] !Hourly
784,1,ATTIC,Zone Predicted Sensible Load to Heating Setpoint Heat Transfer Rate [W] !Hourly
785,1,ATTIC,Zone System Predicted Sensible Load to Heating Setpoint Heat Transfer Rate [W] !Hourly
848,1,CRAWLSPACE,Zone Predicted Sensible Load to Heating Setpoint Heat Transfer Rate [W] !Hourly
849,1,CRAWLSPACE,Zone System Predicted Sensible Load to Heating Setpoint Heat Transfer Rate [W] !Hourly
1121,1,DX_HEATING_COIL,Heating Coil Heating Rate [W] !Hourly
1135,1,DX_HEATING_COIL,Heating Coil Electricity Rate [W] !Hourly
1161,1,DX_HEATING_COIL,Heating Coil Defrost Electricity Rate [W] !Hourly
1163,1,DX_HEATING_COIL,Heating Coil Crankcase Heater Electricity Rate [W] !Hourly
1166,1,HEATING_RESISTANCE_BACKUP,Heating Coil Heating Rate [W] !Hourly
1168,1,HEATING_RESISTANCE_BACKUP,Heating Coil Electricity Rate [W] !Hourly
End of Data Dictionary
1,EXTREME_WINTER,  32.83,-115.58,  -8.00, -16.00
2,1, 1,13, 0, 1, 0.00,60.00,Monday
7,3.3
545,21.39509955502939
546,4.471470601452995
547,20.208424853789754
548,0.0
720,-2066.4797069129145
721,-2066.4797069129145
784,0.0
785,0.0
848,0.0
849,0.0
1121,0.0
1135,0.0
1161,0.0
1163,200.0
1166,0.0
1168,0.0
2,1, 1,13, 0, 2, 0.00,60.00,Monday
7,4.4
545,20.72948375303289
546,4.0158769826727765
547,20.004671908873036
548,0.0
720,-1698.195101871177
721,-1698.195101871177
784,0.0
785,0.0
848,0.0
849,0.0
1121,0.0
1135,0.0
1161,0.0
1163,200.0
1166,0.0
1168,0.0
2,1, 1,13, 0, 3, 0.00,60.00,Monday
7,3.3
545,19.92673445885517
546,3.240217650120189
547,19.856622008184644
548,0.0
720,-1014.732999778631
721,-1014.732999778631
784,0.0
785,0.0
848,0.0
849,0.0
1121,0.0
1135,0.0
1161,0.0
1163,200.0
1166,0.0
1168,0.0
2,1, 1,13, 0, 4, 0.00,60.00,Monday
7,3.9
545,19.38973464081482
546,2.883746504790933
547,19.703941206132928
548,0.0
720,-601.0319971713379
721,-601.0319971713379
784,0.0
785,0.0
848,0.0
849,0.0
1121,0.0
1135,0.0
1161,0.0
1163,200.0
1166,0.0
1168,0.0
2,1, 1,13, 0, 5, 0.00,60.00,Monday
7,2.2
545,18.753226024101476
546,0.819635964447204
547,19.5577074164437
548,0.0
720,-101.48263073173075
721,-101.48263073173075
784,0.0
785,0.0
848,0.0
849,0.0
1121,0.0
1135,0.0
1161,0.0
1163,200.0
1166,0.0
1168,0.0
2,1, 1,13, 0, 6, 0.00,60.00,Monday
7,2.8
545,19.47679586809837
546,0.8758689176029318
547,19.373239202673304
548,32.68583551068031
720,925.074363408623
721,925.074363408623
784,0.0
785,0.0
848,0.0
849,0.0
1121,1118.2963680202529
1135,349.76041719535453
1161,0.01672042304457518
1163,164.41055862978538
1166,0.0
1168,0.0
2,1, 1,13, 0, 7, 0.00,60.00,Monday
7,3.3
545,19.66276649075266
546,1.2515852354166506
547,19.242494883442767
548,37.13648459182589
720,1006.6442156754547
721,1006.6442156754547
784,0.0
785,0.0
848,0.0
849,0.0
1121,1286.468380018924
1135,404.92464946636983
1161,0.018997141311345618
1163,159.56456095043768
1166,0.0
1168,0.0
2,1, 1,13, 0, 8, 0.00,60.00,Monday
7,5.6
545,19.899786355208356
546,2.962102777726926
547,19.12950410696541
548,16.41571366647508
720,502.3144232710438
721,502.3144232710438
784,0.0
785,0.0
848,0.0
849,0.0
1121,680.4385162092972
1135,192.62638905361788
1161,0.0
1163,182.12608687559202
1166,0.0
1168,0.0
2,1, 1,13, 0, 9, 0.00,60.00,Monday
7,9.4
545,20.320793248628195
546,7.444450135829388
547,19.022939667245108
548,0.0
720,-261.9743754761985
721,-261.9743754761985
784,0.0
785,0.0
848,0.0
849,0.0
1121,0.0
1135,0.0
1161,0.0
1163,200.0
1166,0.0
1168,0.0
2,1, 1,13, 0,10, 0.00,60.00,Monday
7,14.4
545,21.861086824806907
546,15.437269151585035
547,18.933610234619316
548,0.0
720,-1741.696426164439
721,-1741.696426164439
784,0.0
785,0.0
848,0.0
849,0.0
1121,0.0
1135,0.0
1161,0.0
1163,0.0
1166,0.0
1168,0.0
2,1, 1,13, 0,11, 0.00,60.00,Monday
7,17.2
545,22.959675431460923
546,22.97597532956082
547,18.883717154826133
548,0.0
720,-2812.4090204274235
721,-2812.4090204274235
784,0.0
785,0.0
848,0.0
849,0.0
1121,0.0
1135,0.0
1161,0.0
1163,0.0
1166,0.0
1168,0.0
2,1, 1,13, 0,12, 0.00,60.00,Monday
7,18.9
545,23.346026513737545
546,29.760406353752245
547,18.89037737894162
548,14.7517568948444
720,-3756.5011910821377
721,-3756.5011910821377
784,0.0
785,0.0
848,0.0
849,0.0
1121,0.0
1135,0.0
1161,0.0
1163,0.0
1166,0.0
1168,0.0
2,1, 1,13, 0,13, 0.00,60.00,Monday
7,21.1
545,23.40173658388597
546,32.948334272232636
547,18.944346373290642
548,33.347243701720636
720,-3881.0647945462424
721,-3881.0647945462424
784,0.0
785,0.0
848,0.0
849,0.0
1121,0.0
1135,0.0
1161,0.0
1163,0.0
1166,0.0
1168,0.0
2,1, 1,13, 0,14, 0.00,60.00,Monday
7,21.7
545,23.384913835240663
546,34.278595088439054
547,19.04600053797832
548,59.145585133788074
720,-5512.185904759739
721,-5512.185904759739
784,0.0
785,0.0
848,0.0
849,0.0
1121,0.0
1135,0.0
1161,0.0
1163,0.0
1166,0.0
1168,0.0
2,1, 1,13, 0,15, 0.00,60.00,Monday
7,21.1
545,23.359409556473814
546,33.031704651291136
547,19.161153636926404
548,77.96096584631903
720,-6717.5296904763945
721,-6717.5296904763945
784,0.0
785,0.0
848,0.0
849,0.0
1121,0.0
1135,0.0
1161,0.0
1163,0.0
1166,0.0
1168,0.0
2,1, 1,13, 0,16, 0.00,60.00,Monday
7,20.0
545,23.34032542676439
546,30.204498217902184
547,19.283719837574598
548,85.74382839447202
720,-7270.408381676676
721,-7270.408381676676
784,0.0
785,0.0
848,0.0
849,0.0
1121,0.0
1135,0.0
1161,0.0
1163,0.0
1166,0.0
1168,0.0
2,1, 1,13, 0,17, 0.00,60.00,Monday
7,17.2
545,23.289977865946348
546,24.900769338445542
547,19.379690960195102
548,75.68086654884826
720,-6981.020336216618
721,-6981.020336216618
784,0.0
785,0.0
848,0.0
849,0.0
1121,0.0
1135,0.0
1161,0.0
1163,0.0
1166,0.0
1168,0.0
2,1, 1,13, 0,18, 0.00,60.00,Monday
7,13.9
545,23.26443574082144
546,20.00504328239063
547,19.443029682354567
548,47.514297816764916
720,-5817.58444275353
721,-5817.58444275353
784,0.0
785,0.0
848,0.0
849,0.0
1121,0.0
1135,0.0
1161,0.0
1163,0.0
1166,0.0
1168,0.0
2,1, 1,13, 0,19, 0.00,60.00,Monday
7,10.6
545,23.208090457159784
546,15.478431716482374
547,19.495621744525558
548,33.8804776822242
720,-5038.856846096258
721,-5038.856846096258
784,0.0
785,0.0
848,0.0
849,0.0
1121,0.0
1135,0.0
1161,0.0
1163,0.0
1166,0.0
1168,0.0
2,1, 1,13, 0,20, 0.00,60.00,Monday
7,8.3
545,23.284842682473457
546,11.963900129146486
547,19.526195935252414
548,22.80203961945676
720,-4526.169232568696
721,-4526.169232568696
784,0.0
785,0.0
848,0.0
849,0.0
1121,0.0
1135,0.0
1161,0.0
1163,175.17246685108668
1166,0.0
1168,0.0
2,1, 1,13, 0,21, 0.00,60.00,Monday
7,7.2
545,23.263031974889163
546,9.408239958372823
547,19.52440322117774
548,14.396317970590138
720,-3982.2889978162348
721,-3982.2889978162348
784,0.0
785,0.0
848,0.0
849,0.0
1121,0.0
1135,0.0
1161,0.0
1163,184.32486445939972
1166,0.0
1168,0.0
2,1, 1,13, 0,22, 0.00,60.00,Monday
7,7.8
545,23.32813013894851
546,8.309524249825365
547,19.493348443608177
548,4.174894908319164
720,-3375.7522423828395
721,-3375.7522423828395
784,0.0
785,0.0
848,0.0
849,0.0
1121,0.0
1135,0.0
1161,0.0
1163,195.45425130999783
1166,0.0
1168,0.0
2,1, 1,13, 0,23, 0.00,60.00,Monday
7,6.7
545,22.944511290081177
546,7.159485863477981
547,19.4446157701998
548,0.0
720,-3449.366396139214
721,-3449.366396139214
784,0.0
785,0.0
848,0.0
849,0.0
1121,0.0
1135,0.0
1161,0.0
1163,200.0
1166,0.0
1168,0.0
2,1, 1,13, 0,24, 0.00,60.00,Monday
7,6.7
545,22.346949831986375
546,6.3115711593800885
547,19.38222534327384
548,0.0
720,-2817.857164344903
721,-2817.857164344903
784,0.0
785,0.0
848,0.0
849,0.0
1121,0.0
1135,0.0
1161,0.0
1163,200.0
1166,0.0
1168,0.0
2,2, 1,14, 0, 1, 0.00,60.00,Tuesday
7,5.0
545,21.51446885089346
546,4.744211644565161
547,19.306957468119823
548,0.0
720,-2134.051237750071
721,-2134.051237750071
784,0.0
785,0.0
848,0.0
849,0.0
1121,0.0
1135,0.0
1161,0.0
1163,200.0
1166,0.0
1168,0.0
2,2, 1,14, 0, 2, 0.00,60.00,Tuesday
7,5.0
545,20.822249852436897
546,4.069330712398168
547,19.220408839724584
548,0.0
720,-1669.5537136249277
721,-1669.5537136249277
784,0.0
785,0.0
848,0.0
849,0.0
1121,0.0
1135,0.0
1161,0.0
1163,200.0
1166,0.0
1168,0.0
2,2, 1,14, 0, 3, 0.00,60.00,Tuesday
7,3.9
545,19.958578243484254
546,3.4739173385844735
547,19.12701684236884
548,0.0
720,-998.6657917196717
721,-998.6657917196717
784,0.0
785,0.0
848,0.0
849,0.0
1121,0.0
1135,0.0
1161,0.0
1163,200.0
1166,0.0
1168,0.0
2,2, 1,14, 0, 4, 0.00,60.00,Tuesday
7,4.4
545,19.404097124572825
546,3.2873417389944892
547,19.02889127239253
548,0.0
720,-603.7967352086998
721,-603.7967352086998
784,0.0
785,0.0
848,0.0
849,0.0
1121,0.0
1135,0.0
1161,0.0
1163,200.0
1166,0.0
1168,0.0
2,2, 1,14, 0, 5, 0.00,60.00,Tuesday
7,3.9
545,18.766438823944192
546,2.823498448130567
547,18.922509307474254
548,0.0
720,-109.96862185309328
721,-109.96862185309328
784,0.0
785,0.0
848,0.0
849,0.0
1121,0.0
1135,0.0
1161,0.0
1163,200.0
1166,0.0
1168,0.0
2,2, 1,14, 0, 6, 0.00,60.00,Tuesday
7,2.2
545,19.453435818026588
546,2.492865745075587
547,18.765278922845507
548,40.94936664148778
720,1153.5568168382888
721,1153.5568168382888
784,0.0
785,0.0
848,0.0
849,0.0
1121,1386.1567276642193
1135,435.62554638874985
1161,0.02094764096669809
1163,155.41291999364307
1166,0.0
1168,0.0
2,2, 1,14, 0, 7, 0.00,60.00,Tuesday
7,3.9
545,19.85984263338173
546,2.501170186986818
547,18.677561534658402
548,41.74188979657747
720,1161.6325397483688
721,1161.6325397483688
784,0.0
785,0.0
848,0.0
849,0.0
1121,1473.248712151279
1135,457.3469098154867
1161,0.02135302069740559
1163,154.55006872963938
1166,0.0
1168,0.0
2,2, 1,14, 0, 8, 0.00,60.00,Tuesday
7,6.1
545,19.88499845009474
546,3.5076820768258337
547,18.586312231151688
548,20.672831714842786
720,655.8792381503063
721,655.8792381503063
784,0.0
785,0.0
848,0.0
849,0.0
1121,869.4041413127103
1135,244.6483926042239
1161,0.0
1163,177.49081120601994
1166,0.0
1168,0.0
2,2, 1,14, 0, 9, 0.00,60.00,Tuesday
7,10.0
545,20.113140742047587
546,7.134674124907607
547,18.49870402061819
548,0.0
720,-89.31690136636644
721,-89.31690136636644
784,0.0
785,0.0
848,0.0
849,0.0
1121,0.0
1135,0.0
1161,0.0
1163,0.0
1166,0.0
1168,0.0
2,2, 1,14, 0,10, 0.00,60.00,Tuesday
7,13.9
545,20.78012182100306
546,12.99049229540685
547,18.422698684572524
548,0.0
720,-839.3169615291426
721,-839.3169615291426
784,0.0
785,0.0
848,0.0
849,0.0
1121,0.0
1135,0.0
1161,0.0
1163,0.0
1166,0.0
1168,0.0
2,2, 1,14, 0,11, 0.00,60.00,Tuesday
7,15.6
545,20.78312214490654
546,15.675957416102845
547,18.37376835452711
548,0.0
720,-775.4979854126232
721,-775.4979854126232
784,0.0
785,0.0
848,0.0
849,0.0
1121,0.0
1135,0.0
1161,0.0
1163,0.0
1166,0.0
1168,0.0
2,2, 1,14, 0,12, 0.00,60.00,Tuesday
7,17.2
545,20.88438545668663
546,16.052666768102597
547,18.343041513840703
548,0.0
720,-729.4925743750755
721,-729.4925743750755
784,0.0
785,0.0
848,0.0
849,0.0
1121,0.0
1135,0.0
1161,0.0
1163,0.0
1166,0.0
1168,0.0
2,2, 1,14, 0,13, 0.00,60.00,Tuesday
7,18.9
545,21.420559697823766
546,19.391869860899508
547,18.323079788005526
548,0.0
720,-1112.2816787397023
721,-1112.2816787397023
784,0.0
785,0.0
848,0.0
849,0.0
1121,0.0
1135,0.0
1161,0.0
1163,0.0
1166,0.0
1168,0.0
2,2, 1,14, 0,14, 0.00,60.00,Tuesday
7,19.4
545,22.373403329996336
546,24.554381652110425
547,18.31556656968173
548,0.0
720,-1743.6010316561533
721,-1743.6010316561533
784,0.0
785,0.0
848,0.0
849,0.0
1121,0.0
1135,0.0
1161,0.0
1163,0.0
1166,0.0
1168,0.0
2,2, 1,14, 0,15, 0.00,60.00,Tuesday
7,20.0
545,23.09604928090445
546,26.49889259611382
547,18.327314952149752
548,0.0
720,-2335.169626821018
721,-2335.169626821018
784,0.0
785,0.0
848,0.0
849,0.0
1121,0.0
1135,0.0
1161,0.0
1163,0.0
1166,0.0
1168,0.0
2,2, 1,14, 0,16, 0.00,60.00,Tuesday
7,18.9
545,23.531921915963707
546,25.008075341727704
547,18.35906130152855
548,0.0
720,-2336.876076574743
721,-2336.876076574743
784,0.0
785,0.0
848,0.0
849,0.0
1121,0.0
1135,0.0
1161,0.0
1163,0.0
1166,0.0
1168,0.0
2,2, 1,14, 0,17, 0.00,60.00,Tuesday
7,17.8
545,23.865164076235015
546,21.64223798343167
547,18.40161558012696
548,0.0
720,-2529.9221067613835
721,-2529.9221067613835
784,0.0
785,0.0
848,0.0
849,0.0
1121,0.0
1135,0.0
1161,0.0
1163,0.0
1166,0.0
1168,0.0
2,2, 1,14, 0,18, 0.00,60.00,Tuesday
7,16.1
545,24.040786864286844
546,18.21997372625382
547,18.444345226217088
548,0.0
720,-2702.1882217007606
721,-2702.1882217007606
784,0.0
785,0.0
848,0.0
849,0.0
1121,0.0
1135,0.0
1161,0.0
1163,0.0
1166,0.0
1168,0.0
2,2, 1,14, 0,19, 0.00,60.00,Tuesday
7,15.6
545,24.325169638056746
546,15.816728285108052
547,18.48034411069537
548,0.0
720,-2727.2409267494204
721,-2727.2409267494204
784,0.0
785,0.0
848,0.0
849,0.0
1121,0.0
1135,0.0
1161,0.0
1163,0.0
1166,0.0
1168,0.0
2,2, 1,14, 0,20, 0.00,60.00,Tuesday
7,13.3
545,24.50460841753328
546,12.913401423418705
547,18.50280096077686
548,0.0
720,-2701.6042300838926
721,-2701.6042300838926
784,0.0
785,0.0
848,0.0
849,0.0
1121,0.0
1135,0.0
1161,0.0
1163,0.0
1166,0.0
1168,0.0
2,2, 1,14, 0,21, 0.00,60.00,Tuesday
7,12.2
545,24.516615915622012
546,10.50831756753985
547,18.512013007930502
548,0.0
720,-2632.5296766080537
721,-2632.5296766080537
784,0.0
785,0.0
848,0.0
849,0.0
1121,0.0
1135,0.0
1161,0.0
1163,0.0
1166,0.0
1168,0.0
2,2, 1,14, 0,22, 0.00,60.00,Tuesday
7,11.7
545,24.25486047696841
546,8.671079813911835
547,18.509475911098818
548,0.0
720,-2261.3055869042373
721,-2261.3055869042373
784,0.0
785,0.0
848,0.0
849,0.0
1121,0.0
1135,0.0
1161,0.0
1163,0.0
1166,0.0
1168,0.0
2,2, 1,14, 0,23, 0.00,60.00,Tuesday
7,9.4
545,23.163525843390374
546,8.140476435161387
547,18.49402742359339
548,0.0
720,-1955.8869869837663
721,-1955.8869869837663
784,0.0
785,0.0
848,0.0
849,0.0
1121,0.0
1135,0.0
1161,0.0
1163,200.0
1166,0.0
1168,0.0
2,2, 1,14, 0,24, 0.00,60.00,Tuesday
7,7.2
545,22.50483157293767
546,6.110424335743932
547,18.467545044000794
548,0.0
720,-2784.107475296669
721,-2784.107475296669
784,0.0
785,0.0
848,0.0
849,0.0
1121,0.0
1135,0.0
1161,0.0
1163,200.0
1166,0.0
1168,0.0
2,3, 1,15, 0, 1, 0.00,60.00,Wednesday
7,5.0
545,21.523433035859835
546,4.932348581520655
547,18.425293786831496
548,0.0
720,-2053.8764372674977
721,-2053.8764372674977
784,0.0
785,0.0
848,0.0
849,0.0
1121,0.0
1135,0.0
1161,0.0
1163,200.0
1166,0.0
1168,0.0
2,3, 1,15, 0, 2, 0.00,60.00,Wednesday
7,4.4
545,20.85084603804148
546,3.1392642549207186
547,18.372742229910592
548,0.0
720,-1701.4712526581206
721,-1701.4712526581206
784,0.0
785,0.0
848,0.0
849,0.0
1121,0.0
1135,0.0
1161,0.0
1163,200.0
1166,0.0
1168,0.0
2,3, 1,15, 0, 3, 0.00,60.00,Wednesday
7,3.9
545,20.067002512177886
546,2.6621372262350516
547,18.30600275148442
548,0.0
720,-1068.6589206565623
721,-1068.6589206565623
784,0.0
785,0.0
848,0.0
849,0.0
1121,0.0
1135,0.0
1161,0.0
1163,200.0
1166,0.0
1168,0.0
2,3, 1,15, 0, 4, 0.00,60.00,Wednesday
7,5.6
545,19.61800407399349
546,3.1217327959388017
547,18.23506799048135
548,0.0
720,-739.1874549875556
721,-739.1874549875556
784,0.0
785,0.0
848,0.0
849,0.0
1121,0.0
1135,0.0
1161,0.0
1163,200.0
1166,0.0
1168,0.0
2,3, 1,15, 0, 5, 0.00,60.00,Wednesday
7,6.7
545,19.403607745781233
546,3.422933414704276
547,18.153939414466862
548,0.0
720,-511.2619282515625
721,-511.2619282515625
784,0.0
785,0.0
848,0.0
849,0.0
1121,0.0
1135,0.0
1161,0.0
1163,200.0
1166,0.0
1168,0.0
2,3, 1,15, 0, 6, 0.00,60.00,Wednesday
7,7.8
545,21.717985962960046
546,4.871111600937985
547,18.057811333772268
548,47.87852049128675
720,223.18545558719597
721,223.18545558719597
784,0.0
785,0.0
848,0.0
849,0.0
1121,2140.9083031216287
1135,571.8713333208798
1161,0.0
1163,147.8684549954016
1166,0.0
1168,0.0
2,3, 1,15, 0, 7, 0.00,60.00,Wednesday
7,7.2
545,19.980998327540178
546,4.300862961325395
547,17.993034701620473
548,0.0
720,-272.84036758136426
721,-272.84036758136426
784,0.0
785,0.0
848,0.0
849,0.0
1121,0.0
1135,0.0
1161,0.0
1163,200.0
1166,0.0
1168,0.0
2,3, 1,15, 0, 8, 0.00,60.00,Wednesday
7,9.4
545,19.81062089653487
546,6.163190348996453
547,17.91896672100729
548,0.0
720,-48.36002012561403
721,-48.36002012561403
784,0.0
785,0.0
848,0.0
849,0.0
1121,0.0
1135,0.0
1161,0.0
1163,200.0
1166,0.0
1168,0.0
2,3, 1,15, 0, 9, 0.00,60.00,Wednesday
7,11.1
545,19.884262803463614
546,8.707913974105002
547,17.85633595340375
548,0.0
720,-98.17576359186387
721,-98.17576359186387
784,0.0
785,0.0
848,0.0
849,0.0
1121,0.0
1135,0.0
1161,0.0
1163,0.0
1166,0.0
1168,0.0
2,3, 1,15, 0,10, 0.00,60.00,Wednesday
7,12.2
545,20.198494060546032
546,12.549278460564821
547,17.80382237370574
548,0.0
720,-304.25632451256024
721,-304.25632451256024
784,0.0
785,0.0
848,0.0
849,0.0
1121,0.0
1135,0.0
1161,0.0
1163,0.0
1166,0.0
1168,0.0
2,3, 1,15, 0,11, 0.00,60.00,Wednesday
7,14.4
545,20.41561548120363
546,15.2791876710821
547,17.766461275531974
548,0.0
720,-455.50569267814353
721,-455.50569267814353
784,0.0
785,0.0
848,0.0
849,0.0
1121,0.0
1135,0.0
1161,0.0
1163,0.0
1166,0.0
1168,0.0
2,3, 1,15, 0,12, 0.00,60.00,Wednesday
7,15.6
545,20.65553790845927
546,17.075054962335578
547,17.74553309804703
548,0.0
720,-555.797452237688
721,-555.797452237688
784,0.0
785,0.0
848,0.0
849,0.0
1121,0.0
1135,0.0
1161,0.0
1163,0.0
1166,0.0
1168,0.0
2,3, 1,15, 0,13, 0.00,60.00,Wednesday
7,17.2
545,21.13297011861829
546,19.116376167979265
547,17.740287661191175
548,0.0
720,-813.4327953023567
721,-813.4327953023567
784,0.0
785,0.0
848,0.0
849,0.0
1121,0.0
1135,0.0
1161,0.0
1163,0.0
1166,0.0
1168,0.0
2,3, 1,15, 0,14, 0.00,60.00,Wednesday
7,17.2
545,21.865478689275797
546,21.580501631850325
547,17.74988166967794
548,0.0
720,-1315.2134960513831
721,-1315.2134960513831
784,0.0
785,0.0
848,0.0
849,0.0
1121,0.0
1135,0.0
1161,0.0
1163,0.0
1166,0.0
1168,0.0
2,3, 1,15, 0,15, 0.00,60.00,Wednesday
7,17.8
545,22.21330235235968
546,21.498366717823792
547,17.77592012306222
548,0.0
720,-1705.196145209009
721,-1705.196145209009
784,0.0
785,0.0
848,0.0
849,0.0
1121,0.0
1135,0.0
1161,0.0
1163,0.0
1166,0.0
1168,0.0
2,3, 1,15, 0,16, 0.00,60.00,Wednesday
7,17.8
545,22.340330380925202
546,20.330100939239767
547,17.813670543104024
548,0.0
720,-1491.0038332473068
721,-1491.0038332473068
784,0.0
785,0.0
848,0.0
849,0.0
1121,0.0
1135,0.0
1161,0.0
1163,0.0
1166,0.0
1168,0.0
2,3, 1,15, 0,17, 0.00,60.00,Wednesday
7,16.7
545,22.583110819264398
546,18.467633146774016
547,17.852838038113855
548,0.0
720,-1821.1439334465995
721,-1821.1439334465995
784,0.0
785,0.0
848,0.0
849,0.0
1121,0.0
1135,0.0
1161,0.0
1163,0.0
1166,0.0
1168,0.0
2,3, 1,15, 0,18, 0.00,60.00,Wednesday
7,15.6
545,22.910665767387098
546,16.154607222367495
547,17.88705748207477
548,0.0
720,-2003.4396706549032
721,-2003.4396706549032
784,0.0
785,0.0
848,0.0
849,0.0
1121,0.0
1135,0.0
1161,0.0
1163,0.0
1166,0.0
1168,0.0
2,3, 1,15, 0,19, 0.00,60.00,Wednesday
7,15.0
545,23.36846398997109
546,14.95550883134496
547,17.917028128797565
548,0.0
720,-2295.0629957037163
721,-2295.0629957037163
784,0.0
785,0.0
848,0.0
849,0.0
1121,0.0
1135,0.0
1161,0.0
1163,0.0
1166,0.0
1168,0.0
2,3, 1,15, 0,20, 0.00,60.00,Wednesday
7,14.4
545,23.658096253766193
546,14.178843080685551
547,17.938687804903374
548,0.0
720,-2601.220843020632
721,-2601.220843020632
784,0.0
785,0.0
848,0.0
849,0.0
1121,0.0
1135,0.0
1161,0.0
1163,0.0
1166,0.0
1168,0.0
2,3, 1,15, 0,21, 0.00,60.00,Wednesday
7,13.9
545,23.82206463943998
546,13.520673367388746
547,17.95320184280682
548,0.0
720,-2710.758861646511
721,-2710.758861646511
784,0.0
785,0.0
848,0.0
849,0.0
1121,0.0
1135,0.0
1161,0.0
1163,0.0
1166,0.0
1168,0.0
2,3, 1,15, 0,22, 0.00,60.00,Wednesday
7,16.1
545,23.920525068606043
546,13.8429564746552
547,17.96224565013591
548,0.0
720,-2711.336650151263
721,-2711.336650151263
784,0.0
785,0.0
848,0.0
849,0.0
1121,0.0
1135,0.0
1161,0.0
1163,0.0
1166,0.0
1168,0.0
2,3, 1,15, 0,23, 0.00,60.00,Wednesday
7,15.6
545,23.517673203379083
546,14.726890093379872
547,17.96554588978039
548,0.0
720,-3349.1972342282406
721,-3349.1972342282406
784,0.0
785,0.0
848,0.0
849,0.0
1121,0.0
1135,0.0
1161,0.0
1163,0.0
1166,0.0
1168,0.0
2,3, 1,15, 0,24, 0.00,60.00,Wednesday
7,13.9
545,22.77108076837398
546,14.16906857601808
547,17.963604104797366
548,0.0
720,-2508.513996890182
721,-2508.513996890182
784,0.0
785,0.0
848,0.0
849,0.0
1121,0.0
1135,0.0
1161,0.0
1163,0.0
1166,0.0
1168,0.0
2,4, 1,16, 0, 1, 0.00,60.00,Thursday
7,13.9
545,22.15932338398321
546,13.802966152069095
547,17.955494922743473
548,0.0
720,-1656.0540639760447
721,-1656.0540639760447
784,0.0
785,0.0
848,0.0
849,0.0
1121,0.0
1135,0.0
1161,0.0
1163,0.0
1166,0.0
1168,0.0
2,4, 1,16, 0, 2, 0.00,60.00,Thursday
7,13.9
545,21.472453841495874
546,13.627111281898301
547,17.93920188781728
548,0.0
720,-1662.6202379305232
721,-1662.6202379305232
784,0.0
785,0.0
848,0.0
849,0.0
1121,0.0
1135,0.0
1161,0.0
1163,0.0
1166,0.0
1168,0.0
2,4, 1,16, 0, 3, 0.00,60.00,Thursday
7,12.8
545,21.25411694635058
546,12.483926561774792
547,17.917727209582292
548,0.0
720,-1759.814436917257
721,-1759.814436917257
784,0.0
785,0.0
848,0.0
849,0.0
1121,0.0
1135,0.0
1161,0.0
1163,0.0
1166,0.0
1168,0.0
2,4, 1,16, 0, 4, 0.00,60.00,Thursday
7,12.8
545,20.97627026505532
546,11.874436491026248
547,17.889760919581654
548,0.0
720,-1253.2897381262228
721,-1253.2897381262228
784,0.0
785,0.0
848,0.0
849,0.0
1121,0.0
1135,0.0
1161,0.0
1163,0.0
1166,0.0
1168,0.0
2,4, 1,16, 0, 5, 0.00,60.00,Thursday
7,13.3
545,20.641324395398367
546,12.280666342714852
547,17.855301984848232
548,0.0
720,-801.6803595345982
721,-801.6803595345982
784,0.0
785,0.0
848,0.0
849,0.0
1121,0.0
1135,0.0
1161,0.0
1163,0.0
1166,0.0
1168,0.0
2,4, 1,16, 0, 6, 0.00,60.00,Thursday
7,13.3
545,20.36512221959874
546,12.411407886748208
547,17.81766928651334
548,0.0
720,-318.10493731088263
721,-318.10493731088263
784,0.0
785,0.0
848,0.0
849,0.0
1121,0.0
1135,0.0
1161,0.0
1163,0.0
1166,0.0
1168,0.0
2,4, 1,16, 0, 7, 0.00,60.00,Thursday
7,12.2
545,20.243033274823148
546,11.660705131173508
547,17.77961052939562
548,0.0
720,-290.3310335457754
721,-290.3310335457754
784,0.0
785,0.0
848,0.0
849,0.0
1121,0.0
1135,0.0
1161,0.0
1163,0.0
1166,0.0
1168,0.0
2,4, 1,16, 0, 8, 0.00,60.00,Thursday
7,13.3
545,21.090871120999594
546,12.346476270733174
547,17.74393434461368
548,0.0
720,-718.3847853468242
721,-718.3847853468242
784,0.0
785,0.0
848,0.0
849,0.0
1121,0.0
1135,0.0
1161,0.0
1163,0.0
1166,0.0
1168,0.0
2,4, 1,16, 0, 9, 0.00,60.00,Thursday
7,16.7
545,22.12803167250857
546,15.976462575872404
547,17.716619854429933
548,0.0
720,-1722.2068632278333
721,-1722.2068632278333
784,0.0
785,0.0
848,0.0
849,0.0
1121,0.0
1135,0.0
1161,0.0
1163,0.0
1166,0.0
1168,0.0
2,4, 1,16, 0,10, 0.00,60.00,Thursday
7,18.9
545,23.397710134336826
546,19.25863258913122
547,17.711948259604096
548,0.0
720,-2961.5891806908785
721,-2961.5891806908785
784,0.0
785,0.0
848,0.0
849,0.0
1121,0.0
1135,0.0
1161,0.0
1163,0.0
1166,0.0
1168,0.0
2,4, 1,16, 0,11, 0.00,60.00,Thursday
7,19.4
545,24.225210062965132
546,20.759221942489397
547,17.73826193810931
548,0.0
720,-4003.1937494986287
721,-4003.1937494986287
784,0.0
785,0.0
848,0.0
849,0.0
1121,0.0
1135,0.0
1161,0.0
1163,0.0
1166,0.0
1168,0.0
2,4, 1,16, 0,12, 0.00,60.00,Thursday
7,20.0
545,25.10118013379076
546,21.752744224061068
547,17.793823442502394
548,0.0
720,-4290.897146503148
721,-4290.897146503148
784,0.0
785,0.0
848,0.0
849,0.0
1121,0.0
1135,0.0
1161,0.0
1163,0.0
1166,0.0
1168,0.0
2,4, 1,16, 0,13, 0.00,60.00,Thursday
7,20.0
545,25.906846276395388
546,22.016324208444153
547,17.86147342037835
548,0.0
720,-4587.449944436707
721,-4587.449944436707
784,0.0
785,0.0
848,0.0
849,0.0
1121,0.0
1135,0.0
1161,0.0
1163,0.0
1166,0.0
1168,0.0
2,4, 1,16, 0,14, 0.00,60.00,Thursday
7,20.0
545,27.07967983272791
546,22.58918177598113
547,17.959318473145487
548,0.0
720,-5620.199788442387
721,-5620.199788442387
784,0.0
785,0.0
848,0.0
849,0.0
1121,0.0
1135,0.0
1161,0.0
1163,0.0
1166,0.0
1168,0.0
2,4, 1,16, 0,15, 0.00,60.00,Thursday
7,19.4
545,27.681785961637004
546,21.553701125068724
547,18.073997258737222
548,0.0
720,-6220.329883783006
721,-6220.329883783006
784,0.0
785,0.0
848,0.0
849,0.0
1121,0.0
1135,0.0
1161,0.0
1163,0.0
1166,0.0
1168,0.0
2,4, 1,16, 0,16, 0.00,60.00,Thursday
7,17.8
545,28.076629489608017
546,19.737201358471204
547,18.199610580604613
548,0.0
720,-6995.15385439055
721,-6995.15385439055
784,0.0
785,0.0
848,0.0
849,0.0
1121,0.0
1135,0.0
1161,0.0
1163,0.0
1166,0.0
1168,0.0
2,4, 1,16, 0,17, 0.00,60.00,Thursday
7,16.1
545,28.51683510291373
546,18.023229082963514
547,18.326437918904595
548,0.0
720,-7623.038649160981
721,-7623.038649160981
784,0.0
785,0.0
848,0.0
849,0.0
1121,0.0
1135,0.0
1161,0.0
1163,0.0
1166,0.0
1168,0.0
2,4, 1,16, 0,18, 0.00,60.00,Thursday
7,14.4
545,27.94299648870752
546,15.959166765377143
547,18.432679818109303
548,0.0
720,-6658.900602384465
721,-6658.900602384465
784,0.0
785,0.0
848,0.0
849,0.0
1121,0.0
1135,0.0
1161,0.0
1163,0.0
1166,0.0
1168,0.0
2,4, 1,16, 0,19, 0.00,60.00,Thursday
7,13.9
545,27.463390082066216
546,14.698486864314365
547,18.508340459878344
548,0.0
720,-6424.574600691367
721,-6424.574600691367
784,0.0
785,0.0
848,0.0
849,0.0
1121,0.0
1135,0.0
1161,0.0
1163,0.0
1166,0.0
1168,0.0
2,4, 1,16, 0,20, 0.00,60.00,Thursday
7,12.8
545,27.266128986648635
546,13.500350029114678
547,18.53151353746054
548,0.0
720,-6459.827825995224
721,-6459.827825995224
784,0.0
785,0.0
848,0.0
849,0.0
1121,0.0
1135,0.0
1161,0.0
1163,0.0
1166,0.0
1168,0.0
2,4, 1,16, 0,21, 0.00,60.00,Thursday
7,12.8
545,26.586372122974414
546,13.165706645337997
547,18.526163375655756
548,0.0
720,-5743.254346743479
721,-5743.254346743479
784,0.0
785,0.0
848,0.0
849,0.0
1121,0.0
1135,0.0
1161,0.0
1163,0.0
1166,0.0
1168,0.0
2,4, 1,16, 0,22, 0.00,60.00,Thursday
7,11.7
545,26.67048371247626
546,11.902627083413487
547,18.5241636447515
548,0.0
720,-5899.675752627281
721,-5899.675752627281
784,0.0
785,0.0
848,0.0
849,0.0
1121,0.0
1135,0.0
1161,0.0
1163,0.0
1166,0.0
1168,0.0
2,4, 1,16, 0,23, 0.00,60.00,Thursday
7,10.0
545,25.853734324036743
546,10.23888789879731
547,18.504562261157396
548,0.0
720,-4937.997336000757
721,-4937.997336000757
784,0.0
785,0.0
848,0.0
849,0.0
1121,0.0
1135,0.0
1161,0.0
1163,0.0
1166,0.0
1168,0.0
2,4, 1,16, 0,24, 0.00,60.00,Thursday
7,9.4
545,24.774500045692466
546,9.514973043355322
547,18.471483056425686
548,0.0
720,-4625.523285693365
721,-4625.523285693365
784,0.0
785,0.0
848,0.0
849,0.0
1121,0.0
1135,0.0
1161,0.0
1163,200.0
1166,0.0
1168,0.0
2,5, 1,17, 0, 1, 0.00,60.00,Friday
7,6.7
545,23.85814054024422
546,7.648081654959505
547,18.42451638512262
548,0.0
720,-4213.876521771752
721,-4213.876521771752
784,0.0
785,0.0
848,0.0
849,0.0
1121,0.0
1135,0.0
1161,0.0
1163,200.0
1166,0.0
1168,0.0
2,5, 1,17, 0, 2, 0.00,60.00,Friday
7,6.1
545,23.088735445807185
546,6.387158241386303
547,18.372501482136293
548,0.0
720,-3540.1518966595377
721,-3540.1518966595377
784,0.0
785,0.0
848,0.0
849,0.0
1121,0.0
1135,0.0
1161,0.0
1163,200.0
1166,0.0
1168,0.0
2,5, 1,17, 0, 3, 0.00,60.00,Friday
7,6.1
545,22.33724122107182
546,5.459778434294564
547,18.308783892430792
548,0.0
720,-2842.961267508721
721,-2842.961267508721
784,0.0
785,0.0
848,0.0
849,0.0
1121,0.0
1135,0.0
1161,0.0
1163,200.0
1166,0.0
1168,0.0
2,5, 1,17, 0, 4, 0.00,60.00,Friday
7,4.4
545,21.447554075228428
546,4.213277729747279
547,18.237671116490194
548,0.0
720,-2111.5075253506566
721,-2111.5075253506566
784,0.0
785,0.0
848,0.0
849,0.0
1121,0.0
1135,0.0
1161,0.0
1163,200.0
1166,0.0
1168,0.0
2,5, 1,17, 0, 5, 0.00,60.00,Friday
7,3.9
545,20.820328483840758
546,2.440288454818318
547,18.155868451430177
548,0.0
720,-1675.4677359021043
721,-1675.4677359021043
784,0.0
785,0.0
848,0.0
849,0.0
1121,0.0
1135,0.0
1161,0.0
1163,200.0
1166,0.0
1168,0.0
2,5, 1,17, 0, 6, 0.00,60.00,Friday
7,3.9
545,20.289805470648023
546,2.276708505248746
547,18.068028683737513
548,0.0
720,-414.38972080418534
721,-414.38972080418534
784,0.0
785,0.0
848,0.0
849,0.0
1121,0.0
1135,0.0
1161,0.0
1163,200.0
1166,0.0
1168,0.0
2,5, 1,17, 0, 7, 0.00,60.00,Friday
7,2.8
545,19.745565348127695
546,1.5379975033646451
547,17.980812665688457
548,0.0
720,-16.597214213101324
721,-16.597214213101324
784,0.0
785,0.0
848,0.0
849,0.0
1121,0.0
1135,0.0
1161,0.0
1163,200.0
1166,0.0
1168,0.0
2,5, 1,17, 0, 8, 0.00,60.00,Friday
7,5.0
545,20.17620137739351
546,3.2617109580656916
547,17.894602768412458
548,0.0
720,-312.49204483887115
721,-312.49204483887115
784,0.0
785,0.0
848,0.0
849,0.0
1121,0.0
1135,0.0
1161,0.0
1163,200.0
1166,0.0
1168,0.0
2,5, 1,17, 0, 9, 0.00,60.00,Friday
7,11.1
545,21.415338210760826
546,8.4121743413146
547,17.81303586806297
548,0.0
720,-1125.2042789249863
721,-1125.2042789249863
784,0.0
785,0.0
848,0.0
849,0.0
1121,0.0
1135,0.0
1161,0.0
1163,0.0
1166,0.0
1168,0.0
2,5, 1,17, 0,10, 0.00,60.00,Friday
7,13.3
545,22.438597718236842
546,15.149938109899614
547,17.75775917807178
548,0.0
720,-2213.141162653339
721,-2213.141162653339
784,0.0
785,0.0
848,0.0
849,0.0
1121,0.0
1135,0.0
1161,0.0
1163,0.0
1166,0.0
1168,0.0
2,5, 1,17, 0,11, 0.00,60.00,Friday
7,15.0
545,23.50744114808441
546,22.15159516405157
547,17.73897362628824
548,0.0
720,-3215.350475049985
721,-3215.350475049985
784,0.0
785,0.0
848,0.0
849,0.0
1121,0.0
1135,0.0
1161,0.0
1163,0.0
1166,0.0
1168,0.0
2,5, 1,17, 0,12, 0.00,60.00,Friday
7,16.1
545,24.441025299954507
546,28.507389862140425
547,17.75732826737589
548,0.0
720,-3924.760398585775
721,-3924.760398585775
784,0.0
785,0.0
848,0.0
849,0.0
1121,0.0
1135,0.0
1161,0.0
1163,0.0
1166,0.0
1168,0.0
2,5, 1,17, 0,13, 0.00,60.00,Friday
7,17.8
545,25.600007758020375
546,34.309104996301436
547,17.80332450921431
548,0.0