Program Version,EnergyPlus, Version 22.2.0-c249759bad, YMD=2023.07.31 20:00
1,5,Environment Title[],Latitude[deg],Longitude[deg],Time Zone[],Elevation[m]
2,8,Day of Simulation[],Month[],Day of Month[],DST Indicator[1=yes 0=no],Hour[],StartMinute[],EndMinute[],DayType
3,5,Cumulative Day of Simulation[],Month[],Day of Month[],DST Indicator[1=yes 0=no],DayType  ! When Daily Report Variables Requested
4,2,Cumulative Days of Simulation[],Month[]  ! When Monthly Report Variables Requested
5,1,Cumulative Days of Simulation[] ! When Run Period Report Variables Requested
6,1,Calendar Year of Simulation[] ! When Annual Report Variables Requested
581,11,LIVING,AFN Zone Infiltration Air Change Rate [ach] !RunPeriod [Value,Min,Month,Day,Hour,Minute,Max,Month,Day,Hour,Minute]
582,11,ATTIC,AFN Zone Infiltration Air Change Rate [ach] !RunPeriod [Value,Min,Month,Day,Hour,Minute,Max,Month,Day,Hour,Minute]
583,11,CRAWLSPACE,AFN Zone Infiltration Air Change Rate [ach] !RunPeriod [Value,Min,Month,Day,Hour,Minute,Max,Month,Day,Hour,Minute]
1038,11,Facility,Facility Heating Setpoint Not Met Time [hr] !RunPeriod [Value,Min,Month,Day,Hour,Minute,Max,Month,Day,Hour,Minute]
1039,11,Facility,Facility Cooling Setpoint Not Met Time [hr] !RunPeriod [Value,Min,Month,Day,Hour,Minute,Max,Month,Day,Hour,Minute]
1127,11,HEATING_FUEL_MAIN,Heating Coil Electricity Energy [J] !RunPeriod [Value,Min,Month,Day,Hour,Minute,Max,Month,Day,Hour,Minute]
13,11,Electricity:Facility [J] !RunPeriod [Value,Min,Month,Day,Hour,Minute,Max,Month,Day,Hour,Minute]
1133,11,Heating:Electricity [J] !RunPeriod [Value,Min,Month,Day,Hour,Minute,Max,Month,Day,Hour,Minute]
1172,11,Cooling:Electricity [J] !RunPeriod [Value,Min,Month,Day,Hour,Minute,Max,Month,Day,Hour,Minute]
562,11,Fans:Electricity [J] !RunPeriod [Value,Min,Month,Day,Hour,Minute,Max,Month,Day,Hour,Minute]
1422,11,Pumps:Electricity [J] !RunPeriod [Value,Min,Month,Day,Hour,Minute,Max,Month,Day,Hour,Minute]
1394,11,WaterSystems:Electricity [J] !RunPeriod [Value,Min,Month,Day,Hour,Minute,Max,Month,Day,Hour,Minute]
61,11,InteriorLights:Electricity [J] !RunPeriod [Value,Min,Month,Day,Hour,Minute,Max,Month,Day,Hour,Minute]
1046,11,ExteriorLights:Electricity [J] !RunPeriod [Value,Min,Month,Day,Hour,Minute,Max,Month,Day,Hour,Minute]
134,11,InteriorEquipment:Electricity [J] !RunPeriod [Value,Min,Month,Day,Hour,Minute,Max,Month,Day,Hour,Minute]
170,11,gas_dryer:InteriorEquipment:Electricity [J] !RunPeriod [Value,Min,Month,Day,Hour,Minute,Max,Month,Day,Hour,Minute]
207,11,clotheswasher:InteriorEquipment:Electricity [J] !RunPeriod [Value,Min,Month,Day,Hour,Minute,Max,Month,Day,Hour,Minute]
244,11,dishwasher:InteriorEquipment:Electricity [J] !RunPeriod [Value,Min,Month,Day,Hour,Minute,Max,Month,Day,Hour,Minute]
281,11,refrigerator:InteriorEquipment:Electricity [J] !RunPeriod [Value,Min,Month,Day,Hour,Minute,Max,Month,Day,Hour,Minute]
318,11,electric_mels:InteriorEquipment:Electricity [J] !RunPeriod [Value,Min,Month,Day,Hour,Minute,Max,Month,Day,Hour,Minute]
355,11,NaturalGas:Facility [J] !RunPeriod [Value,Min,Month,Day,Hour,Minute,Max,Month,Day,Hour,Minute]
1108,11,Heating:NaturalGas [J] !RunPeriod [Value,Min,Month,Day,Hour,Minute,Max,Month,Day,Hour,Minute]
1357,11,WaterSystems:NaturalGas [J] !RunPeriod [Value,Min,Month,Day,Hour,Minute,Max,Month,Day,Hour,Minute]
403,11,InteriorEquipment:NaturalGas [J] !RunPeriod [Value,Min,Month,Day,Hour,Minute,Max,Month,Day,Hour,Minute]
476,11,gas_dryer:InteriorEquipment:NaturalGas [J] !RunPeriod [Value,Min,Month,Day,Hour,Minute,Max,Month,Day,Hour,Minute]
513,11,gas_mels:InteriorEquipment:NaturalGas [J] !RunPeriod [Value,Min,Month,Day,Hour,Minute,Max,Month,Day,Hour,Minute]
End of Data Dictionary
1,EXTREME_WINTER,  39.12, -94.60,  -6.00, 231.00
5,7
1038,37.166666666666664,0.0, 1,13, 1,10,0.16666666666666666, 1,13, 3,60
1039,0.0,0.0, 1,13, 1,10,0.0, 1,13, 1,10
581,0.32094395583836516,0.15461756924059583, 1,19,20,10,0.6272113262124848, 1,18,15,60
582,3.645061805405117,0.0, 1,17, 5,60,13.546955712099093, 1,18,15,10
583,4.982766099576839,0.00013971281331872344, 1,19,19, 6,17.301819154683443, 1,18,15,60
1127,0.0,0.0, 1,13, 1, 2,0.0, 1,13, 1, 2
13,441682287.8910084,163005.55760009654, 1,19, 1,10,1033114.5749882871, 1,15,21,60
61,301924526.0238348,58759.40635443481, 1,13, 1,10,854682.2742463244, 1,13,20,10
134,70666020.44019979,42376.01200569399, 1,13, 4,10,104369.48322671017, 1,18,20,10
170,5241013.419656074,232.27731661587313, 1,13, 4,10,11650.931360040839, 1,18,12,10
207,6509451.13922266,543.5021409221355, 1,13, 3,10,15327.095199349082, 1,18,10,10
244,12749673.39982522,1014.5707620042115, 1,13, 4,10,35359.08742820678, 1,18,20,10
281,46165882.48149605,39959.06841621388, 1,13, 5,10,54634.54471212738, 1,13,19,10
318,0.0,0.0, 1,13, 1,10,0.0, 1,13, 1,10
355,3626456548.4437194,161027.08588691714, 1,18,23,10,8390477.489217136, 1,15,10,10
403,197687796.27748126,12374.216038804521, 1,13, 4,10,483183.26346918393, 1,18,18,10
476,106772067.24485692,4732.048419519677, 1,13, 4,10,237357.535085481, 1,18,12,10
513,0.0,0.0, 1,13, 1,10,0.0, 1,13, 1,10
562,64071901.42697491,0.0, 1,18,16,20,96573.05416151705, 1,16,12,10
1046,0.0,0.0, 1,13, 1,10,0.0, 1,13, 1,10
1108,3150476250.0901494,0.0, 1,18,16,20,4748588.800369827, 1,13, 3,40
1133,0.0,0.0, 1,13, 1,10,0.0, 1,13, 1,10
1172,0.0,0.0, 1,13, 1,10,0.0, 1,13, 1,10
1357,278292502.0760657,0.0, 1,13, 1,10,3375000.000000001, 1,17, 8,50
1394,5019840.0,4980.0, 1,13, 1,20,4980.000000000001, 1,13, 1,10
1422,0.0,0.0, 1,13, 1,10,0.0, 1,13, 1,10
1,EXTREME_SUMMER,  39.12, -94.60,  -6.00, 231.00
5,7
1038,0.0,0.0, 8,24, 1,10,0.0, 8,24, 1,10
1039,62.83333333333332,0.0, 8,24, 1,10,0.16666666666666666, 8,24,13,60
581,0.12716964545339476,0.0, 8,28, 4,45,0.3094825547018305, 8,27,16,53
582,3.5825020422397142,0.33062474105056433, 8,29, 6,30,8.39178745960189, 8,28,15,53
583,4.713709236061269,0.0, 8,28, 6, 7,10.073139452327792, 8,27,10,54
1127,0.0,0.0, 8,24, 1,10,0.0, 8,24, 1,10
13,1062826090.1963487,209898.10533554293, 8,28, 4,60,2007623.7866807082, 8,30,20,10
61,301924526.0238348,58759.40635443481, 8,24, 1,10,854682.2742463244, 8,24,20,10
134,70666020.44019979,42376.01200569399, 8,24, 4,10,104369.48322671017, 8,29,20,10
170,5241013.419656074,232.27731661587313, 8,24, 4,10,11650.931360040839, 8,29,12,10
207,6509451.13922266,543.5021409221355, 8,24, 3,10,15327.095199349082, 8,29,10,10
244,12749673.39982522,1014.5707620042115, 8,24, 4,10,35359.08742820678, 8,29,20,10
281,46165882.48149605,39959.06841621388, 8,24, 5,10,54634.54471212738, 8,24,19,10
318,0.0,0.0, 8,24, 1,10,0.0, 8,24, 1,10
355,412674556.7096521,12374.216038804521, 8,24, 4,10,3678253.9165225904, 8,29,10,20
403,197687796.27748126,12374.216038804521, 8,24, 4,10,483183.26346918393, 8,29,18,10
476,106772067.24485692,4732.048419519677, 8,24, 4,10,237357.535085481, 8,29,12,10
513,0.0,0.0, 8,24, 1,10,0.0, 8,24, 1,10
562,66330666.866988845,10749.74267491171, 8,28, 5,60,96573.05416151704, 8,24,13,30
1046,0.0,0.0, 8,24, 1,10,0.0, 8,24, 1,10
1108,0.0,0.0, 8,24, 1,10,0.0, 8,24, 1,10
1133,0.0,0.0, 8,24, 1,10,0.0, 8,24, 1,10
1172,618885036.8653241,85866.09248423387, 8,28, 5,60,1036484.106245566, 8,30,16,60
1357,214986760.4321724,0.0, 8,24, 1,10,3375000.000000001, 8,25, 7,30
1394,5019840.0,4979.999999999999, 8,29, 4,50,4980.000000000001, 8,24, 8,40
1422,0.0,0.0, 8,24, 1,10,0.0, 8,24, 1,10
1,ANNUAL,  39.12, -94.60,  -6.00, 231.00
5,365
1038,194.49999999999977,0.0, 1, 1, 1,10,0.16666666666666666, 1, 1, 6,10
1039,452.1666666666665,0.0, 1, 1, 1,10,0.16666666666666666, 4, 2,13,50
581,0.21373777656417622,0.0, 3,17,19,53,1.140203997446625, 6,27, 5,60
582,3.9149862657217147,0.0, 1, 1,19,55,23.369813753814277, 2,10,17,55
583,4.748028435392964,0.0, 5,27,23, 3,26.982329376876486, 6,19, 1,55
1127,0.0,0.0, 1, 1, 1, 5,0.0, 1, 1, 1, 5
13,31440287373.272552,106115.4183601288, 2, 7, 4,10,2025381.5029345017, 7, 9,20,10
61,15743207428.39043,58759.40635443481, 1, 1, 1,10,854682.2742463244, 1, 1,20,10
134,3685071073.433083,42376.01200569399, 1, 2, 4,10,104369.48322671017, 1, 1,20,10
170,273393721.45534325,232.27731661587313, 1, 2, 4,10,11650.931360040839, 1, 1,12,10
207,339560869.06955314,543.5021409221355, 1, 2, 3,10,15327.095199349082, 1, 1,10,10
244,664895467.8009839,1014.5707620042115, 1, 2, 4,10,35359.08742820678, 1, 1,20,10
281,2407221015.1057043,39959.06841621388, 1, 1, 5,10,54634.54471212738, 1, 1,19,10
318,0.0,0.0, 1, 1, 1,10,0.0, 1, 1, 1,10
355,52442772097.83878,12374.216038804521, 2, 7, 4,10,8426842.716892418, 1,28,10,20
403,10310294493.052883,12374.216038804521, 1, 2, 4,10,483183.26346918393, 1, 1,18,10
476,5569688622.065564,4732.048419519677, 1, 2, 4,10,237357.535085481, 1, 1,12,10
513,0.0,0.0, 1, 1, 1,10,0.0, 1, 1, 1,10
562,1783785742.509905,0.0, 1, 1,12,10,96573.05416151705, 1,16,12,10
1046,0.0,0.0, 1, 1, 1,10,0.0, 1, 1, 1,10
1108,29133670108.735863,0.0, 1, 1,12,10,4748588.800369827, 1, 8, 6,10
1133,0.0,0.0, 1, 1, 1,10,0.0, 1, 1, 1,10
1172,9966474328.944736,0.0, 1, 1, 1,10,1037993.5688952375, 8,30,16,60
1357,12998807496.049828,0.0, 1, 1, 1,10,3375000.000000002,10, 7,10,40
1394,261748800.0,4979.999999999998, 4,12, 9,20,4980.000000000002, 2,11,10,10
1422,0.0,0.0, 1, 1, 1,10,0.0, 1, 1, 1,10
End of Data
 Number of Records Written=          78
