Program Version,EnergyPlus, Version 22.2.0-c249759bad, YMD=2023.09.01 14:30
1,5,Environment Title[],Latitude[deg],Longitude[deg],Time Zone[],Elevation[m]
2,8,Day of Simulation[],Month[],Day of Month[],DST Indicator[1=yes 0=no],Hour[],StartMinute[],EndMinute[],DayType
3,5,Cumulative Day of Simulation[],Month[],Day of Month[],DST Indicator[1=yes 0=no],DayType  ! When Daily Report Variables Requested
4,2,Cumulative Days of Simulation[],Month[]  ! When Monthly Report Variables Requested
5,1,Cumulative Days of Simulation[] ! When Run Period Report Variables Requested
6,1,Calendar Year of Simulation[] ! When Annual Report Variables Requested
7,1,Environment,Site Outdoor Air Drybulb Temperature [C] !Hourly
619,1,DX_HEATING_COIL,Heating Coil Heating Rate [W] !Hourly
633,1,DX_HEATING_COIL,Heating Coil Electricity Rate [W] !Hourly
659,1,DX_HEATING_COIL,Heating Coil Defrost Electricity Rate [W] !Hourly
661,1,DX_HEATING_COIL,Heating Coil Crankcase Heater Electricity Rate [W] !Hourly
690,1,FAN,Fan Electricity Rate [W] !Hourly
716,1,HEAT PUMP WATER HEATER FAN,Fan Electricity Rate [W] !Hourly
718,1,LIVING,Zone Mean Air Temperature [C] !Hourly
719,1,ATTIC,Zone Mean Air Temperature [C] !Hourly
720,1,CRAWLSPACE,Zone Mean Air Temperature [C] !Hourly
843,1,LIVING,Zone Predicted Sensible Load to Heating Setpoint Heat Transfer Rate [W] !Hourly
844,1,LIVING,Zone System Predicted Sensible Load to Heating Setpoint Heat Transfer Rate [W] !Hourly
907,1,ATTIC,Zone Predicted Sensible Load to Heating Setpoint Heat Transfer Rate [W] !Hourly
908,1,ATTIC,Zone System Predicted Sensible Load to Heating Setpoint Heat Transfer Rate [W] !Hourly
971,1,CRAWLSPACE,Zone Predicted Sensible Load to Heating Setpoint Heat Transfer Rate [W] !Hourly
972,1,CRAWLSPACE,Zone System Predicted Sensible Load to Heating Setpoint Heat Transfer Rate [W] !Hourly
1195,1,HEATING_RESISTANCE_BACKUP,Heating Coil Heating Rate [W] !Hourly
1197,1,HEATING_RESISTANCE_BACKUP,Heating Coil Electricity Rate [W] !Hourly
End of Data Dictionary
1,EXTREME_WINTER,  43.57,-116.21,  -7.00, 857.70
2,1,12,15, 0, 1, 0.00,60.00,Monday
7,-2.0
718,18.822993761582755
719,-0.11632731248811376
720,18.748714944888825
619,2959.051622146391
633,972.0726486016318
659,61.94525357540373
661,79.9686334984172
690,108.35387068755283
716,0.0
843,2130.1543965509263
844,2130.1543965509263
907,0.0
908,0.0
971,0.0
972,0.0
1195,0.0
1197,0.0
2,1,12,15, 0, 2, 0.00,60.00,Monday
7,-2.0
718,18.63005765622135
719,0.22946383575289067
720,18.39102551658336
619,3051.279310002047
633,1002.7644742145549
659,63.77568570213103
661,76.42180372893324
690,111.55496594758452
716,0.0
843,2210.812392390835
844,2210.812392390835
907,0.0
908,0.0
971,0.0
972,0.0
1195,0.0
1197,0.0
2,1,12,15, 0, 3, 0.00,60.00,Monday
7,-2.0
718,18.648136140651932
719,0.6728790917643099
720,18.21442348670777
619,3146.7029202656554
633,1026.6418479952554
659,65.56415016144082
661,72.95629474156333
690,114.68475978289587
716,0.0
843,2307.670254700486
844,2307.670254700486
907,0.0
908,0.0
971,0.0
972,0.0
1195,0.0
1197,0.0
2,1,12,15, 0, 4, 0.00,60.00,Monday
7,-2.0
718,18.615694200420837
719,0.8734711378231299
720,18.022859797890565
619,3267.178061250048
633,1063.370600862137
659,67.89606891418101
661,68.43773394301313
690,118.76367691863176
716,0.0
843,2395.6775819329832
844,2395.6775819329832
907,0.0
908,0.0
971,0.0
972,0.0
1195,0.0
1197,0.0
2,1,12,15, 0, 5, 0.00,60.00,Monday
7,-2.2
718,18.60375205003714
719,0.826244955975171
720,17.858898248244483
619,3289.199492304128
633,1072.5789763366824
659,63.96118285521493
661,67.70346865311181
690,119.48698777954448
716,0.0
843,2427.194759330405
844,2427.194759330405
907,0.0
908,0.0
971,0.0
972,0.0
1195,0.0
1197,0.0
2,1,12,15, 0, 6, 0.00,60.00,Monday
7,-2.2
718,19.32806375228612
719,1.4833540073957554
720,17.67741749654787
619,4551.545411426055
633,1442.8864217397997
659,86.0146418582689
661,21.9400251917361
690,160.82130721797827
716,0.0
843,3346.177591269525
844,3346.177591269525
907,0.0
908,0.0
971,0.0
972,0.0
1195,0.0
1197,0.0
2,1,12,15, 0, 7, 0.00,60.00,Monday
7,-2.2
718,19.5016091437837
719,1.9469057232267601
720,17.559566112458953
619,5269.039620800719
633,1658.7492564875092
659,85.8310319119171
661,0.0
690,182.6906774608458
716,85.44000000000005
843,3425.4143205132586
844,3425.4143205132586
907,0.0
908,0.0
971,0.0
972,0.0
1195,625.6643178140716
1197,625.6643178140716
2,1,12,15, 0, 8, 0.00,60.00,Monday
7,-2.0
718,19.62895114127179
719,2.0842291660968564
720,17.432916124639878
619,5216.304903451952
633,1642.6877369006136
659,103.21511015137347
661,0.0
690,182.6906774608458
716,79.23770033235039
843,3398.2730442954107
844,3398.2730442954107
907,0.0
908,0.0
971,0.0
972,0.0
1195,625.6059420741731
1197,625.6059420741731
2,1,12,15, 0, 9, 0.00,60.00,Monday
7,-4.0
718,19.69318346909099
719,0.6218773127221547
720,17.296015954623595
619,5063.792485285755
633,1668.9845493885646
659,67.07599255473764
661,0.0
690,182.14262942238062
716,0.0
843,3680.787903529992
844,3680.787903529992
907,0.0
908,0.0
971,0.0
972,0.0
1195,0.0
1197,0.0
2,1,12,15, 0,10, 0.00,60.00,Monday
7,-4.0
718,19.71053350439699
719,-0.31656959431110515
720,17.17733005940699
619,5077.428019666577
633,1670.8668619622404
659,67.07599255473764
661,0.0
690,182.6906774608458
716,0.0
843,4224.670147541094
844,4224.670147541094
907,0.0
908,0.0
971,0.0
972,0.0
1195,719.0428322576786
1197,719.0428322576786
2,1,12,15, 0,11, 0.00,60.00,Monday
7,-4.0
718,19.71809747135903
719,-0.2408713137283013
720,17.059444678997167
619,5007.033492532404
633,1648.1998149102878
659,83.71171989107945
661,0.0
690,182.6906774608458
716,0.0
843,4003.124770902479
844,4003.124770902479
907,0.0
908,0.0
971,0.0
972,0.0
1195,584.5023634826812
1197,584.5023634826812
2,1,12,15, 0,12, 0.00,60.00,Monday
7,-2.8
718,19.738266233212723
719,0.9350547205258621
720,16.960252997883963
619,4663.675122421622
633,1529.6451985189217
659,66.55859384866405
661,17.909048287826558
690,164.8195353168676
716,0.0
843,3295.870976545628
844,3295.870976545628
907,0.0
908,0.0
971,0.0
972,0.0
1195,0.0
1197,0.0
2,1,12,15, 0,13, 0.00,60.00,Monday
7,-2.8
718,19.778581223723283
719,1.9935169617736028
720,16.85561087988389
619,3592.063797016551
633,1206.6318426417254
659,52.4839035961408
661,56.42808490591737
690,129.95377867193102
716,0.0
843,2575.689895057929
844,2575.689895057929
907,0.0
908,0.0
971,0.0
972,0.0
1195,0.0
1197,0.0
2,1,12,15, 0,14, 0.00,60.00,Monday
7,-3.0
718,19.70292719948094
719,3.0983913490501087
720,16.74748511588517
619,4517.566642012184
633,1493.7224590851295
659,65.93852103432239
661,21.924548602898742
690,161.1260241820953
716,79.8718395793998
843,2395.030854002789
844,2395.030854002789
907,0.0
908,0.0
971,0.0
972,0.0
1195,0.0
1197,0.0
2,1,12,15, 0,15, 0.00,60.00,Monday
7,-2.0
718,19.767900990683774
719,2.785074815283043
720,16.671936031033805
619,3328.4045743692463
633,1106.3987779288989
659,42.15697780030859
661,70.02935930654972
690,117.86474493162359
716,0.0
843,2460.7268348697344
844,2460.7268348697344
907,0.0
908,0.0
971,0.0
972,0.0
1195,0.0
1197,0.0
2,1,12,15, 0,16, 0.00,60.00,Monday
7,-2.0
718,19.798063824650182
719,2.504132428235843
720,16.59251258000667
619,3076.861418106829
633,1031.0516859068202
659,51.851351983893004
661,77.0492231744683
690,111.24011458513057
716,0.0
843,2263.3702918948147
844,2263.3702918948147
907,0.0
908,0.0
971,0.0
972,0.0
1195,0.0
1197,0.0
2,1,12,15, 0,17, 0.00,60.00,Monday
7,-2.2
718,19.65665247017153
719,1.2824611259922976
720,16.513187280598782
619,3055.513906655685
633,1028.9677002179017
659,52.649997494299036
661,77.01947654056838
690,111.22015329454177
716,0.0
843,2225.3655856295554
844,2225.3655856295554
907,0.0
908,0.0
971,0.0
972,0.0
1195,0.0
1197,0.0
2,1,12,15, 0,18, 0.00,60.00,Monday
7,-5.6
718,19.568919784605487
719,-0.17761619734459283
720,16.404987951491112
619,3745.9606212131407
633,1317.3522221060302
659,48.84815499731376
661,40.719943954804094
690,143.9741996035425
716,0.0
843,2667.0933607193765
844,2667.0933607193765
907,0.0
908,0.0
971,0.0
972,0.0
1195,0.0
1197,0.0
2,1,12,15, 0,19, 0.00,60.00,Monday
7,-5.0
718,19.612518890200253
719,-0.8183555464029855
720,16.325094115620484
619,5018.849716409397
633,1678.4770073825364
659,47.32730395911663
661,0.0
690,182.6906774608458
716,85.44000000000005
843,2564.056908750661
844,2564.056908750661
907,0.0
908,0.0
971,0.0
972,0.0
1195,40.267006237295845
1197,40.267006237295845
2,1,12,15, 0,20, 0.00,60.00,Monday
7,-5.0
718,19.66108681977795
719,-0.9295923497100664
720,16.24270884395532
619,4912.7820118102645
633,1659.5614322872698
659,46.75212702505446
661,2.4116680739657337
690,179.13638693030492
716,85.44000000000005
843,2410.3265844410307
844,2410.3265844410307
907,0.0
908,0.0
971,0.0
972,0.0
1195,0.0
1197,0.0
2,1,12,15, 0,21, 0.00,60.00,Monday
7,-3.3
718,19.722093245098765
719,-1.268543589617645
720,16.16863682126652
619,4178.501330249207
633,1391.7481520658064
659,26.78624137377167
661,38.68703241505405
690,146.72202206979472
716,38.012121909855175
843,2491.317236869607
844,2491.317236869607
907,0.0
908,0.0
971,0.0
972,0.0
1195,0.0
1197,0.0
2,1,12,15, 0,22, 0.00,60.00,Monday
7,-2.8
718,19.740375200690934
719,-0.767751092859629
720,16.076871089599038
619,3731.402644131982
633,1244.9764742340087
659,19.252158894461598
661,57.20143697048048
690,130.01625001788602
716,0.0
843,2613.679767749789
844,2613.679767749789
907,0.0
908,0.0
971,0.0
972,0.0
1195,0.0
1197,0.0
2,1,12,15, 0,23, 0.00,60.00,Monday
7,-2.8
718,18.88982649491242
719,-1.0016747857726707
720,15.98006397442935
619,2618.4790969645546
633,895.1032921110705
659,13.835663334631096
661,97.37707580868253
690,93.43681270851934
716,0.0
843,1840.2017841177967
844,1840.2017841177967
907,0.0
908,0.0
971,0.0
972,0.0
1195,0.0
1197,0.0
2,1,12,15, 0,24, 0.00,60.00,Monday
7,-2.8
718,18.730922354359357
719,-1.1262819345056645
720,15.861265525787926
619,3077.8036847044577
633,1019.6065356445134
659,12.619724948584555
661,81.64343870657493
690,107.83782551568774
716,0.0
843,2204.7113763214456
844,2204.7113763214456
907,0.0
908,0.0
971,0.0
972,0.0
1195,0.0
1197,0.0
2,2,12,16, 0, 1, 0.00,60.00,Tuesday
7,-2.8
718,18.628028597525127
719,-1.1394438523463064
720,15.758348549973901
619,3606.986083675385
633,1176.799728835673
659,14.61819624108653
661,62.94071160274382
690,124.8785659695076
716,0.0
843,2585.0116564949712
844,2585.0116564949712
907,0.0
908,0.0
971,0.0
972,0.0
1195,0.0
1197,0.0
2,2,12,16, 0, 2, 0.00,60.00,Tuesday
7,-2.2
718,18.55097901001031
719,-0.7351870632283479
720,15.654515842692975
619,4185.7972195233315
633,1331.368633319024
659,11.048757166446194
661,46.23947912878077
690,140.23151489593937
716,0.0
843,3012.492593248646
844,3012.492593248646
907,0.0
908,0.0
971,0.0
972,0.0
1195,0.0
1197,0.0
2,2,12,16, 0, 3, 0.00,60.00,Tuesday
7,-2.2
718,18.70976339955705
719,-0.38647549424651245
720,15.557594689848464
619,3936.904886309011
633,1256.0909346570838
659,10.44245743363304
661,54.70574817278766
690,132.51021551388047
716,0.0
843,2847.088317351754
844,2847.088317351754
907,0.0
908,0.0
971,0.0
972,0.0
1195,0.0
1197,0.0
2,2,12,16, 0, 4, 0.00,60.00,Tuesday
7,-4.4
718,18.485033809064415
719,-0.6940097391193819
720,15.441336030336245
619,4768.019052262484
633,1561.0798990969247
659,33.800438800682535
661,13.334538783483296
690,169.60796241948353
716,0.0
843,3388.639815562332
844,3388.639815562332
907,0.0
908,0.0
971,0.0
972,0.0
1195,0.0
1197,0.0
2,2,12,16, 0, 5, 0.00,60.00,Tuesday
7,-4.4
718,18.5531032585618
719,-0.7655644013152425
720,15.338334792388709
619,5112.16134672995
633,1651.994371954937
659,35.932922932938986
661,1.5577350433935155
690,180.3098026929112
716,0.0
843,3637.770385892136
844,3637.770385892136
907,0.0
908,0.0
971,0.0
972,0.0
1195,0.0
1197,0.0
2,2,12,16, 0, 6, 0.00,60.00,Tuesday
7,-7.2
718,19.319753033638214
719,-1.6264079609960187
720,15.22714368354927
619,4803.9144255193505
633,1637.3640914468865
659,29.31961452881379
661,0.0
690,182.6906774608458
716,0.0
843,4379.671878667794
844,4379.671878667794
907,0.0
908,0.0
971,0.0
972,0.0
1195,1200.80008724869
1197,1200.80008724869
2,2,12,16, 0, 7, 0.00,60.00,Tuesday
7,-6.7
718,19.54918719014273
719,-1.6416669340478338
720,15.175772684805672
619,4838.952544904401
633,1663.5929585135007
659,33.19032305511112
661,0.0
690,182.6906774608458
716,85.44000000000005
843,4126.418128233092
844,4126.418128233092
907,0.0
908,0.0
971,0.0
972,0.0
1195,2076.014607146283
1197,2076.014607146283
2,2,12,16, 0, 8, 0.00,60.00,Tuesday
7,-5.0
718,19.639566860208433
719,-0.6481555280785483
720,15.103373529368085
619,5048.932107865296
633,1685.235345798494
659,40.52000029361624
661,0.0
690,182.6906774608458
716,85.44000000000005
843,3672.5776088726743
844,3672.5776088726743
907,0.0
908,0.0
971,0.0
972,0.0
1195,1435.597370538232
1197,1435.597370538232
2,2,12,16, 0, 9, 0.00,60.00,Tuesday
7,-5.0
718,19.68511654257143
719,-0.18180165576954718
720,15.020508116797576
619,5046.438926434648
633,1688.0956455067735
659,40.52782614864984
661,0.0
690,182.6906774608458
716,85.44000000000005
843,3492.467913527531
844,3492.467913527531
907,0.0
908,0.0
971,0.0
972,0.0
1195,1166.9184791792686
1197,1166.9184791792686
2,2,12,16, 0,10, 0.00,60.00,Tuesday
7,-2.0
718,19.70851463547284
719,0.6166873741923387
720,14.959353151259801
619,5462.2873765589475
633,1722.7727368679543
659,47.67781696336969
661,0.0
690,182.6906774608458
716,9.967511481232766
843,4263.980122926358
844,4263.980122926358
907,0.0
908,0.0
971,0.0
972,0.0
1195,618.431022707473
1197,618.431022707473
2,2,12,16, 0,11, 0.00,60.00,Tuesday
7,-2.2
718,19.718859661645627
719,1.3017232990752161
720,14.883196804579992
619,5299.289248938144
633,1691.9112155745554
659,66.41304940100558
661,0.2626135822053399
690,181.06245133670086
716,0.0
843,3756.0650631256176
844,3756.0650631256176
907,0.0
908,0.0
971,0.0
972,0.0
1195,0.0
1197,0.0
2,2,12,16, 0,12, 0.00,60.00,Tuesday
7,-1.0
718,19.778636841661385
719,3.1724602193858606
720,14.811084014537974
619,4207.700115158213
633,1345.9700553914422
659,43.96672420984457
661,44.08452921137476
690,141.65039815135069
716,0.0
843,3027.1986705877334
844,3027.1986705877334
907,0.0
908,0.0
971,0.0
972,0.0
1195,0.0
1197,0.0
2,2,12,16, 0,13, 0.00,60.00,Tuesday
7,-1.0
718,19.851681961736418
719,4.3391446158060365
720,14.742366506950466
619,3163.94608674537
633,1037.2429719997428
659,57.31798476852545
661,76.3093029792238
690,111.95303815275763
716,0.0
843,2317.2279769190845
844,2317.2279769190845
907,0.0
908,0.0
971,0.0
972,0.0
1195,0.0
1197,0.0
2,2,12,16, 0,14, 0.00,60.00,Tuesday
7,-1.0
718,19.77316675058189
719,5.883442753708435
720,14.68849507519007
619,2642.7766779401177
633,877.7972540172395
659,48.43649809637724
661,95.4753166047061
690,94.60546090032113
716,0.0
843,1961.7222947519986
844,1961.7222947519986
907,0.0
908,0.0
971,0.0
972,0.0
1195,0.0
1197,0.0
2,2,12,16, 0,15, 0.00,60.00,Tuesday
7,-3.0
718,19.575743187006285
719,4.496504691232706
720,14.640671104744404
619,2580.7038783667663
633,889.8703660955866
659,49.472786967050425
661,92.12541886163577
690,97.3709280920413
716,0.0
843,1938.1361526157016
844,1938.1361526157016
907,0.0
908,0.0
971,0.0
972,0.0
1195,0.0
1197,0.0
2,2,12,16, 0,16, 0.00,60.00,Tuesday
7,-3.3
718,19.77663184866028
719,4.95927009261955
720,14.613008424090582
619,2733.7640232039234
633,940.5431912401949
659,55.75567125072233
661,84.74943434355046
690,103.90735726512244
716,0.0
843,2015.077564329862
844,2015.077564329862
907,0.0
908,0.0
971,0.0
972,0.0
1195,0.0
1197,0.0
2,2,12,16, 0,17, 0.00,60.00,Tuesday
7,-3.3
718,19.757448677579294
719,3.872780088644039
720,14.587653426029947
619,2296.9590415155517
633,802.3863855478567
659,47.37596652359276
661,102.07082404564638
690,88.28951853809738
716,0.0
843,1702.5267761165815
844,1702.5267761165815
907,0.0
908,0.0
971,0.0
972,0.0
1195,0.0
1197,0.0
2,2,12,16, 0,18, 0.00,60.00,Tuesday
7,-3.3
718,19.755211595298988
719,3.2734776703416517
720,14.564044565439254
619,2220.2476826622546
633,775.725591613198
659,39.58979846929262
661,106.26740805984309
690,84.65592210965407
716,0.0
843,1628.6896004627051
844,1628.6896004627051
907,0.0
908,0.0
971,0.0
972,0.0
1195,0.0
1197,0.0
2,2,12,16, 0,19, 0.00,60.00,Tuesday
7,-3.3
718,19.665298054326197
719,2.2701487708175736
720,14.561340820270207
619,3511.4874414823084
633,1190.740323794241
659,60.787269695640404
661,56.08039025616351
690,129.98315164562072
716,85.44000000000005
843,1545.3437059922016
844,1545.3437059922016
907,0.0
908,0.0
971,0.0
972,0.0
1195,0.0
1197,0.0
2,2,12,16, 0,20, 0.00,60.00,Tuesday
7,-3.3
718,19.69541259493306
719,1.8938881598807527
720,14.52688445801357
619,3586.40611984701
633,1211.3840801030726
659,61.93897810991582
661,53.32628798955168
690,132.47158587699593
716,85.44000000000005
843,1542.6594416409498
844,1542.6594416409498
907,0.0
908,0.0
971,0.0
972,0.0
1195,0.0
1197,0.0
2,2,12,16, 0,21, 0.00,60.00,Tuesday
7,-3.3
718,19.69612743737665
719,1.415594418806578
720,14.495758277585333
619,3628.5505023698192
633,1225.3104741660795
659,62.64141003198686
661,51.71817120799589
690,133.92316171208137
716,85.44000000000005
843,1565.8624197919817
844,1565.8624197919817
907,0.0
908,0.0
971,0.0
972,0.0
1195,0.0
1197,0.0
2,2,12,16, 0,22, 0.00,60.00,Tuesday
7,-5.0
718,19.71927037087277
719,0.5019120512934355
720,14.436566354354914
619,2954.073244911526
633,1046.797595771545
659,51.4553268982877
661,71.94038422972572
690,115.45638154704326
716,14.281368312809663
843,1923.943281537975
844,1923.943281537975
907,0.0
908,0.0
971,0.0
972,0.0
1195,0.0
1197,0.0
2,2,12,16, 0,23, 0.00,60.00,Tuesday
7,-5.0
718,18.908437762080176
719,-0.6846285951992376
720,14.376526917152438
619,1825.3548467691658
633,665.2164400783997
659,32.6794756692853
661,118.66884635569255
690,73.32663021060687
716,0.0
843,1249.9125457288992
844,1249.9125457288992
907,0.0
908,0.0
971,0.0
972,0.0
1195,0.0
1197,0.0
2,2,12,16, 0,24, 0.00,60.00,Tuesday
7,-4.4
718,18.690258816828337
719,-0.9633201895878812
720,14.316781915099863
619,2293.5605616257144
633,799.6473219407354
659,37.4253223948235
661,101.51624128632855
690,88.93356436057557
716,0.0
843,1607.281381515093
844,1607.281381515093
907,0.0
908,0.0
971,0.0
972,0.0
1195,0.0
1197,0.0
2,3,12,17, 0, 1, 0.00,60.00,Wednesday
7,-4.4
718,18.584801450339405
719,-0.9796590607010962
720,14.260619211615978
619,2968.5963005691015
633,1013.886924613035
659,53.73535055205706
661,73.61879380657241
690,113.96186426090742
716,0.0
843,2077.6159666009207
844,2077.6159666009207
907,0.0
908,0.0
971,0.0
972,0.0
1195,0.0
1197,0.0
2,3,12,17, 0, 2, 0.00,60.00,Wednesday
7,-5.0
718,18.550764110798635
719,-0.9942213412722946
720,14.19681567912489
619,3609.5896317422357
633,1224.7658302536931
659,61.49227477902137
661,46.83212483494559
690,138.10635226972252
716,0.0
843,2519.846946043621
844,2519.846946043621
907,0.0
908,0.0
971,0.0
972,0.0
1195,0.0
1197,0.0
2,3,12,17, 0, 3, 0.00,60.00,Wednesday
7,-5.0
718,18.539592357229047
719,-1.0352080785216828
720,14.135519519663173
619,4228.561579103871
633,1412.2154045575119
659,64.84312195002269
661,24.2052907508983
690,158.68521377573245
716,0.0
843,2949.1085555796544
844,2949.1085555796544
907,0.0
908,0.0
971,0.0
972,0.0
1195,0.0
1197,0.0
2,3,12,17, 0, 4, 0.00,60.00,Wednesday
7,-5.0
718,18.583970525343062
719,-1.084409715698325
720,14.071002855797385
619,4441.645716319072
633,1474.315194132292
659,55.04793567380272
661,18.410564166659515
690,164.2787498119593
716,0.0
843,3100.5377504938897
844,3100.5377504938897
907,0.0
908,0.0
971,0.0
972,0.0
1195,0.0
1197,0.0
2,3,12,17, 0, 5, 0.00,60.00,Wednesday
7,-5.0
718,18.611386844478965
719,-0.9502367477031332
720,14.007795652519183
619,4460.857736240138
633,1481.9883212344214
659,59.53443225869982
661,16.945407219556618
690,165.4817126463774
716,0.0
843,3100.5025034323244
844,3100.5025034323244
907,0.0
908,0.0
971,0.0
972,0.0
1195,0.0
1197,0.0
2,3,12,17, 0, 6, 0.00,60.00,Wednesday
7,-6.7
718,19.20746518146683
719,-1.1576862031113926
720,13.931283479095297
619,4776.377559683362
633,1610.675687258817
659,54.608174530718266
661,0.0
690,182.6906774608458
716,78.07322713129187
843,4295.458612282235
844,4295.458612282235
907,0.0
908,0.0
971,0.0
972,0.0
1195,2160.9543774165495
1197,2160.9543774165495
2,3,12,17, 0, 7, 0.00,60.00,Wednesday
7,-7.2
718,19.50225328288761
719,-1.6208054800157166
720,13.891608128382806
619,4736.918774772447
633,1638.5041258988995
659,42.47750842965781
661,0.0
690,182.6906774608458
716,85.44000000000005
843,4268.788864388242
844,4268.788864388242
907,0.0
908,0.0
971,0.0
972,0.0
1195,2433.357491428397
1197,2433.357491428397
2,3,12,17, 0, 8, 0.00,60.00,Wednesday
7,-7.0
718,19.62781717525655
719,-1.8001908377152025
720,13.837650780917444
619,4782.708915865193
633,1659.5536657615703
659,35.82318972886456
661,0.0
690,182.6906774608458
716,61.451149758613255
843,4007.785678221575
844,4007.785678221575
907,0.0
908,0.0
971,0.0
972,0.0
1195,1811.4903208975097
1197,1811.4903208975097
2,3,12,17, 0, 9, 0.00,60.00,Wednesday
7,-8.9
718,19.689929941585937
719,-2.482891325109123
720,13.760458577283323
619,4510.958881424266
633,1635.065299290904
659,36.63295021808351
661,0.0
690,182.6906774608458
716,0.0
843,4181.839289197436
844,4181.839289197436
907,0.0
908,0.0
971,0.0
972,0.0
1195,1443.93923200886
1197,1443.93923200886
2,3,12,17, 0,10, 0.00,60.00,Wednesday
7,-8.3
718,19.714879400194764
719,-1.0246820790788778
720,13.70797501229735
619,4608.338954953746
633,1651.3748124852225
659,32.2761584782395
661,0.0
690,182.6906774608458
716,0.0
843,3248.4086917231616
844,3248.4086917231616
907,0.0
908,0.0
971,0.0
972,0.0
1195,295.0653746090011
1197,295.0653746090011
2,3,12,17, 0,11, 0.00,60.00,Wednesday
7,-8.3
718,19.785409671529976
719,0.888511574030184
720,13.63419137752946
619,3625.548875723683
633,1340.0285807915036
659,26.175752375327253
661,37.80131459588121
690,147.1140612773981
716,0.0
843,2404.291192491788
844,2404.291192491788
907,0.0
908,0.0
971,0.0
972,0.0
1195,0.0
1197,0.0
2,3,12,17, 0,12, 0.00,60.00,Wednesday
7,-7.0
718,19.76637348928913
719,2.081569183238389
720,13.593368947596291
619,2871.090583593615
633,1056.261634128761
659,22.67532992900308
661,73.40418259442478
690,114.8374443423143
716,0.0
843,1972.4602894563577
844,1972.4602894563577
907,0.0
908,0.0
971,0.0
972,0.0
1195,0.0
1197,0.0
2,3,12,17, 0,13, 0.00,60.00,Wednesday
7,-5.0
718,19.825803684985427
719,2.726653092283795
720,13.577994582575526
619,2557.9690482515375
633,909.8372652376693
659,10.293905696381339
661,94.16545421603601
690,96.3826282641438
716,0.0
843,1817.9788722354297
844,1817.9788722354297
907,0.0
908,0.0
971,0.0
972,0.0
1195,0.0
1197,0.0
2,3,12,17, 0,14, 0.00,60.00,Wednesday
7,-5.0
718,19.71701953229057
719,2.5799210295215693
720,13.56387101778993
619,1958.8657480539125
633,707.490432710224
659,7.993061149563538
661,117.8050792811485
690,74.85418525340201
716,0.0
843,1402.1972710765895
844,1402.1972710765895
907,0.0
908,0.0
971,0.0
972,0.0
1195,0.0
1197,0.0
2,3,12,17, 0,15, 0.00,60.00,Wednesday
7,-4.4
718,19.730664803378076
719,4.019327526845356
720,13.583185328861976
619,2214.400295163478
633,782.3024009557549
659,0.03926968001162416
661,110.75646664793848
690,81.51877873264594
716,71.39554088475145
843,826.0443610592993
844,826.0443610592993
907,0.0
908,0.0
971,0.0
972,0.0
1195,0.0
1197,0.0
2,3,12,17, 0,16, 0.00,60.00,Wednesday
7,-6.1
718,19.725014297320932
719,3.4851881748399225
720,13.596967362158157
619,1914.4927561950271
633,704.5662155554289
659,3.1688726016131334
661,117.9905411500909
690,74.81132955781807
716,79.58839244955081
843,522.4788806033648
844,522.4788806033648
907,0.0
908,0.0
971,0.0
972,0.0
1195,0.0
1197,0.0
2,3,12,17, 0,17, 0.00,60.00,Wednesday
7,-6.1
718,19.854306020524138
719,1.455887902347905
720,13.601295688180981
619,626.9295813908038
633,237.97762460322983
659,1.07019790618611
661,172.30360377884847
690,25.265428524269925
716,0.0
843,448.17107978037166
844,448.17107978037166
907,0.0
908,0.0
971,0.0
972,0.0
1195,0.0
1197,0.0
2,3,12,17, 0,18, 0.00,60.00,Wednesday
7,-7.2
718,19.816780430770542
719,-0.9354129390421975
720,13.665932552591796
619,1643.7620246541464
633,625.2534872499601
659,6.4571197199862755
661,126.1410053700561
690,67.23627585416739
716,0.0
843,1152.1275781766944
844,1152.1275781766944
907,0.0
908,0.0
971,0.0
972,0.0
1195,0.0
1197,0.0
2,3,12,17, 0,19, 0.00,60.00,Wednesday
7,-8.9
718,19.604555202825694
719,-3.270475281628511
720,13.67470467340621
619,2013.461235718266
633,784.792134926487
659,8.651547861593626
661,105.76606070338615
690,85.71509073378108
716,0.0
843,1343.100919098023
844,1343.100919098023
907,0.0
908,0.0
971,0.0
972,0.0
1195,0.0
1197,0.0
2,3,12,17, 0,20, 0.00,60.00,Wednesday
7,-9.4
718,19.492743744359206
719,-3.17162546485476
720,13.692550014369683
619,3960.43339925782
633,1476.423594125739
659,19.590818039237423
661,20.65208202821891
690,162.9646398864837
716,85.44000000000005
843,1559.7001797572475
844,1559.7001797572475
907,0.0
908,0.0
971,0.0
972,0.0
1195,0.0
1197,0.0
2,3,12,17, 0,21, 0.00,60.00,Wednesday
7,-10.6
718,19.529311359961675
719,-4.650272284694801
720,13.645692709248062
619,4327.701794974891
633,1621.9588918919378
659,24.265461157747843
661,0.0
690,182.6906774608458
716,85.44000000000005
843,2148.414374849366
844,2148.414374849366
907,0.0
908,0.0
971,0.0
972,0.0
1195,475.2071962142386
1197,475.2071962142386
2,3,12,17, 0,22, 0.00,60.00,Wednesday
7,-11.1
718,19.639088834522493
719,-5.448528486310036
720,13.598126257126443
619,4250.916128078929
633,1612.167178842784
659,26.84736964047828
661,0.0
690,182.6906774608458
716,26.477672310323253
843,2681.1039935522494
844,2681.1039935522494
907,0.0
908,0.0
971,0.0
972,0.0
1195,426.25928217810406
1197,426.25928217810406
2,3,12,17, 0,23, 0.00,60.00,Wednesday
7,-11.1
718,19.00207975131286
719,-6.544959446629383
720,13.533642505270942
619,3665.4514712565383
633,1425.0717099881085
659,23.682353122822256
661,23.577851834572794
690,159.94128689552912
716,0.0
843,2191.1252349237748
844,2191.1252349237748
907,0.0
908,0.0
971,0.0
972,0.0
1195,0.0
1197,0.0
2,3,12,17, 0,24, 0.00,60.00,Wednesday
7,-12.2
718,18.708411026556863
719,-6.902935297098814
720,13.427716499095888
619,4083.2744809656897
633,1565.7951928762284
659,38.07081543655125
661,0.0
690,182.6906774608458
716,0.0
843,2822.8864939789837
844,2822.8864939789837
907,0.0
908,0.0
971,0.0
972,0.0
1195,493.7572358552752
1197,493.7572358552752
2,4,12,18, 0, 1, 0.00,60.00,Thursday
7,-12.2
718,18.64174838774056
719,-7.1934406152669474
720,13.338017787673461
619,4063.489571300093
633,1546.6341092436276
659,46.464147644378365
661,0.0
690,182.6906774608458
716,0.0
843,3526.3609483912533
844,3526.3609483912533
907,0.0
908,0.0
971,0.0
972,0.0
1195,1338.8902338514313
1197,1338.8902338514313
2,4,12,18, 0, 2, 0.00,60.00,Thursday
7,-12.2
718,18.618059344281207
719,-6.867829902117202
720,13.246913276732341
619,4041.9182921795223
633,1535.6973139856923
659,53.540901589265836
661,0.0
690,182.6906774608458
716,0.0
843,3964.717031439024
844,3964.717031439024
907,0.0
908,0.0
971,0.0
972,0.0
1195,1895.7587472903242
1197,1895.7587472903242
2,4,12,18, 0, 3, 0.00,60.00,Thursday
7,-12.2
718,18.60931354499012
719,-6.448601003616763
720,13.152220230149508
619,4038.783113199098
633,1533.4304498763888
659,54.71035877192464
661,0.0
690,182.6906774608458
716,0.0
843,4162.63528917576
844,4162.63528917576
907,0.0
908,0.0
971,0.0
972,0.0
1195,2107.579322910774
1197,2107.579322910774
2,4,12,18, 0, 4, 0.00,60.00,Thursday
7,-11.1
718,18.60608366797508
719,-6.5131025445247195
720,13.06246571697913
619,4190.034255778976
633,1551.952572125057
659,52.11565160319239
661,0.0
690,182.6906774608458
716,0.0
843,4743.796478154129
844,4743.796478154129
907,0.0
908,0.0
971,0.0
972,0.0
1195,2634.375051274033
1197,2634.375051274033
2,4,12,18, 0, 5, 0.00,60.00,Thursday
7,-11.1
718,18.604710615290717
719,-6.35845765952954
720,12.964939989951281
619,4163.576891662736
633,1541.8576073278045
659,59.88150244179002
661,0.0
690,182.6906774608458
716,0.0
843,4790.16375136711
844,4790.16375136711
907,0.0
908,0.0
971,0.0
972,0.0
1195,2712.629862255683
1197,2712.629862255683
2,4,12,18, 0, 6, 0.00,60.00,Thursday
7,-11.7
718,19.353007156114877
719,-6.064441410257219
720,12.865451148326903
619,4094.069465415563
633,1536.1738419170852
659,57.56678001885066
661,0.0
690,182.6906774608458
716,0.0
843,5734.015507878958
844,5734.015507878958
907,0.0
908,0.0
971,0.0
972,0.0
1195,3898.4527032223386
1197,3898.4527032223386
2,4,12,18, 0, 7, 0.00,60.00,Thursday
7,-11.7
718,19.536791263848045
719,-5.7356132782013285
720,12.805764934189773
619,4074.341339392256
633,1557.3807628889517
659,57.57159957947729
661,0.0
690,182.6906774608458
716,85.44000000000005
843,5817.2729619362235
844,5817.2729619362235
907,0.0
908,0.0
971,0.0
972,0.0
1195,5157.880556837584
1197,5157.880556837584
2,4,12,18, 0, 8, 0.00,60.00,Thursday
7,-10.0
718,19.637096030683423
719,-5.349085468554288
720,12.733493297669332
619,4423.462967183174
633,1636.21187819495
659,20.152955595474726
661,0.0
690,182.6906774608458
716,85.44000000000005
843,5029.95859560278
844,5029.95859560278
907,0.0
908,0.0
971,0.0
972,0.0
1195,3980.0692007277744
1197,3980.0692007277744
2,4,12,18, 0, 9, 0.00,60.00,Thursday
7,-7.8
718,19.683651665703806
719,-4.857944804337918
720,12.666601769631216
619,4742.902058011253
633,1677.10867648693
659,15.921898554650136
661,0.0
690,182.6906774608458
716,74.6653694681114
843,4829.048771977954
844,4829.048771977954
907,0.0
908,0.0
971,0.0
972,0.0
1195,3140.7259963423185
1197,3140.7259963423185
2,4,12,18, 0,10, 0.00,60.00,Thursday
7,-6.7
718,19.718727916778136
719,-2.345487162309242
720,12.596604008305437
619,4911.980702682374
633,1698.822373199669
659,12.7470526188025
661,0.0
690,182.6906774608458
716,0.0
843,3477.7830172543836
844,3477.7830172543836
907,0.0
908,0.0
971,0.0
972,0.0
1195,425.1387331554756
1197,425.1387331554756
2,4,12,18, 0,11, 0.00,60.00,Thursday
7,-6.7
718,19.733865799857046
719,-0.7587181625372756
720,12.525969986520622
619,4690.256986484833
633,1635.008393637315
659,12.260378784207404
661,7.635864527259106
690,175.30109931971688
716,0.0
843,3084.8879645639117
844,3084.8879645639117
907,0.0
908,0.0
971,0.0
972,0.0
1195,0.0
1197,0.0
2,4,12,18, 0,12, 0.00,60.00,Thursday
7,-5.0
718,19.787145002238386
719,1.376537812501855