Program Version,EnergyPlus, Version 22.2.0-c249759bad, YMD=2023.09.01 20:44
1,5,Environment Title[],Latitude[deg],Longitude[deg],Time Zone[],Elevation[m]
2,8,Day of Simulation[],Month[],Day of Month[],DST Indicator[1=yes 0=no],Hour[],StartMinute[],EndMinute[],DayType
3,5,Cumulative Day of Simulation[],Month[],Day of Month[],DST Indicator[1=yes 0=no],DayType  ! When Daily Report Variables Requested
4,2,Cumulative Days of Simulation[],Month[]  ! When Monthly Report Variables Requested
5,1,Cumulative Days of Simulation[] ! When Run Period Report Variables Requested
6,1,Calendar Year of Simulation[] ! When Annual Report Variables Requested
581,11,LIVING,AFN Zone Infiltration Air Change Rate [ach] !RunPeriod [Value,Min,Month,Day,Hour,Minute,Max,Month,Day,Hour,Minute]
582,11,ATTIC,AFN Zone Infiltration Air Change Rate [ach] !RunPeriod [Value,Min,Month,Day,Hour,Minute,Max,Month,Day,Hour,Minute]
583,11,CRAWLSPACE,AFN Zone Infiltration Air Change Rate [ach] !RunPeriod [Value,Min,Month,Day,Hour,Minute,Max,Month,Day,Hour,Minute]
1038,11,Facility,Facility Heating Setpoint Not Met Time [hr] !RunPeriod [Value,Min,Month,Day,Hour,Minute,Max,Month,Day,Hour,Minute]
1039,11,Facility,Facility Cooling Setpoint Not Met Time [hr] !RunPeriod [Value,Min,Month,Day,Hour,Minute,Max,Month,Day,Hour,Minute]
1115,11,DX_HEATING_COIL,Heating Coil Heating Energy [J] !RunPeriod [Value,Min,Month,Day,Hour,Minute,Max,Month,Day,Hour,Minute]
1128,11,DX_HEATING_COIL,Heating Coil Electricity Energy [J] !RunPeriod [Value,Min,Month,Day,Hour,Minute,Max,Month,Day,Hour,Minute]
1153,11,DX_HEATING_COIL,Heating Coil Defrost Electricity Energy [J] !RunPeriod [Value,Min,Month,Day,Hour,Minute,Max,Month,Day,Hour,Minute]
1154,11,DX_HEATING_COIL,Heating Coil Crankcase Heater Electricity Energy [J] !RunPeriod [Value,Min,Month,Day,Hour,Minute,Max,Month,Day,Hour,Minute]
1155,11,HEATING_RESISTANCE_BACKUP,Heating Coil Heating Energy [J] !RunPeriod [Value,Min,Month,Day,Hour,Minute,Max,Month,Day,Hour,Minute]
1156,11,HEATING_RESISTANCE_BACKUP,Heating Coil Electricity Energy [J] !RunPeriod [Value,Min,Month,Day,Hour,Minute,Max,Month,Day,Hour,Minute]
1292,11,WATER HEATER,Water Heater Heat Loss Energy [J] !RunPeriod [Value,Min,Month,Day,Hour,Minute,Max,Month,Day,Hour,Minute]
1306,11,WATER HEATER,Water Heater Heating Energy [J] !RunPeriod [Value,Min,Month,Day,Hour,Minute,Max,Month,Day,Hour,Minute]
1307,11,WATER HEATER,Water Heater Unmet Demand Heat Transfer Energy [J] !RunPeriod [Value,Min,Month,Day,Hour,Minute,Max,Month,Day,Hour,Minute]
1308,11,WATER HEATER,Water Heater Electricity Energy [J] !RunPeriod [Value,Min,Month,Day,Hour,Minute,Max,Month,Day,Hour,Minute]
13,11,Electricity:Facility [J] !RunPeriod [Value,Min,Month,Day,Hour,Minute,Max,Month,Day,Hour,Minute]
1134,11,Heating:Electricity [J] !RunPeriod [Value,Min,Month,Day,Hour,Minute,Max,Month,Day,Hour,Minute]
1096,11,Cooling:Electricity [J] !RunPeriod [Value,Min,Month,Day,Hour,Minute,Max,Month,Day,Hour,Minute]
562,11,Fans:Electricity [J] !RunPeriod [Value,Min,Month,Day,Hour,Minute,Max,Month,Day,Hour,Minute]
1379,11,Pumps:Electricity [J] !RunPeriod [Value,Min,Month,Day,Hour,Minute,Max,Month,Day,Hour,Minute]
1326,11,WaterSystems:Electricity [J] !RunPeriod [Value,Min,Month,Day,Hour,Minute,Max,Month,Day,Hour,Minute]
61,11,InteriorLights:Electricity [J] !RunPeriod [Value,Min,Month,Day,Hour,Minute,Max,Month,Day,Hour,Minute]
1046,11,ExteriorLights:Electricity [J] !RunPeriod [Value,Min,Month,Day,Hour,Minute,Max,Month,Day,Hour,Minute]
134,11,InteriorEquipment:Electricity [J] !RunPeriod [Value,Min,Month,Day,Hour,Minute,Max,Month,Day,Hour,Minute]
170,11,gas_dryer:InteriorEquipment:Electricity [J] !RunPeriod [Value,Min,Month,Day,Hour,Minute,Max,Month,Day,Hour,Minute]
207,11,clotheswasher:InteriorEquipment:Electricity [J] !RunPeriod [Value,Min,Month,Day,Hour,Minute,Max,Month,Day,Hour,Minute]
244,11,dishwasher:InteriorEquipment:Electricity [J] !RunPeriod [Value,Min,Month,Day,Hour,Minute,Max,Month,Day,Hour,Minute]
281,11,refrigerator:InteriorEquipment:Electricity [J] !RunPeriod [Value,Min,Month,Day,Hour,Minute,Max,Month,Day,Hour,Minute]
318,11,electric_mels:InteriorEquipment:Electricity [J] !RunPeriod [Value,Min,Month,Day,Hour,Minute,Max,Month,Day,Hour,Minute]
355,11,NaturalGas:Facility [J] !RunPeriod [Value,Min,Month,Day,Hour,Minute,Max,Month,Day,Hour,Minute]
403,11,InteriorEquipment:NaturalGas [J] !RunPeriod [Value,Min,Month,Day,Hour,Minute,Max,Month,Day,Hour,Minute]
476,11,gas_dryer:InteriorEquipment:NaturalGas [J] !RunPeriod [Value,Min,Month,Day,Hour,Minute,Max,Month,Day,Hour,Minute]
513,11,gas_mels:InteriorEquipment:NaturalGas [J] !RunPeriod [Value,Min,Month,Day,Hour,Minute,Max,Month,Day,Hour,Minute]
End of Data Dictionary
1,EXTREME_WINTER,  41.20, -96.11,  -6.00, 320.00
5,7
1038,4.0,0.0,12,15, 1,15,0.25,12,19, 6,15
1039,0.0,0.0,12,15, 1,15,0.0,12,15, 1,15
581,0.4055728635060549,0.18336515183315089,12,21,17,60,0.7515489275423461,12,18,14,60
582,3.0553161930266284,0.0,12,15, 1,15,14.686619247927313,12,15,13,52
583,0.06358004859717215,0.0001981607899234297,12,21,20,45,0.08494512815925236,12,18,14,52
1115,1889833883.3731089,0.0,12,15,23, 3,4135269.9123640107,12,21, 6,30
1128,687359183.8960077,0.0,12,15,23, 3,1319166.535541678,12,17, 6,45
1153,8425979.319926772,0.0,12,15,23, 3,75481.98949760273,12,17,16,60
1154,20941928.693544116,0.0,12,15, 1,15,180000.0,12,20,15,15
1155,1048822698.4914739,0.0,12,15,11, 7,6168498.82353886,12,19, 5,60
1156,1048822698.4914739,0.0,12,15,11, 7,6168498.82353886,12,19, 5,60
1292,-25266444.100189243,-39781.217309278276,12,19, 6,15,-5939.550486731687,12,21,18,35
1306,261186028.950102,0.0,12,15, 1,15,4050000.0,12,15, 8,45
1307,85541658.65356025,0.0,12,15, 1,15,13661197.822948761,12,15, 8,30
1308,261186028.950102,0.0,12,15, 1,15,4050000.0,12,15, 8,45
13,2476131600.2174573,458150.8545527997,12,21,15,15,12098116.959915176,12,19, 8,60
61,301924526.02383536,88139.10953165221,12,15, 1,15,1282023.4113694867,12,15,20,15
134,70666020.44019976,63564.01800854099,12,15, 4,15,156554.22484006523,12,20,20,15
170,5241013.419656067,348.4159749238097,12,15, 4,15,17476.39704006126,12,20,12,15
207,6509451.13922267,815.2532113832032,12,15, 3,15,22990.642799023623,12,20,10,15
244,12749673.399825225,1521.856143006317,12,15, 4,15,53038.631142310165,12,20,20,15
281,46165882.481495745,59938.60262432081,12,15, 5,15,81951.81706819107,12,15,19,15
318,0.0,0.0,12,15, 1,15,0.0,12,15, 1,15
355,197687796.27748066,18561.32405820678,12,15, 4,15,724774.895203776,12,20,18,15
403,197687796.27748066,18561.32405820678,12,15, 4,15,724774.895203776,12,20,18,15
476,106772067.24485716,7098.072629279515,12,15, 4,15,356036.3026282215,12,20,12,15
513,0.0,0.0,12,15, 1,15,0.0,12,15, 1,15
562,76805234.40236938,0.0,12,20,15,15,138369.0826389734,12,20,11,15
1046,0.0,0.0,12,15, 1,15,0.0,12,15, 1,15
1096,0.0,0.0,12,15, 1,15,0.0,12,15, 1,15
1134,1765549790.4009507,180000.0,12,20,15,15,7270321.658340057,12,19, 9,45
1326,261186028.95010212,0.0,12,15, 1,15,4050000.0,12,15, 8,45
1379,0.0,0.0,12,15, 1,15,0.0,12,15, 1,15
1,EXTREME_SUMMER,  41.20, -96.11,  -6.00, 320.00
5,7
1038,0.0,0.0, 7,13, 1,15,0.0, 7,13, 1,15
1039,39.5,0.0, 7,13, 1,15,0.25, 7,13,16,45
581,0.1284257370174351,0.0, 7,14,23, 3,0.4925354762169266, 7,13,16,50
582,3.009974141490731,0.0, 7,19,20,33,10.276502226300657, 7,13,16,50
583,0.0423444008405177,0.0, 7,14,23, 3,0.07440438539815389, 7,13,16,50
1115,0.0,0.0, 7,13, 1,15,0.0, 7,13, 1,15
1128,0.0,0.0, 7,13, 1,15,0.0, 7,13, 1,15
1153,0.0,0.0, 7,13, 1,15,0.0, 7,13, 1,15
1154,0.0,0.0, 7,13, 1,15,0.0, 7,13, 1,15
1155,0.0,0.0, 7,13, 1,15,0.0, 7,13, 1,15
1156,0.0,0.0, 7,13, 1,15,0.0, 7,13, 1,15
1292,-21860762.361369696,-34323.97414983018, 7,15,13,30,-2784.2073914527123, 7,17, 8,46
1306,202515857.2439496,0.0, 7,13, 1,15,4050000.0, 7,13, 8,45
1307,51186107.39498169,0.0, 7,13, 1,15,10443080.838287702, 7,13, 8,30
1308,202515857.2439496,0.0, 7,13, 1,15,4050000.0, 7,13, 8,45
13,1169295469.0987058,196844.35700678287, 7,15, 4,60,6473143.0142073585, 7,13,18,30
61,301924526.02383536,88139.10953165221, 7,13, 1,15,1282023.4113694867, 7,13,20,15
134,70666020.44019976,63564.01800854099, 7,13, 4,15,156554.22484006523, 7,18,20,15
170,5241013.419656067,348.4159749238097, 7,13, 4,15,17476.39704006126, 7,18,12,15
207,6509451.13922267,815.2532113832032, 7,13, 3,15,22990.642799023623, 7,18,10,15
244,12749673.399825225,1521.856143006317, 7,13, 4,15,53038.631142310165, 7,18,20,15
281,46165882.481495745,59938.60262432081, 7,13, 5,15,81951.81706819107, 7,13,19,15
318,0.0,0.0, 7,13, 1,15,0.0, 7,13, 1,15
355,197687796.27748066,18561.32405820678, 7,13, 4,15,724774.895203776, 7,18,18,15
403,197687796.27748066,18561.32405820678, 7,13, 4,15,724774.895203776, 7,18,18,15
476,106772067.24485716,7098.072629279515, 7,13, 4,15,356036.3026282215, 7,18,12,15
513,0.0,0.0, 7,13, 1,15,0.0, 7,13, 1,15
562,56778143.70571523,0.0, 7,15, 6,30,138369.0826389734, 7,19,14,30
1046,0.0,0.0, 7,13, 1,15,0.0, 7,13, 1,15
1096,537410921.6850057,0.0, 7,15, 6,30,1455737.286865544, 7,18,16,60
1134,0.0,0.0, 7,13, 1,15,0.0, 7,13, 1,15
1326,202515857.24394953,0.0, 7,13, 1,15,4050000.0, 7,13, 8,45
1379,0.0,0.0, 7,13, 1,15,0.0, 7,13, 1,15
1,ANNUAL,  41.20, -96.11,  -6.00, 320.00
5,365
1038,23.25,0.0, 1, 1, 1,15,0.25, 1,10, 6,15
1039,459.5,0.0, 1, 1, 1,15,0.25, 3,19,14,60
581,0.2451747422624199,0.0, 5,20,23, 3,1.127617151069268, 3,23,15,52
582,3.1494654366491823,0.0, 1, 1, 3,45,23.191096391587894, 3,23,15,52
583,0.032381581898088006,0.0, 5,20,23, 3,0.08456194260585526, 2, 1,22,60
1115,27067111270.337482,0.0, 1, 1,14, 7,4298801.967289242, 4, 4, 6,45
1128,9064856218.770134,0.0, 1, 1,14, 7,1345388.4338545895, 4,14, 8,60
1153,293798938.8669375,0.0, 1, 1,14, 7,119301.5332029947, 3, 8, 8,45
1154,1576011372.7521904,0.0, 1, 1, 3,45,180000.0, 1, 1,15,15
1155,7091731443.694301,0.0, 1, 1, 1,15,6168498.82353886, 1,10, 6,30
1156,7091731443.694301,0.0, 1, 1, 1,15,6168498.82353886, 1,10, 6,30
1292,-1220866406.1799905,-39834.864859592235, 1, 1, 1,15,-1890.360446946412, 5,29, 8,31
1306,12421996283.781605,0.0, 1, 1, 1,15,4050000.0, 1, 2, 8,45
1307,3736479162.618741,0.0, 1, 1, 1,15,15007000.0499118, 2,13, 8,30
1308,12421996283.781605,0.0, 1, 1, 1,15,4050000.0, 1, 2, 8,45
13,61514940327.53133,151703.1275401932, 3,17, 4,15,12213337.065325543, 2, 2, 7,15
61,15743207428.383959,88139.10953165221, 1, 1, 1,15,1282023.4113694867, 1, 1,20,15
134,3685071073.4325233,63564.01800854099, 1, 2, 4,15,156554.22484006523, 1, 1,20,15
170,273393721.45532674,348.4159749238097, 1, 2, 4,15,17476.39704006126, 1, 1,12,15
207,339560869.0695816,815.2532113832032, 1, 2, 3,15,22990.642799023623, 1, 1,10,15
244,664895467.8009144,1521.856143006317, 1, 2, 4,15,53038.631142310165, 1, 1,20,15
281,2407221015.106824,59938.60262432081, 1, 1, 5,15,81951.81706819107, 1, 1,19,15
318,0.0,0.0, 1, 1, 1,15,0.0, 1, 1, 1,15
355,10310294493.051695,18561.32405820678, 1, 2, 4,15,724774.895203776, 1, 1,18,15
403,10310294493.051695,18561.32405820678, 1, 2, 4,15,724774.895203776, 1, 1,18,15
476,5569688622.066177,7098.072629279515, 1, 2, 4,15,356036.3026282215, 1, 1,12,15
513,0.0,0.0, 1, 1, 1,15,0.0, 1, 1, 1,15
562,2092101138.4177964,0.0, 1, 1,14,15,138369.0826389734, 1,10,10,60
1046,0.0,0.0, 1, 1, 1,15,0.0, 1, 1, 1,15
1096,9546166429.430292,0.0, 1, 1, 1,15,1592791.2229987998, 8, 1,16,60
1134,18026397974.083492,0.0, 1,29,15,45,7341141.83698735, 2, 2, 4,60
1326,12421996283.78159,0.0, 1, 1, 1,15,4050000.0000000014, 6, 9, 8,60
1379,0.0,0.0, 1, 1, 1,15,0.0, 1, 1, 1,15
End of Data
 Number of Records Written=          99
