Program Version,EnergyPlus, Version 22.2.0-c249759bad, YMD=2023.09.01 14:30
1,5,Environment Title[],Latitude[deg],Longitude[deg],Time Zone[],Elevation[m]
2,8,Day of Simulation[],Month[],Day of Month[],DST Indicator[1=yes 0=no],Hour[],StartMinute[],EndMinute[],DayType
3,5,Cumulative Day of Simulation[],Month[],Day of Month[],DST Indicator[1=yes 0=no],DayType  ! When Daily Report Variables Requested
4,2,Cumulative Days of Simulation[],Month[]  ! When Monthly Report Variables Requested
5,1,Cumulative Days of Simulation[] ! When Run Period Report Variables Requested
6,1,Calendar Year of Simulation[] ! When Annual Report Variables Requested
7,1,Environment,Site Outdoor Air Drybulb Temperature [C] !Hourly
619,1,DX_HEATING_COIL,Heating Coil Heating Rate [W] !Hourly
633,1,DX_HEATING_COIL,Heating Coil Electricity Rate [W] !Hourly
659,1,DX_HEATING_COIL,Heating Coil Defrost Electricity Rate [W] !Hourly
661,1,DX_HEATING_COIL,Heating Coil Crankcase Heater Electricity Rate [W] !Hourly
690,1,FAN,Fan Electricity Rate [W] !Hourly
716,1,HEAT PUMP WATER HEATER FAN,Fan Electricity Rate [W] !Hourly
718,1,LIVING,Zone Mean Air Temperature [C] !Hourly
719,1,ATTIC,Zone Mean Air Temperature [C] !Hourly
720,1,CRAWLSPACE,Zone Mean Air Temperature [C] !Hourly
843,1,LIVING,Zone Predicted Sensible Load to Heating Setpoint Heat Transfer Rate [W] !Hourly
844,1,LIVING,Zone System Predicted Sensible Load to Heating Setpoint Heat Transfer Rate [W] !Hourly
907,1,ATTIC,Zone Predicted Sensible Load to Heating Setpoint Heat Transfer Rate [W] !Hourly
908,1,ATTIC,Zone System Predicted Sensible Load to Heating Setpoint Heat Transfer Rate [W] !Hourly
971,1,CRAWLSPACE,Zone Predicted Sensible Load to Heating Setpoint Heat Transfer Rate [W] !Hourly
972,1,CRAWLSPACE,Zone System Predicted Sensible Load to Heating Setpoint Heat Transfer Rate [W] !Hourly
1195,1,HEATING_RESISTANCE_BACKUP,Heating Coil Heating Rate [W] !Hourly
1197,1,HEATING_RESISTANCE_BACKUP,Heating Coil Electricity Rate [W] !Hourly
End of Data Dictionary
1,EXTREME_WINTER,  40.00, -82.88,  -5.00, 254.00
2,1, 1,20, 0, 1, 0.00,60.00,Monday
7,-12.2
718,18.636911654001814
719,-7.817265279302986
720,17.295912708662147
619,3142.190927002455
633,1200.1644211049318
659,1.4680176191610745
661,0.0
690,136.4482910064287
716,0.0
843,3665.481013993034
844,3665.481013993034
907,0.0
908,0.0
971,0.0
972,0.0
1195,2427.6230996908316
1197,2427.6230996908316
2,1, 1,20, 0, 2, 0.00,60.00,Monday
7,-13.0
718,18.60808304209556
719,-7.982417355842948
720,16.766724747174173
619,3068.928051887969
633,1191.4859021384518
659,0.06572980074697946
661,0.0
690,136.4482910064287
716,0.0
843,4395.589020395109
844,4395.589020395109
907,0.0
908,0.0
971,0.0
972,0.0
1195,3434.3723609087783
1197,3434.3723609087783
2,1, 1,20, 0, 3, 0.00,60.00,Monday
7,-13.0
718,18.605369246668193
719,-8.233816525531251
720,16.513015278821715
619,3067.347355275106
633,1189.1756140459536
659,0.9197291396445474
661,0.0
690,136.4482910064287
716,0.0
843,4561.911252611402
844,4561.911252611402
907,0.0
908,0.0
971,0.0
972,0.0
1195,3671.6687661377373
1197,3671.6687661377373
2,1, 1,20, 0, 4, 0.00,60.00,Monday
7,-13.9
718,18.59822921924986
719,-9.176408920960668
720,16.21568975946775
619,2982.7689586766614
633,1179.50103132448
659,0.06572980074697946
661,0.0
690,136.4482910064287
716,0.0
843,4909.758044478665
844,4909.758044478665
907,0.0
908,0.0
971,0.0
972,0.0
1195,4182.613333469303
1197,4182.613333469303
2,1, 1,20, 0, 5, 0.00,60.00,Monday
7,-14.4
718,18.597375867906532
719,-10.232351464969067
720,15.955513285667937
619,2935.1864211274656
633,1173.1417739249412
659,0.06572980074697946
661,0.0
690,136.4482910064287
716,0.0
843,5571.0387693627945
844,5571.0387693627945
907,0.0
908,0.0
971,0.0
972,0.0
1195,5114.737778077937
1197,5114.737778077937
2,1, 1,20, 0, 6, 0.00,60.00,Monday
7,-14.4
718,19.39728329187343
719,-9.717839859614013
720,15.718849715841966
619,2935.4906021181223
633,1172.8296954730674
659,0.06572980074697946
661,0.0
690,136.4482910064287
716,0.0
843,6315.349887201661
844,6315.349887201661
907,0.0
908,0.0
971,0.0
972,0.0
1195,6050.97574384962
1197,6050.97574384962
2,1, 1,20, 0, 7, 0.00,60.00,Monday
7,-14.4
718,19.197368916605434
719,-9.866711669142932
720,15.51962750019404
619,2919.49966327368
633,1189.172886416858
659,0.06572980074697946
661,0.0
690,136.4482910064287
716,85.44000000000004
843,6119.858471473894
844,6119.858471473894
907,0.0
908,0.0
971,0.0
972,0.0
1195,6066.94199778487
1197,6066.94199778487
2,1, 1,20, 0, 8, 0.00,60.00,Monday
7,-14.4
718,19.291933807713914
719,-9.683585401759194
720,15.289989308682646
619,2923.8127823905484
633,1184.777544641609
659,0.06572980074697946
661,0.0
690,136.4482910064287
716,85.44000000000004
843,5738.401168734044
844,5738.401168734044
907,0.0
908,0.0
971,0.0
972,0.0
1195,6066.94199778487
1197,6066.94199778487
2,1, 1,20, 0, 9, 0.00,60.00,Monday
7,-13.3
718,19.5940283381605
719,-8.578564038000355
720,15.099571320996262
619,3028.44442564991
633,1199.629500413409
659,0.06572980074697946
661,0.0
690,136.4482910064287
716,18.212190627397533
843,5065.365512838962
844,5065.365512838962
907,0.0
908,0.0
971,0.0
972,0.0
1195,4733.34802552998
1197,4733.34802552998
2,1, 1,20, 0,10, 0.00,60.00,Monday
7,-12.2
718,19.684830139552528
719,-6.866428956852119
720,14.926961646949318
619,3130.9140235842033
633,1218.8905294424333
659,0.06572980074697946
661,0.0
690,136.4482910064287
716,0.0
843,3966.8736306830197
844,3966.8736306830197
907,0.0
908,0.0
971,0.0
972,0.0
1195,3035.4887312722494
1197,3035.4887312722494
2,1, 1,20, 0,11, 0.00,60.00,Monday
7,-10.6
718,19.7190227146254
719,-4.153360971402483
720,14.778045868754594
619,3290.906345629476
633,1239.2089341488327
659,0.06572980074697946
661,0.0
690,136.4482910064287
716,0.0
843,2824.9972575103147
844,2824.9972575103147
907,0.0
908,0.0
971,0.0
972,0.0
1195,1428.4953570032062
1197,1428.4953570032062
2,1, 1,20, 0,12, 0.00,60.00,Monday
7,-10.0
718,19.718137445772175
719,-3.0754619876655354
720,14.652369609607424
619,3352.2221612043054
633,1246.597839374046
659,0.06572980074697946
661,0.0
690,136.4482910064287
716,0.0
843,2827.9487611411296
844,2827.9487611411296
907,0.0
908,0.0
971,0.0
972,0.0
1195,1221.4369251951994
1197,1221.4369251951994
2,1, 1,20, 0,13, 0.00,60.00,Monday
7,-10.0
718,19.722936348598097
719,-1.8004111945422787
720,14.559438085361146
619,3352.397604995551
633,1246.4047145323782
659,0.06572980074697946
661,0.0
690,136.4482910064287
716,0.0
843,2516.9300604983946
844,2516.9300604983946
907,0.0
908,0.0
971,0.0
972,0.0
1195,796.5914932648423
1197,796.5914932648423
2,1, 1,20, 0,14, 0.00,60.00,Monday
7,-8.3
718,19.72186980949833
719,-0.05367461420633861
720,14.504080750230688
619,3531.1292611170766
633,1265.4692708751027
659,0.06572980074697946
661,0.0
690,136.4482910064287
716,80.6875988406829
843,1633.1306876094513
844,1633.1306876094513
907,0.0
908,0.0
971,0.0
972,0.0
1195,474.56180584688855
1197,474.56180584688855
2,1, 1,20, 0,15, 0.00,60.00,Monday
7,-7.8
718,19.805614837550028
719,0.036642694430473924
720,14.434646248370676
619,2424.9304112931536
633,891.7070970250028
659,0.046107532860960414
661,59.70584928913165
690,95.71276005921038
716,0.0
843,1457.192655543864
844,1457.192655543864
907,0.0
908,0.0
971,0.0
972,0.0
1195,0.0
1197,0.0
2,1, 1,20, 0,16, 0.00,60.00,Monday
7,-8.3
718,19.853716468317412
719,-1.9492839672518802
720,14.384569445870703
619,1445.0366602168076
633,555.1936793250734
659,0.028784473747663655
661,112.41575839103265
690,59.75246990180113
716,0.0
843,861.494316159864
844,861.494316159864
907,0.0
908,0.0
971,0.0
972,0.0
1195,0.0
1197,0.0
2,1, 1,20, 0,17, 0.00,60.00,Monday
7,-8.9
718,19.81794340327024
719,-3.4553211415045926
720,14.35836997333454
619,1126.014884330184
633,443.1762447084654
659,0.02307794709153052
661,129.77934869948302
690,47.90648029204753
716,0.0
843,643.1975371919816
844,643.1975371919816
907,0.0
908,0.0
971,0.0
972,0.0
1195,0.0
1197,0.0
2,1, 1,20, 0,18, 0.00,60.00,Monday
7,-9.4
718,19.528357989534783
719,-4.599660266694926
720,14.377118742792293
619,2906.535792421397
633,1086.7355220364839
659,0.05690573803175762
661,26.849503923461484
690,118.12797159991818
716,0.0
843,1642.6694075229407
844,1642.6694075229407
907,0.0
908,0.0
971,0.0
972,0.0
1195,0.0
1197,0.0
2,1, 1,20, 0,19, 0.00,60.00,Monday
7,-9.4
718,19.58044271237331
719,-5.285093132440724
720,14.334630974161406
619,3419.2028848295217
633,1248.3734518680221
659,0.06572980074697946
661,0.0
690,136.4482910064287
716,85.44000000000004
843,2147.585660521714
844,2147.585660521714
907,0.0
908,0.0
971,0.0
972,0.0
1195,1485.4553768633732
1197,1485.4553768633732
2,1, 1,20, 0,20, 0.00,60.00,Monday
7,-10.0
718,19.645862196238923
719,-5.606670407109156
720,14.28194965721387
619,3355.655421192933
633,1242.8171396201994
659,0.06572980074697946
661,0.0
690,136.4482910064287
716,85.44000000000004
843,2282.740098927128
844,2282.740098927128
907,0.0
908,0.0
971,0.0
972,0.0
1195,1785.0848463974337
1197,1785.0848463974337
2,1, 1,20, 0,21, 0.00,60.00,Monday
7,-10.6
718,19.676281590965445
719,-5.764770969674814
720,14.204833366188232
619,3292.5087401334317
633,1237.4608370854476
659,0.06572980074697946
661,0.0
690,136.4482910064287
716,62.68544386767841
843,2608.967370815515
844,2608.967370815515
907,0.0
908,0.0
971,0.0
972,0.0
1195,1934.4694364724562
1197,1934.4694364724562
2,1, 1,20, 0,22, 0.00,60.00,Monday
7,-11.1
718,19.704173588117836
719,-6.002077070869316
720,14.111427576952247
619,3240.936941906556
633,1232.3322482760227
659,0.06572980074697946
661,0.0
690,136.4482910064287
716,0.0
843,3000.4313580107755
844,3000.4313580107755
907,0.0
908,0.0
971,0.0
972,0.0
1195,1635.8821091753332
1197,1635.8821091753332
2,1, 1,20, 0,23, 0.00,60.00,Monday
7,-10.6
718,18.947200176935002
719,-6.354393852582919
720,14.01362373220433
619,3291.495925759542
633,1238.5658325866268
659,0.06572980074697946
661,0.0
690,136.4482910064287
716,0.0
843,2388.6001775146906
844,2388.6001775146906
907,0.0
908,0.0
971,0.0
972,0.0
1195,874.9677358545057
1197,874.9677358545057
2,1, 1,20, 0,24, 0.00,60.00,Monday
7,-11.1
718,18.713308336647135
719,-6.2670791074336485
720,13.866800720139207
619,3256.2980971794987
633,1215.671619752689
659,0.06572980074697946
661,0.0
690,136.4482910064287
716,0.0
843,2878.699603766532
844,2878.699603766532
907,0.0
908,0.0
971,0.0
972,0.0
1195,1451.4516815392249
1197,1451.4516815392249
2,2, 1,21, 0, 1, 0.00,60.00,Tuesday
7,-11.1
718,18.636806134214524
719,-6.990605999798737
720,13.746344570410736
619,3261.2939877211725
633,1210.2377367484241
659,0.06572980074697946
661,0.0
690,136.4482910064287
716,0.0
843,3435.659667062837
844,3435.659667062837
907,0.0
908,0.0
971,0.0
972,0.0
1195,2102.110809060053
1197,2102.110809060053
2,2, 1,21, 0, 2, 0.00,60.00,Tuesday
7,-12.2
718,18.60811423505561
719,-7.009919032857047
720,13.612170398396616
619,3139.04464849894
633,1191.1630715911303
659,4.042095444254056
661,0.0
690,136.4482910064287
716,0.0
843,4173.9961126895105
844,4173.9961126895105
907,0.0
908,0.0
971,0.0
972,0.0
1195,3142.068631222532
1197,3142.068631222532
2,2, 1,21, 0, 3, 0.00,60.00,Tuesday
7,-12.2
718,18.60568237315866
719,-6.859310569903594
720,13.490572727520538
619,3148.3904401176646
633,1193.6351649877142
659,1.4476703983079993
661,0.0
690,136.4482910064287
716,0.0
843,4356.067230655171
844,4356.067230655171
907,0.0
908,0.0
971,0.0
972,0.0
1195,3366.8643988630565
1197,3366.8643988630565
2,2, 1,21, 0, 4, 0.00,60.00,Tuesday
7,-11.7
718,18.601793479531494
719,-6.763164171662023
720,13.371050493390193
619,3197.328731967907
633,1198.505762784656
659,1.8238278642799177
661,0.0
690,136.4482910064287
716,0.0
843,4337.795594416873
844,4337.795594416873
907,0.0
908,0.0
971,0.0
972,0.0
1195,3273.6170370455848
1197,3273.6170370455848
2,2, 1,21, 0, 5, 0.00,60.00,Tuesday
7,-11.7
718,18.604163936353213
719,-6.66577322619195
720,13.24856782396524
619,3179.3428740452027
633,1191.4360695772991
659,7.227392416534245
661,0.0
690,136.4482910064287
716,0.0
843,4478.245576500831
844,4478.245576500831
907,0.0
908,0.0
971,0.0
972,0.0
1195,3474.4954230671874
1197,3474.4954230671874
2,2, 1,21, 0, 6, 0.00,60.00,Tuesday
7,-10.6
718,19.39933418802961
719,-5.5518148403136305
720,13.138117924031304
619,3312.9998776122534
633,1211.56161222463
659,0.7480255262068604
661,0.0
690,136.4482910064287
716,0.0
843,5509.695731102645
844,5509.695731102645
907,0.0
908,0.0
971,0.0
972,0.0
1195,4564.958798299491
1197,4564.958798299491
2,2, 1,21, 0, 7, 0.00,60.00,Tuesday
7,-10.6
718,19.582349724161446
719,-4.685151769116684
720,13.057776443354555
619,3296.6997534399293
633,1229.4141789586
659,0.7480255262068604
661,0.0
690,136.4482910064287
716,85.44000000000004
843,5291.749327407755
844,5291.749327407755
907,0.0
908,0.0
971,0.0
972,0.0
1195,5421.791883622833
1197,5421.791883622833
2,2, 1,21, 0, 8, 0.00,60.00,Tuesday
7,-10.0
718,19.659065742828414
719,-4.255266301371155
720,12.956615307967148
619,3356.9117381291044
633,1241.008152127705
659,0.14744621492295526
661,0.0
690,136.4482910064287
716,85.44000000000004
843,5008.231409577285
844,5008.231409577285
907,0.0
908,0.0
971,0.0
972,0.0
1195,5066.676250974668
1197,5066.676250974668
2,2, 1,21, 0, 9, 0.00,60.00,Tuesday
7,-8.3
718,19.687083984001333
719,-2.981646486822567
720,12.872105511016246
619,3534.466812953753
633,1261.7066927503051
659,0.06572980074697946
661,0.0
690,136.4482910064287
716,85.44000000000004
843,4139.117238278201
844,4139.117238278201
907,0.0
908,0.0
971,0.0
972,0.0
1195,3841.5585909908446
1197,3841.5585909908446
2,2, 1,21, 0,10, 0.00,60.00,Tuesday
7,-7.2
718,19.711821735784493
719,-0.7063169066542235
720,12.789772865864318
619,3652.4487234063304
633,1274.3671393085424
659,0.06572980074697946
661,0.0
690,136.4482910064287
716,23.063889294155324
843,3218.0879839832705
844,3218.0879839832705
907,0.0
908,0.0
971,0.0
972,0.0
1195,1655.0309323691868
1197,1655.0309323691868
2,2, 1,21, 0,11, 0.00,60.00,Tuesday
7,-5.6
718,19.726029541180264
719,1.791552137281284
720,12.732231321110094
619,3828.2959398877288
633,1292.3557337415607
659,0.06572980074697946
661,0.0
690,136.4482910064287
716,0.0
843,2589.019465305755
844,2589.019465305755
907,0.0
908,0.0
971,0.0
972,0.0
1195,327.7477195882411
1197,327.7477195882411
2,2, 1,21, 0,12, 0.00,60.00,Tuesday
7,-4.4
718,19.763778004870417
719,3.6469837163341716
720,12.674865725141501
619,3385.549090063752
633,1133.7636956400227
659,0.05706493006736925
661,26.365120785820693
690,118.45941832201844
716,0.0
843,2161.990088217908
844,2161.990088217908
907,0.0
908,0.0
971,0.0
972,0.0
1195,0.0
1197,0.0
2,2, 1,21, 0,13, 0.00,60.00,Tuesday
7,-4.4
718,19.779680373245313
719,5.053462934935158
720,12.635672028600164
619,2686.3163928797626
633,918.6179737671457
659,0.046199587446783104
661,59.4257492895073
690,95.9043712808498
716,0.0
843,1769.5575109496276
844,1769.5575109496276
907,0.0
908,0.0
971,0.0
972,0.0
1195,0.0
1197,0.0
2,2, 1,21, 0,14, 0.00,60.00,Tuesday
7,-2.2
718,20.005666689628573
719,8.543613132089614
720,12.580429770822452
619,1257.0884079976836
633,430.461819605893
659,0.021236803414979324
661,135.3815067940694
690,44.08499105161929
716,0.0
843,856.788461712853
844,856.788461712853
907,0.0
908,0.0
971,0.0
972,0.0
1195,0.0
1197,0.0
2,2, 1,21, 0,15, 0.00,60.00,Tuesday
7,-1.1
718,19.712376975440215
719,8.567427553854614
720,12.564441395940742
619,380.0771451282259
633,131.455810957168
659,0.0063957555010586255
661,180.53925182071228
690,13.27681968805863
716,0.0
843,271.816605390728
844,271.816605390728
907,0.0
908,0.0
971,0.0
972,0.0
1195,0.0
1197,0.0
2,2, 1,21, 0,16, 0.00,60.00,Tuesday
7,-1.7
718,19.577515750250498
719,6.5531192476245765
720,12.582267236403698
619,0.0
633,0.0
659,0.0
661,200.0
690,0.0
716,0.0
843,-41.441220345617694
844,-41.441220345617694
907,0.0
908,0.0
971,0.0
972,0.0
1195,0.0
1197,0.0
2,2, 1,21, 0,17, 0.00,60.00,Tuesday
7,-2.2
718,20.244475821830196
719,6.015227126869489
720,12.63685421451379
619,0.0
633,0.0
659,0.0
661,200.0
690,0.0
716,0.0
843,-484.16836489735033
844,-484.16836489735033
907,0.0
908,0.0
971,0.0
972,0.0
1195,0.0
1197,0.0
2,2, 1,21, 0,18, 0.00,60.00,Tuesday
7,-2.8
718,19.71415289136743
719,2.831151227985784
720,12.697764728253443
619,243.74171631154198
633,87.95612313775024
659,0.004321297614638978
661,186.8513290302723
690,8.970474901898717
716,0.0
843,169.7921604799194
844,169.7921604799194
907,0.0
908,0.0
971,0.0
972,0.0
1195,0.0
1197,0.0
2,2, 1,21, 0,19, 0.00,60.00,Tuesday
7,-2.8
718,19.60578711765108
719,2.0148623629560527
720,12.85054569785762
619,2468.5212165343187
633,824.5108426149607
659,0.040943746280572076
661,75.41801187506687
690,84.99411339786657
716,85.44000000000004
843,741.816541962251
844,741.816541962251
907,0.0
908,0.0
971,0.0
972,0.0
1195,0.0
1197,0.0
2,2, 1,21, 0,20, 0.00,60.00,Tuesday
7,-3.9
718,19.60160438340034
719,0.535516724785945
720,12.888953190909332
619,3277.770219004776
633,1088.5085601468231
659,0.0546722510853101
661,33.645468375096186
690,113.49260789560448
716,85.44000000000004
843,1169.8023586205727
844,1169.8023586205727
907,0.0
908,0.0
971,0.0
972,0.0
1195,0.0
1197,0.0
2,2, 1,21, 0,21, 0.00,60.00,Tuesday
7,-3.9
718,19.61304603613454
719,0.22781340382792684
720,12.906481483268733
619,3725.8320610710475
633,1221.8483617907043
659,0.061376408065339325
661,13.2463285516355
690,127.40958125759089
716,85.44000000000004
843,1399.849787610352
844,1399.849787610352
907,0.0
908,0.0
971,0.0
972,0.0
1195,0.0
1197,0.0
2,2, 1,21, 0,22, 0.00,60.00,Tuesday
7,-3.9
718,19.623729698773616
719,-0.034899541655494554
720,12.889394951692843
619,3923.7979381905643
633,1280.0618729699313
659,0.06428944924401447
661,4.382643752441839
690,133.45668247741028
716,39.34389778840678
843,2079.0584960018523
844,2079.0584960018523
907,0.0
908,0.0
971,0.0
972,0.0
1195,0.0
1197,0.0
2,2, 1,21, 0,23, 0.00,60.00,Tuesday
7,-3.3
718,18.980919316930148
719,-0.4152651302078608
720,12.7602399231894
619,1915.2219010187682
633,654.4614046534025
659,0.032683496761237434
661,100.55196763170056
690,67.84681966986219
716,0.0
843,1189.908600517363
844,1189.908600517363
907,0.0
908,0.0
971,0.0
972,0.0
1195,0.0
1197,0.0
2,2, 1,21, 0,24, 0.00,60.00,Tuesday
7,-5.0
718,18.62598396889072
719,-0.787163389229
720,12.736144837271642
619,2602.9774202856042
633,885.1592975262688
659,0.04541846385483233
661,61.80252080889053
690,94.28278183872469
716,0.0
843,1645.849195096709
844,1645.849195096709
907,0.0
908,0.0
971,0.0
972,0.0
1195,0.0
1197,0.0
2,3, 1,22, 0, 1, 0.00,60.00,Wednesday
7,-5.0
718,18.55896672179698
719,-0.6956023663001898
720,12.696153753613064
619,3555.364685495417
633,1165.9230471351461
659,0.060250211747729855
661,16.673073513010483
690,125.0715510645272
716,0.0
843,2252.0591943109466
844,2252.0591943109466
907,0.0
908,0.0
971,0.0
972,0.0
1195,0.0
1197,0.0
2,3, 1,22, 0, 2, 0.00,60.00,Wednesday
7,-1.1
718,18.58929602897584
719,0.7836922382675179
720,12.652161453030649
619,4025.9668303409685
633,1218.9538782111522
659,0.06103326220070023
661,14.290439018241052
690,126.69772417216974
716,0.0
843,2628.2686361968226
844,2628.2686361968226
907,0.0
908,0.0
971,0.0
972,0.0
1195,0.0
1197,0.0
2,3, 1,22, 0, 3, 0.00,60.00,Wednesday
7,-0.6
718,18.61203749572164
719,1.5938494484592804
720,12.588209459300884
619,4087.7904089138115
633,1226.808751332942
659,0.061127070718351086
661,14.005002225234598
690,126.89253490310112
716,0.0
843,2736.0482494692515
844,2736.0482494692515
907,0.0
908,0.0
971,0.0
972,0.0
1195,0.0
1197,0.0
2,3, 1,22, 0, 4, 0.00,60.00,Wednesday
7,0.0
718,18.601918006154463
719,2.331458977405763
720,12.534981262939715
619,4333.772521348362
633,1281.2372197986617
659,0.06348321946523303
661,6.835807369611335
690,131.7837112774835
716,0.0
843,2941.972496959799
844,2941.972496959799
907,0.0
908,0.0
971,0.0
972,0.0
1195,0.0
1197,0.0
2,3, 1,22, 0, 5, 0.00,60.00,Wednesday
7,0.6
718,18.606975210659364
719,2.9491697148043285
720,12.475114351927926
619,4413.48627030537
633,1290.012874317627
659,0.06359582447510931
661,6.493177364357727
690,132.01755512149245
716,0.0
843,3035.205436950493
844,3035.205436950493
907,0.0
908,0.0
971,0.0
972,0.0
1195,0.0
1197,0.0
2,3, 1,22, 0, 6, 0.00,60.00,Wednesday
7,1.0
718,19.259837550196764
719,3.045109351438214
720,12.421062898629142
619,4629.429349351687
633,1337.9094073020601
659,0.06572980074697946
661,0.0
690,136.4482910064287
716,80.47518060129495
843,5448.593433913244
844,5448.593433913244
907,0.0
908,0.0
971,0.0
972,0.0
1195,3664.6120499771687
1197,3664.6120499771687
2,3, 1,22, 0, 7, 0.00,60.00,Wednesday
7,-1.1
718,19.534060728798575
719,2.144329057800844
720,12.389765072154463
619,4059.1915756354074
633,1238.6247696149594
659,65.51009105432846
661,0.0
690,136.4482910064287
716,85.44000000000004
843,4568.055405656047
844,4568.055405656047
907,0.0
908,0.0
971,0.0
972,0.0
1195,3401.8223051090936
1197,3401.8223051090936
2,3, 1,22, 0, 8, 0.00,60.00,Wednesday
7,-1.0
718,19.646630886283077
719,2.625728013613565
720,12.35060290034564
619,4004.264376899815
633,1227.7159961268576
659,78.69443664246994
661,0.0
690,136.4482910064287
716,73.82415306682616
843,4165.021642960846
844,4165.021642960846
907,0.0
908,0.0
971,0.0
972,0.0
1195,2911.9517218074297
1197,2911.9517218074297
2,3, 1,22, 0, 9, 0.00,60.00,Wednesday
7,-1.0
718,19.710603129186534
719,3.158754110274356
720,12.313145045824736
619,4001.9496102165463
633,1230.4727038163721
659,78.69443664246994
661,0.0
690,136.4482910064287
716,0.0
843,3146.915205841742
844,3146.915205841742
907,0.0
908,0.0
971,0.0
972,0.0
1195,641.5077926628001
1197,641.5077926628001
2,3, 1,22, 0,10, 0.00,60.00,Wednesday
7,1.1
718,19.717985149687745
719,3.7781576683070237
720,12.28880200151412
619,4260.555235250505
633,1262.2056062692636
659,73.54812530669697
661,0.0
690,136.4482910064287
716,0.0
843,3133.847975553763
844,3133.847975553763
907,0.0
908,0.0
971,0.0
972,0.0
1195,347.94739669550654
1197,347.94739669550654
2,3, 1,22, 0,11, 0.00,60.00,Wednesday
7,1.1
718,19.72147491458903
719,3.9584192528205135
720,12.253702298059729
619,4226.117672734516
633,1252.1907954370226
659,80.61070298250912
661,0.0
690,136.4482910064287
716,0.0
843,3084.6123069397636
844,3084.6123069397636
907,0.0
908,0.0
971,0.0
972,0.0
1195,288.88775282361894
1197,288.88775282361894
2,3, 1,22, 0,12, 0.00,60.00,Wednesday
7,1.1
718,19.721048050856975
719,4.236980204131316
720,12.227218309973926
619,4225.701108526996
633,1252.1037809527693
659,80.69142347861396
661,0.0
690,136.4482910064287
716,0.0
843,3128.2340227660516
844,3128.2340227660516
907,0.0
908,0.0
971,0.0
972,0.0
1195,334.63781966695524
1197,334.63781966695524
2,3, 1,22, 0,13, 0.00,60.00,Wednesday
7,1.1
718,19.72172353000936
719,4.216592087276875
720,12.201835034155174
619,4225.742553589255
633,1252.0542479956762
659,80.69142347861396
661,0.0
690,136.4482910064287
716,0.0
843,3140.149137971697
844,3140.149137971697
907,0.0
908,0.0
971,0.0
972,0.0
1195,335.96263213565544
1197,335.96263213565544
2,3, 1,22, 0,14, 0.00,60.00,Wednesday
7,1.0
718,19.732064028514742
719,3.9614959269193517
720,12.15759142842551
619,3790.8616797200766
633,1145.5953932667917
659,87.59911468409624
661,13.978627362913599
690,125.7491285574615
716,0.0
843,2563.3174698258263
844,2563.3174698258263
907,0.0
908,0.0
971,0.0
972,0.0
1195,0.0
1197,0.0
2,3, 1,22, 0,15, 0.00,60.00,Wednesday
7,2.0
718,19.347052686604105
719,4.434139735368407
720,12.16331661902923
619,4388.998196341757
633,1280.2945077243446
659,68.46813648340422
661,0.0
690,136.4482910064287
716,68.88554192533255
843,2783.812311842472
844,2783.812311842472
907,0.0
908,0.0
971,0.0
972,0.0
1195,0.0
1197,0.0
2,3, 1,22, 0,16, 0.00,60.00,Wednesday
7,1.0
718,19.56478907048787
719,3.650130834315713
720,12.105140100715769
619,4314.925147387552
633,1269.13046517226
659,61.55985232650868
661,0.0
690,136.4482910064287
716,78.23815337740871
843,3299.064050652032
844,3299.064050652032
907,0.0
908,0.0
971,0.0
972,0.0
1195,1491.0711188972364
1197,1491.0711188972364
2,3, 1,22, 0,17, 0.00,60.00,Wednesday
7,0.0
718,19.678465807039593
719,1.885410898478397
720,12.087843763969305
619,4280.509469615297
633,1288.5609299936682
659,43.613644023168405
661,0.0
690,136.4482910064287
716,0.0
843,3271.1408055608426
844,3271.1408055608426
907,0.0
908,0.0
971,0.0
972,0.0
1195,453.415428076597
1197,453.415428076597
2,3, 1,22, 0,18, 0.00,60.00,Wednesday
7,-3.0
718,19.70878851016536
719,0.642598674524866
720,12.045704375564258
619,3950.0996226958455
633,1262.829390308981
659,40.638285268545914
661,0.0
690,136.4482910064287
716,0.0
843,2871.43672079562
844,2871.43672079562
907,0.0
908,0.0
971,0.0
972,0.0
1195,404.67174043382147
1197,404.67174043382147
2,3, 1,22, 0,19, 0.00,60.00,Wednesday
7,-2.8
718,19.728237363618778
719,0.49161719762684625
720,12.009504302924096
619,3759.0039571340235
633,1211.7868502233378
659,28.42374818417251
661,10.72987650591335
690,128.49792316845145
716,0.0
843,2365.5152040851153
844,2365.5152040851153
907,0.0
908,0.0
971,0.0
972,0.0
1195,0.0
1197,0.0
2,3, 1,22, 0,20, 0.00,60.00,Wednesday
7,-5.0
718,19.681462067317607
719,-1.1223662896047024
720,11.974226523879972
619,3782.3766306002776
633,1260.2449244375227
659,27.840295430821627
661,0.0
690,136.4482910064287
716,85.44000000000004
843,2780.9394464030393
844,2780.9394464030393
907,0.0
908,0.0
971,0.0
972,0.0
1195,1876.714444056419
1197,1876.714444056419
2,3, 1,22, 0,21, 0.00,60.00,Wednesday
7,-6.1
718,19.701415735389872
719,-1.2372144076199534
720,11.9257463577611
619,3683.193064407583
633,1253.9384101059231
659,23.02454055812083
661,0.0
690,136.4482910064287
716,85.44000000000004
843,2455.148096370016
844,2455.148096370016
907,0.0
908,0.0
971,0.0
972,0.0
1195,1630.2794061530358
1197,1630.2794061530358
2,3, 1,22, 0,22, 0.00,60.00,Wednesday
7,-6.7
718,19.71438746399571
719,-2.3090245600094264
720,11.87508672405991
619,3619.3691514905277
633,1248.2925942166723
659,22.762172576834654
661,0.0
690,136.4482910064287
716,19.493323103488677
843,2736.9877437874093
844,2736.9877437874093
907,0.0
908,0.0
971,0.0
972,0.0
1195,1022.628466129368
1197,1022.628466129368
2,3, 1,22, 0,23, 0.00,60.00,Wednesday
7,-8.3
718,18.947232913499455
719,-3.069474441608232
720,11.808609387271758
619,3451.9850442724405
633,1232.0073592579438
659,22.292192631175215
661,0.0
690,136.4482910064287
716,0.0
843,2146.2378389687765
844,2146.2378389687765
907,0.0
908,0.0
971,0.0
972,0.0
1195,270.47645135305515
1197,270.47645135305515
2,3, 1,22, 0,24, 0.00,60.00,Wednesday
7,-8.9
718,18.714242479380765
719,-4.030282931231872
720,11.702502587429386
619,3440.699562021096
633,1220.300752696968
659,12.715262923351133
661,0.0
690,136.4482910064287
716,0.0
843,2732.8927375626245
844,2732.8927375626245
907,0.0
908,0.0
971,0.0
972,0.0
1195,967.541755998403
1197,967.541755998403
2,4, 1,23, 0, 1, 0.00,60.00,Thursday
7,-8.9
718,18.637140383704303
719,-4.41767001950563
720,11.625664363252515
619,3445.6077220793413
633,1214.7939311997268
659,12.715262923351133
661,0.0
690,136.4482910064287
716,0.0
843,3228.4811822437296
844,3228.4811822437296
907,0.0
908,0.0
971,0.0
972,0.0
1195,1588.2917471054925
1197,1588.2917471054925
2,4, 1,23, 0, 2, 0.00,60.00,Thursday
7,-10.0
718,18.612795412093668
719,-5.033590711994049
720,11.533098783873067
619,3329.1973200585157
633,1199.7030945948877
659,13.958231828122605
661,0.0
690,136.4482910064287
716,0.0
843,3770.240785707494
844,3770.240785707494
907,0.0
908,0.0
971,0.0
972,0.0
1195,2381.7007911201094
1197,2381.7007911201094
2,4, 1,23, 0, 3, 0.00,60.00,Thursday
7,-10.6
718,18.602704513998358
719,-4.8711314995039565
720,11.445209574390095
619,3258.8251478890243
633,1189.0086513552756
659,16.81589729595184
661,0.0
690,136.4482910064287
716,0.0
843,4226.478467913752
844,4226.478467913752
907,0.0
908,0.0
971,0.0
972,0.0
1195,3026.6857324179464
1197,3026.6857324179464
2,4, 1,23, 0, 4, 0.00,60.00,Thursday
7,-11.1
718,18.60299963009909
719,-5.329808319367284
720,11.353718981198481
619,3202.804703550519
633,1181.0567895548036
659,18.603607881560006
661,0.0
690,136.4482910064287
716,0.0
843,4587.875569596023
844,4587.875569596023
907,0.0
908,0.0
971,0.0
972,0.0
1195,3527.4489466924306
1197,3527.4489466924306
2,4, 1,23, 0, 5, 0.00,60.00,Thursday
7,-11.7
718,18.599130203927995
719,-5.5692515389706365
720,11.260821951351668
619,3135.8289729279036
633,1171.6734096537828
659,20.84285461764314
661,0.0
690,136.4482910064287
716,0.0
843,4741.960594772527
844,4741.960594772527
907,0.0
908,0.0
971,0.0
972,0.0
1195,3792.969609278428
1197,3792.969609278428
2,4, 1,23, 0, 6, 0.00,60.00,Thursday
7,-11.7
718,19.399684237228602
719,-5.509149620568292
720,11.172163500137204
619,3136.014605830432
633,1171.4820825313702
659,20.840993396127974
661,0.0
690,136.4482910064287
716,0.0
843,5745.365628610292
844,5745.365628610292
907,0.0
908,0.0
971,0.0
972,0.0
1195,5034.876909272198
1197,5034.876909272198
2,4, 1,23, 0, 7, 0.00,60.00,Thursday
7,-11.7
718,19.577227241795683
719,-5.344271283852434
720,11.121348246770477
619,3120.0692165264854
633,1188.658781871179
659,20.840993396127974
661,0.0
690,136.4482910064287
716,85.44000000000004
843,5539.261118437005
844,5539.261118437005
907,0.0
908,0.0
971,0.0
972,0.0
1195,6066.94199778487
1197,6066.94199778487
2,4, 1,23, 0, 8, 0.00,60.00,Thursday
7,-10.0
718,19.651030327103815
719,-4.948713079975793
720,11.048510384804795
619,3299.5804291663253
633,1216.160480470774
659,17.081011230675777
661,0.0
690,136.4482910064287
716,85.44000000000004
843,5121.735911177024
844,5121.735911177024
907,0.0
908,0.0
971,0.0
972,0.0
1195,5470.149596831878
1197,5470.149596831878
2,4, 1,23, 0, 9, 0.00,60.00,Thursday
7,-8.3
718,19.689138006627303
719,-3.84557230502755
720,10.980495299624721
619,3472.287634768457
633,1235.7152548595927
659,17.473686024530966
661,0.0
690,136.4482910064287
716,75.6966020207664
843,4398.250098996401
844,4398.250098996401
907,0.0
908,0.0
971,0.0
972,0.0
1195,4130.440312404462
1197,4130.440312404462
2,4, 1,23, 0,10, 0.00,60.00,Thursday
7,-6.7
718,19.72476833697943
719,-1.6984854948224735
720,10.923631733354343
619,3658.7618962275697
633,1259.669952688929
659,13.04376015087439
661,0.0
690,136.4482910064287
716,0.0
843,3207.4835199480513
844,3207.4835199480513
907,0.0
908,0.0
971,0.0
972,0.0
1195,1453.7577765808678
1197,1453.7577765808678