Program Version,EnergyPlus, Version 22.2.0-c249759bad, YMD=2023.09.01 20:36
1,5,Environment Title[],Latitude[deg],Longitude[deg],Time Zone[],Elevation[m]
2,8,Day of Simulation[],Month[],Day of Month[],DST Indicator[1=yes 0=no],Hour[],StartMinute[],EndMinute[],DayType
3,5,Cumulative Day of Simulation[],Month[],Day of Month[],DST Indicator[1=yes 0=no],DayType  ! When Daily Report Variables Requested
4,2,Cumulative Days of Simulation[],Month[]  ! When Monthly Report Variables Requested
5,1,Cumulative Days of Simulation[] ! When Run Period Report Variables Requested
6,1,Calendar Year of Simulation[] ! When Annual Report Variables Requested
581,11,LIVING,AFN Zone Infiltration Air Change Rate [ach] !RunPeriod [Value,Min,Month,Day,Hour,Minute,Max,Month,Day,Hour,Minute]
582,11,ATTIC,AFN Zone Infiltration Air Change Rate [ach] !RunPeriod [Value,Min,Month,Day,Hour,Minute,Max,Month,Day,Hour,Minute]
583,11,CRAWLSPACE,AFN Zone Infiltration Air Change Rate [ach] !RunPeriod [Value,Min,Month,Day,Hour,Minute,Max,Month,Day,Hour,Minute]
1038,11,Facility,Facility Heating Setpoint Not Met Time [hr] !RunPeriod [Value,Min,Month,Day,Hour,Minute,Max,Month,Day,Hour,Minute]
1039,11,Facility,Facility Cooling Setpoint Not Met Time [hr] !RunPeriod [Value,Min,Month,Day,Hour,Minute,Max,Month,Day,Hour,Minute]
1115,11,DX_HEATING_COIL,Heating Coil Heating Energy [J] !RunPeriod [Value,Min,Month,Day,Hour,Minute,Max,Month,Day,Hour,Minute]
1128,11,DX_HEATING_COIL,Heating Coil Electricity Energy [J] !RunPeriod [Value,Min,Month,Day,Hour,Minute,Max,Month,Day,Hour,Minute]
1153,11,DX_HEATING_COIL,Heating Coil Defrost Electricity Energy [J] !RunPeriod [Value,Min,Month,Day,Hour,Minute,Max,Month,Day,Hour,Minute]
1154,11,DX_HEATING_COIL,Heating Coil Crankcase Heater Electricity Energy [J] !RunPeriod [Value,Min,Month,Day,Hour,Minute,Max,Month,Day,Hour,Minute]
1155,11,HEATING_RESISTANCE_BACKUP,Heating Coil Heating Energy [J] !RunPeriod [Value,Min,Month,Day,Hour,Minute,Max,Month,Day,Hour,Minute]
1156,11,HEATING_RESISTANCE_BACKUP,Heating Coil Electricity Energy [J] !RunPeriod [Value,Min,Month,Day,Hour,Minute,Max,Month,Day,Hour,Minute]
1292,11,WATER HEATER,Water Heater Heat Loss Energy [J] !RunPeriod [Value,Min,Month,Day,Hour,Minute,Max,Month,Day,Hour,Minute]
1306,11,WATER HEATER,Water Heater Heating Energy [J] !RunPeriod [Value,Min,Month,Day,Hour,Minute,Max,Month,Day,Hour,Minute]
1307,11,WATER HEATER,Water Heater Unmet Demand Heat Transfer Energy [J] !RunPeriod [Value,Min,Month,Day,Hour,Minute,Max,Month,Day,Hour,Minute]
1308,11,WATER HEATER,Water Heater Electricity Energy [J] !RunPeriod [Value,Min,Month,Day,Hour,Minute,Max,Month,Day,Hour,Minute]
13,11,Electricity:Facility [J] !RunPeriod [Value,Min,Month,Day,Hour,Minute,Max,Month,Day,Hour,Minute]
1134,11,Heating:Electricity [J] !RunPeriod [Value,Min,Month,Day,Hour,Minute,Max,Month,Day,Hour,Minute]
1096,11,Cooling:Electricity [J] !RunPeriod [Value,Min,Month,Day,Hour,Minute,Max,Month,Day,Hour,Minute]
562,11,Fans:Electricity [J] !RunPeriod [Value,Min,Month,Day,Hour,Minute,Max,Month,Day,Hour,Minute]
1379,11,Pumps:Electricity [J] !RunPeriod [Value,Min,Month,Day,Hour,Minute,Max,Month,Day,Hour,Minute]
1326,11,WaterSystems:Electricity [J] !RunPeriod [Value,Min,Month,Day,Hour,Minute,Max,Month,Day,Hour,Minute]
61,11,InteriorLights:Electricity [J] !RunPeriod [Value,Min,Month,Day,Hour,Minute,Max,Month,Day,Hour,Minute]
1046,11,ExteriorLights:Electricity [J] !RunPeriod [Value,Min,Month,Day,Hour,Minute,Max,Month,Day,Hour,Minute]
134,11,InteriorEquipment:Electricity [J] !RunPeriod [Value,Min,Month,Day,Hour,Minute,Max,Month,Day,Hour,Minute]
170,11,gas_dryer:InteriorEquipment:Electricity [J] !RunPeriod [Value,Min,Month,Day,Hour,Minute,Max,Month,Day,Hour,Minute]
207,11,clotheswasher:InteriorEquipment:Electricity [J] !RunPeriod [Value,Min,Month,Day,Hour,Minute,Max,Month,Day,Hour,Minute]
244,11,dishwasher:InteriorEquipment:Electricity [J] !RunPeriod [Value,Min,Month,Day,Hour,Minute,Max,Month,Day,Hour,Minute]
281,11,refrigerator:InteriorEquipment:Electricity [J] !RunPeriod [Value,Min,Month,Day,Hour,Minute,Max,Month,Day,Hour,Minute]
318,11,electric_mels:InteriorEquipment:Electricity [J] !RunPeriod [Value,Min,Month,Day,Hour,Minute,Max,Month,Day,Hour,Minute]
355,11,NaturalGas:Facility [J] !RunPeriod [Value,Min,Month,Day,Hour,Minute,Max,Month,Day,Hour,Minute]
403,11,InteriorEquipment:NaturalGas [J] !RunPeriod [Value,Min,Month,Day,Hour,Minute,Max,Month,Day,Hour,Minute]
476,11,gas_dryer:InteriorEquipment:NaturalGas [J] !RunPeriod [Value,Min,Month,Day,Hour,Minute,Max,Month,Day,Hour,Minute]
513,11,gas_mels:InteriorEquipment:NaturalGas [J] !RunPeriod [Value,Min,Month,Day,Hour,Minute,Max,Month,Day,Hour,Minute]
End of Data Dictionary
1,EXTREME_WINTER,  39.50,-119.77,  -8.00,1344.20
5,15
1038,0.5,0.0,12,22, 1,15,0.25, 1, 1, 4,30
1039,0.0,0.0,12,22, 1,15,0.0,12,22, 1,15
581,0.3212595173669075,0.15562581400453873, 1, 1, 2, 7,1.544730507410781, 1, 1, 4,60
582,2.696559526739531,0.0,12,22,21,60,25.504277718524623, 1, 1, 4,60
583,0.03564848485839325,0.00019953479031233618,12,28,19,37,0.11421274635592557, 1, 1, 6, 5
1115,2468208398.277774,0.0,12,22,23, 7,4940909.000189184, 1, 1,12,15
1128,825313037.5234487,0.0,12,22,23, 7,1619274.8483666962,12,26, 8,60
1153,30326677.701404322,0.0,12,22,23, 7,150039.5729772884, 1, 1,11,60
1154,162104792.12603757,0.0,12,22, 6, 5,180000.0,12,23,14,15
1155,87145268.03186104,0.0,12,22, 1,15,2137713.8608282893, 1, 4, 6,45
1156,87145268.03186104,0.0,12,22, 1,15,2137713.8608282893, 1, 4, 6,45
1292,-53724294.04424066,-39777.0572565649,12,22, 1,15,-4229.750459922387,12,29,16,60
1306,473993524.5028192,0.0,12,22, 1,15,4050000.0,12,22, 7,60
1307,74485479.52949941,0.0,12,22, 1,15,6033301.562181546, 1, 4,19,60
1308,473993524.5028192,0.0,12,22, 1,15,4050000.0,12,22, 7,60
13,2469923958.3769917,279566.45160502766,12,29,14,60,7366198.726313842, 1, 5, 7,60
61,646981127.1939323,88139.10953165221,12,22, 1,15,1282023.4113694867,12,22,20,15
134,151290040.75163814,63564.01800854099,12,22, 4,15,156554.22484006523,12,27,20,15
170,11185820.069951689,348.4159749238097,12,22, 4,15,17476.39704006126,12,27,12,15
207,13893028.5742839,815.2532113832032,12,22, 3,15,22990.642799023623,12,27,10,15
244,27284301.07562584,1521.856143006317,12,22, 4,15,53038.631142310165,12,27,20,15
281,98926891.03177746,59938.60262432081,12,22, 5,15,81951.81706819107,12,22,19,15
318,0.0,0.0,12,22, 1,15,0.0,12,22, 1,15
355,422701517.16107386,18561.32405820678,12,22, 4,15,724774.895203776,12,27,18,15
403,422701517.16107386,18561.32405820678,12,22, 4,15,724774.895203776,12,27,18,15
476,227882097.80545202,7098.072629279515,12,22, 4,15,356036.3026282215,12,27,12,15
513,0.0,0.0,12,22, 1,15,0.0,12,22, 1,15
562,90205544.90051615,0.0,12,22,23,15,176058.40554083508, 1, 4,10,15
1046,0.0,0.0,12,22, 1,15,0.0,12,22, 1,15
1096,2563945.645333336,0.0,12,22, 1,15,133372.65431594767,12,29,16,30
1134,1104889775.3827524,0.0,12,29,14,60,4292171.797441111, 1, 4, 6,15
1326,473993524.5028191,0.0,12,22, 1,15,4050000.0,12,22, 7,60
1379,0.0,0.0,12,22, 1,15,0.0,12,22, 1,15
1,EXTREME_SUMMER,  39.50,-119.77,  -8.00,1344.20
5,7
1038,0.0,0.0, 7,20, 1,15,0.0, 7,20, 1,15
1039,2.5,0.0, 7,20, 1,15,0.25, 7,26,17,15
581,0.1365534250671541,0.0, 7,20, 6, 7,0.5246102859581059, 7,25,21,52
582,3.6406076020034845,0.0, 7,22, 8,13,16.53154501976001, 7,24,18,48
583,0.0419596388848823,0.00003662935992082142, 7,20, 6,11,0.09064143650723548, 7,26,19,33
1115,0.0,0.0, 7,20, 1, 7,0.0, 7,20, 1, 7
1128,0.0,0.0, 7,20, 1, 7,0.0, 7,20, 1, 7
1153,0.0,0.0, 7,20, 1, 7,0.0, 7,20, 1, 7
1154,0.0,0.0, 7,20, 1, 7,0.0, 7,20, 1, 7
1155,0.0,0.0, 7,20, 1, 7,0.0, 7,20, 1, 7
1156,0.0,0.0, 7,20, 1, 7,0.0, 7,20, 1, 7
1292,-22114363.358972706,-34311.31567812998, 7,23, 7,30,-2616.1692970692907, 7,21, 8,60
1306,170571784.61385992,0.0, 7,20, 1, 7,3533428.8535334216, 7,23, 7,60
1307,16672356.293702502,0.0, 7,20, 1, 7,1987503.0372074903, 7,26,19,52
1308,170571784.61385992,0.0, 7,20, 1, 7,3533428.8535334216, 7,23, 7,60
13,1138121242.8539228,155718.49659229233, 7,22, 4,60,7070587.067583406, 7,26,20,15
61,301924526.02383536,88139.10953165221, 7,20, 1,15,1282023.4113694867, 7,20,20,15
134,70666020.44019976,63564.01800854099, 7,20, 4,15,156554.22484006523, 7,25,20,15
170,5241013.419656067,348.4159749238097, 7,20, 4,15,17476.39704006126, 7,25,12,15
207,6509451.13922267,815.2532113832032, 7,20, 3,15,22990.642799023623, 7,25,10,15
244,12749673.399825225,1521.856143006317, 7,20, 4,15,53038.631142310165, 7,25,20,15
281,46165882.481495745,59938.60262432081, 7,20, 5,15,81951.81706819107, 7,20,19,15
318,0.0,0.0, 7,20, 1,15,0.0, 7,20, 1,15
355,197687796.27748066,18561.32405820678, 7,20, 4,15,724774.895203776, 7,25,18,15
403,197687796.27748066,18561.32405820678, 7,20, 4,15,724774.895203776, 7,25,18,15
476,106772067.24485716,7098.072629279515, 7,20, 4,15,356036.3026282215, 7,25,12,15
513,0.0,0.0, 7,20, 1,15,0.0, 7,20, 1,15
562,54692268.36425003,0.0, 7,21, 5,45,176058.40554083508, 7,26,16,60
1046,0.0,0.0, 7,20, 1,15,0.0, 7,20, 1,15
1096,540266643.4117775,0.0, 7,21, 5,45,1982803.2580723567, 7,26,16,60
1134,0.0,0.0, 7,20, 1,15,0.0, 7,20, 1,15
1326,170571784.61385983,0.0, 7,20, 1,15,4050000.0, 7,21,20,30
1379,0.0,0.0, 7,20, 1,15,0.0, 7,20, 1,15
1,ANNUAL,  39.50,-119.77,  -8.00,1344.20
5,365
1038,0.25,0.0, 1, 1, 1,15,0.25, 3,12,23,60
1039,51.75,0.0, 1, 1, 1,15,0.25, 1,16,17,15
581,0.2330843524390264,0.0, 6,27,23, 3,1.6660265004486312, 3,29, 9,60
582,3.323296896691131,0.0, 1, 3,19,45,32.12946698897556, 3,29, 9,60
583,0.02407436468764252,0.0, 6,27,23, 3,0.11677917783602271, 1, 1, 6, 5
1115,12456300846.730621,0.0, 1, 1,23, 5,5010079.718824705, 3,13, 6,60
1128,4059551983.682633,0.0, 1, 1,23, 5,1645960.7429941758,11,17, 6,60
1153,149632319.54122725,0.0, 1, 1, 1,52,140811.45936225398, 1, 1,11,60
1154,2311302794.9257965,0.0, 1, 1, 6, 5,180000.0, 1, 2,13,15
1155,175418163.8862471,0.0, 1, 1, 1, 5,1929410.3654600387, 1, 4, 6,45
1156,175418163.8862471,0.0, 1, 1, 1, 5,1929410.3654600387, 1, 4, 6,45
1292,-1216476006.6638305,-39812.20462623441, 1,30, 4,60,-2276.010640271007,10, 8, 9,46
1306,10444714738.659264,0.0, 1, 1, 1, 5,4050000.0, 1, 1, 9,60
1307,1417933702.316618,0.0, 1, 1, 1, 5,11749662.328334626, 2,26,19,60
1308,10444714738.659264,0.0, 1, 1, 1, 5,4050000.0, 1, 1, 9,60
13,47049916808.82971,151703.1275401932, 3,29, 4,15,7612970.063607418, 1, 4, 8,15
61,15743207428.383959,88139.10953165221, 1, 1, 1,15,1282023.4113694867, 1, 1,20,15
134,3685071073.4325233,63564.01800854099, 1, 2, 4,15,156554.22484006523, 1, 1,20,15
170,273393721.45532674,348.4159749238097, 1, 2, 4,15,17476.39704006126, 1, 1,12,15
207,339560869.0695816,815.2532113832032, 1, 2, 3,15,22990.642799023623, 1, 1,10,15
244,664895467.8009144,1521.856143006317, 1, 2, 4,15,53038.631142310165, 1, 1,20,15
281,2407221015.106824,59938.60262432081, 1, 1, 5,15,81951.81706819107, 1, 1,19,15
318,0.0,0.0, 1, 1, 1,15,0.0, 1, 1, 1,15
355,10310294493.051695,18561.32405820678, 1, 2, 4,15,724774.895203776, 1, 1,18,15
403,10310294493.051695,18561.32405820678, 1, 2, 4,15,724774.895203776, 1, 1,18,15
476,5569688622.066177,7098.072629279515, 1, 2, 4,15,356036.3026282215, 1, 1,12,15
513,0.0,0.0, 1, 1, 1,15,0.0, 1, 1, 1,15
562,1490488680.4565778,0.0, 1, 2,11,60,176058.4055408351, 8, 3,17,30
1046,0.0,0.0, 1, 1, 1,15,0.0, 1, 1, 1,15
1096,8990529625.859026,0.0, 1, 1, 1,15,2064921.8205750715, 7,18,15,60
1134,6695905262.035891,0.0, 1, 7,17,60,4087359.810388497, 1, 4, 6,15
1326,10444714738.65923,0.0, 1, 1, 1,15,4050000.0000000014, 3,19,10,15
1379,0.0,0.0, 1, 1, 1,15,0.0, 1, 1, 1,15
End of Data
 Number of Records Written=          99
