Program Version,EnergyPlus, Version 22.2.0-c249759bad, YMD=2023.07.07 15:04
1,5,Environment Title[],Latitude[deg],Longitude[deg],Time Zone[],Elevation[m]
2,8,Day of Simulation[],Month[],Day of Month[],DST Indicator[1=yes 0=no],Hour[],StartMinute[],EndMinute[],DayType
3,5,Cumulative Day of Simulation[],Month[],Day of Month[],DST Indicator[1=yes 0=no],DayType  ! When Daily Report Variables Requested
4,2,Cumulative Days of Simulation[],Month[]  ! When Monthly Report Variables Requested
5,1,Cumulative Days of Simulation[] ! When Run Period Report Variables Requested
6,1,Calendar Year of Simulation[] ! When Annual Report Variables Requested
581,11,LIVING,AFN Zone Infiltration Air Change Rate [ach] !RunPeriod [Value,Min,Month,Day,Hour,Minute,Max,Month,Day,Hour,Minute]
582,11,ATTIC,AFN Zone Infiltration Air Change Rate [ach] !RunPeriod [Value,Min,Month,Day,Hour,Minute,Max,Month,Day,Hour,Minute]
583,11,CRAWLSPACE,AFN Zone Infiltration Air Change Rate [ach] !RunPeriod [Value,Min,Month,Day,Hour,Minute,Max,Month,Day,Hour,Minute]
1038,11,Facility,Facility Heating Setpoint Not Met Time [hr] !RunPeriod [Value,Min,Month,Day,Hour,Minute,Max,Month,Day,Hour,Minute]
1039,11,Facility,Facility Cooling Setpoint Not Met Time [hr] !RunPeriod [Value,Min,Month,Day,Hour,Minute,Max,Month,Day,Hour,Minute]
1115,11,DX_HEATING_COIL,Heating Coil Heating Energy [J] !RunPeriod [Value,Min,Month,Day,Hour,Minute,Max,Month,Day,Hour,Minute]
1128,11,DX_HEATING_COIL,Heating Coil Electricity Energy [J] !RunPeriod [Value,Min,Month,Day,Hour,Minute,Max,Month,Day,Hour,Minute]
1153,11,DX_HEATING_COIL,Heating Coil Defrost Electricity Energy [J] !RunPeriod [Value,Min,Month,Day,Hour,Minute,Max,Month,Day,Hour,Minute]
1154,11,DX_HEATING_COIL,Heating Coil Crankcase Heater Electricity Energy [J] !RunPeriod [Value,Min,Month,Day,Hour,Minute,Max,Month,Day,Hour,Minute]
1156,11,HEATING_RESISTANCE_BACKUP,Heating Coil Electricity Energy [J] !RunPeriod [Value,Min,Month,Day,Hour,Minute,Max,Month,Day,Hour,Minute]
13,11,Electricity:Facility [J] !RunPeriod [Value,Min,Month,Day,Hour,Minute,Max,Month,Day,Hour,Minute]
1134,11,Heating:Electricity [J] !RunPeriod [Value,Min,Month,Day,Hour,Minute,Max,Month,Day,Hour,Minute]
1096,11,Cooling:Electricity [J] !RunPeriod [Value,Min,Month,Day,Hour,Minute,Max,Month,Day,Hour,Minute]
562,11,Fans:Electricity [J] !RunPeriod [Value,Min,Month,Day,Hour,Minute,Max,Month,Day,Hour,Minute]
1388,11,Pumps:Electricity [J] !RunPeriod [Value,Min,Month,Day,Hour,Minute,Max,Month,Day,Hour,Minute]
1360,11,WaterSystems:Electricity [J] !RunPeriod [Value,Min,Month,Day,Hour,Minute,Max,Month,Day,Hour,Minute]
61,11,InteriorLights:Electricity [J] !RunPeriod [Value,Min,Month,Day,Hour,Minute,Max,Month,Day,Hour,Minute]
1046,11,ExteriorLights:Electricity [J] !RunPeriod [Value,Min,Month,Day,Hour,Minute,Max,Month,Day,Hour,Minute]
134,11,InteriorEquipment:Electricity [J] !RunPeriod [Value,Min,Month,Day,Hour,Minute,Max,Month,Day,Hour,Minute]
170,11,gas_dryer:InteriorEquipment:Electricity [J] !RunPeriod [Value,Min,Month,Day,Hour,Minute,Max,Month,Day,Hour,Minute]
207,11,clotheswasher:InteriorEquipment:Electricity [J] !RunPeriod [Value,Min,Month,Day,Hour,Minute,Max,Month,Day,Hour,Minute]
244,11,dishwasher:InteriorEquipment:Electricity [J] !RunPeriod [Value,Min,Month,Day,Hour,Minute,Max,Month,Day,Hour,Minute]
281,11,refrigerator:InteriorEquipment:Electricity [J] !RunPeriod [Value,Min,Month,Day,Hour,Minute,Max,Month,Day,Hour,Minute]
318,11,electric_mels:InteriorEquipment:Electricity [J] !RunPeriod [Value,Min,Month,Day,Hour,Minute,Max,Month,Day,Hour,Minute]
355,11,NaturalGas:Facility [J] !RunPeriod [Value,Min,Month,Day,Hour,Minute,Max,Month,Day,Hour,Minute]
1323,11,WaterSystems:NaturalGas [J] !RunPeriod [Value,Min,Month,Day,Hour,Minute,Max,Month,Day,Hour,Minute]
403,11,InteriorEquipment:NaturalGas [J] !RunPeriod [Value,Min,Month,Day,Hour,Minute,Max,Month,Day,Hour,Minute]
476,11,gas_dryer:InteriorEquipment:NaturalGas [J] !RunPeriod [Value,Min,Month,Day,Hour,Minute,Max,Month,Day,Hour,Minute]
513,11,gas_mels:InteriorEquipment:NaturalGas [J] !RunPeriod [Value,Min,Month,Day,Hour,Minute,Max,Month,Day,Hour,Minute]
End of Data Dictionary
1,EXTREME_WINTER,  35.43,-119.05,  -8.00, 149.10
5,15
1038,0.8333333333333333,0.0,12,22, 1,10,0.16666666666666666,12,26, 6,10
1039,1.3333333333333333,0.0,12,22, 1,10,0.16666666666666666, 1, 2,13,60
581,0.1925166885691569,0.09311241974901523,12,22, 6, 2,0.49045024812254834,12,25, 1,60
582,1.8808848222933026,0.0,12,22, 6, 2,10.809943468093635,12,24,20,60
583,2.171017868420732,0.00009999935570220345, 1, 5,10,10,10.072923453927158,12,25, 2,10
1115,463144913.3875857,0.0,12,22, 1, 3,2001659.185400704, 1, 2, 6,30
1128,139506726.2436311,0.0,12,22, 1, 3,615147.3087232582, 1, 2, 6,30
1153,6683767.198470494,0.0,12,22, 1, 3,46252.745633851424,12,26, 6,40
1154,163424568.0863994,0.0,12,22, 6, 2,120000.0,12,22, 2,40
1156,697293.8218519277,0.0,12,22, 1, 3,348646.91092596384, 1, 2, 6, 2
13,1193186245.269409,110316.09050215792,12,31, 2,60,1608409.665713118, 1, 2, 6,10
61,646981127.1939279,58759.40635443481,12,22, 1,10,854682.2742463244,12,22,20,10
134,151290040.75163832,42376.01200569399,12,22, 4,10,104369.48322671017,12,27,20,10
170,11185820.069951665,232.27731661587313,12,22, 4,10,11650.931360040839,12,27,12,10
207,13893028.574283868,543.5021409221355,12,22, 3,10,15327.095199349082,12,27,10,10
244,27284301.07562606,1014.5707620042115,12,22, 4,10,35359.08742820678,12,27,20,10
281,98926891.03177528,39959.06841621388,12,22, 5,10,54634.54471212738,12,22,19,10
318,0.0,0.0,12,22, 1,10,0.0,12,22, 1,10
355,1568410771.2724478,12374.216038804521,12,22, 4,10,3829218.154066982,12,23,18,60
403,422701517.161075,12374.216038804521,12,22, 4,10,483183.26346918393,12,27,18,10
476,227882097.80545104,4732.048419519677,12,22, 4,10,237357.535085481,12,27,12,10
513,0.0,0.0,12,22, 1,10,0.0,12,22, 1,10
562,21896352.539860714,0.0,12,22, 1,10,80048.79218405332,12,26, 6,10
1046,0.0,0.0,12,22, 1,10,0.0,12,22, 1,10
1096,51949569.4336297,0.0,12,22, 1,10,300137.04750351066, 1, 2,15,20
1134,310312355.3503529,0.0,12,22,12,50,1115891.6291652285, 1, 2, 6,10
1323,1145709254.1113725,0.0,12,22, 1,10,3375000.000000001,12,22,21,40
1360,10756800.0,4979.999999999999,12,28, 9,40,4980.000000000002,12,29,17,20
1388,0.0,0.0,12,22, 1,10,0.0,12,22, 1,10
1,EXTREME_SUMMER,  35.43,-119.05,  -8.00, 149.10
5,7
1038,0.0,0.0, 7,13, 1,10,0.0, 7,13, 1,10
1039,45.5,0.0, 7,13, 1,10,0.16666666666666666, 7,13,18,30
581,0.06918290686023366,0.0, 7,13, 4,10,0.30990946532839814, 7,19,14,60
582,2.793003854795948,0.009613091379031163, 7,18,20,40,9.766902596467858, 7,14,15,55
583,3.3458428627986425,0.0, 7,13,23, 2,11.085147540201644, 7,19,14,60
1115,0.0,0.0, 7,13, 1,10,0.0, 7,13, 1,10
1128,0.0,0.0, 7,13, 1,10,0.0, 7,13, 1,10
1153,0.0,0.0, 7,13, 1,10,0.0, 7,13, 1,10
1154,0.0,0.0, 7,13, 1,10,0.0, 7,13, 1,10
1156,0.0,0.0, 7,13, 1,10,0.0, 7,13, 1,10
13,1220797415.529461,180571.65985210676, 7,13, 4,60,2340113.002413471, 7,19,20,10
61,301924526.0238348,58759.40635443481, 7,13, 1,10,854682.2742463244, 7,13,20,10
134,70666020.44019979,42376.01200569399, 7,13, 4,10,104369.48322671017, 7,18,20,10
170,5241013.419656074,232.27731661587313, 7,13, 4,10,11650.931360040839, 7,18,12,10
207,6509451.13922266,543.5021409221355, 7,13, 3,10,15327.095199349082, 7,18,10,10
244,12749673.39982522,1014.5707620042115, 7,13, 4,10,35359.08742820678, 7,18,20,10
281,46165882.48149605,39959.06841621388, 7,13, 5,10,54634.54471212738, 7,13,19,10
318,0.0,0.0, 7,13, 1,10,0.0, 7,13, 1,10
355,642785255.0433989,12374.216038804521, 7,13, 4,10,3829218.154066982, 7,14,18,60
403,197687796.27748126,12374.216038804521, 7,13, 4,10,483183.26346918393, 7,18,18,10
476,106772067.24485692,4732.048419519677, 7,13, 4,10,237357.535085481, 7,18,12,10
513,0.0,0.0, 7,13, 1,10,0.0, 7,13, 1,10
562,71485719.40692589,7719.023260008163, 7,13, 5,50,107611.62724744738, 7,13,17,40
1046,0.0,0.0, 7,13, 1,10,0.0, 7,13, 1,10
1096,771701309.6585,64084.11407307839, 7,13, 5,50,1389204.4687305586, 7,19,17,60
1134,0.0,0.0, 7,13, 1,10,0.0, 7,13, 1,10
1323,445097458.76591593,0.0, 7,13, 1,10,3375000.000000001, 7,18,21,50
1360,5019840.0,4980.0, 7,13, 1,10,4980.000000000001, 7,13, 6,50
1388,0.0,0.0, 7,13, 1,10,0.0, 7,13, 1,10
1,ANNUAL,  35.43,-119.05,  -8.00, 149.10
5,365
1038,0.6666666666666666,0.0, 1, 1, 1,10,0.16666666666666666, 1, 4, 6,10
1039,620.3333333333336,0.0, 1, 1, 1,10,0.16666666666666666, 1, 2,13,50
581,0.1411385511837932,0.0, 4, 1,19,32,0.8890887119479064,12,17, 7,55
582,2.552397864802902,0.0, 1, 1, 1, 5,20.690261323189805, 3,12,13,52
583,3.0572105847119335,0.0, 6, 5,23, 2,25.868361780107943,12,17, 7,55
1115,1053123907.9513849,0.0, 1, 1, 1, 5,1797416.8354272505, 1, 2, 6,30
1128,311678445.01270646,0.0, 1, 1, 1, 5,559538.8198544623, 1, 2, 6,30
1153,14808474.00073998,0.0, 1, 1, 1, 5,51429.47530126628, 1,25, 6,60
1154,903548333.090554,0.0, 1, 1, 6, 3,120000.0, 1, 1,21,10
1156,1720091.8441051296,0.0, 1, 1, 1, 5,348646.91092596384, 1, 2, 6, 2
13,40500411279.25949,106115.4183601288, 1, 9, 4,10,2336652.221217542, 7,19,20,10
61,15743207428.39043,58759.40635443481, 1, 1, 1,10,854682.2742463244, 1, 1,20,10
134,3685071073.433083,42376.01200569399, 1, 2, 4,10,104369.48322671017, 1, 1,20,10
170,273393721.45534325,232.27731661587313, 1, 2, 4,10,11650.931360040839, 1, 1,12,10
207,339560869.06955314,543.5021409221355, 1, 2, 3,10,15327.095199349082, 1, 1,10,10
244,664895467.8009839,1014.5707620042115, 1, 2, 4,10,35359.08742820678, 1, 1,20,10
281,2407221015.1057043,39959.06841621388, 1, 1, 5,10,54634.54471212738, 1, 1,19,10
318,0.0,0.0, 1, 1, 1,10,0.0, 1, 1, 1,10
355,35625796575.1065,12374.216038804521, 1, 2, 4,10,3829218.1540669827, 4, 7,18,30
403,10310294493.052883,12374.216038804521, 1, 2, 4,10,483183.26346918393, 1, 1,18,10
476,5569688622.065564,4732.048419519677, 1, 2, 4,10,237357.535085481, 1, 1,12,10
513,0.0,0.0, 1, 1, 1,10,0.0, 1, 1, 1,10
562,1935643645.2297165,0.0, 1, 1, 1,10,107611.62724744738, 5,12,17,10
1046,0.0,0.0, 1, 1, 1,10,0.0, 1, 1, 1,10
1096,17642984988.263973,0.0, 1, 1, 1,10,1390530.242893252, 7,19,17,60
1134,1231755343.9481077,0.0, 1, 1,12,50,1056763.9921592309, 1, 2, 6,10
1323,25315502082.05766,0.0, 1, 1, 1,10,3375000.000000001, 1,16, 8,40
1360,261748800.0,4979.999999999998, 3,11, 9,60,4980.000000000002, 1, 3,18,60
1388,0.0,0.0, 1, 1, 1,10,0.0, 1, 1, 1,10
End of Data
 Number of Records Written=          87
