Program Version,EnergyPlus, Version 22.2.0-c249759bad, YMD=2023.07.07 15:20
1,5,Environment Title[],Latitude[deg],Longitude[deg],Time Zone[],Elevation[m]
2,8,Day of Simulation[],Month[],Day of Month[],DST Indicator[1=yes 0=no],Hour[],StartMinute[],EndMinute[],DayType
3,5,Cumulative Day of Simulation[],Month[],Day of Month[],DST Indicator[1=yes 0=no],DayType  ! When Daily Report Variables Requested
4,2,Cumulative Days of Simulation[],Month[]  ! When Monthly Report Variables Requested
5,1,Cumulative Days of Simulation[] ! When Run Period Report Variables Requested
6,1,Calendar Year of Simulation[] ! When Annual Report Variables Requested
581,11,LIVING,AFN Zone Infiltration Air Change Rate [ach] !RunPeriod [Value,Min,Month,Day,Hour,Minute,Max,Month,Day,Hour,Minute]
582,11,ATTIC,AFN Zone Infiltration Air Change Rate [ach] !RunPeriod [Value,Min,Month,Day,Hour,Minute,Max,Month,Day,Hour,Minute]
583,11,CRAWLSPACE,AFN Zone Infiltration Air Change Rate [ach] !RunPeriod [Value,Min,Month,Day,Hour,Minute,Max,Month,Day,Hour,Minute]
1038,11,Facility,Facility Heating Setpoint Not Met Time [hr] !RunPeriod [Value,Min,Month,Day,Hour,Minute,Max,Month,Day,Hour,Minute]
1039,11,Facility,Facility Cooling Setpoint Not Met Time [hr] !RunPeriod [Value,Min,Month,Day,Hour,Minute,Max,Month,Day,Hour,Minute]
1115,11,DX_HEATING_COIL,Heating Coil Heating Energy [J] !RunPeriod [Value,Min,Month,Day,Hour,Minute,Max,Month,Day,Hour,Minute]
1128,11,DX_HEATING_COIL,Heating Coil Electricity Energy [J] !RunPeriod [Value,Min,Month,Day,Hour,Minute,Max,Month,Day,Hour,Minute]
1153,11,DX_HEATING_COIL,Heating Coil Defrost Electricity Energy [J] !RunPeriod [Value,Min,Month,Day,Hour,Minute,Max,Month,Day,Hour,Minute]
1154,11,DX_HEATING_COIL,Heating Coil Crankcase Heater Electricity Energy [J] !RunPeriod [Value,Min,Month,Day,Hour,Minute,Max,Month,Day,Hour,Minute]
1156,11,HEATING_RESISTANCE_BACKUP,Heating Coil Electricity Energy [J] !RunPeriod [Value,Min,Month,Day,Hour,Minute,Max,Month,Day,Hour,Minute]
13,11,Electricity:Facility [J] !RunPeriod [Value,Min,Month,Day,Hour,Minute,Max,Month,Day,Hour,Minute]
1134,11,Heating:Electricity [J] !RunPeriod [Value,Min,Month,Day,Hour,Minute,Max,Month,Day,Hour,Minute]
1096,11,Cooling:Electricity [J] !RunPeriod [Value,Min,Month,Day,Hour,Minute,Max,Month,Day,Hour,Minute]
562,11,Fans:Electricity [J] !RunPeriod [Value,Min,Month,Day,Hour,Minute,Max,Month,Day,Hour,Minute]
1388,11,Pumps:Electricity [J] !RunPeriod [Value,Min,Month,Day,Hour,Minute,Max,Month,Day,Hour,Minute]
1360,11,WaterSystems:Electricity [J] !RunPeriod [Value,Min,Month,Day,Hour,Minute,Max,Month,Day,Hour,Minute]
61,11,InteriorLights:Electricity [J] !RunPeriod [Value,Min,Month,Day,Hour,Minute,Max,Month,Day,Hour,Minute]
1046,11,ExteriorLights:Electricity [J] !RunPeriod [Value,Min,Month,Day,Hour,Minute,Max,Month,Day,Hour,Minute]
134,11,InteriorEquipment:Electricity [J] !RunPeriod [Value,Min,Month,Day,Hour,Minute,Max,Month,Day,Hour,Minute]
170,11,gas_dryer:InteriorEquipment:Electricity [J] !RunPeriod [Value,Min,Month,Day,Hour,Minute,Max,Month,Day,Hour,Minute]
207,11,clotheswasher:InteriorEquipment:Electricity [J] !RunPeriod [Value,Min,Month,Day,Hour,Minute,Max,Month,Day,Hour,Minute]
244,11,dishwasher:InteriorEquipment:Electricity [J] !RunPeriod [Value,Min,Month,Day,Hour,Minute,Max,Month,Day,Hour,Minute]
281,11,refrigerator:InteriorEquipment:Electricity [J] !RunPeriod [Value,Min,Month,Day,Hour,Minute,Max,Month,Day,Hour,Minute]
318,11,electric_mels:InteriorEquipment:Electricity [J] !RunPeriod [Value,Min,Month,Day,Hour,Minute,Max,Month,Day,Hour,Minute]
355,11,NaturalGas:Facility [J] !RunPeriod [Value,Min,Month,Day,Hour,Minute,Max,Month,Day,Hour,Minute]
1323,11,WaterSystems:NaturalGas [J] !RunPeriod [Value,Min,Month,Day,Hour,Minute,Max,Month,Day,Hour,Minute]
403,11,InteriorEquipment:NaturalGas [J] !RunPeriod [Value,Min,Month,Day,Hour,Minute,Max,Month,Day,Hour,Minute]
476,11,gas_dryer:InteriorEquipment:NaturalGas [J] !RunPeriod [Value,Min,Month,Day,Hour,Minute,Max,Month,Day,Hour,Minute]
513,11,gas_mels:InteriorEquipment:NaturalGas [J] !RunPeriod [Value,Min,Month,Day,Hour,Minute,Max,Month,Day,Hour,Minute]
End of Data Dictionary
1,EXTREME_WINTER,  33.94, -81.12,  -5.00,  69.00
5,7
1038,0.16666666666666666,0.0, 1,20, 1,10,0.16666666666666666, 1,21, 6,10
1039,0.0,0.0, 1,20, 1,10,0.0, 1,20, 1,10
581,0.2343870935709162,0.10846544321307071, 1,26,20,55,0.47973980433455254, 1,23,15,60
582,2.7561283302102475,0.0, 1,20, 4,20,12.2750295135549, 1,22, 9,60
583,3.16041106907734,0.00009625617249126287, 1,26,10,45,12.36144052076486, 1,23,15,60
1115,649220419.457468,0.0, 1,20, 1, 5,2870275.7403627373, 1,24, 6,30
1128,203416706.89124954,0.0, 1,20, 1, 5,893467.75854076, 1,24, 6,30
1153,9673398.881732857,0.0, 1,20, 1, 5,41143.0256501378, 1,22,10,10
1154,69744528.687348,0.0, 1,20, 6, 2,120000.0, 1,20, 1,20
1156,4934393.470780782,0.0, 1,20, 1, 5,647140.5971228265, 1,26, 6, 3
13,705786493.4236982,186324.6925987483, 1,21,15,10,2358221.571336983, 1,23, 6,10
61,301924526.0238348,58759.40635443481, 1,20, 1,10,854682.2742463244, 1,20,20,10
134,70666020.44019979,42376.01200569399, 1,20, 4,10,104369.48322671017, 1,25,20,10
170,5241013.419656074,232.27731661587313, 1,20, 4,10,11650.931360040839, 1,25,12,10
207,6509451.13922266,543.5021409221355, 1,20, 3,10,15327.095199349082, 1,25,10,10
244,12749673.39982522,1014.5707620042115, 1,20, 4,10,35359.08742820678, 1,25,20,10
281,46165882.48149605,39959.06841621388, 1,20, 5,10,54634.54471212738, 1,20,19,10
318,0.0,0.0, 1,20, 1,10,0.0, 1,20, 1,10
355,744448137.8014531,12374.216038804521, 1,20, 4,10,3829218.154066982, 1,21,18,60
403,197687796.27748126,12374.216038804521, 1,20, 4,10,483183.26346918393, 1,25,18,10
476,106772067.24485692,4732.048419519677, 1,20, 4,10,237357.535085481, 1,25,12,10
513,0.0,0.0, 1,20, 1,10,0.0, 1,20, 1,10
562,23720965.265350778,0.0, 1,20, 1,10,94531.80163735281, 1,23, 6,30
1046,0.0,0.0, 1,20, 1,10,0.0, 1,20, 1,10
1096,16686113.763201797,0.0, 1,20, 1,10,242161.84814792822, 1,26,18,10
1134,287769027.93111104,0.0, 1,21,14,60,1855782.9076171143, 1,23, 6,10
1323,546760341.523969,0.0, 1,20, 1,10,3375000.000000001, 1,23,21,40
1360,5019840.0,4979.999999999999, 1,22,10,10,4980.000000000001, 1,20, 1,50
1388,0.0,0.0, 1,20, 1,10,0.0, 1,20, 1,10
1,EXTREME_SUMMER,  33.94, -81.12,  -5.00,  69.00
5,7
1038,0.0,0.0, 6,22, 1,10,0.0, 6,22, 1,10
1039,50.333333333333336,0.0, 6,22, 1,10,0.16666666666666666, 6,22,15,50
581,0.050072349257689296,0.0, 6,22, 1,10,0.24505678259968205, 6,22,17,56
582,2.2953085586596496,0.0, 6,25,20,23,9.759144543537658, 6,27,10,55
583,2.5264999882256864,0.0, 6,25, 6, 7,9.26959385842287, 6,27,10,55
1115,0.0,0.0, 6,22, 1,10,0.0, 6,22, 1,10
1128,0.0,0.0, 6,22, 1,10,0.0, 6,22, 1,10
1153,0.0,0.0, 6,22, 1,10,0.0, 6,22, 1,10
1154,0.0,0.0, 6,22, 1,10,0.0, 6,22, 1,10
1156,0.0,0.0, 6,22, 1,10,0.0, 6,22, 1,10
13,1081944680.8242934,196731.97565797233, 6,24, 4,60,2077119.4900163272, 6,26,20,10
61,301924526.0238348,58759.40635443481, 6,22, 1,10,854682.2742463244, 6,22,20,10
134,70666020.44019979,42376.01200569399, 6,22, 4,10,104369.48322671017, 6,27,20,10
170,5241013.419656074,232.27731661587313, 6,22, 4,10,11650.931360040839, 6,27,12,10
207,6509451.13922266,543.5021409221355, 6,22, 3,10,15327.095199349082, 6,27,10,10
244,12749673.39982522,1014.5707620042115, 6,22, 4,10,35359.08742820678, 6,27,20,10
281,46165882.48149605,39959.06841621388, 6,22, 5,10,54634.54471212738, 6,22,19,10
318,0.0,0.0, 6,22, 1,10,0.0, 6,22, 1,10
355,659058356.9147167,12374.216038804521, 6,22, 4,10,3829218.154066982, 6,23,18,60
403,197687796.27748126,12374.216038804521, 6,22, 4,10,483183.26346918393, 6,27,18,10
476,106772067.24485692,4732.048419519677, 6,22, 4,10,237357.535085481, 6,27,12,10
513,0.0,0.0, 6,22, 1,10,0.0, 6,22, 1,10
562,63131283.21440902,9617.64375295372, 6,24, 4,60,94531.80163735281, 6,22,15,20
1046,0.0,0.0, 6,22, 1,10,0.0, 6,22, 1,10
1096,641203011.1458495,80998.91354488983, 6,24, 4,60,1102081.9403788366, 6,27,17,60
1134,0.0,0.0, 6,22, 1,10,0.0, 6,22, 1,10
1323,461370560.63723445,0.0, 6,22, 1,10,3375000.0, 6,22, 9,50
1360,5019840.0,4980.0, 6,22, 1,10,4980.000000000002, 6,28,10,40
1388,0.0,0.0, 6,22, 1,10,0.0, 6,22, 1,10
1,ANNUAL,  33.94, -81.12,  -5.00,  69.00
5,365
1038,2.8333333333333326,0.0, 1, 1, 1,10,0.16666666666666666, 1, 4, 6,10
1039,904.666666666666,0.0, 1, 1, 1,10,0.16666666666666666, 2,14,15,40
581,0.13694622278563628,0.0, 4,28,21,45,0.82103436544927, 3, 9,16,60
582,2.6853006668722785,0.0, 1, 1,21,60,28.113026003043483,11,16,24,60
583,3.012805277864676,0.0, 5, 5,23, 2,23.20057833455707, 5,29,15,52
1115,4283368872.867352,0.0, 1, 1, 1,10,2978184.3640817106, 2,12, 6,30
1128,1312845842.8002136,0.0, 1, 1, 1,10,928195.7418582415, 1, 6, 6,30
1153,62485943.96314346,0.0, 1, 1, 1,10,65977.5033152658, 2,13, 8,10
1154,1132307426.1773815,0.0, 1, 1, 1,10,120000.0, 1, 2, 4,10
1156,36347133.67967128,0.0, 1, 1, 1,10,677817.1095492059, 1,19, 6,40
13,40367487271.27677,106115.4183601288, 1,10, 4,10,2518237.469554062, 1,19, 6,10
61,15743207428.39043,58759.40635443481, 1, 1, 1,10,854682.2742463244, 1, 1,20,10
134,3685071073.433083,42376.01200569399, 1, 2, 4,10,104369.48322671017, 1, 1,20,10
170,273393721.45534325,232.27731661587313, 1, 2, 4,10,11650.931360040839, 1, 1,12,10
207,339560869.06955314,543.5021409221355, 1, 2, 3,10,15327.095199349082, 1, 1,10,10
244,664895467.8009839,1014.5707620042115, 1, 2, 4,10,35359.08742820678, 1, 1,20,10
281,2407221015.1057043,39959.06841621388, 1, 1, 5,10,54634.54471212738, 1, 1,19,10
318,0.0,0.0, 1, 1, 1,10,0.0, 1, 1, 1,10
355,35639600769.465225,12374.216038804521, 1, 2, 4,10,3829218.1540669827, 2, 3,18,20
403,10310294493.052883,12374.216038804521, 1, 2, 4,10,483183.26346918393, 1, 1,18,10
476,5569688622.065564,4732.048419519677, 1, 2, 4,10,237357.535085481, 1, 1,12,10
513,0.0,0.0, 1, 1, 1,10,0.0, 1, 1, 1,10
562,1880107050.692154,0.0, 1, 1, 1,10,94531.80163735282, 6,11,16,50
1046,0.0,0.0, 1, 1, 1,10,0.0, 1, 1, 1,10
1096,16253366572.146582,0.0, 1, 1, 1,10,1103267.9686998492, 6,27,17,60
1134,2543986346.6204114,0.0, 1, 1, 1,10,2006146.3449060568, 1,19, 6,10
1323,25329306276.416225,0.0, 1, 1, 1,10,3375000.000000002, 3,29,16,10
1360,261748800.0,4979.999999999998, 3, 2,10,10,4980.000000000002, 1, 3, 9,60
1388,0.0,0.0, 1, 1, 1,10,0.0, 1, 1, 1,10
End of Data
 Number of Records Written=          87
