Program Version,EnergyPlus, Version 22.2.0-c249759bad, YMD=2023.09.01 14:31
1,5,Environment Title[],Latitude[deg],Longitude[deg],Time Zone[],Elevation[m]
2,8,Day of Simulation[],Month[],Day of Month[],DST Indicator[1=yes 0=no],Hour[],StartMinute[],EndMinute[],DayType
3,5,Cumulative Day of Simulation[],Month[],Day of Month[],DST Indicator[1=yes 0=no],DayType  ! When Daily Report Variables Requested
4,2,Cumulative Days of Simulation[],Month[]  ! When Monthly Report Variables Requested
5,1,Cumulative Days of Simulation[] ! When Run Period Report Variables Requested
6,1,Calendar Year of Simulation[] ! When Annual Report Variables Requested
7,1,Environment,Site Outdoor Air Drybulb Temperature [C] !Hourly
545,1,LIVING,Zone Mean Air Temperature [C] !Hourly
546,1,ATTIC,Zone Mean Air Temperature [C] !Hourly
547,1,CRAWLSPACE,Zone Mean Air Temperature [C] !Hourly
548,1,FAN,Fan Electricity Rate [W] !Hourly
720,1,LIVING,Zone Predicted Sensible Load to Heating Setpoint Heat Transfer Rate [W] !Hourly
721,1,LIVING,Zone System Predicted Sensible Load to Heating Setpoint Heat Transfer Rate [W] !Hourly
784,1,ATTIC,Zone Predicted Sensible Load to Heating Setpoint Heat Transfer Rate [W] !Hourly
785,1,ATTIC,Zone System Predicted Sensible Load to Heating Setpoint Heat Transfer Rate [W] !Hourly
848,1,CRAWLSPACE,Zone Predicted Sensible Load to Heating Setpoint Heat Transfer Rate [W] !Hourly
849,1,CRAWLSPACE,Zone System Predicted Sensible Load to Heating Setpoint Heat Transfer Rate [W] !Hourly
1121,1,DX_HEATING_COIL,Heating Coil Heating Rate [W] !Hourly
1135,1,DX_HEATING_COIL,Heating Coil Electricity Rate [W] !Hourly
1161,1,DX_HEATING_COIL,Heating Coil Defrost Electricity Rate [W] !Hourly
1163,1,DX_HEATING_COIL,Heating Coil Crankcase Heater Electricity Rate [W] !Hourly
1166,1,HEATING_RESISTANCE_BACKUP,Heating Coil Heating Rate [W] !Hourly
1168,1,HEATING_RESISTANCE_BACKUP,Heating Coil Electricity Rate [W] !Hourly
End of Data Dictionary
1,EXTREME_WINTER,  35.27,-113.93,  -7.00,1033.00
2,1,12,22, 0, 1, 0.00,60.00,Monday
7,3.3
545,19.301835427180123
546,4.478061835042803
547,19.520584543205903
548,0.0
720,-398.0299172869645
721,-398.0299172869645
784,0.0
785,0.0
848,0.0
849,0.0
1121,0.0
1135,0.0
1161,0.0
1163,200.0
1166,0.0
1168,0.0
2,1,12,22, 0, 2, 0.00,60.00,Monday
7,4.4
545,19.02325979876431
546,2.411829910616648
547,19.250375130449264
548,0.0
720,-306.17229738974856
721,-306.17229738974856
784,0.0
785,0.0
848,0.0
849,0.0
1121,0.0
1135,0.0
1161,0.0
1163,200.0
1166,0.0
1168,0.0
2,1,12,22, 0, 3, 0.00,60.00,Monday
7,4.4
545,18.667817010758895
546,2.3403563862522843
547,19.08993360138451
548,5.365899515193824
720,91.64615536457859
721,91.64615536457859
784,0.0
785,0.0
848,0.0
849,0.0
1121,160.76644012542832
1135,50.36739909985971
1161,3.4330115252462297
1163,194.7697755171018
1166,0.0
1168,0.0
2,1,12,22, 0, 4, 0.00,60.00,Monday
7,4.4
545,18.507415473186693
546,2.5418070798241823
547,18.91734060846478
548,14.662382992602318
720,354.61487224741904
721,354.61487224741904
784,0.0
785,0.0
848,0.0
849,0.0
1121,442.205610123304
1135,136.6563098841493
1161,9.386656138114239
1163,185.7083984042755
1166,0.0
1168,0.0
2,1,12,22, 0, 5, 0.00,60.00,Monday
7,4.4
545,18.562985491916653
546,2.6475123004456047
547,18.757214821416767
548,25.26512642076717
720,621.4512530744232
721,621.4512530744232
784,0.0
785,0.0
848,0.0
849,0.0
1121,766.9527787216743
1135,234.7093065851726
1161,16.17434361302195
1163,175.37384223002974
1166,0.0
1168,0.0
2,1,12,22, 0, 6, 0.00,60.00,Monday
7,3.3
545,19.432100758634405
546,1.6232652358888915
547,18.585706130296142
548,59.91080592038395
720,1578.1151801815413
721,1578.1151801815413
784,0.0
785,0.0
848,0.0
849,0.0
1121,1925.8510493770316
1135,588.0159713907331
1161,11.973920248128964
1163,141.72288100926036
1166,0.0
1168,0.0
2,1,12,22, 0, 7, 0.00,60.00,Monday
7,4.4
545,19.670999045155103
546,2.948853326498046
547,18.466523327951208
548,59.18842503238995
720,1580.846319524504
721,1580.846319524504
784,0.0
785,0.0
848,0.0
849,0.0
1121,2006.3211178160605
1135,613.8210384693839
1161,0.028512286519892484
1163,142.50966014881718
1166,0.0
1168,0.0
2,1,12,22, 0, 8, 0.00,60.00,Monday
7,5.6
545,19.775099922991636
546,3.621287407927851
547,18.348384544049388
548,43.72250262159875
720,1360.264392446912
721,1360.264392446912
784,0.0
785,0.0
848,0.0
849,0.0
1121,1730.1494733193063
1135,483.29059547175405
1161,0.0
1163,157.531975716339
1166,0.0
1168,0.0
2,1,12,22, 0, 9, 0.00,60.00,Monday
7,7.8
545,19.909086746454346
546,5.419881568765609
547,18.242456199127655
548,20.426517787718748
720,635.8342525597091
721,635.8342525597091
784,0.0
785,0.0
848,0.0
849,0.0
1121,843.1167785386335
1135,231.60174859907352
1161,0.0
1163,180.15955625991674
1166,0.0
1168,0.0
2,1,12,22, 0,10, 0.00,60.00,Monday
7,11.1
545,20.121946939112984
546,9.41424866624217
547,18.14779849022575
548,0.0
720,-207.41222376520273
721,-207.41222376520273
784,0.0
785,0.0
848,0.0
849,0.0
1121,0.0
1135,0.0
1161,0.0
1163,0.0
1166,0.0
1168,0.0
2,1,12,22, 0,11, 0.00,60.00,Monday
7,11.1
545,21.05075349648206
546,15.283730766575761
547,18.080755435060794
548,0.0
720,-1065.4801184908501
721,-1065.4801184908501
784,0.0
785,0.0
848,0.0
849,0.0
1121,0.0
1135,0.0
1161,0.0
1163,0.0
1166,0.0
1168,0.0
2,1,12,22, 0,12, 0.00,60.00,Monday
7,11.7
545,20.900787711486135
546,16.27081447788307
547,18.04408488589858
548,0.0
720,-949.6144177846763
721,-949.6144177846763
784,0.0
785,0.0
848,0.0
849,0.0
1121,0.0
1135,0.0
1161,0.0
1163,0.0
1166,0.0
1168,0.0
2,1,12,22, 0,13, 0.00,60.00,Monday
7,11.1
545,20.585530381835863
546,15.153644361249382
547,18.024425252349005
548,0.0
720,-578.8461841659009
721,-578.8461841659009
784,0.0
785,0.0
848,0.0
849,0.0
1121,0.0
1135,0.0
1161,0.0
1163,0.0
1166,0.0
1168,0.0
2,1,12,22, 0,14, 0.00,60.00,Monday
7,10.0
545,20.842774785894917
546,15.885691326986125
547,18.010680948837894
548,0.0
720,-559.4526812904187
721,-559.4526812904187
784,0.0
785,0.0
848,0.0
849,0.0
1121,0.0
1135,0.0
1161,0.0
1163,0.0
1166,0.0
1168,0.0
2,1,12,22, 0,15, 0.00,60.00,Monday
7,8.3
545,21.20306839488273
546,15.719598344420202
547,17.997809154573357
548,0.0
720,-861.6036658128305
721,-861.6036658128305
784,0.0
785,0.0
848,0.0
849,0.0
1121,0.0
1135,0.0
1161,0.0
1163,200.0
1166,0.0
1168,0.0
2,1,12,22, 0,16, 0.00,60.00,Monday
7,7.2
545,21.594735157565495
546,16.570900301204706
547,17.990652324747025
548,0.0
720,-1147.6262633669812
721,-1147.6262633669812
784,0.0
785,0.0
848,0.0
849,0.0
1121,0.0
1135,0.0
1161,0.0
1163,200.0
1166,0.0
1168,0.0
2,1,12,22, 0,17, 0.00,60.00,Monday
7,7.2
545,22.002836603414668
546,15.407306063025443
547,17.989326848638584
548,0.0
720,-1427.9421851075767
721,-1427.9421851075767
784,0.0
785,0.0
848,0.0
849,0.0
1121,0.0
1135,0.0
1161,0.0
1163,200.0
1166,0.0
1168,0.0
2,1,12,22, 0,18, 0.00,60.00,Monday
7,5.6
545,21.551855368721018
546,11.854558314717654
547,17.988305922500892
548,0.0
720,-1149.862082770338
721,-1149.862082770338
784,0.0
785,0.0
848,0.0
849,0.0
1121,0.0
1135,0.0
1161,0.0
1163,200.0
1166,0.0
1168,0.0
2,1,12,22, 0,19, 0.00,60.00,Monday
7,5.6
545,21.661923789360085
546,9.246244417123137
547,17.981685042617325
548,0.0
720,-1348.9477339814566
721,-1348.9477339814566
784,0.0
785,0.0
848,0.0
849,0.0
1121,0.0
1135,0.0
1161,0.0
1163,200.0
1166,0.0
1168,0.0
2,1,12,22, 0,20, 0.00,60.00,Monday
7,5.6
545,21.52842077249905
546,8.192454684573061
547,17.963483811395008
548,0.0
720,-1167.1394704711256
721,-1167.1394704711256
784,0.0
785,0.0
848,0.0
849,0.0
1121,0.0
1135,0.0
1161,0.0
1163,200.0
1166,0.0
1168,0.0
2,1,12,22, 0,21, 0.00,60.00,Monday
7,6.1
545,21.640341079445136
546,7.436185612306884
547,17.93378047822249
548,0.0
720,-1282.741469051727
721,-1282.741469051727
784,0.0
785,0.0
848,0.0
849,0.0
1121,0.0
1135,0.0
1161,0.0
1163,200.0
1166,0.0
1168,0.0
2,1,12,22, 0,22, 0.00,60.00,Monday
7,5.6
545,21.37935558148062
546,6.849339974766663
547,17.895952575820218
548,0.0
720,-937.6615129290903
721,-937.6615129290903
784,0.0
785,0.0
848,0.0
849,0.0
1121,0.0
1135,0.0
1161,0.0
1163,200.0
1166,0.0
1168,0.0
2,1,12,22, 0,23, 0.00,60.00,Monday
7,5.6
545,20.835607394538084
546,6.373142576491057
547,17.84870215005056
548,0.0
720,-1269.0290197705235
721,-1269.0290197705235
784,0.0
785,0.0
848,0.0
849,0.0
1121,0.0
1135,0.0
1161,0.0
1163,200.0
1166,0.0
1168,0.0
2,1,12,22, 0,24, 0.00,60.00,Monday
7,6.1
545,20.325718523391913
546,5.942258450382561
547,17.794376930680354
548,0.0
720,-981.6943788407298
721,-981.6943788407298
784,0.0
785,0.0
848,0.0
849,0.0
1121,0.0
1135,0.0
1161,0.0
1163,200.0
1166,0.0
1168,0.0
2,2,12,23, 0, 1, 0.00,60.00,Tuesday
7,5.0
545,19.27135627840011
546,5.8300531405213665
547,17.731965720288514
548,0.0
720,-366.13992207236606
721,-366.13992207236606
784,0.0
785,0.0
848,0.0
849,0.0
1121,0.0
1135,0.0
1161,0.0
1163,200.0
1166,0.0
1168,0.0
2,2,12,23, 0, 2, 0.00,60.00,Tuesday
7,5.0
545,18.6069309654864
546,5.561740594913157
547,17.665105445244468
548,0.0
720,2.9276356476639194
721,2.9276356476639194
784,0.0
785,0.0
848,0.0
849,0.0
1121,0.0
1135,0.0
1161,0.0
1163,200.0
1166,0.0
1168,0.0
2,2,12,23, 0, 3, 0.00,60.00,Tuesday
7,4.4
545,18.630259281968108
546,5.2778822936751855
547,17.590359437720185
548,12.382463293663365
720,251.82668245066634
721,251.82668245066634
784,0.0
785,0.0
848,0.0
849,0.0
1121,347.18416969728287
1135,107.44156880219846
1161,13.44324709010507
1163,187.89623900028158
1166,0.0
1168,0.0
2,2,12,23, 0, 4, 0.00,60.00,Tuesday
7,5.0
545,18.705934695882398
546,5.049448088557901
547,17.51616123387657
548,16.34088165871829
720,376.5322938352847
721,376.5322938352847
784,0.0
785,0.0
848,0.0
849,0.0
1121,469.8712420324937
1135,143.58322716049057
1161,16.95424834677212
1163,184.0535399332937
1166,0.0
1168,0.0
2,2,12,23, 0, 5, 0.00,60.00,Tuesday
7,5.0
545,18.57668599288561
546,5.1410032904138845
547,17.43730701060596
548,23.167528877810472
720,533.7675658545722
721,533.7675658545722
784,0.0
785,0.0
848,0.0
849,0.0
1121,658.9674549915442
1135,201.05005863339204
1161,26.004017258669403
1163,177.38141024595083
1166,0.0
1168,0.0
2,2,12,23, 0, 6, 0.00,60.00,Tuesday
7,5.0
545,19.297837438022434
546,5.78674887562439
547,17.347540924365983
548,58.95445920410805
720,1411.9174025780358
721,1411.9174025780358
784,0.0
785,0.0
848,0.0
849,0.0
1121,1710.878196607901
1135,510.1465514594396
1161,66.24200424809563
1163,142.44224371613657
1166,0.0
1168,0.0
2,2,12,23, 0, 7, 0.00,60.00,Tuesday
7,5.0
545,19.57364332590974
546,6.1554709067354985
547,17.286945454018113
548,69.78966996432942
720,1635.6075011195899
721,1635.6075011195899
784,0.0
785,0.0
848,0.0
849,0.0
1121,2030.8988036680478
1135,612.1971678453806
1161,78.44794251428205
1163,131.8624535883712
1166,0.0
1168,0.0
2,2,12,23, 0, 8, 0.00,60.00,Tuesday
7,5.6
545,19.828029091783538
546,5.868413189878565
547,17.224921773632566
548,47.84142391454514
720,1529.499997957224
721,1529.499997957224
784,0.0
785,0.0
848,0.0
849,0.0
1121,1898.6733597742098
1135,527.3239880468452
1161,0.0
1163,153.53123378705783
1166,0.0
1168,0.0
2,2,12,23, 0, 9, 0.00,60.00,Tuesday
7,5.6
545,19.787403374031065
546,6.72007419553776
547,17.161124240576104
548,27.09250280804081
720,825.7969809885344
721,825.7969809885344
784,0.0
785,0.0
848,0.0
849,0.0
1121,1061.9019316223348
1135,300.08962208178826
1161,0.0
1163,173.68483050673643
1166,0.0
1168,0.0
2,2,12,23, 0,10, 0.00,60.00,Tuesday
7,7.2
545,19.83840838156027
546,8.528916761612868
547,17.106998456193768
548,17.499595091093827
720,559.5191835487312
721,559.5191835487312
784,0.0
785,0.0
848,0.0
849,0.0
1121,710.5862829411428
1135,196.9715611015706
1161,0.0
1163,183.00250020647988
1166,0.0
1168,0.0
2,2,12,23, 0,11, 0.00,60.00,Tuesday
7,7.2
545,19.73859997218326
546,10.449476532642125
547,17.063164290783423
548,9.581969102720482
720,304.26827478236555
721,304.26827478236555
784,0.0
785,0.0
848,0.0
849,0.0
1121,387.34536589008917
1135,107.95429882761833
1161,0.0
1163,190.6929550656919
1166,0.0
1168,0.0
2,2,12,23, 0,12, 0.00,60.00,Tuesday
7,7.8
545,19.885938597135823
546,12.455740964764988
547,17.033180105520515
548,10.744103353761759
720,366.31000189795486
721,366.31000189795486
784,0.0
785,0.0
848,0.0
849,0.0
1121,441.3316272199529
1135,121.61729639942682
1161,0.0
1163,189.5641645657237
1166,0.0
1168,0.0
2,2,12,23, 0,13, 0.00,60.00,Tuesday
7,7.8
545,19.71029235537843
546,12.205807178463717
547,17.007802382934845
548,10.63864917823167
720,366.6625852532379
721,366.6625852532379
784,0.0
785,0.0
848,0.0
849,0.0
1121,436.7011603282716
1135,120.75122432496316
1161,0.0
1163,189.66659306863866
1166,0.0
1168,0.0
2,2,12,23, 0,14, 0.00,60.00,Tuesday
7,7.8
545,19.70261477190945
546,12.14917553537935
547,16.982899432421465
548,9.801386001552574
720,337.7600049894754
721,337.7600049894754
784,0.0
785,0.0
848,0.0
849,0.0
1121,402.45725533131355
1135,110.88282732114467
1161,0.0
1163,190.47983363784292
1166,0.0
1168,0.0
2,2,12,23, 0,15, 0.00,60.00,Tuesday
7,7.2
545,19.062034186264583
546,9.292772267688399
547,16.955850718894332
548,11.135467916982229
720,380.2364311663423
721,380.2364311663423
784,0.0
785,0.0
848,0.0
849,0.0
1121,450.7994229288124
1135,125.12166486831511
1161,0.0
1163,189.1840289655625
1166,0.0
1168,0.0
2,2,12,23, 0,16, 0.00,60.00,Tuesday
7,7.2
545,19.453171248602786
546,9.082306615144036
547,16.93203879215471
548,26.18295401182271
720,909.6764707227967
721,909.6764707227967
784,0.0
785,0.0
848,0.0
849,0.0
1121,1071.5890538576537
1135,290.6783533547537
1161,0.0
1163,174.56828268922618
1166,0.0
1168,0.0
2,2,12,23, 0,17, 0.00,60.00,Tuesday
7,6.1
545,19.875968408885154
546,8.26998407000704
547,16.911481924293206
548,28.904213195875034
720,956.9730584747995
721,956.9730584747995
784,0.0
785,0.0
848,0.0
849,0.0
1121,1150.4917962528402
1135,319.441296168416
1161,0.0
1163,171.9251013939867
1166,0.0
1168,0.0
2,2,12,23, 0,18, 0.00,60.00,Tuesday
7,6.1
545,19.936958980942823
546,7.690341323841322
547,16.88767881436302
548,20.128123516705553
720,642.5826922013894
721,642.5826922013894
784,0.0
785,0.0
848,0.0
849,0.0
1121,795.8777418802398
1135,224.25072123544436
1161,0.0
1163,180.4493890551061
1166,0.0
1168,0.0
2,2,12,23, 0,19, 0.00,60.00,Tuesday
7,6.1
545,19.704517911432628
546,7.101727712156008
547,16.855223648267977
548,9.868620821409907
720,301.71206147437624
721,301.71206147437624
784,0.0
785,0.0
848,0.0
849,0.0
1121,387.9537895818784
1135,110.07806460811203
1161,0.0
1163,190.41452790758495
1166,0.0
1168,0.0
2,2,12,23, 0,20, 0.00,60.00,Tuesday
7,6.1
545,20.092569327110663
546,6.8800109005688
547,16.823715490589585
548,8.853843880888947
720,279.9310434503759
721,279.9310434503759
784,0.0
785,0.0
848,0.0
849,0.0
1121,348.2325251137155
1135,98.32093839671474
1161,0.0
1163,191.40018904701054
1166,0.0
1168,0.0
2,2,12,23, 0,21, 0.00,60.00,Tuesday
7,6.1
545,19.59375780278025
546,6.595186705528049
547,16.785303841960186
548,1.3133303686938114
720,30.806482401367248
721,30.806482401367248
784,0.0
785,0.0
848,0.0
849,0.0
1121,51.35787209549876
1135,14.692644453818168
1161,0.0
1163,198.72435147473453
1166,0.0
1168,0.0
2,2,12,23, 0,22, 0.00,60.00,Tuesday
7,6.1
545,19.80971914011698
546,6.631048684441691
547,16.748265793443874
548,9.767054119694082
720,322.0987911958746
721,322.0987911958746
784,0.0
785,0.0
848,0.0
849,0.0
1121,384.5328602790925
1135,108.22717024403516
1161,0.0
1163,190.51318047539905
1166,0.0
1168,0.0
2,2,12,23, 0,23, 0.00,60.00,Tuesday
7,6.1
545,18.94677097173602
546,6.43137313178303
547,16.704035805914053
548,0.0
720,-217.16029385310867
721,-217.16029385310867
784,0.0
785,0.0
848,0.0
849,0.0
1121,0.0
1135,0.0
1161,0.0
1163,200.0
1166,0.0
1168,0.0
2,2,12,23, 0,24, 0.00,60.00,Tuesday
7,6.1
545,18.61797206044547
546,6.471455709684047
547,16.6583398375593
548,7.506693056350858
720,240.0749303031689
721,240.0749303031689
784,0.0
785,0.0
848,0.0
849,0.0
1121,296.0288648609647
1135,82.16312724500021
1161,0.0
1163,192.708687657563
1166,0.0
1168,0.0
2,3,12,24, 0, 1, 0.00,60.00,Wednesday
7,6.1
545,18.685697180628352
546,6.70460206391784
547,16.60888041056083
548,14.377493062755692
720,475.512452990979
721,475.512452990979
784,0.0
785,0.0
848,0.0
849,0.0
1121,569.903315919275
1135,156.38542924731954
1161,0.0
1163,186.03502343377642
1166,0.0
1168,0.0
2,3,12,24, 0, 2, 0.00,60.00,Wednesday
7,6.1
545,18.63370305545784
546,6.716937388233876
547,16.557029623745148
548,21.81769095446991
720,722.6097828277561
721,722.6097828277561
784,0.0
785,0.0
848,0.0
849,0.0
1121,868.0577460428655
1135,237.59948971170292
1161,0.0
1163,178.80829838843385
1166,0.0
1168,0.0
2,3,12,24, 0, 3, 0.00,60.00,Wednesday
7,5.6
545,18.605867663550306
546,6.567688932845903
547,16.503227793125934
548,26.72612564899176
720,871.0076287503689
721,871.0076287503689
784,0.0
785,0.0
848,0.0
849,0.0
1121,1053.0406082473753
1135,289.2167125762209
1161,0.0
1163,174.04069563692198
1166,0.0
1168,0.0
2,3,12,24, 0, 4, 0.00,60.00,Wednesday
7,5.6
545,18.632251161327204
546,6.391664783856425
547,16.450691253687733
548,30.431324538451836
720,990.3134112185198
721,990.3134112185198
784,0.0
785,0.0
848,0.0
849,0.0
1121,1201.6050298470675
1135,329.12058130900414
1161,0.0
1163,170.44180566085615
1166,0.0
1168,0.0
2,3,12,24, 0, 5, 0.00,60.00,Wednesday
7,6.1
545,18.634283555983465
546,6.448600356671267
547,16.40075878827509
548,29.02571259947121
720,948.396701725982
721,948.396701725982
784,0.0
785,0.0
848,0.0
849,0.0
1121,1159.6697207985603
1135,315.7312267232513
1161,0.0
1163,171.80708802986092
1166,0.0
1168,0.0
2,3,12,24, 0, 6, 0.00,60.00,Wednesday
7,6.1
545,19.52385030527973
546,6.8403011713095605
547,16.352356720431278
548,51.465780426672154
720,1733.1523565643074
721,1733.1523565643074
784,0.0
785,0.0
848,0.0
849,0.0
1121,2081.6105921294193
1135,559.7774675597414
1161,0.0
1163,150.01086667308525
1166,0.0
1168,0.0
2,3,12,24, 0, 7, 0.00,60.00,Wednesday
7,5.6
545,19.659719516848472
546,6.657697402626732
547,16.315903712546103
548,49.272261662287455
720,1592.3759389345905
721,1592.3759389345905
784,0.0
785,0.0
848,0.0
849,0.0
1121,1957.785293881125
1135,542.1571383708274
1161,0.0
1163,152.14144938374963
1166,0.0
1168,0.0
2,3,12,24, 0, 8, 0.00,60.00,Wednesday
7,6.1
545,19.667146569776808
546,6.915086192040764
547,16.272088696288534
548,43.625178468993816
720,1411.107595860618
721,1411.107595860618
784,0.0
785,0.0
848,0.0
849,0.0
1121,1749.0500098805219
1135,483.7577202282124
1161,0.0
1163,157.6265074615134
1166,0.0
1168,0.0
2,3,12,24, 0, 9, 0.00,60.00,Wednesday
7,7.2
545,19.900543352788947
546,7.904453401400331
547,16.23013949891065
548,25.026502933710695
720,803.8714325233123
721,803.8714325233123
784,0.0
785,0.0
848,0.0
849,0.0
1121,1021.0755044078037
1135,280.8463686688764
1161,0.0
1163,175.691553076861
1166,0.0
1168,0.0
2,3,12,24, 0,10, 0.00,60.00,Wednesday
7,7.8
545,19.81071793270748
546,9.251602429504578
547,16.19265903459102
548,0.0
720,-87.90213829089043
721,-87.90213829089043
784,0.0
785,0.0
848,0.0
849,0.0
1121,0.0
1135,0.0
1161,0.0
1163,200.0
1166,0.0
1168,0.0
2,3,12,24, 0,11, 0.00,60.00,Wednesday
7,8.3
545,20.503062720356525
546,12.741721726540648
547,16.188198149710974
548,0.0
720,-564.1776305031017
721,-564.1776305031017
784,0.0
785,0.0
848,0.0
849,0.0
1121,0.0
1135,0.0
1161,0.0
1163,200.0
1166,0.0
1168,0.0
2,3,12,24, 0,12, 0.00,60.00,Wednesday
7,8.9
545,20.433006750492243
546,13.557600976405011
547,16.2018585320443
548,0.0
720,-510.77966228876176
721,-510.77966228876176
784,0.0
785,0.0
848,0.0
849,0.0
1121,0.0
1135,0.0
1161,0.0
1163,200.0
1166,0.0
1168,0.0
2,3,12,24, 0,13, 0.00,60.00,Wednesday
7,8.3
545,20.131763704317454
546,13.153062627974787
547,16.22655742223369
548,0.0
720,-255.59768747233102
721,-255.59768747233102
784,0.0
785,0.0
848,0.0
849,0.0
1121,0.0
1135,0.0
1161,0.0
1163,200.0
1166,0.0
1168,0.0
2,3,12,24, 0,14, 0.00,60.00,Wednesday
7,7.8
545,20.147765788977868
546,13.105336731373642
547,16.254913833681282
548,0.0
720,-284.6817166428391
721,-284.6817166428391
784,0.0
785,0.0
848,0.0
849,0.0
1121,0.0
1135,0.0
1161,0.0
1163,200.0
1166,0.0
1168,0.0
2,3,12,24, 0,15, 0.00,60.00,Wednesday
7,8.9
545,20.31546565027893
546,13.945396930629984
547,16.280610606577344
548,0.0
720,-364.1346366047328
721,-364.1346366047328
784,0.0
785,0.0
848,0.0
849,0.0
1121,0.0
1135,0.0
1161,0.0
1163,200.0
1166,0.0
1168,0.0
2,3,12,24, 0,16, 0.00,60.00,Wednesday
7,9.4
545,20.14217575126582
546,13.02645976575811
547,16.300137198140195
548,0.0
720,-215.45986540651575
721,-215.45986540651575
784,0.0
785,0.0
848,0.0
849,0.0
1121,0.0
1135,0.0
1161,0.0
1163,200.0
1166,0.0
1168,0.0
2,3,12,24, 0,17, 0.00,60.00,Wednesday
7,9.4
545,20.935625693746182
546,12.395746190330192
547,16.315924058579604
548,0.0
720,-606.3233296546632
721,-606.3233296546632
784,0.0
785,0.0
848,0.0
849,0.0
1121,0.0
1135,0.0
1161,0.0
1163,200.0
1166,0.0
1168,0.0
2,3,12,24, 0,18, 0.00,60.00,Wednesday
7,8.9
545,20.057758993367766
546,10.837949438517011
547,16.32906095920361
548,0.0
720,-209.68368744390318
721,-209.68368744390318
784,0.0
785,0.0
848,0.0
849,0.0
1121,0.0
1135,0.0
1161,0.0
1163,200.0
1166,0.0
1168,0.0
2,3,12,24, 0,19, 0.00,60.00,Wednesday
7,8.9
545,20.815088773960827
546,10.13635698922484
547,16.34769477396326
548,0.0
720,-815.433983247698
721,-815.433983247698
784,0.0
785,0.0
848,0.0
849,0.0
1121,0.0
1135,0.0
1161,0.0
1163,200.0
1166,0.0
1168,0.0
2,3,12,24, 0,20, 0.00,60.00,Wednesday
7,8.3
545,21.220142439613813
546,9.265607697866036
547,16.353827318699636
548,0.0
720,-578.5771013293024
721,-578.5771013293024
784,0.0
785,0.0
848,0.0
849,0.0
1121,0.0
1135,0.0
1161,0.0
1163,200.0
1166,0.0
1168,0.0
2,3,12,24, 0,21, 0.00,60.00,Wednesday
7,8.9
545,21.06700572851964
546,9.180495534218613
547,16.351137759195932
548,0.0
720,-815.9016866626425
721,-815.9016866626425
784,0.0
785,0.0
848,0.0
849,0.0
1121,0.0
1135,0.0
1161,0.0
1163,200.0
1166,0.0
1168,0.0
2,3,12,24, 0,22, 0.00,60.00,Wednesday
7,8.3
545,20.975790892289893
546,8.696216223806253
547,16.344371719710555
548,0.0
720,-541.8153173455148
721,-541.8153173455148
784,0.0
785,0.0
848,0.0
849,0.0
1121,0.0
1135,0.0
1161,0.0
1163,200.0
1166,0.0
1168,0.0
2,3,12,24, 0,23, 0.00,60.00,Wednesday
7,8.3
545,20.52536200843542
546,8.405673110285726
547,16.331056879275327
548,0.0
720,-1008.1746182536026
721,-1008.1746182536026
784,0.0
785,0.0
848,0.0
849,0.0
1121,0.0
1135,0.0
1161,0.0
1163,200.0
1166,0.0
1168,0.0
2,3,12,24, 0,24, 0.00,60.00,Wednesday
7,9.4
545,19.55364582705259
546,9.127352560670097
547,16.309793120095186
548,0.0
720,-426.66559442384005
721,-426.66559442384005
784,0.0
785,0.0
848,0.0
849,0.0
1121,0.0
1135,0.0
1161,0.0
1163,200.0
1166,0.0
1168,0.0
2,4,12,25, 0, 1, 0.00,60.00,Thursday
7,10.0
545,19.10808920478209
546,9.726656189461089
547,16.28503991040721
548,0.0
720,-315.48360324160967
721,-315.48360324160967
784,0.0
785,0.0
848,0.0
849,0.0
1121,0.0
1135,0.0
1161,0.0
1163,0.0
1166,0.0
1168,0.0
2,4,12,25, 0, 2, 0.00,60.00,Thursday
7,11.1
545,18.662665137386362
546,10.98075004261817
547,16.256962012058644
548,4.82047645725791
720,148.40304608531187
721,148.40304608531187
784,0.0
785,0.0
848,0.0
849,0.0
1121,214.46870162625402
1135,56.11775366921849
1161,0.0
1163,0.0
1166,0.0
1168,0.0
2,4,12,25, 0, 3, 0.00,60.00,Thursday
7,10.6
545,18.422507993435314
546,10.997437655024314
547,16.225184822438255
548,10.360746039311204
720,385.8281351216174
721,385.8281351216174
784,0.0
785,0.0
848,0.0
849,0.0
1121,457.6545135882603
1135,118.90700827263073
1161,0.0
1163,0.0
1166,0.0
1168,0.0
2,4,12,25, 0, 4, 0.00,60.00,Thursday
7,11.1
545,18.120633934131014
546,11.626986695074255
547,16.19289326889315
548,17.00780442438305
720,647.7231164099612
721,647.7231164099612
784,0.0
785,0.0
848,0.0
849,0.0
1121,763.75357842888
1135,195.67415215826566
1161,0.0
1163,0.0
1166,0.0
1168,0.0
2,4,12,25, 0, 5, 0.00,60.00,Thursday
7,11.1
545,18.529883356818114
546,11.73536499675721
547,16.1610419392199
548,25.418204563281037
720,976.6749665080288
721,976.6749665080288
784,0.0
785,0.0
848,0.0
849,0.0
1121,1147.9987712965553
1135,290.9382132855264
1161,0.0
1163,0.0
1166,0.0
1168,0.0
2,4,12,25, 0, 6, 0.00,60.00,Thursday
7,8.9
545,19.757983233104593
546,10.627436673729179
547,16.137269948403468
548,53.440307171190355
720,1987.5970650996987
721,1987.5970650996987
784,0.0
785,0.0
848,0.0
849,0.0
1121,2320.5340481881344
1135,598.8145646592916
1161,0.0
1163,148.0929927018567
1166,0.0
1168,0.0
2,4,12,25, 0, 7, 0.00,60.00,Thursday
7,6.7
545,19.830073512217346
546,8.558753152694806
547,16.116361646565203
548,47.54951202423905
720,1607.5780657870546
721,1607.5780657870546
784,0.0
785,0.0
848,0.0
849,0.0
1121,1938.8322739893533
1135,531.534411562387
1161,0.0
1163,153.81477019286467
1166,0.0
1168,0.0
2,4,12,25, 0, 8, 0.00,60.00,Thursday
7,6.7
545,19.038280472431484
546,7.956514799250789
547,16.078953104781377
548,45.981410421272855
720,1529.8076893105754
721,1529.8076893105754
784,0.0
785,0.0
848,0.0
849,0.0
1121,1872.7234780159133
1135,514.6665750258162
1161,0.0
1163,155.33788010105914
1166,0.0
1168,0.0
2,4,12,25, 0, 9, 0.00,60.00,Thursday
7,4.4
545,19.970190065539565
546,7.230829408398328
547,16.045068338075847
548,93.66041136220716
720,2283.439837123684
721,2283.439837123684
784,0.0
785,0.0
848,0.0
849,0.0
1121,2781.047745406359
1135,829.1556446784559
1161,93.83870025673782
1163,108.49864886852805
1166,0.0
1168,0.0
2,4,12,25, 0,10, 0.00,60.00,Thursday
7,3.9
545,19.71737838773817
546,6.402666787137233
547,16.029162482718572
548,88.28967587020193
720,2045.9035432603814
721,2045.9035432603814
784,0.0
785,0.0
848,0.0
849,0.0
1121,2581.9892272117595
1135,796.6105646678103
1161,85.88858400639768
1163,113.66789576331762
1166,0.0
1168,0.0
2,4,12,25, 0,11, 0.00,60.00,Thursday
7,2.8
545,19.837151296053673
546,5.54203101846321
547,15.973035476106627
548,87.7412865179756
720,1983.2131968909434
721,1983.2131968909434
784,0.0
785,0.0
848,0.0
849,0.0
1121,2518.2311828365605
1135,788.1351454227802
1161,80.70721664248407
1163,114.04405296743674
1166,0.0
1168,0.0
2,4,12,25, 0,12, 0.00,60.00,Thursday
7,3.3
545,19.87844147510058
546,5.394223558036364
547,15.93248585663395
548,76.32205058508724
720,1726.6485669118883
721,1726.6485669118883
784,0.0
785,0.0
848,0.0
849,0.0
1121,2222.1108739741217
1135,695.0955613265354
1161,66.22305094831948
1163,125.34515250321516
1166,0.0
1168,0.0
2,4,12,25, 0,13, 0.00,60.00,Thursday
7,3.9
545,19.861133349856022
546,6.165718871202982
547,15.881758252170552
548,64.28601594939894
720,1443.668245234725
721,1443.668245234725
784,0.0
785,0.0
848,0.0
849,0.0
1121,1871.0556348895072
1135,583.6044657159782
1161,59.284629987574014
1163,137.164429404231
1166,0.0
1168,0.0
2,4,12,25, 0,14, 0.00,60.00,Thursday
7,1.1
545,19.71200049298546
546,5.397982223629546
547,15.824452221724133
548,66.36209193220898
720,1428.9199699372675
721,1428.9199699372675
784,0.0
785,0.0
848,0.0
849,0.0
1121,1832.9455241467383
1135,601.3307915170622
1161,53.19173274106565
1163,134.85743209403893
1166,0.0
1168,0.0
2,4,12,25, 0,15, 0.00,60.00,Thursday
7,1.1
545,19.609682883724833
546,5.875053780864658
547,15.777726841470402
548,72.89850888901978
720,1562.4039176091028
721,1562.4039176091028
784,0.0
785,0.0
848,0.0
849,0.0
1121,1999.5742425210615
1135,651.7853553806632
1161,63.65105789428696
1163,128.36605959106512
1166,0.0
1168,0.0
2,4,12,25, 0,16, 0.00,60.00,Thursday
7,3.9
545,19.65657990549848
546,5.921598169099015
547,15.73767165721349
548,71.43303328515624
720,1670.2057199774335
721,1670.2057199774335
784,0.0
785,0.0
848,0.0
849,0.0
1121,2119.7086990656303
1135,653.7201143666903
1161,59.65605567205714
1163,130.22579879970812
1166,0.0
1168,0.0
2,4,12,25, 0,17, 0.00,60.00,Thursday
7,3.9
545,19.720798931256226
546,6.019224126598615
547,15.690285824777977
548,67.45257588043393
720,1565.5595177401774
721,1565.5595177401774
784,0.0
785,0.0
848,0.0
849,0.0
1121,1996.7267304184647
1135,617.8445821310047
1161,56.331912948718546
1163,134.1137427910396
1166,0.0
1168,0.0
2,4,12,25, 0,18, 0.00,60.00,Thursday
7,2.2
545,19.730559938245136
546,4.219675190548739
547,15.639160555725798
548,61.67857607583088
720,1416.5255677312362
721,1416.5255677312362
784,0.0
785,0.0
848,0.0
849,0.0
1121,1812.1844525369104
1135,579.903377300636
1161,35.75832203851419
1163,139.735562831273
1166,0.0
1168,0.0
2,4,12,25, 0,19, 0.00,60.00,Thursday
7,2.8
545,19.746349314591527
546,4.75271987589591
547,15.594840843695767
548,52.7377075160639
720,1240.422962603987
721,1240.422962603987
784,0.0
785,0.0
848,0.0
849,0.0
1121,1607.7188601288738
1135,510.68004339692715
1161,21.55049750692986
1163,148.59407752157492
1166,0.0
1168,0.0
2,4,12,25, 0,20, 0.00,60.00,Thursday
7,2.2
545,19.214213537663497
546,4.113667352754891
547,15.545749130972546
548,60.698781555344844
720,1365.758606051848
721,1365.758606051848
784,0.0
785,0.0
848,0.0
849,0.0
1121,1757.930444614601
1135,563.6629999387104
1161,40.568064636208426
1163,140.63419396269632
1166,0.0
1168,0.0
2,4,12,25, 0,21, 0.00,60.00,Thursday
7,2.2
545,19.88431732126445
546,3.765264287845329
547,15.491651035516057
548,73.23715980037294
720,1761.5890709045962
721,1761.5890709045962
784,0.0
785,0.0
848,0.0
849,0.0
1121,2234.057885500489
1135,700.0723390687423
1161,28.697151014002706
1163,128.58701408747217
1166,0.0
1168,0.0
2,4,12,25, 0,22, 0.00,60.00,Thursday
7,1.7
545,19.716489235090037
546,3.469881198436467
547,15.451153091031188
548,75.8849637461443
720,1752.2499041682295
721,1752.2499041682295
784,0.0
785,0.0
848,0.0
849,0.0
1121,2270.5066469706117
1135,728.9930611559478
1161,31.9404280317946
1163,125.94628038340694
1166,0.0
1168,0.0
2,4,12,25, 0,23, 0.00,60.00,Thursday
7,1.7
545,18.836834197691815
546,3.3336038596824893
547,15.376004434382168
548,48.2265294333804
720,1051.76995305958
721,1051.76995305958
784,0.0
785,0.0
848,0.0
849,0.0
1121,1422.096838241688
1135,461.7977434416327
1161,20.298754746619363
1163,152.93744056667612
1166,0.0
1168,0.0
2,4,12,25, 0,24, 0.00,60.00,Thursday
7,2.2
545,18.910603052052352
546,3.673760777622627
547,15.311648743686527
548,56.21828215297701
720,1342.6589557858588
721,1342.6589557858588
784,0.0
785,0.0
848,0.0
849,0.0
1121,1719.0943959121605
1135,538.4483990533485
1161,18.24288794232286
1163,145.22051236269505
1166,0.0
1168,0.0
2,5,12,26, 0, 1, 0.00,60.00,Friday
7,1.7
545,18.582549299207734
546,3.624859840390271
547,15.248235781293452
548,64.61006193070922
720,1528.6332886327145
721,1528.6332886327145
784,0.0
785,0.0