Program Version,EnergyPlus, Version 22.2.0-c249759bad, YMD=2023.09.01 14:31
1,5,Environment Title[],Latitude[deg],Longitude[deg],Time Zone[],Elevation[m]
2,8,Day of Simulation[],Month[],Day of Month[],DST Indicator[1=yes 0=no],Hour[],StartMinute[],EndMinute[],DayType
3,5,Cumulative Day of Simulation[],Month[],Day of Month[],DST Indicator[1=yes 0=no],DayType  ! When Daily Report Variables Requested
4,2,Cumulative Days of Simulation[],Month[]  ! When Monthly Report Variables Requested
5,1,Cumulative Days of Simulation[] ! When Run Period Report Variables Requested
6,1,Calendar Year of Simulation[] ! When Annual Report Variables Requested
7,1,Environment,Site Outdoor Air Drybulb Temperature [C] !Hourly
619,1,DX_HEATING_COIL,Heating Coil Heating Rate [W] !Hourly
633,1,DX_HEATING_COIL,Heating Coil Electricity Rate [W] !Hourly
659,1,DX_HEATING_COIL,Heating Coil Defrost Electricity Rate [W] !Hourly
661,1,DX_HEATING_COIL,Heating Coil Crankcase Heater Electricity Rate [W] !Hourly
690,1,FAN,Fan Electricity Rate [W] !Hourly
716,1,HEAT PUMP WATER HEATER FAN,Fan Electricity Rate [W] !Hourly
718,1,LIVING,Zone Mean Air Temperature [C] !Hourly
719,1,ATTIC,Zone Mean Air Temperature [C] !Hourly
720,1,CRAWLSPACE,Zone Mean Air Temperature [C] !Hourly
843,1,LIVING,Zone Predicted Sensible Load to Heating Setpoint Heat Transfer Rate [W] !Hourly
844,1,LIVING,Zone System Predicted Sensible Load to Heating Setpoint Heat Transfer Rate [W] !Hourly
907,1,ATTIC,Zone Predicted Sensible Load to Heating Setpoint Heat Transfer Rate [W] !Hourly
908,1,ATTIC,Zone System Predicted Sensible Load to Heating Setpoint Heat Transfer Rate [W] !Hourly
971,1,CRAWLSPACE,Zone Predicted Sensible Load to Heating Setpoint Heat Transfer Rate [W] !Hourly
972,1,CRAWLSPACE,Zone System Predicted Sensible Load to Heating Setpoint Heat Transfer Rate [W] !Hourly
1195,1,HEATING_RESISTANCE_BACKUP,Heating Coil Heating Rate [W] !Hourly
1197,1,HEATING_RESISTANCE_BACKUP,Heating Coil Electricity Rate [W] !Hourly
End of Data Dictionary
1,EXTREME_WINTER,  36.90, -76.20,  -5.00,   9.00
2,1, 1,15, 0, 1, 0.00,60.00,Monday
7,2.8
718,18.705262897334922
719,1.8028877762863849
720,19.395525864298076
619,1131.2545520594713
633,352.2012033042435
659,0.01679525424965216
661,150.82207755249848
690,34.663888328084205
716,0.0
843,819.0703565534277
844,819.0703565534277
907,0.0
908,0.0
971,0.0
972,0.0
1195,0.0
1197,0.0
2,1, 1,15, 0, 2, 0.00,60.00,Monday
7,2.8
718,18.707517812856953
719,1.458322799235187
720,19.0806369921865
619,1440.7045884929582
633,443.32263778046007
659,0.021215123866509124
661,137.880326149696
690,43.786100292574
716,0.0
843,1031.8482440721327
844,1031.8482440721327
907,0.0
908,0.0
971,0.0
972,0.0
1195,0.0
1197,0.0
2,1, 1,15, 0, 3, 0.00,60.00,Monday
7,1.7
718,18.580703510605378
719,0.32418037877988304
720,18.918058386901258
619,1724.9732745204817
633,536.4848845146972
659,2.075674498474221
661,123.61539047009309
690,53.81945813709451
716,0.0
843,1245.8543539602379
844,1245.8543539602379
907,0.0
908,0.0
971,0.0
972,0.0
1195,0.0
1197,0.0
2,1, 1,15, 0, 4, 0.00,60.00,Monday
7,1.1
718,18.590455695645236
719,-0.5283015108833926
720,18.732225931627813
619,2152.36620414445
633,666.8659935724884
659,5.1317449995529
661,103.76146035594567
690,67.77483852628357
716,0.0
843,1507.221929909867
844,1507.221929909867
907,0.0
908,0.0
971,0.0
972,0.0
1195,0.0
1197,0.0
2,1, 1,15, 0, 5, 0.00,60.00,Monday
7,1.1
718,18.605870179220318
719,-1.1691188065637472
720,18.581689929312276
619,2290.740444418064
633,707.3409760817551
659,5.443152927623809
661,97.92144994355456
690,71.88759571730527
716,0.0
843,1603.5889017245481
844,1603.5889017245481
907,0.0
908,0.0
971,0.0
972,0.0
1195,0.0
1197,0.0
2,1, 1,15, 0, 6, 0.00,60.00,Monday
7,0.6
718,19.334013843444794
719,0.00779407229019616
720,18.396246411878117
619,3813.557115862893
633,1143.685925637367
659,32.78867301988034
661,29.35021728567677
690,119.84882656419131
716,0.0
843,2604.554889775376
844,2604.554889775376
907,0.0
908,0.0
971,0.0
972,0.0
1195,0.0
1197,0.0
2,1, 1,15, 0, 7, 0.00,60.00,Monday
7,0.0
718,19.508446066029357
719,0.7869444417114455
720,18.279141421329378
619,4496.905380055923
633,1357.9568556301817
659,34.38911096411408
661,0.0
690,140.97392830001576
716,85.44000000000004
843,2674.585210385163
844,2674.585210385163
907,0.0
908,0.0
971,0.0
972,0.0
1195,688.7558573463971
1197,688.7558573463971
2,1, 1,15, 0, 8, 0.00,60.00,Monday
7,0.0
718,19.637056885996945
719,1.2852567370063273
720,18.15901783557002
619,4493.127539429051
633,1362.4701925868103
659,34.38911096411408
661,0.0
690,140.97392830001576
716,68.82851745329857
843,2386.056543191753
844,2386.056543191753
907,0.0
908,0.0
971,0.0
972,0.0
1195,155.54112145853105
1197,155.54112145853105
2,1, 1,15, 0, 9, 0.00,60.00,Monday
7,1.1
718,19.817159597409795
719,2.4314271502359945
720,18.08305153779851
619,2319.5283276372447
633,733.8969502262016
659,14.130373565472809
661,94.45009232598875
690,74.22813745312469
716,0.0
843,1600.1599354507616
844,1600.1599354507616
907,0.0
908,0.0
971,0.0
972,0.0
1195,0.0
1197,0.0
2,1, 1,15, 0,10, 0.00,60.00,Monday
7,2.8
718,19.75718119649915
719,5.2173557826342085
720,17.99839968807705
619,873.9359183676075
633,279.60101089870096
659,0.013107929786171122
661,161.61887489824878
690,27.053583125835594
716,0.0
843,616.2031862889307
844,616.2031862889307
907,0.0
908,0.0
971,0.0
972,0.0
1195,0.0
1197,0.0
2,1, 1,15, 0,11, 0.00,60.00,Monday
7,2.8
718,19.83201765181971
719,8.16715302369798
720,17.92941420104188
619,0.0
633,0.0
659,0.0
661,200.0
690,0.0
716,0.0
843,-84.73309213074208
844,-84.73309213074208
907,0.0
908,0.0
971,0.0
972,0.0
1195,0.0
1197,0.0
2,1, 1,15, 0,12, 0.00,60.00,Monday
7,3.9
718,20.518025935769785
719,11.913094771751448
720,17.88635734375938
619,0.0
633,0.0
659,0.0
661,200.0
690,0.0
716,0.0
843,-612.0176037963793
844,-612.0176037963793
907,0.0
908,0.0
971,0.0
972,0.0
1195,0.0
1197,0.0
2,1, 1,15, 0,13, 0.00,60.00,Monday
7,4.4
718,20.669979882895053
719,13.946707048359793
720,17.866343540140296
619,0.0
633,0.0
659,0.0
661,200.0
690,0.0
716,0.0
843,-703.0254452745648
844,-703.0254452745648
907,0.0
908,0.0
971,0.0
972,0.0
1195,0.0
1197,0.0
2,1, 1,15, 0,14, 0.00,60.00,Monday
7,4.4
718,19.922938356596013
719,13.8475507566151
720,17.86567655508549
619,0.0
633,0.0
659,0.0
661,200.0
690,0.0
716,73.69316662107724
843,-855.3477435412897
844,-855.3477435412897
907,0.0
908,0.0
971,0.0
972,0.0
1195,0.0
1197,0.0
2,1, 1,15, 0,15, 0.00,60.00,Monday
7,2.2
718,20.45879892389244
719,12.119305523602685
720,17.875645895145638
619,0.0
633,0.0
659,0.0
661,200.0
690,0.0
716,0.0
843,-671.876268541233
844,-671.876268541233
907,0.0
908,0.0
971,0.0
972,0.0
1195,0.0
1197,0.0
2,1, 1,15, 0,16, 0.00,60.00,Monday
7,2.2
718,20.639083799515944
719,10.736902145782484
720,17.884158305877794
619,0.0
633,0.0
659,0.0
661,200.0
690,0.0
716,0.0
843,-667.0716917720238
844,-667.0716917720238
907,0.0
908,0.0
971,0.0
972,0.0
1195,0.0
1197,0.0
2,1, 1,15, 0,17, 0.00,60.00,Monday
7,2.2
718,20.384193715383656
719,7.60853062964195
720,17.883395164498417
619,0.0
633,0.0
659,0.0
661,200.0
690,0.0
716,0.0
843,-510.18345440133453
844,-510.18345440133453
907,0.0
908,0.0
971,0.0
972,0.0
1195,0.0
1197,0.0
2,1, 1,15, 0,18, 0.00,60.00,Monday
7,2.8
718,19.739977263160156
719,5.680639157039984
720,17.883928107282934
619,0.0
633,0.0
659,0.0
661,200.0
690,0.0
716,0.0
843,-14.519458007122012
844,-14.519458007122012
907,0.0
908,0.0
971,0.0
972,0.0
1195,0.0
1197,0.0
2,1, 1,15, 0,19, 0.00,60.00,Monday
7,2.2
718,19.678589011305043
719,4.210573701262986
720,17.8595865845014
619,1399.9532322317339
633,445.6199240420041
659,0.02104505040876803
661,138.37831559307367
690,43.43505690298659
716,85.44000000000004
843,12.535830952609103
844,12.535830952609103
907,0.0
908,0.0
971,0.0
972,0.0
1195,0.0
1197,0.0
2,1, 1,15, 0,20, 0.00,60.00,Monday
7,2.2
718,19.689606211091988
719,3.5524386290797714
720,17.822918681583694
619,1723.58924303031
633,543.5175386584787
659,0.025701074853765774
661,124.74508291518711
690,53.044665070331426
716,85.44000000000004
843,235.29340535023584
844,235.29340535023584
907,0.0
908,0.0
971,0.0
972,0.0
1195,0.0
1197,0.0
2,1, 1,15, 0,21, 0.00,60.00,Monday
7,2.2
718,19.69064404311033
719,2.9356281318544273
720,17.778274819931443
619,904.2781436545285
633,290.9886930910773
659,0.013755650915333168
661,159.72229274569224
690,28.3904038851255
716,16.82088466242281
843,449.97503245394546
844,449.97503245394546
907,0.0
908,0.0
971,0.0
972,0.0
1195,0.0
1197,0.0
2,1, 1,15, 0,22, 0.00,60.00,Monday
7,2.2
718,19.720395368597618
719,2.9301166885206618
720,17.716736600628487
619,1084.0611841048749
633,347.2880881041483
659,0.016417941188420996
661,151.92688205190282
690,33.88512722508337
716,0.0
843,756.0087068075045
844,756.0087068075045
907,0.0
908,0.0
971,0.0
972,0.0
1195,0.0
1197,0.0
2,1, 1,15, 0,23, 0.00,60.00,Monday
7,2.2
718,18.75326228604354
719,2.59617939308987
720,17.653475416908588
619,600.4181037163861
633,194.78927919139747
659,0.009203108857391475
661,173.05252025737653
690,18.99437394207133
716,0.0
843,427.4836659197481
844,427.4836659197481
907,0.0
908,0.0
971,0.0
972,0.0
1195,0.0
1197,0.0
2,1, 1,15, 0,24, 0.00,60.00,Monday
7,1.1
718,18.89752537909642
719,1.602718242034683
720,17.561799084506013
619,1149.788583416771
633,366.14804549037996
659,0.017808899720799878
661,147.85403803202524
690,36.75589652038565
716,0.0
843,836.7794966087677
844,836.7794966087677
907,0.0
908,0.0
971,0.0
972,0.0
1195,0.0
1197,0.0
2,2, 1,16, 0, 1, 0.00,60.00,Tuesday
7,1.1
718,18.58258998169225
719,1.2841036525570195
720,17.47757081180678
619,1366.1614805622153
633,434.16119187085934
659,0.021060143707385987
661,138.33412114040996
690,43.46615860794123
716,0.0
843,975.7121669516073
844,975.7121669516073
907,0.0
908,0.0
971,0.0
972,0.0
1195,0.0
1197,0.0
2,2, 1,16, 0, 2, 0.00,60.00,Tuesday
7,0.6
718,18.63572715534359
719,0.9673836575332848
720,17.372886991529825
619,1950.9077511906225
633,611.3996265834293
659,0.029980278785066723
661,112.21521251593907
690,61.87644632097762
716,0.0
843,1371.6049880747596
844,1371.6049880747596
907,0.0
908,0.0
971,0.0
972,0.0
1195,0.0
1197,0.0
2,2, 1,16, 0, 3, 0.00,60.00,Tuesday
7,0.6
718,18.600801086213774
719,0.8078712259047857
720,17.27850851282313
619,2307.2270424651538
633,717.5260484819107
659,0.0351532523432707
661,97.06830918914959
690,72.5529720477515
716,0.0
843,1634.871971517956
844,1634.871971517956
907,0.0
908,0.0
971,0.0
972,0.0
1195,0.0
1197,0.0
2,2, 1,16, 0, 4, 0.00,60.00,Tuesday
7,0.0
718,18.572785877155837
719,0.6674159971312903
720,17.175823015084067
619,2672.9945266268996
633,831.4782980166057
659,8.938581034586898
661,78.18218847167095
690,85.73660696628411
716,0.0
843,1878.6286564293514
844,1878.6286564293514
907,0.0
908,0.0
971,0.0
972,0.0
1195,0.0
1197,0.0
2,2, 1,16, 0, 5, 0.00,60.00,Tuesday
7,0.0
718,18.58238165395069
719,0.7015752546187154
720,17.08135432341159
619,2868.659465614203
633,887.2409667002366
659,9.544559635582182
661,69.92372029639691
690,91.54902379756004
716,0.0
843,2009.709695014537
844,2009.709695014537
907,0.0
908,0.0
971,0.0
972,0.0
1195,0.0
1197,0.0
2,2, 1,16, 0, 6, 0.00,60.00,Tuesday
7,0.0
718,19.30488510987124
719,1.3944633824212351
720,16.973112321038634
619,4391.225993431005
633,1308.3510875827094
659,9.236968513861546
661,9.139760872320934
690,134.39884932199578
716,0.0
843,3068.6527443085997
844,3068.6527443085997
907,0.0
908,0.0
971,0.0
972,0.0
1195,0.0
1197,0.0
2,2, 1,16, 0, 7, 0.00,60.00,Tuesday
7,0.6
718,19.52498989464167
719,2.0825011547709735
720,16.9238370873419
619,4689.046447458374
633,1397.0518758445573
659,10.158905313565816
661,0.0
690,140.97392830001576
716,85.44000000000004
843,2970.8826295322633
844,2970.8826295322633
907,0.0
908,0.0
971,0.0
972,0.0
1195,819.8712471817303
1197,819.8712471817303
2,2, 1,16, 0, 8, 0.00,60.00,Tuesday
7,0.6
718,19.64044761838004
719,2.398680957150499
720,16.842708860359828
619,4684.055683781832
633,1403.0142092664462
659,10.158905313565816
661,0.0
690,140.97392830001576
716,85.44000000000004
843,2744.7848222428056
844,2744.7848222428056
907,0.0
908,0.0
971,0.0
972,0.0
1195,599.7832874960836
1197,599.7832874960836
2,2, 1,16, 0, 9, 0.00,60.00,Tuesday
7,1.7
718,19.68592661937253
719,3.916964983348181
720,16.774267359855553
619,4716.005466503478
633,1393.4800278021041
659,5.246784611009713
661,4.691983445400982
690,137.61154543261668
716,68.80292723461027
843,2499.335383437494
844,2499.335383437494
907,0.0
908,0.0
971,0.0
972,0.0
1195,0.0
1197,0.0
2,2, 1,16, 0,10, 0.00,60.00,Tuesday
7,2.2
718,19.842668266504123
719,5.915331874843338
720,16.69666502747596
619,2015.14623386881
633,630.3690715555449
659,6.364517838295316
661,111.34668528630627
690,62.428457964008786
716,0.0
843,1435.2613247660247
844,1435.2613247660247
907,0.0
908,0.0
971,0.0
972,0.0
1195,0.0
1197,0.0
2,2, 1,16, 0,11, 0.00,60.00,Tuesday
7,2.2
718,19.75958947880015
719,7.57596580546091
720,16.646514742224586
619,1024.9857709166904
633,329.7756124492427
659,3.319190196557734
661,153.76598501782908
690,32.557340146575996
716,0.0
843,749.8880399574791
844,749.8880399574791
907,0.0
908,0.0
971,0.0
972,0.0
1195,0.0
1197,0.0
2,2, 1,16, 0,12, 0.00,60.00,Tuesday
7,3.3
718,19.881047204760236
719,9.482104385348931
720,16.622559748376297
619,761.5326743572417
633,241.6328476593243
659,2.082932313812644
661,166.48121586538255
690,23.61135277944301
716,0.0
843,574.6621245163169
844,574.6621245163169
907,0.0
908,0.0
971,0.0
972,0.0
1195,0.0
1197,0.0
2,2, 1,16, 0,13, 0.00,60.00,Tuesday
7,4.4
718,19.790911163437695
719,10.707980110967375
720,16.612047581252256
619,69.09441263754016
633,21.960646836023017
659,0.1505203963223635
661,197.0004073501119
690,2.113563998767417
716,0.0
843,40.68849145865897
844,40.68849145865897
907,0.0
908,0.0
971,0.0
972,0.0
1195,0.0
1197,0.0
2,2, 1,16, 0,14, 0.00,60.00,Tuesday
7,4.4
718,19.97002739671832
719,11.084747336111922
720,16.62441702676435
619,0.0
633,0.0
659,0.0
661,200.0
690,0.0
716,0.0
843,-205.28443775880078
844,-205.28443775880078
907,0.0
908,0.0
971,0.0
972,0.0
1195,0.0
1197,0.0
2,2, 1,16, 0,15, 0.00,60.00,Tuesday
7,3.3
718,20.742725207712457
719,12.729091309611281
720,16.65291999378972
619,0.0
633,0.0
659,0.0
661,200.0
690,0.0
716,0.0
843,-831.874614809496
844,-831.874614809496
907,0.0
908,0.0
971,0.0
972,0.0
1195,0.0
1197,0.0
2,2, 1,16, 0,16, 0.00,60.00,Tuesday
7,3.9
718,21.140482044370014
719,12.363089521774434
720,16.689467041946877
619,0.0
633,0.0
659,0.0
661,200.0
690,0.0
716,0.0
843,-1127.0534754246091
844,-1127.0534754246091
907,0.0
908,0.0
971,0.0
972,0.0
1195,0.0
1197,0.0
2,2, 1,16, 0,17, 0.00,60.00,Tuesday
7,3.9
718,21.26302167379907
719,10.285733472849454
720,16.732260240545205
619,0.0
633,0.0
659,0.0
661,200.0
690,0.0
716,0.0
843,-1183.004171241806
844,-1183.004171241806
907,0.0
908,0.0
971,0.0
972,0.0
1195,0.0
1197,0.0
2,2, 1,16, 0,18, 0.00,60.00,Tuesday
7,2.8
718,20.18391361053899
719,7.481374483260047
720,16.773192932505417
619,0.0
633,0.0
659,0.0
661,200.0
690,0.0
716,64.11120380917686
843,-934.7315802296689
844,-934.7315802296689
907,0.0
908,0.0
971,0.0
972,0.0
1195,0.0
1197,0.0
2,2, 1,16, 0,19, 0.00,60.00,Tuesday
7,2.8
718,20.627162253983432
719,4.200189272546394
720,16.80246168783504
619,0.0
633,0.0
659,0.0
661,200.0
690,0.0
716,0.0
843,-805.5307055765879
844,-805.5307055765879
907,0.0
908,0.0
971,0.0
972,0.0
1195,0.0
1197,0.0
2,2, 1,16, 0,20, 0.00,60.00,Tuesday
7,2.8
718,19.372191335938155
719,2.080300995374796
720,16.808325517561563
619,0.0
633,0.0
659,0.0
661,200.0
690,0.0
716,85.44000000000004
843,-595.0225710859158
844,-595.0225710859158
907,0.0
908,0.0
971,0.0
972,0.0
1195,0.0
1197,0.0
2,2, 1,16, 0,21, 0.00,60.00,Tuesday
7,2.8
718,18.937888725065573
719,0.4018400836652962
720,16.796736270852502
619,0.0
633,0.0
659,0.0
661,200.0
690,0.0
716,85.44000000000004
843,-271.55204420079644
844,-271.55204420079644
907,0.0
908,0.0
971,0.0
972,0.0
1195,0.0
1197,0.0
2,2, 1,16, 0,22, 0.00,60.00,Tuesday
7,2.2
718,19.573634048947255
719,-0.27950344859697185
720,16.768422699142604
619,792.9701029485884
633,251.52933582130888
659,8.904524293598387
661,162.83444286513998
690,26.109612354769666
716,17.605230641414863
843,359.70414790374707
844,359.70414790374707
907,0.0
908,0.0
971,0.0
972,0.0
1195,0.0
1197,0.0
2,2, 1,16, 0,23, 0.00,60.00,Tuesday
7,2.2
718,18.803893900977442
719,-1.5736880196911365
720,16.731392115661755
619,0.0
633,0.0
659,0.0
661,200.0
690,0.0
716,0.0
843,-78.28571865036429
844,-78.28571865036429
907,0.0
908,0.0
971,0.0
972,0.0
1195,0.0
1197,0.0
2,2, 1,16, 0,24, 0.00,60.00,Tuesday
7,1.7
718,18.643321035740406
719,-1.8299386835555076
720,16.681217040051497
619,569.9374544888013
633,183.09581777897588
659,9.658700068373644
661,172.11567846506125
690,19.54719821591988
716,0.0
843,343.5901267424251
844,343.5901267424251
907,0.0
908,0.0
971,0.0
972,0.0
1195,0.0
1197,0.0
2,3, 1,17, 0, 1, 0.00,60.00,Wednesday
7,1.7
718,18.584876446801253
719,-2.083551204537301
720,16.624085479531765
619,1012.6588427510073
633,319.90478057920063
659,12.34593541552586
661,152.0503824041937
690,33.663194355496394
716,0.0
843,686.2938901520502
844,686.2938901520502
907,0.0
908,0.0
971,0.0
972,0.0
1195,0.0
1197,0.0
2,3, 1,17, 0, 2, 0.00,60.00,Wednesday
7,1.7
718,18.57321264780045
719,-1.9044130707361864
720,16.557836234713236
619,1670.8428074042758
633,518.100580893997
659,20.020890659958177
661,122.24209679039903
690,54.59027298634678
716,0.0
843,1129.810814956707
844,1129.810814956707
907,0.0
908,0.0
971,0.0
972,0.0
1195,0.0
1197,0.0
2,3, 1,17, 0, 3, 0.00,60.00,Wednesday
7,3.3
718,18.635527965440556
719,-0.5353777292534085
720,16.496819635087963
619,2003.320533826919
633,599.8403258892046
659,20.233963032095065
661,111.8186765109268
690,62.00634085767712
716,0.0
843,1368.2780108257157
844,1368.2780108257157
907,0.0
908,0.0
971,0.0
972,0.0
1195,0.0
1197,0.0
2,3, 1,17, 0, 4, 0.00,60.00,Wednesday
7,2.8
718,18.577391394044856
719,0.6124315706006945
720,16.427002247031925
619,2264.9159272498023
633,680.1391596099205
659,25.229282547394995
661,99.19802353089592
690,70.83773654073636
716,0.0
843,1566.2241848815447
844,1566.2241848815447
907,0.0
908,0.0
971,0.0
972,0.0
1195,0.0
1197,0.0
2,3, 1,17, 0, 5, 0.00,60.00,Wednesday
7,2.8
718,18.61112860434196
719,1.9071666604547537
720,16.357810630882177
619,2322.887478397216
633,695.5356863069823
659,25.83137261402342
661,96.79241137706056
690,72.52832283562381
716,0.0
843,1614.9920092874618
844,1614.9920092874618
907,0.0
908,0.0
971,0.0
972,0.0
1195,0.0
1197,0.0
2,3, 1,17, 0, 6, 0.00,60.00,Wednesday
7,4.4
718,19.202348551198494
719,4.469950229782383
720,16.306172901087706
619,4566.855924920927
633,1266.6350007484575
659,58.10800268560896
661,12.620289647436822
690,131.7717262299943
716,66.12508658119103
843,2527.6639936124357
844,2527.6639936124357
907,0.0
908,0.0
971,0.0
972,0.0
1195,0.0
1197,0.0
2,3, 1,17, 0, 7, 0.00,60.00,Wednesday
7,5.0
718,19.503240986435298
719,5.659106331302433
720,16.27654917644719
619,4669.509710988616
633,1298.7157833286876
659,61.10499388972136
661,10.636923868476833
690,133.2248939657534
716,85.44000000000004
843,2350.678677506059
844,2350.678677506059
907,0.0
908,0.0
971,0.0
972,0.0
1195,0.0
1197,0.0
2,3, 1,17, 0, 8, 0.00,60.00,Wednesday
7,5.0
718,19.677190622427794
719,6.061311501375983
720,16.217832550505914
619,3538.0398448096466
633,1016.6831364517683
659,47.557151082183104
661,52.62140051553723
690,103.68678031292886
716,40.40172557426137
843,2094.8397371598967
844,2094.8397371598967
907,0.0
908,0.0
971,0.0
972,0.0
1195,0.0
1197,0.0
2,3, 1,17, 0, 9, 0.00,60.00,Wednesday
7,4.0
718,19.730383468479385
719,6.014722782610265
720,16.162497045783212
619,2660.8005947943107
633,794.6388384949789
659,61.51166626771404
661,79.17661451807363
690,84.77258646250247
716,0.0
843,1952.9344828458434
844,1952.9344828458434
907,0.0
908,0.0
971,0.0
972,0.0
1195,0.0
1197,0.0
2,3, 1,17, 0,10, 0.00,60.00,Wednesday
7,4.0
718,19.700597884441606
719,6.662329995318036
720,16.11510393938714
619,2255.704583928707
633,681.2024684530338
659,62.31396942336576
661,94.57848791494854
690,73.90391005115526
716,0.0
843,1649.5640199174413
844,1649.5640199174413
907,0.0
908,0.0
971,0.0
972,0.0
1195,0.0
1197,0.0
2,3, 1,17, 0,11, 0.00,60.00,Wednesday
7,5.0
718,19.763531681832298
719,7.303326237155656
720,16.076781898526207
619,2094.534843092839
633,624.6282070455694
659,52.32294703478792
661,105.09471995742241
690,66.66920422277187
716,0.0
843,1553.4417957145215
844,1553.4417957145215
907,0.0
908,0.0
971,0.0
972,0.0
1195,0.0
1197,0.0
2,3, 1,17, 0,12, 0.00,60.00,Wednesday
7,5.0
718,19.57157942695006
719,6.801790904405238
720,16.046879772060624
619,2249.918629742827
633,668.9627981476224
659,65.00523775471936
661,96.64328253542631
690,72.56644032276327
716,0.0
843,1667.8853229935667
844,1667.8853229935667
907,0.0
908,0.0
971,0.0
972,0.0
1195,0.0
1197,0.0
2,3, 1,17, 0,13, 0.00,60.00,Wednesday
7,6.0
718,19.717538067824155
719,7.234540302584304
720,16.003453663726944
619,2300.48740127444
633,621.2911836601329
659,0.0
661,120.61562689015824
690,55.955634614642655
716,0.0
843,1764.8850609981928
844,1764.8850609981928
907,0.0
908,0.0
971,0.0
972,0.0
1195,0.0
1197,0.0
2,3, 1,17, 0,14, 0.00,60.00,Wednesday
7,5.6
718,19.748194207572798
719,7.350212418641481
720,15.978482238262034
619,2207.954900289385
633,602.696906038484
659,0.0
661,122.88220407897397
690,54.35799316412987
716,0.0
843,1686.4473795290469
844,1686.4473795290469
907,0.0
908,0.0
971,0.0
972,0.0
1195,0.0
1197,0.0
2,3, 1,17, 0,15, 0.00,60.00,Wednesday
7,6.0
718,19.792344717133467
719,7.760851856692493
720,15.970301263163329
619,3146.639388213505
633,839.6164569807258
659,0.0
661,93.05883177577068
690,75.37958290781215
716,62.137391864052454
843,1615.6174345451873
844,1615.6174345451873
907,0.0
908,0.0
971,0.0
972,0.0
1195,0.0
1197,0.0
2,3, 1,17, 0,16, 0.00,60.00,Wednesday
7,7.0
718,19.729203799836647
719,8.081750864189809
720,15.944324935086389
619,2980.115964031847
633,788.0292267838583
659,0.0
661,100.77190688612146
690,69.942870419916
716,65.78896161521597
843,1437.5338118915533
844,1437.5338118915533
907,0.0
908,0.0
971,0.0
972,0.0
1195,0.0
1197,0.0
2,3, 1,17, 0,17, 0.00,60.00,Wednesday
7,7.8
718,19.82330434666046
719,8.46508384200496
720,15.892973401477219
619,1407.249557797182
633,378.6464419553035
659,0.0
661,152.69158483331188
690,33.34626563848035
716,0.0
843,1092.2812902197693
844,1092.2812902197693
907,0.0
908,0.0
971,0.0
972,0.0
1195,0.0
1197,0.0
2,3, 1,17, 0,18, 0.00,60.00,Wednesday
7,11.7
718,19.91536389926503
719,10.66163051952783
720,15.866993549431852
619,748.6044807087096
633,195.18379008907223
659,0.0
661,0.0
690,16.363165434300235
716,0.0
843,586.3617717998295
844,586.3617717998295
907,0.0
908,0.0
971,0.0
972,0.0
1195,0.0
1197,0.0
2,3, 1,17, 0,19, 0.00,60.00,Wednesday
7,12.8
718,19.98396594011017
719,10.677289194764334
720,15.837173634312341
619,84.60898452576834
633,22.113053569502494
659,0.0
661,0.0
690,1.823385440470228
716,0.0
843,57.20202273807445
844,57.20202273807445
907,0.0
908,0.0
971,0.0
972,0.0
1195,0.0
1197,0.0
2,3, 1,17, 0,20, 0.00,60.00,Wednesday
7,12.8
718,18.982973338681635
719,11.13511742000187
720,15.828704375687582
619,0.0
633,0.0
659,0.0
661,0.0
690,0.0
716,85.44000000000004
843,-322.57295296470875
844,-322.57295296470875
907,0.0
908,0.0
971,0.0
972,0.0
1195,0.0
1197,0.0
2,3, 1,17, 0,21, 0.00,60.00,Wednesday
7,13.0
718,18.905192744776798
719,11.803952068220585
720,15.826253689372786
619,0.0
633,0.0
659,0.0
661,0.0
690,0.0
716,55.882669404897726
843,-125.6993040807447
844,-125.6993040807447
907,0.0
908,0.0
971,0.0
972,0.0
1195,0.0
1197,0.0
2,3, 1,17, 0,22, 0.00,60.00,Wednesday
7,8.3
718,19.679604140805655
719,10.517420586958416
720,15.83235183066701
619,382.37892333606857
633,102.2916389078317
659,0.0
661,187.10087708843784
690,9.092200142338278
716,0.0
843,311.76965701140034
844,311.76965701140034
907,0.0
908,0.0
971,0.0
972,0.0
1195,0.0
1197,0.0
2,3, 1,17, 0,23, 0.00,60.00,Wednesday
7,8.3
718,19.194786961482794
719,9.46168366278542
720,15.82533712430231
619,0.0
633,0.0
659,0.0
661,200.0
690,0.0
716,0.0
843,-396.4857852017976
844,-396.4857852017976
907,0.0
908,0.0
971,0.0
972,0.0
1195,0.0
1197,0.0
2,3, 1,17, 0,24, 0.00,60.00,Wednesday
7,5.0
718,18.632042953774892
719,7.1039398697821445
720,15.827659107574679
619,408.59461274995914
633,125.83992552439857
659,16.532389242825705
661,179.50221855851808
690,14.372540637214028
716,0.0
843,316.811242378938
844,316.811242378938
907,0.0
908,0.0
971,0.0
972,0.0
1195,0.0
1197,0.0
2,4, 1,18, 0, 1, 0.00,60.00,Thursday
7,3.9
718,18.71044224316227
719,6.299901676080539
720,15.816314095270407
619,791.4122493064384
633,242.60771529300246
659,30.12033627271755
661,160.10983074094048
690,27.90879295047688
716,0.0
843,585.6581581231148
844,585.6581581231148
907,0.0
908,0.0
971,0.0
972,0.0
1195,0.0
1197,0.0
2,4, 1,18, 0, 2, 0.00,60.00,Thursday
7,3.9
718,18.61401394790062
719,5.754926558424877
720,15.801004828376556
619,1128.7287584889434
633,343.40832571457094
659,42.5742345804189
661,143.61638568337975
690,39.44818293280176
716,0.0
843,843.1816791272704
844,843.1816791272704
907,0.0
908,0.0
971,0.0
972,0.0
1195,0.0
1197,0.0
2,4, 1,18, 0, 3, 0.00,60.00,Thursday
7,3.0
718,18.537519669284556
719,5.094542961405967
720,15.772186011505019
619,1482.5767295482092
633,452.69613007135933
659,53.1311104408981
661,125.60372379480829
690,51.9664737170694
716,0.0
843,1084.8674846973117
844,1084.8674846973117
907,0.0
908,0.0
971,0.0
972,0.0
1195,0.0
1197,0.0
2,4, 1,18, 0, 4, 0.00,60.00,Thursday
7,2.8
718,18.57944420306433
719,4.714274985244884
720,15.739808684832836
619,1852.5168635268833
633,560.7447632069005
659,60.053153412083226
661,108.73908993779237
690,63.77129332341022
716,0.0
843,1362.2608191095642
844,1362.2608191095642
907,0.0
908,0.0
971,0.0
972,0.0
1195,0.0
1197,0.0
2,4, 1,18, 0, 5, 0.00,60.00,Thursday
7,2.8
718,18.60364553374322
719,4.56544890195442
720,15.703797450559106
619,1960.1102678723894
633,592.1377561400519
659,63.36723866921584
661,103.7027776143697
690,67.29046244500924
716,0.0
843,1430.8303478720209
844,1430.8303478720209
907,0.0
908,0.0
971,0.0
972,0.0
1195,0.0
1197,0.0
2,4, 1,18, 0, 6, 0.00,60.00,Thursday
7,2.2
718,19.380045158945524
719,4.660033945916759
720,15.67276171709366
619,3309.724034373349
633,974.670028688694
659,100.35799581555074
661,41.54147175194471
690,110.62794716408271
716,0.0
843,2395.1171628917637
844,2395.1171628917637
907,0.0
908,0.0
971,0.0
972,0.0
1195,0.0
1197,0.0
2,4, 1,18, 0, 7, 0.00,60.00,Thursday
7,2.2
718,19.296686117599993
719,4.8169901399932575
720,15.678366509516701
619,4311.146448347038
633,1248.8182218523323
659,126.51384736302292
661,0.0
690,140.97392830001576
716,85.44000000000004
843,2344.344458581916
844,2344.344458581916
907,0.0
908,0.0
971,0.0
972,0.0
1195,0.0
1197,0.0
2,4, 1,18, 0, 8, 0.00,60.00,Thursday
7,2.2
718,19.357834650752544
719,4.8415158031588925
720,15.62675430864992
619,4312.833256200397
633,1246.8078818287788
659,126.51384736302292
661,0.0
690,140.97392830001576
716,85.44000000000004
843,2238.475999428918
844,2238.475999428918
907,0.0
908,0.0
971,0.0
972,0.0
1195,0.0
1197,0.0
2,4, 1,18, 0, 9, 0.00,60.00,Thursday
7,2.8
718,19.69145422854139
719,5.8283248713218985
720,15.56765406734788
619,2519.6885661693195
633,763.5787998088816
659,80.20054171304237
661,77.71037557222114
690,85.45365279763442
716,27.537223812096503
843,1445.578242731448
844,1445.578242731448
907,0.0
908,0.0
971,0.0
972,0.0
1195,0.0
1197,0.0
2,4, 1,18, 0,10, 0.00,60.00,Thursday
7,3.0
718,19.794897883984
719,6.704399417352777
720,15.510441384660156
619,817.9371353329087
633,260.80719368136596
659,25.925618202999004
661,158.83719839658434
690,28.786633536729457
716,0.0
843,584.4553222078539
844,584.4553222078539
907,0.0
908,0.0
971,0.0
972,0.0
1195,0.0
1197,0.0
2,4, 1,18, 0,11, 0.00,60.00,Thursday
7,4.4
718,20.12749856995211
719,9.604244525306422
720,15.484391510071816
619,0.0
633,0.0
659,0.0
661,200.0
690,0.0
716,0.0
843,-210.58308491801108
844,-210.58308491801108
907,0.0
908,0.0
971,0.0
972,0.0
1195,0.0
1197,0.0
2,4, 1,18, 0,12, 0.00,60.00,Thursday
7,8.3
718,20.835116862866876
719,13.235419977862906
720,15.504492615575437
619,0.0
633,0.0
659,0.0
661,200.0
690,0.0
716,0.0
843,-787.5384587808003
844,-787.5384587808003
907,0.0
908,0.0
971,0.0
972,0.0
1195,0.0
1197,0.0
2,4, 1,18, 0,13, 0.00,60.00,Thursday
7,10.0
718,21.087981840869922
719,15.424200255291154
720,15.542349809813533
619,0.0
633,0.0
659,0.0
661,0.0
690,0.0
716,0.0
843,-959.1341782806085
844,-959.1341782806085
907,0.0
908,0.0
971,0.0
972,0.0
1195,0.0
1197,0.0
2,4, 1,18, 0,14, 0.00,60.00,Thursday
7,10.0
718,21.672162391144116
719,16.775687814874022
720,15.59463805422609
619,0.0
633,0.0
659,0.0
661,0.0
690,0.0
716,0.0
843,-1188.8849383051584
844,-1188.8849383051584
907,0.0
908,0.0
971,0.0
972,0.0
1195,0.0
1197,0.0
2,4, 1,18, 0,15, 0.00,60.00,Thursday
7,11.1
718,22.878896025696527
719,17.65224114974822
720,15.662490263241551
619,0.0
633,0.0
659,0.0
661,0.0
690,0.0
716,0.0
843,-2074.999060026834
844,-2074.999060026834
907,0.0
908,0.0
971,0.0
972,0.0
1195,0.0
1197,0.0
2,4, 1,18, 0,16, 0.00,60.00,Thursday
7,11.7
718,23.300341594953665
719,17.916877832131316
720,15.770917859164246
619,0.0
633,0.0
659,0.0
661,0.0
690,10.813276808755175
716,0.0
843,-3002.919804076204
844,-3002.919804076204
907,0.0
908,0.0
971,0.0
972,0.0
1195,0.0
1197,0.0
2,4, 1,18, 0,17, 0.00,60.00,Thursday
7,11.7
718,23.150529818123168
719,16.296198185730113
720,15.83306006017099
619,0.0
633,0.0
659,0.0
661,0.0
690,0.0
716,63.97756256677587
843,-3542.0868052753285
844,-3542.0868052753285
907,0.0
908,0.0
971,0.0
972,0.0
1195,0.0
1197,0.0
2,4, 1,18, 0,18, 0.00,60.00,Thursday
7,8.3
718,23.31229895002295
719,12.83350090458737
720,15.941451625430522
619,0.0
633,0.0
659,0.0
661,200.0
690,0.0
716,0.0
843,-3140.8035682718837
844,-3140.8035682718837
907,0.0
908,0.0
971,0.0
972,0.0
1195,0.0
1197,0.0
2,4, 1,18, 0,19, 0.00,60.00,Thursday
7,7.2
718,21.810805797735107
719,10.188298094057478
720,16.028401424327324
619,0.0
633,0.0
659,0.0
661,200.0
690,0.0
716,85.44000000000004
843,-2384.4463264954284
844,-2384.4463264954284
907,0.0
908,0.0
971,0.0
972,0.0
1195,0.0
1197,0.0
2,4, 1,18, 0,20, 0.00,60.00,Thursday
7,7.2