Program Version,EnergyPlus, Version 22.2.0-c249759bad, YMD=2023.09.01 20:50
1,5,Environment Title[],Latitude[deg],Longitude[deg],Time Zone[],Elevation[m]
2,8,Day of Simulation[],Month[],Day of Month[],DST Indicator[1=yes 0=no],Hour[],StartMinute[],EndMinute[],DayType
3,5,Cumulative Day of Simulation[],Month[],Day of Month[],DST Indicator[1=yes 0=no],DayType  ! When Daily Report Variables Requested
4,2,Cumulative Days of Simulation[],Month[]  ! When Monthly Report Variables Requested
5,1,Cumulative Days of Simulation[] ! When Run Period Report Variables Requested
6,1,Calendar Year of Simulation[] ! When Annual Report Variables Requested
581,11,LIVING,AFN Zone Infiltration Air Change Rate [ach] !RunPeriod [Value,Min,Month,Day,Hour,Minute,Max,Month,Day,Hour,Minute]
582,11,ATTIC,AFN Zone Infiltration Air Change Rate [ach] !RunPeriod [Value,Min,Month,Day,Hour,Minute,Max,Month,Day,Hour,Minute]
583,11,CRAWLSPACE,AFN Zone Infiltration Air Change Rate [ach] !RunPeriod [Value,Min,Month,Day,Hour,Minute,Max,Month,Day,Hour,Minute]
1038,11,Facility,Facility Heating Setpoint Not Met Time [hr] !RunPeriod [Value,Min,Month,Day,Hour,Minute,Max,Month,Day,Hour,Minute]
1039,11,Facility,Facility Cooling Setpoint Not Met Time [hr] !RunPeriod [Value,Min,Month,Day,Hour,Minute,Max,Month,Day,Hour,Minute]
1115,11,DX_HEATING_COIL,Heating Coil Heating Energy [J] !RunPeriod [Value,Min,Month,Day,Hour,Minute,Max,Month,Day,Hour,Minute]
1128,11,DX_HEATING_COIL,Heating Coil Electricity Energy [J] !RunPeriod [Value,Min,Month,Day,Hour,Minute,Max,Month,Day,Hour,Minute]
1153,11,DX_HEATING_COIL,Heating Coil Defrost Electricity Energy [J] !RunPeriod [Value,Min,Month,Day,Hour,Minute,Max,Month,Day,Hour,Minute]
1154,11,DX_HEATING_COIL,Heating Coil Crankcase Heater Electricity Energy [J] !RunPeriod [Value,Min,Month,Day,Hour,Minute,Max,Month,Day,Hour,Minute]
1155,11,HEATING_RESISTANCE_BACKUP,Heating Coil Heating Energy [J] !RunPeriod [Value,Min,Month,Day,Hour,Minute,Max,Month,Day,Hour,Minute]
1156,11,HEATING_RESISTANCE_BACKUP,Heating Coil Electricity Energy [J] !RunPeriod [Value,Min,Month,Day,Hour,Minute,Max,Month,Day,Hour,Minute]
1292,11,WATER HEATER,Water Heater Heat Loss Energy [J] !RunPeriod [Value,Min,Month,Day,Hour,Minute,Max,Month,Day,Hour,Minute]
1306,11,WATER HEATER,Water Heater Heating Energy [J] !RunPeriod [Value,Min,Month,Day,Hour,Minute,Max,Month,Day,Hour,Minute]
1307,11,WATER HEATER,Water Heater Unmet Demand Heat Transfer Energy [J] !RunPeriod [Value,Min,Month,Day,Hour,Minute,Max,Month,Day,Hour,Minute]
1308,11,WATER HEATER,Water Heater Electricity Energy [J] !RunPeriod [Value,Min,Month,Day,Hour,Minute,Max,Month,Day,Hour,Minute]
13,11,Electricity:Facility [J] !RunPeriod [Value,Min,Month,Day,Hour,Minute,Max,Month,Day,Hour,Minute]
1134,11,Heating:Electricity [J] !RunPeriod [Value,Min,Month,Day,Hour,Minute,Max,Month,Day,Hour,Minute]
1096,11,Cooling:Electricity [J] !RunPeriod [Value,Min,Month,Day,Hour,Minute,Max,Month,Day,Hour,Minute]
562,11,Fans:Electricity [J] !RunPeriod [Value,Min,Month,Day,Hour,Minute,Max,Month,Day,Hour,Minute]
1379,11,Pumps:Electricity [J] !RunPeriod [Value,Min,Month,Day,Hour,Minute,Max,Month,Day,Hour,Minute]
1326,11,WaterSystems:Electricity [J] !RunPeriod [Value,Min,Month,Day,Hour,Minute,Max,Month,Day,Hour,Minute]
61,11,InteriorLights:Electricity [J] !RunPeriod [Value,Min,Month,Day,Hour,Minute,Max,Month,Day,Hour,Minute]
1046,11,ExteriorLights:Electricity [J] !RunPeriod [Value,Min,Month,Day,Hour,Minute,Max,Month,Day,Hour,Minute]
134,11,InteriorEquipment:Electricity [J] !RunPeriod [Value,Min,Month,Day,Hour,Minute,Max,Month,Day,Hour,Minute]
170,11,gas_dryer:InteriorEquipment:Electricity [J] !RunPeriod [Value,Min,Month,Day,Hour,Minute,Max,Month,Day,Hour,Minute]
207,11,clotheswasher:InteriorEquipment:Electricity [J] !RunPeriod [Value,Min,Month,Day,Hour,Minute,Max,Month,Day,Hour,Minute]
244,11,dishwasher:InteriorEquipment:Electricity [J] !RunPeriod [Value,Min,Month,Day,Hour,Minute,Max,Month,Day,Hour,Minute]
281,11,refrigerator:InteriorEquipment:Electricity [J] !RunPeriod [Value,Min,Month,Day,Hour,Minute,Max,Month,Day,Hour,Minute]
318,11,electric_mels:InteriorEquipment:Electricity [J] !RunPeriod [Value,Min,Month,Day,Hour,Minute,Max,Month,Day,Hour,Minute]
355,11,NaturalGas:Facility [J] !RunPeriod [Value,Min,Month,Day,Hour,Minute,Max,Month,Day,Hour,Minute]
403,11,InteriorEquipment:NaturalGas [J] !RunPeriod [Value,Min,Month,Day,Hour,Minute,Max,Month,Day,Hour,Minute]
476,11,gas_dryer:InteriorEquipment:NaturalGas [J] !RunPeriod [Value,Min,Month,Day,Hour,Minute,Max,Month,Day,Hour,Minute]
513,11,gas_mels:InteriorEquipment:NaturalGas [J] !RunPeriod [Value,Min,Month,Day,Hour,Minute,Max,Month,Day,Hour,Minute]
End of Data Dictionary
1,EXTREME_WINTER,  29.98, -90.25,  -6.00,   1.20
5,7
1038,0.5,0.0, 2, 3, 1,15,0.25, 2, 3, 6,15
1039,2.0,0.0, 2, 3, 1,15,0.25, 2, 6,13,15
581,0.33346218434552527,0.10554076965299942, 2, 7, 5,60,0.7071685476676891, 2, 7,15,52
582,5.271363764898003,0.0, 2, 5,20,50,17.909756330754963, 2, 7,15,52
583,0.018142488141335917,0.00020094447335809103, 2, 7, 5,60,0.07505441487549, 2, 3, 6,22
1115,549960077.9475701,0.0, 2, 3,23, 5,3728294.782383899, 2, 5, 6,45
1128,166997147.61082852,0.0, 2, 3,23, 5,1156636.483428394, 2, 5, 6,45
1153,9435043.494537514,0.0, 2, 3,23, 5,86562.34451605407, 2, 4,10,15
1154,67287975.7442211,0.0, 2, 3, 6, 5,180000.0, 2, 5,22,45
1155,1731745.4406537185,0.0, 2, 3, 1,15,850999.4064054713, 2, 5, 6, 5
1156,1731745.4406537185,0.0, 2, 3, 1,15,850999.4064054713, 2, 5, 6, 5
1292,-24318318.544505894,-39755.38912927954, 2, 3, 1,15,-3517.703049251964, 2, 6, 9,47
1306,288124796.62472826,0.0, 2, 3, 1,15,4050000.0, 2, 3, 9,60
1307,105685728.25987549,0.0, 2, 3, 1,15,10540864.13125183, 2, 9, 9,45
1308,288124796.62472826,0.0, 2, 3, 1,15,4050000.0, 2, 3, 9,60
13,943539222.0072162,151703.1275401932, 2, 7, 4,15,5990053.801262124, 2, 3,21,45
61,301924526.02383536,88139.10953165221, 2, 3, 1,15,1282023.4113694867, 2, 3,20,15
134,70666020.44019976,63564.01800854099, 2, 3, 4,15,156554.22484006523, 2, 8,20,15
170,5241013.419656067,348.4159749238097, 2, 3, 4,15,17476.39704006126, 2, 8,12,15
207,6509451.13922267,815.2532113832032, 2, 3, 3,15,22990.642799023623, 2, 8,10,15
244,12749673.399825225,1521.856143006317, 2, 3, 4,15,53038.631142310165, 2, 8,20,15
281,46165882.481495745,59938.60262432081, 2, 3, 5,15,81951.81706819107, 2, 3,19,15
318,0.0,0.0, 2, 3, 1,15,0.0, 2, 3, 1,15
355,197687796.27748066,18561.32405820678, 2, 3, 4,15,724774.895203776, 2, 8,18,15
403,197687796.27748066,18561.32405820678, 2, 3, 4,15,724774.895203776, 2, 8,18,15
476,106772067.24485716,7098.072629279515, 2, 3, 4,15,356036.3026282215, 2, 8,12,15
513,0.0,0.0, 2, 3, 1,15,0.0, 2, 3, 1,15
562,19687509.99584228,0.0, 2, 3,23,15,129871.26714907259, 2, 5, 6,15
1046,0.0,0.0, 2, 3, 1,15,0.0, 2, 3, 1,15
1096,17684456.632370614,0.0, 2, 3, 1,15,486765.00674860796, 2, 6,15,15
1134,245451912.29024097,0.0, 2, 6,10,15,2168533.5177544844, 2, 5, 6,15
1326,288124796.6247282,0.0, 2, 3, 1,15,4050000.0, 2, 3, 9,60
1379,0.0,0.0, 2, 3, 1,15,0.0, 2, 3, 1,15
1,EXTREME_SUMMER,  29.98, -90.25,  -6.00,   1.20
5,7
1038,0.0,0.0, 6,22, 1,15,0.0, 6,22, 1,15
1039,60.0,0.0, 6,22, 1,15,0.25, 6,22,15,15
581,0.10498207345641966,0.0, 6,22, 6,45,0.4371268692532945, 6,26,16,47
582,2.9388345938171208,0.07960850109968758, 6,25, 7,54,9.322830360597425, 6,26,16,47
583,0.04836715746659151,0.000027372738714419284, 6,22,23, 3,0.07189821538281896, 6,26,16,47
1115,0.0,0.0, 6,22, 1,15,0.0, 6,22, 1,15
1128,0.0,0.0, 6,22, 1,15,0.0, 6,22, 1,15
1153,0.0,0.0, 6,22, 1,15,0.0, 6,22, 1,15
1154,0.0,0.0, 6,22, 1,15,0.0, 6,22, 1,15
1155,0.0,0.0, 6,22, 1,15,0.0, 6,22, 1,15
1156,0.0,0.0, 6,22, 1,15,0.0, 6,22, 1,15
1292,-21715387.834264237,-34325.470646853355, 6,28, 6,30,-3764.2007313318004, 6,25, 9,45
1306,210346155.19753245,0.0, 6,22, 1,15,3661616.1357918247, 6,22,16,45
1307,49773703.68724086,0.0, 6,22, 1,15,2163383.6560877725, 6,28, 9,40
1308,210346155.19753245,0.0, 6,22, 1,15,3661616.1357918247, 6,22,16,45
13,1290288498.517878,333777.83562362136, 6,22, 4,60,6925604.6576205995, 6,28,21,15
61,301924526.02383536,88139.10953165221, 6,22, 1,15,1282023.4113694867, 6,22,20,15
134,70666020.44019976,63564.01800854099, 6,22, 4,15,156554.22484006523, 6,27,20,15
170,5241013.419656067,348.4159749238097, 6,22, 4,15,17476.39704006126, 6,27,12,15
207,6509451.13922267,815.2532113832032, 6,22, 3,15,22990.642799023623, 6,27,10,15
244,12749673.399825225,1521.856143006317, 6,22, 4,15,53038.631142310165, 6,27,20,15
281,46165882.481495745,59938.60262432081, 6,22, 5,15,81951.81706819107, 6,22,19,15
318,0.0,0.0, 6,22, 1,15,0.0, 6,22, 1,15
355,197687796.27748066,18561.32405820678, 6,22, 4,15,724774.895203776, 6,27,18,15
403,197687796.27748066,18561.32405820678, 6,22, 4,15,724774.895203776, 6,27,18,15
476,106772067.24485716,7098.072629279515, 6,22, 4,15,356036.3026282215, 6,27,12,15
513,0.0,0.0, 6,22, 1,15,0.0, 6,22, 1,15
562,65035912.398604825,18168.63449877012, 6,22, 4,60,133120.9950002377, 6,22,14,15
1046,0.0,0.0, 6,22, 1,15,0.0, 6,22, 1,15
1096,642315884.4577059,163906.07358465804, 6,22, 4,60,1469937.2222036638, 6,28,16,60
1134,0.0,0.0, 6,22, 1,15,0.0, 6,22, 1,15
1326,210346155.19753242,0.0, 6,22, 1,15,4050000.0, 6,22, 9,60
1379,0.0,0.0, 6,22, 1,15,0.0, 6,22, 1,15
1,ANNUAL,  29.98, -90.25,  -6.00,   1.20
5,365
1038,1.75,0.0, 1, 1, 1,15,0.25, 1, 6, 6,15
1039,1409.25,0.0, 1, 1, 1,15,0.25, 1,11,13,30
581,0.2003607271981685,0.0, 5, 4,23, 3,1.1827470262183852, 3, 9,15,60
582,3.928067550000735,0.0, 1, 1, 5,15,22.383606493527225, 3, 9,15,60
583,0.03416573431997289,0.0, 6, 2,23, 3,0.08286529487939931, 7,27,17,46
1115,1846778990.825484,0.0, 1, 1, 1,15,4337078.6884820685, 2, 2, 6,60
1128,557477117.7203104,0.0, 1, 1, 1,15,1319254.3069499389, 2, 2, 6,60
1153,23594253.92204063,0.0, 1, 1, 1,15,91988.77473669047, 2, 4, 9,60
1154,500943247.7142655,0.0, 1, 1, 1,15,180000.0, 1, 5,20,15
1155,5453681.20176666,0.0, 1, 1, 1,15,850999.4064054713, 1,20, 6, 5
1156,5453681.20176666,0.0, 1, 1, 1,15,850999.4064054713, 1,20, 6, 5
1292,-1154903979.9551907,-39747.03942411529, 1,29, 4,30,-1519.9374699064945,11, 9, 9,46
1306,12865035508.300354,0.0, 1, 1, 1,15,4050000.0, 1, 1,21,15
1307,3915789725.0124235,0.0, 1, 1, 1,15,12152634.2021674, 2, 3, 9,60
1308,12865035508.300354,0.0, 1, 1, 1,15,4050000.0, 1, 1,21,15
13,55538481588.78113,151703.1275401932, 1, 2, 4,15,6973920.712636823, 8,24,21,15
61,15743207428.383959,88139.10953165221, 1, 1, 1,15,1282023.4113694867, 1, 1,20,15
134,3685071073.4325233,63564.01800854099, 1, 2, 4,15,156554.22484006523, 1, 1,20,15
170,273393721.45532674,348.4159749238097, 1, 2, 4,15,17476.39704006126, 1, 1,12,15
207,339560869.0695816,815.2532113832032, 1, 2, 3,15,22990.642799023623, 1, 1,10,15
244,664895467.8009144,1521.856143006317, 1, 2, 4,15,53038.631142310165, 1, 1,20,15
281,2407221015.106824,59938.60262432081, 1, 1, 5,15,81951.81706819107, 1, 1,19,15
318,0.0,0.0, 1, 1, 1,15,0.0, 1, 1, 1,15
355,10310294493.051695,18561.32405820678, 1, 2, 4,15,724774.895203776, 1, 1,18,15
403,10310294493.051695,18561.32405820678, 1, 2, 4,15,724774.895203776, 1, 1,18,15
476,5569688622.066177,7098.072629279515, 1, 2, 4,15,356036.3026282215, 1, 1,12,15
513,0.0,0.0, 1, 1, 1,15,0.0, 1, 1, 1,15
562,2217580510.000511,0.0, 1, 1, 1,30,133120.99500023772, 6,16,17,60
1046,0.0,0.0, 1, 1, 1,15,0.0, 1, 1, 1,15
1096,19940118768.102406,0.0, 1, 1, 1,30,1489163.4104882316, 7,29,16,60
1134,1087468300.5583842,0.0, 1, 1, 1,15,2298408.2841223427, 2, 5, 6,15
1326,12865035508.300339,0.0, 1, 1, 1,15,4050000.0000000014, 2,14, 9,60
1379,0.0,0.0, 1, 1, 1,15,0.0, 1, 1, 1,15
End of Data
 Number of Records Written=          99
