Program Version,EnergyPlus, Version 22.2.0-c249759bad, YMD=2023.09.01 14:31
1,5,Environment Title[],Latitude[deg],Longitude[deg],Time Zone[],Elevation[m]
2,8,Day of Simulation[],Month[],Day of Month[],DST Indicator[1=yes 0=no],Hour[],StartMinute[],EndMinute[],DayType
3,5,Cumulative Day of Simulation[],Month[],Day of Month[],DST Indicator[1=yes 0=no],DayType  ! When Daily Report Variables Requested
4,2,Cumulative Days of Simulation[],Month[]  ! When Monthly Report Variables Requested
5,1,Cumulative Days of Simulation[] ! When Run Period Report Variables Requested
6,1,Calendar Year of Simulation[] ! When Annual Report Variables Requested
7,1,Environment,Site Outdoor Air Drybulb Temperature [C] !Hourly
545,1,LIVING,Zone Mean Air Temperature [C] !Hourly
546,1,ATTIC,Zone Mean Air Temperature [C] !Hourly
547,1,CRAWLSPACE,Zone Mean Air Temperature [C] !Hourly
548,1,FAN,Fan Electricity Rate [W] !Hourly
720,1,LIVING,Zone Predicted Sensible Load to Heating Setpoint Heat Transfer Rate [W] !Hourly
721,1,LIVING,Zone System Predicted Sensible Load to Heating Setpoint Heat Transfer Rate [W] !Hourly
784,1,ATTIC,Zone Predicted Sensible Load to Heating Setpoint Heat Transfer Rate [W] !Hourly
785,1,ATTIC,Zone System Predicted Sensible Load to Heating Setpoint Heat Transfer Rate [W] !Hourly
848,1,CRAWLSPACE,Zone Predicted Sensible Load to Heating Setpoint Heat Transfer Rate [W] !Hourly
849,1,CRAWLSPACE,Zone System Predicted Sensible Load to Heating Setpoint Heat Transfer Rate [W] !Hourly
1121,1,DX_HEATING_COIL,Heating Coil Heating Rate [W] !Hourly
1135,1,DX_HEATING_COIL,Heating Coil Electricity Rate [W] !Hourly
1161,1,DX_HEATING_COIL,Heating Coil Defrost Electricity Rate [W] !Hourly
1163,1,DX_HEATING_COIL,Heating Coil Crankcase Heater Electricity Rate [W] !Hourly
1166,1,HEATING_RESISTANCE_BACKUP,Heating Coil Heating Rate [W] !Hourly
1168,1,HEATING_RESISTANCE_BACKUP,Heating Coil Electricity Rate [W] !Hourly
End of Data Dictionary
1,EXTREME_WINTER,  46.90, -96.80,  -6.00, 274.30
2,1, 2, 5, 0, 1, 0.00,60.00,Monday
7,-12.8
545,18.536849504008263
546,-9.343456305431804
547,17.177064704883758
548,150.08504929596725
720,6991.51140549101
721,6991.51140549101
784,0.0
785,0.0
848,0.0
849,0.0
1121,3309.010951423018
1135,1278.8220619810595
1161,27.26778132674244
1163,0.0
1166,6475.905324297621
1168,6475.905324297621
2,1, 2, 5, 0, 2, 0.00,60.00,Monday
7,-13.0
545,18.553187934429154
546,-8.214979383526524
547,16.611730103813166
548,150.08504929596725
720,7008.439026344562
721,7008.439026344562
784,0.0
785,0.0
848,0.0
849,0.0
1121,3319.708815272711
1135,1285.5795645405535
1161,18.09641870526393
1163,0.0
1166,6377.686487082354
1168,6377.686487082354
2,1, 2, 5, 0, 3, 0.00,60.00,Monday
7,-14.0
545,18.54786544940481
546,-8.209487540515225
547,16.36118059074402
548,150.08504929596725
720,7315.984305033688
721,7315.984305033688
784,0.0
785,0.0
848,0.0
849,0.0
1121,3203.7792257513743
1135,1268.476605952561
1161,21.608280392767494
1163,0.0
1166,6792.424875103654
1168,6792.424875103654
2,1, 2, 5, 0, 4, 0.00,60.00,Monday
7,-14.4
545,18.55476010926602
546,-8.081314494568959
547,16.074392346421824
548,150.08504929596725
720,7044.832399785566
721,7044.832399785566
784,0.0
785,0.0
848,0.0
849,0.0
1121,3171.1757763488226
1135,1266.3906556729874
1161,18.88827961622461
1163,0.0
1166,6498.2200154815255
1168,6498.2200154815255
2,1, 2, 5, 0, 5, 0.00,60.00,Monday
7,-16.7
545,18.53832124936739
546,-9.284251879010844
547,15.806732220357052
548,150.08504929596725
720,7472.0044135024655
721,7472.0044135024655
784,0.0
785,0.0
848,0.0
849,0.0
1121,2959.3583515233877
1135,1244.9266370609803
1161,11.699355553175263
1163,0.0
1166,7197.617359841384
1168,7197.617359841384
2,1, 2, 5, 0, 6, 0.00,60.00,Monday
7,-17.8
545,19.310840808337183
546,-9.533314955832052
547,15.571468802543952
548,150.08504929596725
720,8236.032749551316
721,8236.032749551316
784,0.0
785,0.0
848,0.0
849,0.0
1121,2856.2487416332347
1135,1231.2510798641783
1161,10.047715596550592
1163,0.0
1166,8238.143762938545
1168,8238.143762938545
2,1, 2, 5, 0, 7, 0.00,60.00,Monday
7,-17.8
545,19.549338457130744
546,-9.926729588179546
547,15.378521660863228
548,150.08504929596725
720,7989.572452796412
721,7989.572452796412
784,0.0
785,0.0
848,0.0
849,0.0
1121,2839.700112297053
1135,1246.8614275925836
1161,10.047715596550592
1163,0.0
1166,8071.825876169199
1168,8071.825876169199
2,1, 2, 5, 0, 8, 0.00,60.00,Monday
7,-20.0
545,19.60766057498265
546,-11.154766878565116
547,15.15205614491722
548,150.08504929596725
720,8112.827825540406
721,8112.827825540406
784,0.0
785,0.0
848,0.0
849,0.0
1121,2627.465482760914
1135,1219.7412869841837
1161,9.149908492384268
1163,0.0
1166,8475.852613012405
1168,8475.852613012405
2,1, 2, 5, 0, 9, 0.00,60.00,Monday
7,-20.0
545,19.641298552540945
546,-11.155364073514857
547,14.95652005215673
548,150.08504929596725
720,7447.505688592211
721,7447.505688592211
784,0.0
785,0.0
848,0.0
849,0.0
1121,2632.341130715181
1135,1223.352477164233
1161,6.829684446820701
1163,0.0
1166,7773.633462268528
1168,7773.633462268528
2,1, 2, 5, 0,10, 0.00,60.00,Monday
7,-20.0
545,19.66777214782529
546,-10.305647335518692
547,14.763126031867735
548,150.08504929596725
720,6618.07955696281
721,6618.07955696281
784,0.0
785,0.0
848,0.0
849,0.0
1121,2631.8434125475396
1135,1223.787449305949
1161,6.829684446820701
1163,0.0
1166,6815.785114145847
1168,6815.785114145847
2,1, 2, 5, 0,11, 0.00,60.00,Monday
7,-19.4
545,19.66893962470007
546,-9.4012808106241
547,14.591356075568626
548,150.08504929596725
720,6449.179303713654
721,6449.179303713654
784,0.0
785,0.0
848,0.0
849,0.0
1121,2691.252181955003
1135,1234.8445946528757
1161,5.520883063581631
1163,0.0
1166,6510.785335530154
1168,6510.785335530154
2,1, 2, 5, 0,12, 0.00,60.00,Monday
7,-18.9
545,19.68911557371119
546,-7.58671483206189
547,14.438595417245232
548,150.08504929596725
720,5678.093157414267
721,5678.093157414267
784,0.0
785,0.0
848,0.0
849,0.0
1121,2736.369048416975
1135,1241.064117485866
1161,6.521086579911981
1163,0.0
1166,5519.882467587628
1168,5519.882467587628
2,1, 2, 5, 0,13, 0.00,60.00,Monday
7,-18.9
545,19.693798990700127
546,-6.515628659572148
547,14.302634530786372
548,150.08504929596725
720,5380.316611768965
721,5380.316611768965
784,0.0
785,0.0
848,0.0
849,0.0
1121,2736.1138914163566
1135,1241.294804391625
1161,6.521086579911981
1163,0.0
1166,5066.749608615972
1168,5066.749608615972
2,1, 2, 5, 0,14, 0.00,60.00,Monday
7,-17.8
545,19.718873916831626
546,-4.464359228219487
547,14.201718786730913
548,150.08504929596725
720,4312.129188463012
721,4312.129188463012
784,0.0
785,0.0
848,0.0
849,0.0
1121,2839.0754012733896
1135,1256.0824464487323
1161,7.7569015464129505
1163,0.0
1166,3648.632289832831
1168,3648.632289832831
2,1, 2, 5, 0,15, 0.00,60.00,Monday
7,-17.2
545,19.707137629395397
546,-4.826013564688137
547,14.107071317012988
548,150.08504929596725
720,4457.818844551202
721,4457.818844551202
784,0.0
785,0.0
848,0.0
849,0.0
1121,2897.229467798808
1135,1264.9897552205518
1161,7.892932127940037
1163,0.0
1166,3639.9333148359246
1168,3639.9333148359246
2,1, 2, 5, 0,16, 0.00,60.00,Monday
7,-17.2
545,19.703477070107052
546,-5.566959965981453
547,14.036195860734352
548,150.08504929596725
720,4128.224834777548
721,4128.224834777548
784,0.0
785,0.0
848,0.0
849,0.0
1121,2897.6059013590952
1135,1264.6326480712144
1161,7.892932127940037
1163,0.0
1166,3260.9573653529897
1168,3260.9573653529897
2,1, 2, 5, 0,17, 0.00,60.00,Monday
7,-17.2
545,19.73289514348676
546,-4.288898890004102
547,13.989937107315228
548,150.08504929596725
720,2759.3240380730404
721,2759.3240380730404
784,0.0
785,0.0
848,0.0
849,0.0
1121,2902.776523119067
1135,1266.748698781649
1161,6.077703357733803
1163,0.0
1166,1684.6515121905786
1168,1684.6515121905786
2,1, 2, 5, 0,18, 0.00,60.00,Monday
7,-18.9
545,19.68322368225749
546,-6.950446416885389
547,13.922108059459006
548,150.08504929596725
720,4136.169368964496
721,4136.169368964496
784,0.0
785,0.0
848,0.0
849,0.0
1121,2731.5664953819755
1135,1239.8495339704966
1161,8.075082222597445
1163,0.0
1166,3358.5210810243016
1168,3358.5210810243016
2,1, 2, 5, 0,19, 0.00,60.00,Monday
7,-18.9
545,19.662438632333313
546,-9.090383913568399
547,13.857475425723523
548,150.08504929596725
720,4402.068100898907
721,4402.068100898907
784,0.0
785,0.0
848,0.0
849,0.0
1121,2732.7354151625063
1135,1238.7927144268838
1161,8.075082222597445
1163,0.0
1166,3806.601113147536
1168,3806.601113147536
2,1, 2, 5, 0,20, 0.00,60.00,Monday
7,-21.1
545,19.658903033823933
546,-9.64418409991757
547,13.754148227359178
548,150.08504929596725
720,4538.578042730012
721,4538.578042730012
784,0.0
785,0.0
848,0.0
849,0.0
1121,2528.7066173666685
1135,1204.6768128094955
1161,7.84881793182104
1163,0.0
1166,4291.38025772901
1168,4291.38025772901
2,1, 2, 5, 0,21, 0.00,60.00,Monday
7,-21.1
545,19.658388241942493
546,-10.837220899039483
547,13.650390432672614
548,150.08504929596725
720,4901.847955776193
721,4901.847955776193
784,0.0
785,0.0
848,0.0
849,0.0
1121,2528.891086907287
1135,1204.4969620615632
1161,7.856406824643172
1163,0.0
1166,4762.302016918014
1168,4762.302016918014
2,1, 2, 5, 0,22, 0.00,60.00,Monday
7,-21.1
545,19.654165420750292
546,-11.18459367094697
547,13.5309341751729
548,150.08504929596725
720,5288.121877465208
721,5288.121877465208
784,0.0
785,0.0
848,0.0
849,0.0
1121,2529.0264876950073
1135,1204.3828384430426
1161,7.856406824643172
1163,0.0
1166,5286.604843079727
1168,5286.604843079727
2,1, 2, 5, 0,23, 0.00,60.00,Monday
7,-21.7
545,18.90695016311786
546,-11.776277429290579
547,13.3984855752234
548,150.08504929596725
720,4589.5561960557025
721,4589.5561960557025
784,0.0
785,0.0
848,0.0
849,0.0
1121,2476.518874401474
1135,1195.3611518500459
1161,7.20936869086982
1163,0.0
1166,4568.170935954513
1168,4568.170935954513
2,1, 2, 5, 0,24, 0.00,60.00,Monday
7,-22.2
545,18.659304527392926
546,-12.072047206931025
547,13.22808759478422
548,150.08504929596725
720,5180.011072665027
721,5180.011072665027
784,0.0
785,0.0
848,0.0
849,0.0
1121,2453.542498262681
1135,1176.8200112059956
1161,4.815439444623911
1163,0.0
1166,5234.361670829997
1168,5234.361670829997
2,2, 2, 6, 0, 1, 0.00,60.00,Tuesday
7,-22.2
545,18.572405907391495
546,-12.60625666948744
547,13.08157125375316
548,150.08504929596725
720,5790.981824408511
721,5790.981824408511
784,0.0
785,0.0
848,0.0
849,0.0
1121,2458.9939536175943
1135,1172.3127990825317
1161,4.815439444623911
1163,0.0
1166,5944.232720939475
1168,5944.232720939475
2,2, 2, 6, 0, 2, 0.00,60.00,Tuesday
7,-22.2
545,18.544425545618942
546,-12.85911898466729
547,12.93151478792256
548,150.08504929596725
720,6197.840847943951
721,6197.840847943951
784,0.0
785,0.0
848,0.0
849,0.0
1121,2460.9915142789214
1135,1170.6416434143807
1161,4.819682856309544
1163,0.0
1166,6450.614290260053
1168,6450.614290260053
2,2, 2, 6, 0, 3, 0.00,60.00,Tuesday
7,-23.9
545,18.526285752450626
546,-13.637792894226944
547,12.769345300721474
548,150.08504929596725
720,6845.428100350713
721,6845.428100350713
784,0.0
785,0.0
848,0.0
849,0.0
1121,2312.790149977426
1135,1143.0941605215637
1161,4.8492656607070055
1163,0.0
1166,7377.3678372614595
1168,7377.3678372614595
2,2, 2, 6, 0, 4, 0.00,60.00,Tuesday
7,-23.9
545,18.52451173461692
546,-13.785663292875658
547,12.623662215789071
548,150.08504929596725
720,7048.227384259924
721,7048.227384259924
784,0.0
785,0.0
848,0.0
849,0.0
1121,2313.3568827883205
1135,1142.6517115987535
1161,4.8492656607070055
1163,0.0
1166,7670.751421664014
1168,7670.751421664014
2,2, 2, 6, 0, 5, 0.00,60.00,Tuesday
7,-23.3
545,18.534350390959013
546,-13.513977814912002
547,12.480493436546345
548,150.08504929596725
720,6913.073878194427
721,6913.073878194427
784,0.0
785,0.0
848,0.0
849,0.0
1121,2364.32033629308
1135,1151.5376398451967
1161,5.349567696414265
1163,0.0
1166,7485.338329625086
1168,7485.338329625086
2,2, 2, 6, 0, 6, 0.00,60.00,Tuesday
7,-23.3
545,19.302113611104943
546,-13.500704196434292
547,12.334396893900992
548,150.08504929596725
720,8128.202124117019
721,8128.202124117019
784,0.0
785,0.0
848,0.0
849,0.0
1121,2367.3754787290904
1135,1153.0757254472146
1161,3.988354163560905
1163,0.0
1166,8875.179803562029
1168,8875.179803562029
2,2, 2, 6, 0, 7, 0.00,60.00,Tuesday
7,-23.3
545,19.541740154491073
546,-13.44112100373545
547,12.223070036997507
548,150.08504929596725
720,7899.2150914066515
721,7899.2150914066515
784,0.0
785,0.0
848,0.0
849,0.0
1121,2351.347542148151
1135,1165.7703900310416
1161,3.988354163560905
1163,0.0
1166,8715.687588090495
1168,8715.687588090495
2,2, 2, 6, 0, 8, 0.00,60.00,Tuesday
7,-23.3
545,19.612745579134995
546,-13.552140774494282
547,12.087928911712106
548,150.08504929596725
720,7728.509140066071
721,7728.509140066071
784,0.0
785,0.0
848,0.0
849,0.0
1121,2340.240633086657
1135,1166.5876695346772
1161,6.716375457720974
1163,0.0
1166,8556.266873219518
1168,8556.266873219518
2,2, 2, 6, 0, 9, 0.00,60.00,Tuesday
7,-22.2
545,19.6473052657594
546,-12.604191384875884
547,11.966134245266936
548,150.08504929596725
720,7122.858241133197
721,7122.858241133197
784,0.0
785,0.0
848,0.0
849,0.0
1121,2431.999217984531
1135,1183.949343186008
1161,8.247493419481403
1163,0.0
1166,7782.042068525781
1168,7782.042068525781
2,2, 2, 6, 0,10, 0.00,60.00,Tuesday
7,-22.2
545,19.676888711763805
546,-10.256152506053406
547,11.843485359108875
548,150.08504929596725
720,6216.113281200982
721,6216.113281200982
784,0.0
785,0.0
848,0.0
849,0.0
1121,2431.4080242969703
1135,1184.4295654961286
1161,8.247493419481403
1163,0.0
1166,6682.895964110396
1168,6682.895964110396
2,2, 2, 6, 0,11, 0.00,60.00,Tuesday
7,-16.7
545,19.716699816931964
546,-6.542125886346432
547,11.782461347166532
548,150.08504929596725
720,4873.104603085532
721,4873.104603085532
784,0.0
785,0.0
848,0.0
849,0.0
1121,2932.4167053995357
1135,1260.6460020122704
1161,14.311559028979088
1163,0.0
1166,4500.946300162108
1168,4500.946300162108
2,2, 2, 6, 0,12, 0.00,60.00,Tuesday
7,-15.0
545,19.74359761343074
546,-2.5373893922218143
547,11.719359334842025
548,150.08504929596725
720,3876.6245812173293
721,3876.6245812173293
784,0.0
785,0.0
848,0.0
849,0.0
1121,3110.704887718405
1135,1287.9780062460839
1161,11.772815920638584
1163,0.0
1166,2944.3719932613094
1168,2944.3719932613094
2,2, 2, 6, 0,13, 0.00,60.00,Tuesday
7,-15.0
545,19.744836368331725
546,0.3426662284698458
547,11.682109881897665
548,150.08504929596725
720,3618.223112422673
721,3618.223112422673
784,0.0
785,0.0
848,0.0
849,0.0
1121,3110.188906999545
1135,1288.4956056172175
1161,11.772815920638584
1163,0.0
1166,2403.459269878058
1168,2403.459269878058
2,2, 2, 6, 0,14, 0.00,60.00,Tuesday
7,-11.7
545,19.764178031616478
546,3.8138951169212745
547,11.693595247993056
548,150.08504929596725
720,2596.2554033783636
721,2596.2554033783636
784,0.0
785,0.0
848,0.0
849,0.0
1121,3458.6821821714493
1135,1330.9692354720357
1161,12.21386154842144
1163,0.0
1166,698.6510667550958
1168,698.6510667550958
2,2, 2, 6, 0,15, 0.00,60.00,Tuesday
7,-11.1
545,19.763898002041138
546,3.8150841863733005
547,11.701072949282317
548,150.08504929596725
720,2232.8540700829235
721,2232.8540700829235
784,0.0
785,0.0
848,0.0
849,0.0
1121,3523.999342794931
1135,1338.9104621462025
1161,12.260323085753924
1163,0.0
1166,7.355970047017763
1168,7.355970047017763
2,2, 2, 6, 0,16, 0.00,60.00,Tuesday
7,-11.1
545,19.818098613601187
546,2.8709874367643535
547,11.707172558200803
548,131.53588864494722
720,1904.4392740679705
721,1904.4392740679705
784,0.0
785,0.0
848,0.0
849,0.0
1121,3043.255565649533
1135,1178.4348892022151
1161,10.789884390091494
1163,23.986948555556896
1166,0.0
1168,0.0
2,2, 2, 6, 0,17, 0.00,60.00,Tuesday
7,-11.7
545,19.790365381669094
546,0.4885156701894401
547,11.739902279641866
548,124.33125406787438
720,1734.9063097109247
721,1734.9063097109247
784,0.0
785,0.0
848,0.0
849,0.0
1121,2805.3907561631227
1135,1109.032785315928
1161,10.174304655953149
1163,33.59315318485561
1166,0.0
1168,0.0
2,2, 2, 6, 0,18, 0.00,60.00,Tuesday
7,-12.2
545,19.618187598875057
546,-2.862970316785927
547,11.805914759833582
548,150.08504929596725
720,2461.002296820081
721,2461.002296820081
784,0.0
785,0.0
848,0.0
849,0.0
1121,3396.524020890696
1135,1323.1695924034161
1161,14.24699375291041
1163,0.0
1166,478.9917768473845
1168,478.9917768473845
2,2, 2, 6, 0,19, 0.00,60.00,Tuesday
7,-12.2
545,19.638372138713983
546,-4.715561139618574
547,11.821400095812786
548,150.08504929596725
720,2989.626356077144
721,2989.626356077144
784,0.0
785,0.0
848,0.0
849,0.0
1121,3400.3182240418305
1135,1319.1389349308558
1161,14.24699375291041
1163,0.0
1166,1276.7759888446035
1168,1276.7759888446035
2,2, 2, 6, 0,20, 0.00,60.00,Tuesday
7,-12.2
545,19.63779013981456
546,-5.917429389009131
547,11.821894316335092
548,150.08504929596725
720,3925.73687012741
721,3925.73687012741
784,0.0
785,0.0
848,0.0
849,0.0
1121,3350.074922343476
1135,1300.2350863109527
1161,29.362182599456414
1163,0.0
1166,2549.7381180093385
1168,2549.7381180093385
2,2, 2, 6, 0,21, 0.00,60.00,Tuesday
7,-11.7
545,19.669594447936195
546,-5.882958978557524
547,11.805525923404216
548,150.08504929596725
720,3799.7219747139843
721,3799.7219747139843
784,0.0
785,0.0
848,0.0
849,0.0
1121,3394.795977012502
1135,1303.0981478131444
1161,31.974216026817416
1163,0.0
1166,2453.8847421464
1168,2453.8847421464
2,2, 2, 6, 0,22, 0.00,60.00,Tuesday
7,-11.7
545,19.676915865050034
546,-6.008101628147996
547,11.763521711806748
548,150.08504929596725
720,4214.734012395458
721,4214.734012395458
784,0.0
785,0.0
848,0.0
849,0.0
1121,3394.110952682268
1135,1303.8326149031325
1161,31.974216026817416
1163,0.0
1166,2947.1107642271136
1168,2947.1107642271136
2,2, 2, 6, 0,23, 0.00,60.00,Tuesday
7,-11.7
545,18.93631409207587
546,-6.170987520531855
547,11.706079247871818
548,150.08504929596725
720,3759.553958826713
721,3759.553958826713
784,0.0
785,0.0
848,0.0
849,0.0
1121,3410.2735502719165
1135,1310.1804601326999
1161,27.119269909859753
1163,0.0
1166,2427.404598511415
1168,2427.404598511415
2,2, 2, 6, 0,24, 0.00,60.00,Tuesday
7,-11.7
545,18.695192297746136
546,-5.933337040871161
547,11.605194146587932
548,150.08504929596725
720,4183.319953245114
721,4183.319953245114
784,0.0
785,0.0
848,0.0
849,0.0
1121,3410.3660901416442
1135,1286.2882665717996
1161,31.98949130032047
1163,0.0
1166,2860.108721972497
1168,2860.108721972497
2,3, 2, 7, 0, 1, 0.00,60.00,Wednesday
7,-11.7
545,18.606538075624258
546,-5.8234085869961785
547,11.523144663160794
548,150.08504929596725
720,4760.569546318868
721,4760.569546318868
784,0.0
785,0.0
848,0.0
849,0.0
1121,3415.7711329961617
1135,1280.4609272173318
1161,31.98949130032047
1163,0.0
1166,3499.3783498316175
1168,3499.3783498316175
2,3, 2, 7, 0, 2, 0.00,60.00,Wednesday
7,-9.0
545,18.58052110652849
546,-4.461728299123289
547,11.455685056291966
548,150.08504929596725
720,5092.276806837086
721,5092.276806837086
784,0.0
785,0.0
848,0.0
849,0.0
1121,3721.0004198162496
1135,1311.6015226442191
1161,30.26200647227077
1163,0.0
1166,3589.2096548877835
1168,3589.2096548877835
2,3, 2, 7, 0, 3, 0.00,60.00,Wednesday
7,-9.0
545,18.587919846447026
546,-3.957226823823263
547,11.371803283503592
548,150.08504929596725
720,5018.6078131648555
721,5018.6078131648555
784,0.0
785,0.0
848,0.0
849,0.0
1121,3721.6322600170884
1135,1310.8930496867576
1161,30.26200647227077
1163,0.0
1166,3440.721440472557
1168,3440.721440472557
2,3, 2, 7, 0, 4, 0.00,60.00,Wednesday
7,-9.4
545,18.58544557438482
546,-3.9866687498843114
547,11.291506664724368
548,150.08504929596725
720,5067.320289790852
721,5067.320289790852
784,0.0
785,0.0
848,0.0
849,0.0
1121,3663.939955214177
1135,1301.9237432123994
1161,33.76082296808349
1163,0.0
1166,3517.1882736913603
1168,3517.1882736913603
2,3, 2, 7, 0, 5, 0.00,60.00,Wednesday
7,-11.1
545,18.578242787185836
546,-4.7997783734691835
547,11.202715011602203
548,150.08504929596725
720,5199.621042152985
721,5199.621042152985
784,0.0
785,0.0
848,0.0
849,0.0
1121,3493.4005089632656
1135,1288.2306713205755
1161,29.04212758900423
1163,0.0
1166,3835.388634447474
1168,3835.388634447474
2,3, 2, 7, 0, 6, 0.00,60.00,Wednesday
7,-13.3
545,19.331260331601438
546,-5.431587813738577
547,11.114685200452827
548,150.08504929596725
720,6251.405032024077
721,6251.405032024077
784,0.0
785,0.0
848,0.0
849,0.0
1121,3268.6499829130835
1135,1265.5773447124768
1161,26.0272489967878
1163,0.0
1166,5306.755945014776
1168,5306.755945014776
2,3, 2, 7, 0, 7, 0.00,60.00,Wednesday
7,-13.3
545,19.57314487582422
546,-6.000384715530516
547,11.075893649388227
548,150.08504929596725
720,6024.100100349728
721,6024.100100349728
784,0.0
785,0.0
848,0.0
849,0.0
1121,3252.2887733928405
1135,1282.7142699486058
1161,26.0272489967878
1163,0.0
1166,5179.285259227863
1168,5179.285259227863
2,3, 2, 7, 0, 8, 0.00,60.00,Wednesday
7,-14.4
545,19.647624078738698
546,-6.54926822598007
547,10.99829690465231
548,150.08504929596725
720,5759.166370806059
721,5759.166370806059
784,0.0
785,0.0
848,0.0
849,0.0
1121,3132.9165733846075
1135,1274.0424180266498
1161,26.053111659830087
1163,0.0
1166,5045.87503268728
1168,5045.87503268728
2,3, 2, 7, 0, 9, 0.00,60.00,Wednesday
7,-14.4
545,19.68992232724512
546,-5.741120366664678
547,10.932760524786842
548,150.08504929596725
720,4806.5300855754995
721,4806.5300855754995
784,0.0
785,0.0
848,0.0
849,0.0
1121,3131.372239344097
1135,1275.6264001600764
1161,26.05050175432678
1163,0.0
1166,3979.8991926793906
1168,3979.8991926793906
2,3, 2, 7, 0,10, 0.00,60.00,Wednesday
7,-14.4
545,19.717225832715297
546,-3.154116114845186
547,10.871398216102577
548,150.08504929596725
720,3867.958516058019
721,3867.958516058019
784,0.0
785,0.0
848,0.0
849,0.0
1121,3130.52458357765
1135,1276.489053486036
1161,26.05050175432678
1163,0.0
1166,2847.1925408725083
1168,2847.1925408725083
2,3, 2, 7, 0,11, 0.00,60.00,Wednesday
7,-10.6
545,19.757831812200692
546,3.128149973119898
547,10.860777820465499
548,150.08504929596725
720,2441.6304148376494
721,2441.6304148376494
784,0.0
785,0.0
848,0.0
849,0.0
1121,3547.736566766285
1135,1330.1820750945992
1161,22.01474152725292
1163,0.0
1166,637.9447650206339
1168,637.9447650206339
2,3, 2, 7, 0,12, 0.00,60.00,Wednesday
7,-8.9
545,19.91229906236233
546,8.31535027874961
547,10.816033868659343
548,124.39301847465137
720,1797.6149871795915
721,1797.6149871795915
784,0.0
785,0.0
848,0.0
849,0.0
1121,3046.605112257022
1135,1130.5430983829015
1161,15.022601831486847
1163,33.39592266944229
1166,0.0
1168,0.0
2,3, 2, 7, 0,13, 0.00,60.00,Wednesday
7,-8.9
545,19.867670519987396
546,10.515752697903626
547,10.820988823322976
548,111.2335036358127
720,1797.7318897854875
721,1797.7318897854875
784,0.0
785,0.0
848,0.0
849,0.0
1121,2692.986873033091
1135,1013.9094986759059
1161,13.43342779451332
1163,51.020224845428785
1166,0.0
1168,0.0
2,3, 2, 7, 0,14, 0.00,60.00,Wednesday
7,-7.2
545,19.831268273448305
546,6.113914836578362
547,10.845972517850916
548,103.59417480281148
720,1894.8878694029427
721,1894.8878694029427
784,0.0
785,0.0
848,0.0
849,0.0
1121,2624.2571839060192
1135,956.9506567145089
1161,12.481074154100524
1163,61.35821335401379
1166,0.0
1168,0.0
2,3, 2, 7, 0,15, 0.00,60.00,Wednesday
7,-7.2
545,19.778189539539895
546,6.73448043328351
547,10.871949068645765
548,98.87721382805893
720,1720.5559290118108
721,1720.5559290118108
784,0.0
785,0.0
848,0.0
849,0.0
1121,2485.2546214297085
1135,909.8212024586601
1161,14.87897325522388
1163,67.5275357468944
1166,0.0
1168,0.0
2,3, 2, 7, 0,16, 0.00,60.00,Wednesday
7,-7.2
545,19.748203315363114
546,4.934235160324222
547,10.899959461583759
548,96.17526305179425
720,1672.7389688902658
721,1672.7389688902658
784,0.0
785,0.0
848,0.0
849,0.0
1121,2412.880416373293
1135,884.0958264920164
1161,14.47236247053693
1163,71.14772725577139
1166,0.0
1168,0.0
2,3, 2, 7, 0,17, 0.00,60.00,Wednesday
7,-6.7
545,19.485673293304743
546,1.9383944258899402
547,10.975743551155444
548,120.07276489752377
720,2201.634963126342
721,2201.634963126342
784,0.0
785,0.0
848,0.0
849,0.0
1121,3154.5807145343583
1135,1117.8495271352094
1161,7.913415825236558
1163,39.63752901515012
1166,0.0
1168,0.0
2,3, 2, 7, 0,18, 0.00,60.00,Wednesday
7,-8.3
545,19.501702024696897
546,-0.8757563451778838
547,11.020714247806776
548,150.08504929596725
720,2703.220034391914
721,2703.220034391914
784,0.0
785,0.0
848,0.0
849,0.0
1121,3801.1547072012695
1135,1348.1644414800853
1161,24.929535570985113
1163,0.0
1166,236.21774399491642
1168,236.21774399491642
2,3, 2, 7, 0,19, 0.00,60.00,Wednesday
7,-8.3
545,19.614873934983127
546,-2.2641940760555657
547,11.024729930464725
548,150.08504929596725
720,2863.9713510568854
721,2863.9713510568854
784,0.0
785,0.0
848,0.0
849,0.0
1121,3800.731303350723
1135,1348.6421831525504
1161,24.929535570985113
1163,0.0
1166,635.22999849181
1168,635.22999849181
2,3, 2, 7, 0,20, 0.00,60.00,Wednesday
7,-8.3
545,19.657205446741074
546,-2.759487491177112
547,11.02033017088877
548,150.08504929596725
720,3352.765576874115
721,3352.765576874115
784,0.0
785,0.0
848,0.0
849,0.0
1121,3763.6316775009486
1135,1339.2107234174507
1161,34.21573738371258
1163,0.0
1166,1351.1164224940565
1168,1351.1164224940565
2,3, 2, 7, 0,21, 0.00,60.00,Wednesday
7,-8.3
545,19.691150514670955
546,-2.9173901225257364
547,11.001121886634312
548,150.08504929596725
720,3203.61485938871
721,3203.61485938871
784,0.0
785,0.0
848,0.0
849,0.0
1121,3743.162151581941
1135,1333.3736803903357
1161,39.453979060542984
1163,0.0
1166,1249.569682834191
1168,1249.569682834191
2,3, 2, 7, 0,22, 0.00,60.00,Wednesday
7,-8.3
545,19.6960606649214
546,-3.172312960995551
547,10.969378490003225
548,150.08504929596725
720,3495.6019325446487
721,3495.6019325446487
784,0.0
785,0.0
848,0.0
849,0.0
1121,3742.424923746706
1135,1334.205128892111
1161,39.453979060542984
1163,0.0
1166,1601.6361766689156
1168,1601.6361766689156
2,3, 2, 7, 0,23, 0.00,60.00,Wednesday
7,-7.8
545,18.974258649153732
546,-3.780042323336936
547,10.932945394812798
548,150.08504929596725
720,2385.0831811807584
721,2385.0831811807584
784,0.0
785,0.0
848,0.0
849,0.0
1121,3765.532677898552
1135,1328.3196878056692
1161,48.327708479764915
1163,0.0
1166,314.7053890384909
1168,314.7053890384909
2,3, 2, 7, 0,24, 0.00,60.00,Wednesday
7,-7.8
545,18.720273411764325
546,-3.5340219510207733
547,10.847358761972867
548,150.08504929596725
720,2937.326630425021
721,2937.326630425021
784,0.0
785,0.0
848,0.0
849,0.0
1121,3781.54997549469
1135,1310.0808078393936
1161,48.33724747744689
1163,0.0
1166,888.3163712731848
1168,888.3163712731848
2,4, 2, 8, 0, 1, 0.00,60.00,Thursday
7,-7.8
545,18.630932165090023
546,-3.3149794032659465
547,10.786845876340236
548,150.08504929596725
720,3428.0251377027635
721,3428.0251377027635
784,0.0
785,0.0
848,0.0
849,0.0
1121,3787.248142494958
1135,1303.6063496211796
1161,48.33724747744689
1163,0.0
1166,1428.805346630687
1168,1428.805346630687
2,4, 2, 8, 0, 2, 0.00,60.00,Thursday
7,-7.0
545,18.606370795798416
546,-2.7077893819426264
547,10.731194506164957
548,150.08504929596725
720,3586.870776751357
721,3586.870776751357
784,0.0
785,0.0
848,0.0
849,0.0
1121,3838.888654875758
1135,1296.1576079082613
1161,58.98437177480696
1163,0.0
1166,1554.1302050311022
1168,1554.1302050311022
2,4, 2, 8, 0, 3, 0.00,60.00,Thursday
7,-7.0
545,18.593686023386013
546,-2.146975524768638
547,10.66979048720513
548,150.08504929596725
720,4000.7065623466333
721,4000.7065623466333
784,0.0
785,0.0
848,0.0
849,0.0
1121,3883.3645998571906
1135,1310.244124813056
1161,47.715982458106325
1163,0.0
1166,1964.5105402074696
1168,1964.5105402074696
2,4, 2, 8, 0, 4, 0.00,60.00,Thursday
7,-7.8
545,18.602166572448397
546,-1.6706540677867514
547,10.608497720235208
548,150.08504929596725
720,3759.888049886982
721,3759.888049886982
784,0.0
785,0.0
848,0.0
849,0.0
1121,3770.02072601736
1135,1293.2999237337997
1161,53.651436373626765
1163,0.0
1166,1771.934412604337
1168,1771.934412604337
2,4, 2, 8, 0, 5, 0.00,60.00,Thursday
7,-7.2
545,18.601589634354667
546,-1.8008606844276605
547,10.560432293187985
548,150.08504929596725
720,3766.042552006238
721,3766.042552006238
784,0.0
785,0.0
848,0.0
849,0.0
1121,3825.2396776239093
1135,1295.7926891709349
1161,56.8759125060964
1163,0.0
1166,1695.417976798928
1168,1695.417976798928
2,4, 2, 8, 0, 6, 0.00,60.00,Thursday
7,-7.0
545,19.35063539613535
546,-1.4696695513157414
547,10.51103936421259
548,150.08504929596725
720,4754.899901935423
721,4754.899901935423
784,0.0
785,0.0
848,0.0
849,0.0
1121,3839.789802044865
1135,1295.1252698299988
1161,58.98437177480696
1163,0.0
1166,2823.05379696158
1168,2823.05379696158
2,4, 2, 8, 0, 7, 0.00,60.00,Thursday
7,-7.2
545,19.598275610095275
546,-1.4560220307208818
547,10.499730016693814
548,150.08504929596725
720,4513.662877684921
721,4513.662877684921
784,0.0
785,0.0
848,0.0
849,0.0
1121,3808.957882885449
1135,1314.4375859017896
1161,56.87034807073542
1163,0.0
1166,2638.832372602435
1168,2638.832372602435
2,4, 2, 8, 0, 8, 0.00,60.00,Thursday
7,-7.0
545,19.67778657076922
546,-1.0009037229192723
547,10.466046067996654
548,150.08504929596725
720,4131.770034172938
721,4131.770034172938
784,0.0
785,0.0
848,0.0
849,0.0
1121,3817.9777574251843
1135,1320.1077569778504
1161,58.98437177480696
1163,0.0
1166,2209.213457214434
1168,2209.213457214434
2,4, 2, 8, 0, 9, 0.00,60.00,Thursday
7,-7.0
545,19.71131928491427
546,-0.22064435640450816
547,10.43286428398637
548,150.08504929596725
720,3586.4841417436146
721,3586.4841417436146
784,0.0
785,0.0
848,0.0
849,0.0
1121,3816.266100887343
1135,1322.0674347975526
1161,58.98437177480696
1163,0.0
1166,1563.069532108318
1168,1563.069532108318
2,4, 2, 8, 0,10, 0.00,60.00,Thursday
7,-7.2
545,19.737706900231213
546,3.7438057375171434
547,10.407341120623085
548,150.08504929596725
720,2625.451664256183
721,2625.451664256183
784,0.0
785,0.0
848,0.0
849,0.0
1121,3780.2340708046377
1135,1316.1880044564132
1161,62.29103490191415
1163,0.0
1166,441.2979424180535
1168,441.2979424180535
2,4, 2, 8, 0,11, 0.00,60.00,Thursday
7,-5.6
545,19.74810642967043
546,5.148856388173432
547,10.41277935617996
548,150.08504929596725
720,2625.0049934503404
721,2625.0049934503404
784,0.0
785,0.0
848,0.0
849,0.0
1121,3915.2917315001228
1135,1319.1825799895241
1161,73.88402524020918
1163,0.0
1166,96.36400662693268
1168,96.36400662693268
2,4, 2, 8, 0,12, 0.00,60.00,Thursday
7,-6.0