Program Version,EnergyPlus, Version 22.2.0-c249759bad, YMD=2023.09.01 14:30
1,5,Environment Title[],Latitude[deg],Longitude[deg],Time Zone[],Elevation[m]
2,8,Day of Simulation[],Month[],Day of Month[],DST Indicator[1=yes 0=no],Hour[],StartMinute[],EndMinute[],DayType
3,5,Cumulative Day of Simulation[],Month[],Day of Month[],DST Indicator[1=yes 0=no],DayType  ! When Daily Report Variables Requested
4,2,Cumulative Days of Simulation[],Month[]  ! When Monthly Report Variables Requested
5,1,Cumulative Days of Simulation[] ! When Run Period Report Variables Requested
6,1,Calendar Year of Simulation[] ! When Annual Report Variables Requested
7,1,Environment,Site Outdoor Air Drybulb Temperature [C] !Hourly
619,1,DX_HEATING_COIL,Heating Coil Heating Rate [W] !Hourly
633,1,DX_HEATING_COIL,Heating Coil Electricity Rate [W] !Hourly
659,1,DX_HEATING_COIL,Heating Coil Defrost Electricity Rate [W] !Hourly
661,1,DX_HEATING_COIL,Heating Coil Crankcase Heater Electricity Rate [W] !Hourly
690,1,FAN,Fan Electricity Rate [W] !Hourly
716,1,HEAT PUMP WATER HEATER FAN,Fan Electricity Rate [W] !Hourly
718,1,LIVING,Zone Mean Air Temperature [C] !Hourly
719,1,ATTIC,Zone Mean Air Temperature [C] !Hourly
720,1,CRAWLSPACE,Zone Mean Air Temperature [C] !Hourly
843,1,LIVING,Zone Predicted Sensible Load to Heating Setpoint Heat Transfer Rate [W] !Hourly
844,1,LIVING,Zone System Predicted Sensible Load to Heating Setpoint Heat Transfer Rate [W] !Hourly
907,1,ATTIC,Zone Predicted Sensible Load to Heating Setpoint Heat Transfer Rate [W] !Hourly
908,1,ATTIC,Zone System Predicted Sensible Load to Heating Setpoint Heat Transfer Rate [W] !Hourly
971,1,CRAWLSPACE,Zone Predicted Sensible Load to Heating Setpoint Heat Transfer Rate [W] !Hourly
972,1,CRAWLSPACE,Zone System Predicted Sensible Load to Heating Setpoint Heat Transfer Rate [W] !Hourly
1195,1,HEATING_RESISTANCE_BACKUP,Heating Coil Heating Rate [W] !Hourly
1197,1,HEATING_RESISTANCE_BACKUP,Heating Coil Electricity Rate [W] !Hourly
End of Data Dictionary
1,EXTREME_WINTER,  37.26,-104.34,  -7.00,1749.90
2,1, 1, 6, 0, 1, 0.00,60.00,Monday
7,-2.2
718,18.645703601657004
719,0.3136952094933299
720,19.0833828664749
619,915.3429507132894
633,317.1151048305163
659,5.986926406455298
661,161.24903886598224
690,33.38265253063489
716,0.0
843,662.2482490789334
844,662.2482490789334
907,0.0
908,0.0
971,0.0
972,0.0
1195,0.0
1197,0.0
2,1, 1, 6, 0, 2, 0.00,60.00,Monday
7,-3.3
718,18.66441886003239
719,-0.8654291780897476
720,18.72896198192607
619,1397.1245544251076
633,484.1788491670827
659,13.223443355090371
661,139.1084582338856
690,52.335474107646306
716,0.0
843,1017.6316353486227
844,1017.6316353486227
907,0.0
908,0.0
971,0.0
972,0.0
1195,0.0
1197,0.0
2,1, 1, 6, 0, 3, 0.00,60.00,Monday
7,-3.3
718,18.414013694878797
719,-1.6291593986423505
720,18.527028669321762
619,2053.4826403486077
633,700.5781555424936
659,19.128721365769078
661,111.89047688922517
690,75.72910782673463
716,0.0
843,1470.240458058186
844,1470.240458058186
907,0.0
908,0.0
971,0.0
972,0.0
1195,0.0
1197,0.0
2,1, 1, 6, 0, 4, 0.00,60.00,Monday
7,-3.9
718,18.455865216698044
719,-1.8023487575270356
720,18.285932121644546
619,2916.5116254633676
633,980.026233151642
659,30.260729230829774
661,74.92905790954356
690,107.36867454159534
716,0.0
843,2065.537777956528
844,2065.537777956528
907,0.0
908,0.0
971,0.0
972,0.0
1195,0.0
1197,0.0
2,1, 1, 6, 0, 5, 0.00,60.00,Monday
7,-4.4
718,18.621568410900114
719,-2.021265286314678
720,18.091871964230634
619,3264.9444169634444
633,1098.9690411568008
659,32.07854130261432
661,59.57211380608805
690,120.55324889579231
716,0.0
843,2292.147349125742
844,2292.147349125742
907,0.0
908,0.0
971,0.0
972,0.0
1195,0.0
1197,0.0
2,1, 1, 6, 0, 6, 0.00,60.00,Monday
7,-1.1
718,19.4517218033754
719,-0.4507911927325778
720,17.92193657794669
619,4178.513303725849
633,1303.069429514057
659,14.63521847063662
661,42.26167020266214
690,136.130243313837
716,0.0
843,2978.113111931052
844,2978.113111931052
907,0.0
908,0.0
971,0.0
972,0.0
1195,0.0
1197,0.0
2,1, 1, 6, 0, 7, 0.00,60.00,Monday
7,-3.9
718,19.53940131969223
719,-0.7177177378206773
720,17.73826003232658
619,4888.867980111064
633,1598.3395343195375
659,48.2559148529668
661,0.0
690,172.92289598476404
716,85.44000000000005
843,3060.704501756418
844,3060.704501756418
907,0.0
908,0.0
971,0.0
972,0.0
1195,725.0594227236488
1197,725.0594227236488
2,1, 1, 6, 0, 8, 0.00,60.00,Monday
7,-1.1
718,19.654655319891344
719,0.33607938554675326
720,17.60764658045057
619,5149.97691181207
633,1608.796730439318
659,27.8525142251492
661,6.974445641559779
690,166.4060617987693
716,82.73911226021167
843,2654.6553887179216
844,2654.6553887179216
907,0.0
908,0.0
971,0.0
972,0.0
1195,0.0
1197,0.0
2,1, 1, 6, 0, 9, 0.00,60.00,Monday
7,2.2
718,19.836062761969114
719,2.0041828245065543
720,17.493904764632887
619,2329.467737921397
633,732.2609602821957
659,9.29418413954375
661,115.39425918816382
690,73.06202761812567
716,0.0
843,1677.543179804019
844,1677.543179804019
907,0.0
908,0.0
971,0.0
972,0.0
1195,0.0
1197,0.0
2,1, 1, 6, 0,10, 0.00,60.00,Monday
7,5.6
718,19.85492097144259
719,5.9761629219250665
720,17.366762669320103
619,938.78584048187
633,265.3388569665094
659,0.0
661,172.3144927506311
690,23.937290451840234
716,0.0
843,707.8115460914632
844,707.8115460914632
907,0.0
908,0.0
971,0.0
972,0.0
1195,0.0
1197,0.0
2,1, 1, 6, 0,11, 0.00,60.00,Monday
7,6.7
718,19.76659894469781
719,10.3013847945878
720,17.262754931345714
619,112.99710312474838
633,31.8600629721268
659,0.0
661,196.71467142993808
690,2.8405426529829576
716,0.0
843,86.68027007008277
844,86.68027007008277
907,0.0
908,0.0
971,0.0
972,0.0
1195,0.0
1197,0.0
2,1, 1, 6, 0,12, 0.00,60.00,Monday
7,8.3
718,20.442833087786873
719,14.618837670981902
720,17.195082512746726
619,0.0
633,0.0
659,0.0
661,200.0
690,0.0
716,0.0
843,-516.6633535618457
844,-516.6633535618457
907,0.0
908,0.0
971,0.0
972,0.0
1195,0.0
1197,0.0
2,1, 1, 6, 0,13, 0.00,60.00,Monday
7,8.9
718,20.860779412256896
719,15.01826772243644
720,17.15850472741248
619,0.0
633,0.0
659,0.0
661,200.0
690,0.0
716,0.0
843,-870.5658573070996
844,-870.5658573070996
907,0.0
908,0.0
971,0.0
972,0.0
1195,0.0
1197,0.0
2,1, 1, 6, 0,14, 0.00,60.00,Monday
7,8.9
718,19.96532380941481
719,14.996113908088269
720,17.147103250236
619,0.0
633,0.0
659,0.0
661,200.0
690,0.0
716,78.7961250426427
843,-900.6081963434262
844,-900.6081963434262
907,0.0
908,0.0
971,0.0
972,0.0
1195,0.0
1197,0.0
2,1, 1, 6, 0,15, 0.00,60.00,Monday
7,9.4
718,21.237735265229148
719,14.644155202405472
720,17.153253746295707
619,0.0
633,0.0
659,0.0
661,200.0
690,0.0
716,0.0
843,-1260.9008335351155
844,-1260.9008335351155
907,0.0
908,0.0
971,0.0
972,0.0
1195,0.0
1197,0.0
2,1, 1, 6, 0,16, 0.00,60.00,Monday
7,8.9
718,21.880017873400853
719,13.224768600139369
720,17.167778659776804
619,0.0
633,0.0
659,0.0
661,200.0
690,0.0
716,0.0
843,-1346.4724498603955
844,-1346.4724498603955
907,0.0
908,0.0
971,0.0
972,0.0
1195,0.0
1197,0.0
2,1, 1, 6, 0,17, 0.00,60.00,Monday
7,5.6
718,21.993838800910932
719,10.465877792605534
720,17.190982270852427
619,0.0
633,0.0
659,0.0
661,200.0
690,0.0
716,0.0
843,-1494.0581945527174
844,-1494.0581945527174
907,0.0
908,0.0
971,0.0
972,0.0
1195,0.0
1197,0.0
2,1, 1, 6, 0,18, 0.00,60.00,Monday
7,3.9
718,21.64099911190774
719,8.042752378823806
720,17.208146601097695
619,0.0
633,0.0
659,0.0
661,200.0
690,0.0
716,0.0
843,-1234.8429166312035
844,-1234.8429166312035
907,0.0
908,0.0
971,0.0
972,0.0
1195,0.0
1197,0.0
2,1, 1, 6, 0,19, 0.00,60.00,Monday
7,2.2
718,20.27113305618091
719,6.320215371846202
720,17.215555211733555
619,0.0
633,0.0
659,0.0
661,200.0
690,0.0
716,85.44000000000005
843,-1118.7863488491512
844,-1118.7863488491512
907,0.0
908,0.0
971,0.0
972,0.0
1195,0.0
1197,0.0
2,1, 1, 6, 0,20, 0.00,60.00,Monday
7,2.8
718,19.97097693985298
719,4.834135989862044
720,17.20147330169246
619,0.0
633,0.0
659,0.0
661,200.0
690,0.0
716,85.44000000000005
843,-1203.2014170692073
844,-1203.2014170692073
907,0.0
908,0.0
971,0.0
972,0.0
1195,0.0
1197,0.0
2,1, 1, 6, 0,21, 0.00,60.00,Monday
7,2.8
718,19.925857562333274
719,3.991425561268979
720,17.166853160868914
619,0.0
633,0.0
659,0.0
661,200.0
690,0.0
716,34.916091381313585
843,-591.1899085540917
844,-591.1899085540917
907,0.0
908,0.0
971,0.0
972,0.0
1195,0.0
1197,0.0
2,1, 1, 6, 0,22, 0.00,60.00,Monday
7,2.2
718,19.894892363192476
719,3.4226753168794715
720,17.120208656702573
619,0.0
633,0.0
659,0.0
661,200.0
690,0.0
716,0.0
843,-134.52495745992564
844,-134.52495745992564
907,0.0
908,0.0
971,0.0
972,0.0
1195,0.0
1197,0.0
2,1, 1, 6, 0,23, 0.00,60.00,Monday
7,2.2
718,19.07962050224157
719,3.2430086717253848
720,17.060719845115596
619,0.0
633,0.0
659,0.0
661,200.0
690,0.0
716,0.0
843,-314.91183186996386
844,-314.91183186996386
907,0.0
908,0.0
971,0.0
972,0.0
1195,0.0
1197,0.0
2,1, 1, 6, 0,24, 0.00,60.00,Monday
7,1.7
718,18.734435729708665
719,2.6729128887373323
720,16.99937380597791
619,0.0
633,0.0
659,0.0
661,200.0
690,0.0
716,0.0
843,-88.7225395653386
844,-88.7225395653386
907,0.0
908,0.0
971,0.0
972,0.0
1195,0.0
1197,0.0
2,2, 1, 7, 0, 1, 0.00,60.00,Tuesday
7,2.2
718,18.622940313761525
719,2.691312608477983
720,16.920080044014394
619,481.4287458430118
633,154.43175649245993
659,12.338358165856604
661,180.11134113939391
690,17.067622856248274
716,0.0
843,338.65940078803214
844,338.65940078803214
907,0.0
908,0.0
971,0.0
972,0.0
1195,0.0
1197,0.0
2,2, 1, 7, 0, 2, 0.00,60.00,Tuesday
7,2.2
718,18.344349551685422
719,3.0258414954268202
720,16.836053759546544
619,862.6914816109476
633,273.22901459633584
659,16.748089099082264
661,165.58247309443254
690,29.58760941798225
716,0.0
843,648.7112796810725
844,648.7112796810725
907,0.0
908,0.0
971,0.0
972,0.0
1195,0.0
1197,0.0
2,2, 1, 7, 0, 3, 0.00,60.00,Tuesday
7,1.7
718,18.25924600046792
719,3.093474502261028
720,16.74118525775864
619,1659.307561945384
633,517.5759237818521
659,34.97354438461489
661,133.64513726737175
690,56.97329605908318
716,0.0
843,1236.2124136440689
844,1236.2124136440689
907,0.0
908,0.0
971,0.0
972,0.0
1195,0.0
1197,0.0
2,2, 1, 7, 0, 4, 0.00,60.00,Tuesday
7,1.7
718,18.65341407628147
719,3.7979361736088277
720,16.654102212516726
619,2340.14812850654
633,717.6880172023028
659,53.67316506070836
661,106.97376596654702
690,79.81603097026775
716,0.0
843,1765.853761363087
844,1765.853761363087
907,0.0
908,0.0
971,0.0
972,0.0
1195,0.0
1197,0.0
2,2, 1, 7, 0, 5, 0.00,60.00,Tuesday
7,0.6
718,18.68445059072763
719,3.420254726485224
720,16.575306669294708
619,2251.5439000350366
633,712.9396426802158
659,66.48883822116986
661,105.20480390067712
690,80.99939142163359
716,0.0
843,1689.1610526802906
844,1689.1610526802906
907,0.0
908,0.0
971,0.0
972,0.0
1195,0.0
1197,0.0
2,2, 1, 7, 0, 6, 0.00,60.00,Tuesday
7,0.0
718,19.407380649418226
719,3.58826248320376
720,16.48118877620475
619,3396.552013391793
633,1059.6819496593498
659,104.85703451205812
661,57.47488265870926
690,121.54015682312505
716,0.0
843,2517.733375077227
844,2517.733375077227
907,0.0
908,0.0
971,0.0
972,0.0
1195,0.0
1197,0.0
2,2, 1, 7, 0, 7, 0.00,60.00,Tuesday
7,1.1
718,19.51604440903986
719,4.070236417668823
720,16.436750460820072
619,4841.950481212699
633,1459.4152850414152
659,127.8209794727591
661,10.486580162035096
690,162.16940919909305
716,85.44000000000005
843,2560.3227540821135
844,2560.3227540821135
907,0.0
908,0.0
971,0.0
972,0.0
1195,0.0
1197,0.0
2,2, 1, 7, 0, 8, 0.00,60.00,Tuesday
7,0.6
718,19.643311741226473
719,3.723064266914762
720,16.354815021197844
619,4503.038232978957
633,1382.5504226734556
659,126.85467715737254
661,19.13935753774938
690,154.5321300996462
716,85.44000000000005
843,2249.490008711262
844,2249.490008711262
907,0.0
908,0.0
971,0.0
972,0.0
1195,0.0
1197,0.0
2,2, 1, 7, 0, 9, 0.00,60.00,Tuesday
7,1.1
718,19.700508756806297
719,4.454528875003024
720,16.288667356589823
619,3899.968219122774
633,1206.6602702757064
659,116.96510321890206
661,42.07943224307542
690,134.97769763114246
716,75.0398310644137
843,1921.3581860894465
844,1921.3581860894465
907,0.0
908,0.0
971,0.0
972,0.0
1195,0.0
1197,0.0
2,2, 1, 7, 0,10, 0.00,60.00,Tuesday
7,3.9
718,19.854249719480713
719,7.013773335681231
720,16.211140979534278
619,1689.559947641925
633,523.7876131355563
659,62.399729230731594
661,131.14582698835147
690,59.096588876662786
716,0.0
843,1251.7564346065737
844,1251.7564346065737
907,0.0
908,0.0
971,0.0
972,0.0
1195,0.0
1197,0.0
2,2, 1, 7, 0,11, 0.00,60.00,Tuesday
7,3.0
718,19.62792615252047
719,9.051164074396109
720,16.14840640389466
619,1049.9330962906527
633,336.7575468360354
659,35.691613691175654
661,156.2570681731371
690,37.50224265626093
716,0.0
843,800.5341364701399
844,800.5341364701399
907,0.0
908,0.0
971,0.0
972,0.0
1195,0.0
1197,0.0
2,2, 1, 7, 0,12, 0.00,60.00,Tuesday
7,3.3
718,19.92129361268262
719,14.840182153834217
720,16.104257930712198
619,594.8174006290906
633,190.567220702418
659,17.999988919458428
661,175.57848321934563
690,20.969279458470375
716,0.0
843,466.64870304734904
844,466.64870304734904
907,0.0
908,0.0
971,0.0
972,0.0
1195,0.0
1197,0.0
2,2, 1, 7, 0,13, 0.00,60.00,Tuesday
7,5.0
718,19.952704891951413
719,15.03913097378612
720,16.076817256869504
619,0.0
633,0.0
659,0.0
661,200.0
690,0.0
716,0.0
843,-164.2215654395295
844,-164.2215654395295
907,0.0
908,0.0
971,0.0
972,0.0
1195,0.0
1197,0.0
2,2, 1, 7, 0,14, 0.00,60.00,Tuesday
7,4.4
718,20.291873417623762
719,15.352878930884858
720,16.080489612097495
619,0.0
633,0.0
659,0.0
661,200.0
690,0.0
716,0.0
843,-395.73839336797937
844,-395.73839336797937
907,0.0
908,0.0
971,0.0
972,0.0
1195,0.0
1197,0.0
2,2, 1, 7, 0,15, 0.00,60.00,Tuesday
7,5.0
718,20.122682549180976
719,12.97829269284033
720,16.100226095359126
619,0.0
633,0.0
659,0.0
661,200.0
690,0.0
716,0.0
843,-275.81130599981407
844,-275.81130599981407
907,0.0
908,0.0
971,0.0
972,0.0
1195,0.0
1197,0.0
2,2, 1, 7, 0,16, 0.00,60.00,Tuesday
7,5.0
718,20.55392036503959
719,11.659631416860353
720,16.12614852648585
619,0.0
633,0.0
659,0.0
661,200.0
690,0.0
716,0.0
843,-545.7146785468976
844,-545.7146785468976
907,0.0
908,0.0
971,0.0
972,0.0
1195,0.0
1197,0.0
2,2, 1, 7, 0,17, 0.00,60.00,Tuesday
7,1.1
718,20.737744871052882
719,8.420387912471265
720,16.151563477435204
619,0.0
633,0.0
659,0.0
661,200.0
690,0.0
716,0.0
843,-674.1606586503858
844,-674.1606586503858
907,0.0
908,0.0
971,0.0
972,0.0
1195,0.0
1197,0.0
2,2, 1, 7, 0,18, 0.00,60.00,Tuesday
7,0.6
718,19.202054301703804
719,4.845597577797144
720,16.169480121591793
619,0.0
633,0.0
659,0.0
661,200.0
690,0.0
716,65.91788782221202
843,-218.88680241144903
844,-218.88680241144903
907,0.0
908,0.0
971,0.0
972,0.0
1195,0.0
1197,0.0
2,2, 1, 7, 0,19, 0.00,60.00,Tuesday
7,-0.6
718,19.736966442078778
719,2.8509829530356376
720,16.176142115814255
619,74.52664002484799
633,25.81363453581024
659,2.4191341346204815
661,196.56618852891884
690,2.926190444398932
716,0.0
843,34.71530869989874
844,34.71530869989874
907,0.0
908,0.0
971,0.0
972,0.0
1195,0.0
1197,0.0
2,2, 1, 7, 0,20, 0.00,60.00,Tuesday
7,-2.8
718,19.51519071768659
719,1.0225410857637172
720,16.16614374470755
619,1908.916216063783
633,668.0726381352222
659,57.32508506515663
661,111.32201118113159
690,75.30909934703365
716,85.44000000000005
843,237.13288519255912
844,237.13288519255912
907,0.0
908,0.0
971,0.0
972,0.0
1195,0.0
1197,0.0
2,2, 1, 7, 0,21, 0.00,60.00,Tuesday
7,-3.9
718,19.524330691378463
719,-0.4306837511890565
720,16.117882916244866
619,2640.6324653553224
633,920.1582371918844
659,64.13654519519126
661,78.80466700532101
690,103.07789851052306
716,85.44000000000005
843,736.9704684598855
844,736.9704684598855
907,0.0
908,0.0
971,0.0
972,0.0
1195,0.0
1197,0.0
2,2, 1, 7, 0,22, 0.00,60.00,Tuesday
7,-5.0
718,19.646472415456728
719,-1.6390982091639068
720,16.060723689445435
619,2279.5726956310887
633,817.9715383500815
659,45.18303253443922
661,93.33004595007397
690,90.88588008989646
716,34.21508825990822
843,1162.4445823588803
844,1162.4445823588803
907,0.0
908,0.0
971,0.0
972,0.0
1195,0.0
1197,0.0
2,2, 1, 7, 0,23, 0.00,60.00,Tuesday
7,-5.0
718,18.81877435019122
719,-2.9627066491167664
720,15.991748070806494
619,1267.1719966477474
633,468.37211057114393
659,25.80148459467933
661,139.0755225572325
690,51.90901596507861
716,0.0
843,840.4545643979945
844,840.4545643979945
907,0.0
908,0.0
971,0.0
972,0.0
1195,0.0
1197,0.0
2,2, 1, 7, 0,24, 0.00,60.00,Tuesday
7,-3.9
718,18.787005688663623
719,-2.5155035771024603
720,15.893960874895715
619,1809.484103139269
633,632.1293049986069
659,39.198947405749706
661,116.50586191872631
690,71.15852383062035
716,0.0
843,1222.9019929022652
844,1222.9019929022652
907,0.0
908,0.0
971,0.0
972,0.0
1195,0.0
1197,0.0
2,3, 1, 8, 0, 1, 0.00,60.00,Wednesday
7,-5.6
718,18.509023325097413
719,-2.973175724059644
720,15.786486146381515
619,2658.4880065796037
633,939.2287873848912
659,56.99848531854204
661,74.39891577486381
690,106.79023177371806
716,0.0
843,1787.1790024442053
844,1787.1790024442053
907,0.0
908,0.0
971,0.0
972,0.0
1195,0.0
1197,0.0
2,3, 1, 8, 0, 2, 0.00,60.00,Wednesday
7,-6.1
718,18.518869737398543
719,-3.083443973328159
720,15.665921784187764
619,3538.6568209864877
633,1223.6189096391365
659,62.29702516639493
661,36.84998848163596
690,139.0061868740734
716,0.0
843,2370.0815911895443
844,2370.0815911895443
907,0.0
908,0.0
971,0.0
972,0.0
1195,0.0
1197,0.0
2,3, 1, 8, 0, 3, 0.00,60.00,Wednesday
7,-6.1
718,18.565910015753186
719,-2.950069700946789
720,15.560931576187288
619,4047.267373245334
633,1380.8384075648155
659,64.1942123133826
661,16.898414409019846
690,156.2030106574064
716,0.0
843,2699.663139150791
844,2699.663139150791
907,0.0
908,0.0
971,0.0
972,0.0
1195,0.0
1197,0.0
2,3, 1, 8, 0, 4, 0.00,60.00,Wednesday
7,-5.6
718,18.582940393550103
719,-2.7873556188935256
720,15.454975737708793
619,4345.275514592735
633,1459.5914487664368
659,71.09588253697846
661,6.819227267927697
690,164.80368255353645
716,0.0
843,2904.378730775039
844,2904.378730775039
907,0.0
908,0.0
971,0.0
972,0.0
1195,0.0
1197,0.0
2,3, 1, 8, 0, 5, 0.00,60.00,Wednesday
7,-5.0
718,18.593887568146023
719,-2.0085487415243253
720,15.348598551647328
619,4536.014774309224
633,1501.1833561983458
659,84.58613988545065
661,0.381817631204151
690,170.0930487786329
716,0.0
843,3039.096293705672
844,3039.096293705672
907,0.0
908,0.0
971,0.0
972,0.0
1195,0.0
1197,0.0
2,3, 1, 8, 0, 6, 0.00,60.00,Wednesday
7,-3.9
718,19.274017625210224
719,-0.6926642200572432
720,15.254550998753459
619,4723.650813430709
633,1506.5747445438165
659,93.28073128439563
661,0.0
690,172.92289598476404
716,71.47770281310592
843,3751.479747098303
844,3751.479747098303
907,0.0
908,0.0
971,0.0
972,0.0
1195,1551.2660935034783
1197,1551.2660935034783
2,3, 1, 8, 0, 7, 0.00,60.00,Wednesday
7,-2.8
718,19.53340007724498
719,0.2659195981045025
720,15.194546385144063
619,4798.489225977202
633,1522.801648786793
659,106.30889806311302
661,0.0
690,172.92289598476404
716,85.44000000000005
843,3435.372163328124
844,3435.372163328124
907,0.0
908,0.0
971,0.0
972,0.0
1195,1395.027918598299
1197,1395.027918598299
2,3, 1, 8, 0, 8, 0.00,60.00,Wednesday
7,-2.2
718,19.652401892764146
719,1.0719461192479722
720,15.113685671903816
619,4850.177432006205
633,1530.9834256417346
659,111.51893664539274
661,0.0
690,172.92289598476404
716,61.53718602412538
843,3111.11839441986
844,3111.11839441986
907,0.0
908,0.0
971,0.0
972,0.0
1195,601.3980669426064
1197,601.3980669426064
2,3, 1, 8, 0, 9, 0.00,60.00,Wednesday
7,-2.2
718,19.72352243217289
719,1.5647162505697487
720,15.03012535615068
619,4311.197406595202
633,1399.7893383420828
659,112.54619671565341
661,15.76634237560759
690,156.82955296880908
716,0.0
843,2997.31268931679
844,2997.31268931679
907,0.0
908,0.0
971,0.0
972,0.0
1195,0.0
1197,0.0
2,3, 1, 8, 0,10, 0.00,60.00,Wednesday
7,-2.2
718,19.739633483205424
719,2.323156230022362
720,14.95362826837361
619,3980.845703689022
633,1304.8610153851512
659,104.77050271710108
661,28.494844872592328
690,145.99354787801417
716,0.0
843,2783.6905927831594
844,2783.6905927831594
907,0.0
908,0.0
971,0.0
972,0.0
1195,0.0
1197,0.0
2,3, 1, 8, 0,11, 0.00,60.00,Wednesday
7,-1.7
718,19.73233280013545
719,2.4821116493958493
720,14.884819114408726
619,3790.9769816437365
633,1237.2943733686473
659,103.7586578912692
661,37.304331120113396
690,138.5376983365354
716,0.0
843,2683.5217670089023
844,2683.5217670089023
907,0.0
908,0.0
971,0.0
972,0.0
1195,0.0
1197,0.0
2,3, 1, 8, 0,12, 0.00,60.00,Wednesday
7,-2.2
718,19.60552896461671
719,2.4524417366073377
720,14.8281000733795
619,4570.02582460676
633,1476.7120221866162
659,107.18264472332909
661,7.7767813297075605
690,163.87339469650416
716,0.0
843,3233.6776413653824
844,3233.6776413653824
907,0.0
908,0.0
971,0.0
972,0.0
1195,0.0
1197,0.0
2,3, 1, 8, 0,13, 0.00,60.00,Wednesday
7,-3.3
718,19.696515130599227
719,2.957304602754566
720,14.753846172121678
619,4361.138842918992
633,1439.9384193506228
659,94.9310143168507
661,12.12870188002617
690,160.08888547780057
716,0.0
843,3076.6476894436055
844,3076.6476894436055
907,0.0
908,0.0
971,0.0
972,0.0
1195,0.0
1197,0.0
2,3, 1, 8, 0,14, 0.00,60.00,Wednesday
7,-3.3
718,19.730438443704184
719,2.719868492609314
720,14.70579749084679
619,4237.580073618239
633,1406.296643385254
659,92.55238646778994
661,16.836077072034872
690,156.0765652311923
716,0.0
843,3003.543216703778
844,3003.543216703778
907,0.0
908,0.0
971,0.0
972,0.0
1195,0.0
1197,0.0
2,3, 1, 8, 0,15, 0.00,60.00,Wednesday
7,-3.9
718,19.67267160762404
719,2.5596482385893644
720,14.654384212242773
619,4726.483712551295
633,1549.4288235731497
659,86.00679078778552
661,0.0
690,172.92289598476404
716,70.05601585069375
843,3127.0753005985953
844,3127.0753005985953
907,0.0
908,0.0
971,0.0
972,0.0
1195,711.3628546812856
1197,711.3628546812856
2,3, 1, 8, 0,16, 0.00,60.00,Wednesday
7,-5.0
718,19.701454702327883
719,2.8106002481978742
720,14.59453093246316
619,4588.299853947926
633,1535.790020642017
659,84.18766515449747
661,0.0
690,172.92289598476404
716,79.00396426672967
843,2903.7056805004577
844,2903.7056805004577
907,0.0
908,0.0
971,0.0
972,0.0
1195,714.5092567140964
1197,714.5092567140964
2,3, 1, 8, 0,17, 0.00,60.00,Wednesday
7,-6.0
718,19.759004054282002
719,2.010667275508532
720,14.532386211301157
619,3727.1015302456026
633,1317.7567988753995
659,77.1688078093923
661,26.313854183418293
690,147.61353833831654
716,0.0
843,2596.4867930150267
844,2596.4867930150267
907,0.0
908,0.0
971,0.0
972,0.0
1195,0.0
1197,0.0
2,3, 1, 8, 0,18, 0.00,60.00,Wednesday
7,-5.6
718,19.753058142801834
719,0.7450662073712966
720,14.485360184311237
619,3519.6940312810248
633,1241.0546341082606
659,58.678278210419556
661,39.43031815487319
690,136.98496824735793
716,0.0
843,2441.7431100541908
844,2441.7431100541908
907,0.0
908,0.0
971,0.0
972,0.0
1195,0.0
1197,0.0
2,3, 1, 8, 0,19, 0.00,60.00,Wednesday
7,-5.6
718,19.748121108286846
719,-0.49889603591959536
720,14.430189642256272
619,3343.3391388718433
633,1184.9542875976163
659,63.086741440639756
661,45.49652886910296
690,131.58961661608134
716,0.0
843,2265.2357371301678
844,2265.2357371301678
907,0.0
908,0.0
971,0.0
972,0.0
1195,0.0
1197,0.0
2,3, 1, 8, 0,20, 0.00,60.00,Wednesday
7,-6.7
718,19.523452679687374
719,0.3357414773794791
720,14.391345473757768
619,4405.597737267397
633,1530.0501917671781
659,73.49620273006259
661,0.0
690,172.92289598476404
716,85.44000000000005
843,2038.9251525581421
844,2038.9251525581421
907,0.0
908,0.0
971,0.0
972,0.0
1195,199.7739336405998
1197,199.7739336405998
2,3, 1, 8, 0,21, 0.00,60.00,Wednesday
7,-6.7
718,19.634577307088342
719,-0.4984539555581835
720,14.320468199224681
619,4411.3982675908865
633,1523.390033893371
659,73.49620273006259
661,0.0
690,172.92289598476404
716,85.44000000000005
843,2139.590978730608
844,2139.590978730608
907,0.0
908,0.0
971,0.0
972,0.0
1195,237.0750860640619
1197,237.0750860640619
2,3, 1, 8, 0,22, 0.00,60.00,Wednesday
7,-6.7
718,19.710977965669294
719,-0.9127285672007918
720,14.262407737380972
619,3951.9330527826296
633,1403.196976681396
659,67.55290422031975
661,16.17307640116166
690,156.56131525631713
716,24.394981730183527
843,2357.576612780098
844,2357.576612780098
907,0.0
908,0.0
971,0.0
972,0.0
1195,0.0
1197,0.0
2,3, 1, 8, 0,23, 0.00,60.00,Wednesday
7,-8.3
718,18.939211489341755
719,-2.3395372934315746
720,14.172979298794232
619,2822.4474853965175
633,1067.7577861734796
659,49.20370731746779
661,58.85762351190142
690,120.016840561172
716,0.0
843,1828.423131713067
844,1828.423131713067
907,0.0
908,0.0
971,0.0
972,0.0
1195,0.0
1197,0.0
2,3, 1, 8, 0,24, 0.00,60.00,Wednesday
7,-8.3
718,18.669910000918726
719,-2.7801815408003043
720,14.091104494626693
619,3459.0745334006074
633,1260.026607695615
659,51.21478994020009
661,32.22559713920512
690,142.9818710883686
716,0.0
843,2254.555686549771
844,2254.555686549771
907,0.0
908,0.0
971,0.0
972,0.0
1195,0.0
1197,0.0
2,4, 1, 9, 0, 1, 0.00,60.00,Thursday
7,-7.8
718,18.60635526686963
719,-2.280226541436634
720,14.019644284000838
619,4042.360033053328
633,1426.9574000876223
659,62.78136322833704
661,9.017919424318732
690,162.69196684161898
716,0.0
843,2636.0287654000804
844,2636.0287654000804
907,0.0
908,0.0
971,0.0
972,0.0
1195,0.0
1197,0.0
2,4, 1, 9, 0, 2, 0.00,60.00,Thursday
7,-7.8
718,18.596050775761036
719,-2.616737279053086
720,13.941900115114894
619,4322.286556764346
633,1492.3514111898664
659,65.73968833102444
661,0.0
690,172.92289598476404
716,0.0
843,3023.705748589622
844,3023.705748589622
907,0.0
908,0.0
971,0.0
972,0.0
1195,221.79413999250755
1197,221.79413999250755
2,4, 1, 9, 0, 3, 0.00,60.00,Thursday
7,-7.8
718,18.60462962908549
719,-2.2479926964581405
720,13.863685259121443
619,4357.2121773300405
633,1503.8623776637585
659,56.63466023973028
661,0.0
690,172.92289598476404
716,0.0
843,3286.71347021393
844,3286.71347021393
907,0.0
908,0.0
971,0.0
972,0.0
1195,518.881435310745
1197,518.881435310745
2,4, 1, 9, 0, 4, 0.00,60.00,Thursday
7,-7.8
718,18.60815506089313
719,-2.2349237735910363
720,13.786561195617864
619,4322.615862835243
633,1492.084856444255
659,65.72054808494974
661,0.0
690,172.92289598476404
716,0.0
843,3423.1978657028994
844,3423.1978657028994
907,0.0
908,0.0
971,0.0
972,0.0
1195,700.9456655066015
1197,700.9456655066015
2,4, 1, 9, 0, 5, 0.00,60.00,Thursday
7,-7.8
718,18.60920297456312
719,-2.14870307980588
720,13.710911475894981
619,4322.675829456633
633,1492.0855635120529
659,65.7083041754595
661,0.0
690,172.92289598476404
716,0.0
843,3330.1063462038564
844,3330.1063462038564
907,0.0
908,0.0
971,0.0
972,0.0
1195,588.3775908688167
1197,588.3775908688167
2,4, 1, 9, 0, 6, 0.00,60.00,Thursday
7,-7.8
718,19.37595127626134
719,-2.042610723791709
720,13.636971350435491
619,4322.869324558294
633,1492.0377020974597
659,65.67771435168143
661,0.0
690,172.92289598476404
716,0.0
843,4326.140325063523
844,4326.140325063523
907,0.0
908,0.0
971,0.0
972,0.0
1195,1776.2118050381996
1197,1776.2118050381996
2,4, 1, 9, 0, 7, 0.00,60.00,Thursday
7,-8.3
718,19.581171359611627
719,-2.101866358559222
720,13.59782728862759
619,4283.897600247061
633,1523.242294659949
659,53.708730524003336
661,0.0
690,172.92289598476404
716,85.44000000000005
843,4225.125961817264
844,4225.125961817264
907,0.0
908,0.0
971,0.0
972,0.0
1195,2945.0232919156942
1197,2945.0232919156942
2,4, 1, 9, 0, 8, 0.00,60.00,Thursday
7,-7.8
718,19.65285384504201
719,-1.904883035697953
720,13.537070643717867
619,4298.760795897866
633,1519.9592798278109
659,65.58001802556821
661,0.0
690,172.92289598476404
716,85.44000000000005
843,4141.0631712704035
844,4141.0631712704035
907,0.0
908,0.0
971,0.0
972,0.0
1195,2901.328784905723
1197,2901.328784905723
2,4, 1, 9, 0, 9, 0.00,60.00,Thursday
7,-7.2
718,19.693529045148782
719,0.24052672362882388
720,13.483165782191444
619,4396.018059724124
633,1537.3283938343047
659,60.04386620077349
661,0.0
690,172.92289598476404
716,75.91810268047904
843,3514.196429146552
844,3514.196429146552
907,0.0
908,0.0
971,0.0
972,0.0
1195,1788.457792003744
1197,1788.457792003744
2,4, 1, 9, 0,10, 0.00,60.00,Thursday
7,-6.7
718,19.721280809643176
719,3.1082552524450935
720,13.429339857122836
619,4439.150253982951
633,1537.602261114449
659,65.58581922623428
661,0.0
690,172.92289598476404
716,0.0
843,3084.664242685307
844,3084.664242685307
907,0.0
908,0.0
971,0.0
972,0.0
1195,142.3030479316849
1197,142.3030479316849
2,4, 1, 9, 0,11, 0.00,60.00,Thursday
7,-4.4
718,19.822739999070727
719,7.967459979850454
720,13.342360151670404
619,2794.144661017881
633,975.9535674235796
659,32.39257089718124
661,77.0099685855297
690,105.45865423021588
716,0.0
843,1969.0616480495246
844,1969.0616480495246
907,0.0
908,0.0
971,0.0
972,0.0
1195,0.0
1197,0.0
2,4, 1, 9, 0,12, 0.00,60.00,Thursday
7,-4.4
718,19.79685940645539
719,12.304939622917614
720,13.286256595893924
619,1599.6862726061436
633,576.9380809042957
659,19.12356358677189
661,127.4449877866608
690,62.21208577947802
716,0.0
843,1199.0712890175637
844,1199.0712890175637
907,0.0
908,0.0
971,0.0
972,0.0
1195,0.0
1197,0.0
2,4, 1, 9, 0,13, 0.00,60.00,Thursday
7,-2.8
718,19.84976665870091
719,17.01379473437329
720,13.255934898445144
619,590.3195461477978
633,210.8731481542654
659,4.770216328195001
661,174.1816666154809
690,22.217099645638122
716,0.0
843,468.0766287743281
844,468.0766287743281
907,0.0
908,0.0
971,0.0
972,0.0
1195,0.0
1197,0.0
2,4, 1, 9, 0,14, 0.00,60.00,Thursday
7,-3.9
718,19.683062267904514
719,16.9216454105578
720,13.267943097422535
619,0.0
633,0.0
659,0.0
661,200.0
690,0.0
716,0.0
843,-71.37764949046868
844,-71.37764949046868
907,0.0
908,0.0
971,0.0
972,0.0
1195,0.0
1197,0.0
2,4, 1, 9, 0,15, 0.00,60.00,Thursday
7,-3.3
718,20.32874421841648
719,14.439129520409141
720,13.324820555877054
619,0.0
633,0.0
659,0.0
661,200.0
690,0.0
716,0.0
843,-476.70919936058635
844,-476.70919936058635
907,0.0
908,0.0
971,0.0
972,0.0
1195,0.0
1197,0.0
2,4, 1, 9, 0,16, 0.00,60.00,Thursday
7,-4.4
718,20.742921578685625
719,13.396267506485186
720,13.399461298244296
619,0.0
633,0.0
659,0.0
661,200.0
690,0.0
716,0.0
843,-787.5668673143718
844,-787.5668673143718
907,0.0
908,0.0
971,0.0
972,0.0
1195,0.0
1197,0.0
2,4, 1, 9, 0,17, 0.00,60.00,Thursday
7,-6.1
718,19.653223571465453
719,8.90656517505514
720,13.478052435485457
619,0.0
633,0.0
659,0.0
661,200.0
690,0.0
716,81.82820599105396