Program Version,EnergyPlus, Version 22.2.0-c249759bad, YMD=2023.09.01 15:39
1,5,Environment Title[],Latitude[deg],Longitude[deg],Time Zone[],Elevation[m]
2,8,Day of Simulation[],Month[],Day of Month[],DST Indicator[1=yes 0=no],Hour[],StartMinute[],EndMinute[],DayType
3,5,Cumulative Day of Simulation[],Month[],Day of Month[],DST Indicator[1=yes 0=no],DayType  ! When Daily Report Variables Requested
4,2,Cumulative Days of Simulation[],Month[]  ! When Monthly Report Variables Requested
5,1,Cumulative Days of Simulation[] ! When Run Period Report Variables Requested
6,1,Calendar Year of Simulation[] ! When Annual Report Variables Requested
581,11,LIVING,AFN Zone Infiltration Air Change Rate [ach] !RunPeriod [Value,Min,Month,Day,Hour,Minute,Max,Month,Day,Hour,Minute]
582,11,ATTIC,AFN Zone Infiltration Air Change Rate [ach] !RunPeriod [Value,Min,Month,Day,Hour,Minute,Max,Month,Day,Hour,Minute]
583,11,CRAWLSPACE,AFN Zone Infiltration Air Change Rate [ach] !RunPeriod [Value,Min,Month,Day,Hour,Minute,Max,Month,Day,Hour,Minute]
1038,11,Facility,Facility Heating Setpoint Not Met Time [hr] !RunPeriod [Value,Min,Month,Day,Hour,Minute,Max,Month,Day,Hour,Minute]
1039,11,Facility,Facility Cooling Setpoint Not Met Time [hr] !RunPeriod [Value,Min,Month,Day,Hour,Minute,Max,Month,Day,Hour,Minute]
1115,11,DX_HEATING_COIL,Heating Coil Heating Energy [J] !RunPeriod [Value,Min,Month,Day,Hour,Minute,Max,Month,Day,Hour,Minute]
1128,11,DX_HEATING_COIL,Heating Coil Electricity Energy [J] !RunPeriod [Value,Min,Month,Day,Hour,Minute,Max,Month,Day,Hour,Minute]
1153,11,DX_HEATING_COIL,Heating Coil Defrost Electricity Energy [J] !RunPeriod [Value,Min,Month,Day,Hour,Minute,Max,Month,Day,Hour,Minute]
1154,11,DX_HEATING_COIL,Heating Coil Crankcase Heater Electricity Energy [J] !RunPeriod [Value,Min,Month,Day,Hour,Minute,Max,Month,Day,Hour,Minute]
1155,11,HEATING_RESISTANCE_BACKUP,Heating Coil Heating Energy [J] !RunPeriod [Value,Min,Month,Day,Hour,Minute,Max,Month,Day,Hour,Minute]
1156,11,HEATING_RESISTANCE_BACKUP,Heating Coil Electricity Energy [J] !RunPeriod [Value,Min,Month,Day,Hour,Minute,Max,Month,Day,Hour,Minute]
1292,11,WATER HEATER,Water Heater Heat Loss Energy [J] !RunPeriod [Value,Min,Month,Day,Hour,Minute,Max,Month,Day,Hour,Minute]
1306,11,WATER HEATER,Water Heater Heating Energy [J] !RunPeriod [Value,Min,Month,Day,Hour,Minute,Max,Month,Day,Hour,Minute]
1307,11,WATER HEATER,Water Heater Unmet Demand Heat Transfer Energy [J] !RunPeriod [Value,Min,Month,Day,Hour,Minute,Max,Month,Day,Hour,Minute]
1308,11,WATER HEATER,Water Heater Electricity Energy [J] !RunPeriod [Value,Min,Month,Day,Hour,Minute,Max,Month,Day,Hour,Minute]
13,11,Electricity:Facility [J] !RunPeriod [Value,Min,Month,Day,Hour,Minute,Max,Month,Day,Hour,Minute]
1134,11,Heating:Electricity [J] !RunPeriod [Value,Min,Month,Day,Hour,Minute,Max,Month,Day,Hour,Minute]
1096,11,Cooling:Electricity [J] !RunPeriod [Value,Min,Month,Day,Hour,Minute,Max,Month,Day,Hour,Minute]
562,11,Fans:Electricity [J] !RunPeriod [Value,Min,Month,Day,Hour,Minute,Max,Month,Day,Hour,Minute]
1379,11,Pumps:Electricity [J] !RunPeriod [Value,Min,Month,Day,Hour,Minute,Max,Month,Day,Hour,Minute]
1326,11,WaterSystems:Electricity [J] !RunPeriod [Value,Min,Month,Day,Hour,Minute,Max,Month,Day,Hour,Minute]
61,11,InteriorLights:Electricity [J] !RunPeriod [Value,Min,Month,Day,Hour,Minute,Max,Month,Day,Hour,Minute]
1046,11,ExteriorLights:Electricity [J] !RunPeriod [Value,Min,Month,Day,Hour,Minute,Max,Month,Day,Hour,Minute]
134,11,InteriorEquipment:Electricity [J] !RunPeriod [Value,Min,Month,Day,Hour,Minute,Max,Month,Day,Hour,Minute]
170,11,gas_dryer:InteriorEquipment:Electricity [J] !RunPeriod [Value,Min,Month,Day,Hour,Minute,Max,Month,Day,Hour,Minute]
207,11,clotheswasher:InteriorEquipment:Electricity [J] !RunPeriod [Value,Min,Month,Day,Hour,Minute,Max,Month,Day,Hour,Minute]
244,11,dishwasher:InteriorEquipment:Electricity [J] !RunPeriod [Value,Min,Month,Day,Hour,Minute,Max,Month,Day,Hour,Minute]
281,11,refrigerator:InteriorEquipment:Electricity [J] !RunPeriod [Value,Min,Month,Day,Hour,Minute,Max,Month,Day,Hour,Minute]
318,11,electric_mels:InteriorEquipment:Electricity [J] !RunPeriod [Value,Min,Month,Day,Hour,Minute,Max,Month,Day,Hour,Minute]
355,11,NaturalGas:Facility [J] !RunPeriod [Value,Min,Month,Day,Hour,Minute,Max,Month,Day,Hour,Minute]
403,11,InteriorEquipment:NaturalGas [J] !RunPeriod [Value,Min,Month,Day,Hour,Minute,Max,Month,Day,Hour,Minute]
476,11,gas_dryer:InteriorEquipment:NaturalGas [J] !RunPeriod [Value,Min,Month,Day,Hour,Minute,Max,Month,Day,Hour,Minute]
513,11,gas_mels:InteriorEquipment:NaturalGas [J] !RunPeriod [Value,Min,Month,Day,Hour,Minute,Max,Month,Day,Hour,Minute]
End of Data Dictionary
1,EXTREME_WINTER,  41.78, -87.75,  -6.00, 190.00
5,7
1038,3.5,0.0, 1,20, 1,15,0.25, 1,20, 6,15
1039,0.0,0.0, 1,20, 1,15,0.0, 1,20, 1,15
581,0.4490793868468968,0.26990297483303266, 1,26,23, 5,0.6378294840473588, 1,26,15,60
582,5.230529954910109,0.21276437114019778, 1,21, 5,60,13.613185430596554, 1,26,15,52
583,0.06922785962078142,0.0016381284075360847, 1,26,23, 5,0.07867078523406525, 1,20,11,52
1115,2239039178.44089,0.0, 1,20,23, 5,4447816.684283526, 1,22, 6,60
1128,839828116.4569317,0.0, 1,20,23, 5,1399691.3686145945, 1,25,17,45
1153,11065892.829238705,0.0, 1,20,23, 5,93452.6998473145, 1,22, 5,60
1154,7432228.09080251,0.0, 1,20, 1, 7,119921.06509529434, 1,21,15,15
1155,1371934947.205164,0.0, 1,20,15,45,6365028.616051788, 1,20, 6,45
1156,1371934947.205164,0.0, 1,20,15,45,6365028.616051788, 1,20, 6,45
1292,-25419639.160447855,-39766.2365222606, 1,21, 1,30,-6039.248397627335, 1,23,12,57
1306,245765148.9697809,0.0, 1,20, 1, 7,10413509.857487373, 1,26, 9,45
1307,7250914.67490318,0.0, 1,20, 1, 7,6264662.807710119, 1,26,19,60
1308,245765148.9697809,0.0, 1,20, 1, 7,10413509.857487373, 1,26, 9,45
13,2933253154.336385,924164.0549638333, 1,21,15,15,16075949.07517453, 1,24, 6,60
61,301924526.02383536,88139.10953165221, 1,20, 1,15,1282023.4113694867, 1,20,20,15
134,70666020.44019976,63564.01800854099, 1,20, 4,15,156554.22484006523, 1,25,20,15
170,5241013.419656067,348.4159749238097, 1,20, 4,15,17476.39704006126, 1,25,12,15
207,6509451.13922267,815.2532113832032, 1,20, 3,15,22990.642799023623, 1,25,10,15
244,12749673.399825225,1521.856143006317, 1,20, 4,15,53038.631142310165, 1,25,20,15
281,46165882.481495745,59938.60262432081, 1,20, 5,15,81951.81706819107, 1,20,19,15
318,0.0,0.0, 1,20, 1,15,0.0, 1,20, 1,15
355,197687796.27748066,18561.32405820678, 1,20, 4,15,724774.895203776, 1,25,18,15
403,197687796.27748066,18561.32405820678, 1,20, 4,15,724774.895203776, 1,25,18,15
476,106772067.24485716,7098.072629279515, 1,20, 4,15,356036.3026282215, 1,25,12,15
513,0.0,0.0, 1,20, 1,15,0.0, 1,20, 1,15
562,84636274.32043408,38456.623821882386, 1,21,23,15,134317.70256958122, 1,20, 1,15
1046,0.0,0.0, 1,20, 1,15,0.0, 1,20, 1,15
1096,0.0,0.0, 1,20, 1,15,0.0, 1,20, 1,15
1134,2230261184.5821376,536449.4152627455, 1,21,23,15,7618738.541358967, 1,25, 8,15
1326,245765148.96978086,0.0, 1,20, 1,15,10413509.857487373, 1,26, 9,45
1379,0.0,0.0, 1,20, 1,15,0.0, 1,20, 1,15
1,EXTREME_SUMMER,  41.78, -87.75,  -6.00, 190.00
5,7
1038,0.0,0.0, 7,27, 1,15,0.0, 7,27, 1,15
1039,7.25,0.0, 7,27, 1,15,0.25, 7,28,15,30
581,0.2032332220216173,0.0, 7,27, 6, 7,0.9902431301366611, 8, 2,23,51
582,6.228103345192264,0.12685265585631103, 7,27, 1,60,18.997518223551864, 8, 2,23,48
583,0.03893787893040536,0.00005803605116222501, 7,27, 6, 7,0.07539984509931878, 8, 2,18, 7
1115,0.0,0.0, 7,27, 1,15,0.0, 7,27, 1,15
1128,0.0,0.0, 7,27, 1,15,0.0, 7,27, 1,15
1153,0.0,0.0, 7,27, 1,15,0.0, 7,27, 1,15
1154,0.0,0.0, 7,27, 1,15,0.0, 7,27, 1,15
1155,0.0,0.0, 7,27, 1,15,0.0, 7,27, 1,15
1156,0.0,0.0, 7,27, 1,15,0.0, 7,27, 1,15
1292,-22053420.733365197,-34310.69077714713, 7,31,12,45,-4592.010938729195, 8, 1, 9, 6
1306,178924243.2795787,0.0, 7,27, 1,15,5270400.0, 8, 2,19,60
1307,1682639.2119297856,0.0, 7,27, 1,15,927368.3943766931, 8, 2,19,60
1308,178924243.2795787,0.0, 7,27, 1,15,5270400.0, 8, 2,19,60
13,1145012236.60146,184904.95367012123, 8, 1, 4,60,12498691.858661491, 8, 2,19,60
61,301924526.02383536,88139.10953165221, 7,27, 1,15,1282023.4113694867, 7,27,20,15
134,70666020.44019976,63564.01800854099, 7,27, 4,15,156554.22484006523, 8, 1,20,15
170,5241013.419656067,348.4159749238097, 7,27, 4,15,17476.39704006126, 8, 1,12,15
207,6509451.13922267,815.2532113832032, 7,27, 3,15,22990.642799023623, 8, 1,10,15
244,12749673.399825225,1521.856143006317, 7,27, 4,15,53038.631142310165, 8, 1,20,15
281,46165882.481495745,59938.60262432081, 7,27, 5,15,81951.81706819107, 7,27,19,15
318,0.0,0.0, 7,27, 1,15,0.0, 7,27, 1,15
355,197687796.27748066,18561.32405820678, 7,27, 4,15,724774.895203776, 8, 1,18,15
403,197687796.27748066,18561.32405820678, 7,27, 4,15,724774.895203776, 8, 1,18,15
476,106772067.24485716,7098.072629279515, 7,27, 4,15,356036.3026282215, 8, 1,12,15
513,0.0,0.0, 7,27, 1,15,0.0, 7,27, 1,15
562,50765797.116943136,3250.7319145957554, 8, 1, 4,60,134317.70256958122, 7,27,16,30
1046,0.0,0.0, 7,27, 1,15,0.0, 7,27, 1,15
1096,542731649.7409047,29582.421557112797, 8, 1, 4,60,1604427.5174655498, 8, 2,13,60
1134,0.0,0.0, 7,27, 1,15,0.0, 7,27, 1,15
1326,178924243.27957863,0.0, 7,27, 1,15,9556766.53242353, 8, 2,19,60
1379,0.0,0.0, 7,27, 1,15,0.0, 7,27, 1,15
1,ANNUAL,  41.78, -87.75,  -6.00, 190.00
5,365
1038,27.0,0.0, 1, 1, 1,15,0.25, 1, 2, 6,15
1039,115.25,0.0, 1, 1, 1,15,0.25, 3,19,15,60
581,0.29630734997240965,0.0, 5,26, 6, 7,1.9331217670055951, 2, 1,21,60
582,5.372343274050671,0.0, 1, 9,21,60,40.61626888500104, 2, 1,21,60
583,0.029201246482438444,0.0, 6, 4,23, 3,0.10772040236045985, 2, 1,21,60
1115,31954818580.862465,0.0, 1, 2,23, 5,4896417.715331039, 2,13, 6,45
1128,10594673155.913504,0.0, 1, 2,23, 5,1478892.61776818, 2,19, 6,45
1153,288817864.06764823,0.0, 1, 2,23, 5,137426.43154538714, 3,29, 6,45
1154,1419575868.2527459,0.0, 1, 1, 1, 3,180000.0, 2,13,15,15
1155,7905218196.488923,0.0, 1, 1, 6,10,6365028.616051788, 1,19, 6,45
1156,7905218196.488923,0.0, 1, 1, 6,10,6365028.616051788, 1,19, 6,45
1292,-1234331497.8980522,-39775.82876076909, 2,10, 1,60,-2772.425955628438, 6, 4,14,46
1306,11141259344.97806,0.0, 1, 1, 1, 3,10531002.663194291,11,26,19,60
1307,232126477.51301888,0.0, 1, 1, 1, 3,6365518.312900728, 2,12,19,60
1308,11141259344.97806,0.0, 1, 1, 1, 3,10531002.663194291,11,26,19,60
13,60443491432.78609,151703.1275401932, 3, 6, 4,15,16431685.7033224, 1,25, 7,60
61,15743207428.383959,88139.10953165221, 1, 1, 1,15,1282023.4113694867, 1, 1,20,15
134,3685071073.4325233,63564.01800854099, 1, 2, 4,15,156554.22484006523, 1, 1,20,15
170,273393721.45532674,348.4159749238097, 1, 2, 4,15,17476.39704006126, 1, 1,12,15
207,339560869.0695816,815.2532113832032, 1, 2, 3,15,22990.642799023623, 1, 1,10,15
244,664895467.8009144,1521.856143006317, 1, 2, 4,15,53038.631142310165, 1, 1,20,15
281,2407221015.106824,59938.60262432081, 1, 1, 5,15,81951.81706819107, 1, 1,19,15
318,0.0,0.0, 1, 1, 1,15,0.0, 1, 1, 1,15
355,10310294493.051695,18561.32405820678, 1, 2, 4,15,724774.895203776, 1, 1,18,15
403,10310294493.051695,18561.32405820678, 1, 2, 4,15,724774.895203776, 1, 1,18,15
476,5569688622.066177,7098.072629279515, 1, 2, 4,15,356036.3026282215, 1, 1,12,15
513,0.0,0.0, 1, 1, 1,15,0.0, 1, 1, 1,15
562,1826559650.2703812,0.0, 1, 5,23,15,134317.70256958122, 1, 1, 1,15
1046,0.0,0.0, 1, 1, 1,15,0.0, 1, 1, 1,15
1096,7839108850.997164,0.0, 1, 1, 1,15,1647877.4708774893, 6, 7,16,60
1134,20208285084.722824,0.0, 1, 6,16,30,7767746.973484407, 2, 1,21,15
1326,11141259344.97805,0.0, 1, 1, 1,15,10540800.0, 4,23,19,60
1379,0.0,0.0, 1, 1, 1,15,0.0, 1, 1, 1,15
End of Data
 Number of Records Written=          99
