Program Version,EnergyPlus, Version 22.2.0-c249759bad, YMD=2023.07.31 20:15
1,5,Environment Title[],Latitude[deg],Longitude[deg],Time Zone[],Elevation[m]
2,8,Day of Simulation[],Month[],Day of Month[],DST Indicator[1=yes 0=no],Hour[],StartMinute[],EndMinute[],DayType
3,5,Cumulative Day of Simulation[],Month[],Day of Month[],DST Indicator[1=yes 0=no],DayType  ! When Daily Report Variables Requested
4,2,Cumulative Days of Simulation[],Month[]  ! When Monthly Report Variables Requested
5,1,Cumulative Days of Simulation[] ! When Run Period Report Variables Requested
6,1,Calendar Year of Simulation[] ! When Annual Report Variables Requested
581,11,LIVING,AFN Zone Infiltration Air Change Rate [ach] !RunPeriod [Value,Min,Month,Day,Hour,Minute,Max,Month,Day,Hour,Minute]
582,11,ATTIC,AFN Zone Infiltration Air Change Rate [ach] !RunPeriod [Value,Min,Month,Day,Hour,Minute,Max,Month,Day,Hour,Minute]
583,11,CRAWLSPACE,AFN Zone Infiltration Air Change Rate [ach] !RunPeriod [Value,Min,Month,Day,Hour,Minute,Max,Month,Day,Hour,Minute]
1038,11,Facility,Facility Heating Setpoint Not Met Time [hr] !RunPeriod [Value,Min,Month,Day,Hour,Minute,Max,Month,Day,Hour,Minute]
1039,11,Facility,Facility Cooling Setpoint Not Met Time [hr] !RunPeriod [Value,Min,Month,Day,Hour,Minute,Max,Month,Day,Hour,Minute]
1127,11,HEATING_FUEL_MAIN,Heating Coil Electricity Energy [J] !RunPeriod [Value,Min,Month,Day,Hour,Minute,Max,Month,Day,Hour,Minute]
13,11,Electricity:Facility [J] !RunPeriod [Value,Min,Month,Day,Hour,Minute,Max,Month,Day,Hour,Minute]
1133,11,Heating:Electricity [J] !RunPeriod [Value,Min,Month,Day,Hour,Minute,Max,Month,Day,Hour,Minute]
1172,11,Cooling:Electricity [J] !RunPeriod [Value,Min,Month,Day,Hour,Minute,Max,Month,Day,Hour,Minute]
562,11,Fans:Electricity [J] !RunPeriod [Value,Min,Month,Day,Hour,Minute,Max,Month,Day,Hour,Minute]
1422,11,Pumps:Electricity [J] !RunPeriod [Value,Min,Month,Day,Hour,Minute,Max,Month,Day,Hour,Minute]
1394,11,WaterSystems:Electricity [J] !RunPeriod [Value,Min,Month,Day,Hour,Minute,Max,Month,Day,Hour,Minute]
61,11,InteriorLights:Electricity [J] !RunPeriod [Value,Min,Month,Day,Hour,Minute,Max,Month,Day,Hour,Minute]
1046,11,ExteriorLights:Electricity [J] !RunPeriod [Value,Min,Month,Day,Hour,Minute,Max,Month,Day,Hour,Minute]
134,11,InteriorEquipment:Electricity [J] !RunPeriod [Value,Min,Month,Day,Hour,Minute,Max,Month,Day,Hour,Minute]
170,11,gas_dryer:InteriorEquipment:Electricity [J] !RunPeriod [Value,Min,Month,Day,Hour,Minute,Max,Month,Day,Hour,Minute]
207,11,clotheswasher:InteriorEquipment:Electricity [J] !RunPeriod [Value,Min,Month,Day,Hour,Minute,Max,Month,Day,Hour,Minute]
244,11,dishwasher:InteriorEquipment:Electricity [J] !RunPeriod [Value,Min,Month,Day,Hour,Minute,Max,Month,Day,Hour,Minute]
281,11,refrigerator:InteriorEquipment:Electricity [J] !RunPeriod [Value,Min,Month,Day,Hour,Minute,Max,Month,Day,Hour,Minute]
318,11,electric_mels:InteriorEquipment:Electricity [J] !RunPeriod [Value,Min,Month,Day,Hour,Minute,Max,Month,Day,Hour,Minute]
355,11,NaturalGas:Facility [J] !RunPeriod [Value,Min,Month,Day,Hour,Minute,Max,Month,Day,Hour,Minute]
1108,11,Heating:NaturalGas [J] !RunPeriod [Value,Min,Month,Day,Hour,Minute,Max,Month,Day,Hour,Minute]
1357,11,WaterSystems:NaturalGas [J] !RunPeriod [Value,Min,Month,Day,Hour,Minute,Max,Month,Day,Hour,Minute]
403,11,InteriorEquipment:NaturalGas [J] !RunPeriod [Value,Min,Month,Day,Hour,Minute,Max,Month,Day,Hour,Minute]
476,11,gas_dryer:InteriorEquipment:NaturalGas [J] !RunPeriod [Value,Min,Month,Day,Hour,Minute,Max,Month,Day,Hour,Minute]
513,11,gas_mels:InteriorEquipment:NaturalGas [J] !RunPeriod [Value,Min,Month,Day,Hour,Minute,Max,Month,Day,Hour,Minute]
End of Data Dictionary
1,EXTREME_WINTER,  39.10, -84.42,  -5.00, 149.40
5,7
1038,28.999999999999996,0.0, 1,15, 1,10,0.16666666666666666, 1,15, 6,10
1039,0.0,0.0, 1,15, 1,10,0.0, 1,15, 1,10
581,0.2733925634073133,0.18206502027191823, 1,17, 4,60,0.4246032697360015, 1,17,24,15
582,3.021960125719205,0.0, 1,15, 3,60,12.190127041486612, 1,17,24,55
583,3.6431776974983583,0.0002353049676083862, 1,18,23,15,11.439136791270887, 1,17,24,15
1127,0.0,0.0, 1,15, 1,10,0.0, 1,15, 1,10
13,422593394.97088575,137777.4896103444, 1,17, 1,10,1027436.086157524, 1,19,21,60
61,301924526.0238348,58759.40635443481, 1,15, 1,10,854682.2742463244, 1,15,20,10
134,70666020.44019979,42376.01200569399, 1,15, 4,10,104369.48322671017, 1,20,20,10
170,5241013.419656074,232.27731661587313, 1,15, 4,10,11650.931360040839, 1,20,12,10
207,6509451.13922266,543.5021409221355, 1,15, 3,10,15327.095199349082, 1,20,10,10
244,12749673.39982522,1014.5707620042115, 1,15, 4,10,35359.08742820678, 1,20,20,10
281,46165882.48149605,39959.06841621388, 1,15, 5,10,54634.54471212738, 1,15,19,10
318,0.0,0.0, 1,15, 1,10,0.0, 1,15, 1,10
355,2784289319.3406897,137769.5713143841, 1,16,23,10,8179624.241195314, 1,20,10,20
403,197687796.27748126,12374.216038804521, 1,15, 4,10,483183.26346918393, 1,20,18,10
476,106772067.24485692,4732.048419519677, 1,15, 4,10,237357.535085481, 1,20,12,10
513,0.0,0.0, 1,15, 1,10,0.0, 1,15, 1,10
562,44983008.50685029,0.0, 1,15,16,20,87297.37212952899, 1,15, 6,10
1046,0.0,0.0, 1,15, 1,10,0.0, 1,15, 1,10
1108,2319487685.228311,0.0, 1,15,16,20,4501370.324672723, 1,15, 6,10
1133,0.0,0.0, 1,15, 1,10,0.0, 1,15, 1,10
1172,0.0,0.0, 1,15, 1,10,0.0, 1,15, 1,10
1357,267113837.8348958,0.0, 1,15, 1,10,3375000.0000000005, 1,16, 7,30
1394,5019840.0,4980.0, 1,15, 1,10,4980.000000000002, 1,18,19,60
1422,0.0,0.0, 1,15, 1,10,0.0, 1,15, 1,10
1,EXTREME_SUMMER,  39.10, -84.42,  -5.00, 149.40
5,7
1038,0.0,0.0, 7,15, 1,10,0.0, 7,15, 1,10
1039,34.99999999999999,0.0, 7,15, 1,10,0.16666666666666666, 7,15,14,30
581,0.03872428823285416,0.0, 7,15, 1,10,0.4046260816365174, 7,20,16,52
582,1.67991632665361,0.0, 7,16,21,37,8.724706331900519, 7,20,16,52
583,1.7742921623983494,0.0, 7,15, 6, 7,10.142468832595387, 7,20,16,52
1127,0.0,0.0, 7,15, 1,10,0.0, 7,15, 1,10
13,865901367.5354055,106115.4183601288, 7,19, 4,50,1806933.2349187792, 7,15,20,10
61,301924526.0238348,58759.40635443481, 7,15, 1,10,854682.2742463244, 7,15,20,10
134,70666020.44019979,42376.01200569399, 7,15, 4,10,104369.48322671017, 7,20,20,10
170,5241013.419656074,232.27731661587313, 7,15, 4,10,11650.931360040839, 7,20,12,10
207,6509451.13922266,543.5021409221355, 7,15, 3,10,15327.095199349082, 7,20,10,10
244,12749673.39982522,1014.5707620042115, 7,15, 4,10,35359.08742820678, 7,20,20,10
281,46165882.48149605,39959.06841621388, 7,15, 5,10,54634.54471212738, 7,15,19,10
318,0.0,0.0, 7,15, 1,10,0.0, 7,15, 1,10
355,398312883.2701326,12374.216038804521, 7,15, 4,10,3678253.9165225904, 7,20,10,20
403,197687796.27748126,12374.216038804521, 7,15, 4,10,483183.26346918393, 7,20,18,10
476,106772067.24485692,4732.048419519677, 7,15, 4,10,237357.535085481, 7,20,12,10
513,0.0,0.0, 7,15, 1,10,0.0, 7,15, 1,10
562,50251096.61955357,0.0, 7,16, 6,20,87297.372129529, 7,18,16,40
1046,0.0,0.0, 7,15, 1,10,0.0, 7,15, 1,10
1108,0.0,0.0, 7,15, 1,10,0.0, 7,15, 1,10
1133,0.0,0.0, 7,15, 1,10,0.0, 7,15, 1,10
1172,438039884.4518179,0.0, 7,16, 6,20,857564.7095677715, 7,16,15,60
1357,200625086.99265265,0.0, 7,15, 1,10,3375000.0, 7,15, 8,40
1394,5019840.0,4979.999999999998, 7,18,16,60,4980.000000000002, 7,20,10,50
1422,0.0,0.0, 7,15, 1,10,0.0, 7,15, 1,10
1,ANNUAL,  39.10, -84.42,  -5.00, 149.40
5,365
1038,224.166666666666,0.0, 1, 1, 1,40,0.16666666666666666, 1, 1, 1,10
1039,520.0,0.0, 1, 1, 1,10,0.16666666666666666, 5,12,16,40
581,0.1855470311034438,0.0, 5, 7, 8,32,1.2398782900883647, 2,18,22,55
582,3.0510190157745387,0.0, 1, 3,22,60,27.734155765888012, 1,29,21,60
583,3.596038726606434,0.0, 5,29,23,15,33.72690141120796, 4,29,17,52
1127,0.0,0.0, 1, 1, 1, 1,0.0, 1, 1, 1, 1
13,29695243466.671093,106115.4183601288, 3, 6, 4,10,1836888.8828995263, 8, 5,20,10
61,15743207428.39043,58759.40635443481, 1, 1, 1,10,854682.2742463244, 1, 1,20,10
134,3685071073.433083,42376.01200569399, 1, 2, 4,10,104369.48322671017, 1, 1,20,10
170,273393721.45534325,232.27731661587313, 1, 2, 4,10,11650.931360040839, 1, 1,12,10
207,339560869.06955314,543.5021409221355, 1, 2, 3,10,15327.095199349082, 1, 1,10,10
244,664895467.8009839,1014.5707620042115, 1, 2, 4,10,35359.08742820678, 1, 1,20,10
281,2407221015.1057043,39959.06841621388, 1, 1, 5,10,54634.54471212738, 1, 1,19,10
318,0.0,0.0, 1, 1, 1,10,0.0, 1, 1, 1,10
355,53757925003.89001,12374.216038804521, 3, 6, 4,10,8179624.241195314, 1,21,10,20
403,10310294493.052883,12374.216038804521, 1, 2, 4,10,483183.26346918393, 1, 1,18,10
476,5569688622.065564,4732.048419519677, 1, 2, 4,10,237357.535085481, 1, 1,12,10
513,0.0,0.0, 1, 1, 1,10,0.0, 1, 1, 1,10
562,1634853552.666856,0.0, 1, 4,16,10,87297.372129529, 7,18,16,40
1046,0.0,0.0, 1, 1, 1,10,0.0, 1, 1, 1,10
1108,31237490177.14675,0.0, 1, 4,16,10,4501370.324672723, 1, 1, 1,20
1133,0.0,0.0, 1, 1, 1,10,0.0, 1, 1, 1,10
1172,8370362612.186246,0.0, 1, 1, 1,10,890890.3065515992, 8, 9,14,60
1357,12210140333.690092,0.0, 1, 1, 1,10,3375000.000000002, 3,18,10,20
1394,261748800.0,4979.999999999998, 4,16,12,50,4980.000000000002, 1,11, 8,50
1422,0.0,0.0, 1, 1, 1,10,0.0, 1, 1, 1,10
End of Data
 Number of Records Written=          78
