Program Version,EnergyPlus, Version 22.2.0-c249759bad, YMD=2023.07.07 15:04
1,5,Environment Title[],Latitude[deg],Longitude[deg],Time Zone[],Elevation[m]
2,8,Day of Simulation[],Month[],Day of Month[],DST Indicator[1=yes 0=no],Hour[],StartMinute[],EndMinute[],DayType
3,5,Cumulative Day of Simulation[],Month[],Day of Month[],DST Indicator[1=yes 0=no],DayType  ! When Daily Report Variables Requested
4,2,Cumulative Days of Simulation[],Month[]  ! When Monthly Report Variables Requested
5,1,Cumulative Days of Simulation[] ! When Run Period Report Variables Requested
6,1,Calendar Year of Simulation[] ! When Annual Report Variables Requested
581,11,LIVING,AFN Zone Infiltration Air Change Rate [ach] !RunPeriod [Value,Min,Month,Day,Hour,Minute,Max,Month,Day,Hour,Minute]
582,11,ATTIC,AFN Zone Infiltration Air Change Rate [ach] !RunPeriod [Value,Min,Month,Day,Hour,Minute,Max,Month,Day,Hour,Minute]
583,11,CRAWLSPACE,AFN Zone Infiltration Air Change Rate [ach] !RunPeriod [Value,Min,Month,Day,Hour,Minute,Max,Month,Day,Hour,Minute]
1038,11,Facility,Facility Heating Setpoint Not Met Time [hr] !RunPeriod [Value,Min,Month,Day,Hour,Minute,Max,Month,Day,Hour,Minute]
1039,11,Facility,Facility Cooling Setpoint Not Met Time [hr] !RunPeriod [Value,Min,Month,Day,Hour,Minute,Max,Month,Day,Hour,Minute]
1115,11,DX_HEATING_COIL,Heating Coil Heating Energy [J] !RunPeriod [Value,Min,Month,Day,Hour,Minute,Max,Month,Day,Hour,Minute]
1128,11,DX_HEATING_COIL,Heating Coil Electricity Energy [J] !RunPeriod [Value,Min,Month,Day,Hour,Minute,Max,Month,Day,Hour,Minute]
1153,11,DX_HEATING_COIL,Heating Coil Defrost Electricity Energy [J] !RunPeriod [Value,Min,Month,Day,Hour,Minute,Max,Month,Day,Hour,Minute]
1154,11,DX_HEATING_COIL,Heating Coil Crankcase Heater Electricity Energy [J] !RunPeriod [Value,Min,Month,Day,Hour,Minute,Max,Month,Day,Hour,Minute]
1156,11,HEATING_RESISTANCE_BACKUP,Heating Coil Electricity Energy [J] !RunPeriod [Value,Min,Month,Day,Hour,Minute,Max,Month,Day,Hour,Minute]
13,11,Electricity:Facility [J] !RunPeriod [Value,Min,Month,Day,Hour,Minute,Max,Month,Day,Hour,Minute]
1134,11,Heating:Electricity [J] !RunPeriod [Value,Min,Month,Day,Hour,Minute,Max,Month,Day,Hour,Minute]
1096,11,Cooling:Electricity [J] !RunPeriod [Value,Min,Month,Day,Hour,Minute,Max,Month,Day,Hour,Minute]
562,11,Fans:Electricity [J] !RunPeriod [Value,Min,Month,Day,Hour,Minute,Max,Month,Day,Hour,Minute]
1388,11,Pumps:Electricity [J] !RunPeriod [Value,Min,Month,Day,Hour,Minute,Max,Month,Day,Hour,Minute]
1360,11,WaterSystems:Electricity [J] !RunPeriod [Value,Min,Month,Day,Hour,Minute,Max,Month,Day,Hour,Minute]
61,11,InteriorLights:Electricity [J] !RunPeriod [Value,Min,Month,Day,Hour,Minute,Max,Month,Day,Hour,Minute]
1046,11,ExteriorLights:Electricity [J] !RunPeriod [Value,Min,Month,Day,Hour,Minute,Max,Month,Day,Hour,Minute]
134,11,InteriorEquipment:Electricity [J] !RunPeriod [Value,Min,Month,Day,Hour,Minute,Max,Month,Day,Hour,Minute]
170,11,gas_dryer:InteriorEquipment:Electricity [J] !RunPeriod [Value,Min,Month,Day,Hour,Minute,Max,Month,Day,Hour,Minute]
207,11,clotheswasher:InteriorEquipment:Electricity [J] !RunPeriod [Value,Min,Month,Day,Hour,Minute,Max,Month,Day,Hour,Minute]
244,11,dishwasher:InteriorEquipment:Electricity [J] !RunPeriod [Value,Min,Month,Day,Hour,Minute,Max,Month,Day,Hour,Minute]
281,11,refrigerator:InteriorEquipment:Electricity [J] !RunPeriod [Value,Min,Month,Day,Hour,Minute,Max,Month,Day,Hour,Minute]
318,11,electric_mels:InteriorEquipment:Electricity [J] !RunPeriod [Value,Min,Month,Day,Hour,Minute,Max,Month,Day,Hour,Minute]
355,11,NaturalGas:Facility [J] !RunPeriod [Value,Min,Month,Day,Hour,Minute,Max,Month,Day,Hour,Minute]
1323,11,WaterSystems:NaturalGas [J] !RunPeriod [Value,Min,Month,Day,Hour,Minute,Max,Month,Day,Hour,Minute]
403,11,InteriorEquipment:NaturalGas [J] !RunPeriod [Value,Min,Month,Day,Hour,Minute,Max,Month,Day,Hour,Minute]
476,11,gas_dryer:InteriorEquipment:NaturalGas [J] !RunPeriod [Value,Min,Month,Day,Hour,Minute,Max,Month,Day,Hour,Minute]
513,11,gas_mels:InteriorEquipment:NaturalGas [J] !RunPeriod [Value,Min,Month,Day,Hour,Minute,Max,Month,Day,Hour,Minute]
End of Data Dictionary
1,EXTREME_WINTER,  30.68, -88.25,  -6.00,  67.00
5,7
1038,0.16666666666666666,0.0, 1,13, 1,10,0.16666666666666666, 1,16, 6,10
1039,0.0,0.0, 1,13, 1,10,0.0, 1,13, 1,10
581,0.2555722520773787,0.12313444287884716, 1,18,17,55,0.5269478957743884, 1,19,20,45
582,3.3548589400937923,0.0, 1,13, 6,55,12.101095582609213, 1,19,14,40
583,4.013350258545737,0.00020610536441109854, 1,16,23,45,13.40820787684167, 1,19,20,25
1115,332579982.39787924,0.0, 1,13, 1, 1,2869924.4745616806, 1,17, 6,30
1128,104413431.23479384,0.0, 1,13, 1, 1,897866.2998125958, 1,17, 6,30
1153,1807731.042934516,0.0, 1,13, 1, 1,31030.197703446887, 1,14, 6,40
1154,66194146.996027276,0.0, 1,13, 6, 2,120000.0, 1,13, 2,10
1156,5133045.737278651,0.0, 1,13, 1, 1,680260.5057389541, 1,14, 6, 3
13,597315118.4299307,106361.20013227512, 1,18, 4,10,2452976.729858079, 1,16, 6,10
61,301924526.0238348,58759.40635443481, 1,13, 1,10,854682.2742463244, 1,13,20,10
134,70666020.44019979,42376.01200569399, 1,13, 4,10,104369.48322671017, 1,18,20,10
170,5241013.419656074,232.27731661587313, 1,13, 4,10,11650.931360040839, 1,18,12,10
207,6509451.13922266,543.5021409221355, 1,13, 3,10,15327.095199349082, 1,18,10,10
244,12749673.39982522,1014.5707620042115, 1,13, 4,10,35359.08742820678, 1,18,20,10
281,46165882.48149605,39959.06841621388, 1,13, 5,10,54634.54471212738, 1,13,19,10
318,0.0,0.0, 1,13, 1,10,0.0, 1,13, 1,10
355,738836022.1394497,12374.216038804521, 1,13, 4,10,3829218.154066982, 1,14,18,60
403,197687796.27748126,12374.216038804521, 1,13, 4,10,483183.26346918393, 1,18,18,10
476,106772067.24485692,4732.048419519677, 1,13, 4,10,237357.535085481, 1,18,12,10
513,0.0,0.0, 1,13, 1,10,0.0, 1,13, 1,10
562,14784907.510372225,0.0, 1,13, 1,10,92211.7878542645, 1,16, 6,20
1046,0.0,0.0, 1,13, 1,10,0.0, 1,13, 1,10
1096,27371469.444491304,0.0, 1,13, 1,10,322448.3618689435, 1,18,17,10
1134,177548355.01103407,0.0, 1,13,10,30,1945629.972880288, 1,16, 6,10
1323,541148225.8619651,0.0, 1,13, 1,10,3375000.000000001, 1,19,21,30
1360,5019840.0,4980.0, 1,13, 1,20,4980.000000000001, 1,13, 1,10
1388,0.0,0.0, 1,13, 1,10,0.0, 1,13, 1,10
1,EXTREME_SUMMER,  30.68, -88.25,  -6.00,  67.00
5,7
1038,0.0,0.0, 6,29, 1,10,0.0, 6,29, 1,10
1039,58.333333333333336,0.0, 6,29, 1,10,0.16666666666666666, 6,29,14,10
581,0.06209143430932128,0.0, 6,29, 1,10,0.4640958186211364, 7, 2,18,52
582,2.4551089591406217,0.0865841624161065, 6,30, 7,59,16.011835828659372, 7, 2,18,52
583,2.8624030333488513,0.0, 6,29,23, 2,15.595973968319427, 7, 2,19, 3
1115,0.0,0.0, 6,29, 1,10,0.0, 6,29, 1,10
1128,0.0,0.0, 6,29, 1,10,0.0, 6,29, 1,10
1153,0.0,0.0, 6,29, 1,10,0.0, 6,29, 1,10
1154,0.0,0.0, 6,29, 1,10,0.0, 6,29, 1,10
1156,0.0,0.0, 6,29, 1,10,0.0, 6,29, 1,10
13,1062136684.7758137,185611.52149447828, 6,30, 4,60,1998197.2879222503, 7, 3,20,10
61,301924526.0238348,58759.40635443481, 6,29, 1,10,854682.2742463244, 6,29,20,10
134,70666020.44019979,42376.01200569399, 6,29, 4,10,104369.48322671017, 7, 4,20,10
170,5241013.419656074,232.27731661587313, 6,29, 4,10,11650.931360040839, 7, 4,12,10
207,6509451.13922266,543.5021409221355, 6,29, 3,10,15327.095199349082, 7, 4,10,10
244,12749673.39982522,1014.5707620042115, 6,29, 4,10,35359.08742820678, 7, 4,20,10
281,46165882.48149605,39959.06841621388, 6,29, 5,10,54634.54471212738, 6,29,19,10
318,0.0,0.0, 6,29, 1,10,0.0, 6,29, 1,10
355,654736286.6444108,12374.216038804521, 6,29, 4,10,3829218.154066982, 6,30,18,60
403,197687796.27748126,12374.216038804521, 6,29, 4,10,483183.26346918393, 7, 4,18,10
476,106772067.24485692,4732.048419519677, 6,29, 4,10,237357.535085481, 7, 4,12,10
513,0.0,0.0, 6,29, 1,10,0.0, 6,29, 1,10
562,63406139.40363329,8388.781613060783, 6,30, 4,60,92211.78785426452, 6,29,14,30
1046,0.0,0.0, 6,29, 1,10,0.0, 6,29, 1,10
1096,621120158.908147,71107.32152128872, 6,30, 4,60,1050757.0097333782, 7, 2,15,60
1134,0.0,0.0, 6,29, 1,10,0.0, 6,29, 1,10
1323,457048490.36692834,0.0, 6,29, 1,10,3375000.0000000005, 6,29,16,50
1360,5019840.0,4980.0, 6,29, 1,10,4980.000000000002, 6,29, 9,40
1388,0.0,0.0, 6,29, 1,10,0.0, 6,29, 1,10
1,ANNUAL,  30.68, -88.25,  -6.00,  67.00
5,365
1038,2.4999999999999996,0.0, 1, 1, 1,10,0.16666666666666666, 1,16, 6,10
1039,1068.833333333333,0.0, 1, 1, 1,10,0.16666666666666666, 1,13,12,50
581,0.15521721880095882,0.0, 3,20, 8,41,0.7390868365650716, 3, 8,22,60
582,3.1920975127145086,0.0, 1, 4,20,55,19.76182893749255, 3, 8,19,60
583,3.903378141137115,0.0, 5,13,23, 2,22.411040072094092, 3, 8,19,60
1115,1869135783.4477339,0.0, 1, 1, 1, 5,2870387.5795751903, 1,17, 6,30
1128,576110313.6267215,0.0, 1, 1, 1, 5,897317.7184030815, 1,17, 6,30
1153,19193922.485826295,0.0, 1, 1, 1, 5,47109.88751594716, 1,12, 6,30
1154,657985602.0064873,0.0, 1, 1, 1, 5,120000.0, 1, 1, 3,20
1156,23059151.995690215,0.0, 1, 1, 1, 5,933126.7421025679, 1,21, 6,15
13,40503602227.43345,106115.41836012878, 1,26, 4,40,2718721.2942739064, 1,21, 6,10
61,15743207428.39043,58759.40635443481, 1, 1, 1,10,854682.2742463244, 1, 1,20,10
134,3685071073.433083,42376.01200569399, 1, 2, 4,10,104369.48322671017, 1, 1,20,10
170,273393721.45534325,232.27731661587313, 1, 2, 4,10,11650.931360040839, 1, 1,12,10
207,339560869.06955314,543.5021409221355, 1, 2, 3,10,15327.095199349082, 1, 1,10,10
244,664895467.8009839,1014.5707620042115, 1, 2, 4,10,35359.08742820678, 1, 1,20,10
281,2407221015.1057043,39959.06841621388, 1, 1, 5,10,54634.54471212738, 1, 1,19,10
318,0.0,0.0, 1, 1, 1,10,0.0, 1, 1, 1,10
355,35612583337.210205,12374.216038804521, 1, 2, 4,10,3829218.154066983, 1,10,18,60
403,10310294493.052883,12374.216038804521, 1, 2, 4,10,483183.26346918393, 1, 1,18,10
476,5569688622.065564,4732.048419519677, 1, 2, 4,10,237357.535085481, 1, 1,12,10
513,0.0,0.0, 1, 1, 1,10,0.0, 1, 1, 1,10
562,2011313335.5415971,0.0, 1, 1, 1,10,92211.78785426452, 3,18,16,30
1046,0.0,0.0, 1, 1, 1,10,0.0, 1, 1, 1,10
1096,17525912599.959393,0.0, 1, 1, 1,10,1052986.1775960035, 7, 2,15,60
1134,1276348990.114727,0.0, 1, 1, 1,10,2208212.1870432682, 1,21, 6,10
1323,25302288844.16152,0.0, 1, 1, 1,10,3375000.000000001, 1, 4,16,10
1360,261748800.0,4979.999999999998, 1,31,17,50,4980.000000000002, 1,30,21,60
1388,0.0,0.0, 1, 1, 1,10,0.0, 1, 1, 1,10
End of Data
 Number of Records Written=          87
