Program Version,EnergyPlus, Version 22.2.0-c249759bad, YMD=2023.09.01 20:55
1,5,Environment Title[],Latitude[deg],Longitude[deg],Time Zone[],Elevation[m]
2,8,Day of Simulation[],Month[],Day of Month[],DST Indicator[1=yes 0=no],Hour[],StartMinute[],EndMinute[],DayType
3,5,Cumulative Day of Simulation[],Month[],Day of Month[],DST Indicator[1=yes 0=no],DayType  ! When Daily Report Variables Requested
4,2,Cumulative Days of Simulation[],Month[]  ! When Monthly Report Variables Requested
5,1,Cumulative Days of Simulation[] ! When Run Period Report Variables Requested
6,1,Calendar Year of Simulation[] ! When Annual Report Variables Requested
581,11,LIVING,AFN Zone Infiltration Air Change Rate [ach] !RunPeriod [Value,Min,Month,Day,Hour,Minute,Max,Month,Day,Hour,Minute]
582,11,ATTIC,AFN Zone Infiltration Air Change Rate [ach] !RunPeriod [Value,Min,Month,Day,Hour,Minute,Max,Month,Day,Hour,Minute]
583,11,CRAWLSPACE,AFN Zone Infiltration Air Change Rate [ach] !RunPeriod [Value,Min,Month,Day,Hour,Minute,Max,Month,Day,Hour,Minute]
1038,11,Facility,Facility Heating Setpoint Not Met Time [hr] !RunPeriod [Value,Min,Month,Day,Hour,Minute,Max,Month,Day,Hour,Minute]
1039,11,Facility,Facility Cooling Setpoint Not Met Time [hr] !RunPeriod [Value,Min,Month,Day,Hour,Minute,Max,Month,Day,Hour,Minute]
1115,11,DX_HEATING_COIL,Heating Coil Heating Energy [J] !RunPeriod [Value,Min,Month,Day,Hour,Minute,Max,Month,Day,Hour,Minute]
1128,11,DX_HEATING_COIL,Heating Coil Electricity Energy [J] !RunPeriod [Value,Min,Month,Day,Hour,Minute,Max,Month,Day,Hour,Minute]
1153,11,DX_HEATING_COIL,Heating Coil Defrost Electricity Energy [J] !RunPeriod [Value,Min,Month,Day,Hour,Minute,Max,Month,Day,Hour,Minute]
1154,11,DX_HEATING_COIL,Heating Coil Crankcase Heater Electricity Energy [J] !RunPeriod [Value,Min,Month,Day,Hour,Minute,Max,Month,Day,Hour,Minute]
1155,11,HEATING_RESISTANCE_BACKUP,Heating Coil Heating Energy [J] !RunPeriod [Value,Min,Month,Day,Hour,Minute,Max,Month,Day,Hour,Minute]
1156,11,HEATING_RESISTANCE_BACKUP,Heating Coil Electricity Energy [J] !RunPeriod [Value,Min,Month,Day,Hour,Minute,Max,Month,Day,Hour,Minute]
1292,11,WATER HEATER,Water Heater Heat Loss Energy [J] !RunPeriod [Value,Min,Month,Day,Hour,Minute,Max,Month,Day,Hour,Minute]
1306,11,WATER HEATER,Water Heater Heating Energy [J] !RunPeriod [Value,Min,Month,Day,Hour,Minute,Max,Month,Day,Hour,Minute]
1307,11,WATER HEATER,Water Heater Unmet Demand Heat Transfer Energy [J] !RunPeriod [Value,Min,Month,Day,Hour,Minute,Max,Month,Day,Hour,Minute]
1308,11,WATER HEATER,Water Heater Electricity Energy [J] !RunPeriod [Value,Min,Month,Day,Hour,Minute,Max,Month,Day,Hour,Minute]
13,11,Electricity:Facility [J] !RunPeriod [Value,Min,Month,Day,Hour,Minute,Max,Month,Day,Hour,Minute]
1134,11,Heating:Electricity [J] !RunPeriod [Value,Min,Month,Day,Hour,Minute,Max,Month,Day,Hour,Minute]
1096,11,Cooling:Electricity [J] !RunPeriod [Value,Min,Month,Day,Hour,Minute,Max,Month,Day,Hour,Minute]
562,11,Fans:Electricity [J] !RunPeriod [Value,Min,Month,Day,Hour,Minute,Max,Month,Day,Hour,Minute]
1379,11,Pumps:Electricity [J] !RunPeriod [Value,Min,Month,Day,Hour,Minute,Max,Month,Day,Hour,Minute]
1326,11,WaterSystems:Electricity [J] !RunPeriod [Value,Min,Month,Day,Hour,Minute,Max,Month,Day,Hour,Minute]
61,11,InteriorLights:Electricity [J] !RunPeriod [Value,Min,Month,Day,Hour,Minute,Max,Month,Day,Hour,Minute]
1046,11,ExteriorLights:Electricity [J] !RunPeriod [Value,Min,Month,Day,Hour,Minute,Max,Month,Day,Hour,Minute]
134,11,InteriorEquipment:Electricity [J] !RunPeriod [Value,Min,Month,Day,Hour,Minute,Max,Month,Day,Hour,Minute]
170,11,gas_dryer:InteriorEquipment:Electricity [J] !RunPeriod [Value,Min,Month,Day,Hour,Minute,Max,Month,Day,Hour,Minute]
207,11,clotheswasher:InteriorEquipment:Electricity [J] !RunPeriod [Value,Min,Month,Day,Hour,Minute,Max,Month,Day,Hour,Minute]
244,11,dishwasher:InteriorEquipment:Electricity [J] !RunPeriod [Value,Min,Month,Day,Hour,Minute,Max,Month,Day,Hour,Minute]
281,11,refrigerator:InteriorEquipment:Electricity [J] !RunPeriod [Value,Min,Month,Day,Hour,Minute,Max,Month,Day,Hour,Minute]
318,11,electric_mels:InteriorEquipment:Electricity [J] !RunPeriod [Value,Min,Month,Day,Hour,Minute,Max,Month,Day,Hour,Minute]
355,11,NaturalGas:Facility [J] !RunPeriod [Value,Min,Month,Day,Hour,Minute,Max,Month,Day,Hour,Minute]
403,11,InteriorEquipment:NaturalGas [J] !RunPeriod [Value,Min,Month,Day,Hour,Minute,Max,Month,Day,Hour,Minute]
476,11,gas_dryer:InteriorEquipment:NaturalGas [J] !RunPeriod [Value,Min,Month,Day,Hour,Minute,Max,Month,Day,Hour,Minute]
513,11,gas_mels:InteriorEquipment:NaturalGas [J] !RunPeriod [Value,Min,Month,Day,Hour,Minute,Max,Month,Day,Hour,Minute]
End of Data Dictionary
1,EXTREME_WINTER,  29.62, -95.17,  -6.00,   9.80
5,7
1038,0.0,0.0, 1,13, 1,15,0.0, 1,13, 1,15
1039,0.0,0.0, 1,13, 1,15,0.0, 1,13, 1,15
581,0.27926976780395085,0.06272685975538361, 1,13, 3, 7,0.6476740850641323, 1,13,21,60
582,3.9427253963899602,0.0, 1,16,23,52,12.242179101395434, 1,13, 6,50
583,0.013354420808056497,0.00011338477341447874, 1,19,23,37,0.08159750058548035, 1,16, 6, 5
1115,291781733.14558387,0.0, 1,13, 1, 5,2847079.8277120707, 1,16, 6,45
1128,86965362.84019916,0.0, 1,13, 1, 5,854696.9321667533, 1,16, 6,45
1153,4972704.793935995,0.0, 1,13, 1, 5,73555.31020056401, 1,15, 9,60
1154,71653793.4390145,0.0, 1,13, 1, 5,180000.0, 1,13,15,45
1155,0.0,0.0, 1,13, 1, 5,0.0, 1,13, 1, 5
1156,0.0,0.0, 1,13, 1, 5,0.0, 1,13, 1, 5
1292,-24066355.684237264,-39736.73959585654, 1,15, 3,15,-3345.302550067166, 1,17,10, 2
1306,285656816.72181267,0.0, 1,13, 1, 5,4050000.0, 1,13, 8,30
1307,102329017.5602354,0.0, 1,13, 1, 5,10270322.116139902, 1,16, 9,45
1308,285656816.72181267,0.0, 1,13, 1, 5,4050000.0, 1,13, 8,30
13,878517291.0454737,151703.1275401932, 1,13, 4,15,5782161.794039238, 1,18,21,45
61,301924526.02383536,88139.10953165221, 1,13, 1,15,1282023.4113694867, 1,13,20,15
134,70666020.44019976,63564.01800854099, 1,13, 4,15,156554.22484006523, 1,18,20,15
170,5241013.419656067,348.4159749238097, 1,13, 4,15,17476.39704006126, 1,18,12,15
207,6509451.13922267,815.2532113832032, 1,13, 3,15,22990.642799023623, 1,18,10,15
244,12749673.399825225,1521.856143006317, 1,13, 4,15,53038.631142310165, 1,18,20,15
281,46165882.481495745,59938.60262432081, 1,13, 5,15,81951.81706819107, 1,13,19,15
318,0.0,0.0, 1,13, 1,15,0.0, 1,13, 1,15
355,197687796.27748066,18561.32405820678, 1,13, 4,15,724774.895203776, 1,18,18,15
403,197687796.27748066,18561.32405820678, 1,13, 4,15,724774.895203776, 1,18,18,15
476,106772067.24485716,7098.072629279515, 1,13, 4,15,356036.3026282215, 1,18,12,15
513,0.0,0.0, 1,13, 1,15,0.0, 1,13, 1,15
562,14220425.819302805,0.0, 1,13, 1,15,105683.35285911156, 1,16, 6,15
1046,0.0,0.0, 1,13, 1,15,0.0, 1,13, 1,15
1096,42457640.9671739,0.0, 1,13, 1,15,611999.06401794, 1,19,15,60
1134,163591861.07314956,0.0, 1,13, 1,15,1155990.9658580532, 1,16, 6,15
1326,285656816.72181255,0.0, 1,13, 1,15,4050000.0, 1,13, 8,30
1379,0.0,0.0, 1,13, 1,15,0.0, 1,13, 1,15
1,EXTREME_SUMMER,  29.62, -95.17,  -6.00,   9.80
5,7
1038,0.0,0.0, 7, 6, 1,15,0.0, 7, 6, 1,15
1039,51.75,0.0, 7, 6, 1,15,0.25, 7, 6,14,15
581,0.09465079468853489,0.0, 7, 6, 1,15,0.3860247447738938, 7, 7,13,52
582,2.754456738997704,0.11916163629808203, 7,12,22,20,9.294113426478043, 7, 9,15,50
583,0.05224516033642286,0.0, 7, 6,23, 3,0.07951860989991344, 7, 7,14,60
1115,0.0,0.0, 7, 6, 1,15,0.0, 7, 6, 1,15
1128,0.0,0.0, 7, 6, 1,15,0.0, 7, 6, 1,15
1153,0.0,0.0, 7, 6, 1,15,0.0, 7, 6, 1,15
1154,0.0,0.0, 7, 6, 1,15,0.0, 7, 6, 1,15
1155,0.0,0.0, 7, 6, 1,15,0.0, 7, 6, 1,15
1156,0.0,0.0, 7, 6, 1,15,0.0, 7, 6, 1,15
1292,-21734439.931425277,-34326.72025361131, 7,12, 6,30,-3191.9452254527764, 7,10, 9,60
1306,202909791.21611217,0.0, 7, 6, 1,15,4050000.0, 7, 8,16,45
1307,44918335.18260358,0.0, 7, 6, 1,15,1614946.2698289487, 7, 6,16,45
1308,202909791.21611217,0.0, 7, 6, 1,15,4050000.0, 7, 8,16,45
13,1356683362.4307122,410834.94850811537, 7, 9, 4,60,7145304.707152198, 7,12,21,15
61,301924526.02383536,88139.10953165221, 7, 6, 1,15,1282023.4113694867, 7, 6,20,15
134,70666020.44019976,63564.01800854099, 7, 6, 4,15,156554.22484006523, 7,11,20,15
170,5241013.419656067,348.4159749238097, 7, 6, 4,15,17476.39704006126, 7,11,12,15
207,6509451.13922267,815.2532113832032, 7, 6, 3,15,22990.642799023623, 7,11,10,15
244,12749673.399825225,1521.856143006317, 7, 6, 4,15,53038.631142310165, 7,11,20,15
281,46165882.481495745,59938.60262432081, 7, 6, 5,15,81951.81706819107, 7, 6,19,15
318,0.0,0.0, 7, 6, 1,15,0.0, 7, 6, 1,15
355,197687796.27748066,18561.32405820678, 7, 6, 4,15,724774.895203776, 7,11,18,15
403,197687796.27748066,18561.32405820678, 7, 6, 4,15,724774.895203776, 7,11,18,15
476,106772067.24485716,7098.072629279515, 7, 6, 4,15,356036.3026282215, 7,11,12,15
513,0.0,0.0, 7, 6, 1,15,0.0, 7, 6, 1,15
562,68211641.24319614,25007.901673048887, 7, 9, 4,60,148794.5590079719, 7, 6,12,45
1046,0.0,0.0, 7, 6, 1,15,0.0, 7, 6, 1,15
1096,712971383.5073696,234123.91929487325, 7, 9, 4,60,1780591.322823633, 7,11,17,60
1134,0.0,0.0, 7, 6, 1,15,0.0, 7, 6, 1,15
1326,202909791.21611214,0.0, 7, 6, 1,15,4050000.0, 7, 6, 9,60
1379,0.0,0.0, 7, 6, 1,15,0.0, 7, 6, 1,15
1,ANNUAL,  29.62, -95.17,  -6.00,   9.80
5,365
1038,0.0,0.0, 1, 1, 1,15,0.0, 1, 1, 1,15
1039,1087.5,0.0, 1, 1, 1,15,0.25, 4,15,13,60
581,0.18059445013684539,0.0, 3,11,23, 5,0.8664798746222662, 1,30,11,60
582,3.556335590100234,0.0, 1,10,20,50,22.316717021276318, 1, 9,15,60
583,0.03545073400431979,0.0, 3,17, 6, 7,0.08609405955097767,10,31, 6, 5
1115,964514220.85436,0.0, 1, 1, 1, 7,3149866.7599075646,12, 7, 6,45
1128,283316198.15135074,0.0, 1, 1, 1, 7,1009467.1320250771,12, 7, 6,45
1153,10376138.082598357,0.0, 1, 1, 1, 7,75131.47829856777, 1,15, 9,60
1154,467147459.40054965,0.0, 1, 1, 1, 7,180000.0, 1, 1,21,15
1155,1220398.1638871222,0.0, 1, 1, 1, 7,697370.3793640698,12, 7, 6, 5
1156,1220398.1638871222,0.0, 1, 1, 1, 7,697370.3793640698,12, 7, 6, 5
1292,-1156243697.4320693,-39742.185779739404,12,27, 3,30,-1916.696422687855, 4, 9, 9,45
1306,12681068329.314539,0.0, 1, 1, 1, 7,4050000.0, 1, 1, 9,60
1307,3783340080.3177514,0.0, 1, 1, 1, 7,12244385.229296895, 2,17, 9,60
1308,12681068329.314539,0.0, 1, 1, 1, 7,4050000.0, 1, 1, 9,60
13,56278435571.54623,151703.1275401932, 1, 9, 4,15,7164263.768948496, 8,12,21,45
61,15743207428.383959,88139.10953165221, 1, 1, 1,15,1282023.4113694867, 1, 1,20,15
134,3685071073.4325233,63564.01800854099, 1, 2, 4,15,156554.22484006523, 1, 1,20,15
170,273393721.45532674,348.4159749238097, 1, 2, 4,15,17476.39704006126, 1, 1,12,15
207,339560869.0695816,815.2532113832032, 1, 2, 3,15,22990.642799023623, 1, 1,10,15
244,664895467.8009144,1521.856143006317, 1, 2, 4,15,53038.631142310165, 1, 1,20,15
281,2407221015.106824,59938.60262432081, 1, 1, 5,15,81951.81706819107, 1, 1,19,15
318,0.0,0.0, 1, 1, 1,15,0.0, 1, 1, 1,15
355,10310294493.051695,18561.32405820678, 1, 2, 4,15,724774.895203776, 1, 1,18,15
403,10310294493.051695,18561.32405820678, 1, 2, 4,15,724774.895203776, 1, 1,18,15
476,5569688622.066177,7098.072629279515, 1, 2, 4,15,356036.3026282215, 1, 1,12,15
513,0.0,0.0, 1, 1, 1,15,0.0, 1, 1, 1,15
562,2245106541.7252426,0.0, 1, 1, 1,15,148794.55900797193, 4,28,17,45
1046,0.0,0.0, 1, 1, 1,15,0.0, 1, 1, 1,15
1096,21161922004.889595,0.0, 1, 1, 1,15,1863517.4339475413, 7,25,16,60
1134,762060193.7983849,0.0, 1, 1, 1,15,1837517.2713815507,12, 7, 6,15
1326,12681068329.31455,0.0, 1, 1, 1,15,4050000.0000000014, 7, 3, 9,45
1379,0.0,0.0, 1, 1, 1,15,0.0, 1, 1, 1,15
End of Data
 Number of Records Written=          99
