Program Version,EnergyPlus, Version 22.2.0-c249759bad, YMD=2023.09.01 14:32
1,5,Environment Title[],Latitude[deg],Longitude[deg],Time Zone[],Elevation[m]
2,8,Day of Simulation[],Month[],Day of Month[],DST Indicator[1=yes 0=no],Hour[],StartMinute[],EndMinute[],DayType
3,5,Cumulative Day of Simulation[],Month[],Day of Month[],DST Indicator[1=yes 0=no],DayType  ! When Daily Report Variables Requested
4,2,Cumulative Days of Simulation[],Month[]  ! When Monthly Report Variables Requested
5,1,Cumulative Days of Simulation[] ! When Run Period Report Variables Requested
6,1,Calendar Year of Simulation[] ! When Annual Report Variables Requested
7,1,Environment,Site Outdoor Air Drybulb Temperature [C] !Hourly
545,1,LIVING,Zone Mean Air Temperature [C] !Hourly
546,1,ATTIC,Zone Mean Air Temperature [C] !Hourly
547,1,CRAWLSPACE,Zone Mean Air Temperature [C] !Hourly
548,1,FAN,Fan Electricity Rate [W] !Hourly
720,1,LIVING,Zone Predicted Sensible Load to Heating Setpoint Heat Transfer Rate [W] !Hourly
721,1,LIVING,Zone System Predicted Sensible Load to Heating Setpoint Heat Transfer Rate [W] !Hourly
784,1,ATTIC,Zone Predicted Sensible Load to Heating Setpoint Heat Transfer Rate [W] !Hourly
785,1,ATTIC,Zone System Predicted Sensible Load to Heating Setpoint Heat Transfer Rate [W] !Hourly
848,1,CRAWLSPACE,Zone Predicted Sensible Load to Heating Setpoint Heat Transfer Rate [W] !Hourly
849,1,CRAWLSPACE,Zone System Predicted Sensible Load to Heating Setpoint Heat Transfer Rate [W] !Hourly
1121,1,DX_HEATING_COIL,Heating Coil Heating Rate [W] !Hourly
1135,1,DX_HEATING_COIL,Heating Coil Electricity Rate [W] !Hourly
1161,1,DX_HEATING_COIL,Heating Coil Defrost Electricity Rate [W] !Hourly
1163,1,DX_HEATING_COIL,Heating Coil Crankcase Heater Electricity Rate [W] !Hourly
1166,1,HEATING_RESISTANCE_BACKUP,Heating Coil Heating Rate [W] !Hourly
1168,1,HEATING_RESISTANCE_BACKUP,Heating Coil Electricity Rate [W] !Hourly
End of Data Dictionary
1,EXTREME_WINTER,  39.88, -75.25,  -5.00,   3.10
2,1, 1, 6, 0, 1, 0.00,60.00,Monday
7,-1.7
545,18.581334417511034
546,1.0014633941124123
547,19.139529117422498
548,84.08602398839828
720,1863.2897872297199
721,1863.2897872297199
784,0.0
785,0.0
848,0.0
849,0.0
1121,2521.0258180166948
1135,808.0652804040842
1161,0.04050623804197337
1163,81.91845292481193
1166,0.0
1168,0.0
2,1, 1, 6, 0, 2, 0.00,60.00,Monday
7,-1.7
545,18.545395090692264
546,0.9995532997968198
547,18.80657135220818
548,97.81725715726454
720,2151.577781964452
721,2151.577781964452
784,0.0
785,0.0
848,0.0
849,0.0
1121,2963.8755842675405
1135,943.0684135392773
1161,0.04712090005768474
1163,62.63575569221973
1166,0.0
1168,0.0
2,1, 1, 6, 0, 3, 0.00,60.00,Monday
7,-1.7
545,18.52853019114013
546,0.8021459319356057
547,18.628567720040888
548,111.1144000466086
720,2421.5689401551754
721,2421.5689401551754
784,0.0
785,0.0
848,0.0
849,0.0
1121,3368.1680210976847
1135,1059.7543661852092
1161,8.667761824125986
1163,43.73608350113327
1166,0.0
1168,0.0
2,1, 1, 6, 0, 4, 0.00,60.00,Monday
7,-2.0
545,18.584878977700598
546,1.0743463697557971
547,18.43900657842716
548,118.43474494821325
720,2503.6405385181697
721,2503.6405385181697
784,0.0
785,0.0
848,0.0
849,0.0
1121,3539.5947987554887
1135,1114.1991437494635
1161,19.319473108400924
1163,33.14906630765784
1166,0.0
1168,0.0
2,1, 1, 6, 0, 5, 0.00,60.00,Monday
7,-2.0
545,18.637924719657704
546,0.8881094314917163
547,18.28282507196699
548,116.17296911457814
720,2395.790704426772
721,2395.790704426772
784,0.0
785,0.0
848,0.0
849,0.0
1121,3427.884503879155
1135,1083.9216839237913
1161,27.467754808550723
1163,36.09225108578935
1166,0.0
1168,0.0
2,1, 1, 6, 0, 6, 0.00,60.00,Monday
7,-1.1
545,19.198612160929102
546,1.3763826071655791
547,18.105025711525776
548,142.42153312925635
720,4036.9677886896134
721,4036.9677886896134
784,0.0
785,0.0
848,0.0
849,0.0
1121,4500.411507620167
1135,1363.278145619194
1161,12.381601791808757
1163,0.0
1166,968.670734997514
1168,968.670734997514
2,1, 1, 6, 0, 7, 0.00,60.00,Monday
7,-1.1
545,19.567073314353813
546,1.5885102046951765
547,17.99769706384112
548,142.42153312925635
720,3332.2102161478906
721,3332.2102161478906
784,0.0
785,0.0
848,0.0
849,0.0
1121,4425.039563573375
1135,1358.9280232038984
1161,26.091514824080793
1163,0.0
1166,306.27921084114496
1168,306.27921084114496
2,1, 1, 6, 0, 8, 0.00,60.00,Monday
7,-1.1
545,19.67880528656525
546,1.6471525683601536
547,17.87337210994394
548,142.42153312925635
720,3091.7801011781958
721,3091.7801011781958
784,0.0
785,0.0
848,0.0
849,0.0
1121,4416.854919676816
1135,1368.6794453095886
1161,26.091514824080793
1163,0.0
1166,48.15832465493622
1168,48.15832465493622
2,1, 1, 6, 0, 9, 0.00,60.00,Monday
7,-1.0
545,19.701864656610887
546,2.1624189185368565
547,17.749369662956273
548,142.42153312925635
720,3381.0369978974304
721,3381.0369978974304
784,0.0
785,0.0
848,0.0
849,0.0
1121,4425.716910118567
1135,1372.391821235706
1161,26.299126171314896
1163,0.0
1166,383.8300245079736
1168,383.8300245079736
2,1, 1, 6, 0,10, 0.00,60.00,Monday
7,-0.6
545,19.71991277781529
546,2.396164331030765
547,17.63687918594079
548,142.42153312925635
720,3227.315116275442
721,3227.315116275442
784,0.0
785,0.0
848,0.0
849,0.0
1121,4555.979035818471
1135,1402.7669309435576
1161,8.653979342916719
1163,0.0
1166,61.772511139606195
1168,61.772511139606195
2,1, 1, 6, 0,11, 0.00,60.00,Monday
7,0.0
545,19.716292453658564
546,2.785145393766446
547,17.525311709226024
548,142.42153312925635
720,3508.1045833763765
721,3508.1045833763765
784,0.0
785,0.0
848,0.0
849,0.0
1121,4625.274977869677
1135,1408.7009171049926
1161,9.862775896600798
1163,0.0
1166,309.6464199762722
1168,309.6464199762722
2,1, 1, 6, 0,12, 0.00,60.00,Monday
7,1.1
545,19.793386051269596
546,3.678393614028592
547,17.437396728553303
548,118.71271304393757
720,2705.726996810996
721,2705.726996810996
784,0.0
785,0.0
848,0.0
849,0.0
1121,3910.1373630938488
1135,1191.736520407441
1161,4.359923437884916
1163,33.220925527828804
1166,0.0
1168,0.0
2,1, 1, 6, 0,13, 0.00,60.00,Monday
7,1.1
545,19.658285171114073
546,4.263830539990753
547,17.331265605445505
548,128.03272758598277
720,3038.113912515566
721,3038.113912515566
784,0.0
785,0.0
848,0.0
849,0.0
1121,4249.390160968408
1135,1287.0176333087259
1161,4.705021788596642
1163,20.127196331319873
1166,0.0
1168,0.0
2,1, 1, 6, 0,14, 0.00,60.00,Monday
7,1.1
545,19.786304725725675
546,4.991208943177514
547,17.245286211165862
548,102.44862679386151
720,2337.4154019034195
721,2337.4154019034195
784,0.0
785,0.0
848,0.0
849,0.0
1121,3329.4314001989833
1135,1027.1458848308582
1161,3.76484116783617
1163,56.070265632511585
1166,0.0
1168,0.0
2,1, 1, 6, 0,15, 0.00,60.00,Monday
7,2.8
545,20.090294100639355
546,6.748133580413466
547,17.194307682752807
548,52.086410489561686
720,1131.6709520566183
721,1131.6709520566183
784,0.0
785,0.0
848,0.0
849,0.0
1121,1706.863747135207
1135,534.3661255550467
1161,0.025091137923245403
1163,126.85570107044684
1166,0.0
1168,0.0
2,1, 1, 6, 0,16, 0.00,60.00,Monday
7,2.8
545,19.709322305398913
546,6.376207797532357
547,17.150086349575908
548,28.628483837315464
720,611.0678773036216
721,611.0678773036216
784,0.0
785,0.0
848,0.0
849,0.0
1121,919.4369239175546
1135,295.4620907427929
1161,0.013790953030753879
1163,159.79737570728656
1166,0.0
1168,0.0
2,1, 1, 6, 0,17, 0.00,60.00,Monday
7,2.2
545,19.52185833352198
546,4.6709365078981016
547,17.123972253735364
548,43.2444994837183
720,1047.04537056341
721,1047.04537056341
784,0.0
785,0.0
848,0.0
849,0.0
1121,1385.5198990618687
1135,440.5107577484051
1161,0.020831812891088538
1163,139.2722500664803
1166,0.0
1168,0.0
2,1, 1, 6, 0,18, 0.00,60.00,Monday
7,1.7
545,20.20759439579834
546,4.123281556557696
547,17.105597262333635
548,56.01382349287223
720,1338.9222852992789
721,1338.9222852992789
784,0.0
785,0.0
848,0.0
849,0.0
1121,1781.1080249880342
1135,563.0081432787368
1161,2.159029791437308
1163,121.30875212311688
1166,0.0
1168,0.0
2,1, 1, 6, 0,19, 0.00,60.00,Monday
7,1.7
545,19.65750345739623
546,3.1290006543173434
547,17.081157952049654
548,37.11952333287358
720,802.6781215475203
721,802.6781215475203
784,0.0
785,0.0
848,0.0
849,0.0
1121,1158.7156059653307
1135,378.15754312030697
1161,1.4299074967408758
1163,147.85242856557034
1166,0.0
1168,0.0
2,1, 1, 6, 0,20, 0.00,60.00,Monday
7,1.7
545,19.69410861500775
546,2.968697039645063
547,17.031468535420682
548,44.821288475060655
720,1023.7831445131842
721,1023.7831445131842
784,0.0
785,0.0
848,0.0
849,0.0
1121,1411.5272056172078
1135,451.7076556190992
1161,1.726590773728611
1163,137.0326290922606
1166,0.0
1168,0.0
2,1, 1, 6, 0,21, 0.00,60.00,Monday
7,0.6
545,20.02510416448168
546,2.289101784940908
547,16.98118327385656
548,47.01461462086722
720,1024.8643794915042
721,1024.8643794915042
784,0.0
785,0.0
848,0.0
849,0.0
1121,1432.7921142600887
1135,467.42379471626805
1161,3.4156131176017035
1163,133.91528618913694
1166,0.0
1168,0.0
2,1, 1, 6, 0,22, 0.00,60.00,Monday
7,0.6
545,19.481454395173607
546,2.073260804570388
547,16.923154246931464
548,51.96970697616575
720,1136.3895470395
721,1136.3895470395
784,0.0
785,0.0
848,0.0
849,0.0
1121,1600.499977276004
1135,523.8706198371299
1161,0.8408205851203776
1163,127.00447102854748
1166,0.0
1168,0.0
2,1, 1, 6, 0,23, 0.00,60.00,Monday
7,0.6
545,18.810015719309835
546,1.6162925559122077
547,16.846683144637538
548,44.58235342530547
720,953.6503428571959
721,953.6503428571959
784,0.0
785,0.0
848,0.0
849,0.0
1121,1371.6292810935054
1135,445.54414287821
1161,0.02147632274502909
1163,137.39341055095574
1166,0.0
1168,0.0
2,1, 1, 6, 0,24, 0.00,60.00,Monday
7,0.0
545,18.433658296159287
546,1.558246819068414
547,16.75621402176623
548,63.68899208173454
720,1427.602167868171
721,1427.602167868171
784,0.0
785,0.0
848,0.0
849,0.0
1121,1960.3065550486956
1135,623.5604066579572
1161,0.9614016564420829
1163,110.54329100852786
1166,0.0
1168,0.0
2,2, 1, 7, 0, 1, 0.00,60.00,Tuesday
7,0.0
545,18.50515602229194
546,1.5741062182713865
547,16.662889904635133
548,86.74773135570068
720,2005.0538763512923
721,2005.0538763512923
784,0.0
785,0.0
848,0.0
849,0.0
1121,2726.173486312136
1135,842.9077482769104
1161,1.3094786977998019
1163,78.15534327960081
1166,0.0
1168,0.0
2,2, 1, 7, 0, 2, 0.00,60.00,Tuesday
7,0.0
545,18.524458638918052
546,1.638032356044468
547,16.576338190514146
548,102.75962395077886
720,2379.6715409882218
721,2379.6715409882218
784,0.0
785,0.0
848,0.0
849,0.0
1121,3271.765027707109
1135,999.7125743123178
1161,1.5511823228159167
1163,55.66525217109537
1166,0.0
1168,0.0
2,2, 1, 7, 0, 3, 0.00,60.00,Tuesday
7,-0.6
545,18.612732928768473
546,1.4857524378139788
547,16.485859296817946
548,109.52734021536938
720,2437.7619573213015
721,2437.7619573213015
784,0.0
785,0.0
848,0.0
849,0.0
1121,3411.2506115346273
1135,1049.4939257084195
1161,10.359096230692526
1163,45.96057796908715
1166,0.0
1168,0.0
2,2, 1, 7, 0, 4, 0.00,60.00,Tuesday
7,0.0
545,18.56811433115815
546,1.8020552116518127
547,16.40378843914927
548,114.6638118115468
720,2588.130612738383
721,2588.130612738383
784,0.0
785,0.0
848,0.0
849,0.0
1121,3638.9598948309067
1135,1104.6671590208018
1161,12.00006971929628
1163,38.7349386367345
1166,0.0
1168,0.0
2,2, 1, 7, 0, 5, 0.00,60.00,Tuesday
7,0.0
545,18.612944928899726
546,1.9011399478679916
547,16.317145915601785
548,113.5168160397239
720,2551.787827436563
721,2551.787827436563
784,0.0
785,0.0
848,0.0
849,0.0
1121,3599.9227445381684
1135,1092.583798559203
1161,11.876535052533848
1163,40.34822177890267
1166,0.0
1168,0.0
2,2, 1, 7, 0, 6, 0.00,60.00,Tuesday
7,-0.6
545,19.29818926760085
546,1.6980867115634095
547,16.228358403944927
548,142.42153312925635
720,3670.8873068946195
721,3670.8873068946195
784,0.0
785,0.0
848,0.0
849,0.0
1121,4527.010906593302
1135,1354.4485529575543
1161,20.58272375665513
1163,0.0
1166,505.9742021011839
1168,505.9742021011839
2,2, 1, 7, 0, 7, 0.00,60.00,Tuesday
7,-0.6
545,19.59665935041408
546,2.017020268686907
547,16.185189442304484
548,141.40405266520102
720,3098.64768728779
721,3098.64768728779
784,0.0
785,0.0
848,0.0
849,0.0
1121,4476.816104402935
1135,1366.0551891687212
1161,20.475421828509578
1163,0.965273106277964
1166,0.0
1168,0.0
2,2, 1, 7, 0, 8, 0.00,60.00,Tuesday
7,-0.6
545,19.712489072187182
546,1.7771551846301794
547,16.114729065215293
548,132.35748895739212
720,2841.572215357748
721,2841.572215357748
784,0.0
785,0.0
848,0.0
849,0.0
1121,4151.475637336506
1135,1286.1778575504206
1161,19.165539057816652
1163,13.698205385340856
1166,0.0
1168,0.0
2,2, 1, 7, 0, 9, 0.00,60.00,Tuesday
7,0.6
545,19.79029231157486
546,2.8583203907108006
547,16.044600438149434
548,101.89125848323425
720,2172.7794599531535
721,2172.7794599531535
784,0.0
785,0.0
848,0.0
849,0.0
1121,3249.034350652222
1135,1012.1351536417568
1161,7.376944461623009
1163,56.78004585004819
1166,0.0
1168,0.0
2,2, 1, 7, 0,10, 0.00,60.00,Tuesday
7,1.1
545,19.77302888071653
546,4.154793616563891
547,15.978185387394989
548,73.56000817396762
720,1538.6261602537525
721,1538.6261602537525
784,0.0
785,0.0
848,0.0
849,0.0
1121,2320.3238658321548
1135,734.7884124706787
1161,5.5341349000669
1163,96.6079358958111
1166,0.0
1168,0.0
2,2, 1, 7, 0,11, 0.00,60.00,Tuesday
7,1.7
545,19.933098238752333
546,5.4808194720659325
547,15.933790719971126
548,44.301378582711386
720,913.6761442494062
721,913.6761442494062
784,0.0
785,0.0
848,0.0
849,0.0
1121,1394.2344041094527
1135,446.97262835346896
1161,1.6978091133483482
1163,137.76315045192325
1166,0.0
1168,0.0
2,2, 1, 7, 0,12, 0.00,60.00,Tuesday
7,3.3
545,19.824879964763852
546,7.820687721570371
547,15.914142813017671
548,20.553064948689503
720,420.79059234764463
721,420.79059234764463
784,0.0
785,0.0
848,0.0
849,0.0
1121,665.2621637004279
1135,212.19632850722053
1161,0.009900846107213118
1163,171.1376004732499
1166,0.0
1168,0.0
2,2, 1, 7, 0,13, 0.00,60.00,Tuesday
7,3.9
545,20.169870866486317
546,10.375692984317043
547,15.915025364994234
548,3.5231613591600115
720,41.88814241653563
721,41.88814241653563
784,0.0
785,0.0
848,0.0
849,0.0
1121,114.36191320761992
1135,36.51006849558606
1161,0.0016971803693556406
1163,195.05247356045535
1166,0.0
1168,0.0
2,2, 1, 7, 0,14, 0.00,60.00,Tuesday
7,3.9
545,20.594281888985492
546,11.339855123334512
547,15.939929487851991
548,0.0
720,-727.4852702662301
721,-727.4852702662301
784,0.0
785,0.0
848,0.0
849,0.0
1121,0.0
1135,0.0
1161,0.0
1163,200.0
1166,0.0
1168,0.0
2,2, 1, 7, 0,15, 0.00,60.00,Tuesday
7,3.3
545,21.19064257369001
546,10.72677353292149
547,15.982494124936732
548,0.0
720,-1224.163914948951
721,-1224.163914948951
784,0.0
785,0.0
848,0.0
849,0.0
1121,0.0
1135,0.0
1161,0.0
1163,200.0
1166,0.0
1168,0.0
2,2, 1, 7, 0,16, 0.00,60.00,Tuesday
7,2.8
545,21.436882278240176
546,8.741753455062304
547,16.036133971556136
548,0.0
720,-1420.1148957465102
721,-1420.1148957465102
784,0.0
785,0.0
848,0.0
849,0.0
1121,0.0
1135,0.0
1161,0.0
1163,200.0
1166,0.0
1168,0.0
2,2, 1, 7, 0,17, 0.00,60.00,Tuesday
7,2.2
545,21.325949420441592
546,6.954205949750654
547,16.092567196364538
548,0.0
720,-1319.4932604626374
721,-1319.4932604626374
784,0.0
785,0.0
848,0.0
849,0.0
1121,0.0
1135,0.0
1161,0.0
1163,200.0
1166,0.0
1168,0.0
2,2, 1, 7, 0,18, 0.00,60.00,Tuesday
7,1.7
545,20.981934426936668
546,5.105116118117436
547,16.140644493647706
548,0.0
720,-1032.0546877640281
721,-1032.0546877640281
784,0.0
785,0.0
848,0.0
849,0.0
1121,0.0
1135,0.0
1161,0.0
1163,200.0
1166,0.0
1168,0.0
2,2, 1, 7, 0,19, 0.00,60.00,Tuesday
7,1.1
545,20.614542496206013
546,3.2651398583045395
547,16.17456174310668
548,0.0
720,-693.5216451084398
721,-693.5216451084398
784,0.0
785,0.0
848,0.0
849,0.0
1121,0.0
1135,0.0
1161,0.0
1163,200.0
1166,0.0
1168,0.0
2,2, 1, 7, 0,20, 0.00,60.00,Tuesday
7,1.1
545,20.349993260591358
546,2.2236125667432702
547,16.18172309389977
548,0.0
720,-500.0494315625874
721,-500.0494315625874
784,0.0
785,0.0
848,0.0
849,0.0
1121,0.0
1135,0.0
1161,0.0
1163,200.0
1166,0.0
1168,0.0
2,2, 1, 7, 0,21, 0.00,60.00,Tuesday
7,-0.6
545,19.73153360097883
546,0.9745091190790979
547,16.16857536210711
548,6.575316309678931
720,123.53131972047231
721,123.53131972047231
784,0.0
785,0.0
848,0.0
849,0.0
1121,185.30996757635546
1135,64.8892959479849
1161,0.9526801705971073
1163,190.74471435596817
1166,0.0
1168,0.0
2,2, 1, 7, 0,22, 0.00,60.00,Tuesday
7,0.0
545,19.865580741070847
546,1.3131261435197465
547,16.144710382109146
548,27.23745118130234
720,597.0543720131482
721,597.0543720131482
784,0.0
785,0.0
848,0.0
849,0.0
1121,800.2322269226612
1135,268.2607382813645
1161,2.8502631989620055
1163,161.69248479307444
1166,0.0
1168,0.0
2,2, 1, 7, 0,23, 0.00,60.00,Tuesday
7,0.0
545,18.881418056455345
546,1.0455836319826666
547,16.094117855133568
548,7.31149459002827
720,109.06099142330095
721,109.06099142330095
784,0.0
785,0.0
848,0.0
849,0.0
1121,211.33314146399053
1135,72.20597761358952
1161,0.7654873078259667
1163,189.71689030984058
1166,0.0
1168,0.0
2,2, 1, 7, 0,24, 0.00,60.00,Tuesday
7,-0.6
545,18.480303561397417
546,1.0832379170224753
547,16.039482959774595
548,26.62410839573533
720,558.8405647812124
721,558.8405647812124
784,0.0
785,0.0
848,0.0
849,0.0
1121,756.8627904514333
1135,251.95230560427927
1161,6.4984350484166065
1163,162.46349841883648
1166,0.0
1168,0.0
2,3, 1, 8, 0, 1, 0.00,60.00,Wednesday
7,-1.0
545,18.45333071003176
546,0.9198477500094118
547,15.974081356218326
548,49.649741308815635
720,1046.715966000971
721,1046.715966000971
784,0.0
785,0.0
848,0.0
849,0.0
1121,1417.4186012244732
1135,462.423931984656
1161,13.902272904782073
1163,129.9387892107863
1166,0.0
1168,0.0
2,3, 1, 8, 0, 2, 0.00,60.00,Wednesday
7,-1.1
545,18.46872957165878
546,1.2334518689709706
547,15.902968835307124
548,73.38514763493129
720,1509.1385850232073
721,1509.1385850232073
784,0.0
785,0.0
848,0.0
849,0.0
1121,2083.7763263726565
1135,669.2272411681186
1161,31.534041771787326
1163,96.15096877301217
1166,0.0
1168,0.0
2,3, 1, 8, 0, 3, 0.00,60.00,Wednesday
7,-2.2
545,18.464234889186162
546,1.6194509098914618
547,15.823607562744378
548,97.1377154895596
720,1893.4480284681486
721,1893.4480284681486
784,0.0
785,0.0
848,0.0
849,0.0
1121,2665.526985608135
1135,860.9614628401921
1161,57.185796781515975
1163,61.87476780670236
1166,0.0
1168,0.0
2,3, 1, 8, 0, 4, 0.00,60.00,Wednesday
7,-2.0
545,18.516127874574295
546,1.4645263088756717
547,15.750719130209047
548,110.48994254762682
720,2162.454032703665
721,2162.454032703665
784,0.0
785,0.0
848,0.0
849,0.0
1121,3073.343502928489
1135,977.5416803150656
1161,67.5019243274609
1163,42.86249906099773
1166,0.0
1168,0.0
2,3, 1, 8, 0, 5, 0.00,60.00,Wednesday
7,-2.0
545,18.52267753412679
546,1.4600491245524112
547,15.678370202273706
548,121.15515886105212
720,2366.5600991037045
721,2366.5600991037045
784,0.0
785,0.0
848,0.0
849,0.0
1121,3400.283095065726
1135,1072.8499527585363
1161,74.0178674206762
1163,27.694057210932343
1166,0.0
1168,0.0
2,3, 1, 8, 0, 6, 0.00,60.00,Wednesday
7,-2.0
545,19.273930896135663
546,1.8494723273884948
547,15.607365176764413
548,142.42153312925635
720,3439.930576652021
721,3439.930576652021
784,0.0
785,0.0
848,0.0
849,0.0
1121,4065.5979049399334
1135,1245.2203214492813
1161,85.91446844208606
1163,0.0
1166,721.8370200648155
1168,721.8370200648155
2,3, 1, 8, 0, 7, 0.00,60.00,Wednesday
7,-2.0
545,19.579896448524877
546,1.8664965479459195
547,15.576290806673036
548,142.42153312925635
720,3254.259995686836
721,3254.259995686836
784,0.0
785,0.0
848,0.0
849,0.0
1121,4050.0565866544416
1135,1263.6201139975979
1161,85.91446844208606
1163,0.0
1166,609.2308941240622
1168,609.2308941240622
2,3, 1, 8, 0, 8, 0.00,60.00,Wednesday
7,-1.7
545,19.67841846747212
546,1.4685292414202957
547,15.520224301739377
548,142.42153312925635
720,3052.701464206819
721,3052.701464206819
784,0.0
785,0.0
848,0.0
849,0.0
1121,4074.2314922905925
1135,1273.3972527691847
1161,86.65466993322494
1163,0.0
1166,380.3635706205837
1168,380.3635706205837
2,3, 1, 8, 0, 9, 0.00,60.00,Wednesday
7,-1.7
545,19.739011811771967
546,1.4995176614473595
547,15.45751008768436
548,134.12147864201586
720,2576.40433062384
721,2576.40433062384
784,0.0
785,0.0
848,0.0
849,0.0
1121,3900.709104471614
1135,1240.8740631874132
1161,62.209114855648146
1163,9.92826604652237
1166,0.0
1168,0.0
2,3, 1, 8, 0,10, 0.00,60.00,Wednesday
7,-2.0
545,19.811153640493863
546,2.367931760315151
547,15.388684749078594
548,106.7653196460549
720,1897.8546342079208
721,1897.8546342079208
784,0.0
785,0.0
848,0.0
849,0.0
1121,2983.0284776004746
1135,980.1141566482381
1161,55.21580805120766
1163,48.46243571233442
1166,0.0
1168,0.0
2,3, 1, 8, 0,11, 0.00,60.00,Wednesday
7,-1.0
545,19.79064366116051
546,3.352891891512157
547,15.345078731483907
548,88.90308002640188
720,1688.1049965218954
721,1688.1049965218954
784,0.0
785,0.0
848,0.0
849,0.0
1121,2574.708666657488
1135,840.6485472611971
1161,31.765037504254124
1163,74.3675902188802
1166,0.0
1168,0.0
2,3, 1, 8, 0,12, 0.00,60.00,Wednesday
7,0.0
545,19.65450049833034
546,3.479681489893855
547,15.318112934466544
548,88.7779532081757
720,1869.2880503336437
721,1869.2880503336437
784,0.0
785,0.0
848,0.0
849,0.0
1121,2700.2737931687193
1135,862.3540115529748
1161,18.59853140198404
1163,74.9440302245307
1166,0.0
1168,0.0
2,3, 1, 8, 0,13, 0.00,60.00,Wednesday
7,0.0
545,19.577094237811647
546,3.5092434000224766
547,15.287656757910021
548,83.63443401309978
720,1805.678753002312
721,1805.678753002312
784,0.0
785,0.0
848,0.0
849,0.0
1121,2586.6616642489184
1135,825.2058651657348
1161,5.808472192244654
1163,82.43517783000426
1166,0.0
1168,0.0
2,3, 1, 8, 0,14, 0.00,60.00,Wednesday
7,0.0
545,19.71416569095639
546,3.7902856281166915
547,15.274671081070396
548,77.60063186759254
720,1667.1124737718637
721,1667.1124737718637
784,0.0
785,0.0
848,0.0
849,0.0
1121,2389.054072735117
1135,764.5115747091157
1161,5.3894181639093235
1163,90.91692839887888
1166,0.0
1168,0.0
2,3, 1, 8, 0,15, 0.00,60.00,Wednesday
7,0.0
545,19.823843266273844
546,3.7253091233383304
547,15.272817065698863
548,63.737597708058594
720,1346.6257960902003
721,1346.6257960902003
784,0.0
785,0.0
848,0.0
849,0.0
1121,1953.9504957793577
1135,634.1143463697231
1161,0.9657783024718135
1163,110.47486761341752
1166,0.0
1168,0.0
2,3, 1, 8, 0,16, 0.00,60.00,Wednesday
7,0.0
545,19.69890540299588
546,3.691357889978201
547,15.279715858314391
548,55.01888467753286
720,1155.1551314727767
721,1155.1551314727767
784,0.0
785,0.0
848,0.0
849,0.0
1121,1677.3909452194146
1135,549.6104232681856
1161,0.02650385287843568
1163,122.73743248889488
1166,0.0
1168,0.0
2,3, 1, 8, 0,17, 0.00,60.00,Wednesday
7,-1.1
545,19.7454618445401
546,2.1239331742821643
547,15.29764462749938
548,65.81978322464632
720,1397.6536829268043
721,1397.6536829268043
784,0.0
785,0.0
848,0.0
849,0.0
1121,1965.5052664560033
1135,649.6506622479482
1161,0.03170693341449377
1163,107.56969959259635
1166,0.0
1168,0.0
2,3, 1, 8, 0,18, 0.00,60.00,Wednesday
7,-1.7
545,19.89987501445229
546,1.0824523664752859
547,15.314716528725576
548,77.45335653641624
720,1610.8085012888369
721,1610.8085012888369
784,0.0
785,0.0
848,0.0
849,0.0
1121,2296.0350402996182
1135,761.2270292068655
1161,0.03731112630474572
1163,91.23266612375139
1166,0.0
1168,0.0
2,3, 1, 8, 0,19, 0.00,60.00,Wednesday
7,-2.2
545,19.670407472441337
546,-0.0010432755879608794
547,15.30745693352047
548,77.89284172990467
720,1539.2197074271899
721,1539.2197074271899
784,0.0
785,0.0
848,0.0
849,0.0
1121,2276.0963472764265
1135,764.6067746781907
1161,0.037522860961253957
1163,90.61542895193557
1166,0.0
1168,0.0
2,3, 1, 8, 0,20, 0.00,60.00,Wednesday
7,-2.2
545,19.663808372750687
546,-0.2632432332309488
547,15.279669193561334
548,85.3158321647352
720,1690.7795750255436
721,1690.7795750255436
784,0.0
785,0.0
848,0.0
849,0.0
1121,2511.347698074658
1135,833.6758726822227
1161,0.041098694047660506
1163,80.19135791161835
1166,0.0
1168,0.0
2,3, 1, 8, 0,21, 0.00,60.00,Wednesday
7,-2.8
545,19.678183142676023
546,-0.5204392735304391
547,15.241485843775452
548,94.69044888860965
720,1844.513449140204
721,1844.513449140204
784,0.0
785,0.0
848,0.0
849,0.0
1121,2762.3550094141096
1135,920.3920410020269
1161,0.0456147088429984
1163,67.02652110067176
1166,0.0
1168,0.0
2,3, 1, 8, 0,22, 0.00,60.00,Wednesday
7,-3.3
545,19.66000264230249
546,-0.5023279675651288
547,15.195407982702305
548,110.12784364684322
720,2121.572763358785
721,2121.572763358785
784,0.0
785,0.0
848,0.0
849,0.0
1121,3189.638688776607
1135,1060.674818701929
1161,4.707067970759988
1163,45.196711371621646
1166,0.0
1168,0.0
2,3, 1, 8, 0,23, 0.00,60.00,Wednesday
7,-3.3
545,18.853200526628342
546,-0.1828998962153051
547,15.124917239886411
548,103.81608573506209
720,1912.7049240448796
721,1912.7049240448796
784,0.0
785,0.0
848,0.0
849,0.0
1121,2973.927910973474
1135,994.5682005640084
1161,8.660964542706624
1163,53.930544904300916
1166,0.0
1168,0.0
2,3, 1, 8, 0,24, 0.00,60.00,Wednesday
7,-4.4
545,18.53811203341671
546,-0.4568967459242526
547,15.026278418173716
548,136.30336009453904
720,2646.2325487706003
721,2646.2325487706003
784,0.0
785,0.0
848,0.0
849,0.0
1121,3916.0485060718406
1135,1275.783701627925
1161,9.346740681388177
1163,8.246543905353354
1166,0.0
1168,0.0
2,4, 1, 9, 0, 1, 0.00,60.00,Thursday
7,-4.4
545,18.57448121431483
546,-0.6099126840635576
547,14.947105761608174
548,139.81067512623906
720,2723.7508540302206
721,2723.7508540302206
784,0.0
785,0.0
848,0.0
849,0.0
1121,4074.8628195258375
1135,1310.9336463368995
1161,0.06735037145651594
1163,3.6639183961466815
1166,0.0
1168,0.0
2,4, 1, 9, 0, 2, 0.00,60.00,Thursday
7,-4.4
545,18.581130385919803
546,-0.88157509016022
547,14.867122735993041
548,142.42153312925635
720,3083.5932729700453
721,3083.5932729700453
784,0.0
785,0.0
848,0.0
849,0.0
1121,4159.655686810682
1135,1336.216738558061
1161,0.06860722787817328
1163,0.0
1166,388.7152988521152
1168,388.7152988521152
2,4, 1, 9, 0, 3, 0.00,60.00,Thursday
7,-5.0
545,18.588840654168166
546,-1.455645438398473
547,14.777047097589005
548,142.42153312925635
720,3379.4235560091674
721,3379.4235560091674
784,0.0
785,0.0
848,0.0
849,0.0
1121,4073.7746127144583
1135,1324.754235521571
1161,3.6698857536488556
1163,0.0
1166,848.0540001859054
1168,848.0540001859054
2,4, 1, 9, 0, 4, 0.00,60.00,Thursday
7,-5.0
545,18.58590752193867
546,-1.4283509675121009
547,14.69175015645648
548,142.42153312925635
720,3761.7646091933802
721,3761.7646091933802
784,0.0
785,0.0
848,0.0
849,0.0
1121,4073.727346343812
1135,1324.81814565678
1161,3.66844105073924
1163,0.0
1166,1334.8954153496857
1168,1334.8954153496857
2,4, 1, 9, 0, 5, 0.00,60.00,Thursday
7,-5.6
545,18.59393918795053
546,-1.7293487628562274
547,14.602200303842544
548,142.42153312925635
720,3767.665115570604
721,3767.665115570604
784,0.0
785,0.0
848,0.0
849,0.0
1121,3968.3223281466157
1135,1306.300980192307
1161,12.436202032184028
1163,0.0
1166,1460.9550328575515
1168,1460.9550328575515
2,4, 1, 9, 0, 6, 0.00,60.00,Thursday
7,-5.6
545,19.338051343486118
546,-1.7286102562102448
547,14.512065473023856
548,142.42153312925635
720,5343.197820586436
721,5343.197820586436
784,0.0
785,0.0
848,0.0
849,0.0
1121,3968.3302416260062
1135,1306.3575529623506
1161,12.42529796587381
1163,0.0
1166,3313.116364986557
1168,3313.116364986557
2,4, 1, 9, 0, 7, 0.00,60.00,Thursday
7,-5.6
545,19.59311112764845
546,-1.9218381948319905
547,14.463970923456914
548,142.42153312925635
720,5029.930677086944
721,5029.930677086944
784,0.0
785,0.0
848,0.0
849,0.0
1121,3990.3633495000176
1135,1338.0726348531985
1161,2.9302206949552336
1163,0.0
1166,3021.078266609946
1168,3021.078266609946
2,4, 1, 9, 0, 8, 0.00,60.00,Thursday
7,-5.6
545,19.670917143192174
546,-1.9357897138245592
547,14.38665843825738
548,142.42153312925635
720,4757.111864767272
721,4757.111864767272
784,0.0
785,0.0
848,0.0
849,0.0
1121,3984.714219088409
1135,1344.628033205091
1161,2.9302206949552336
1163,0.0
1166,2743.822616548675
1168,2743.822616548675
2,4, 1, 9, 0, 9, 0.00,60.00,Thursday
7,-5.0
545,19.705108417474044
546,-0.8669954994320538
547,14.313914938930402
548,142.42153312925635
720,4157.332914950039
721,4157.332914950039
784,0.0
785,0.0
848,0.0
849,0.0
1121,4064.850434903577
1135,1357.2826767380236
1161,0.06860722787817328
1163,0.0
1166,1990.0484519125284
1168,1990.0484519125284
2,4, 1, 9, 0,10, 0.00,60.00,Thursday
7,-4.4
545,19.737691740970767
546,0.6575410740360319
547,14.254693654777308
548,142.42153312925635
720,3169.4156634282663
721,3169.4156634282663
784,0.0
785,0.0
848,0.0
849,0.0
1121,4135.083053711525
1135,1364.9817293928759
1161,0.06860722787817328
1163,0.0
1166,717.8422495766044
1168,717.8422495766044
2,4, 1, 9, 0,11, 0.00,60.00,Thursday
7,-3.3
545,19.845868328359344
546,2.486829531388301
547,14.208012885483122
548,124.0043705999583
720,2274.4257826254943
721,2274.4257826254943
784,0.0
785,0.0
848,0.0
849,0.0
1121,3655.975966118884
1135,1200.3960354573503
1161,0.05973598332038114
1163,25.86096197778147
1166,0.0
1168,0.0
2,4, 1, 9, 0,12, 0.00,60.00,Thursday
7,-2.2
545,20.042557053883275
546,5.135356555072057
547,14.159304248094982
548,73.77314986407367
720,1287.0500506334847
721,1287.0500506334847
784,0.0
785,0.0
848,0.0
849,0.0
1121,2149.732207966318
1135,722.5421214176596
1161,0.03553830579997597
1163,96.40069450676016
1166,0.0
1168,0.0
2,4, 1, 9, 0,13, 0.00,60.00,Thursday
7,-2.2
545,19.85545953662205
546,5.427213161896765
547,14.145401132397081
548,44.81948407574805
720,784.096248483922
721,784.096248483922
784,0.0
785,0.0
848,0.0
849,0.0
1121,1274.4280427892365
1135,440.70430796181427
1161,0.021590626806878874
1163,137.0601976654191
1166,0.0
1168,0.0
2,4, 1, 9, 0,14, 0.00,60.00,Thursday
7,-2.2
545,19.827835917632928
546,5.5373134783971985
547,14.152903570434466
548,26.9065361435955
720,474.33950567081047
721,474.33950567081047
784,0.0
785,0.0
848,0.0
849,0.0
1121,754.9927832650798
1135,263.6221876802454
1161,0.012961527495466585
1163,162.2152712000475
1166,0.0
1168,0.0
2,4, 1, 9, 0,15, 0.00,60.00,Thursday
7,-1.1
545,19.55674177721042
546,4.775107803099124
547,14.17718209421187
548,10.031789662249297
720,159.4337087263084
721,159.4337087263084
784,0.0
785,0.0
848,0.0
849,0.0
1121,286.44324938697514
1135,99.17018830532467
1161,0.004832548397029566
1163,185.91242192262663
1166,0.0
1168,0.0
2,4, 1, 9, 0,16, 0.00,60.00,Thursday
7,-1.1
545,19.46564828765335
546,3.3755568310986757
547,14.231367328066886