Program Version,EnergyPlus, Version 22.2.0-c249759bad, YMD=2023.09.01 20:30
1,5,Environment Title[],Latitude[deg],Longitude[deg],Time Zone[],Elevation[m]
2,8,Day of Simulation[],Month[],Day of Month[],DST Indicator[1=yes 0=no],Hour[],StartMinute[],EndMinute[],DayType
3,5,Cumulative Day of Simulation[],Month[],Day of Month[],DST Indicator[1=yes 0=no],DayType  ! When Daily Report Variables Requested
4,2,Cumulative Days of Simulation[],Month[]  ! When Monthly Report Variables Requested
5,1,Cumulative Days of Simulation[] ! When Run Period Report Variables Requested
6,1,Calendar Year of Simulation[] ! When Annual Report Variables Requested
581,11,LIVING,AFN Zone Infiltration Air Change Rate [ach] !RunPeriod [Value,Min,Month,Day,Hour,Minute,Max,Month,Day,Hour,Minute]
582,11,ATTIC,AFN Zone Infiltration Air Change Rate [ach] !RunPeriod [Value,Min,Month,Day,Hour,Minute,Max,Month,Day,Hour,Minute]
583,11,CRAWLSPACE,AFN Zone Infiltration Air Change Rate [ach] !RunPeriod [Value,Min,Month,Day,Hour,Minute,Max,Month,Day,Hour,Minute]
1038,11,Facility,Facility Heating Setpoint Not Met Time [hr] !RunPeriod [Value,Min,Month,Day,Hour,Minute,Max,Month,Day,Hour,Minute]
1039,11,Facility,Facility Cooling Setpoint Not Met Time [hr] !RunPeriod [Value,Min,Month,Day,Hour,Minute,Max,Month,Day,Hour,Minute]
1115,11,DX_HEATING_COIL,Heating Coil Heating Energy [J] !RunPeriod [Value,Min,Month,Day,Hour,Minute,Max,Month,Day,Hour,Minute]
1128,11,DX_HEATING_COIL,Heating Coil Electricity Energy [J] !RunPeriod [Value,Min,Month,Day,Hour,Minute,Max,Month,Day,Hour,Minute]
1153,11,DX_HEATING_COIL,Heating Coil Defrost Electricity Energy [J] !RunPeriod [Value,Min,Month,Day,Hour,Minute,Max,Month,Day,Hour,Minute]
1154,11,DX_HEATING_COIL,Heating Coil Crankcase Heater Electricity Energy [J] !RunPeriod [Value,Min,Month,Day,Hour,Minute,Max,Month,Day,Hour,Minute]
1155,11,HEATING_RESISTANCE_BACKUP,Heating Coil Heating Energy [J] !RunPeriod [Value,Min,Month,Day,Hour,Minute,Max,Month,Day,Hour,Minute]
1156,11,HEATING_RESISTANCE_BACKUP,Heating Coil Electricity Energy [J] !RunPeriod [Value,Min,Month,Day,Hour,Minute,Max,Month,Day,Hour,Minute]
1292,11,WATER HEATER,Water Heater Heat Loss Energy [J] !RunPeriod [Value,Min,Month,Day,Hour,Minute,Max,Month,Day,Hour,Minute]
1306,11,WATER HEATER,Water Heater Heating Energy [J] !RunPeriod [Value,Min,Month,Day,Hour,Minute,Max,Month,Day,Hour,Minute]
1307,11,WATER HEATER,Water Heater Unmet Demand Heat Transfer Energy [J] !RunPeriod [Value,Min,Month,Day,Hour,Minute,Max,Month,Day,Hour,Minute]
1308,11,WATER HEATER,Water Heater Electricity Energy [J] !RunPeriod [Value,Min,Month,Day,Hour,Minute,Max,Month,Day,Hour,Minute]
13,11,Electricity:Facility [J] !RunPeriod [Value,Min,Month,Day,Hour,Minute,Max,Month,Day,Hour,Minute]
1134,11,Heating:Electricity [J] !RunPeriod [Value,Min,Month,Day,Hour,Minute,Max,Month,Day,Hour,Minute]
1096,11,Cooling:Electricity [J] !RunPeriod [Value,Min,Month,Day,Hour,Minute,Max,Month,Day,Hour,Minute]
562,11,Fans:Electricity [J] !RunPeriod [Value,Min,Month,Day,Hour,Minute,Max,Month,Day,Hour,Minute]
1379,11,Pumps:Electricity [J] !RunPeriod [Value,Min,Month,Day,Hour,Minute,Max,Month,Day,Hour,Minute]
1326,11,WaterSystems:Electricity [J] !RunPeriod [Value,Min,Month,Day,Hour,Minute,Max,Month,Day,Hour,Minute]
61,11,InteriorLights:Electricity [J] !RunPeriod [Value,Min,Month,Day,Hour,Minute,Max,Month,Day,Hour,Minute]
1046,11,ExteriorLights:Electricity [J] !RunPeriod [Value,Min,Month,Day,Hour,Minute,Max,Month,Day,Hour,Minute]
134,11,InteriorEquipment:Electricity [J] !RunPeriod [Value,Min,Month,Day,Hour,Minute,Max,Month,Day,Hour,Minute]
170,11,gas_dryer:InteriorEquipment:Electricity [J] !RunPeriod [Value,Min,Month,Day,Hour,Minute,Max,Month,Day,Hour,Minute]
207,11,clotheswasher:InteriorEquipment:Electricity [J] !RunPeriod [Value,Min,Month,Day,Hour,Minute,Max,Month,Day,Hour,Minute]
244,11,dishwasher:InteriorEquipment:Electricity [J] !RunPeriod [Value,Min,Month,Day,Hour,Minute,Max,Month,Day,Hour,Minute]
281,11,refrigerator:InteriorEquipment:Electricity [J] !RunPeriod [Value,Min,Month,Day,Hour,Minute,Max,Month,Day,Hour,Minute]
318,11,electric_mels:InteriorEquipment:Electricity [J] !RunPeriod [Value,Min,Month,Day,Hour,Minute,Max,Month,Day,Hour,Minute]
355,11,NaturalGas:Facility [J] !RunPeriod [Value,Min,Month,Day,Hour,Minute,Max,Month,Day,Hour,Minute]
403,11,InteriorEquipment:NaturalGas [J] !RunPeriod [Value,Min,Month,Day,Hour,Minute,Max,Month,Day,Hour,Minute]
476,11,gas_dryer:InteriorEquipment:NaturalGas [J] !RunPeriod [Value,Min,Month,Day,Hour,Minute,Max,Month,Day,Hour,Minute]
513,11,gas_mels:InteriorEquipment:NaturalGas [J] !RunPeriod [Value,Min,Month,Day,Hour,Minute,Max,Month,Day,Hour,Minute]
End of Data Dictionary
1,EXTREME_WINTER,  36.12, -86.69,  -6.00, 182.90
5,7
1038,1.0,0.0, 1,27, 1,15,0.25, 1,27, 6,15
1039,0.0,0.0, 1,27, 1,15,0.0, 1,27, 1,15
581,0.33602889059606944,0.16707992788208165, 2, 2,23,22,0.6028076496520521, 1,28,14,60
582,3.8441298966034467,0.0, 2, 1,20,37,13.840118014197289, 1,28,14,52
583,0.033471826996825264,0.00031176156135030654, 2, 2,23,15,0.07296255307801755, 2, 1, 1,60
1115,1145748638.3518074,0.0, 1,27, 1,15,4220996.365451978, 1,30, 6,45
1128,382731199.7292657,0.0, 1,27, 1,15,1267162.4306767199, 1,30, 6,45
1153,3283157.8377997996,0.0, 1,27, 1,15,72369.85456567832, 2, 2, 9,60
1154,57664644.30851555,0.0, 1,27, 6, 5,180000.0, 1,27, 1,15
1155,224573066.26144826,0.0, 1,27, 1,15,3685919.8785831323, 1,31, 6,45
1156,224573066.26144826,0.0, 1,27, 1,15,3685919.8785831323, 1,31, 6,45
1292,-25141642.958280385,-39727.53623117522, 1,31, 5,30,-5181.613630509896, 2, 1,11,32
1306,172392553.3985769,0.0, 1,27, 1,15,4050000.0, 1,27, 8,45
1307,30704272.681938276,0.0, 1,27, 1,15,4315143.433946295, 2, 2, 9,30
1308,172392553.3985769,0.0, 1,27, 1,15,4050000.0, 1,27, 8,45
13,1253871510.7405093,272017.0388981225, 1,27,15,15,8364024.36302424, 1,31, 8,30
61,301924526.02383536,88139.10953165221, 1,27, 1,15,1282023.4113694867, 1,27,20,15
134,70666020.44019976,63564.01800854099, 1,27, 4,15,156554.22484006523, 2, 1,20,15
170,5241013.419656067,348.4159749238097, 1,27, 4,15,17476.39704006126, 2, 1,12,15
207,6509451.13922267,815.2532113832032, 1,27, 3,15,22990.642799023623, 2, 1,10,15
244,12749673.399825225,1521.856143006317, 1,27, 4,15,53038.631142310165, 2, 1,20,15
281,46165882.481495745,59938.60262432081, 1,27, 5,15,81951.81706819107, 1,27,19,15
318,0.0,0.0, 1,27, 1,15,0.0, 1,27, 1,15
355,197687796.27748066,18561.32405820678, 1,27, 4,15,724774.895203776, 2, 1,18,15
403,197687796.27748066,18561.32405820678, 1,27, 4,15,724774.895203776, 2, 1,18,15
476,106772067.24485716,7098.072629279515, 1,27, 4,15,356036.3026282215, 2, 1,12,15
513,0.0,0.0, 1,27, 1,15,0.0, 1,27, 1,15
562,40636342.74086794,0.0, 1,27, 1,15,128394.98137122137, 1,28, 6,45
1046,0.0,0.0, 1,27, 1,15,0.0, 1,27, 1,15
1096,0.0,0.0, 1,27, 1,15,0.0, 1,27, 1,15
1134,668252068.1370288,0.0, 1,27,11,30,5331559.237064378, 1,29, 6,15
1326,172392553.39857686,0.0, 1,27, 1,15,4050000.0, 1,27, 8,45
1379,0.0,0.0, 1,27, 1,15,0.0, 1,27, 1,15
1,EXTREME_SUMMER,  36.12, -86.69,  -6.00, 182.90
5,7
1038,0.0,0.0, 6, 1, 1,15,0.0, 6, 1, 1,15
1039,49.25,0.0, 6, 1, 1,15,0.25, 6, 1,14,30
581,0.06880643005583416,0.0, 6, 1,23, 3,0.7754907396639514, 6, 5,14,46
582,1.8498387465522779,0.018470860363215272, 6, 6, 7,50,14.722630930274148, 6, 5,14,46
583,0.0384563500441214,0.0, 6, 2, 6, 7,0.07185186131439517, 6, 5,14,31
1115,0.0,0.0, 6, 1, 1, 7,0.0, 6, 1, 1, 7
1128,0.0,0.0, 6, 1, 1, 7,0.0, 6, 1, 1, 7
1153,0.0,0.0, 6, 1, 1, 7,0.0, 6, 1, 1, 7
1154,0.0,0.0, 6, 1, 1, 7,0.0, 6, 1, 1, 7
1155,0.0,0.0, 6, 1, 1, 7,0.0, 6, 1, 1, 7
1156,0.0,0.0, 6, 1, 1, 7,0.0, 6, 1, 1, 7
1292,-21771031.360448346,-34325.320160734496, 6, 4,11,60,-2611.147532025671, 6, 5,14,44
1306,135477147.10871762,0.0, 6, 1, 1, 7,2305205.4714858434, 6, 7,13,60
1307,17535352.714956544,0.0, 6, 1, 1, 7,1400026.5975181204, 6, 6,10,18
1308,135477147.10871762,0.0, 6, 1, 1, 7,2305205.4714858434, 6, 7,13,60
13,1083231099.3865898,152071.80019841267, 6, 6, 4,45,6674103.2548814155, 6, 7,20,60
61,301924526.02383536,88139.10953165221, 6, 1, 1,15,1282023.4113694867, 6, 1,20,15
134,70666020.44019976,63564.01800854099, 6, 1, 4,15,156554.22484006523, 6, 6,20,15
170,5241013.419656067,348.4159749238097, 6, 1, 4,15,17476.39704006126, 6, 6,12,15
207,6509451.13922267,815.2532113832032, 6, 1, 3,15,22990.642799023623, 6, 6,10,15
244,12749673.399825225,1521.856143006317, 6, 1, 4,15,53038.631142310165, 6, 6,20,15
281,46165882.481495745,59938.60262432081, 6, 1, 5,15,81951.81706819107, 6, 1,19,15
318,0.0,0.0, 6, 1, 1,15,0.0, 6, 1, 1,15
355,197687796.27748066,18561.32405820678, 6, 1, 4,15,724774.895203776, 6, 6,18,15
403,197687796.27748066,18561.32405820678, 6, 1, 4,15,724774.895203776, 6, 6,18,15
476,106772067.24485716,7098.072629279515, 6, 1, 4,15,356036.3026282215, 6, 6,12,15
513,0.0,0.0, 6, 1, 1,15,0.0, 6, 1, 1,15
562,54116846.95861375,0.0, 6, 6, 4,45,128394.98137122138, 6, 1,19,30
1046,0.0,0.0, 6, 1, 1,15,0.0, 6, 1, 1,15
1096,521046558.85522324,0.0, 6, 6, 4,45,1396222.8821145264, 6, 7,16,60
1134,0.0,0.0, 6, 1, 1,15,0.0, 6, 1, 1,15
1326,135477147.10871762,0.0, 6, 1, 1,15,4050000.0, 6, 3, 9,45
1379,0.0,0.0, 6, 1, 1,15,0.0, 6, 1, 1,15
1,ANNUAL,  36.12, -86.69,  -6.00, 182.90
5,365
1038,6.75,0.0, 1, 1, 1,15,0.25, 1, 2, 6,15
1039,847.25,0.0, 1, 1, 1,15,0.25, 1,10,15,60
581,0.1982203228510205,0.0, 5, 9,23, 3,1.04508099542022, 3,28,18,60
582,2.9965705587638194,0.0, 1, 2,20,52,21.245675116290457, 3,28,18,60
583,0.025452684397727427,0.0, 6, 6,23, 3,0.08091597644795724, 6, 5,14,47
1115,10096404153.624327,0.0, 1, 1,23, 7,4222829.666199347, 1,30, 6,45
1128,3117913365.694168,0.0, 1, 1,23, 7,1264969.4383061426, 1,30, 6,45
1153,109234663.96754797,0.0, 1, 1, 1, 7,111008.9095054815, 3,14, 6,45
1154,1272117912.8383708,0.0, 1, 1, 1,52,180000.0, 1, 2,13,60
1155,564024606.2288376,0.0, 1, 1, 1, 7,3798943.2526258877, 1,31, 6,45
1156,564024606.2288376,0.0, 1, 1, 1, 7,3798943.2526258877, 1,31, 6,45
1292,-1197702191.2326045,-39782.240621652185,12, 3, 5,60,-2281.1719479366293, 4,29,12,30
1306,7756434548.003036,0.0, 1, 1, 1, 7,4050000.0, 1, 1, 9,45
1307,1137552347.014587,0.0, 1, 1, 1, 7,8501781.60376452, 2, 2,10,30
1308,7756434548.003036,0.0, 1, 1, 1, 7,4050000.0, 1, 1, 9,45
13,45888368844.82919,151703.1275401932, 1, 5, 4,15,8718040.887673866, 1,31, 7,15
61,15743207428.383959,88139.10953165221, 1, 1, 1,15,1282023.4113694867, 1, 1,20,15
134,3685071073.4325233,63564.01800854099, 1, 2, 4,15,156554.22484006523, 1, 1,20,15
170,273393721.45532674,348.4159749238097, 1, 2, 4,15,17476.39704006126, 1, 1,12,15
207,339560869.0695816,815.2532113832032, 1, 2, 3,15,22990.642799023623, 1, 1,10,15
244,664895467.8009144,1521.856143006317, 1, 2, 4,15,53038.631142310165, 1, 1,20,15
281,2407221015.106824,59938.60262432081, 1, 1, 5,15,81951.81706819107, 1, 1,19,15
318,0.0,0.0, 1, 1, 1,15,0.0, 1, 1, 1,15
355,10310294493.051695,18561.32405820678, 1, 2, 4,15,724774.895203776, 1, 1,18,15
403,10310294493.051695,18561.32405820678, 1, 2, 4,15,724774.895203776, 1, 1,18,15
476,5569688622.066177,7098.072629279515, 1, 2, 4,15,356036.3026282215, 1, 1,12,15
513,0.0,0.0, 1, 1, 1,15,0.0, 1, 1, 1,15
562,1673306458.684945,0.0, 1, 1,23,15,128394.98137122141, 6, 5,14,45
1046,0.0,0.0, 1, 1, 1,15,0.0, 1, 1, 1,15
1096,11967058787.593344,0.0, 1, 1, 1,15,1401956.758874231, 7,22,16,60
1134,5063290548.728912,0.0, 1, 2,14,45,5419201.409260377, 1,29, 6,15
1326,7756434548.003025,0.0, 1, 1, 1,15,4050000.0000000014, 4, 8,10,45
1379,0.0,0.0, 1, 1, 1,15,0.0, 1, 1, 1,15
End of Data
 Number of Records Written=          99
