Program Version,EnergyPlus, Version 22.2.0-c249759bad, YMD=2023.09.01 20:27
1,5,Environment Title[],Latitude[deg],Longitude[deg],Time Zone[],Elevation[m]
2,8,Day of Simulation[],Month[],Day of Month[],DST Indicator[1=yes 0=no],Hour[],StartMinute[],EndMinute[],DayType
3,5,Cumulative Day of Simulation[],Month[],Day of Month[],DST Indicator[1=yes 0=no],DayType  ! When Daily Report Variables Requested
4,2,Cumulative Days of Simulation[],Month[]  ! When Monthly Report Variables Requested
5,1,Cumulative Days of Simulation[] ! When Run Period Report Variables Requested
6,1,Calendar Year of Simulation[] ! When Annual Report Variables Requested
581,11,LIVING,AFN Zone Infiltration Air Change Rate [ach] !RunPeriod [Value,Min,Month,Day,Hour,Minute,Max,Month,Day,Hour,Minute]
582,11,ATTIC,AFN Zone Infiltration Air Change Rate [ach] !RunPeriod [Value,Min,Month,Day,Hour,Minute,Max,Month,Day,Hour,Minute]
583,11,CRAWLSPACE,AFN Zone Infiltration Air Change Rate [ach] !RunPeriod [Value,Min,Month,Day,Hour,Minute,Max,Month,Day,Hour,Minute]
1038,11,Facility,Facility Heating Setpoint Not Met Time [hr] !RunPeriod [Value,Min,Month,Day,Hour,Minute,Max,Month,Day,Hour,Minute]
1039,11,Facility,Facility Cooling Setpoint Not Met Time [hr] !RunPeriod [Value,Min,Month,Day,Hour,Minute,Max,Month,Day,Hour,Minute]
1115,11,DX_HEATING_COIL,Heating Coil Heating Energy [J] !RunPeriod [Value,Min,Month,Day,Hour,Minute,Max,Month,Day,Hour,Minute]
1128,11,DX_HEATING_COIL,Heating Coil Electricity Energy [J] !RunPeriod [Value,Min,Month,Day,Hour,Minute,Max,Month,Day,Hour,Minute]
1153,11,DX_HEATING_COIL,Heating Coil Defrost Electricity Energy [J] !RunPeriod [Value,Min,Month,Day,Hour,Minute,Max,Month,Day,Hour,Minute]
1154,11,DX_HEATING_COIL,Heating Coil Crankcase Heater Electricity Energy [J] !RunPeriod [Value,Min,Month,Day,Hour,Minute,Max,Month,Day,Hour,Minute]
1155,11,HEATING_RESISTANCE_BACKUP,Heating Coil Heating Energy [J] !RunPeriod [Value,Min,Month,Day,Hour,Minute,Max,Month,Day,Hour,Minute]
1156,11,HEATING_RESISTANCE_BACKUP,Heating Coil Electricity Energy [J] !RunPeriod [Value,Min,Month,Day,Hour,Minute,Max,Month,Day,Hour,Minute]
1292,11,WATER HEATER,Water Heater Heat Loss Energy [J] !RunPeriod [Value,Min,Month,Day,Hour,Minute,Max,Month,Day,Hour,Minute]
1306,11,WATER HEATER,Water Heater Heating Energy [J] !RunPeriod [Value,Min,Month,Day,Hour,Minute,Max,Month,Day,Hour,Minute]
1307,11,WATER HEATER,Water Heater Unmet Demand Heat Transfer Energy [J] !RunPeriod [Value,Min,Month,Day,Hour,Minute,Max,Month,Day,Hour,Minute]
1308,11,WATER HEATER,Water Heater Electricity Energy [J] !RunPeriod [Value,Min,Month,Day,Hour,Minute,Max,Month,Day,Hour,Minute]
13,11,Electricity:Facility [J] !RunPeriod [Value,Min,Month,Day,Hour,Minute,Max,Month,Day,Hour,Minute]
1134,11,Heating:Electricity [J] !RunPeriod [Value,Min,Month,Day,Hour,Minute,Max,Month,Day,Hour,Minute]
1096,11,Cooling:Electricity [J] !RunPeriod [Value,Min,Month,Day,Hour,Minute,Max,Month,Day,Hour,Minute]
562,11,Fans:Electricity [J] !RunPeriod [Value,Min,Month,Day,Hour,Minute,Max,Month,Day,Hour,Minute]
1379,11,Pumps:Electricity [J] !RunPeriod [Value,Min,Month,Day,Hour,Minute,Max,Month,Day,Hour,Minute]
1326,11,WaterSystems:Electricity [J] !RunPeriod [Value,Min,Month,Day,Hour,Minute,Max,Month,Day,Hour,Minute]
61,11,InteriorLights:Electricity [J] !RunPeriod [Value,Min,Month,Day,Hour,Minute,Max,Month,Day,Hour,Minute]
1046,11,ExteriorLights:Electricity [J] !RunPeriod [Value,Min,Month,Day,Hour,Minute,Max,Month,Day,Hour,Minute]
134,11,InteriorEquipment:Electricity [J] !RunPeriod [Value,Min,Month,Day,Hour,Minute,Max,Month,Day,Hour,Minute]
170,11,gas_dryer:InteriorEquipment:Electricity [J] !RunPeriod [Value,Min,Month,Day,Hour,Minute,Max,Month,Day,Hour,Minute]
207,11,clotheswasher:InteriorEquipment:Electricity [J] !RunPeriod [Value,Min,Month,Day,Hour,Minute,Max,Month,Day,Hour,Minute]
244,11,dishwasher:InteriorEquipment:Electricity [J] !RunPeriod [Value,Min,Month,Day,Hour,Minute,Max,Month,Day,Hour,Minute]
281,11,refrigerator:InteriorEquipment:Electricity [J] !RunPeriod [Value,Min,Month,Day,Hour,Minute,Max,Month,Day,Hour,Minute]
318,11,electric_mels:InteriorEquipment:Electricity [J] !RunPeriod [Value,Min,Month,Day,Hour,Minute,Max,Month,Day,Hour,Minute]
355,11,NaturalGas:Facility [J] !RunPeriod [Value,Min,Month,Day,Hour,Minute,Max,Month,Day,Hour,Minute]
403,11,InteriorEquipment:NaturalGas [J] !RunPeriod [Value,Min,Month,Day,Hour,Minute,Max,Month,Day,Hour,Minute]
476,11,gas_dryer:InteriorEquipment:NaturalGas [J] !RunPeriod [Value,Min,Month,Day,Hour,Minute,Max,Month,Day,Hour,Minute]
513,11,gas_mels:InteriorEquipment:NaturalGas [J] !RunPeriod [Value,Min,Month,Day,Hour,Minute,Max,Month,Day,Hour,Minute]
End of Data Dictionary
1,EXTREME_WINTER,  35.87, -78.78,  -5.00, 126.80
5,7
1038,0.5,0.0, 1,20, 1,15,0.25, 1,23, 6,15
1039,0.0,0.0, 1,20, 1,15,0.0, 1,20, 1,15
581,0.2533728014287804,0.16294287547868547, 1,22,23,22,0.49084659727433727, 1,25,22,60
582,2.1244877325964957,0.0, 1,20,20,37,8.379601645973501, 1,25,22,60
583,0.022407288680036837,0.0002830805246366045, 1,20,24,45,0.06906882925680496, 1,26, 6,60
1115,815856203.9540529,0.0, 1,20, 1,15,3805326.020415029, 1,26, 4,60
1128,256216777.76063144,0.0, 1,20, 1,15,1225366.9952784104, 1,26, 7,60
1153,11744450.217074785,0.0, 1,20, 1,15,96794.51546515286, 1,22, 6,45
1154,82786354.81939495,0.0, 1,20, 6, 5,180000.0, 1,20, 1,15
1155,17535708.65107122,0.0, 1,20, 1,15,1328455.1082111013, 1,26, 6,45
1156,17535708.65107122,0.0, 1,20, 1,15,1328455.1082111013, 1,26, 6,45
1292,-24849709.498351745,-39734.9190341942, 1,22, 3,15,-4598.632738043063, 1,25,10,32
1306,168965066.7948396,0.0, 1,20, 1,15,4050000.0, 1,20, 8,45
1307,29819429.701989178,0.0, 1,20, 1,15,3334971.9950349703, 1,22, 9,30
1308,168965066.7948396,0.0, 1,20, 1,15,4050000.0, 1,20, 8,45
13,938966685.5161073,344334.63869159983, 1,20, 1,15,5764670.981707102, 1,24, 8,30
61,301924526.02383536,88139.10953165221, 1,20, 1,15,1282023.4113694867, 1,20,20,15
134,70666020.44019976,63564.01800854099, 1,20, 4,15,156554.22484006523, 1,25,20,15
170,5241013.419656067,348.4159749238097, 1,20, 4,15,17476.39704006126, 1,25,12,15
207,6509451.13922267,815.2532113832032, 1,20, 3,15,22990.642799023623, 1,25,10,15
244,12749673.399825225,1521.856143006317, 1,20, 4,15,53038.631142310165, 1,25,20,15
281,46165882.481495745,59938.60262432081, 1,20, 5,15,81951.81706819107, 1,20,19,15
318,0.0,0.0, 1,20, 1,15,0.0, 1,20, 1,15
355,197687796.27748066,18561.32405820678, 1,20, 4,15,724774.895203776, 1,25,18,15
403,197687796.27748066,18561.32405820678, 1,20, 4,15,724774.895203776, 1,25,18,15
476,106772067.24485716,7098.072629279515, 1,20, 4,15,356036.3026282215, 1,25,12,15
513,0.0,0.0, 1,20, 1,15,0.0, 1,20, 1,15
562,27551380.92463754,0.0, 1,20, 1,15,130574.02215982023, 1,23, 6,15
1046,0.0,0.0, 1,20, 1,15,0.0, 1,20, 1,15
1096,1576399.8844243118,0.0, 1,20, 1,15,153333.60162668326, 1,20,17,30
1134,368283291.44817215,146030.84065835347, 1,20,17,30,3161199.7027332755, 1,26, 6,15
1326,168965066.79483953,0.0, 1,20, 1,15,4050000.0, 1,20, 8,45
1379,0.0,0.0, 1,20, 1,15,0.0, 1,20, 1,15
1,EXTREME_SUMMER,  35.87, -78.78,  -5.00, 126.80
5,7
1038,0.0,0.0, 8,17, 1,15,0.0, 8,17, 1,15
1039,63.0,0.0, 8,17, 1,15,0.25, 8,17,12,30
581,0.0905326739545606,0.0, 8,17, 6,60,0.3804646534787478, 8,22,22,60
582,2.482636281096053,0.08960953510082036, 8,20, 8,50,8.176101354040712, 8,22,22,60
583,0.04306361403521929,0.0, 8,19,23, 3,0.06902755146279746, 8,22,22,60
1115,0.0,0.0, 8,17, 1,15,0.0, 8,17, 1,15
1128,0.0,0.0, 8,17, 1,15,0.0, 8,17, 1,15
1153,0.0,0.0, 8,17, 1,15,0.0, 8,17, 1,15
1154,0.0,0.0, 8,17, 1,15,0.0, 8,17, 1,15
1155,0.0,0.0, 8,17, 1,15,0.0, 8,17, 1,15
1156,0.0,0.0, 8,17, 1,15,0.0, 8,17, 1,15
1292,-21633381.357671924,-34322.01020780963, 8,20, 6,60,-2873.2181446862955, 8,23,15,46
1306,125521009.41017358,0.0, 8,17, 1,15,2025000.0, 8,17,19,15
1307,12561237.254373109,0.0, 8,17, 1,15,690792.625295916, 8,22,10,19
1308,125521009.41017358,0.0, 8,17, 1,15,2025000.0, 8,17,19,15
13,1124349305.8280706,252059.88426420488, 8,17, 4,60,6076469.622708859, 8,23,20,60
61,301924526.02383536,88139.10953165221, 8,17, 1,15,1282023.4113694867, 8,17,20,15
134,70666020.44019976,63564.01800854099, 8,17, 4,15,156554.22484006523, 8,22,20,15
170,5241013.419656067,348.4159749238097, 8,17, 4,15,17476.39704006126, 8,22,12,15
207,6509451.13922267,815.2532113832032, 8,17, 3,15,22990.642799023623, 8,22,10,15
244,12749673.399825225,1521.856143006317, 8,17, 4,15,53038.631142310165, 8,22,20,15
281,46165882.481495745,59938.60262432081, 8,17, 5,15,81951.81706819107, 8,17,19,15
318,0.0,0.0, 8,17, 1,15,0.0, 8,17, 1,15
355,197687796.27748066,18561.32405820678, 8,17, 4,15,724774.895203776, 8,22,18,15
403,197687796.27748066,18561.32405820678, 8,17, 4,15,724774.895203776, 8,22,18,15
476,106772067.24485716,7098.072629279515, 8,17, 4,15,356036.3026282215, 8,22,12,15
513,0.0,0.0, 8,17, 1,15,0.0, 8,17, 1,15
562,58670518.72560934,10319.669927880544, 8,17, 4,60,130574.02215982026, 8,23,15,60
1046,0.0,0.0, 8,17, 1,15,0.0, 8,17, 1,15
1096,567567231.2282532,87047.27340422907, 8,20, 5,60,1440732.973592213, 8,18,15,60
1134,0.0,0.0, 8,17, 1,15,0.0, 8,17, 1,15
1326,125521009.41017357,0.0, 8,17, 1,15,4050000.0, 8,19, 9,45
1379,0.0,0.0, 8,17, 1,15,0.0, 8,17, 1,15
1,ANNUAL,  35.87, -78.78,  -5.00, 126.80
5,365
1038,3.75,0.0, 1, 1, 1,15,0.25, 1,11, 6,15
1039,875.5,0.0, 1, 1, 1,15,0.25, 2,17,13,45
581,0.18609688151640857,0.0, 5,29,23, 3,1.1335496838698718,11,16,11,60
582,2.9363099676257294,0.0, 1, 2, 7,52,26.97767367404461,11,16,11,60
583,0.025090937207907272,0.0, 5,29,23, 3,0.0745395808452702,11,22, 6, 5
1115,7164864753.950497,0.0, 1, 1, 1, 7,4101528.083327602, 1,18, 6,45
1128,2207552631.8736444,0.0, 1, 1, 1, 7,1276696.4039963393, 3,10, 6,45
1153,89089299.54909308,0.0, 1, 1, 1, 7,114742.27559952409, 1,19, 6,60
1154,1273992662.8818932,0.0, 1, 1, 1, 7,180000.0, 1, 1,24,45
1155,171214505.27374965,0.0, 1, 1, 1, 7,2097871.040444651, 1,29, 6,45
1156,171214505.27374965,0.0, 1, 1, 1, 7,2097871.040444651, 1,29, 6,45
1292,-1190374045.073396,-39785.53907592764,12,24, 5,60,-2243.670433388323, 6,24,10,31
1306,7674099686.871148,0.0, 1, 1, 1, 7,4050000.0, 1, 1, 9,45
1307,1107359151.321519,0.0, 1, 1, 1, 7,8228509.632034801, 1,21,10,30
1308,7674099686.871148,0.0, 1, 1, 1, 7,4050000.0, 1, 1, 9,45
13,44946470105.56203,151703.1275401932, 1, 5, 4,15,6617099.999083731, 6,11,20,60
61,15743207428.383959,88139.10953165221, 1, 1, 1,15,1282023.4113694867, 1, 1,20,15
134,3685071073.4325233,63564.01800854099, 1, 2, 4,15,156554.22484006523, 1, 1,20,15
170,273393721.45532674,348.4159749238097, 1, 2, 4,15,17476.39704006126, 1, 1,12,15
207,339560869.0695816,815.2532113832032, 1, 2, 3,15,22990.642799023623, 1, 1,10,15
244,664895467.8009144,1521.856143006317, 1, 2, 4,15,53038.631142310165, 1, 1,20,15
281,2407221015.106824,59938.60262432081, 1, 1, 5,15,81951.81706819107, 1, 1,19,15
318,0.0,0.0, 1, 1, 1,15,0.0, 1, 1, 1,15
355,10310294493.051695,18561.32405820678, 1, 2, 4,15,724774.895203776, 1, 1,18,15
403,10310294493.051695,18561.32405820678, 1, 2, 4,15,724774.895203776, 1, 1,18,15
476,5569688622.066177,7098.072629279515, 1, 2, 4,15,356036.3026282215, 1, 1,12,15
513,0.0,0.0, 1, 1, 1,15,0.0, 1, 1, 1,15
562,1643225491.489278,0.0, 1, 1, 1,15,130574.02215982026, 8,23,15,60
1046,0.0,0.0, 1, 1, 1,15,0.0, 1, 1, 1,15
1096,12459017325.80457,0.0, 1, 1, 1,15,1443618.4705440225, 8,18,15,60
1134,3741849099.578374,0.0, 1, 1, 1,15,4034336.4121507597, 1,29, 6,15
1326,7674099686.871139,0.0, 1, 1, 1,15,4050000.0000000014, 9,13, 9,45
1379,0.0,0.0, 1, 1, 1,15,0.0, 1, 1, 1,15
End of Data
 Number of Records Written=          99
