Program Version,EnergyPlus, Version 22.2.0-c249759bad, YMD=2023.09.01 20:55
1,5,Environment Title[],Latitude[deg],Longitude[deg],Time Zone[],Elevation[m]
2,8,Day of Simulation[],Month[],Day of Month[],DST Indicator[1=yes 0=no],Hour[],StartMinute[],EndMinute[],DayType
3,5,Cumulative Day of Simulation[],Month[],Day of Month[],DST Indicator[1=yes 0=no],DayType  ! When Daily Report Variables Requested
4,2,Cumulative Days of Simulation[],Month[]  ! When Monthly Report Variables Requested
5,1,Cumulative Days of Simulation[] ! When Run Period Report Variables Requested
6,1,Calendar Year of Simulation[] ! When Annual Report Variables Requested
581,11,LIVING,AFN Zone Infiltration Air Change Rate [ach] !RunPeriod [Value,Min,Month,Day,Hour,Minute,Max,Month,Day,Hour,Minute]
582,11,ATTIC,AFN Zone Infiltration Air Change Rate [ach] !RunPeriod [Value,Min,Month,Day,Hour,Minute,Max,Month,Day,Hour,Minute]
583,11,CRAWLSPACE,AFN Zone Infiltration Air Change Rate [ach] !RunPeriod [Value,Min,Month,Day,Hour,Minute,Max,Month,Day,Hour,Minute]
1038,11,Facility,Facility Heating Setpoint Not Met Time [hr] !RunPeriod [Value,Min,Month,Day,Hour,Minute,Max,Month,Day,Hour,Minute]
1039,11,Facility,Facility Cooling Setpoint Not Met Time [hr] !RunPeriod [Value,Min,Month,Day,Hour,Minute,Max,Month,Day,Hour,Minute]
1115,11,DX_HEATING_COIL,Heating Coil Heating Energy [J] !RunPeriod [Value,Min,Month,Day,Hour,Minute,Max,Month,Day,Hour,Minute]
1128,11,DX_HEATING_COIL,Heating Coil Electricity Energy [J] !RunPeriod [Value,Min,Month,Day,Hour,Minute,Max,Month,Day,Hour,Minute]
1153,11,DX_HEATING_COIL,Heating Coil Defrost Electricity Energy [J] !RunPeriod [Value,Min,Month,Day,Hour,Minute,Max,Month,Day,Hour,Minute]
1154,11,DX_HEATING_COIL,Heating Coil Crankcase Heater Electricity Energy [J] !RunPeriod [Value,Min,Month,Day,Hour,Minute,Max,Month,Day,Hour,Minute]
1155,11,HEATING_RESISTANCE_BACKUP,Heating Coil Heating Energy [J] !RunPeriod [Value,Min,Month,Day,Hour,Minute,Max,Month,Day,Hour,Minute]
1156,11,HEATING_RESISTANCE_BACKUP,Heating Coil Electricity Energy [J] !RunPeriod [Value,Min,Month,Day,Hour,Minute,Max,Month,Day,Hour,Minute]
1292,11,WATER HEATER,Water Heater Heat Loss Energy [J] !RunPeriod [Value,Min,Month,Day,Hour,Minute,Max,Month,Day,Hour,Minute]
1306,11,WATER HEATER,Water Heater Heating Energy [J] !RunPeriod [Value,Min,Month,Day,Hour,Minute,Max,Month,Day,Hour,Minute]
1307,11,WATER HEATER,Water Heater Unmet Demand Heat Transfer Energy [J] !RunPeriod [Value,Min,Month,Day,Hour,Minute,Max,Month,Day,Hour,Minute]
1308,11,WATER HEATER,Water Heater Electricity Energy [J] !RunPeriod [Value,Min,Month,Day,Hour,Minute,Max,Month,Day,Hour,Minute]
13,11,Electricity:Facility [J] !RunPeriod [Value,Min,Month,Day,Hour,Minute,Max,Month,Day,Hour,Minute]
1134,11,Heating:Electricity [J] !RunPeriod [Value,Min,Month,Day,Hour,Minute,Max,Month,Day,Hour,Minute]
1096,11,Cooling:Electricity [J] !RunPeriod [Value,Min,Month,Day,Hour,Minute,Max,Month,Day,Hour,Minute]
562,11,Fans:Electricity [J] !RunPeriod [Value,Min,Month,Day,Hour,Minute,Max,Month,Day,Hour,Minute]
1379,11,Pumps:Electricity [J] !RunPeriod [Value,Min,Month,Day,Hour,Minute,Max,Month,Day,Hour,Minute]
1326,11,WaterSystems:Electricity [J] !RunPeriod [Value,Min,Month,Day,Hour,Minute,Max,Month,Day,Hour,Minute]
61,11,InteriorLights:Electricity [J] !RunPeriod [Value,Min,Month,Day,Hour,Minute,Max,Month,Day,Hour,Minute]
1046,11,ExteriorLights:Electricity [J] !RunPeriod [Value,Min,Month,Day,Hour,Minute,Max,Month,Day,Hour,Minute]
134,11,InteriorEquipment:Electricity [J] !RunPeriod [Value,Min,Month,Day,Hour,Minute,Max,Month,Day,Hour,Minute]
170,11,gas_dryer:InteriorEquipment:Electricity [J] !RunPeriod [Value,Min,Month,Day,Hour,Minute,Max,Month,Day,Hour,Minute]
207,11,clotheswasher:InteriorEquipment:Electricity [J] !RunPeriod [Value,Min,Month,Day,Hour,Minute,Max,Month,Day,Hour,Minute]
244,11,dishwasher:InteriorEquipment:Electricity [J] !RunPeriod [Value,Min,Month,Day,Hour,Minute,Max,Month,Day,Hour,Minute]
281,11,refrigerator:InteriorEquipment:Electricity [J] !RunPeriod [Value,Min,Month,Day,Hour,Minute,Max,Month,Day,Hour,Minute]
318,11,electric_mels:InteriorEquipment:Electricity [J] !RunPeriod [Value,Min,Month,Day,Hour,Minute,Max,Month,Day,Hour,Minute]
355,11,NaturalGas:Facility [J] !RunPeriod [Value,Min,Month,Day,Hour,Minute,Max,Month,Day,Hour,Minute]
403,11,InteriorEquipment:NaturalGas [J] !RunPeriod [Value,Min,Month,Day,Hour,Minute,Max,Month,Day,Hour,Minute]
476,11,gas_dryer:InteriorEquipment:NaturalGas [J] !RunPeriod [Value,Min,Month,Day,Hour,Minute,Max,Month,Day,Hour,Minute]
513,11,gas_mels:InteriorEquipment:NaturalGas [J] !RunPeriod [Value,Min,Month,Day,Hour,Minute,Max,Month,Day,Hour,Minute]
End of Data Dictionary
1,EXTREME_WINTER,  47.45,-122.30,  -8.00, 137.00
5,7
1038,0.75,0.0, 1, 1, 1,15,0.25, 1, 3, 6,15
1039,0.0,0.0, 1, 1, 1,15,0.0, 1, 1, 1,15
581,0.285479567532516,0.15562209209330377, 1, 6, 5,60,0.6485140807165356, 1, 7, 8,60
582,2.764369051177935,0.0, 1, 1,19,15,12.160538378412879, 1, 7,14,60
583,0.023417298628382415,0.0002828930069687388, 1, 4,23,37,0.06040422799253085, 1, 1, 6,15
1115,950251957.4870483,0.0, 1, 1,12,18,3506038.386131641, 1, 1, 8,60
1128,283725803.00001997,0.0, 1, 1,12,18,1102221.7029099832, 1, 1, 8,60
1153,10967439.01032399,0.0, 1, 1,12,18,106977.16211629393, 1, 5, 6,60
1154,73976631.47847968,0.0, 1, 1, 6, 5,180000.0, 1, 1,14,30
1155,31814066.801647175,0.0, 1, 1, 1,15,1295015.3998778886, 1, 3, 6,45
1156,31814066.801647175,0.0, 1, 1, 1,15,1295015.3998778886, 1, 3, 6,45
1292,-24964441.773027908,-39768.03551445528, 1, 2, 4,30,-6552.61923265199, 1, 1,16,48
1306,341449008.90556455,0.0, 1, 1, 1,15,4050000.0, 1, 1, 9,60
1307,149715754.110171,0.0, 1, 1, 1,15,15706379.00031084, 1, 5, 9,60
1308,341449008.90556455,0.0, 1, 1, 1,15,4050000.0, 1, 1, 9,60
13,1143994859.6941333,452017.0388981225, 1, 1,15,15,6206685.940733209, 1, 3, 8,60
61,301924526.02383536,88139.10953165221, 1, 1, 1,15,1282023.4113694867, 1, 1,20,15
134,70666020.44019976,63564.01800854099, 1, 1, 4,15,156554.22484006523, 1, 6,20,15
170,5241013.419656067,348.4159749238097, 1, 1, 4,15,17476.39704006126, 1, 6,12,15
207,6509451.13922267,815.2532113832032, 1, 1, 3,15,22990.642799023623, 1, 6,10,15
244,12749673.399825225,1521.856143006317, 1, 1, 4,15,53038.631142310165, 1, 6,20,15
281,46165882.481495745,59938.60262432081, 1, 1, 5,15,81951.81706819107, 1, 1,19,15
318,0.0,0.0, 1, 1, 1,15,0.0, 1, 1, 1,15
355,197687796.27748066,18561.32405820678, 1, 1, 4,15,724774.895203776, 1, 6,18,15
403,197687796.27748066,18561.32405820678, 1, 1, 4,15,724774.895203776, 1, 6,18,15
476,106772067.24485716,7098.072629279515, 1, 1, 4,15,356036.3026282215, 1, 6,12,15
513,0.0,0.0, 1, 1, 1,15,0.0, 1, 1, 1,15
562,29471364.034062237,0.0, 1, 1,12,30,113264.49205015597, 1, 1, 6,15
1046,0.0,0.0, 1, 1, 1,15,0.0, 1, 1, 1,15
1096,0.0,0.0, 1, 1, 1,15,0.0, 1, 1, 1,15
1134,400483940.2904706,180000.0, 1, 1,12,30,3118541.935417082, 1, 3, 6,15
1326,341449008.9055646,0.0, 1, 1, 1,15,4050000.0, 1, 1, 9,60
1379,0.0,0.0, 1, 1, 1,15,0.0, 1, 1, 1,15
1,EXTREME_SUMMER,  47.45,-122.30,  -8.00, 137.00
5,7
1038,0.0,0.0, 8, 5, 1,15,0.0, 8, 5, 1,15
1039,24.5,0.0, 8, 5, 1,15,0.25, 8, 6,17,15
581,0.20494272170920275,0.06346911271075326, 8,10, 1,60,0.4845112759491631, 8, 5,18,52
582,3.4184703783325006,0.0, 8, 5, 1,52,10.148781206973887, 8, 8,14,48
583,0.02610261798489541,0.00012280990650252418, 8, 5, 2,15,0.05752307964647258, 8,11,17,20
1115,0.0,0.0, 8, 5, 1,15,0.0, 8, 5, 1,15
1128,0.0,0.0, 8, 5, 1,15,0.0, 8, 5, 1,15
1153,0.0,0.0, 8, 5, 1,15,0.0, 8, 5, 1,15
1154,0.0,0.0, 8, 5, 1,15,0.0, 8, 5, 1,15
1155,0.0,0.0, 8, 5, 1,15,0.0, 8, 5, 1,15
1156,0.0,0.0, 8, 5, 1,15,0.0, 8, 5, 1,15
1292,-21933757.938028965,-34357.34577982995, 8, 8, 6,60,-2108.938575486775, 8, 9, 9,59
1306,291619873.4485796,0.0, 8, 5, 1,15,4050000.0, 8, 5,21,45
1307,108202939.57987796,0.0, 8, 5, 1,15,10574175.276330242, 8, 8, 9,45
1308,291619873.4485796,0.0, 8, 5, 1,15,4050000.0, 8, 5,21,45
13,996963193.9161847,151703.1275401932, 8, 5, 4,15,6564967.372466083, 8, 9,20,15
61,301924526.02383536,88139.10953165221, 8, 5, 1,15,1282023.4113694867, 8, 5,20,15
134,70666020.44019976,63564.01800854099, 8, 5, 4,15,156554.22484006523, 8,10,20,15
170,5241013.419656067,348.4159749238097, 8, 5, 4,15,17476.39704006126, 8,10,12,15
207,6509451.13922267,815.2532113832032, 8, 5, 3,15,22990.642799023623, 8,10,10,15
244,12749673.399825225,1521.856143006317, 8, 5, 4,15,53038.631142310165, 8,10,20,15
281,46165882.481495745,59938.60262432081, 8, 5, 5,15,81951.81706819107, 8, 5,19,15
318,0.0,0.0, 8, 5, 1,15,0.0, 8, 5, 1,15
355,197687796.27748066,18561.32405820678, 8, 5, 4,15,724774.895203776, 8,10,18,15
403,197687796.27748066,18561.32405820678, 8, 5, 4,15,724774.895203776, 8,10,18,15
476,106772067.24485716,7098.072629279515, 8, 5, 4,15,356036.3026282215, 8,10,12,15
513,0.0,0.0, 8, 5, 1,15,0.0, 8, 5, 1,15
562,35153996.10369414,0.0, 8, 5, 1,45,113264.49205015597, 8, 6,15,15
1046,0.0,0.0, 8, 5, 1,15,0.0, 8, 5, 1,15
1096,297598777.8998764,0.0, 8, 5, 1,45,1074226.7384585557, 8,11,17,60
1134,0.0,0.0, 8, 5, 1,15,0.0, 8, 5, 1,15
1326,291619873.4485795,0.0, 8, 5, 1,15,4050000.0, 8, 5, 8,30
1379,0.0,0.0, 8, 5, 1,15,0.0, 8, 5, 1,15
1,ANNUAL,  47.45,-122.30,  -8.00, 137.00
5,365
1038,31.75,0.0, 1, 1, 1,15,0.25, 1, 3, 6,15
1039,297.0,0.0, 1, 1, 1,15,0.25, 4, 3,13,45
581,0.2557210783470119,0.0, 7, 1,23, 5,1.1959501352463557,12,14, 1,60
582,3.6206625544216795,0.0, 1, 1,19,15,27.0845540891865,12,14, 1,60
583,0.016835690473619647,0.0, 7, 1,23, 5,0.07221082732230509, 2, 6,21,60
1115,14716892411.851177,0.0, 1, 1,12,18,4181528.9985631644, 2, 7, 6,45
1128,4158850993.6625752,0.0, 1, 1,12,18,1120766.342227129, 1,11, 8,45
1153,167386098.096753,0.0, 1, 1,12,18,120067.01128681078,11,18, 6,45
1154,2060744519.73866,0.0, 1, 1, 6, 5,180000.0, 1, 1,14,45
1155,96980191.62804326,0.0, 1, 1, 1,15,2239952.8654012843,12,31, 6,45
1156,96980191.62804326,0.0, 1, 1, 1,15,2239952.8654012843,12,31, 6,45
1292,-1219688045.003996,-39818.07472960409, 4, 2, 3,45,-1822.6784795024787, 4,13, 9,46
1306,16651365114.865524,0.0, 1, 1, 1,15,4050000.0, 1, 1, 9,60
1307,6829927212.83496,0.0, 1, 1, 1,15,16036040.789592244, 2,10, 9,60
1308,16651365114.865524,0.0, 1, 1, 1,15,4050000.0, 1, 1, 9,60
13,48925060353.963715,151703.1275401932, 3, 1, 4,15,6683562.503712658, 2, 6,21,60
61,15743207428.383959,88139.10953165221, 1, 1, 1,15,1282023.4113694867, 1, 1,20,15
134,3685071073.4325233,63564.01800854099, 1, 2, 4,15,156554.22484006523, 1, 1,20,15
170,273393721.45532674,348.4159749238097, 1, 2, 4,15,17476.39704006126, 1, 1,12,15
207,339560869.0695816,815.2532113832032, 1, 2, 3,15,22990.642799023623, 1, 1,10,15
244,664895467.8009144,1521.856143006317, 1, 2, 4,15,53038.631142310165, 1, 1,20,15
281,2407221015.106824,59938.60262432081, 1, 1, 5,15,81951.81706819107, 1, 1,19,15
318,0.0,0.0, 1, 1, 1,15,0.0, 1, 1, 1,15
355,10310294493.051695,18561.32405820678, 1, 2, 4,15,724774.895203776, 1, 1,18,15
403,10310294493.051695,18561.32405820678, 1, 2, 4,15,724774.895203776, 1, 1,18,15
476,5569688622.066177,7098.072629279515, 1, 2, 4,15,356036.3026282215, 1, 1,12,15
513,0.0,0.0, 1, 1, 1,15,0.0, 1, 1, 1,15
562,1077107516.311552,0.0, 1, 1,12,30,113264.49205015598, 8, 3,14,60
1046,0.0,0.0, 1, 1, 1,15,0.0, 1, 1, 1,15
1096,5284347417.841416,0.0, 1, 1, 1,15,1173346.220744454, 8, 1,17,60
1134,6483961803.126004,0.0, 1,13,23,15,3850453.6742505934,12,31, 6,15
1326,16651365114.865555,0.0, 1, 1, 1,15,4050000.0000000014, 4,13, 9,60
1379,0.0,0.0, 1, 1, 1,15,0.0, 1, 1, 1,15
End of Data
 Number of Records Written=          99
