Program Version,EnergyPlus, Version 22.2.0-c249759bad, YMD=2023.09.01 20:47
1,5,Environment Title[],Latitude[deg],Longitude[deg],Time Zone[],Elevation[m]
2,8,Day of Simulation[],Month[],Day of Month[],DST Indicator[1=yes 0=no],Hour[],StartMinute[],EndMinute[],DayType
3,5,Cumulative Day of Simulation[],Month[],Day of Month[],DST Indicator[1=yes 0=no],DayType  ! When Daily Report Variables Requested
4,2,Cumulative Days of Simulation[],Month[]  ! When Monthly Report Variables Requested
5,1,Cumulative Days of Simulation[] ! When Run Period Report Variables Requested
6,1,Calendar Year of Simulation[] ! When Annual Report Variables Requested
581,11,LIVING,AFN Zone Infiltration Air Change Rate [ach] !RunPeriod [Value,Min,Month,Day,Hour,Minute,Max,Month,Day,Hour,Minute]
582,11,ATTIC,AFN Zone Infiltration Air Change Rate [ach] !RunPeriod [Value,Min,Month,Day,Hour,Minute,Max,Month,Day,Hour,Minute]
583,11,CRAWLSPACE,AFN Zone Infiltration Air Change Rate [ach] !RunPeriod [Value,Min,Month,Day,Hour,Minute,Max,Month,Day,Hour,Minute]
1038,11,Facility,Facility Heating Setpoint Not Met Time [hr] !RunPeriod [Value,Min,Month,Day,Hour,Minute,Max,Month,Day,Hour,Minute]
1039,11,Facility,Facility Cooling Setpoint Not Met Time [hr] !RunPeriod [Value,Min,Month,Day,Hour,Minute,Max,Month,Day,Hour,Minute]
1115,11,DX_HEATING_COIL,Heating Coil Heating Energy [J] !RunPeriod [Value,Min,Month,Day,Hour,Minute,Max,Month,Day,Hour,Minute]
1128,11,DX_HEATING_COIL,Heating Coil Electricity Energy [J] !RunPeriod [Value,Min,Month,Day,Hour,Minute,Max,Month,Day,Hour,Minute]
1153,11,DX_HEATING_COIL,Heating Coil Defrost Electricity Energy [J] !RunPeriod [Value,Min,Month,Day,Hour,Minute,Max,Month,Day,Hour,Minute]
1154,11,DX_HEATING_COIL,Heating Coil Crankcase Heater Electricity Energy [J] !RunPeriod [Value,Min,Month,Day,Hour,Minute,Max,Month,Day,Hour,Minute]
1155,11,HEATING_RESISTANCE_BACKUP,Heating Coil Heating Energy [J] !RunPeriod [Value,Min,Month,Day,Hour,Minute,Max,Month,Day,Hour,Minute]
1156,11,HEATING_RESISTANCE_BACKUP,Heating Coil Electricity Energy [J] !RunPeriod [Value,Min,Month,Day,Hour,Minute,Max,Month,Day,Hour,Minute]
1292,11,WATER HEATER,Water Heater Heat Loss Energy [J] !RunPeriod [Value,Min,Month,Day,Hour,Minute,Max,Month,Day,Hour,Minute]
1306,11,WATER HEATER,Water Heater Heating Energy [J] !RunPeriod [Value,Min,Month,Day,Hour,Minute,Max,Month,Day,Hour,Minute]
1307,11,WATER HEATER,Water Heater Unmet Demand Heat Transfer Energy [J] !RunPeriod [Value,Min,Month,Day,Hour,Minute,Max,Month,Day,Hour,Minute]
1308,11,WATER HEATER,Water Heater Electricity Energy [J] !RunPeriod [Value,Min,Month,Day,Hour,Minute,Max,Month,Day,Hour,Minute]
13,11,Electricity:Facility [J] !RunPeriod [Value,Min,Month,Day,Hour,Minute,Max,Month,Day,Hour,Minute]
1134,11,Heating:Electricity [J] !RunPeriod [Value,Min,Month,Day,Hour,Minute,Max,Month,Day,Hour,Minute]
1096,11,Cooling:Electricity [J] !RunPeriod [Value,Min,Month,Day,Hour,Minute,Max,Month,Day,Hour,Minute]
562,11,Fans:Electricity [J] !RunPeriod [Value,Min,Month,Day,Hour,Minute,Max,Month,Day,Hour,Minute]
1379,11,Pumps:Electricity [J] !RunPeriod [Value,Min,Month,Day,Hour,Minute,Max,Month,Day,Hour,Minute]
1326,11,WaterSystems:Electricity [J] !RunPeriod [Value,Min,Month,Day,Hour,Minute,Max,Month,Day,Hour,Minute]
61,11,InteriorLights:Electricity [J] !RunPeriod [Value,Min,Month,Day,Hour,Minute,Max,Month,Day,Hour,Minute]
1046,11,ExteriorLights:Electricity [J] !RunPeriod [Value,Min,Month,Day,Hour,Minute,Max,Month,Day,Hour,Minute]
134,11,InteriorEquipment:Electricity [J] !RunPeriod [Value,Min,Month,Day,Hour,Minute,Max,Month,Day,Hour,Minute]
170,11,gas_dryer:InteriorEquipment:Electricity [J] !RunPeriod [Value,Min,Month,Day,Hour,Minute,Max,Month,Day,Hour,Minute]
207,11,clotheswasher:InteriorEquipment:Electricity [J] !RunPeriod [Value,Min,Month,Day,Hour,Minute,Max,Month,Day,Hour,Minute]
244,11,dishwasher:InteriorEquipment:Electricity [J] !RunPeriod [Value,Min,Month,Day,Hour,Minute,Max,Month,Day,Hour,Minute]
281,11,refrigerator:InteriorEquipment:Electricity [J] !RunPeriod [Value,Min,Month,Day,Hour,Minute,Max,Month,Day,Hour,Minute]
318,11,electric_mels:InteriorEquipment:Electricity [J] !RunPeriod [Value,Min,Month,Day,Hour,Minute,Max,Month,Day,Hour,Minute]
355,11,NaturalGas:Facility [J] !RunPeriod [Value,Min,Month,Day,Hour,Minute,Max,Month,Day,Hour,Minute]
403,11,InteriorEquipment:NaturalGas [J] !RunPeriod [Value,Min,Month,Day,Hour,Minute,Max,Month,Day,Hour,Minute]
476,11,gas_dryer:InteriorEquipment:NaturalGas [J] !RunPeriod [Value,Min,Month,Day,Hour,Minute,Max,Month,Day,Hour,Minute]
513,11,gas_mels:InteriorEquipment:NaturalGas [J] !RunPeriod [Value,Min,Month,Day,Hour,Minute,Max,Month,Day,Hour,Minute]
End of Data Dictionary
1,EXTREME_WINTER,  35.27,-113.93,  -7.00,1033.00
5,7
1038,0.0,0.0,12,22, 1,15,0.0,12,22, 1,15
1039,0.0,0.0,12,22, 1,15,0.0,12,22, 1,15
581,0.2920124326785464,0.1328614317261893,12,22,10,17,0.9411225406321514,12,25, 5,15
582,3.936002117071464,0.0,12,22, 2,55,20.187595619580527,12,25, 8,60
583,0.016336550211508493,0.00025563361084172677,12,22,10, 3,0.10205897541787641,12,26, 6, 5
1115,530364682.01019627,0.0,12,22, 1,15,4037998.929688842,12,27, 6,45
1128,164746010.12428173,0.0,12,22, 1,15,1324777.0413981264,12,27, 6,45
1153,7545514.48244359,0.0,12,22, 1,15,72451.32230175332,12,25, 9,45
1154,97053198.26906441,0.0,12,22,10,32,180000.0,12,22, 1,15
1155,2315254.817049355,0.0,12,22, 1,15,883785.7987973207,12,27, 6, 5
1156,2315254.817049355,0.0,12,22, 1,15,883785.7987973207,12,27, 6, 5
1292,-24585495.889497362,-39772.260083489164,12,25, 4,60,-5094.88229157152,12,26,13,32
1306,318849460.31086004,0.0,12,22, 1,15,4050000.0,12,22,16,60
1307,129802523.7377578,0.0,12,22, 1,15,12351613.27538612,12,25, 9,45
1308,318849460.31086004,0.0,12,22, 1,15,4050000.0,12,22,16,60
13,982207898.7232026,158004.1357532369,12,25, 2,15,6437913.834227969,12,25,21,15
61,301924526.02383536,88139.10953165221,12,22, 1,15,1282023.4113694867,12,22,20,15
134,70666020.44019976,63564.01800854099,12,22, 4,15,156554.22484006523,12,27,20,15
170,5241013.419656067,348.4159749238097,12,22, 4,15,17476.39704006126,12,27,12,15
207,6509451.13922267,815.2532113832032,12,22, 3,15,22990.642799023623,12,27,10,15
244,12749673.399825225,1521.856143006317,12,22, 4,15,53038.631142310165,12,27,20,15
281,46165882.481495745,59938.60262432081,12,22, 5,15,81951.81706819107,12,22,19,15
318,0.0,0.0,12,22, 1,15,0.0,12,22, 1,15
355,197687796.27748066,18561.32405820678,12,22, 4,15,724774.895203776,12,27,18,15
403,197687796.27748066,18561.32405820678,12,22, 4,15,724774.895203776,12,27,18,15
476,106772067.24485716,7098.072629279515,12,22, 4,15,356036.3026282215,12,27,12,15
513,0.0,0.0,12,22, 1,15,0.0,12,22, 1,15
562,17483511.156885155,0.0,12,22, 1,15,143179.65366365542,12,27, 6,45
1046,0.0,0.0,12,22, 1,15,0.0,12,22, 1,15
1096,1624403.0985842557,0.0,12,22, 1,15,204153.1911766672,12,28,17,30
1134,271659977.69283915,0.0,12,22,10,45,2237180.0277801356,12,27, 6,15
1326,318849460.31086004,0.0,12,22, 1,15,4050000.0,12,22, 9,60
1379,0.0,0.0,12,22, 1,15,0.0,12,22, 1,15
1,EXTREME_SUMMER,  35.27,-113.93,  -7.00,1033.00
5,7
1038,0.0,0.0, 6,29, 1,15,0.0, 6,29, 1,15
1039,16.5,0.0, 6,29, 1,15,0.25, 6,29,15,30
581,0.21972091166508906,0.0, 7, 2, 7,33,1.2243836598134024, 6,30,18,52
582,5.764443971620726,0.043257695966918704, 7, 4, 3,20,23.169575726020778, 6,29,16,46
583,0.055211285800605116,0.000056975430265268166, 7, 5, 6, 7,0.11651050507581033, 6,30,18,52
1115,0.0,0.0, 6,29, 1, 3,0.0, 6,29, 1, 3
1128,0.0,0.0, 6,29, 1, 3,0.0, 6,29, 1, 3
1153,0.0,0.0, 6,29, 1, 3,0.0, 6,29, 1, 3
1154,0.0,0.0, 6,29, 1, 3,0.0, 6,29, 1, 3
1155,0.0,0.0, 6,29, 1, 3,0.0, 6,29, 1, 3
1156,0.0,0.0, 6,29, 1, 3,0.0, 6,29, 1, 3
1292,-22053937.118774742,-34353.825518358426, 7, 1,22,45,-2564.711807670409, 6,29,16,45
1306,227149776.64501703,0.0, 6,29, 1, 3,2835935.60772338, 7, 1,16,45
1307,60516486.09412061,0.0, 6,29, 1, 3,2480794.8814283716, 7, 5, 9,40
1308,227149776.64501703,0.0, 6,29, 1, 3,2835935.60772338, 7, 1,16,45
13,1431039799.2330039,280703.4650531748, 7, 4, 4,60,7456555.349370242, 7, 3,19,45
61,301924526.02383536,88139.10953165221, 6,29, 1,15,1282023.4113694867, 6,29,20,15
134,70666020.44019976,63564.01800854099, 6,29, 4,15,156554.22484006523, 7, 4,20,15
170,5241013.419656067,348.4159749238097, 6,29, 4,15,17476.39704006126, 7, 4,12,15
207,6509451.13922267,815.2532113832032, 6,29, 3,15,22990.642799023623, 7, 4,10,15
244,12749673.399825225,1521.856143006317, 6,29, 4,15,53038.631142310165, 7, 4,20,15
281,46165882.481495745,59938.60262432081, 6,29, 5,15,81951.81706819107, 6,29,19,15
318,0.0,0.0, 6,29, 1,15,0.0, 6,29, 1,15
355,197687796.27748066,18561.32405820678, 6,29, 4,15,724774.895203776, 7, 4,18,15
403,197687796.27748066,18561.32405820678, 6,29, 4,15,724774.895203776, 7, 4,18,15
476,106772067.24485716,7098.072629279515, 6,29, 4,15,356036.3026282215, 7, 4,12,15
513,0.0,0.0, 6,29, 1,15,0.0, 6,29, 1,15
562,69740311.59115915,13341.353877808453, 7, 4, 5,60,180557.42413995948, 6,29,15,15
1046,0.0,0.0, 6,29, 1,15,0.0, 6,29, 1,15
1096,761559164.5327924,104179.77252360407, 7, 4, 5,60,2378901.357496787, 6,29,15,60
1134,0.0,0.0, 6,29, 1,15,0.0, 6,29, 1,15
1326,227149776.64501706,0.0, 6,29, 1,15,4050000.0000000014, 6,29,16,60
1379,0.0,0.0, 6,29, 1,15,0.0, 6,29, 1,15
1,ANNUAL,  35.27,-113.93,  -7.00,1033.00
5,365
1038,0.0,0.0, 1, 1, 1,15,0.0, 1, 1, 1,15
1039,272.5,0.0, 1, 1, 1,15,0.25, 1,10,14,15
581,0.2788468245111242,0.0, 4, 1, 8,32,1.226787759943481, 6,30,18,60
582,4.966377171835301,0.0, 1, 1,10,50,28.742094070790362, 6,28,19,46
583,0.030935330723239722,0.0, 6,28, 6, 7,0.12132304995781011, 6,30,18,60
1115,4872065433.131937,0.0, 1, 1, 1, 7,4378326.393297088, 2, 3, 6,45
1128,1539408914.8548183,0.0, 1, 1, 1, 7,1488677.4389639453,12,20, 7,60
1153,37733213.802402385,0.0, 1, 1, 1, 7,100823.64974670351, 4, 9, 6,45
1154,1571211146.6179395,0.0, 1, 1, 6, 5,180000.0, 1, 1,21,60
1155,22934149.350561965,0.0, 1, 1, 1, 7,883785.7987973207, 1, 4, 6, 5
1156,22934149.350561965,0.0, 1, 1, 1, 7,883785.7987973207, 1, 4, 6, 5
1292,-1185232867.9566,-39808.53452568649,12,26, 5,15,-1716.5480346360641,10,20, 9,60
1306,14303576030.288603,0.0, 1, 1, 1, 7,4050000.0, 1, 2,16,60
1307,4998542826.204522,0.0, 1, 1, 1, 7,14544780.101025846, 1, 6, 9,60
1308,14303576030.288603,0.0, 1, 1, 1, 7,4050000.0, 1, 2,16,60
13,54360527403.49023,151703.1275401932, 2, 7, 4,45,7531263.808586296, 7, 4,20,15
61,15743207428.383959,88139.10953165221, 1, 1, 1,15,1282023.4113694867, 1, 1,20,15
134,3685071073.4325233,63564.01800854099, 1, 2, 4,15,156554.22484006523, 1, 1,20,15
170,273393721.45532674,348.4159749238097, 1, 2, 4,15,17476.39704006126, 1, 1,12,15
207,339560869.0695816,815.2532113832032, 1, 2, 3,15,22990.642799023623, 1, 1,10,15
244,664895467.8009144,1521.856143006317, 1, 2, 4,15,53038.631142310165, 1, 1,20,15
281,2407221015.106824,59938.60262432081, 1, 1, 5,15,81951.81706819107, 1, 1,19,15
318,0.0,0.0, 1, 1, 1,15,0.0, 1, 1, 1,15
355,10310294493.051695,18561.32405820678, 1, 2, 4,15,724774.895203776, 1, 1,18,15
403,10310294493.051695,18561.32405820678, 1, 2, 4,15,724774.895203776, 1, 1,18,15
476,5569688622.066177,7098.072629279515, 1, 2, 4,15,356036.3026282215, 1, 1,12,15
513,0.0,0.0, 1, 1, 1,15,0.0, 1, 1, 1,15
562,1852675804.6275532,0.0, 1, 1, 1,15,180557.4241399595, 6, 7,18,60
1046,0.0,0.0, 1, 1, 1,15,0.0, 1, 1, 1,15
1096,15604709642.129581,0.0, 1, 1, 1,15,2361882.130909048, 6,29,15,60
1134,3171287424.6257176,0.0, 1, 1,14,15,2338923.36255071,12,21, 6,15
1326,14303576030.288607,0.0, 1, 1, 1,15,4050000.0000000014, 3,10,10,30
1379,0.0,0.0, 1, 1, 1,15,0.0, 1, 1, 1,15
End of Data
 Number of Records Written=          99
