Program Version,EnergyPlus, Version 22.2.0-c249759bad, YMD=2023.09.01 14:30
1,5,Environment Title[],Latitude[deg],Longitude[deg],Time Zone[],Elevation[m]
2,8,Day of Simulation[],Month[],Day of Month[],DST Indicator[1=yes 0=no],Hour[],StartMinute[],EndMinute[],DayType
3,5,Cumulative Day of Simulation[],Month[],Day of Month[],DST Indicator[1=yes 0=no],DayType  ! When Daily Report Variables Requested
4,2,Cumulative Days of Simulation[],Month[]  ! When Monthly Report Variables Requested
5,1,Cumulative Days of Simulation[] ! When Run Period Report Variables Requested
6,1,Calendar Year of Simulation[] ! When Annual Report Variables Requested
7,1,Environment,Site Outdoor Air Drybulb Temperature [C] !Hourly
619,1,DX_HEATING_COIL,Heating Coil Heating Rate [W] !Hourly
633,1,DX_HEATING_COIL,Heating Coil Electricity Rate [W] !Hourly
659,1,DX_HEATING_COIL,Heating Coil Defrost Electricity Rate [W] !Hourly
661,1,DX_HEATING_COIL,Heating Coil Crankcase Heater Electricity Rate [W] !Hourly
690,1,FAN,Fan Electricity Rate [W] !Hourly
716,1,HEAT PUMP WATER HEATER FAN,Fan Electricity Rate [W] !Hourly
718,1,LIVING,Zone Mean Air Temperature [C] !Hourly
719,1,ATTIC,Zone Mean Air Temperature [C] !Hourly
720,1,CRAWLSPACE,Zone Mean Air Temperature [C] !Hourly
843,1,LIVING,Zone Predicted Sensible Load to Heating Setpoint Heat Transfer Rate [W] !Hourly
844,1,LIVING,Zone System Predicted Sensible Load to Heating Setpoint Heat Transfer Rate [W] !Hourly
907,1,ATTIC,Zone Predicted Sensible Load to Heating Setpoint Heat Transfer Rate [W] !Hourly
908,1,ATTIC,Zone System Predicted Sensible Load to Heating Setpoint Heat Transfer Rate [W] !Hourly
971,1,CRAWLSPACE,Zone Predicted Sensible Load to Heating Setpoint Heat Transfer Rate [W] !Hourly
972,1,CRAWLSPACE,Zone System Predicted Sensible Load to Heating Setpoint Heat Transfer Rate [W] !Hourly
1195,1,HEATING_RESISTANCE_BACKUP,Heating Coil Heating Rate [W] !Hourly
1197,1,HEATING_RESISTANCE_BACKUP,Heating Coil Electricity Rate [W] !Hourly
End of Data Dictionary
1,EXTREME_WINTER,  25.79, -80.32,  -5.00,   8.80
2,1, 1,15, 0, 1, 0.00,60.00,Monday
7,21.1
718,24.442989574273902
719,20.93015453609404
720,21.85848055189777
619,0.0
633,0.0
659,0.0
661,0.0
690,7.18608820753447
716,0.0
843,-3341.922267229852
844,-3341.922267229852
907,0.0
908,0.0
971,0.0
972,0.0
1195,0.0
1197,0.0
2,1, 1,15, 0, 2, 0.00,60.00,Monday
7,21.1
718,24.441153071872677
719,20.940830942768248
720,21.845049161027248
619,0.0
633,0.0
659,0.0
661,0.0
690,6.5226841019646935
716,0.0
843,-2799.375431287621
844,-2799.375431287621
907,0.0
908,0.0
971,0.0
972,0.0
1195,0.0
1197,0.0
2,1, 1,15, 0, 3, 0.00,60.00,Monday
7,21.1
718,24.40780000475433
719,20.975377128694298
720,21.832526537091233
619,0.0
633,0.0
659,0.0
661,0.0
690,5.973861463837881
716,0.0
843,-2297.6258275741297
844,-2297.6258275741297
907,0.0
908,0.0
971,0.0
972,0.0
1195,0.0
1197,0.0
2,1, 1,15, 0, 4, 0.00,60.00,Monday
7,21.0
718,24.436590793279027
719,20.929514559031702
720,21.818348789997973
619,0.0
633,0.0
659,0.0
661,0.0
690,3.9464312111281266
716,0.0
843,-2879.904777462303
844,-2879.904777462303
907,0.0
908,0.0
971,0.0
972,0.0
1195,0.0
1197,0.0
2,1, 1,15, 0, 5, 0.00,60.00,Monday
7,21.1
718,24.446717835170798
719,20.95825954181849
720,21.80913370081723
619,0.0
633,0.0
659,0.0
661,0.0
690,5.061493292583846
716,0.0
843,-3414.1413902432096
844,-3414.1413902432096
907,0.0
908,0.0
971,0.0
972,0.0
1195,0.0
1197,0.0
2,1, 1,15, 0, 6, 0.00,60.00,Monday
7,18.0
718,23.14477813461033
719,19.066237713852715
720,21.821268306661196
619,0.0
633,0.0
659,0.0
661,0.0
690,30.320401405715153
716,0.0
843,-2841.018132088655
844,-2841.018132088655
907,0.0
908,0.0
971,0.0
972,0.0
1195,0.0
1197,0.0
2,1, 1,15, 0, 7, 0.00,60.00,Monday
7,17.8
718,23.19058026863742
719,18.708306270977566
720,21.77832722704539
619,0.0
633,0.0
659,0.0
661,0.0
690,0.0
716,72.07086670482352
843,-3517.5028742219547
844,-3517.5028742219547
907,0.0
908,0.0
971,0.0
972,0.0
1195,0.0
1197,0.0
2,1, 1,15, 0, 8, 0.00,60.00,Monday
7,17.8
718,23.309403706746206
719,18.428073859834594
720,21.776465701207258
619,0.0
633,0.0
659,0.0
661,0.0
690,23.00130282944157
716,0.0
843,-3312.946222889963
844,-3312.946222889963
907,0.0
908,0.0
971,0.0
972,0.0
1195,0.0
1197,0.0
2,1, 1,15, 0, 9, 0.00,60.00,Monday
7,18.3
718,23.332092539538497
719,18.99267228100927
720,21.763040238875114
619,0.0
633,0.0
659,0.0
661,0.0
690,21.873508934785423
716,0.0
843,-3290.119722664738
844,-3290.119722664738
907,0.0
908,0.0
971,0.0
972,0.0
1195,0.0
1197,0.0
2,1, 1,15, 0,10, 0.00,60.00,Monday
7,18.3
718,23.33086052112705
719,19.753613021459785
720,21.75199738662787
619,0.0
633,0.0
659,0.0
661,0.0
690,22.545688340396687
716,0.0
843,-3344.1037877317212
844,-3344.1037877317212
907,0.0
908,0.0
971,0.0
972,0.0
1195,0.0
1197,0.0
2,1, 1,15, 0,11, 0.00,60.00,Monday
7,18.3
718,23.333898716286186
719,19.96974932263094
720,21.741722712643238
619,0.0
633,0.0
659,0.0
661,0.0
690,18.037530424286853
716,0.0
843,-3223.4819977345687
844,-3223.4819977345687
907,0.0
908,0.0
971,0.0
972,0.0
1195,0.0
1197,0.0
2,1, 1,15, 0,12, 0.00,60.00,Monday
7,18.9
718,23.307162614549842
719,19.91151997095801
720,21.7354037880543
619,0.0
633,0.0
659,0.0
661,0.0
690,15.682133093418809
716,0.0
843,-3009.515847942166
844,-3009.515847942166
907,0.0
908,0.0
971,0.0
972,0.0
1195,0.0
1197,0.0
2,1, 1,15, 0,13, 0.00,60.00,Monday
7,19.4
718,23.380846058479186
719,20.893031521052407
720,21.73366980538524
619,0.0
633,0.0
659,0.0
661,0.0
690,18.978461455089025
716,0.0
843,-3114.4942064319075
844,-3114.4942064319075
907,0.0
908,0.0
971,0.0
972,0.0
1195,0.0
1197,0.0
2,1, 1,15, 0,14, 0.00,60.00,Monday
7,19.4
718,23.34505480593789
719,21.88870416583109
720,21.72370116051466
619,0.0
633,0.0
659,0.0
661,0.0
690,3.191477966265286
716,53.18293019541123
843,-3353.0570663621093
844,-3353.0570663621093
907,0.0
908,0.0
971,0.0
972,0.0
1195,0.0
1197,0.0
2,1, 1,15, 0,15, 0.00,60.00,Monday
7,21.1
718,23.45035505298969
719,23.786418571561917
720,21.750120426568625
619,0.0
633,0.0
659,0.0
661,0.0
690,29.473336494334518
716,0.0
843,-3623.351147829384
844,-3623.351147829384
907,0.0
908,0.0
971,0.0
972,0.0
1195,0.0
1197,0.0
2,1, 1,15, 0,16, 0.00,60.00,Monday
7,21.1
718,23.338223853754197
719,24.786945336888902
720,21.777588070379778
619,0.0
633,0.0
659,0.0
661,0.0
690,46.07680316984755
716,0.0
843,-4003.7629636729434
844,-4003.7629636729434
907,0.0
908,0.0
971,0.0
972,0.0
1195,0.0
1197,0.0
2,1, 1,15, 0,17, 0.00,60.00,Monday
7,21.1
718,23.331999449489523
719,25.796781416997867
720,21.81962074654096
619,0.0
633,0.0
659,0.0
661,0.0
690,75.94392850140987
716,0.0
843,-5279.938371555674
844,-5279.938371555674
907,0.0
908,0.0
971,0.0
972,0.0
1195,0.0
1197,0.0
2,1, 1,15, 0,18, 0.00,60.00,Monday
7,22.2
718,23.346355567144776
719,25.68654706177482
720,21.867984572047686
619,0.0
633,0.0
659,0.0
661,0.0
690,81.94908140050131
716,0.0
843,-5891.771543945239
844,-5891.771543945239
907,0.0
908,0.0
971,0.0
972,0.0
1195,0.0
1197,0.0
2,1, 1,15, 0,19, 0.00,60.00,Monday
7,22.0
718,23.336175255309374
719,24.43621019436736
720,21.882033783377562
619,0.0
633,0.0
659,0.0
661,0.0
690,45.32915553535904
716,56.38928765663997
843,-5544.309367585198
844,-5544.309367585198
907,0.0
908,0.0
971,0.0
972,0.0
1195,0.0
1197,0.0
2,1, 1,15, 0,20, 0.00,60.00,Monday
7,21.7
718,23.32814710913433
719,22.483585986043156
720,21.94282607646029
619,0.0
633,0.0
659,0.0
661,0.0
690,62.78819171929871
716,0.0
843,-5250.680617296095
844,-5250.680617296095
907,0.0
908,0.0
971,0.0
972,0.0
1195,0.0
1197,0.0
2,1, 1,15, 0,21, 0.00,60.00,Monday
7,21.1
718,23.326669427940303
719,21.653567223296236
720,21.969030162274414
619,0.0
633,0.0
659,0.0
661,0.0
690,56.98217753300801
716,0.0
843,-5119.3731725539765
844,-5119.3731725539765
907,0.0
908,0.0
971,0.0
972,0.0
1195,0.0
1197,0.0
2,1, 1,15, 0,22, 0.00,60.00,Monday
7,20.6
718,23.32563757615887
719,21.183724589247156
720,21.951995669633728
619,0.0
633,0.0
659,0.0
661,0.0
690,20.074465022724986
716,66.3438903992276
843,-4806.047326913267
844,-4806.047326913267
907,0.0
908,0.0
971,0.0
972,0.0
1195,0.0
1197,0.0
2,1, 1,15, 0,23, 0.00,60.00,Monday
7,20.6
718,24.420871715818667
719,20.897759144851673
720,21.956298169532698
619,0.0
633,0.0
659,0.0
661,0.0
690,6.774151045946341
716,0.0
843,-5318.472574106734
844,-5318.472574106734
907,0.0
908,0.0
971,0.0
972,0.0
1195,0.0
1197,0.0
2,1, 1,15, 0,24, 0.00,60.00,Monday
7,21.1
718,24.455692039185934
719,20.916934244426805
720,21.975268588838482
619,0.0
633,0.0
659,0.0
661,0.0
690,8.736396401731293
716,0.0
843,-3238.007087167085
844,-3238.007087167085
907,0.0
908,0.0
971,0.0
972,0.0
1195,0.0
1197,0.0
2,2, 1,16, 0, 1, 0.00,60.00,Tuesday
7,21.1
718,24.42594383888138
719,20.923079783420125
720,21.97252925298951
619,0.0
633,0.0
659,0.0
661,0.0
690,7.140019226681754
716,0.0
843,-3336.7081841054733
844,-3336.7081841054733
907,0.0
908,0.0
971,0.0
972,0.0
1195,0.0
1197,0.0
2,2, 1,16, 0, 2, 0.00,60.00,Tuesday
7,21.1
718,24.440750770629748
719,20.930220524860157
720,21.966983868568363
619,0.0
633,0.0
659,0.0
661,0.0
690,5.735548062969927
716,0.0
843,-2894.776688963195
844,-2894.776688963195
907,0.0
908,0.0
971,0.0
972,0.0
1195,0.0
1197,0.0
2,2, 1,16, 0, 3, 0.00,60.00,Tuesday
7,21.0
718,24.423320782966954
719,20.882207768244452
720,21.96194383237084
619,0.0
633,0.0
659,0.0
661,0.0
690,5.295704281073617
716,0.0
843,-2271.196445463142
844,-2271.196445463142
907,0.0
908,0.0
971,0.0
972,0.0
1195,0.0
1197,0.0
2,2, 1,16, 0, 4, 0.00,60.00,Tuesday
7,19.4
718,24.235006694355327
719,19.907087003249853
720,21.949810360672895
619,0.0
633,0.0
659,0.0
661,0.0
690,1.9595268279634515
716,0.0
843,-2979.1681779103237
844,-2979.1681779103237
907,0.0
908,0.0
971,0.0
972,0.0
1195,0.0
1197,0.0
2,2, 1,16, 0, 5, 0.00,60.00,Tuesday
7,19.4
718,24.357335977152953
719,19.712898142841887
720,21.942412224007295
619,0.0
633,0.0
659,0.0
661,0.0
690,0.0
716,0.0
843,-2634.485132120295
844,-2634.485132120295
907,0.0
908,0.0
971,0.0
972,0.0
1195,0.0
1197,0.0
2,2, 1,16, 0, 6, 0.00,60.00,Tuesday
7,18.0
718,23.436460578177964
719,18.627349771029845
720,21.961451853104396
619,0.0
633,0.0
659,0.0
661,0.0
690,23.599287488553358
716,0.0
843,-2743.900421215403
844,-2743.900421215403
907,0.0
908,0.0
971,0.0
972,0.0
1195,0.0
1197,0.0
2,2, 1,16, 0, 7, 0.00,60.00,Tuesday
7,17.2
718,23.38371465551897
719,18.04791982398216
720,21.928389780063807
619,0.0
633,0.0
659,0.0
661,0.0
690,20.98144967851751
716,0.0
843,-3275.781055691128
844,-3275.781055691128
907,0.0
908,0.0
971,0.0
972,0.0
1195,0.0
1197,0.0
2,2, 1,16, 0, 8, 0.00,60.00,Tuesday
7,17.2
718,22.914853396653346
719,17.645177709207218
720,21.9059146289588
619,0.0
633,0.0
659,0.0
661,0.0
690,0.0
716,85.44000000000004
843,-3065.172335884914
844,-3065.172335884914
907,0.0
908,0.0
971,0.0
972,0.0
1195,0.0
1197,0.0
2,2, 1,16, 0, 9, 0.00,60.00,Tuesday
7,17.2
718,23.05147018870332
719,17.494302471241415
720,21.887546872457524
619,0.0
633,0.0
659,0.0
661,0.0
690,0.0
716,28.997597531374705
843,-3012.6988345036425
844,-3012.6988345036425
907,0.0
908,0.0
971,0.0
972,0.0
1195,0.0
1197,0.0
2,2, 1,16, 0,10, 0.00,60.00,Tuesday
7,17.2
718,23.320688747944924
719,18.364923813506046
720,21.86932124167874
619,0.0
633,0.0
659,0.0
661,0.0
690,7.3506202084277525
716,0.0
843,-2640.917805093506
844,-2640.917805093506
907,0.0
908,0.0
971,0.0
972,0.0
1195,0.0
1197,0.0
2,2, 1,16, 0,11, 0.00,60.00,Tuesday
7,17.2
718,23.325490497749872
719,19.269270731725086
720,21.85323794402457
619,0.0
633,0.0
659,0.0
661,0.0
690,11.248463526651767
716,0.0
843,-2582.6969955768927
844,-2582.6969955768927
907,0.0
908,0.0
971,0.0
972,0.0
1195,0.0
1197,0.0
2,2, 1,16, 0,12, 0.00,60.00,Tuesday
7,17.8
718,23.17467596770216
719,19.36677724540567
720,21.839539439778854
619,0.0
633,0.0
659,0.0
661,0.0
690,11.952921291287225
716,0.0
843,-2795.230210603706
844,-2795.230210603706
907,0.0
908,0.0
971,0.0
972,0.0
1195,0.0
1197,0.0
2,2, 1,16, 0,13, 0.00,60.00,Tuesday
7,17.0
718,23.499880104072282
719,20.824486779447202
720,21.8330637684614
619,0.0
633,0.0
659,0.0
661,0.0
690,14.247971394863338
716,0.0
843,-3159.4862357209076
844,-3159.4862357209076
907,0.0
908,0.0
971,0.0
972,0.0
1195,0.0
1197,0.0
2,2, 1,16, 0,14, 0.00,60.00,Tuesday
7,18.3
718,23.311249911936088
719,21.8528192608579
720,21.845202864310178
619,0.0
633,0.0
659,0.0
661,0.0
690,26.80751099516039
716,0.0
843,-3370.3744178814522
844,-3370.3744178814522
907,0.0
908,0.0
971,0.0
972,0.0
1195,0.0
1197,0.0
2,2, 1,16, 0,15, 0.00,60.00,Tuesday
7,17.8
718,23.329843344203024
719,21.73252729760747
720,21.849122486078414
619,0.0
633,0.0
659,0.0
661,0.0
690,27.49375157624133
716,0.0
843,-3806.073225923652
844,-3806.073225923652
907,0.0
908,0.0
971,0.0
972,0.0
1195,0.0
1197,0.0
2,2, 1,16, 0,16, 0.00,60.00,Tuesday
7,18.0
718,23.343476042480233
719,21.892318791116402
720,21.869791010396423
619,0.0
633,0.0
659,0.0
661,0.0
690,35.88678880016485
716,0.0
843,-4046.023437676322
844,-4046.023437676322
907,0.0
908,0.0
971,0.0
972,0.0
1195,0.0
1197,0.0
2,2, 1,16, 0,17, 0.00,60.00,Tuesday
7,17.8
718,23.234117571892455
719,20.859844623678704
720,21.89216193414507
619,0.0
633,0.0
659,0.0
661,0.0
690,44.412324640080044
716,0.0
843,-4532.4712233389855
844,-4532.4712233389855
907,0.0
908,0.0
971,0.0
972,0.0
1195,0.0
1197,0.0
2,2, 1,16, 0,18, 0.00,60.00,Tuesday
7,17.2
718,23.36293804170796
719,19.867761554932986
720,21.909550132010885
619,0.0
633,0.0
659,0.0
661,0.0
690,47.11169960885207
716,0.0
843,-4865.749936828541
844,-4865.749936828541
907,0.0
908,0.0
971,0.0
972,0.0
1195,0.0
1197,0.0
2,2, 1,16, 0,19, 0.00,60.00,Tuesday
7,16.7
718,23.35053489559864
719,18.217446273134815
720,21.92297360872631
619,0.0
633,0.0
659,0.0
661,0.0
690,17.13984117585187
716,57.005725590038594
843,-4686.368970011055
844,-4686.368970011055
907,0.0
908,0.0
971,0.0
972,0.0
1195,0.0
1197,0.0
2,2, 1,16, 0,20, 0.00,60.00,Tuesday
7,16.7
718,23.342879136962285
719,17.252994317248007
720,21.935983168559957
619,0.0
633,0.0
659,0.0
661,0.0
690,6.101745668513635
716,75.80269185585108
843,-4434.464492866764
844,-4434.464492866764
907,0.0
908,0.0
971,0.0
972,0.0
1195,0.0
1197,0.0
2,2, 1,16, 0,21, 0.00,60.00,Tuesday
7,16.0
718,23.292741899610764
719,16.564268581195535
720,21.9471808770714
619,0.0
633,0.0
659,0.0
661,0.0
690,32.794700160857445
716,0.0
843,-4273.749442719565
844,-4273.749442719565
907,0.0
908,0.0
971,0.0
972,0.0
1195,0.0
1197,0.0
2,2, 1,16, 0,22, 0.00,60.00,Tuesday
7,12.8
718,23.059282259484252
719,14.648951415881822
720,21.924206029179615
619,0.0
633,0.0
659,0.0
661,0.0
690,17.267355550379452
716,0.0
843,-3795.3915475787635
844,-3795.3915475787635
907,0.0
908,0.0
971,0.0
972,0.0
1195,0.0
1197,0.0
2,2, 1,16, 0,23, 0.00,60.00,Tuesday
7,12.8
718,23.194881779778342
719,13.913433866564421
720,21.909217027641134
619,0.0
633,0.0
659,0.0
661,0.0
690,0.0
716,0.0
843,-4064.707410811756
844,-4064.707410811756
907,0.0
908,0.0
971,0.0
972,0.0
1195,0.0
1197,0.0
2,2, 1,16, 0,24, 0.00,60.00,Tuesday
7,11.7
718,22.9853254895851
719,12.593906238109717
720,21.881671810880224
619,0.0
633,0.0
659,0.0
661,0.0
690,0.0
716,0.0
843,-3258.246280110123
844,-3258.246280110123
907,0.0
908,0.0
971,0.0
972,0.0
1195,0.0
1197,0.0
2,3, 1,17, 0, 1, 0.00,60.00,Wednesday
7,11.7
718,22.488139247874077
719,12.05322080682642
720,21.840168702286583
619,0.0
633,0.0
659,0.0
661,0.0
690,0.0
716,0.0
843,-2676.1041546756333
844,-2676.1041546756333
907,0.0
908,0.0
971,0.0
972,0.0
1195,0.0
1197,0.0
2,3, 1,17, 0, 2, 0.00,60.00,Wednesday
7,11.7
718,22.089341579350176
719,11.68567669643594
720,21.78886093178944
619,0.0
633,0.0
659,0.0
661,0.0
690,0.0
716,0.0
843,-2453.2209119980926
844,-2453.2209119980926
907,0.0
908,0.0
971,0.0
972,0.0
1195,0.0
1197,0.0
2,3, 1,17, 0, 3, 0.00,60.00,Wednesday
7,12.2
718,21.605824024681425
719,11.766918468211635
720,21.727675695018288
619,0.0
633,0.0
659,0.0
661,0.0
690,0.0
716,0.0
843,-2072.79513447287
844,-2072.79513447287
907,0.0
908,0.0
971,0.0
972,0.0
1195,0.0
1197,0.0
2,3, 1,17, 0, 4, 0.00,60.00,Wednesday
7,11.7
718,21.003080512315403
719,11.677646765813904
720,21.660960648268418
619,0.0
633,0.0
659,0.0
661,0.0
690,0.0
716,0.0
843,-1712.0441220341727
844,-1712.0441220341727
907,0.0
908,0.0
971,0.0
972,0.0
1195,0.0
1197,0.0
2,3, 1,17, 0, 5, 0.00,60.00,Wednesday
7,11.7
718,20.707033068731377
719,11.685963608961298
720,21.59286158456034
619,0.0
633,0.0
659,0.0
661,0.0
690,0.0
716,0.0
843,-1585.704498217623
844,-1585.704498217623
907,0.0
908,0.0
971,0.0
972,0.0
1195,0.0
1197,0.0
2,3, 1,17, 0, 6, 0.00,60.00,Wednesday
7,11.1
718,19.834396552786718
719,11.216179392347646
720,21.523109191000458
619,0.0
633,0.0
659,0.0
661,0.0
690,0.0
716,64.11195324504736
843,-643.5684463810667
844,-643.5684463810667
907,0.0
908,0.0
971,0.0
972,0.0
1195,0.0
1197,0.0
2,3, 1,17, 0, 7, 0.00,60.00,Wednesday
7,11.1
718,19.414671306095567
719,10.949173591003666
720,21.451455954934005
619,0.0
633,0.0
659,0.0
661,0.0
690,0.0
716,71.97752114102084
843,-450.73358039458435
844,-450.73358039458435
907,0.0
908,0.0
971,0.0
972,0.0
1195,0.0
1197,0.0
2,3, 1,17, 0, 8, 0.00,60.00,Wednesday
7,11.1
718,20.141728935392823
719,10.852505685779354
720,21.37998536848588
619,0.0
633,0.0
659,0.0
661,0.0
690,0.0
716,0.0
843,-355.86492298447774
844,-355.86492298447774
907,0.0
908,0.0
971,0.0
972,0.0
1195,0.0
1197,0.0
2,3, 1,17, 0, 9, 0.00,60.00,Wednesday
7,13.3
718,21.15392664428144
719,13.130945675233848
720,21.314333488821337
619,0.0
633,0.0
659,0.0
661,0.0
690,0.0
716,0.0
843,-880.2977295091114
844,-880.2977295091114
907,0.0
908,0.0
971,0.0
972,0.0
1195,0.0
1197,0.0
2,3, 1,17, 0,10, 0.00,60.00,Wednesday
7,15.0
718,22.450888821618836
719,16.44459216449942
720,21.263874054458515
619,0.0
633,0.0
659,0.0
661,0.0
690,0.0
716,0.0
843,-1820.6996800811394
844,-1820.6996800811394
907,0.0
908,0.0
971,0.0
972,0.0
1195,0.0
1197,0.0
2,3, 1,17, 0,11, 0.00,60.00,Wednesday
7,15.0
718,23.313178201168736
719,19.710879159263097
720,21.24384888967944
619,0.0
633,0.0
659,0.0
661,0.0
690,4.746727409887681
716,0.0
843,-3003.383766648143
844,-3003.383766648143
907,0.0
908,0.0
971,0.0
972,0.0
1195,0.0
1197,0.0
2,3, 1,17, 0,12, 0.00,60.00,Wednesday
7,17.2
718,23.469042256899595
719,23.70675574487026
720,21.27229149197568
619,0.0
633,0.0
659,0.0
661,0.0
690,23.418078318526074
716,0.0
843,-3593.129425054327
844,-3593.129425054327
907,0.0
908,0.0
971,0.0
972,0.0
1195,0.0
1197,0.0
2,3, 1,17, 0,13, 0.00,60.00,Wednesday
7,17.8
718,23.324573250621054
719,25.75312025972812
720,21.330840378525455
619,0.0
633,0.0
659,0.0
661,0.0
690,42.173307795251354
716,0.0
843,-4664.755161660933
844,-4664.755161660933
907,0.0
908,0.0
971,0.0
972,0.0
1195,0.0
1197,0.0
2,3, 1,17, 0,14, 0.00,60.00,Wednesday
7,17.8
718,23.322342149969362
719,26.67124838431107
720,21.403587006629092
619,0.0
633,0.0
659,0.0
661,0.0
690,58.63066099513372
716,0.0
843,-5724.4654884176325
844,-5724.4654884176325
907,0.0
908,0.0
971,0.0
972,0.0
1195,0.0
1197,0.0
2,3, 1,17, 0,15, 0.00,60.00,Wednesday
7,18.3
718,23.377801855510956
719,27.733553356564578
720,21.489769972868906
619,0.0
633,0.0
659,0.0
661,0.0
690,75.17472833583516
716,0.0
843,-6545.412237241133
844,-6545.412237241133
907,0.0
908,0.0
971,0.0
972,0.0
1195,0.0
1197,0.0
2,3, 1,17, 0,16, 0.00,60.00,Wednesday
7,18.9
718,23.368980249416918
719,27.83297520770321
720,21.591020721376584
619,0.0
633,0.0
659,0.0
661,0.0
690,55.81525823724885
716,85.44000000000004
843,-7258.579207101502
844,-7258.579207101502
907,0.0
908,0.0
971,0.0
972,0.0
1195,0.0
1197,0.0
2,3, 1,17, 0,17, 0.00,60.00,Wednesday
7,18.9
718,23.334274415214484
719,25.73380518623284
720,21.740102010596242
619,0.0
633,0.0
659,0.0
661,0.0
690,89.42190888689476
716,26.87150230889461
843,-7684.598178432363
844,-7684.598178432363
907,0.0
908,0.0
971,0.0
972,0.0
1195,0.0
1197,0.0
2,3, 1,17, 0,18, 0.00,60.00,Wednesday
7,16.1
718,23.266842230227684
719,21.370156883251394
720,21.856891727132194
619,0.0
633,0.0
659,0.0
661,0.0
690,79.61801284067208
716,0.0
843,-7077.987968875856
844,-7077.987968875856
907,0.0
908,0.0
971,0.0
972,0.0
1195,0.0
1197,0.0
2,3, 1,17, 0,19, 0.00,60.00,Wednesday
7,14.4
718,23.380352656931144
719,18.380456077426125
720,21.96395875962956
619,0.0
633,0.0
659,0.0
661,0.0
690,53.27442496703075
716,0.0
843,-5965.737456040304
844,-5965.737456040304
907,0.0
908,0.0
971,0.0
972,0.0
1195,0.0
1197,0.0
2,3, 1,17, 0,20, 0.00,60.00,Wednesday
7,14.4
718,23.371331102821845
719,16.230426115994565
720,22.041960594392137
619,0.0
633,0.0
659,0.0
661,0.0
690,18.766006754244795
716,68.26816414561077
843,-5295.867663687899
844,-5295.867663687899
907,0.0
908,0.0
971,0.0
972,0.0
1195,0.0
1197,0.0
2,3, 1,17, 0,21, 0.00,60.00,Wednesday
7,12.8
718,23.19245887822011
719,14.202244515502612
720,22.082606543595237
619,0.0
633,0.0
659,0.0
661,0.0
690,35.874210213122204
716,0.0
843,-4888.681372978834
844,-4888.681372978834
907,0.0
908,0.0
971,0.0
972,0.0
1195,0.0
1197,0.0
2,3, 1,17, 0,22, 0.00,60.00,Wednesday
7,11.7
718,23.342033082924555
719,12.77700620866955
720,22.08796928564747
619,0.0
633,0.0
659,0.0
661,0.0
690,18.800107381737046
716,0.0
843,-4219.375178429924
844,-4219.375178429924
907,0.0
908,0.0
971,0.0
972,0.0
1195,0.0
1197,0.0
2,3, 1,17, 0,23, 0.00,60.00,Wednesday
7,11.7
718,23.659369719901253
719,12.019694813433535
720,22.07036958354791
619,0.0
633,0.0
659,0.0
661,0.0
690,0.0
716,0.0
843,-4396.453314431274
844,-4396.453314431274
907,0.0
908,0.0
971,0.0
972,0.0
1195,0.0
1197,0.0
2,3, 1,17, 0,24, 0.00,60.00,Wednesday
7,10.6
718,22.834039952723916
719,11.252240481484975
720,22.015094920240763
619,0.0
633,0.0
659,0.0
661,0.0
690,0.0
716,0.0
843,-3084.332501088431
844,-3084.332501088431
907,0.0
908,0.0
971,0.0
972,0.0
1195,0.0
1197,0.0
2,4, 1,18, 0, 1, 0.00,60.00,Thursday
7,10.6
718,22.481547773923126
719,10.743811170731485
720,21.949146087662527
619,0.0
633,0.0
659,0.0
661,0.0
690,0.0
716,0.0
843,-3163.912267991649
844,-3163.912267991649
907,0.0
908,0.0
971,0.0
972,0.0
1195,0.0
1197,0.0
2,4, 1,18, 0, 2, 0.00,60.00,Thursday
7,10.6
718,22.002483295780163
719,10.625440618887195
720,21.857998709415916
619,0.0
633,0.0
659,0.0
661,0.0
690,0.0
716,0.0
843,-2547.751872550307
844,-2547.751872550307
907,0.0
908,0.0
971,0.0
972,0.0
1195,0.0
1197,0.0
2,4, 1,18, 0, 3, 0.00,60.00,Thursday
7,11.1
718,21.53748969247823
719,11.084456668255168
720,21.792183088214607
619,0.0
633,0.0
659,0.0
661,0.0
690,0.0
716,0.0
843,-2170.8774915638223
844,-2170.8774915638223
907,0.0
908,0.0
971,0.0
972,0.0
1195,0.0
1197,0.0
2,4, 1,18, 0, 4, 0.00,60.00,Thursday
7,10.6
718,21.04911393506565
719,11.12189946924457
720,21.72167224033731
619,0.0
633,0.0
659,0.0
661,0.0
690,0.0
716,0.0
843,-1778.518395288107
844,-1778.518395288107
907,0.0
908,0.0
971,0.0
972,0.0
1195,0.0
1197,0.0
2,4, 1,18, 0, 5, 0.00,60.00,Thursday
7,10.6
718,20.732112577018018
719,11.161826785377539
720,21.6487036348486
619,0.0
633,0.0
659,0.0
661,0.0
690,0.0
716,0.0
843,-1539.451467017565
844,-1539.451467017565
907,0.0
908,0.0
971,0.0
972,0.0
1195,0.0
1197,0.0
2,4, 1,18, 0, 6, 0.00,60.00,Thursday
7,10.6
718,20.452719292939392
719,10.892959089171422
720,21.57451151554661
619,0.0
633,0.0
659,0.0
661,0.0
690,0.0
716,0.0
843,-516.7029994307577
844,-516.7029994307577
907,0.0
908,0.0
971,0.0
972,0.0
1195,0.0
1197,0.0
2,4, 1,18, 0, 7, 0.00,60.00,Thursday
7,11.1
718,19.213478633857733
719,11.05991019312231
720,21.503090586389817
619,0.0
633,0.0
659,0.0
661,0.0
690,0.0
716,85.44000000000004
843,-342.4740200077558
844,-342.4740200077558
907,0.0
908,0.0
971,0.0
972,0.0
1195,0.0
1197,0.0
2,4, 1,18, 0, 8, 0.00,60.00,Thursday
7,11.1
718,19.06062315398438
719,11.117305409296197
720,21.43525122701075
619,0.0
633,0.0
659,0.0
661,0.0
690,0.0
716,70.2667486591532
843,-151.16705048223776
844,-151.16705048223776
907,0.0
908,0.0
971,0.0
972,0.0
1195,0.0
1197,0.0
2,4, 1,18, 0, 9, 0.00,60.00,Thursday
7,12.8
718,20.53094900432921
719,13.019178177024685
720,21.370634754780216
619,0.0
633,0.0
659,0.0
661,0.0
690,0.0
716,0.0
843,-712.656688776502
844,-712.656688776502
907,0.0
908,0.0
971,0.0
972,0.0
1195,0.0
1197,0.0
2,4, 1,18, 0,10, 0.00,60.00,Thursday
7,14.4
718,21.950526912297672
719,16.365881583051085
720,21.316707142299673
619,0.0
633,0.0
659,0.0
661,0.0
690,0.0
716,0.0
843,-1513.0157073007886
844,-1513.0157073007886
907,0.0
908,0.0
971,0.0
972,0.0
1195,0.0
1197,0.0
2,4, 1,18, 0,11, 0.00,60.00,Thursday
7,14.4
718,23.085587505375173
719,19.99774889915294
720,21.290338834528374
619,0.0
633,0.0
659,0.0
661,0.0
690,0.0
716,0.0
843,-2677.0532428621573
844,-2677.0532428621573
907,0.0
908,0.0
971,0.0
972,0.0
1195,0.0
1197,0.0
2,4, 1,18, 0,12, 0.00,60.00,Thursday
7,18.9
718,23.299463091259728
719,25.07205181837629
720,21.316617960786246
619,0.0
633,0.0
659,0.0
661,0.0
690,26.838835066395276
716,0.0
843,-3710.14566477665
844,-3710.14566477665
907,0.0
908,0.0
971,0.0
972,0.0
1195,0.0
1197,0.0
2,4, 1,18, 0,13, 0.00,60.00,Thursday
7,20.0
718,23.37576349993653
719,28.140664475395948
720,21.37422021171949
619,0.0
633,0.0
659,0.0
661,0.0
690,44.77879973180894
716,0.0
843,-4374.090932771922
844,-4374.090932771922
907,0.0
908,0.0
971,0.0
972,0.0
1195,0.0
1197,0.0
2,4, 1,18, 0,14, 0.00,60.00,Thursday
7,20.0
718,23.335997975205828
719,29.036753883109732
720,21.44931491920448
619,0.0
633,0.0
659,0.0
661,0.0
690,64.5715962090175
716,0.0
843,-5498.434638707717
844,-5498.434638707717
907,0.0
908,0.0
971,0.0
972,0.0
1195,0.0
1197,0.0
2,4, 1,18, 0,15, 0.00,60.00,Thursday
7,19.4
718,23.306635093600217
719,26.278559629493305
720,21.53387733137803
619,0.0
633,0.0
659,0.0
661,0.0
690,54.434003513413
716,0.0
843,-5422.564211503161
844,-5422.564211503161
907,0.0
908,0.0
971,0.0
972,0.0
1195,0.0
1197,0.0
2,4, 1,18, 0,16, 0.00,60.00,Thursday
7,19.4
718,23.35258226692857
719,23.848873404857734
720,21.623727199238644
619,0.0
633,0.0
659,0.0
661,0.0
690,38.45628014691783
716,0.0
843,-4775.697445959855
844,-4775.697445959855
907,0.0
908,0.0
971,0.0
972,0.0
1195,0.0
1197,0.0
2,4, 1,18, 0,17, 0.00,60.00,Thursday
7,19.4
718,23.342436983400717
719,22.491204477685173
720,21.714223161586247
619,0.0
633,0.0
659,0.0
661,0.0
690,25.38482897701968
716,55.73187907566344
843,-4937.233221947932
844,-4937.233221947932
907,0.0
908,0.0
971,0.0
972,0.0
1195,0.0
1197,0.0
2,4, 1,18, 0,18, 0.00,60.00,Thursday
7,17.8
718,23.28594052887426
719,20.9265630821045
720,21.82334048437054
619,0.0
633,0.0
659,0.0
661,0.0
690,62.6093089383205
716,0.0
843,-5704.426517516511
844,-5704.426517516511
907,0.0
908,0.0
971,0.0
972,0.0
1195,0.0
1197,0.0
2,4, 1,18, 0,19, 0.00,60.00,Thursday
7,17.2
718,23.331052037675853
719,19.35394377687826
720,21.876536550709247
619,0.0
633,0.0
659,0.0
661,0.0
690,14.07711680816409
716,83.09609163831355
843,-5353.541483176177
844,-5353.541483176177
907,0.0
908,0.0
971,0.0
972,0.0
1195,0.0
1197,0.0
2,4, 1,18, 0,20, 0.00,60.00,Thursday
7,17.2
718,23.32623881461833
719,17.813068996392456
720,21.946243597509998
619,0.0
633,0.0
659,0.0
661,0.0
690,41.60879583454985
716,0.0
843,-4894.6900697919555
844,-4894.6900697919555
907,0.0
908,0.0
971,0.0
972,0.0
1195,0.0
1197,0.0
2,4, 1,18, 0,21, 0.00,60.00,Thursday
7,15.0
718,23.250625362635926
719,16.056793217312485
720,21.962614657123527
619,0.0
633,0.0
659,0.0
661,0.0
690,33.3085918083714
716,0.0
843,-4584.7155601679115
844,-4584.7155601679115
907,0.0
908,0.0
971,0.0
972,0.0
1195,0.0
1197,0.0
2,4, 1,18, 0,22, 0.00,60.00,Thursday
7,14.4
718,23.403673712153346
719,15.013762360383708
720,21.966123997026287
619,0.0
633,0.0
659,0.0
661,0.0
690,21.844833196975284
716,0.0
843,-4109.354828895699
844,-4109.354828895699
907,0.0
908,0.0
971,0.0
972,0.0
1195,0.0
1197,0.0
2,4, 1,18, 0,23, 0.00,60.00,Thursday
7,14.4
718,23.961580858616454
719,14.689267107567266
720,21.95085536245874
619,0.0
633,0.0
659,0.0
661,0.0
690,0.0
716,0.0
843,-4429.712845401451
844,-4429.712845401451
907,0.0
908,0.0
971,0.0
972,0.0
1195,0.0
1197,0.0
2,4, 1,18, 0,24, 0.00,60.00,Thursday
7,13.3
718,23.53633481323023
719,14.268126403517211
720,21.917775208994072
619,0.0
633,0.0
659,0.0
661,0.0
690,0.0
716,0.0
843,-2855.8246900359045
844,-2855.8246900359045
907,0.0
908,0.0
971,0.0
972,0.0
1195,0.0
1197,0.0
2,5, 1,19, 0, 1, 0.00,60.00,Friday
7,13.3
718,23.17764630617508
719,14.037053849032656
720,21.873318938017935
619,0.0
633,0.0
659,0.0
661,0.0
690,0.0
716,0.0
843,-2985.5305708844207
844,-2985.5305708844207
907,0.0
908,0.0
971,0.0
972,0.0
1195,0.0
1197,0.0
2,5, 1,19, 0, 2, 0.00,60.00,Friday
7,13.3
718,22.833360692602355
719,13.88849215327198
720,21.82520256063119
619,0.0
633,0.0
659,0.0
661,0.0
690,0.0
716,0.0
843,-2674.305260512352
844,-2674.305260512352
907,0.0
908,0.0
971,0.0
972,0.0
1195,0.0
1197,0.0
2,5, 1,19, 0, 3, 0.00,60.00,Friday
7,12.8
718,22.519287562666186
719,13.403226456851646
720,21.782434386723477
619,0.0
633,0.0
659,0.0
661,0.0
690,0.0
716,0.0
843,-2381.511787380292
844,-2381.511787380292
907,0.0
908,0.0
971,0.0
972,0.0
1195,0.0
1197,0.0
2,5, 1,19, 0, 4, 0.00,60.00,Friday
7,12.2
718,22.203571042381686
719,12.909581769253851
720,21.73656308007158
619,0.0
633,0.0
659,0.0
661,0.0
690,0.0
716,0.0
843,-2020.7499894192642
844,-2020.7499894192642
907,0.0
908,0.0
971,0.0
972,0.0
1195,0.0
1197,0.0
2,5, 1,19, 0, 5, 0.00,60.00,Friday
7,12.2
718,22.024794349493387
719,12.625835090414338
720,21.687129891984295
619,0.0
633,0.0
659,0.0
661,0.0
690,0.0
716,0.0
843,-1801.1132344144216
844,-1801.1132344144216
907,0.0
908,0.0
971,0.0
972,0.0
1195,0.0
1197,0.0
2,5, 1,19, 0, 6, 0.00,60.00,Friday
7,11.7
718,20.680051625424248
719,12.17036345217108
720,21.63767602778333
619,0.0
633,0.0
659,0.0
661,0.0
690,0.0
716,85.44000000000004
843,-1128.6321674372111
844,-1128.6321674372111
907,0.0
908,0.0
971,0.0
972,0.0
1195,0.0
1197,0.0
2,5, 1,19, 0, 7, 0.00,60.00,Friday
7,11.7
718,20.888693582249765
719,11.464411443222911
720,21.58781966820119
619,0.0
633,0.0
659,0.0
661,0.0
690,0.0
716,34.19336956394488
843,-1394.6007404636985
844,-1394.6007404636985
907,0.0
908,0.0
971,0.0
972,0.0
1195,0.0
1197,0.0
2,5, 1,19, 0, 8, 0.00,60.00,Friday
7,11.7
718,21.455408635797383
719,11.221516612236096
720,21.537453688811592
619,0.0
633,0.0
659,0.0
661,0.0
690,0.0
716,0.0
843,-1215.6515788026918
844,-1215.6515788026918
907,0.0
908,0.0
971,0.0
972,0.0
1195,0.0
1197,0.0
2,5, 1,19, 0, 9, 0.00,60.00,Friday
7,13.9
718,22.496215947724103
719,13.76196236201266
720,21.488138651974573
619,0.0