Program Version,EnergyPlus, Version 22.2.0-c249759bad, YMD=2023.09.01 15:53
1,5,Environment Title[],Latitude[deg],Longitude[deg],Time Zone[],Elevation[m]
2,8,Day of Simulation[],Month[],Day of Month[],DST Indicator[1=yes 0=no],Hour[],StartMinute[],EndMinute[],DayType
3,5,Cumulative Day of Simulation[],Month[],Day of Month[],DST Indicator[1=yes 0=no],DayType  ! When Daily Report Variables Requested
4,2,Cumulative Days of Simulation[],Month[]  ! When Monthly Report Variables Requested
5,1,Cumulative Days of Simulation[] ! When Run Period Report Variables Requested
6,1,Calendar Year of Simulation[] ! When Annual Report Variables Requested
581,11,LIVING,AFN Zone Infiltration Air Change Rate [ach] !RunPeriod [Value,Min,Month,Day,Hour,Minute,Max,Month,Day,Hour,Minute]
582,11,ATTIC,AFN Zone Infiltration Air Change Rate [ach] !RunPeriod [Value,Min,Month,Day,Hour,Minute,Max,Month,Day,Hour,Minute]
583,11,CRAWLSPACE,AFN Zone Infiltration Air Change Rate [ach] !RunPeriod [Value,Min,Month,Day,Hour,Minute,Max,Month,Day,Hour,Minute]
1038,11,Facility,Facility Heating Setpoint Not Met Time [hr] !RunPeriod [Value,Min,Month,Day,Hour,Minute,Max,Month,Day,Hour,Minute]
1039,11,Facility,Facility Cooling Setpoint Not Met Time [hr] !RunPeriod [Value,Min,Month,Day,Hour,Minute,Max,Month,Day,Hour,Minute]
1115,11,DX_HEATING_COIL,Heating Coil Heating Energy [J] !RunPeriod [Value,Min,Month,Day,Hour,Minute,Max,Month,Day,Hour,Minute]
1128,11,DX_HEATING_COIL,Heating Coil Electricity Energy [J] !RunPeriod [Value,Min,Month,Day,Hour,Minute,Max,Month,Day,Hour,Minute]
1153,11,DX_HEATING_COIL,Heating Coil Defrost Electricity Energy [J] !RunPeriod [Value,Min,Month,Day,Hour,Minute,Max,Month,Day,Hour,Minute]
1154,11,DX_HEATING_COIL,Heating Coil Crankcase Heater Electricity Energy [J] !RunPeriod [Value,Min,Month,Day,Hour,Minute,Max,Month,Day,Hour,Minute]
1155,11,HEATING_RESISTANCE_BACKUP,Heating Coil Heating Energy [J] !RunPeriod [Value,Min,Month,Day,Hour,Minute,Max,Month,Day,Hour,Minute]
1156,11,HEATING_RESISTANCE_BACKUP,Heating Coil Electricity Energy [J] !RunPeriod [Value,Min,Month,Day,Hour,Minute,Max,Month,Day,Hour,Minute]
1292,11,WATER HEATER,Water Heater Heat Loss Energy [J] !RunPeriod [Value,Min,Month,Day,Hour,Minute,Max,Month,Day,Hour,Minute]
1306,11,WATER HEATER,Water Heater Heating Energy [J] !RunPeriod [Value,Min,Month,Day,Hour,Minute,Max,Month,Day,Hour,Minute]
1307,11,WATER HEATER,Water Heater Unmet Demand Heat Transfer Energy [J] !RunPeriod [Value,Min,Month,Day,Hour,Minute,Max,Month,Day,Hour,Minute]
1308,11,WATER HEATER,Water Heater Electricity Energy [J] !RunPeriod [Value,Min,Month,Day,Hour,Minute,Max,Month,Day,Hour,Minute]
13,11,Electricity:Facility [J] !RunPeriod [Value,Min,Month,Day,Hour,Minute,Max,Month,Day,Hour,Minute]
1134,11,Heating:Electricity [J] !RunPeriod [Value,Min,Month,Day,Hour,Minute,Max,Month,Day,Hour,Minute]
1096,11,Cooling:Electricity [J] !RunPeriod [Value,Min,Month,Day,Hour,Minute,Max,Month,Day,Hour,Minute]
562,11,Fans:Electricity [J] !RunPeriod [Value,Min,Month,Day,Hour,Minute,Max,Month,Day,Hour,Minute]
1379,11,Pumps:Electricity [J] !RunPeriod [Value,Min,Month,Day,Hour,Minute,Max,Month,Day,Hour,Minute]
1326,11,WaterSystems:Electricity [J] !RunPeriod [Value,Min,Month,Day,Hour,Minute,Max,Month,Day,Hour,Minute]
61,11,InteriorLights:Electricity [J] !RunPeriod [Value,Min,Month,Day,Hour,Minute,Max,Month,Day,Hour,Minute]
1046,11,ExteriorLights:Electricity [J] !RunPeriod [Value,Min,Month,Day,Hour,Minute,Max,Month,Day,Hour,Minute]
134,11,InteriorEquipment:Electricity [J] !RunPeriod [Value,Min,Month,Day,Hour,Minute,Max,Month,Day,Hour,Minute]
170,11,gas_dryer:InteriorEquipment:Electricity [J] !RunPeriod [Value,Min,Month,Day,Hour,Minute,Max,Month,Day,Hour,Minute]
207,11,clotheswasher:InteriorEquipment:Electricity [J] !RunPeriod [Value,Min,Month,Day,Hour,Minute,Max,Month,Day,Hour,Minute]
244,11,dishwasher:InteriorEquipment:Electricity [J] !RunPeriod [Value,Min,Month,Day,Hour,Minute,Max,Month,Day,Hour,Minute]
281,11,refrigerator:InteriorEquipment:Electricity [J] !RunPeriod [Value,Min,Month,Day,Hour,Minute,Max,Month,Day,Hour,Minute]
318,11,electric_mels:InteriorEquipment:Electricity [J] !RunPeriod [Value,Min,Month,Day,Hour,Minute,Max,Month,Day,Hour,Minute]
355,11,NaturalGas:Facility [J] !RunPeriod [Value,Min,Month,Day,Hour,Minute,Max,Month,Day,Hour,Minute]
403,11,InteriorEquipment:NaturalGas [J] !RunPeriod [Value,Min,Month,Day,Hour,Minute,Max,Month,Day,Hour,Minute]
476,11,gas_dryer:InteriorEquipment:NaturalGas [J] !RunPeriod [Value,Min,Month,Day,Hour,Minute,Max,Month,Day,Hour,Minute]
513,11,gas_mels:InteriorEquipment:NaturalGas [J] !RunPeriod [Value,Min,Month,Day,Hour,Minute,Max,Month,Day,Hour,Minute]
End of Data Dictionary
1,EXTREME_WINTER,  44.47, -73.15,  -5.00, 104.00
5,7
1038,12.75,0.0, 1,20, 1,15,0.25, 1,21, 6,15
1039,0.0,0.0, 1,20, 1,15,0.0, 1,20, 1,15
581,0.4771262591182388,0.30584328975824593, 1,22,23, 3,0.7927880808710175, 1,20,10,60
582,3.9173939135534503,0.05779568297216187, 1,23, 5,60,15.790034584401335, 1,20, 7,48
583,0.06551473705144169,0.0004918593001577696, 1,22,23, 3,0.07827035125616601, 1,20,10,60
1115,1791432685.0226815,0.0, 1,21,23, 5,3609822.957764963, 1,24, 3,60
1128,687459648.287697,0.0, 1,21,23, 5,1162035.2491647543, 1,24,11,60
1153,5685150.692703413,0.0, 1,21,23, 5,49748.759384763194, 1,24, 8,60
1154,5710006.581645571,0.0, 1,20, 1, 5,150583.52410477842, 1,24,14,60
1155,1894312694.1995277,0.0, 1,20,23, 5,6337069.590530483, 1,25, 6,15
1156,1894312694.1995277,0.0, 1,20,23, 5,6337069.590530483, 1,25, 6,15
1292,-25464053.638987344,-39939.489426657856, 1,26, 5,60,-4061.0015684483, 1,21,12,30
1306,252816736.17579612,0.0, 1,20, 1, 5,8229508.817618328, 1,22, 7,60
1307,8358224.475804823,0.0, 1,20, 1, 5,3650700.17705479, 1,26,19,60
1308,252816736.17579612,0.0, 1,20, 1, 5,8229508.817618328, 1,22, 7,60
13,3297214788.725919,623820.157154506, 1,24,15,15,18311769.283637397, 1,26, 9,45
61,301924526.02383536,88139.10953165221, 1,20, 1,15,1282023.4113694867, 1,20,20,15
134,70666020.44019976,63564.01800854099, 1,20, 4,15,156554.22484006523, 1,25,20,15
170,5241013.419656067,348.4159749238097, 1,20, 4,15,17476.39704006126, 1,25,12,15
207,6509451.13922267,815.2532113832032, 1,20, 3,15,22990.642799023623, 1,25,10,15
244,12749673.399825225,1521.856143006317, 1,20, 4,15,53038.631142310165, 1,25,20,15
281,46165882.481495745,59938.60262432081, 1,20, 5,15,81951.81706819107, 1,20,19,15
318,0.0,0.0, 1,20, 1,15,0.0, 1,20, 1,15
355,197687796.27748066,18561.32405820678, 1,20, 4,15,724774.895203776, 1,25,18,15
403,197687796.27748066,18561.32405820678, 1,20, 4,15,724774.895203776, 1,25,18,15
476,106772067.24485716,7098.072629279515, 1,20, 4,15,356036.3026282215, 1,25,12,15
513,0.0,0.0, 1,20, 1,15,0.0, 1,20, 1,15
562,78640006.32451437,18911.370493263734, 1,24,15,15,122827.7377527937, 1,20, 1,30
1046,0.0,0.0, 1,20, 1,15,0.0, 1,20, 1,15
1096,0.0,0.0, 1,20, 1,15,0.0, 1,20, 1,15
1134,2593167499.7615743,332891.74776311975, 1,24,15,15,7374210.174517025, 1,21, 6,15
1326,252816736.17579606,0.0, 1,20, 1,15,10479116.378009308, 1,26, 9,45
1379,0.0,0.0, 1,20, 1,15,0.0, 1,20, 1,15
1,EXTREME_SUMMER,  44.47, -73.15,  -5.00, 104.00
5,7
1038,0.0,0.0, 7,27, 1,15,0.0, 7,27, 1,15
1039,28.75,0.0, 7,27, 1,15,0.25, 7,27,14,45
581,0.12427464238960446,0.0, 7,27,23, 3,0.462844545089747, 7,30,15,55
582,2.447926120413741,0.0, 7,27, 1,50,9.428909533886834, 7,31, 8,60
583,0.0333682455092892,0.0, 7,27,23, 3,0.06188093709785004, 7,31, 6, 3
1115,0.0,0.0, 7,27, 1,15,0.0, 7,27, 1,15
1128,0.0,0.0, 7,27, 1,15,0.0, 7,27, 1,15
1153,0.0,0.0, 7,27, 1,15,0.0, 7,27, 1,15
1154,0.0,0.0, 7,27, 1,15,0.0, 7,27, 1,15
1155,0.0,0.0, 7,27, 1,15,0.0, 7,27, 1,15
1156,0.0,0.0, 7,27, 1,15,0.0, 7,27, 1,15
1292,-21927183.85763518,-34322.53190573237, 7,30,12,30,-3801.3505590622053, 7,29, 8,44
1306,192631460.90522775,0.0, 7,27, 1,15,4095814.032967839, 7,29,16,45
1307,2653096.34949605,0.0, 7,27, 1,15,971729.8329311525, 8, 2,19,55
1308,192631460.90522775,0.0, 7,27, 1,15,4095814.032967839, 7,29,16,45
13,1016815564.603404,152071.80019841267, 8, 1, 4,60,11533834.333737344, 8, 2,19,60
61,301924526.02383536,88139.10953165221, 7,27, 1,15,1282023.4113694867, 7,27,20,15
134,70666020.44019976,63564.01800854099, 7,27, 4,15,156554.22484006523, 8, 1,20,15
170,5241013.419656067,348.4159749238097, 7,27, 4,15,17476.39704006126, 8, 1,12,15
207,6509451.13922267,815.2532113832032, 7,27, 3,15,22990.642799023623, 8, 1,10,15
244,12749673.399825225,1521.856143006317, 7,27, 4,15,53038.631142310165, 8, 1,20,15
281,46165882.481495745,59938.60262432081, 7,27, 5,15,81951.81706819107, 7,27,19,15
318,0.0,0.0, 7,27, 1,15,0.0, 7,27, 1,15
355,197687796.27748066,18561.32405820678, 7,27, 4,15,724774.895203776, 8, 1,18,15
403,197687796.27748066,18561.32405820678, 7,27, 4,15,724774.895203776, 8, 1,18,15
476,106772067.24485716,7098.072629279515, 7,27, 4,15,356036.3026282215, 8, 1,12,15
513,0.0,0.0, 7,27, 1,15,0.0, 7,27, 1,15
562,45493990.80997726,0.0, 8, 1, 4,60,122827.7377527937, 7,27,13,60
1046,0.0,0.0, 7,27, 1,15,0.0, 7,27, 1,15
1096,406099566.424165,0.0, 8, 1, 4,60,1270221.1231864537, 7,29,15,60
1134,0.0,0.0, 7,27, 1,15,0.0, 7,27, 1,15
1326,192631460.90522772,0.0, 7,27, 1,15,9591567.047554499, 8, 2,19,60
1379,0.0,0.0, 7,27, 1,15,0.0, 7,27, 1,15
1,ANNUAL,  44.47, -73.15,  -5.00, 104.00
5,365
1038,88.75,0.0, 1, 1, 1,15,0.25, 1, 1, 6,15
1039,271.25,0.0, 1, 1, 1,15,0.25, 3,26,18,30
581,0.28756491964678715,0.0, 7,11,23, 3,1.0408637896913486,12,22,19,55
582,3.5715833547524523,0.0, 1, 1,19,22,28.52084816681122,12,22,12,60
583,0.03032540209732309,0.0, 7,11,23, 3,0.07991307594978607, 1,16,24,52
1115,35671110145.17239,0.0, 1, 1,14,22,4425726.602321867,11,22, 6,15
1128,11604792607.145134,0.0, 1, 1,14,22,1235181.1719539466,12, 8, 7,45
1153,320022726.268059,0.0, 1, 1,14,22,124990.61629336626,11, 9, 7,60
1154,1415741817.6361465,0.0, 1, 1, 6,15,180000.0, 1, 1,14,60
1155,12150598515.489254,0.0, 1, 1, 1,15,6337069.590530483, 1,17, 1,15
1156,12150598515.489254,0.0, 1, 1, 1,15,6337069.590530483, 1,17, 1,15
1292,-1245888453.2263415,-42431.41310361281, 1,17, 6,15,-2526.462362378785, 6, 4,15,59
1306,11701298299.304546,0.0, 1, 1, 1,15,10526620.81381704, 2,19, 9,45
1307,283594913.00111264,0.0, 1, 1, 1,15,7136391.613006769, 2,12,19,60
1308,11701298299.304546,0.0, 1, 1, 1,15,10526620.81381704, 2,19, 9,45
13,64602351212.79623,151703.1275401932, 1, 6, 4,15,18318422.575852968, 1,29, 9,45
61,15743207428.383959,88139.10953165221, 1, 1, 1,15,1282023.4113694867, 1, 1,20,15
134,3685071073.4325233,63564.01800854099, 1, 2, 4,15,156554.22484006523, 1, 1,20,15
170,273393721.45532674,348.4159749238097, 1, 2, 4,15,17476.39704006126, 1, 1,12,15
207,339560869.0695816,815.2532113832032, 1, 2, 3,15,22990.642799023623, 1, 1,10,15
244,664895467.8009144,1521.856143006317, 1, 2, 4,15,53038.631142310165, 1, 1,20,15
281,2407221015.106824,59938.60262432081, 1, 1, 5,15,81951.81706819107, 1, 1,19,15
318,0.0,0.0, 1, 1, 1,15,0.0, 1, 1, 1,15
355,10310294493.051695,18561.32405820678, 1, 2, 4,15,724774.895203776, 1, 1,18,15
403,10310294493.051695,18561.32405820678, 1, 2, 4,15,724774.895203776, 1, 1,18,15
476,5569688622.066177,7098.072629279515, 1, 2, 4,15,356036.3026282215, 1, 1,12,15
513,0.0,0.0, 1, 1, 1,15,0.0, 1, 1, 1,15
562,1975062698.1521814,0.0, 1, 1,14,30,122827.7377527937, 1, 1, 6,15
1046,0.0,0.0, 1, 1, 1,15,0.0, 1, 1, 1,15
1096,6006556046.982883,0.0, 1, 1, 1,15,1342267.2076593451, 6,22,17,60
1134,25491155666.53856,0.0, 1, 4,15,60,7424931.988073915, 1,18, 6,15
1326,11701298299.304535,0.0, 1, 1, 1,15,10540800.0, 5,14,19,60
1379,0.0,0.0, 1, 1, 1,15,0.0, 1, 1, 1,15
End of Data
 Number of Records Written=          99
