Program Version,EnergyPlus, Version 22.2.0-c249759bad, YMD=2023.09.01 20:30
1,5,Environment Title[],Latitude[deg],Longitude[deg],Time Zone[],Elevation[m]
2,8,Day of Simulation[],Month[],Day of Month[],DST Indicator[1=yes 0=no],Hour[],StartMinute[],EndMinute[],DayType
3,5,Cumulative Day of Simulation[],Month[],Day of Month[],DST Indicator[1=yes 0=no],DayType  ! When Daily Report Variables Requested
4,2,Cumulative Days of Simulation[],Month[]  ! When Monthly Report Variables Requested
5,1,Cumulative Days of Simulation[] ! When Run Period Report Variables Requested
6,1,Calendar Year of Simulation[] ! When Annual Report Variables Requested
581,11,LIVING,AFN Zone Infiltration Air Change Rate [ach] !RunPeriod [Value,Min,Month,Day,Hour,Minute,Max,Month,Day,Hour,Minute]
582,11,ATTIC,AFN Zone Infiltration Air Change Rate [ach] !RunPeriod [Value,Min,Month,Day,Hour,Minute,Max,Month,Day,Hour,Minute]
583,11,CRAWLSPACE,AFN Zone Infiltration Air Change Rate [ach] !RunPeriod [Value,Min,Month,Day,Hour,Minute,Max,Month,Day,Hour,Minute]
1038,11,Facility,Facility Heating Setpoint Not Met Time [hr] !RunPeriod [Value,Min,Month,Day,Hour,Minute,Max,Month,Day,Hour,Minute]
1039,11,Facility,Facility Cooling Setpoint Not Met Time [hr] !RunPeriod [Value,Min,Month,Day,Hour,Minute,Max,Month,Day,Hour,Minute]
1115,11,DX_HEATING_COIL,Heating Coil Heating Energy [J] !RunPeriod [Value,Min,Month,Day,Hour,Minute,Max,Month,Day,Hour,Minute]
1128,11,DX_HEATING_COIL,Heating Coil Electricity Energy [J] !RunPeriod [Value,Min,Month,Day,Hour,Minute,Max,Month,Day,Hour,Minute]
1153,11,DX_HEATING_COIL,Heating Coil Defrost Electricity Energy [J] !RunPeriod [Value,Min,Month,Day,Hour,Minute,Max,Month,Day,Hour,Minute]
1154,11,DX_HEATING_COIL,Heating Coil Crankcase Heater Electricity Energy [J] !RunPeriod [Value,Min,Month,Day,Hour,Minute,Max,Month,Day,Hour,Minute]
1155,11,HEATING_RESISTANCE_BACKUP,Heating Coil Heating Energy [J] !RunPeriod [Value,Min,Month,Day,Hour,Minute,Max,Month,Day,Hour,Minute]
1156,11,HEATING_RESISTANCE_BACKUP,Heating Coil Electricity Energy [J] !RunPeriod [Value,Min,Month,Day,Hour,Minute,Max,Month,Day,Hour,Minute]
1292,11,WATER HEATER,Water Heater Heat Loss Energy [J] !RunPeriod [Value,Min,Month,Day,Hour,Minute,Max,Month,Day,Hour,Minute]
1306,11,WATER HEATER,Water Heater Heating Energy [J] !RunPeriod [Value,Min,Month,Day,Hour,Minute,Max,Month,Day,Hour,Minute]
1307,11,WATER HEATER,Water Heater Unmet Demand Heat Transfer Energy [J] !RunPeriod [Value,Min,Month,Day,Hour,Minute,Max,Month,Day,Hour,Minute]
1308,11,WATER HEATER,Water Heater Electricity Energy [J] !RunPeriod [Value,Min,Month,Day,Hour,Minute,Max,Month,Day,Hour,Minute]
13,11,Electricity:Facility [J] !RunPeriod [Value,Min,Month,Day,Hour,Minute,Max,Month,Day,Hour,Minute]
1134,11,Heating:Electricity [J] !RunPeriod [Value,Min,Month,Day,Hour,Minute,Max,Month,Day,Hour,Minute]
1096,11,Cooling:Electricity [J] !RunPeriod [Value,Min,Month,Day,Hour,Minute,Max,Month,Day,Hour,Minute]
562,11,Fans:Electricity [J] !RunPeriod [Value,Min,Month,Day,Hour,Minute,Max,Month,Day,Hour,Minute]
1379,11,Pumps:Electricity [J] !RunPeriod [Value,Min,Month,Day,Hour,Minute,Max,Month,Day,Hour,Minute]
1326,11,WaterSystems:Electricity [J] !RunPeriod [Value,Min,Month,Day,Hour,Minute,Max,Month,Day,Hour,Minute]
61,11,InteriorLights:Electricity [J] !RunPeriod [Value,Min,Month,Day,Hour,Minute,Max,Month,Day,Hour,Minute]
1046,11,ExteriorLights:Electricity [J] !RunPeriod [Value,Min,Month,Day,Hour,Minute,Max,Month,Day,Hour,Minute]
134,11,InteriorEquipment:Electricity [J] !RunPeriod [Value,Min,Month,Day,Hour,Minute,Max,Month,Day,Hour,Minute]
170,11,gas_dryer:InteriorEquipment:Electricity [J] !RunPeriod [Value,Min,Month,Day,Hour,Minute,Max,Month,Day,Hour,Minute]
207,11,clotheswasher:InteriorEquipment:Electricity [J] !RunPeriod [Value,Min,Month,Day,Hour,Minute,Max,Month,Day,Hour,Minute]
244,11,dishwasher:InteriorEquipment:Electricity [J] !RunPeriod [Value,Min,Month,Day,Hour,Minute,Max,Month,Day,Hour,Minute]
281,11,refrigerator:InteriorEquipment:Electricity [J] !RunPeriod [Value,Min,Month,Day,Hour,Minute,Max,Month,Day,Hour,Minute]
318,11,electric_mels:InteriorEquipment:Electricity [J] !RunPeriod [Value,Min,Month,Day,Hour,Minute,Max,Month,Day,Hour,Minute]
355,11,NaturalGas:Facility [J] !RunPeriod [Value,Min,Month,Day,Hour,Minute,Max,Month,Day,Hour,Minute]
403,11,InteriorEquipment:NaturalGas [J] !RunPeriod [Value,Min,Month,Day,Hour,Minute,Max,Month,Day,Hour,Minute]
476,11,gas_dryer:InteriorEquipment:NaturalGas [J] !RunPeriod [Value,Min,Month,Day,Hour,Minute,Max,Month,Day,Hour,Minute]
513,11,gas_mels:InteriorEquipment:NaturalGas [J] !RunPeriod [Value,Min,Month,Day,Hour,Minute,Max,Month,Day,Hour,Minute]
End of Data Dictionary
1,EXTREME_WINTER,  35.06, -89.99,  -6.00,  77.40
5,7
1038,0.5,0.0, 1, 6, 1,15,0.25, 1, 8, 6,15
1039,0.0,0.0, 1, 6, 1,15,0.0, 1, 6, 1,15
581,0.3595935061670439,0.14922798307715937, 1,11,23,15,0.9733581569751623, 1, 7,13,60
582,3.5788831811886745,0.0, 1, 6, 1,15,15.375875408433094, 1, 7,13,60
583,0.03760679930577569,0.00029218008129943177, 1,10,22,45,0.08522843196862055, 1, 7,13,60
1115,1326453328.701667,0.0, 1, 6,11, 3,4191566.0583666796, 1, 7,11,15
1128,432332269.8569738,0.0, 1, 6,11, 3,1291828.8535354806, 1, 7,11,15
1153,5614751.692226652,0.0, 1, 6,11, 3,84121.25011070975, 1,12,15,60
1154,57949934.07466836,0.0, 1, 6, 6, 5,180000.0, 1, 6,12,60
1155,274649048.30902725,0.0, 1, 6, 1,15,3949695.770818113, 1, 8, 6,60
1156,274649048.30902725,0.0, 1, 6, 1,15,3949695.770818113, 1, 8, 6,60
1292,-25220485.165628,-39789.1327855352, 1, 6, 1,15,-4155.797528765373, 1,10,11,59
1306,169843270.12059328,0.0, 1, 6, 1,15,4050000.0, 1, 6, 8,45
1307,30028907.242489003,0.0, 1, 6, 1,15,4191968.338880228, 1,12, 9,30
1308,169843270.12059328,0.0, 1, 6, 1,15,4050000.0, 1, 6, 8,45
13,1358760519.4924982,452017.0388981225, 1, 6,15,15,7568085.092474931, 1,10, 8,30
61,301924526.02383536,88139.10953165221, 1, 6, 1,15,1282023.4113694867, 1, 6,20,15
134,70666020.44019976,63564.01800854099, 1, 6, 4,15,156554.22484006523, 1,11,20,15
170,5241013.419656067,348.4159749238097, 1, 6, 4,15,17476.39704006126, 1,11,12,15
207,6509451.13922267,815.2532113832032, 1, 6, 3,15,22990.642799023623, 1,11,10,15
244,12749673.399825225,1521.856143006317, 1, 6, 4,15,53038.631142310165, 1,11,20,15
281,46165882.481495745,59938.60262432081, 1, 6, 5,15,81951.81706819107, 1, 6,19,15
318,0.0,0.0, 1, 6, 1,15,0.0, 1, 6, 1,15
355,197687796.27748066,18561.32405820678, 1, 6, 4,15,724774.895203776, 1,11,18,15
403,197687796.27748066,18561.32405820678, 1, 6, 4,15,724774.895203776, 1,11,18,15
476,106772067.24485716,7098.072629279515, 1, 6, 4,15,356036.3026282215, 1,11,12,15
513,0.0,0.0, 1, 6, 1,15,0.0, 1, 6, 1,15
562,45557852.9765324,0.0, 1, 6,11,15,130292.56410050447, 1, 8, 9,15
1046,0.0,0.0, 1, 6, 1,15,0.0, 1, 6, 1,15
1096,222845.99844400783,0.0, 1, 6, 1,15,49617.794203139216, 1, 6,17,15
1134,770546003.9328967,169241.79826548186, 1, 6,17,15,5707742.663670258, 1, 8, 6,15
1326,169843270.12059328,0.0, 1, 6, 1,15,4050000.0, 1, 6, 8,45
1379,0.0,0.0, 1, 6, 1,15,0.0, 1, 6, 1,15
1,EXTREME_SUMMER,  35.06, -89.99,  -6.00,  77.40
5,7
1038,0.0,0.0, 8, 3, 1,15,0.0, 8, 3, 1,15
1039,61.0,0.0, 8, 3, 1,15,0.25, 8, 3,13,45
581,0.11914445742075076,0.0, 8, 6,20,37,0.5373374124311859, 8, 6,16,47
582,3.069565753759137,0.23684370150912418, 8, 6,20,45,9.312194882676245, 8, 6,16,47
583,0.04391994003337683,0.000008594199697107645, 8, 6,23, 3,0.07146157777030251, 8, 6,16,47
1115,0.0,0.0, 8, 3, 1,15,0.0, 8, 3, 1,15
1128,0.0,0.0, 8, 3, 1,15,0.0, 8, 3, 1,15
1153,0.0,0.0, 8, 3, 1,15,0.0, 8, 3, 1,15
1154,0.0,0.0, 8, 3, 1,15,0.0, 8, 3, 1,15
1155,0.0,0.0, 8, 3, 1,15,0.0, 8, 3, 1,15
1156,0.0,0.0, 8, 3, 1,15,0.0, 8, 3, 1,15
1292,-21682279.196327474,-34298.83203520469, 8, 4, 7,45,-2678.678324504612, 8, 6,11,33
1306,115411614.1812199,0.0, 8, 3, 1,15,3308666.7980792015, 8, 4, 7,15
1307,9200136.813017564,0.0, 8, 3, 1,15,792902.04248337, 8, 6,10,21
1308,115411614.1812199,0.0, 8, 3, 1,15,3308666.7980792015, 8, 4, 7,15
13,1146378938.6964378,304643.4357299162, 8, 8, 4,60,5791981.625197931, 8, 9,20,60
61,301924526.02383536,88139.10953165221, 8, 3, 1,15,1282023.4113694867, 8, 3,20,15
134,70666020.44019976,63564.01800854099, 8, 3, 4,15,156554.22484006523, 8, 8,20,15
170,5241013.419656067,348.4159749238097, 8, 3, 4,15,17476.39704006126, 8, 8,12,15
207,6509451.13922267,815.2532113832032, 8, 3, 3,15,22990.642799023623, 8, 8,10,15
244,12749673.399825225,1521.856143006317, 8, 3, 4,15,53038.631142310165, 8, 8,20,15
281,46165882.481495745,59938.60262432081, 8, 3, 5,15,81951.81706819107, 8, 3,19,15
318,0.0,0.0, 8, 3, 1,15,0.0, 8, 3, 1,15
355,197687796.27748066,18561.32405820678, 8, 3, 4,15,724774.895203776, 8, 8,18,15
403,197687796.27748066,18561.32405820678, 8, 3, 4,15,724774.895203776, 8, 8,18,15
476,106772067.24485716,7098.072629279515, 8, 3, 4,15,356036.3026282215, 8, 8,12,15
513,0.0,0.0, 8, 3, 1,15,0.0, 8, 3, 1,15
562,59923043.21566674,14771.690642398564, 8, 8, 5,60,130292.5641005045, 8, 6,16,15
1046,0.0,0.0, 8, 3, 1,15,0.0, 8, 3, 1,15
1096,598453734.8355166,125519.73550840847, 8, 8, 5,60,1435211.5743294656, 8, 9,16,60
1134,0.0,0.0, 8, 3, 1,15,0.0, 8, 3, 1,15
1326,115411614.18121985,0.0, 8, 3, 1,15,4050000.0, 8, 5, 9,45
1379,0.0,0.0, 8, 3, 1,15,0.0, 8, 3, 1,15
1,ANNUAL,  35.06, -89.99,  -6.00,  77.40
5,365
1038,7.0,0.0, 1, 1, 1,15,0.25, 1, 1, 6,15
1039,1094.5,0.0, 1, 1, 1,15,0.25, 1,21,13,60
581,0.22576645825778913,0.0, 5,23,23, 3,1.0468503146913588, 8,14,18,46
582,3.899179224354216,0.0, 1, 1, 5,15,22.56695047789455, 8,14,18,46
583,0.028462645595470674,0.0, 5,23,23, 3,0.08899162848123775, 8,14,18,46
1115,9781969758.816143,0.0, 1, 1,23, 7,4480211.738862102, 3, 8, 6,45
1128,2981088112.997831,0.0, 1, 1,23, 7,1293388.8063915756, 3, 8, 6,45
1153,112958792.79600504,0.0, 1, 1,12, 5,102303.76127995168,12,27, 6,45
1154,1139343140.819336,0.0, 1, 1, 6, 5,180000.0, 1, 2,23,15
1155,522520579.94648874,0.0, 1, 1, 1,15,4117863.407146319, 1, 8, 6,60
1156,522520579.94648874,0.0, 1, 1, 1,15,4117863.407146319, 1, 8, 6,60
1292,-1190146256.456938,-39804.581549222436, 2,22, 3,15,-2166.7363463512515, 6,30,11,30
1306,7484125015.06794,0.0, 1, 1, 1,15,4050000.0, 1, 1, 9,45
1307,1032983334.3167593,0.0, 1, 1, 1,15,8414419.822136708, 2, 4,10,30
1308,7484125015.06794,0.0, 1, 1, 1,15,4050000.0, 1, 1, 9,45
13,47436666111.74747,151703.1275401932, 2, 3, 4,15,8838367.026036825, 1, 7,19,30
61,15743207428.383959,88139.10953165221, 1, 1, 1,15,1282023.4113694867, 1, 1,20,15
134,3685071073.4325233,63564.01800854099, 1, 2, 4,15,156554.22484006523, 1, 1,20,15
170,273393721.45532674,348.4159749238097, 1, 2, 4,15,17476.39704006126, 1, 1,12,15
207,339560869.0695816,815.2532113832032, 1, 2, 3,15,22990.642799023623, 1, 1,10,15
244,664895467.8009144,1521.856143006317, 1, 2, 4,15,53038.631142310165, 1, 1,20,15
281,2407221015.106824,59938.60262432081, 1, 1, 5,15,81951.81706819107, 1, 1,19,15
318,0.0,0.0, 1, 1, 1,15,0.0, 1, 1, 1,15
355,10310294493.051695,18561.32405820678, 1, 2, 4,15,724774.895203776, 1, 1,18,15
403,10310294493.051695,18561.32405820678, 1, 2, 4,15,724774.895203776, 1, 1,18,15
476,5569688622.066177,7098.072629279515, 1, 2, 4,15,356036.3026282215, 1, 1,12,15
513,0.0,0.0, 1, 1, 1,15,0.0, 1, 1, 1,15
562,1839483761.213347,0.0, 1, 1,23,15,130292.5641005045, 8, 6,16,15
1046,0.0,0.0, 1, 1, 1,15,0.0, 1, 1, 1,15
1096,13928868207.087847,0.0, 1, 1, 1,15,1495012.9852646745, 7,30,16,60
1134,4755910626.559641,0.0, 1, 3,13,15,5704795.362336119, 1, 8, 6,15
1326,7484125015.067946,0.0, 1, 1, 1,15,4050000.0000000014, 1,21,10,45
1379,0.0,0.0, 1, 1, 1,15,0.0, 1, 1, 1,15
End of Data
 Number of Records Written=          99
