Program Version,EnergyPlus, Version 22.2.0-c249759bad, YMD=2023.09.01 14:32
1,5,Environment Title[],Latitude[deg],Longitude[deg],Time Zone[],Elevation[m]
2,8,Day of Simulation[],Month[],Day of Month[],DST Indicator[1=yes 0=no],Hour[],StartMinute[],EndMinute[],DayType
3,5,Cumulative Day of Simulation[],Month[],Day of Month[],DST Indicator[1=yes 0=no],DayType  ! When Daily Report Variables Requested
4,2,Cumulative Days of Simulation[],Month[]  ! When Monthly Report Variables Requested
5,1,Cumulative Days of Simulation[] ! When Run Period Report Variables Requested
6,1,Calendar Year of Simulation[] ! When Annual Report Variables Requested
7,1,Environment,Site Outdoor Air Drybulb Temperature [C] !Hourly
545,1,LIVING,Zone Mean Air Temperature [C] !Hourly
546,1,ATTIC,Zone Mean Air Temperature [C] !Hourly
547,1,CRAWLSPACE,Zone Mean Air Temperature [C] !Hourly
548,1,FAN,Fan Electricity Rate [W] !Hourly
720,1,LIVING,Zone Predicted Sensible Load to Heating Setpoint Heat Transfer Rate [W] !Hourly
721,1,LIVING,Zone System Predicted Sensible Load to Heating Setpoint Heat Transfer Rate [W] !Hourly
784,1,ATTIC,Zone Predicted Sensible Load to Heating Setpoint Heat Transfer Rate [W] !Hourly
785,1,ATTIC,Zone System Predicted Sensible Load to Heating Setpoint Heat Transfer Rate [W] !Hourly
848,1,CRAWLSPACE,Zone Predicted Sensible Load to Heating Setpoint Heat Transfer Rate [W] !Hourly
849,1,CRAWLSPACE,Zone System Predicted Sensible Load to Heating Setpoint Heat Transfer Rate [W] !Hourly
1121,1,DX_HEATING_COIL,Heating Coil Heating Rate [W] !Hourly
1135,1,DX_HEATING_COIL,Heating Coil Electricity Rate [W] !Hourly
1161,1,DX_HEATING_COIL,Heating Coil Defrost Electricity Rate [W] !Hourly
1163,1,DX_HEATING_COIL,Heating Coil Crankcase Heater Electricity Rate [W] !Hourly
1166,1,HEATING_RESISTANCE_BACKUP,Heating Coil Heating Rate [W] !Hourly
1168,1,HEATING_RESISTANCE_BACKUP,Heating Coil Electricity Rate [W] !Hourly
End of Data Dictionary
1,EXTREME_WINTER,  29.62, -95.17,  -6.00,   9.80
2,1, 1,13, 0, 1, 0.00,60.00,Monday
7,22.0
545,20.656269955260022
546,15.429783421985192
547,20.8448183791069
548,0.0
720,-1555.0833193845501
721,-1555.0833193845501
784,0.0
785,0.0
848,0.0
849,0.0
1121,0.0
1135,0.0
1161,0.0
1163,0.0
1166,0.0
1168,0.0
2,1, 1,13, 0, 2, 0.00,60.00,Monday
7,22.0
545,20.902224469213042
546,17.312454057955577
547,20.723173734547434
548,0.0
720,-1408.1871003485358
721,-1408.1871003485358
784,0.0
785,0.0
848,0.0
849,0.0
1121,0.0
1135,0.0
1161,0.0
1163,0.0
1166,0.0
1168,0.0
2,1, 1,13, 0, 3, 0.00,60.00,Monday
7,21.0
545,20.905643966072322
546,18.56674061705006
547,20.658446391980625
548,0.0
720,-1554.2887873239342
721,-1554.2887873239342
784,0.0
785,0.0
848,0.0
849,0.0
1121,0.0
1135,0.0
1161,0.0
1163,0.0
1166,0.0
1168,0.0
2,1, 1,13, 0, 4, 0.00,60.00,Monday
7,19.0
545,20.735635557888887
546,18.69579919501352
547,20.606232831104375
548,0.0
720,-1568.595864538047
721,-1568.595864538047
784,0.0
785,0.0
848,0.0
849,0.0
1121,0.0
1135,0.0
1161,0.0
1163,0.0
1166,0.0
1168,0.0
2,1, 1,13, 0, 5, 0.00,60.00,Monday
7,10.0
545,19.59505916376671
546,13.123579887815408
547,20.562744567794475
548,0.0
720,-701.1341770576528
721,-701.1341770576528
784,0.0
785,0.0
848,0.0
849,0.0
1121,0.0
1135,0.0
1161,0.0
1163,0.0
1166,0.0
1168,0.0
2,1, 1,13, 0, 6, 0.00,60.00,Monday
7,8.0
545,19.671089368742983
546,10.57273989709896
547,20.493967583130495
548,22.653342300261617
720,825.504513121532
721,825.504513121532
784,0.0
785,0.0
848,0.0
849,0.0
1121,964.4532587594996
1135,262.21707093666964
1161,0.0
1163,172.3692576249153
1166,0.0
1168,0.0
2,1, 1,13, 0, 7, 0.00,60.00,Monday
7,7.0
545,19.7952691413735
546,9.269007757342898
547,20.4489924168449
548,25.80159178242445
720,891.7648384119602
721,891.7648384119602
784,0.0
785,0.0
848,0.0
849,0.0
1121,1073.4431938682699
1135,295.7859398528329
1161,0.0
1163,168.52927369578313
1166,0.0
1168,0.0
2,1, 1,13, 0, 8, 0.00,60.00,Monday
7,6.0
545,20.011385952653196
546,8.277569602946803
547,20.393383202000273
548,25.90519979308234
720,857.0503240409971
721,857.0503240409971
784,0.0
785,0.0
848,0.0
849,0.0
1121,1050.4472256944753
1135,294.5354457440837
1161,0.0
1163,168.40290089778546
1166,0.0
1168,0.0
2,1, 1,13, 0, 9, 0.00,60.00,Monday
7,6.0
545,19.670474391627344
546,7.931254014363462
547,20.329372827261494
548,23.95906160816455
720,778.8873756138655
721,778.8873756138655
784,0.0
785,0.0
848,0.0
849,0.0
1121,969.3119362724813
1135,273.52828802803117
1161,0.0
1163,170.77664522659285
1166,0.0
1168,0.0
2,1, 1,13, 0,10, 0.00,60.00,Monday
7,6.0
545,19.39762411071981
546,8.111144047514257
547,20.24754549953757
548,25.95309681728843
720,850.38349515967
721,850.38349515967
784,0.0
785,0.0
848,0.0
849,0.0
1121,1053.0307268482927
1135,294.35282133905497
1161,0.0
1163,168.34447992313056
1166,0.0
1168,0.0
2,1, 1,13, 0,11, 0.00,60.00,Monday
7,6.0
545,20.034329571438413
546,8.878115342409655
547,20.175298137375638
548,27.04868198885483
720,892.3606080925038
721,892.3606080925038
784,0.0
785,0.0
848,0.0
849,0.0
1121,1099.6546802190298
1135,305.16757783952824
1161,0.0
1163,167.00817240504904
1166,0.0
1168,0.0
2,1, 1,13, 0,12, 0.00,60.00,Monday
7,7.0
545,19.429685283340124
546,9.529899216752778
547,20.11715531258719
548,18.398083407681174
720,601.2710326786037
721,601.2710326786037
784,0.0
785,0.0
848,0.0
849,0.0
1121,760.4043063931211
1135,212.322296718668
1161,0.0
1163,177.55948344862614
1166,0.0
1168,0.0
2,1, 1,13, 0,13, 0.00,60.00,Monday
7,7.5
545,19.878104675170462
546,10.6466964782224
547,20.053474754730637
548,21.24285989818529
720,731.2545253082499
721,731.2545253082499
784,0.0
785,0.0
848,0.0
849,0.0
1121,893.0932755001522
1135,243.69133546862716
1161,0.0
1163,174.08965170009387
1166,0.0
1168,0.0
2,1, 1,13, 0,14, 0.00,60.00,Monday
7,8.0
545,19.98247515968679
546,12.225146615525277
547,20.022221114050385
548,6.085195114641084
720,188.21262463902167
721,188.21262463902167
784,0.0
785,0.0
848,0.0
849,0.0
1121,255.88969031026463
1135,70.78734116069484
1161,0.0
1163,192.5777637451393
1166,0.0
1168,0.0
2,1, 1,13, 0,15, 0.00,60.00,Monday
7,9.0
545,20.375482403544982
546,13.768637540528916
547,19.99311564248276
548,0.0
720,-308.85382697576824
721,-308.85382697576824
784,0.0
785,0.0
848,0.0
849,0.0
1121,0.0
1135,0.0
1161,0.0
1163,200.0
1166,0.0
1168,0.0
2,1, 1,13, 0,16, 0.00,60.00,Monday
7,10.0
545,20.940796608894495
546,14.816579940417235
547,19.978265006998353
548,0.0
720,-913.7719161810255
721,-913.7719161810255
784,0.0
785,0.0
848,0.0
849,0.0
1121,0.0
1135,0.0
1161,0.0
1163,0.0
1166,0.0
1168,0.0
2,1, 1,13, 0,17, 0.00,60.00,Monday
7,10.0
545,21.328316267726944
546,14.30318729635271
547,19.975041252575522
548,0.0
720,-1062.151989108499
721,-1062.151989108499
784,0.0
785,0.0
848,0.0
849,0.0
1121,0.0
1135,0.0
1161,0.0
1163,0.0
1166,0.0
1168,0.0
2,1, 1,13, 0,18, 0.00,60.00,Monday
7,10.0
545,21.539758255358585
546,13.01090148582508
547,19.977589977334297
548,0.0
720,-1204.0842596037564
721,-1204.0842596037564
784,0.0
785,0.0
848,0.0
849,0.0
1121,0.0
1135,0.0
1161,0.0
1163,0.0
1166,0.0
1168,0.0
2,1, 1,13, 0,19, 0.00,60.00,Monday
7,10.0
545,21.497935925462716
546,11.84660378230309
547,19.980511228031794
548,0.0
720,-1276.1147957792873
721,-1276.1147957792873
784,0.0
785,0.0
848,0.0
849,0.0
1121,0.0
1135,0.0
1161,0.0
1163,0.0
1166,0.0
1168,0.0
2,1, 1,13, 0,20, 0.00,60.00,Monday
7,10.0
545,21.344669052053145
546,11.186786055098688
547,19.975802090693318
548,0.0
720,-1197.28240264735
721,-1197.28240264735
784,0.0
785,0.0
848,0.0
849,0.0
1121,0.0
1135,0.0
1161,0.0
1163,0.0
1166,0.0
1168,0.0
2,1, 1,13, 0,21, 0.00,60.00,Monday
7,10.0
545,20.762091334830757
546,11.062405333849904
547,19.95777359988617
548,0.0
720,-851.6932663680418
721,-851.6932663680418
784,0.0
785,0.0
848,0.0
849,0.0
1121,0.0
1135,0.0
1161,0.0
1163,0.0
1166,0.0
1168,0.0
2,1, 1,13, 0,22, 0.00,60.00,Monday
7,9.0
545,20.672497157419727
546,10.137842335774039
547,19.93230003782885
548,0.0
720,-843.2939872744173
721,-843.2939872744173
784,0.0
785,0.0
848,0.0
849,0.0
1121,0.0
1135,0.0
1161,0.0
1163,200.0
1166,0.0
1168,0.0
2,1, 1,13, 0,23, 0.00,60.00,Monday
7,9.0
545,20.248799130500323
546,9.922580449670415
547,19.896038388533306
548,0.0
720,-1336.4503787592403
721,-1336.4503787592403
784,0.0
785,0.0
848,0.0
849,0.0
1121,0.0
1135,0.0
1161,0.0
1163,200.0
1166,0.0
1168,0.0
2,1, 1,13, 0,24, 0.00,60.00,Monday
7,8.0
545,19.632736924528206
546,9.197589093288736
547,19.848408850717167
548,0.0
720,-825.0239913806472
721,-825.0239913806472
784,0.0
785,0.0
848,0.0
849,0.0
1121,0.0
1135,0.0
1161,0.0
1163,200.0
1166,0.0
1168,0.0
2,2, 1,14, 0, 1, 0.00,60.00,Tuesday
7,8.0
545,19.081159289899635
546,8.96901917180918
547,19.792857009864488
548,0.0
720,-383.2234657276713
721,-383.2234657276713
784,0.0
785,0.0
848,0.0
849,0.0
1121,0.0
1135,0.0
1161,0.0
1163,200.0
1166,0.0
1168,0.0
2,2, 1,14, 0, 2, 0.00,60.00,Tuesday
7,8.0
545,18.65884697346865
546,8.783248193360437
547,19.731454961190295
548,0.0
720,-38.061813752870876
721,-38.061813752870876
784,0.0
785,0.0
848,0.0
849,0.0
1121,0.0
1135,0.0
1161,0.0
1163,200.0
1166,0.0
1168,0.0
2,2, 1,14, 0, 3, 0.00,60.00,Tuesday
7,8.0
545,18.619386949413453
546,8.542423416355675
547,19.664018666382532
548,2.646107069939336
720,83.27883041849418
721,83.27883041849418
784,0.0
785,0.0
848,0.0
849,0.0
1121,111.59692013516371
1135,30.090236123991172
1161,0.0
1163,196.7724893846883
1166,0.0
1168,0.0
2,2, 1,14, 0, 4, 0.00,60.00,Tuesday
7,8.0
545,18.584431154926616
546,8.504381321855448
547,19.59161187490009
548,7.057880368531096
720,250.18873218625413
721,250.18873218625413
784,0.0
785,0.0
848,0.0
849,0.0
1121,298.5985241248947
1135,80.19526581167763
1161,0.0
1163,191.39135975644535
1166,0.0
1168,0.0
2,2, 1,14, 0, 5, 0.00,60.00,Tuesday
7,8.0
545,18.407322943595865
546,8.602129031941733
547,19.51988028324488
548,9.71852744773084
720,342.7254161370811
721,342.7254161370811
784,0.0
785,0.0
848,0.0
849,0.0
1121,411.96816248771256
1135,110.34920298650215
1161,0.0
1163,188.14611439609337
1166,0.0
1168,0.0
2,2, 1,14, 0, 6, 0.00,60.00,Tuesday
7,8.0
545,19.460927209824707
546,8.864655854631216
547,19.4284769799653
548,31.0007088710803
720,1128.7463509628215
721,1128.7463509628215
784,0.0
785,0.0
848,0.0
849,0.0
1121,1334.3107965411243
1135,350.8160286031756
1161,0.0
1163,162.1878048321404
1166,0.0
1168,0.0
2,2, 1,14, 0, 7, 0.00,60.00,Tuesday
7,6.0
545,19.675629381904532
546,8.105341447207598
547,19.366597434899525
548,39.356461519481016
720,1328.7627088846111
721,1328.7627088846111
784,0.0
785,0.0
848,0.0
849,0.0
1121,1613.3856564138712
1135,444.26989269198276
1161,0.0
1163,151.99612336996492
1166,0.0
1168,0.0
2,2, 1,14, 0, 8, 0.00,60.00,Tuesday
7,6.0
545,19.641631270702895
546,7.776117853985683
547,19.30548450041292
548,36.702465330660715
720,1209.3028250225707
721,1209.3028250225707
784,0.0
785,0.0
848,0.0
849,0.0
1121,1500.4141676852719
1135,416.0022352656433
1161,0.0
1163,155.23325650404126
1166,0.0
1168,0.0
2,2, 1,14, 0, 9, 0.00,60.00,Tuesday
7,6.0
545,19.532653416353025
546,7.74264451850329
547,19.238235187691153
548,41.78098061409267
720,1385.0881579321012
721,1385.0881579321012
784,0.0
785,0.0
848,0.0
849,0.0
1121,1714.3017052651223
1135,473.22301141214285
1161,0.0
1163,149.03888811528398
1166,0.0
1168,0.0
2,2, 1,14, 0,10, 0.00,60.00,Tuesday
7,6.0
545,19.561856168997224
546,8.009168721123597
547,19.170144340585143
548,47.73418348601998
720,1590.1252419984266
721,1590.1252419984266
784,0.0
785,0.0
848,0.0
849,0.0
1121,1967.6367790644856
1135,539.4848872290758
1161,0.0
1163,141.7776454835979
1166,0.0
1168,0.0
2,2, 1,14, 0,11, 0.00,60.00,Tuesday
7,6.0
545,19.840105642794605
546,8.556660419598852
547,19.11251304732089
548,46.68607506696444
720,1546.4100390313233
721,1546.4100390313233
784,0.0
785,0.0
848,0.0
849,0.0
1121,1922.8070929589933
1135,527.9089184422162
1161,0.0
1163,143.0560446409596
1166,0.0
1168,0.0
2,2, 1,14, 0,12, 0.00,60.00,Tuesday
7,6.0
545,19.61033891714756
546,8.9083158868821
547,19.06090295725842
548,37.8134444330667
720,1228.3309978599955
721,1228.3309978599955
784,0.0
785,0.0
848,0.0
849,0.0
1121,1545.9558948043816
1135,429.85131250423507
1161,0.0
1163,153.87817269540045
1166,0.0
1168,0.0
2,2, 1,14, 0,13, 0.00,60.00,Tuesday
7,7.0
545,19.969036897186026
546,10.525459041759525
547,19.015814074832413
548,29.271732939232013
720,973.8465233464958
721,973.8465233464958
784,0.0
785,0.0
848,0.0
849,0.0
1121,1221.3285362237605
1135,334.82950705796156
1161,0.0
1163,164.29667194377495
1166,0.0
1168,0.0
2,2, 1,14, 0,14, 0.00,60.00,Tuesday
7,8.0
545,20.095264585862836
546,12.745985731513723
547,18.991288631826396
548,12.0305774467268
720,387.53899907260165
721,387.53899907260165
784,0.0
785,0.0
848,0.0
849,0.0
1121,507.8265809714187
1135,140.07686365741958
1161,0.0
1163,185.3260599849686
1166,0.0
1168,0.0
2,2, 1,14, 0,15, 0.00,60.00,Tuesday
7,8.0
545,19.79439300630661
546,13.642967132772565
547,18.97362111663454
548,0.7384819803152312
720,6.169803148415667
721,6.169803148415667
784,0.0
785,0.0
848,0.0
849,0.0
1121,30.919064792003617
1135,8.618909589056818
1161,0.0
1163,199.09925850780542
1166,0.0
1168,0.0
2,2, 1,14, 0,16, 0.00,60.00,Tuesday
7,7.0
545,19.501674895288048
546,12.00822999576529
547,18.963733875003292
548,1.856512734020292
720,61.985934638711115
721,61.985934638711115
784,0.0
785,0.0
848,0.0
849,0.0
1121,75.97248586219622
1135,21.310813691637026
1161,0.0
1163,197.73557365664377
1166,0.0
1168,0.0
2,2, 1,14, 0,17, 0.00,60.00,Tuesday
7,7.0
545,19.90002024602718
546,11.468224200747187
547,18.96157270673268
548,6.345381832653199
720,222.37129084398475
721,222.37129084398475
784,0.0
785,0.0
848,0.0
849,0.0
1121,260.7858327839257
1135,72.43666146408485
1161,0.0
1163,192.26040871295365
1166,0.0
1168,0.0
2,2, 1,14, 0,18, 0.00,60.00,Tuesday
7,7.0
545,19.620840109205744
546,9.775135458101849
547,18.959458564670218
548,0.0
720,-60.42604710354681
721,-60.42604710354681
784,0.0
785,0.0
848,0.0
849,0.0
1121,0.0
1135,0.0
1161,0.0
1163,200.0
1166,0.0
1168,0.0
2,2, 1,14, 0,19, 0.00,60.00,Tuesday
7,7.0
545,19.841739227059616
546,8.926630906277188
547,18.952559804139295
548,0.0
720,-91.98428404408696
721,-91.98428404408696
784,0.0
785,0.0
848,0.0
849,0.0
1121,0.0
1135,0.0
1161,0.0
1163,200.0
1166,0.0
1168,0.0
2,2, 1,14, 0,20, 0.00,60.00,Tuesday
7,7.0
545,19.72812432612388
546,8.282819997338295
547,18.93668318442108
548,0.0
720,-4.053654823430406
721,-4.053654823430406
784,0.0
785,0.0
848,0.0
849,0.0
1121,0.0
1135,0.0
1161,0.0
1163,200.0
1166,0.0
1168,0.0
2,2, 1,14, 0,21, 0.00,60.00,Tuesday
7,7.0
545,19.841124958228885
546,7.920132317703423
547,18.91442117678414
548,0.0
720,-85.79341279481196
721,-85.79341279481196
784,0.0
785,0.0
848,0.0
849,0.0
1121,0.0
1135,0.0
1161,0.0
1163,200.0
1166,0.0
1168,0.0
2,2, 1,14, 0,22, 0.00,60.00,Tuesday
7,7.0
545,19.7329645726373
546,7.621487415552091
547,18.884226866550804
548,0.40063322245454347
720,5.998744767844983
721,5.998744767844983
784,0.0
785,0.0
848,0.0
849,0.0
1121,16.375559604302897
1135,4.602718024681599
1161,0.0
1163,199.5113395096487
1166,0.0
1168,0.0
2,2, 1,14, 0,23, 0.00,60.00,Tuesday
7,7.0
545,19.18912737995576
546,7.429696139612897
547,18.84729796066778
548,0.0
720,-404.1530025844377
721,-404.1530025844377
784,0.0
785,0.0
848,0.0
849,0.0
1121,0.0
1135,0.0
1161,0.0
1163,200.0
1166,0.0
1168,0.0
2,2, 1,14, 0,24, 0.00,60.00,Tuesday
7,7.0
545,18.765424443312103
546,7.399445478416044
547,18.806824695547963
548,0.0
720,-103.42874704765018
721,-103.42874704765018
784,0.0
785,0.0
848,0.0
849,0.0
1121,0.0
1135,0.0
1161,0.0
1163,200.0
1166,0.0
1168,0.0
2,3, 1,15, 0, 1, 0.00,60.00,Wednesday
7,6.0
545,18.57403897767333
546,7.118236017963785
547,18.74931438999269
548,11.658024407445234
720,396.1749223699371
721,396.1749223699371
784,0.0
785,0.0
848,0.0
849,0.0
1121,470.4417008555307
1135,129.82715901904172
1161,0.0
1163,185.78047050474981
1166,0.0
1168,0.0
2,3, 1,15, 0, 2, 0.00,60.00,Wednesday
7,6.0
545,18.58775046122794
546,7.0316685610182015
547,18.693969556593263
548,17.208578641041846
720,575.3253822758252
721,575.3253822758252
784,0.0
785,0.0
848,0.0
849,0.0
1121,697.6378689447344
1135,190.93417811144099
1161,0.0
1163,179.01034660715294
1166,0.0
1168,0.0
2,3, 1,15, 0, 3, 0.00,60.00,Wednesday
7,6.0
545,18.677116173446517
546,7.003561708049026
547,18.634699455040145
548,24.402664719379917
720,816.3380812023115
721,816.3380812023115
784,0.0
785,0.0
848,0.0
849,0.0
1121,994.0973579483845
1135,270.80582718716647
1161,0.0
1163,170.23557348890773
1166,0.0
1168,0.0
2,3, 1,15, 0, 4, 0.00,60.00,Wednesday
7,6.0
545,18.568696764561192
546,7.006217503642974
547,18.575383786910663
548,27.36401293623107
720,907.7430229790771
721,907.7430229790771
784,0.0
785,0.0
848,0.0
849,0.0
1121,1116.563496082452
1135,304.1705782025832
1161,0.0
1163,166.62355683466834
1166,0.0
1168,0.0
2,3, 1,15, 0, 5, 0.00,60.00,Wednesday
7,6.0
545,18.600392783216247
546,7.0077892569532745
547,18.51606825640159
548,29.457081921615547
720,976.7427743611079
721,976.7427743611079
784,0.0
785,0.0
848,0.0
849,0.0
1121,1204.2791656113784
1135,326.7468360193779
1161,0.0
1163,164.07059801994322
1166,0.0
1168,0.0
2,3, 1,15, 0, 6, 0.00,60.00,Wednesday
7,5.0
545,19.223641488974796
546,7.015023795552879
547,18.42246176134165
548,74.24498255577922
720,1902.447632093541
721,1902.447632093541
784,0.0
785,0.0
848,0.0
849,0.0
1121,2331.301119018348
1135,681.3986957374289
1161,67.53822051509421
1163,109.08587397350162
1166,0.0
1168,0.0
2,3, 1,15, 0, 7, 0.00,60.00,Wednesday
7,5.0
545,19.629485649418683
546,7.040192901494208
547,18.38349766770078
548,80.08562514019498
720,1995.6967286319596
721,1995.6967286319596
784,0.0
785,0.0
848,0.0
849,0.0
1121,2518.1734698794835
1135,743.7610286460298
1161,72.85205206628734
1163,101.93285235634507
1166,0.0
1168,0.0
2,3, 1,15, 0, 8, 0.00,60.00,Wednesday
7,4.0
545,19.642592684146816
546,6.556128790668281
547,18.329922155658352
548,80.95797696058624
720,1864.2240429509038
721,1864.2240429509038
784,0.0
785,0.0
848,0.0
849,0.0
1121,2403.562575691351
1135,730.0828023015428
1161,89.16997334198699
1163,100.53189559394377
1166,0.0
1168,0.0
2,3, 1,15, 0, 9, 0.00,60.00,Wednesday
7,4.0
545,19.672266107540345
546,6.326586445739606
547,18.274760101644006
548,85.16185141780134
720,1960.3987238016616
721,1960.3987238016616
784,0.0
785,0.0
848,0.0
849,0.0
1121,2535.879806307223
1135,768.1372582437746
1161,93.80029934279361
1163,95.36681891150582
1166,0.0
1168,0.0
2,3, 1,15, 0,10, 0.00,60.00,Wednesday
7,4.0
545,19.737080536687277
546,6.678336333696675
547,18.22522630994151
548,81.25460261216286
720,1891.4953913597492
721,1891.4953913597492
784,0.0
785,0.0
848,0.0
849,0.0
1121,2463.5749373855247
1135,748.1396415886105
1161,78.94858549753796
1163,100.26543308101621
1166,0.0
1168,0.0
2,3, 1,15, 0,11, 0.00,60.00,Wednesday
7,4.0
545,19.795917312856737
546,7.010561126420127
547,18.176780361189557
548,74.67924566967412
720,1724.9957244917932
721,1724.9957244917932
784,0.0
785,0.0
848,0.0
849,0.0
1121,2252.962200543625
1135,688.4563834702063
1161,72.55997350436354
1163,108.3360710327569
1166,0.0
1168,0.0
2,3, 1,15, 0,12, 0.00,60.00,Wednesday
7,4.0
545,19.69683265991288
546,7.369773792322142
547,18.127051251710963
548,68.23254456903301
720,1569.5134689877632
721,1569.5134689877632
784,0.0
785,0.0
848,0.0
849,0.0
1121,2048.534273321413
1135,629.7338897897133
1161,66.29633075742964
1163,116.24883720537147
1166,0.0
1168,0.0
2,3, 1,15, 0,13, 0.00,60.00,Wednesday
7,4.0
545,19.75673788472828
546,7.659779162731095
547,18.077994695796132
548,67.27579166494779
720,1564.0475619041135
721,1564.0475619041135
784,0.0
785,0.0
848,0.0
849,0.0
1121,2019.386265884726
1135,619.6864957810737
1161,65.36653535447553
1163,117.423433827369
1166,0.0
1168,0.0
2,3, 1,15, 0,14, 0.00,60.00,Wednesday
7,4.0
545,19.785533269999092
546,8.444507304328653
547,18.039219343378555
548,57.494714817914605
720,1346.6927938527879
721,1346.6927938527879
784,0.0
785,0.0
848,0.0
849,0.0
1121,1745.1506218570892
1135,539.5783104134936
1161,49.22952793965514
1163,129.48839659305725
1166,0.0
1168,0.0
2,3, 1,15, 0,15, 0.00,60.00,Wednesday
7,4.0
545,19.717743287528833
546,8.487981184288778
547,18.000776800240477
548,52.31810694763132
720,1207.0465140164597
721,1207.0465140164597
784,0.0
785,0.0
848,0.0
849,0.0
1121,1553.3370662252921
1135,482.734948714213
1161,50.83347314127682
1163,135.7828338939506
1166,0.0
1168,0.0
2,3, 1,15, 0,16, 0.00,60.00,Wednesday
7,4.0
545,19.572406672597147
546,7.607625117252436
547,17.962846459721266
548,56.990089927806366
720,1338.2779678042807
721,1338.2779678042807
784,0.0
785,0.0
848,0.0
849,0.0
1121,1698.1565042776954
1135,525.1189509790917
1161,55.37276482061526
1163,130.0484146272256
1166,0.0
1168,0.0
2,3, 1,15, 0,17, 0.00,60.00,Wednesday
7,4.0
545,19.775556276878643
546,7.306464104611082
547,17.93426384283282
548,48.804040674298165
720,1120.3982350151364
721,1120.3982350151364
784,0.0
785,0.0
848,0.0
849,0.0
1121,1446.890509342053
1135,448.42779792607246
1161,47.41882866073334
1163,140.09650318014602
1166,0.0
1168,0.0
2,3, 1,15, 0,18, 0.00,60.00,Wednesday
7,4.0
545,19.793576200803617
546,6.954465935732932
547,17.913034649485986
548,32.061407585505826
720,717.5071077593366
721,717.5071077593366
784,0.0
785,0.0
848,0.0
849,0.0
1121,956.024485394939
1135,300.9953309530526
1161,27.452413249648995
1163,160.6798245557926
1166,0.0
1168,0.0
2,3, 1,15, 0,19, 0.00,60.00,Wednesday
7,4.0
545,19.650398569523443
546,6.288500410477391
547,17.887261816611378
548,31.630464365697257
720,723.6570947905075
721,723.6570947905075
784,0.0
785,0.0
848,0.0
849,0.0
1121,942.8200718153522
1135,297.04768046297136
1161,27.08343197247885
1163,161.20831756739125
1166,0.0
1168,0.0
2,3, 1,15, 0,20, 0.00,60.00,Wednesday
7,4.0
545,19.493334809391555
546,5.638492446916636
547,17.858694561193836
548,35.369964898529375
720,818.9354809214601
721,818.9354809214601
784,0.0
785,0.0
848,0.0
849,0.0
1121,1057.7189508423976
1135,331.23033851964766
1161,30.28525041552937
1163,156.6223432205693
1166,0.0
1168,0.0
2,3, 1,15, 0,21, 0.00,60.00,Wednesday
7,3.0
545,19.940759526030256
546,5.396158806745794
547,17.824416388107505
548,44.08986217410091
720,992.4061798677758
721,992.4061798677758
784,0.0
785,0.0
848,0.0
849,0.0
1121,1281.874047493132
1135,405.0425860033295
1161,40.3230908687433
1163,145.79728197459394
1166,0.0
1168,0.0
2,3, 1,15, 0,22, 0.00,60.00,Wednesday
7,3.0
545,19.55442095059323
546,5.114786906594821
547,17.790585849738925
548,46.4109217014926
720,1024.336072183256
721,1024.336072183256
784,0.0
785,0.0
848,0.0
849,0.0
1121,1348.7111678989004
1135,430.09102307351634
1161,42.446552784438396
1163,142.94290238775207
1166,0.0
1168,0.0
2,3, 1,15, 0,23, 0.00,60.00,Wednesday
7,3.0
545,18.9300904701912
546,4.83824355554563
547,17.747025312234676
548,31.000190422833032
720,665.0571717527891
721,665.0571717527891
784,0.0
785,0.0
848,0.0
849,0.0
1121,908.4091472911915
1135,289.78425504970244
1161,24.952276520165274
1163,161.92934006801215
1166,0.0
1168,0.0
2,3, 1,15, 0,24, 0.00,60.00,Wednesday
7,3.0
545,18.427677702235062
546,4.522602029960141
547,17.68510579062542
548,40.103378165079256
720,915.4954458022021
721,915.4954458022021
784,0.0
785,0.0
848,0.0
849,0.0
1121,1186.0697297729093
1135,370.31236754966204
1161,32.278853223182566
1163,150.7508966942871
1166,0.0
1168,0.0
2,4, 1,16, 0, 1, 0.00,60.00,Thursday
7,3.0
545,18.430618776507412
546,4.848631094672698
547,17.612556070696858
548,62.373492674279234
720,1477.3301375715619
721,1477.3301375715619
784,0.0
785,0.0
848,0.0
849,0.0
1121,1878.1144222250855
1135,570.267301962945
1161,50.20306682187233
1163,123.40322603535714
1166,0.0
1168,0.0
2,4, 1,16, 0, 2, 0.00,60.00,Thursday
7,3.0
545,18.5102292535561
546,4.843534231981829
547,17.54347925434826
548,79.33371031082767
720,1892.2518554708568
721,1892.2518554708568
784,0.0
785,0.0
848,0.0
849,0.0
1121,2417.7591273426674
1135,725.2730490690938
1161,63.85396870772486
1163,102.5755134600646
1166,0.0
1168,0.0
2,4, 1,16, 0, 3, 0.00,60.00,Thursday
7,3.0
545,18.513881316216526
546,4.995595243704476
547,17.476752431265606
548,90.52480938203743
720,2156.7008418051773
721,2156.7008418051773
784,0.0
785,0.0
848,0.0
849,0.0
1121,2780.080700441515
1135,828.7710171995735
1161,72.86160779028258
1163,88.83220775306823
1166,0.0
1168,0.0
2,4, 1,16, 0, 4, 0.00,60.00,Thursday
7,3.0
545,18.745566400977296
546,5.143819003139166
547,17.419829890080752
548,89.36725242477515
720,2110.26939298441
721,2110.26939298441
784,0.0
785,0.0
848,0.0
849,0.0
1121,2742.2304033922833
1135,818.1950916757909
1161,71.92991642916797
1163,90.25372554291397
1166,0.0
1168,0.0
2,4, 1,16, 0, 5, 0.00,60.00,Thursday
7,4.0
545,18.665454562663037
546,5.318504652390292
547,17.374945814526907
548,71.66098862585197
720,1783.4846145594056
721,1783.4846145594056
784,0.0
785,0.0
848,0.0
849,0.0
1121,2336.8760385006035
1135,696.0435512703837
1161,34.764353302523155
1163,112.33799615680967
1166,0.0
1168,0.0
2,4, 1,16, 0, 6, 0.00,60.00,Thursday
7,4.0
545,19.424870979405647
546,5.638598254307163
547,17.303051793597827
548,102.00133212876861
720,2681.625191189005
721,2681.625191189005
784,0.0
785,0.0
848,0.0
849,0.0
1121,3400.5541356917374
1135,989.0439243237913
1161,49.483076412772334
1163,75.22317481583936
1166,0.0
1168,0.0
2,4, 1,16, 0, 7, 0.00,60.00,Thursday
7,4.0
545,19.678301860838395
546,5.47766983267861
547,17.276488638506734
548,95.54669251313454
720,2426.6533028854337
721,2426.6533028854337
784,0.0
785,0.0
848,0.0
849,0.0
1121,3159.6571478418045
1135,940.0905373657465
1161,46.35225695216196
1163,83.11786812999465
1166,0.0
1168,0.0
2,4, 1,16, 0, 8, 0.00,60.00,Thursday
7,4.0
545,19.77794655759083
546,5.289848277621807
547,17.230348676440684
548,79.8955765942306
720,1968.9331898407072
721,1968.9331898407072
784,0.0
785,0.0
848,0.0
849,0.0
1121,2609.6107029814198
1135,790.0018133872883
1161,38.759615407660895
1163,102.26351903458695
1166,0.0
1168,0.0
2,4, 1,16, 0, 9, 0.00,60.00,Thursday
7,4.0
545,19.65704718247047
546,5.784364980867086
547,17.185215808069188
548,54.594648479873804
720,1285.0340334769862
721,1285.0340334769862
784,0.0
785,0.0
848,0.0
849,0.0
1121,1750.8676975728044
1135,540.9058185202751
1161,26.485452794619203
1163,133.21412181994958
1166,0.0
1168,0.0
2,4, 1,16, 0,10, 0.00,60.00,Thursday
7,5.0
545,19.70602310778126
546,7.443169461994007
547,17.15240856963063
548,30.611124397238687
720,739.6862714492017
721,739.6862714492017
784,0.0
785,0.0
848,0.0
849,0.0
1121,1021.8599352993006
1135,314.455975604641
1161,8.545912585252518
1163,162.62177354326553
1166,0.0
1168,0.0
2,4, 1,16, 0,11, 0.00,60.00,Thursday
7,7.0
545,19.98360279131321
546,10.777080039142941
547,17.14413557337826
548,1.949584197596974
720,12.752262314275868
721,12.752262314275868
784,0.0
785,0.0
848,0.0
849,0.0
1121,79.84568569987596
1135,22.307282456668894
1161,0.0
1163,197.62205249943554
1166,0.0
1168,0.0
2,4, 1,16, 0,12, 0.00,60.00,Thursday
7,8.0
545,20.761267268092446
546,14.276590835737384
547,17.16532223576609
548,0.0
720,-638.2983494879172
721,-638.2983494879172
784,0.0
785,0.0
848,0.0
849,0.0
1121,0.0
1135,0.0
1161,0.0
1163,200.0
1166,0.0
1168,0.0
2,4, 1,16, 0,13, 0.00,60.00,Thursday
7,9.0
545,21.33031186794949
546,16.71435161437193
547,17.210660275555306
548,0.0
720,-1245.7054414009071
721,-1245.7054414009071
784,0.0
785,0.0
848,0.0
849,0.0
1121,0.0
1135,0.0
1161,0.0
1163,200.0
1166,0.0
1168,0.0
2,4, 1,16, 0,14, 0.00,60.00,Thursday
7,11.0
545,22.23466655224539
546,18.129559158292686
547,17.279233452147928
548,0.0
720,-2023.5341745857895
721,-2023.5341745857895
784,0.0
785,0.0
848,0.0
849,0.0
1121,0.0
1135,0.0
1161,0.0
1163,0.0
1166,0.0
1168,0.0
2,4, 1,16, 0,15, 0.00,60.00,Thursday
7,11.0
545,23.315220868508522
546,20.195843762381404
547,17.37730402808509
548,6.370624155799044
720,-3071.217463299925
721,-3071.217463299925
784,0.0
785,0.0
848,0.0
849,0.0
1121,0.0
1135,0.0
1161,0.0
1163,0.0
1166,0.0
1168,0.0
2,4, 1,16, 0,16, 0.00,60.00,Thursday
7,11.0
545,23.313738437978554
546,19.760054287093386
547,17.51487052769014
548,24.95803997566197
720,-3864.9005846019536
721,-3864.9005846019536
784,0.0
785,0.0
848,0.0
849,0.0
1121,0.0
1135,0.0
1161,0.0
1163,0.0
1166,0.0
1168,0.0
2,4, 1,16, 0,17, 0.00,60.00,Thursday
7,10.0
545,23.118164284553615
546,16.336176787450892
547,17.64793774718221
548,37.33182743837566
720,-4975.529813366646
721,-4975.529813366646
784,0.0
785,0.0
848,0.0
849,0.0
1121,0.0
1135,0.0
1161,0.0
1163,0.0
1166,0.0
1168,0.0
2,4, 1,16, 0,18, 0.00,60.00,Thursday
7,9.0
545,23.42507974303657
546,14.224599413002474
547,17.759025268539492
548,26.474631922982645
720,-4843.117041990507
721,-4843.117041990507
784,0.0
785,0.0
848,0.0
849,0.0
1121,0.0
1135,0.0
1161,0.0
1163,167.70835294663436
1166,0.0
1168,0.0
2,4, 1,16, 0,19, 0.00,60.00,Thursday
7,7.0
545,23.366714670961418
546,11.225077130661948
547,17.864890965263434
548,13.797861649366906
720,-4012.8934308043863
721,-4012.8934308043863
784,0.0
785,0.0
848,0.0
849,0.0
1121,0.0
1135,0.0
1161,0.0
1163,183.17046749625484
1166,0.0
1168,0.0
2,4, 1,16, 0,20, 0.00,60.00,Thursday
7,7.0
545,23.354421882107065
546,9.112924674078528
547,17.946900131825004
548,8.359255593387529
720,-3464.891798604156
721,-3464.891798604156
784,0.0
785,0.0
848,0.0
849,0.0
1121,0.0
1135,0.0
1161,0.0
1163,189.8040459245738
1166,0.0
1168,0.0
2,4, 1,16, 0,21, 0.00,60.00,Thursday
7,6.0
545,23.313744241807044
546,7.477450142401894
547,17.995313763073476
548,3.441219081644577
720,-3080.736768729006
721,-3080.736768729006
784,0.0
785,0.0
848,0.0
849,0.0
1121,0.0
1135,0.0
1161,0.0
1163,195.8026750913463
1166,0.0
1168,0.0
2,4, 1,16, 0,22, 0.00,60.00,Thursday
7,6.0
545,23.11291162624562
546,6.302891485105588
547,18.018509805500585
548,0.0
720,-2540.8545021834125
721,-2540.8545021834125
784,0.0
785,0.0
848,0.0
849,0.0
1121,0.0
1135,0.0
1161,0.0
1163,200.0
1166,0.0
1168,0.0
2,4, 1,16, 0,23, 0.00,60.00,Thursday
7,4.0
545,22.29466349020124
546,4.451823247152474
547,18.022707258367518
548,0.0
720,-2583.2451035132344
721,-2583.2451035132344
784,0.0
785,0.0
848,0.0
849,0.0
1121,0.0
1135,0.0
1161,0.0
1163,200.0
1166,0.0
1168,0.0
2,4, 1,16, 0,24, 0.00,60.00,Thursday
7,4.0
545,21.552084682312984
546,2.812094872657007
547,18.006966712141384
548,0.0
720,-2227.6658272279547
721,-2227.6658272279547
784,0.0
785,0.0
848,0.0
849,0.0
1121,0.0