Program Version,EnergyPlus, Version 22.2.0-c249759bad, YMD=2023.09.01 14:32
1,5,Environment Title[],Latitude[deg],Longitude[deg],Time Zone[],Elevation[m]
2,8,Day of Simulation[],Month[],Day of Month[],DST Indicator[1=yes 0=no],Hour[],StartMinute[],EndMinute[],DayType
3,5,Cumulative Day of Simulation[],Month[],Day of Month[],DST Indicator[1=yes 0=no],DayType  ! When Daily Report Variables Requested
4,2,Cumulative Days of Simulation[],Month[]  ! When Monthly Report Variables Requested
5,1,Cumulative Days of Simulation[] ! When Run Period Report Variables Requested
6,1,Calendar Year of Simulation[] ! When Annual Report Variables Requested
7,1,Environment,Site Outdoor Air Drybulb Temperature [C] !Hourly
545,1,LIVING,Zone Mean Air Temperature [C] !Hourly
546,1,ATTIC,Zone Mean Air Temperature [C] !Hourly
547,1,CRAWLSPACE,Zone Mean Air Temperature [C] !Hourly
548,1,FAN,Fan Electricity Rate [W] !Hourly
720,1,LIVING,Zone Predicted Sensible Load to Heating Setpoint Heat Transfer Rate [W] !Hourly
721,1,LIVING,Zone System Predicted Sensible Load to Heating Setpoint Heat Transfer Rate [W] !Hourly
784,1,ATTIC,Zone Predicted Sensible Load to Heating Setpoint Heat Transfer Rate [W] !Hourly
785,1,ATTIC,Zone System Predicted Sensible Load to Heating Setpoint Heat Transfer Rate [W] !Hourly
848,1,CRAWLSPACE,Zone Predicted Sensible Load to Heating Setpoint Heat Transfer Rate [W] !Hourly
849,1,CRAWLSPACE,Zone System Predicted Sensible Load to Heating Setpoint Heat Transfer Rate [W] !Hourly
1121,1,DX_HEATING_COIL,Heating Coil Heating Rate [W] !Hourly
1135,1,DX_HEATING_COIL,Heating Coil Electricity Rate [W] !Hourly
1161,1,DX_HEATING_COIL,Heating Coil Defrost Electricity Rate [W] !Hourly
1163,1,DX_HEATING_COIL,Heating Coil Crankcase Heater Electricity Rate [W] !Hourly
1166,1,HEATING_RESISTANCE_BACKUP,Heating Coil Heating Rate [W] !Hourly
1168,1,HEATING_RESISTANCE_BACKUP,Heating Coil Electricity Rate [W] !Hourly
End of Data Dictionary
1,EXTREME_WINTER,  41.73, -71.43,  -5.00,  19.00
2,1, 1,27, 0, 1, 0.00,60.00,Monday
7,0.0
545,18.735902248019705
546,-1.11552348768265
547,19.28932126491803
548,7.376816737771589
720,42.066319649356956
721,42.066319649356956
784,0.0
785,0.0
848,0.0
849,0.0
1121,211.1941876037097
1135,71.53576137129893
1161,1.8253568824836666
1163,189.30471824163874
1166,0.0
1168,0.0
2,1, 1,27, 0, 2, 0.00,60.00,Monday
7,0.0
545,18.56593042051277
546,-1.1350412015314888
547,18.964140046952195
548,28.606448197003996
720,601.0235479266848
721,601.0235479266848
784,0.0
785,0.0
848,0.0
849,0.0
1121,835.4610906785427
1135,274.4025794482631
1161,7.078454046510632
1163,158.52533761067355
1166,0.0
1168,0.0
2,1, 1,27, 0, 3, 0.00,60.00,Monday
7,-1.7
545,18.334373276337118
546,-1.2566012172187362
547,18.762687068513543
548,49.68540985044652
720,998.4721570287147
721,998.4721570287147
784,0.0
785,0.0
848,0.0
849,0.0
1121,1389.387135440799
1135,462.18811623161486
1161,17.49283996064017
1163,127.73936568418902
1166,0.0
1168,0.0
2,1, 1,27, 0, 4, 0.00,60.00,Monday
7,-1.1
545,18.438234268484166
546,-0.7940304236083975
547,18.548520482735682
548,74.1086036396662
720,1554.3009769879318
721,1554.3009769879318
784,0.0
785,0.0
848,0.0
849,0.0
1121,2165.8975591844487
1135,692.7461907264228
1161,23.11431587643308
1163,92.35826474637858
1166,0.0
1168,0.0
2,1, 1,27, 0, 5, 0.00,60.00,Monday
7,0.0
545,18.523387677723953
546,-0.009287986733901736
547,18.378460331660477
548,82.53076735772902
720,1791.8598572246756
721,1791.8598572246756
784,0.0
785,0.0
848,0.0
849,0.0
1121,2538.5459305591735
1135,789.9241058828542
1161,17.508931975916877
1163,80.40804687301606
1166,0.0
1168,0.0
2,1, 1,27, 0, 6, 0.00,60.00,Monday
7,-0.6
545,19.209264170943683
546,0.7758165897623464
547,18.17491128868654
548,125.82422742693097
720,2838.584930568586
721,2838.584930568586
784,0.0
785,0.0
848,0.0
849,0.0
1121,3932.828407132656
1135,1194.6046695865882
1161,31.045290355604834
1163,17.512258140953584
1166,0.0
1168,0.0
2,1, 1,27, 0, 7, 0.00,60.00,Monday
7,-0.6
545,19.54274881856968
546,1.117597533297882
547,18.05340096124013
548,129.2250492804801
720,2809.962787039647
721,2809.962787039647
784,0.0
785,0.0
848,0.0
849,0.0
1121,4037.8434585890222
1135,1243.3998957219871
1161,31.847900487035343
1163,12.578288958656048
1166,0.0
1168,0.0
2,1, 1,27, 0, 8, 0.00,60.00,Monday
7,-0.6
545,19.727321401709
546,1.195807489410205
547,17.926898643650297
548,112.18281893852625
720,2318.6694335138927
721,2318.6694335138927
784,0.0
785,0.0
848,0.0
849,0.0
1121,3447.2240038765076
1135,1086.5013548520003
1161,27.647975814041754
1163,37.29442585997711
1166,0.0
1168,0.0
2,1, 1,27, 0, 9, 0.00,60.00,Monday
7,1.7
545,19.830652324798287
546,2.8892068022045323
547,17.825181771028383
548,72.93851551186543
720,1515.1395031485536
721,1515.1395031485536
784,0.0
785,0.0
848,0.0
849,0.0
1121,2339.0440048659398
1135,733.0369164905705
1161,10.227175099447695
1163,94.47692958064826
1166,0.0
1168,0.0
2,1, 1,27, 0,10, 0.00,60.00,Monday
7,2.8
545,19.873782579893614
546,5.374043009988036
547,17.724916506594607
548,36.87828714316591
720,741.591064377506
721,741.591064377506
784,0.0
785,0.0
848,0.0
849,0.0
1121,1201.5298259264703
1135,381.21372360273375
1161,0.7372144431727438
1163,146.7174510038918
1166,0.0
1168,0.0
2,1, 1,27, 0,11, 0.00,60.00,Monday
7,4.4
545,19.98674116787268
546,8.449751197457598
547,17.650084950614165
548,0.0
720,-78.32197617438942
721,-78.32197617438942
784,0.0
785,0.0
848,0.0
849,0.0
1121,0.0
1135,0.0
1161,0.0
1163,200.0
1166,0.0
1168,0.0
2,1, 1,27, 0,12, 0.00,60.00,Monday
7,5.0
545,20.52879133961235
546,11.638069770867967
547,17.601138396016978
548,0.0
720,-629.9518191696916
721,-629.9518191696916
784,0.0
785,0.0
848,0.0
849,0.0
1121,0.0
1135,0.0
1161,0.0
1163,200.0
1166,0.0
1168,0.0
2,1, 1,27, 0,13, 0.00,60.00,Monday
7,5.6
545,20.941276482185295
546,13.674434441328419
547,17.57703996326372
548,0.0
720,-938.8516988042902
721,-938.8516988042902
784,0.0
785,0.0
848,0.0
849,0.0
1121,0.0
1135,0.0
1161,0.0
1163,200.0
1166,0.0
1168,0.0
2,1, 1,27, 0,14, 0.00,60.00,Monday
7,5.6
545,21.615656561255882
546,14.32423989862139
547,17.57512877368051
548,0.0
720,-1523.1332148990477
721,-1523.1332148990477
784,0.0
785,0.0
848,0.0
849,0.0
1121,0.0
1135,0.0
1161,0.0
1163,200.0
1166,0.0
1168,0.0
2,1, 1,27, 0,15, 0.00,60.00,Monday
7,5.6
545,22.628708437765805
546,14.79164970518999
547,17.59191733960506
548,0.0
720,-2338.8917245718003
721,-2338.8917245718003
784,0.0
785,0.0
848,0.0
849,0.0
1121,0.0
1135,0.0
1161,0.0
1163,200.0
1166,0.0
1168,0.0
2,1, 1,27, 0,16, 0.00,60.00,Monday
7,5.0
545,22.915441081370176
546,11.824050695001127
547,17.618492726544314
548,0.0
720,-2456.7144166873004
721,-2456.7144166873004
784,0.0
785,0.0
848,0.0
849,0.0
1121,0.0
1135,0.0
1161,0.0
1163,200.0
1166,0.0
1168,0.0
2,1, 1,27, 0,17, 0.00,60.00,Monday
7,4.4
545,23.072743141903477
546,10.38468194256942
547,17.66836651975335
548,0.0
720,-2656.9781958877174
721,-2656.9781958877174
784,0.0
785,0.0
848,0.0
849,0.0
1121,0.0
1135,0.0
1161,0.0
1163,200.0
1166,0.0
1168,0.0
2,1, 1,27, 0,18, 0.00,60.00,Monday
7,2.8
545,22.353254626351
546,7.614594100372318
547,17.706706906135253
548,0.0
720,-2020.1172230772627
721,-2020.1172230772627
784,0.0
785,0.0
848,0.0
849,0.0
1121,0.0
1135,0.0
1161,0.0
1163,200.0
1166,0.0
1168,0.0
2,1, 1,27, 0,19, 0.00,60.00,Monday
7,2.2
545,22.25197610524125
546,5.771302550993791
547,17.725088714331662
548,0.0
720,-2048.6535015988084
721,-2048.6535015988084
784,0.0
785,0.0
848,0.0
849,0.0
1121,0.0
1135,0.0
1161,0.0
1163,200.0
1166,0.0
1168,0.0
2,1, 1,27, 0,20, 0.00,60.00,Monday
7,2.2
545,22.04893156612799
546,4.053791934824112
547,17.71573676203724
548,0.0
720,-1777.5852403440676
721,-1777.5852403440676
784,0.0
785,0.0
848,0.0
849,0.0
1121,0.0
1135,0.0
1161,0.0
1163,200.0
1166,0.0
1168,0.0
2,1, 1,27, 0,21, 0.00,60.00,Monday
7,0.0
545,21.467872988732644
546,2.1087186644337397
547,17.685694965788677
548,0.0
720,-1311.2585669135115
721,-1311.2585669135115
784,0.0
785,0.0
848,0.0
849,0.0
1121,0.0
1135,0.0
1161,0.0
1163,200.0
1166,0.0
1168,0.0
2,1, 1,27, 0,22, 0.00,60.00,Monday
7,-0.6
545,20.73083704694541
546,0.8929895732932374
547,17.63680207191397
548,0.0
720,-809.4297274568435
721,-809.4297274568435
784,0.0
785,0.0
848,0.0
849,0.0
1121,0.0
1135,0.0
1161,0.0
1163,200.0
1166,0.0
1168,0.0
2,1, 1,27, 0,23, 0.00,60.00,Monday
7,-0.6
545,20.04624026070398
546,0.355311730466069
547,17.577842800877765
548,0.0
720,-1172.360953112513
721,-1172.360953112513
784,0.0
785,0.0
848,0.0
849,0.0
1121,0.0
1135,0.0
1161,0.0
1163,200.0
1166,0.0
1168,0.0
2,1, 1,27, 0,24, 0.00,60.00,Monday
7,-1.7
545,19.030574345687572
546,-0.6235772962802361
547,17.50275985913628
548,0.0
720,-331.59384718828005
721,-331.59384718828005
784,0.0
785,0.0
848,0.0
849,0.0
1121,0.0
1135,0.0
1161,0.0
1163,200.0
1166,0.0
1168,0.0
2,2, 1,28, 0, 1, 0.00,60.00,Tuesday
7,-1.7
545,18.67292967773777
546,-0.9505673885625732
547,17.40562502334161
548,22.990679311106117
720,361.76499840134056
721,361.76499840134056
784,0.0
785,0.0
848,0.0
849,0.0
1121,640.2674881967207
1135,219.3486671782039
1161,4.958149770133809
1163,166.65237638986602
1166,0.0
1168,0.0
2,2, 1,28, 0, 2, 0.00,60.00,Tuesday
7,-1.7
545,18.542832954505382
546,-1.049137605024347
547,17.30068539921787
548,42.54788989623411
720,844.3265653865592
721,844.3265653865592
784,0.0
785,0.0
848,0.0
849,0.0
1121,1206.3179155687685
1135,403.00935645808164
1161,9.175770619450388
1163,138.28541711395306
1166,0.0
1168,0.0
2,2, 1,28, 0, 3, 0.00,60.00,Tuesday
7,-3.9
545,18.2605405562315
546,-0.9464581010402547
547,17.17528407465907
548,72.35489060020618
720,1370.3365876297285
721,1370.3365876297285
784,0.0
785,0.0
848,0.0
849,0.0
1121,1951.0151410084459
1135,663.7818421972808
1161,22.768366062438936
1163,94.64492875009209
1166,0.0
1168,0.0
2,2, 1,28, 0, 4, 0.00,60.00,Tuesday
7,-2.8
545,18.42366258851111
546,-0.38493055119471337
547,17.061820572835572
548,97.65681095691717
720,1952.1484548003846
721,1952.1484548003846
784,0.0
785,0.0
848,0.0
849,0.0
1121,2781.079474476001
1135,898.3705275897869
1161,30.444519039584716
1163,57.955079836789466
1166,0.0
1168,0.0
2,2, 1,28, 0, 5, 0.00,60.00,Tuesday
7,-3.3
545,18.4881533041038
546,-0.6896570061017745
547,16.95303697633055
548,112.91513325240322
720,2214.8521104539886
721,2214.8521104539886
784,0.0
785,0.0
848,0.0
849,0.0
1121,3218.226906834173
1135,1039.96741160625
1161,33.4291393703185
1163,35.75066342636124
1166,0.0
1168,0.0
2,2, 1,28, 0, 6, 0.00,60.00,Tuesday
7,-3.9
545,19.237417379042032
546,-1.1782075353340271
547,16.832312505981218
548,138.4479186974383
720,3374.2880942550837
721,3374.2880942550837
784,0.0
785,0.0
848,0.0
849,0.0
1121,3953.2647454706107
1135,1257.7948201908941
1161,43.26260354618112
1163,0.0
1166,831.6556773767174
1168,831.6556773767174
2,2, 1,28, 0, 7, 0.00,60.00,Tuesday
7,-4.4
545,19.556791802185106
546,-1.1660650276329985
547,16.762440516110598
548,138.4479186974383
720,3490.7997800899284
721,3490.7997800899284
784,0.0
785,0.0
848,0.0
849,0.0
1121,3844.2962773656936
1135,1258.6211159478778
1161,52.216262609134056
1163,0.0
1166,1219.2622809993545
1168,1219.2622809993545
2,2, 1,28, 0, 8, 0.00,60.00,Tuesday
7,-4.4
545,19.667588755604122
546,-0.5926362665621688
547,16.670742279096448
548,138.4479186974383
720,3269.3527384694826
721,3269.3527384694826
784,0.0
785,0.0
848,0.0
849,0.0
1121,3837.6610021867054
1135,1266.3951237527615
1161,52.216262609134056
1163,0.0
1166,1015.873995715478
1168,1015.873995715478
2,2, 1,28, 0, 9, 0.00,60.00,Tuesday
7,0.0
545,19.76497887994866
546,1.3682103571987614
547,16.61148522111897
548,126.34530480037041
720,2593.955438629602
721,2593.955438629602
784,0.0
785,0.0
848,0.0
849,0.0
1121,4015.562076189895
1135,1236.5241913065202
1161,26.63194554009327
1163,16.918810602933966
1166,0.0
1168,0.0
2,2, 1,28, 0,10, 0.00,60.00,Tuesday
7,0.6
545,19.769932767533223
546,3.8570224863209313
547,16.51906330362978
548,118.04377423095433
720,2517.1618734613694
721,2517.1618734613694
784,0.0
785,0.0
848,0.0
849,0.0
1121,3778.111662659836
1135,1161.7250086573545
1161,26.02917293495332
1163,28.976826914726985
1166,0.0
1168,0.0
2,2, 1,28, 0,11, 0.00,60.00,Tuesday
7,1.0
545,19.766611923460477
546,5.126974727349642
547,16.435030446718436
548,101.24134675068228
720,2151.1856480248116
721,2151.1856480248116
784,0.0
785,0.0
848,0.0
849,0.0
1121,3164.2526151042885
1135,981.7102776428194
1161,36.053801907538684
1163,53.094035472762236
1166,0.0
1168,0.0
2,2, 1,28, 0,12, 0.00,60.00,Tuesday
7,1.7
545,19.89044234286669
546,7.059604251661127
547,16.372993514609263
548,85.21263133644666
720,1815.067507242462
721,1815.067507242462
784,0.0
785,0.0
848,0.0
849,0.0
1121,2618.2739355272847
1135,814.250194311421
1161,42.851089303496245
1163,76.21155020183534
1166,0.0
1168,0.0
2,2, 1,28, 0,13, 0.00,60.00,Tuesday
7,1.0
545,19.783546950663933
546,7.239712168569797
547,16.324054842433068
548,83.3375488216054
720,1788.5634227715345
721,1788.5634227715345
784,0.0
785,0.0
848,0.0
849,0.0
1121,2483.954228171467
1135,786.9635070266296
1161,47.21668329833445
1163,78.72955295751352
1166,0.0
1168,0.0
2,2, 1,28, 0,14, 0.00,60.00,Tuesday
7,0.6
545,19.71876726761464
546,6.798670214649277
547,16.280062859538
548,88.41126997573181
720,1885.1849849638347
721,1885.1849849638347
784,0.0
785,0.0
848,0.0
849,0.0
1121,2574.03882989688
1135,817.3573403216733
1161,60.374089178900775
1163,71.05052080093135
1166,0.0
1168,0.0
2,2, 1,28, 0,15, 0.00,60.00,Tuesday
7,1.0
545,19.811120292017982
546,7.473037319382295
547,16.2380688162452
548,71.75296376293296
720,1459.822457174787
721,1459.822457174787
784,0.0
785,0.0
848,0.0
849,0.0
1121,2045.3620833729294
1135,653.6995900002821
1161,57.25898153761562
1163,95.24249429249778
1166,0.0
1168,0.0
2,2, 1,28, 0,16, 0.00,60.00,Tuesday
7,2.2
545,19.88939307704588
546,7.860236681365806
547,16.204679706661924
548,50.44768645547178
720,1059.8875525747426
721,1059.8875525747426
784,0.0
785,0.0
848,0.0
849,0.0
1121,1490.5699652049677
1135,474.2047466656809
1161,32.89753563659203
1163,126.63694593205257
1166,0.0
1168,0.0
2,2, 1,28, 0,17, 0.00,60.00,Tuesday
7,1.7
545,19.883073190972677
546,6.888225560139056
547,16.173032411108803
548,32.305557686672806
720,658.6362950190887
721,658.6362950190887
784,0.0
785,0.0
848,0.0
849,0.0
1121,940.777393535428
1135,306.9828119106778
1161,18.095987142182754
1163,153.03730798155496
1166,0.0
1168,0.0
2,2, 1,28, 0,18, 0.00,60.00,Tuesday
7,1.1
545,19.2643462596953
546,3.8797307708363276
547,16.153247644876515
548,40.580047920002215
720,867.9526146150711
721,867.9526146150711
784,0.0
785,0.0
848,0.0
849,0.0
1121,1174.9799341154533
1135,384.9521643141867
1161,21.83399941482657
1163,140.97985375656222
1166,0.0
1168,0.0
2,2, 1,28, 0,19, 0.00,60.00,Tuesday
7,1.0
545,18.70967038357716
546,3.214447637242524
547,16.119670163419485
548,70.44930565606381
720,1577.332428167505
721,1577.332428167505
784,0.0
785,0.0
848,0.0
849,0.0
1121,2121.6744307959566
1135,668.0701533063316
1161,31.365999332705584
1163,97.65534990498085
1166,0.0
1168,0.0
2,2, 1,28, 0,20, 0.00,60.00,Tuesday
7,-2.0
545,19.753017444051004
546,2.0311580276148353
547,16.067187508838636
548,99.98095156144095
720,2053.467117160717
721,2053.467117160717
784,0.0
785,0.0
848,0.0
849,0.0
1121,2822.0248952935335
1135,907.6427380724316
1161,52.363367600168026
1163,54.020274028440475
1166,0.0
1168,0.0
2,2, 1,28, 0,21, 0.00,60.00,Tuesday
7,-4.4
545,19.274317850556045
546,-1.5087175682262646
547,16.03726743107251
548,138.4479186974383
720,2945.2586419455456
721,2945.2586419455456
784,0.0
785,0.0
848,0.0
849,0.0
1121,4051.6137802182448
1135,1342.1481945259693
1161,0.06727447147378579
1163,0.0
1166,134.79544264284095
1168,134.79544264284095
2,2, 1,28, 0,22, 0.00,60.00,Tuesday
7,-6.1
545,19.51161304641866
546,-2.7122263936124162
547,15.939579242157265
548,138.4479186974383
720,3362.878440339311
721,3362.878440339311
784,0.0
785,0.0
848,0.0
849,0.0
1121,3866.9038999831146
1135,1310.7395312238239
1161,0.06727447147378579
1163,0.0
1166,1060.5386114924145
1168,1060.5386114924145
2,2, 1,28, 0,23, 0.00,60.00,Tuesday
7,-6.7
545,18.866455581933693
546,-3.760763891327342
547,15.872339781304499
548,138.4479186974383
720,3615.646633170254
721,3615.646633170254
784,0.0
785,0.0
848,0.0
849,0.0
1121,3794.1880527179815
1135,1309.873008529672
1161,0.06727447147378579
1163,0.0
1166,1559.4790768233001
1168,1559.4790768233001
2,2, 1,28, 0,24, 0.00,60.00,Tuesday
7,-6.7
545,18.697512874796004
546,-3.7242607706353916
547,15.75485250673525
548,138.4479186974383
720,3107.342502726
721,3107.342502726
784,0.0
785,0.0
848,0.0
849,0.0
1121,3808.312301589501
1135,1293.650399957418
1161,0.06727447147378579
1163,0.0
1166,978.4606247220008
1168,978.4606247220008
2,3, 1,29, 0, 1, 0.00,60.00,Wednesday
7,-7.8
545,18.63277871045024
546,-4.194490523091117
547,15.643302500106202
548,138.4479186974383
720,3171.0100495171137
721,3171.0100495171137
784,0.0
785,0.0
848,0.0
849,0.0
1121,3648.2126462592946
1135,1262.921028416249
1161,11.011409226676566
1163,0.0
1166,1190.5556978123188
1168,1190.5556978123188
2,3, 1,29, 0, 2, 0.00,60.00,Wednesday
7,-7.8
545,18.599735371750292
546,-4.368171417819009
547,15.530985077950074
548,138.4479186974383
720,3534.0110482447344
721,3534.0110482447344
784,0.0
785,0.0
848,0.0
849,0.0
1121,3649.7201343760494
1135,1261.2083092919581
1161,11.011409226676566
1163,0.0
1166,1627.0285425524276
1168,1627.0285425524276
2,3, 1,29, 0, 3, 0.00,60.00,Wednesday
7,-8.3
545,18.56899362216196
546,-5.096148489504348
547,15.406538105201012
548,138.4479186974383
720,4583.270509603006
721,4583.270509603006
784,0.0
785,0.0
848,0.0
849,0.0
1121,3637.2209947727592
1135,1269.1263260106043
1161,0.06727447147378579
1163,0.0
1166,2878.7586477228733
1168,2878.7586477228733
2,3, 1,29, 0, 4, 0.00,60.00,Wednesday
7,-8.9
545,18.55686723809188
546,-5.800220007626428
547,15.283094351364015
548,138.4479186974383
720,5225.304375147161
721,5225.304375147161
784,0.0
785,0.0
848,0.0
849,0.0
1121,3572.7840501740948
1135,1261.6442585310765
1161,0.06727447147378579
1163,0.0
1166,3754.7689447850785
1168,3754.7689447850785
2,3, 1,29, 0, 5, 0.00,60.00,Wednesday
7,-10.0
545,18.548291044113213
546,-6.837175345236148
547,15.151541515332392
548,138.4479186974383
720,5817.560222206943
721,5817.560222206943
784,0.0
785,0.0
848,0.0
849,0.0
1121,3455.305491415135
1135,1249.0689012215635
1161,0.06727447147378579
1163,0.0
1166,4624.433901592035
1168,4624.433901592035
2,3, 1,29, 0, 6, 0.00,60.00,Wednesday
7,-10.6
545,19.337514784118138
546,-7.665827790997323
547,15.02470241183035
548,138.4479186974383
720,6263.192156104258
721,6263.192156104258
784,0.0
785,0.0
848,0.0
849,0.0
1121,3392.2843196845533
1135,1242.0305130816284
1161,0.06727447147378579
1163,0.0
1166,5266.280671836247
1168,5266.280671836247
2,3, 1,29, 0, 7, 0.00,60.00,Wednesday
7,-11.1
545,19.558130346396922
546,-7.9483284299520935
547,14.93009444786852
548,138.4479186974383
720,6750.130328913192
721,6750.130328913192
784,0.0
785,0.0
848,0.0
849,0.0
1121,3323.448105971565
1135,1254.4163275728279
1161,0.06727447147378579
1163,0.0
1166,6033.564868952653
1168,6033.564868952653
2,3, 1,29, 0, 8, 0.00,60.00,Wednesday
7,-11.1
545,19.64796989621126
546,-7.9729633489871565
547,14.811205473486003
548,138.4479186974383
720,6064.10159515699
721,6064.10159515699
784,0.0
785,0.0
848,0.0
849,0.0
1121,3318.8579100102934
1135,1259.389548522437
1161,0.06727447147378579
1163,0.0
1166,5305.1502226672
1168,5305.1502226672
2,3, 1,29, 0, 9, 0.00,60.00,Wednesday
7,-10.0
545,19.700735949076982
546,-6.215403799033432
547,14.715933102772027
548,138.4479186974383
720,4754.895238169111
721,4754.895238169111
784,0.0
785,0.0
848,0.0
849,0.0
1121,3432.548420475355
1135,1274.1890047915797
1161,0.06727447147378579
1163,0.0
1166,3670.783561566734
1168,3670.783561566734
2,3, 1,29, 0,10, 0.00,60.00,Wednesday
7,-8.9
545,19.723649273899213
546,-4.830343536732404
547,14.623504001281505
548,138.4479186974383
720,4028.0949404808925
721,4028.0949404808925
784,0.0
785,0.0
848,0.0
849,0.0
1121,3549.300021732042
1135,1287.9541137696626
1161,0.06727447147378579
1163,0.0
1166,2605.5648643314403
1168,2605.5648643314403
2,3, 1,29, 0,11, 0.00,60.00,Wednesday
7,-7.8
545,19.73048421220005
546,-2.823238442510048
547,14.562670090732043
548,138.4479186974383
720,3546.6008163521237
721,3546.6008163521237
784,0.0
785,0.0
848,0.0
849,0.0
1121,3668.9191761935977
1135,1300.906464535739
1161,0.06727447147378579
1163,0.0
1166,1832.846153348954
1168,1832.846153348954
2,3, 1,29, 0,12, 0.00,60.00,Wednesday
7,-8.3
545,19.72356503931871
546,-3.1218043799739688
547,14.509451949805293
548,138.4479186974383
720,3646.593763595447
721,3646.593763595447
784,0.0
785,0.0
848,0.0
849,0.0
1121,3614.054841036849
1135,1295.2724968841417
1161,0.06727447147378579
1163,0.0
1166,1888.7756893632327
1168,1888.7756893632327
2,3, 1,29, 0,13, 0.00,60.00,Wednesday
7,-6.7
545,19.692144337514065
546,-2.2413129285843008
547,14.493410943983259
548,138.4479186974383
720,4329.1834762724375
721,4329.1834762724375
784,0.0
785,0.0
848,0.0
849,0.0
1121,3791.413139599917
1135,1313.0593442992097
1161,0.06727447147378579
1163,0.0
1166,2517.359733040778
1168,2517.359733040778
2,3, 1,29, 0,14, 0.00,60.00,Wednesday
7,-6.7
545,19.706776266454597
546,-2.2510767617246485
547,14.48056754428555
548,138.4479186974383
720,4029.0824726722203
721,4029.0824726722203
784,0.0
785,0.0
848,0.0
849,0.0
1121,3792.1219006532497
1135,1312.2455333036046
1161,0.06727447147378579
1163,0.0
1166,2144.7931489939165
1168,2144.7931489939165
2,3, 1,29, 0,15, 0.00,60.00,Wednesday
7,-6.7
545,19.754145668851066
546,-1.427478591653331
547,14.495322779637407
548,138.4479186974383
720,2282.016899139124
721,2282.016899139124
784,0.0
785,0.0
848,0.0
849,0.0
1121,3791.721975179702
1135,1312.704737275604
1161,0.06727447147378579
1163,0.0
1166,91.950532273323
1168,91.950532273323
2,3, 1,29, 0,16, 0.00,60.00,Wednesday
7,-7.2
545,19.69923851455057
546,-3.231390400709423
547,14.490799400219307
548,138.4479186974383
720,3811.995930575813
721,3811.995930575813
784,0.0
785,0.0
848,0.0
849,0.0
1121,3734.914433525883
1135,1308.161665255613
1161,0.06727447147378579
1163,0.0
1166,1856.028866778043
1168,1856.028866778043
2,3, 1,29, 0,17, 0.00,60.00,Wednesday
7,-8.3
545,19.726361946678438
546,-4.125372647512936
547,14.507022036960437
548,138.4479186974383
720,2530.976247366969
721,2530.976247366969
784,0.0
785,0.0
848,0.0
849,0.0
1121,3614.7917747937545
1135,1294.4418680817619
1161,0.06727447147378579
1163,0.0
1166,580.0795899322043
1168,580.0795899322043
2,3, 1,29, 0,18, 0.00,60.00,Wednesday
7,-9.4
545,19.703377288662395
546,-5.37369458191235
547,14.505181105011111
548,138.4479186974383
720,3007.1744041951133
721,3007.1744041951133
784,0.0
785,0.0
848,0.0
849,0.0
1121,3495.1743472778353
1135,1282.5777964869876
1161,0.06727447147378579
1163,0.0
1166,1272.0289633124971
1168,1272.0289633124971
2,3, 1,29, 0,19, 0.00,60.00,Wednesday
7,-9.4
545,19.662106302033756
546,-6.097519505083324
547,14.481613894911357
548,138.4479186974383
720,3966.183003474128
721,3966.183003474128
784,0.0
785,0.0
848,0.0
849,0.0
1121,3495.703111778541
1135,1281.9905522127478
1161,0.06727447147378579
1163,0.0
1166,2460.022192722463
1168,2460.022192722463
2,3, 1,29, 0,20, 0.00,60.00,Wednesday
7,-9.4
545,19.666660492358535
546,-6.2644208683779015
547,14.436270522499443
548,138.4479186974383
720,4234.934077698083
721,4234.934077698083
784,0.0
785,0.0
848,0.0
849,0.0
1121,3496.6235125222065
1135,1280.9682141375997
1161,0.06727447147378579
1163,0.0
1166,2838.474871724935
1168,2838.474871724935
2,3, 1,29, 0,21, 0.00,60.00,Wednesday
7,-10.6
545,19.722033162845598
546,-6.397016446560563
547,14.374196632384434
548,138.4479186974383
720,2811.5977369965167
721,2811.5977369965167
784,0.0
785,0.0
848,0.0
849,0.0
1121,3369.270875818404
1135,1267.2102080251743
1161,0.06727447147378579
1163,0.0
1166,1331.7064846436444
1168,1331.7064846436444
2,3, 1,29, 0,22, 0.00,60.00,Wednesday
7,-10.6
545,19.67618186423251
546,-7.23865142032164
547,14.289908699353038
548,138.4479186974383
720,4290.322643367876
721,4290.322643367876
784,0.0
785,0.0
848,0.0
849,0.0
1121,3368.2081742994433
1135,1268.3694398415118
1161,0.06727447147378579
1163,0.0
1166,3029.3659578351558
1168,3029.3659578351558
2,3, 1,29, 0,23, 0.00,60.00,Wednesday
7,-11.1
545,18.934884718904296
546,-7.770197882976739
547,14.195801700750744
548,138.4479186974383
720,3318.102409351095
721,3318.102409351095
784,0.0
785,0.0
848,0.0
849,0.0
1121,3317.0657494073707
1135,1261.329467276239
1161,0.06727447147378579
1163,0.0
1166,2024.3544567338777
1168,2024.3544567338777
2,3, 1,29, 0,24, 0.00,60.00,Wednesday
7,-11.1
545,18.674393596227272
546,-8.167186582979733
547,14.05846344010341
548,138.4479186974383
720,4340.432621371585
721,4340.432621371585
784,0.0
785,0.0
848,0.0
849,0.0
1121,3332.975229860757
1135,1244.073848591525
1161,0.06727447147378579
1163,0.0
1166,3155.9346621036448
1168,3155.9346621036448
2,4, 1,30, 0, 1, 0.00,60.00,Thursday
7,-11.7
545,18.60391903921591
546,-8.19105058888682
547,13.947954193280838
548,138.4479186974383
720,4443.107473202395
721,4443.107473202395
784,0.0
785,0.0
848,0.0
849,0.0
1121,3276.4792124018413
1135,1231.1578359537184
1161,0.06727447147378579
1163,0.0
1166,3350.637679883543
1168,3350.637679883543
2,4, 1,30, 0, 2, 0.00,60.00,Thursday
7,-11.7
545,18.576612494471988
546,-8.292172026092079
547,13.83202532118501
548,138.4479186974383
720,4834.470794358431
721,4834.470794358431
784,0.0
785,0.0
848,0.0
849,0.0
1121,3278.0903162502054
1135,1229.420145292815
1161,0.06727447147378579
1163,0.0
1166,3806.8624875092287
1168,3806.8624875092287
2,4, 1,30, 0, 3, 0.00,60.00,Thursday
7,-12.8
545,18.569777968672728
546,-8.690905185183619
547,13.710440904683365
548,138.4479186974383
720,5001.254705598318
721,5001.254705598318
784,0.0
785,0.0
848,0.0
849,0.0
1121,3166.619550000615
1135,1216.0884426751793
1161,0.06727447147378579
1163,0.0
1166,4125.121353702698
1168,4125.121353702698
2,4, 1,30, 0, 4, 0.00,60.00,Thursday
7,-13.3
545,18.569902849599256
546,-8.470931571383602
547,13.59664406293869
548,138.4479186974383
720,4978.272829795978
721,4978.272829795978
784,0.0
785,0.0
848,0.0
849,0.0
1121,3116.6436712217537
1135,1210.0054007861754
1161,0.06727447147378579
1163,0.0
1166,4174.575004887716
1168,4174.575004887716
2,4, 1,30, 0, 5, 0.00,60.00,Thursday
7,-13.9
545,18.565423144140283
546,-9.419686063375652
547,13.475377104080382
548,138.4479186974383
720,5245.474098479795
721,5245.474098479795
784,0.0
785,0.0
848,0.0
849,0.0
1121,3057.1145522793304
1135,1202.8130255726567
1161,0.06727447147378579
1163,0.0
1166,4539.359738348998
1168,4539.359738348998
2,4, 1,30, 0, 6, 0.00,60.00,Thursday
7,-13.9
545,19.322966502459224
546,-8.731428716256271
547,13.363123966641064
548,138.4479186974383
720,6801.699354101074
721,6801.699354101074
784,0.0
785,0.0
848,0.0
849,0.0
1121,3057.360203319268
1135,1202.5580488943667
1161,0.06727447147378579
1163,0.0
1166,6399.439890559292
1168,6399.439890559292
2,4, 1,30, 0, 7, 0.00,60.00,Thursday
7,-14.4
545,19.577953967845236
546,-8.375306286402612
547,13.286158277816957
548,138.4479186974383
720,6245.492758795426
721,6245.492758795426
784,0.0
785,0.0
848,0.0
849,0.0
1121,2992.537341479746
1135,1212.6058504839825
1161,0.06727447147378579
1163,0.0
1166,5890.569876354701
1168,5890.569876354701
2,4, 1,30, 0, 8, 0.00,60.00,Thursday
7,-14.4
545,19.662902805707702
546,-8.118899794938965
547,13.185732514209896
548,138.4479186974383
720,5513.547654483758
721,5513.547654483758
784,0.0
785,0.0
848,0.0
849,0.0
1121,2987.300423943483
1135,1217.9415514215725
1161,0.06727447147378579
1163,0.0
1166,5046.3161345953695
1168,5046.3161345953695
2,4, 1,30, 0, 9, 0.00,60.00,Thursday
7,-12.2
545,19.69421544585452
546,-5.893209600598422
547,13.109183459438588
548,138.4479186974383
720,4809.032866228692
721,4809.032866228692
784,0.0
785,0.0
848,0.0
849,0.0
1121,3205.4344860467063
1135,1246.533324388713
1161,0.06727447147378579
1163,0.0
1166,4000.7497101825725
1168,4000.7497101825725
2,4, 1,30, 0,10, 0.00,60.00,Thursday
7,-10.6
545,19.73751237184491
546,-2.4122346805714225
547,13.04793180684096
548,138.4479186974383
720,3526.4603184507378
721,3526.4603184507378
784,0.0
785,0.0
848,0.0
849,0.0
1121,3370.3263176184573
1135,1266.0585743159938
1161,0.06727447147378579
1163,0.0
1166,2223.5651110246918
1168,2223.5651110246918
2,4, 1,30, 0,11, 0.00,60.00,Thursday
7,-8.3
545,19.751631022954946
546,0.54686408567159
547,13.015561674132682
548,138.4479186974383
720,3027.4160790648784
721,3027.4160790648784
784,0.0
785,0.0
848,0.0
849,0.0
1121,3615.7339745404583
1135,1293.3797583677838
1161,0.06727447147378579
1163,0.0
1166,1199.2621155916675
1168,1199.2621155916675
2,4, 1,30, 0,12, 0.00,60.00,Thursday
7,-7.2
545,19.80920943763808
546,4.985513813975267
547,13.004948103855078
548,132.6827755599661
720,2108.8928095172396
721,2108.8928095172396
784,0.0
785,0.0
848,0.0
849,0.0
1121,3562.6963656684334
1135,1251.8396858305878
1161,0.06447417459820225
1163,8.324991082760747
1166,0.0
1168,0.0
2,4, 1,30, 0,13, 0.00,60.00,Thursday
7,-6.7
545,19.911627376364123
546,7.21348190404863
547,12.988362031093711
548,104.25885893422014
720,1734.8554865548722
721,1734.8554865548722
784,0.0
785,0.0
848,0.0
849,0.0
1121,2770.3149470177987
1135,989.1396990409759
1161,0.05066217753524367
1163,49.38662043600082
1166,0.0
1168,0.0
2,4, 1,30, 0,14, 0.00,60.00,Thursday
7,-6.7
545,19.868400053881782
546,7.578435524101722
547,13.002166595026184
548,86.40824868365891
720,1498.8157754238018
721,1498.8157754238018
784,0.0
785,0.0
848,0.0
849,0.0
1121,2259.640882122293
1135,821.457271336614
1161,0.04198808737859292
1163,75.17378744490316
1166,0.0
1168,0.0
2,4, 1,30, 0,15, 0.00,60.00,Thursday
7,-5.6
545,19.849991387425465
546,7.146070746854636
547,13.041795832746944
548,82.75477525971166
720,1555.7031990315954
721,1555.7031990315954
784,0.0
785,0.0
848,0.0
849,0.0
1121,2228.7793568735583
1135,793.5290351549976
1161,0.04021269597824512
1163,80.45184124883265
1166,0.0
1168,0.0
2,4, 1,30, 0,16, 0.00,60.00,Thursday
7,-5.6
545,19.777942060816724
546,5.757561966770175
547,13.095927388863437
548,94.01929611999081
720,1820.4783708120813
721,1820.4783708120813
784,0.0
785,0.0
848,0.0
849,0.0
1121,2556.9208439800086