Program Version,EnergyPlus, Version 22.2.0-c249759bad, YMD=2023.09.01 20:46
1,5,Environment Title[],Latitude[deg],Longitude[deg],Time Zone[],Elevation[m]
2,8,Day of Simulation[],Month[],Day of Month[],DST Indicator[1=yes 0=no],Hour[],StartMinute[],EndMinute[],DayType
3,5,Cumulative Day of Simulation[],Month[],Day of Month[],DST Indicator[1=yes 0=no],DayType  ! When Daily Report Variables Requested
4,2,Cumulative Days of Simulation[],Month[]  ! When Monthly Report Variables Requested
5,1,Cumulative Days of Simulation[] ! When Run Period Report Variables Requested
6,1,Calendar Year of Simulation[] ! When Annual Report Variables Requested
581,11,LIVING,AFN Zone Infiltration Air Change Rate [ach] !RunPeriod [Value,Min,Month,Day,Hour,Minute,Max,Month,Day,Hour,Minute]
582,11,ATTIC,AFN Zone Infiltration Air Change Rate [ach] !RunPeriod [Value,Min,Month,Day,Hour,Minute,Max,Month,Day,Hour,Minute]
583,11,CRAWLSPACE,AFN Zone Infiltration Air Change Rate [ach] !RunPeriod [Value,Min,Month,Day,Hour,Minute,Max,Month,Day,Hour,Minute]
1038,11,Facility,Facility Heating Setpoint Not Met Time [hr] !RunPeriod [Value,Min,Month,Day,Hour,Minute,Max,Month,Day,Hour,Minute]
1039,11,Facility,Facility Cooling Setpoint Not Met Time [hr] !RunPeriod [Value,Min,Month,Day,Hour,Minute,Max,Month,Day,Hour,Minute]
1115,11,DX_HEATING_COIL,Heating Coil Heating Energy [J] !RunPeriod [Value,Min,Month,Day,Hour,Minute,Max,Month,Day,Hour,Minute]
1128,11,DX_HEATING_COIL,Heating Coil Electricity Energy [J] !RunPeriod [Value,Min,Month,Day,Hour,Minute,Max,Month,Day,Hour,Minute]
1153,11,DX_HEATING_COIL,Heating Coil Defrost Electricity Energy [J] !RunPeriod [Value,Min,Month,Day,Hour,Minute,Max,Month,Day,Hour,Minute]
1154,11,DX_HEATING_COIL,Heating Coil Crankcase Heater Electricity Energy [J] !RunPeriod [Value,Min,Month,Day,Hour,Minute,Max,Month,Day,Hour,Minute]
1155,11,HEATING_RESISTANCE_BACKUP,Heating Coil Heating Energy [J] !RunPeriod [Value,Min,Month,Day,Hour,Minute,Max,Month,Day,Hour,Minute]
1156,11,HEATING_RESISTANCE_BACKUP,Heating Coil Electricity Energy [J] !RunPeriod [Value,Min,Month,Day,Hour,Minute,Max,Month,Day,Hour,Minute]
1292,11,WATER HEATER,Water Heater Heat Loss Energy [J] !RunPeriod [Value,Min,Month,Day,Hour,Minute,Max,Month,Day,Hour,Minute]
1306,11,WATER HEATER,Water Heater Heating Energy [J] !RunPeriod [Value,Min,Month,Day,Hour,Minute,Max,Month,Day,Hour,Minute]
1307,11,WATER HEATER,Water Heater Unmet Demand Heat Transfer Energy [J] !RunPeriod [Value,Min,Month,Day,Hour,Minute,Max,Month,Day,Hour,Minute]
1308,11,WATER HEATER,Water Heater Electricity Energy [J] !RunPeriod [Value,Min,Month,Day,Hour,Minute,Max,Month,Day,Hour,Minute]
13,11,Electricity:Facility [J] !RunPeriod [Value,Min,Month,Day,Hour,Minute,Max,Month,Day,Hour,Minute]
1134,11,Heating:Electricity [J] !RunPeriod [Value,Min,Month,Day,Hour,Minute,Max,Month,Day,Hour,Minute]
1096,11,Cooling:Electricity [J] !RunPeriod [Value,Min,Month,Day,Hour,Minute,Max,Month,Day,Hour,Minute]
562,11,Fans:Electricity [J] !RunPeriod [Value,Min,Month,Day,Hour,Minute,Max,Month,Day,Hour,Minute]
1379,11,Pumps:Electricity [J] !RunPeriod [Value,Min,Month,Day,Hour,Minute,Max,Month,Day,Hour,Minute]
1326,11,WaterSystems:Electricity [J] !RunPeriod [Value,Min,Month,Day,Hour,Minute,Max,Month,Day,Hour,Minute]
61,11,InteriorLights:Electricity [J] !RunPeriod [Value,Min,Month,Day,Hour,Minute,Max,Month,Day,Hour,Minute]
1046,11,ExteriorLights:Electricity [J] !RunPeriod [Value,Min,Month,Day,Hour,Minute,Max,Month,Day,Hour,Minute]
134,11,InteriorEquipment:Electricity [J] !RunPeriod [Value,Min,Month,Day,Hour,Minute,Max,Month,Day,Hour,Minute]
170,11,gas_dryer:InteriorEquipment:Electricity [J] !RunPeriod [Value,Min,Month,Day,Hour,Minute,Max,Month,Day,Hour,Minute]
207,11,clotheswasher:InteriorEquipment:Electricity [J] !RunPeriod [Value,Min,Month,Day,Hour,Minute,Max,Month,Day,Hour,Minute]
244,11,dishwasher:InteriorEquipment:Electricity [J] !RunPeriod [Value,Min,Month,Day,Hour,Minute,Max,Month,Day,Hour,Minute]
281,11,refrigerator:InteriorEquipment:Electricity [J] !RunPeriod [Value,Min,Month,Day,Hour,Minute,Max,Month,Day,Hour,Minute]
318,11,electric_mels:InteriorEquipment:Electricity [J] !RunPeriod [Value,Min,Month,Day,Hour,Minute,Max,Month,Day,Hour,Minute]
355,11,NaturalGas:Facility [J] !RunPeriod [Value,Min,Month,Day,Hour,Minute,Max,Month,Day,Hour,Minute]
403,11,InteriorEquipment:NaturalGas [J] !RunPeriod [Value,Min,Month,Day,Hour,Minute,Max,Month,Day,Hour,Minute]
476,11,gas_dryer:InteriorEquipment:NaturalGas [J] !RunPeriod [Value,Min,Month,Day,Hour,Minute,Max,Month,Day,Hour,Minute]
513,11,gas_mels:InteriorEquipment:NaturalGas [J] !RunPeriod [Value,Min,Month,Day,Hour,Minute,Max,Month,Day,Hour,Minute]
End of Data Dictionary
1,EXTREME_WINTER,  47.45,-122.30,  -8.00, 137.00
5,7
1038,0.75,0.0, 1, 1, 1,15,0.25, 1, 3, 6,15
1039,0.0,0.0, 1, 1, 1,15,0.0, 1, 1, 1,15
581,0.2862875337619826,0.15620775025123387, 1, 6, 5,60,0.6503611373913848, 1, 7, 8,60
582,2.764283380435378,0.0, 1, 1,19,15,12.161242924147134, 1, 7,14,60
583,0.024642425054985515,0.0003038769770929741, 1, 4,23,30,0.05939935687069919, 1, 1, 6,15
1115,1013218933.3736807,0.0, 1, 1,12,33,3468911.443062025, 1, 1, 9,15
1128,301168089.62493765,0.0, 1, 1,12,33,1090526.0885580457, 1, 1, 9,15
1153,11491797.556183599,0.0, 1, 1,12,33,107319.47804709294, 1, 5, 6,60
1154,70409160.8703986,0.0, 1, 1, 6, 5,180000.0, 1, 1,14,30
1155,42132928.46329105,0.0, 1, 1, 1,15,1435673.6189126961, 1, 3, 6,45
1156,42132928.46329105,0.0, 1, 1, 1,15,1435673.6189126961, 1, 3, 6,45
1292,-25195031.151269875,-39769.91305521968, 1, 1, 1,15,-5755.28005517343, 1, 3,17,18
1306,252939743.66628525,0.0, 1, 1, 1,15,4050000.0, 1, 1, 8,45
1307,79144833.87638143,0.0, 1, 1, 1,15,13070601.879201854, 1, 1, 8,30
1308,252939743.66628525,0.0, 1, 1, 1,15,4050000.0, 1, 1, 8,45
13,1081971855.4849863,452017.0388981225, 1, 1,15,15,6536991.301236875, 1, 2, 7,30
61,301924526.02383536,88139.10953165221, 1, 1, 1,15,1282023.4113694867, 1, 1,20,15
134,70666020.44019976,63564.01800854099, 1, 1, 4,15,156554.22484006523, 1, 6,20,15
170,5241013.419656067,348.4159749238097, 1, 1, 4,15,17476.39704006126, 1, 6,12,15
207,6509451.13922267,815.2532113832032, 1, 1, 3,15,22990.642799023623, 1, 6,10,15
244,12749673.399825225,1521.856143006317, 1, 1, 4,15,53038.631142310165, 1, 6,20,15
281,46165882.481495745,59938.60262432081, 1, 1, 5,15,81951.81706819107, 1, 1,19,15
318,0.0,0.0, 1, 1, 1,15,0.0, 1, 1, 1,15
355,197687796.27748066,18561.32405820678, 1, 1, 4,15,724774.895203776, 1, 6,18,15
403,197687796.27748066,18561.32405820678, 1, 1, 4,15,724774.895203776, 1, 6,18,15
476,106772067.24485716,7098.072629279515, 1, 1, 4,15,356036.3026282215, 1, 6,12,15
513,0.0,0.0, 1, 1, 1,15,0.0, 1, 1, 1,15
562,31239588.839854963,0.0, 1, 1,12,45,111556.9491205644, 1, 1, 6,30
1046,0.0,0.0, 1, 1, 1,15,0.0, 1, 1, 1,15
1096,0.0,0.0, 1, 1, 1,15,0.0, 1, 1, 1,15
1134,425201976.5148107,180000.0, 1, 1,12,45,3246205.752172102, 1, 3, 6,15
1326,252939743.66628534,0.0, 1, 1, 1,15,4050000.0, 1, 1, 8,45
1379,0.0,0.0, 1, 1, 1,15,0.0, 1, 1, 1,15
1,EXTREME_SUMMER,  47.45,-122.30,  -8.00, 137.00
5,7
1038,0.0,0.0, 8, 5, 1,15,0.0, 8, 5, 1,15
1039,23.5,0.0, 8, 5, 1,15,0.25, 8, 6,17,30
581,0.20317642213380888,0.06144917153735533, 8,10, 1,60,0.4835281036731253, 8, 5,18,52
582,3.421326804226684,0.0, 8, 5, 1,52,10.152399061049207, 8, 8,14,48
583,0.025029731406162433,0.00012108205334622422, 8, 5, 2,15,0.05651151888447746, 8,11,17,20
1115,0.0,0.0, 8, 5, 1,15,0.0, 8, 5, 1,15
1128,0.0,0.0, 8, 5, 1,15,0.0, 8, 5, 1,15
1153,0.0,0.0, 8, 5, 1,15,0.0, 8, 5, 1,15
1154,0.0,0.0, 8, 5, 1,15,0.0, 8, 5, 1,15
1155,0.0,0.0, 8, 5, 1,15,0.0, 8, 5, 1,15
1156,0.0,0.0, 8, 5, 1,15,0.0, 8, 5, 1,15
1292,-22067235.26725073,-34547.49933315615, 8, 5, 9,15,-3568.0422551965394, 8, 6,15,54
1306,214474148.22582215,0.0, 8, 5, 1,15,4050000.0, 8, 5, 8,60
1307,57913900.81211639,0.0, 8, 5, 1,15,5679014.328618887, 8, 5, 8,30
1308,214474148.22582215,0.0, 8, 5, 1,15,4050000.0, 8, 5, 8,60
13,906833553.1312623,151703.1275401932, 8, 5, 4,15,5901405.024748576, 8, 7,17,30
61,301924526.02383536,88139.10953165221, 8, 5, 1,15,1282023.4113694867, 8, 5,20,15
134,70666020.44019976,63564.01800854099, 8, 5, 4,15,156554.22484006523, 8,10,20,15
170,5241013.419656067,348.4159749238097, 8, 5, 4,15,17476.39704006126, 8,10,12,15
207,6509451.13922267,815.2532113832032, 8, 5, 3,15,22990.642799023623, 8,10,10,15
244,12749673.399825225,1521.856143006317, 8, 5, 4,15,53038.631142310165, 8,10,20,15
281,46165882.481495745,59938.60262432081, 8, 5, 5,15,81951.81706819107, 8, 5,19,15
318,0.0,0.0, 8, 5, 1,15,0.0, 8, 5, 1,15
355,197687796.27748066,18561.32405820678, 8, 5, 4,15,724774.895203776, 8,10,18,15
403,197687796.27748066,18561.32405820678, 8, 5, 4,15,724774.895203776, 8,10,18,15
476,106772067.24485716,7098.072629279515, 8, 5, 4,15,356036.3026282215, 8,10,12,15
513,0.0,0.0, 8, 5, 1,15,0.0, 8, 5, 1,15
562,33776572.385727175,0.0, 8, 5, 1,30,111556.9491205644, 8, 6,15,30
1046,0.0,0.0, 8, 5, 1,15,0.0, 8, 5, 1,15
1096,285992286.0556778,0.0, 8, 5, 1,30,1057316.596361632, 8,11,17,60
1134,0.0,0.0, 8, 5, 1,15,0.0, 8, 5, 1,15
1326,214474148.22582218,0.0, 8, 5, 1,15,4050000.0, 8, 5, 8,45
1379,0.0,0.0, 8, 5, 1,15,0.0, 8, 5, 1,15
1,ANNUAL,  47.45,-122.30,  -8.00, 137.00
5,365
1038,45.25,0.0, 1, 1, 1,15,0.25, 1, 3, 6,15
1039,291.5,0.0, 1, 1, 1,15,0.25, 3, 9,15,30
581,0.2547631418012262,0.0, 7, 1,23, 5,1.1977927028146593,12,14, 1,60
582,3.622149540913444,0.0, 1, 1,19,15,27.08635951318594,12,14, 1,60
583,0.01683489616004129,0.0, 7, 1,23, 5,0.07134735273658264, 2, 6,21,60
1115,16164677628.505741,0.0, 1, 1,12,33,4034988.24701384, 2, 7, 7,15
1128,4542766257.827301,0.0, 1, 1,12,33,1106635.7535321566, 1,11, 9,15
1153,178374820.84126237,0.0, 1, 1,12,33,121047.23425826734,11,18, 6,60
1154,1996356646.8978636,0.0, 1, 1, 6, 5,180000.0, 1, 1,14,30
1155,123971228.29719046,0.0, 1, 1, 1,15,2391112.318458437,12,31, 6,45
1156,123971228.29719046,0.0, 1, 1, 1,15,2391112.318458437,12,31, 6,45
1292,-1230861949.7296124,-39783.06150141082,12,29,24,30,-2079.5014767758134, 4,23,10,31
1306,12321260913.02105,0.0, 1, 1, 1,15,4050000.0, 1, 2, 8,45
1307,3657752919.101283,0.0, 1, 1, 1,15,13418984.191195335, 2,13, 8,30
1308,12321260913.02105,0.0, 1, 1, 1,15,4050000.0, 1, 2, 8,45
13,44685520324.77464,151703.1275401932, 3, 1, 4,15,6733278.535986109, 1, 3, 7,30
61,15743207428.383959,88139.10953165221, 1, 1, 1,15,1282023.4113694867, 1, 1,20,15
134,3685071073.4325233,63564.01800854099, 1, 2, 4,15,156554.22484006523, 1, 1,20,15
170,273393721.45532674,348.4159749238097, 1, 2, 4,15,17476.39704006126, 1, 1,12,15
207,339560869.0695816,815.2532113832032, 1, 2, 3,15,22990.642799023623, 1, 1,10,15
244,664895467.8009144,1521.856143006317, 1, 2, 4,15,53038.631142310165, 1, 1,20,15
281,2407221015.106824,59938.60262432081, 1, 1, 5,15,81951.81706819107, 1, 1,19,15
318,0.0,0.0, 1, 1, 1,15,0.0, 1, 1, 1,15
355,10310294493.051695,18561.32405820678, 1, 2, 4,15,724774.895203776, 1, 1,18,15
403,10310294493.051695,18561.32405820678, 1, 2, 4,15,724774.895203776, 1, 1,18,15
476,5569688622.066177,7098.072629279515, 1, 2, 4,15,356036.3026282215, 1, 1,12,15
513,0.0,0.0, 1, 1, 1,15,0.0, 1, 1, 1,15
562,1080729836.6438684,0.0, 1, 1,12,45,111556.9491205644, 1, 1, 6,30
1046,0.0,0.0, 1, 1, 1,15,0.0, 1, 1, 1,15
1096,5013782119.427121,0.0, 1, 1, 1,15,1155086.0859532286, 8, 1,17,60
1134,6841468953.863655,0.0, 1,13,23,15,3976745.5739042507,12,31, 6,15
1326,12321260913.021055,0.0, 1, 1, 1,15,4050000.0000000014, 4,22, 9,60
1379,0.0,0.0, 1, 1, 1,15,0.0, 1, 1, 1,15
End of Data
 Number of Records Written=          99
