Program Version,EnergyPlus, Version 22.2.0-c249759bad, YMD=2023.09.01 20:37
1,5,Environment Title[],Latitude[deg],Longitude[deg],Time Zone[],Elevation[m]
2,8,Day of Simulation[],Month[],Day of Month[],DST Indicator[1=yes 0=no],Hour[],StartMinute[],EndMinute[],DayType
3,5,Cumulative Day of Simulation[],Month[],Day of Month[],DST Indicator[1=yes 0=no],DayType  ! When Daily Report Variables Requested
4,2,Cumulative Days of Simulation[],Month[]  ! When Monthly Report Variables Requested
5,1,Cumulative Days of Simulation[] ! When Run Period Report Variables Requested
6,1,Calendar Year of Simulation[] ! When Annual Report Variables Requested
581,11,LIVING,AFN Zone Infiltration Air Change Rate [ach] !RunPeriod [Value,Min,Month,Day,Hour,Minute,Max,Month,Day,Hour,Minute]
582,11,ATTIC,AFN Zone Infiltration Air Change Rate [ach] !RunPeriod [Value,Min,Month,Day,Hour,Minute,Max,Month,Day,Hour,Minute]
583,11,CRAWLSPACE,AFN Zone Infiltration Air Change Rate [ach] !RunPeriod [Value,Min,Month,Day,Hour,Minute,Max,Month,Day,Hour,Minute]
1038,11,Facility,Facility Heating Setpoint Not Met Time [hr] !RunPeriod [Value,Min,Month,Day,Hour,Minute,Max,Month,Day,Hour,Minute]
1039,11,Facility,Facility Cooling Setpoint Not Met Time [hr] !RunPeriod [Value,Min,Month,Day,Hour,Minute,Max,Month,Day,Hour,Minute]
1115,11,DX_HEATING_COIL,Heating Coil Heating Energy [J] !RunPeriod [Value,Min,Month,Day,Hour,Minute,Max,Month,Day,Hour,Minute]
1128,11,DX_HEATING_COIL,Heating Coil Electricity Energy [J] !RunPeriod [Value,Min,Month,Day,Hour,Minute,Max,Month,Day,Hour,Minute]
1153,11,DX_HEATING_COIL,Heating Coil Defrost Electricity Energy [J] !RunPeriod [Value,Min,Month,Day,Hour,Minute,Max,Month,Day,Hour,Minute]
1154,11,DX_HEATING_COIL,Heating Coil Crankcase Heater Electricity Energy [J] !RunPeriod [Value,Min,Month,Day,Hour,Minute,Max,Month,Day,Hour,Minute]
1155,11,HEATING_RESISTANCE_BACKUP,Heating Coil Heating Energy [J] !RunPeriod [Value,Min,Month,Day,Hour,Minute,Max,Month,Day,Hour,Minute]
1156,11,HEATING_RESISTANCE_BACKUP,Heating Coil Electricity Energy [J] !RunPeriod [Value,Min,Month,Day,Hour,Minute,Max,Month,Day,Hour,Minute]
1292,11,WATER HEATER,Water Heater Heat Loss Energy [J] !RunPeriod [Value,Min,Month,Day,Hour,Minute,Max,Month,Day,Hour,Minute]
1306,11,WATER HEATER,Water Heater Heating Energy [J] !RunPeriod [Value,Min,Month,Day,Hour,Minute,Max,Month,Day,Hour,Minute]
1307,11,WATER HEATER,Water Heater Unmet Demand Heat Transfer Energy [J] !RunPeriod [Value,Min,Month,Day,Hour,Minute,Max,Month,Day,Hour,Minute]
1308,11,WATER HEATER,Water Heater Electricity Energy [J] !RunPeriod [Value,Min,Month,Day,Hour,Minute,Max,Month,Day,Hour,Minute]
13,11,Electricity:Facility [J] !RunPeriod [Value,Min,Month,Day,Hour,Minute,Max,Month,Day,Hour,Minute]
1134,11,Heating:Electricity [J] !RunPeriod [Value,Min,Month,Day,Hour,Minute,Max,Month,Day,Hour,Minute]
1096,11,Cooling:Electricity [J] !RunPeriod [Value,Min,Month,Day,Hour,Minute,Max,Month,Day,Hour,Minute]
562,11,Fans:Electricity [J] !RunPeriod [Value,Min,Month,Day,Hour,Minute,Max,Month,Day,Hour,Minute]
1379,11,Pumps:Electricity [J] !RunPeriod [Value,Min,Month,Day,Hour,Minute,Max,Month,Day,Hour,Minute]
1326,11,WaterSystems:Electricity [J] !RunPeriod [Value,Min,Month,Day,Hour,Minute,Max,Month,Day,Hour,Minute]
61,11,InteriorLights:Electricity [J] !RunPeriod [Value,Min,Month,Day,Hour,Minute,Max,Month,Day,Hour,Minute]
1046,11,ExteriorLights:Electricity [J] !RunPeriod [Value,Min,Month,Day,Hour,Minute,Max,Month,Day,Hour,Minute]
134,11,InteriorEquipment:Electricity [J] !RunPeriod [Value,Min,Month,Day,Hour,Minute,Max,Month,Day,Hour,Minute]
170,11,gas_dryer:InteriorEquipment:Electricity [J] !RunPeriod [Value,Min,Month,Day,Hour,Minute,Max,Month,Day,Hour,Minute]
207,11,clotheswasher:InteriorEquipment:Electricity [J] !RunPeriod [Value,Min,Month,Day,Hour,Minute,Max,Month,Day,Hour,Minute]
244,11,dishwasher:InteriorEquipment:Electricity [J] !RunPeriod [Value,Min,Month,Day,Hour,Minute,Max,Month,Day,Hour,Minute]
281,11,refrigerator:InteriorEquipment:Electricity [J] !RunPeriod [Value,Min,Month,Day,Hour,Minute,Max,Month,Day,Hour,Minute]
318,11,electric_mels:InteriorEquipment:Electricity [J] !RunPeriod [Value,Min,Month,Day,Hour,Minute,Max,Month,Day,Hour,Minute]
355,11,NaturalGas:Facility [J] !RunPeriod [Value,Min,Month,Day,Hour,Minute,Max,Month,Day,Hour,Minute]
403,11,InteriorEquipment:NaturalGas [J] !RunPeriod [Value,Min,Month,Day,Hour,Minute,Max,Month,Day,Hour,Minute]
476,11,gas_dryer:InteriorEquipment:NaturalGas [J] !RunPeriod [Value,Min,Month,Day,Hour,Minute,Max,Month,Day,Hour,Minute]
513,11,gas_mels:InteriorEquipment:NaturalGas [J] !RunPeriod [Value,Min,Month,Day,Hour,Minute,Max,Month,Day,Hour,Minute]
End of Data Dictionary
1,EXTREME_WINTER,  39.88, -75.25,  -5.00,   3.10
5,7
1038,0.75,0.0, 1, 6, 1,15,0.25, 1, 9, 6,15
1039,0.0,0.0, 1, 6, 1,15,0.0, 1, 6, 1,15
581,0.41002937216149926,0.21291562192577876, 1, 7,18,52,0.6751422448338795, 1, 6,13,60
582,6.319176766945368,0.05369956364527868, 1, 8, 4,60,16.55587821585382, 1, 8,13,60
583,0.04461914173293126,0.0012908365426068716, 1, 7,18,60,0.0743233498354076, 1, 9, 9,52
1115,1557129280.0137718,0.0, 1, 6,23, 3,4137540.6637179116, 1, 6,12,15
1128,507805244.2230484,0.0, 1, 6,23, 3,1255194.0111553017, 1, 6,12,15
1153,5130313.583836937,0.0, 1, 6,23, 3,77051.34970529638, 1, 8, 8,45
1154,45081242.81492556,0.0, 1, 6, 6, 5,180000.0, 1, 7,14,30
1155,247583726.7026768,0.0, 1, 6, 1,15,3708872.824265833, 1,10, 6,45
1156,247583726.7026768,0.0, 1, 6, 1,15,3708872.824265833, 1,10, 6,45
1292,-25334898.089325257,-39779.52918203001, 1, 6, 1,15,-9216.066616252478, 1,10,10,60
1306,222273899.70543265,0.0, 1, 6, 1,15,4050000.0, 1, 6, 7,60
1307,35515254.46102919,0.0, 1, 6, 1,15,11328499.549739717, 1,12,19,60
1308,222273899.70543265,0.0, 1, 6, 1,15,4050000.0, 1, 6, 7,60
13,1453899568.396385,452017.0388981225, 1, 7,15,15,8927752.386041595, 1,10, 7,15
61,301924526.02383536,88139.10953165221, 1, 6, 1,15,1282023.4113694867, 1, 6,20,15
134,70666020.44019976,63564.01800854099, 1, 6, 4,15,156554.22484006523, 1,11,20,15
170,5241013.419656067,348.4159749238097, 1, 6, 4,15,17476.39704006126, 1,11,12,15
207,6509451.13922267,815.2532113832032, 1, 6, 3,15,22990.642799023623, 1,11,10,15
244,12749673.399825225,1521.856143006317, 1, 6, 4,15,53038.631142310165, 1,11,20,15
281,46165882.481495745,59938.60262432081, 1, 6, 5,15,81951.81706819107, 1, 6,19,15
318,0.0,0.0, 1, 6, 1,15,0.0, 1, 6, 1,15
355,197687796.27748066,18561.32405820678, 1, 6, 4,15,724774.895203776, 1,11,18,15
403,197687796.27748066,18561.32405820678, 1, 6, 4,15,724774.895203776, 1,11,18,15
476,106772067.24485716,7098.072629279515, 1, 6, 4,15,356036.3026282215, 1,11,12,15
513,0.0,0.0, 1, 6, 1,15,0.0, 1, 6, 1,15
562,53434594.9024306,0.0, 1, 7,13,30,126904.74386158751, 1, 6, 6,45
1046,0.0,0.0, 1, 6, 1,15,0.0, 1, 6, 1,15
1096,0.0,0.0, 1, 6, 1,15,0.0, 1, 6, 1,15
1134,805600527.3244885,180000.0, 1, 7,13,30,5524865.793630673, 1,10, 6,15
1326,222273899.7054326,0.0, 1, 6, 1,15,4050000.0, 1, 6, 7,60
1379,0.0,0.0, 1, 6, 1,15,0.0, 1, 6, 1,15
1,EXTREME_SUMMER,  39.88, -75.25,  -5.00,   3.10
5,7
1038,0.0,0.0, 7,20, 1,15,0.0, 7,20, 1,15
1039,34.75,0.0, 7,20, 1,15,0.25, 7,20,13,30
581,0.17423561703036253,0.0, 7,21, 7,48,0.41924591518362264, 7,26,10,60
582,4.07367713163399,0.04513565529994338, 7,25, 8, 5,11.479821477933031, 7,26,10,52
583,0.04067535781163421,0.0002456036600638745, 7,24, 6, 7,0.06720801516126239, 7,26,18,48
1115,0.0,0.0, 7,20, 1,15,0.0, 7,20, 1,15
1128,0.0,0.0, 7,20, 1,15,0.0, 7,20, 1,15
1153,0.0,0.0, 7,20, 1,15,0.0, 7,20, 1,15
1154,0.0,0.0, 7,20, 1,15,0.0, 7,20, 1,15
1155,0.0,0.0, 7,20, 1,15,0.0, 7,20, 1,15
1156,0.0,0.0, 7,20, 1,15,0.0, 7,20, 1,15
1292,-21928203.202015508,-34208.07715839239, 7,22, 6,30,-3582.6367970697343, 7,25, 8,16
1306,159167904.08812416,0.0, 7,20, 1,15,2560893.735684689, 7,20, 7,15
1307,13013744.003367824,0.0, 7,20, 1,15,3524057.0513692624, 7,26,19,60
1308,159167904.08812416,0.0, 7,20, 1,15,2560893.735684689, 7,20, 7,15
13,1095253998.547026,204038.65646780358, 7,24, 4,60,6797299.773408027, 7,26,20,15
61,301924526.02383536,88139.10953165221, 7,20, 1,15,1282023.4113694867, 7,20,20,15
134,70666020.44019976,63564.01800854099, 7,20, 4,15,156554.22484006523, 7,25,20,15
170,5241013.419656067,348.4159749238097, 7,20, 4,15,17476.39704006126, 7,25,12,15
207,6509451.13922267,815.2532113832032, 7,20, 3,15,22990.642799023623, 7,25,10,15
244,12749673.399825225,1521.856143006317, 7,20, 4,15,53038.631142310165, 7,25,20,15
281,46165882.481495745,59938.60262432081, 7,20, 5,15,81951.81706819107, 7,20,19,15
318,0.0,0.0, 7,20, 1,15,0.0, 7,20, 1,15
355,197687796.27748066,18561.32405820678, 7,20, 4,15,724774.895203776, 7,25,18,15
403,197687796.27748066,18561.32405820678, 7,20, 4,15,724774.895203776, 7,25,18,15
476,106772067.24485716,7098.072629279515, 7,20, 4,15,356036.3026282215, 7,25,12,15
513,0.0,0.0, 7,20, 1,15,0.0, 7,20, 1,15
562,54584998.092165045,5750.703794458035, 7,24, 4,60,126904.74386158751, 7,20,11,15
1046,0.0,0.0, 7,20, 1,15,0.0, 7,20, 1,15
1096,508910549.90270114,46584.82513315233, 7,24, 4,60,1348178.8338219956, 7,20,16,60
1134,0.0,0.0, 7,20, 1,15,0.0, 7,20, 1,15
1326,159167904.0881242,0.0, 7,20, 1,15,4050000.0, 7,21, 8,60
1379,0.0,0.0, 7,20, 1,15,0.0, 7,20, 1,15
1,ANNUAL,  39.88, -75.25,  -5.00,   3.10
5,365
1038,10.75,0.0, 1, 1, 1,15,0.25, 1, 3, 6,15
1039,646.0,0.0, 1, 1, 1,15,0.25, 4,26,12,15
581,0.2568015135807901,0.0, 5,21,23, 3,1.6760548431063906, 3, 9,18,52
582,4.753332121701642,0.0, 1, 1, 6, 5,45.2505237542448, 3, 9,18,48
583,0.02648760123641823,0.0, 5,21,23, 3,0.0853001563916422, 1, 2,13,60
1115,18166933674.67234,0.0, 1, 1,23, 5,4197599.907696383, 1, 6,12,30
1128,5622874757.288073,0.0, 1, 1,23, 5,1259564.0886380628, 3,18, 6,45
1153,106449798.6593349,0.0, 1, 1,14,37,115878.22818592888, 1,18, 6,60
1154,1484031680.984339,0.0, 1, 1, 6, 5,180000.0, 1, 7,14,30
1155,1980783269.651457,0.0, 1, 1, 1, 5,3952021.7270697416, 1,31, 7,60
1156,1980783269.651457,0.0, 1, 1, 1, 5,3952021.7270697416, 1,31, 7,60
1292,-1215398227.957843,-39799.20016375262,12,16, 4,45,-2712.693494438777, 5, 6, 9,60
1306,10064990141.424911,0.0, 1, 1, 1, 5,4050000.0, 1, 1,20,15
1307,1279417437.138426,0.0, 1, 1, 1, 5,11556922.179850351, 2, 5,19,60
1308,10064990141.424911,0.0, 1, 1, 1, 5,4050000.0, 1, 1,20,15
13,50112336390.893486,151703.1275401932, 3, 6, 4,15,9177207.333329331, 1,31, 7,60
61,15743207428.383959,88139.10953165221, 1, 1, 1,15,1282023.4113694867, 1, 1,20,15
134,3685071073.4325233,63564.01800854099, 1, 2, 4,15,156554.22484006523, 1, 1,20,15
170,273393721.45532674,348.4159749238097, 1, 2, 4,15,17476.39704006126, 1, 1,12,15
207,339560869.0695816,815.2532113832032, 1, 2, 3,15,22990.642799023623, 1, 1,10,15
244,664895467.8009144,1521.856143006317, 1, 2, 4,15,53038.631142310165, 1, 1,20,15
281,2407221015.106824,59938.60262432081, 1, 1, 5,15,81951.81706819107, 1, 1,19,15
318,0.0,0.0, 1, 1, 1,15,0.0, 1, 1, 1,15
355,10310294493.051695,18561.32405820678, 1, 2, 4,15,724774.895203776, 1, 1,18,15
403,10310294493.051695,18561.32405820678, 1, 2, 4,15,724774.895203776, 1, 1,18,15
476,5569688622.066177,7098.072629279515, 1, 2, 4,15,356036.3026282215, 1, 1,12,15
513,0.0,0.0, 1, 1, 1,15,0.0, 1, 1, 1,15
562,1691674753.746323,0.0, 1, 7,13,45,126904.74386158753, 6,21,17,30
1046,0.0,0.0, 1, 1, 1,15,0.0, 1, 1, 1,15
1096,9733253487.320484,0.0, 1, 1, 1,15,1370943.3741678062, 7,19,16,60
1134,9194139506.58318,0.0, 1,15,15,30,5649679.068860355, 1,10, 6,15
1326,10064990141.424942,0.0, 1, 1, 1,15,4050000.0000000014, 5, 6, 9,45
1379,0.0,0.0, 1, 1, 1,15,0.0, 1, 1, 1,15
End of Data
 Number of Records Written=          99
