Program Version,EnergyPlus, Version 22.2.0-c249759bad, YMD=2023.09.01 20:46
1,5,Environment Title[],Latitude[deg],Longitude[deg],Time Zone[],Elevation[m]
2,8,Day of Simulation[],Month[],Day of Month[],DST Indicator[1=yes 0=no],Hour[],StartMinute[],EndMinute[],DayType
3,5,Cumulative Day of Simulation[],Month[],Day of Month[],DST Indicator[1=yes 0=no],DayType  ! When Daily Report Variables Requested
4,2,Cumulative Days of Simulation[],Month[]  ! When Monthly Report Variables Requested
5,1,Cumulative Days of Simulation[] ! When Run Period Report Variables Requested
6,1,Calendar Year of Simulation[] ! When Annual Report Variables Requested
581,11,LIVING,AFN Zone Infiltration Air Change Rate [ach] !RunPeriod [Value,Min,Month,Day,Hour,Minute,Max,Month,Day,Hour,Minute]
582,11,ATTIC,AFN Zone Infiltration Air Change Rate [ach] !RunPeriod [Value,Min,Month,Day,Hour,Minute,Max,Month,Day,Hour,Minute]
583,11,CRAWLSPACE,AFN Zone Infiltration Air Change Rate [ach] !RunPeriod [Value,Min,Month,Day,Hour,Minute,Max,Month,Day,Hour,Minute]
1038,11,Facility,Facility Heating Setpoint Not Met Time [hr] !RunPeriod [Value,Min,Month,Day,Hour,Minute,Max,Month,Day,Hour,Minute]
1039,11,Facility,Facility Cooling Setpoint Not Met Time [hr] !RunPeriod [Value,Min,Month,Day,Hour,Minute,Max,Month,Day,Hour,Minute]
1115,11,DX_HEATING_COIL,Heating Coil Heating Energy [J] !RunPeriod [Value,Min,Month,Day,Hour,Minute,Max,Month,Day,Hour,Minute]
1128,11,DX_HEATING_COIL,Heating Coil Electricity Energy [J] !RunPeriod [Value,Min,Month,Day,Hour,Minute,Max,Month,Day,Hour,Minute]
1153,11,DX_HEATING_COIL,Heating Coil Defrost Electricity Energy [J] !RunPeriod [Value,Min,Month,Day,Hour,Minute,Max,Month,Day,Hour,Minute]
1154,11,DX_HEATING_COIL,Heating Coil Crankcase Heater Electricity Energy [J] !RunPeriod [Value,Min,Month,Day,Hour,Minute,Max,Month,Day,Hour,Minute]
1155,11,HEATING_RESISTANCE_BACKUP,Heating Coil Heating Energy [J] !RunPeriod [Value,Min,Month,Day,Hour,Minute,Max,Month,Day,Hour,Minute]
1156,11,HEATING_RESISTANCE_BACKUP,Heating Coil Electricity Energy [J] !RunPeriod [Value,Min,Month,Day,Hour,Minute,Max,Month,Day,Hour,Minute]
1292,11,WATER HEATER,Water Heater Heat Loss Energy [J] !RunPeriod [Value,Min,Month,Day,Hour,Minute,Max,Month,Day,Hour,Minute]
1306,11,WATER HEATER,Water Heater Heating Energy [J] !RunPeriod [Value,Min,Month,Day,Hour,Minute,Max,Month,Day,Hour,Minute]
1307,11,WATER HEATER,Water Heater Unmet Demand Heat Transfer Energy [J] !RunPeriod [Value,Min,Month,Day,Hour,Minute,Max,Month,Day,Hour,Minute]
1308,11,WATER HEATER,Water Heater Electricity Energy [J] !RunPeriod [Value,Min,Month,Day,Hour,Minute,Max,Month,Day,Hour,Minute]
13,11,Electricity:Facility [J] !RunPeriod [Value,Min,Month,Day,Hour,Minute,Max,Month,Day,Hour,Minute]
1134,11,Heating:Electricity [J] !RunPeriod [Value,Min,Month,Day,Hour,Minute,Max,Month,Day,Hour,Minute]
1096,11,Cooling:Electricity [J] !RunPeriod [Value,Min,Month,Day,Hour,Minute,Max,Month,Day,Hour,Minute]
562,11,Fans:Electricity [J] !RunPeriod [Value,Min,Month,Day,Hour,Minute,Max,Month,Day,Hour,Minute]
1379,11,Pumps:Electricity [J] !RunPeriod [Value,Min,Month,Day,Hour,Minute,Max,Month,Day,Hour,Minute]
1326,11,WaterSystems:Electricity [J] !RunPeriod [Value,Min,Month,Day,Hour,Minute,Max,Month,Day,Hour,Minute]
61,11,InteriorLights:Electricity [J] !RunPeriod [Value,Min,Month,Day,Hour,Minute,Max,Month,Day,Hour,Minute]
1046,11,ExteriorLights:Electricity [J] !RunPeriod [Value,Min,Month,Day,Hour,Minute,Max,Month,Day,Hour,Minute]
134,11,InteriorEquipment:Electricity [J] !RunPeriod [Value,Min,Month,Day,Hour,Minute,Max,Month,Day,Hour,Minute]
170,11,gas_dryer:InteriorEquipment:Electricity [J] !RunPeriod [Value,Min,Month,Day,Hour,Minute,Max,Month,Day,Hour,Minute]
207,11,clotheswasher:InteriorEquipment:Electricity [J] !RunPeriod [Value,Min,Month,Day,Hour,Minute,Max,Month,Day,Hour,Minute]
244,11,dishwasher:InteriorEquipment:Electricity [J] !RunPeriod [Value,Min,Month,Day,Hour,Minute,Max,Month,Day,Hour,Minute]
281,11,refrigerator:InteriorEquipment:Electricity [J] !RunPeriod [Value,Min,Month,Day,Hour,Minute,Max,Month,Day,Hour,Minute]
318,11,electric_mels:InteriorEquipment:Electricity [J] !RunPeriod [Value,Min,Month,Day,Hour,Minute,Max,Month,Day,Hour,Minute]
355,11,NaturalGas:Facility [J] !RunPeriod [Value,Min,Month,Day,Hour,Minute,Max,Month,Day,Hour,Minute]
403,11,InteriorEquipment:NaturalGas [J] !RunPeriod [Value,Min,Month,Day,Hour,Minute,Max,Month,Day,Hour,Minute]
476,11,gas_dryer:InteriorEquipment:NaturalGas [J] !RunPeriod [Value,Min,Month,Day,Hour,Minute,Max,Month,Day,Hour,Minute]
513,11,gas_mels:InteriorEquipment:NaturalGas [J] !RunPeriod [Value,Min,Month,Day,Hour,Minute,Max,Month,Day,Hour,Minute]
End of Data Dictionary
1,EXTREME_WINTER,  43.58, -96.73,  -6.00, 435.30
5,7
1038,10.25,0.0, 1,27, 1,15,0.25, 1,28, 6,15
1039,0.0,0.0, 1,27, 1,15,0.0, 1,27, 1,15
581,0.6312233594481789,0.31168964685465733, 1,28,23, 5,1.1509089615429093, 2, 1,20,60
582,7.6698798398229755,0.08515458855588304, 1,28,21,60,22.50826136734311, 1,29,11,52
583,0.08744471120761606,0.0009510668969816212, 1,28,23, 5,0.10263388423984608, 1,27,14,60
1115,2475935636.0993285,0.0, 1,28,23, 5,4753414.099662561, 1,29, 9,60
1128,1010102843.2872005,0.0, 1,28,23, 5,1639736.0790584579, 1,27, 6,45
1153,7317026.593469281,0.0, 1,28,23, 5,71591.8184801867, 1,29, 5,60
1154,1422159.529144983,0.0, 1,27, 1, 7,75006.90016780798, 1,31,14,15
1155,2324668999.0874443,0.0, 1,27,23, 5,7592861.205477516, 1,30, 6,60
1156,2324668999.0874443,0.0, 1,27,23, 5,7592861.205477516, 1,30, 6,60
1292,-25264048.495453294,-39783.986795718316, 1,30, 2,15,-6278.31885197594, 1,28,11,45
1306,290674689.8415513,0.0, 1,27, 1, 7,4050000.0, 1,27, 8,45
1307,106459968.91110311,0.0, 1,27, 1, 7,16167681.117031286, 1,27, 8,30
1308,290674689.8415513,0.0, 1,27, 1, 7,4050000.0, 1,27, 8,45
13,4107342962.605202,1415083.672807746, 1,31,14,15,13863230.816216247, 1,30, 6,60
61,301924526.02383536,88139.10953165221, 1,27, 1,15,1282023.4113694867, 1,27,20,15
134,70666020.44019976,63564.01800854099, 1,27, 4,15,156554.22484006523, 2, 1,20,15
170,5241013.419656067,348.4159749238097, 1,27, 4,15,17476.39704006126, 2, 1,12,15
207,6509451.13922267,815.2532113832032, 1,27, 3,15,22990.642799023623, 2, 1,10,15
244,12749673.399825225,1521.856143006317, 1,27, 4,15,53038.631142310165, 2, 1,20,15
281,46165882.481495745,59938.60262432081, 1,27, 5,15,81951.81706819107, 1,27,19,15
318,0.0,0.0, 1,27, 1,15,0.0, 1,27, 1,15
355,197687796.27748066,18561.32405820678, 1,27, 4,15,724774.895203776, 2, 1,18,15
403,197687796.27748066,18561.32405820678, 1,27, 4,15,724774.895203776, 2, 1,18,15
476,106772067.24485716,7098.072629279515, 1,27, 4,15,356036.3026282215, 2, 1,12,15
513,0.0,0.0, 1,27, 1,15,0.0, 1,27, 1,15
562,100566697.80235957,87833.94019773061, 1,31,14,15,151466.60948797653, 1,27, 1,15
1046,0.0,0.0, 1,27, 1,15,0.0, 1,27, 1,15
1096,0.0,0.0, 1,27, 1,15,0.0, 1,27, 1,15
1134,3343511028.497261,1047683.2810049878, 1,31,14,15,9095555.031448286, 2, 1,20,30
1326,290674689.8415513,0.0, 1,27, 1,15,4050000.0, 1,27, 8,45
1379,0.0,0.0, 1,27, 1,15,0.0, 1,27, 1,15
1,EXTREME_SUMMER,  43.58, -96.73,  -6.00, 435.30
5,7
1038,0.0,0.0, 7,27, 1,15,0.0, 7,27, 1,15
1039,6.5,0.0, 7,27, 1,15,0.25, 8, 1,15,15
581,0.20984454807615438,0.0, 7,30,23, 3,0.586322740419006, 7,29,24,60
582,4.348300523044342,0.0021161888519562835, 7,27, 2,25,14.02934991115241, 7,29,23,50
583,0.036073591875868054,0.0, 7,30,23, 7,0.08362302586354685, 8, 1,19,52
1115,0.0,0.0, 7,27, 1, 7,0.0, 7,27, 1, 7
1128,0.0,0.0, 7,27, 1, 7,0.0, 7,27, 1, 7
1153,0.0,0.0, 7,27, 1, 7,0.0, 7,27, 1, 7
1154,0.0,0.0, 7,27, 1, 7,0.0, 7,27, 1, 7
1155,0.0,0.0, 7,27, 1, 7,0.0, 7,27, 1, 7
1156,0.0,0.0, 7,27, 1, 7,0.0, 7,27, 1, 7
1292,-22023482.358227074,-34347.99119557856, 8, 2, 8,30,-3283.942853333206, 7,31,14,60
1306,217158859.291731,0.0, 7,27, 1, 7,4050000.0, 7,30, 6,60
1307,59566312.09401693,0.0, 7,27, 1, 7,10578326.668418342, 7,27, 8,30
1308,217158859.291731,0.0, 7,27, 1, 7,4050000.0, 7,30, 6,60
13,1135562000.220082,151703.1275401932, 7,27, 4,60,6517344.514866756, 8, 2,17,15
61,301924526.02383536,88139.10953165221, 7,27, 1,15,1282023.4113694867, 7,27,20,15
134,70666020.44019976,63564.01800854099, 7,27, 4,15,156554.22484006523, 8, 1,20,15
170,5241013.419656067,348.4159749238097, 7,27, 4,15,17476.39704006126, 8, 1,12,15
207,6509451.13922267,815.2532113832032, 7,27, 3,15,22990.642799023623, 8, 1,10,15
244,12749673.399825225,1521.856143006317, 7,27, 4,15,53038.631142310165, 8, 1,20,15
281,46165882.481495745,59938.60262432081, 7,27, 5,15,81951.81706819107, 7,27,19,15
318,0.0,0.0, 7,27, 1,15,0.0, 7,27, 1,15
355,197687796.27748066,18561.32405820678, 7,27, 4,15,724774.895203776, 8, 1,18,15
403,197687796.27748066,18561.32405820678, 7,27, 4,15,724774.895203776, 8, 1,18,15
476,106772067.24485716,7098.072629279515, 7,27, 4,15,356036.3026282215, 8, 1,12,15
513,0.0,0.0, 7,27, 1,15,0.0, 7,27, 1,15
562,45375938.44764673,0.0, 7,27, 4,60,151466.60948797653, 8, 1,14,30
1046,0.0,0.0, 7,27, 1,15,0.0, 7,27, 1,15
1096,500436656.01666814,0.0, 7,27, 4,60,1995025.4434980778, 8, 1,16,60
1134,0.0,0.0, 7,27, 1,15,0.0, 7,27, 1,15
1326,217158859.291731,0.0, 7,27, 1,15,4050000.0, 7,27, 8,45
1379,0.0,0.0, 7,27, 1,15,0.0, 7,27, 1,15
1,ANNUAL,  43.58, -96.73,  -6.00, 435.30
5,365
1038,36.25,0.0, 1, 1, 1,15,0.25, 1, 8,21,30
1039,25.0,0.0, 1, 1, 1,15,0.25, 5,28,11,15
581,0.337357536572809,0.0, 7, 1, 6,10,1.3202646404275706,10,27,13,15
582,4.996975359968211,0.0, 1, 1, 7,30,30.70388664895379, 4,26,16,60
583,0.034094245461588416,0.0, 7,20,23, 3,0.10453979705527824,12,10,17,60
1115,40620887328.16729,0.0, 1, 1,23, 3,5518880.691029194, 2,15, 7,30
1128,14327244325.72893,0.0, 1, 1,23, 3,1705169.6304738547,12,13, 7,30
1153,435711107.6549276,0.0, 1, 1,23, 3,131984.62937615774, 3, 9, 6,45
1154,1577660711.203016,0.0, 1, 1, 2,45,180000.0, 1, 2,15,15
1155,12817486555.824162,0.0, 1, 1, 1,15,7592861.205477516, 1,12, 6,45
1156,12817486555.824162,0.0, 1, 1, 1,15,7592861.205477516, 1,12, 6,45
1292,-1235928834.3804016,-41061.27811581229, 2, 8, 5,30,-1913.3782985176897, 6,16, 8,46
1306,13289187652.865908,0.0, 1, 1, 1,15,4050000.0, 1, 1, 9,45
1307,4306008929.587383,0.0, 1, 1, 1,15,16338129.150420457, 2,13, 8,30
1308,13289187652.865908,0.0, 1, 1, 1,15,4050000.0, 1, 1, 9,45
13,71263495445.62558,151703.1275401932, 4,12, 4,15,13980485.403185053, 1,12, 7,15
61,15743207428.383959,88139.10953165221, 1, 1, 1,15,1282023.4113694867, 1, 1,20,15
134,3685071073.4325233,63564.01800854099, 1, 2, 4,15,156554.22484006523, 1, 1,20,15
170,273393721.45532674,348.4159749238097, 1, 2, 4,15,17476.39704006126, 1, 1,12,15
207,339560869.0695816,815.2532113832032, 1, 2, 3,15,22990.642799023623, 1, 1,10,15
244,664895467.8009144,1521.856143006317, 1, 2, 4,15,53038.631142310165, 1, 1,20,15
281,2407221015.106824,59938.60262432081, 1, 1, 5,15,81951.81706819107, 1, 1,19,15
318,0.0,0.0, 1, 1, 1,15,0.0, 1, 1, 1,15
355,10310294493.051695,18561.32405820678, 1, 2, 4,15,724774.895203776, 1, 1,18,15
403,10310294493.051695,18561.32405820678, 1, 2, 4,15,724774.895203776, 1, 1,18,15
476,5569688622.066177,7098.072629279515, 1, 2, 4,15,356036.3026282215, 1, 1,12,15
513,0.0,0.0, 1, 1, 1,15,0.0, 1, 1, 1,15
562,2091217326.9745398,0.0, 1, 2,14,60,151466.60948797656, 7,16,17,45
1046,0.0,0.0, 1, 1, 1,15,0.0, 1, 1, 1,15
1096,7296709263.556917,0.0, 1, 1, 1,15,1997571.3627531114, 8, 1,16,60
1134,29158102700.41093,0.0, 2,16,15,60,9098813.874823894, 2, 1, 6,15
1326,13289187652.865885,0.0, 1, 1, 1,15,4050000.0000000014, 6,16, 8,45
1379,0.0,0.0, 1, 1, 1,15,0.0, 1, 1, 1,15
End of Data
 Number of Records Written=          99
