Program Version,EnergyPlus, Version 22.2.0-c249759bad, YMD=2023.09.01 20:52
1,5,Environment Title[],Latitude[deg],Longitude[deg],Time Zone[],Elevation[m]
2,8,Day of Simulation[],Month[],Day of Month[],DST Indicator[1=yes 0=no],Hour[],StartMinute[],EndMinute[],DayType
3,5,Cumulative Day of Simulation[],Month[],Day of Month[],DST Indicator[1=yes 0=no],DayType  ! When Daily Report Variables Requested
4,2,Cumulative Days of Simulation[],Month[]  ! When Monthly Report Variables Requested
5,1,Cumulative Days of Simulation[] ! When Run Period Report Variables Requested
6,1,Calendar Year of Simulation[] ! When Annual Report Variables Requested
581,11,LIVING,AFN Zone Infiltration Air Change Rate [ach] !RunPeriod [Value,Min,Month,Day,Hour,Minute,Max,Month,Day,Hour,Minute]
582,11,ATTIC,AFN Zone Infiltration Air Change Rate [ach] !RunPeriod [Value,Min,Month,Day,Hour,Minute,Max,Month,Day,Hour,Minute]
583,11,CRAWLSPACE,AFN Zone Infiltration Air Change Rate [ach] !RunPeriod [Value,Min,Month,Day,Hour,Minute,Max,Month,Day,Hour,Minute]
1038,11,Facility,Facility Heating Setpoint Not Met Time [hr] !RunPeriod [Value,Min,Month,Day,Hour,Minute,Max,Month,Day,Hour,Minute]
1039,11,Facility,Facility Cooling Setpoint Not Met Time [hr] !RunPeriod [Value,Min,Month,Day,Hour,Minute,Max,Month,Day,Hour,Minute]
1115,11,DX_HEATING_COIL,Heating Coil Heating Energy [J] !RunPeriod [Value,Min,Month,Day,Hour,Minute,Max,Month,Day,Hour,Minute]
1128,11,DX_HEATING_COIL,Heating Coil Electricity Energy [J] !RunPeriod [Value,Min,Month,Day,Hour,Minute,Max,Month,Day,Hour,Minute]
1153,11,DX_HEATING_COIL,Heating Coil Defrost Electricity Energy [J] !RunPeriod [Value,Min,Month,Day,Hour,Minute,Max,Month,Day,Hour,Minute]
1154,11,DX_HEATING_COIL,Heating Coil Crankcase Heater Electricity Energy [J] !RunPeriod [Value,Min,Month,Day,Hour,Minute,Max,Month,Day,Hour,Minute]
1155,11,HEATING_RESISTANCE_BACKUP,Heating Coil Heating Energy [J] !RunPeriod [Value,Min,Month,Day,Hour,Minute,Max,Month,Day,Hour,Minute]
1156,11,HEATING_RESISTANCE_BACKUP,Heating Coil Electricity Energy [J] !RunPeriod [Value,Min,Month,Day,Hour,Minute,Max,Month,Day,Hour,Minute]
1292,11,WATER HEATER,Water Heater Heat Loss Energy [J] !RunPeriod [Value,Min,Month,Day,Hour,Minute,Max,Month,Day,Hour,Minute]
1306,11,WATER HEATER,Water Heater Heating Energy [J] !RunPeriod [Value,Min,Month,Day,Hour,Minute,Max,Month,Day,Hour,Minute]
1307,11,WATER HEATER,Water Heater Unmet Demand Heat Transfer Energy [J] !RunPeriod [Value,Min,Month,Day,Hour,Minute,Max,Month,Day,Hour,Minute]
1308,11,WATER HEATER,Water Heater Electricity Energy [J] !RunPeriod [Value,Min,Month,Day,Hour,Minute,Max,Month,Day,Hour,Minute]
13,11,Electricity:Facility [J] !RunPeriod [Value,Min,Month,Day,Hour,Minute,Max,Month,Day,Hour,Minute]
1134,11,Heating:Electricity [J] !RunPeriod [Value,Min,Month,Day,Hour,Minute,Max,Month,Day,Hour,Minute]
1096,11,Cooling:Electricity [J] !RunPeriod [Value,Min,Month,Day,Hour,Minute,Max,Month,Day,Hour,Minute]
562,11,Fans:Electricity [J] !RunPeriod [Value,Min,Month,Day,Hour,Minute,Max,Month,Day,Hour,Minute]
1379,11,Pumps:Electricity [J] !RunPeriod [Value,Min,Month,Day,Hour,Minute,Max,Month,Day,Hour,Minute]
1326,11,WaterSystems:Electricity [J] !RunPeriod [Value,Min,Month,Day,Hour,Minute,Max,Month,Day,Hour,Minute]
61,11,InteriorLights:Electricity [J] !RunPeriod [Value,Min,Month,Day,Hour,Minute,Max,Month,Day,Hour,Minute]
1046,11,ExteriorLights:Electricity [J] !RunPeriod [Value,Min,Month,Day,Hour,Minute,Max,Month,Day,Hour,Minute]
134,11,InteriorEquipment:Electricity [J] !RunPeriod [Value,Min,Month,Day,Hour,Minute,Max,Month,Day,Hour,Minute]
170,11,gas_dryer:InteriorEquipment:Electricity [J] !RunPeriod [Value,Min,Month,Day,Hour,Minute,Max,Month,Day,Hour,Minute]
207,11,clotheswasher:InteriorEquipment:Electricity [J] !RunPeriod [Value,Min,Month,Day,Hour,Minute,Max,Month,Day,Hour,Minute]
244,11,dishwasher:InteriorEquipment:Electricity [J] !RunPeriod [Value,Min,Month,Day,Hour,Minute,Max,Month,Day,Hour,Minute]
281,11,refrigerator:InteriorEquipment:Electricity [J] !RunPeriod [Value,Min,Month,Day,Hour,Minute,Max,Month,Day,Hour,Minute]
318,11,electric_mels:InteriorEquipment:Electricity [J] !RunPeriod [Value,Min,Month,Day,Hour,Minute,Max,Month,Day,Hour,Minute]
355,11,NaturalGas:Facility [J] !RunPeriod [Value,Min,Month,Day,Hour,Minute,Max,Month,Day,Hour,Minute]
403,11,InteriorEquipment:NaturalGas [J] !RunPeriod [Value,Min,Month,Day,Hour,Minute,Max,Month,Day,Hour,Minute]
476,11,gas_dryer:InteriorEquipment:NaturalGas [J] !RunPeriod [Value,Min,Month,Day,Hour,Minute,Max,Month,Day,Hour,Minute]
513,11,gas_mels:InteriorEquipment:NaturalGas [J] !RunPeriod [Value,Min,Month,Day,Hour,Minute,Max,Month,Day,Hour,Minute]
End of Data Dictionary
1,EXTREME_WINTER,  32.32, -90.08,  -6.00,  91.10
5,7
1038,0.25,0.0,12, 8, 1,15,0.25,12,10, 6,15
1039,0.0,0.0,12, 8, 1,15,0.0,12, 8, 1,15
581,0.22431237854922298,0.1170801321546712,12,13, 3,60,0.3795921741414576,12,10, 6,10
582,1.7945024463023806,0.0,12, 8, 1,15,5.252401863240511,12,10,13,60
583,0.012754761441300812,0.00018114845119147614,12,12,12,46,0.07696823985019452,12,12, 6,52
1115,337102497.50105214,0.0,12, 8, 1,15,3880778.566196018,12, 8, 6,60
1128,108949792.98762448,0.0,12, 8, 1,15,1277577.660527467,12, 8, 6,60
1153,6831519.5376122,0.0,12, 8, 1,15,78176.1967979914,12,12, 7,30
1154,56513352.44997797,0.0,12, 8, 6, 5,180000.0,12, 8, 1,15
1155,3938342.2758612996,0.0,12, 8, 1,15,841427.9838121722,12, 8, 6, 5
1156,3938342.2758612996,0.0,12, 8, 1,15,841427.9838121722,12, 8, 6, 5
1292,-23822010.421650153,-39744.50062242403,12,10, 3,30,-3055.0980247103735,12, 9,10,60
1306,298678614.356865,0.0,12, 8, 1,15,4050000.0,12,13, 9,60
1307,113113910.83100319,0.0,12, 8, 1,15,8622043.475032592,12,14,20,60
1308,298678614.356865,0.0,12, 8, 1,15,4050000.0,12,13, 9,60
13,884922463.3307942,152071.80019841267,12,13, 4,15,5787538.6340807825,12,12,20,15
61,301924526.02383536,88139.10953165221,12, 8, 1,15,1282023.4113694867,12, 8,20,15
134,70666020.44019976,63564.01800854099,12, 8, 4,15,156554.22484006523,12,13,20,15
170,5241013.419656067,348.4159749238097,12, 8, 4,15,17476.39704006126,12,13,12,15
207,6509451.13922267,815.2532113832032,12, 8, 3,15,22990.642799023623,12,13,10,15
244,12749673.399825225,1521.856143006317,12, 8, 4,15,53038.631142310165,12,13,20,15
281,46165882.481495745,59938.60262432081,12, 8, 5,15,81951.81706819107,12, 8,19,15
318,0.0,0.0,12, 8, 1,15,0.0,12, 8, 1,15
355,197687796.27748066,18561.32405820678,12, 8, 4,15,724774.895203776,12,13,18,15
403,197687796.27748066,18561.32405820678,12, 8, 4,15,724774.895203776,12,13,18,15
476,106772067.24485716,7098.072629279515,12, 8, 4,15,356036.3026282215,12,13,12,15
513,0.0,0.0,12, 8, 1,15,0.0,12, 8, 1,15
562,14932569.369173758,0.0,12, 8, 1,15,142600.64638663907,12,12, 6,45
1046,0.0,0.0,12, 8, 1,15,0.0,12, 8, 1,15
1096,22487725.889647175,0.0,12, 8, 1,15,446101.52428838727,12,14,17,15
1134,176233007.25107595,0.0,12, 8,14,60,2266511.5603926196,12,12, 6,15
1326,298678614.356865,0.0,12, 8, 1,15,4050000.0,12, 8, 9,60
1379,0.0,0.0,12, 8, 1,15,0.0,12, 8, 1,15
1,EXTREME_SUMMER,  32.32, -90.08,  -6.00,  91.10
5,7
1038,0.0,0.0, 6,29, 1,15,0.0, 6,29, 1,15
1039,52.5,0.0, 6,29, 1,15,0.25, 6,29,15,30
581,0.07682393470123253,0.0, 6,29, 6, 7,0.5116851104045413, 6,30,18,48
582,2.1900526699672964,0.0, 7, 3,20,47,10.27412759978605, 6,30,18,48
583,0.04605116561544024,0.0, 7, 1,23, 3,0.07607994415056626, 7, 5,17,46
1115,0.0,0.0, 6,29, 1, 7,0.0, 6,29, 1, 7
1128,0.0,0.0, 6,29, 1, 7,0.0, 6,29, 1, 7
1153,0.0,0.0, 6,29, 1, 7,0.0, 6,29, 1, 7
1154,0.0,0.0, 6,29, 1, 7,0.0, 6,29, 1, 7
1155,0.0,0.0, 6,29, 1, 7,0.0, 6,29, 1, 7
1156,0.0,0.0, 6,29, 1, 7,0.0, 6,29, 1, 7
1292,-21645139.83821816,-34333.3075144582, 6,30,11,45,-2622.0387913004492, 7, 5,17,57
1306,225793009.92094946,0.0, 6,29, 1, 7,4050000.0, 6,30, 9,45
1307,59822064.84220636,0.0, 6,29, 1, 7,1866801.7526748518, 7, 2, 9,37
1308,225793009.92094946,0.0, 6,29, 1, 7,4050000.0, 6,30, 9,45
13,1267208692.2401893,228328.10264436842, 6,29, 4,60,7007006.318742802, 7, 3,19,45
61,301924526.02383536,88139.10953165221, 6,29, 1,15,1282023.4113694867, 6,29,20,15
134,70666020.44019976,63564.01800854099, 6,29, 4,15,156554.22484006523, 7, 4,20,15
170,5241013.419656067,348.4159749238097, 6,29, 4,15,17476.39704006126, 7, 4,12,15
207,6509451.13922267,815.2532113832032, 6,29, 3,15,22990.642799023623, 7, 4,10,15
244,12749673.399825225,1521.856143006317, 6,29, 4,15,53038.631142310165, 7, 4,20,15
281,46165882.481495745,59938.60262432081, 6,29, 5,15,81951.81706819107, 6,29,19,15
318,0.0,0.0, 6,29, 1,15,0.0, 6,29, 1,15
355,197687796.27748066,18561.32405820678, 6,29, 4,15,724774.895203776, 7, 4,18,15
403,197687796.27748066,18561.32405820678, 6,29, 4,15,724774.895203776, 7, 4,18,15
476,106772067.24485716,7098.072629279515, 6,29, 4,15,356036.3026282215, 7, 4,12,15
513,0.0,0.0, 6,29, 1,15,0.0, 6,29, 1,15
562,61562272.20818447,8011.244051893389, 6,29, 5,60,142600.6463866391, 6,29,18,15
1046,0.0,0.0, 6,29, 1,15,0.0, 6,29, 1,15
1096,607262863.6470203,65716.73591972244, 6,29, 5,60,1609768.290501619, 7, 5,16,60
1134,0.0,0.0, 6,29, 1,15,0.0, 6,29, 1,15
1326,225793009.9209495,0.0, 6,29, 1,15,4050000.0, 6,29, 9,60
1379,0.0,0.0, 6,29, 1,15,0.0, 6,29, 1,15
1,ANNUAL,  32.32, -90.08,  -6.00,  91.10
5,365
1038,2.0,0.0, 1, 1, 1,15,0.25, 1, 4, 6,15
1039,941.5,0.0, 1, 1, 1,15,0.25, 1, 8,12,60
581,0.17397650111805493,0.0, 5,10,22,37,0.9124661646769213, 8, 9,14,48
582,2.746038222476685,0.0, 1, 2, 8,60,24.660310334561004, 8, 9,14,46
583,0.029644728947529234,0.0, 5,10,23, 3,0.08685070254454684, 9, 1,16,50
1115,3684354623.7820387,0.0, 1, 1,15,30,4456859.471372367, 1,23, 6,30
1128,1143296090.1101136,0.0, 1, 1,15,30,1350284.8401653836, 1,23, 6,30
1153,59090054.914575994,0.0, 1, 1, 1,15,78190.1353014898,12,29, 6,60
1154,1035292204.8540672,0.0, 1, 1, 6, 5,180000.0, 1, 1,15,30
1155,40994352.347976275,0.0, 1, 1, 1,15,1291673.1772292973, 1,24, 6,45
1156,40994352.347976275,0.0, 1, 1, 1,15,1291673.1772292973, 1,24, 6,45
1292,-1171368776.7558117,-39802.33773428975, 1,17, 5,45,-1369.990958162979, 3, 3,10, 1
1306,13928940398.303429,0.0, 1, 1, 1,15,4050000.0, 1, 1, 9,60
1307,4691271033.868778,0.0, 1, 1, 1,15,13230123.489000222,12,22, 9,60
1308,13928940398.303429,0.0, 1, 1, 1,15,4050000.0, 1, 1, 9,60
13,53779676112.50208,151703.1275401932, 1, 9, 4,15,7113694.144688849, 7, 4,20,15
61,15743207428.383959,88139.10953165221, 1, 1, 1,15,1282023.4113694867, 1, 1,20,15
134,3685071073.4325233,63564.01800854099, 1, 2, 4,15,156554.22484006523, 1, 1,20,15
170,273393721.45532674,348.4159749238097, 1, 2, 4,15,17476.39704006126, 1, 1,12,15
207,339560869.0695816,815.2532113832032, 1, 2, 3,15,22990.642799023623, 1, 1,10,15
244,664895467.8009144,1521.856143006317, 1, 2, 4,15,53038.631142310165, 1, 1,20,15
281,2407221015.106824,59938.60262432081, 1, 1, 5,15,81951.81706819107, 1, 1,19,15
318,0.0,0.0, 1, 1, 1,15,0.0, 1, 1, 1,15
355,10310294493.051695,18561.32405820678, 1, 2, 4,15,724774.895203776, 1, 1,18,15
403,10310294493.051695,18561.32405820678, 1, 2, 4,15,724774.895203776, 1, 1,18,15
476,5569688622.066177,7098.072629279515, 1, 2, 4,15,356036.3026282215, 1, 1,12,15
513,0.0,0.0, 1, 1, 1,15,0.0, 1, 1, 1,15
562,1926603469.627766,0.0, 1, 1,15,30,142600.6463866391, 3,20,17,30
1046,0.0,0.0, 1, 1, 1,15,0.0, 1, 1, 1,15
1096,16217181040.525629,0.0, 1, 1, 1,15,1612359.0675651063, 7, 5,16,60
1134,2278672702.226735,0.0, 1, 3,12,60,3321177.4975572303, 1,24, 6,15
1326,13928940398.303465,0.0, 1, 1, 1,15,4050000.0000000014, 1,13,10,30
1379,0.0,0.0, 1, 1, 1,15,0.0, 1, 1, 1,15
End of Data
 Number of Records Written=          99
