Program Version,EnergyPlus, Version 22.2.0-c249759bad, YMD=2023.09.01 14:30
1,5,Environment Title[],Latitude[deg],Longitude[deg],Time Zone[],Elevation[m]
2,8,Day of Simulation[],Month[],Day of Month[],DST Indicator[1=yes 0=no],Hour[],StartMinute[],EndMinute[],DayType
3,5,Cumulative Day of Simulation[],Month[],Day of Month[],DST Indicator[1=yes 0=no],DayType  ! When Daily Report Variables Requested
4,2,Cumulative Days of Simulation[],Month[]  ! When Monthly Report Variables Requested
5,1,Cumulative Days of Simulation[] ! When Run Period Report Variables Requested
6,1,Calendar Year of Simulation[] ! When Annual Report Variables Requested
7,1,Environment,Site Outdoor Air Drybulb Temperature [C] !Hourly
619,1,DX_HEATING_COIL,Heating Coil Heating Rate [W] !Hourly
633,1,DX_HEATING_COIL,Heating Coil Electricity Rate [W] !Hourly
659,1,DX_HEATING_COIL,Heating Coil Defrost Electricity Rate [W] !Hourly
661,1,DX_HEATING_COIL,Heating Coil Crankcase Heater Electricity Rate [W] !Hourly
690,1,FAN,Fan Electricity Rate [W] !Hourly
716,1,HEAT PUMP WATER HEATER FAN,Fan Electricity Rate [W] !Hourly
718,1,LIVING,Zone Mean Air Temperature [C] !Hourly
719,1,ATTIC,Zone Mean Air Temperature [C] !Hourly
720,1,CRAWLSPACE,Zone Mean Air Temperature [C] !Hourly
843,1,LIVING,Zone Predicted Sensible Load to Heating Setpoint Heat Transfer Rate [W] !Hourly
844,1,LIVING,Zone System Predicted Sensible Load to Heating Setpoint Heat Transfer Rate [W] !Hourly
907,1,ATTIC,Zone Predicted Sensible Load to Heating Setpoint Heat Transfer Rate [W] !Hourly
908,1,ATTIC,Zone System Predicted Sensible Load to Heating Setpoint Heat Transfer Rate [W] !Hourly
971,1,CRAWLSPACE,Zone Predicted Sensible Load to Heating Setpoint Heat Transfer Rate [W] !Hourly
972,1,CRAWLSPACE,Zone System Predicted Sensible Load to Heating Setpoint Heat Transfer Rate [W] !Hourly
1195,1,HEATING_RESISTANCE_BACKUP,Heating Coil Heating Rate [W] !Hourly
1197,1,HEATING_RESISTANCE_BACKUP,Heating Coil Electricity Rate [W] !Hourly
End of Data Dictionary
1,EXTREME_WINTER,  38.05, -87.53,  -6.00, 121.90
2,1, 1, 8, 0, 1, 0.00,60.00,Monday
7,-15.0
718,18.64197004133845
719,-2.820016547688098
720,18.931386178395034
619,3115.8339271754717
633,1270.3509563430184
659,1.1832058375440764
661,0.0
690,148.14645038927185
716,0.0
843,3848.3767375652933
844,3848.3767375652933
907,0.0
908,0.0
971,0.0
972,0.0
1195,2274.3933218296725
1197,2274.3933218296725
2,1, 1, 8, 0, 2, 0.00,60.00,Monday
7,-15.6
718,18.614661054019162
719,-5.128801776603673
720,18.574079675428177
619,3051.451880356624
633,1258.7066446089589
659,2.839044456892575
661,0.0
690,148.14645038927185
716,0.0
843,4158.874617652016
844,4158.874617652016
907,0.0
908,0.0
971,0.0
972,0.0
1195,2829.6422718613258
1197,2829.6422718613258
2,1, 1, 8, 0, 3, 0.00,60.00,Monday
7,-15.6
718,18.604474091806267
719,-6.756883061136793
720,18.406803659601415
619,3052.3631718046026
633,1257.7891859208128
659,2.8409506951608274
661,0.0
690,148.14645038927185
716,0.0
843,4373.811991736617
844,4373.811991736617
907,0.0
908,0.0
971,0.0
972,0.0
1195,3207.6854546710542
1197,3207.6854546710542
2,1, 1, 8, 0, 4, 0.00,60.00,Monday
7,-15.6
718,18.603440184960213
719,-7.743628467484425
720,18.201369539885945
619,3044.741409757764
633,1254.121586977499
659,5.536745965183923
661,0.0
690,148.14645038927185
716,0.0
843,4550.0306024299225
844,4550.0306024299225
907,0.0
908,0.0
971,0.0
972,0.0
1195,3532.0201600636474
1197,3532.0201600636474
2,1, 1, 8, 0, 5, 0.00,60.00,Monday
7,-16.1
718,18.59930127364899
719,-8.394064183200161
720,18.009724842668028
619,2990.5352864876945
633,1245.5620599610165
659,6.969063506528805
661,0.0
690,148.14645038927185
716,0.0
843,4833.155192905611
844,4833.155192905611
907,0.0
908,0.0
971,0.0
972,0.0
1195,3971.7776465623256
1197,3971.7776465623256
2,1, 1, 8, 0, 6, 0.00,60.00,Monday
7,-15.6
718,19.374632375058408
719,-8.259386760325235
720,17.829782464167497
619,3045.2158560518724
633,1253.6011054389164
659,5.547908700126696
661,0.0
690,148.14645038927185
716,0.0
843,5915.617380466783
844,5915.617380466783
907,0.0
908,0.0
971,0.0
972,0.0
1195,5269.70392173193
1197,5269.70392173193
2,1, 1, 8, 0, 7, 0.00,60.00,Monday
7,-15.6
718,19.24766559935857
719,-8.199560780567229
720,17.679565767990734
619,3028.331460404488
633,1270.3877718048489
659,5.547908700126696
661,0.0
690,148.14645038927185
716,85.44000000000005
843,5786.440608938932
844,5786.440608938932
907,0.0
908,0.0
971,0.0
972,0.0
1195,5497.164051451511
1197,5497.164051451511
2,1, 1, 8, 0, 8, 0.00,60.00,Monday
7,-15.0
718,18.980970607985835
719,-8.387425956087032
720,17.49328143814829
619,3090.2796498972866
633,1274.6793341659145
659,6.190434626022299
661,0.0
690,148.14645038927185
716,85.44000000000005
843,6185.803684942668
844,6185.803684942668
907,0.0
908,0.0
971,0.0
972,0.0
1195,5497.164051451511
1197,5497.164051451511
2,1, 1, 8, 0, 9, 0.00,60.00,Monday
7,-13.3
718,19.483626874922635
719,-7.796019159742037
720,17.32632302377948
619,3284.723325002536
633,1295.16709372825
659,2.4294805976173506
661,0.0
690,148.14645038927185
716,10.274378574853818
843,5674.5308676300065
844,5674.5308676300065
907,0.0
908,0.0
971,0.0
972,0.0
1195,4900.478938799318
1197,4900.478938799318
2,1, 1, 8, 0,10, 0.00,60.00,Monday
7,-12.8
718,19.6531713834805
719,-5.434404447275486
720,17.19058596053559
619,3331.0509261003003
633,1314.8607745766863
659,1.099968411331746
661,0.0
690,148.14645038927185
716,0.0
843,4959.559183838617
844,4959.559183838617
907,0.0
908,0.0
971,0.0
972,0.0
1195,3907.7156800892244
1197,3907.7156800892244
2,1, 1, 8, 0,11, 0.00,60.00,Monday
7,-11.7
718,19.696910202617858
719,-2.9327118119689675
720,17.060031033945066
619,3449.517410296762
633,1334.1463562809327
659,0.07136503208384143
661,0.0
690,148.14645038927185
716,0.0
843,4319.863254312902
844,4319.863254312902
907,0.0
908,0.0
971,0.0
972,0.0
1195,2892.2970760157787
1197,2892.2970760157787
2,1, 1, 8, 0,12, 0.00,60.00,Monday
7,-10.6
718,19.71656833049126
719,-1.3934406511493307
720,16.949212273155254
619,3569.8830651035473
633,1348.8993802097384
659,0.07136503208384143
661,0.0
690,148.14645038927185
716,0.0
843,3961.7560928529656
844,3961.7560928529656
907,0.0
908,0.0
971,0.0
972,0.0
1195,2223.0037217595973
1197,2223.0037217595973
2,1, 1, 8, 0,13, 0.00,60.00,Monday
7,-10.6
718,19.716434307609003
719,-0.7677574180230016
720,16.85041765912633
619,3569.56691090651
633,1349.2439180568563
659,0.07136503208384143
661,0.0
690,148.14645038927185
716,0.0
843,3822.344098698839
844,3822.344098698839
907,0.0
908,0.0
971,0.0
972,0.0
1195,1965.9987932006975
1197,1965.9987932006975
2,1, 1, 8, 0,14, 0.00,60.00,Monday
7,-8.3
718,19.706551102613982
719,-0.13760904837809224
720,16.78497045594463
619,3830.833732587304
633,1377.3774664335217
659,0.07136503208384143
661,0.0
690,148.14645038927185
716,78.87475883297073
843,3308.2695324936194
844,3308.2695324936194
907,0.0
908,0.0
971,0.0
972,0.0
1195,2027.5618252932009
1197,2027.5618252932009
2,1, 1, 8, 0,15, 0.00,60.00,Monday
7,-7.2
718,19.717410399834808
719,0.33754680544620624
720,16.719247244619357
619,3959.7374413065418
633,1390.3008503684803
659,0.07136503208384143
661,0.0
690,148.14645038927185
716,0.0
843,3311.6055474165405
844,3311.6055474165405
907,0.0
908,0.0
971,0.0
972,0.0
1195,904.7494407238428
1197,904.7494407238428
2,1, 1, 8, 0,16, 0.00,60.00,Monday
7,-6.7
718,19.71783921413172
719,0.12811899958760442
720,16.660528742553794
619,4018.8159031182076
633,1396.492903623855
659,0.07136503208384143
661,0.0
690,148.14645038927185
716,0.0
843,3626.272029811882
844,3626.272029811882
907,0.0
908,0.0
971,0.0
972,0.0
1195,1208.3478757327675
1197,1208.3478757327675
2,1, 1, 8, 0,17, 0.00,60.00,Monday
7,-6.7
718,19.71830999060514
719,-0.776199569029502
720,16.60490759934539
619,4018.8722608934495
633,1396.4282023951098
659,0.07136503208384143
661,0.0
690,148.14645038927185
716,0.0
843,3552.7295352444526
844,3552.7295352444526
907,0.0
908,0.0
971,0.0
972,0.0
1195,1124.5100419381956
1197,1124.5100419381956
2,1, 1, 8, 0,18, 0.00,60.00,Monday
7,-5.6
718,19.722611966732487
719,-0.6357472074996361
720,16.55754080918059
619,4150.9725693518385
633,1409.5782431809496
659,0.07136503208384143
661,0.0
690,148.14645038927185
716,0.0
843,3084.661523834666
844,3084.661523834666
907,0.0
908,0.0
971,0.0
972,0.0
1195,479.37154139330596
1197,479.37154139330596
2,1, 1, 8, 0,19, 0.00,60.00,Monday
7,-5.6
718,19.716558280389958
719,-0.7814687221047671
720,16.488515249624427
619,4150.930905935824
633,1409.6265983993987
659,0.07136503208384143
661,0.0
690,148.14645038927185
716,85.44000000000005
843,3031.3908194385804
844,3031.3908194385804
907,0.0
908,0.0
971,0.0
972,0.0
1195,1525.3592401457672
1197,1525.3592401457672
2,1, 1, 8, 0,20, 0.00,60.00,Monday
7,-3.9
718,19.70624786141122
719,-0.9224501677336547
720,16.427318075192737
619,4359.973342590023
633,1429.7868131070838
659,0.07136503208384143
661,0.0
690,148.14645038927185
716,85.44000000000005
843,3127.8681209325514
844,3127.8681209325514
907,0.0
908,0.0
971,0.0
972,0.0
1195,1463.7972098458877
1197,1463.7972098458877
2,1, 1, 8, 0,21, 0.00,60.00,Monday
7,-3.3
718,19.711207179650557
719,-0.6625125397820008
720,16.347329731107028
619,4435.390799120338
633,1436.6334099162773
659,0.07136503208384143
661,0.0
690,148.14645038927185
716,52.33823738027535
843,3863.613371078378
844,3863.613371078378
907,0.0
908,0.0
971,0.0
972,0.0
1195,1823.558459407659
1197,1823.558459407659
2,1, 1, 8, 0,22, 0.00,60.00,Monday
7,-3.3
718,19.723059747394494
719,-0.48524185046028495
720,16.27679079118615
619,4435.34275780731
633,1436.690150404086
659,0.07136503208384143
661,0.0
690,148.14645038927185
716,0.0
843,3418.128103334193
844,3418.128103334193
907,0.0
908,0.0
971,0.0
972,0.0
1195,591.7185881559353
1197,591.7185881559353
2,1, 1, 8, 0,23, 0.00,60.00,Monday
7,-3.3
718,18.9601533485185
719,-0.9617315257394994
720,16.195725660228064
619,4435.157306470667
633,1436.9091859708528
659,0.07136503208384143
661,0.0
690,148.14645038927185
716,0.0
843,2954.370389311718
844,2954.370389311718
907,0.0
908,0.0
971,0.0
972,0.0
1195,29.704136914954688
1197,29.704136914954688
2,1, 1, 8, 0,24, 0.00,60.00,Monday
7,-3.3
718,18.728124330249905
719,-0.5127670455555623
720,16.0832485441476
619,4453.327623303829
633,1415.475102791964
659,0.07136503208384143
661,0.0
690,148.14645038927185
716,0.0
843,3084.2079949911495
844,3084.2079949911495
907,0.0
908,0.0
971,0.0
972,0.0
1195,133.18959004434964
1197,133.18959004434964
2,2, 1, 9, 0, 1, 0.00,60.00,Tuesday
7,-3.3
718,18.646940202841396
719,-0.5192378947730253
720,15.995729517593249
619,4458.925243235351
633,1408.884096528232
659,0.07136503208384143
661,0.0
690,148.14645038927185
716,0.0
843,3508.51606320214
844,3508.51606320214
907,0.0
908,0.0
971,0.0
972,0.0
1195,590.5752670749939
1197,590.5752670749939
2,2, 1, 9, 0, 2, 0.00,60.00,Tuesday
7,-2.8
718,18.6236227680706
719,-0.27382848863571163
720,15.916584295344546
619,4524.0757184521335
633,1412.4795345257153
659,0.07136503208384143
661,0.0
690,148.14645038927185
716,0.0
843,3240.9919203581303
844,3240.9919203581303
907,0.0
908,0.0
971,0.0
972,0.0
1195,195.43684363146258
1197,195.43684363146258
2,2, 1, 9, 0, 3, 0.00,60.00,Tuesday
7,-2.2
718,18.630756798235485
719,0.2353447053787167
720,15.840265689651487
619,4090.7561373375
633,1277.2416960183002
659,0.06423413647042972
661,19.984284754567618
690,133.34217083233355
716,0.0
843,2801.76662280064
844,2801.76662280064
907,0.0
908,0.0
971,0.0
972,0.0
1195,0.0
1197,0.0
2,2, 1, 9, 0, 4, 0.00,60.00,Tuesday
7,-3.3
718,18.60733504354502
719,-0.5313383711483385
720,15.749973997125819
619,4304.223198855997
633,1361.6548386140112
659,0.06911861947339704
661,6.29555552586385
690,143.4815489196132
716,0.0
843,2952.3008022461163
844,2952.3008022461163
907,0.0
908,0.0
971,0.0
972,0.0
1195,0.0
1197,0.0
2,2, 1, 9, 0, 5, 0.00,60.00,Tuesday
7,-5.6
718,18.58951079368134
719,-1.182216659985228
720,15.655588851034258
619,4165.809849802195
633,1374.2581524283717
659,3.0725512207487427
661,0.0
690,148.14645038927185
716,0.0
843,3592.14236816216
844,3592.14236816216
907,0.0
908,0.0
971,0.0
972,0.0
1195,980.4241598028425
1197,980.4241598028425
2,2, 1, 9, 0, 6, 0.00,60.00,Tuesday
7,-7.2
718,19.36901495197569
719,-2.6995389323924006
720,15.563531831796954
619,3982.2270644977816
633,1357.5662103671852
659,1.2990600366452647
661,0.0
690,148.14645038927185
716,0.0
843,5341.441943846439
844,5341.441943846439
907,0.0
908,0.0
971,0.0
972,0.0
1195,3288.194410315136
1197,3288.194410315136
2,2, 1, 9, 0, 7, 0.00,60.00,Tuesday
7,-7.2
718,19.56565185136403
719,-2.831748460221626
720,15.521146951541432
619,3964.3908190974817
633,1377.9516559310684
659,1.2990600366452647
661,0.0
690,148.14645038927185
716,85.44000000000005
843,5144.007572903294
844,5144.007572903294
907,0.0
908,0.0
971,0.0
972,0.0
1195,4313.849468926573
1197,4313.849468926573
2,2, 1, 9, 0, 8, 0.00,60.00,Tuesday
7,-8.9
718,19.651091200010136
719,-4.370984851349177
720,15.425821630706778
619,3766.8578651577295
633,1364.3140563682934
659,0.07136503208384143
661,0.0
690,148.14645038927185
716,85.44000000000005
843,5268.011642632837
844,5268.011642632837
907,0.0
908,0.0
971,0.0
972,0.0
1195,4761.204277916653
1197,4761.204277916653
2,2, 1, 9, 0, 9, 0.00,60.00,Tuesday
7,-7.8
718,19.683430956397256
719,-3.5867750601871267
720,15.37007092154469
619,3892.287633239315
633,1379.6855688533221
659,0.07136503208384143
661,0.0
690,148.14645038927185
716,85.44000000000005
843,3966.679735172571
844,3966.679735172571
907,0.0
908,0.0
971,0.0
972,0.0
1195,3169.270463185078
1197,3169.270463185078
2,2, 1, 9, 0,10, 0.00,60.00,Tuesday
7,-7.2
718,19.71109485217722
719,-1.5820158347659448
720,15.30944284807087
619,3962.046833482786
633,1387.663846109153
659,0.07136503208384143
661,0.0
690,148.14645038927185
716,11.43579051775415
843,2836.585850748086
844,2836.585850748086
907,0.0
908,0.0
971,0.0
972,0.0
1195,693.8157195092076
1197,693.8157195092076
2,2, 1, 9, 0,11, 0.00,60.00,Tuesday
7,-6.1
718,19.813578373977393
719,0.8685935076965219
720,15.266891259979147
619,2373.269423387249
633,852.4711350184235
659,0.043394928238546966
661,78.38601911489225
690,90.08202822858824
716,0.0
843,1469.2079077770231
844,1469.2079077770231
907,0.0
908,0.0
971,0.0
972,0.0
1195,0.0
1197,0.0
2,2, 1, 9, 0,12, 0.00,60.00,Tuesday
7,-5.0
718,19.706943442488466
719,2.5974388924270033
720,15.250446695277825
619,2003.2022043660054
633,713.9046399593632
659,0.03593033871316653
661,99.30547870852304
690,74.58667131978797
716,0.0
843,1321.772233799129
844,1321.772233799129
907,0.0
908,0.0
971,0.0
972,0.0
1195,0.0
1197,0.0
2,2, 1, 9, 0,13, 0.00,60.00,Tuesday
7,-5.0
718,19.73904495082189
719,3.552497407457034
720,15.244745896636442
619,1591.8701471033723
633,572.3666255704246
659,0.028864951383761866
661,119.10617695834398
690,59.919854236954755
716,0.0
843,1084.6633461101828
844,1084.6633461101828
907,0.0
908,0.0
971,0.0
972,0.0
1195,0.0
1197,0.0
2,2, 1, 9, 0,14, 0.00,60.00,Tuesday
7,-5.0
718,19.640384711376576
719,3.5786378704015784
720,15.256772202440429
619,1107.9739460455385
633,404.1997582200526
659,0.02036997463299137
661,142.91328949713017
690,42.28539626821678
716,0.0
843,764.5795397594393
844,764.5795397594393
907,0.0
908,0.0
971,0.0
972,0.0
1195,0.0
1197,0.0
2,2, 1, 9, 0,15, 0.00,60.00,Tuesday
7,-5.0
718,19.73491138739587
719,2.7366388182333403
720,15.284210104593605
619,788.9530578004016
633,289.7583882001673
659,0.01462956661897528
661,159.00074254352438
690,30.36906217530459
716,0.0
843,546.639421790198
844,546.639421790198
907,0.0
908,0.0
971,0.0
972,0.0
1195,0.0
1197,0.0
2,2, 1, 9, 0,16, 0.00,60.00,Tuesday
7,-5.6
718,20.307035696314085
719,1.1872983208835841
720,15.326173126401967
619,473.74001487008314
633,178.155879624447
659,0.00902321148297257
661,174.71251334302806
690,18.730986740496462
716,0.0
843,321.54886347331194
844,321.54886347331194
907,0.0
908,0.0
971,0.0
972,0.0
1195,0.0
1197,0.0
2,2, 1, 9, 0,17, 0.00,60.00,Tuesday
7,-6.1
718,19.757072595472618
719,-0.5614746017706649
720,15.365886856127661
619,31.73112463015845
633,12.394250733046025
659,0.0006234193522025039
661,198.2528716543696
690,1.2941345659839953
716,0.0
843,16.492547155770808
844,16.492547155770808
907,0.0
908,0.0
971,0.0
972,0.0
1195,0.0
1197,0.0
2,2, 1, 9, 0,18, 0.00,60.00,Tuesday
7,-7.2
718,19.61545860692842
719,-1.6229180817386273
720,15.41361972659367
619,1273.783437751005
633,483.32822190173596
659,0.02480868222002828
661,130.47384273328032
690,51.49939099323779
716,0.0
843,826.5907348636792
844,826.5907348636792
907,0.0
908,0.0
971,0.0
972,0.0
1195,0.0
1197,0.0
2,2, 1, 9, 0,19, 0.00,60.00,Tuesday
7,-7.2
718,19.51104743244043
719,-2.426670932645888
720,15.433721172397446
619,3296.7887074683454
633,1174.7510276411813
659,0.06048207993026737
661,30.499396793624346
690,125.55242975667203
716,85.44000000000005
843,1181.858165841155
844,1181.858165841155
907,0.0
908,0.0
971,0.0
972,0.0
1195,0.0
1197,0.0
2,2, 1, 9, 0,20, 0.00,60.00,Tuesday
7,-8.3
718,19.434085867924964
719,-3.182938424512917
720,15.410034962822968
619,3837.3059849563138
633,1370.0824540591068
659,0.07136503208384143
661,0.0
690,148.14645038927185
716,85.44000000000005
843,1614.4767019303144
844,1614.4767019303144
907,0.0
908,0.0
971,0.0
972,0.0
1195,307.9364716906989
1197,307.9364716906989
2,2, 1, 9, 0,21, 0.00,60.00,Tuesday
7,-8.3
718,19.56274012855683
719,-3.9512095591297296
720,15.374969234045807
619,3839.1198927658324
633,1368.0369267861188
659,0.07136503208384143
661,0.0
690,148.14645038927185
716,85.44000000000005
843,2058.8370610038373
844,2058.8370610038373
907,0.0
908,0.0
971,0.0
972,0.0
1195,879.9321746757787
1197,879.9321746757787
2,2, 1, 9, 0,22, 0.00,60.00,Tuesday
7,-8.9
718,19.65146796448027
719,-4.038426512720761
720,15.32863628918747
619,3767.043144040655
633,1364.1067937559494
659,0.07136503208384143
661,0.0
690,148.14645038927185
716,28.910063070231686
843,2544.338569647476
844,2544.338569647476
907,0.0
908,0.0
971,0.0
972,0.0
1195,760.9359727737274
1197,760.9359727737274
2,2, 1, 9, 0,23, 0.00,60.00,Tuesday
7,-9.4
718,18.96377212405217
719,-4.4542662058725755
720,15.265555535752698
619,3707.9859803415993
633,1360.240703221588
659,0.07136503208384143
661,0.0
690,148.14645038927185
716,0.0
843,2237.0036506760334
844,2237.0036506760334
907,0.0
908,0.0
971,0.0
972,0.0
1195,113.57735370475484
1197,113.57735370475484
2,2, 1, 9, 0,24, 0.00,60.00,Tuesday
7,-10.6
718,18.73133722372476
719,-4.848126249241357
720,15.151228146285096
619,3563.936641122095
633,1319.1387203191812
659,7.200000126683507
661,0.0
690,148.14645038927185
716,0.0
843,2775.0143675195795
844,2775.0143675195795
907,0.0
908,0.0
971,0.0
972,0.0
1195,865.2882563789374
1197,865.2882563789374
2,3, 1,10, 0, 1, 0.00,60.00,Wednesday
7,-10.6
718,18.645805930852305
719,-5.25184323450601
720,15.063402910265621
619,3569.2847127182977
633,1313.2803315388944
659,7.200000126683507
661,0.0
690,148.14645038927185
716,0.0
843,3322.9747848829375
844,3322.9747848829375
907,0.0
908,0.0
971,0.0
972,0.0
1195,1513.2533435952469
1197,1513.2533435952469
2,3, 1,10, 0, 2, 0.00,60.00,Wednesday
7,-11.7
718,18.617489015202914
719,-5.844790271756953
720,14.957830664995374
619,3448.973181983283
633,1297.3013957234116
659,7.736142726306436
661,0.0
690,148.14645038927185
716,0.0
843,3763.2267022906017
844,3763.2267022906017
907,0.0
908,0.0
971,0.0
972,0.0
1195,2181.710990515593
1197,2181.710990515593
2,3, 1,10, 0, 3, 0.00,60.00,Wednesday
7,-12.2
718,18.606358864898517
719,-6.589899321909423
720,14.858476393937455
619,3388.8142115794326
633,1287.8345979779144
659,9.829559971370141
661,0.0
690,148.14645038927185
716,0.0
843,4109.247688782381
844,4109.247688782381
907,0.0
908,0.0
971,0.0
972,0.0
1195,2679.005884792398
1197,2679.005884792398
2,3, 1,10, 0, 4, 0.00,60.00,Wednesday
7,-12.8
718,18.604707089146952
719,-7.121219440535867
720,14.75510707475145
619,3316.7925940113646
633,1276.9418420153177
659,12.410060904720256
661,0.0
690,148.14645038927185
716,0.0
843,4389.610605098762
844,4389.610605098762
907,0.0
908,0.0
971,0.0
972,0.0
1195,3140.057742966056
1197,3140.057742966056
2,3, 1,10, 0, 5, 0.00,60.00,Wednesday
7,-13.3
718,18.601815756446282
719,-7.580891621890855
720,14.652681742843182
619,3259.081836924223
633,1268.6366448309961
659,14.038783503593118
661,0.0
690,148.14645038927185
716,0.0
843,4514.832867801391
844,4514.832867801391
907,0.0
908,0.0
971,0.0
972,0.0
1195,3367.617218868416
1197,3367.617218868416
2,3, 1,10, 0, 6, 0.00,60.00,Wednesday
7,-13.3
718,19.17811722443222
719,-7.502745461876352
720,14.553662752344497
619,3259.26116086828
633,1268.4429256649667
659,14.04000782943854
661,0.0
690,148.14645038927185
716,78.79593040752263
843,5650.301567494327
844,5650.301567494327
907,0.0
908,0.0
971,0.0
972,0.0
1195,5497.164051451511
1197,5497.164051451511
2,3, 1,10, 0, 7, 0.00,60.00,Wednesday
7,-13.3
718,19.369772878413798
719,-7.600283511181864
720,14.481097930568925
619,3246.742372579038
633,1281.542182029033
659,14.04000782943854
661,0.0
690,148.14645038927185
716,85.44000000000005
843,5517.915264827458
844,5517.915264827458
907,0.0
908,0.0
971,0.0
972,0.0
1195,5497.164051451511
1197,5497.164051451511
2,3, 1,10, 0, 8, 0.00,60.00,Wednesday
7,-12.2
718,19.580974622509185
719,-6.784779995220232
720,14.399351127271418
619,3351.7371349152163
633,1296.9273921345518
659,16.179485292052586
661,0.0
690,148.14645038927185
716,67.99578158972795
843,4707.088280080112
844,4707.088280080112
907,0.0
908,0.0
971,0.0
972,0.0
1195,4529.989072194761
1197,4529.989072194761
2,3, 1,10, 0, 9, 0.00,60.00,Wednesday
7,-10.0
718,19.678776759167413
719,-4.817895707923773
720,14.335686241374791
619,3618.811964564252
633,1340.8779925479294
659,6.905723347175247
661,0.0
690,148.14645038927185
716,0.0
843,4149.3106203713
844,4149.3106203713
907,0.0
908,0.0
971,0.0
972,0.0
1195,2653.71810918782
1197,2653.71810918782
2,3, 1,10, 0,10, 0.00,60.00,Wednesday
7,-8.3
718,19.71677642941359
719,-0.9058496249161042
720,14.28617810772925
619,3834.828353889371
633,1372.8757375590426
659,0.07136503208384143
661,0.0
690,148.14645038927185
716,0.0
843,2843.6560670673425
844,2843.6560670673425
907,0.0
908,0.0
971,0.0
972,0.0
1195,784.4307326136277
1197,784.4307326136277
2,3, 1,10, 0,11, 0.00,60.00,Wednesday
7,-7.2
718,19.771009858491656
719,3.0342160763225854
720,14.244031745610965
619,3301.036806705371
633,1177.2575439402644
659,0.060565429389840414
661,30.265810519957093
690,125.72545120885025
716,0.0
843,2054.203824796952
844,2054.203824796952
907,0.0
908,0.0
971,0.0
972,0.0
1195,0.0
1197,0.0
2,3, 1,10, 0,12, 0.00,60.00,Wednesday
7,-5.6
718,19.854752703489105
719,7.572926570941062
720,14.215734508556155
619,2050.4338795659623
633,736.3267356415406
659,0.037319205451712446
661,95.41318945146999
690,77.46970641689771
716,0.0
843,1378.8262449749836
844,1378.8262449749836
907,0.0
908,0.0
971,0.0
972,0.0
1195,0.0
1197,0.0
2,3, 1,10, 0,13, 0.00,60.00,Wednesday
7,-5.6
718,19.77723693114599
719,9.68879126206422
720,14.213887342077367
619,1267.4914243386806
633,466.4232560596046
659,0.02359876441303027
661,133.8646288694837
690,48.987895518664956
716,0.0
843,918.0428192115596
844,918.0428192115596
907,0.0
908,0.0
971,0.0
972,0.0
1195,0.0
1197,0.0
2,3, 1,10, 0,14, 0.00,60.00,Wednesday
7,-2.8
718,19.643710623276817
719,8.027955861644559
720,14.233863627016522
619,768.6953483066451
633,271.17303002040893
659,0.013417667218004414
661,162.3970820828862
690,27.85340427164404
716,0.0
843,581.3582496335857
844,581.3582496335857
907,0.0
908,0.0
971,0.0
972,0.0
1195,0.0
1197,0.0
2,3, 1,10, 0,15, 0.00,60.00,Wednesday
7,-2.2
718,19.945287915752345
719,9.248078439989747
720,14.297657861463511
619,1209.6125333637312
633,415.63223846718523
659,0.020515142442822334
661,142.50645773207071
690,42.586911714746385
716,72.27515315568279
843,145.25042987338747
844,145.25042987338747
907,0.0
908,0.0
971,0.0
972,0.0
1195,0.0
1197,0.0
2,3, 1,10, 0,16, 0.00,60.00,Wednesday
7,-1.7
718,19.46248460204471
719,7.209536681060893
720,14.321674101510308
619,0.0
633,0.0
659,0.0
661,200.0
690,0.0
716,79.62756223110814
843,-419.4493915369894
844,-419.4493915369894
907,0.0
908,0.0
971,0.0
972,0.0
1195,0.0
1197,0.0
2,3, 1,10, 0,17, 0.00,60.00,Wednesday
7,-2.8
718,19.951800001747863
719,4.928139259009601
720,14.392278827126505
619,0.0
633,0.0
659,0.0
661,200.0
690,0.0
716,0.0
843,-223.7112344582565
844,-223.7112344582565
907,0.0
908,0.0
971,0.0
972,0.0
1195,0.0
1197,0.0
2,3, 1,10, 0,18, 0.00,60.00,Wednesday
7,-3.9
718,19.6649916451457
719,2.0164556745048077
720,14.475587277187698
619,896.2848766591281
633,323.3054108308272
659,0.016088726153316645
661,154.91145822112094
690,33.39813884603154
716,0.0
843,637.9249816523625
844,637.9249816523625
907,0.0
908,0.0
971,0.0
972,0.0
1195,0.0
1197,0.0
2,3, 1,10, 0,19, 0.00,60.00,Wednesday
7,-3.9
718,19.704816439843086
719,-0.006717626001754809
720,14.52477447070411
619,1342.6923243360677
633,475.04157187209466
659,0.02377215952278945
661,133.37869029509767
690,49.34796525173621
716,0.0
843,917.3832652157453
844,917.3832652157453
907,0.0
908,0.0
971,0.0
972,0.0
1195,0.0
1197,0.0
2,3, 1,10, 0,20, 0.00,60.00,Wednesday
7,-3.9
718,19.59028858871221
719,-0.18036518978513208
720,14.583422409901507
619,3100.213649119008
633,1047.340921819658
659,0.05238374077606208
661,53.194935260393784
690,108.74195138189981
716,85.44000000000005
843,1051.1796872347368
844,1051.1796872347368
907,0.0
908,0.0
971,0.0
972,0.0
1195,0.0
1197,0.0
2,3, 1,10, 0,21, 0.00,60.00,Wednesday
7,-3.9
718,19.62790065970752
719,-0.703011391567334
720,14.5750973796244
619,3423.064698057207
633,1143.5757447208302
659,0.05732433841267042
661,39.34894516596208
690,118.99800155810935
716,85.44000000000005
843,1274.185562460234
844,1274.185562460234
907,0.0
908,0.0
971,0.0
972,0.0
1195,0.0
1197,0.0
2,3, 1,10, 0,22, 0.00,60.00,Wednesday
7,-5.0
718,19.68778708249694
719,-1.4889333451617452
720,14.543064950767093
619,3001.602287823964
633,1035.0908403672263
659,0.052329907125621036
661,53.345803686762025
690,108.63002662133638
716,23.46159402684457
843,1688.050302609925
844,1688.050302609925
907,0.0
908,0.0
971,0.0
972,0.0
1195,0.0
1197,0.0
2,3, 1,10, 0,23, 0.00,60.00,Wednesday
7,-4.4
718,18.946179845730992
719,-2.602288186637734
720,14.487983091304708
619,1803.3897289150593
633,636.4118210244181
659,0.031968289504620634
661,110.40909372236113
690,66.36203616101038
716,0.0
843,1140.913887811168
844,1140.913887811168
907,0.0
908,0.0
971,0.0
972,0.0
1195,0.0
1197,0.0
2,3, 1,10, 0,24, 0.00,60.00,Wednesday
7,-3.9
718,18.73493010005324
719,-2.298888178307281
720,14.438876822930649
619,2220.2911057273413
633,753.9780168959792
659,2.8975876429292398
661,92.19522851309291
690,79.78283350412326
716,0.0
843,1430.180340888488
844,1430.180340888488
907,0.0
908,0.0
971,0.0
972,0.0
1195,0.0
1197,0.0
2,4, 1,11, 0, 1, 0.00,60.00,Thursday
7,-3.9
718,18.600103892728978
719,-1.7716161126938503
720,14.392795127186506
619,2899.777160865098
633,961.9762094666011
659,3.7128732391457273
661,61.86252136921739
690,102.23119905202647
716,0.0
843,1886.7023125778833
844,1886.7023125778833
907,0.0
908,0.0
971,0.0
972,0.0
1195,0.0
1197,0.0
2,4, 1,11, 0, 2, 0.00,60.00,Thursday
7,-2.2
718,18.615704156633836
719,-0.9268451124425929
720,14.34328113036083
619,3314.380434848942
633,1052.1501654788622
659,0.05301557796595889
661,51.42421598388729
690,110.05382303185253
716,0.0
843,2207.519458445735
844,2207.519458445735
907,0.0
908,0.0
971,0.0
972,0.0
1195,0.0
1197,0.0
2,4, 1,11, 0, 3, 0.00,60.00,Thursday
7,-2.2
718,18.59084500006748
719,-0.0069764737431082064
720,14.291937339467491
619,3645.738989744947
633,1148.3986364102293
659,3.0909852063096643
661,37.27747278621363
690,120.47229141820999
716,0.0
843,2453.689752342376
844,2453.689752342376
907,0.0
908,0.0
971,0.0
972,0.0
1195,0.0
1197,0.0
2,4, 1,11, 0, 4, 0.00,60.00,Thursday
7,-1.7
718,18.612113983890808
719,0.4568367786489286
720,14.239686813614783
619,3762.8907575150088
633,1171.1540566902117
659,0.05878142555834012
661,35.265468698221206
690,122.02309108218249
716,0.0
843,2573.9516222743823
844,2573.9516222743823
907,0.0
908,0.0
971,0.0
972,0.0
1195,0.0
1197,0.0
2,4, 1,11, 0, 5, 0.00,60.00,Thursday
7,-1.1
718,18.623694155602614
719,0.9223503934868357
720,14.189339585358466
619,3672.677055618736
633,1134.8026939911001
659,0.0566422871985731
661,41.26038889178017
690,117.58258651892402
716,0.0
843,2531.6615572923547
844,2531.6615572923547
907,0.0
908,0.0
971,0.0
972,0.0
1195,0.0
1197,0.0
2,4, 1,11, 0, 6, 0.00,60.00,Thursday
7,-1.1
718,19.325892556435594
719,1.738311400969921
720,14.159665456027506
619,4745.306556173622
633,1429.7859615781695
659,0.07136503208384143
661,0.0
690,148.14645038927185
716,0.0
843,3561.046626913705
844,3561.046626913705
907,0.0
908,0.0
971,0.0
972,0.0
1195,313.21730875600133
1197,313.21730875600133
2,4, 1,11, 0, 7, 0.00,60.00,Thursday
7,-1.1
718,19.556719974199158
719,2.3002488121786575
720,14.14692724144353
619,4728.648052730388
633,1449.5569795581903
659,0.07136503208384143
661,0.0
690,148.14645038927185
716,85.44000000000005
843,3412.0173472807255
844,3412.0173472807255
907,0.0
908,0.0
971,0.0
972,0.0
1195,1371.9915640802856
1197,1371.9915640802856
2,4, 1,11, 0, 8, 0.00,60.00,Thursday
7,0.0
718,19.642386114108955
719,2.9019881620329953
720,14.122569502275287
619,4867.4024473091795
633,1470.094809583891
659,0.07136503208384143
661,0.0
690,148.14645038927185
716,85.44000000000005
843,2993.395960998918
844,2993.395960998918
907,0.0
908,0.0
971,0.0
972,0.0
1195,759.6715550367126
1197,759.6715550367126
2,4, 1,11, 0, 9, 0.00,60.00,Thursday
7,1.1
718,19.69773432968976
719,4.241346167688158
720,14.093407436190663
619,4817.632244173134
633,1435.4550730204003
659,0.06889197467390919
661,6.930725980832841
690,143.01182226087732
716,66.05972961842971
843,2671.1229637265824
844,2671.1229637265824
907,0.0
908,0.0
971,0.0
972,0.0
1195,0.0
1197,0.0
2,4, 1,11, 0,10, 0.00,60.00,Thursday
7,1.7
718,19.76336763069814
719,5.031872385682472
720,14.026812705835038
619,3525.3918680258257
633,1072.780462902366
659,0.05114501302551496
661,56.666461060569496
690,106.17123727226289
716,0.0
843,2533.4934910259944
844,2533.4934910259944
907,0.0
908,0.0
971,0.0
972,0.0
1195,0.0
1197,0.0