Program Version,EnergyPlus, Version 22.2.0-c249759bad, YMD=2023.09.01 20:29
1,5,Environment Title[],Latitude[deg],Longitude[deg],Time Zone[],Elevation[m]
2,8,Day of Simulation[],Month[],Day of Month[],DST Indicator[1=yes 0=no],Hour[],StartMinute[],EndMinute[],DayType
3,5,Cumulative Day of Simulation[],Month[],Day of Month[],DST Indicator[1=yes 0=no],DayType  ! When Daily Report Variables Requested
4,2,Cumulative Days of Simulation[],Month[]  ! When Monthly Report Variables Requested
5,1,Cumulative Days of Simulation[] ! When Run Period Report Variables Requested
6,1,Calendar Year of Simulation[] ! When Annual Report Variables Requested
581,11,LIVING,AFN Zone Infiltration Air Change Rate [ach] !RunPeriod [Value,Min,Month,Day,Hour,Minute,Max,Month,Day,Hour,Minute]
582,11,ATTIC,AFN Zone Infiltration Air Change Rate [ach] !RunPeriod [Value,Min,Month,Day,Hour,Minute,Max,Month,Day,Hour,Minute]
583,11,CRAWLSPACE,AFN Zone Infiltration Air Change Rate [ach] !RunPeriod [Value,Min,Month,Day,Hour,Minute,Max,Month,Day,Hour,Minute]
1038,11,Facility,Facility Heating Setpoint Not Met Time [hr] !RunPeriod [Value,Min,Month,Day,Hour,Minute,Max,Month,Day,Hour,Minute]
1039,11,Facility,Facility Cooling Setpoint Not Met Time [hr] !RunPeriod [Value,Min,Month,Day,Hour,Minute,Max,Month,Day,Hour,Minute]
1115,11,DX_HEATING_COIL,Heating Coil Heating Energy [J] !RunPeriod [Value,Min,Month,Day,Hour,Minute,Max,Month,Day,Hour,Minute]
1128,11,DX_HEATING_COIL,Heating Coil Electricity Energy [J] !RunPeriod [Value,Min,Month,Day,Hour,Minute,Max,Month,Day,Hour,Minute]
1153,11,DX_HEATING_COIL,Heating Coil Defrost Electricity Energy [J] !RunPeriod [Value,Min,Month,Day,Hour,Minute,Max,Month,Day,Hour,Minute]
1154,11,DX_HEATING_COIL,Heating Coil Crankcase Heater Electricity Energy [J] !RunPeriod [Value,Min,Month,Day,Hour,Minute,Max,Month,Day,Hour,Minute]
1155,11,HEATING_RESISTANCE_BACKUP,Heating Coil Heating Energy [J] !RunPeriod [Value,Min,Month,Day,Hour,Minute,Max,Month,Day,Hour,Minute]
1156,11,HEATING_RESISTANCE_BACKUP,Heating Coil Electricity Energy [J] !RunPeriod [Value,Min,Month,Day,Hour,Minute,Max,Month,Day,Hour,Minute]
1292,11,WATER HEATER,Water Heater Heat Loss Energy [J] !RunPeriod [Value,Min,Month,Day,Hour,Minute,Max,Month,Day,Hour,Minute]
1306,11,WATER HEATER,Water Heater Heating Energy [J] !RunPeriod [Value,Min,Month,Day,Hour,Minute,Max,Month,Day,Hour,Minute]
1307,11,WATER HEATER,Water Heater Unmet Demand Heat Transfer Energy [J] !RunPeriod [Value,Min,Month,Day,Hour,Minute,Max,Month,Day,Hour,Minute]
1308,11,WATER HEATER,Water Heater Electricity Energy [J] !RunPeriod [Value,Min,Month,Day,Hour,Minute,Max,Month,Day,Hour,Minute]
13,11,Electricity:Facility [J] !RunPeriod [Value,Min,Month,Day,Hour,Minute,Max,Month,Day,Hour,Minute]
1134,11,Heating:Electricity [J] !RunPeriod [Value,Min,Month,Day,Hour,Minute,Max,Month,Day,Hour,Minute]
1096,11,Cooling:Electricity [J] !RunPeriod [Value,Min,Month,Day,Hour,Minute,Max,Month,Day,Hour,Minute]
562,11,Fans:Electricity [J] !RunPeriod [Value,Min,Month,Day,Hour,Minute,Max,Month,Day,Hour,Minute]
1379,11,Pumps:Electricity [J] !RunPeriod [Value,Min,Month,Day,Hour,Minute,Max,Month,Day,Hour,Minute]
1326,11,WaterSystems:Electricity [J] !RunPeriod [Value,Min,Month,Day,Hour,Minute,Max,Month,Day,Hour,Minute]
61,11,InteriorLights:Electricity [J] !RunPeriod [Value,Min,Month,Day,Hour,Minute,Max,Month,Day,Hour,Minute]
1046,11,ExteriorLights:Electricity [J] !RunPeriod [Value,Min,Month,Day,Hour,Minute,Max,Month,Day,Hour,Minute]
134,11,InteriorEquipment:Electricity [J] !RunPeriod [Value,Min,Month,Day,Hour,Minute,Max,Month,Day,Hour,Minute]
170,11,gas_dryer:InteriorEquipment:Electricity [J] !RunPeriod [Value,Min,Month,Day,Hour,Minute,Max,Month,Day,Hour,Minute]
207,11,clotheswasher:InteriorEquipment:Electricity [J] !RunPeriod [Value,Min,Month,Day,Hour,Minute,Max,Month,Day,Hour,Minute]
244,11,dishwasher:InteriorEquipment:Electricity [J] !RunPeriod [Value,Min,Month,Day,Hour,Minute,Max,Month,Day,Hour,Minute]
281,11,refrigerator:InteriorEquipment:Electricity [J] !RunPeriod [Value,Min,Month,Day,Hour,Minute,Max,Month,Day,Hour,Minute]
318,11,electric_mels:InteriorEquipment:Electricity [J] !RunPeriod [Value,Min,Month,Day,Hour,Minute,Max,Month,Day,Hour,Minute]
355,11,NaturalGas:Facility [J] !RunPeriod [Value,Min,Month,Day,Hour,Minute,Max,Month,Day,Hour,Minute]
403,11,InteriorEquipment:NaturalGas [J] !RunPeriod [Value,Min,Month,Day,Hour,Minute,Max,Month,Day,Hour,Minute]
476,11,gas_dryer:InteriorEquipment:NaturalGas [J] !RunPeriod [Value,Min,Month,Day,Hour,Minute,Max,Month,Day,Hour,Minute]
513,11,gas_mels:InteriorEquipment:NaturalGas [J] !RunPeriod [Value,Min,Month,Day,Hour,Minute,Max,Month,Day,Hour,Minute]
End of Data Dictionary
1,EXTREME_WINTER,  40.48, -80.21,  -5.00, 366.70
5,7
1038,2.0,0.0, 1,22, 1,15,0.25, 1,22, 6,15
1039,0.0,0.0, 1,22, 1,15,0.0, 1,22, 1,15
581,0.38099572035885415,0.19441341017754063, 1,28,24,60,0.6160477335507303, 1,24,15,55
582,3.5453297470598377,0.05976912694544916, 1,24,23,15,15.947713885385053, 1,22, 1,60
583,0.05852159956475981,0.000467070863582035, 1,23,23, 5,0.07609797356401085, 1,22, 1,60
1115,1809198559.4951522,0.0, 1,22,23, 5,3727592.605585652, 1,28, 3,30
1128,649306462.6316004,0.0, 1,22,23, 5,1157639.1483576745, 1,24,15,15
1153,12495346.527691482,0.0, 1,22,23, 5,101176.2102974144, 1,28, 9,45
1154,15128300.801868094,0.0, 1,22, 1, 7,180000.0, 1,28,17,30
1155,1066872461.413423,0.0, 1,22,23, 5,5185098.4215747295, 1,23, 6,30
1156,1066872461.413423,0.0, 1,22,23, 5,5185098.4215747295, 1,23, 6,30
1292,-25413833.7894162,-39574.32489780307, 1,22, 1,60,-5085.195332487046, 1,27,10,33
1306,189082292.1395406,0.0, 1,22, 1, 7,4050000.0, 1,22, 8,45
1307,38447559.35487795,0.0, 1,22, 1, 7,9920462.715863604, 1,25,10,30
1308,189082292.1395406,0.0, 1,22, 1, 7,4050000.0, 1,22, 8,45
13,2378162911.588559,501906.6073303591, 1,28,24,15,10454342.856715396, 1,23, 7,30
61,301924526.02383536,88139.10953165221, 1,22, 1,15,1282023.4113694867, 1,22,20,15
134,70666020.44019976,63564.01800854099, 1,22, 4,15,156554.22484006523, 1,27,20,15
170,5241013.419656067,348.4159749238097, 1,22, 4,15,17476.39704006126, 1,27,12,15
207,6509451.13922267,815.2532113832032, 1,22, 3,15,22990.642799023623, 1,27,10,15
244,12749673.399825225,1521.856143006317, 1,22, 4,15,53038.631142310165, 1,27,20,15
281,46165882.481495745,59938.60262432081, 1,22, 5,15,81951.81706819107, 1,22,19,15
318,0.0,0.0, 1,22, 1,15,0.0, 1,22, 1,15
355,197687796.27748066,18561.32405820678, 1,22, 4,15,724774.895203776, 1,27,18,15
403,197687796.27748066,18561.32405820678, 1,22, 4,15,724774.895203776, 1,27,18,15
476,106772067.24485716,7098.072629279515, 1,22, 4,15,356036.3026282215, 1,27,12,15
513,0.0,0.0, 1,22, 1,15,0.0, 1,22, 1,15
562,72687501.6103981,0.0, 1,28,17,30,123678.0916981867, 1,23, 9,45
1046,0.0,0.0, 1,22, 1,15,0.0, 1,22, 1,15
1096,0.0,0.0, 1,22, 1,15,0.0, 1,22, 1,15
1134,1743802571.3745837,180000.0, 1,28,17,30,6264333.264251629, 1,22, 6,30
1326,189082292.13954067,0.0, 1,22, 1,15,4050000.0, 1,22, 8,45
1379,0.0,0.0, 1,22, 1,15,0.0, 1,22, 1,15
1,EXTREME_SUMMER,  40.48, -80.21,  -5.00, 366.70
5,7
1038,0.0,0.0, 7,29, 1,15,0.0, 7,29, 1,15
1039,32.25,0.0, 7,29, 1,15,0.25, 7,29,13,60
581,0.11524195808725735,0.0, 7,29, 6, 7,0.35983240016073387, 7,30,16,50
582,3.479760505285079,0.041179755245574205, 8, 2, 8,33,11.119444135562368, 7,30,13,50
583,0.03379614802851411,0.0, 7,29, 6, 7,0.06163440328382168, 8, 4, 6, 3
1115,0.0,0.0, 7,29, 1,15,0.0, 7,29, 1,15
1128,0.0,0.0, 7,29, 1,15,0.0, 7,29, 1,15
1153,0.0,0.0, 7,29, 1,15,0.0, 7,29, 1,15
1154,0.0,0.0, 7,29, 1,15,0.0, 7,29, 1,15
1155,0.0,0.0, 7,29, 1,15,0.0, 7,29, 1,15
1156,0.0,0.0, 7,29, 1,15,0.0, 7,29, 1,15
1292,-21949056.202555683,-34339.27195883129, 7,29,22,60,-3572.875338849231, 8, 2, 9,14
1306,145376990.30158794,0.0, 7,29, 1,15,4050000.0, 8, 3,10,30
1307,21031816.61969265,0.0, 7,29, 1,15,6440731.823696528, 8, 3,10,30
1308,145376990.30158794,0.0, 7,29, 1,15,4050000.0, 8, 3,10,30
13,990712370.7157898,164159.87526121698, 7,31, 4,60,6642915.326206762, 8, 4,20,60
61,301924526.02383536,88139.10953165221, 7,29, 1,15,1282023.4113694867, 7,29,20,15
134,70666020.44019976,63564.01800854099, 7,29, 4,15,156554.22484006523, 8, 3,20,15
170,5241013.419656067,348.4159749238097, 7,29, 4,15,17476.39704006126, 8, 3,12,15
207,6509451.13922267,815.2532113832032, 7,29, 3,15,22990.642799023623, 8, 3,10,15
244,12749673.399825225,1521.856143006317, 7,29, 4,15,53038.631142310165, 8, 3,20,15
281,46165882.481495745,59938.60262432081, 7,29, 5,15,81951.81706819107, 7,29,19,15
318,0.0,0.0, 7,29, 1,15,0.0, 7,29, 1,15
355,197687796.27748066,18561.32405820678, 7,29, 4,15,724774.895203776, 8, 3,18,15
403,197687796.27748066,18561.32405820678, 7,29, 4,15,724774.895203776, 8, 3,18,15
476,106772067.24485716,7098.072629279515, 7,29, 4,15,356036.3026282215, 8, 3,12,15
513,0.0,0.0, 7,29, 1,15,0.0, 7,29, 1,15
562,46651323.84836303,0.0, 7,31, 6,30,123678.0916981867, 7,29,13,15
1046,0.0,0.0, 7,29, 1,15,0.0, 7,29, 1,15
1096,426093510.10180396,0.0, 7,31, 6,30,1265265.1627501575, 7,29,17,60
1134,0.0,0.0, 7,29, 1,15,0.0, 7,29, 1,15
1326,145376990.30158797,0.0, 7,29, 1,15,4050000.0, 7,29, 8,45
1379,0.0,0.0, 7,29, 1,15,0.0, 7,29, 1,15
1,ANNUAL,  40.48, -80.21,  -5.00, 366.70
5,365
1038,21.0,0.0, 1, 1, 1,15,0.25, 1, 3, 6,15
1039,360.5,0.0, 1, 1, 1,15,0.25, 4, 1,15,30
581,0.24476428046719664,0.0, 6, 9,23, 3,1.1464969855297875,10,30,24,60
582,3.856736554745903,0.0, 1, 7,23, 7,25.89740587003825,12,31,12,60
583,0.027116562048098907,0.0, 6, 9,23, 3,0.08213438429474504,10,31, 1,15
1115,27295916997.392693,0.0, 1, 1,23, 3,4383302.300797597, 1,19, 6,60
1128,8636418314.532682,0.0, 1, 1,23, 3,1253719.274771555, 1,19, 6,60
1153,312072935.941464,0.0, 1, 1,23, 3,129246.4393838267,12,27, 6,60
1154,1422425760.347815,0.0, 1, 1, 6, 5,180000.0, 1, 5,15,15
1155,4435707956.542912,0.0, 1, 1, 1,15,5185098.4215747295, 1,22, 6,45
1156,4435707956.542912,0.0, 1, 1, 1,15,5185098.4215747295, 1,22, 6,45
1292,-1231083187.8102708,-39761.611129524565,10,14, 4,60,-2558.176218912196, 8,17,10,30
1306,8759135667.562933,0.0, 1, 1, 1,15,4050000.0, 1, 1, 9,45
1307,1546446843.6768906,0.0, 1, 1, 1,15,9972705.673704576, 2, 2,10,30
1308,8759135667.562933,0.0, 1, 1, 1,15,4050000.0, 1, 1, 9,45
13,51981996646.692955,151703.1275401932, 1,13, 4,15,11060487.413036637, 1,23, 8,45
61,15743207428.383959,88139.10953165221, 1, 1, 1,15,1282023.4113694867, 1, 1,20,15
134,3685071073.4325233,63564.01800854099, 1, 2, 4,15,156554.22484006523, 1, 1,20,15
170,273393721.45532674,348.4159749238097, 1, 2, 4,15,17476.39704006126, 1, 1,12,15
207,339560869.0695816,815.2532113832032, 1, 2, 3,15,22990.642799023623, 1, 1,10,15
244,664895467.8009144,1521.856143006317, 1, 2, 4,15,53038.631142310165, 1, 1,20,15
281,2407221015.106824,59938.60262432081, 1, 1, 5,15,81951.81706819107, 1, 1,19,15
318,0.0,0.0, 1, 1, 1,15,0.0, 1, 1, 1,15
355,10310294493.051695,18561.32405820678, 1, 2, 4,15,724774.895203776, 1, 1,18,15
403,10310294493.051695,18561.32405820678, 1, 2, 4,15,724774.895203776, 1, 1,18,15
476,5569688622.066177,7098.072629279515, 1, 2, 4,15,356036.3026282215, 1, 1,12,15
513,0.0,0.0, 1, 1, 1,15,0.0, 1, 1, 1,15
562,1778646181.6062312,0.0, 1, 5,15,15,123678.09169818673, 8,26,18,45
1046,0.0,0.0, 1, 1, 1,15,0.0, 1, 1, 1,15
1096,7209311328.341173,0.0, 1, 1, 1,15,1296011.4870775992, 9, 2,17,60
1134,14806624967.36475,0.0, 1,12,11,30,6266002.101786675, 2, 9, 6,30
1326,8759135667.562922,0.0, 1, 1, 1,15,4050000.0, 1, 1, 9,45
1379,0.0,0.0, 1, 1, 1,15,0.0, 1, 1, 1,15
End of Data
 Number of Records Written=          99
