Program Version,EnergyPlus, Version 22.2.0-c249759bad, YMD=2023.09.01 15:53
1,5,Environment Title[],Latitude[deg],Longitude[deg],Time Zone[],Elevation[m]
2,8,Day of Simulation[],Month[],Day of Month[],DST Indicator[1=yes 0=no],Hour[],StartMinute[],EndMinute[],DayType
3,5,Cumulative Day of Simulation[],Month[],Day of Month[],DST Indicator[1=yes 0=no],DayType  ! When Daily Report Variables Requested
4,2,Cumulative Days of Simulation[],Month[]  ! When Monthly Report Variables Requested
5,1,Cumulative Days of Simulation[] ! When Run Period Report Variables Requested
6,1,Calendar Year of Simulation[] ! When Annual Report Variables Requested
581,11,LIVING,AFN Zone Infiltration Air Change Rate [ach] !RunPeriod [Value,Min,Month,Day,Hour,Minute,Max,Month,Day,Hour,Minute]
582,11,ATTIC,AFN Zone Infiltration Air Change Rate [ach] !RunPeriod [Value,Min,Month,Day,Hour,Minute,Max,Month,Day,Hour,Minute]
583,11,CRAWLSPACE,AFN Zone Infiltration Air Change Rate [ach] !RunPeriod [Value,Min,Month,Day,Hour,Minute,Max,Month,Day,Hour,Minute]
1038,11,Facility,Facility Heating Setpoint Not Met Time [hr] !RunPeriod [Value,Min,Month,Day,Hour,Minute,Max,Month,Day,Hour,Minute]
1039,11,Facility,Facility Cooling Setpoint Not Met Time [hr] !RunPeriod [Value,Min,Month,Day,Hour,Minute,Max,Month,Day,Hour,Minute]
1115,11,DX_HEATING_COIL,Heating Coil Heating Energy [J] !RunPeriod [Value,Min,Month,Day,Hour,Minute,Max,Month,Day,Hour,Minute]
1128,11,DX_HEATING_COIL,Heating Coil Electricity Energy [J] !RunPeriod [Value,Min,Month,Day,Hour,Minute,Max,Month,Day,Hour,Minute]
1153,11,DX_HEATING_COIL,Heating Coil Defrost Electricity Energy [J] !RunPeriod [Value,Min,Month,Day,Hour,Minute,Max,Month,Day,Hour,Minute]
1154,11,DX_HEATING_COIL,Heating Coil Crankcase Heater Electricity Energy [J] !RunPeriod [Value,Min,Month,Day,Hour,Minute,Max,Month,Day,Hour,Minute]
1155,11,HEATING_RESISTANCE_BACKUP,Heating Coil Heating Energy [J] !RunPeriod [Value,Min,Month,Day,Hour,Minute,Max,Month,Day,Hour,Minute]
1156,11,HEATING_RESISTANCE_BACKUP,Heating Coil Electricity Energy [J] !RunPeriod [Value,Min,Month,Day,Hour,Minute,Max,Month,Day,Hour,Minute]
1292,11,WATER HEATER,Water Heater Heat Loss Energy [J] !RunPeriod [Value,Min,Month,Day,Hour,Minute,Max,Month,Day,Hour,Minute]
1306,11,WATER HEATER,Water Heater Heating Energy [J] !RunPeriod [Value,Min,Month,Day,Hour,Minute,Max,Month,Day,Hour,Minute]
1307,11,WATER HEATER,Water Heater Unmet Demand Heat Transfer Energy [J] !RunPeriod [Value,Min,Month,Day,Hour,Minute,Max,Month,Day,Hour,Minute]
1308,11,WATER HEATER,Water Heater Electricity Energy [J] !RunPeriod [Value,Min,Month,Day,Hour,Minute,Max,Month,Day,Hour,Minute]
13,11,Electricity:Facility [J] !RunPeriod [Value,Min,Month,Day,Hour,Minute,Max,Month,Day,Hour,Minute]
1134,11,Heating:Electricity [J] !RunPeriod [Value,Min,Month,Day,Hour,Minute,Max,Month,Day,Hour,Minute]
1096,11,Cooling:Electricity [J] !RunPeriod [Value,Min,Month,Day,Hour,Minute,Max,Month,Day,Hour,Minute]
562,11,Fans:Electricity [J] !RunPeriod [Value,Min,Month,Day,Hour,Minute,Max,Month,Day,Hour,Minute]
1379,11,Pumps:Electricity [J] !RunPeriod [Value,Min,Month,Day,Hour,Minute,Max,Month,Day,Hour,Minute]
1326,11,WaterSystems:Electricity [J] !RunPeriod [Value,Min,Month,Day,Hour,Minute,Max,Month,Day,Hour,Minute]
61,11,InteriorLights:Electricity [J] !RunPeriod [Value,Min,Month,Day,Hour,Minute,Max,Month,Day,Hour,Minute]
1046,11,ExteriorLights:Electricity [J] !RunPeriod [Value,Min,Month,Day,Hour,Minute,Max,Month,Day,Hour,Minute]
134,11,InteriorEquipment:Electricity [J] !RunPeriod [Value,Min,Month,Day,Hour,Minute,Max,Month,Day,Hour,Minute]
170,11,gas_dryer:InteriorEquipment:Electricity [J] !RunPeriod [Value,Min,Month,Day,Hour,Minute,Max,Month,Day,Hour,Minute]
207,11,clotheswasher:InteriorEquipment:Electricity [J] !RunPeriod [Value,Min,Month,Day,Hour,Minute,Max,Month,Day,Hour,Minute]
244,11,dishwasher:InteriorEquipment:Electricity [J] !RunPeriod [Value,Min,Month,Day,Hour,Minute,Max,Month,Day,Hour,Minute]
281,11,refrigerator:InteriorEquipment:Electricity [J] !RunPeriod [Value,Min,Month,Day,Hour,Minute,Max,Month,Day,Hour,Minute]
318,11,electric_mels:InteriorEquipment:Electricity [J] !RunPeriod [Value,Min,Month,Day,Hour,Minute,Max,Month,Day,Hour,Minute]
355,11,NaturalGas:Facility [J] !RunPeriod [Value,Min,Month,Day,Hour,Minute,Max,Month,Day,Hour,Minute]
403,11,InteriorEquipment:NaturalGas [J] !RunPeriod [Value,Min,Month,Day,Hour,Minute,Max,Month,Day,Hour,Minute]
476,11,gas_dryer:InteriorEquipment:NaturalGas [J] !RunPeriod [Value,Min,Month,Day,Hour,Minute,Max,Month,Day,Hour,Minute]
513,11,gas_mels:InteriorEquipment:NaturalGas [J] !RunPeriod [Value,Min,Month,Day,Hour,Minute,Max,Month,Day,Hour,Minute]
End of Data Dictionary
1,EXTREME_WINTER,  29.62, -95.17,  -6.00,   9.80
5,7
1038,0.0,0.0, 1,13, 1,15,0.0, 1,13, 1,15
1039,0.0,0.0, 1,13, 1,15,0.0, 1,13, 1,15
581,0.2785247854892685,0.06089032131156026, 1,13, 2,50,0.6445030499841857, 1,13,21,60
582,3.9449691052942626,0.0, 1,16,23,52,12.242633336411329, 1,13, 6,50
583,0.014475953099154715,0.00016415373044415766, 1,19,23,37,0.0794462062863822, 1,16, 6, 5
1115,369035925.80954087,0.0, 1,13, 1, 5,3050777.264870397, 1,16, 6,45
1128,108768421.87405288,0.0, 1,13, 1, 5,909657.8951433244, 1,16, 6,45
1153,5736191.705975998,0.0, 1,13, 1, 5,81576.09936599348, 1,15, 9,45
1154,68834104.48730023,0.0, 1,13, 1, 5,180000.0, 1,13,15,45
1155,0.0,0.0, 1,13, 1, 5,0.0, 1,13, 1, 5
1156,0.0,0.0, 1,13, 1, 5,0.0, 1,13, 1, 5
1292,-24285028.5211857,-39736.97990145938, 1,17, 5,60,-3924.6063218709496, 1,17,10,59
1306,185962040.46791154,0.0, 1,13, 1, 5,5900268.3587657325, 1,13, 7,45
1307,2174843.375117346,0.0, 1,13, 1, 5,755318.3955810735, 1,19,19,55
1308,185962040.46791154,0.0, 1,13, 1, 5,5900268.3587657325, 1,13, 7,45
13,794204206.8157312,151703.1275401932, 1,13, 4,15,11739875.964547932, 1,19,19,60
61,301924526.02383536,88139.10953165221, 1,13, 1,15,1282023.4113694867, 1,13,20,15
134,70666020.44019976,63564.01800854099, 1,13, 4,15,156554.22484006523, 1,18,20,15
170,5241013.419656067,348.4159749238097, 1,13, 4,15,17476.39704006126, 1,18,12,15
207,6509451.13922267,815.2532113832032, 1,13, 3,15,22990.642799023623, 1,18,10,15
244,12749673.399825225,1521.856143006317, 1,13, 4,15,53038.631142310165, 1,18,20,15
281,46165882.481495745,59938.60262432081, 1,13, 5,15,81951.81706819107, 1,13,19,15
318,0.0,0.0, 1,13, 1,15,0.0, 1,13, 1,15
355,197687796.27748066,18561.32405820678, 1,13, 4,15,724774.895203776, 1,18,18,15
403,197687796.27748066,18561.32405820678, 1,13, 4,15,724774.895203776, 1,18,18,15
476,106772067.24485716,7098.072629279515, 1,13, 4,15,356036.3026282215, 1,18,12,15
513,0.0,0.0, 1,13, 1,15,0.0, 1,13, 1,15
562,15698610.045802897,0.0, 1,13, 1,15,112614.64476804057, 1,16, 6,15
1046,0.0,0.0, 1,13, 1,15,0.0, 1,13, 1,15
1096,36614291.770653106,0.0, 1,13, 1,15,553426.7171474937, 1,19,15,60
1134,183338718.06732917,0.0, 1,13, 1,15,1205928.1497583913, 1,16, 6,15
1326,185962040.46791163,0.0, 1,13, 1,15,10115892.758682441, 1,19,19,60
1379,0.0,0.0, 1,13, 1,15,0.0, 1,13, 1,15
1,EXTREME_SUMMER,  29.62, -95.17,  -6.00,   9.80
5,7
1038,0.0,0.0, 7, 6, 1,15,0.0, 7, 6, 1,15
1039,51.5,0.0, 7, 6, 1,15,0.25, 7, 6,14,15
581,0.0931283005494877,0.0, 7, 6, 1,15,0.3844694862416178, 7, 7,13,52
582,2.759867920252503,0.12752564235782166, 7,12,22,20,9.300908006166292, 7, 9,15,50
583,0.0499005398899871,0.0, 7, 6,23, 3,0.07736558533355734, 7, 7,14,60
1115,0.0,0.0, 7, 6, 1,15,0.0, 7, 6, 1,15
1128,0.0,0.0, 7, 6, 1,15,0.0, 7, 6, 1,15
1153,0.0,0.0, 7, 6, 1,15,0.0, 7, 6, 1,15
1154,0.0,0.0, 7, 6, 1,15,0.0, 7, 6, 1,15
1155,0.0,0.0, 7, 6, 1,15,0.0, 7, 6, 1,15
1156,0.0,0.0, 7, 6, 1,15,0.0, 7, 6, 1,15
1292,-21724771.095864873,-34315.33382584337, 7, 9, 6,45,-3208.9173571950996, 7, 9, 8,50
1306,130451733.78404272,0.0, 7, 6, 1,15,2816064.984584251, 7,10, 6,60
1307,0.0,0.0, 7, 6, 1,15,0.0, 7, 6, 1,15
1308,130451733.78404272,0.0, 7, 6, 1,15,2816064.984584251, 7,10, 6,60
13,1248507856.5151744,364491.2513008842, 7, 9, 4,60,11795039.266649608, 7,12,19,60
61,301924526.02383536,88139.10953165221, 7, 6, 1,15,1282023.4113694867, 7, 6,20,15
134,70666020.44019976,63564.01800854099, 7, 6, 4,15,156554.22484006523, 7,11,20,15
170,5241013.419656067,348.4159749238097, 7, 6, 4,15,17476.39704006126, 7,11,12,15
207,6509451.13922267,815.2532113832032, 7, 6, 3,15,22990.642799023623, 7,11,10,15
244,12749673.399825225,1521.856143006317, 7, 6, 4,15,53038.631142310165, 7,11,20,15
281,46165882.481495745,59938.60262432081, 7, 6, 5,15,81951.81706819107, 7, 6,19,15
318,0.0,0.0, 7, 6, 1,15,0.0, 7, 6, 1,15
355,197687796.27748066,18561.32405820678, 7, 6, 4,15,724774.895203776, 7,11,18,15
403,197687796.27748066,18561.32405820678, 7, 6, 4,15,724774.895203776, 7,11,18,15
476,106772067.24485716,7098.072629279515, 7, 6, 4,15,356036.3026282215, 7,11,12,15
513,0.0,0.0, 7, 6, 1,15,0.0, 7, 6, 1,15
562,65599336.187747814,20720.51490804519, 7, 9, 4,60,145463.866951321, 7, 6,13,15
1046,0.0,0.0, 7, 6, 1,15,0.0, 7, 6, 1,15
1096,679866240.0793483,192067.60885264582, 7, 9, 4,60,1723993.1014211536, 7,11,17,60
1134,0.0,0.0, 7, 6, 1,15,0.0, 7, 6, 1,15
1326,130451733.78404275,0.0, 7, 6, 1,15,8757491.49662333, 7,12,19,60
1379,0.0,0.0, 7, 6, 1,15,0.0, 7, 6, 1,15
1,ANNUAL,  29.62, -95.17,  -6.00,   9.80
5,365
1038,0.0,0.0, 1, 1, 1,15,0.0, 1, 1, 1,15
1039,1080.25,0.0, 1, 1, 1,15,0.25, 4,23,16,30
581,0.17812429823095696,0.0, 3,11,23, 5,0.8643588169124443, 1,30,11,60
582,3.5619247952291433,0.0, 1,10,20,50,22.320748017106094, 1, 9,15,60
583,0.033571205738563877,0.0, 3,17, 6, 7,0.08391668686759506,10,31, 6, 5
1115,1298324871.756822,0.0, 1, 1, 1, 7,3385066.188537116,12, 7, 6,45
1128,377075450.6190052,0.0, 1, 1, 1, 7,1075547.3700698323,12, 7, 6,45
1153,12491451.747604715,0.0, 1, 1, 1, 7,83014.31598372017, 1,15, 9,45
1154,456152171.11480784,0.0, 1, 1, 1, 7,180000.0, 1, 1,21,15
1155,1312047.1309022084,0.0, 1, 1, 1, 7,749741.2176584048,12, 7, 6, 5
1156,1312047.1309022084,0.0, 1, 1, 1, 7,749741.2176584048,12, 7, 6, 5
1292,-1161602939.0911415,-39766.87099046112, 1,16, 2,15,-2466.3706444500963, 8,11,16,60
1306,8263839917.65571,0.0, 1, 1, 1, 7,10400360.45965521,12, 3,19,60
1307,39093126.05654585,0.0, 1, 1, 1, 7,2172104.1664735167, 1,15,19,60
1308,8263839917.65571,0.0, 1, 1, 1, 7,10400360.45965521,12, 3,19,60
13,50544511137.47454,151703.1275401932, 1, 9, 4,15,13290481.528916784, 5,28,19,60
61,15743207428.383959,88139.10953165221, 1, 1, 1,15,1282023.4113694867, 1, 1,20,15
134,3685071073.4325233,63564.01800854099, 1, 2, 4,15,156554.22484006523, 1, 1,20,15
170,273393721.45532674,348.4159749238097, 1, 2, 4,15,17476.39704006126, 1, 1,12,15
207,339560869.0695816,815.2532113832032, 1, 2, 3,15,22990.642799023623, 1, 1,10,15
244,664895467.8009144,1521.856143006317, 1, 2, 4,15,53038.631142310165, 1, 1,20,15
281,2407221015.106824,59938.60262432081, 1, 1, 5,15,81951.81706819107, 1, 1,19,15
318,0.0,0.0, 1, 1, 1,15,0.0, 1, 1, 1,15
355,10310294493.051695,18561.32405820678, 1, 2, 4,15,724774.895203776, 1, 1,18,15
403,10310294493.051695,18561.32405820678, 1, 2, 4,15,724774.895203776, 1, 1,18,15
476,5569688622.066177,7098.072629279515, 1, 2, 4,15,356036.3026282215, 1, 1,12,15
513,0.0,0.0, 1, 1, 1,15,0.0, 1, 1, 1,15
562,2134241412.8419504,0.0, 1, 1, 1,15,145463.866951321, 3,16,16,30
1046,0.0,0.0, 1, 1, 1,15,0.0, 1, 1, 1,15
1096,19871120184.545883,0.0, 1, 1, 1,15,1804183.4037621876, 7,25,16,60
1134,847031120.612319,0.0, 1, 1, 1,15,1938040.808664735,12, 7, 6,15
1326,8263839917.655721,0.0, 1, 1, 1,15,10535353.538789678, 3, 5,19,60
1379,0.0,0.0, 1, 1, 1,15,0.0, 1, 1, 1,15
End of Data
 Number of Records Written=          99
