Program Version,EnergyPlus, Version 22.2.0-c249759bad, YMD=2023.09.01 14:31
1,5,Environment Title[],Latitude[deg],Longitude[deg],Time Zone[],Elevation[m]
2,8,Day of Simulation[],Month[],Day of Month[],DST Indicator[1=yes 0=no],Hour[],StartMinute[],EndMinute[],DayType
3,5,Cumulative Day of Simulation[],Month[],Day of Month[],DST Indicator[1=yes 0=no],DayType  ! When Daily Report Variables Requested
4,2,Cumulative Days of Simulation[],Month[]  ! When Monthly Report Variables Requested
5,1,Cumulative Days of Simulation[] ! When Run Period Report Variables Requested
6,1,Calendar Year of Simulation[] ! When Annual Report Variables Requested
7,1,Environment,Site Outdoor Air Drybulb Temperature [C] !Hourly
545,1,LIVING,Zone Mean Air Temperature [C] !Hourly
546,1,ATTIC,Zone Mean Air Temperature [C] !Hourly
547,1,CRAWLSPACE,Zone Mean Air Temperature [C] !Hourly
548,1,FAN,Fan Electricity Rate [W] !Hourly
720,1,LIVING,Zone Predicted Sensible Load to Heating Setpoint Heat Transfer Rate [W] !Hourly
721,1,LIVING,Zone System Predicted Sensible Load to Heating Setpoint Heat Transfer Rate [W] !Hourly
784,1,ATTIC,Zone Predicted Sensible Load to Heating Setpoint Heat Transfer Rate [W] !Hourly
785,1,ATTIC,Zone System Predicted Sensible Load to Heating Setpoint Heat Transfer Rate [W] !Hourly
848,1,CRAWLSPACE,Zone Predicted Sensible Load to Heating Setpoint Heat Transfer Rate [W] !Hourly
849,1,CRAWLSPACE,Zone System Predicted Sensible Load to Heating Setpoint Heat Transfer Rate [W] !Hourly
1121,1,DX_HEATING_COIL,Heating Coil Heating Rate [W] !Hourly
1135,1,DX_HEATING_COIL,Heating Coil Electricity Rate [W] !Hourly
1161,1,DX_HEATING_COIL,Heating Coil Defrost Electricity Rate [W] !Hourly
1163,1,DX_HEATING_COIL,Heating Coil Crankcase Heater Electricity Rate [W] !Hourly
1166,1,HEATING_RESISTANCE_BACKUP,Heating Coil Heating Rate [W] !Hourly
1168,1,HEATING_RESISTANCE_BACKUP,Heating Coil Electricity Rate [W] !Hourly
End of Data Dictionary
1,EXTREME_WINTER,  39.73, -86.27,  -5.00, 241.10
2,1,12,15, 0, 1, 0.00,60.00,Monday
7,-12.2
545,18.615944674979392
546,-6.978676096840211
547,18.878950701169092
548,151.15536826343148
720,4070.0217594748137
721,4070.0217594748137
784,0.0
785,0.0
848,0.0
849,0.0
1121,3451.1098934818338
1135,1319.6823067678292
1161,10.297504708580199
1163,0.0
1166,2629.154129815673
1168,2629.154129815673
2,1,12,15, 0, 2, 0.00,60.00,Monday
7,-13.3
545,18.59825914164944
546,-6.96429546273272
547,18.48203463131194
548,151.15536826343148
720,4331.181663452828
721,4331.181663452828
784,0.0
785,0.0
848,0.0
849,0.0
1121,3346.8172161395555
1135,1309.9050642044808
1161,6.048575948233816
1163,0.0
1166,2941.065850539667
1168,2941.065850539667
2,1,12,15, 0, 3, 0.00,60.00,Monday
7,-14.4
545,18.587082204262572
546,-7.0669115540459275
547,18.301488471671092
548,151.15536826343148
720,4432.020422552308
721,4432.020422552308
784,0.0
785,0.0
848,0.0
849,0.0
1121,3209.9097263707617
1135,1286.7517336786352
1161,12.692933151544214
1163,0.0
1166,3188.1347471058384
1168,3188.1347471058384
2,1,12,15, 0, 4, 0.00,60.00,Monday
7,-14.4
545,18.579461135485808
546,-7.605724022997412
547,18.086678347446572
548,151.15536826343148
720,4609.217988246286
721,4609.217988246286
784,0.0
785,0.0
848,0.0
849,0.0
1121,3210.3316972116036
1135,1286.3193087410184
1161,12.692933151544214
1163,0.0
1166,3399.831669914982
1168,3399.831669914982
2,1,12,15, 0, 5, 0.00,60.00,Monday
7,-15.0
545,18.572083350931536
546,-8.323727171856993
547,17.891472488833074
548,151.15536826343148
720,4836.103911938228
721,4836.103911938228
784,0.0
785,0.0
848,0.0
849,0.0
1121,3142.3466175206972
1135,1275.7337787748781
1161,14.637690729240536
1163,0.0
1166,3764.914775180759
1168,3764.914775180759
2,1,12,15, 0, 6, 0.00,60.00,Monday
7,-16.1
545,19.31833176366372
546,-8.141014650685937
547,17.698880970798434
548,151.15536826343148
720,6090.715241858605
721,6090.715241858605
784,0.0
785,0.0
848,0.0
849,0.0
1121,3028.194487639692
1135,1259.9706235435083
1161,15.333164013279333
1163,0.0
1166,5371.996679195232
1168,5371.996679195232
2,1,12,15, 0, 7, 0.00,60.00,Monday
7,-16.1
545,19.569156579258802
546,-8.339632009278894
547,17.552183449560868
548,151.15536826343148
720,5924.831251846577
721,5924.831251846577
784,0.0
785,0.0
848,0.0
849,0.0
1121,3011.8427142399196
1135,1276.0461005929658
1161,15.333164013279333
1163,0.0
1166,5282.641454820801
1168,5282.641454820801
2,1,12,15, 0, 8, 0.00,60.00,Monday
7,-13.9
545,19.65779766271875
546,-7.593022780035912
547,17.404044418827738
548,151.15536826343148
720,5331.797285136005
721,5331.797285136005
784,0.0
785,0.0
848,0.0
849,0.0
1121,3228.7525885195573
1135,1309.5549168905409
1161,16.811982713366667
1163,0.0
1166,4420.359693988324
1168,4420.359693988324
2,1,12,15, 0, 9, 0.00,60.00,Monday
7,-12.2
545,19.684027773298997
546,-6.674001365253207
547,17.25325854561765
548,151.15536826343148
720,5204.598007983015
721,5204.598007983015
784,0.0
785,0.0
848,0.0
849,0.0
1121,3417.5230571759876
1135,1337.2117292622142
1161,14.100173182751478
1163,0.0
1166,4055.3352603731073
1168,4055.3352603731073
2,1,12,15, 0,10, 0.00,60.00,Monday
7,-12.2
545,19.700718470141094
546,-5.164861858836004
547,17.099566653284825
548,151.15536826343148
720,4820.109214610591
721,4820.109214610591
784,0.0
785,0.0
848,0.0
849,0.0
1121,3417.100901443755
1135,1337.6592566714173
1161,14.100173182751478
1163,0.0
1166,3565.894768393643
1168,3565.894768393643
2,1,12,15, 0,11, 0.00,60.00,Monday
7,-10.0
545,19.732417981394995
546,-1.4884474102314522
547,16.980349958218547
548,151.15536826343148
720,3688.009965081719
721,3688.009965081719
784,0.0
785,0.0
848,0.0
849,0.0
1121,3685.3222837590956
1135,1374.8030791587003
1161,7.239002075904748
1163,0.0
1166,1905.737965272239
1168,1905.737965272239
2,1,12,15, 0,12, 0.00,60.00,Monday
7,-9.4
545,19.74699508632914
546,1.13498706030739
547,16.860416389313695
548,151.15536826343148
720,3243.708003374024
721,3243.708003374024
784,0.0
785,0.0
848,0.0
849,0.0
1121,3777.078980636552
1135,1391.6610541294701
1161,0.6587268551755269
1163,0.0
1166,1095.5129577228745
1168,1095.5129577228745
2,1,12,15, 0,13, 0.00,60.00,Monday
7,-9.4
545,19.75240987246045
546,3.794957800314328
547,16.762125727058
548,151.15536826343148
720,2773.4883693883894
721,2773.4883693883894
784,0.0
785,0.0
848,0.0
849,0.0
1121,3776.8835415340404
1135,1391.8779412913411
1161,0.6587268551755269
1163,0.0
1166,394.31268371644774
1168,394.31268371644774
2,1,12,15, 0,14, 0.00,60.00,Monday
7,-7.2
545,19.817496129716034
546,2.68745462575959
547,16.705643332436885
548,133.22775836052884
720,2361.6830384795903
721,2361.6830384795903
784,0.0
785,0.0
848,0.0
849,0.0
1121,3508.380880446565
1135,1251.6620190664066
1161,0.06417949949174707
1163,23.717772072167055
1166,0.0
1168,0.0
2,1,12,15, 0,15, 0.00,60.00,Monday
7,-7.2
545,19.767844077210167
546,2.2955527000225824
547,16.648585273776124
548,126.57447052982401
720,2226.582283187521
721,2226.582283187521
784,0.0
785,0.0
848,0.0
849,0.0
1121,3300.9218164209037
1135,1186.9324088042722
1161,3.6745882183563863
1163,32.3516762063409
1166,0.0
1168,0.0
2,1,12,15, 0,16, 0.00,60.00,Monday
7,-7.2
545,19.766567803235926
546,1.2705500185319456
547,16.60651860021635
548,118.83005092740811
720,2068.8033454067954
721,2068.8033454067954
784,0.0
785,0.0
848,0.0
849,0.0
1121,3080.7380236068643
1135,1113.2283853805536
1161,3.449758619820128
1163,42.60923517458479
1166,0.0
1168,0.0
2,1,12,15, 0,17, 0.00,60.00,Monday
7,-8.3
545,19.79733036917856
546,-0.8987939667950285
547,16.570636362459645
548,103.85654341867192
720,1649.8177601706157
721,1649.8177601706157
784,0.0
785,0.0
848,0.0
849,0.0
1121,2557.8727457316445
1135,959.1894512484057
1161,7.752367388649949
1163,62.17683463350423
1166,0.0
1168,0.0
2,1,12,15, 0,18, 0.00,60.00,Monday
7,-8.9
545,19.632291331418664
546,-2.7359571291322147
547,16.530335564470388
548,132.1514243002481
720,2145.6842034784568
721,2145.6842034784568
784,0.0
785,0.0
848,0.0
849,0.0
1121,3271.891687117598
1135,1215.6118358981932
1161,8.933964332380018
1163,24.650118470341443
1166,0.0
1168,0.0
2,1,12,15, 0,19, 0.00,60.00,Monday
7,-8.9
545,19.604896999755532
546,-3.9812423374965658
547,16.4829004517822
548,144.62441826247374
720,2291.923556636353
721,2291.923556636353
784,0.0
785,0.0
848,0.0
849,0.0
1121,3620.940176211936
1135,1326.0668509310246
1161,9.777159646509995
1163,8.100444334843049
1166,0.0
1168,0.0
2,1,12,15, 0,20, 0.00,60.00,Monday
7,-8.9
545,19.601777700689684
546,-5.17308525809509
547,16.418481264886534
548,151.15536826343148
720,3302.2047309509126
721,3302.2047309509126
784,0.0
785,0.0
848,0.0
849,0.0
1121,3832.5416635620304
1135,1391.503326141703
1161,2.4087574936725855
1163,0.0
1166,1141.9923862524047
1168,1141.9923862524047
2,1,12,15, 0,21, 0.00,60.00,Monday
7,-10.0
545,19.655474868259354
546,-5.928559533881567
547,16.337243972409386
548,151.15536826343148
720,3541.119638763821
721,3541.119638763821
784,0.0
785,0.0
848,0.0
849,0.0
1121,3713.4371497367033
1135,1380.5944294131311
1161,0.1657445072380575
1163,0.0
1166,1645.528708365316
1168,1645.528708365316
2,1,12,15, 0,22, 0.00,60.00,Monday
7,-10.0
545,19.675938140452196
546,-6.178018854577487
547,16.25264415769564
548,151.15536826343148
720,3861.9963635906333
721,3861.9963635906333
784,0.0
785,0.0
848,0.0
849,0.0
1121,3712.2792509120586
1135,1381.8688970582189
1161,0.1657445072380575
1163,0.0
1166,2080.204550182336
1168,2080.204550182336
2,1,12,15, 0,23, 0.00,60.00,Monday
7,-11.7
545,18.9496827438115
546,-7.524519848617946
547,16.13901105392378
548,151.15536826343148
720,3293.259331999656
721,3293.259331999656
784,0.0
785,0.0
848,0.0
849,0.0
1121,3520.0779508944875
1135,1360.7090830209725
1161,0.07281448645863621
1163,0.0
1166,1648.1139523674733
1168,1648.1139523674733
2,1,12,15, 0,24, 0.00,60.00,Monday
7,-12.8
545,18.684037489438236
546,-8.709861696479932
547,15.988174696306288
548,151.15536826343148
720,4334.224717809784
721,4334.224717809784
784,0.0
785,0.0
848,0.0
849,0.0
1121,3412.1669446190376
1135,1327.266824333459
1161,1.150713988370068
1163,0.0
1166,2962.6465812930373
1168,2962.6465812930373
2,2,12,16, 0, 1, 0.00,60.00,Tuesday
7,-12.8
545,18.595015825413796
546,-8.918183376980783
547,15.863677196942195
548,151.15536826343148
720,4884.758802732322
721,4884.758802732322
784,0.0
785,0.0
848,0.0
849,0.0
1121,3418.3916549552814
1135,1320.6929898588112
1161,1.150713988370068
1163,0.0
1166,3659.5913322487895
1168,3659.5913322487895
2,2,12,16, 0, 2, 0.00,60.00,Tuesday
7,-14.4
545,18.588885491593913
546,-8.898416817771793
547,15.725234849997182
548,151.15536826343148
720,4561.816201189717
721,4561.816201189717
784,0.0
785,0.0
848,0.0
849,0.0
1121,3246.900303452314
1135,1297.3366058408903
1161,1.669174247915341
1163,0.0
1166,3483.403714870858
1168,3483.403714870858
2,2,12,16, 0, 3, 0.00,60.00,Tuesday
7,-14.4
545,18.57350829377578
546,-9.766876041423012
547,15.59108003283223
548,151.15536826343148
720,4989.117823515624
721,4989.117823515624
784,0.0
785,0.0
848,0.0
849,0.0
1121,3247.20977830003
1135,1297.0218625171126
1161,1.6685377956391187
1163,0.0
1166,3975.0282547252723
1168,3975.0282547252723
2,2,12,16, 0, 4, 0.00,60.00,Tuesday
7,-14.4
545,18.566194994150656
546,-9.85551722149412
547,15.455816407228461
548,151.15536826343148
720,5177.731370665886
721,5177.731370665886
784,0.0
785,0.0
848,0.0
849,0.0
1121,3247.7131175127856
1135,1296.5053058819842
1161,1.6685377956391187
1163,0.0
1166,4244.832981231886
1168,4244.832981231886
2,2,12,16, 0, 5, 0.00,60.00,Tuesday
7,-15.0
545,18.570861358958542
546,-9.650336942912887
547,15.318393604537567
548,151.15536826343148
720,5139.926182118901
721,5139.926182118901
784,0.0
785,0.0
848,0.0
849,0.0
1121,3179.169761502961
1135,1286.0554441091572
1161,3.547836700451606
1163,0.0
1166,4284.744234547408
1168,4284.744234547408
2,2,12,16, 0, 6, 0.00,60.00,Tuesday
7,-15.6
545,19.322431890210012
546,-10.134625515090177
547,15.179509085374168
548,151.15536826343148
720,6575.628930885916
721,6575.628930885916
784,0.0
785,0.0
848,0.0
849,0.0
1121,3118.6017303773724
1135,1278.7476366070948
1161,2.981423209159729
1163,0.0
1166,5998.5770562867065
1168,5998.5770562867065
2,2,12,16, 0, 7, 0.00,60.00,Tuesday
7,-15.6
545,19.56607419376094
546,-10.133056181203223
547,15.081199788621042
548,151.15536826343148
720,6363.676681069828
721,6363.676681069828
784,0.0
785,0.0
848,0.0
849,0.0
1121,3101.954233088664
1135,1295.3328087982704
1161,2.981423209159729
1163,0.0
1166,5886.4755118759695
1168,5886.4755118759695
2,2,12,16, 0, 8, 0.00,60.00,Tuesday
7,-15.6
545,19.650094268194763
546,-9.278556692780972
547,14.96207432622464
548,151.15536826343148
720,5861.180407652118
721,5861.180407652118
784,0.0
785,0.0
848,0.0
849,0.0
1121,3088.2764133755977
1135,1297.1876878932699
1161,5.79226147786831
1163,0.0
1166,5349.520788947768
1168,5349.520788947768
2,2,12,16, 0, 9, 0.00,60.00,Tuesday
7,-14.4
545,19.675742345323773
546,-9.705673815536306
547,14.847079280210274
548,151.15536826343148
720,5738.184720478814
721,5738.184720478814
784,0.0
785,0.0
848,0.0
849,0.0
1121,3207.2985495012163
1135,1313.6712347451062
1161,7.1610591120943985
1163,0.0
1166,5052.057502292701
1168,5052.057502292701
2,2,12,16, 0,10, 0.00,60.00,Tuesday
7,-14.4
545,19.697733614227015
546,-8.681382035983255
547,14.735936809993381
548,151.15536826343148
720,4834.542052666149
721,4834.542052666149
784,0.0
785,0.0
848,0.0
849,0.0
1121,3206.859082723475
1135,1314.1174791096146
1161,7.1610591120943985
1163,0.0
1166,4026.0492638494184
1168,4026.0492638494184
2,2,12,16, 0,11, 0.00,60.00,Tuesday
7,-12.8
545,19.73918805450012
546,-5.563302871223185
547,14.661030941996556
548,151.15536826343148
720,3231.9035438029387
721,3231.9035438029387
784,0.0
785,0.0
848,0.0
849,0.0
1121,3400.2070191100074
1135,1344.8883101449976
1161,0.07281448645863621
1163,0.0
1166,1920.0813961120043
1168,1920.0813961120043
2,2,12,16, 0,12, 0.00,60.00,Tuesday
7,-12.2
545,19.75271825561557
546,-3.911645436451419
547,14.59933951892706
548,151.15536826343148
720,2729.620176160017
721,2729.620176160017
784,0.0
785,0.0
848,0.0
849,0.0
1121,3465.1775301516086
1135,1353.6668958123996
1161,0.07281448645863621
1163,0.0
1166,1086.5280414185038
1168,1086.5280414185038
2,2,12,16, 0,13, 0.00,60.00,Tuesday
7,-12.2
545,19.747804634625542
546,-2.3116824982923254
547,14.564726962365999
548,151.15536826343148
720,2364.167506650301
721,2364.167506650301
784,0.0
785,0.0
848,0.0
849,0.0
1121,3464.9432329586175
1135,1353.9154093340078
1161,0.07281448645863621
1163,0.0
1166,549.5642852281453
1168,549.5642852281453
2,2,12,16, 0,14, 0.00,60.00,Tuesday
7,-10.6
545,19.80705641022
546,-0.6005060940372016
547,14.560412822345265
548,139.7857063209831
720,1887.375482008907
721,1887.375482008907
784,0.0
785,0.0
848,0.0
849,0.0
1121,3338.9784035116236
1135,1271.0626782853733
1161,0.06733906807556346
1163,15.039365514671799
1166,0.0
1168,0.0
2,2,12,16, 0,15, 0.00,60.00,Tuesday
7,-10.6
545,19.895236596038792
546,0.8745856096635093
547,14.562313073624562
548,119.63852567205151
720,1617.267246003721
721,1617.267246003721
784,0.0
785,0.0
848,0.0
849,0.0
1121,2810.6675810821835
1135,1089.1749436423029
1161,0.0576335529214099
1163,41.69756397540525
1166,0.0
1168,0.0
2,2,12,16, 0,16, 0.00,60.00,Tuesday
7,-10.6
545,19.953132480877283
546,0.11129379505658843
547,14.573851575148497
548,90.23139546319216
720,1185.2810544701733
721,1185.2810544701733
784,0.0
785,0.0
848,0.0
849,0.0
1121,2069.9768293653988
1135,822.9144354263697
1161,0.04346723558378947
1163,80.60827536432069
1166,0.0
1168,0.0
2,2,12,16, 0,17, 0.00,60.00,Tuesday
7,-12.2
545,19.824877485712697
546,-0.08594021928513876
547,14.594995696979389
548,79.77582817185518
720,988.6548646865831
721,988.6548646865831
784,0.0
785,0.0
848,0.0
849,0.0
1121,1725.3370311559038
1135,717.4122622180681
1161,0.03843059902234205
1163,94.442436137558
1166,0.0
1168,0.0
2,2,12,16, 0,18, 0.00,60.00,Tuesday
7,-12.2
545,19.536554583669407
546,-2.130494276450347
547,14.633085475485052
548,132.96729276223246
720,1948.2444517414897
721,1948.2444517414897
784,0.0
785,0.0
848,0.0
849,0.0
1121,3001.803996962972
1135,1192.709104525658
1161,0.06405464787170707
1163,24.060702788600597
1166,0.0
1168,0.0
2,2,12,16, 0,19, 0.00,60.00,Tuesday
7,-12.2
545,19.527141396048975
546,-3.817405451683433
547,14.635543580287646
548,151.15536826343148
720,2290.226593300571
721,2290.226593300571
784,0.0
785,0.0
848,0.0
849,0.0
1121,3469.8718131729065
1135,1348.6836694380318
1161,0.07281448645863621
1163,0.0
1166,202.84600546067713
1168,202.84600546067713
2,2,12,16, 0,20, 0.00,60.00,Tuesday
7,-12.2
545,19.61433736193925
546,-4.557920383353381
547,14.623888388111306
548,151.15536826343148
720,2605.2073303495636
721,2605.2073303495636
784,0.0
785,0.0
848,0.0
849,0.0
1121,3470.0864793162123
1135,1348.4556041734734
1161,0.07281448645863621
1163,0.0
1166,732.4434659624781
1168,732.4434659624781
2,2,12,16, 0,21, 0.00,60.00,Tuesday
7,-11.7
545,19.664978264262267
546,-4.790748381801546
547,14.597094527350151
548,151.15536826343148
720,2819.915166155657
721,2819.915166155657
784,0.0
785,0.0
848,0.0
849,0.0
1121,3506.821974327967
1135,1350.6129215774088
1161,5.05835311635348
1163,0.0
1166,1017.336615894445
1168,1017.336615894445
2,2,12,16, 0,22, 0.00,60.00,Tuesday
7,-11.7
545,19.683794140034884
546,-4.802090105783874
547,14.549276670755134
548,151.15536826343148
720,3191.7517794848045
721,3191.7517794848045
784,0.0
785,0.0
848,0.0
849,0.0
1121,3505.688367004127
1135,1351.8271254731276
1161,5.05835311635348
1163,0.0
1166,1478.2076882749402
1168,1478.2076882749402
2,2,12,16, 0,23, 0.00,60.00,Tuesday
7,-11.1
545,18.97602390726633
546,-4.492960965246226
547,14.496725060725396
548,151.15536826343148
720,2322.941758127794
721,2322.941758127794
784,0.0
785,0.0
848,0.0
849,0.0
1121,3580.598487293715
1135,1363.1147361252288
1161,2.5797158482337164
1163,0.0
1166,416.83961108349126
1168,416.83961108349126
2,2,12,16, 0,24, 0.00,60.00,Tuesday
7,-10.6
545,18.729543499405093
546,-4.580610256710281
547,14.400624896036526
548,151.15536826343148
720,2813.7490335790408
721,2813.7490335790408
784,0.0
785,0.0
848,0.0
849,0.0
1121,3659.4875167652967
1135,1353.7351421768417
1161,0.8361161524617843
1163,0.0
1166,820.5597207930402
1168,820.5597207930402
2,3,12,17, 0, 1, 0.00,60.00,Wednesday
7,-10.6
545,18.633121544361487
546,-4.469005893436459
547,14.322786234924445
548,151.15536826343148
720,3339.813365213853
721,3339.813365213853
784,0.0
785,0.0
848,0.0
849,0.0
1121,3665.275589661991
1135,1347.3938429603224
1161,0.8361161524617843
1163,0.0
1166,1410.4087550231714
1168,1410.4087550231714
2,3,12,17, 0, 2, 0.00,60.00,Wednesday
7,-10.6
545,18.596319102618438
546,-5.421768264444454
547,14.24061050323642
548,151.15536826343148
720,3891.8993913953527
721,3891.8993913953527
784,0.0
785,0.0
848,0.0
849,0.0
1121,3644.317045863557
1135,1336.3173436555387
1161,7.513450892133665
1163,0.0
1166,2069.770594408094
1168,2069.770594408094
2,3,12,17, 0, 3, 0.00,60.00,Wednesday
7,-10.0
545,18.585942891843448
546,-4.526711863029567
547,14.16776547641031
548,151.15536826343148
720,4051.1537400889847
721,4051.1537400889847
784,0.0
785,0.0
848,0.0
849,0.0
1121,3739.441434933705
1135,1351.8980574218779
1161,0.16501867233576725
1163,0.0
1166,2215.8765306517757
1168,2215.8765306517757
2,3,12,17, 0, 4, 0.00,60.00,Wednesday
7,-10.0
545,18.589608246228316
546,-4.4955923274723615
547,14.087446056848414
548,151.15536826343148
720,4226.405003566786
721,4226.405003566786
784,0.0
785,0.0
848,0.0
849,0.0
1121,3739.770381097921
1135,1351.5341189771473
1161,0.16501867233576725
1163,0.0
1166,2388.7370299728423
1168,2388.7370299728423
2,3,12,17, 0, 5, 0.00,60.00,Wednesday
7,-10.0
545,18.587997659014064
546,-4.698552610828264
547,14.007940860484624
548,151.15536826343148
720,4353.819777902438
721,4353.819777902438
784,0.0
785,0.0
848,0.0
849,0.0
1121,3739.791125085146
1135,1351.5104151100618
1161,0.1651629982201314
1163,0.0
1166,2537.352031540216
1168,2537.352031540216
2,3,12,17, 0, 6, 0.00,60.00,Wednesday
7,-10.0
545,19.339664603999136
546,-5.063773008202355
547,13.92859018084118
548,151.15536826343148
720,5521.018453777748
721,5521.018453777748
784,0.0
785,0.0
848,0.0
849,0.0
1121,3739.933565386956
1135,1351.3521396739625
1161,0.16529260864105638
1163,0.0
1166,3894.1464433151036
1168,3894.1464433151036
2,3,12,17, 0, 7, 0.00,60.00,Wednesday
7,-10.0
545,19.585644509790917
546,-5.015091437132601
547,13.886224227275534
548,151.15536826343148
720,5285.509514192769
721,5285.509514192769
784,0.0
785,0.0
848,0.0
849,0.0
1121,3722.662229143862
1135,1370.431980792339
1161,0.16529260864105638
1163,0.0
1166,3743.7467948573076
1168,3743.7467948573076
2,3,12,17, 0, 8, 0.00,60.00,Wednesday
7,-9.4
545,19.65897960719276
546,-4.8633717940543235
547,13.820261182083305
548,151.15536826343148
720,5262.567551887696
721,5262.567551887696
784,0.0
785,0.0
848,0.0
849,0.0
1121,3757.6734691513902
1135,1373.6820081426292
1161,8.105165335352309
1163,0.0
1166,3712.237516525548
1168,3712.237516525548
2,3,12,17, 0, 9, 0.00,60.00,Wednesday
7,-8.9
545,19.67712229818562
546,-4.687145199145555
547,13.754600170023979
548,151.15536826343148
720,5455.733278112755
721,5455.733278112755
784,0.0
785,0.0
848,0.0
849,0.0
1121,3820.4485509562037
1135,1383.9901809433586
1161,6.301404968855586
1163,0.0
1166,3878.960052933385
1168,3878.960052933385
2,3,12,17, 0,10, 0.00,60.00,Wednesday
7,-8.9
545,19.687459122613525
546,-4.463292658519284
547,13.68519578290782
548,151.15536826343148
720,5382.135364653455
721,5382.135364653455
784,0.0
785,0.0
848,0.0
849,0.0
1121,3820.1096530472105
1135,1384.3692643081583
1161,6.301404968855586
1163,0.0
1166,3794.0786274856696
1168,3794.0786274856696
2,3,12,17, 0,11, 0.00,60.00,Wednesday
7,-7.2
545,19.707980118002233
546,-3.0617313196367397
547,13.633105800978162
548,151.15536826343148
720,4685.975635499422
721,4685.975635499422
784,0.0
785,0.0
848,0.0
849,0.0
1121,4027.893953639868
1135,1407.8742678288113
1161,4.379404683977464
1163,0.0
1166,2769.7782047593137
1168,2769.7782047593137
2,3,12,17, 0,12, 0.00,60.00,Wednesday
7,-6.7
545,19.714952919800982
546,-2.0654387102308367
547,13.570662076450546
548,151.15536826343148
720,4485.017216526909
721,4485.017216526909
784,0.0
785,0.0
848,0.0
849,0.0
1121,4097.399867918915
1135,1417.7722090914885
1161,1.8882601061889257
1163,0.0
1166,2388.36196634344
1168,2388.36196634344
2,3,12,17, 0,13, 0.00,60.00,Wednesday
7,-6.7
545,19.717409000242004
546,-1.3408369942797311
547,13.51571441569201
548,151.15536826343148
720,4273.598783339661
721,4273.598783339661
784,0.0
785,0.0
848,0.0
849,0.0
1121,4097.316665589758
1135,1417.8677449242107
1161,1.8882601061889257
1163,0.0
1166,2082.801057100184
1168,2082.801057100184
2,3,12,17, 0,14, 0.00,60.00,Wednesday
7,-5.6
545,19.721637280528522
546,-0.34602734695283327
547,13.47845995211363
548,151.15536826343148
720,3963.0069160635685
721,3963.0069160635685
784,0.0
785,0.0
848,0.0
849,0.0
1121,4239.167487226621
1135,1433.6963094550722
1161,0.07281448645863621
1163,0.0
1166,1535.7974051100082
1168,1535.7974051100082
2,3,12,17, 0,15, 0.00,60.00,Wednesday
7,-5.6
545,19.718423855835837
546,-0.303159543169911
547,13.44025896542972
548,151.15536826343148
720,4003.2052985934006
721,4003.2052985934006
784,0.0
785,0.0
848,0.0
849,0.0
1121,4226.494167690872
1135,1429.472991829859
1161,3.2101211067173847
1163,0.0
1166,1536.352191345523
1168,1536.352191345523
2,3,12,17, 0,16, 0.00,60.00,Wednesday
7,-5.6
545,19.715403296743613
546,-0.40605952160618497
547,13.412813411240736
548,151.15536826343148
720,3918.9998867947343
721,3918.9998867947343
784,0.0
785,0.0
848,0.0
849,0.0
1121,4226.621187398146
1135,1429.3255785949696
1161,3.2101211067173847
1163,0.0
1166,1429.7191181806434
1168,1429.7191181806434
2,3,12,17, 0,17, 0.00,60.00,Wednesday
7,-4.4
545,19.727219376542024
546,0.2215067784470887
547,13.399701075998838
548,151.15536826343148
720,3297.7296510480337
721,3297.7296510480337
784,0.0
785,0.0
848,0.0
849,0.0
1121,4389.133837698912
1135,1448.1349202056701
1161,0.07281448645863621
1163,0.0
1166,550.2148299152127
1168,550.2148299152127
2,3,12,17, 0,18, 0.00,60.00,Wednesday
7,-3.9
545,19.725594862078108
546,0.040290676669790644
547,13.379789121504375
548,151.15536826343148
720,3274.713454042161
721,3274.713454042161
784,0.0
785,0.0
848,0.0
849,0.0
1121,4428.503338559811
1135,1446.8307431180756
1161,5.666213798140701
1163,0.0
1166,446.01509875600414
1168,446.01509875600414
2,3,12,17, 0,19, 0.00,60.00,Wednesday
7,-3.9
545,19.724928331507872
546,-0.17600183633437677
547,13.359154445796523
548,151.15536826343148
720,3088.6629397223896
721,3088.6629397223896
784,0.0
785,0.0
848,0.0
849,0.0
1121,4428.568773572359
1135,1446.7537841086419
1161,5.666213798140701
1163,0.0
1166,233.64773124853582
1168,233.64773124853582
2,3,12,17, 0,20, 0.00,60.00,Wednesday
7,-2.8
545,19.74698004199882
546,0.056808444981373565
547,13.338652330326841
548,144.06411343023169
720,2810.537756830545
721,2810.537756830545
784,0.0
785,0.0
848,0.0
849,0.0
1121,4313.071159679019
1135,1388.2789721777058
1161,9.327261091559606
1163,9.114257374247913
1166,0.0
1168,0.0
2,3,12,17, 0,21, 0.00,60.00,Wednesday
7,-2.2
545,19.80055128390611
546,0.41805329475523856
547,13.299665076490378
548,125.13283606216619
720,2446.113434196437
721,2446.113434196437
784,0.0
785,0.0
848,0.0
849,0.0
1121,3771.9065931602418
1135,1218.2756544846536
1161,3.3162694573929703
1163,34.34365384445024
1166,0.0
1168,0.0
2,3,12,17, 0,22, 0.00,60.00,Wednesday
7,-2.2
545,19.719554300029937
546,0.7407183245335259
547,13.288284496466533
548,132.796400559496
720,2660.350047223137
721,2660.350047223137
784,0.0
785,0.0
848,0.0
849,0.0
1121,4000.018466248541
1135,1286.6607837680008
1161,9.710099826227536
1163,24.032738240159212
1166,0.0
1168,0.0
2,3,12,17, 0,23, 0.00,60.00,Wednesday
7,-2.2
545,19.08620442865807
546,0.6090778516829749
547,13.206539225118663
548,85.48302902451555
720,1404.2863616939849
721,1404.2863616939849
784,0.0
785,0.0
848,0.0
849,0.0
1121,2332.490138334587
1135,784.1690150741666
1161,42.29738170932604
1163,85.70519484367792
1166,0.0
1168,0.0
2,3,12,17, 0,24, 0.00,60.00,Wednesday
7,-1.7
545,18.740688796959677
546,0.6150714585965917
547,13.181166154749073
548,92.42549358016632
720,1667.1653007195946
721,1667.1653007195946
784,0.0
785,0.0
848,0.0
849,0.0
1121,2525.3254328825246
1135,824.8612880100819
1161,58.720877183731965
1163,76.14222343284025
1166,0.0
1168,0.0
2,4,12,18, 0, 1, 0.00,60.00,Thursday
7,-1.7
545,18.59567145789673
546,0.9099913783083277
547,13.156160655221548
548,108.73700464216913
720,2064.1723381276115
721,2064.1723381276115
784,0.0
785,0.0
848,0.0
849,0.0
1121,3015.198527652691
1135,963.7529551030054
1161,69.08254677864389
1163,54.28673660940974
1166,0.0
1168,0.0
2,4,12,18, 0, 2, 0.00,60.00,Thursday
7,-1.1
545,18.53971867026503
546,1.436934214994767
547,13.137441631756703
548,122.76997235895512
720,2386.182458320647
721,2386.182458320647
784,0.0
785,0.0
848,0.0
849,0.0
1121,3456.2707814132627
1135,1076.643957672515
1161,88.63635649612604
1163,35.3671235329096
1166,0.0
1168,0.0
2,4,12,18, 0, 3, 0.00,60.00,Thursday
7,-0.6
545,18.577240401243685
546,2.180397354778426
547,13.11595554872961
548,129.94177308998144
720,2562.7143622754083
721,2562.7143622754083
784,0.0
785,0.0
848,0.0
849,0.0
1121,3704.4002923670514
1135,1134.8379896980605
1161,99.73327571573209
1163,25.766966072822562
1166,0.0
1168,0.0
2,4,12,18, 0, 4, 0.00,60.00,Thursday
7,-0.6
545,18.57891840577039
546,2.4423279285689805
547,13.096553508081342
548,136.42734551047377
720,2719.4136345457973
721,2719.4136345457973
784,0.0
785,0.0
848,0.0
849,0.0
1121,3905.7548689046944
1135,1191.3263793039378
1161,105.51415598333085
1163,17.049839586872007
1166,0.0
1168,0.0
2,4,12,18, 0, 5, 0.00,60.00,Thursday
7,0.6
545,18.640877314209394
546,3.031287995778856
547,13.069279463205449
548,125.1385137193365
720,2512.392250876621
721,2512.392250876621
784,0.0
785,0.0
848,0.0
849,0.0
1121,3627.9536065173743
1135,1091.43588036428
1161,104.86777776467859
1163,32.41493432970586
1166,0.0
1168,0.0
2,4,12,18, 0, 6, 0.00,60.00,Thursday
7,0.6
545,19.339566862521718
546,3.4644049531719903
547,13.078639354101043
548,151.15536826343148
720,3297.453118872618
721,3297.453118872618
784,0.0
785,0.0
848,0.0
849,0.0
1121,4463.838417881005
1135,1302.4797528670895
1161,126.18810795501429
1163,0.0
1166,138.64164037138198
1168,138.64164037138198
2,4,12,18, 0, 7, 0.00,60.00,Thursday
7,0.6
545,19.60544149468021
546,3.7052075430814853
547,13.091269614212598
548,149.05443816590494
720,3059.868337026717
721,3059.868337026717
784,0.0
785,0.0
848,0.0
849,0.0
1121,4385.983482820093
1135,1318.0260077642088
1161,125.96381930755065
1163,0.3554830183262636
1166,0.0
1168,0.0
2,4,12,18, 0, 8, 0.00,60.00,Thursday
7,0.6
545,19.71671214138431
546,3.819839204675977
547,13.075503261750576
548,138.52903320063885
720,2786.0956400977066
721,2786.0956400977066
784,0.0
785,0.0
848,0.0
849,0.0
1121,4040.2443591674355
1135,1232.664836531176
1161,116.09612523742739
1163,14.471354436061157
1166,0.0
1168,0.0
2,4,12,18, 0, 9, 0.00,60.00,Thursday
7,0.6
545,19.744137889679596
546,4.023011048085219
547,13.062941971242521
548,130.12625646853687
720,2588.60752488889
721,2588.60752488889
784,0.0
785,0.0
848,0.0
849,0.0
1121,3763.2718903045734
1135,1159.3775227572532
1161,109.90126628431497
1163,25.705565074373006
1166,0.0
1168,0.0
2,4,12,18, 0,10, 0.00,60.00,Thursday
7,0.6
545,19.8254997270267
546,5.1446652038329335
547,13.01842977154973
548,99.42649972471209
720,1881.382078968536
721,1881.382078968536
784,0.0
785,0.0
848,0.0
849,0.0
1121,2804.781473190462
1135,886.4590435158341
1161,83.97322097146127
1163,66.8253279244108
1166,0.0
1168,0.0
2,4,12,18, 0,11, 0.00,60.00,Thursday
7,1.1
545,19.873755677676932
546,7.303872363219062
547,13.003042367150575
548,75.7436887613801
720,1433.0871894491393
721,1433.0871894491393
784,0.0
785,0.0
848,0.0
849,0.0
1121,2117.4553582427307
1135,676.6495826177777
1161,65.5131635936799
1163,98.62275900504744
1166,0.0
1168,0.0
2,4,12,18, 0,12, 0.00,60.00,Thursday
7,1.1
545,19.778685668323543
546,7.924780155190784
547,13.017481660368466
548,70.78913586699271
720,1389.9079756157917
721,1389.9079756157917
784,0.0
785,0.0
848,0.0
849,0.0
1121,1950.8898042226253