Program Version,EnergyPlus, Version 22.2.0-c249759bad, YMD=2023.09.01 15:47
1,5,Environment Title[],Latitude[deg],Longitude[deg],Time Zone[],Elevation[m]
2,8,Day of Simulation[],Month[],Day of Month[],DST Indicator[1=yes 0=no],Hour[],StartMinute[],EndMinute[],DayType
3,5,Cumulative Day of Simulation[],Month[],Day of Month[],DST Indicator[1=yes 0=no],DayType  ! When Daily Report Variables Requested
4,2,Cumulative Days of Simulation[],Month[]  ! When Monthly Report Variables Requested
5,1,Cumulative Days of Simulation[] ! When Run Period Report Variables Requested
6,1,Calendar Year of Simulation[] ! When Annual Report Variables Requested
581,11,LIVING,AFN Zone Infiltration Air Change Rate [ach] !RunPeriod [Value,Min,Month,Day,Hour,Minute,Max,Month,Day,Hour,Minute]
582,11,ATTIC,AFN Zone Infiltration Air Change Rate [ach] !RunPeriod [Value,Min,Month,Day,Hour,Minute,Max,Month,Day,Hour,Minute]
583,11,CRAWLSPACE,AFN Zone Infiltration Air Change Rate [ach] !RunPeriod [Value,Min,Month,Day,Hour,Minute,Max,Month,Day,Hour,Minute]
1038,11,Facility,Facility Heating Setpoint Not Met Time [hr] !RunPeriod [Value,Min,Month,Day,Hour,Minute,Max,Month,Day,Hour,Minute]
1039,11,Facility,Facility Cooling Setpoint Not Met Time [hr] !RunPeriod [Value,Min,Month,Day,Hour,Minute,Max,Month,Day,Hour,Minute]
1115,11,DX_HEATING_COIL,Heating Coil Heating Energy [J] !RunPeriod [Value,Min,Month,Day,Hour,Minute,Max,Month,Day,Hour,Minute]
1128,11,DX_HEATING_COIL,Heating Coil Electricity Energy [J] !RunPeriod [Value,Min,Month,Day,Hour,Minute,Max,Month,Day,Hour,Minute]
1153,11,DX_HEATING_COIL,Heating Coil Defrost Electricity Energy [J] !RunPeriod [Value,Min,Month,Day,Hour,Minute,Max,Month,Day,Hour,Minute]
1154,11,DX_HEATING_COIL,Heating Coil Crankcase Heater Electricity Energy [J] !RunPeriod [Value,Min,Month,Day,Hour,Minute,Max,Month,Day,Hour,Minute]
1155,11,HEATING_RESISTANCE_BACKUP,Heating Coil Heating Energy [J] !RunPeriod [Value,Min,Month,Day,Hour,Minute,Max,Month,Day,Hour,Minute]
1156,11,HEATING_RESISTANCE_BACKUP,Heating Coil Electricity Energy [J] !RunPeriod [Value,Min,Month,Day,Hour,Minute,Max,Month,Day,Hour,Minute]
1292,11,WATER HEATER,Water Heater Heat Loss Energy [J] !RunPeriod [Value,Min,Month,Day,Hour,Minute,Max,Month,Day,Hour,Minute]
1306,11,WATER HEATER,Water Heater Heating Energy [J] !RunPeriod [Value,Min,Month,Day,Hour,Minute,Max,Month,Day,Hour,Minute]
1307,11,WATER HEATER,Water Heater Unmet Demand Heat Transfer Energy [J] !RunPeriod [Value,Min,Month,Day,Hour,Minute,Max,Month,Day,Hour,Minute]
1308,11,WATER HEATER,Water Heater Electricity Energy [J] !RunPeriod [Value,Min,Month,Day,Hour,Minute,Max,Month,Day,Hour,Minute]
13,11,Electricity:Facility [J] !RunPeriod [Value,Min,Month,Day,Hour,Minute,Max,Month,Day,Hour,Minute]
1134,11,Heating:Electricity [J] !RunPeriod [Value,Min,Month,Day,Hour,Minute,Max,Month,Day,Hour,Minute]
1096,11,Cooling:Electricity [J] !RunPeriod [Value,Min,Month,Day,Hour,Minute,Max,Month,Day,Hour,Minute]
562,11,Fans:Electricity [J] !RunPeriod [Value,Min,Month,Day,Hour,Minute,Max,Month,Day,Hour,Minute]
1379,11,Pumps:Electricity [J] !RunPeriod [Value,Min,Month,Day,Hour,Minute,Max,Month,Day,Hour,Minute]
1326,11,WaterSystems:Electricity [J] !RunPeriod [Value,Min,Month,Day,Hour,Minute,Max,Month,Day,Hour,Minute]
61,11,InteriorLights:Electricity [J] !RunPeriod [Value,Min,Month,Day,Hour,Minute,Max,Month,Day,Hour,Minute]
1046,11,ExteriorLights:Electricity [J] !RunPeriod [Value,Min,Month,Day,Hour,Minute,Max,Month,Day,Hour,Minute]
134,11,InteriorEquipment:Electricity [J] !RunPeriod [Value,Min,Month,Day,Hour,Minute,Max,Month,Day,Hour,Minute]
170,11,gas_dryer:InteriorEquipment:Electricity [J] !RunPeriod [Value,Min,Month,Day,Hour,Minute,Max,Month,Day,Hour,Minute]
207,11,clotheswasher:InteriorEquipment:Electricity [J] !RunPeriod [Value,Min,Month,Day,Hour,Minute,Max,Month,Day,Hour,Minute]
244,11,dishwasher:InteriorEquipment:Electricity [J] !RunPeriod [Value,Min,Month,Day,Hour,Minute,Max,Month,Day,Hour,Minute]
281,11,refrigerator:InteriorEquipment:Electricity [J] !RunPeriod [Value,Min,Month,Day,Hour,Minute,Max,Month,Day,Hour,Minute]
318,11,electric_mels:InteriorEquipment:Electricity [J] !RunPeriod [Value,Min,Month,Day,Hour,Minute,Max,Month,Day,Hour,Minute]
355,11,NaturalGas:Facility [J] !RunPeriod [Value,Min,Month,Day,Hour,Minute,Max,Month,Day,Hour,Minute]
403,11,InteriorEquipment:NaturalGas [J] !RunPeriod [Value,Min,Month,Day,Hour,Minute,Max,Month,Day,Hour,Minute]
476,11,gas_dryer:InteriorEquipment:NaturalGas [J] !RunPeriod [Value,Min,Month,Day,Hour,Minute,Max,Month,Day,Hour,Minute]
513,11,gas_mels:InteriorEquipment:NaturalGas [J] !RunPeriod [Value,Min,Month,Day,Hour,Minute,Max,Month,Day,Hour,Minute]
End of Data Dictionary
1,EXTREME_WINTER,  35.62,-106.09,  -7.00,1935.00
5,15
1038,0.0,0.0,12,22, 1,15,0.0,12,22, 1,15
1039,0.0,0.0,12,22, 1,15,0.0,12,22, 1,15
581,0.4047061228898463,0.18796730476517162,12,24,23,22,1.6054381946387413,12,26,23,60
582,4.704792444275013,0.0,12,22, 8,52,24.468342306601055,12,26,23,60
583,0.048731813556623045,0.0002526258912894873, 1, 2,19,60,0.12458252715606694,12,26,23,60
1115,3311687878.155787,0.0,12,22,23, 5,5062142.719753654,12,27,10,15
1128,1117361394.1957848,0.0,12,22,23, 5,1643949.4391013468,12,27,10,15
1153,45849354.44674374,0.0,12,22,23, 5,122758.81364804345,12,23, 6,45
1154,127958510.80369139,0.0,12,22, 6, 5,180000.0,12,23,13,45
1155,312808606.33954066,0.0,12,22, 1,15,3330868.496242759, 1, 2, 6,45
1156,312808606.33954066,0.0,12,22, 1,15,3330868.496242759, 1, 2, 6,45
1292,-54224098.05355124,-39772.344373059255,12,26, 5,15,-5352.595221737501,12,31,12,14
1306,494273733.08644575,0.0,12,22, 1,15,10341472.631355235,12,28, 9,45
1307,11706175.675491493,0.0,12,22, 1,15,5605801.065796642, 1, 4,19,60
1308,494273733.08644575,0.0,12,22, 1,15,10341472.631355235,12,28, 9,45
13,3019872869.3203816,279566.45160502766,12,25,14,60,12438800.578660198,12,31, 7,60
61,646981127.1939323,88139.10953165221,12,22, 1,15,1282023.4113694867,12,22,20,15
134,151290040.75163814,63564.01800854099,12,22, 4,15,156554.22484006523,12,27,20,15
170,11185820.069951689,348.4159749238097,12,22, 4,15,17476.39704006126,12,27,12,15
207,13893028.5742839,815.2532113832032,12,22, 3,15,22990.642799023623,12,27,10,15
244,27284301.07562584,1521.856143006317,12,22, 4,15,53038.631142310165,12,27,20,15
281,98926891.03177746,59938.60262432081,12,22, 5,15,81951.81706819107,12,22,19,15
318,0.0,0.0,12,22, 1,15,0.0,12,22, 1,15
355,422701517.16107386,18561.32405820678,12,22, 4,15,724774.895203776,12,27,18,15
403,422701517.16107386,18561.32405820678,12,22, 4,15,724774.895203776,12,27,18,15
476,227882097.80545202,7098.072629279515,12,22, 4,15,356036.3026282215,12,27,12,15
513,0.0,0.0,12,22, 1,15,0.0,12,22, 1,15
562,123350102.50260139,0.0,12,23,13,45,170505.9104568696,12,26, 6,30
1046,0.0,0.0,12,22, 1,15,0.0,12,22, 1,15
1096,0.0,0.0,12,22, 1,15,0.0,12,22, 1,15
1134,1603977865.7857616,0.0,12,25,14,60,5433703.7464990895, 1, 2, 6,15
1326,494273733.08644587,0.0,12,22, 1,15,10354524.38244437, 1, 4, 9,45
1379,0.0,0.0,12,22, 1,15,0.0,12,22, 1,15
1,EXTREME_SUMMER,  35.62,-106.09,  -7.00,1935.00
5,7
1038,0.0,0.0, 7,13, 1,15,0.0, 7,13, 1,15
1039,1.5,0.0, 7,13, 1,15,0.25, 7,19,17,45
581,0.17163383824034367,0.0, 7,13,23, 3,0.6818598541463121, 7,14,19,52
582,3.668772168106731,0.10236957518765658, 7,14, 8,29,14.794598840308652, 7,14,19,48
583,0.03861174407626941,0.00030550850180185394, 7,15,23, 3,0.08617282021681402, 7,18,18,33
1115,0.0,0.0, 7,13, 1, 7,0.0, 7,13, 1, 7
1128,0.0,0.0, 7,13, 1, 7,0.0, 7,13, 1, 7
1153,0.0,0.0, 7,13, 1, 7,0.0, 7,13, 1, 7
1154,0.0,0.0, 7,13, 1, 7,0.0, 7,13, 1, 7
1155,0.0,0.0, 7,13, 1, 7,0.0, 7,13, 1, 7
1156,0.0,0.0, 7,13, 1, 7,0.0, 7,13, 1, 7
1292,-22080365.54146247,-34362.61538704097, 7,17, 6,30,-2439.7904413285296, 7,15,17,44
1306,181684029.42482835,0.0, 7,13, 1, 7,5450248.516104994, 7,17, 6,60
1307,1892398.0507304699,0.0, 7,13, 1, 7,292703.4176466899, 7,19,19,49
1308,181684029.42482835,0.0, 7,13, 1, 7,5450248.516104994, 7,17, 6,60
13,1093996583.2282355,151703.1275401932, 7,13, 4,15,12644281.751312684, 7,19,19,60
61,301924526.02383536,88139.10953165221, 7,13, 1,15,1282023.4113694867, 7,13,20,15
134,70666020.44019976,63564.01800854099, 7,13, 4,15,156554.22484006523, 7,18,20,15
170,5241013.419656067,348.4159749238097, 7,13, 4,15,17476.39704006126, 7,18,12,15
207,6509451.13922267,815.2532113832032, 7,13, 3,15,22990.642799023623, 7,18,10,15
244,12749673.399825225,1521.856143006317, 7,13, 4,15,53038.631142310165, 7,18,20,15
281,46165882.481495745,59938.60262432081, 7,13, 5,15,81951.81706819107, 7,13,19,15
318,0.0,0.0, 7,13, 1,15,0.0, 7,13, 1,15
355,197687796.27748066,18561.32405820678, 7,13, 4,15,724774.895203776, 7,18,18,15
403,197687796.27748066,18561.32405820678, 7,13, 4,15,724774.895203776, 7,18,18,15
476,106772067.24485716,7098.072629279515, 7,13, 4,15,356036.3026282215, 7,18,12,15
513,0.0,0.0, 7,13, 1,15,0.0, 7,13, 1,15
562,50806145.80711263,0.0, 7,13, 3,45,170505.9104568696, 7,19,16,30
1046,0.0,0.0, 7,13, 1,15,0.0, 7,13, 1,15
1096,488915861.5322594,0.0, 7,13, 3,45,1909309.8483436254, 7,19,16,15
1134,0.0,0.0, 7,13, 1,15,0.0, 7,13, 1,15
1326,181684029.4248283,0.0, 7,13, 1,15,9737872.097088682, 7,19,19,60
1379,0.0,0.0, 7,13, 1,15,0.0, 7,13, 1,15
1,ANNUAL,  35.62,-106.09,  -7.00,1935.00
5,365
1038,0.75,0.0, 1, 1, 1,15,0.25, 1,11, 6,15
1039,32.5,0.0, 1, 1, 1,15,0.25, 1,19,15,60
581,0.2769002532177318,0.0, 7,13,23, 3,1.6055130123647998,12,26,23,60
582,4.3821869629873635,0.0, 1, 2,19,30,25.768128746020622, 5,17,23,60
583,0.026517081998527935,0.0, 8, 3,23, 3,0.1240824250448925,12,26,23,60
1115,18325594424.255726,0.0, 1, 1,23, 3,5249246.041361901, 2, 9, 6,45
1128,6089645426.169413,0.0, 1, 1,23, 3,1659737.1106585872, 2, 9, 6,45
1153,194082984.45700592,0.0, 1, 1,23, 3,147064.59677255014, 2,21, 6,60
1154,2110382516.1276755,0.0, 1, 1, 5,60,180000.0, 1, 2,14,45
1155,1036506507.7064388,0.0, 1, 1, 1,15,4549240.283490391, 1,11, 6,45
1156,1036506507.7064388,0.0, 1, 1, 1,15,4549240.283490391, 1,11, 6,45
1292,-1219717558.8375688,-39858.021965293505,12, 4, 1,45,-2190.357025894836, 5,12,14,60
1306,10956959362.713987,0.0, 1, 1, 1,15,10325487.845894808,12,24, 9,45
1307,215021230.21080792,0.0, 1, 1, 1,15,5872343.959949479, 1,15,19,60
1308,10956959362.713987,0.0, 1, 1, 1,15,10325487.845894808,12,24, 9,45
13,49490938408.92378,151703.1275401932, 4, 6, 4,15,13720637.918886218, 1,11, 7,60
61,15743207428.383959,88139.10953165221, 1, 1, 1,15,1282023.4113694867, 1, 1,20,15
134,3685071073.4325233,63564.01800854099, 1, 2, 4,15,156554.22484006523, 1, 1,20,15
170,273393721.45532674,348.4159749238097, 1, 2, 4,15,17476.39704006126, 1, 1,12,15
207,339560869.0695816,815.2532113832032, 1, 2, 3,15,22990.642799023623, 1, 1,10,15
244,664895467.8009144,1521.856143006317, 1, 2, 4,15,53038.631142310165, 1, 1,20,15
281,2407221015.106824,59938.60262432081, 1, 1, 5,15,81951.81706819107, 1, 1,19,15
318,0.0,0.0, 1, 1, 1,15,0.0, 1, 1, 1,15
355,10310294493.051695,18561.32405820678, 1, 2, 4,15,724774.895203776, 1, 1,18,15
403,10310294493.051695,18561.32405820678, 1, 2, 4,15,724774.895203776, 1, 1,18,15
476,5569688622.066177,7098.072629279515, 1, 2, 4,15,356036.3026282215, 1, 1,12,15
513,0.0,0.0, 1, 1, 1,15,0.0, 1, 1, 1,15
562,1640813230.1243262,0.0, 1, 2,13,60,170505.9104568696, 1, 1, 5,60
1046,0.0,0.0, 1, 1, 1,15,0.0, 1, 1, 1,15
1096,8034269879.806383,0.0, 1, 1, 1,15,1922004.7912666244, 6, 5,16,60
1134,9430617434.460537,0.0, 1,23,15,60,6405206.004604523, 1,11, 6,15
1326,10956959362.713968,0.0, 1, 1, 1,15,10540800.0,10, 8,19,60
1379,0.0,0.0, 1, 1, 1,15,0.0, 1, 1, 1,15
End of Data
 Number of Records Written=          99
