Program Version,EnergyPlus, Version 22.2.0-c249759bad, YMD=2023.09.01 14:31
1,5,Environment Title[],Latitude[deg],Longitude[deg],Time Zone[],Elevation[m]
2,8,Day of Simulation[],Month[],Day of Month[],DST Indicator[1=yes 0=no],Hour[],StartMinute[],EndMinute[],DayType
3,5,Cumulative Day of Simulation[],Month[],Day of Month[],DST Indicator[1=yes 0=no],DayType  ! When Daily Report Variables Requested
4,2,Cumulative Days of Simulation[],Month[]  ! When Monthly Report Variables Requested
5,1,Cumulative Days of Simulation[] ! When Run Period Report Variables Requested
6,1,Calendar Year of Simulation[] ! When Annual Report Variables Requested
7,1,Environment,Site Outdoor Air Drybulb Temperature [C] !Hourly
619,1,DX_HEATING_COIL,Heating Coil Heating Rate [W] !Hourly
633,1,DX_HEATING_COIL,Heating Coil Electricity Rate [W] !Hourly
659,1,DX_HEATING_COIL,Heating Coil Defrost Electricity Rate [W] !Hourly
661,1,DX_HEATING_COIL,Heating Coil Crankcase Heater Electricity Rate [W] !Hourly
690,1,FAN,Fan Electricity Rate [W] !Hourly
716,1,HEAT PUMP WATER HEATER FAN,Fan Electricity Rate [W] !Hourly
718,1,LIVING,Zone Mean Air Temperature [C] !Hourly
719,1,ATTIC,Zone Mean Air Temperature [C] !Hourly
720,1,CRAWLSPACE,Zone Mean Air Temperature [C] !Hourly
843,1,LIVING,Zone Predicted Sensible Load to Heating Setpoint Heat Transfer Rate [W] !Hourly
844,1,LIVING,Zone System Predicted Sensible Load to Heating Setpoint Heat Transfer Rate [W] !Hourly
907,1,ATTIC,Zone Predicted Sensible Load to Heating Setpoint Heat Transfer Rate [W] !Hourly
908,1,ATTIC,Zone System Predicted Sensible Load to Heating Setpoint Heat Transfer Rate [W] !Hourly
971,1,CRAWLSPACE,Zone Predicted Sensible Load to Heating Setpoint Heat Transfer Rate [W] !Hourly
972,1,CRAWLSPACE,Zone System Predicted Sensible Load to Heating Setpoint Heat Transfer Rate [W] !Hourly
1195,1,HEATING_RESISTANCE_BACKUP,Heating Coil Heating Rate [W] !Hourly
1197,1,HEATING_RESISTANCE_BACKUP,Heating Coil Electricity Rate [W] !Hourly
End of Data Dictionary
1,EXTREME_WINTER,  47.45,-122.30,  -8.00, 137.00
2,1, 1, 1, 0, 1, 0.00,60.00,Monday
7,-2.2
718,18.34220361114114
719,-0.8470989378645198
720,18.892448490058197
619,1650.825862392599
633,545.4610906869216
659,0.027337942881081392
661,107.93593445471035
690,56.75020820474972
716,0.0
843,1092.0391406557446
844,1092.0391406557446
907,0.0
908,0.0
971,0.0
972,0.0
1195,0.0
1197,0.0
2,1, 1, 1, 0, 2, 0.00,60.00,Monday
7,-2.2
718,18.48426289643799
719,-0.7247211658909108
720,18.534493188679264
619,2625.768007044164
633,836.1474572323286
659,0.04215951967015113
661,58.02235379763185
690,87.51798061127596
716,0.0
843,1732.931178370629
844,1732.931178370629
907,0.0
908,0.0
971,0.0
972,0.0
1195,0.0
1197,0.0
2,1, 1, 1, 0, 3, 0.00,60.00,Monday
7,-2.2
718,18.495090398741816
719,-0.5546233442846887
720,18.32203806287037
619,3399.2718972437942
633,1061.142068297386
659,0.05338063220280463
661,20.233803130486017
690,110.81163029883558
716,0.0
843,2225.582266531035
844,2225.582266531035
907,0.0
908,0.0
971,0.0
972,0.0
1195,0.0
1197,0.0
2,1, 1, 1, 0, 4, 0.00,60.00,Monday
7,-1.7
718,18.588097490034745
719,-0.22526279913293848
720,18.11328018570497
619,3634.572243269932
633,1117.734129414011
659,0.05598810113471272
661,11.452813584245614
690,116.22448873804532
716,0.0
843,2383.766629576725
844,2383.766629576725
907,0.0
908,0.0
971,0.0
972,0.0
1195,0.0
1197,0.0
2,1, 1, 1, 0, 5, 0.00,60.00,Monday
7,-1.7
718,18.603981612263752
719,0.02800036695497334
720,17.9286978010449
619,3660.411961540978
633,1127.0967558043735
659,0.05636571816818723
661,10.181139286291273
690,117.00837533687663
716,0.0
843,2403.1589878474497
844,2403.1589878474497
907,0.0
908,0.0
971,0.0
972,0.0
1195,0.0
1197,0.0
2,1, 1, 1, 0, 6, 0.00,60.00,Monday
7,-2.2
718,19.38436361116934
719,0.6871390612208669
720,17.742923640911947
619,3622.836883478381
633,1119.3633623848339
659,45.978705857335555
661,0.0
690,123.28534727332661
716,0.0
843,3560.0279877423545
844,3560.0279877423545
907,0.0
908,0.0
971,0.0
972,0.0
1195,1470.2327352090642
1197,1470.2327352090642
2,1, 1, 1, 0, 7, 0.00,60.00,Monday
7,-3.3
718,19.5721306647042
719,0.7501608037642269
720,17.602603016761975
619,3492.6561363227906
633,1123.9130433690161
659,47.36119171606149
661,0.0
690,123.28534727332661
716,85.44000000000004
843,3461.302106320045
844,3461.302106320045
907,0.0
908,0.0
971,0.0
972,0.0
1195,2701.245341319155
1197,2701.245341319155
2,1, 1, 1, 0, 8, 0.00,60.00,Monday
7,-1.7
718,19.66217363271411
719,0.881183419828304
720,17.45762958261577
619,3819.0236045547163
633,1196.4107520317723
659,9.656674034439265
661,0.0
690,123.28534727332661
716,75.07188234623119
843,3009.041936315485
844,3009.041936315485
907,0.0
908,0.0
971,0.0
972,0.0
1195,1750.1629581857392
1197,1750.1629581857392
2,1, 1, 1, 0, 9, 0.00,60.00,Monday
7,-1.7
718,19.71423821482847
719,0.9953630246573817
720,17.310609401248758
619,3860.566456317238
633,1211.8606419953721
659,0.059388954244330786
661,0.0
690,123.28534727332661
716,0.0
843,2541.4615657964696
844,2541.4615657964696
907,0.0
908,0.0
971,0.0
972,0.0
1195,51.09751014703579
1197,51.09751014703579
2,1, 1, 1, 0,10, 0.00,60.00,Monday
7,0.0
718,19.80200200331708
719,2.6649909617921255
720,17.190114015260956
619,2416.0479789936376
633,769.6411862030219
659,0.03712507980550367
661,74.97648248605896
690,77.06730394521882
716,0.0
843,1570.1327726002328
844,1570.1327726002328
907,0.0
908,0.0
971,0.0
972,0.0
1195,0.0
1197,0.0
2,1, 1, 1, 0,11, 0.00,60.00,Monday
7,0.0
718,19.80389983864902
719,4.013384298176858
720,17.070940496737133
619,1208.751955757388
633,399.65009358781276
659,0.01924315553596637
661,135.1961798929864
690,39.94652993611787
716,0.0
843,802.8193171173225
844,802.8193171173225
907,0.0
908,0.0
971,0.0
972,0.0
1195,0.0
1197,0.0
2,1, 1, 1, 0,12, 0.00,60.00,Monday
7,2.8
718,19.875466275242335
719,7.594941648670354
720,16.979486982928137
619,102.64238433818323
633,33.3931968212658
659,0.001567623101977456
661,194.72082604610907
690,3.254211132819506
716,0.0
843,63.40308813385309
844,63.40308813385309
907,0.0
908,0.0
971,0.0
972,0.0
1195,0.0
1197,0.0
2,1, 1, 1, 0,13, 0.00,60.00,Monday
7,3.9
718,20.369818596080993
719,10.759673776714314
720,16.9174740442876
619,0.0
633,0.0
659,0.0
661,200.0
690,0.0
716,0.0
843,-374.9629218994269
844,-374.9629218994269
907,0.0
908,0.0
971,0.0
972,0.0
1195,0.0
1197,0.0
2,1, 1, 1, 0,14, 0.00,60.00,Monday
7,3.9
718,19.794435436278345
719,11.92180500406166
720,16.87914911268185
619,0.0
633,0.0
659,0.0
661,200.0
690,0.0
716,76.84182778580546
843,-812.4773741941499
844,-812.4773741941499
907,0.0
908,0.0
971,0.0
972,0.0
1195,0.0
1197,0.0
2,1, 1, 1, 0,15, 0.00,60.00,Monday
7,4.4
718,21.172013165277747
719,12.388570082813327
720,16.86053317468929
619,0.0
633,0.0
659,0.0
661,200.0
690,0.0
716,0.0
843,-1307.6228338201636
844,-1307.6228338201636
907,0.0
908,0.0
971,0.0
972,0.0
1195,0.0
1197,0.0
2,1, 1, 1, 0,16, 0.00,60.00,Monday
7,3.3
718,21.40819747611636
719,10.866910721852094
720,16.852127715665414
619,0.0
633,0.0
659,0.0
661,200.0
690,0.0
716,0.0
843,-1263.2692229180884
844,-1263.2692229180884
907,0.0
908,0.0
971,0.0
972,0.0
1195,0.0
1197,0.0
2,1, 1, 1, 0,17, 0.00,60.00,Monday
7,3.3
718,20.751534695625057
719,8.04778330794217
720,16.84880736216155
619,0.0
633,0.0
659,0.0
661,200.0
690,0.0
716,0.0
843,-806.680427937601
844,-806.680427937601
907,0.0
908,0.0
971,0.0
972,0.0
1195,0.0
1197,0.0
2,1, 1, 1, 0,18, 0.00,60.00,Monday
7,0.6
718,20.31783580344289
719,4.820593611229074
720,16.847642159087094
619,0.0
633,0.0
659,0.0
661,200.0
690,0.0
716,0.0
843,-441.9541355655474
844,-441.9541355655474
907,0.0
908,0.0
971,0.0
972,0.0
1195,0.0
1197,0.0
2,1, 1, 1, 0,19, 0.00,60.00,Monday
7,-0.6
718,19.115919834478216
719,1.5624804840276985
720,16.820369759279398
619,0.0
633,0.0
659,0.0
661,200.0
690,0.0
716,85.44000000000004
843,-277.3418551839586
844,-277.3418551839586
907,0.0
908,0.0
971,0.0
972,0.0
1195,0.0
1197,0.0
2,1, 1, 1, 0,20, 0.00,60.00,Monday
7,0.6
718,19.48232649673764
719,1.371621410535449
720,16.770141282155933
619,1724.5388044494462
633,546.6876406329056
659,4.065780953581931
661,109.64678016226115
690,55.642946916826915
716,85.44000000000004
843,81.86214022984132
844,81.86214022984132
907,0.0
908,0.0
971,0.0
972,0.0
1195,0.0
1197,0.0
2,1, 1, 1, 0,21, 0.00,60.00,Monday
7,0.0
718,19.658301465119713
719,0.6508014527673279
720,16.707066866145325
619,1099.3528004464558
633,361.62166040138413
659,0.01752925783000558
661,140.9679525324226
690,36.38868010149411
716,23.472956674627873
843,440.25923998411054
844,440.25923998411054
907,0.0
908,0.0
971,0.0
972,0.0
1195,0.0
1197,0.0
2,1, 1, 1, 0,22, 0.00,60.00,Monday
7,0.0
718,19.82881745714118
719,0.04012269370168214
720,16.630753710044534
619,1077.0791898002021
633,356.01768615299346
659,0.017199619758892937
661,142.07805145673262
690,35.70438997687745
716,0.0
843,670.2980022817101
844,670.2980022817101
907,0.0
908,0.0
971,0.0
972,0.0
1195,0.0
1197,0.0
2,1, 1, 1, 0,23, 0.00,60.00,Monday
7,0.0
718,18.739807444447578
719,-0.3634803506398829
720,16.536198541930165
619,291.87459235230625
633,99.19087102262746
659,0.004775781471913301
661,183.9169369702475
690,9.913961208763677
716,0.0
843,177.60447558234955
844,177.60447558234955
907,0.0
908,0.0
971,0.0
972,0.0
1195,0.0
1197,0.0
2,1, 1, 1, 0,24, 0.00,60.00,Monday
7,0.0
718,18.62169898927603
719,-0.2773960173164225
720,16.43825422818681
619,988.6037831773128
633,320.3429889527178
659,0.015758362885126723
661,146.93167076054044
690,32.71251105990269
716,0.0
843,655.9252994630006
844,655.9252994630006
907,0.0
908,0.0
971,0.0
972,0.0
1195,0.0
1197,0.0
2,2, 1, 2, 0, 1, 0.00,60.00,Tuesday
7,-1.1
718,18.458127739152374
719,0.16176683247141913
720,16.334165353177035
619,1716.5177593294611
633,554.6906505041404
659,18.48633871212446
661,102.6862352871147
690,59.6595479257982
716,0.0
843,1115.7324953360585
844,1115.7324953360585
907,0.0
908,0.0
971,0.0
972,0.0
1195,0.0
1197,0.0
2,2, 1, 2, 0, 2, 0.00,60.00,Tuesday
7,-0.6
718,18.539157237003078
719,0.9405416309716662
720,16.23228093244874
619,2478.6418571896947
633,772.2556480545264
659,24.377684395438237
661,64.94786054590529
690,82.85064042529835
716,0.0
843,1629.7966141435336
844,1629.7966141435336
907,0.0
908,0.0
971,0.0
972,0.0
1195,0.0
1197,0.0
2,2, 1, 2, 0, 3, 0.00,60.00,Tuesday
7,-1.1
718,18.565464916585356
719,1.2814853103846149
720,16.134807538759524
619,2971.808760345832
633,921.6869757085797
659,27.581895783105242
661,38.70811079089365
690,98.93858541846367
716,0.0
843,1963.7478051569178
844,1963.7478051569178
907,0.0
908,0.0
971,0.0
972,0.0
1195,0.0
1197,0.0
2,2, 1, 2, 0, 4, 0.00,60.00,Tuesday
7,-2.2
718,18.535061993956088
719,1.2117537627858748
720,16.026214905005777
619,3624.6173107399577
633,1123.5488622022585
659,40.68588067762915
661,0.0
690,122.45976399572865
716,0.0
843,2379.816501485213
844,2379.816501485213
907,0.0
908,0.0
971,0.0
972,0.0
1195,0.0
1197,0.0
2,2, 1, 2, 0, 5, 0.00,60.00,Tuesday
7,-2.2
718,18.588316068649192
719,0.9463217493857631
720,15.926812366316915
619,3649.7366902157505
633,1122.7417740921971
659,40.68588067762915
661,0.0
690,123.28534727332661
716,0.0
843,2503.7562288605786
844,2503.7562288605786
907,0.0
908,0.0
971,0.0
972,0.0
1195,142.55995189386567
1197,142.55995189386567
2,2, 1, 2, 0, 6, 0.00,60.00,Tuesday
7,-2.2
718,19.395283331286112
719,0.7621287057962178
720,15.830891069165354
619,3648.87169931523
633,1123.7890800514251
659,40.68200459434962
661,0.0
690,123.28534727332661
716,0.0
843,3348.602978761155
844,3348.602978761155
907,0.0
908,0.0
971,0.0
972,0.0
1195,1177.68771449621
1197,1177.68771449621
2,2, 1, 2, 0, 7, 0.00,60.00,Tuesday
7,-2.8
718,19.57508789980147
719,0.41965153375491293
720,15.76666699238431
619,3584.0169938406243
633,1139.0725671140876
659,38.24276004436592
661,0.0
690,123.28534727332661
716,85.44000000000004
843,3230.960328311434
844,3230.960328311434
907,0.0
908,0.0
971,0.0
972,0.0
1195,2406.9761299868583
1197,2406.9761299868583
2,2, 1, 2, 0, 8, 0.00,60.00,Tuesday
7,-2.8
718,19.659070455127456
719,0.21718006847461838
720,15.674727946493485
619,3552.433118238314
633,1133.947555693465
659,44.72468594083374
661,0.0
690,123.28534727332661
716,85.44000000000004
843,3081.74958019533
844,3081.74958019533
907,0.0
908,0.0
971,0.0
972,0.0
1195,2354.1191134211213
1197,2354.1191134211213
2,2, 1, 2, 0, 9, 0.00,60.00,Tuesday
7,-0.6
718,19.687949454184086
719,1.5346047255355
720,15.603916589146626
619,3814.6810903836613
633,1169.543428497221
659,36.08419796795782
661,0.0
690,123.28534727332661
716,71.79474040365663
843,2497.6947690513425
844,2497.6947690513425
907,0.0
908,0.0
971,0.0
972,0.0
1195,1201.2969097008363
1197,1201.2969097008363
2,2, 1, 2, 0,10, 0.00,60.00,Tuesday
7,1.1
718,19.787115008591474
719,3.338087854594061
720,15.4971350009287
619,2492.060929293574
633,775.8709422176245
659,19.684367173161533
661,70.2928489029177
690,79.71391620866316
716,0.0
843,1614.3181675378619
844,1614.3181675378619
907,0.0
908,0.0
971,0.0
972,0.0
1195,0.0
1197,0.0
2,2, 1, 2, 0,11, 0.00,60.00,Tuesday
7,1.1
718,19.79480364274543
719,5.239065432060054
720,15.40554783766104
619,1269.1942116355478
633,410.5132050778759
659,10.393887138702876
661,131.51105759580156
690,42.091075637912716
716,0.0
843,842.1826131407088
844,842.1826131407088
907,0.0
908,0.0
971,0.0
972,0.0
1195,0.0
1197,0.0
2,2, 1, 2, 0,12, 0.00,60.00,Tuesday
7,2.2
718,19.905003803425828
719,9.23795882922284
720,15.335915800103129
619,232.65335338038534
633,76.17193933685833
659,2.232092932117635
661,187.3457706476077
690,7.778484706167298
716,0.0
843,154.8724842995016
844,154.8724842995016
907,0.0
908,0.0
971,0.0
972,0.0
1195,0.0
1197,0.0
2,2, 1, 2, 0,13, 0.00,60.00,Tuesday
7,2.8
718,19.825912037977638
719,9.73625251929885
720,15.309185712183195
619,0.0
633,0.0
659,0.0
661,200.0
690,0.0
716,0.0
843,-282.04049044820385
844,-282.04049044820385
907,0.0
908,0.0
971,0.0
972,0.0
1195,0.0
1197,0.0
2,2, 1, 2, 0,14, 0.00,60.00,Tuesday
7,3.9
718,20.353204787519214
719,10.27120782896635
720,15.306582180251189
619,0.0
633,0.0
659,0.0
661,200.0
690,0.0
716,0.0
843,-490.9163791599203
844,-490.9163791599203
907,0.0
908,0.0
971,0.0
972,0.0
1195,0.0
1197,0.0
2,2, 1, 2, 0,15, 0.00,60.00,Tuesday
7,3.9
718,20.683583154883728
719,9.884653273611107
720,15.31775068401221
619,0.0
633,0.0
659,0.0
661,200.0
690,0.0
716,0.0
843,-758.5024897503554
844,-758.5024897503554
907,0.0
908,0.0
971,0.0
972,0.0
1195,0.0
1197,0.0
2,2, 1, 2, 0,16, 0.00,60.00,Tuesday
7,2.8
718,20.932999219430982
719,8.572998329767797
720,15.33259694947035
619,0.0
633,0.0
659,0.0
661,200.0
690,0.0
716,0.0
843,-997.2358730942669
844,-997.2358730942669
907,0.0
908,0.0
971,0.0
972,0.0
1195,0.0
1197,0.0
2,2, 1, 2, 0,17, 0.00,60.00,Tuesday
7,2.8
718,20.14839233402015
719,6.266970294204949
720,15.365068397596703
619,0.0
633,0.0
659,0.0
661,200.0
690,0.0
716,0.0
843,-345.8753247441309
844,-345.8753247441309
907,0.0
908,0.0
971,0.0
972,0.0
1195,0.0
1197,0.0
2,2, 1, 2, 0,18, 0.00,60.00,Tuesday
7,1.7
718,19.7949826074525
719,4.73632830994135
720,15.432732731854847
619,1443.5871126418685
633,463.78048966691557
659,14.976439173651997
661,122.7749023116143
690,47.43887202268813
716,66.35133569274801
843,169.78146499219656
844,169.78146499219656
907,0.0
908,0.0
971,0.0
972,0.0
1195,0.0
1197,0.0
2,2, 1, 2, 0,19, 0.00,60.00,Tuesday
7,1.1
718,19.78200590947293
719,2.8884316088373256
720,15.382622430170239
619,588.26769326399
633,194.45326957492824
659,7.229802457873346
661,167.02661846431823
690,20.235754517400817
716,0.0
843,396.8091209203103
844,396.8091209203103
907,0.0
908,0.0
971,0.0
972,0.0
1195,0.0
1197,0.0
2,2, 1, 2, 0,20, 0.00,60.00,Tuesday
7,0.6
718,19.38880857173902
719,3.320593392811194
720,15.417051792584468
619,2613.521553268119
633,819.3342764777237
659,38.90714042133864
661,58.41114292324194
690,86.74234716570345
716,85.44000000000004
843,597.2465985783074
844,597.2465985783074
907,0.0
908,0.0
971,0.0
972,0.0
1195,0.0
1197,0.0
2,2, 1, 2, 0,21, 0.00,60.00,Tuesday
7,0.0
718,19.583552253074338
719,2.8942931744686535
720,15.361871141097376
619,3237.888705088731
633,997.0800969496463
659,51.419336061423834
661,24.638797129534495
690,107.30974577253018
716,85.44000000000004
843,1067.8403769844463
844,1067.8403769844463
907,0.0
908,0.0
971,0.0
972,0.0
1195,0.0
1197,0.0
2,2, 1, 2, 0,22, 0.00,60.00,Tuesday
7,0.6
718,19.743565142798243
719,2.456139987978005
720,15.290573118531674
619,2248.882804082946
633,709.2922727108423
659,28.365742176342163
661,78.23195500874091
690,74.67372328023264
716,28.852065649645432
843,1157.0302638945204
844,1157.0302638945204
907,0.0
908,0.0
971,0.0
972,0.0
1195,0.0
1197,0.0
2,2, 1, 2, 0,23, 0.00,60.00,Tuesday
7,0.6
718,18.867523650042834
719,1.7875559676745862
720,15.19222314536721
619,1039.7765745543163
633,341.57674438738803
659,13.615685654274907
661,141.5507828764174
690,35.843576402917186
716,0.0
843,653.9449088810597
844,653.9449088810597
907,0.0
908,0.0
971,0.0
972,0.0
1195,0.0
1197,0.0
2,2, 1, 2, 0,24, 0.00,60.00,Tuesday
7,-1.7
718,18.50455012029687
719,0.9634116255571866
720,15.117276392121585
619,1722.7876111183655
633,566.2743657939158
659,31.724201737180234
661,97.48497408070125
690,62.56482350865121
716,0.0
843,1124.7802554327327
844,1124.7802554327327
907,0.0
908,0.0
971,0.0
972,0.0
1195,0.0
1197,0.0
2,3, 1, 3, 0, 1, 0.00,60.00,Wednesday
7,-1.7
718,18.51571171597987
719,0.8999631478783051
720,15.040170973275137
619,2771.827749895091
633,872.6364119489016
659,44.88798885968643
661,41.87005041243936
690,96.59324885489146
716,0.0
843,1801.0674105333128
844,1801.0674105333128
907,0.0
908,0.0
971,0.0
972,0.0
1195,0.0
1197,0.0
2,3, 1, 3, 0, 2, 0.00,60.00,Wednesday
7,-1.7
718,18.530068842835757
719,0.8572133092213983
720,14.965559446194089
619,3578.1862465490162
633,1098.4311044621636
659,41.88852900640917
661,4.353265546632956
690,119.79073644274969
716,0.0
843,2320.2843540684316
844,2320.2843540684316
907,0.0
908,0.0
971,0.0
972,0.0
1195,0.0
1197,0.0
2,3, 1, 3, 0, 3, 0.00,60.00,Wednesday
7,-2.2
718,18.583143406846396
719,0.5817511376048146
720,14.876070597722276
619,3628.2416034614985
633,1114.2287692077887
659,45.790572454052985
661,0.0
690,123.28534727332661
716,0.0
843,2552.2790875899536
844,2552.2790875899536
907,0.0
908,0.0
971,0.0
972,0.0
1195,268.7142375778012
1197,268.7142375778012
2,3, 1, 3, 0, 4, 0.00,60.00,Wednesday
7,-1.7
718,18.60033689715197
719,0.823369610411271
720,14.79017195178705
619,3659.736687849379
633,1114.449539781495
659,49.828025343513026
661,0.0
690,123.28534727332661
716,0.0
843,2895.5061793266177
844,2895.5061793266177
907,0.0
908,0.0
971,0.0
972,0.0
1195,676.2440588434656
1197,676.2440588434656
2,3, 1, 3, 0, 5, 0.00,60.00,Wednesday
7,-1.7
718,18.60747144483177
719,0.8756634232162354
720,14.698755813212758
619,3659.517837408984
633,1114.7083019834254
659,49.828025343513026
661,0.0
690,123.28534727332661
716,0.0
843,2921.116125706989
844,2921.116125706989
907,0.0
908,0.0
971,0.0
972,0.0
1195,701.2499517502101
1197,701.2499517502101
2,3, 1, 3, 0, 6, 0.00,60.00,Wednesday
7,-1.7
718,19.29323442010634
719,1.1395430715649952
720,14.60952114763633
619,3659.545627534913
633,1114.7701618998467
659,49.81394402934643
661,0.0
690,123.28534727332661
716,68.63304670384031
843,3769.572820248435
844,3769.572820248435
907,0.0
908,0.0
971,0.0
972,0.0
1195,2637.9393003914147
1197,2637.9393003914147
2,3, 1, 3, 0, 7, 0.00,60.00,Wednesday
7,-0.6
718,19.5417353841124
719,1.5315617947413713
720,14.563153227500143
619,3795.574039429829
633,1151.4566331614785
659,41.96479633667311
661,0.0
690,123.28534727332661
716,85.44000000000004
843,3317.1376512249826
844,3317.1376512249826
907,0.0
908,0.0
971,0.0
972,0.0
1195,2354.544527877408
1197,2354.544527877408
2,3, 1, 3, 0, 8, 0.00,60.00,Wednesday
7,-0.6
718,19.656823245955362
719,1.7975734692494298
720,14.484143080937189
619,3755.1696420437597
633,1146.0472872531723
659,49.6744826177393
661,0.0
690,123.28534727332661
716,50.97571514820643
843,3217.1563133334403
844,3217.1563133334403
907,0.0
908,0.0
971,0.0
972,0.0
1195,1770.7375473239954
1197,1770.7375473239954
2,3, 1, 3, 0, 9, 0.00,60.00,Wednesday
7,0.0
718,19.711297963287024
719,2.479005831832484
720,14.417272881500885
619,3745.481567007733
633,1133.4912319996201
659,64.42524641966253
661,0.0
690,123.28534727332661
716,0.0
843,2614.573936400713
844,2614.573936400713
907,0.0
908,0.0
971,0.0
972,0.0
1195,276.70373234534145
1197,276.70373234534145
2,3, 1, 3, 0,10, 0.00,60.00,Wednesday
7,0.6
718,19.790564242277256
719,4.912902076138334
720,14.299606308472763
619,2353.6650209557642
633,741.5089681063902
659,39.5187203991911
661,70.56573597955891
690,79.23805539907778
716,0.0
843,1514.922025110338
844,1514.922025110338
907,0.0
908,0.0
971,0.0
972,0.0
1195,0.0
1197,0.0
2,3, 1, 3, 0,11, 0.00,60.00,Wednesday
7,0.6
718,19.79906522249351
719,7.095838330657669
720,14.20472569402782
619,1088.5981239853152
633,357.3342166959713
659,19.012724551444617
661,137.72829726060723
690,38.12185760874393
716,0.0
843,725.9417881269001
844,725.9417881269001
907,0.0
908,0.0
971,0.0
972,0.0
1195,0.0
1197,0.0
2,3, 1, 3, 0,12, 0.00,60.00,Wednesday
7,3.3
718,19.811449226912732
719,9.440382177511164
720,14.138273506448195
619,142.6801879731316
633,45.83051323641162
659,0.7145001471187779
661,192.59755219360886
690,4.557837419006815
716,0.0
843,96.96012303254793
844,96.96012303254793
907,0.0
908,0.0
971,0.0
972,0.0
1195,0.0
1197,0.0
2,3, 1, 3, 0,13, 0.00,60.00,Wednesday
7,3.9
718,19.913169041042387
719,10.496048574549805
720,14.13295071985269
619,0.0
633,0.0
659,0.0
661,200.0
690,0.0
716,0.0
843,-243.2742671429496
844,-243.2742671429496
907,0.0
908,0.0
971,0.0
972,0.0
1195,0.0
1197,0.0
2,3, 1, 3, 0,14, 0.00,60.00,Wednesday
7,4.4
718,20.867809710838866
719,13.462524207182307
720,14.152367046603885
619,0.0
633,0.0
659,0.0
661,200.0
690,0.0
716,0.0
843,-867.4212121457203
844,-867.4212121457203
907,0.0
908,0.0
971,0.0
972,0.0
1195,0.0
1197,0.0
2,3, 1, 3, 0,15, 0.00,60.00,Wednesday
7,5.0
718,20.47700733054153
719,14.153581542316951
720,14.185037689160474
619,0.0
633,0.0
659,0.0
661,200.0
690,0.0
716,64.27151821735292
843,-1270.3819494650998
844,-1270.3819494650998
907,0.0
908,0.0
971,0.0
972,0.0
1195,0.0
1197,0.0
2,3, 1, 3, 0,16, 0.00,60.00,Wednesday
7,3.9
718,20.47590816829049
719,13.222868256154975
720,14.223452442061118
619,0.0
633,0.0
659,0.0
661,200.0
690,0.0
716,70.82169369412694
843,-1563.7896522783758
844,-1563.7896522783758
907,0.0
908,0.0
971,0.0
972,0.0
1195,0.0
1197,0.0
2,3, 1, 3, 0,17, 0.00,60.00,Wednesday
7,3.9
718,20.57999486138352
719,9.856062077868279
720,14.284554467677745
619,0.0
633,0.0
659,0.0
661,200.0
690,0.0
716,0.0
843,-772.0645943176423
844,-772.0645943176423
907,0.0
908,0.0
971,0.0
972,0.0
1195,0.0
1197,0.0
2,3, 1, 3, 0,18, 0.00,60.00,Wednesday
7,1.1
718,20.107697777472854
719,6.402781982189441
720,14.32924918929598
619,0.0
633,0.0
659,0.0
661,200.0
690,0.0
716,0.0
843,-268.4706179041823
844,-268.4706179041823
907,0.0
908,0.0
971,0.0
972,0.0
1195,0.0
1197,0.0
2,3, 1, 3, 0,19, 0.00,60.00,Wednesday
7,2.2
718,20.071699654235356
719,3.908135052095725
720,14.348359203687059
619,0.0
633,0.0
659,0.0
661,200.0
690,0.0
716,0.0
843,-272.7606166576388
844,-272.7606166576388
907,0.0
908,0.0
971,0.0
972,0.0
1195,0.0
1197,0.0
2,3, 1, 3, 0,20, 0.00,60.00,Wednesday
7,2.2
718,18.74600334718899
719,2.785527219573693
720,14.34484253816956
619,0.0
633,0.0
659,0.0
661,200.0
690,0.0
716,85.44000000000004
843,-108.29521712063797
844,-108.29521712063797
907,0.0
908,0.0
971,0.0
972,0.0
1195,0.0
1197,0.0
2,3, 1, 3, 0,21, 0.00,60.00,Wednesday
7,-0.6
718,19.256002661218616
719,2.625741440310185
720,14.401654094088155
619,2368.5855178976767
633,744.01896756055
659,36.75284677329225
661,67.20337684482647
690,81.24443413260758
716,78.26779746614814
843,600.1142927733727
844,600.1142927733727
907,0.0
908,0.0
971,0.0
972,0.0
1195,0.0
1197,0.0
2,3, 1, 3, 0,22, 0.00,60.00,Wednesday
7,0.0
718,19.74081516077359
719,1.135339812935954
720,14.334423345575615
619,1378.1655721204486
633,446.9288372067857
659,17.278671420073884
661,122.48981048490826
690,47.5190088856629
716,0.0
843,903.2687270665774
844,903.2687270665774
907,0.0
908,0.0
971,0.0
972,0.0
1195,0.0
1197,0.0
2,3, 1, 3, 0,23, 0.00,60.00,Wednesday
7,0.0
718,18.78003454630054
719,0.3342682755392692
720,14.26048681476374
619,528.9847055355137
633,178.28266740217208
659,6.827246678059031
661,169.3737341826034
690,18.775733880658972
716,0.0
843,326.9155709566403
844,326.9155709566403
907,0.0
908,0.0
971,0.0
972,0.0
1195,0.0
1197,0.0
2,3, 1, 3, 0,24, 0.00,60.00,Wednesday
7,0.6
718,18.658940825919483
719,0.15707201063273735
720,14.218302604109262
619,1117.9474846785038
633,356.94291568547555
659,8.23130763871578
661,139.1561613751148
690,37.396211296389495
716,0.0
843,731.8668127894525
844,731.8668127894525
907,0.0
908,0.0
971,0.0
972,0.0
1195,0.0
1197,0.0
2,4, 1, 4, 0, 1, 0.00,60.00,Thursday
7,0.0
718,18.514973369292044
719,0.7989571727698354
720,14.170618746486513
619,1848.5399595531649
633,581.8027592126327
659,15.108124096407455
661,99.6740477984977
690,61.620186676019735
716,0.0
843,1200.4726472369548
844,1200.4726472369548
907,0.0
908,0.0
971,0.0
972,0.0
1195,0.0
1197,0.0
2,4, 1, 4, 0, 2, 0.00,60.00,Thursday
7,-0.6
718,18.502375558477414
719,1.3803948548302487
720,14.118371781542681
619,2660.87763140529
633,823.034182082476
659,26.000956923842214
661,55.85968196139246
690,88.42642853914042
716,0.0
843,1736.4180905783396
844,1736.4180905783396
907,0.0
908,0.0
971,0.0
972,0.0
1195,0.0
1197,0.0
2,4, 1, 4, 0, 3, 0.00,60.00,Thursday
7,0.0
718,18.608442184605053
719,1.6469324279616369
720,14.06002866260862
619,2934.3901296258255
633,891.0795357082526
659,40.032721812202894
661,41.90838168586091
690,96.84696527547253
716,0.0
843,1927.9931598277926
844,1927.9931598277926
907,0.0
908,0.0
971,0.0
972,0.0
1195,0.0
1197,0.0
2,4, 1, 4, 0, 4, 0.00,60.00,Thursday
7,-1.0
718,18.554491880906184
719,1.7171494919985113
720,14.012025597500536
619,3469.202627483424
633,1057.016894268159
659,67.86641113344943
661,6.504418848710136
690,118.05088612794793
716,0.0
843,2251.381572861932
844,2251.381572861932
907,0.0
908,0.0
971,0.0
972,0.0
1195,0.0
1197,0.0
2,4, 1, 4, 0, 5, 0.00,60.00,Thursday
7,-1.1
718,18.591703509735126
719,1.9295806048538893
720,13.943933033859942
619,3578.3153741394785
633,1086.9493170195294
659,64.69962856659379
661,1.845025248223786
690,120.96960809243504
716,0.0
843,2323.876407245043
844,2323.876407245043
907,0.0
908,0.0
971,0.0
972,0.0
1195,0.0
1197,0.0
2,4, 1, 4, 0, 6, 0.00,60.00,Thursday
7,0.0
718,19.3954929139637
719,2.0248801579170053
720,13.891184669629235
619,3707.5967754151684
633,1092.5148945856408
659,76.65471328443655
661,0.0
690,123.28534727332661
716,0.0
843,3131.083746970211
844,3131.083746970211
907,0.0
908,0.0
971,0.0
972,0.0
1195,847.6669702079753
1197,847.6669702079753
2,4, 1, 4, 0, 7, 0.00,60.00,Thursday
7,-1.1
718,19.573072359403916
719,2.226765986072059
720,13.861005800418837
619,3572.5421175945526
633,1095.5802763044699
659,79.12164025693926
661,0.0
690,123.28534727332661
716,85.44000000000004
843,3034.1320219143636
844,3034.1320219143636
907,0.0
908,0.0
971,0.0
972,0.0
1195,2307.7481017739383
1197,2307.7481017739383
2,4, 1, 4, 0, 8, 0.00,60.00,Thursday
7,-1.1
718,19.658738015177352
719,2.4669051484988183
720,13.805037611635008
619,3665.2416536743494
633,1128.8407481215602
659,58.185553248221304
661,0.0
690,123.28534727332661
716,85.44000000000004
843,2928.551254415952
844,2928.551254415952
907,0.0
908,0.0
971,0.0
972,0.0
1195,2100.3472995127195
1197,2100.3472995127195
2,4, 1, 4, 0, 9, 0.00,60.00,Thursday
7,0.0
718,19.69328557280626
719,3.169808599209917
720,13.762353654503212
619,3811.3321811056576
633,1152.3027960795648
659,50.616853024627176
661,0.0
690,123.28534727332661
716,53.38365891001991
843,2624.009198692602
844,2624.009198692602
907,0.0
908,0.0
971,0.0
972,0.0
1195,982.307709268483
1197,982.307709268483
2,4, 1, 4, 0,10, 0.00,60.00,Thursday
7,0.6
718,19.71583285912136
719,4.023660211255521
720,13.712773161944698
619,3823.2471321464473
633,1144.1920015468522
659,61.03029399244116
661,0.0
690,123.28534727332661
716,0.0
843,2525.405227065099
844,2525.405227065099
907,0.0
908,0.0
971,0.0
972,0.0
1195,32.351865331912904
1197,32.351865331912904
2,4, 1, 4, 0,11, 0.00,60.00,Thursday
7,0.6
718,19.73090453057249
719,5.4144591076207735
720,13.65311701224248
619,3577.193867711006
633,1085.421964184297
659,57.87147631873738
661,10.35163839812081
690,116.10105292071835
716,0.0
843,2367.769017735636
844,2367.769017735636
907,0.0
908,0.0
971,0.0
972,0.0
1195,0.0
1197,0.0
2,4, 1, 4, 0,12, 0.00,60.00,Thursday
7,1.0
718,19.750263558413472
719,7.292036998219806
720,13.584472909605324
619,2951.7466582604384
633,906.4254455358753
659,68.20472593196514
661,37.569829725997494
690,99.22214408032032
716,0.0
843,1991.3954962674688
844,1991.3954962674688
907,0.0
908,0.0
971,0.0
972,0.0
1195,0.0
1197,0.0
2,4, 1, 4, 0,13, 0.00,60.00,Thursday
7,2.2
718,19.761605849578977
719,8.655169294318059
720,13.507726009151872
619,2178.535479351988
633,671.2303777107895
659,36.794318022463465
661,84.13245949144313
690,71.05089785093654
716,0.0
843,1531.2553182290667
844,1531.2553182290667
907,0.0
908,0.0
971,0.0
972,0.0
1195,0.0
1197,0.0
2,4, 1, 4, 0,14, 0.00,60.00,Thursday
7,2.8
718,19.720472498105217
719,8.792098031512175
720,13.458921946492296
619,1664.400494055004
633,515.4639800452674
659,22.5287194674904
661,112.83014136743449
690,53.53849389027053
716,0.0
843,1200.6112688792255
844,1200.6112688792255
907,0.0
908,0.0
971,0.0
972,0.0
1195,0.0
1197,0.0
2,4, 1, 4, 0,15, 0.00,60.00,Thursday
7,2.8
718,19.848593991481028
719,9.707715726352994
720,13.42913810487159
619,1273.2925007914819
633,398.5358971979174
659,20.064815671997888
661,131.93959673635334
690,41.77882464184239
716,0.0
843,921.879016333969
844,921.879016333969
907,0.0
908,0.0
971,0.0
972,0.0
1195,0.0
1197,0.0
2,4, 1, 4, 0,16, 0.00,60.00,Thursday
7,2.8
718,19.703519699391776
719,8.75411798349122
720,13.41637109168878
619,979.3649870654841
633,310.07290308103694
659,13.528658846723236
661,147.6538699476984
690,32.15020386520751
716,0.0
843,717.360984182933
844,717.360984182933
907,0.0
908,0.0
971,0.0
972,0.0
1195,0.0
1197,0.0