Program Version,EnergyPlus, Version 22.2.0-c249759bad, YMD=2023.09.01 18:11
1,5,Environment Title[],Latitude[deg],Longitude[deg],Time Zone[],Elevation[m]
2,8,Day of Simulation[],Month[],Day of Month[],DST Indicator[1=yes 0=no],Hour[],StartMinute[],EndMinute[],DayType
3,5,Cumulative Day of Simulation[],Month[],Day of Month[],DST Indicator[1=yes 0=no],DayType  ! When Daily Report Variables Requested
4,2,Cumulative Days of Simulation[],Month[]  ! When Monthly Report Variables Requested
5,1,Cumulative Days of Simulation[] ! When Run Period Report Variables Requested
6,1,Calendar Year of Simulation[] ! When Annual Report Variables Requested
581,11,LIVING,AFN Zone Infiltration Air Change Rate [ach] !RunPeriod [Value,Min,Month,Day,Hour,Minute,Max,Month,Day,Hour,Minute]
582,11,ATTIC,AFN Zone Infiltration Air Change Rate [ach] !RunPeriod [Value,Min,Month,Day,Hour,Minute,Max,Month,Day,Hour,Minute]
583,11,CRAWLSPACE,AFN Zone Infiltration Air Change Rate [ach] !RunPeriod [Value,Min,Month,Day,Hour,Minute,Max,Month,Day,Hour,Minute]
1038,11,Facility,Facility Heating Setpoint Not Met Time [hr] !RunPeriod [Value,Min,Month,Day,Hour,Minute,Max,Month,Day,Hour,Minute]
1039,11,Facility,Facility Cooling Setpoint Not Met Time [hr] !RunPeriod [Value,Min,Month,Day,Hour,Minute,Max,Month,Day,Hour,Minute]
1115,11,DX_HEATING_COIL,Heating Coil Heating Energy [J] !RunPeriod [Value,Min,Month,Day,Hour,Minute,Max,Month,Day,Hour,Minute]
1128,11,DX_HEATING_COIL,Heating Coil Electricity Energy [J] !RunPeriod [Value,Min,Month,Day,Hour,Minute,Max,Month,Day,Hour,Minute]
1153,11,DX_HEATING_COIL,Heating Coil Defrost Electricity Energy [J] !RunPeriod [Value,Min,Month,Day,Hour,Minute,Max,Month,Day,Hour,Minute]
1154,11,DX_HEATING_COIL,Heating Coil Crankcase Heater Electricity Energy [J] !RunPeriod [Value,Min,Month,Day,Hour,Minute,Max,Month,Day,Hour,Minute]
1155,11,HEATING_RESISTANCE_BACKUP,Heating Coil Heating Energy [J] !RunPeriod [Value,Min,Month,Day,Hour,Minute,Max,Month,Day,Hour,Minute]
1156,11,HEATING_RESISTANCE_BACKUP,Heating Coil Electricity Energy [J] !RunPeriod [Value,Min,Month,Day,Hour,Minute,Max,Month,Day,Hour,Minute]
1292,11,WATER HEATER,Water Heater Heat Loss Energy [J] !RunPeriod [Value,Min,Month,Day,Hour,Minute,Max,Month,Day,Hour,Minute]
1306,11,WATER HEATER,Water Heater Heating Energy [J] !RunPeriod [Value,Min,Month,Day,Hour,Minute,Max,Month,Day,Hour,Minute]
1307,11,WATER HEATER,Water Heater Unmet Demand Heat Transfer Energy [J] !RunPeriod [Value,Min,Month,Day,Hour,Minute,Max,Month,Day,Hour,Minute]
1308,11,WATER HEATER,Water Heater Electricity Energy [J] !RunPeriod [Value,Min,Month,Day,Hour,Minute,Max,Month,Day,Hour,Minute]
13,11,Electricity:Facility [J] !RunPeriod [Value,Min,Month,Day,Hour,Minute,Max,Month,Day,Hour,Minute]
1134,11,Heating:Electricity [J] !RunPeriod [Value,Min,Month,Day,Hour,Minute,Max,Month,Day,Hour,Minute]
1096,11,Cooling:Electricity [J] !RunPeriod [Value,Min,Month,Day,Hour,Minute,Max,Month,Day,Hour,Minute]
562,11,Fans:Electricity [J] !RunPeriod [Value,Min,Month,Day,Hour,Minute,Max,Month,Day,Hour,Minute]
1379,11,Pumps:Electricity [J] !RunPeriod [Value,Min,Month,Day,Hour,Minute,Max,Month,Day,Hour,Minute]
1326,11,WaterSystems:Electricity [J] !RunPeriod [Value,Min,Month,Day,Hour,Minute,Max,Month,Day,Hour,Minute]
61,11,InteriorLights:Electricity [J] !RunPeriod [Value,Min,Month,Day,Hour,Minute,Max,Month,Day,Hour,Minute]
1046,11,ExteriorLights:Electricity [J] !RunPeriod [Value,Min,Month,Day,Hour,Minute,Max,Month,Day,Hour,Minute]
134,11,InteriorEquipment:Electricity [J] !RunPeriod [Value,Min,Month,Day,Hour,Minute,Max,Month,Day,Hour,Minute]
170,11,gas_dryer:InteriorEquipment:Electricity [J] !RunPeriod [Value,Min,Month,Day,Hour,Minute,Max,Month,Day,Hour,Minute]
207,11,clotheswasher:InteriorEquipment:Electricity [J] !RunPeriod [Value,Min,Month,Day,Hour,Minute,Max,Month,Day,Hour,Minute]
244,11,dishwasher:InteriorEquipment:Electricity [J] !RunPeriod [Value,Min,Month,Day,Hour,Minute,Max,Month,Day,Hour,Minute]
281,11,refrigerator:InteriorEquipment:Electricity [J] !RunPeriod [Value,Min,Month,Day,Hour,Minute,Max,Month,Day,Hour,Minute]
318,11,electric_mels:InteriorEquipment:Electricity [J] !RunPeriod [Value,Min,Month,Day,Hour,Minute,Max,Month,Day,Hour,Minute]
355,11,NaturalGas:Facility [J] !RunPeriod [Value,Min,Month,Day,Hour,Minute,Max,Month,Day,Hour,Minute]
403,11,InteriorEquipment:NaturalGas [J] !RunPeriod [Value,Min,Month,Day,Hour,Minute,Max,Month,Day,Hour,Minute]
476,11,gas_dryer:InteriorEquipment:NaturalGas [J] !RunPeriod [Value,Min,Month,Day,Hour,Minute,Max,Month,Day,Hour,Minute]
513,11,gas_mels:InteriorEquipment:NaturalGas [J] !RunPeriod [Value,Min,Month,Day,Hour,Minute,Max,Month,Day,Hour,Minute]
End of Data Dictionary
1,EXTREME_WINTER,  42.93, -71.43,  -5.00,  81.00
5,7
1038,1.0,0.0, 1,20, 1,15,0.25, 1,21, 6,15
1039,0.0,0.0, 1,20, 1,15,0.0, 1,20, 1,15
581,0.36483433826800954,0.22503669018238837, 1,23,23,22,0.7173674042698661, 1,20,15,60
582,3.707412099531593,0.0, 1,26, 8,45,14.66850674230828, 1,20,15,60
583,0.05072341063874116,0.0004700828394900628, 1,21,23, 3,0.07595249811770965, 1,20,13,52
1115,1680069297.119775,0.0, 1,20,23, 5,3979224.13797531, 1,23, 6,30
1128,582525966.5238198,0.0, 1,20,23, 5,1241727.6924549758, 1,23, 6,30
1153,3467624.0970280897,0.0, 1,20,23, 5,51509.52727436415, 1,23, 2,60
1154,31503102.967187777,0.0, 1,20, 1, 7,180000.0, 1,23,13,30
1155,536484238.07754564,0.0, 1,20, 1,50,4233468.90465947, 1,22, 6,60
1156,536484238.07754564,0.0, 1,20, 1,50,4233468.90465947, 1,22, 6,60
1292,-25372278.65940525,-39746.37216034734, 1,24, 5,30,-5402.313818698631, 1,26,11,60
1306,237062980.42333007,0.0, 1,20, 1, 7,4050000.0, 1,20, 7,60
1307,43670253.05190064,0.0, 1,20, 1, 7,12526115.819399716, 1,26,19,60
1308,237062980.42333007,0.0, 1,20, 1, 7,4050000.0, 1,20, 7,60
13,1826597252.1613936,452017.0388981225, 1,23,15,15,9440914.210686138, 1,22, 8,15
61,301924526.02383536,88139.10953165221, 1,20, 1,15,1282023.4113694867, 1,20,20,15
134,70666020.44019976,63564.01800854099, 1,20, 4,15,156554.22484006523, 1,25,20,15
170,5241013.419656067,348.4159749238097, 1,20, 4,15,17476.39704006126, 1,25,12,15
207,6509451.13922267,815.2532113832032, 1,20, 3,15,22990.642799023623, 1,25,10,15
244,12749673.399825225,1521.856143006317, 1,20, 4,15,53038.631142310165, 1,25,20,15
281,46165882.481495745,59938.60262432081, 1,20, 5,15,81951.81706819107, 1,20,19,15
318,0.0,0.0, 1,20, 1,15,0.0, 1,20, 1,15
355,197687796.27748066,18561.32405820678, 1,20, 4,15,724774.895203776, 1,25,18,15
403,197687796.27748066,18561.32405820678, 1,20, 4,15,724774.895203776, 1,25,18,15
476,106772067.24485716,7098.072629279515, 1,20, 4,15,356036.3026282215, 1,25,12,15
513,0.0,0.0, 1,20, 1,15,0.0, 1,20, 1,15
562,62962793.6084464,0.0, 1,23,13,30,126767.25308831256, 1,20, 1,45
1046,0.0,0.0, 1,20, 1,15,0.0, 1,20, 1,15
1096,0.0,0.0, 1,20, 1,15,0.0, 1,20, 1,15
1134,1153980931.6655815,180000.0, 1,23,13,30,5801036.670931065, 1,22, 6,15
1326,237062980.42332998,0.0, 1,20, 1,15,4050000.0, 1,20, 7,60
1379,0.0,0.0, 1,20, 1,15,0.0, 1,20, 1,15
1,EXTREME_SUMMER,  42.93, -71.43,  -5.00,  81.00
5,7
1038,0.0,0.0, 7,27, 1,15,0.0, 7,27, 1,15
1039,27.0,0.0, 7,27, 1,15,0.25, 7,28,14,15
581,0.11526884083435059,0.00257658726951589, 7,29, 4,60,0.46059299076142163, 7,30,13,52
582,2.342668143707808,0.0, 7,27, 5,60,9.310686677652283, 7,31,15,48
583,0.03417174497863029,0.00013413645388470026, 7,27, 6,11,0.06749252329482386, 7,30,13,52
1115,0.0,0.0, 7,27, 1,15,0.0, 7,27, 1,15
1128,0.0,0.0, 7,27, 1,15,0.0, 7,27, 1,15
1153,0.0,0.0, 7,27, 1,15,0.0, 7,27, 1,15
1154,0.0,0.0, 7,27, 1,15,0.0, 7,27, 1,15
1155,0.0,0.0, 7,27, 1,15,0.0, 7,27, 1,15
1156,0.0,0.0, 7,27, 1,15,0.0, 7,27, 1,15
1292,-21968294.798386335,-34256.50539530433, 8, 2,14,15,-3259.9570248130512, 8, 1, 8,45
1306,180955255.90227586,0.0, 7,27, 1,15,2472395.437466527, 7,31,16,30
1307,19934337.64880812,0.0, 7,27, 1,15,2930622.678622157, 8, 2,19,55
1308,180955255.90227586,0.0, 7,27, 1,15,2472395.437466527, 7,31,16,30
13,1023056171.0050751,151703.1275401932, 7,27, 4,60,6765202.497766207, 7,28,20,30
61,301924526.02383536,88139.10953165221, 7,27, 1,15,1282023.4113694867, 7,27,20,15
134,70666020.44019976,63564.01800854099, 7,27, 4,15,156554.22484006523, 8, 1,20,15
170,5241013.419656067,348.4159749238097, 7,27, 4,15,17476.39704006126, 8, 1,12,15
207,6509451.13922267,815.2532113832032, 7,27, 3,15,22990.642799023623, 8, 1,10,15
244,12749673.399825225,1521.856143006317, 7,27, 4,15,53038.631142310165, 8, 1,20,15
281,46165882.481495745,59938.60262432081, 7,27, 5,15,81951.81706819107, 7,27,19,15
318,0.0,0.0, 7,27, 1,15,0.0, 7,27, 1,15
355,197687796.27748066,18561.32405820678, 7,27, 4,15,724774.895203776, 8, 1,18,15
403,197687796.27748066,18561.32405820678, 7,27, 4,15,724774.895203776, 8, 1,18,15
476,106772067.24485716,7098.072629279515, 7,27, 4,15,356036.3026282215, 8, 1,12,15
513,0.0,0.0, 7,27, 1,15,0.0, 7,27, 1,15
562,46718590.703020565,0.0, 7,27, 4,60,126767.25308831256, 7,28,16,60
1046,0.0,0.0, 7,27, 1,15,0.0, 7,27, 1,15
1096,422791777.93574244,0.0, 7,27, 4,60,1345555.8582908683, 7,29,17,60
1134,0.0,0.0, 7,27, 1,15,0.0, 7,27, 1,15
1326,180955255.90227595,0.0, 7,27, 1,15,4050000.0, 7,28,20,30
1379,0.0,0.0, 7,27, 1,15,0.0, 7,27, 1,15
1,ANNUAL,  42.93, -71.43,  -5.00,  81.00
5,365
1038,47.75,0.0, 1, 1, 1,15,0.25, 1, 3, 2,45
1039,232.5,0.0, 1, 1, 1,15,0.25, 4,30,11,30
581,0.23564379085865844,0.0, 6,18,23, 3,0.9038365568319764, 3,23,19,60
582,2.988612523007405,0.0, 1, 1, 4,30,17.965024800161196,11,12,15,50
583,0.02588699741784995,0.0, 6,26,23, 5,0.07974387041555692, 3,23,19,52
1115,27382393214.61986,0.0, 1, 1,23, 3,4232038.549739113, 4,13, 6,45
1128,8764623331.689224,0.0, 1, 1,23, 3,1265977.3697689353, 4,13, 6,45
1153,246676618.0815538,0.0, 1, 1,23, 3,116195.38660646214, 3,11, 8,45
1154,1682185494.5682788,0.0, 1, 1, 1,52,180000.0, 1, 8,21,30
1155,5643372925.829049,0.0, 1, 1, 1,15,4684618.768820315, 1, 3, 2,15
1156,5643372925.829049,0.0, 1, 1, 1,15,4684618.768820315, 1, 3, 2,15
1292,-1235275955.528209,-41178.54635897825, 1, 4, 6,15,-2801.16450201937, 6, 5,17,60
1306,10989849512.610147,0.0, 1, 1, 1,15,4050000.0, 1, 1,20,15
1307,1647214057.2963421,0.0, 1, 1, 1,15,12623202.2121173, 2,12,19,60
1308,10989849512.610147,0.0, 1, 1, 1,15,4050000.0, 1, 1,20,15
13,54987339307.10012,151703.1275401932, 4,25, 4,15,10663830.63699811, 2, 6, 7,60
61,15743207428.383959,88139.10953165221, 1, 1, 1,15,1282023.4113694867, 1, 1,20,15
134,3685071073.4325233,63564.01800854099, 1, 2, 4,15,156554.22484006523, 1, 1,20,15
170,273393721.45532674,348.4159749238097, 1, 2, 4,15,17476.39704006126, 1, 1,12,15
207,339560869.0695816,815.2532113832032, 1, 2, 3,15,22990.642799023623, 1, 1,10,15
244,664895467.8009144,1521.856143006317, 1, 2, 4,15,53038.631142310165, 1, 1,20,15
281,2407221015.106824,59938.60262432081, 1, 1, 5,15,81951.81706819107, 1, 1,19,15
318,0.0,0.0, 1, 1, 1,15,0.0, 1, 1, 1,15
355,10310294493.051695,18561.32405820678, 1, 2, 4,15,724774.895203776, 1, 1,18,15
403,10310294493.051695,18561.32405820678, 1, 2, 4,15,724774.895203776, 1, 1,18,15
476,5569688622.066177,7098.072629279515, 1, 2, 4,15,356036.3026282215, 1, 1,12,15
513,0.0,0.0, 1, 1, 1,15,0.0, 1, 1, 1,15
562,1709751539.3953483,0.0, 1, 7,23,15,126767.25308831257, 2, 2,11,30
1046,0.0,0.0, 1, 1, 1,15,0.0, 1, 1, 1,15
1096,6522601383.108346,0.0, 1, 1, 1,15,1364926.1902044439, 8,31,16,60
1134,16336858370.168043,0.0, 1, 8,12,60,5816525.392837007, 3, 3, 6,45
1326,10989849512.61016,0.0, 1, 1, 1,15,4050000.0, 1, 1, 9,60
1379,0.0,0.0, 1, 1, 1,15,0.0, 1, 1, 1,15
End of Data
 Number of Records Written=          99
