Program Version,EnergyPlus, Version 22.2.0-c249759bad, YMD=2023.09.01 18:49
1,5,Environment Title[],Latitude[deg],Longitude[deg],Time Zone[],Elevation[m]
2,8,Day of Simulation[],Month[],Day of Month[],DST Indicator[1=yes 0=no],Hour[],StartMinute[],EndMinute[],DayType
3,5,Cumulative Day of Simulation[],Month[],Day of Month[],DST Indicator[1=yes 0=no],DayType  ! When Daily Report Variables Requested
4,2,Cumulative Days of Simulation[],Month[]  ! When Monthly Report Variables Requested
5,1,Cumulative Days of Simulation[] ! When Run Period Report Variables Requested
6,1,Calendar Year of Simulation[] ! When Annual Report Variables Requested
618,11,DX_HEATING_COIL,Heating Coil Heating Energy [J] !RunPeriod [Value,Min,Month,Day,Hour,Minute,Max,Month,Day,Hour,Minute]
631,11,DX_HEATING_COIL,Heating Coil Electricity Energy [J] !RunPeriod [Value,Min,Month,Day,Hour,Minute,Max,Month,Day,Hour,Minute]
656,11,DX_HEATING_COIL,Heating Coil Defrost Electricity Energy [J] !RunPeriod [Value,Min,Month,Day,Hour,Minute,Max,Month,Day,Hour,Minute]
657,11,DX_HEATING_COIL,Heating Coil Crankcase Heater Electricity Energy [J] !RunPeriod [Value,Min,Month,Day,Hour,Minute,Max,Month,Day,Hour,Minute]
684,11,HEAT PUMP WATER HEATER EVAPORATOR,Cooling Coil Total Water Heating Energy [J] !RunPeriod [Value,Min,Month,Day,Hour,Minute,Max,Month,Day,Hour,Minute]
685,11,HEAT PUMP WATER HEATER EVAPORATOR,Cooling Coil Water Heating Electricity Energy [J] !RunPeriod [Value,Min,Month,Day,Hour,Minute,Max,Month,Day,Hour,Minute]
712,11,LIVING,AFN Zone Infiltration Air Change Rate [ach] !RunPeriod [Value,Min,Month,Day,Hour,Minute,Max,Month,Day,Hour,Minute]
713,11,ATTIC,AFN Zone Infiltration Air Change Rate [ach] !RunPeriod [Value,Min,Month,Day,Hour,Minute,Max,Month,Day,Hour,Minute]
714,11,CRAWLSPACE,AFN Zone Infiltration Air Change Rate [ach] !RunPeriod [Value,Min,Month,Day,Hour,Minute,Max,Month,Day,Hour,Minute]
1157,11,Facility,Facility Heating Setpoint Not Met Time [hr] !RunPeriod [Value,Min,Month,Day,Hour,Minute,Max,Month,Day,Hour,Minute]
1158,11,Facility,Facility Cooling Setpoint Not Met Time [hr] !RunPeriod [Value,Min,Month,Day,Hour,Minute,Max,Month,Day,Hour,Minute]
1184,11,HEATING_RESISTANCE_BACKUP,Heating Coil Heating Energy [J] !RunPeriod [Value,Min,Month,Day,Hour,Minute,Max,Month,Day,Hour,Minute]
1185,11,HEATING_RESISTANCE_BACKUP,Heating Coil Electricity Energy [J] !RunPeriod [Value,Min,Month,Day,Hour,Minute,Max,Month,Day,Hour,Minute]
1321,11,WATER HEATER TANK,Water Heater Heat Loss Energy [J] !RunPeriod [Value,Min,Month,Day,Hour,Minute,Max,Month,Day,Hour,Minute]
1335,11,WATER HEATER TANK,Water Heater Heating Energy [J] !RunPeriod [Value,Min,Month,Day,Hour,Minute,Max,Month,Day,Hour,Minute]
1336,11,WATER HEATER TANK,Water Heater Unmet Demand Heat Transfer Energy [J] !RunPeriod [Value,Min,Month,Day,Hour,Minute,Max,Month,Day,Hour,Minute]
1337,11,WATER HEATER TANK,Water Heater Electricity Energy [J] !RunPeriod [Value,Min,Month,Day,Hour,Minute,Max,Month,Day,Hour,Minute]
13,11,Electricity:Facility [J] !RunPeriod [Value,Min,Month,Day,Hour,Minute,Max,Month,Day,Hour,Minute]
637,11,Heating:Electricity [J] !RunPeriod [Value,Min,Month,Day,Hour,Minute,Max,Month,Day,Hour,Minute]
599,11,Cooling:Electricity [J] !RunPeriod [Value,Min,Month,Day,Hour,Minute,Max,Month,Day,Hour,Minute]
692,11,Fans:Electricity [J] !RunPeriod [Value,Min,Month,Day,Hour,Minute,Max,Month,Day,Hour,Minute]
1374,11,Pumps:Electricity [J] !RunPeriod [Value,Min,Month,Day,Hour,Minute,Max,Month,Day,Hour,Minute]
677,11,WaterSystems:Electricity [J] !RunPeriod [Value,Min,Month,Day,Hour,Minute,Max,Month,Day,Hour,Minute]
61,11,InteriorLights:Electricity [J] !RunPeriod [Value,Min,Month,Day,Hour,Minute,Max,Month,Day,Hour,Minute]
1165,11,ExteriorLights:Electricity [J] !RunPeriod [Value,Min,Month,Day,Hour,Minute,Max,Month,Day,Hour,Minute]
134,11,InteriorEquipment:Electricity [J] !RunPeriod [Value,Min,Month,Day,Hour,Minute,Max,Month,Day,Hour,Minute]
170,11,gas_dryer:InteriorEquipment:Electricity [J] !RunPeriod [Value,Min,Month,Day,Hour,Minute,Max,Month,Day,Hour,Minute]
207,11,clotheswasher:InteriorEquipment:Electricity [J] !RunPeriod [Value,Min,Month,Day,Hour,Minute,Max,Month,Day,Hour,Minute]
244,11,dishwasher:InteriorEquipment:Electricity [J] !RunPeriod [Value,Min,Month,Day,Hour,Minute,Max,Month,Day,Hour,Minute]
281,11,refrigerator:InteriorEquipment:Electricity [J] !RunPeriod [Value,Min,Month,Day,Hour,Minute,Max,Month,Day,Hour,Minute]
318,11,electric_mels:InteriorEquipment:Electricity [J] !RunPeriod [Value,Min,Month,Day,Hour,Minute,Max,Month,Day,Hour,Minute]
355,11,NaturalGas:Facility [J] !RunPeriod [Value,Min,Month,Day,Hour,Minute,Max,Month,Day,Hour,Minute]
403,11,InteriorEquipment:NaturalGas [J] !RunPeriod [Value,Min,Month,Day,Hour,Minute,Max,Month,Day,Hour,Minute]
476,11,gas_dryer:InteriorEquipment:NaturalGas [J] !RunPeriod [Value,Min,Month,Day,Hour,Minute,Max,Month,Day,Hour,Minute]
513,11,gas_mels:InteriorEquipment:NaturalGas [J] !RunPeriod [Value,Min,Month,Day,Hour,Minute,Max,Month,Day,Hour,Minute]
End of Data Dictionary
1,EXTREME_WINTER,  33.43,-112.02,  -7.00, 337.40
5,7
1157,0.0,0.0,12,15, 1,15,0.0,12,15, 1,15
1158,0.0,0.0,12,15, 1,15,0.0,12,15, 1,15
618,80741524.66997333,0.0,12,15, 1,15,1882590.9717313333,12,17, 6, 3
631,21883599.917339195,0.0,12,15, 1,15,474498.50288500346,12,21, 8,45
656,20.930942570352773,0.0,12,15, 1,15,20.930942570352773,12,21, 8,60
657,34548838.4780079,0.0,12,15, 1,15,180000.0,12,17, 1,60
684,210798076.23385254,0.0,12,15, 1,15,1376978.7846825114,12,17, 8,60
685,60594381.84384932,0.0,12,15, 1,15,391372.2975474699,12,17,14,45
712,0.20385623072423723,0.10479828852854009,12,16,14,32,0.5634994293999538,12,20, 3,52
713,3.5011112223627276,0.0,12,16,21,52,21.46022951028927,12,20, 3,52
714,0.007763319679415398,0.0001688766004079061,12,16,14,52,0.08879924527982189,12,17, 6, 3
1184,0.0,0.0,12,15, 1,15,0.0,12,15, 1,15
1185,0.0,0.0,12,15, 1,15,0.0,12,15, 1,15
1321,-136898457.59528258,-253580.41184084397,12,21, 5,45,-19687.685713583167,12,20,13,59
1335,0.0,0.0,12,15, 1,15,0.0,12,15, 1,15
1336,134823532.10732853,11873.208396868558,12,18,17,46,1156241.8231222124,12,16, 7, 7
1337,0.0,0.0,12,15, 1,15,0.0,12,15, 1,15
13,546750865.5127659,159353.1275401932,12,15, 4,15,1874335.7932526835,12,18,21,45
61,301924526.02383536,88139.10953165221,12,15, 1,15,1282023.4113694867,12,15,20,15
134,70666020.44019976,63564.01800854099,12,15, 4,15,156554.22484006523,12,20,20,15
170,5241013.419656067,348.4159749238097,12,15, 4,15,17476.39704006126,12,20,12,15
207,6509451.13922267,815.2532113832032,12,15, 3,15,22990.642799023623,12,20,10,15
244,12749673.399825225,1521.856143006317,12,15, 4,15,53038.631142310165,12,20,20,15
281,46165882.481495745,59938.60262432081,12,15, 5,15,81951.81706819107,12,15,19,15
318,0.0,0.0,12,15, 1,15,0.0,12,15, 1,15
355,197687796.27748066,18561.32405820678,12,15, 4,15,724774.895203776,12,20,18,15
403,197687796.27748066,18561.32405820678,12,15, 4,15,724774.895203776,12,20,18,15
476,106772067.24485716,7098.072629279515,12,15, 4,15,356036.3026282215,12,20,12,15
513,0.0,0.0,12,15, 1,15,0.0,12,15, 1,15
599,40072342.26574988,0.0,12,15, 1,15,492426.23293661885,12,18,16,45
637,56432459.326289654,0.0,12,15, 1,15,746088.2137165145,12,17, 6,15
677,65735181.84384935,7650.0,12,15, 1,15,403130.6183085878,12,15, 4,60
692,11920335.612841032,0.0,12,15, 1,15,80899.87266180528,12,17, 6,15
1165,0.0,0.0,12,15, 1,15,0.0,12,15, 1,15
1374,0.0,0.0,12,15, 1,15,0.0,12,15, 1,15
1,EXTREME_SUMMER,  33.43,-112.02,  -7.00, 337.40
5,7
1157,0.0,0.0, 7,13, 1,15,0.0, 7,13, 1,15
1158,68.75,0.0, 7,13, 1,15,0.25, 7,13,14,45
618,0.0,0.0, 7,13, 1,15,0.0, 7,13, 1,15
631,0.0,0.0, 7,13, 1,15,0.0, 7,13, 1,15
656,0.0,0.0, 7,13, 1,15,0.0, 7,13, 1,15
657,0.0,0.0, 7,13, 1,15,0.0, 7,13, 1,15
684,165631295.50625134,0.0, 7,13, 1,15,1467148.7089747405, 7,19,15,15
685,46434989.30142351,0.0, 7,13, 1,15,404390.3340542535, 7,18, 4,45
712,0.11049258152426177,0.0, 7,13, 6,11,0.6292068386689802, 7,16,19,48
713,4.143537662719654,0.347975593096997, 7,14,19,60,14.929464870176178, 7,16,19,48
714,0.07197800105454229,0.001358226905217693, 7,13,23, 3,0.09988205085908626, 7,16,19,48
1184,0.0,0.0, 7,13, 1,15,0.0, 7,13, 1,15
1185,0.0,0.0, 7,13, 1,15,0.0, 7,13, 1,15
1321,-128270533.32093225,-214784.93397265347, 7,13,13,15,-19140.243441463997, 7,17,10,54
1335,0.0,0.0, 7,13, 1,15,0.0, 7,13, 1,15
1336,122899530.3393691,9507.376335691273, 7,14,10,48,588611.4248029176, 7,14, 7, 7
1337,0.0,0.0, 7,13, 1,15,0.0, 7,13, 1,15
13,1595693691.683736,771818.6581660808, 7,13, 4,45,4233317.332958796, 7,14,20,15
61,301924526.02383536,88139.10953165221, 7,13, 1,15,1282023.4113694867, 7,13,20,15
134,70666020.44019976,63564.01800854099, 7,13, 4,15,156554.22484006523, 7,18,20,15
170,5241013.419656067,348.4159749238097, 7,13, 4,15,17476.39704006126, 7,18,12,15
207,6509451.13922267,815.2532113832032, 7,13, 3,15,22990.642799023623, 7,18,10,15
244,12749673.399825225,1521.856143006317, 7,13, 4,15,53038.631142310165, 7,18,20,15
281,46165882.481495745,59938.60262432081, 7,13, 5,15,81951.81706819107, 7,13,19,15
318,0.0,0.0, 7,13, 1,15,0.0, 7,13, 1,15
355,197687796.27748066,18561.32405820678, 7,13, 4,15,724774.895203776, 7,18,18,15
403,197687796.27748066,18561.32405820678, 7,13, 4,15,724774.895203776, 7,18,18,15
476,106772067.24485716,7098.072629279515, 7,13, 4,15,356036.3026282215, 7,18,12,15
513,0.0,0.0, 7,13, 1,15,0.0, 7,13, 1,15
599,1077506710.2992806,238055.06182437023, 7,13, 4,60,2317390.271567776, 7,15,16,60
637,0.0,0.0, 7,13, 1,15,0.0, 7,13, 1,15
677,51575789.30142355,7650.0, 7,13, 1,15,416898.6586855898, 7,18,20,15
692,94020645.61899827,47848.55571393651, 7,13, 5,60,201591.6074876667, 7,16,19,15
1165,0.0,0.0, 7,13, 1,15,0.0, 7,13, 1,15
1374,0.0,0.0, 7,13, 1,15,0.0, 7,13, 1,15
1,ANNUAL,  33.43,-112.02,  -7.00, 337.40
5,365
1157,0.0,0.0, 1, 1, 1,15,0.0, 1, 1, 1,15
1158,1115.25,0.0, 1, 1, 1,15,0.25, 2,23,17,60
618,362801077.5010915,0.0, 1, 1, 1,15,1976960.1117434588,12,29, 6, 5
631,99727914.60839088,0.0, 1, 1, 1,15,550670.8053633656, 1,24, 7,45
656,628095.2363479482,0.0, 1, 1, 1,15,38651.84660463363,12,29, 6, 5
657,297934130.99024737,0.0, 1, 1, 1,15,180000.0, 1, 1, 2,60
684,9913228084.1454,0.0, 1, 1, 1,15,1572406.20820403, 7,16,16,15
685,2886697511.065536,0.0, 1, 1, 1,15,410361.72875571693, 7,30, 3,60
712,0.14901437735515555,0.0, 3,12,23, 3,1.1982067787442734, 1,21,19,60
713,3.529908499012956,0.0, 1, 1, 1,37,26.913646150096547, 2,14,20,48
714,0.041801794259676096,0.0, 4,19,23, 3,0.1153848435125411, 8,17,19,32
1184,0.0,0.0, 1, 1, 1,15,0.0, 1, 1, 1,15
1185,0.0,0.0, 1, 1, 1,15,0.0, 1, 1, 1,15
1321,-6771701880.952777,-251644.49323748308,12,21, 4,30,-10858.213658765788, 7,24,19,31
1335,0.0,0.0, 1, 1, 1,15,0.0, 1, 1, 1,15
1336,6598364290.940933,5582.8898704105395, 7,24,19,31,1541994.2609157518, 1, 8,13,60
1337,0.0,0.0, 1, 1, 1,15,0.0, 1, 1, 1,15
13,51888431669.53884,159353.1275401932, 1, 2, 4,15,4336458.183091447, 7,15,20,45
61,15743207428.383959,88139.10953165221, 1, 1, 1,15,1282023.4113694867, 1, 1,20,15
134,3685071073.4325233,63564.01800854099, 1, 2, 4,15,156554.22484006523, 1, 1,20,15
170,273393721.45532674,348.4159749238097, 1, 2, 4,15,17476.39704006126, 1, 1,12,15
207,339560869.0695816,815.2532113832032, 1, 2, 3,15,22990.642799023623, 1, 1,10,15
244,664895467.8009144,1521.856143006317, 1, 2, 4,15,53038.631142310165, 1, 1,20,15
281,2407221015.106824,59938.60262432081, 1, 1, 5,15,81951.81706819107, 1, 1,19,15
318,0.0,0.0, 1, 1, 1,15,0.0, 1, 1, 1,15
355,10310294493.051695,18561.32405820678, 1, 2, 4,15,724774.895203776, 1, 1,18,15
403,10310294493.051695,18561.32405820678, 1, 2, 4,15,724774.895203776, 1, 1,18,15
476,5569688622.066177,7098.072629279515, 1, 2, 4,15,356036.3026282215, 1, 1,12,15
513,0.0,0.0, 1, 1, 1,15,0.0, 1, 1, 1,15
599,26114899565.827663,0.0, 1, 1, 1,15,2385927.683899161, 6,22,15,60
637,398290140.8349865,0.0, 1, 1, 1,15,832603.0466647311,12,29, 6,15
677,3154753511.065532,7650.0, 1, 1, 1,15,423529.69230730494, 8,23,19,15
692,2792209949.992064,0.0, 1, 1, 1,15,201591.6074876667, 5, 3,18,30
1165,0.0,0.0, 1, 1, 1,15,0.0, 1, 1, 1,15
1374,0.0,0.0, 1, 1, 1,15,0.0, 1, 1, 1,15
End of Data
 Number of Records Written=         105
