Program Version,EnergyPlus, Version 22.2.0-c249759bad, YMD=2023.09.01 14:31
1,5,Environment Title[],Latitude[deg],Longitude[deg],Time Zone[],Elevation[m]
2,8,Day of Simulation[],Month[],Day of Month[],DST Indicator[1=yes 0=no],Hour[],StartMinute[],EndMinute[],DayType
3,5,Cumulative Day of Simulation[],Month[],Day of Month[],DST Indicator[1=yes 0=no],DayType  ! When Daily Report Variables Requested
4,2,Cumulative Days of Simulation[],Month[]  ! When Monthly Report Variables Requested
5,1,Cumulative Days of Simulation[] ! When Run Period Report Variables Requested
6,1,Calendar Year of Simulation[] ! When Annual Report Variables Requested
7,1,Environment,Site Outdoor Air Drybulb Temperature [C] !Hourly
545,1,LIVING,Zone Mean Air Temperature [C] !Hourly
546,1,ATTIC,Zone Mean Air Temperature [C] !Hourly
547,1,CRAWLSPACE,Zone Mean Air Temperature [C] !Hourly
548,1,FAN,Fan Electricity Rate [W] !Hourly
720,1,LIVING,Zone Predicted Sensible Load to Heating Setpoint Heat Transfer Rate [W] !Hourly
721,1,LIVING,Zone System Predicted Sensible Load to Heating Setpoint Heat Transfer Rate [W] !Hourly
784,1,ATTIC,Zone Predicted Sensible Load to Heating Setpoint Heat Transfer Rate [W] !Hourly
785,1,ATTIC,Zone System Predicted Sensible Load to Heating Setpoint Heat Transfer Rate [W] !Hourly
848,1,CRAWLSPACE,Zone Predicted Sensible Load to Heating Setpoint Heat Transfer Rate [W] !Hourly
849,1,CRAWLSPACE,Zone System Predicted Sensible Load to Heating Setpoint Heat Transfer Rate [W] !Hourly
1121,1,DX_HEATING_COIL,Heating Coil Heating Rate [W] !Hourly
1135,1,DX_HEATING_COIL,Heating Coil Electricity Rate [W] !Hourly
1161,1,DX_HEATING_COIL,Heating Coil Defrost Electricity Rate [W] !Hourly
1163,1,DX_HEATING_COIL,Heating Coil Crankcase Heater Electricity Rate [W] !Hourly
1166,1,HEATING_RESISTANCE_BACKUP,Heating Coil Heating Rate [W] !Hourly
1168,1,HEATING_RESISTANCE_BACKUP,Heating Coil Electricity Rate [W] !Hourly
End of Data Dictionary
1,EXTREME_WINTER,  39.12, -94.60,  -6.00, 231.00
2,1, 1,13, 0, 1, 0.00,60.00,Monday
7,-7.2
545,18.601280960484257
546,-2.270310132267057
547,18.459630628694395
548,160.37147693654074
720,3731.411793164989
721,3731.411793164989
784,0.0
785,0.0
848,0.0
849,0.0
1121,4274.507418699831
1135,1465.521393757305
1161,9.359995952443732
1163,0.0
1166,995.9829947332091
1168,995.9829947332091
2,1, 1,13, 0, 2, 0.00,60.00,Monday
7,-7.2
545,18.599828896199185
546,-1.9411336056765276
547,18.056706909625174
548,160.37147693654074
720,3697.190715912375
721,3697.190715912375
784,0.0
785,0.0
848,0.0
849,0.0
1121,4276.2602709466455
1135,1463.5176375769656
1161,9.359995952443732
1163,0.0
1166,981.7876635462785
1168,981.7876635462785
2,1, 1,13, 0, 3, 0.00,60.00,Monday
7,-7.8
545,18.57695565493765
546,-2.7558600629650747
547,17.865029240524894
548,160.37147693654074
720,4783.839133758391
721,4783.839133758391
784,0.0
785,0.0
848,0.0
849,0.0
1121,4204.897459033133
1135,1456.859160374706
1161,8.339009024753947
1163,0.0
1166,2315.505164817045
1168,2315.505164817045
2,1, 1,13, 0, 4, 0.00,60.00,Monday
7,-8.0
545,18.589406130350888
546,-2.6653888313336402
547,17.656283597214994
548,160.37147693654074
720,4487.92420640349
721,4487.92420640349
784,0.0
785,0.0
848,0.0
849,0.0
1121,4181.292858592389
1135,1453.7341419516574
1161,8.150773662411343
1163,0.0
1166,2052.9286607199665
1168,2052.9286607199665
2,1, 1,13, 0, 5, 0.00,60.00,Monday
7,-8.3
545,18.595436938639136
546,-2.8358099877961593
547,17.46923445376993
548,160.37147693654074
720,4393.72497533798
721,4393.72497533798
784,0.0
785,0.0
848,0.0
849,0.0
1121,4129.954567206154
1135,1445.2436608506837
1161,11.841053128237197
1163,0.0
1166,1997.7740664945413
1168,1997.7740664945413
2,1, 1,13, 0, 6, 0.00,60.00,Monday
7,-8.3
545,19.33301777631319
546,-3.745825498484791
547,17.289493961149
548,160.37147693654074
720,5478.781254531694
721,5478.781254531694
784,0.0
785,0.0
848,0.0
849,0.0
1121,4129.978442775087
1135,1445.1535655140965
1161,11.852470293947837
1163,0.0
1166,3249.7059532365615
1168,3249.7059532365615
2,1, 1,13, 0, 7, 0.00,60.00,Monday
7,-8.9
545,19.580381182667928
546,-2.713659379340102
547,17.148264025948805
548,160.37147693654074
720,5250.629559945539
721,5250.629559945539
784,0.0
785,0.0
848,0.0
849,0.0
1121,4041.9964040353434
1135,1459.265641513266
1161,10.727366401927863
1163,0.0
1166,3205.1456576741257
1168,3205.1456576741257
2,1, 1,13, 0, 8, 0.00,60.00,Monday
7,-8.0
545,19.682295945401442
546,-2.4316946888267417
547,17.005097828302876
548,160.37147693654074
720,4439.946114016384
721,4439.946114016384
784,0.0
785,0.0
848,0.0
849,0.0
1121,4157.153602503599
1135,1481.0719786374482
1161,8.150773662411343
1163,0.0
1166,2132.8407766456344
1168,2132.8407766456344
2,1, 1,13, 0, 9, 0.00,60.00,Monday
7,-8.3
545,19.70021843422866
546,-2.1272217173747934
547,16.852327206545528
548,160.37147693654074
720,4450.47569947991
721,4450.47569947991
784,0.0
785,0.0
848,0.0
849,0.0
1121,4103.68312054681
1135,1474.918029986742
1161,11.835294051979005
1163,0.0
1166,2181.5898724797034
1168,2181.5898724797034
2,1, 1,13, 0,10, 0.00,60.00,Monday
7,-8.0
545,19.71490808778307
546,-1.2113025007407365
547,16.720205378471306
548,160.37147693654074
720,4049.033210894824
721,4049.033210894824
784,0.0
785,0.0
848,0.0
849,0.0
1121,4154.523250745174
1135,1484.0471939081963
1161,8.150773662411343
1163,0.0
1166,1650.9475782359987
1168,1650.9475782359987
2,1, 1,13, 0,11, 0.00,60.00,Monday
7,-8.3
545,19.729020138102815
546,1.0308522425911113
547,16.593362390822485
548,160.37147693654074
720,3477.017261477642
721,3477.017261477642
784,0.0
785,0.0
848,0.0
849,0.0
1121,4103.235208296421
1135,1475.4602542173643
1161,11.828484421956588
1163,0.0
1166,992.6893189080902
1168,992.6893189080902
2,1, 1,13, 0,12, 0.00,60.00,Monday
7,-8.0
545,19.730078803516164
546,0.6182001057910381
547,16.481081243614515
548,160.37147693654074
720,3552.18375220065
721,3552.18375220065
784,0.0
785,0.0
848,0.0
849,0.0
1121,4120.721692754038
1135,1472.5665430559957
1161,17.06736269423558
1163,0.0
1166,938.1262825695112
1168,938.1262825695112
2,1, 1,13, 0,13, 0.00,60.00,Monday
7,-8.3
545,19.7159760391683
546,1.0340451385776583
547,16.374729247822057
548,160.37147693654074
720,3698.5073149618165
721,3698.5073149618165
784,0.0
785,0.0
848,0.0
849,0.0
1121,4050.670658404266
1135,1456.6721558285085
1161,25.96795325374482
1163,0.0
1166,1182.9745918291305
1168,1182.9745918291305
2,1, 1,13, 0,14, 0.00,60.00,Monday
7,-8.0
545,19.716397688252012
546,0.8368085940932902
547,16.277682855301258
548,160.37147693654074
720,3676.504599896847
721,3676.504599896847
784,0.0
785,0.0
848,0.0
849,0.0
1121,4088.437257354336
1135,1460.144667507555
1161,25.845014565089436
1163,0.0
1166,1104.9014188846268
1168,1104.9014188846268
2,1, 1,13, 0,15, 0.00,60.00,Monday
7,-8.0
545,19.717441922758244
546,1.3168357815159044
547,16.183294734972545
548,160.37147693654074
720,3521.185363627752
721,3521.185363627752
784,0.0
785,0.0
848,0.0
849,0.0
1121,4088.548202061308
1135,1460.0191907711387
1161,25.845014565089436
1163,0.0
1166,935.3107368810029
1168,935.3107368810029
2,1, 1,13, 0,16, 0.00,60.00,Monday
7,-8.3
545,19.710941713559585
546,0.3357408238935126
547,16.090528840207188
548,160.37147693654074
720,3808.462020211755
721,3808.462020211755
784,0.0
785,0.0
848,0.0
849,0.0
1121,4035.7250648130075
1135,1450.270309964255
1161,30.180302477520616
1163,0.0
1166,1300.759838296955
1168,1300.759838296955
2,1, 1,13, 0,17, 0.00,60.00,Monday
7,-8.3
545,19.711950410982507
546,-0.2122185534805916
547,16.00746111483227
548,160.37147693654074
720,3593.6615292538663
721,3593.6615292538663
784,0.0
785,0.0
848,0.0
849,0.0
1121,4035.9612458510514
1135,1449.9552056182217
1161,30.18918089513742
1163,0.0
1166,1103.0410085040803
1168,1103.0410085040803
2,1, 1,13, 0,18, 0.00,60.00,Monday
7,-7.8
545,19.721308375607414
546,-0.6290297544536131
547,15.93013766672161
548,160.37147693654074
720,3134.846426369533
721,3134.846426369533
784,0.0
785,0.0
848,0.0
849,0.0
1121,4107.143521138363
1135,1459.7504345691318
1161,27.57356642816638
1163,0.0
1166,531.6095315894613
1168,531.6095315894613
2,1, 1,13, 0,19, 0.00,60.00,Monday
7,-8.0
545,19.72315595600667
546,-1.1751414356088081
547,15.843973503442582
548,160.37147693654074
720,2899.39343956829
721,2899.39343956829
784,0.0
785,0.0
848,0.0
849,0.0
1121,4051.1234349109864
1135,1446.2101031717468
1161,35.91430056508421
1163,0.0
1166,329.780762659439
1168,329.780762659439
2,1, 1,13, 0,20, 0.00,60.00,Monday
7,-8.0
545,19.722101768577232
546,-1.366515279745469
547,15.75969822453636
548,160.37147693654074
720,2741.577123696754
721,2741.577123696754
784,0.0
785,0.0
848,0.0
849,0.0
1121,4014.129038029005
1135,1432.9165446449824
1161,45.80380669445863
1163,0.0
1166,208.9475292408565
1168,208.9475292408565
2,1, 1,13, 0,21, 0.00,60.00,Monday
7,-7.8
545,19.714206353123473
546,-1.8277278677436508
547,15.673211472133778
548,160.37147693654074
720,2995.5390992492175
721,2995.5390992492175
784,0.0
785,0.0
848,0.0
849,0.0
1121,4021.1393922565994
1135,1429.0925663499177
1161,50.40600360783914
1163,0.0
1166,508.4052295259726
1168,508.4052295259726
2,1, 1,13, 0,22, 0.00,60.00,Monday
7,-7.2
545,19.714149269300933
546,-1.53635354233215
547,15.591120534732246
548,160.37147693654074
720,3013.5115886130898
721,3013.5115886130898
784,0.0
785,0.0
848,0.0
849,0.0
1121,4110.622005551806
1135,1441.9687725393896
1161,46.13950207963954
1163,0.0
1166,469.7660114566397
1168,469.7660114566397
2,1, 1,13, 0,23, 0.00,60.00,Monday
7,-7.2
545,19.02583304969709
546,-1.818689436560916
547,15.501152964593993
548,144.0747892771846
720,2241.928380659874
721,2241.928380659874
784,0.0
785,0.0
848,0.0
849,0.0
1121,3631.814021081397
1135,1303.765112243583
1161,47.31196473492132
1163,18.16490770399448
1166,0.0
1168,0.0
2,1, 1,13, 0,24, 0.00,60.00,Monday
7,-7.0
545,18.712988397796845
546,-1.8526616065548542
547,15.3816682592851
548,160.37147693654074
720,2820.4267634641437
721,2820.4267634641437
784,0.0
785,0.0
848,0.0
849,0.0
1121,4134.258815065137
1135,1419.080661366304
1161,50.716885269954204
1163,0.0
1166,155.07779073200118
1168,155.07779073200118
2,2, 1,14, 0, 1, 0.00,60.00,Tuesday
7,-7.2
545,18.635193036164704
546,-1.7480160613919307
547,15.279992932146698
548,160.37147693654074
720,3249.1447796286648
721,3249.1447796286648
784,0.0
785,0.0
848,0.0
849,0.0
1121,4084.068459351122
1135,1396.554322771103
1161,59.356380635784475
1163,0.0
1166,694.7152853760008
1168,694.7152853760008
2,2, 1,14, 0, 2, 0.00,60.00,Tuesday
7,-7.0
545,18.605402731331065
546,-1.8139659451591414
547,15.182692317213673
548,160.37147693654074
720,3703.335841176384
721,3703.335841176384
784,0.0
785,0.0
848,0.0
849,0.0
1121,4097.299666751997
1135,1392.2735670448824
1161,62.6976049687117
1163,0.0
1166,1205.206341974621
1168,1205.206341974621
2,2, 1,14, 0, 3, 0.00,60.00,Tuesday
7,-7.0
545,18.602506316359147
546,-1.5518618372846915
547,15.088765990491284
548,160.37147693654074
720,3697.8814777903954
721,3697.8814777903954
784,0.0
785,0.0
848,0.0
849,0.0
1121,4144.670618251724
1135,1407.155003159622
1161,50.716885269954204
1163,0.0
1166,1162.8594967031213
1168,1162.8594967031213
2,2, 1,14, 0, 4, 0.00,60.00,Tuesday
7,-6.7
545,18.603363629713705
546,-1.390998101827684
547,14.999096175415914
548,160.37147693654074
720,3703.736681305705
721,3703.736681305705
784,0.0
785,0.0
848,0.0
849,0.0
1121,4160.0730186006585
1135,1403.2211317947483
1161,56.23132056452072
1163,0.0
1166,1146.196611141837
1168,1146.196611141837
2,2, 1,14, 0, 5, 0.00,60.00,Tuesday
7,-6.7
545,18.607560348966736
546,-1.102740167354037
547,14.909867554337337
548,160.37147693654074
720,3528.156471492479
721,3528.156471492479
784,0.0
785,0.0
848,0.0
849,0.0
1121,4160.2378184840045
1135,1403.1542003301151
1161,56.21031781826304
1163,0.0
1166,936.2430288054657
1168,936.2430288054657
2,2, 1,14, 0, 6, 0.00,60.00,Tuesday
7,-6.7
545,19.332241479079
546,-1.3227028382840234
547,14.820378800836258
548,160.37147693654074
720,5062.76484861131
721,5062.76484861131
784,0.0
785,0.0
848,0.0
849,0.0
1121,4160.13881586209
1135,1403.0827500745052
1161,56.24209729295927
1163,0.0
1166,2688.7035242173824
1168,2688.7035242173824
2,2, 1,14, 0, 7, 0.00,60.00,Tuesday
7,-6.1
545,19.59490108004842
546,-0.6926125142116615
547,14.778310620900763
548,160.37147693654074
720,4417.337923915089
721,4417.337923915089
784,0.0
785,0.0
848,0.0
849,0.0
1121,4209.607687941493
1135,1427.6500920499777
1161,58.043235504177886
1163,0.0
1166,1991.017138440268
1168,1991.017138440268
2,2, 1,14, 0, 8, 0.00,60.00,Tuesday
7,-6.1
545,19.680441326193215
546,-0.6271003529434531
547,14.706119859694603
548,160.37147693654074
720,4117.832026586042
721,4117.832026586042
784,0.0
785,0.0
848,0.0
849,0.0
1121,4203.330396662379
1135,1434.8718862817418
1161,58.04823295498502
1163,0.0
1166,1640.79728975538
1168,1640.79728975538
2,2, 1,14, 0, 9, 0.00,60.00,Tuesday
7,-5.6
545,19.71684255431156
546,0.5872579478936238
547,14.644165796451096
548,160.37147693654074
720,3409.8768545574276
721,3409.8768545574276
784,0.0
785,0.0
848,0.0
849,0.0
1121,4271.521421607489
1135,1446.0749655366828
1161,55.999652142551476
1163,0.0
1166,754.2961013236654
1168,754.2961013236654
2,2, 1,14, 0,10, 0.00,60.00,Tuesday
7,-5.0
545,19.726780905041032
546,1.5143846500053035
547,14.587005201991447
548,160.37147693654074
720,3273.1249045465156
721,3273.1249045465156
784,0.0
785,0.0
848,0.0
849,0.0
1121,4332.190851163947
1135,1449.8253748547716
1161,59.3310532153197
1163,0.0
1166,467.1455759483151
1168,467.1455759483151
2,2, 1,14, 0,11, 0.00,60.00,Tuesday
7,-5.0
545,19.717885897509962
546,1.282948866109524
547,14.530207859782978
548,160.37147693654074
720,3667.8857340899194
721,3667.8857340899194
784,0.0
785,0.0
848,0.0
849,0.0
1121,4310.170891346749
1135,1442.6875502288772
1161,64.6702711527578
1163,0.0
1166,890.7439643252578
1168,890.7439643252578
2,2, 1,14, 0,12, 0.00,60.00,Tuesday
7,-4.4
545,19.721038860874724
546,1.6949221430113495
547,14.484261097090993
548,160.37147693654074
720,3417.873096151665
721,3417.873096151665
784,0.0
785,0.0
848,0.0
849,0.0
1121,4369.838020732472
1135,1444.466860113471
1161,68.4714285664525
1163,0.0
1166,555.0107892460164
1168,555.0107892460164
2,2, 1,14, 0,13, 0.00,60.00,Tuesday
7,-4.0
545,19.72393819340436
546,2.4992167076507528
547,14.436389415065568
548,160.37147693654074
720,3305.361077144751
721,3305.361077144751
784,0.0
785,0.0
848,0.0
849,0.0
1121,4421.838979797029
1135,1449.9262675262607
1161,68.07955841002226
1163,0.0
1166,351.73476460586244
1168,351.73476460586244
2,2, 1,14, 0,14, 0.00,60.00,Tuesday
7,-4.0
545,19.747307045793136
546,2.6613946652466822
547,14.391063119836124
548,156.69623977537992
720,2944.71617854503
721,2944.71617854503
784,0.0
785,0.0
848,0.0
849,0.0
1121,4314.14354144086
1135,1432.7549735770256
1161,67.27154062832129
1163,2.373745660436044
1166,0.0
1168,0.0
2,2, 1,14, 0,15, 0.00,60.00,Tuesday
7,-2.2
545,19.721989789920116
546,2.055413551316355
547,14.364905271465755
548,160.37147693654074
720,3186.2649116583816
721,3186.2649116583816
784,0.0
785,0.0
848,0.0
849,0.0
1121,4569.798878097737
1135,1446.7457287801299
1161,86.63348617768915
1163,0.0
1166,3.665688138787118
1168,3.665688138787118
2,2, 1,14, 0,16, 0.00,60.00,Tuesday
7,-1.7
545,19.809615384415714
546,4.911099085865134
547,14.31204127958985
548,128.70668430666674
720,2469.206063797028
721,2469.206063797028
784,0.0
785,0.0
848,0.0
849,0.0
1121,3652.1857679502086
1135,1183.366774502719
1161,66.12324246779583
1163,37.848018523879645
1166,0.0
1168,0.0
2,2, 1,14, 0,17, 0.00,60.00,Tuesday
7,-1.7
545,19.835940341203102
546,4.265287621230825
547,14.267543261400007
548,102.82816351536543
720,1954.5733922280651
721,1954.5733922280651
784,0.0
785,0.0
848,0.0
849,0.0
1121,2835.933344479885
1135,940.1454661353818
1161,58.64397398545216
1163,70.29538425233852
1166,0.0
1168,0.0
2,2, 1,14, 0,18, 0.00,60.00,Tuesday
7,-2.0
545,19.782143249303218
546,3.2206485736095467
547,14.239653105419759
548,98.68677247243072
720,1871.381034023936
721,1871.381034023936
784,0.0
785,0.0
848,0.0
849,0.0
1121,2667.4430425778537
1135,894.1854399427898
1161,61.926746403047225
1163,75.30100830350366
1166,0.0
1168,0.0
2,2, 1,14, 0,19, 0.00,60.00,Tuesday
7,-2.0
545,19.68278120857365
546,1.983317706394911
547,14.212177396259586
548,97.04279266136761
720,1867.193289302586
721,1867.193289302586
784,0.0
785,0.0
848,0.0
849,0.0
1121,2658.87281700132
1135,889.406570403672
1161,51.561033877739746
1163,77.6406860188954
1166,0.0
1168,0.0
2,2, 1,14, 0,20, 0.00,60.00,Tuesday
7,-4.4
545,19.559926832816842
546,0.8706146005862274
547,14.184014492470627
548,115.24961085511431
720,2133.991748257662
721,2133.991748257662
784,0.0
785,0.0
848,0.0
849,0.0
1121,3058.674978301065
1135,1055.2753547589298
1161,44.61331180195402
1163,54.745545887839555
1166,0.0
1168,0.0
2,2, 1,14, 0,21, 0.00,60.00,Tuesday
7,-4.0
545,19.60403328567775
546,0.6030399409286832
547,14.15912582665975
548,127.19903267085166
720,2358.3027573575455
721,2358.3027573575455
784,0.0
785,0.0
848,0.0
849,0.0
1121,3426.622060762229
1135,1159.1558784189401
1161,54.60747471410603
1163,39.57747086071859
1166,0.0
1168,0.0
2,2, 1,14, 0,22, 0.00,60.00,Tuesday
7,-3.9
545,19.730981688149832
546,-0.0792813841778636
547,14.125708320681223
548,127.21928355931506
720,2310.9704839435763
721,2310.9704839435763
784,0.0
785,0.0
848,0.0
849,0.0
1121,3423.368338326912
1135,1157.5480665400237
1161,57.839286732986494
1163,39.46190968172629
1166,0.0
1168,0.0
2,2, 1,14, 0,23, 0.00,60.00,Tuesday
7,-4.0
545,18.99474268067078
546,-0.4081542549951573
547,14.060318507011898
548,88.93111034668198
720,1455.9246832296594
721,1455.9246832296594
784,0.0
785,0.0
848,0.0
849,0.0
1121,2325.683722766072
1135,813.2681720019551
1161,38.179190956054626
1163,87.8394870715433
1166,0.0
1168,0.0
2,2, 1,14, 0,24, 0.00,60.00,Tuesday
7,-5.0
545,18.543390720253036
546,-1.0574833347009778
547,14.003280575567102
548,114.93485134322025
720,2033.5516210218539
721,2033.5516210218539
784,0.0
785,0.0
848,0.0
849,0.0
1121,2999.3471217993438
1135,1030.957216709765
1161,47.06922530048924
1163,54.94471793891498
1166,0.0
1168,0.0
2,3, 1,15, 0, 1, 0.00,60.00,Wednesday
7,-6.1
545,18.385250660767937
546,-1.418630787800786
547,13.941065088513431
548,160.37147693654074
720,2995.044736076823
721,2995.044736076823
784,0.0
785,0.0
848,0.0
849,0.0
1121,4228.2515592885775
1135,1404.3794439311648
1161,58.33563878811307
1163,0.0
1166,108.62239029813554
1168,108.62239029813554
2,3, 1,15, 0, 2, 0.00,60.00,Wednesday
7,-6.0
545,18.515826434530293
546,-1.4721941168474806
547,13.879461736156733
548,160.37147693654074
720,3245.7896370983635
721,3245.7896370983635
784,0.0
785,0.0
848,0.0
849,0.0
1121,4253.561844784766
1135,1404.19758594444
1161,56.05044946938787
1163,0.0
1166,489.3553408402495
1168,489.3553408402495
2,3, 1,15, 0, 3, 0.00,60.00,Wednesday
7,-7.0
545,18.56881224279119
546,-1.9373150292006955
547,13.815584867277112
548,160.37147693654074
720,3468.883292069164
721,3468.883292069164
784,0.0
785,0.0
848,0.0
849,0.0
1121,4148.372562032887
1135,1402.9142601779365
1161,50.716885269954204
1163,0.0
1166,885.6180693082729
1168,885.6180693082729
2,3, 1,15, 0, 4, 0.00,60.00,Wednesday
7,-7.2
545,18.582093543809226
546,-2.4265524825219216
547,13.749914865235587
548,160.37147693654074
720,3826.0979029763603
721,3826.0979029763603
784,0.0
785,0.0
848,0.0
849,0.0
1121,4139.641702360361
1135,1407.610592765493
1161,46.348251042640356
1163,0.0
1166,1344.6157658657448
1168,1344.6157658657448
2,3, 1,15, 0, 5, 0.00,60.00,Wednesday
7,-7.2
545,18.585043628081536
546,-2.8825920482466985
547,13.682420632699875
548,160.37147693654074
720,4134.868709719603
721,4134.868709719603
784,0.0
785,0.0
848,0.0
849,0.0
1121,4162.730031761852
1135,1415.7907250315054
1161,40.318437160389266
1163,0.0
1166,1717.3665090899417
1168,1717.3665090899417
2,3, 1,15, 0, 6, 0.00,60.00,Wednesday
7,-7.0
545,19.325932539555566
546,-2.812493686268982
547,13.616126469908249
548,160.37147693654074
720,5311.642835930697
721,5311.642835930697
784,0.0
785,0.0
848,0.0
849,0.0
1121,4231.067180065025
1135,1432.9520427572345
1161,29.09898151906982
1163,0.0
1166,3036.9118243014354
1168,3036.9118243014354
2,3, 1,15, 0, 7, 0.00,60.00,Wednesday
7,-7.8
545,19.58933287820088
546,-2.74447489866749
547,13.580110869860503
548,160.37147693654074
720,4742.382559004069
721,4742.382559004069
784,0.0
785,0.0
848,0.0
849,0.0
1121,4081.2182285419144
1135,1432.094970956537
1161,37.73506909534635
1163,0.0
1166,2615.568052992681
1168,2615.568052992681
2,3, 1,15, 0, 8, 0.00,60.00,Wednesday
7,-8.9
545,19.659328336162122
546,-3.4511208199172776
547,13.508983897014318
548,160.37147693654074
720,5020.627879643653
721,5020.627879643653
784,0.0
785,0.0
848,0.0
849,0.0
1121,3971.7542723046395
1135,1436.2960091164352
1161,29.513267863607886
1163,0.0
1166,3066.0623958195774
1168,3066.0623958195774
2,3, 1,15, 0, 9, 0.00,60.00,Wednesday
7,-8.9
545,19.694397862998947
546,-2.9706055590053366
547,13.452827696782585
548,160.37147693654074
720,4479.543687358866
721,4479.543687358866
784,0.0
785,0.0
848,0.0
849,0.0
1121,3955.906253834611
1135,1432.9945651666044
1161,33.40377098007819
1163,0.0
1166,2500.6215328335
1168,2500.6215328335
2,3, 1,15, 0,10, 0.00,60.00,Wednesday
7,-9.0
545,19.704347260178523
546,-2.854162891418549
547,13.385856378022286
548,160.37147693654074
720,4409.349213382675
721,4409.349213382675
784,0.0
785,0.0
848,0.0
849,0.0
1121,3947.6101278514107
1135,1434.2448918926011
1161,32.161077567082735
1163,0.0
1166,2401.662124865551
1168,2401.662124865551
2,3, 1,15, 0,11, 0.00,60.00,Wednesday
7,-10.0
545,19.70168689469952
546,-3.2164089191369345
547,13.311582042321438
548,160.37147693654074
720,4515.678156817783
721,4515.678156817783
784,0.0
785,0.0
848,0.0
849,0.0
1121,3854.5324102978266
1135,1431.29807582016
1161,24.701790460187237
1163,0.0
1166,2614.8990164820198
1168,2614.8990164820198
2,3, 1,15, 0,12, 0.00,60.00,Wednesday
7,-10.0
545,19.71379707486908
546,-1.7405651557367432
547,13.257445157681005
548,160.37147693654074
720,3906.867469636971
721,3906.867469636971
784,0.0
785,0.0
848,0.0
849,0.0
1121,3844.7255000465257
1135,1427.4576042700403
1161,27.51959318673002
1163,0.0
1166,1945.4147938080891
1168,1945.4147938080891
2,3, 1,15, 0,13, 0.00,60.00,Wednesday
7,-10.0
545,19.73137003198753
546,-0.000011741883745881325
547,13.215796602803547
548,160.37147693654074
720,3295.719681707649
721,3295.719681707649
784,0.0
785,0.0
848,0.0
849,0.0
1121,3871.4641785009712
1135,1437.6892230414583
1161,19.882911604540592
1163,0.0
1166,1141.2082005947473
1168,1141.2082005947473
2,3, 1,15, 0,14, 0.00,60.00,Wednesday
7,-10.0
545,19.745982275114482
546,0.8802560402241663
547,13.195533315276942
548,160.37147693654074
720,2673.534059515923
721,2673.534059515923
784,0.0
785,0.0
848,0.0
849,0.0
1121,3871.0722809503663
1135,1438.1013479991245
1161,19.88663863632298
1163,0.0
1166,318.8379651276791
1168,318.8379651276791
2,3, 1,15, 0,15, 0.00,60.00,Wednesday
7,-9.0
545,19.87113835428241
546,2.169965715816281
547,13.184396538188212
548,129.64547533102
720,1924.7335818375304
721,1924.7335818375304
784,0.0
785,0.0
848,0.0
849,0.0
1121,3145.1249453363007
1135,1177.4963604562981
1161,18.611962120899957
1163,37.33169517037156
1166,0.0
1168,0.0
2,3, 1,15, 0,16, 0.00,60.00,Wednesday
7,-9.0
545,19.851960701610146
546,0.37204253007493426
547,13.192720302241714
548,106.17165042520068
720,1591.2858879215619
721,1591.2858879215619
784,0.0
785,0.0
848,0.0
849,0.0
1121,2546.8416306923236
1135,971.6911939179975
1161,9.84110409820701
1163,67.07333900507967
1166,0.0
1168,0.0
2,3, 1,15, 0,17, 0.00,60.00,Wednesday
7,-9.0
545,19.87425737096769
546,-1.772133681331111
547,13.217026112082296
548,92.18186212814393
720,1357.931497032674
721,1357.931497032674
784,0.0
785,0.0
848,0.0
849,0.0
1121,2188.7095312022784
1135,843.4193224098124
1161,8.544380476597428
1163,84.5885628594038
1166,0.0
1168,0.0
2,3, 1,15, 0,18, 0.00,60.00,Wednesday
7,-10.6
545,19.662475739401415
546,-3.358624335909395
547,13.279261139870592
548,137.35912362063306
720,2075.873921724642
721,2075.873921724642
784,0.0
785,0.0
848,0.0
849,0.0
1121,3230.284907777332
1135,1244.7735396313321
1161,6.81348815741312
1163,28.285620519195454
1166,0.0
1168,0.0
2,3, 1,15, 0,19, 0.00,60.00,Wednesday
7,-11.1
545,19.53433797669714
546,-4.580291708111542
547,13.290761568169232
548,160.37147693654074
720,2371.3842877929765
721,2371.3842877929765
784,0.0
785,0.0
848,0.0
849,0.0
1121,3777.9607564199255
1135,1435.4488364866718
1161,9.44468883044586
1163,0.0
1166,61.400784316894715
1168,61.400784316894715
2,3, 1,15, 0,20, 0.00,60.00,Wednesday
7,-11.7
545,19.617524352779128
546,-5.475424131348597
547,13.268325566874065
548,160.37147693654074
720,2739.4158541563884
721,2739.4158541563884
784,0.0
785,0.0
848,0.0
849,0.0
1121,3713.489019772232
1135,1425.237142004933
1161,8.52226985811928
1163,0.0
1166,711.5436496635491
1168,711.5436496635491
2,3, 1,15, 0,21, 0.00,60.00,Wednesday
7,-12.2
545,19.662330415078205
546,-6.126144044534159
547,13.234994902799011
548,160.37147693654074
720,3095.471684785649
721,3095.471684785649
784,0.0
785,0.0
848,0.0
849,0.0
1121,3655.5231822753794
1135,1421.5211394887324
1161,7.797803917945091
1163,0.0
1166,1260.6297952585787
1168,1260.6297952585787
2,3, 1,15, 0,22, 0.00,60.00,Wednesday
7,-12.8
545,19.670133824387015
546,-6.795853504421133
547,13.178045548648647
548,160.37147693654074
720,3846.624837817073
721,3846.624837817073
784,0.0
785,0.0
848,0.0
849,0.0
1121,3597.0547812700684
1135,1419.0730256885433
1161,4.105729314564504
1163,0.0
1166,2240.3268477097454
1168,2240.3268477097454
2,3, 1,15, 0,23, 0.00,60.00,Wednesday
7,-13.3
545,18.960476000474287
546,-7.228805072305404
547,13.111055250543634
548,160.37147693654074
720,3228.105836805391
721,3228.105836805391
784,0.0
785,0.0
848,0.0
849,0.0
1121,3552.330291378734
1135,1417.3342501540305
1161,0.07725406560087286
1163,0.0
1166,1632.0030173145656
1168,1632.0030173145656
2,3, 1,15, 0,24, 0.00,60.00,Wednesday
7,-13.9
545,18.71408819137162
546,-7.242104169340896
547,12.996789296391773
548,160.37147693654074
720,3690.3814281331215
721,3690.3814281331215
784,0.0
785,0.0
848,0.0
849,0.0
1121,3501.105231575908
1135,1391.088922644304
1161,0.07725406560087286
1163,0.0
1166,2175.668202827136
1168,2175.668202827136
2,4, 1,16, 0, 1, 0.00,60.00,Thursday
7,-14.4
545,18.615636592320413
546,-7.783876166680047
547,12.900913630397014
548,160.37147693654074
720,4439.046454829582
721,4439.046454829582
784,0.0
785,0.0
848,0.0
849,0.0
1121,3450.648773704794
1135,1377.961826502513
1161,0.07725406560087286
1163,0.0
1166,3079.4953303570765
1168,3079.4953303570765
2,4, 1,16, 0, 2, 0.00,60.00,Thursday
7,-15.0
545,18.576986183385273
546,-8.19987722927573
547,12.797949451163868
548,160.37147693654074
720,5048.971330005916
721,5048.971330005916
784,0.0
785,0.0
848,0.0
849,0.0
1121,3386.004455707143
1135,1367.1320832305832
1161,0.07725406560087286
1163,0.0
1166,3883.588808437041
1168,3883.588808437041
2,4, 1,16, 0, 3, 0.00,60.00,Thursday
7,-15.6
545,18.571201214595003
546,-8.974232424419569
547,12.695238695286987
548,160.37147693654074
720,5200.61073759321
721,5200.61073759321
784,0.0
785,0.0
848,0.0
849,0.0
1121,3318.2448076286514
1135,1356.685165511905
1161,0.9013040878421311
1163,0.0
1166,4161.143512954811
1168,4161.143512954811
2,4, 1,16, 0, 4, 0.00,60.00,Thursday
7,-16.1
545,18.559970823040636
546,-9.064453379671725
547,12.588733327390118
548,160.37147693654074
720,5639.466151755632
721,5639.466151755632
784,0.0
785,0.0
848,0.0
849,0.0
1121,3258.5207846842995
1135,1347.138969609302
1161,2.723627303397252
1163,0.0
1166,4775.440713500407
1168,4775.440713500407
2,4, 1,16, 0, 5, 0.00,60.00,Thursday
7,-16.7
545,18.56863641124428
546,-9.0126870662362
547,12.481807517466725
548,160.37147693654074
720,5515.266107388965
721,5515.266107388965
784,0.0
785,0.0
848,0.0
849,0.0
1121,3187.7569077409053
1135,1335.5097023981596
1161,4.943152950448205
1163,0.0
1166,4722.553885976931
1168,4722.553885976931
2,4, 1,16, 0, 6, 0.00,60.00,Thursday
7,-16.1
545,19.316769804380286
546,-9.099474127030438
547,12.383943265174645
548,160.37147693654074
720,6695.582174502226
721,6695.582174502226
784,0.0
785,0.0
848,0.0
849,0.0
1121,3258.8455334179553
1135,1346.827952713986
1161,2.7210062031393423
1163,0.0
1166,6009.967147007854
1168,6009.967147007854
2,4, 1,16, 0, 7, 0.00,60.00,Thursday
7,-16.7
545,19.564363128963155
546,-9.408961176742322
547,12.3112136454014
548,160.37147693654074
720,6497.633084580088
721,6497.633084580088
784,0.0
785,0.0
848,0.0
849,0.0
1121,3170.2473977203163
1135,1352.5650151714779
1161,4.935575019266672
1163,0.0
1166,5959.897598275796
1168,5959.897598275796
2,4, 1,16, 0, 8, 0.00,60.00,Thursday
7,-16.7
545,19.642172563647833
546,-9.696785364373087
547,12.219390935401446
548,160.37147693654074
720,6265.534072391554
721,6265.534072391554
784,0.0
785,0.0
848,0.0
849,0.0
1121,3172.1012994903203
1135,1361.4108381634014
1161,2.255864570697611
1163,0.0
1166,5733.656758725676
1168,5733.656758725676
2,4, 1,16, 0, 9, 0.00,60.00,Thursday
7,-15.6
545,19.690888014611183
546,-7.538634383540674
547,12.14029910003862
548,160.37147693654074
720,5101.447628737249
721,5101.447628737249
784,0.0
785,0.0
848,0.0
849,0.0
1121,3287.041439243801
1135,1378.4646199728047
1161,3.127487695267311
1163,0.0
1166,4302.544123986711
1168,4302.544123986711
2,4, 1,16, 0,10, 0.00,60.00,Thursday
7,-14.4
545,19.72771717862041
546,-3.6695441543890928
547,12.07241994982235
548,160.37147693654074
720,3932.3777701430936
721,3932.3777701430936
784,0.0
785,0.0
848,0.0
849,0.0
1121,3405.3940476007792
1135,1391.480984816226
1161,7.529614674433666
1163,0.0
1166,2719.9464556644084
1168,2719.9464556644084
2,4, 1,16, 0,11, 0.00,60.00,Thursday
7,-12.8
545,19.75669937028794
546,0.8663847619741135
547,12.03508256799738
548,160.37147693654074
720,2920.532227771364
721,2920.532227771364
784,0.0
785,0.0
848,0.0
849,0.0
1121,3575.5134045747113
1135,1410.7334093497477
1161,10.737460609256704
1163,0.0
1166,1163.2988197815594
1168,1163.2988197815594
2,4, 1,16, 0,12, 0.00,60.00,Thursday
7,-10.6
545,19.839471258035505
546,8.918542340196757
547,12.023113289015033
548,149.9138908900211
720,2130.3884483967486
721,2130.3884483967486
784,0.0