Program Version,EnergyPlus, Version 22.2.0-c249759bad, YMD=2023.09.01 14:32
1,5,Environment Title[],Latitude[deg],Longitude[deg],Time Zone[],Elevation[m]
2,8,Day of Simulation[],Month[],Day of Month[],DST Indicator[1=yes 0=no],Hour[],StartMinute[],EndMinute[],DayType
3,5,Cumulative Day of Simulation[],Month[],Day of Month[],DST Indicator[1=yes 0=no],DayType  ! When Daily Report Variables Requested
4,2,Cumulative Days of Simulation[],Month[]  ! When Monthly Report Variables Requested
5,1,Cumulative Days of Simulation[] ! When Run Period Report Variables Requested
6,1,Calendar Year of Simulation[] ! When Annual Report Variables Requested
7,1,Environment,Site Outdoor Air Drybulb Temperature [C] !Hourly
545,1,LIVING,Zone Mean Air Temperature [C] !Hourly
546,1,ATTIC,Zone Mean Air Temperature [C] !Hourly
547,1,CRAWLSPACE,Zone Mean Air Temperature [C] !Hourly
548,1,FAN,Fan Electricity Rate [W] !Hourly
720,1,LIVING,Zone Predicted Sensible Load to Heating Setpoint Heat Transfer Rate [W] !Hourly
721,1,LIVING,Zone System Predicted Sensible Load to Heating Setpoint Heat Transfer Rate [W] !Hourly
784,1,ATTIC,Zone Predicted Sensible Load to Heating Setpoint Heat Transfer Rate [W] !Hourly
785,1,ATTIC,Zone System Predicted Sensible Load to Heating Setpoint Heat Transfer Rate [W] !Hourly
848,1,CRAWLSPACE,Zone Predicted Sensible Load to Heating Setpoint Heat Transfer Rate [W] !Hourly
849,1,CRAWLSPACE,Zone System Predicted Sensible Load to Heating Setpoint Heat Transfer Rate [W] !Hourly
1121,1,DX_HEATING_COIL,Heating Coil Heating Rate [W] !Hourly
1135,1,DX_HEATING_COIL,Heating Coil Electricity Rate [W] !Hourly
1161,1,DX_HEATING_COIL,Heating Coil Defrost Electricity Rate [W] !Hourly
1163,1,DX_HEATING_COIL,Heating Coil Crankcase Heater Electricity Rate [W] !Hourly
1166,1,HEATING_RESISTANCE_BACKUP,Heating Coil Heating Rate [W] !Hourly
1168,1,HEATING_RESISTANCE_BACKUP,Heating Coil Electricity Rate [W] !Hourly
End of Data Dictionary
1,EXTREME_WINTER,  36.90, -76.20,  -5.00,   9.00
2,1, 1,15, 0, 1, 0.00,60.00,Monday
7,2.8
545,18.690271577833517
546,1.7157168116474635
547,19.401479063757684
548,31.574470132656472
720,756.266141322285
721,756.266141322285
784,0.0
785,0.0
848,0.0
849,0.0
1121,1027.4718594406147
1135,320.2701013865487
1161,0.01529003097153374
1163,155.4358323932411
1166,0.0
1168,0.0
2,1, 1,15, 0, 2, 0.00,60.00,Monday
7,2.8
545,18.658180892396913
546,1.3779418484401453
547,19.08705466518114
548,41.3642418139448
720,1015.7829479281645
721,1015.7829479281645
784,0.0
785,0.0
848,0.0
849,0.0
1121,1357.4742189826618
1135,418.45920156313747
1161,0.020030756944230507
1163,141.61856104707445
1166,0.0
1168,0.0
2,1, 1,15, 0, 3, 0.00,60.00,Monday
7,1.7
545,18.53959128510865
546,0.25680853656714603
547,18.921963024186386
548,52.53041358613657
720,1245.4337880010644
721,1245.4337880010644
784,0.0
785,0.0
848,0.0
849,0.0
1121,1680.9927329902034
1135,522.8515187603981
1161,2.0248539191390234
1163,125.82899750599688
1166,0.0
1168,0.0
2,1, 1,15, 0, 4, 0.00,60.00,Monday
7,1.1
545,18.524627288777197
546,-0.6095916330086375
547,18.73655998046301
548,65.82222123196509
720,1523.974665823047
721,1523.974665823047
784,0.0
785,0.0
848,0.0
849,0.0
1121,2085.679172436379
1135,646.7874555019677
1161,4.98117756400478
1163,107.01565878358825
1166,0.0
1168,0.0
2,1, 1,15, 0, 5, 0.00,60.00,Monday
7,1.1
545,18.564029419863562
546,-1.2140705008773212
547,18.582951882641158
548,71.85549208938532
720,1634.7037361911916
721,1634.7037361911916
784,0.0
785,0.0
848,0.0
849,0.0
1121,2288.4297133533655
1135,705.7282938923878
1161,5.437752177139802
1163,98.49271635220751
1166,0.0
1168,0.0
2,1, 1,15, 0, 6, 0.00,60.00,Monday
7,0.6
545,19.224994027876154
546,-0.10726759014186853
547,18.40145581401224
548,115.46561354791412
720,2643.083234115962
721,2643.083234115962
784,0.0
785,0.0
848,0.0
849,0.0
1121,3657.078590218775
1135,1100.3674151837406
1161,31.57224004535132
1163,36.438481582792036
1166,0.0
1168,0.0
2,1, 1,15, 0, 7, 0.00,60.00,Monday
7,0.0
545,19.525494567959406
546,0.3818903000779133
547,18.286320863310465
548,124.06165572250444
720,2721.899803662811
721,2721.899803662811
784,0.0
785,0.0
848,0.0
849,0.0
1121,3898.8407794805453
1135,1196.2574402958435
1161,30.35629760000183
1163,24.267661727260847
1166,0.0
1168,0.0
2,1, 1,15, 0, 8, 0.00,60.00,Monday
7,0.0
545,19.699047345320096
546,0.7862201187782604
547,18.17435047119394
548,113.22929609897737
720,2391.2995886308636
721,2391.2995886308636
784,0.0
785,0.0
848,0.0
849,0.0
1121,3520.256172654218
1135,1098.2307952826136
1161,27.705906053172967
1163,39.610754946326864
1166,0.0
1168,0.0
2,1, 1,15, 0, 9, 0.00,60.00,Monday
7,1.1
545,19.863714741244486
546,2.339865109352789
547,18.08297844614895
548,76.83117886545733
720,1560.9203587921802
721,1560.9203587921802
784,0.0
785,0.0
848,0.0
849,0.0
1121,2403.2324232104456
1135,760.1496822722469
1161,14.61792973106464
1163,91.31141796794178
1166,0.0
1168,0.0
2,1, 1,15, 0,10, 0.00,60.00,Monday
7,2.8
545,19.886745672077875
546,5.2465928943961035
547,18.000012414053817
548,32.25383421396225
720,613.745033926205
721,613.745033926205
784,0.0
785,0.0
848,0.0
849,0.0
1121,1045.326609553779
1135,333.45927859562266
1161,0.015619015329333352
1163,154.47697795479826
1166,0.0
1168,0.0
2,1, 1,15, 0,11, 0.00,60.00,Monday
7,2.8
545,19.859444407342373
546,8.046147802682777
547,17.931214124585658
548,0.0
720,-106.38676192869752
721,-106.38676192869752
784,0.0
785,0.0
848,0.0
849,0.0
1121,0.0
1135,0.0
1161,0.0
1163,200.0
1166,0.0
1168,0.0
2,1, 1,15, 0,12, 0.00,60.00,Monday
7,3.9
545,20.53414069731484
546,11.895769179735138
547,17.88833965983633
548,0.0
720,-626.6669238070426
721,-626.6669238070426
784,0.0
785,0.0
848,0.0
849,0.0
1121,0.0
1135,0.0
1161,0.0
1163,200.0
1166,0.0
1168,0.0
2,1, 1,15, 0,13, 0.00,60.00,Monday
7,4.4
545,20.674352158476623
546,13.908670347477532
547,17.8685135036812
548,0.0
720,-708.6205305493841
721,-708.6205305493841
784,0.0
785,0.0
848,0.0
849,0.0
1121,0.0
1135,0.0
1161,0.0
1163,200.0
1166,0.0
1168,0.0
2,1, 1,15, 0,14, 0.00,60.00,Monday
7,4.4
545,20.8389503532898
546,13.841598928133793
547,17.86787506972156
548,0.0
720,-859.0249901261413
721,-859.0249901261413
784,0.0
785,0.0
848,0.0
849,0.0
1121,0.0
1135,0.0
1161,0.0
1163,200.0
1166,0.0
1168,0.0
2,1, 1,15, 0,15, 0.00,60.00,Monday
7,2.2
545,20.71333016802614
546,12.16294176838803
547,17.87793607207859
548,0.0
720,-765.4732446088783
721,-765.4732446088783
784,0.0
785,0.0
848,0.0
849,0.0
1121,0.0
1135,0.0
1161,0.0
1163,200.0
1166,0.0
1168,0.0
2,1, 1,15, 0,16, 0.00,60.00,Monday
7,2.2
545,20.86022669694428
546,10.760205347262053
547,17.887848113306593
548,0.0
720,-843.7743679848536
721,-843.7743679848536
784,0.0
785,0.0
848,0.0
849,0.0
1121,0.0
1135,0.0
1161,0.0
1163,200.0
1166,0.0
1168,0.0
2,1, 1,15, 0,17, 0.00,60.00,Monday
7,2.2
545,20.56059075862951
546,7.627041303234487
547,17.888578935048173
548,0.0
720,-649.832418110951
721,-649.832418110951
784,0.0
785,0.0
848,0.0
849,0.0
1121,0.0
1135,0.0
1161,0.0
1163,200.0
1166,0.0
1168,0.0
2,1, 1,15, 0,18, 0.00,60.00,Monday
7,2.8
545,19.893577836812312
546,5.699577384288822
547,17.89040692186544
548,0.0
720,-141.37879693426476
721,-141.37879693426476
784,0.0
785,0.0
848,0.0
849,0.0
1121,0.0
1135,0.0
1161,0.0
1163,200.0
1166,0.0
1168,0.0
2,1, 1,15, 0,19, 0.00,60.00,Monday
7,2.2
545,19.844212833574623
546,3.7370835278553884
547,17.875731683730443
548,0.0
720,-106.39109220652972
721,-106.39109220652972
784,0.0
785,0.0
848,0.0
849,0.0
1121,0.0
1135,0.0
1161,0.0
1163,200.0
1166,0.0
1168,0.0
2,1, 1,15, 0,20, 0.00,60.00,Monday
7,2.2
545,19.821019181530414
546,2.8856490062081463
547,17.83930683217927
548,7.421780953860645
720,81.50508117451318
721,81.50508117451318
784,0.0
785,0.0
848,0.0
849,0.0
1121,232.1895873848261
1135,76.27134361981508
1161,0.0035940217230226996
1163,189.52490111071043
1166,0.0
1168,0.0
2,1, 1,15, 0,21, 0.00,60.00,Monday
7,2.2
545,19.630545958536104
546,2.665452495281417
547,17.78796142105464
548,13.07935641801484
720,287.9196994408667
721,287.9196994408667
784,0.0
785,0.0
848,0.0
849,0.0
1121,411.05419899531
1135,134.34244946523836
1161,0.006333721158627047
1163,181.53980120687632
1166,0.0
1168,0.0
2,1, 1,15, 0,22, 0.00,60.00,Monday
7,2.2
545,19.620919971584204
546,2.7623143642296912
547,17.723724938986216
548,29.401599631501824
720,707.3822893726629
721,707.3822893726629
784,0.0
785,0.0
848,0.0
849,0.0
1121,936.8890208815839
1135,300.83209439980493
1161,0.014237820801948254
1163,158.50259337248588
1166,0.0
1168,0.0
2,1, 1,15, 0,23, 0.00,60.00,Monday
7,2.2
545,18.744398630431323
546,2.5126462249646253
547,17.65976996022902
548,17.79633257830542
720,385.2184588856853
721,385.2184588856853
784,0.0
785,0.0
848,0.0
849,0.0
1121,561.9302710316897
1135,182.05426062386007
1161,0.008617932265718616
1163,174.88226291835588
1166,0.0
1168,0.0
2,1, 1,15, 0,24, 0.00,60.00,Monday
7,1.1
545,18.85522183565213
546,1.5289984092081488
547,17.56873089641071
548,35.16949490785703
720,828.8584614637075
721,828.8584614637075
784,0.0
785,0.0
848,0.0
849,0.0
1121,1098.0451503568145
1135,350.1001069954089
1161,0.01703096231856339
1163,150.3617317269095
1166,0.0
1168,0.0
2,2, 1,16, 0, 1, 0.00,60.00,Tuesday
7,1.1
545,18.542639819414326
546,1.2295740034843943
547,17.483288997322077
548,41.85444939963059
720,963.3417065080375
721,963.3417065080375
784,0.0
785,0.0
848,0.0
849,0.0
1121,1313.109472818308
1135,417.49817807734166
1161,0.02026817713734996
1163,140.92657858483466
1166,0.0
1168,0.0
2,2, 1,16, 0, 2, 0.00,60.00,Tuesday
7,0.6
545,18.563670419098596
546,0.8933509034131076
547,17.378861786301474
548,59.219243074618696
720,1374.991723352945
721,1374.991723352945
784,0.0
785,0.0
848,0.0
849,0.0
1121,1861.9364633831708
1135,584.3822704271298
1161,0.028677160291537086
1163,116.41784244275102
1166,0.0
1168,0.0
2,2, 1,16, 0, 3, 0.00,60.00,Tuesday
7,0.6
545,18.546365321681975
546,0.7574074324973955
547,17.28190833949811
548,71.47034602995389
720,1652.3421856637997
721,1652.3421856637997
784,0.0
785,0.0
848,0.0
849,0.0
1121,2269.6166736788446
1135,705.4507944112122
1161,0.03460980694035342
1163,99.1266113064803
1166,0.0
1168,0.0
2,2, 1,16, 0, 4, 0.00,60.00,Tuesday
7,0.0
545,18.52463799457542
546,0.6286189213315773
547,17.17882246099391
548,85.25263331235011
720,1910.205358808189
721,1910.205358808189
784,0.0
785,0.0
848,0.0
849,0.0
1121,2655.1016332013082
1135,825.46254938485
1161,8.883270951226011
1163,79.49392008754965
1166,0.0
1168,0.0
2,2, 1,16, 0, 5, 0.00,60.00,Tuesday
7,0.0
545,18.54785732051998
546,0.6818922128998861
547,17.083387632169163
548,91.79586410281489
720,2044.793307773176
721,2044.793307773176
784,0.0
785,0.0
848,0.0
849,0.0
1121,2874.9478825598503
1135,888.3170292805343
1161,9.565069478944615
1163,70.24497695426497
1166,0.0
1168,0.0
2,2, 1,16, 0, 6, 0.00,60.00,Tuesday
7,0.0
545,19.22112961638274
546,1.327432492594763
547,16.97605282257424
548,131.149735844352
720,3104.3543458019158
721,3104.3543458019158
784,0.0
785,0.0
848,0.0
849,0.0
1121,4268.801336306113
1135,1275.1978896441358
1161,9.00874413622649
1163,14.713366126106898
1166,0.0
1168,0.0
2,2, 1,16, 0, 7, 0.00,60.00,Tuesday
7,0.6
545,19.564398488939254
546,1.7429576997360727
547,16.923689243318496
548,129.8341933052929
720,3010.9113608109
721,3010.9113608109
784,0.0
785,0.0
848,0.0
849,0.0
1121,4274.054650959182
1135,1285.1476537214362
1161,9.359822230086584
1163,16.58091515498079
1166,0.0
1168,0.0
2,2, 1,16, 0, 8, 0.00,60.00,Tuesday
7,0.6
545,19.702192978329297
546,1.9637754019229612
547,16.846874845351685
548,121.8090990481811
720,2754.268151217795
721,2754.268151217795
784,0.0
785,0.0
848,0.0
849,0.0
1121,3975.581977854944
1135,1213.8330731691308
1161,8.78130236041648
1163,27.917838277138053
1166,0.0
1168,0.0
2,2, 1,16, 0, 9, 0.00,60.00,Tuesday
7,1.7
545,19.739790063907904
546,3.4559254276332467
547,16.77419225878361
548,105.5759349593777
720,2420.642297530334
721,2420.642297530334
784,0.0
785,0.0
848,0.0
849,0.0
1121,3514.775186752496
1135,1069.9867631973946
1161,4.023151140732836
1163,50.931108982532216
1166,0.0
1168,0.0
2,2, 1,16, 0,10, 0.00,60.00,Tuesday
7,2.2
545,19.898312471973764
546,5.8230659854461395
547,16.70092743019906
548,64.59261480855446
720,1373.3425909402958
721,1373.3425909402958
784,0.0
785,0.0
848,0.0
849,0.0
1121,2086.4693399062703
1135,652.5502872290152
1161,6.581560273332479
1163,108.74594502443458
1166,0.0
1168,0.0
2,2, 1,16, 0,11, 0.00,60.00,Tuesday
7,2.2
545,19.849183254366622
546,7.578743947670731
547,16.650392074377784
548,36.12149859251322
720,745.354941177231
721,745.354941177231
784,0.0
785,0.0
848,0.0
849,0.0
1121,1139.35732293283
1135,366.07350451105185
1161,3.680544579515468
1163,148.96884576746973
1166,0.0
1168,0.0
2,2, 1,16, 0,12, 0.00,60.00,Tuesday
7,3.3
545,19.924460967605746
546,9.466328821544872
547,16.626004929615505
548,23.794510635975744
720,535.9921372685403
721,535.9921372685403
784,0.0
785,0.0
848,0.0
849,0.0
1121,766.7357480733286
1135,243.80017086683011
1161,2.0979453438432714
1163,166.39521605941786
1166,0.0
1168,0.0
2,2, 1,16, 0,13, 0.00,60.00,Tuesday
7,4.4
545,19.829953572720793
546,10.711482968440087
547,16.61568005750044
548,3.2174438549291695
720,39.45878547427674
721,39.45878547427674
784,0.0
785,0.0
848,0.0
849,0.0
1121,105.19229953063801
1135,33.44025708415045
1161,0.22900973662528265
1163,195.457293131172
1166,0.0
1168,0.0
2,2, 1,16, 0,14, 0.00,60.00,Tuesday
7,4.4
545,19.97709028509212
546,11.081893894586694
547,16.62764631011029
548,0.0
720,-209.17999624913136
721,-209.17999624913136
784,0.0
785,0.0
848,0.0
849,0.0
1121,0.0
1135,0.0
1161,0.0
1163,200.0
1166,0.0
1168,0.0
2,2, 1,16, 0,15, 0.00,60.00,Tuesday
7,3.3
545,20.74240854138753
546,12.726201972387775
547,16.65624113713652
548,0.0
720,-838.0477731679111
721,-838.0477731679111
784,0.0
785,0.0
848,0.0
849,0.0
1121,0.0
1135,0.0
1161,0.0
1163,200.0
1166,0.0
1168,0.0
2,2, 1,16, 0,16, 0.00,60.00,Tuesday
7,3.9
545,21.13525802986409
546,12.360176075190275
547,16.6927166535511
548,0.0
720,-1124.8584802072364
721,-1124.8584802072364
784,0.0
785,0.0
848,0.0
849,0.0
1121,0.0
1135,0.0
1161,0.0
1163,200.0
1166,0.0
1168,0.0
2,2, 1,16, 0,17, 0.00,60.00,Tuesday
7,3.9
545,21.25337595225811
546,10.2827561591145
547,16.735398300198934
548,0.0
720,-1175.6980055109561
721,-1175.6980055109561
784,0.0
785,0.0
848,0.0
849,0.0
1121,0.0
1135,0.0
1161,0.0
1163,200.0
1166,0.0
1168,0.0
2,2, 1,16, 0,18, 0.00,60.00,Tuesday
7,2.8
545,20.92844694970049
546,7.478106876303339
547,16.776314371894884
548,0.0
720,-925.4427289999403
721,-925.4427289999403
784,0.0
785,0.0
848,0.0
849,0.0
1121,0.0
1135,0.0
1161,0.0
1163,200.0
1166,0.0
1168,0.0
2,2, 1,16, 0,19, 0.00,60.00,Tuesday
7,2.8
545,20.831932417880164
546,4.255564764442737
547,16.805526650319926
548,0.0
720,-823.4971571217866
721,-823.4971571217866
784,0.0
785,0.0
848,0.0
849,0.0
1121,0.0
1135,0.0
1161,0.0
1163,200.0
1166,0.0
1168,0.0
2,2, 1,16, 0,20, 0.00,60.00,Tuesday
7,2.8
545,20.735976691349833
546,2.0873822997743954
547,16.812397402000585
548,0.0
720,-725.2825311986344
721,-725.2825311986344
784,0.0
785,0.0
848,0.0
849,0.0
1121,0.0
1135,0.0
1161,0.0
1163,200.0
1166,0.0
1168,0.0
2,2, 1,16, 0,21, 0.00,60.00,Tuesday
7,2.8
545,20.54960922795021
546,0.4977545529265392
547,16.80231964794925
548,0.0
720,-567.633745219724
721,-567.633745219724
784,0.0
785,0.0
848,0.0
849,0.0
1121,0.0
1135,0.0
1161,0.0
1163,200.0
1166,0.0
1168,0.0
2,2, 1,16, 0,22, 0.00,60.00,Tuesday
7,2.2
545,20.044894745443592
546,-0.7251369530628827
547,16.778514411625697
548,0.0
720,-217.14190310940648
721,-217.14190310940648
784,0.0
785,0.0
848,0.0
849,0.0
1121,0.0
1135,0.0
1161,0.0
1163,200.0
1166,0.0
1168,0.0
2,2, 1,16, 0,23, 0.00,60.00,Tuesday
7,2.2
545,19.37994560510239
546,-1.6372358763180128
547,16.74362602652189
548,0.0
720,-516.9589030399693
721,-516.9589030399693
784,0.0
785,0.0
848,0.0
849,0.0
1121,0.0
1135,0.0
1161,0.0
1163,200.0
1166,0.0
1168,0.0
2,2, 1,16, 0,24, 0.00,60.00,Tuesday
7,1.7
545,18.630312952089767
546,-2.2901038383244385
547,16.69934305396621
548,2.430663876564782
720,35.21812940412201
721,35.21812940412201
784,0.0
785,0.0
848,0.0
849,0.0
1121,69.68539870554032
1135,23.014841546559435
1161,1.200407349628773
1163,196.55043854575257
1166,0.0
1168,0.0
2,3, 1,17, 0, 1, 0.00,60.00,Wednesday
7,1.7
545,18.517565638174084
546,-2.343171365996386
547,16.641742670302083
548,24.733733591073847
720,553.4285333632888
721,553.4285333632888
784,0.0
785,0.0
848,0.0
849,0.0
1121,738.2887384674215
1135,234.87615402830022
1161,9.066115904176607
1163,164.9509498447566
1166,0.0
1168,0.0
2,3, 1,17, 0, 2, 0.00,60.00,Wednesday
7,1.7
545,18.496125950394156
546,-2.3375887599272756
547,16.575810704899382
548,40.30934130882602
720,877.4295192189375
721,877.4295192189375
784,0.0
785,0.0
848,0.0
849,0.0
1121,1218.9805118294885
1135,381.8933677923391
1161,14.77530007760776
1163,142.87959265551896
1166,0.0
1168,0.0
2,3, 1,17, 0, 3, 0.00,60.00,Wednesday
7,3.3
545,18.570318330051794
546,-0.7760649708037017
547,16.511179456003557
548,54.36215062821724
720,1243.2945749371283
721,1243.2945749371283
784,0.0
785,0.0
848,0.0
849,0.0
1121,1744.6157214245816
1135,524.8610046385372
1161,17.729811389551767
1163,123.08808676063798
1166,0.0
1168,0.0
2,3, 1,17, 0, 4, 0.00,60.00,Wednesday
7,2.8
545,18.52090851408973
546,0.433358227868269
547,16.439763382786037
548,66.44718137386796
720,1500.4692501238296
721,1500.4692501238296
784,0.0
785,0.0
848,0.0
849,0.0
1121,2115.6937226071163
1135,636.8628721223442
1161,23.652627779605574
1163,105.93298060978076
1166,0.0
1168,0.0
2,3, 1,17, 0, 5, 0.00,60.00,Wednesday
7,2.8
545,18.570096801452614
546,1.792493550843146
547,16.368965198219712
548,70.3660695641957
720,1592.976128448221
721,1592.976128448221
784,0.0
785,0.0
848,0.0
849,0.0
1121,2248.2643633057965
1135,673.7193452761824
1161,25.047581651125277
1163,100.38521847090122
1166,0.0
1168,0.0
2,3, 1,17, 0, 6, 0.00,60.00,Wednesday
7,4.4
545,19.31545837479427
546,4.007167324783729
547,16.31139809847135
548,101.01656770021062
720,2519.125868929672
721,2519.125868929672
784,0.0
785,0.0
848,0.0
849,0.0
1121,3406.6430243630234
1135,969.8935589897013
1161,44.52143641263162
1163,57.09427689774491
1166,0.0
1168,0.0
2,3, 1,17, 0, 7, 0.00,60.00,Wednesday
7,5.0
545,19.669539992923255
546,5.167987032734526
547,16.275239187256187
548,94.54326794521383
720,2325.0599828970644
721,2325.0599828970644
784,0.0
785,0.0
848,0.0
849,0.0
1121,3200.6849732511027
1135,923.3113409423496
1161,43.33964733849536
1163,66.31034370980989
1166,0.0
1168,0.0
2,3, 1,17, 0, 8, 0.00,60.00,Wednesday
7,5.0
545,19.750001974942354
546,5.728453672005862
547,16.221347028706173
548,81.99851099557291
720,1980.666690379363
721,1980.666690379363
784,0.0
785,0.0
848,0.0
849,0.0
1121,2742.708374418981
1135,806.2300711704122
1161,37.58910879721138
1163,84.04900953381372
1166,0.0
1168,0.0
2,3, 1,17, 0, 9, 0.00,60.00,Wednesday
7,4.0
545,19.73165422278193
546,5.876779269712774
547,16.171236823483284
548,81.6589353731742
720,1851.3551066651526
721,1851.3551066651526
784,0.0
785,0.0
848,0.0
849,0.0
1121,2553.221645193934
1135,766.132807519781
1161,59.22014169304081
1163,84.21380298418066
1166,0.0
1168,0.0
2,3, 1,17, 0,10, 0.00,60.00,Wednesday
7,4.0
545,19.714843198678818
546,6.588070629871259
547,16.122353552868088
548,73.30198148826305
720,1611.4354891431485
721,1611.4354891431485
784,0.0
785,0.0
848,0.0
849,0.0
1121,2234.262162334968
1135,675.3197200936772
1161,61.77272105473741
1163,95.97579744657372
1166,0.0
1168,0.0
2,3, 1,17, 0,11, 0.00,60.00,Wednesday
7,5.0
545,19.781275296978933
546,7.267885258323107
547,16.084968188131423
548,66.79995177730922
720,1538.1518300360167
721,1538.1518300360167
784,0.0
785,0.0
848,0.0
849,0.0
1121,2096.983955109433
1135,625.6943103082237
1161,52.396968921008586
1163,105.39846548831883
1166,0.0
1168,0.0
2,3, 1,17, 0,12, 0.00,60.00,Wednesday
7,5.0
545,19.565402041620754
546,6.780929776144695
547,16.05411412384185
548,71.79374446849404
720,1658.4505035484162
721,1658.4505035484162
784,0.0
785,0.0
848,0.0
849,0.0
1121,2222.4466853294966
1135,661.720012171332
1161,64.27798762593989
1163,98.27060366888473
1166,0.0
1168,0.0
2,3, 1,17, 0,13, 0.00,60.00,Wednesday
7,6.0
545,19.72168781981344
546,7.227495125646196
547,16.01063856330217
548,56.084678709345
720,1763.248111771276
721,1763.248111771276
784,0.0
785,0.0
848,0.0
849,0.0
1121,2304.2857037713593
1135,622.3244469718863
1161,0.0
1163,120.84246572290883
1166,0.0
1168,0.0
2,3, 1,17, 0,14, 0.00,60.00,Wednesday
7,5.6
545,19.745612943666437
546,7.345104728580919
547,15.98545105259595
548,54.37715747677883
720,1690.7342156973282
721,1690.7342156973282
784,0.0
785,0.0
848,0.0
849,0.0
1121,2207.007391024074
1135,602.6405836858991
1161,0.0
1163,123.25244958313904
1166,0.0
1168,0.0
2,3, 1,17, 0,15, 0.00,60.00,Wednesday
7,6.0
545,19.83758227850294
546,7.442604163642133
547,15.95870338692084
548,51.67636219836548
720,1622.8423387621006
721,1622.8423387621006
784,0.0
785,0.0
848,0.0
849,0.0
1121,2113.942158024963
1135,575.337549085955
1161,0.0
1163,127.06433367958458
1166,0.0
1168,0.0
2,3, 1,17, 0,16, 0.00,60.00,Wednesday
7,7.0
545,19.73452838333089
546,7.814584481551805
547,15.93187683595422
548,44.36078771706611
720,1413.5614075597678
721,1413.5614075597678
784,0.0
785,0.0
848,0.0
849,0.0
1121,1849.268038591884
1135,500.01521903336914
1161,0.0
1163,137.3894857725675
1166,0.0
1168,0.0
2,3, 1,17, 0,17, 0.00,60.00,Wednesday
7,7.8
545,19.850181424364422
546,8.43917469006709
547,15.901077705617308
548,34.25313646943087
720,1101.6934378116475
721,1101.6934378116475
784,0.0
785,0.0
848,0.0
849,0.0
1121,1445.5466844578496
1135,388.76795051181386
1161,0.0
1163,151.65535603353516
1166,0.0
1168,0.0
2,3, 1,17, 0,18, 0.00,60.00,Wednesday
7,11.7
545,19.949643249372667
546,10.624726423068251
547,15.872284523146652
548,17.227364047953003
720,585.8579014663901
721,585.8579014663901
784,0.0
785,0.0
848,0.0
849,0.0
1121,788.1080022882512
1135,205.4770797984493
1161,0.0
1163,0.0
1166,0.0
1168,0.0
2,3, 1,17, 0,19, 0.00,60.00,Wednesday
7,12.8
545,20.00775407189449
546,10.66252724144442
547,15.843115615266935
548,2.3020345254593617
720,53.47291294416391
721,53.47291294416391
784,0.0
785,0.0
848,0.0
849,0.0
1121,106.78551525676794
1135,27.918876585239506
1161,0.0
1163,0.0
1166,0.0
1168,0.0
2,3, 1,17, 0,20, 0.00,60.00,Wednesday
7,12.8
545,20.160370152528262
546,11.122010605460071
547,15.834001305283351
548,0.0
720,-322.57562834737655
721,-322.57562834737655
784,0.0
785,0.0
848,0.0
849,0.0
1121,0.0
1135,0.0
1161,0.0
1163,0.0
1166,0.0
1168,0.0
2,3, 1,17, 0,21, 0.00,60.00,Wednesday
7,13.0
545,20.27364076963376
546,11.866229962214877
547,15.83180317353017
548,0.0
720,-397.83806388580524
721,-397.83806388580524
784,0.0
785,0.0
848,0.0
849,0.0
1121,0.0
1135,0.0
1161,0.0
1163,0.0
1166,0.0
1168,0.0
2,3, 1,17, 0,22, 0.00,60.00,Wednesday
7,8.3
545,19.84193159506396
546,10.471207797249289
547,15.833394876221266
548,0.0
720,-85.21993990092233
721,-85.21993990092233
784,0.0
785,0.0
848,0.0
849,0.0
1121,0.0
1135,0.0
1161,0.0
1163,200.0
1166,0.0
1168,0.0
2,3, 1,17, 0,23, 0.00,60.00,Wednesday
7,8.3
545,19.446490514100397
546,9.48062787945666
547,15.835347575625253
548,0.0
720,-456.6955495022894
721,-456.6955495022894
784,0.0
785,0.0
848,0.0
849,0.0
1121,0.0
1135,0.0
1161,0.0
1163,200.0
1166,0.0
1168,0.0
2,3, 1,17, 0,24, 0.00,60.00,Wednesday
7,5.0
545,18.63673590632006
546,7.088906671092756
547,15.837045490548784
548,9.948642521765455
720,219.52106620245104
721,219.52106620245104
784,0.0
785,0.0
848,0.0
849,0.0
1121,281.3561509781456
1135,87.47929398056675
1161,11.43750936362341
1163,185.88449118310942
1166,0.0
1168,0.0
2,4, 1,18, 0, 1, 0.00,60.00,Thursday
7,3.9
545,18.63967248635668
546,6.284944317853723
547,15.82762852435382
548,25.655514082250875
720,574.8122395779674
721,574.8122395779674
784,0.0
785,0.0
848,0.0
849,0.0
1121,725.7076122694758
1135,222.92445610139814
1161,27.6734025477775
1163,163.51935887229715
1166,0.0
1168,0.0
2,4, 1,18, 0, 2, 0.00,60.00,Thursday
7,3.9
545,18.583402529899324
546,5.679052406288396
547,15.80999816100809
548,33.83161771549247
720,740.8467555713341
721,740.8467555713341
784,0.0
785,0.0
848,0.0
849,0.0
1121,963.26588461438
1135,293.9697646511043
1161,36.49258338041874
1163,151.8934169433839
1166,0.0
1168,0.0
2,4, 1,18, 0, 3, 0.00,60.00,Thursday
7,3.0
545,18.47838228547833
546,5.030657841719407
547,15.78187802799653
548,47.35668097060423
720,1025.2752225002514
721,1025.2752225002514
784,0.0
785,0.0
848,0.0
849,0.0
1121,1345.1403931410225
1135,412.0874388853713
1161,48.39153290128832
1163,132.55255174772586
1166,0.0
1168,0.0
2,4, 1,18, 0, 4, 0.00,60.00,Thursday
7,2.8
545,18.53354644331937
546,4.669759974003159
547,15.74804513368673
548,61.06771807779905
720,1335.7261893230716
721,1335.7261893230716
784,0.0
785,0.0
848,0.0
849,0.0
1121,1769.0543291889892
1135,536.0848377492414
1161,57.475702001366194
1163,113.05850553847444
1166,0.0
1168,0.0
2,4, 1,18, 0, 5, 0.00,60.00,Thursday
7,2.8
545,18.575820789636534
546,4.546065719183314
547,15.711736820663416
548,66.40088394303
720,1431.3271623080982
721,1431.3271623080982
784,0.0
785,0.0
848,0.0
849,0.0
1121,1931.562027125496
1135,583.4871834093099
1161,62.495298731566535
1163,105.46553622933175
1166,0.0
1168,0.0
2,4, 1,18, 0, 6, 0.00,60.00,Thursday
7,2.2
545,19.307650414422696
546,4.605868583226399
547,15.678552883916927
548,106.85777561399826
720,2400.2610891672266
721,2400.2610891672266
784,0.0
785,0.0
848,0.0
849,0.0
1121,3183.6971788997625
1135,940.4692979130713
1161,96.88482239383599
1163,47.73039385630633
1166,0.0
1168,0.0
2,4, 1,18, 0, 7, 0.00,60.00,Thursday
7,2.2
545,19.562868273684842
546,4.469906703024736
547,15.665229175017064
548,109.47877841314865
720,2360.409093026088
721,2360.409093026088
784,0.0
785,0.0
848,0.0
849,0.0
1121,3258.5683266428587
1135,977.4371039979463
1161,99.14244466379606
1163,43.992529638235744
1166,0.0
1168,0.0
2,4, 1,18, 0, 8, 0.00,60.00,Thursday
7,2.2
545,19.6890010439671
546,4.455188003595829
547,15.626561784843192
548,103.92794686086702
720,2179.327988649962
721,2179.327988649962
784,0.0
785,0.0
848,0.0
849,0.0
1121,3074.9832991372145
1135,932.5147398899538
1161,94.11677693927248
1163,51.90076421163634
1166,0.0
1168,0.0
2,4, 1,18, 0, 9, 0.00,60.00,Thursday
7,2.8
545,19.875570737063846
546,5.563336885791795
547,15.571008968451773
548,67.75273407864567
720,1315.0278924600425
721,1315.0278924600425
784,0.0
785,0.0
848,0.0
849,0.0
1121,1963.6242989639554
1135,609.0451738026511
1161,63.553926621861656
1163,103.53971595830403
1166,0.0
1168,0.0
2,4, 1,18, 0,10, 0.00,60.00,Thursday
7,3.0
545,19.8839642534982
546,6.653293612410655
547,15.517750891236835
548,27.119775590764466
720,452.82144580603745
721,452.82144580603745
784,0.0
785,0.0
848,0.0
849,0.0
1121,768.3706173066331
1135,246.4565936133181
1161,24.41126468010693
1163,161.42020433229553
1166,0.0
1168,0.0
2,4, 1,18, 0,11, 0.00,60.00,Thursday
7,4.4
545,20.213034369605264
546,9.570491897549903
547,15.4918391537726
548,0.0
720,-279.3612330168362
721,-279.3612330168362
784,0.0
785,0.0
848,0.0
849,0.0
1121,0.0
1135,0.0
1161,0.0
1163,200.0
1166,0.0
1168,0.0
2,4, 1,18, 0,12, 0.00,60.00,Thursday
7,8.3
545,20.902592463392704
546,13.221282618218154
547,15.51256529151027
548,0.0
720,-842.1370172002353
721,-842.1370172002353
784,0.0
785,0.0
848,0.0
849,0.0
1121,0.0
1135,0.0
1161,0.0
1163,200.0
1166,0.0
1168,0.0
2,4, 1,18, 0,13, 0.00,60.00,Thursday
7,10.0
545,21.140973394764323
546,15.418107493631336
547,15.550535875637115
548,0.0
720,-948.6644996532723
721,-948.6644996532723
784,0.0
785,0.0
848,0.0
849,0.0
1121,0.0
1135,0.0
1161,0.0
1163,0.0
1166,0.0
1168,0.0
2,4, 1,18, 0,14, 0.00,60.00,Thursday
7,10.0
545,21.716274817953625
546,16.774071081926277
547,15.60282913605497
548,0.0
720,-1238.544744027853
721,-1238.544744027853
784,0.0
785,0.0
848,0.0
849,0.0
1121,0.0
1135,0.0
1161,0.0
1163,0.0
1166,0.0
1168,0.0
2,4, 1,18, 0,15, 0.00,60.00,Thursday
7,11.1
545,22.910123279655405
546,17.652909330441112
547,15.670480521863272
548,0.0
720,-2113.142651351891
721,-2113.142651351891
784,0.0
785,0.0
848,0.0
849,0.0
1121,0.0
1135,0.0
1161,0.0
1163,0.0
1166,0.0
1168,0.0
2,4, 1,18, 0,16, 0.00,60.00,Thursday
7,11.7
545,23.35252801727244
546,17.921544451644962
547,15.777069639658645
548,10.162346585241048
720,-2935.829014567111
721,-2935.829014567111
784,0.0
785,0.0
848,0.0
849,0.0
1121,0.0
1135,0.0
1161,0.0
1163,0.0
1166,0.0
1168,0.0
2,4, 1,18, 0,17, 0.00,60.00,Thursday
7,11.7
545,23.330396516658812
546,16.21046310798421
547,15.89578572741377
548,20.284734989235083
720,-3571.1497165850305
721,-3571.1497165850305
784,0.0
785,0.0
848,0.0
849,0.0
1121,0.0
1135,0.0
1161,0.0
1163,0.0
1166,0.0
1168,0.0
2,4, 1,18, 0,18, 0.00,60.00,Thursday
7,8.3
545,23.16208387164294
546,12.814229741001387
547,15.95695501507689
548,4.854673847636268
720,-3252.226692747625
721,-3252.226692747625
784,0.0
785,0.0
848,0.0
849,0.0
1121,0.0
1135,0.0
1161,0.0
1163,193.1481463326216
1166,0.0
1168,0.0
2,4, 1,18, 0,19, 0.00,60.00,Thursday
7,7.2
545,23.235146090937068
546,10.166079817098415
547,16.038090306434
548,0.0
720,-2656.7392990546286
721,-2656.7392990546286
784,0.0
785,0.0
848,0.0
849,0.0
1121,0.0
1135,0.0
1161,0.0
1163,200.0
1166,0.0
1168,0.0
2,4, 1,18, 0,20, 0.00,60.00,Thursday
7,7.2
545,23.196640037214305
546,8.101804368454735
547,16.09931952687313
548,0.0
720,-2404.8305644345965
721,-2404.8305644345965
784,0.0
785,0.0
848,0.0
849,0.0
1121,0.0
1135,0.0
1161,0.0
1163,200.0
1166,0.0
1168,0.0
2,4, 1,18, 0,21, 0.00,60.00,Thursday
7,5.0
545,22.6066956767559
546,6.506216424665181
547,16.132871844985658
548,0.0
720,-1942.1502159602023
721,-1942.1502159602023
784,0.0
785,0.0
848,0.0
849,0.0
1121,0.0
1135,0.0
1161,0.0
1163,200.0
1166,0.0
1168,0.0
2,4, 1,18, 0,22, 0.00,60.00,Thursday
7,6.1
545,22.30121186031381
546,5.89164487867532
547,16.14538094334486
548,0.0
720,-1994.322266987505
721,-1994.322266987505
784,0.0
785,0.0
848,0.0
849,0.0
1121,0.0
1135,0.0
1161,0.0
1163,200.0
1166,0.0
1168,0.0
2,4, 1,18, 0,23, 0.00,60.00,Thursday
7,6.1
545,21.61932468323361
546,5.5590463881052505
547,16.14023521317351
548,0.0
720,-2162.2318807451775
721,-2162.2318807451775
784,0.0
785,0.0
848,0.0
849,0.0
1121,0.0
1135,0.0
1161,0.0
1163,200.0
1166,0.0
1168,0.0
2,4, 1,18, 0,24, 0.00,60.00,Thursday
7,6.1