Program Version,EnergyPlus, Version 22.2.0-c249759bad, YMD=2023.07.07 15:16
1,5,Environment Title[],Latitude[deg],Longitude[deg],Time Zone[],Elevation[m]
2,8,Day of Simulation[],Month[],Day of Month[],DST Indicator[1=yes 0=no],Hour[],StartMinute[],EndMinute[],DayType
3,5,Cumulative Day of Simulation[],Month[],Day of Month[],DST Indicator[1=yes 0=no],DayType  ! When Daily Report Variables Requested
4,2,Cumulative Days of Simulation[],Month[]  ! When Monthly Report Variables Requested
5,1,Cumulative Days of Simulation[] ! When Run Period Report Variables Requested
6,1,Calendar Year of Simulation[] ! When Annual Report Variables Requested
581,11,LIVING,AFN Zone Infiltration Air Change Rate [ach] !RunPeriod [Value,Min,Month,Day,Hour,Minute,Max,Month,Day,Hour,Minute]
582,11,ATTIC,AFN Zone Infiltration Air Change Rate [ach] !RunPeriod [Value,Min,Month,Day,Hour,Minute,Max,Month,Day,Hour,Minute]
583,11,CRAWLSPACE,AFN Zone Infiltration Air Change Rate [ach] !RunPeriod [Value,Min,Month,Day,Hour,Minute,Max,Month,Day,Hour,Minute]
1038,11,Facility,Facility Heating Setpoint Not Met Time [hr] !RunPeriod [Value,Min,Month,Day,Hour,Minute,Max,Month,Day,Hour,Minute]
1039,11,Facility,Facility Cooling Setpoint Not Met Time [hr] !RunPeriod [Value,Min,Month,Day,Hour,Minute,Max,Month,Day,Hour,Minute]
1115,11,DX_HEATING_COIL,Heating Coil Heating Energy [J] !RunPeriod [Value,Min,Month,Day,Hour,Minute,Max,Month,Day,Hour,Minute]
1128,11,DX_HEATING_COIL,Heating Coil Electricity Energy [J] !RunPeriod [Value,Min,Month,Day,Hour,Minute,Max,Month,Day,Hour,Minute]
1153,11,DX_HEATING_COIL,Heating Coil Defrost Electricity Energy [J] !RunPeriod [Value,Min,Month,Day,Hour,Minute,Max,Month,Day,Hour,Minute]
1154,11,DX_HEATING_COIL,Heating Coil Crankcase Heater Electricity Energy [J] !RunPeriod [Value,Min,Month,Day,Hour,Minute,Max,Month,Day,Hour,Minute]
1156,11,HEATING_RESISTANCE_BACKUP,Heating Coil Electricity Energy [J] !RunPeriod [Value,Min,Month,Day,Hour,Minute,Max,Month,Day,Hour,Minute]
13,11,Electricity:Facility [J] !RunPeriod [Value,Min,Month,Day,Hour,Minute,Max,Month,Day,Hour,Minute]
1134,11,Heating:Electricity [J] !RunPeriod [Value,Min,Month,Day,Hour,Minute,Max,Month,Day,Hour,Minute]
1096,11,Cooling:Electricity [J] !RunPeriod [Value,Min,Month,Day,Hour,Minute,Max,Month,Day,Hour,Minute]
562,11,Fans:Electricity [J] !RunPeriod [Value,Min,Month,Day,Hour,Minute,Max,Month,Day,Hour,Minute]
1388,11,Pumps:Electricity [J] !RunPeriod [Value,Min,Month,Day,Hour,Minute,Max,Month,Day,Hour,Minute]
1360,11,WaterSystems:Electricity [J] !RunPeriod [Value,Min,Month,Day,Hour,Minute,Max,Month,Day,Hour,Minute]
61,11,InteriorLights:Electricity [J] !RunPeriod [Value,Min,Month,Day,Hour,Minute,Max,Month,Day,Hour,Minute]
1046,11,ExteriorLights:Electricity [J] !RunPeriod [Value,Min,Month,Day,Hour,Minute,Max,Month,Day,Hour,Minute]
134,11,InteriorEquipment:Electricity [J] !RunPeriod [Value,Min,Month,Day,Hour,Minute,Max,Month,Day,Hour,Minute]
170,11,gas_dryer:InteriorEquipment:Electricity [J] !RunPeriod [Value,Min,Month,Day,Hour,Minute,Max,Month,Day,Hour,Minute]
207,11,clotheswasher:InteriorEquipment:Electricity [J] !RunPeriod [Value,Min,Month,Day,Hour,Minute,Max,Month,Day,Hour,Minute]
244,11,dishwasher:InteriorEquipment:Electricity [J] !RunPeriod [Value,Min,Month,Day,Hour,Minute,Max,Month,Day,Hour,Minute]
281,11,refrigerator:InteriorEquipment:Electricity [J] !RunPeriod [Value,Min,Month,Day,Hour,Minute,Max,Month,Day,Hour,Minute]
318,11,electric_mels:InteriorEquipment:Electricity [J] !RunPeriod [Value,Min,Month,Day,Hour,Minute,Max,Month,Day,Hour,Minute]
355,11,NaturalGas:Facility [J] !RunPeriod [Value,Min,Month,Day,Hour,Minute,Max,Month,Day,Hour,Minute]
1323,11,WaterSystems:NaturalGas [J] !RunPeriod [Value,Min,Month,Day,Hour,Minute,Max,Month,Day,Hour,Minute]
403,11,InteriorEquipment:NaturalGas [J] !RunPeriod [Value,Min,Month,Day,Hour,Minute,Max,Month,Day,Hour,Minute]
476,11,gas_dryer:InteriorEquipment:NaturalGas [J] !RunPeriod [Value,Min,Month,Day,Hour,Minute,Max,Month,Day,Hour,Minute]
513,11,gas_mels:InteriorEquipment:NaturalGas [J] !RunPeriod [Value,Min,Month,Day,Hour,Minute,Max,Month,Day,Hour,Minute]
End of Data Dictionary
1,EXTREME_WINTER,  32.54, -93.75,  -6.00,  55.00
5,7
1038,0.16666666666666666,0.0, 1,29, 1,10,0.16666666666666666, 2, 2, 6,10
1039,0.0,0.0, 1,29, 1,10,0.0, 1,29, 1,10
581,0.28160071939175324,0.12922626536023465, 1,31,10,11,0.7649598815629036, 2, 1, 9,51
582,3.8274706493977027,0.0, 1,29, 1,45,22.431795946220387, 2, 1, 9,51
583,4.6236298223021555,0.00008488160684811058, 1,31,10,28,20.598563577066724, 2, 1, 9,53
1115,1135778683.605293,0.0, 1,29, 1, 3,2963894.100471925, 2, 3, 6,30
1128,368742993.40510046,0.0, 1,29, 1, 3,923170.7508089095, 2, 3, 6,30
1153,12962808.60182227,0.0, 1,29, 1, 3,58977.9278508905, 2, 4, 7,60
1154,47409584.181422755,0.0, 1,29, 6, 2,120000.0, 1,29,14,50
1156,121109553.09133057,0.0, 1,29, 1, 3,1946065.7093219925, 2, 2, 7,10
13,990128233.4510592,106115.4183601288, 2, 1, 4,10,3954388.911237322, 2, 2, 6,10
61,301924526.0238348,58759.40635443481, 1,29, 1,10,854682.2742463244, 1,29,20,10
134,70666020.44019979,42376.01200569399, 1,29, 4,10,104369.48322671017, 2, 3,20,10
170,5241013.419656074,232.27731661587313, 1,29, 4,10,11650.931360040839, 2, 3,12,10
207,6509451.13922266,543.5021409221355, 1,29, 3,10,15327.095199349082, 2, 3,10,10
244,12749673.39982522,1014.5707620042115, 1,29, 4,10,35359.08742820678, 2, 3,20,10
281,46165882.48149605,39959.06841621388, 1,29, 5,10,54634.54471212738, 1,29,19,10
318,0.0,0.0, 1,29, 1,10,0.0, 1,29, 1,10
355,742713018.9243664,12374.216038804521, 1,29, 4,10,3829218.154066982, 1,30,18,60
403,197687796.27748126,12374.216038804521, 1,29, 4,10,483183.26346918393, 2, 3,18,10
476,106772067.24485692,4732.048419519677, 1,29, 4,10,237357.535085481, 2, 3,12,10
513,0.0,0.0, 1,29, 1,10,0.0, 1,29, 1,10
562,41912659.347787224,0.0, 1,29, 1,10,94366.33845827419, 1,29, 6,30
1046,0.0,0.0, 1,29, 1,10,0.0, 1,29, 1,10
1096,20380248.359562296,0.0, 1,29, 1,10,394761.4888050648, 1,31,17,10
1134,550224939.2796762,0.0, 1,30,12,20,3442463.249768395, 2, 2, 6,10
1323,545025222.646882,0.0, 1,29, 1,10,3375000.000000001, 2, 3,21,40
1360,5019840.0,4979.999999999998, 1,31,10,40,4980.000000000002, 1,31,16,10
1388,0.0,0.0, 1,29, 1,10,0.0, 1,29, 1,10
1,EXTREME_SUMMER,  32.54, -93.75,  -6.00,  55.00
5,7
1038,0.0,0.0, 9, 2, 1,10,0.0, 9, 2, 1,10
1039,67.99999999999999,0.0, 9, 2, 1,10,0.16666666666666666, 9, 2, 6,10
581,0.10986085230764632,0.0, 9, 3,19,53,0.6700414070530377, 9, 2,19,55
582,3.4670395058012287,0.08281274532543548, 9, 7,21,30,13.733434374484348, 9, 2,19,55
583,4.507175506590238,0.0, 9, 7,23, 2,19.465970672067396, 9, 2,19,55
1115,0.0,0.0, 9, 2, 1,10,0.0, 9, 2, 1,10
1128,0.0,0.0, 9, 2, 1,10,0.0, 9, 2, 1,10
1153,0.0,0.0, 9, 2, 1,10,0.0, 9, 2, 1,10
1154,0.0,0.0, 9, 2, 1,10,0.0, 9, 2, 1,10
1156,0.0,0.0, 9, 2, 1,10,0.0, 9, 2, 1,10
13,1169608557.9124413,283278.6363165941, 9, 3, 4,60,2085792.299279986, 9, 7,20,10
61,301924526.0238348,58759.40635443481, 9, 2, 1,10,854682.2742463244, 9, 2,20,10
134,70666020.44019979,42376.01200569399, 9, 2, 4,10,104369.48322671017, 9, 7,20,10
170,5241013.419656074,232.27731661587313, 9, 2, 4,10,11650.931360040839, 9, 7,12,10
207,6509451.13922266,543.5021409221355, 9, 2, 3,10,15327.095199349082, 9, 7,10,10
244,12749673.39982522,1014.5707620042115, 9, 2, 4,10,35359.08742820678, 9, 7,20,10
281,46165882.48149605,39959.06841621388, 9, 2, 5,10,54634.54471212738, 9, 2,19,10
318,0.0,0.0, 9, 2, 1,10,0.0, 9, 2, 1,10
355,616627685.141278,12374.216038804521, 9, 2, 4,10,3829218.154066982, 9, 3,18,60
403,197687796.27748126,12374.216038804521, 9, 2, 4,10,483183.26346918393, 9, 7,18,10
476,106772067.24485692,4732.048419519677, 9, 2, 4,10,237357.535085481, 9, 7,12,10
513,0.0,0.0, 9, 2, 1,10,0.0, 9, 2, 1,10
562,68833125.84001483,17482.068573577573, 9, 3, 4,60,94366.33845827419, 9, 2,10,60
1046,0.0,0.0, 9, 2, 1,10,0.0, 9, 2, 1,10
1096,723165045.608389,159681.1493828877, 9, 3, 4,60,1130176.0759568473, 9, 7,15,60
1134,0.0,0.0, 9, 2, 1,10,0.0, 9, 2, 1,10
1323,418939888.8637965,0.0, 9, 2, 1,10,3375000.0000000005, 9, 5,21,20
1360,5019840.0,4980.0, 9, 2, 1,10,4980.000000000002, 9, 3, 9,60
1388,0.0,0.0, 9, 2, 1,10,0.0, 9, 2, 1,10
1,ANNUAL,  32.54, -93.75,  -6.00,  55.00
5,365
1038,3.333333333333332,0.0, 1, 1, 1,10,0.16666666666666666, 1, 6, 6,10
1039,942.4999999999993,0.0, 1, 1, 1,10,0.16666666666666666, 5,10,15,60
581,0.16109153243655736,0.0, 4,17, 8,52,1.0126982917502658, 3,19,13,60
582,3.0477879891878907,0.0, 1, 1, 4,15,22.46926568747115, 2, 1, 9,52
583,3.734246474086592,0.0, 5,10,23, 2,24.76294119528474, 7, 7,18,51
1115,4953375850.794075,0.0, 1, 1, 1,10,3026404.1390966773,12,16, 6,30
1128,1543440442.3700626,0.0, 1, 1, 1,10,925585.5826760366, 1,16, 7,10
1153,72593229.88403884,0.0, 1, 1, 1,10,63378.93276426856, 1,29, 9,50
1154,906145894.8397753,0.0, 1, 1, 1,10,120000.0, 1, 1, 1,20
1156,209218659.74925995,0.0, 1, 1, 1,10,2018207.1198790763, 2, 2, 7,10
13,41789756682.93079,106115.4183601288, 1, 2, 4,10,4036930.1897090217, 2, 2, 6,10
61,15743207428.39043,58759.40635443481, 1, 1, 1,10,854682.2742463244, 1, 1,20,10
134,3685071073.433083,42376.01200569399, 1, 2, 4,10,104369.48322671017, 1, 1,20,10
170,273393721.45534325,232.27731661587313, 1, 2, 4,10,11650.931360040839, 1, 1,12,10
207,339560869.06955314,543.5021409221355, 1, 2, 3,10,15327.095199349082, 1, 1,10,10
244,664895467.8009839,1014.5707620042115, 1, 2, 4,10,35359.08742820678, 1, 1,20,10
281,2407221015.1057043,39959.06841621388, 1, 1, 5,10,54634.54471212738, 1, 1,19,10
318,0.0,0.0, 1, 1, 1,10,0.0, 1, 1, 1,10
355,35629111088.333145,12374.216038804521, 1, 2, 4,10,3829218.154066983, 5, 2,18,60
403,10310294493.052883,12374.216038804521, 1, 2, 4,10,483183.26346918393, 1, 1,18,10
476,5569688622.065564,4732.048419519677, 1, 2, 4,10,237357.535085481, 1, 1,12,10
513,0.0,0.0, 1, 1, 1,10,0.0, 1, 1, 1,10
562,1990215418.8331053,0.0, 1, 1, 1,10,94366.3384582742, 7, 7,18,20
1046,0.0,0.0, 1, 1, 1,10,0.0, 1, 1, 1,10
1096,17378115735.437157,0.0, 1, 1, 1,10,1161842.8687078771, 7,30,17,60
1134,2731398226.8431306,0.0, 1, 1, 1,10,3525004.5282400944, 2, 2, 6,10
1323,25318816595.284218,0.0, 1, 1, 1,10,3375000.000000001, 1, 3, 9,60
1360,261748800.0,4979.999999999998, 1,31,10,40,4980.000000000002, 1, 4,10,30
1388,0.0,0.0, 1, 1, 1,10,0.0, 1, 1, 1,10
End of Data
 Number of Records Written=          87
