Program Version,EnergyPlus, Version 22.2.0-c249759bad, YMD=2023.09.01 20:49
1,5,Environment Title[],Latitude[deg],Longitude[deg],Time Zone[],Elevation[m]
2,8,Day of Simulation[],Month[],Day of Month[],DST Indicator[1=yes 0=no],Hour[],StartMinute[],EndMinute[],DayType
3,5,Cumulative Day of Simulation[],Month[],Day of Month[],DST Indicator[1=yes 0=no],DayType  ! When Daily Report Variables Requested
4,2,Cumulative Days of Simulation[],Month[]  ! When Monthly Report Variables Requested
5,1,Cumulative Days of Simulation[] ! When Run Period Report Variables Requested
6,1,Calendar Year of Simulation[] ! When Annual Report Variables Requested
581,11,LIVING,AFN Zone Infiltration Air Change Rate [ach] !RunPeriod [Value,Min,Month,Day,Hour,Minute,Max,Month,Day,Hour,Minute]
582,11,ATTIC,AFN Zone Infiltration Air Change Rate [ach] !RunPeriod [Value,Min,Month,Day,Hour,Minute,Max,Month,Day,Hour,Minute]
583,11,CRAWLSPACE,AFN Zone Infiltration Air Change Rate [ach] !RunPeriod [Value,Min,Month,Day,Hour,Minute,Max,Month,Day,Hour,Minute]
1038,11,Facility,Facility Heating Setpoint Not Met Time [hr] !RunPeriod [Value,Min,Month,Day,Hour,Minute,Max,Month,Day,Hour,Minute]
1039,11,Facility,Facility Cooling Setpoint Not Met Time [hr] !RunPeriod [Value,Min,Month,Day,Hour,Minute,Max,Month,Day,Hour,Minute]
1115,11,DX_HEATING_COIL,Heating Coil Heating Energy [J] !RunPeriod [Value,Min,Month,Day,Hour,Minute,Max,Month,Day,Hour,Minute]
1128,11,DX_HEATING_COIL,Heating Coil Electricity Energy [J] !RunPeriod [Value,Min,Month,Day,Hour,Minute,Max,Month,Day,Hour,Minute]
1153,11,DX_HEATING_COIL,Heating Coil Defrost Electricity Energy [J] !RunPeriod [Value,Min,Month,Day,Hour,Minute,Max,Month,Day,Hour,Minute]
1154,11,DX_HEATING_COIL,Heating Coil Crankcase Heater Electricity Energy [J] !RunPeriod [Value,Min,Month,Day,Hour,Minute,Max,Month,Day,Hour,Minute]
1155,11,HEATING_RESISTANCE_BACKUP,Heating Coil Heating Energy [J] !RunPeriod [Value,Min,Month,Day,Hour,Minute,Max,Month,Day,Hour,Minute]
1156,11,HEATING_RESISTANCE_BACKUP,Heating Coil Electricity Energy [J] !RunPeriod [Value,Min,Month,Day,Hour,Minute,Max,Month,Day,Hour,Minute]
1292,11,WATER HEATER,Water Heater Heat Loss Energy [J] !RunPeriod [Value,Min,Month,Day,Hour,Minute,Max,Month,Day,Hour,Minute]
1306,11,WATER HEATER,Water Heater Heating Energy [J] !RunPeriod [Value,Min,Month,Day,Hour,Minute,Max,Month,Day,Hour,Minute]
1307,11,WATER HEATER,Water Heater Unmet Demand Heat Transfer Energy [J] !RunPeriod [Value,Min,Month,Day,Hour,Minute,Max,Month,Day,Hour,Minute]
1308,11,WATER HEATER,Water Heater Electricity Energy [J] !RunPeriod [Value,Min,Month,Day,Hour,Minute,Max,Month,Day,Hour,Minute]
13,11,Electricity:Facility [J] !RunPeriod [Value,Min,Month,Day,Hour,Minute,Max,Month,Day,Hour,Minute]
1134,11,Heating:Electricity [J] !RunPeriod [Value,Min,Month,Day,Hour,Minute,Max,Month,Day,Hour,Minute]
1096,11,Cooling:Electricity [J] !RunPeriod [Value,Min,Month,Day,Hour,Minute,Max,Month,Day,Hour,Minute]
562,11,Fans:Electricity [J] !RunPeriod [Value,Min,Month,Day,Hour,Minute,Max,Month,Day,Hour,Minute]
1379,11,Pumps:Electricity [J] !RunPeriod [Value,Min,Month,Day,Hour,Minute,Max,Month,Day,Hour,Minute]
1326,11,WaterSystems:Electricity [J] !RunPeriod [Value,Min,Month,Day,Hour,Minute,Max,Month,Day,Hour,Minute]
61,11,InteriorLights:Electricity [J] !RunPeriod [Value,Min,Month,Day,Hour,Minute,Max,Month,Day,Hour,Minute]
1046,11,ExteriorLights:Electricity [J] !RunPeriod [Value,Min,Month,Day,Hour,Minute,Max,Month,Day,Hour,Minute]
134,11,InteriorEquipment:Electricity [J] !RunPeriod [Value,Min,Month,Day,Hour,Minute,Max,Month,Day,Hour,Minute]
170,11,gas_dryer:InteriorEquipment:Electricity [J] !RunPeriod [Value,Min,Month,Day,Hour,Minute,Max,Month,Day,Hour,Minute]
207,11,clotheswasher:InteriorEquipment:Electricity [J] !RunPeriod [Value,Min,Month,Day,Hour,Minute,Max,Month,Day,Hour,Minute]
244,11,dishwasher:InteriorEquipment:Electricity [J] !RunPeriod [Value,Min,Month,Day,Hour,Minute,Max,Month,Day,Hour,Minute]
281,11,refrigerator:InteriorEquipment:Electricity [J] !RunPeriod [Value,Min,Month,Day,Hour,Minute,Max,Month,Day,Hour,Minute]
318,11,electric_mels:InteriorEquipment:Electricity [J] !RunPeriod [Value,Min,Month,Day,Hour,Minute,Max,Month,Day,Hour,Minute]
355,11,NaturalGas:Facility [J] !RunPeriod [Value,Min,Month,Day,Hour,Minute,Max,Month,Day,Hour,Minute]
403,11,InteriorEquipment:NaturalGas [J] !RunPeriod [Value,Min,Month,Day,Hour,Minute,Max,Month,Day,Hour,Minute]
476,11,gas_dryer:InteriorEquipment:NaturalGas [J] !RunPeriod [Value,Min,Month,Day,Hour,Minute,Max,Month,Day,Hour,Minute]
513,11,gas_mels:InteriorEquipment:NaturalGas [J] !RunPeriod [Value,Min,Month,Day,Hour,Minute,Max,Month,Day,Hour,Minute]
End of Data Dictionary
1,EXTREME_WINTER,  39.22,-106.87,  -7.00,2384.00
5,15
1038,4.25,0.0,12,22, 1,15,0.25,12,27, 6,15
1039,0.0,0.0,12,22, 1,15,0.0,12,22, 1,15
581,0.4008312288910372,0.21641696157604, 1, 5,23,10,0.7237699245889041,12,23,17,55
582,1.892132379664134,0.0,12,25, 7,45,10.175119129766676,12,23,17,50
583,0.06648675047403292,0.000341304571448489, 1, 5,16,60,0.10016085660600119,12,24, 4,60
1115,3800505282.565453,0.0,12,22,23, 3,4474343.424705985, 1, 5, 4,45
1128,1491698594.0267262,0.0,12,22,23, 3,1531335.1552502008,12,23, 6,45
1153,30372461.535420742,0.0,12,22,23, 3,78640.88436591665,12,25, 8,60
1154,77111591.25354336,0.0,12,22, 6, 5,180000.0, 1, 3,15,60
1155,1622809296.4881392,0.0,12,22, 1,15,6195017.89280574,12,27, 6,45
1156,1622809296.4881392,0.0,12,22, 1,15,6195017.89280574,12,27, 6,45
1292,-53474820.49929152,-39816.290146386054,12,22, 1,15,-3006.4466822356408, 1, 2,10,31
1306,832699538.6711628,0.0,12,22, 1,15,4050000.0,12,22,21,45
1307,402300574.88806117,0.0,12,22, 1,15,16593171.505954709,12,28, 9,45
1308,832699538.6711628,0.0,12,22, 1,15,4050000.0,12,22,21,45
13,5026463593.775495,452017.0388981225,12,26,15,60,11003957.35460962,12,27, 8,45
61,646981127.1939323,88139.10953165221,12,22, 1,15,1282023.4113694867,12,22,20,15
134,151290040.75163814,63564.01800854099,12,22, 4,15,156554.22484006523,12,27,20,15
170,11185820.069951689,348.4159749238097,12,22, 4,15,17476.39704006126,12,27,12,15
207,13893028.5742839,815.2532113832032,12,22, 3,15,22990.642799023623,12,27,10,15
244,27284301.07562584,1521.856143006317,12,22, 4,15,53038.631142310165,12,27,20,15
281,98926891.03177746,59938.60262432081,12,22, 5,15,81951.81706819107,12,22,19,15
318,0.0,0.0,12,22, 1,15,0.0,12,22, 1,15
355,422701517.16107386,18561.32405820678,12,22, 4,15,724774.895203776,12,27,18,15
403,422701517.16107386,18561.32405820678,12,22, 4,15,724774.895203776,12,27,18,15
476,227882097.80545202,7098.072629279515,12,22, 4,15,356036.3026282215,12,27,12,15
513,0.0,0.0,12,22, 1,15,0.0,12,22, 1,15
562,173500943.85491216,0.0,12,26,15,60,172007.9397096447,12,27,10,60
1046,0.0,0.0,12,22, 1,15,0.0,12,22, 1,15
1096,0.0,0.0,12,22, 1,15,0.0,12,22, 1,15
1134,3221991943.3038297,180000.0,12,26,15,60,7576384.872713534, 1, 2, 6,60
1326,832699538.6711628,0.0,12,22, 1,15,4050000.0,12,22, 9,60
1379,0.0,0.0,12,22, 1,15,0.0,12,22, 1,15
1,EXTREME_SUMMER,  39.22,-106.87,  -7.00,2384.00
5,7
1038,0.0,0.0, 6,29, 1,15,0.0, 6,29, 1,15
1039,0.0,0.0, 6,29, 1,15,0.0, 6,29, 1,15
581,0.20575945862870146,0.09205574932221562, 7, 1, 6,50,0.4728153396446924, 7, 5,16,50
582,3.068973479677166,0.0, 6,29, 7,42,10.001900371353186, 7, 5,17,52
583,0.0281051766615987,0.0002219869332871154, 7, 3, 4, 5,0.0719029785626074, 7, 2,18,46
1115,0.0,0.0, 6,29, 1,15,0.0, 6,29, 1,15
1128,0.0,0.0, 6,29, 1,15,0.0, 6,29, 1,15
1153,0.0,0.0, 6,29, 1,15,0.0, 6,29, 1,15
1154,2340000.0,0.0, 6,29, 1,15,180000.0, 7, 3, 4,60
1155,0.0,0.0, 6,29, 1,15,0.0, 6,29, 1,15
1156,0.0,0.0, 6,29, 1,15,0.0, 6,29, 1,15
1292,-21931562.99444587,-34840.763580337116, 6,30, 5,60,-1517.4706707399266, 7, 3, 9,60
1306,341215801.22983456,0.0, 6,29, 1,15,4050000.0, 6,29,16,60
1307,151168980.47947004,0.0, 6,29, 1,15,6152011.20288199, 6,29,16,45
1308,341215801.22983456,0.0, 6,29, 1,15,4050000.0, 6,29,16,60
13,1051874522.2825246,151703.1275401932, 6,29, 4,15,6492720.793239086, 7, 3,20,15
61,301924526.02383536,88139.10953165221, 6,29, 1,15,1282023.4113694867, 6,29,20,15
134,70666020.44019976,63564.01800854099, 6,29, 4,15,156554.22484006523, 7, 4,20,15
170,5241013.419656067,348.4159749238097, 6,29, 4,15,17476.39704006126, 7, 4,12,15
207,6509451.13922267,815.2532113832032, 6,29, 3,15,22990.642799023623, 7, 4,10,15
244,12749673.399825225,1521.856143006317, 6,29, 4,15,53038.631142310165, 7, 4,20,15
281,46165882.481495745,59938.60262432081, 6,29, 5,15,81951.81706819107, 6,29,19,15
318,0.0,0.0, 6,29, 1,15,0.0, 6,29, 1,15
355,197687796.27748066,18561.32405820678, 6,29, 4,15,724774.895203776, 7, 4,18,15
403,197687796.27748066,18561.32405820678, 6,29, 4,15,724774.895203776, 7, 4,18,15
476,106772067.24485716,7098.072629279515, 6,29, 4,15,356036.3026282215, 7, 4,12,15
513,0.0,0.0, 6,29, 1,15,0.0, 6,29, 1,15
562,36648206.42730103,0.0, 6,29, 2,15,144472.99976343173, 7, 2,18,30
1046,0.0,0.0, 6,29, 1,15,0.0, 6,29, 1,15
1096,299079968.16135395,0.0, 6,29, 2,15,1299558.0318212367, 7, 2,18,30
1134,2340000.0,0.0, 6,29, 1,15,180000.0, 7, 2, 5,45
1326,341215801.2298346,0.0, 6,29, 1,15,4050000.0000000014, 6,29, 8,30
1379,0.0,0.0, 6,29, 1,15,0.0, 6,29, 1,15
1,ANNUAL,  39.22,-106.87,  -7.00,2384.00
5,365
1038,3.25,0.0, 1, 1, 1,15,0.25, 1, 1, 6,15
1039,19.25,0.0, 1, 1, 1,15,0.25, 2, 4,16,45
581,0.2744253921091162,0.06118661084617147, 9, 2, 8,46,1.0217008454120884, 4,28,13,48
582,2.5096879590994847,0.0, 1, 3,20,52,19.479255914273644, 4,28,13,46
583,0.02866400378691868,0.000016711101215722178, 9,11, 8,45,0.10087268584321722, 1, 1, 6,60
1115,31102321239.58107,0.0, 1, 1,15,22,4877715.689302034, 2,14, 6,45
1128,11058124688.338465,0.0, 1, 1,15,22,1612426.2083174498, 3, 8, 7,30
1153,378998015.42887145,0.0, 1, 1,15,22,127617.991913128,11,23, 6,45
1154,2725130093.145539,0.0, 1, 1, 1, 7,180000.0, 1, 3,15,60
1155,4808284627.78295,0.0, 1, 1,11,48,6195017.89280574, 1, 1, 6,45
1156,4808284627.78295,0.0, 1, 1,11,48,6195017.89280574, 1, 1, 6,45
1292,-1226803911.579372,-39821.06890353239, 3, 1, 1,45,-1184.9113970780538, 9,22,10, 1
1306,19043721000.759434,0.0, 1, 1, 1, 7,4050000.0, 1, 1,21,15
1307,8894317269.883991,0.0, 1, 1, 1, 7,18370026.102682956, 4,28, 9,60
1308,19043721000.759434,0.0, 1, 1, 1, 7,4050000.0, 1, 1,21,15
13,63614738911.65908,151703.1275401932, 5,29, 4,15,11805712.360895893,12,27, 8,60
61,15743207428.383959,88139.10953165221, 1, 1, 1,15,1282023.4113694867, 1, 1,20,15
134,3685071073.4325233,63564.01800854099, 1, 2, 4,15,156554.22484006523, 1, 1,20,15
170,273393721.45532674,348.4159749238097, 1, 2, 4,15,17476.39704006126, 1, 1,12,15
207,339560869.0695816,815.2532113832032, 1, 2, 3,15,22990.642799023623, 1, 1,10,15
244,664895467.8009144,1521.856143006317, 1, 2, 4,15,53038.631142310165, 1, 1,20,15
281,2407221015.106824,59938.60262432081, 1, 1, 5,15,81951.81706819107, 1, 1,19,15
318,0.0,0.0, 1, 1, 1,15,0.0, 1, 1, 1,15
355,10310294493.051695,18561.32405820678, 1, 2, 4,15,724774.895203776, 1, 1,18,15
403,10310294493.051695,18561.32405820678, 1, 2, 4,15,724774.895203776, 1, 1,18,15
476,5569688622.066177,7098.072629279515, 1, 2, 4,15,356036.3026282215, 1, 1,12,15
513,0.0,0.0, 1, 1, 1,15,0.0, 1, 1, 1,15
562,1828002069.070529,0.0, 1, 1,15,30,172007.9397096447,12,27,10,60
1046,0.0,0.0, 1, 1, 1,15,0.0, 1, 1, 1,15
1096,4344199915.315482,0.0, 1, 1, 1,15,1397081.3892039382, 7, 2,18,15
1134,18970537424.695717,0.0, 1,30,14,60,7590168.04358006, 1,12, 6,15
1326,19043721000.75941,0.0, 1, 1, 1,15,4050000.0000000014, 2,28,10,60
1379,0.0,0.0, 1, 1, 1,15,0.0, 1, 1, 1,15
End of Data
 Number of Records Written=          99
