Program Version,EnergyPlus, Version 22.2.0-c249759bad, YMD=2023.07.07 15:22
1,5,Environment Title[],Latitude[deg],Longitude[deg],Time Zone[],Elevation[m]
2,8,Day of Simulation[],Month[],Day of Month[],DST Indicator[1=yes 0=no],Hour[],StartMinute[],EndMinute[],DayType
3,5,Cumulative Day of Simulation[],Month[],Day of Month[],DST Indicator[1=yes 0=no],DayType  ! When Daily Report Variables Requested
4,2,Cumulative Days of Simulation[],Month[]  ! When Monthly Report Variables Requested
5,1,Cumulative Days of Simulation[] ! When Run Period Report Variables Requested
6,1,Calendar Year of Simulation[] ! When Annual Report Variables Requested
581,11,LIVING,AFN Zone Infiltration Air Change Rate [ach] !RunPeriod [Value,Min,Month,Day,Hour,Minute,Max,Month,Day,Hour,Minute]
582,11,ATTIC,AFN Zone Infiltration Air Change Rate [ach] !RunPeriod [Value,Min,Month,Day,Hour,Minute,Max,Month,Day,Hour,Minute]
583,11,CRAWLSPACE,AFN Zone Infiltration Air Change Rate [ach] !RunPeriod [Value,Min,Month,Day,Hour,Minute,Max,Month,Day,Hour,Minute]
1038,11,Facility,Facility Heating Setpoint Not Met Time [hr] !RunPeriod [Value,Min,Month,Day,Hour,Minute,Max,Month,Day,Hour,Minute]
1039,11,Facility,Facility Cooling Setpoint Not Met Time [hr] !RunPeriod [Value,Min,Month,Day,Hour,Minute,Max,Month,Day,Hour,Minute]
1115,11,DX_HEATING_COIL,Heating Coil Heating Energy [J] !RunPeriod [Value,Min,Month,Day,Hour,Minute,Max,Month,Day,Hour,Minute]
1128,11,DX_HEATING_COIL,Heating Coil Electricity Energy [J] !RunPeriod [Value,Min,Month,Day,Hour,Minute,Max,Month,Day,Hour,Minute]
1153,11,DX_HEATING_COIL,Heating Coil Defrost Electricity Energy [J] !RunPeriod [Value,Min,Month,Day,Hour,Minute,Max,Month,Day,Hour,Minute]
1154,11,DX_HEATING_COIL,Heating Coil Crankcase Heater Electricity Energy [J] !RunPeriod [Value,Min,Month,Day,Hour,Minute,Max,Month,Day,Hour,Minute]
1156,11,HEATING_RESISTANCE_BACKUP,Heating Coil Electricity Energy [J] !RunPeriod [Value,Min,Month,Day,Hour,Minute,Max,Month,Day,Hour,Minute]
13,11,Electricity:Facility [J] !RunPeriod [Value,Min,Month,Day,Hour,Minute,Max,Month,Day,Hour,Minute]
1134,11,Heating:Electricity [J] !RunPeriod [Value,Min,Month,Day,Hour,Minute,Max,Month,Day,Hour,Minute]
1096,11,Cooling:Electricity [J] !RunPeriod [Value,Min,Month,Day,Hour,Minute,Max,Month,Day,Hour,Minute]
562,11,Fans:Electricity [J] !RunPeriod [Value,Min,Month,Day,Hour,Minute,Max,Month,Day,Hour,Minute]
1388,11,Pumps:Electricity [J] !RunPeriod [Value,Min,Month,Day,Hour,Minute,Max,Month,Day,Hour,Minute]
1360,11,WaterSystems:Electricity [J] !RunPeriod [Value,Min,Month,Day,Hour,Minute,Max,Month,Day,Hour,Minute]
61,11,InteriorLights:Electricity [J] !RunPeriod [Value,Min,Month,Day,Hour,Minute,Max,Month,Day,Hour,Minute]
1046,11,ExteriorLights:Electricity [J] !RunPeriod [Value,Min,Month,Day,Hour,Minute,Max,Month,Day,Hour,Minute]
134,11,InteriorEquipment:Electricity [J] !RunPeriod [Value,Min,Month,Day,Hour,Minute,Max,Month,Day,Hour,Minute]
170,11,gas_dryer:InteriorEquipment:Electricity [J] !RunPeriod [Value,Min,Month,Day,Hour,Minute,Max,Month,Day,Hour,Minute]
207,11,clotheswasher:InteriorEquipment:Electricity [J] !RunPeriod [Value,Min,Month,Day,Hour,Minute,Max,Month,Day,Hour,Minute]
244,11,dishwasher:InteriorEquipment:Electricity [J] !RunPeriod [Value,Min,Month,Day,Hour,Minute,Max,Month,Day,Hour,Minute]
281,11,refrigerator:InteriorEquipment:Electricity [J] !RunPeriod [Value,Min,Month,Day,Hour,Minute,Max,Month,Day,Hour,Minute]
318,11,electric_mels:InteriorEquipment:Electricity [J] !RunPeriod [Value,Min,Month,Day,Hour,Minute,Max,Month,Day,Hour,Minute]
355,11,NaturalGas:Facility [J] !RunPeriod [Value,Min,Month,Day,Hour,Minute,Max,Month,Day,Hour,Minute]
1323,11,WaterSystems:NaturalGas [J] !RunPeriod [Value,Min,Month,Day,Hour,Minute,Max,Month,Day,Hour,Minute]
403,11,InteriorEquipment:NaturalGas [J] !RunPeriod [Value,Min,Month,Day,Hour,Minute,Max,Month,Day,Hour,Minute]
476,11,gas_dryer:InteriorEquipment:NaturalGas [J] !RunPeriod [Value,Min,Month,Day,Hour,Minute,Max,Month,Day,Hour,Minute]
513,11,gas_mels:InteriorEquipment:NaturalGas [J] !RunPeriod [Value,Min,Month,Day,Hour,Minute,Max,Month,Day,Hour,Minute]
End of Data Dictionary
1,EXTREME_WINTER,  42.95, -87.90,  -6.00, 211.00
5,7
1038,9.666666666666664,0.0, 1, 8, 1,10,0.16666666666666666, 1, 8, 6,10
1039,0.0,0.0, 1, 8, 1,10,0.0, 1, 8, 1,10
581,0.4017619322757187,0.2244289504223181, 1,11,23,20,0.8210239087320376, 1, 8,11,60
582,6.088857383259667,0.0, 1,14, 5,59,15.588198574988823, 1, 8,22,57
583,7.488501215172609,0.15822958939853907, 1,11,23, 6,20.63547973866781, 1, 8,11,60
1115,2337334506.518028,0.0, 1, 8,23, 2,2879770.808287898, 1,12, 2,60
1128,836155047.2082767,0.0, 1, 8,23, 2,906771.8613534461, 1,12,17,60
1153,6026429.074988581,0.0, 1, 8,23, 2,18694.472862318507, 1,14,22,60
1154,4964436.186302418,0.0, 1, 8, 1, 1,91261.07287051449, 1,11,16,10
1156,1977535697.1699684,0.0, 1, 8,23, 2,4816959.9049908025, 1, 8, 7,10
13,3295447892.664296,534486.911905512, 1,11,15,50,6175473.816164408, 1, 8, 7,60
61,301924526.0238348,58759.40635443481, 1, 8, 1,10,854682.2742463244, 1, 8,20,10
134,70666020.44019979,42376.01200569399, 1, 8, 4,10,104369.48322671017, 1,13,20,10
170,5241013.419656074,232.27731661587313, 1, 8, 4,10,11650.931360040839, 1,13,12,10
207,6509451.13922266,543.5021409221355, 1, 8, 3,10,15327.095199349082, 1,13,10,10
244,12749673.39982522,1014.5707620042115, 1, 8, 4,10,35359.08742820678, 1,13,20,10
281,46165882.48149605,39959.06841621388, 1, 8, 5,10,54634.54471212738, 1, 8,19,10
318,0.0,0.0, 1, 8, 1,10,0.0, 1, 8, 1,10
355,739918949.06907,12374.216038804521, 1, 8, 4,10,3829218.154066982, 1, 9,18,60
403,197687796.27748126,12374.216038804521, 1, 8, 4,10,483183.26346918393, 1,13,18,10
476,106772067.24485692,4732.048419519677, 1, 8, 4,10,237357.535085481, 1,13,12,10
513,0.0,0.0, 1, 8, 1,10,0.0, 1, 8, 1,10
562,93155896.56072223,18125.185448318003, 1,11,23,10,96383.43036321532, 1, 8, 1,10
1046,0.0,0.0, 1, 8, 1,10,0.0, 1, 8, 1,10
1096,0.0,0.0, 1, 8, 1,10,0.0, 1, 8, 1,10
1134,2824681609.6395373,270914.58180127427, 1,11,23,10,5650336.614376092, 1, 8,15,40
1323,542231152.7915856,0.0, 1, 8, 1,10,3375000.000000001, 1, 9,10,60
1360,5019840.0,4980.0, 1, 8, 1,30,4980.000000000001, 1, 8, 1,10
1388,0.0,0.0, 1, 8, 1,10,0.0, 1, 8, 1,10
1,EXTREME_SUMMER,  42.95, -87.90,  -6.00, 211.00
5,7
1038,0.0,0.0, 7,15, 1,10,0.0, 7,15, 1,10
1039,39.666666666666664,0.0, 7,15, 1,10,0.16666666666666666, 7,15,17,30
581,0.1317788792455056,0.0, 7,15, 1,15,0.5236872579779339, 7,19,15,60
582,4.627687333728006,0.027938235261502454, 7,21,23,50,19.183809744751507, 7,19,15,60
583,5.019576187592177,0.0, 7,15, 6, 7,17.959238039934302, 7,19,15,60
1115,0.0,0.0, 7,15, 1,10,0.0, 7,15, 1,10
1128,0.0,0.0, 7,15, 1,10,0.0, 7,15, 1,10
1153,0.0,0.0, 7,15, 1,10,0.0, 7,15, 1,10
1154,0.0,0.0, 7,15, 1,10,0.0, 7,15, 1,10
1156,0.0,0.0, 7,15, 1,10,0.0, 7,15, 1,10
13,1053409702.9149104,116889.88195140626, 7,21, 4,50,2101174.7340096505, 7,17,20,10
61,301924526.0238348,58759.40635443481, 7,15, 1,10,854682.2742463244, 7,15,20,10
134,70666020.44019979,42376.01200569399, 7,15, 4,10,104369.48322671017, 7,20,20,10
170,5241013.419656074,232.27731661587313, 7,15, 4,10,11650.931360040839, 7,20,12,10
207,6509451.13922266,543.5021409221355, 7,15, 3,10,15327.095199349082, 7,20,10,10
244,12749673.39982522,1014.5707620042115, 7,15, 4,10,35359.08742820678, 7,20,20,10
281,46165882.48149605,39959.06841621388, 7,15, 5,10,54634.54471212738, 7,15,19,10
318,0.0,0.0, 7,15, 1,10,0.0, 7,15, 1,10
355,641098358.1153332,12374.216038804521, 7,15, 4,10,3829218.154066982, 7,16,18,60
403,197687796.27748126,12374.216038804521, 7,15, 4,10,483183.26346918393, 7,20,18,10
476,106772067.24485692,4732.048419519677, 7,15, 4,10,237357.535085481, 7,20,12,10
513,0.0,0.0, 7,15, 1,10,0.0, 7,15, 1,10
562,61232518.62861196,0.0, 7,20,23,10,96383.4303632153, 7,15,15,10
1046,0.0,0.0, 7,15, 1,10,0.0, 7,15, 1,10
1096,614566797.8222622,0.0, 7,20,23,10,1091103.7081381702, 7,18,14,60
1134,0.0,0.0, 7,15, 1,10,0.0, 7,15, 1,10
1323,443410561.8378507,0.0, 7,15, 1,10,3375000.000000001, 7,19,19,40
1360,5019840.0,4980.0, 7,15, 1,10,4980.000000000002, 7,20, 3,10
1388,0.0,0.0, 7,15, 1,10,0.0, 7,15, 1,10
1,ANNUAL,  42.95, -87.90,  -6.00, 211.00
5,365
1038,40.66666666666659,0.0, 1, 1, 1,10,0.16666666666666666, 1, 5, 6,10
1039,120.33333333333334,0.0, 1, 1, 1,10,0.16666666666666666, 4, 5,16,10
581,0.2705314189083736,0.0, 6, 1, 5,30,1.6270565876832854, 2, 2, 3,60
582,5.007792821910257,0.0, 1, 2, 6,60,31.23169336981638, 2, 2, 3,60
583,5.923040391549252,0.0, 7,14, 6, 7,43.220914749686116, 2, 2, 3,60
1115,35625059883.07734,0.0, 1, 1,23, 3,3350582.4009627146, 4,14, 6,10
1128,11189433974.059734,0.0, 1, 1,23, 3,966447.7218963371,11, 5, 6,30
1153,345858807.73714274,0.0, 1, 1,23, 3,97167.1902538506, 3, 8,16,60
1154,1629389011.234404,0.0, 1, 1, 1,51,120000.0, 1,18,16,20
1156,8186461080.618588,0.0, 1, 1, 1,10,4816959.9049908025, 1, 5, 6,10
13,50012040514.75104,106115.4183601288, 4,18, 4,10,6634910.711694214, 1, 8,19,10
61,15743207428.39043,58759.40635443481, 1, 1, 1,10,854682.2742463244, 1, 1,20,10
134,3685071073.433083,42376.01200569399, 1, 2, 4,10,104369.48322671017, 1, 1,20,10
170,273393721.45534325,232.27731661587313, 1, 2, 4,10,11650.931360040839, 1, 1,12,10
207,339560869.06955314,543.5021409221355, 1, 2, 3,10,15327.095199349082, 1, 1,10,10
244,664895467.8009839,1014.5707620042115, 1, 2, 4,10,35359.08742820678, 1, 1,20,10
281,2407221015.1057043,39959.06841621388, 1, 1, 5,10,54634.54471212738, 1, 1,19,10
318,0.0,0.0, 1, 1, 1,10,0.0, 1, 1, 1,10
355,35768652716.710884,12374.216038804521, 1, 2, 4,10,3829218.154066985,10,31,18,60
403,10310294493.052883,12374.216038804521, 1, 2, 4,10,483183.26346918393, 1, 1,18,10
476,5569688622.065564,4732.048419519677, 1, 2, 4,10,237357.535085481, 1, 1,12,10
513,0.0,0.0, 1, 1, 1,10,0.0, 1, 1, 1,10
562,1976589050.6100023,0.0, 1, 1,23,10,96383.43036321532, 3, 3, 9,20
1046,0.0,0.0, 1, 1, 1,10,0.0, 1, 1, 1,10
1096,6994281288.673984,0.0, 1, 1, 1,10,1092357.005088166, 7,18,14,60
1134,21351142873.649696,0.0, 2,17,17,10,5701268.967478504, 2, 2, 6,10
1323,25458358223.661873,0.0, 1, 1, 1,10,3375000.000000003,10,31,18,60
1360,261748800.0,4979.999999999998, 5,10,12,60,4980.000000000002, 1,30,17,10
1388,0.0,0.0, 1, 1, 1,10,0.0, 1, 1, 1,10
End of Data
 Number of Records Written=          87
