Program Version,EnergyPlus, Version 22.2.0-c249759bad, YMD=2023.09.01 20:51
1,5,Environment Title[],Latitude[deg],Longitude[deg],Time Zone[],Elevation[m]
2,8,Day of Simulation[],Month[],Day of Month[],DST Indicator[1=yes 0=no],Hour[],StartMinute[],EndMinute[],DayType
3,5,Cumulative Day of Simulation[],Month[],Day of Month[],DST Indicator[1=yes 0=no],DayType  ! When Daily Report Variables Requested
4,2,Cumulative Days of Simulation[],Month[]  ! When Monthly Report Variables Requested
5,1,Cumulative Days of Simulation[] ! When Run Period Report Variables Requested
6,1,Calendar Year of Simulation[] ! When Annual Report Variables Requested
581,11,LIVING,AFN Zone Infiltration Air Change Rate [ach] !RunPeriod [Value,Min,Month,Day,Hour,Minute,Max,Month,Day,Hour,Minute]
582,11,ATTIC,AFN Zone Infiltration Air Change Rate [ach] !RunPeriod [Value,Min,Month,Day,Hour,Minute,Max,Month,Day,Hour,Minute]
583,11,CRAWLSPACE,AFN Zone Infiltration Air Change Rate [ach] !RunPeriod [Value,Min,Month,Day,Hour,Minute,Max,Month,Day,Hour,Minute]
1038,11,Facility,Facility Heating Setpoint Not Met Time [hr] !RunPeriod [Value,Min,Month,Day,Hour,Minute,Max,Month,Day,Hour,Minute]
1039,11,Facility,Facility Cooling Setpoint Not Met Time [hr] !RunPeriod [Value,Min,Month,Day,Hour,Minute,Max,Month,Day,Hour,Minute]
1115,11,DX_HEATING_COIL,Heating Coil Heating Energy [J] !RunPeriod [Value,Min,Month,Day,Hour,Minute,Max,Month,Day,Hour,Minute]
1128,11,DX_HEATING_COIL,Heating Coil Electricity Energy [J] !RunPeriod [Value,Min,Month,Day,Hour,Minute,Max,Month,Day,Hour,Minute]
1153,11,DX_HEATING_COIL,Heating Coil Defrost Electricity Energy [J] !RunPeriod [Value,Min,Month,Day,Hour,Minute,Max,Month,Day,Hour,Minute]
1154,11,DX_HEATING_COIL,Heating Coil Crankcase Heater Electricity Energy [J] !RunPeriod [Value,Min,Month,Day,Hour,Minute,Max,Month,Day,Hour,Minute]
1155,11,HEATING_RESISTANCE_BACKUP,Heating Coil Heating Energy [J] !RunPeriod [Value,Min,Month,Day,Hour,Minute,Max,Month,Day,Hour,Minute]
1156,11,HEATING_RESISTANCE_BACKUP,Heating Coil Electricity Energy [J] !RunPeriod [Value,Min,Month,Day,Hour,Minute,Max,Month,Day,Hour,Minute]
1292,11,WATER HEATER,Water Heater Heat Loss Energy [J] !RunPeriod [Value,Min,Month,Day,Hour,Minute,Max,Month,Day,Hour,Minute]
1306,11,WATER HEATER,Water Heater Heating Energy [J] !RunPeriod [Value,Min,Month,Day,Hour,Minute,Max,Month,Day,Hour,Minute]
1307,11,WATER HEATER,Water Heater Unmet Demand Heat Transfer Energy [J] !RunPeriod [Value,Min,Month,Day,Hour,Minute,Max,Month,Day,Hour,Minute]
1308,11,WATER HEATER,Water Heater Electricity Energy [J] !RunPeriod [Value,Min,Month,Day,Hour,Minute,Max,Month,Day,Hour,Minute]
13,11,Electricity:Facility [J] !RunPeriod [Value,Min,Month,Day,Hour,Minute,Max,Month,Day,Hour,Minute]
1134,11,Heating:Electricity [J] !RunPeriod [Value,Min,Month,Day,Hour,Minute,Max,Month,Day,Hour,Minute]
1096,11,Cooling:Electricity [J] !RunPeriod [Value,Min,Month,Day,Hour,Minute,Max,Month,Day,Hour,Minute]
562,11,Fans:Electricity [J] !RunPeriod [Value,Min,Month,Day,Hour,Minute,Max,Month,Day,Hour,Minute]
1379,11,Pumps:Electricity [J] !RunPeriod [Value,Min,Month,Day,Hour,Minute,Max,Month,Day,Hour,Minute]
1326,11,WaterSystems:Electricity [J] !RunPeriod [Value,Min,Month,Day,Hour,Minute,Max,Month,Day,Hour,Minute]
61,11,InteriorLights:Electricity [J] !RunPeriod [Value,Min,Month,Day,Hour,Minute,Max,Month,Day,Hour,Minute]
1046,11,ExteriorLights:Electricity [J] !RunPeriod [Value,Min,Month,Day,Hour,Minute,Max,Month,Day,Hour,Minute]
134,11,InteriorEquipment:Electricity [J] !RunPeriod [Value,Min,Month,Day,Hour,Minute,Max,Month,Day,Hour,Minute]
170,11,gas_dryer:InteriorEquipment:Electricity [J] !RunPeriod [Value,Min,Month,Day,Hour,Minute,Max,Month,Day,Hour,Minute]
207,11,clotheswasher:InteriorEquipment:Electricity [J] !RunPeriod [Value,Min,Month,Day,Hour,Minute,Max,Month,Day,Hour,Minute]
244,11,dishwasher:InteriorEquipment:Electricity [J] !RunPeriod [Value,Min,Month,Day,Hour,Minute,Max,Month,Day,Hour,Minute]
281,11,refrigerator:InteriorEquipment:Electricity [J] !RunPeriod [Value,Min,Month,Day,Hour,Minute,Max,Month,Day,Hour,Minute]
318,11,electric_mels:InteriorEquipment:Electricity [J] !RunPeriod [Value,Min,Month,Day,Hour,Minute,Max,Month,Day,Hour,Minute]
355,11,NaturalGas:Facility [J] !RunPeriod [Value,Min,Month,Day,Hour,Minute,Max,Month,Day,Hour,Minute]
403,11,InteriorEquipment:NaturalGas [J] !RunPeriod [Value,Min,Month,Day,Hour,Minute,Max,Month,Day,Hour,Minute]
476,11,gas_dryer:InteriorEquipment:NaturalGas [J] !RunPeriod [Value,Min,Month,Day,Hour,Minute,Max,Month,Day,Hour,Minute]
513,11,gas_mels:InteriorEquipment:NaturalGas [J] !RunPeriod [Value,Min,Month,Day,Hour,Minute,Max,Month,Day,Hour,Minute]
End of Data Dictionary
1,EXTREME_WINTER,  44.88, -93.22,  -6.00, 255.00
5,7
1038,8.75,0.0, 2, 5, 1,15,0.25, 2, 8, 6,15
1039,0.0,0.0, 2, 5, 1,15,0.0, 2, 5, 1,15
581,0.4421962176656855,0.23177391299543557, 2, 5,23, 7,0.7411035160469237, 2, 7,20,60
582,3.6875224083802656,0.02422278009339671, 2, 5,23,15,11.512624496809552, 2, 9,16,48
583,0.07377519591640203,0.00039001770084516027, 2, 5,23, 7,0.08916414456067488, 2, 7,20,60
1115,1925980883.4173687,0.0, 2, 5,23, 3,4285140.028563543, 2, 6, 6,60
1128,757331635.3173691,0.0, 2, 5,23, 3,1356395.2007270667, 2, 6, 7,30
1153,10723966.453061016,0.0, 2, 5,23, 3,70255.6365071073, 2, 6, 4,60
1154,12831529.995632533,0.0, 2, 5, 3,30,111622.86215867422, 2, 5,23,60
1155,1433762956.1323,0.0, 2, 5, 1,15,6640515.46273346, 2, 8, 6,15
1156,1433762956.1323,0.0, 2, 5, 1,15,6640515.46273346, 2, 8, 6,15
1292,-24988913.25949019,-39785.020125995165, 2, 7, 1,45,-4241.530927922777, 2,10,11,44
1306,394436919.67257667,0.0, 2, 5, 1,15,4050000.0, 2, 5,16,60
1307,193502279.29739794,0.0, 2, 5, 1,15,19242479.878879584, 2, 9, 9,60
1308,394436919.67257667,0.0, 2, 5, 1,15,4050000.0, 2, 5,16,60
13,3069642217.558172,1003736.1912704634, 2, 5,23,15,12351474.779477458, 2,10, 9,45
61,301924526.02383536,88139.10953165221, 2, 5, 1,15,1282023.4113694867, 2, 5,20,15
134,70666020.44019976,63564.01800854099, 2, 5, 4,15,156554.22484006523, 2,10,20,15
170,5241013.419656067,348.4159749238097, 2, 5, 4,15,17476.39704006126, 2,10,12,15
207,6509451.13922267,815.2532113832032, 2, 5, 3,15,22990.642799023623, 2,10,10,15
244,12749673.399825225,1521.856143006317, 2, 5, 4,15,53038.631142310165, 2,10,20,15
281,46165882.481495745,59938.60262432081, 2, 5, 5,15,81951.81706819107, 2, 5,19,15
318,0.0,0.0, 2, 5, 1,15,0.0, 2, 5, 1,15
355,197687796.27748066,18561.32405820678, 2, 5, 4,15,724774.895203776, 2,10,18,15
403,197687796.27748066,18561.32405820678, 2, 5, 4,15,724774.895203776, 2,10,18,15
476,106772067.24485716,7098.072629279515, 2, 5, 4,15,356036.3026282215, 2,10,12,15
513,0.0,0.0, 2, 5, 1,15,0.0, 2, 5, 1,15
562,87964663.52319624,19206.553932799154, 2, 5,23,15,146719.7352038135, 2, 5, 3,45
1046,0.0,0.0, 2, 5, 1,15,0.0, 2, 5, 1,15
1096,0.0,0.0, 2, 5, 1,15,0.0, 2, 5, 1,15
1134,2214650087.89836,337685.1671454699, 2, 5,23,15,7839446.635685073, 2,11, 6,45
1326,394436919.67257684,0.0, 2, 5, 1,15,4050000.0, 2, 5, 9,60
1379,0.0,0.0, 2, 5, 1,15,0.0, 2, 5, 1,15
1,EXTREME_SUMMER,  44.88, -93.22,  -6.00, 255.00
5,7
1038,0.0,0.0, 7,22, 1,15,0.0, 7,22, 1,15
1039,28.25,0.0, 7,22, 1,15,0.25, 7,22,14,30
581,0.16335603300447285,0.0, 7,22,21,52,0.9267555112045046, 7,22, 4,52
582,4.185832158652754,0.07029288913074855, 7,26, 6, 3,17.904949561879643, 7,22, 4,52
583,0.04451156163818907,0.00015660192150737074, 7,26, 6, 7,0.07795249441237624, 7,22, 6, 3
1115,0.0,0.0, 7,22, 1,15,0.0, 7,22, 1,15
1128,0.0,0.0, 7,22, 1,15,0.0, 7,22, 1,15
1153,0.0,0.0, 7,22, 1,15,0.0, 7,22, 1,15
1154,0.0,0.0, 7,22, 1,15,0.0, 7,22, 1,15
1155,0.0,0.0, 7,22, 1,15,0.0, 7,22, 1,15
1156,0.0,0.0, 7,22, 1,15,0.0, 7,22, 1,15
1292,-21790975.357612424,-34341.84259491252, 7,24,10,60,-2382.9836759288132, 7,26, 9,60
1306,291687308.5420414,0.0, 7,22, 1,15,3785094.797826114, 7,24, 9,60
1307,108389220.07817993,0.0, 7,22, 1,15,3026721.3606068315, 7,24, 9,45
1308,291687308.5420414,0.0, 7,22, 1,15,3785094.797826114, 7,24, 9,60
13,1258176284.080479,237182.18142741892, 7,26, 4,60,7144661.07557155, 7,23,20,15
61,301924526.02383536,88139.10953165221, 7,22, 1,15,1282023.4113694867, 7,22,20,15
134,70666020.44019976,63564.01800854099, 7,22, 4,15,156554.22484006523, 7,27,20,15
170,5241013.419656067,348.4159749238097, 7,22, 4,15,17476.39704006126, 7,27,12,15
207,6509451.13922267,815.2532113832032, 7,22, 3,15,22990.642799023623, 7,27,10,15
244,12749673.399825225,1521.856143006317, 7,22, 4,15,53038.631142310165, 7,27,20,15
281,46165882.481495745,59938.60262432081, 7,22, 5,15,81951.81706819107, 7,22,19,15
318,0.0,0.0, 7,22, 1,15,0.0, 7,22, 1,15
355,197687796.27748066,18561.32405820678, 7,22, 4,15,724774.895203776, 7,27,18,15
403,197687796.27748066,18561.32405820678, 7,22, 4,15,724774.895203776, 7,27,18,15
476,106772067.24485716,7098.072629279515, 7,22, 4,15,356036.3026282215, 7,27,12,15
513,0.0,0.0, 7,22, 1,15,0.0, 7,22, 1,15
562,57561271.88232688,9378.499402228848, 7,26, 4,60,146719.7352038135, 7,22,14,15
1046,0.0,0.0, 7,22, 1,15,0.0, 7,22, 1,15
1096,536337157.1920749,76100.55448499686, 7,26, 4,60,1596077.3268520762, 7,23,17,60
1134,0.0,0.0, 7,22, 1,15,0.0, 7,22, 1,15
1326,291687308.5420415,0.0, 7,22, 1,15,4050000.0, 7,22, 8,30
1379,0.0,0.0, 7,22, 1,15,0.0, 7,22, 1,15
1,ANNUAL,  44.88, -93.22,  -6.00, 255.00
5,365
1038,71.5,0.0, 1, 1, 1,15,0.25, 1, 1, 6,15
1039,198.25,0.0, 1, 1, 1,15,0.25, 3,19,18,15
581,0.3078757328811695,0.0, 6,22,23, 3,1.8026582308164458, 6,14,13,52
582,4.967048099889916,0.0, 1, 4,21,37,34.65500100561695, 6,14,13,52
583,0.03687478854458497,0.0, 6,22,23, 3,0.09389100549648823, 1,19,17,50
1115,36105650974.38597,0.0, 1, 1,23, 5,4871661.487476754,10,28, 6,45
1128,12556872256.296976,0.0, 1, 1,23, 5,1454944.8474610243,10,28, 6,45
1153,309452647.517434,0.0, 1, 1,23, 5,118165.92928839104, 3,10, 6,45
1154,1461116454.6326115,0.0, 1, 1, 1, 7,180000.0, 1, 4,15,15
1155,15651577280.372301,0.0, 1, 1,23, 5,6640515.46273346, 1,21, 4,15
1156,15651577280.372301,0.0, 1, 1,23, 5,6640515.46273346, 1,21, 4,15
1292,-1222243564.5474696,-43480.541145277486,12,19, 6,30,-1519.9053908019584, 4,13, 9,46
1306,17798769536.66712,0.0, 1, 1, 1, 7,4050000.0, 1, 1,21,15
1307,7817910546.183659,0.0, 1, 1, 1, 7,19260667.762841206, 2,17, 9,60
1308,17798769536.66712,0.0, 1, 1, 1, 7,4050000.0, 1, 1,21,15
13,77419558836.21779,151703.1275401932, 4, 3, 4,15,12947786.339417133,12,19,20,15
61,15743207428.383959,88139.10953165221, 1, 1, 1,15,1282023.4113694867, 1, 1,20,15
134,3685071073.4325233,63564.01800854099, 1, 2, 4,15,156554.22484006523, 1, 1,20,15
170,273393721.45532674,348.4159749238097, 1, 2, 4,15,17476.39704006126, 1, 1,12,15
207,339560869.0695816,815.2532113832032, 1, 2, 3,15,22990.642799023623, 1, 1,10,15
244,664895467.8009144,1521.856143006317, 1, 2, 4,15,53038.631142310165, 1, 1,20,15
281,2407221015.106824,59938.60262432081, 1, 1, 5,15,81951.81706819107, 1, 1,19,15
318,0.0,0.0, 1, 1, 1,15,0.0, 1, 1, 1,15
355,10310294493.051695,18561.32405820678, 1, 2, 4,15,724774.895203776, 1, 1,18,15
403,10310294493.051695,18561.32405820678, 1, 2, 4,15,724774.895203776, 1, 1,18,15
476,5569688622.066177,7098.072629279515, 1, 2, 4,15,356036.3026282215, 1, 1,12,15
513,0.0,0.0, 1, 1, 1,15,0.0, 1, 1, 1,15
562,2324126480.413586,0.0, 1, 4,14,60,146719.7352038135, 1, 1, 1,15
1046,0.0,0.0, 1, 1, 1,15,0.0, 1, 1, 1,15
1096,7889365678.498904,0.0, 1, 1, 1,15,1599093.60708289, 7,23,17,60
1134,29979018638.819553,0.0, 2,16,14,45,7884593.824456841, 2, 3, 6,45
1326,17798769536.66715,0.0, 1, 1, 1,15,4050000.0000000014, 5, 9, 9,45
1379,0.0,0.0, 1, 1, 1,15,0.0, 1, 1, 1,15
End of Data
 Number of Records Written=          99
