Program Version,EnergyPlus, Version 22.2.0-c249759bad, YMD=2023.07.07 15:18
1,5,Environment Title[],Latitude[deg],Longitude[deg],Time Zone[],Elevation[m]
2,8,Day of Simulation[],Month[],Day of Month[],DST Indicator[1=yes 0=no],Hour[],StartMinute[],EndMinute[],DayType
3,5,Cumulative Day of Simulation[],Month[],Day of Month[],DST Indicator[1=yes 0=no],DayType  ! When Daily Report Variables Requested
4,2,Cumulative Days of Simulation[],Month[]  ! When Monthly Report Variables Requested
5,1,Cumulative Days of Simulation[] ! When Run Period Report Variables Requested
6,1,Calendar Year of Simulation[] ! When Annual Report Variables Requested
581,11,LIVING,AFN Zone Infiltration Air Change Rate [ach] !RunPeriod [Value,Min,Month,Day,Hour,Minute,Max,Month,Day,Hour,Minute]
582,11,ATTIC,AFN Zone Infiltration Air Change Rate [ach] !RunPeriod [Value,Min,Month,Day,Hour,Minute,Max,Month,Day,Hour,Minute]
583,11,CRAWLSPACE,AFN Zone Infiltration Air Change Rate [ach] !RunPeriod [Value,Min,Month,Day,Hour,Minute,Max,Month,Day,Hour,Minute]
1038,11,Facility,Facility Heating Setpoint Not Met Time [hr] !RunPeriod [Value,Min,Month,Day,Hour,Minute,Max,Month,Day,Hour,Minute]
1039,11,Facility,Facility Cooling Setpoint Not Met Time [hr] !RunPeriod [Value,Min,Month,Day,Hour,Minute,Max,Month,Day,Hour,Minute]
1115,11,DX_HEATING_COIL,Heating Coil Heating Energy [J] !RunPeriod [Value,Min,Month,Day,Hour,Minute,Max,Month,Day,Hour,Minute]
1128,11,DX_HEATING_COIL,Heating Coil Electricity Energy [J] !RunPeriod [Value,Min,Month,Day,Hour,Minute,Max,Month,Day,Hour,Minute]
1153,11,DX_HEATING_COIL,Heating Coil Defrost Electricity Energy [J] !RunPeriod [Value,Min,Month,Day,Hour,Minute,Max,Month,Day,Hour,Minute]
1154,11,DX_HEATING_COIL,Heating Coil Crankcase Heater Electricity Energy [J] !RunPeriod [Value,Min,Month,Day,Hour,Minute,Max,Month,Day,Hour,Minute]
1156,11,HEATING_RESISTANCE_BACKUP,Heating Coil Electricity Energy [J] !RunPeriod [Value,Min,Month,Day,Hour,Minute,Max,Month,Day,Hour,Minute]
13,11,Electricity:Facility [J] !RunPeriod [Value,Min,Month,Day,Hour,Minute,Max,Month,Day,Hour,Minute]
1134,11,Heating:Electricity [J] !RunPeriod [Value,Min,Month,Day,Hour,Minute,Max,Month,Day,Hour,Minute]
1096,11,Cooling:Electricity [J] !RunPeriod [Value,Min,Month,Day,Hour,Minute,Max,Month,Day,Hour,Minute]
562,11,Fans:Electricity [J] !RunPeriod [Value,Min,Month,Day,Hour,Minute,Max,Month,Day,Hour,Minute]
1388,11,Pumps:Electricity [J] !RunPeriod [Value,Min,Month,Day,Hour,Minute,Max,Month,Day,Hour,Minute]
1360,11,WaterSystems:Electricity [J] !RunPeriod [Value,Min,Month,Day,Hour,Minute,Max,Month,Day,Hour,Minute]
61,11,InteriorLights:Electricity [J] !RunPeriod [Value,Min,Month,Day,Hour,Minute,Max,Month,Day,Hour,Minute]
1046,11,ExteriorLights:Electricity [J] !RunPeriod [Value,Min,Month,Day,Hour,Minute,Max,Month,Day,Hour,Minute]
134,11,InteriorEquipment:Electricity [J] !RunPeriod [Value,Min,Month,Day,Hour,Minute,Max,Month,Day,Hour,Minute]
170,11,gas_dryer:InteriorEquipment:Electricity [J] !RunPeriod [Value,Min,Month,Day,Hour,Minute,Max,Month,Day,Hour,Minute]
207,11,clotheswasher:InteriorEquipment:Electricity [J] !RunPeriod [Value,Min,Month,Day,Hour,Minute,Max,Month,Day,Hour,Minute]
244,11,dishwasher:InteriorEquipment:Electricity [J] !RunPeriod [Value,Min,Month,Day,Hour,Minute,Max,Month,Day,Hour,Minute]
281,11,refrigerator:InteriorEquipment:Electricity [J] !RunPeriod [Value,Min,Month,Day,Hour,Minute,Max,Month,Day,Hour,Minute]
318,11,electric_mels:InteriorEquipment:Electricity [J] !RunPeriod [Value,Min,Month,Day,Hour,Minute,Max,Month,Day,Hour,Minute]
355,11,NaturalGas:Facility [J] !RunPeriod [Value,Min,Month,Day,Hour,Minute,Max,Month,Day,Hour,Minute]
1323,11,WaterSystems:NaturalGas [J] !RunPeriod [Value,Min,Month,Day,Hour,Minute,Max,Month,Day,Hour,Minute]
403,11,InteriorEquipment:NaturalGas [J] !RunPeriod [Value,Min,Month,Day,Hour,Minute,Max,Month,Day,Hour,Minute]
476,11,gas_dryer:InteriorEquipment:NaturalGas [J] !RunPeriod [Value,Min,Month,Day,Hour,Minute,Max,Month,Day,Hour,Minute]
513,11,gas_mels:InteriorEquipment:NaturalGas [J] !RunPeriod [Value,Min,Month,Day,Hour,Minute,Max,Month,Day,Hour,Minute]
End of Data Dictionary
1,EXTREME_WINTER,  46.84, -92.18,  -6.00, 432.00
5,7
1038,37.66666666666666,0.0, 1,20, 1,10,0.16666666666666666, 1,20, 6,10
1039,0.0,0.0, 1,20, 1,10,0.0, 1,20, 1,10
581,0.43018671163041117,0.29022678193581036, 1,26,23,10,0.8011300867777117, 1,23,15,60
582,5.391729449678947,0.28828833031347734, 1,26, 9,10,16.0550862782241, 1,21,14,55
583,6.705208769843672,0.6738957223016754, 1,24,10,53,19.131566255224506, 1,23,15,55
1115,1727404886.355952,0.0, 1,20,23, 2,2449421.4231479084, 1,26,18,60
1128,729311805.0893289,0.0, 1,20,23, 2,823823.6919198018, 1,26,20,60
1153,2498794.0683343085,0.0, 1,20,23, 2,15471.6301249903, 1,25, 8,60
1154,160000.0,0.0, 1,20, 1, 1,40000.0, 1,26,23, 3
1156,4083245802.927597,0.0, 1,20,23, 2,5537889.442325224, 1,21, 1,50
13,5284880891.544936,1693703.1920444653, 1,26,23,10,7277737.787751851, 1,23,21,40
61,301924526.0238348,58759.40635443481, 1,20, 1,10,854682.2742463244, 1,20,20,10
134,70666020.44019979,42376.01200569399, 1,20, 4,10,104369.48322671017, 1,25,20,10
170,5241013.419656074,232.27731661587313, 1,20, 4,10,11650.931360040839, 1,25,12,10
207,6509451.13922266,543.5021409221355, 1,20, 3,10,15327.095199349082, 1,25,10,10
244,12749673.39982522,1014.5707620042115, 1,20, 4,10,35359.08742820678, 1,25,20,10
281,46165882.48149605,39959.06841621388, 1,20, 5,10,54634.54471212738, 1,20,19,10
318,0.0,0.0, 1,20, 1,10,0.0, 1,20, 1,10
355,747142130.6748464,12374.216038804521, 1,20, 4,10,3829218.1540669827, 1,21,18,60
403,197687796.27748126,12374.216038804521, 1,20, 4,10,483183.26346918393, 1,25,18,10
476,106772067.24485692,4732.048419519677, 1,20, 4,10,237357.535085481, 1,25,12,10
513,0.0,0.0, 1,20, 1,10,0.0, 1,20, 1,10
562,92054102.99564579,60962.982116321706, 1,26,23,10,91444.47317448257, 1,20, 1,10
1046,0.0,0.0, 1,20, 1,10,0.0, 1,20, 1,10
1096,0.0,0.0, 1,20, 1,10,0.0, 1,20, 1,10
1134,4815216402.085261,1193412.0140663441, 1,26,23,10,6266050.67364874, 1,23, 6,10
1323,549454334.3973621,0.0, 1,20, 1,10,3375000.0000000005, 1,20, 9,50
1360,5019840.0,4980.0, 1,20, 1,30,4980.000000000002, 1,24,19,30
1388,0.0,0.0, 1,20, 1,10,0.0, 1,20, 1,10
1,EXTREME_SUMMER,  46.84, -92.18,  -6.00, 432.00
5,7
1038,0.0,0.0, 7,13, 1,10,0.0, 7,13, 1,10
1039,25.999999999999996,0.0, 7,13, 1,10,0.16666666666666666, 7,16,14,30
581,0.16447116262478506,0.0, 7,14,21,40,0.4906420121946001, 7,18,17,60
582,4.725082279140919,0.0, 7,15, 6, 2,15.172664181842352, 7,18,16,55
583,5.2925766311886555,0.0, 7,14,23, 3,17.539523782801172, 7,18,16,55
1115,0.0,0.0, 7,13, 1,10,0.0, 7,13, 1,10
1128,0.0,0.0, 7,13, 1,10,0.0, 7,13, 1,10
1153,0.0,0.0, 7,13, 1,10,0.0, 7,13, 1,10
1154,0.0,0.0, 7,13, 1,10,0.0, 7,13, 1,10
1156,0.0,0.0, 7,13, 1,10,0.0, 7,13, 1,10
13,864325193.8377554,106115.4183601288, 7,16, 4,20,1994575.5317163062, 7,18,20,10
61,301924526.0238348,58759.40635443481, 7,13, 1,10,854682.2742463244, 7,13,20,10
134,70666020.44019979,42376.01200569399, 7,13, 4,10,104369.48322671017, 7,18,20,10
170,5241013.419656074,232.27731661587313, 7,13, 4,10,11650.931360040839, 7,18,12,10
207,6509451.13922266,543.5021409221355, 7,13, 3,10,15327.095199349082, 7,18,10,10
244,12749673.39982522,1014.5707620042115, 7,13, 4,10,35359.08742820678, 7,18,20,10
281,46165882.48149605,39959.06841621388, 7,13, 5,10,54634.54471212738, 7,13,19,10
318,0.0,0.0, 7,13, 1,10,0.0, 7,13, 1,10
355,643022615.7366687,12374.216038804521, 7,13, 4,10,3829218.1540669827, 7,14,18,60
403,197687796.27748126,12374.216038804521, 7,13, 4,10,483183.26346918393, 7,18,18,10
476,106772067.24485692,4732.048419519677, 7,13, 4,10,237357.535085481, 7,18,12,10
513,0.0,0.0, 7,13, 1,10,0.0, 7,13, 1,10
562,47103360.7035914,0.0, 7,13, 6,20,91444.47317448257, 7,16,13,50
1046,0.0,0.0, 7,13, 1,10,0.0, 7,13, 1,10
1096,439611446.6701299,0.0, 7,13, 6,20,989622.2875826587, 7,18,15,60
1134,0.0,0.0, 7,13, 1,10,0.0, 7,13, 1,10
1323,445334819.4591861,0.0, 7,13, 1,10,3375000.0000000005, 7,13,17,10
1360,5019840.0,4980.0, 7,13, 1,10,4980.000000000001, 7,13, 9,50
1388,0.0,0.0, 7,13, 1,10,0.0, 7,13, 1,10
1,ANNUAL,  46.84, -92.18,  -6.00, 432.00
5,365
1038,86.50000000000018,0.0, 1, 1, 1,10,0.16666666666666666, 1, 1, 6,10
1039,94.16666666666666,0.0, 1, 1, 1,10,0.16666666666666666, 4, 9,17,60
581,0.294364453096852,0.0, 7, 6,17,45,1.3260343807475368, 3, 1,20,60
582,5.484544214806211,0.0, 1, 4,23, 8,38.853550059961975, 3, 1,20,60
583,6.048560830778995,0.0, 7,14,23, 3,36.168216650844265, 3, 1,20,60
1115,47560772571.72144,0.0, 1, 1,23, 3,3302298.9182736482,12, 7, 6,40
1128,15615146760.223906,0.0, 1, 1,23, 3,895575.0270340382,12, 7, 6,40
1153,500131444.2072507,0.0, 1, 1,23, 3,99844.92233812744, 2,10, 7,60
1154,1596233785.0234292,0.0, 1, 1, 1, 1,120000.0, 2, 8,15,20
1156,25375651263.54117,0.0, 1, 1,23, 3,5537889.442325224, 1,20, 6,10
13,69544805590.46411,106115.4183601288, 5,24, 4,30,7276937.593574261, 1,23,21,30
61,15743207428.39043,58759.40635443481, 1, 1, 1,10,854682.2742463244, 1, 1,20,10
134,3685071073.433083,42376.01200569399, 1, 2, 4,10,104369.48322671017, 1, 1,20,10
170,273393721.45534325,232.27731661587313, 1, 2, 4,10,11650.931360040839, 1, 1,12,10
207,339560869.06955314,543.5021409221355, 1, 2, 3,10,15327.095199349082, 1, 1,10,10
244,664895467.8009839,1014.5707620042115, 1, 2, 4,10,35359.08742820678, 1, 1,20,10
281,2407221015.1057043,39959.06841621388, 1, 1, 5,10,54634.54471212738, 1, 1,19,10
318,0.0,0.0, 1, 1, 1,10,0.0, 1, 1, 1,10
355,35810921838.22316,12374.216038804521, 1, 2, 4,10,3829218.154066984, 4,14,18,30
403,10310294493.052883,12374.216038804521, 1, 2, 4,10,483183.26346918393, 1, 1,18,10
476,5569688622.065564,4732.048419519677, 1, 2, 4,10,237357.535085481, 1, 1,12,10
513,0.0,0.0, 1, 1, 1,10,0.0, 1, 1, 1,10
562,2291105689.9483805,0.0, 1,10,23,10,91444.47317448257, 1, 1, 1,10
1046,0.0,0.0, 1, 1, 1,10,0.0, 1, 1, 1,10
1096,4476509345.703919,0.0, 1, 1, 1,10,990198.1885456522, 7,18,15,60
1134,43087163252.99557,0.0, 3,12,16,60,6296285.3361525815,12,22, 6,40
1323,25500627345.174263,0.0, 1, 1, 1,10,3375000.000000002, 4,14,18,30
1360,261748800.0,4979.999999999998, 6,11, 9,60,4980.000000000002, 1,11,17,10
1388,0.0,0.0, 1, 1, 1,10,0.0, 1, 1, 1,10
End of Data
 Number of Records Written=          87
