Program Version,EnergyPlus, Version 22.2.0-c249759bad, YMD=2023.07.07 15:22
1,5,Environment Title[],Latitude[deg],Longitude[deg],Time Zone[],Elevation[m]
2,8,Day of Simulation[],Month[],Day of Month[],DST Indicator[1=yes 0=no],Hour[],StartMinute[],EndMinute[],DayType
3,5,Cumulative Day of Simulation[],Month[],Day of Month[],DST Indicator[1=yes 0=no],DayType  ! When Daily Report Variables Requested
4,2,Cumulative Days of Simulation[],Month[]  ! When Monthly Report Variables Requested
5,1,Cumulative Days of Simulation[] ! When Run Period Report Variables Requested
6,1,Calendar Year of Simulation[] ! When Annual Report Variables Requested
581,11,LIVING,AFN Zone Infiltration Air Change Rate [ach] !RunPeriod [Value,Min,Month,Day,Hour,Minute,Max,Month,Day,Hour,Minute]
582,11,ATTIC,AFN Zone Infiltration Air Change Rate [ach] !RunPeriod [Value,Min,Month,Day,Hour,Minute,Max,Month,Day,Hour,Minute]
583,11,CRAWLSPACE,AFN Zone Infiltration Air Change Rate [ach] !RunPeriod [Value,Min,Month,Day,Hour,Minute,Max,Month,Day,Hour,Minute]
1038,11,Facility,Facility Heating Setpoint Not Met Time [hr] !RunPeriod [Value,Min,Month,Day,Hour,Minute,Max,Month,Day,Hour,Minute]
1039,11,Facility,Facility Cooling Setpoint Not Met Time [hr] !RunPeriod [Value,Min,Month,Day,Hour,Minute,Max,Month,Day,Hour,Minute]
1115,11,DX_HEATING_COIL,Heating Coil Heating Energy [J] !RunPeriod [Value,Min,Month,Day,Hour,Minute,Max,Month,Day,Hour,Minute]
1128,11,DX_HEATING_COIL,Heating Coil Electricity Energy [J] !RunPeriod [Value,Min,Month,Day,Hour,Minute,Max,Month,Day,Hour,Minute]
1153,11,DX_HEATING_COIL,Heating Coil Defrost Electricity Energy [J] !RunPeriod [Value,Min,Month,Day,Hour,Minute,Max,Month,Day,Hour,Minute]
1154,11,DX_HEATING_COIL,Heating Coil Crankcase Heater Electricity Energy [J] !RunPeriod [Value,Min,Month,Day,Hour,Minute,Max,Month,Day,Hour,Minute]
1156,11,HEATING_RESISTANCE_BACKUP,Heating Coil Electricity Energy [J] !RunPeriod [Value,Min,Month,Day,Hour,Minute,Max,Month,Day,Hour,Minute]
13,11,Electricity:Facility [J] !RunPeriod [Value,Min,Month,Day,Hour,Minute,Max,Month,Day,Hour,Minute]
1134,11,Heating:Electricity [J] !RunPeriod [Value,Min,Month,Day,Hour,Minute,Max,Month,Day,Hour,Minute]
1096,11,Cooling:Electricity [J] !RunPeriod [Value,Min,Month,Day,Hour,Minute,Max,Month,Day,Hour,Minute]
562,11,Fans:Electricity [J] !RunPeriod [Value,Min,Month,Day,Hour,Minute,Max,Month,Day,Hour,Minute]
1388,11,Pumps:Electricity [J] !RunPeriod [Value,Min,Month,Day,Hour,Minute,Max,Month,Day,Hour,Minute]
1360,11,WaterSystems:Electricity [J] !RunPeriod [Value,Min,Month,Day,Hour,Minute,Max,Month,Day,Hour,Minute]
61,11,InteriorLights:Electricity [J] !RunPeriod [Value,Min,Month,Day,Hour,Minute,Max,Month,Day,Hour,Minute]
1046,11,ExteriorLights:Electricity [J] !RunPeriod [Value,Min,Month,Day,Hour,Minute,Max,Month,Day,Hour,Minute]
134,11,InteriorEquipment:Electricity [J] !RunPeriod [Value,Min,Month,Day,Hour,Minute,Max,Month,Day,Hour,Minute]
170,11,gas_dryer:InteriorEquipment:Electricity [J] !RunPeriod [Value,Min,Month,Day,Hour,Minute,Max,Month,Day,Hour,Minute]
207,11,clotheswasher:InteriorEquipment:Electricity [J] !RunPeriod [Value,Min,Month,Day,Hour,Minute,Max,Month,Day,Hour,Minute]
244,11,dishwasher:InteriorEquipment:Electricity [J] !RunPeriod [Value,Min,Month,Day,Hour,Minute,Max,Month,Day,Hour,Minute]
281,11,refrigerator:InteriorEquipment:Electricity [J] !RunPeriod [Value,Min,Month,Day,Hour,Minute,Max,Month,Day,Hour,Minute]
318,11,electric_mels:InteriorEquipment:Electricity [J] !RunPeriod [Value,Min,Month,Day,Hour,Minute,Max,Month,Day,Hour,Minute]
355,11,NaturalGas:Facility [J] !RunPeriod [Value,Min,Month,Day,Hour,Minute,Max,Month,Day,Hour,Minute]
1323,11,WaterSystems:NaturalGas [J] !RunPeriod [Value,Min,Month,Day,Hour,Minute,Max,Month,Day,Hour,Minute]
403,11,InteriorEquipment:NaturalGas [J] !RunPeriod [Value,Min,Month,Day,Hour,Minute,Max,Month,Day,Hour,Minute]
476,11,gas_dryer:InteriorEquipment:NaturalGas [J] !RunPeriod [Value,Min,Month,Day,Hour,Minute,Max,Month,Day,Hour,Minute]
513,11,gas_mels:InteriorEquipment:NaturalGas [J] !RunPeriod [Value,Min,Month,Day,Hour,Minute,Max,Month,Day,Hour,Minute]
End of Data Dictionary
1,EXTREME_WINTER,  36.90, -76.20,  -5.00,   9.00
5,7
1038,0.5,0.0, 1,15, 1,10,0.16666666666666666, 1,17, 6,10
1039,0.0,0.0, 1,15, 1,10,0.0, 1,15, 1,10
581,0.2545814477577378,0.10818992773636533, 1,17,19,60,0.5111213612919311, 1,19,15,60
582,3.3337220684136404,0.0, 1,15, 3,50,12.377208352561604, 1,17,13,60
583,3.924286321066081,0.00018973027139250018, 1,16,19,39,12.247018026007638, 1,19,15,60
1115,838434015.148335,0.0, 1,15,11, 3,2711264.9877039664, 1,21, 2,20
1128,254619503.9491939,0.0, 1,15,11, 3,842382.6115762048, 1,21, 9,20
1153,10348068.070866702,0.0, 1,15,11, 3,68016.57748597233, 1,20, 6,30
1154,77976000.17817158,0.0, 1,15, 6, 2,120000.0, 1,15,13,20
1156,27030186.252699636,0.0, 1,15, 1, 2,1161646.5360380139, 1,21, 6,40
13,775949230.6363586,186324.6925987483, 1,18,15,10,3137504.341777398, 1,21, 6,10
61,301924526.0238348,58759.40635443481, 1,15, 1,10,854682.2742463244, 1,15,20,10
134,70666020.44019979,42376.01200569399, 1,15, 4,10,104369.48322671017, 1,20,20,10
170,5241013.419656074,232.27731661587313, 1,15, 4,10,11650.931360040839, 1,20,12,10
207,6509451.13922266,543.5021409221355, 1,15, 3,10,15327.095199349082, 1,20,10,10
244,12749673.39982522,1014.5707620042115, 1,15, 4,10,35359.08742820678, 1,20,20,10
281,46165882.48149605,39959.06841621388, 1,15, 5,10,54634.54471212738, 1,15,19,10
318,0.0,0.0, 1,15, 1,10,0.0, 1,15, 1,10
355,742844472.3264937,12374.216038804521, 1,15, 4,10,3829218.154066982, 1,16,18,60
403,197687796.27748126,12374.216038804521, 1,15, 4,10,483183.26346918393, 1,20,18,10
476,106772067.24485692,4732.048419519677, 1,15, 4,10,237357.535085481, 1,20,12,10
513,0.0,0.0, 1,15, 1,10,0.0, 1,15, 1,10
562,26902117.329715382,0.0, 1,15,11,10,87497.47512223011, 1,18, 6,10
1046,0.0,0.0, 1,15, 1,10,0.0, 1,15, 1,10
1096,1462968.3916779733,0.0, 1,15, 1,10,114920.09893917589, 1,18,17,20
1134,369973758.4509318,0.0, 1,17,19,30,2631709.5472787945, 1,21, 6,10
1323,545156676.0490092,0.0, 1,15, 1,10,3375000.0000000005, 1,15, 8,40
1360,5019840.0,4979.999999999999, 1,21, 4,10,4980.000000000002, 1,16,24,40
1388,0.0,0.0, 1,15, 1,10,0.0, 1,15, 1,10
1,EXTREME_SUMMER,  36.90, -76.20,  -5.00,   9.00
5,7
1038,0.0,0.0, 7,15, 1,10,0.0, 7,15, 1,10
1039,72.16666666666664,0.0, 7,15, 1,10,0.16666666666666666, 7,15,13,60
581,0.14144930797364622,0.0, 7,15, 1,25,0.5078402666288071, 7,19,15,55
582,3.977509421502448,0.0, 7,16,21,43,11.288524235780601, 7,19,15,55
583,5.090598096766653,0.0, 7,15, 6, 7,15.547697501004206, 7,19,15,55
1115,0.0,0.0, 7,15, 1,10,0.0, 7,15, 1,10
1128,0.0,0.0, 7,15, 1,10,0.0, 7,15, 1,10
1153,0.0,0.0, 7,15, 1,10,0.0, 7,15, 1,10
1154,0.0,0.0, 7,15, 1,10,0.0, 7,15, 1,10
1156,0.0,0.0, 7,15, 1,10,0.0, 7,15, 1,10
13,1084003119.6404476,203732.7108983, 7,15, 4,60,1935336.343341331, 7,19,20,60
61,301924526.0238348,58759.40635443481, 7,15, 1,10,854682.2742463244, 7,15,20,10
134,70666020.44019979,42376.01200569399, 7,15, 4,10,104369.48322671017, 7,20,20,10
170,5241013.419656074,232.27731661587313, 7,15, 4,10,11650.931360040839, 7,20,12,10
207,6509451.13922266,543.5021409221355, 7,15, 3,10,15327.095199349082, 7,20,10,10
244,12749673.39982522,1014.5707620042115, 7,15, 4,10,35359.08742820678, 7,20,20,10
281,46165882.48149605,39959.06841621388, 7,15, 5,10,54634.54471212738, 7,15,19,10
318,0.0,0.0, 7,15, 1,10,0.0, 7,15, 1,10
355,640349950.415635,12374.216038804521, 7,15, 4,10,3829218.154066982, 7,16,18,60
403,197687796.27748126,12374.216038804521, 7,15, 4,10,483183.26346918393, 7,20,18,10
476,106772067.24485692,4732.048419519677, 7,15, 4,10,237357.535085481, 7,20,12,10
513,0.0,0.0, 7,15, 1,10,0.0, 7,15, 1,10
562,65156604.80015859,9456.665379358645, 7,15, 5,60,87497.47512223011, 7,15,18,10
1046,0.0,0.0, 7,15, 1,10,0.0, 7,15, 1,10
1096,641236128.3762522,82770.53807373338, 7,15, 5,60,932014.1109347871, 7,19,15,60
1134,0.0,0.0, 7,15, 1,10,0.0, 7,15, 1,10
1323,442662154.13815206,0.0, 7,15, 1,10,3375000.0000000005, 7,15,17,10
1360,5019840.0,4980.0, 7,15, 1,10,4980.000000000001, 7,15, 7,30
1388,0.0,0.0, 7,15, 1,10,0.0, 7,15, 1,10
1,ANNUAL,  36.90, -76.20,  -5.00,   9.00
5,365
1038,12.166666666666654,0.0, 1, 1, 1,10,0.16666666666666666, 1, 3, 6,10
1039,850.3333333333327,0.0, 1, 1, 1,10,0.16666666666666666, 2,15,13,60
581,0.230111402828047,0.0, 5,26,20,17,1.0977019580926908,10, 2,16,60
582,4.407618051612825,0.0, 1, 3,24,60,22.358743723911456,10, 2,16,60
583,5.490114044552592,0.0, 6, 2,23, 2,30.71453761427136,10, 2,17,20
1115,8737086017.599747,0.0, 1, 1, 1, 1,3148621.2490439424, 1,31, 6,50
1128,2562552984.6787543,0.0, 1, 1, 1, 1,885681.570492335, 1,31, 6,50
1153,81282024.73294236,0.0, 1, 1, 1, 1,78038.46955667615,12, 8,12,60
1154,1373758889.5550456,0.0, 1, 1, 6, 2,120000.0, 1, 1, 1,30
1156,155416674.70021108,0.0, 1, 1, 1, 1,1258602.072043583, 1, 4, 6,40
13,38564849889.616714,106115.4183601288, 1, 9, 4,10,3527273.2618012903, 1, 3, 6,10
61,15743207428.39043,58759.40635443481, 1, 1, 1,10,854682.2742463244, 1, 1,20,10
134,3685071073.433083,42376.01200569399, 1, 2, 4,10,104369.48322671017, 1, 1,20,10
170,273393721.45534325,232.27731661587313, 1, 2, 4,10,11650.931360040839, 1, 1,12,10
207,339560869.06955314,543.5021409221355, 1, 2, 3,10,15327.095199349082, 1, 1,10,10
244,664895467.8009839,1014.5707620042115, 1, 2, 4,10,35359.08742820678, 1, 1,20,10
281,2407221015.1057043,39959.06841621388, 1, 1, 5,10,54634.54471212738, 1, 1,19,10
318,0.0,0.0, 1, 1, 1,10,0.0, 1, 1, 1,10
355,35669832622.509865,12374.216038804521, 1, 2, 4,10,3829218.154066983,12, 8,18,30
403,10310294493.052883,12374.216038804521, 1, 2, 4,10,483183.26346918393, 1, 1,18,10
476,5569688622.065564,4732.048419519677, 1, 2, 4,10,237357.535085481, 1, 1,12,10
513,0.0,0.0, 1, 1, 1,10,0.0, 1, 1, 1,10
562,1700086372.3444414,0.0, 1, 1, 1,10,87497.47512223011, 1, 3, 6,10
1046,0.0,0.0, 1, 1, 1,10,0.0, 1, 1, 1,10
1096,13001725641.788013,0.0, 1, 1, 1,10,964420.2093492164, 9,24,14,60
1134,4173010573.666946,0.0, 1, 1, 9,60,3022216.4636684074, 1, 3, 6,10
1323,25359538129.461075,0.0, 1, 1, 1,10,3375000.000000002, 7,29,21,40
1360,261748800.0,4979.999999999998, 4,21, 3,20,4980.000000000002, 1,14, 7,60
1388,0.0,0.0, 1, 1, 1,10,0.0, 1, 1, 1,10
End of Data
 Number of Records Written=          87
