Program Version,EnergyPlus, Version 22.2.0-c249759bad, YMD=2023.09.01 20:18
1,5,Environment Title[],Latitude[deg],Longitude[deg],Time Zone[],Elevation[m]
2,8,Day of Simulation[],Month[],Day of Month[],DST Indicator[1=yes 0=no],Hour[],StartMinute[],EndMinute[],DayType
3,5,Cumulative Day of Simulation[],Month[],Day of Month[],DST Indicator[1=yes 0=no],DayType  ! When Daily Report Variables Requested
4,2,Cumulative Days of Simulation[],Month[]  ! When Monthly Report Variables Requested
5,1,Cumulative Days of Simulation[] ! When Run Period Report Variables Requested
6,1,Calendar Year of Simulation[] ! When Annual Report Variables Requested
581,11,LIVING,AFN Zone Infiltration Air Change Rate [ach] !RunPeriod [Value,Min,Month,Day,Hour,Minute,Max,Month,Day,Hour,Minute]
582,11,ATTIC,AFN Zone Infiltration Air Change Rate [ach] !RunPeriod [Value,Min,Month,Day,Hour,Minute,Max,Month,Day,Hour,Minute]
583,11,CRAWLSPACE,AFN Zone Infiltration Air Change Rate [ach] !RunPeriod [Value,Min,Month,Day,Hour,Minute,Max,Month,Day,Hour,Minute]
1038,11,Facility,Facility Heating Setpoint Not Met Time [hr] !RunPeriod [Value,Min,Month,Day,Hour,Minute,Max,Month,Day,Hour,Minute]
1039,11,Facility,Facility Cooling Setpoint Not Met Time [hr] !RunPeriod [Value,Min,Month,Day,Hour,Minute,Max,Month,Day,Hour,Minute]
1115,11,DX_HEATING_COIL,Heating Coil Heating Energy [J] !RunPeriod [Value,Min,Month,Day,Hour,Minute,Max,Month,Day,Hour,Minute]
1128,11,DX_HEATING_COIL,Heating Coil Electricity Energy [J] !RunPeriod [Value,Min,Month,Day,Hour,Minute,Max,Month,Day,Hour,Minute]
1153,11,DX_HEATING_COIL,Heating Coil Defrost Electricity Energy [J] !RunPeriod [Value,Min,Month,Day,Hour,Minute,Max,Month,Day,Hour,Minute]
1154,11,DX_HEATING_COIL,Heating Coil Crankcase Heater Electricity Energy [J] !RunPeriod [Value,Min,Month,Day,Hour,Minute,Max,Month,Day,Hour,Minute]
1155,11,HEATING_RESISTANCE_BACKUP,Heating Coil Heating Energy [J] !RunPeriod [Value,Min,Month,Day,Hour,Minute,Max,Month,Day,Hour,Minute]
1156,11,HEATING_RESISTANCE_BACKUP,Heating Coil Electricity Energy [J] !RunPeriod [Value,Min,Month,Day,Hour,Minute,Max,Month,Day,Hour,Minute]
1292,11,WATER HEATER,Water Heater Heat Loss Energy [J] !RunPeriod [Value,Min,Month,Day,Hour,Minute,Max,Month,Day,Hour,Minute]
1306,11,WATER HEATER,Water Heater Heating Energy [J] !RunPeriod [Value,Min,Month,Day,Hour,Minute,Max,Month,Day,Hour,Minute]
1307,11,WATER HEATER,Water Heater Unmet Demand Heat Transfer Energy [J] !RunPeriod [Value,Min,Month,Day,Hour,Minute,Max,Month,Day,Hour,Minute]
1308,11,WATER HEATER,Water Heater Electricity Energy [J] !RunPeriod [Value,Min,Month,Day,Hour,Minute,Max,Month,Day,Hour,Minute]
13,11,Electricity:Facility [J] !RunPeriod [Value,Min,Month,Day,Hour,Minute,Max,Month,Day,Hour,Minute]
1134,11,Heating:Electricity [J] !RunPeriod [Value,Min,Month,Day,Hour,Minute,Max,Month,Day,Hour,Minute]
1096,11,Cooling:Electricity [J] !RunPeriod [Value,Min,Month,Day,Hour,Minute,Max,Month,Day,Hour,Minute]
562,11,Fans:Electricity [J] !RunPeriod [Value,Min,Month,Day,Hour,Minute,Max,Month,Day,Hour,Minute]
1379,11,Pumps:Electricity [J] !RunPeriod [Value,Min,Month,Day,Hour,Minute,Max,Month,Day,Hour,Minute]
1326,11,WaterSystems:Electricity [J] !RunPeriod [Value,Min,Month,Day,Hour,Minute,Max,Month,Day,Hour,Minute]
61,11,InteriorLights:Electricity [J] !RunPeriod [Value,Min,Month,Day,Hour,Minute,Max,Month,Day,Hour,Minute]
1046,11,ExteriorLights:Electricity [J] !RunPeriod [Value,Min,Month,Day,Hour,Minute,Max,Month,Day,Hour,Minute]
134,11,InteriorEquipment:Electricity [J] !RunPeriod [Value,Min,Month,Day,Hour,Minute,Max,Month,Day,Hour,Minute]
170,11,gas_dryer:InteriorEquipment:Electricity [J] !RunPeriod [Value,Min,Month,Day,Hour,Minute,Max,Month,Day,Hour,Minute]
207,11,clotheswasher:InteriorEquipment:Electricity [J] !RunPeriod [Value,Min,Month,Day,Hour,Minute,Max,Month,Day,Hour,Minute]
244,11,dishwasher:InteriorEquipment:Electricity [J] !RunPeriod [Value,Min,Month,Day,Hour,Minute,Max,Month,Day,Hour,Minute]
281,11,refrigerator:InteriorEquipment:Electricity [J] !RunPeriod [Value,Min,Month,Day,Hour,Minute,Max,Month,Day,Hour,Minute]
318,11,electric_mels:InteriorEquipment:Electricity [J] !RunPeriod [Value,Min,Month,Day,Hour,Minute,Max,Month,Day,Hour,Minute]
355,11,NaturalGas:Facility [J] !RunPeriod [Value,Min,Month,Day,Hour,Minute,Max,Month,Day,Hour,Minute]
403,11,InteriorEquipment:NaturalGas [J] !RunPeriod [Value,Min,Month,Day,Hour,Minute,Max,Month,Day,Hour,Minute]
476,11,gas_dryer:InteriorEquipment:NaturalGas [J] !RunPeriod [Value,Min,Month,Day,Hour,Minute,Max,Month,Day,Hour,Minute]
513,11,gas_mels:InteriorEquipment:NaturalGas [J] !RunPeriod [Value,Min,Month,Day,Hour,Minute,Max,Month,Day,Hour,Minute]
End of Data Dictionary
1,EXTREME_WINTER,  39.18, -76.67,  -5.00,  47.60
5,7
1038,0.5,0.0, 1, 6, 1,15,0.25, 1,10, 6,15
1039,0.0,0.0, 1, 6, 1,15,0.0, 1, 6, 1,15
581,0.35010115040144685,0.1996784878936134, 1, 7,23,15,0.7032171550845694, 1, 9,10,60
582,4.840245195272091,0.0, 1, 7, 7,60,16.469421039492516, 1, 6,15,60
583,0.04609283686029283,0.0003215573223911782, 1, 7,23,15,0.075262744583445, 1, 9,10,60
1115,1660621928.9053183,0.0, 1, 6,23, 3,4094106.0580370813, 1,12,12,45
1128,540071744.420081,0.0, 1, 6,23, 3,1262587.8388868454, 1,12,12,60
1153,6622957.84026328,0.0, 1, 6,23, 3,77915.17180457292, 1, 8, 6,30
1154,40807103.56752994,0.0, 1, 6, 3,60,180000.0, 1, 7,14,30
1155,220927576.3264362,0.0, 1, 6, 1,15,2726258.610565173, 1,11, 6,45
1156,220927576.3264362,0.0, 1, 6, 1,15,2726258.610565173, 1,11, 6,45
1292,-25385454.48098515,-39775.29311040231, 1, 6, 1,15,-7453.2895920111105, 1,11,16,48
1306,124742642.34592383,0.0, 1, 6, 1,15,4050000.0, 1, 6, 7,15
1307,23204000.381908193,0.0, 1, 6, 1,15,7059080.403051342, 1, 6, 6,60
1308,124742642.34592383,0.0, 1, 6, 1,15,4050000.0, 1, 6, 7,15
13,1362911923.3800106,452017.0388981225, 1, 7,15,15,7642455.7774112215, 1, 9, 8,30
61,301924526.02383536,88139.10953165221, 1, 6, 1,15,1282023.4113694867, 1, 6,20,15
134,70666020.44019976,63564.01800854099, 1, 6, 4,15,156554.22484006523, 1,11,20,15
170,5241013.419656067,348.4159749238097, 1, 6, 4,15,17476.39704006126, 1,11,12,15
207,6509451.13922267,815.2532113832032, 1, 6, 3,15,22990.642799023623, 1,11,10,15
244,12749673.399825225,1521.856143006317, 1, 6, 4,15,53038.631142310165, 1,11,20,15
281,46165882.481495745,59938.60262432081, 1, 6, 5,15,81951.81706819107, 1, 6,19,15
318,0.0,0.0, 1, 6, 1,15,0.0, 1, 6, 1,15
355,197687796.27748066,18561.32405820678, 1, 6, 4,15,724774.895203776, 1,11,18,15
403,197687796.27748066,18561.32405820678, 1, 6, 4,15,724774.895203776, 1,11,18,15
476,106772067.24485716,7098.072629279515, 1, 6, 4,15,356036.3026282215, 1,11,12,15
513,0.0,0.0, 1, 6, 1,15,0.0, 1, 6, 1,15
562,57149352.41573997,0.0, 1, 7,13,30,128496.9447945029, 1, 6, 4,15
1046,0.0,0.0, 1, 6, 1,15,0.0, 1, 6, 1,15
1096,0.0,0.0, 1, 6, 1,15,0.0, 1, 6, 1,15
1134,808429382.1543111,180000.0, 1, 7,13,30,4665744.029673571, 1,11, 6,15
1326,124742642.34592384,0.0, 1, 6, 1,15,4050000.0, 1, 6, 7,15
1379,0.0,0.0, 1, 6, 1,15,0.0, 1, 6, 1,15
1,EXTREME_SUMMER,  39.18, -76.67,  -5.00,  47.60
5,7
1038,0.0,0.0, 7,20, 1,15,0.0, 7,20, 1,15
1039,53.75,0.0, 7,20, 1,15,0.25, 7,20,16,45
581,0.09790057734721627,0.0, 7,20,22,50,0.3314244601902212, 7,22,16,46
582,2.940690898984964,0.0016605430813281166, 7,21, 1,60,10.719649201219, 7,23,15,48
583,0.03979844649127492,0.0, 7,21, 6,11,0.06496875745144526, 7,22,16,46
1115,0.0,0.0, 7,20, 1, 7,0.0, 7,20, 1, 7
1128,0.0,0.0, 7,20, 1, 7,0.0, 7,20, 1, 7
1153,0.0,0.0, 7,20, 1, 7,0.0, 7,20, 1, 7
1154,0.0,0.0, 7,20, 1, 7,0.0, 7,20, 1, 7
1155,0.0,0.0, 7,20, 1, 7,0.0, 7,20, 1, 7
1156,0.0,0.0, 7,20, 1, 7,0.0, 7,20, 1, 7
1292,-21726171.133852843,-34090.44872453003, 7,20, 6,30,-3062.954397719647, 7,22, 8,60
1306,91222606.02376,0.0, 7,20, 1, 7,3825087.1641892237, 7,26,13,60
1307,8789268.66067406,0.0, 7,20, 1, 7,2212064.6951308404, 7,20, 6,60
1308,91222606.02376,0.0, 7,20, 1, 7,3825087.1641892237, 7,26,13,60
13,1049082646.6261481,151703.1275401932, 7,22, 4,15,5674332.741843906, 7,26,13,60
61,301924526.02383536,88139.10953165221, 7,20, 1,15,1282023.4113694867, 7,20,20,15
134,70666020.44019976,63564.01800854099, 7,20, 4,15,156554.22484006523, 7,25,20,15
170,5241013.419656067,348.4159749238097, 7,20, 4,15,17476.39704006126, 7,25,12,15
207,6509451.13922267,815.2532113832032, 7,20, 3,15,22990.642799023623, 7,25,10,15
244,12749673.399825225,1521.856143006317, 7,20, 4,15,53038.631142310165, 7,25,20,15
281,46165882.481495745,59938.60262432081, 7,20, 5,15,81951.81706819107, 7,20,19,15
318,0.0,0.0, 7,20, 1,15,0.0, 7,20, 1,15
355,197687796.27748066,18561.32405820678, 7,20, 4,15,724774.895203776, 7,25,18,15
403,197687796.27748066,18561.32405820678, 7,20, 4,15,724774.895203776, 7,25,18,15
476,106772067.24485716,7098.072629279515, 7,20, 4,15,356036.3026282215, 7,25,12,15
513,0.0,0.0, 7,20, 1,15,0.0, 7,20, 1,15
562,54893079.87764312,0.0, 7,21, 6,30,128496.94479450291, 7,20,19,60
1046,0.0,0.0, 7,20, 1,15,0.0, 7,20, 1,15
1096,530376414.26071036,0.0, 7,21, 6,30,1435969.690868143, 7,26,15,60
1134,0.0,0.0, 7,20, 1,15,0.0, 7,20, 1,15
1326,91222606.02375999,0.0, 7,20, 1,15,4050000.0, 7,20, 7,15
1379,0.0,0.0, 7,20, 1,15,0.0, 7,20, 1,15
1,ANNUAL,  39.18, -76.67,  -5.00,  47.60
5,365
1038,12.0,0.0, 1, 1, 1,15,0.25, 1, 3, 6,15
1039,567.75,0.0, 1, 1, 1,15,0.25, 3,18,15,45
581,0.20653432373272756,0.0, 5,20,23, 5,1.141091636822615, 2,19,16,52
582,3.4836817998157388,0.0, 1, 1, 1,52,35.7235798004604, 2,25,15,46
583,0.02505860628148307,0.0, 5,20,23, 5,0.08490721017400174, 1, 2,11,60
1115,18940087167.258335,0.0, 1, 1,23, 3,4225341.341426981, 2,13, 6,60
1128,5892700632.909754,0.0, 1, 1,23, 3,1278135.9115325306,12, 8,13,15
1153,166384367.51963496,0.0, 1, 1,12,37,127339.83282548755, 1,17,12,60
1154,1485503403.4337664,0.0, 1, 1, 6, 5,180000.0, 1, 7,14,30
1155,2069706205.3497362,0.0, 1, 1, 1,15,4016673.086567274, 1, 3, 6,30
1156,2069706205.3497362,0.0, 1, 1, 1,15,4016673.086567274, 1, 3, 6,30
1292,-1219139866.8642051,-39789.8238356949, 1, 1, 1,15,-2081.591177027466, 8,15,15,49
1306,5721595914.262603,0.0, 1, 1, 1,15,4050000.0, 1, 2, 7,15
1307,863426873.9871377,0.0, 1, 1, 1,15,7321615.423155995, 2, 6, 6,60
1308,5721595914.262603,0.0, 1, 1, 1,15,4050000.0, 1, 2, 7,15
13,45371995042.32029,151703.1275401932, 3, 6, 4,15,9723725.935473738, 1,31, 7,30
61,15743207428.383959,88139.10953165221, 1, 1, 1,15,1282023.4113694867, 1, 1,20,15
134,3685071073.4325233,63564.01800854099, 1, 2, 4,15,156554.22484006523, 1, 1,20,15
170,273393721.45532674,348.4159749238097, 1, 2, 4,15,17476.39704006126, 1, 1,12,15
207,339560869.0695816,815.2532113832032, 1, 2, 3,15,22990.642799023623, 1, 1,10,15
244,664895467.8009144,1521.856143006317, 1, 2, 4,15,53038.631142310165, 1, 1,20,15
281,2407221015.106824,59938.60262432081, 1, 1, 5,15,81951.81706819107, 1, 1,19,15
318,0.0,0.0, 1, 1, 1,15,0.0, 1, 1, 1,15
355,10310294493.051695,18561.32405820678, 1, 2, 4,15,724774.895203776, 1, 1,18,15
403,10310294493.051695,18561.32405820678, 1, 2, 4,15,724774.895203776, 1, 1,18,15
476,5569688622.066177,7098.072629279515, 1, 2, 4,15,356036.3026282215, 1, 1,12,15
513,0.0,0.0, 1, 1, 1,15,0.0, 1, 1, 1,15
562,1641408827.4294705,0.0, 1, 7,13,45,128496.94479450291, 1,31,11,15
1046,0.0,0.0, 1, 1, 1,15,0.0, 1, 1, 1,15
1096,8966417189.595968,0.0, 1, 1, 1,15,1438403.147176426, 7,26,15,60
1134,9614294609.212887,0.0, 1,15,12,30,5194660.077297396, 1, 3, 7,30
1326,5721595914.262606,0.0, 1, 1, 1,15,4050000.0000000014,10,21,10,30
1379,0.0,0.0, 1, 1, 1,15,0.0, 1, 1, 1,15
End of Data
 Number of Records Written=          99
