Program Version,EnergyPlus, Version 22.2.0-c249759bad, YMD=2023.09.01 14:31
1,5,Environment Title[],Latitude[deg],Longitude[deg],Time Zone[],Elevation[m]
2,8,Day of Simulation[],Month[],Day of Month[],DST Indicator[1=yes 0=no],Hour[],StartMinute[],EndMinute[],DayType
3,5,Cumulative Day of Simulation[],Month[],Day of Month[],DST Indicator[1=yes 0=no],DayType  ! When Daily Report Variables Requested
4,2,Cumulative Days of Simulation[],Month[]  ! When Monthly Report Variables Requested
5,1,Cumulative Days of Simulation[] ! When Run Period Report Variables Requested
6,1,Calendar Year of Simulation[] ! When Annual Report Variables Requested
7,1,Environment,Site Outdoor Air Drybulb Temperature [C] !Hourly
545,1,LIVING,Zone Mean Air Temperature [C] !Hourly
546,1,ATTIC,Zone Mean Air Temperature [C] !Hourly
547,1,CRAWLSPACE,Zone Mean Air Temperature [C] !Hourly
548,1,FAN,Fan Electricity Rate [W] !Hourly
720,1,LIVING,Zone Predicted Sensible Load to Heating Setpoint Heat Transfer Rate [W] !Hourly
721,1,LIVING,Zone System Predicted Sensible Load to Heating Setpoint Heat Transfer Rate [W] !Hourly
784,1,ATTIC,Zone Predicted Sensible Load to Heating Setpoint Heat Transfer Rate [W] !Hourly
785,1,ATTIC,Zone System Predicted Sensible Load to Heating Setpoint Heat Transfer Rate [W] !Hourly
848,1,CRAWLSPACE,Zone Predicted Sensible Load to Heating Setpoint Heat Transfer Rate [W] !Hourly
849,1,CRAWLSPACE,Zone System Predicted Sensible Load to Heating Setpoint Heat Transfer Rate [W] !Hourly
1121,1,DX_HEATING_COIL,Heating Coil Heating Rate [W] !Hourly
1135,1,DX_HEATING_COIL,Heating Coil Electricity Rate [W] !Hourly
1161,1,DX_HEATING_COIL,Heating Coil Defrost Electricity Rate [W] !Hourly
1163,1,DX_HEATING_COIL,Heating Coil Crankcase Heater Electricity Rate [W] !Hourly
1166,1,HEATING_RESISTANCE_BACKUP,Heating Coil Heating Rate [W] !Hourly
1168,1,HEATING_RESISTANCE_BACKUP,Heating Coil Electricity Rate [W] !Hourly
End of Data Dictionary
1,EXTREME_WINTER,  30.68, -88.25,  -6.00,  67.00
2,1, 1,13, 0, 1, 0.00,60.00,Monday
7,5.6
545,20.814007588380374
546,3.8919664835229266
547,20.18976102413411
548,0.0
720,-1853.4943728514845
721,-1853.4943728514845
784,0.0
785,0.0
848,0.0
849,0.0
1121,0.0
1135,0.0
1161,0.0
1163,200.0
1166,0.0
1168,0.0
2,1, 1,13, 0, 2, 0.00,60.00,Monday
7,5.6
545,20.330358423505807
546,2.4743326479175423
547,19.982307080694795
548,0.0
720,-1226.7214365188902
721,-1226.7214365188902
784,0.0
785,0.0
848,0.0
849,0.0
1121,0.0
1135,0.0
1161,0.0
1163,200.0
1166,0.0
1168,0.0
2,1, 1,13, 0, 3, 0.00,60.00,Monday
7,3.9
545,19.568179488688997
546,1.1407540010990649
547,19.838369433658634
548,0.0
720,-617.5762014032462
721,-617.5762014032462
784,0.0
785,0.0
848,0.0
849,0.0
1121,0.0
1135,0.0
1161,0.0
1163,200.0
1166,0.0
1168,0.0
2,1, 1,13, 0, 4, 0.00,60.00,Monday
7,3.3
545,18.926855737900507
546,0.32120894280377554
547,19.6934882610617
548,0.0
720,-212.3527067088744
721,-212.3527067088744
784,0.0
785,0.0
848,0.0
849,0.0
1121,0.0
1135,0.0
1161,0.0
1163,200.0
1166,0.0
1168,0.0
2,1, 1,13, 0, 5, 0.00,60.00,Monday
7,1.7
545,18.555099747813173
546,0.5929528546042914
547,19.5386526777413
548,13.37660966141361
720,293.27288572599355
721,293.27288572599355
784,0.0
785,0.0
848,0.0
849,0.0
1121,370.46500634446664
1135,120.80878642118425
1161,9.93261320957569
1163,181.84760840355491
1166,0.0
1168,0.0
2,1, 1,13, 0, 6, 0.00,60.00,Monday
7,1.1
545,19.26856583389065
546,0.008296394696998832
547,19.35576588199594
548,53.11617578671364
720,1165.6686831630868
721,1165.6686831630868
784,0.0
785,0.0
848,0.0
849,0.0
1121,1502.1079285248018
1135,475.96141182128395
1161,37.934295604571126
1163,127.8732208083976
1166,0.0
1168,0.0
2,1, 1,13, 0, 7, 0.00,60.00,Monday
7,1.1
545,19.5220548126572
546,-0.3846383359264972
547,19.22318233811983
548,72.74271797189007
720,1522.8929434798883
721,1522.8929434798883
784,0.0
785,0.0
848,0.0
849,0.0
1121,2081.9483295641585
1135,660.8944462497226
1161,51.952726741091396
1163,101.21912664157084
1166,0.0
1168,0.0
2,1, 1,13, 0, 8, 0.00,60.00,Monday
7,3.9
545,19.85746238540355
546,0.5037233179960489
547,19.129060640783358
548,47.727231313900205
720,947.1558807776873
721,947.1558807776873
784,0.0
785,0.0
848,0.0
849,0.0
1121,1416.9133876984654
1135,438.37231132006144
1161,38.817164857772156
1163,135.43649286424545
1166,0.0
1168,0.0
2,1, 1,13, 0, 9, 0.00,60.00,Monday
7,8.3
545,20.02857793470317
546,5.445987832009589
547,19.0396904880185
548,5.482960694537159
720,72.09603944949777
721,72.09603944949777
784,0.0
785,0.0
848,0.0
849,0.0
1121,227.4855859680609
1135,62.598776232742935
1161,0.0
1163,192.62319080523272
1166,0.0
1168,0.0
2,1, 1,13, 0,10, 0.00,60.00,Monday
7,11.7
545,21.057444661710562
546,12.154112562995158
547,18.950109086539737
548,0.0
720,-1070.909527030215
721,-1070.909527030215
784,0.0
785,0.0
848,0.0
849,0.0
1121,0.0
1135,0.0
1161,0.0
1163,0.0
1166,0.0
1168,0.0
2,1, 1,13, 0,11, 0.00,60.00,Monday
7,13.9
545,21.93827952877107
546,17.52911571854557
547,18.89705727553423
548,0.0
720,-1952.1880187807146
721,-1952.1880187807146
784,0.0
785,0.0
848,0.0
849,0.0
1121,0.0
1135,0.0
1161,0.0
1163,0.0
1166,0.0
1168,0.0
2,1, 1,13, 0,12, 0.00,60.00,Monday
7,15.0
545,22.96874040702317
546,22.015407778307576
547,18.881257677923482
548,0.0
720,-2734.2031946242805
721,-2734.2031946242805
784,0.0
785,0.0
848,0.0
849,0.0
1121,0.0
1135,0.0
1161,0.0
1163,0.0
1166,0.0
1168,0.0
2,1, 1,13, 0,13, 0.00,60.00,Monday
7,15.0
545,23.340343147224846
546,24.425619141908495
547,18.91013033604124
548,11.906627319096357
720,-3475.0341712848076
721,-3475.0341712848076
784,0.0
785,0.0
848,0.0
849,0.0
1121,0.0
1135,0.0
1161,0.0
1163,0.0
1166,0.0
1168,0.0
2,1, 1,13, 0,14, 0.00,60.00,Monday
7,16.1
545,23.201607414854188
546,24.6120879387252
547,18.976262288466685
548,30.773803255542788
720,-3778.8272744793194
721,-3778.8272744793194
784,0.0
785,0.0
848,0.0
849,0.0
1121,0.0
1135,0.0
1161,0.0
1163,0.0
1166,0.0
1168,0.0
2,1, 1,13, 0,15, 0.00,60.00,Monday
7,15.6
545,23.197454767088747
546,22.85524956348663
547,19.06439965083572
548,45.57356164763097
720,-5116.2312073982175
721,-5116.2312073982175
784,0.0
785,0.0
848,0.0
849,0.0
1121,0.0
1135,0.0
1161,0.0
1163,0.0
1166,0.0
1168,0.0
2,1, 1,13, 0,16, 0.00,60.00,Monday
7,13.3
545,23.3733943571137
546,21.759783917790763
547,19.153236535033404
548,51.02158074604317
720,-5745.520326902664
721,-5745.520326902664
784,0.0
785,0.0
848,0.0
849,0.0
1121,0.0
1135,0.0
1161,0.0
1163,0.0
1166,0.0
1168,0.0
2,1, 1,13, 0,17, 0.00,60.00,Monday
7,11.7
545,23.23009760209864
546,17.858985025898907
547,19.248903173625976
548,51.000685527603245
720,-5794.101930330024
721,-5794.101930330024
784,0.0
785,0.0
848,0.0
849,0.0
1121,0.0
1135,0.0
1161,0.0
1163,0.0
1166,0.0
1168,0.0
2,1, 1,13, 0,18, 0.00,60.00,Monday
7,10.0
545,23.412297164106025
546,14.96391870145512
547,19.30717511150919
548,24.33477939647876
720,-4792.729215875341
721,-4792.729215875341
784,0.0
785,0.0
848,0.0
849,0.0
1121,0.0
1135,0.0
1161,0.0
1163,0.0
1166,0.0
1168,0.0
2,1, 1,13, 0,19, 0.00,60.00,Monday
7,10.0
545,23.35582644599832
546,12.353514229373962
547,19.367246555915063
548,19.84711515645533
720,-4105.410357464265
721,-4105.410357464265
784,0.0
785,0.0
848,0.0
849,0.0
1121,0.0
1135,0.0
1161,0.0
1163,0.0
1166,0.0
1168,0.0
2,1, 1,13, 0,20, 0.00,60.00,Monday
7,7.2
545,23.098092228286642
546,9.611130966439422
547,19.378190035810505
548,13.391436473616109
720,-3801.174579348439
721,-3801.174579348439
784,0.0
785,0.0
848,0.0
849,0.0
1121,0.0
1135,0.0
1161,0.0
1163,181.983078629738
1166,0.0
1168,0.0
2,1, 1,13, 0,21, 0.00,60.00,Monday
7,6.1
545,23.413107367609918
546,8.031815549049432
547,19.363646775208633
548,0.36558946965582295
720,-3270.730732201242
721,-3270.730732201242
784,0.0
785,0.0
848,0.0
849,0.0
1121,0.0
1135,0.0
1161,0.0
1163,199.50813366873956
1166,0.0
1168,0.0
2,1, 1,13, 0,22, 0.00,60.00,Monday
7,5.0
545,22.748727757758623
546,6.510413565928043
547,19.334094155835448
548,0.0
720,-2493.8426695960443
721,-2493.8426695960443
784,0.0
785,0.0
848,0.0
849,0.0
1121,0.0
1135,0.0
1161,0.0
1163,200.0
1166,0.0
1168,0.0
2,1, 1,13, 0,23, 0.00,60.00,Monday
7,3.9
545,21.98814388778423
546,5.342045811947173
547,19.28709734501644
548,0.0
720,-2832.968138561473
721,-2832.968138561473
784,0.0
785,0.0
848,0.0
849,0.0
1121,0.0
1135,0.0
1161,0.0
1163,200.0
1166,0.0
1168,0.0
2,1, 1,13, 0,24, 0.00,60.00,Monday
7,2.8
545,21.037980347480552
546,4.105488603287771
547,19.222733669999325
548,0.0
720,-2052.341671369839
721,-2052.341671369839
784,0.0
785,0.0
848,0.0
849,0.0
1121,0.0
1135,0.0
1161,0.0
1163,200.0
1166,0.0
1168,0.0
2,2, 1,14, 0, 1, 0.00,60.00,Tuesday
7,2.8
545,20.204333302240727
546,3.4005129917299888
547,19.14217123759727
548,0.0
720,-1365.331539970197
721,-1365.331539970197
784,0.0
785,0.0
848,0.0
849,0.0
1121,0.0
1135,0.0
1161,0.0
1163,200.0
1166,0.0
1168,0.0
2,2, 1,14, 0, 2, 0.00,60.00,Tuesday
7,1.1
545,19.19245099064208
546,2.306496343168491
547,19.049421563038194
548,0.0
720,-490.27250393655413
721,-490.27250393655413
784,0.0
785,0.0
848,0.0
849,0.0
1121,0.0
1135,0.0
1161,0.0
1163,200.0
1166,0.0
1168,0.0
2,2, 1,14, 0, 3, 0.00,60.00,Tuesday
7,0.6
545,18.586541218838544
546,1.6205634675064897
547,18.934085206565083
548,10.407515080988436
720,235.34525887622112
721,235.34525887622112
784,0.0
785,0.0
848,0.0
849,0.0
1121,295.12405426777565
1135,98.60121358336663
1161,3.9131865492746574
1163,185.92586303211465
1166,0.0
1168,0.0
2,2, 1,14, 0, 4, 0.00,60.00,Tuesday
7,-0.6
545,18.53770907219555
546,0.9426773949254261
547,18.784502291244703
548,39.89799724371838
720,872.0359558298132
721,872.0359558298132
784,0.0
785,0.0
848,0.0
849,0.0
1121,1119.133789376588
1135,368.63375316940215
1161,16.03303537089481
1163,145.96228622918596
1166,0.0
1168,0.0
2,2, 1,14, 0, 5, 0.00,60.00,Tuesday
7,-1.1
545,18.60467965067383
546,0.11097162283257983
547,18.662669588347526
548,49.43140958279094
720,1013.6522481805459
721,1013.6522481805459
784,0.0
785,0.0
848,0.0
849,0.0
1121,1373.010185361492
1135,452.953115465484
1161,21.12368343608235
1163,132.9836624715805
1166,0.0
1168,0.0
2,2, 1,14, 0, 6, 0.00,60.00,Tuesday
7,-1.7
545,19.17669070303082
546,0.13469510011961994
547,18.486574202366075
548,97.8883523285021
720,2054.9878248080167
721,2054.9878248080167
784,0.0
785,0.0
848,0.0
849,0.0
1121,2764.8011438990866
1135,890.1415574288515
1161,45.0036092490388
1163,67.1093038785273
1166,0.0
1168,0.0
2,2, 1,14, 0, 7, 0.00,60.00,Tuesday
7,-1.7
545,19.469901365137492
546,0.04786083643927627
547,18.378765955754297
548,116.7240573310181
720,2377.2396807857385
721,2377.2396807857385
784,0.0
785,0.0
848,0.0
849,0.0
1121,3337.9443698068985
1135,1073.311064011997
1161,53.664608967736854
1163,41.53432665044539
1166,0.0
1168,0.0
2,2, 1,14, 0, 8, 0.00,60.00,Tuesday
7,1.1
545,19.786297448203143
546,1.1547431811988067
547,18.314383824944123
548,82.8412317659024
720,1698.6024556182983
721,1698.6024556182983
784,0.0
785,0.0
848,0.0
849,0.0
1121,2523.282039099465
1135,794.036745567024
1161,29.24392192873168
1163,88.05621173575588
1166,0.0
1168,0.0
2,2, 1,14, 0, 9, 0.00,60.00,Tuesday
7,3.9
545,19.908257423682965
546,4.640636161880719
547,18.237730075063812
548,40.425268548875444
720,828.8971333528825
721,828.8971333528825
784,0.0
785,0.0
848,0.0
849,0.0
1121,1317.3634961361738
1135,410.3007723733683
1161,6.530907516654376
1163,145.55786421467425
1166,0.0
1168,0.0
2,2, 1,14, 0,10, 0.00,60.00,Tuesday
7,6.1
545,20.44637011402876
546,12.22382908527063
547,18.17027331279025
548,0.0
720,-337.44124135271704
721,-337.44124135271704
784,0.0
785,0.0
848,0.0
849,0.0
1121,0.0
1135,0.0
1161,0.0
1163,200.0
1166,0.0
1168,0.0
2,2, 1,14, 0,11, 0.00,60.00,Tuesday
7,8.3
545,21.40984777843995
546,21.18377771306845
547,18.12459700843844
548,0.0
720,-1441.1301887245882
721,-1441.1301887245882
784,0.0
785,0.0
848,0.0
849,0.0
1121,0.0
1135,0.0
1161,0.0
1163,200.0
1166,0.0
1168,0.0
2,2, 1,14, 0,12, 0.00,60.00,Tuesday
7,10.0
545,22.189819512393235
546,27.819117184878408
547,18.117534506188434
548,0.0
720,-2081.768816523936
721,-2081.768816523936
784,0.0
785,0.0
848,0.0
849,0.0
1121,0.0
1135,0.0
1161,0.0
1163,0.0
1166,0.0
1168,0.0
2,2, 1,14, 0,13, 0.00,60.00,Tuesday
7,10.0
545,22.98705124520852
546,31.45310105467326
547,18.141734876641376
548,0.0
720,-2648.1191696830574
721,-2648.1191696830574
784,0.0
785,0.0
848,0.0
849,0.0
1121,0.0
1135,0.0
1161,0.0
1163,0.0
1166,0.0
1168,0.0
2,2, 1,14, 0,14, 0.00,60.00,Tuesday
7,12.8
545,23.43825649286526
546,29.134476262712248
547,18.20713041494857
548,11.60414502599691
720,-3113.8697083518346
721,-3113.8697083518346
784,0.0
785,0.0
848,0.0
849,0.0
1121,0.0
1135,0.0
1161,0.0
1163,0.0
1166,0.0
1168,0.0
2,2, 1,14, 0,15, 0.00,60.00,Tuesday
7,12.8
545,23.466256044429322
546,27.632537033882908
547,18.31979897642068
548,35.54586564386306
720,-4424.691796710014
721,-4424.691796710014
784,0.0
785,0.0
848,0.0
849,0.0
1121,0.0
1135,0.0
1161,0.0
1163,0.0
1166,0.0
1168,0.0
2,2, 1,14, 0,16, 0.00,60.00,Tuesday
7,12.2
545,23.351638881414605
546,24.891481343623884
547,18.44650150270018
548,53.43528067843842
720,-5573.551473934684
721,-5573.551473934684
784,0.0
785,0.0
848,0.0
849,0.0
1121,0.0
1135,0.0
1161,0.0
1163,0.0
1166,0.0
1168,0.0
2,2, 1,14, 0,17, 0.00,60.00,Tuesday
7,11.1
545,23.322429447662508
546,22.323100405039863
547,18.561823738785645
548,56.33353696319861
720,-5990.271369148912
721,-5990.271369148912
784,0.0
785,0.0
848,0.0
849,0.0
1121,0.0
1135,0.0
1161,0.0
1163,0.0
1166,0.0
1168,0.0
2,2, 1,14, 0,18, 0.00,60.00,Tuesday
7,7.2
545,23.184345153556883
546,15.555119123064689
547,18.617914987076066
548,25.81693735651468
720,-4804.2093210024395
721,-4804.2093210024395
784,0.0
785,0.0
848,0.0
849,0.0
1121,0.0
1135,0.0
1161,0.0
1163,165.26573297123656
1166,0.0
1168,0.0
2,2, 1,14, 0,19, 0.00,60.00,Tuesday
7,7.2
545,23.375562688344655
546,12.059787000370754
547,18.68452318882931
548,13.22032209653593
720,-3981.6396589644573
721,-3981.6396589644573
784,0.0
785,0.0
848,0.0
849,0.0
1121,0.0
1135,0.0
1161,0.0
1163,182.21329696988764
1166,0.0
1168,0.0
2,2, 1,14, 0,20, 0.00,60.00,Tuesday
7,5.6
545,23.370783476813227
546,8.949142043457698
547,18.719846637155033
548,9.619798593873915
720,-3592.4128109693847
721,-3592.4128109693847
784,0.0
785,0.0
848,0.0
849,0.0
1121,0.0
1135,0.0
1161,0.0
1163,187.05746353611448
1166,0.0
1168,0.0
2,2, 1,14, 0,21, 0.00,60.00,Tuesday
7,4.4
545,23.290316084221942
546,6.2375310625272435
547,18.71880630079616
548,4.538449958400578
720,-3242.977720933428
721,-3242.977720933428
784,0.0
785,0.0
848,0.0
849,0.0
1121,0.0
1135,0.0
1161,0.0
1163,193.8939413852671
1166,0.0
1168,0.0
2,2, 1,14, 0,22, 0.00,60.00,Tuesday
7,2.2
545,22.815005995104556
546,4.17392850819738
547,18.695035011268637
548,0.0
720,-2608.075301904102
721,-2608.075301904102
784,0.0
785,0.0
848,0.0
849,0.0
1121,0.0
1135,0.0
1161,0.0
1163,200.0
1166,0.0
1168,0.0
2,2, 1,14, 0,23, 0.00,60.00,Tuesday
7,1.7
545,22.09638955553064
546,2.357762444821361
547,18.658021526880606
548,0.0
720,-2795.539624952502
721,-2795.539624952502
784,0.0
785,0.0
848,0.0
849,0.0
1121,0.0
1135,0.0
1161,0.0
1163,200.0
1166,0.0
1168,0.0
2,2, 1,14, 0,24, 0.00,60.00,Tuesday
7,1.1
545,21.20453023608968
546,0.5735735225305498
547,18.60120119140473
548,0.0
720,-2078.2783418870476
721,-2078.2783418870476
784,0.0
785,0.0
848,0.0
849,0.0
1121,0.0
1135,0.0
1161,0.0
1163,200.0
1166,0.0
1168,0.0
2,3, 1,15, 0, 1, 0.00,60.00,Wednesday
7,1.1
545,20.36767965510254
546,-0.8134323273942334
547,18.52960973617129
548,0.0
720,-1408.36236118359
721,-1408.36236118359
784,0.0
785,0.0
848,0.0
849,0.0
1121,0.0
1135,0.0
1161,0.0
1163,200.0
1166,0.0
1168,0.0
2,3, 1,15, 0, 2, 0.00,60.00,Wednesday
7,0.0
545,19.404984381361466
546,-1.1872404370540854
547,18.444576247802026
548,0.0
720,-622.751296319906
721,-622.751296319906
784,0.0
785,0.0
848,0.0
849,0.0
1121,0.0
1135,0.0
1161,0.0
1163,200.0
1166,0.0
1168,0.0
2,3, 1,15, 0, 3, 0.00,60.00,Wednesday
7,1.1
545,18.67227501025976
546,-0.9016558331789615
547,18.350305090478187
548,0.0
720,-48.513061256429864
721,-48.513061256429864
784,0.0
785,0.0
848,0.0
849,0.0
1121,0.0
1135,0.0
1161,0.0
1163,200.0
1166,0.0
1168,0.0
2,3, 1,15, 0, 4, 0.00,60.00,Wednesday
7,1.7
545,18.52353389641805
546,-0.626470413423115
547,18.234387432633085
548,18.676733076920705
720,437.84286007035007
721,437.84286007035007
784,0.0
785,0.0
848,0.0
849,0.0
1121,555.6056094081911
1135,178.17493769292196
1161,5.817216713216402
1163,174.78669039869294
1166,0.0
1168,0.0
2,3, 1,15, 0, 5, 0.00,60.00,Wednesday
7,0.6
545,18.394223296357843
546,-0.6370864953031075
547,18.117127116418647
548,31.97240408323136
720,690.0186264678932
721,690.0186264678932
784,0.0
785,0.0
848,0.0
849,0.0
1121,924.9049779953766
1135,298.74050636292634
1161,11.983214186651487
1163,156.76504814057319
1166,0.0
1168,0.0
2,3, 1,15, 0, 6, 0.00,60.00,Wednesday
7,1.7
545,19.27150354378752
546,0.23134478750224996
547,17.977781322752083
548,75.37502753517728
720,1793.1863390436483
721,1793.1863390436483
784,0.0
785,0.0
848,0.0
849,0.0
1121,2365.597872704777
1135,720.4593084992276
1161,19.166331111315415
1163,98.31081845577859
1166,0.0
1168,0.0
2,3, 1,15, 0, 7, 0.00,60.00,Wednesday
7,1.7
545,19.543040257790437
546,0.8847463160685312
547,17.90119149034149
548,88.74411027978114
720,2032.3545206401268
721,2032.3545206401268
784,0.0
785,0.0
848,0.0
849,0.0
1121,2803.149078260535
1135,862.773094534373
1161,22.566072515337282
1163,80.27309809974854
1166,0.0
1168,0.0
2,3, 1,15, 0, 8, 0.00,60.00,Wednesday
7,4.4
545,19.60491908333149
546,3.826164392826448
547,17.821247326725814
548,71.83167003368645
720,1713.5127549934114
721,1713.5127549934114
784,0.0
785,0.0
848,0.0
849,0.0
1121,2430.7381250910407
1135,728.1304719440742
1161,11.97600637211335
1163,103.27463548213555
1166,0.0
1168,0.0
2,3, 1,15, 0, 9, 0.00,60.00,Wednesday
7,5.6
545,19.83145024671579
546,6.387504275272792
547,17.743243797189105
548,40.3346620592721
720,1143.2693370697689
721,1143.2693370697689
784,0.0
785,0.0
848,0.0
849,0.0
1121,1607.835768644129
1135,444.57563404008096
1161,0.0
1163,145.73349645874393
1166,0.0
1168,0.0
2,3, 1,15, 0,10, 0.00,60.00,Wednesday
7,7.8
545,20.10643242342891
546,10.019339754453219
547,17.685967779360787
548,9.07573879557329
720,212.17093620543528
721,212.17093620543528
784,0.0
785,0.0
848,0.0
849,0.0
1121,373.06199597229886
1135,102.85786465511458
1161,0.0
1163,187.78944495020812
1166,0.0
1168,0.0
2,3, 1,15, 0,11, 0.00,60.00,Wednesday
7,10.0
545,20.248640094387866
546,13.32523878307708
547,17.647886001566466
548,0.0
720,-478.7144167108654
721,-478.7144167108654
784,0.0
785,0.0
848,0.0
849,0.0
1121,0.0
1135,0.0
1161,0.0
1163,0.0
1166,0.0
1168,0.0
2,3, 1,15, 0,12, 0.00,60.00,Wednesday
7,10.6
545,20.97129619071599
546,16.354289686122403
547,17.640948872946232
548,0.0
720,-944.5034754867265
721,-944.5034754867265
784,0.0
785,0.0
848,0.0
849,0.0
1121,0.0
1135,0.0
1161,0.0
1163,0.0
1166,0.0
1168,0.0
2,3, 1,15, 0,13, 0.00,60.00,Wednesday
7,10.6
545,21.575469889628383
546,18.275825805311676
547,17.65535692397352
548,0.0
720,-1348.497006587333
721,-1348.497006587333
784,0.0
785,0.0
848,0.0
849,0.0
1121,0.0
1135,0.0
1161,0.0
1163,0.0
1166,0.0
1168,0.0
2,3, 1,15, 0,14, 0.00,60.00,Wednesday
7,12.2
545,22.30911085820152
546,19.07397904303551
547,17.689907389225013
548,0.0
720,-1935.7652266604437
721,-1935.7652266604437
784,0.0
785,0.0
848,0.0
849,0.0
1121,0.0
1135,0.0
1161,0.0
1163,0.0
1166,0.0
1168,0.0
2,3, 1,15, 0,15, 0.00,60.00,Wednesday
7,11.7
545,22.885087939409242
546,18.48498069136528
547,17.739883467003168
548,0.0
720,-2398.0234989929704
721,-2398.0234989929704
784,0.0
785,0.0
848,0.0
849,0.0
1121,0.0
1135,0.0
1161,0.0
1163,0.0
1166,0.0
1168,0.0
2,3, 1,15, 0,16, 0.00,60.00,Wednesday
7,10.0
545,23.343201776186433
546,16.88424737849292
547,17.812415428950985
548,0.0
720,-2821.2666471557786
721,-2821.2666471557786
784,0.0
785,0.0
848,0.0
849,0.0
1121,0.0
1135,0.0
1161,0.0
1163,0.0
1166,0.0
1168,0.0
2,3, 1,15, 0,17, 0.00,60.00,Wednesday
7,7.8
545,23.42085057462571
546,13.867462372659997
547,17.888658314693128
548,0.0
720,-2923.1165821650466
721,-2923.1165821650466
784,0.0
785,0.0
848,0.0
849,0.0
1121,0.0
1135,0.0
1161,0.0
1163,200.0
1166,0.0
1168,0.0
2,3, 1,15, 0,18, 0.00,60.00,Wednesday
7,5.6
545,23.04865816397283
546,10.733305668801371
547,17.961469478280286
548,0.0
720,-2835.185672653739
721,-2835.185672653739
784,0.0
785,0.0
848,0.0
849,0.0
1121,0.0
1135,0.0
1161,0.0
1163,200.0
1166,0.0
1168,0.0
2,3, 1,15, 0,19, 0.00,60.00,Wednesday
7,5.6
545,22.886379895564644
546,8.238146898697092
547,18.01171971554172
548,0.0
720,-2579.321611677209
721,-2579.321611677209
784,0.0
785,0.0
848,0.0
849,0.0
1121,0.0
1135,0.0
1161,0.0
1163,200.0
1166,0.0
1168,0.0
2,3, 1,15, 0,20, 0.00,60.00,Wednesday
7,4.4
545,22.248790305572225
546,6.475424882942699
547,18.029152365693232
548,0.0
720,-2069.454519887553
721,-2069.454519887553
784,0.0
785,0.0
848,0.0
849,0.0
1121,0.0
1135,0.0
1161,0.0
1163,200.0
1166,0.0
1168,0.0
2,3, 1,15, 0,21, 0.00,60.00,Wednesday
7,3.3
545,21.66124393303795
546,5.136798637279904
547,18.0190198448332
548,0.0
720,-1729.9846133818974
721,-1729.9846133818974
784,0.0
785,0.0
848,0.0
849,0.0
1121,0.0
1135,0.0
1161,0.0
1163,200.0
1166,0.0
1168,0.0
2,3, 1,15, 0,22, 0.00,60.00,Wednesday
7,2.2
545,20.884927756039787
546,3.931388580229455
547,17.9862614632989
548,0.0
720,-1054.1965728491577
721,-1054.1965728491577
784,0.0
785,0.0
848,0.0
849,0.0
1121,0.0
1135,0.0
1161,0.0
1163,200.0
1166,0.0
1168,0.0
2,3, 1,15, 0,23, 0.00,60.00,Wednesday
7,1.1
545,19.405620010163222
546,2.899028224722682
547,17.92892880523273
548,0.0
720,-750.267442557004
721,-750.267442557004
784,0.0
785,0.0
848,0.0
849,0.0
1121,0.0
1135,0.0
1161,0.0
1163,200.0
1166,0.0
1168,0.0
2,3, 1,15, 0,24, 0.00,60.00,Wednesday
7,0.0
545,19.652662748774105
546,2.4411542258023267
547,17.823576784931593
548,58.45845030445635
720,77.57859377597197
721,77.57859377597197
784,0.0
785,0.0
848,0.0
849,0.0
1121,1786.0836747630556
1135,580.8766112272017
1161,0.028160769905853086
1163,121.34909455887406
1166,0.0
1168,0.0
2,4, 1,16, 0, 1, 0.00,60.00,Thursday
7,0.0
545,19.123894136001965
546,2.040978538010503
547,17.749759134670235
548,56.33180760676611
720,939.9797283404787
721,939.9797283404787
784,0.0
785,0.0
848,0.0
849,0.0
1121,1716.203888761618
1135,562.4205417666176
1161,0.027136317802623725
1163,124.21031198188592
1166,0.0
1168,0.0
2,4, 1,16, 0, 2, 0.00,60.00,Thursday
7,-1.7
545,18.75661189617897
546,1.1328901813442709
547,17.626315210166144
548,69.10270402552095
720,1406.709761177307
721,1406.709761177307
784,0.0
785,0.0
848,0.0
849,0.0
1121,2034.798375326273
1135,672.732979936687
1161,0.0332884173848157
1163,107.02796206315016
1166,0.0
1168,0.0
2,4, 1,16, 0, 3, 0.00,60.00,Thursday
7,-2.2
545,18.36870025261445
546,0.6082540234572488
547,17.496106606514022
548,91.28290969882136
720,1948.6996529101307
721,1948.6996529101307
784,0.0
785,0.0
848,0.0
849,0.0
1121,2702.7788861363683
1135,878.2954385015435
1161,0.04397317748894561
1163,77.18623332417948
1166,0.0
1168,0.0
2,4, 1,16, 0, 4, 0.00,60.00,Thursday
7,-2.2
545,18.59840491756222
546,0.585596710571922
547,17.367774743342903
548,108.29933388761611
720,2351.0659094008406
721,2351.0659094008406
784,0.0
785,0.0
848,0.0
849,0.0
1121,3257.1808384956657
1135,1033.874312909785
1161,0.05217039808760364
1163,54.29201472360421
1166,0.0
1168,0.0
2,4, 1,16, 0, 5, 0.00,60.00,Thursday
7,-2.8
545,18.539780522657214
546,0.2715031975223219
547,17.24909173970831
548,121.51153636060438
720,2578.789095840568
721,2578.789095840568
784,0.0
785,0.0
848,0.0
849,0.0
1121,3628.317921073161
1135,1159.1437847945244
1161,0.05853508066172344
1163,36.51593654912808
1166,0.0
1168,0.0
2,4, 1,16, 0, 6, 0.00,60.00,Thursday
7,-2.8
545,19.267636254991896
546,0.431055370697739
547,17.113773157805106
548,148.65399252637562
720,3587.10617863106
721,3587.10617863106
784,0.0
785,0.0
848,0.0
849,0.0
1121,4540.642030191914
1135,1416.0605881748238
1161,0.07160952502176292
1163,0.0
1166,440.60739831855517
1168,440.60739831855517
2,4, 1,16, 0, 7, 0.00,60.00,Thursday
7,-2.8
545,19.56994135305755
546,0.40847933364094346
547,17.041441790788053
548,148.65399252637562
720,3603.640308920778
721,3603.640308920778
784,0.0
785,0.0
848,0.0
849,0.0
1121,4523.506995993387
1135,1436.293491799924
1161,0.07160952502176292
1163,0.0
1166,580.4287100613974
1168,580.4287100613974
2,4, 1,16, 0, 8, 0.00,60.00,Thursday
7,-2.2
545,19.685576168869215
546,1.0343820736668075
547,16.94480528743141
548,147.8151593102285
720,3098.5792508271898
721,3098.5792508271898
784,0.0
785,0.0
848,0.0
849,0.0
1121,4563.902170170694
1135,1443.9398888966884
1161,0.07120612726890407
1163,1.12665948485553
1166,0.0
1168,0.0
2,4, 1,16, 0, 9, 0.00,60.00,Thursday
7,-0.6
545,19.880974633655022
546,2.7859960387949276
547,16.87152916138555
548,103.17175744838401
720,2101.66790417393
721,2101.66790417393
784,0.0
785,0.0
848,0.0
849,0.0
1121,3208.577104773147
1135,1024.228476485258
1161,0.049700225799615076
1163,61.19101953403367
1166,0.0
1168,0.0
2,4, 1,16, 0,10, 0.00,60.00,Thursday
7,1.7
545,20.034867513252692
546,5.8956145688821175
547,16.805796990870224
548,52.82683453343601
720,1051.6244363923724
721,1051.6244363923724
784,0.0
785,0.0
848,0.0
849,0.0
1121,1678.7786385344486
1135,537.3655425552911
1161,0.025447844749208363
1163,128.92608981424053
1166,0.0
1168,0.0
2,4, 1,16, 0,11, 0.00,60.00,Thursday
7,3.3
545,19.876413444026788
546,9.344012170696029
547,16.753251983802436
548,12.427696725200486
720,182.60989700339087
721,182.60989700339087
784,0.0
785,0.0
848,0.0
849,0.0
1121,399.2538413074217
1135,128.7009010743734
1161,0.005986684388167176
1163,183.27964223656627
1166,0.0
1168,0.0
2,4, 1,16, 0,12, 0.00,60.00,Thursday
7,4.4
545,20.183981688839758
546,12.945601781495359
547,16.73598371232651
548,0.0
720,-101.5593402469749
721,-101.5593402469749
784,0.0
785,0.0
848,0.0
849,0.0
1121,0.0
1135,0.0
1161,0.0
1163,200.0
1166,0.0
1168,0.0
2,4, 1,16, 0,13, 0.00,60.00,Thursday
7,4.4
545,20.552193656656645
546,15.087664110089905
547,16.746145049422292
548,0.0
720,-665.2244274764034
721,-665.2244274764034
784,0.0
785,0.0
848,0.0
849,0.0
1121,0.0
1135,0.0
1161,0.0
1163,200.0
1166,0.0
1168,0.0
2,4, 1,16, 0,14, 0.00,60.00,Thursday
7,6.1
545,21.639166460996528
546,18.26395361772968
547,16.778838338846946
548,0.0
720,-1580.176421843058
721,-1580.176421843058
784,0.0
785,0.0
848,0.0
849,0.0
1121,0.0
1135,0.0
1161,0.0
1163,200.0
1166,0.0
1168,0.0
2,4, 1,16, 0,15, 0.00,60.00,Thursday
7,6.7
545,22.427412853462183
546,18.209670996490487
547,16.829701373784882
548,0.0
720,-2073.0184150743808
721,-2073.0184150743808
784,0.0
785,0.0
848,0.0
849,0.0
1121,0.0
1135,0.0
1161,0.0
1163,200.0
1166,0.0
1168,0.0
2,4, 1,16, 0,16, 0.00,60.00,Thursday
7,6.7
545,23.16848239225552
546,16.876639637620922
547,16.89807333654797
548,0.0
720,-2795.9151915446455
721,-2795.9151915446455
784,0.0
785,0.0
848,0.0
849,0.0
1121,0.0
1135,0.0
1161,0.0
1163,200.0
1166,0.0
1168,0.0
2,4, 1,16, 0,17, 0.00,60.00,Thursday
7,5.0
545,23.33448505852353
546,13.150965668446357
547,16.983390144399404
548,0.0
720,-2924.110796424804
721,-2924.110796424804
784,0.0
785,0.0
848,0.0
849,0.0
1121,0.0
1135,0.0
1161,0.0
1163,200.0
1166,0.0
1168,0.0
2,4, 1,16, 0,18, 0.00,60.00,Thursday
7,2.8
545,22.746588530992405
546,9.57520163544341
547,17.074737052490143
548,0.0
720,-2548.1032162681877
721,-2548.1032162681877
784,0.0
785,0.0
848,0.0
849,0.0
1121,0.0
1135,0.0
1161,0.0
1163,200.0
1166,0.0
1168,0.0
2,4, 1,16, 0,19, 0.00,60.00,Thursday
7,2.8
545,22.487118193333494
546,6.430662815524778
547,17.144705570691823
548,0.0
720,-2284.151070886961
721,-2284.151070886961
784,0.0
785,0.0
848,0.0
849,0.0
1121,0.0
1135,0.0
1161,0.0
1163,200.0
1166,0.0
1168,0.0
2,4, 1,16, 0,20, 0.00,60.00,Thursday
7,1.7
545,21.961007255480492
546,4.2547231554523055
547,17.17781948808544
548,0.0
720,-1837.844144739418
721,-1837.844144739418
784,0.0
785,0.0
848,0.0
849,0.0
1121,0.0
1135,0.0
1161,0.0
1163,200.0
1166,0.0
1168,0.0
2,4, 1,16, 0,21, 0.00,60.00,Thursday
7,0.0
545,21.515382489675446
546,2.3512444407284505
547,17.181318234073405
548,0.0
720,-1524.7171604064697
721,-1524.7171604064697
784,0.0
785,0.0
848,0.0
849,0.0
1121,0.0
1135,0.0
1161,0.0
1163,200.0
1166,0.0
1168,0.0
2,4, 1,16, 0,22, 0.00,60.00,Thursday
7,-0.6
545,20.986667560460894
546,0.1535023307071051
547,17.160226179948232
548,0.0
720,-1049.880268701183
721,-1049.880268701183
784,0.0
785,0.0
848,0.0
849,0.0
1121,0.0
1135,0.0
1161,0.0
1163,200.0
1166,0.0
1168,0.0
2,4, 1,16, 0,23, 0.00,60.00,Thursday
7,-1.1
545,20.125091509160022
546,-1.8154646006610824
547,17.117567396743674
548,0.0
720,-1218.6169663652508
721,-1218.6169663652508
784,0.0
785,0.0
848,0.0
849,0.0
1121,0.0
1135,0.0
1161,0.0
1163,200.0
1166,0.0
1168,0.0
2,4, 1,16, 0,24, 0.00,60.00,Thursday
7,-1.7
545,19.159714950348043
546,-3.361931742251405
547,17.059791331683165
548,0.0
720,-445.3067362278525
721,-445.3067362278525
784,0.0
785,0.0
848,0.0
849,0.0
1121,0.0
1135,0.0
1161,0.0
1163,200.0
1166,0.0
1168,0.0
2,5, 1,17, 0, 1, 0.00,60.00,Friday
7,-1.7
545,18.625518335330323
546,-4.207626922293942
547,16.982739130131407
548,16.168687778384957
720,285.7864474039561
721,285.7864474039561
784,0.0
785,0.0
848,0.0
849,0.0
1121,457.1914901387675
1135,157.45504545088096
1161,0.007788841772702097
1163,178.24635264558734
1166,0.0
1168,0.0
2,5, 1,17, 0, 2, 0.00,60.00,Friday
7,-1.7
545,18.47056858137012
546,-3.490188983750077
547,16.88580522497674
548,41.715396533325624
720,861.7088394070724
721,861.7088394070724
784,0.0
785,0.0
848,0.0
849,0.0
1121,1205.9236945570449
1135,401.9027989363023
1161,0.020095298977594305
1163,143.87534627135952
1166,0.0
1168,0.0
2,5, 1,17, 0, 3, 0.00,60.00,Friday
7,-1.1
545,18.525710410457627
546,-3.7986649097927736
547,16.79554504329933
548,57.51937781949989
720,1205.8392610270785
721,1205.8392610270785
784,0.0
785,0.0
848,0.0
849,0.0
1121,1712.5650075276228
1135,555.2341080246927
1161,0.027708432138751397
1163,122.61243981068021
1166,0.0
1168,0.0
2,5, 1,17, 0, 4, 0.00,60.00,Friday
7,-3.9
545,18.30383025751614
546,-3.6467834195769213
547,16.67006614350426
548,97.36631583098807
720,1838.712484967782
721,1838.712484967782
784,0.0
785,0.0
848,0.0
849,0.0
1121,2664.1358629880415
1135,890.2488705363679
1161,25.42949523857609