Program Version,EnergyPlus, Version 22.2.0-c249759bad, YMD=2023.09.01 14:30
1,5,Environment Title[],Latitude[deg],Longitude[deg],Time Zone[],Elevation[m]
2,8,Day of Simulation[],Month[],Day of Month[],DST Indicator[1=yes 0=no],Hour[],StartMinute[],EndMinute[],DayType
3,5,Cumulative Day of Simulation[],Month[],Day of Month[],DST Indicator[1=yes 0=no],DayType  ! When Daily Report Variables Requested
4,2,Cumulative Days of Simulation[],Month[]  ! When Monthly Report Variables Requested
5,1,Cumulative Days of Simulation[] ! When Run Period Report Variables Requested
6,1,Calendar Year of Simulation[] ! When Annual Report Variables Requested
7,1,Environment,Site Outdoor Air Drybulb Temperature [C] !Hourly
619,1,DX_HEATING_COIL,Heating Coil Heating Rate [W] !Hourly
633,1,DX_HEATING_COIL,Heating Coil Electricity Rate [W] !Hourly
659,1,DX_HEATING_COIL,Heating Coil Defrost Electricity Rate [W] !Hourly
661,1,DX_HEATING_COIL,Heating Coil Crankcase Heater Electricity Rate [W] !Hourly
690,1,FAN,Fan Electricity Rate [W] !Hourly
716,1,HEAT PUMP WATER HEATER FAN,Fan Electricity Rate [W] !Hourly
718,1,LIVING,Zone Mean Air Temperature [C] !Hourly
719,1,ATTIC,Zone Mean Air Temperature [C] !Hourly
720,1,CRAWLSPACE,Zone Mean Air Temperature [C] !Hourly
843,1,LIVING,Zone Predicted Sensible Load to Heating Setpoint Heat Transfer Rate [W] !Hourly
844,1,LIVING,Zone System Predicted Sensible Load to Heating Setpoint Heat Transfer Rate [W] !Hourly
907,1,ATTIC,Zone Predicted Sensible Load to Heating Setpoint Heat Transfer Rate [W] !Hourly
908,1,ATTIC,Zone System Predicted Sensible Load to Heating Setpoint Heat Transfer Rate [W] !Hourly
971,1,CRAWLSPACE,Zone Predicted Sensible Load to Heating Setpoint Heat Transfer Rate [W] !Hourly
972,1,CRAWLSPACE,Zone System Predicted Sensible Load to Heating Setpoint Heat Transfer Rate [W] !Hourly
1195,1,HEATING_RESISTANCE_BACKUP,Heating Coil Heating Rate [W] !Hourly
1197,1,HEATING_RESISTANCE_BACKUP,Heating Coil Electricity Rate [W] !Hourly
End of Data Dictionary
1,EXTREME_WINTER,  39.87,-104.67,  -7.00,1650.20
2,1,12,22, 0, 1, 0.00,60.00,Monday
7,-0.6
718,18.18099418466103
719,0.4259199087259884
720,18.943248964230115
619,975.2294598719042
633,323.8246460912008
659,2.52796395278324
661,166.25951529684556
690,33.52870726932518
716,0.0
843,719.2888697895505
844,719.2888697895505
907,0.0
908,0.0
971,0.0
972,0.0
1195,0.0
1197,0.0
2,1,12,22, 0, 2, 0.00,60.00,Monday
7,1.7
718,18.495253738320482
719,2.0984689226492184
720,18.5965676088816
619,1581.7825778824217
633,493.59888920516187
659,0.024086242511267602
661,149.74402648073414
690,50.00030483161609
716,0.0
843,1221.676779638903
844,1221.676779638903
907,0.0
908,0.0
971,0.0
972,0.0
1195,0.0
1197,0.0
2,1,12,22, 0, 3, 0.00,60.00,Monday
7,1.7
718,18.56816853374539
719,2.6455590662534436
720,18.38654899377704
619,2283.3037354542153
633,708.9410945886449
659,0.03439391064961694
661,128.23706470519224
690,71.39785310342577
716,0.0
843,1764.05102032357
844,1764.05102032357
907,0.0
908,0.0
971,0.0
972,0.0
1195,0.0
1197,0.0
2,1,12,22, 0, 4, 0.00,60.00,Monday
7,2.2
718,18.612499377041633
719,3.09557135490347
720,18.18050892323441
619,2506.418790414119
633,770.2294064917048
659,0.03714743212881016
661,122.49183887852668
690,77.11389079344004
716,0.0
843,1959.505927452161
844,1959.505927452161
907,0.0
908,0.0
971,0.0
972,0.0
1195,0.0
1197,0.0
2,1,12,22, 0, 5, 0.00,60.00,Monday
7,2.8
718,18.377016076305143
719,3.679936756008469
720,17.993862723000827
619,2700.7717578632055
633,820.1530254617305
659,0.03930594578223424
661,117.98809758485218
690,81.59477153365522
716,0.0
843,2105.6213469271515
844,2105.6213469271515
907,0.0
908,0.0
971,0.0
972,0.0
1195,0.0
1197,0.0
2,1,12,22, 0, 6, 0.00,60.00,Monday
7,2.8
718,19.3458867118356
719,4.15669080541123
720,17.795997055195024
619,4199.0265025255785
633,1236.5375721268558
659,0.059553802425931356
661,75.74092072314329
690,123.6270703738018
716,0.0
843,3314.9718366421585
844,3314.9718366421585
907,0.0
908,0.0
971,0.0
972,0.0
1195,0.0
1197,0.0
2,1,12,22, 0, 7, 0.00,60.00,Monday
7,1.1
718,19.598634403841274
719,3.80655511276795
720,17.650210556236924
619,5251.589796568381
633,1595.5826482439572
659,7.297741325877851
661,39.09942181359081
690,159.99589985786506
716,85.44000000000005
843,3160.1141650213376
844,3160.1141650213376
907,0.0
908,0.0
971,0.0
972,0.0
1195,0.0
1197,0.0
2,1,12,22, 0, 8, 0.00,60.00,Monday
7,1.7
718,19.746086049126173
719,4.22533477718834
720,17.525875899788034
619,4329.027564169616
633,1331.5878161428989
659,0.0632781854734808
661,67.96999108454615
690,131.3583244869603
716,85.44000000000005
843,2372.660423471687
844,2372.660423471687
907,0.0
908,0.0
971,0.0
972,0.0
1195,0.0
1197,0.0
2,1,12,22, 0, 9, 0.00,60.00,Monday
7,1.7
718,19.8216305590701
719,4.375970183475936
720,17.40695712528806
619,1990.2729602883255
633,639.6485379181559
659,0.030302481558636647
661,136.7738363480116
690,62.90450903584637
716,7.523078028570716
843,1462.8922617024982
844,1462.8922617024982
907,0.0
908,0.0
971,0.0
972,0.0
1195,0.0
1197,0.0
2,1,12,22, 0,10, 0.00,60.00,Monday
7,5.0
718,19.876115528925197
719,6.50983826806697
720,17.302789356193887
619,1134.7623523994694
633,351.65688632801493
659,0.016121850372022316
661,166.36174010957095
690,33.46723685502755
716,0.0
843,886.941751667362
844,886.941751667362
907,0.0
908,0.0
971,0.0
972,0.0
1195,0.0
1197,0.0
2,1,12,22, 0,11, 0.00,60.00,Monday
7,6.1
718,19.781667958630504
719,8.711624090726763
720,17.21087648070977
619,339.8052409512563
633,96.4247613623098
659,0.0
661,191.30838506857307
690,8.647441379320968
716,0.0
843,271.53032698735115
844,271.53032698735115
907,0.0
908,0.0
971,0.0
972,0.0
1195,0.0
1197,0.0
2,1,12,22, 0,12, 0.00,60.00,Monday
7,6.1
718,19.92397457487115
719,10.527865496682628
720,17.14362332540174
619,0.0
633,0.0
659,0.0
661,200.0
690,0.0
716,0.0
843,-135.3377452402201
844,-135.3377452402201
907,0.0
908,0.0
971,0.0
972,0.0
1195,0.0
1197,0.0
2,1,12,22, 0,13, 0.00,60.00,Monday
7,7.8
718,20.771152220177214
719,13.734510522681777
720,17.10234581662817
619,0.0
633,0.0
659,0.0
661,200.0
690,0.0
716,0.0
843,-706.9527308618071
844,-706.9527308618071
907,0.0
908,0.0
971,0.0
972,0.0
1195,0.0
1197,0.0
2,1,12,22, 0,14, 0.00,60.00,Monday
7,7.8
718,20.372722873363486
719,14.88195750992853
720,17.077001381601477
619,0.0
633,0.0
659,0.0
661,200.0
690,0.0
716,73.91357879418702
843,-1197.3946846485578
844,-1197.3946846485578
907,0.0
908,0.0
971,0.0
972,0.0
1195,0.0
1197,0.0
2,1,12,22, 0,15, 0.00,60.00,Monday
7,7.8
718,22.037278936115243
719,15.236743767002645
720,17.073712175210634
619,0.0
633,0.0
659,0.0
661,200.0
690,0.0
716,0.0
843,-1922.6918769515432
844,-1922.6918769515432
907,0.0
908,0.0
971,0.0
972,0.0
1195,0.0
1197,0.0
2,1,12,22, 0,16, 0.00,60.00,Monday
7,1.7
718,21.59714540206893
719,8.69952929755374
720,17.08036714565502
619,0.0
633,0.0
659,0.0
661,200.0
690,0.0
716,0.0
843,-1182.427381027479
844,-1182.427381027479
907,0.0
908,0.0
971,0.0
972,0.0
1195,0.0
1197,0.0
2,1,12,22, 0,17, 0.00,60.00,Monday
7,0.6
718,21.924049110999984
719,7.12127164141307
720,17.095384342106936
619,0.0
633,0.0
659,0.0
661,200.0
690,0.0
716,0.0
843,-1896.6515348494231
844,-1896.6515348494231
907,0.0
908,0.0
971,0.0
972,0.0
1195,0.0
1197,0.0
2,1,12,22, 0,18, 0.00,60.00,Monday
7,0.6
718,21.43943143047126
719,4.783871625642923
720,17.105766359145207
619,0.0
633,0.0
659,0.0
661,200.0
690,0.0
716,0.0
843,-1206.2746295357465
844,-1206.2746295357465
907,0.0
908,0.0
971,0.0
972,0.0
1195,0.0
1197,0.0
2,1,12,22, 0,19, 0.00,60.00,Monday
7,-0.6
718,20.102113233103722
719,3.5500105608440986
720,17.09376745863545
619,0.0
633,0.0
659,0.0
661,200.0
690,0.0
716,85.44000000000005
843,-1078.1455909918732
844,-1078.1455909918732
907,0.0
908,0.0
971,0.0
972,0.0
1195,0.0
1197,0.0
2,1,12,22, 0,20, 0.00,60.00,Monday
7,0.0
718,19.651439139471215
719,2.309755513568413
720,17.05616196818762
619,0.0
633,0.0
659,0.0
661,200.0
690,0.0
716,85.44000000000005
843,-916.4079555596545
844,-916.4079555596545
907,0.0
908,0.0
971,0.0
972,0.0
1195,0.0
1197,0.0
2,1,12,22, 0,21, 0.00,60.00,Monday
7,0.0
718,19.746403564475063
719,1.5167529596163087
720,16.99927038684054
619,0.0
633,0.0
659,0.0
661,200.0
690,0.0
716,29.312140659985527
843,-393.7373855106089
844,-393.7373855106089
907,0.0
908,0.0
971,0.0
972,0.0
1195,0.0
1197,0.0
2,1,12,22, 0,22, 0.00,60.00,Monday
7,-1.1
718,19.734188096095963
719,1.0062741763743819
720,16.92603867662388
619,275.51681310231675
633,96.75881458679545
659,4.628950898802218
661,189.5274936147017
690,10.335307443088231
716,0.0
843,181.3148958103211
844,181.3148958103211
907,0.0
908,0.0
971,0.0
972,0.0
1195,0.0
1197,0.0
2,1,12,22, 0,23, 0.00,60.00,Monday
7,-2.2
718,18.443556024841048
719,0.11929882322995644
720,16.844897525160615
619,0.0
633,0.0
659,0.0
661,200.0
690,0.0
716,0.0
843,-24.295462816613508
844,-24.295462816613508
907,0.0
908,0.0
971,0.0
972,0.0
1195,0.0
1197,0.0
2,1,12,22, 0,24, 0.00,60.00,Monday
7,-1.1
718,18.581081355804404
719,0.2958144933019385
720,16.742581748654796
619,731.4711833422116
633,246.84876206725855
659,16.08075921766777
661,172.00820953155238
690,27.554468787143918
716,0.0
843,523.6104116020888
844,523.6104116020888
907,0.0
908,0.0
971,0.0
972,0.0
1195,0.0
1197,0.0
2,2,12,23, 0, 1, 0.00,60.00,Tuesday
7,-3.3
718,18.179933487117967
719,-0.7494917997423107
720,16.635569483962154
619,1134.9299889000147
633,398.4584470530054
659,26.93649990491951
661,153.99977701148023
690,45.10310182339246
716,0.0
843,841.8736704762969
844,841.8736704762969
907,0.0
908,0.0
971,0.0
972,0.0
1195,0.0
1197,0.0
2,2,12,23, 0, 2, 0.00,60.00,Tuesday
7,-4.4
718,18.07951988638384
719,-1.1484388198476994
720,16.488607684204872
619,2483.0063890765214
633,855.1641970246264
659,51.27144294025968
661,100.62470196812671
690,97.45002686574666
716,0.0
843,1825.1350866719076
844,1825.1350866719076
907,0.0
908,0.0
971,0.0
972,0.0
1195,0.0
1197,0.0
2,2,12,23, 0, 3, 0.00,60.00,Tuesday
7,-4.4
718,18.382849865158295
719,-0.8358826984348006
720,16.35623749245175
619,3637.832028710586
633,1218.3103709033658
659,73.2121508747196
661,58.09879934124431
690,139.1532997731218
716,0.0
843,2657.1110100971127
844,2657.1110100971127
907,0.0
908,0.0
971,0.0
972,0.0
1195,0.0
1197,0.0
2,2,12,23, 0, 4, 0.00,60.00,Tuesday
7,-2.8
718,18.5987002393512
719,-0.08186497780745432
720,16.26618283622595
619,3792.427914795808
633,1238.1277371077938
659,87.83023196907789
661,56.403224788116816
690,140.82930889681012
716,0.0
843,2771.9438053802223
844,2771.9438053802223
907,0.0
908,0.0
971,0.0
972,0.0
1195,0.0
1197,0.0
2,2,12,23, 0, 5, 0.00,60.00,Tuesday
7,-3.3
718,18.634437195025242
719,-0.1998427871367811
720,16.14945743479419
619,3665.341444749948
633,1217.1944428525928
659,80.7015359518308
661,59.64300270305554
690,137.65933200490298
716,0.0
843,2676.94907437409
844,2676.94907437409
907,0.0
908,0.0
971,0.0
972,0.0
1195,0.0
1197,0.0
2,2,12,23, 0, 6, 0.00,60.00,Tuesday
7,-2.8
718,19.254567550258884
719,0.3619659144228329
720,16.023091437572635
619,5153.237358509231
633,1644.7100973593992
659,103.6139285701751
661,11.926561053032248
690,184.73010510097117
716,0.0
843,3777.375409776283
844,3777.375409776283
907,0.0
908,0.0
971,0.0
972,0.0
1195,0.0
1197,0.0
2,2,12,23, 0, 7, 0.00,60.00,Tuesday
7,-4.4
718,19.50157809141794
719,-0.2991910917215947
720,15.927662059157024
619,5436.337372472052
633,1782.6449986065072
659,83.79731009117364
661,0.0
690,198.98353637489748
716,85.44000000000005
843,3657.7467430451125
844,3657.7467430451125
907,0.0
908,0.0
971,0.0
972,0.0
1195,814.6768406201122
1197,814.6768406201122
2,2,12,23, 0, 8, 0.00,60.00,Tuesday
7,-2.2
718,19.636741509609667
719,0.2815105383661269
720,15.847309811410772
619,5721.617882375946
633,1821.9954878049148
659,34.23877550054302
661,7.445574688042544
690,190.87725944724767
716,85.44000000000005
843,3121.8972611265344
844,3121.8972611265344
907,0.0
908,0.0
971,0.0
972,0.0
1195,0.0
1197,0.0
2,2,12,23, 0, 9, 0.00,60.00,Tuesday
7,-2.2
718,19.717484470362287
719,1.0061524204338848
720,15.743899036497595
619,4486.739685581217
633,1467.2253834877415
659,27.495785573425582
661,45.36727402801528
690,153.2854493037413
716,85.44000000000005
843,2244.495274604302
844,2244.495274604302
907,0.0
908,0.0
971,0.0
972,0.0
1195,0.0
1197,0.0
2,2,12,23, 0,10, 0.00,60.00,Tuesday
7,-1.7
718,19.942599042976227
719,4.038603260311376
720,15.655151388567603
619,1726.8752310124632
633,592.4375341497707
659,16.525926620166118
661,137.1550509188083
690,62.206743961881294
716,10.01211356739262
843,1152.6656311777115
844,1152.6656311777115
907,0.0
908,0.0
971,0.0
972,0.0
1195,0.0
1197,0.0
2,2,12,23, 0,11, 0.00,60.00,Tuesday
7,2.2
718,20.182793060989024
719,8.786836595663136
720,15.588146439956393
619,0.0
633,0.0
659,0.0
661,200.0
690,0.0
716,0.0
843,-88.49734505278138
844,-88.49734505278138
907,0.0
908,0.0
971,0.0
972,0.0
1195,0.0
1197,0.0
2,2,12,23, 0,12, 0.00,60.00,Tuesday
7,2.2
718,20.69751004540627
719,13.06762912440347
720,15.564535444746424
619,0.0
633,0.0
659,0.0
661,200.0
690,0.0
716,0.0
843,-751.8325814894233
844,-751.8325814894233
907,0.0
908,0.0
971,0.0
972,0.0
1195,0.0
1197,0.0
2,2,12,23, 0,13, 0.00,60.00,Tuesday
7,1.7
718,20.89199172323133
719,12.005818502725008
720,15.565380432478092
619,0.0
633,0.0
659,0.0
661,200.0
690,0.0
716,0.0
843,-815.3019454508976
844,-815.3019454508976
907,0.0
908,0.0
971,0.0
972,0.0
1195,0.0
1197,0.0
2,2,12,23, 0,14, 0.00,60.00,Tuesday
7,1.1
718,20.888404299065662
719,9.45757964024957
720,15.587540848143627
619,0.0
633,0.0
659,0.0
661,200.0
690,0.0
716,0.0
843,-883.8959273951314
844,-883.8959273951314
907,0.0
908,0.0
971,0.0
972,0.0
1195,0.0
1197,0.0
2,2,12,23, 0,15, 0.00,60.00,Tuesday
7,1.1
718,21.358207593387785
719,7.77094640983219
720,15.617612001216942
619,0.0
633,0.0
659,0.0
661,200.0
690,0.0
716,0.0
843,-1273.8329865083324
844,-1273.8329865083324
907,0.0
908,0.0
971,0.0
972,0.0
1195,0.0
1197,0.0
2,2,12,23, 0,16, 0.00,60.00,Tuesday
7,-1.1
718,21.234103206216684
719,5.564701945696146
720,15.643595923377054
619,0.0
633,0.0
659,0.0
661,200.0
690,0.0
716,0.0
843,-1179.32112154479
844,-1179.32112154479
907,0.0
908,0.0
971,0.0
972,0.0
1195,0.0
1197,0.0
2,2,12,23, 0,17, 0.00,60.00,Tuesday
7,-1.7
718,20.96389488559291
719,3.787307654279447
720,15.677891601261775
619,0.0
633,0.0
659,0.0
661,200.0
690,0.0
716,0.0
843,-998.7143621386404
844,-998.7143621386404
907,0.0
908,0.0
971,0.0
972,0.0
1195,0.0
1197,0.0
2,2,12,23, 0,18, 0.00,60.00,Tuesday
7,-1.7
718,20.44397748760031
719,1.8959106570778765
720,15.691683733970745
619,0.0
633,0.0
659,0.0
661,200.0
690,0.0
716,0.0
843,-537.7066535357244
844,-537.7066535357244
907,0.0
908,0.0
971,0.0
972,0.0
1195,0.0
1197,0.0
2,2,12,23, 0,19, 0.00,60.00,Tuesday
7,-2.2
718,19.82363037847481
719,1.4320753881665624
720,15.705506177594355
619,2173.404654877511
633,760.1394694744523
659,26.58606050446061
661,119.35177108318315
690,79.68248186017337
716,85.44000000000005
843,575.0022063477718
844,575.0022063477718
907,0.0
908,0.0
971,0.0
972,0.0
1195,0.0
1197,0.0
2,2,12,23, 0,20, 0.00,60.00,Tuesday
7,-3.3
718,19.817885312211402
719,0.912781826110995
720,15.6559590413507
619,2775.679462851353
633,963.6688583026603
659,30.42053619281483
661,96.10114123109832
690,102.64471814500094
716,85.44000000000005
843,977.5496195843734
844,977.5496195843734
907,0.0
908,0.0
971,0.0
972,0.0
1195,0.0
1197,0.0
2,2,12,23, 0,21, 0.00,60.00,Tuesday
7,-3.9
718,19.585321691955592
719,0.21681636765220183
720,15.6019171593578
619,3336.551314941852
633,1159.3113142046004
659,48.40845332944809
661,72.6608812614228
690,125.4367559911638
716,85.44000000000005
843,1378.1037297014063
844,1378.1037297014063
907,0.0
908,0.0
971,0.0
972,0.0
1195,0.0
1197,0.0
2,2,12,23, 0,22, 0.00,60.00,Tuesday
7,-4.4
718,19.964522592781687
719,-1.518152007327982
720,15.522510864226447
619,2289.8480158314264
633,813.5226111386121
659,13.900212442920438
661,112.80532991302775
690,86.38027638732342
716,15.209856962167503
843,1491.2794736053347
844,1491.2794736053347
907,0.0
908,0.0
971,0.0
972,0.0
1195,0.0
1197,0.0
2,2,12,23, 0,23, 0.00,60.00,Tuesday
7,-4.4
718,18.781379263669734
719,-2.382678518078898
720,15.44294263218381
619,1244.1221469465468
633,454.6508777496465
659,0.022647977458470817
661,152.74496821638374
690,47.01427187373288
716,0.0
843,876.8978718567596
844,876.8978718567596
907,0.0
908,0.0
971,0.0
972,0.0
1195,0.0
1197,0.0
2,2,12,23, 0,24, 0.00,60.00,Tuesday
7,-4.4
718,18.631400979483463
719,-2.5710904936905457
720,15.333651377015196
619,1936.8008362556504
633,677.2637832154342
659,0.03453599960083231
661,127.9405959402398
690,71.69227416281355
716,0.0
843,1392.1956241017651
844,1392.1956241017651
907,0.0
908,0.0
971,0.0
972,0.0
1195,0.0
1197,0.0
2,3,12,24, 0, 1, 0.00,60.00,Wednesday
7,-5.0
718,18.387247732071447
719,-3.0535469038690164
720,15.227646626863486
619,3081.9310274193595
633,1060.4581711123017
659,0.054525864303589584
661,86.23171956877931
690,113.18855312333663
716,0.0
843,2205.5005228468053
844,2205.5005228468053
907,0.0
908,0.0
971,0.0
972,0.0
1195,0.0
1197,0.0
2,3,12,24, 0, 2, 0.00,60.00,Wednesday
7,-3.9
718,18.39750517438156
719,-2.3076453007659095
720,15.11131902394389
619,4241.627261259271
633,1389.3252554000262
659,0.07114009766331056
661,51.56610199150704
690,147.6777625775725
716,0.0
843,3039.7131818301623
844,3039.7131818301623
907,0.0
908,0.0
971,0.0
972,0.0
1195,0.0
1197,0.0
2,3,12,24, 0, 3, 0.00,60.00,Wednesday
7,-3.9
718,18.524583131280234
719,-2.125563910098161
720,14.999523320269608
619,4935.306181536339
633,1595.2266198026518
659,0.08168370587022376
661,29.56685098353993
690,169.56494745444408
716,0.0
843,3553.9706236683414
844,3553.9706236683414
907,0.0
908,0.0
971,0.0
972,0.0
1195,0.0
1197,0.0
2,3,12,24, 0, 4, 0.00,60.00,Wednesday
7,-3.9
718,18.55226167540565
719,-1.8257161591739466
720,14.891439431555513
619,5450.258373325899
633,1749.6648512281383
659,0.08938349151176989
661,13.501239125461817
690,185.54871827659738
716,0.0
843,3920.444655508363
844,3920.444655508363
907,0.0
908,0.0
971,0.0
972,0.0
1195,0.0
1197,0.0
2,3,12,24, 0, 5, 0.00,60.00,Wednesday
7,-5.0
718,18.654655214740153
719,-2.327087385061924
720,14.774263519175054
619,4551.6768458936385
633,1516.6568073728688
659,0.07815206783404167
661,36.93561792769779
690,162.23345869069047
716,0.0
843,3263.2775859797985
844,3263.2775859797985
907,0.0
908,0.0
971,0.0
972,0.0
1195,0.0
1197,0.0
2,3,12,24, 0, 6, 0.00,60.00,Wednesday
7,-5.0
718,19.227194639308685
719,-2.009473034148632
720,14.669591198207323
619,5707.411915321711
633,1863.4155001828633
659,0.0958542470659096
661,0.0
690,198.98353637489748
716,85.29889833576058
843,4173.414213962222
844,4173.414213962222
907,0.0
908,0.0
971,0.0
972,0.0
1195,1108.2747883461152
1197,1108.2747883461152
2,3,12,24, 0, 7, 0.00,60.00,Wednesday
7,-5.6
718,19.516204645130507
719,-1.6836143362176201
720,14.58753176183125
619,5591.360958800938
633,1874.7543406197785
659,0.0958542470659096
661,0.0
690,198.98353637489748
716,85.44000000000005
843,3866.8095372000516
844,3866.8095372000516
907,0.0
908,0.0
971,0.0
972,0.0
1195,1012.4209545382364
1197,1012.4209545382364
2,3,12,24, 0, 8, 0.00,60.00,Wednesday
7,-5.0
718,19.62686404802195
719,-2.143582271950668
720,14.499128020090161
619,5680.5104297648
633,1894.7753026574221
659,0.0958542470659096
661,0.0
690,198.98353637489748
716,77.59215756828264
843,3532.323265284551
844,3532.323265284551
907,0.0
908,0.0
971,0.0
972,0.0
1195,445.04447841525325
1197,445.04447841525325
2,3,12,24, 0, 9, 0.00,60.00,Wednesday
7,-5.0
718,19.76153151430924
719,-1.8655821784015472
720,14.388368440370535
619,3788.075054332487
633,1315.5384029339896
659,0.06639464127392443
661,61.467502366856365
690,137.82656988322265
716,0.0
843,2640.8533848890747
844,2640.8533848890747
907,0.0
908,0.0
971,0.0
972,0.0
1195,0.0
1197,0.0
2,3,12,24, 0,10, 0.00,60.00,Wednesday
7,-1.1
718,19.882934870744993
719,0.7788879434850393
720,14.29953545458772
619,1729.5934494810713
633,584.4711284820179
659,0.028454336541127744
661,140.62999311535464
690,59.06778269558347
716,0.0
843,1228.197219710135
844,1228.197219710135
907,0.0
908,0.0
971,0.0
972,0.0
1195,0.0
1197,0.0
2,3,12,24, 0,11, 0.00,60.00,Wednesday
7,0.0
718,19.941131603430772
719,3.5541378091684486
720,14.228339988601668
619,433.12170999150766
633,147.47867232603681
659,0.007093745804525755
661,185.19889097945116
690,14.725782790161096
716,0.0
843,314.21584592037834
844,314.21584592037834
907,0.0
908,0.0
971,0.0
972,0.0
1195,0.0
1197,0.0
2,3,12,24, 0,12, 0.00,60.00,Wednesday
7,0.0
718,20.04079604371607
719,5.744088777915831
720,14.204478465460875
619,0.0
633,0.0
659,0.0
661,200.0
690,0.0
716,0.0
843,-241.34461022441064
844,-241.34461022441064
907,0.0
908,0.0
971,0.0
972,0.0
1195,0.0
1197,0.0
2,3,12,24, 0,13, 0.00,60.00,Wednesday
7,0.0
718,20.50533703302659
719,9.894460970570469
720,14.215584751664712
619,0.0
633,0.0
659,0.0
661,200.0
690,0.0
716,0.0
843,-580.2819198516427
844,-580.2819198516427
907,0.0
908,0.0
971,0.0
972,0.0
1195,0.0
1197,0.0
2,3,12,24, 0,14, 0.00,60.00,Wednesday
7,1.1
718,21.442321208009623
719,15.369677065764792
720,14.247247387396099
619,0.0
633,0.0
659,0.0
661,200.0
690,0.0
716,0.0
843,-1236.1318961421712
844,-1236.1318961421712
907,0.0
908,0.0
971,0.0
972,0.0
1195,0.0
1197,0.0
2,3,12,24, 0,15, 0.00,60.00,Wednesday
7,1.1
718,21.10444372714907
719,16.00722855586723
720,14.295844893214
619,0.0
633,0.0
659,0.0
661,200.0
690,0.0
716,72.4079796307993
843,-1696.2748054750973
844,-1696.2748054750973
907,0.0
908,0.0
971,0.0
972,0.0
1195,0.0
1197,0.0
2,3,12,24, 0,16, 0.00,60.00,Wednesday
7,-2.2
718,20.783678520077697
719,10.66885581932526
720,14.35396442913067
619,0.0
633,0.0
659,0.0
661,200.0
690,0.0
716,82.54850596914596
843,-1753.4721658063681
844,-1753.4721658063681
907,0.0
908,0.0
971,0.0
972,0.0
1195,0.0
1197,0.0
2,3,12,24, 0,17, 0.00,60.00,Wednesday
7,-2.8
718,21.115195112088944
719,7.634260081935061
720,14.425508950102937
619,0.0
633,0.0
659,0.0
661,200.0
690,0.0
716,0.0
843,-1306.6296332045513
844,-1306.6296332045513
907,0.0
908,0.0
971,0.0
972,0.0
1195,0.0
1197,0.0
2,3,12,24, 0,18, 0.00,60.00,Wednesday
7,-2.8
718,20.477587507943962
719,4.185237755899176
720,14.487387565428813
619,0.0
633,0.0
659,0.0
661,200.0
690,0.0
716,0.0
843,-585.6098684159097
844,-585.6098684159097
907,0.0
908,0.0
971,0.0
972,0.0
1195,0.0
1197,0.0
2,3,12,24, 0,19, 0.00,60.00,Wednesday
7,-6.7
718,19.74616591429917
719,0.008167826216484758
720,14.517678225149547
619,200.41880457221717
633,79.43200232717473
659,0.003998851229502473
661,191.65639217477167
690,8.301068031844903
716,0.0
843,125.65574829591424
844,125.65574829591424
907,0.0
908,0.0
971,0.0
972,0.0
1195,0.0
1197,0.0
2,3,12,24, 0,20, 0.00,60.00,Wednesday
7,-7.2
718,19.560247143929196
719,-2.2330688716200924
720,14.535256156694764
619,2189.9154055913887
633,822.8284102994255
659,0.042207729023719026
661,111.93352341561477
690,87.61740399373949
716,85.44000000000005
843,592.3308297125532
844,592.3308297125532
907,0.0
908,0.0
971,0.0
972,0.0
1195,0.0
1197,0.0
2,3,12,24, 0,21, 0.00,60.00,Wednesday
7,-7.2
718,19.609756991039664
719,-3.0458594539009223
720,14.502209340624805
619,3063.6173882473595
633,1123.909790429594
659,0.057866204444722034
661,79.26209590915028
690,120.12223419415601
716,85.44000000000005
843,1176.1299392455567
844,1176.1299392455567
907,0.0
908,0.0
971,0.0
972,0.0
1195,0.0
1197,0.0
2,3,12,24, 0,22, 0.00,60.00,Wednesday
7,-6.7
718,19.69254560136656
719,-2.4352301086299812
720,14.449754837350397
619,2934.4812925946017
633,1070.5571939717388
659,0.05483025603740741
661,85.59660585575098
690,113.82011938024857
716,39.03358607783648
843,1620.4382866196338
844,1620.4382866196338
907,0.0
908,0.0
971,0.0
972,0.0
1195,0.0
1197,0.0
2,3,12,24, 0,23, 0.00,60.00,Wednesday
7,-6.1
718,18.781284580323437
719,-2.797161824864559
720,14.369007254798555
619,2120.398962130603
633,779.8002415906483
659,0.039667382748335055
661,117.23395892712051
690,82.34414541190449
716,0.0
843,1460.6567547356262
844,1460.6567547356262
907,0.0
908,0.0
971,0.0
972,0.0
1195,0.0
1197,0.0
2,3,12,24, 0,24, 0.00,60.00,Wednesday
7,-6.1
718,18.603074062991542
719,-2.5078953099278793
720,14.27081193317293
619,2922.000992593404
633,1032.5399787304482
659,0.053473939244250084
661,88.42656245063137
690,111.0047065149458
716,0.0
843,2050.818203924886
844,2050.818203924886
907,0.0
908,0.0
971,0.0
972,0.0
1195,0.0
1197,0.0
2,4,12,25, 0, 1, 0.00,60.00,Thursday
7,-4.4
718,18.83017965910067
719,-2.3697076635352246
720,14.191310636760019
619,3194.8075399965137
633,1082.5827691934358
659,0.05546965484126735
661,84.262499494412
690,115.14784035896857
716,0.0
843,2278.45405727033
844,2278.45405727033
907,0.0
908,0.0
971,0.0
972,0.0
1195,0.0
1197,0.0
2,4,12,25, 0, 2, 0.00,60.00,Thursday
7,-3.9
718,18.754949510747295
719,-1.7672653508600393
720,14.11006379510866
619,3261.5802538955127
633,1099.7424979453272
659,0.05586724647593639
661,83.43292407790352
690,115.9732699438899
716,0.0
843,2309.911006526663
844,2309.911006526663
907,0.0
908,0.0
971,0.0
972,0.0
1195,0.0
1197,0.0
2,4,12,25, 0, 3, 0.00,60.00,Thursday
7,-3.9
718,18.638877161745643
719,-1.6435313196279528
720,14.011681542993099
619,3375.482210177203
633,1133.3642884463065
659,0.057665953028446494
661,79.67992072631847
690,119.70715567816897
716,0.0
843,2424.2050198632624
844,2424.2050198632624
907,0.0
908,0.0
971,0.0
972,0.0
1195,0.0
1197,0.0
2,4,12,25, 0, 4, 0.00,60.00,Thursday
7,-3.9
718,18.63831988972482
719,-1.50890816144976
720,13.91980207172315
619,3521.6723000239576
633,1175.723422856842
659,1.586449593912461
661,74.66347630968706
690,124.66046294249374
716,0.0
843,2523.4905774148774
844,2523.4905774148774
907,0.0
908,0.0
971,0.0
972,0.0
1195,0.0
1197,0.0
2,4,12,25, 0, 5, 0.00,60.00,Thursday
7,-7.2
718,18.507721247259667
719,-2.457882732484031
720,13.8181148981127
619,4060.929145734429
633,1429.2023974707388
659,28.253697969989272
661,39.52538232452449
690,158.64850284331018
716,0.0
843,2862.5456270251543
844,2862.5456270251543
907,0.0
908,0.0
971,0.0
972,0.0
1195,0.0
1197,0.0
2,4,12,25, 0, 6, 0.00,60.00,Thursday
7,-7.2
718,19.246078390219147
719,-2.557773424890874
720,13.738495451487356
619,5222.156353165161
633,1776.233936364808
659,35.212668993081685
661,0.0
690,198.98353637489748
716,0.0
843,4043.68655421947
844,4043.68655421947
907,0.0
908,0.0
971,0.0
972,0.0
1195,480.79962768641053
1197,480.79962768641053
2,4,12,25, 0, 7, 0.00,60.00,Thursday
7,-8.9
718,19.51922815796621
719,-3.6890469800305996
720,13.674450942473678
619,4966.043670004418
633,1784.2521300089036
659,28.352231493684307
661,0.0
690,198.98353637489748
716,85.44000000000005
843,4339.857226801987
844,4339.857226801987
907,0.0
908,0.0
971,0.0
972,0.0
1195,2262.5050861742266
1197,2262.5050861742266
2,4,12,25, 0, 8, 0.00,60.00,Thursday
7,-7.8
718,19.627179024371678
719,-3.178463135039081
720,13.612544842243858
619,5100.828714818526
633,1802.1436951908943
659,34.85272435126529
661,0.0
690,198.98353637489748
716,85.44000000000005
843,3983.361436059138
844,3983.361436059138
907,0.0
908,0.0
971,0.0
972,0.0
1195,1846.3768570669172
1197,1846.3768570669172
2,4,12,25, 0, 9, 0.00,60.00,Thursday
7,-7.8
718,19.680021870213007
719,-2.8121757863137686
720,13.531525495219482
619,5097.631039936022
633,1805.7708228301349
659,34.85272435126529
661,0.0
690,198.98353637489748
716,85.44000000000005
843,3924.8486521633404
844,3924.8486521633404
907,0.0
908,0.0
971,0.0
972,0.0
1195,1636.7531940391677
1197,1636.7531940391677
2,4,12,25, 0,10, 0.00,60.00,Thursday
7,-5.6
718,19.71073203799692
719,-1.6543145354867246
720,13.472494434399787
619,5578.825444771572
633,1889.3014026931892
659,0.0958542470659096
661,0.0
690,198.98353637489748
716,7.157113827577528
843,3896.596694384707
844,3896.596694384707
907,0.0
908,0.0
971,0.0
972,0.0
1195,159.198692727246
1197,159.198692727246
2,4,12,25, 0,11, 0.00,60.00,Thursday
7,-5.0
718,19.741559389756603
719,-0.6461306018776561
720,13.385523668731098
619,5149.688569792524
633,1742.3295577906567
659,5.850973792584513
661,15.777286736333851
690,183.12176960989422
716,0.0
843,3589.538387870838
844,3589.538387870838
907,0.0
908,0.0
971,0.0
972,0.0
1195,0.0
1197,0.0
2,4,12,25, 0,12, 0.00,60.00,Thursday
7,-5.0
718,19.75435448280079
719,0.9175024305923766
720,13.302094707469848
619,4616.62699974534
633,1579.7178519164684
659,5.301741494234962
661,33.070316546556214
690,165.9320601363847
716,0.0
843,3251.58369562008
844,3251.58369562008
907,0.0
908,0.0
971,0.0
972,0.0
1195,0.0
1197,0.0
2,4,12,25, 0,13, 0.00,60.00,Thursday
7,-6.1
718,19.761244176918975
719,2.4792263707578877
720,13.222502308074086
619,3980.558258880252
633,1412.3100395121733
659,30.98627863532175
661,45.61179352119793
690,152.60281207476166
716,0.0
843,2826.2687769186705
844,2826.2687769186705
907,0.0
908,0.0
971,0.0
972,0.0
1195,0.0
1197,0.0
2,4,12,25, 0,14, 0.00,60.00,Thursday
7,-5.6
718,19.734388928996346
719,2.8833449495392456
720,13.169589021412206
619,3779.136566256485
633,1336.7232823434183
659,46.75454553869896
661,51.97514559252638
690,145.82027379914922
716,0.0
843,2733.361691872795
844,2733.361691872795
907,0.0
908,0.0
971,0.0
972,0.0
1195,0.0
1197,0.0
2,4,12,25, 0,15, 0.00,60.00,Thursday
7,-5.6
718,19.74233832791027
719,4.324297757534275
720,13.12778050784468
619,3794.41792348875
633,1344.3614741000413
659,71.30740091880098
661,47.542855566780396
690,149.42718557229668
716,0.0
843,2750.892375480955
844,2750.892375480955
907,0.0
908,0.0
971,0.0
972,0.0
1195,0.0
1197,0.0
2,4,12,25, 0,16, 0.00,60.00,Thursday
7,-3.9
718,19.760595686098846
719,3.051786919058565
720,13.085162043420144
619,3602.067287279077
633,1238.5011534006308
659,51.70413940240405
661,63.46188329045206
690,134.5052385914251
716,0.0
843,2674.8020298904703
844,2674.8020298904703
907,0.0
908,0.0
971,0.0
972,0.0
1195,0.0
1197,0.0
2,4,12,25, 0,17, 0.00,60.00,Thursday
7,-5.6
718,19.555611488378364
719,1.4188595319217523
720,13.084014715669964
619,5205.682567150821
633,1777.49809681754
659,83.59186462219375
661,0.0
690,197.64168588958032
716,81.42853186125812
843,2980.325144588005
844,2980.325144588005
907,0.0
908,0.0
971,0.0
972,0.0
1195,0.0
1197,0.0
2,4,12,25, 0,18, 0.00,60.00,Thursday
7,-5.6
718,19.71503376837414
719,0.19784728102383403
720,13.004510524917647