Program Version,EnergyPlus, Version 22.2.0-c249759bad, YMD=2023.07.07 15:21
1,5,Environment Title[],Latitude[deg],Longitude[deg],Time Zone[],Elevation[m]
2,8,Day of Simulation[],Month[],Day of Month[],DST Indicator[1=yes 0=no],Hour[],StartMinute[],EndMinute[],DayType
3,5,Cumulative Day of Simulation[],Month[],Day of Month[],DST Indicator[1=yes 0=no],DayType  ! When Daily Report Variables Requested
4,2,Cumulative Days of Simulation[],Month[]  ! When Monthly Report Variables Requested
5,1,Cumulative Days of Simulation[] ! When Run Period Report Variables Requested
6,1,Calendar Year of Simulation[] ! When Annual Report Variables Requested
581,11,LIVING,AFN Zone Infiltration Air Change Rate [ach] !RunPeriod [Value,Min,Month,Day,Hour,Minute,Max,Month,Day,Hour,Minute]
582,11,ATTIC,AFN Zone Infiltration Air Change Rate [ach] !RunPeriod [Value,Min,Month,Day,Hour,Minute,Max,Month,Day,Hour,Minute]
583,11,CRAWLSPACE,AFN Zone Infiltration Air Change Rate [ach] !RunPeriod [Value,Min,Month,Day,Hour,Minute,Max,Month,Day,Hour,Minute]
1038,11,Facility,Facility Heating Setpoint Not Met Time [hr] !RunPeriod [Value,Min,Month,Day,Hour,Minute,Max,Month,Day,Hour,Minute]
1039,11,Facility,Facility Cooling Setpoint Not Met Time [hr] !RunPeriod [Value,Min,Month,Day,Hour,Minute,Max,Month,Day,Hour,Minute]
1115,11,DX_HEATING_COIL,Heating Coil Heating Energy [J] !RunPeriod [Value,Min,Month,Day,Hour,Minute,Max,Month,Day,Hour,Minute]
1128,11,DX_HEATING_COIL,Heating Coil Electricity Energy [J] !RunPeriod [Value,Min,Month,Day,Hour,Minute,Max,Month,Day,Hour,Minute]
1153,11,DX_HEATING_COIL,Heating Coil Defrost Electricity Energy [J] !RunPeriod [Value,Min,Month,Day,Hour,Minute,Max,Month,Day,Hour,Minute]
1154,11,DX_HEATING_COIL,Heating Coil Crankcase Heater Electricity Energy [J] !RunPeriod [Value,Min,Month,Day,Hour,Minute,Max,Month,Day,Hour,Minute]
1156,11,HEATING_RESISTANCE_BACKUP,Heating Coil Electricity Energy [J] !RunPeriod [Value,Min,Month,Day,Hour,Minute,Max,Month,Day,Hour,Minute]
13,11,Electricity:Facility [J] !RunPeriod [Value,Min,Month,Day,Hour,Minute,Max,Month,Day,Hour,Minute]
1134,11,Heating:Electricity [J] !RunPeriod [Value,Min,Month,Day,Hour,Minute,Max,Month,Day,Hour,Minute]
1096,11,Cooling:Electricity [J] !RunPeriod [Value,Min,Month,Day,Hour,Minute,Max,Month,Day,Hour,Minute]
562,11,Fans:Electricity [J] !RunPeriod [Value,Min,Month,Day,Hour,Minute,Max,Month,Day,Hour,Minute]
1388,11,Pumps:Electricity [J] !RunPeriod [Value,Min,Month,Day,Hour,Minute,Max,Month,Day,Hour,Minute]
1360,11,WaterSystems:Electricity [J] !RunPeriod [Value,Min,Month,Day,Hour,Minute,Max,Month,Day,Hour,Minute]
61,11,InteriorLights:Electricity [J] !RunPeriod [Value,Min,Month,Day,Hour,Minute,Max,Month,Day,Hour,Minute]
1046,11,ExteriorLights:Electricity [J] !RunPeriod [Value,Min,Month,Day,Hour,Minute,Max,Month,Day,Hour,Minute]
134,11,InteriorEquipment:Electricity [J] !RunPeriod [Value,Min,Month,Day,Hour,Minute,Max,Month,Day,Hour,Minute]
170,11,gas_dryer:InteriorEquipment:Electricity [J] !RunPeriod [Value,Min,Month,Day,Hour,Minute,Max,Month,Day,Hour,Minute]
207,11,clotheswasher:InteriorEquipment:Electricity [J] !RunPeriod [Value,Min,Month,Day,Hour,Minute,Max,Month,Day,Hour,Minute]
244,11,dishwasher:InteriorEquipment:Electricity [J] !RunPeriod [Value,Min,Month,Day,Hour,Minute,Max,Month,Day,Hour,Minute]
281,11,refrigerator:InteriorEquipment:Electricity [J] !RunPeriod [Value,Min,Month,Day,Hour,Minute,Max,Month,Day,Hour,Minute]
318,11,electric_mels:InteriorEquipment:Electricity [J] !RunPeriod [Value,Min,Month,Day,Hour,Minute,Max,Month,Day,Hour,Minute]
355,11,NaturalGas:Facility [J] !RunPeriod [Value,Min,Month,Day,Hour,Minute,Max,Month,Day,Hour,Minute]
1323,11,WaterSystems:NaturalGas [J] !RunPeriod [Value,Min,Month,Day,Hour,Minute,Max,Month,Day,Hour,Minute]
403,11,InteriorEquipment:NaturalGas [J] !RunPeriod [Value,Min,Month,Day,Hour,Minute,Max,Month,Day,Hour,Minute]
476,11,gas_dryer:InteriorEquipment:NaturalGas [J] !RunPeriod [Value,Min,Month,Day,Hour,Minute,Max,Month,Day,Hour,Minute]
513,11,gas_mels:InteriorEquipment:NaturalGas [J] !RunPeriod [Value,Min,Month,Day,Hour,Minute,Max,Month,Day,Hour,Minute]
End of Data Dictionary
1,EXTREME_WINTER,  37.04,-113.51,  -7.00, 879.00
5,15
1038,0.0,0.0,12,22, 1,10,0.0,12,22, 1,10
1039,0.0,0.0,12,22, 1,10,0.0,12,22, 1,10
581,0.2106274214322057,0.12623885777621413,12,23, 6, 2,0.5518744128372414,12,25, 3,60
582,1.5896787480397412,0.0,12,22, 1, 5,11.70678918057953,12,25, 3,60
583,1.8892343489503747,0.00015871613482864113,12,23,23,60,15.587766587876528,12,25, 3,60
1115,1292086360.2231812,0.0,12,22, 6, 5,3209749.72197943, 1, 5, 7,10
1128,410690699.69326377,0.0,12,22, 6, 5,1079760.0102572762, 1, 5, 7,10
1153,13927022.468593987,0.0,12,22, 6, 5,44655.52609722956, 1, 1, 6,30
1154,212374469.20176336,0.0,12,22, 6, 2,120000.0,12,22,20,20
1156,6144533.089696835,0.0,12,22, 1, 5,736314.5231099012,12,27, 6, 3
13,1509946228.0591419,215074.131225071,12,25, 2,30,2332788.225832505, 1, 5, 6,10
61,646981127.1939279,58759.40635443481,12,22, 1,10,854682.2742463244,12,22,20,10
134,151290040.75163832,42376.01200569399,12,22, 4,10,104369.48322671017,12,27,20,10
170,11185820.069951665,232.27731661587313,12,22, 4,10,11650.931360040839,12,27,12,10
207,13893028.574283868,543.5021409221355,12,22, 3,10,15327.095199349082,12,27,10,10
244,27284301.07562606,1014.5707620042115,12,22, 4,10,35359.08742820678,12,27,20,10
281,98926891.03177528,39959.06841621388,12,22, 5,10,54634.54471212738,12,22,19,10
318,0.0,0.0,12,22, 1,10,0.0,12,22, 1,10
355,1571208545.565432,12374.216038804521,12,22, 4,10,3829218.1540669827,12,23,18,60
403,422701517.161075,12374.216038804521,12,22, 4,10,483183.26346918393,12,27,18,10
476,227882097.80545104,4732.048419519677,12,22, 4,10,237357.535085481,12,27,12,10
513,0.0,0.0,12,22, 1,10,0.0,12,22, 1,10
562,45478239.2888118,0.0,12,22,20,20,123664.8370663303, 1, 5, 6,30
1046,0.0,0.0,12,22, 1,10,0.0,12,22, 1,10
1096,12303296.37144794,0.0,12,22, 1,10,186640.03332139656,12,30,17,30
1134,643136724.453319,0.0,12,29,17,60,1801498.2168059074, 1, 5, 6,10
1323,1148507028.4043558,0.0,12,22, 1,10,3375000.000000001,12,30,20,20
1360,10756800.0,4979.999999999999, 1, 1, 9,40,4980.000000000002,12,29,17,10
1388,0.0,0.0,12,22, 1,10,0.0,12,22, 1,10
1,EXTREME_SUMMER,  37.04,-113.51,  -7.00, 879.00
5,7
1038,0.0,0.0, 6,29, 1,10,0.0, 6,29, 1,10
1039,26.5,0.0, 6,29, 1,10,0.16666666666666666, 6,30,16,60
581,0.10718132686690816,0.0, 6,29, 2, 5,0.6314568992895436, 7, 5,17,55
582,4.835887677884294,0.19427581190300922, 7, 2, 6, 2,23.37631273166191, 7, 5,17,55
583,4.838937960471888,0.02904831659973789, 7, 3, 6, 5,22.075064052826974, 7, 5,17,55
1115,0.0,0.0, 6,29, 1, 5,0.0, 6,29, 1, 5
1128,0.0,0.0, 6,29, 1, 5,0.0, 6,29, 1, 5
1153,0.0,0.0, 6,29, 1, 5,0.0, 6,29, 1, 5
1154,0.0,0.0, 6,29, 1, 5,0.0, 6,29, 1, 5
1156,0.0,0.0, 6,29, 1, 5,0.0, 6,29, 1, 5
13,1283830902.9826589,262723.983933056, 6,29, 4,60,2586080.3595704273, 7, 4,20,10
61,301924526.0238348,58759.40635443481, 6,29, 1,10,854682.2742463244, 6,29,20,10
134,70666020.44019979,42376.01200569399, 6,29, 4,10,104369.48322671017, 7, 4,20,10
170,5241013.419656074,232.27731661587313, 6,29, 4,10,11650.931360040839, 7, 4,12,10
207,6509451.13922266,543.5021409221355, 6,29, 3,10,15327.095199349082, 7, 4,10,10
244,12749673.39982522,1014.5707620042115, 6,29, 4,10,35359.08742820678, 7, 4,20,10
281,46165882.48149605,39959.06841621388, 6,29, 5,10,54634.54471212738, 6,29,19,10
318,0.0,0.0, 6,29, 1,10,0.0, 6,29, 1,10
355,655239271.2557833,12374.216038804521, 6,29, 4,10,3829218.154066982, 6,30,18,60
403,197687796.27748126,12374.216038804521, 6,29, 4,10,483183.26346918393, 7, 4,18,10
476,106772067.24485692,4732.048419519677, 6,29, 4,10,237357.535085481, 7, 4,12,10
513,0.0,0.0, 6,29, 1,10,0.0, 6,29, 1,10
562,75562684.86557241,14556.72735048947, 6,29, 6,20,128526.39918031392, 6,30,16,50
1046,0.0,0.0, 6,29, 1,10,0.0, 6,29, 1,10
1096,830657831.6530514,126791.67623738997, 6,29, 6,20,1644440.9346658154, 7, 4,16,60
1134,0.0,0.0, 6,29, 1,10,0.0, 6,29, 1,10
1323,457551474.978301,0.0, 6,29, 1,10,3375000.0, 6,29, 9,50
1360,5019840.0,4980.0, 6,29, 1,10,4980.000000000001, 6,29, 7,40
1388,0.0,0.0, 6,29, 1,10,0.0, 6,29, 1,10
1,ANNUAL,  37.04,-113.51,  -7.00, 879.00
5,365
1038,0.0,0.0, 1, 1, 1,10,0.0, 1, 1, 1,10
1039,355.83333333333314,0.0, 1, 1, 1,10,0.16666666666666666, 1,15,14,40
581,0.1690893923571474,0.0, 4,27,22,53,1.8981412115511749, 2,18,23,55
582,3.200045031668762,0.0, 1, 1, 1,44,38.72223348160229, 6,16,17,55
583,3.590999217330782,0.0, 6,22,23, 2,52.255236393048285, 2,18,23,55
1115,5168871313.013029,0.0, 1, 1, 1, 2,3402448.4758362733, 1, 6, 6,30
1128,1643141476.6960778,0.0, 1, 1, 1, 2,1140221.484164789, 1, 6, 6,30
1153,45245302.47202692,0.0, 1, 1, 1, 2,73325.60569335349, 2,23, 6,30
1154,1536701072.857652,0.0, 1, 1, 6, 2,120000.0, 1, 1, 2,40
1156,30992688.458455965,0.0, 1, 1, 1, 2,736314.5231099012, 1, 5, 6, 3
13,42541754180.374405,106115.4183601288, 1,23, 4,10,2613364.075499232, 7,10,20,10
61,15743207428.39043,58759.40635443481, 1, 1, 1,10,854682.2742463244, 1, 1,20,10
134,3685071073.433083,42376.01200569399, 1, 2, 4,10,104369.48322671017, 1, 1,20,10
170,273393721.45534325,232.27731661587313, 1, 2, 4,10,11650.931360040839, 1, 1,12,10
207,339560869.06955314,543.5021409221355, 1, 2, 3,10,15327.095199349082, 1, 1,10,10
244,664895467.8009839,1014.5707620042115, 1, 2, 4,10,35359.08742820678, 1, 1,20,10
281,2407221015.1057043,39959.06841621388, 1, 1, 5,10,54634.54471212738, 1, 1,19,10
318,0.0,0.0, 1, 1, 1,10,0.0, 1, 1, 1,10
355,35659323457.787224,12374.216038804521, 1, 2, 4,20,3829218.1540669827, 4,21,18,30
403,10310294493.052883,12374.216038804521, 1, 2, 4,10,483183.26346918393, 1, 1,18,10
476,5569688622.065564,4732.048419519677, 1, 2, 4,10,237357.535085481, 1, 1,12,10
513,0.0,0.0, 1, 1, 1,10,0.0, 1, 1, 1,10
562,2025653988.1328561,0.0, 1, 1, 1,10,128526.39918031394, 8, 1,15,50
1046,0.0,0.0, 1, 1, 1,10,0.0, 1, 1, 1,10
1096,17569992349.940044,0.0, 1, 1, 1,10,1640285.5278500663, 7, 4,16,60
1134,3256080540.4841976,0.0, 1, 2,15,30,1988602.2170853578, 1, 6, 6,10
1323,25349028964.738365,0.0, 1, 1, 1,10,3375000.000000002,10,13,10,40
1360,261748800.0,4979.999999999998, 2,22,14,30,4980.000000000002, 1,22,11,10
1388,0.0,0.0, 1, 1, 1,10,0.0, 1, 1, 1,10
End of Data
 Number of Records Written=          87
