Program Version,EnergyPlus, Version 22.2.0-c249759bad, YMD=2023.07.07 15:04
1,5,Environment Title[],Latitude[deg],Longitude[deg],Time Zone[],Elevation[m]
2,8,Day of Simulation[],Month[],Day of Month[],DST Indicator[1=yes 0=no],Hour[],StartMinute[],EndMinute[],DayType
3,5,Cumulative Day of Simulation[],Month[],Day of Month[],DST Indicator[1=yes 0=no],DayType  ! When Daily Report Variables Requested
4,2,Cumulative Days of Simulation[],Month[]  ! When Monthly Report Variables Requested
5,1,Cumulative Days of Simulation[] ! When Run Period Report Variables Requested
6,1,Calendar Year of Simulation[] ! When Annual Report Variables Requested
581,11,LIVING,AFN Zone Infiltration Air Change Rate [ach] !RunPeriod [Value,Min,Month,Day,Hour,Minute,Max,Month,Day,Hour,Minute]
582,11,ATTIC,AFN Zone Infiltration Air Change Rate [ach] !RunPeriod [Value,Min,Month,Day,Hour,Minute,Max,Month,Day,Hour,Minute]
583,11,CRAWLSPACE,AFN Zone Infiltration Air Change Rate [ach] !RunPeriod [Value,Min,Month,Day,Hour,Minute,Max,Month,Day,Hour,Minute]
1038,11,Facility,Facility Heating Setpoint Not Met Time [hr] !RunPeriod [Value,Min,Month,Day,Hour,Minute,Max,Month,Day,Hour,Minute]
1039,11,Facility,Facility Cooling Setpoint Not Met Time [hr] !RunPeriod [Value,Min,Month,Day,Hour,Minute,Max,Month,Day,Hour,Minute]
1115,11,DX_HEATING_COIL,Heating Coil Heating Energy [J] !RunPeriod [Value,Min,Month,Day,Hour,Minute,Max,Month,Day,Hour,Minute]
1128,11,DX_HEATING_COIL,Heating Coil Electricity Energy [J] !RunPeriod [Value,Min,Month,Day,Hour,Minute,Max,Month,Day,Hour,Minute]
1153,11,DX_HEATING_COIL,Heating Coil Defrost Electricity Energy [J] !RunPeriod [Value,Min,Month,Day,Hour,Minute,Max,Month,Day,Hour,Minute]
1154,11,DX_HEATING_COIL,Heating Coil Crankcase Heater Electricity Energy [J] !RunPeriod [Value,Min,Month,Day,Hour,Minute,Max,Month,Day,Hour,Minute]
1156,11,HEATING_RESISTANCE_BACKUP,Heating Coil Electricity Energy [J] !RunPeriod [Value,Min,Month,Day,Hour,Minute,Max,Month,Day,Hour,Minute]
13,11,Electricity:Facility [J] !RunPeriod [Value,Min,Month,Day,Hour,Minute,Max,Month,Day,Hour,Minute]
1134,11,Heating:Electricity [J] !RunPeriod [Value,Min,Month,Day,Hour,Minute,Max,Month,Day,Hour,Minute]
1096,11,Cooling:Electricity [J] !RunPeriod [Value,Min,Month,Day,Hour,Minute,Max,Month,Day,Hour,Minute]
562,11,Fans:Electricity [J] !RunPeriod [Value,Min,Month,Day,Hour,Minute,Max,Month,Day,Hour,Minute]
1388,11,Pumps:Electricity [J] !RunPeriod [Value,Min,Month,Day,Hour,Minute,Max,Month,Day,Hour,Minute]
1360,11,WaterSystems:Electricity [J] !RunPeriod [Value,Min,Month,Day,Hour,Minute,Max,Month,Day,Hour,Minute]
61,11,InteriorLights:Electricity [J] !RunPeriod [Value,Min,Month,Day,Hour,Minute,Max,Month,Day,Hour,Minute]
1046,11,ExteriorLights:Electricity [J] !RunPeriod [Value,Min,Month,Day,Hour,Minute,Max,Month,Day,Hour,Minute]
134,11,InteriorEquipment:Electricity [J] !RunPeriod [Value,Min,Month,Day,Hour,Minute,Max,Month,Day,Hour,Minute]
170,11,gas_dryer:InteriorEquipment:Electricity [J] !RunPeriod [Value,Min,Month,Day,Hour,Minute,Max,Month,Day,Hour,Minute]
207,11,clotheswasher:InteriorEquipment:Electricity [J] !RunPeriod [Value,Min,Month,Day,Hour,Minute,Max,Month,Day,Hour,Minute]
244,11,dishwasher:InteriorEquipment:Electricity [J] !RunPeriod [Value,Min,Month,Day,Hour,Minute,Max,Month,Day,Hour,Minute]
281,11,refrigerator:InteriorEquipment:Electricity [J] !RunPeriod [Value,Min,Month,Day,Hour,Minute,Max,Month,Day,Hour,Minute]
318,11,electric_mels:InteriorEquipment:Electricity [J] !RunPeriod [Value,Min,Month,Day,Hour,Minute,Max,Month,Day,Hour,Minute]
355,11,NaturalGas:Facility [J] !RunPeriod [Value,Min,Month,Day,Hour,Minute,Max,Month,Day,Hour,Minute]
1323,11,WaterSystems:NaturalGas [J] !RunPeriod [Value,Min,Month,Day,Hour,Minute,Max,Month,Day,Hour,Minute]
403,11,InteriorEquipment:NaturalGas [J] !RunPeriod [Value,Min,Month,Day,Hour,Minute,Max,Month,Day,Hour,Minute]
476,11,gas_dryer:InteriorEquipment:NaturalGas [J] !RunPeriod [Value,Min,Month,Day,Hour,Minute,Max,Month,Day,Hour,Minute]
513,11,gas_mels:InteriorEquipment:NaturalGas [J] !RunPeriod [Value,Min,Month,Day,Hour,Minute,Max,Month,Day,Hour,Minute]
End of Data Dictionary
1,EXTREME_WINTER,  33.57, -86.75,  -6.00, 192.00
5,7
1038,0.3333333333333333,0.0, 1,13, 1,10,0.16666666666666666, 1,17, 6,10
1039,0.0,0.0, 1,13, 1,10,0.0, 1,13, 1,10
581,0.23717241646209195,0.11227847253990866, 1,14, 9,51,0.4264752494259032, 1,18, 9,60
582,2.418087815761639,0.0, 1,13, 5,60,8.109778641848944, 1,17,13,60
583,3.048988216182122,0.00015126412296217662, 1,16, 1,60,10.050673495109384, 1,17,16,55
1115,437948901.0957796,0.0, 1,13, 1,10,2649265.2184836217, 1,18, 6,40
1128,139573343.79691315,0.0, 1,13, 1,10,802825.4323720041, 1,19, 8,40
1153,4274298.966788937,0.0, 1,13, 1,10,40996.34886786237, 1,13, 6,40
1154,73612013.44222851,0.0, 1,13, 6, 2,120000.0, 1,13, 1,10
1156,28116397.812030774,0.0, 1,13, 1,10,1379606.1892810902, 1,19, 6,30
13,660367936.7618771,108095.68729106974, 1,16, 3,10,3316284.002785948, 1,19, 6,10
61,301924526.0238348,58759.40635443481, 1,13, 1,10,854682.2742463244, 1,13,20,10
134,70666020.44019979,42376.01200569399, 1,13, 4,10,104369.48322671017, 1,18,20,10
170,5241013.419656074,232.27731661587313, 1,13, 4,10,11650.931360040839, 1,18,12,10
207,6509451.13922266,543.5021409221355, 1,13, 3,10,15327.095199349082, 1,18,10,10
244,12749673.39982522,1014.5707620042115, 1,13, 4,10,35359.08742820678, 1,18,20,10
281,46165882.48149605,39959.06841621388, 1,13, 5,10,54634.54471212738, 1,13,19,10
318,0.0,0.0, 1,13, 1,10,0.0, 1,13, 1,10
355,739573884.8349832,12374.216038804521, 1,13, 4,10,3829218.154066983, 1,14,18,60
403,197687796.27748126,12374.216038804521, 1,13, 4,10,483183.26346918393, 1,18,18,10
476,106772067.24485692,4732.048419519677, 1,13, 4,10,237357.535085481, 1,18,12,10
513,0.0,0.0, 1,13, 1,10,0.0, 1,13, 1,10
562,17927939.458633702,0.0, 1,13, 1,10,88237.09407941863, 1,18, 6,30
1046,0.0,0.0, 1,13, 1,10,0.0, 1,13, 1,10
1096,19253556.821245592,0.0, 1,13, 1,10,258527.73679570187, 1,14,16,30
1134,245576054.01796153,0.0, 1,13,13,60,2809749.5893301563, 1,19, 6,10
1323,541886088.5574987,0.0, 1,13, 1,10,3375000.000000001, 1,13,16,50
1360,5019840.0,4980.0, 1,13, 1,10,4980.000000000001, 1,13, 6,40
1388,0.0,0.0, 1,13, 1,10,0.0, 1,13, 1,10
1,EXTREME_SUMMER,  33.57, -86.75,  -6.00, 192.00
5,7
1038,0.0,0.0, 7, 6, 1,10,0.0, 7, 6, 1,10
1039,58.33333333333333,0.0, 7, 6, 1,10,0.16666666666666666, 7, 6,15,20
581,0.0367737803270291,0.0, 7, 6, 1,15,0.5769025711849843, 7,10,14,52
582,1.8792748708373095,0.0, 7, 6,20,12,13.339397936437177, 7, 9,17,52
583,1.986803323614883,0.0, 7, 6, 6, 7,16.958350683806778, 7, 9,17,52
1115,0.0,0.0, 7, 6, 1,10,0.0, 7, 6, 1,10
1128,0.0,0.0, 7, 6, 1,10,0.0, 7, 6, 1,10
1153,0.0,0.0, 7, 6, 1,10,0.0, 7, 6, 1,10
1154,0.0,0.0, 7, 6, 1,10,0.0, 7, 6, 1,10
1156,0.0,0.0, 7, 6, 1,10,0.0, 7, 6, 1,10
13,1017970669.296329,169304.6071989016, 7, 8, 4,60,1925644.255168039, 7, 8,20,10
61,301924526.0238348,58759.40635443481, 7, 6, 1,10,854682.2742463244, 7, 6,20,10
134,70666020.44019979,42376.01200569399, 7, 6, 4,10,104369.48322671017, 7,11,20,10
170,5241013.419656074,232.27731661587313, 7, 6, 4,10,11650.931360040839, 7,11,12,10
207,6509451.13922266,543.5021409221355, 7, 6, 3,10,15327.095199349082, 7,11,10,10
244,12749673.39982522,1014.5707620042115, 7, 6, 4,10,35359.08742820678, 7,11,20,10
281,46165882.48149605,39959.06841621388, 7, 6, 5,10,54634.54471212738, 7, 6,19,10
318,0.0,0.0, 7, 6, 1,10,0.0, 7, 6, 1,10
355,649542698.8902382,12374.216038804521, 7, 6, 4,10,3829218.154066982, 7, 7,18,60
403,197687796.27748126,12374.216038804521, 7, 6, 4,10,483183.26346918393, 7,11,18,10
476,106772067.24485692,4732.048419519677, 7, 6, 4,10,237357.535085481, 7,11,12,10
513,0.0,0.0, 7, 6, 1,10,0.0, 7, 6, 1,10
562,60221898.62120612,4661.830180889036, 7, 8, 6,20,88237.09407941863, 7, 6,14,40
1046,0.0,0.0, 7, 6, 1,10,0.0, 7, 6, 1,10
1096,580138384.2110887,39907.064745716474, 7, 8, 6,20,965530.3924714334, 7,12,15,60
1134,0.0,0.0, 7, 6, 1,10,0.0, 7, 6, 1,10
1323,451854902.6127559,0.0, 7, 6, 1,10,3375000.0000000005, 7, 8,16,50
1360,5019840.0,4979.999999999998, 7,10,14,20,4980.000000000001, 7, 6, 8,40
1388,0.0,0.0, 7, 6, 1,10,0.0, 7, 6, 1,10
1,ANNUAL,  33.57, -86.75,  -6.00, 192.00
5,365
1038,3.9999999999999982,0.0, 1, 1, 1,10,0.16666666666666666, 1, 1, 6,10
1039,1029.3333333333321,0.0, 1, 1, 1,10,0.16666666666666666, 2,21,14,10
581,0.1485292386577026,0.0, 3,19,21,23,1.0817931235053533, 2,11,14,60
582,2.7246738094759455,0.0, 1, 2,22,55,24.255510151197832, 7, 4,14,51
583,3.1789174572917807,0.0, 5, 9,23, 2,30.35370042378503, 2,11,14,60
1115,5106139614.055963,0.0, 1, 1,23, 5,2808493.5802541524, 1, 5, 6,40
1128,1560108314.7837105,0.0, 1, 1,23, 5,850363.7010541967, 1, 5, 6,30
1153,63278557.4640468,0.0, 1, 1,14,10,68178.97320527039, 1,27, 6,40
1154,1146356301.0646374,0.0, 1, 1, 6, 5,120000.0, 1, 1,23,30
1156,233872448.98976246,0.0, 1, 1, 1, 5,1774996.6926046093, 2, 4, 6,30
13,39172967905.67316,106115.4183601288, 1, 9, 4,10,3643497.0698047583, 2, 4, 6,10
61,15743207428.39043,58759.40635443481, 1, 1, 1,10,854682.2742463244, 1, 1,20,10
134,3685071073.433083,42376.01200569399, 1, 2, 4,10,104369.48322671017, 1, 1,20,10
170,273393721.45534325,232.27731661587313, 1, 2, 4,10,11650.931360040839, 1, 1,12,10
207,339560869.06955314,543.5021409221355, 1, 2, 3,10,15327.095199349082, 1, 1,10,10
244,664895467.8009839,1014.5707620042115, 1, 2, 4,10,35359.08742820678, 1, 1,20,10
281,2407221015.1057043,39959.06841621388, 1, 1, 5,10,54634.54471212738, 1, 1,19,10
318,0.0,0.0, 1, 1, 1,10,0.0, 1, 1, 1,10
355,35644550631.539734,12374.216038804521, 1, 2, 4,10,3829218.1540669827, 1, 3,18,60
403,10310294493.052883,12374.216038804521, 1, 2, 4,10,483183.26346918393, 1, 1,18,10
476,5569688622.065564,4732.048419519677, 1, 2, 4,10,237357.535085481, 1, 1,12,10
513,0.0,0.0, 1, 1, 1,10,0.0, 1, 1, 1,10
562,1821001382.9457636,0.0, 1, 1,23,10,88237.09407941863, 1, 1, 6,10
1046,0.0,0.0, 1, 1, 1,10,0.0, 1, 1, 1,10
1096,14658323598.60821,0.0, 1, 1, 1,10,987623.6041221964, 8, 4,15,60
1134,3003615622.302159,0.0, 1, 3,15,60,3136962.656348966, 2, 4, 6,10
1323,25334256138.491096,0.0, 1, 1, 1,10,3375000.000000002, 1,10, 9,60
1360,261748800.0,4979.999999999998, 3,17, 9,20,4980.000000000002, 1,12,11,10
1388,0.0,0.0, 1, 1, 1,10,0.0, 1, 1, 1,10
End of Data
 Number of Records Written=          87
