Program Version,EnergyPlus, Version 22.2.0-c249759bad, YMD=2023.09.01 19:24
1,5,Environment Title[],Latitude[deg],Longitude[deg],Time Zone[],Elevation[m]
2,8,Day of Simulation[],Month[],Day of Month[],DST Indicator[1=yes 0=no],Hour[],StartMinute[],EndMinute[],DayType
3,5,Cumulative Day of Simulation[],Month[],Day of Month[],DST Indicator[1=yes 0=no],DayType  ! When Daily Report Variables Requested
4,2,Cumulative Days of Simulation[],Month[]  ! When Monthly Report Variables Requested
5,1,Cumulative Days of Simulation[] ! When Run Period Report Variables Requested
6,1,Calendar Year of Simulation[] ! When Annual Report Variables Requested
618,11,DX_HEATING_COIL,Heating Coil Heating Energy [J] !RunPeriod [Value,Min,Month,Day,Hour,Minute,Max,Month,Day,Hour,Minute]
631,11,DX_HEATING_COIL,Heating Coil Electricity Energy [J] !RunPeriod [Value,Min,Month,Day,Hour,Minute,Max,Month,Day,Hour,Minute]
656,11,DX_HEATING_COIL,Heating Coil Defrost Electricity Energy [J] !RunPeriod [Value,Min,Month,Day,Hour,Minute,Max,Month,Day,Hour,Minute]
657,11,DX_HEATING_COIL,Heating Coil Crankcase Heater Electricity Energy [J] !RunPeriod [Value,Min,Month,Day,Hour,Minute,Max,Month,Day,Hour,Minute]
684,11,HEAT PUMP WATER HEATER EVAPORATOR,Cooling Coil Total Water Heating Energy [J] !RunPeriod [Value,Min,Month,Day,Hour,Minute,Max,Month,Day,Hour,Minute]
685,11,HEAT PUMP WATER HEATER EVAPORATOR,Cooling Coil Water Heating Electricity Energy [J] !RunPeriod [Value,Min,Month,Day,Hour,Minute,Max,Month,Day,Hour,Minute]
712,11,LIVING,AFN Zone Infiltration Air Change Rate [ach] !RunPeriod [Value,Min,Month,Day,Hour,Minute,Max,Month,Day,Hour,Minute]
713,11,ATTIC,AFN Zone Infiltration Air Change Rate [ach] !RunPeriod [Value,Min,Month,Day,Hour,Minute,Max,Month,Day,Hour,Minute]
714,11,CRAWLSPACE,AFN Zone Infiltration Air Change Rate [ach] !RunPeriod [Value,Min,Month,Day,Hour,Minute,Max,Month,Day,Hour,Minute]
1157,11,Facility,Facility Heating Setpoint Not Met Time [hr] !RunPeriod [Value,Min,Month,Day,Hour,Minute,Max,Month,Day,Hour,Minute]
1158,11,Facility,Facility Cooling Setpoint Not Met Time [hr] !RunPeriod [Value,Min,Month,Day,Hour,Minute,Max,Month,Day,Hour,Minute]
1184,11,HEATING_RESISTANCE_BACKUP,Heating Coil Heating Energy [J] !RunPeriod [Value,Min,Month,Day,Hour,Minute,Max,Month,Day,Hour,Minute]
1185,11,HEATING_RESISTANCE_BACKUP,Heating Coil Electricity Energy [J] !RunPeriod [Value,Min,Month,Day,Hour,Minute,Max,Month,Day,Hour,Minute]
1321,11,WATER HEATER TANK,Water Heater Heat Loss Energy [J] !RunPeriod [Value,Min,Month,Day,Hour,Minute,Max,Month,Day,Hour,Minute]
1335,11,WATER HEATER TANK,Water Heater Heating Energy [J] !RunPeriod [Value,Min,Month,Day,Hour,Minute,Max,Month,Day,Hour,Minute]
1336,11,WATER HEATER TANK,Water Heater Unmet Demand Heat Transfer Energy [J] !RunPeriod [Value,Min,Month,Day,Hour,Minute,Max,Month,Day,Hour,Minute]
1337,11,WATER HEATER TANK,Water Heater Electricity Energy [J] !RunPeriod [Value,Min,Month,Day,Hour,Minute,Max,Month,Day,Hour,Minute]
13,11,Electricity:Facility [J] !RunPeriod [Value,Min,Month,Day,Hour,Minute,Max,Month,Day,Hour,Minute]
637,11,Heating:Electricity [J] !RunPeriod [Value,Min,Month,Day,Hour,Minute,Max,Month,Day,Hour,Minute]
599,11,Cooling:Electricity [J] !RunPeriod [Value,Min,Month,Day,Hour,Minute,Max,Month,Day,Hour,Minute]
692,11,Fans:Electricity [J] !RunPeriod [Value,Min,Month,Day,Hour,Minute,Max,Month,Day,Hour,Minute]
1374,11,Pumps:Electricity [J] !RunPeriod [Value,Min,Month,Day,Hour,Minute,Max,Month,Day,Hour,Minute]
677,11,WaterSystems:Electricity [J] !RunPeriod [Value,Min,Month,Day,Hour,Minute,Max,Month,Day,Hour,Minute]
61,11,InteriorLights:Electricity [J] !RunPeriod [Value,Min,Month,Day,Hour,Minute,Max,Month,Day,Hour,Minute]
1165,11,ExteriorLights:Electricity [J] !RunPeriod [Value,Min,Month,Day,Hour,Minute,Max,Month,Day,Hour,Minute]
134,11,InteriorEquipment:Electricity [J] !RunPeriod [Value,Min,Month,Day,Hour,Minute,Max,Month,Day,Hour,Minute]
170,11,gas_dryer:InteriorEquipment:Electricity [J] !RunPeriod [Value,Min,Month,Day,Hour,Minute,Max,Month,Day,Hour,Minute]
207,11,clotheswasher:InteriorEquipment:Electricity [J] !RunPeriod [Value,Min,Month,Day,Hour,Minute,Max,Month,Day,Hour,Minute]
244,11,dishwasher:InteriorEquipment:Electricity [J] !RunPeriod [Value,Min,Month,Day,Hour,Minute,Max,Month,Day,Hour,Minute]
281,11,refrigerator:InteriorEquipment:Electricity [J] !RunPeriod [Value,Min,Month,Day,Hour,Minute,Max,Month,Day,Hour,Minute]
318,11,electric_mels:InteriorEquipment:Electricity [J] !RunPeriod [Value,Min,Month,Day,Hour,Minute,Max,Month,Day,Hour,Minute]
355,11,NaturalGas:Facility [J] !RunPeriod [Value,Min,Month,Day,Hour,Minute,Max,Month,Day,Hour,Minute]
403,11,InteriorEquipment:NaturalGas [J] !RunPeriod [Value,Min,Month,Day,Hour,Minute,Max,Month,Day,Hour,Minute]
476,11,gas_dryer:InteriorEquipment:NaturalGas [J] !RunPeriod [Value,Min,Month,Day,Hour,Minute,Max,Month,Day,Hour,Minute]
513,11,gas_mels:InteriorEquipment:NaturalGas [J] !RunPeriod [Value,Min,Month,Day,Hour,Minute,Max,Month,Day,Hour,Minute]
End of Data Dictionary
1,EXTREME_WINTER,  33.93,-118.40,  -8.00,  32.00
5,7
1157,0.0,0.0, 2,15, 1,15,0.0, 2,15, 1,15
1158,0.0,0.0, 2,15, 1,15,0.0, 2,15, 1,15
618,29481908.423767865,0.0, 2,15, 1, 7,1085906.4768907714, 2,16, 6, 3
631,7710297.180432966,0.0, 2,15, 1, 7,297549.97320551996, 2,16, 6,60
656,0.0,0.0, 2,15, 1, 7,0.0, 2,15, 1, 7
657,15403597.676647786,0.0, 2,15, 1, 7,180000.0, 2,15, 1,45
684,291021857.82888114,0.0, 2,15, 1, 7,1579380.0419930345, 2,21,20,15
685,76389504.36803968,0.0, 2,15, 1, 7,399526.03714753204, 2,21,22,60
712,0.19373186102793666,0.08472188497889241, 2,17, 7,15,0.6559610624308114, 2,16,16,48
713,3.4369151658399795,0.0, 2,17, 4,35,13.072474976677423, 2,15,12,50
714,0.008940691164357589,0.00017034192266938319, 2,21, 9,51,0.050239788157378944, 2,16,17, 5
1184,0.0,0.0, 2,15, 1, 7,0.0, 2,15, 1, 7
1185,0.0,0.0, 2,15, 1, 7,0.0, 2,15, 1, 7
1321,-128964160.38785413,-249328.78197227535, 2,15, 5,30,-12511.575733583903, 2,21,10,16
1335,446863.0141720343,0.0, 2,15, 1, 7,280720.87324846955, 2,21,19,60
1336,134591333.8182467,8225.730799310802, 2,21,10,29,1479996.9310621044, 2,15,14,30
1337,446863.0141720343,0.0, 2,15, 1, 7,280720.87324846955, 2,21,19,60
13,566849025.8953696,159353.1275401932, 2,17, 4,15,2040175.0073117984, 2,21,19,60
61,301924526.02383536,88139.10953165221, 2,15, 1,15,1282023.4113694867, 2,15,20,15
134,70666020.44019976,63564.01800854099, 2,15, 4,15,156554.22484006523, 2,20,20,15
170,5241013.419656067,348.4159749238097, 2,15, 4,15,17476.39704006126, 2,20,12,15
207,6509451.13922267,815.2532113832032, 2,15, 3,15,22990.642799023623, 2,20,10,15
244,12749673.399825225,1521.856143006317, 2,15, 4,15,53038.631142310165, 2,20,20,15
281,46165882.481495745,59938.60262432081, 2,15, 5,15,81951.81706819107, 2,15,19,15
318,0.0,0.0, 2,15, 1,15,0.0, 2,15, 1,15
355,197687796.27748066,18561.32405820678, 2,15, 4,15,724774.895203776, 2,20,18,15
403,197687796.27748066,18561.32405820678, 2,15, 4,15,724774.895203776, 2,20,18,15
476,106772067.24485716,7098.072629279515, 2,15, 4,15,356036.3026282215, 2,20,12,15
513,0.0,0.0, 2,15, 1,15,0.0, 2,15, 1,15
599,73086673.94006163,0.0, 2,15, 1,15,640427.5306789554, 2,16,16,15
637,23113894.85708075,0.0, 2,15, 1,15,522068.7445614897, 2,16, 6,15
677,81977167.38221179,7650.0, 2,15, 1,15,599890.160319041, 2,21,19,60
692,16080743.251980007,0.0, 2,15, 1,15,83780.39008766726, 2,16,17,15
1165,0.0,0.0, 2,15, 1,15,0.0, 2,15, 1,15
1374,0.0,0.0, 2,15, 1,15,0.0, 2,15, 1,15
1,EXTREME_SUMMER,  33.93,-118.40,  -8.00,  32.00
5,7
1157,0.0,0.0, 8,29, 1,15,0.0, 8,29, 1,15
1158,40.75,0.0, 8,29, 1,15,0.25, 8,29,16,60
618,0.0,0.0, 8,29, 1,15,0.0, 8,29, 1,15
631,0.0,0.0, 8,29, 1,15,0.0, 8,29, 1,15
656,0.0,0.0, 8,29, 1,15,0.0, 8,29, 1,15
657,0.0,0.0, 8,29, 1,15,0.0, 8,29, 1,15
684,265908927.12789312,0.0, 8,29, 1,15,1573932.1009607168, 9, 1, 8,30
685,67518154.0171484,0.0, 8,29, 1,15,399311.86541141977, 8,31, 1,60
712,0.11850073482332653,0.0, 8,29, 4,52,0.48237462487809035, 8,29,14,55
713,3.555026053687549,0.035144444148158836, 8,30, 8,22,14.468731777706019, 8,31,14,48
714,0.025551040174612266,0.0, 9, 3, 5,52,0.05118339291079672, 8,29,14,55
1184,0.0,0.0, 8,29, 1,15,0.0, 8,29, 1,15
1185,0.0,0.0, 8,29, 1,15,0.0, 8,29, 1,15
1321,-122822572.75303687,-219602.81040797822, 8,29, 5,45,-15953.145502048772, 8,30, 9, 1
1335,0.0,0.0, 8,29, 1,15,0.0, 8,29, 1,15
1336,128815789.9996408,9792.817594968667, 8,30, 8,31,1269239.1041879081, 8,31, 6,45
1337,0.0,0.0, 8,29, 1,15,0.0, 8,29, 1,15
13,793667602.5705928,160923.90489740777, 8,29, 4,45,2622350.79274477, 9, 4,19,15
61,301924526.02383536,88139.10953165221, 8,29, 1,15,1282023.4113694867, 8,29,20,15
134,70666020.44019976,63564.01800854099, 8,29, 4,15,156554.22484006523, 9, 3,20,15
170,5241013.419656067,348.4159749238097, 8,29, 4,15,17476.39704006126, 9, 3,12,15
207,6509451.13922267,815.2532113832032, 8,29, 3,15,22990.642799023623, 9, 3,10,15
244,12749673.399825225,1521.856143006317, 8,29, 4,15,53038.631142310165, 9, 3,20,15
281,46165882.481495745,59938.60262432081, 8,29, 5,15,81951.81706819107, 8,29,19,15
318,0.0,0.0, 8,29, 1,15,0.0, 8,29, 1,15
355,197687796.27748066,18561.32405820678, 8,29, 4,15,724774.895203776, 9, 3,18,15
403,197687796.27748066,18561.32405820678, 8,29, 4,15,724774.895203776, 9, 3,18,15
476,106772067.24485716,7098.072629279515, 8,29, 4,15,356036.3026282215, 9, 3,12,15
513,0.0,0.0, 8,29, 1,15,0.0, 8,29, 1,15
599,307630082.11226517,0.0, 8,29, 4,60,920007.6841207624, 9, 3,12,60
637,0.0,0.0, 8,29, 1,15,0.0, 8,29, 1,15
677,72658954.01714836,7650.0, 8,29, 1,15,414842.5636232996, 8,29, 5,15
692,40788019.977143735,0.0, 8,29, 5,45,123912.9863317597, 8,30,18,15
1165,0.0,0.0, 8,29, 1,15,0.0, 8,29, 1,15
1374,0.0,0.0, 8,29, 1,15,0.0, 8,29, 1,15
1,ANNUAL,  33.93,-118.40,  -8.00,  32.00
5,365
1157,0.25,0.0, 1, 1, 1,15,0.25, 1, 9, 7,30
1158,767.75,0.0, 1, 1, 1,15,0.25, 1, 5,14,30
618,166171533.67471662,0.0, 1, 1, 1,15,1802264.0158930211,12,28, 6, 7
631,43277400.19389504,0.0, 1, 1, 1,15,442080.3310166395, 1,16, 6,60
656,2893.4043466286475,0.0, 1, 1, 1,15,2893.4043466286475,12,19, 7,60
657,116813280.3416419,0.0, 1, 1, 1,15,180000.0, 1, 4, 3,15
684,14544396942.544455,0.0, 1, 1, 1,15,1693113.8881152114,12,17, 9,60
685,3728168604.388135,0.0, 1, 1, 1,15,411376.2665797982, 8,28, 6,60
712,0.18034106349812404,0.0, 5,18, 1,15,0.9503046432415965, 3,27,12,60
713,4.124038051767228,0.0, 1, 1, 1,60,32.33076518465126,11,10,12,52
714,0.018914707767894025,0.0, 5,18,23, 3,0.05634696612873161,10, 4,14,50
1184,0.0,0.0, 1, 1, 1,15,0.0, 1, 1, 1,15
1185,0.0,0.0, 1, 1, 1,15,0.0, 1, 1, 1,15
1321,-6478013613.798917,-252708.02819252622, 1,16, 3,60,-8360.774502745857, 3,11, 9,59
1335,11448640.353683865,0.0, 1, 1, 1,15,412519.39109421946,12, 3,19,60
1336,6777459131.169273,6285.179238796061, 8,21,12,46,1605889.2835687308,11,17, 6,60
1337,11448640.353683865,0.0, 1, 1, 1,15,412519.39109421946,12, 3,19,60
13,35226180699.7049,159353.1275401932, 1, 2, 4,15,2771937.0545114325, 5,17,20,30
61,15743207428.383959,88139.10953165221, 1, 1, 1,15,1282023.4113694867, 1, 1,20,15
134,3685071073.4325233,63564.01800854099, 1, 2, 4,15,156554.22484006523, 1, 1,20,15
170,273393721.45532674,348.4159749238097, 1, 2, 4,15,17476.39704006126, 1, 1,12,15
207,339560869.0695816,815.2532113832032, 1, 2, 3,15,22990.642799023623, 1, 1,10,15
244,664895467.8009144,1521.856143006317, 1, 2, 4,15,53038.631142310165, 1, 1,20,15
281,2407221015.106824,59938.60262432081, 1, 1, 5,15,81951.81706819107, 1, 1,19,15
318,0.0,0.0, 1, 1, 1,15,0.0, 1, 1, 1,15
355,10310294493.051695,18561.32405820678, 1, 2, 4,15,724774.895203776, 1, 1,18,15
403,10310294493.051695,18561.32405820678, 1, 2, 4,15,724774.895203776, 1, 1,18,15
476,5569688622.066177,7098.072629279515, 1, 2, 4,15,356036.3026282215, 1, 1,12,15
513,0.0,0.0, 1, 1, 1,15,0.0, 1, 1, 1,15
599,10098064222.464691,0.0, 1, 1, 1,15,1052766.6770833184,10,21,13,60
637,160093573.93988356,0.0, 1, 1, 1,15,644187.219948175, 2,16, 6,15
677,4007673244.7418356,7650.0, 1, 1, 1,15,720515.8665137622,12, 3,19,60
692,1532071156.7400868,0.0, 1, 1, 1,15,123912.98633175975, 8,21,12,60
1165,0.0,0.0, 1, 1, 1,15,0.0, 1, 1, 1,15
1374,0.0,0.0, 1, 1, 1,15,0.0, 1, 1, 1,15
End of Data
 Number of Records Written=         105
