Program Version,EnergyPlus, Version 22.2.0-c249759bad, YMD=2023.08.31 14:32
1,5,Environment Title[],Latitude[deg],Longitude[deg],Time Zone[],Elevation[m]
2,8,Day of Simulation[],Month[],Day of Month[],DST Indicator[1=yes 0=no],Hour[],StartMinute[],EndMinute[],DayType
3,5,Cumulative Day of Simulation[],Month[],Day of Month[],DST Indicator[1=yes 0=no],DayType  ! When Daily Report Variables Requested
4,2,Cumulative Days of Simulation[],Month[]  ! When Monthly Report Variables Requested
5,1,Cumulative Days of Simulation[] ! When Run Period Report Variables Requested
6,1,Calendar Year of Simulation[] ! When Annual Report Variables Requested
581,11,LIVING,AFN Zone Infiltration Air Change Rate [ach] !RunPeriod [Value,Min,Month,Day,Hour,Minute,Max,Month,Day,Hour,Minute]
582,11,ATTIC,AFN Zone Infiltration Air Change Rate [ach] !RunPeriod [Value,Min,Month,Day,Hour,Minute,Max,Month,Day,Hour,Minute]
583,11,CRAWLSPACE,AFN Zone Infiltration Air Change Rate [ach] !RunPeriod [Value,Min,Month,Day,Hour,Minute,Max,Month,Day,Hour,Minute]
1038,11,Facility,Facility Heating Setpoint Not Met Time [hr] !RunPeriod [Value,Min,Month,Day,Hour,Minute,Max,Month,Day,Hour,Minute]
1039,11,Facility,Facility Cooling Setpoint Not Met Time [hr] !RunPeriod [Value,Min,Month,Day,Hour,Minute,Max,Month,Day,Hour,Minute]
1115,11,DX_HEATING_COIL,Heating Coil Heating Energy [J] !RunPeriod [Value,Min,Month,Day,Hour,Minute,Max,Month,Day,Hour,Minute]
1128,11,DX_HEATING_COIL,Heating Coil Electricity Energy [J] !RunPeriod [Value,Min,Month,Day,Hour,Minute,Max,Month,Day,Hour,Minute]
1153,11,DX_HEATING_COIL,Heating Coil Defrost Electricity Energy [J] !RunPeriod [Value,Min,Month,Day,Hour,Minute,Max,Month,Day,Hour,Minute]
1154,11,DX_HEATING_COIL,Heating Coil Crankcase Heater Electricity Energy [J] !RunPeriod [Value,Min,Month,Day,Hour,Minute,Max,Month,Day,Hour,Minute]
1155,11,HEATING_RESISTANCE_BACKUP,Heating Coil Heating Energy [J] !RunPeriod [Value,Min,Month,Day,Hour,Minute,Max,Month,Day,Hour,Minute]
1156,11,HEATING_RESISTANCE_BACKUP,Heating Coil Electricity Energy [J] !RunPeriod [Value,Min,Month,Day,Hour,Minute,Max,Month,Day,Hour,Minute]
1292,11,WATER HEATER,Water Heater Heat Loss Energy [J] !RunPeriod [Value,Min,Month,Day,Hour,Minute,Max,Month,Day,Hour,Minute]
1306,11,WATER HEATER,Water Heater Heating Energy [J] !RunPeriod [Value,Min,Month,Day,Hour,Minute,Max,Month,Day,Hour,Minute]
1307,11,WATER HEATER,Water Heater Unmet Demand Heat Transfer Energy [J] !RunPeriod [Value,Min,Month,Day,Hour,Minute,Max,Month,Day,Hour,Minute]
1308,11,WATER HEATER,Water Heater Electricity Energy [J] !RunPeriod [Value,Min,Month,Day,Hour,Minute,Max,Month,Day,Hour,Minute]
13,11,Electricity:Facility [J] !RunPeriod [Value,Min,Month,Day,Hour,Minute,Max,Month,Day,Hour,Minute]
1134,11,Heating:Electricity [J] !RunPeriod [Value,Min,Month,Day,Hour,Minute,Max,Month,Day,Hour,Minute]
1096,11,Cooling:Electricity [J] !RunPeriod [Value,Min,Month,Day,Hour,Minute,Max,Month,Day,Hour,Minute]
562,11,Fans:Electricity [J] !RunPeriod [Value,Min,Month,Day,Hour,Minute,Max,Month,Day,Hour,Minute]
1355,11,Pumps:Electricity [J] !RunPeriod [Value,Min,Month,Day,Hour,Minute,Max,Month,Day,Hour,Minute]
1326,11,WaterSystems:Electricity [J] !RunPeriod [Value,Min,Month,Day,Hour,Minute,Max,Month,Day,Hour,Minute]
61,11,InteriorLights:Electricity [J] !RunPeriod [Value,Min,Month,Day,Hour,Minute,Max,Month,Day,Hour,Minute]
1046,11,ExteriorLights:Electricity [J] !RunPeriod [Value,Min,Month,Day,Hour,Minute,Max,Month,Day,Hour,Minute]
134,11,InteriorEquipment:Electricity [J] !RunPeriod [Value,Min,Month,Day,Hour,Minute,Max,Month,Day,Hour,Minute]
170,11,gas_dryer:InteriorEquipment:Electricity [J] !RunPeriod [Value,Min,Month,Day,Hour,Minute,Max,Month,Day,Hour,Minute]
207,11,clotheswasher:InteriorEquipment:Electricity [J] !RunPeriod [Value,Min,Month,Day,Hour,Minute,Max,Month,Day,Hour,Minute]
244,11,dishwasher:InteriorEquipment:Electricity [J] !RunPeriod [Value,Min,Month,Day,Hour,Minute,Max,Month,Day,Hour,Minute]
281,11,refrigerator:InteriorEquipment:Electricity [J] !RunPeriod [Value,Min,Month,Day,Hour,Minute,Max,Month,Day,Hour,Minute]
318,11,electric_mels:InteriorEquipment:Electricity [J] !RunPeriod [Value,Min,Month,Day,Hour,Minute,Max,Month,Day,Hour,Minute]
355,11,NaturalGas:Facility [J] !RunPeriod [Value,Min,Month,Day,Hour,Minute,Max,Month,Day,Hour,Minute]
403,11,InteriorEquipment:NaturalGas [J] !RunPeriod [Value,Min,Month,Day,Hour,Minute,Max,Month,Day,Hour,Minute]
476,11,gas_dryer:InteriorEquipment:NaturalGas [J] !RunPeriod [Value,Min,Month,Day,Hour,Minute,Max,Month,Day,Hour,Minute]
513,11,gas_mels:InteriorEquipment:NaturalGas [J] !RunPeriod [Value,Min,Month,Day,Hour,Minute,Max,Month,Day,Hour,Minute]
End of Data Dictionary
1,EXTREME_WINTER,  25.79, -80.32,  -5.00,   8.80
5,7
1038,0.0,0.0, 1,15, 1,15,0.0, 1,15, 1,15
1039,0.0,0.0, 1,15, 1,15,0.0, 1,15, 1,15
581,0.20911585145283412,0.0, 1,15,19,37,0.40313321299263044, 1,18, 8,60
582,3.9981767173556024,0.07161433401750895, 1,15,19,52,8.333153501441565, 1,16,12,60
583,5.072763929525329,0.2612368828408124, 1,15,19,60,10.994765060882262, 1,16,12,60
1115,7010798.23043229,0.0, 1,15, 1,15,598654.9608844124, 1,18, 6, 7
1128,1834512.9416351947,0.0, 1,15, 1,15,154223.4683294655, 1,18, 6, 7
1153,0.0,0.0, 1,15, 1,15,0.0, 1,15, 1,15
1154,0.0,0.0, 1,15, 1,15,0.0, 1,15, 1,15
1155,0.0,0.0, 1,15, 1,15,0.0, 1,15, 1,15
1156,0.0,0.0, 1,15, 1,15,0.0, 1,15, 1,15
1292,-39437701.82465608,-67506.09957292845, 1,18, 8,60,-6675.177014569016, 1,19,10,59
1306,109134376.961357,0.0, 1,15, 1,15,4049999.999999999, 1,18, 8,30
1307,59204406.96917489,0.0, 1,15, 6,15,1373579.2394643114, 1,15, 6,50
1308,109134376.961357,0.0, 1,15, 1,15,4049999.999999999, 1,18, 8,30
13,616339750.8977416,159173.1275401932, 1,15, 4,15,5265372.725771551, 1,18,20,15
61,301924526.02383536,88139.10953165221, 1,15, 1,15,1282023.4113694867, 1,15,20,15
134,70666020.44019976,63564.01800854099, 1,15, 4,15,156554.22484006523, 1,20,20,15
170,5241013.419656067,348.4159749238097, 1,15, 4,15,17476.39704006126, 1,20,12,15
207,6509451.13922267,815.2532113832032, 1,15, 3,15,22990.642799023623, 1,20,10,15
244,12749673.399825225,1521.856143006317, 1,15, 4,15,53038.631142310165, 1,20,20,15
281,46165882.481495745,59938.60262432081, 1,15, 5,15,81951.81706819107, 1,15,19,15
318,0.0,0.0, 1,15, 1,15,0.0, 1,15, 1,15
355,197687796.27748066,18561.32405820678, 1,15, 4,15,724774.895203776, 1,20,18,15
403,197687796.27748066,18561.32405820678, 1,15, 4,15,724774.895203776, 1,20,18,15
476,106772067.24485716,7098.072629279515, 1,15, 4,15,356036.3026282215, 1,20,12,15
513,0.0,0.0, 1,15, 1,15,0.0, 1,15, 1,15
562,14516092.14321052,0.0, 1,15, 3,15,111306.23414714637, 1,21,17,30
1046,0.0,0.0, 1,15, 1,15,0.0, 1,15, 1,15
1096,113244382.3875032,0.0, 1,15, 3,15,942916.6966035912, 1,21,17,30
1134,1834512.9416351945,0.0, 1,15, 1,15,154223.4683294655, 1,18, 6,15
1326,114154216.961357,7469.999999999999, 1,19,10,15,4057470.0, 1,20,10,30
1355,0.0,0.0, 1,15, 1,15,0.0, 1,15, 1,15
1,EXTREME_SUMMER,  25.79, -80.32,  -5.00,   8.80
5,7
1038,0.0,0.0, 7,23, 1,15,0.0, 7,23, 1,15
1039,78.5,0.0, 7,23, 1,15,0.25, 7,23,11,30
581,0.11860760478494685,0.0, 7,23, 1,37,0.30852211007818126, 7,27,11,60
582,5.237102388471469,0.06385306770402503, 7,26, 8,50,12.489177835003977, 7,29,13,50
583,5.200773069492855,0.1648261536351191, 7,23, 3,60,11.41966452531975, 7,27,12,30
1115,0.0,0.0, 7,23, 1, 5,0.0, 7,23, 1, 5
1128,0.0,0.0, 7,23, 1, 5,0.0, 7,23, 1, 5
1153,0.0,0.0, 7,23, 1, 5,0.0, 7,23, 1, 5
1154,0.0,0.0, 7,23, 1, 5,0.0, 7,23, 1, 5
1155,0.0,0.0, 7,23, 1, 5,0.0, 7,23, 1, 5
1156,0.0,0.0, 7,23, 1, 5,0.0, 7,23, 1, 5
1292,-37240038.232786804,-60212.328704331565, 7,24, 7,45,-8390.12212402965, 7,24, 9,29
1306,90094776.92635262,0.0, 7,23, 1, 5,4005000.0, 7,24, 7,15
1307,54178379.7831803,0.0, 7,23, 6, 3,877535.8470233381, 7,23, 6,60
1308,90094776.92635262,0.0, 7,23, 1, 5,4005000.0, 7,24, 7,15
13,1192771299.2414656,433327.36087272, 7,23, 4,60,5886501.37961597, 7,26,20,15
61,301924526.02383536,88139.10953165221, 7,23, 1,15,1282023.4113694867, 7,23,20,15
134,70666020.44019976,63564.01800854099, 7,23, 4,15,156554.22484006523, 7,28,20,15
170,5241013.419656067,348.4159749238097, 7,23, 4,15,17476.39704006126, 7,28,12,15
207,6509451.13922267,815.2532113832032, 7,23, 3,15,22990.642799023623, 7,28,10,15
244,12749673.399825225,1521.856143006317, 7,23, 4,15,53038.631142310165, 7,28,20,15
281,46165882.481495745,59938.60262432081, 7,23, 5,15,81951.81706819107, 7,23,19,15
318,0.0,0.0, 7,23, 1,15,0.0, 7,23, 1,15
355,197687796.27748066,18561.32405820678, 7,23, 4,15,724774.895203776, 7,28,18,15
403,197687796.27748066,18561.32405820678, 7,23, 4,15,724774.895203776, 7,28,18,15
476,106772067.24485716,7098.072629279515, 7,23, 4,15,356036.3026282215, 7,28,12,15
513,0.0,0.0, 7,23, 1,15,0.0, 7,23, 1,15
562,66123558.8663849,26460.61797718731, 7,23, 5,60,128605.7793941476, 7,23,10,60
1046,0.0,0.0, 7,23, 1,15,0.0, 7,23, 1,15
1096,658942576.9846944,245478.25185487315, 7,23, 5,60,1353371.0182294117, 7,23,17,60
1134,0.0,0.0, 7,23, 1,15,0.0, 7,23, 1,15
1326,95114616.92635259,7469.999999999999, 7,24, 9,30,4057470.0, 7,25, 8,60
1355,0.0,0.0, 7,23, 1,15,0.0, 7,23, 1,15
1,ANNUAL,  25.79, -80.32,  -5.00,   8.80
5,365
1038,0.0,0.0, 1, 1, 1,15,0.0, 1, 1, 1,15
1039,1696.5,0.0, 1, 1, 1,15,0.25, 1, 6,14,60
581,0.12642914875244732,0.0, 1, 4, 7,52,0.7814997808368578, 5,26,15,49
582,4.099123948298817,0.0, 1,25,20, 9,22.27650043136387, 5,26,15,46
583,4.455279847051321,0.0, 2, 7,23, 5,25.697688896349568, 5,26,15,46
1115,18717252.47679319,0.0, 1, 1, 1,15,1436623.0008108842, 1,24, 6, 3
1128,5034166.046899388,0.0, 1, 1, 1,15,351768.71721298713, 1,24, 6, 3
1153,0.0,0.0, 1, 1, 1,15,0.0, 1, 1, 1,15
1154,14296587.491850736,0.0, 1, 1, 1,15,180000.0, 1,24, 1,30
1155,0.0,0.0, 1, 1, 1,15,0.0, 1, 1, 1,15
1156,0.0,0.0, 1, 1, 1,15,0.0, 1, 1, 1,15
1292,-1975470915.6304007,-67507.96869243124, 1,17, 7,45,-4035.5695325741613, 6,16,16, 2
1306,5231325231.669186,0.0, 1, 1, 1,15,4050000.000000002, 2,13, 7,15
1307,2943934491.8064113,0.0, 1, 1,13,55,1913861.9512772153, 1,16, 6,60
1308,5231325231.669185,0.0, 1, 1, 1,15,4050000.000000002, 2,13, 7,15
13,50942320177.326775,159173.1275401932, 1, 2, 4,15,6167832.057335556, 2,23,20,15
61,15743207428.383959,88139.10953165221, 1, 1, 1,15,1282023.4113694867, 1, 1,20,15
134,3685071073.4325233,63564.01800854099, 1, 2, 4,15,156554.22484006523, 1, 1,20,15
170,273393721.45532674,348.4159749238097, 1, 2, 4,15,17476.39704006126, 1, 1,12,15
207,339560869.0695816,815.2532113832032, 1, 2, 3,15,22990.642799023623, 1, 1,10,15
244,664895467.8009144,1521.856143006317, 1, 2, 4,15,53038.631142310165, 1, 1,20,15
281,2407221015.106824,59938.60262432081, 1, 1, 5,15,81951.81706819107, 1, 1,19,15
318,0.0,0.0, 1, 1, 1,15,0.0, 1, 1, 1,15
355,10310294493.051695,18561.32405820678, 1, 2, 4,15,724774.895203776, 1, 1,18,15
403,10310294493.051695,18561.32405820678, 1, 2, 4,15,724774.895203776, 1, 1,18,15
476,5569688622.066177,7098.072629279515, 1, 2, 4,15,356036.3026282215, 1, 1,12,15
513,0.0,0.0, 1, 1, 1,15,0.0, 1, 1, 1,15
562,2543414396.079897,0.0, 1, 1, 3,15,128605.7793941476, 2, 7,18,30
1046,0.0,0.0, 1, 1, 1,15,0.0, 1, 1, 1,15
1096,23458222494.221012,0.0, 1, 1, 3,15,1384290.6075525966, 8,21,14,60
1134,19330753.53875012,0.0, 1, 1, 1,15,605579.9638549879, 1,24, 6,15
1326,5493074031.669177,7469.999999999999, 1,19,10,15,4057470.000000002, 2,13, 7,15
1355,0.0,0.0, 1, 1, 1,15,0.0, 1, 1, 1,15
End of Data
 Number of Records Written=          99
