Program Version,EnergyPlus, Version 22.2.0-c249759bad, YMD=2023.09.01 15:39
1,5,Environment Title[],Latitude[deg],Longitude[deg],Time Zone[],Elevation[m]
2,8,Day of Simulation[],Month[],Day of Month[],DST Indicator[1=yes 0=no],Hour[],StartMinute[],EndMinute[],DayType
3,5,Cumulative Day of Simulation[],Month[],Day of Month[],DST Indicator[1=yes 0=no],DayType  ! When Daily Report Variables Requested
4,2,Cumulative Days of Simulation[],Month[]  ! When Monthly Report Variables Requested
5,1,Cumulative Days of Simulation[] ! When Run Period Report Variables Requested
6,1,Calendar Year of Simulation[] ! When Annual Report Variables Requested
581,11,LIVING,AFN Zone Infiltration Air Change Rate [ach] !RunPeriod [Value,Min,Month,Day,Hour,Minute,Max,Month,Day,Hour,Minute]
582,11,ATTIC,AFN Zone Infiltration Air Change Rate [ach] !RunPeriod [Value,Min,Month,Day,Hour,Minute,Max,Month,Day,Hour,Minute]
583,11,CRAWLSPACE,AFN Zone Infiltration Air Change Rate [ach] !RunPeriod [Value,Min,Month,Day,Hour,Minute,Max,Month,Day,Hour,Minute]
1038,11,Facility,Facility Heating Setpoint Not Met Time [hr] !RunPeriod [Value,Min,Month,Day,Hour,Minute,Max,Month,Day,Hour,Minute]
1039,11,Facility,Facility Cooling Setpoint Not Met Time [hr] !RunPeriod [Value,Min,Month,Day,Hour,Minute,Max,Month,Day,Hour,Minute]
1115,11,DX_HEATING_COIL,Heating Coil Heating Energy [J] !RunPeriod [Value,Min,Month,Day,Hour,Minute,Max,Month,Day,Hour,Minute]
1128,11,DX_HEATING_COIL,Heating Coil Electricity Energy [J] !RunPeriod [Value,Min,Month,Day,Hour,Minute,Max,Month,Day,Hour,Minute]
1153,11,DX_HEATING_COIL,Heating Coil Defrost Electricity Energy [J] !RunPeriod [Value,Min,Month,Day,Hour,Minute,Max,Month,Day,Hour,Minute]
1154,11,DX_HEATING_COIL,Heating Coil Crankcase Heater Electricity Energy [J] !RunPeriod [Value,Min,Month,Day,Hour,Minute,Max,Month,Day,Hour,Minute]
1155,11,HEATING_RESISTANCE_BACKUP,Heating Coil Heating Energy [J] !RunPeriod [Value,Min,Month,Day,Hour,Minute,Max,Month,Day,Hour,Minute]
1156,11,HEATING_RESISTANCE_BACKUP,Heating Coil Electricity Energy [J] !RunPeriod [Value,Min,Month,Day,Hour,Minute,Max,Month,Day,Hour,Minute]
1292,11,WATER HEATER,Water Heater Heat Loss Energy [J] !RunPeriod [Value,Min,Month,Day,Hour,Minute,Max,Month,Day,Hour,Minute]
1306,11,WATER HEATER,Water Heater Heating Energy [J] !RunPeriod [Value,Min,Month,Day,Hour,Minute,Max,Month,Day,Hour,Minute]
1307,11,WATER HEATER,Water Heater Unmet Demand Heat Transfer Energy [J] !RunPeriod [Value,Min,Month,Day,Hour,Minute,Max,Month,Day,Hour,Minute]
1308,11,WATER HEATER,Water Heater Electricity Energy [J] !RunPeriod [Value,Min,Month,Day,Hour,Minute,Max,Month,Day,Hour,Minute]
13,11,Electricity:Facility [J] !RunPeriod [Value,Min,Month,Day,Hour,Minute,Max,Month,Day,Hour,Minute]
1134,11,Heating:Electricity [J] !RunPeriod [Value,Min,Month,Day,Hour,Minute,Max,Month,Day,Hour,Minute]
1096,11,Cooling:Electricity [J] !RunPeriod [Value,Min,Month,Day,Hour,Minute,Max,Month,Day,Hour,Minute]
562,11,Fans:Electricity [J] !RunPeriod [Value,Min,Month,Day,Hour,Minute,Max,Month,Day,Hour,Minute]
1379,11,Pumps:Electricity [J] !RunPeriod [Value,Min,Month,Day,Hour,Minute,Max,Month,Day,Hour,Minute]
1326,11,WaterSystems:Electricity [J] !RunPeriod [Value,Min,Month,Day,Hour,Minute,Max,Month,Day,Hour,Minute]
61,11,InteriorLights:Electricity [J] !RunPeriod [Value,Min,Month,Day,Hour,Minute,Max,Month,Day,Hour,Minute]
1046,11,ExteriorLights:Electricity [J] !RunPeriod [Value,Min,Month,Day,Hour,Minute,Max,Month,Day,Hour,Minute]
134,11,InteriorEquipment:Electricity [J] !RunPeriod [Value,Min,Month,Day,Hour,Minute,Max,Month,Day,Hour,Minute]
170,11,gas_dryer:InteriorEquipment:Electricity [J] !RunPeriod [Value,Min,Month,Day,Hour,Minute,Max,Month,Day,Hour,Minute]
207,11,clotheswasher:InteriorEquipment:Electricity [J] !RunPeriod [Value,Min,Month,Day,Hour,Minute,Max,Month,Day,Hour,Minute]
244,11,dishwasher:InteriorEquipment:Electricity [J] !RunPeriod [Value,Min,Month,Day,Hour,Minute,Max,Month,Day,Hour,Minute]
281,11,refrigerator:InteriorEquipment:Electricity [J] !RunPeriod [Value,Min,Month,Day,Hour,Minute,Max,Month,Day,Hour,Minute]
318,11,electric_mels:InteriorEquipment:Electricity [J] !RunPeriod [Value,Min,Month,Day,Hour,Minute,Max,Month,Day,Hour,Minute]
355,11,NaturalGas:Facility [J] !RunPeriod [Value,Min,Month,Day,Hour,Minute,Max,Month,Day,Hour,Minute]
403,11,InteriorEquipment:NaturalGas [J] !RunPeriod [Value,Min,Month,Day,Hour,Minute,Max,Month,Day,Hour,Minute]
476,11,gas_dryer:InteriorEquipment:NaturalGas [J] !RunPeriod [Value,Min,Month,Day,Hour,Minute,Max,Month,Day,Hour,Minute]
513,11,gas_mels:InteriorEquipment:NaturalGas [J] !RunPeriod [Value,Min,Month,Day,Hour,Minute,Max,Month,Day,Hour,Minute]
End of Data Dictionary
1,EXTREME_WINTER,  43.57,-116.21,  -7.00, 857.70
5,7
1038,0.25,0.0,12,15, 1,15,0.25,12,18, 6,15
1039,0.0,0.0,12,15, 1,15,0.0,12,15, 1,15
581,0.3969718375211678,0.24476245970571667,12,16,23, 7,0.7804509496570579,12,19,10,60
582,3.68185429582501,0.0,12,17,22,30,15.421348345649546,12,19,18,60
583,0.0704918356012827,0.0004062036475395419,12,16,23, 7,0.10127914393363391,12,19,10,60
1115,2254905714.714731,0.0,12,15,23, 3,4944816.944783401,12,16,11,30
1128,772194692.844273,0.0,12,15,23, 3,1571767.1790647253,12,16,11,30
1153,21105577.631979004,0.0,12,15,23, 3,80261.63600762012,12,15, 6,45
1154,30203181.848210994,0.0,12,15, 6, 5,159645.5536112758,12,17,16,30
1155,182726566.39896262,0.0,12,15, 1,15,3394302.3700824277,12,18, 6,45
1156,182726566.39896262,0.0,12,15, 1,15,3394302.3700824277,12,18, 6,45
1292,-25405800.778328512,-39765.95905814693,12,16, 4,45,-5185.701568323369,12,20,15,60
1306,228277382.07584268,0.0,12,15, 1,15,10323501.228434699,12,21, 9,45
1307,5495780.328814923,0.0,12,15, 1,15,2778274.4337634686,12,21,19,60
1308,228277382.07584268,0.0,12,15, 1,15,10323501.228434699,12,21, 9,45
13,1691446439.85973,694103.5272536981,12,17,15,60,12685710.705960762,12,21, 9,45
61,301924526.02383536,88139.10953165221,12,15, 1,15,1282023.4113694867,12,15,20,15
134,70666020.44019976,63564.01800854099,12,15, 4,15,156554.22484006523,12,20,20,15
170,5241013.419656067,348.4159749238097,12,15, 4,15,17476.39704006126,12,20,12,15
207,6509451.13922267,815.2532113832032,12,15, 3,15,22990.642799023623,12,20,10,15
244,12749673.399825225,1521.856143006317,12,15, 4,15,53038.631142310165,12,20,20,15
281,46165882.481495745,59938.60262432081,12,15, 5,15,81951.81706819107,12,15,19,15
318,0.0,0.0,12,15, 1,15,0.0,12,15, 1,15
355,197687796.27748066,18561.32405820678,12,15, 4,15,724774.895203776,12,20,18,15
403,197687796.27748066,18561.32405820678,12,15, 4,15,724774.895203776,12,20,18,15
476,106772067.24485716,7098.072629279515,12,15, 4,15,356036.3026282215,12,20,12,15
513,0.0,0.0,12,15, 1,15,0.0,12,15, 1,15
562,84348492.5964293,15453.111394350883,12,17,17,15,168016.06555125143,12,15,10,30
1046,0.0,0.0,12,15, 1,15,0.0,12,15, 1,15
1096,0.0,0.0,12,15, 1,15,0.0,12,15, 1,15
1134,1006230018.7234235,309644.1644913814,12,17,17,15,5604041.228156989,12,18, 6,15
1326,228277382.0758427,0.0,12,15, 1,15,10323501.228434699,12,21, 9,45
1379,0.0,0.0,12,15, 1,15,0.0,12,15, 1,15
1,EXTREME_SUMMER,  43.57,-116.21,  -7.00, 857.70
5,7
1038,0.0,0.0, 7,20, 1,15,0.0, 7,20, 1,15
1039,10.0,0.0, 7,20, 1,15,0.25, 7,21,17,60
581,0.13145984720958645,0.0, 7,25,23, 3,0.3876752278029883, 7,26,13,52
582,2.8453461276388503,0.0691433173991678, 7,21,21,27,8.620225949842073, 7,26,18,48
583,0.04284504507871322,0.0, 7,25,23, 3,0.0889949716617032, 7,26,19,18
1115,0.0,0.0, 7,20, 1, 7,0.0, 7,20, 1, 7
1128,0.0,0.0, 7,20, 1, 7,0.0, 7,20, 1, 7
1153,0.0,0.0, 7,20, 1, 7,0.0, 7,20, 1, 7
1154,0.0,0.0, 7,20, 1, 7,0.0, 7,20, 1, 7
1155,0.0,0.0, 7,20, 1, 7,0.0, 7,20, 1, 7
1156,0.0,0.0, 7,20, 1, 7,0.0, 7,20, 1, 7
1292,-22014780.241786063,-34341.42368888475, 7,23, 7,30,-3029.4103564646784, 7,21,10,14
1306,174624841.55508363,0.0, 7,20, 1, 7,5749459.06413028, 7,24, 6,60
1307,1500067.8668889483,0.0, 7,20, 1, 7,380189.1727071524, 7,26,19,52
1308,174624841.55508363,0.0, 7,20, 1, 7,5749459.06413028, 7,24, 6,60
13,1161526457.5569186,151703.1275401932, 7,20, 4,60,13417942.005211134, 7,26,19,60
61,301924526.02383536,88139.10953165221, 7,20, 1,15,1282023.4113694867, 7,20,20,15
134,70666020.44019976,63564.01800854099, 7,20, 4,15,156554.22484006523, 7,25,20,15
170,5241013.419656067,348.4159749238097, 7,20, 4,15,17476.39704006126, 7,25,12,15
207,6509451.13922267,815.2532113832032, 7,20, 3,15,22990.642799023623, 7,25,10,15
244,12749673.399825225,1521.856143006317, 7,20, 4,15,53038.631142310165, 7,25,20,15
281,46165882.481495745,59938.60262432081, 7,20, 5,15,81951.81706819107, 7,20,19,15
318,0.0,0.0, 7,20, 1,15,0.0, 7,20, 1,15
355,197687796.27748066,18561.32405820678, 7,20, 4,15,724774.895203776, 7,25,18,15
403,197687796.27748066,18561.32405820678, 7,20, 4,15,724774.895203776, 7,25,18,15
476,106772067.24485716,7098.072629279515, 7,20, 4,15,356036.3026282215, 7,25,12,15
513,0.0,0.0, 7,20, 1,15,0.0, 7,20, 1,15
562,56052396.99505618,0.0, 7,20, 4,60,168016.06555125146, 7,21,19,60
1046,0.0,0.0, 7,20, 1,15,0.0, 7,20, 1,15
1096,558258672.5427438,0.0, 7,20, 4,60,2021124.531290858, 7,22,15,60
1134,0.0,0.0, 7,20, 1,15,0.0, 7,20, 1,15
1326,174624841.55508366,0.0, 7,20, 1,15,10397811.898610694, 7,26,19,60
1379,0.0,0.0, 7,20, 1,15,0.0, 7,20, 1,15
1,ANNUAL,  43.57,-116.21,  -7.00, 857.70
5,365
1038,2.25,0.0, 1, 1, 1,15,0.25, 1, 1, 6,15
1039,154.5,0.0, 1, 1, 1,15,0.25, 3, 4,14,45
581,0.24437996962928624,0.0, 6, 8,23, 3,1.285859237097286, 5,21,16,49
582,3.5837450845916514,0.0, 1, 2,24,45,33.177613787591994,10,17, 9,60
583,0.028518256574281045,0.0, 6, 8,23, 3,0.10545803474567818, 8, 3,19,47
1115,22871078497.75968,0.0, 1, 1,23, 5,5090522.302226117,12,25,10,45
1128,7294630064.191298,0.0, 1, 1,23, 5,1598262.6670294122,12,25,10,45
1153,338277773.4344739,0.0, 1, 1,23, 5,137812.7555089525, 1,19, 6,45
1154,2129131241.866793,0.0, 1, 1, 1, 7,180000.0, 1, 7,14,15
1155,720318222.3643011,0.0, 1, 1,12,18,3770740.4825711856,12,27, 6,30
1156,720318222.3643011,0.0, 1, 1,12,18,3770740.4825711856,12,27, 6,30
1292,-1230443142.7946947,-39775.57055005814, 2,14, 2,45,-2204.623558020982, 5,28,16,45
1306,10871155788.853392,0.0, 1, 1, 1, 7,10398025.835982116, 2,12, 9,45
1307,209648068.13572437,0.0, 1, 1, 1, 7,6086092.895141528, 3, 5,19,60
1308,10871155788.853392,0.0, 1, 1, 1, 7,10398025.835982116, 2,12, 9,45
13,51262811807.55655,151703.1275401932, 3, 6, 4,15,13666938.743605003, 7,16,19,60
61,15743207428.383959,88139.10953165221, 1, 1, 1,15,1282023.4113694867, 1, 1,20,15
134,3685071073.4325233,63564.01800854099, 1, 2, 4,15,156554.22484006523, 1, 1,20,15
170,273393721.45532674,348.4159749238097, 1, 2, 4,15,17476.39704006126, 1, 1,12,15
207,339560869.0695816,815.2532113832032, 1, 2, 3,15,22990.642799023623, 1, 1,10,15
244,664895467.8009144,1521.856143006317, 1, 2, 4,15,53038.631142310165, 1, 1,20,15
281,2407221015.106824,59938.60262432081, 1, 1, 5,15,81951.81706819107, 1, 1,19,15
318,0.0,0.0, 1, 1, 1,15,0.0, 1, 1, 1,15
355,10310294493.051695,18561.32405820678, 1, 2, 4,15,724774.895203776, 1, 1,18,15
403,10310294493.051695,18561.32405820678, 1, 2, 4,15,724774.895203776, 1, 1,18,15
476,5569688622.066177,7098.072629279515, 1, 2, 4,15,356036.3026282215, 1, 1,12,15
513,0.0,0.0, 1, 1, 1,15,0.0, 1, 1, 1,15
562,1777889313.3940592,0.0, 1, 7,13,15,168016.0655512515, 8, 3,19,30
1046,0.0,0.0, 1, 1, 1,15,0.0, 1, 1, 1,15
1096,8703130901.63395,0.0, 1, 1, 1,15,2044217.1587846722, 7,18,14,60
1134,10482357301.856829,0.0, 2, 7,14,60,5848475.556919061,12,27, 6,15
1326,10871155788.85336,0.0, 1, 1, 1,15,10540800.0, 4, 9,19,60
1379,0.0,0.0, 1, 1, 1,15,0.0, 1, 1, 1,15
End of Data
 Number of Records Written=          99
