Program Version,EnergyPlus, Version 22.2.0-c249759bad, YMD=2023.09.01 18:15
1,5,Environment Title[],Latitude[deg],Longitude[deg],Time Zone[],Elevation[m]
2,8,Day of Simulation[],Month[],Day of Month[],DST Indicator[1=yes 0=no],Hour[],StartMinute[],EndMinute[],DayType
3,5,Cumulative Day of Simulation[],Month[],Day of Month[],DST Indicator[1=yes 0=no],DayType  ! When Daily Report Variables Requested
4,2,Cumulative Days of Simulation[],Month[]  ! When Monthly Report Variables Requested
5,1,Cumulative Days of Simulation[] ! When Run Period Report Variables Requested
6,1,Calendar Year of Simulation[] ! When Annual Report Variables Requested
581,11,LIVING,AFN Zone Infiltration Air Change Rate [ach] !RunPeriod [Value,Min,Month,Day,Hour,Minute,Max,Month,Day,Hour,Minute]
582,11,ATTIC,AFN Zone Infiltration Air Change Rate [ach] !RunPeriod [Value,Min,Month,Day,Hour,Minute,Max,Month,Day,Hour,Minute]
583,11,CRAWLSPACE,AFN Zone Infiltration Air Change Rate [ach] !RunPeriod [Value,Min,Month,Day,Hour,Minute,Max,Month,Day,Hour,Minute]
1038,11,Facility,Facility Heating Setpoint Not Met Time [hr] !RunPeriod [Value,Min,Month,Day,Hour,Minute,Max,Month,Day,Hour,Minute]
1039,11,Facility,Facility Cooling Setpoint Not Met Time [hr] !RunPeriod [Value,Min,Month,Day,Hour,Minute,Max,Month,Day,Hour,Minute]
1115,11,DX_HEATING_COIL,Heating Coil Heating Energy [J] !RunPeriod [Value,Min,Month,Day,Hour,Minute,Max,Month,Day,Hour,Minute]
1128,11,DX_HEATING_COIL,Heating Coil Electricity Energy [J] !RunPeriod [Value,Min,Month,Day,Hour,Minute,Max,Month,Day,Hour,Minute]
1153,11,DX_HEATING_COIL,Heating Coil Defrost Electricity Energy [J] !RunPeriod [Value,Min,Month,Day,Hour,Minute,Max,Month,Day,Hour,Minute]
1154,11,DX_HEATING_COIL,Heating Coil Crankcase Heater Electricity Energy [J] !RunPeriod [Value,Min,Month,Day,Hour,Minute,Max,Month,Day,Hour,Minute]
1155,11,HEATING_RESISTANCE_BACKUP,Heating Coil Heating Energy [J] !RunPeriod [Value,Min,Month,Day,Hour,Minute,Max,Month,Day,Hour,Minute]
1156,11,HEATING_RESISTANCE_BACKUP,Heating Coil Electricity Energy [J] !RunPeriod [Value,Min,Month,Day,Hour,Minute,Max,Month,Day,Hour,Minute]
1292,11,WATER HEATER,Water Heater Heat Loss Energy [J] !RunPeriod [Value,Min,Month,Day,Hour,Minute,Max,Month,Day,Hour,Minute]
1306,11,WATER HEATER,Water Heater Heating Energy [J] !RunPeriod [Value,Min,Month,Day,Hour,Minute,Max,Month,Day,Hour,Minute]
1307,11,WATER HEATER,Water Heater Unmet Demand Heat Transfer Energy [J] !RunPeriod [Value,Min,Month,Day,Hour,Minute,Max,Month,Day,Hour,Minute]
1308,11,WATER HEATER,Water Heater Electricity Energy [J] !RunPeriod [Value,Min,Month,Day,Hour,Minute,Max,Month,Day,Hour,Minute]
13,11,Electricity:Facility [J] !RunPeriod [Value,Min,Month,Day,Hour,Minute,Max,Month,Day,Hour,Minute]
1134,11,Heating:Electricity [J] !RunPeriod [Value,Min,Month,Day,Hour,Minute,Max,Month,Day,Hour,Minute]
1096,11,Cooling:Electricity [J] !RunPeriod [Value,Min,Month,Day,Hour,Minute,Max,Month,Day,Hour,Minute]
562,11,Fans:Electricity [J] !RunPeriod [Value,Min,Month,Day,Hour,Minute,Max,Month,Day,Hour,Minute]
1379,11,Pumps:Electricity [J] !RunPeriod [Value,Min,Month,Day,Hour,Minute,Max,Month,Day,Hour,Minute]
1326,11,WaterSystems:Electricity [J] !RunPeriod [Value,Min,Month,Day,Hour,Minute,Max,Month,Day,Hour,Minute]
61,11,InteriorLights:Electricity [J] !RunPeriod [Value,Min,Month,Day,Hour,Minute,Max,Month,Day,Hour,Minute]
1046,11,ExteriorLights:Electricity [J] !RunPeriod [Value,Min,Month,Day,Hour,Minute,Max,Month,Day,Hour,Minute]
134,11,InteriorEquipment:Electricity [J] !RunPeriod [Value,Min,Month,Day,Hour,Minute,Max,Month,Day,Hour,Minute]
170,11,gas_dryer:InteriorEquipment:Electricity [J] !RunPeriod [Value,Min,Month,Day,Hour,Minute,Max,Month,Day,Hour,Minute]
207,11,clotheswasher:InteriorEquipment:Electricity [J] !RunPeriod [Value,Min,Month,Day,Hour,Minute,Max,Month,Day,Hour,Minute]
244,11,dishwasher:InteriorEquipment:Electricity [J] !RunPeriod [Value,Min,Month,Day,Hour,Minute,Max,Month,Day,Hour,Minute]
281,11,refrigerator:InteriorEquipment:Electricity [J] !RunPeriod [Value,Min,Month,Day,Hour,Minute,Max,Month,Day,Hour,Minute]
318,11,electric_mels:InteriorEquipment:Electricity [J] !RunPeriod [Value,Min,Month,Day,Hour,Minute,Max,Month,Day,Hour,Minute]
355,11,NaturalGas:Facility [J] !RunPeriod [Value,Min,Month,Day,Hour,Minute,Max,Month,Day,Hour,Minute]
403,11,InteriorEquipment:NaturalGas [J] !RunPeriod [Value,Min,Month,Day,Hour,Minute,Max,Month,Day,Hour,Minute]
476,11,gas_dryer:InteriorEquipment:NaturalGas [J] !RunPeriod [Value,Min,Month,Day,Hour,Minute,Max,Month,Day,Hour,Minute]
513,11,gas_mels:InteriorEquipment:NaturalGas [J] !RunPeriod [Value,Min,Month,Day,Hour,Minute,Max,Month,Day,Hour,Minute]
End of Data Dictionary
1,EXTREME_WINTER,  42.92, -97.38,  -6.00, 398.00
5,7
1038,1.0,0.0, 1,20, 1,15,0.25, 1,21, 6,15
1039,0.0,0.0, 1,20, 1,15,0.0, 1,20, 1,15
581,0.47456673560910434,0.23275270429417985, 1,26,23,10,0.8202220478036619, 1,21, 2,60
582,5.380207197605775,0.0643408715175692, 1,25, 4,60,15.715484624325107, 1,21, 2,60
583,0.07024752150509714,0.0008015128343708671, 1,21,23, 5,0.08655476337218387, 1,21, 4,60
1115,2280234559.1488695,0.0, 1,20,23, 5,4684973.054195006, 1,26,13,30
1128,869465015.4609302,0.0, 1,20,23, 5,1500877.089488809, 1,26,13,30
1153,11475757.704501314,0.0, 1,20,23, 5,61030.870946003066, 1,25,10,15
1154,10861596.152210755,0.0, 1,20, 1, 7,180000.0, 1,25,16,15
1155,1538628290.0431757,0.0, 1,20,17,22,6744493.969137748, 1,21, 4,60
1156,1538628290.0431757,0.0, 1,20,17,22,6744493.969137748, 1,21, 4,60
1292,-25382500.76350751,-39774.84071382646, 1,24, 5,30,-9105.664069531373, 1,25,18,41
1306,245450854.0783915,0.0, 1,20, 1, 7,4050000.0, 1,20, 7,60
1307,48449494.35900438,0.0, 1,20, 1, 7,7804722.413256769, 1,26, 9,45
1308,245450854.0783915,0.0, 1,20, 1, 7,4050000.0, 1,20, 7,60
13,3132747341.38869,577765.3654895412, 1,25,16,15,12270210.208729442, 1,24, 7,15
61,301924526.02383536,88139.10953165221, 1,20, 1,15,1282023.4113694867, 1,20,20,15
134,70666020.44019976,63564.01800854099, 1,20, 4,15,156554.22484006523, 1,25,20,15
170,5241013.419656067,348.4159749238097, 1,20, 4,15,17476.39704006126, 1,25,12,15
207,6509451.13922267,815.2532113832032, 1,20, 3,15,22990.642799023623, 1,25,10,15
244,12749673.399825225,1521.856143006317, 1,20, 4,15,53038.631142310165, 1,25,20,15
281,46165882.481495745,59938.60262432081, 1,20, 5,15,81951.81706819107, 1,20,19,15
318,0.0,0.0, 1,20, 1,15,0.0, 1,20, 1,15
355,197687796.27748066,18561.32405820678, 1,20, 4,15,724774.895203776, 1,25,18,15
403,197687796.27748066,18561.32405820678, 1,20, 4,15,724774.895203776, 1,25,18,15
476,106772067.24485716,7098.072629279515, 1,20, 4,15,356036.3026282215, 1,25,12,15
513,0.0,0.0, 1,20, 1,15,0.0, 1,20, 1,15
562,84275281.48544866,0.0, 1,25,16,15,137843.73522384267, 1,20, 1,15
1046,0.0,0.0, 1,20, 1,15,0.0, 1,20, 1,15
1096,0.0,0.0, 1,20, 1,15,0.0, 1,20, 1,15
1134,2430430659.3608212,180000.0, 1,25,16,15,8106683.076167475, 1,21, 6,60
1326,245450854.07839155,0.0, 1,20, 1,15,4050000.0, 1,20, 7,60
1379,0.0,0.0, 1,20, 1,15,0.0, 1,20, 1,15
1,EXTREME_SUMMER,  42.92, -97.38,  -6.00, 398.00
5,7
1038,0.0,0.0, 7,13, 1,15,0.0, 7,13, 1,15
1039,12.0,0.0, 7,13, 1,15,0.25, 7,13,17,30
581,0.19323613995958047,0.0, 7,16,20,48,0.7391555091842972, 7,13,13,60
582,4.321505609932916,0.0, 7,15, 8,15,16.281649669311832, 7,13,13,60
583,0.03394917579393812,0.0, 7,18,23, 3,0.07760461534546759, 7,17,17,48
1115,0.0,0.0, 7,13, 1, 5,0.0, 7,13, 1, 5
1128,0.0,0.0, 7,13, 1, 5,0.0, 7,13, 1, 5
1153,0.0,0.0, 7,13, 1, 5,0.0, 7,13, 1, 5
1154,0.0,0.0, 7,13, 1, 5,0.0, 7,13, 1, 5
1155,0.0,0.0, 7,13, 1, 5,0.0, 7,13, 1, 5
1156,0.0,0.0, 7,13, 1, 5,0.0, 7,13, 1, 5
1292,-22089407.61743135,-34301.231574555546, 7,15,17,15,-3212.4085482840765, 7,17, 9, 4
1306,186838090.9580135,0.0, 7,13, 1, 5,4050000.0, 7,18, 9,45
1307,22273704.4672048,0.0, 7,13, 1, 5,2403178.866825803, 7,19, 9,45
1308,186838090.9580135,0.0, 7,13, 1, 5,4050000.0, 7,18, 9,45
13,1080954350.8621323,151703.1275401932, 7,15, 4,15,6871220.445494174, 7,16,19,45
61,301924526.02383536,88139.10953165221, 7,13, 1,15,1282023.4113694867, 7,13,20,15
134,70666020.44019976,63564.01800854099, 7,13, 4,15,156554.22484006523, 7,18,20,15
170,5241013.419656067,348.4159749238097, 7,13, 4,15,17476.39704006126, 7,18,12,15
207,6509451.13922267,815.2532113832032, 7,13, 3,15,22990.642799023623, 7,18,10,15
244,12749673.399825225,1521.856143006317, 7,13, 4,15,53038.631142310165, 7,18,20,15
281,46165882.481495745,59938.60262432081, 7,13, 5,15,81951.81706819107, 7,13,19,15
318,0.0,0.0, 7,13, 1,15,0.0, 7,13, 1,15
355,197687796.27748066,18561.32405820678, 7,13, 4,15,724774.895203776, 7,18,18,15
403,197687796.27748066,18561.32405820678, 7,13, 4,15,724774.895203776, 7,18,18,15
476,106772067.24485716,7098.072629279515, 7,13, 4,15,356036.3026282215, 7,18,12,15
513,0.0,0.0, 7,13, 1,15,0.0, 7,13, 1,15
562,43793987.84283135,0.0, 7,13, 6,30,137843.73522384267, 7,13,17,15
1046,0.0,0.0, 7,13, 1,15,0.0, 7,13, 1,15
1096,477731725.5972529,0.0, 7,13, 6,30,1751414.2482705317, 7,17,16,60
1134,0.0,0.0, 7,13, 1,15,0.0, 7,13, 1,15
1326,186838090.95801347,0.0, 7,13, 1,15,4050000.0, 7,14,20,30
1379,0.0,0.0, 7,13, 1,15,0.0, 7,13, 1,15
1,ANNUAL,  42.92, -97.38,  -6.00, 398.00
5,365
1038,76.25,0.0, 1, 1, 1,15,0.25, 1,11, 6,15
1039,100.0,0.0, 1, 1, 1,15,0.25, 4, 6,14,15
581,0.3323899645983608,0.0, 7, 4,23, 3,1.4496010673667323, 3,31,15,60
582,5.620466360183746,0.0, 1, 4, 1,60,31.673816761700483,10,27,13,52
583,0.03191083900369987,0.0, 7, 4,23, 3,0.09612599005400332, 3,31,15,60
1115,38213067096.99767,0.0, 1, 1,23, 5,5247683.884901406, 3,24, 6,45
1128,13097423366.117262,0.0, 1, 1,23, 5,1613303.1690252663,10,28, 6,45
1153,444995195.94516116,0.0, 1, 1,23, 5,147250.68614636696, 4, 3, 6,45
1154,1504601329.7307544,0.0, 1, 1, 1,15,180000.0, 1, 4,16,15
1155,12902697251.284163,0.0, 1, 1,10,48,6744493.969137748, 1,21, 4,60
1156,12902697251.284163,0.0, 1, 1,10,48,6744493.969137748, 1,21, 4,60
1292,-1239927508.7159545,-45883.571973471764, 2, 2, 5,60,-2142.07822690811, 7,30,10,22
1306,11287662099.65578,0.0, 1, 1, 1,15,4050000.0, 1, 1,20,15
1307,1794381368.3973136,0.0, 1, 1, 1,15,13323104.27367049, 2, 5,19,60
1308,11287662099.65578,0.0, 1, 1, 1,15,4050000.0, 1, 1,20,15
13,68082681903.13717,151703.1275401932, 3,17, 4,15,12907904.662815146,12,10,20,15
61,15743207428.383959,88139.10953165221, 1, 1, 1,15,1282023.4113694867, 1, 1,20,15
134,3685071073.4325233,63564.01800854099, 1, 2, 4,15,156554.22484006523, 1, 1,20,15
170,273393721.45532674,348.4159749238097, 1, 2, 4,15,17476.39704006126, 1, 1,12,15
207,339560869.0695816,815.2532113832032, 1, 2, 3,15,22990.642799023623, 1, 1,10,15
244,664895467.8009144,1521.856143006317, 1, 2, 4,15,53038.631142310165, 1, 1,20,15
281,2407221015.106824,59938.60262432081, 1, 1, 5,15,81951.81706819107, 1, 1,19,15
318,0.0,0.0, 1, 1, 1,15,0.0, 1, 1, 1,15
355,10310294493.051695,18561.32405820678, 1, 2, 4,15,724774.895203776, 1, 1,18,15
403,10310294493.051695,18561.32405820678, 1, 2, 4,15,724774.895203776, 1, 1,18,15
476,5569688622.066177,7098.072629279515, 1, 2, 4,15,356036.3026282215, 1, 1,12,15
513,0.0,0.0, 1, 1, 1,15,0.0, 1, 1, 1,15
562,1969032025.9738228,0.0, 1, 4,15,15,137843.73522384267, 1, 1, 1,15
1046,0.0,0.0, 1, 1, 1,15,0.0, 1, 1, 1,15
1096,7447992132.612397,0.0, 1, 1, 1,15,1753361.766983212, 7,17,16,60
1134,27949717143.07735,0.0, 1,18,13,60,8188999.342705406,12,10,18,60
1326,11287662099.655785,0.0, 1, 1, 1,15,4050000.0000000014, 9,17, 9,60
1379,0.0,0.0, 1, 1, 1,15,0.0, 1, 1, 1,15
End of Data
 Number of Records Written=          99
