Program Version,EnergyPlus, Version 22.2.0-c249759bad, YMD=2023.09.01 14:30
1,5,Environment Title[],Latitude[deg],Longitude[deg],Time Zone[],Elevation[m]
2,8,Day of Simulation[],Month[],Day of Month[],DST Indicator[1=yes 0=no],Hour[],StartMinute[],EndMinute[],DayType
3,5,Cumulative Day of Simulation[],Month[],Day of Month[],DST Indicator[1=yes 0=no],DayType  ! When Daily Report Variables Requested
4,2,Cumulative Days of Simulation[],Month[]  ! When Monthly Report Variables Requested
5,1,Cumulative Days of Simulation[] ! When Run Period Report Variables Requested
6,1,Calendar Year of Simulation[] ! When Annual Report Variables Requested
7,1,Environment,Site Outdoor Air Drybulb Temperature [C] !Hourly
619,1,DX_HEATING_COIL,Heating Coil Heating Rate [W] !Hourly
633,1,DX_HEATING_COIL,Heating Coil Electricity Rate [W] !Hourly
659,1,DX_HEATING_COIL,Heating Coil Defrost Electricity Rate [W] !Hourly
661,1,DX_HEATING_COIL,Heating Coil Crankcase Heater Electricity Rate [W] !Hourly
690,1,FAN,Fan Electricity Rate [W] !Hourly
716,1,HEAT PUMP WATER HEATER FAN,Fan Electricity Rate [W] !Hourly
718,1,LIVING,Zone Mean Air Temperature [C] !Hourly
719,1,ATTIC,Zone Mean Air Temperature [C] !Hourly
720,1,CRAWLSPACE,Zone Mean Air Temperature [C] !Hourly
843,1,LIVING,Zone Predicted Sensible Load to Heating Setpoint Heat Transfer Rate [W] !Hourly
844,1,LIVING,Zone System Predicted Sensible Load to Heating Setpoint Heat Transfer Rate [W] !Hourly
907,1,ATTIC,Zone Predicted Sensible Load to Heating Setpoint Heat Transfer Rate [W] !Hourly
908,1,ATTIC,Zone System Predicted Sensible Load to Heating Setpoint Heat Transfer Rate [W] !Hourly
971,1,CRAWLSPACE,Zone Predicted Sensible Load to Heating Setpoint Heat Transfer Rate [W] !Hourly
972,1,CRAWLSPACE,Zone System Predicted Sensible Load to Heating Setpoint Heat Transfer Rate [W] !Hourly
1195,1,HEATING_RESISTANCE_BACKUP,Heating Coil Heating Rate [W] !Hourly
1197,1,HEATING_RESISTANCE_BACKUP,Heating Coil Electricity Rate [W] !Hourly
End of Data Dictionary
1,EXTREME_WINTER,  38.54, -89.85,  -6.00, 140.00
2,1, 1, 6, 0, 1, 0.00,60.00,Monday
7,-3.8
718,18.68091587489177
719,-0.8446194865872012
720,18.38967628408859
619,3038.912463355096
633,1005.8296740380088
659,25.273696003218088
661,56.903530343809486
690,108.65239237583555
716,0.0
843,2071.325286659132
844,2071.325286659132
907,0.0
908,0.0
971,0.0
972,0.0
1195,0.0
1197,0.0
2,1, 1, 6, 0, 2, 0.00,60.00,Monday
7,-3.5
718,18.612726225281627
719,-0.5708050389571525
720,18.009586518510897
619,3306.948138705689
633,1087.3295957164712
659,28.094244518990976
661,46.216834668809966
690,116.76669119602992
716,0.0
843,2276.0315527215407
844,2276.0315527215407
907,0.0
908,0.0
971,0.0
972,0.0
1195,0.0
1197,0.0
2,1, 1, 6, 0, 3, 0.00,60.00,Monday
7,-4.0
718,18.592269308231373
719,-0.36215498181821476
720,17.779552351354866
619,3646.446162338192
633,1196.9081626264328
659,32.69729765401896
661,29.414261098134563
690,129.4393286394664
716,0.0
843,2507.317386974246
844,2507.317386974246
907,0.0
908,0.0
971,0.0
972,0.0
1195,0.0
1197,0.0
2,1, 1, 6, 0, 4, 0.00,60.00,Monday
7,-3.5
718,18.608550513178425
719,-0.14827470588303787
720,17.564167037653416
619,3762.5966715973163
633,1219.5609779907643
659,35.12045780471115
661,26.44718605221601
690,131.69376240461983
716,0.0
843,2597.9847615613107
844,2597.9847615613107
907,0.0
908,0.0
971,0.0
972,0.0
1195,0.0
1197,0.0
2,1, 1, 6, 0, 5, 0.00,60.00,Monday
7,-3.2
718,18.62206229763894
719,0.006041906133586169
720,17.376896475850494
619,3711.537394683803
633,1198.170155721756
659,32.04594919022678
661,30.385576457342502
690,128.7892078318811
716,0.0
843,2566.193556781127
844,2566.193556781127
907,0.0
908,0.0
971,0.0
972,0.0
1195,0.0
1197,0.0
2,1, 1, 6, 0, 6, 0.00,60.00,Monday
7,-2.9
718,19.33110324871307
719,0.6524273368619744
720,17.18656275575663
619,4525.878868534139
633,1417.4858865902193
659,36.9614257076142
661,0.0
690,152.7339722195585
716,0.0
843,3529.921129599248
844,3529.921129599248
907,0.0
908,0.0
971,0.0
972,0.0
1195,454.6374646330796
1197,454.6374646330796
2,1, 1, 6, 0, 7, 0.00,60.00,Monday
7,-2.0
718,19.557369277231153
719,0.7913338734416047
720,17.061921906961
619,4677.2571724169065
633,1464.7503258355969
659,25.10111539733174
661,0.0
690,152.7339722195585
716,85.44000000000005
843,3423.225317836188
844,3423.225317836188
907,0.0
908,0.0
971,0.0
972,0.0
1195,1351.6138736080434
1197,1351.6138736080434
2,1, 1, 6, 0, 8, 0.00,60.00,Monday
7,-2.2
718,19.643323540587957
719,0.7635262692824446
720,16.910829707756513
619,4688.827573452554
633,1482.1653118546967
659,15.426345576868666
661,0.0
690,152.7339722195585
716,81.2248874598258
843,3281.764209579287
844,3281.764209579287
907,0.0
908,0.0
971,0.0
972,0.0
1195,1198.588802226187
1197,1198.588802226187
2,1, 1, 6, 0, 9, 0.00,60.00,Monday
7,-2.9
718,19.702065588474472
719,0.6208925721813823
720,16.768057664336713
619,4494.579226749575
633,1449.6634973123673
659,17.722568166210003
661,3.044654987943085
690,150.01875560616162
716,0.0
843,3085.1091265093637
844,3085.1091265093637
907,0.0
908,0.0
971,0.0
972,0.0
1195,0.0
1197,0.0
2,1, 1, 6, 0,10, 0.00,60.00,Monday
7,-3.5
718,19.743445707369048
719,-0.035704652619472525
720,16.64223632532616
619,3275.191459773479
633,1101.8644639597703
659,15.42448909924409
661,49.35846376071109
690,114.67383200812027
716,0.0
843,2221.566590273558
844,2221.566590273558
907,0.0
908,0.0
971,0.0
972,0.0
1195,0.0
1197,0.0
2,1, 1, 6, 0,11, 0.00,60.00,Monday
7,-3.0
718,19.78614020218358
719,1.5188589378977255
720,16.538256074558813
619,2458.960038490115
633,837.2498063794749
659,6.536843192552344
661,87.07056348371056
690,86.09575685710816
716,0.0
843,1661.095155941759
844,1661.095155941759
907,0.0
908,0.0
971,0.0
972,0.0
1195,0.0
1197,0.0
2,1, 1, 6, 0,12, 0.00,60.00,Monday
7,-3.0
718,19.846406338638058
719,2.4518001606958535
720,16.445887227164643
619,1581.386390661266
633,551.263742613753
659,4.300213218708558
661,125.71021800829772
690,56.63742440398304
716,0.0
843,1089.4360540407379
844,1089.4360540407379
907,0.0
908,0.0
971,0.0
972,0.0
1195,0.0
1197,0.0
2,1, 1, 6, 0,13, 0.00,60.00,Monday
7,-3.1
718,19.77452588922927
719,6.542752959033462
720,16.37682339831074
619,971.5056163390462
633,345.1656352576912
659,2.0975844186351065
661,153.6115530411962
690,35.378394758290405
716,0.0
843,676.9874361382554
844,676.9874361382554
907,0.0
908,0.0
971,0.0
972,0.0
1195,0.0
1197,0.0
2,1, 1, 6, 0,14, 0.00,60.00,Monday
7,-2.5
718,19.52223402981172
719,4.681367497838543
720,16.322223791267785
619,1824.0508099244178
633,625.2703996016306
659,1.4572447554022698
661,116.69121609766586
690,63.59027234901171
716,80.23792013346326
843,461.9918030382032
844,461.9918030382032
907,0.0
908,0.0
971,0.0
972,0.0
1195,0.0
1197,0.0
2,1, 1, 6, 0,15, 0.00,60.00,Monday
7,-3.0
718,19.971537047707216
719,6.008038120316307
720,16.280202961123464
619,874.8483730133573
633,308.3231748772552
659,1.0248020948264995
661,158.48957609706392
690,31.677666157742873
716,0.0
843,634.2481322650056
844,634.2481322650056
907,0.0
908,0.0
971,0.0
972,0.0
1195,0.0
1197,0.0
2,1, 1, 6, 0,16, 0.00,60.00,Monday
7,-3.6
718,19.720241183514474
719,4.4414113659911285
720,16.25103099300586
619,315.1202919931947
633,115.36012035099165
659,0.47040090012155034
661,184.51096494546425
690,11.817304853636347
716,0.0
843,228.58287374361316
844,228.58287374361316
907,0.0
908,0.0
971,0.0
972,0.0
1195,0.0
1197,0.0
2,1, 1, 6, 0,17, 0.00,60.00,Monday
7,-4.5
718,19.534408807059606
719,1.6349138687416653
720,16.221014101463837
619,641.6018309716308
633,235.58247448826558
659,1.3595686503105218
661,167.89486598791044
690,24.4817197224794
716,0.0
843,462.3817962869616
844,462.3817962869616
907,0.0
908,0.0
971,0.0
972,0.0
1195,0.0
1197,0.0
2,1, 1, 6, 0,18, 0.00,60.00,Monday
7,-5.1
718,19.537298996476327
719,0.03186513666124404
720,16.18303001822243
619,1790.156722876961
633,642.0497486805947
659,7.270483940691976
661,111.05650835559686
690,67.71655818480916
716,0.0
843,1237.8834611334642
844,1237.8834611334642
907,0.0
908,0.0
971,0.0
972,0.0
1195,0.0
1197,0.0
2,1, 1, 6, 0,19, 0.00,60.00,Monday
7,-5.0
718,19.529584815205233
719,-0.49570574058309974
720,16.130405798680293
619,3609.3892572637333
633,1230.5716299347991
659,14.13586095870623
661,29.58463947681109
690,129.7431566320056
716,85.44000000000005
843,1437.579389980714
844,1437.579389980714
907,0.0
908,0.0
971,0.0
972,0.0
1195,0.0
1197,0.0
2,1, 1, 6, 0,20, 0.00,60.00,Monday
7,-4.6
718,19.622446473169582
719,-0.833172281685469
720,16.06649656734223
619,3575.903918126674
633,1210.9132424585755
659,11.572582398077046
661,33.269866089148906
690,127.01591450222953
716,85.44000000000005
843,1377.0075105366714
844,1377.0075105366714
907,0.0
908,0.0
971,0.0
972,0.0
1195,0.0
1197,0.0
2,1, 1, 6, 0,21, 0.00,60.00,Monday
7,-4.5
718,19.712445609676358
719,-1.0543668543461395
720,15.987714966828044
619,2998.843824112795
633,1030.9450144057932
659,7.310623892587713
661,58.900272743255485
690,107.55986851027812
716,41.400578282582806
843,1501.198054341925
844,1501.198054341925
907,0.0
908,0.0
971,0.0
972,0.0
1195,0.0
1197,0.0
2,1, 1, 6, 0,22, 0.00,60.00,Monday
7,-4.2
718,19.753706072657053
719,-1.3258108795873615
720,15.8992083729143
619,2668.0081688018713
633,921.7659393362907
659,4.43545819533424
661,74.76781337527201
690,95.52271650141877
716,0.0
843,1756.6848360446293
844,1756.6848360446293
907,0.0
908,0.0
971,0.0
972,0.0
1195,0.0
1197,0.0
2,1, 1, 6, 0,23, 0.00,60.00,Monday
7,-4.1
718,18.88422957779551
719,-1.7857951668264709
720,15.796321271275085
619,1741.893570148856
633,616.06827707122
659,3.02919213291116
661,116.43101524160255
690,63.74258381960934
716,0.0
843,1134.7033817929023
844,1134.7033817929023
907,0.0
908,0.0
971,0.0
972,0.0
1195,0.0
1197,0.0
2,1, 1, 6, 0,24, 0.00,60.00,Monday
7,-4.0
718,18.485927260571184
719,-1.7042836312019327
720,15.670132688649545
619,2580.023759970217
633,871.969229271041
659,4.5407776944863825
661,79.72532483139216
690,91.73727444741333
716,0.0
843,1725.4398343083667
844,1725.4398343083667
907,0.0
908,0.0
971,0.0
972,0.0
1195,0.0
1197,0.0
2,2, 1, 7, 0, 1, 0.00,60.00,Tuesday
7,-5.0
718,18.31146209760206
719,-1.7211890974729775
720,15.529966685869239
619,4314.338612235738
633,1401.5154180589313
659,25.876297650501378
661,0.0
690,152.7339722195585
716,0.0
843,2889.322485369523
844,2889.322485369523
907,0.0
908,0.0
971,0.0
972,0.0
1195,26.677521148159485
1197,26.677521148159485
2,2, 1, 7, 0, 2, 0.00,60.00,Tuesday
7,-6.0
718,18.508332028518193
719,-1.6023806845678659
720,15.412910740976857
619,4085.73585087644
633,1348.781578288991
659,53.21527449108912
661,0.0
690,152.7339722195585
716,0.0
843,2937.5701978837697
844,2937.5701978837697
907,0.0
908,0.0
971,0.0
972,0.0
1195,308.8777764582601
1197,308.8777764582601
2,2, 1, 7, 0, 3, 0.00,60.00,Tuesday
7,-6.0
718,18.574455672180154
719,-1.979955779290052
720,15.296789596629683
619,4081.4134016792373
633,1353.7765867176845
659,53.21527449108912
661,0.0
690,152.7339722195585
716,0.0
843,3749.291768385072
844,3749.291768385072
907,0.0
908,0.0
971,0.0
972,0.0
1195,1293.7465944810938
1197,1293.7465944810938
2,2, 1, 7, 0, 4, 0.00,60.00,Tuesday
7,-7.0
718,18.588929392809035
719,-2.600010099371681
720,15.160175150404193
619,3981.7446712520173
633,1350.6138384973087
659,48.14712805218279
661,0.0
690,152.7339722195585
716,0.0
843,5032.336703369849
844,5032.336703369849
907,0.0
908,0.0
971,0.0
972,0.0
1195,2988.6192517462223
1197,2988.6192517462223
2,2, 1, 7, 0, 5, 0.00,60.00,Tuesday
7,-8.0
718,18.595690923582342
719,-2.9263148155824137
720,15.034561703649908
619,3954.0256466715327
633,1370.2344433337557
659,24.52836153992016
661,0.0
690,152.7339722195585
716,0.0
843,5407.335061033196
844,5407.335061033196
907,0.0
908,0.0
971,0.0
972,0.0
1195,3499.8989140460394
1197,3499.8989140460394
2,2, 1, 7, 0, 6, 0.00,60.00,Tuesday
7,-9.0
718,19.373546489639466
719,-3.781229352593562
720,14.908005657577284
619,3846.9461387324363
633,1362.1256619311766
659,21.715861520486282
661,0.0
690,152.7339722195585
716,0.0
843,6383.190712943768
844,6383.190712943768
907,0.0
908,0.0
971,0.0
972,0.0
1195,4804.691844387671
1197,4804.691844387671
2,2, 1, 7, 0, 7, 0.00,60.00,Tuesday
7,-11.0
718,19.326179675389838
719,-4.790678872490265
720,14.800996972084485
619,3657.883561551088
633,1379.2419292420482
659,4.804835687223931
661,0.0
690,152.7339722195585
716,85.44000000000005
843,6910.086083698736
844,6910.086083698736
907,0.0
908,0.0
971,0.0
972,0.0
1195,6315.458448211658
1197,6315.458448211658
2,2, 1, 7, 0, 8, 0.00,60.00,Tuesday
7,-12.2
718,19.492333350077654
719,-5.860877243325417
720,14.66662895657302
619,3533.8795103554717
633,1366.5773465749314
659,1.6066720874603073
661,0.0
690,152.7339722195585
716,85.44000000000005
843,6359.854414521364
844,6359.854414521364
907,0.0
908,0.0
971,0.0
972,0.0
1195,6315.458448211658
1197,6315.458448211658
2,2, 1, 7, 0, 9, 0.00,60.00,Tuesday
7,-13.2
718,19.39560667454573
719,-6.74641500839406
720,14.533264161946764
619,3423.8906893186218
633,1359.1680846159063
659,0.07416269786414233
661,0.0
690,152.7339722195585
716,85.44000000000005
843,6505.0701583085465
844,6505.0701583085465
907,0.0
908,0.0
971,0.0
972,0.0
1195,6315.458448211658
1197,6315.458448211658
2,2, 1, 7, 0,10, 0.00,60.00,Tuesday
7,-12.0
718,19.616377051694233
719,-6.010023373913745
720,14.414999921796964
619,3560.197793832881
633,1372.4871519130977
659,0.07416269786414233
661,0.0
690,152.7339722195585
716,10.644949831862785
843,6233.4058298144355
844,6233.4058298144355
907,0.0
908,0.0
971,0.0
972,0.0
1195,5364.096981135117
1197,5364.096981135117
2,2, 1, 7, 0,11, 0.00,60.00,Tuesday
7,-13.0
718,19.68111863562673
719,-5.842459161132761
720,14.299580805151807
619,3440.344594241028
633,1363.3706885795468
659,1.0223626864495594
661,0.0
690,152.7339722195585
716,0.0
843,5910.970030793636
844,5910.970030793636
907,0.0
908,0.0
971,0.0
972,0.0
1195,4915.068569985876
1197,4915.068569985876
2,2, 1, 7, 0,12, 0.00,60.00,Tuesday
7,-12.0
718,19.707563740179697
719,-4.422970107207002
720,14.200070717551757
619,3548.0017453053683
633,1377.076874706956
659,1.8201050701702763
661,0.0
690,152.7339722195585
716,0.0
843,5573.325429803575
844,5573.325429803575
907,0.0
908,0.0
971,0.0
972,0.0
1195,4428.079471378357
1197,4428.079471378357
2,2, 1, 7, 0,13, 0.00,60.00,Tuesday
7,-11.1
718,19.713429940764378
719,-3.7467837902442636
720,14.116821452631333
619,3655.629160768542
633,1391.6352837058269
659,0.07416269786414233
661,0.0
690,152.7339722195585
716,0.0
843,4526.39988933158
844,4526.39988933158
907,0.0
908,0.0
971,0.0
972,0.0
1195,2959.6213960089995
1197,2959.6213960089995
2,2, 1, 7, 0,14, 0.00,60.00,Tuesday
7,-10.8
718,19.723012129215423
719,-1.4999003946426548
720,14.04484967014839
619,3690.0695525123115
633,1395.5677096021382
659,0.07416269786414233
661,0.0
690,152.7339722195585
716,0.0
843,3786.9446847577674
844,3786.9446847577674
907,0.0
908,0.0
971,0.0
972,0.0
1195,2023.9136964821575
1197,2023.9136964821575
2,2, 1, 7, 0,15, 0.00,60.00,Tuesday
7,-11.0
718,19.725604280922532
719,-1.8118916430700673
720,14.002062495690513
619,3666.8294904002405
633,1393.2291557462006
659,0.07416269786414233
661,0.0
690,152.7339722195585
716,0.0
843,2327.83584701349
844,2327.83584701349
907,0.0
908,0.0
971,0.0
972,0.0
1195,153.61046032234663
1197,153.61046032234663
2,2, 1, 7, 0,16, 0.00,60.00,Tuesday
7,-12.2
718,19.719562429672095
719,-3.617254974532611
720,13.957766648625693
619,3530.5782123203767
633,1377.4149160767904
659,0.07416269786414233
661,0.0
690,152.7339722195585
716,0.0
843,2821.757164783272
844,2821.757164783272
907,0.0
908,0.0
971,0.0
972,0.0
1195,910.6484161189785
1197,910.6484161189785
2,2, 1, 7, 0,17, 0.00,60.00,Tuesday
7,-13.1
718,19.720843503702486
719,-4.499201765825687
720,13.940220838199494
619,3430.432025967723
633,1365.2094918270618
659,0.07416269786414233
661,0.0
690,152.7339722195585
716,0.0
843,2504.7048542872417
844,2504.7048542872417
907,0.0
908,0.0
971,0.0
972,0.0
1195,726.4595549493542
1197,726.4595549493542
2,2, 1, 7, 0,18, 0.00,60.00,Tuesday
7,-13.9
718,19.712404366322623
719,-6.215171197191818
720,13.908444060175578
619,3342.6672449629536
633,1354.3179790707468
659,0.07416269786414233
661,0.0
690,152.7339722195585
716,0.0
843,3404.9291252073235
844,3404.9291252073235
907,0.0
908,0.0
971,0.0
972,0.0
1195,1939.425492956894
1197,1939.425492956894
2,2, 1, 7, 0,19, 0.00,60.00,Tuesday
7,-14.3
718,19.705999038571857
719,-6.924981427534413
720,13.863573546241435
619,3299.5053452387087
633,1348.567659565624
659,0.07416269786414233
661,0.0
690,152.7339722195585
716,85.44000000000005
843,3581.528053990509
844,3581.528053990509
907,0.0
908,0.0
971,0.0
972,0.0
1195,3389.2976855698416
1197,3389.2976855698416
2,2, 1, 7, 0,20, 0.00,60.00,Tuesday
7,-15.0
718,19.69703104981191
719,-7.559105245541647
720,13.790403061911917
619,3224.5669238465175
633,1338.5872905609986
659,0.07416269786414233
661,0.0
690,152.7339722195585
716,85.44000000000005
843,3807.663045016112
844,3807.663045016112
907,0.0
908,0.0
971,0.0
972,0.0
1195,3857.391123805523
1197,3857.391123805523
2,2, 1, 7, 0,21, 0.00,60.00,Tuesday
7,-15.6
718,19.70267030811883
719,-7.914762949343647
720,13.701891019288198
619,3154.8450463780428
633,1327.1001411589434
659,2.246863178027257
661,0.0
690,152.7339722195585
716,85.44000000000005
843,3866.2565040615827
844,3866.2565040615827
907,0.0
908,0.0
971,0.0
972,0.0
1195,4013.5343920087944
1197,4013.5343920087944
2,2, 1, 7, 0,22, 0.00,60.00,Tuesday
7,-15.8
718,19.707271525261525
719,-8.413520226453352
720,13.602091679504744
619,3132.2401184109362
633,1323.591066329525
659,2.7899822598685518
661,0.0
690,152.7339722195585
716,38.26787184548537
843,4282.554183115366
844,4282.554183115366
907,0.0
908,0.0
971,0.0
972,0.0
1195,3854.3219327744805
1197,3854.3219327744805
2,2, 1, 7, 0,23, 0.00,60.00,Tuesday
7,-16.2
718,18.955301497686442
719,-8.744552962088552
720,13.49148398931483
619,3091.4070445380503
633,1318.1960617915638
659,2.4875534765217266
661,0.0
690,152.7339722195585
716,0.0
843,3630.281655984447
844,3630.281655984447
907,0.0
908,0.0
971,0.0
972,0.0
1195,2672.1457398986836
1197,2672.1457398986836
2,2, 1, 7, 0,24, 0.00,60.00,Tuesday
7,-16.9
718,18.718769022157648
719,-9.010044824004643
720,13.336456931169778
619,3021.9963623049466
633,1285.3138527600427
659,7.555208012506285
661,0.0
690,152.7339722195585
716,0.0
843,4153.191261600648
844,4153.191261600648
907,0.0
908,0.0
971,0.0
972,0.0
1195,3331.358970055695
1197,3331.358970055695
2,3, 1, 8, 0, 1, 0.00,60.00,Wednesday
7,-16.9
718,18.635091989830045
719,-9.366142134482716
720,13.211713160150852
619,3022.216089175553
633,1277.7666547574145
659,9.40965755410583
661,0.0
690,152.7339722195585
716,0.0
843,4697.632578267694
844,4697.632578267694
907,0.0
908,0.0
971,0.0
972,0.0
1195,3964.6747857445557
1197,3964.6747857445557
2,3, 1, 8, 0, 2, 0.00,60.00,Wednesday
7,-16.9
718,18.611539582714087
719,-9.60314170813269
720,13.08239083167246
619,3018.9761636646795
633,1273.587516892221
659,11.258504342312076
661,0.0
690,152.7339722195585
716,0.0
843,5151.740326634563
844,5151.740326634563
907,0.0
908,0.0
971,0.0
972,0.0
1195,4542.403348431884
1197,4542.403348431884
2,3, 1, 8, 0, 3, 0.00,60.00,Wednesday
7,-17.2
718,18.59995760814591
719,-9.797307654474123
720,12.95239138375072
619,2982.0478798316544
633,1265.7222312749047
659,13.800583845652357
661,0.0
690,152.7339722195585
716,0.0
843,5505.529161520741
844,5505.529161520741
907,0.0
908,0.0
971,0.0
972,0.0
1195,4998.59800607808
1197,4998.59800607808
2,3, 1, 8, 0, 4, 0.00,60.00,Wednesday
7,-16.6
718,18.60240504961858
719,-9.518856265834511
720,12.830222376681466
619,3049.276278399246
633,1276.059860313169
659,11.754092753410482
661,0.0
690,152.7339722195585
716,0.0
843,5621.416762383458
844,5621.416762383458
907,0.0
908,0.0
971,0.0
972,0.0
1195,5102.723982653311
1197,5102.723982653311
2,3, 1, 8, 0, 5, 0.00,60.00,Wednesday
7,-16.3
718,18.598742488319623
719,-9.532269324972368
720,12.707044569956478
619,3082.5158496819513
633,1281.0444071797422
659,10.945291942343683
661,0.0
690,152.7339722195585
716,0.0
843,5598.201181945189
844,5598.201181945189
907,0.0
908,0.0
971,0.0
972,0.0
1195,5008.963233281947
1197,5008.963233281947
2,3, 1, 8, 0, 6, 0.00,60.00,Wednesday
7,-16.1
718,18.848682980509746
719,-9.1644425917215
720,12.586105769434939
619,3106.348888737691
633,1284.7549671081208
659,9.93534431629269
661,0.0
690,152.7339722195585
716,80.09807509878603
843,6729.181828495402
844,6729.181828495402
907,0.0
908,0.0
971,0.0
972,0.0
1195,6315.458448211658
1197,6315.458448211658
2,3, 1, 8, 0, 7, 0.00,60.00,Wednesday
7,-15.8
718,18.924375599340934
719,-9.388642866079723
720,12.480173564064913
619,3142.871128208469
633,1298.7211979354706
659,6.262720683679763
661,0.0
690,152.7339722195585
716,85.44000000000005
843,6662.3150948344155
844,6662.3150948344155
907,0.0
908,0.0
971,0.0
972,0.0
1195,6315.458448211658
1197,6315.458448211658
2,3, 1, 8, 0, 8, 0.00,60.00,Wednesday
7,-15.1
718,18.959691934463795
719,-8.68728654285512
720,12.3698875297682
619,3212.4741936191317
633,1308.789331642151
659,7.08151194647813
661,0.0
690,152.7339722195585
716,75.94369554960655
843,6785.252323114939
844,6785.252323114939
907,0.0
908,0.0
971,0.0
972,0.0
1195,6315.458448211658
1197,6315.458448211658
2,3, 1, 8, 0, 9, 0.00,60.00,Wednesday
7,-14.3
718,19.49242004856509
719,-7.439849587458126
720,12.267986031108942
619,3303.787655599105
633,1322.827082796617
659,4.927195274333519
661,0.0
690,152.7339722195585
716,0.0
843,5864.176441901134
844,5864.176441901134
907,0.0
908,0.0
971,0.0
972,0.0
1195,5106.104662686734
1197,5106.104662686734
2,3, 1, 8, 0,10, 0.00,60.00,Wednesday
7,-12.3
718,19.65137387804557
719,-5.599494372446112
720,12.203367326298444
619,3515.9056109083317
633,1363.6226260341027
659,3.4579717827453367
661,0.0
690,152.7339722195585
716,0.0
843,5749.28952957709
844,5749.28952957709
907,0.0
908,0.0
971,0.0
972,0.0
1195,4778.387020245929
1197,4778.387020245929
2,3, 1, 8, 0,11, 0.00,60.00,Wednesday
7,-11.5
718,19.698512272605818
719,-3.40918126378184
720,12.144564933044625
619,3613.7087519537254
633,1382.3700408153663
659,0.07416269786414233
661,0.0
690,152.7339722195585
716,0.0
843,3908.3766196739343
844,3908.3766196739343
907,0.0
908,0.0
971,0.0
972,0.0
1195,2348.509937125361
1197,2348.509937125361
2,3, 1, 8, 0,12, 0.00,60.00,Wednesday
7,-10.1
718,19.716206641705664
719,-1.1858977828813684
720,12.102173001712522
619,3774.0114864194034
633,1401.5256821068517
659,0.07416269786414233
661,0.0
690,152.7339722195585
716,0.0
843,3681.0653750801466
844,3681.0653750801466
907,0.0
908,0.0
971,0.0
972,0.0
1195,1807.533966134223
1197,1807.533966134223
2,3, 1, 8, 0,13, 0.00,60.00,Wednesday
7,-8.9
718,19.717955087669466
719,-1.0060312328187102
720,12.069329799771618
619,3915.1595056108804
633,1417.0905328708386
659,0.07416269786414233
661,0.0
690,152.7339722195585
716,0.0
843,3513.8425380604585
844,3513.8425380604585
907,0.0
908,0.0
971,0.0
972,0.0
1195,1339.3284401883475
1197,1339.3284401883475
2,3, 1, 8, 0,14, 0.00,60.00,Wednesday
7,-7.3
718,19.717362115811557
719,1.1869075448074622
720,12.048793048149898
619,4108.442942217145
633,1437.0218782261513
659,0.07416269786414233
661,0.0
690,152.7339722195585
716,0.0
843,3925.2826592320926
844,3925.2826592320926
907,0.0
908,0.0
971,0.0
972,0.0
1195,1639.7881643942628
1197,1639.7881643942628
2,3, 1, 8, 0,15, 0.00,60.00,Wednesday
7,-6.3
718,19.71511682708027
719,1.2695771382430239
720,12.030880191814266
619,4231.934279593831
633,1449.362579855663
659,0.07416269786414233
661,0.0
690,152.7339722195585
716,74.34913678896213
843,3670.936633924188
844,3670.936633924188
907,0.0
908,0.0
971,0.0
972,0.0
1195,1998.4946455317445
1197,1998.4946455317445
2,3, 1, 8, 0,16, 0.00,60.00,Wednesday
7,-5.6
718,19.70888060602964
719,1.9230670073994456
720,12.017092398765875
619,4319.632839463735
633,1457.9510935904757
659,0.07416269786414233
661,0.0
690,152.7339722195585
716,83.34649024505615
843,3363.3349590411817
844,3363.3349590411817
907,0.0
908,0.0
971,0.0
972,0.0
1195,1668.0233474914853
1197,1668.0233474914853
2,3, 1, 8, 0,17, 0.00,60.00,Wednesday
7,-5.0
718,19.751788242570175
719,1.5300998871054798
720,11.982228785286063
619,3867.6616451134264
633,1306.5984462218537
659,0.06612968539226005
661,21.6632153447218
690,136.18858964770246
716,0.0
843,2575.1622227464104
844,2575.1622227464104
907,0.0
908,0.0
971,0.0
972,0.0
1195,0.0
1197,0.0
2,3, 1, 8, 0,18, 0.00,60.00,Wednesday
7,-5.2
718,19.73477777454058
719,0.44442277567403676
720,11.979032288503696
619,3925.3080162373444
633,1330.1333258735858
659,0.06738158742029286
661,18.287119102036154
690,138.76673566573848
716,0.0
843,2595.9802510277696
844,2595.9802510277696
907,0.0
908,0.0
971,0.0
972,0.0
1195,0.0
1197,0.0
2,3, 1, 8, 0,19, 0.00,60.00,Wednesday
7,-5.0
718,19.747131758130546
719,-0.42591238205474524
720,11.957374563880744
619,3760.366966574789
633,1274.6029580549948
659,0.06447874015713981
661,26.115440742844687
690,132.7886049295491
716,0.0
843,2442.7186294969397
844,2442.7186294969397
907,0.0
908,0.0
971,0.0
972,0.0
1195,0.0
1197,0.0
2,3, 1, 8, 0,20, 0.00,60.00,Wednesday
7,-4.7
718,19.686053317596695
719,-0.0934487275250496
720,11.974746021517584
619,4433.073392844143
633,1469.9377451651915
659,0.07416269786414233
661,0.0
690,152.7339722195585
716,85.44000000000005
843,2252.8322452884186
844,2252.8322452884186
907,0.0
908,0.0
971,0.0
972,0.0
1195,468.82450174946007
1197,468.82450174946007
2,3, 1, 8, 0,21, 0.00,60.00,Wednesday
7,-4.4
718,19.705780807708596
719,0.015356681322079823
720,11.945883779455935
619,4472.964459976181
633,1471.945032996651
659,0.07416269786414233
661,0.0
690,152.7339722195585
716,85.44000000000005
843,2242.9112731334117
844,2242.9112731334117
907,0.0
908,0.0
971,0.0
972,0.0
1195,382.2979710279392
1197,382.2979710279392
2,3, 1, 8, 0,22, 0.00,60.00,Wednesday
7,-3.9
718,19.72992518521705
719,-0.06418870069671591
720,11.908855317467191
619,4162.770152145836
633,1369.2685984555237
659,0.06867065683212638
661,14.810790842794708
690,141.42173495054274
716,33.74586126493889
843,2369.945513564824
844,2369.945513564824
907,0.0
908,0.0
971,0.0
972,0.0
1195,0.0
1197,0.0
2,3, 1, 8, 0,23, 0.00,60.00,Wednesday
7,-3.0
718,18.943759580391173
719,-0.6639491158340246
720,11.784899461273566
619,2261.1841267564055
633,768.057289811247
659,0.03819872987188199
661,96.98667666632694
690,78.66733156507743
716,0.0
843,1472.6062788158306
844,1472.6062788158306
907,0.0
908,0.0
971,0.0
972,0.0
1195,0.0
1197,0.0
2,3, 1, 8, 0,24, 0.00,60.00,Wednesday
7,-1.7
718,18.702710471811834
719,-0.20768737360359707
720,11.762981563996014
619,2648.5486316013194
633,854.0114929469877
659,0.04266734234979298
661,84.93584085100376
690,87.87024511379987
716,0.0
843,1778.3617661660992
844,1778.3617661660992
907,0.0
908,0.0
971,0.0
972,0.0
1195,0.0
1197,0.0
2,4, 1, 9, 0, 1, 0.00,60.00,Thursday
7,-0.9
718,18.26768678080488
719,1.2406321996259138
720,11.775114315659247
619,4092.2181576020353
633,1251.337627209661
659,14.05945149365065
661,29.09732352964889
690,130.27992583376914
716,0.0
843,2767.9164971219398
844,2767.9164971219398
907,0.0
908,0.0
971,0.0
972,0.0
1195,0.0
1197,0.0
2,4, 1, 9, 0, 2, 0.00,60.00,Thursday
7,-4.5
718,18.394548680908972
719,-0.5799629324246544
720,11.707987528028395
619,4483.514984301231
633,1426.3863108127628
659,2.799627272230104
661,0.0
690,152.7339722195585
716,0.0
843,4418.515308724847
844,4418.515308724847
907,0.0
908,0.0
971,0.0
972,0.0
1195,1641.7286554053749
1197,1641.7286554053749
2,4, 1, 9, 0, 3, 0.00,60.00,Thursday
7,-6.4
718,18.538723339778873
719,-2.144272541878916
720,11.667371656461288
619,4217.5514939745535
633,1399.6150010203366
659,8.701515837760695
661,0.0
690,152.7339722195585
716,0.0
843,4719.007863722569
844,4719.007863722569
907,0.0
908,0.0
971,0.0
972,0.0
1195,2352.4451296018324
1197,2352.4451296018324
2,4, 1, 9, 0, 4, 0.00,60.00,Thursday
7,-7.0
718,18.583958028489985
719,-2.9208648940423365
720,11.620111905309441
619,4131.887731993971
633,1393.4933347590395
659,10.916862752092367
661,0.0
690,152.7339722195585
716,0.0
843,5062.522524506541
844,5062.522524506541
907,0.0
908,0.0
971,0.0
972,0.0
1195,2959.2497219530264
1197,2959.2497219530264
2,4, 1, 9, 0, 5, 0.00,60.00,Thursday
7,-9.0
718,18.602168772246046
719,-3.5060390552535794
720,11.562490278272127
619,3913.051634710899
633,1378.909277118488
659,4.886255799652918
661,0.0
690,152.7339722195585
716,0.0
843,3992.365582690576
844,3992.365582690576
907,0.0
908,0.0
971,0.0
972,0.0
1195,1923.6230469872903
1197,1923.6230469872903
2,4, 1, 9, 0, 6, 0.00,60.00,Thursday
7,-9.0
718,19.370021133281387
719,-3.9854817390402912
720,11.506217676478308
619,3907.5985101875162
633,1377.5244208650643
659,6.274634326705696
661,0.0
690,152.7339722195585
716,0.0
843,5060.128019112608
844,5060.128019112608
907,0.0
908,0.0
971,0.0
972,0.0
1195,3239.2201250572866
1197,3239.2201250572866
2,4, 1, 9, 0, 7, 0.00,60.00,Thursday
7,-9.3
718,19.57243836180038
719,-4.979888184182297
720,11.479323414520564
619,3865.2109565795768
633,1397.8020422783618
659,3.2594874662444084
661,0.0
690,152.7339722195585
716,85.44000000000005
843,5509.8388909182395
844,5509.8388909182395
907,0.0
908,0.0
971,0.0
972,0.0
1195,5088.351022126928
1197,5088.351022126928
2,4, 1, 9, 0, 8, 0.00,60.00,Thursday
7,-9.2
718,19.648021897357744
719,-4.5613542851443665
720,11.424264893843329
619,3876.4777929136626
633,1405.8503202483062
659,2.100926974250636
661,0.0
690,152.7339722195585
716,85.44000000000005
843,5245.686247772923
844,5245.686247772923
907,0.0
908,0.0
971,0.0
972,0.0
1195,4901.43927132554
1197,4901.43927132554
2,4, 1, 9, 0, 9, 0.00,60.00,Thursday
7,-8.4
718,19.68854532319711
719,-4.189700187232065
720,11.380424664746435
619,3977.577562752921
633,1420.440094442073
659,0.07416269786414233
661,0.0
690,152.7339722195585
716,74.0396264146315
843,4343.256423205308
844,4343.256423205308
907,0.0
908,0.0
971,0.0
972,0.0
1195,3417.2598684939608
1197,3417.2598684939608
2,4, 1, 9, 0,10, 0.00,60.00,Thursday
7,-8.0
718,19.720310270223237
719,-1.0414094996117544
720,11.340496078883575
619,4024.889467596473
633,1426.4599010390295
659,0.07416269786414233
661,0.0
690,152.7339722195585
716,0.0
843,3401.075328272598
844,3401.075328272598