Program Version,EnergyPlus, Version 22.2.0-c249759bad, YMD=2023.09.01 20:19
1,5,Environment Title[],Latitude[deg],Longitude[deg],Time Zone[],Elevation[m]
2,8,Day of Simulation[],Month[],Day of Month[],DST Indicator[1=yes 0=no],Hour[],StartMinute[],EndMinute[],DayType
3,5,Cumulative Day of Simulation[],Month[],Day of Month[],DST Indicator[1=yes 0=no],DayType  ! When Daily Report Variables Requested
4,2,Cumulative Days of Simulation[],Month[]  ! When Monthly Report Variables Requested
5,1,Cumulative Days of Simulation[] ! When Run Period Report Variables Requested
6,1,Calendar Year of Simulation[] ! When Annual Report Variables Requested
581,11,LIVING,AFN Zone Infiltration Air Change Rate [ach] !RunPeriod [Value,Min,Month,Day,Hour,Minute,Max,Month,Day,Hour,Minute]
582,11,ATTIC,AFN Zone Infiltration Air Change Rate [ach] !RunPeriod [Value,Min,Month,Day,Hour,Minute,Max,Month,Day,Hour,Minute]
583,11,CRAWLSPACE,AFN Zone Infiltration Air Change Rate [ach] !RunPeriod [Value,Min,Month,Day,Hour,Minute,Max,Month,Day,Hour,Minute]
1038,11,Facility,Facility Heating Setpoint Not Met Time [hr] !RunPeriod [Value,Min,Month,Day,Hour,Minute,Max,Month,Day,Hour,Minute]
1039,11,Facility,Facility Cooling Setpoint Not Met Time [hr] !RunPeriod [Value,Min,Month,Day,Hour,Minute,Max,Month,Day,Hour,Minute]
1115,11,DX_HEATING_COIL,Heating Coil Heating Energy [J] !RunPeriod [Value,Min,Month,Day,Hour,Minute,Max,Month,Day,Hour,Minute]
1128,11,DX_HEATING_COIL,Heating Coil Electricity Energy [J] !RunPeriod [Value,Min,Month,Day,Hour,Minute,Max,Month,Day,Hour,Minute]
1153,11,DX_HEATING_COIL,Heating Coil Defrost Electricity Energy [J] !RunPeriod [Value,Min,Month,Day,Hour,Minute,Max,Month,Day,Hour,Minute]
1154,11,DX_HEATING_COIL,Heating Coil Crankcase Heater Electricity Energy [J] !RunPeriod [Value,Min,Month,Day,Hour,Minute,Max,Month,Day,Hour,Minute]
1155,11,HEATING_RESISTANCE_BACKUP,Heating Coil Heating Energy [J] !RunPeriod [Value,Min,Month,Day,Hour,Minute,Max,Month,Day,Hour,Minute]
1156,11,HEATING_RESISTANCE_BACKUP,Heating Coil Electricity Energy [J] !RunPeriod [Value,Min,Month,Day,Hour,Minute,Max,Month,Day,Hour,Minute]
1292,11,WATER HEATER,Water Heater Heat Loss Energy [J] !RunPeriod [Value,Min,Month,Day,Hour,Minute,Max,Month,Day,Hour,Minute]
1306,11,WATER HEATER,Water Heater Heating Energy [J] !RunPeriod [Value,Min,Month,Day,Hour,Minute,Max,Month,Day,Hour,Minute]
1307,11,WATER HEATER,Water Heater Unmet Demand Heat Transfer Energy [J] !RunPeriod [Value,Min,Month,Day,Hour,Minute,Max,Month,Day,Hour,Minute]
1308,11,WATER HEATER,Water Heater Electricity Energy [J] !RunPeriod [Value,Min,Month,Day,Hour,Minute,Max,Month,Day,Hour,Minute]
13,11,Electricity:Facility [J] !RunPeriod [Value,Min,Month,Day,Hour,Minute,Max,Month,Day,Hour,Minute]
1134,11,Heating:Electricity [J] !RunPeriod [Value,Min,Month,Day,Hour,Minute,Max,Month,Day,Hour,Minute]
1096,11,Cooling:Electricity [J] !RunPeriod [Value,Min,Month,Day,Hour,Minute,Max,Month,Day,Hour,Minute]
562,11,Fans:Electricity [J] !RunPeriod [Value,Min,Month,Day,Hour,Minute,Max,Month,Day,Hour,Minute]
1379,11,Pumps:Electricity [J] !RunPeriod [Value,Min,Month,Day,Hour,Minute,Max,Month,Day,Hour,Minute]
1326,11,WaterSystems:Electricity [J] !RunPeriod [Value,Min,Month,Day,Hour,Minute,Max,Month,Day,Hour,Minute]
61,11,InteriorLights:Electricity [J] !RunPeriod [Value,Min,Month,Day,Hour,Minute,Max,Month,Day,Hour,Minute]
1046,11,ExteriorLights:Electricity [J] !RunPeriod [Value,Min,Month,Day,Hour,Minute,Max,Month,Day,Hour,Minute]
134,11,InteriorEquipment:Electricity [J] !RunPeriod [Value,Min,Month,Day,Hour,Minute,Max,Month,Day,Hour,Minute]
170,11,gas_dryer:InteriorEquipment:Electricity [J] !RunPeriod [Value,Min,Month,Day,Hour,Minute,Max,Month,Day,Hour,Minute]
207,11,clotheswasher:InteriorEquipment:Electricity [J] !RunPeriod [Value,Min,Month,Day,Hour,Minute,Max,Month,Day,Hour,Minute]
244,11,dishwasher:InteriorEquipment:Electricity [J] !RunPeriod [Value,Min,Month,Day,Hour,Minute,Max,Month,Day,Hour,Minute]
281,11,refrigerator:InteriorEquipment:Electricity [J] !RunPeriod [Value,Min,Month,Day,Hour,Minute,Max,Month,Day,Hour,Minute]
318,11,electric_mels:InteriorEquipment:Electricity [J] !RunPeriod [Value,Min,Month,Day,Hour,Minute,Max,Month,Day,Hour,Minute]
355,11,NaturalGas:Facility [J] !RunPeriod [Value,Min,Month,Day,Hour,Minute,Max,Month,Day,Hour,Minute]
403,11,InteriorEquipment:NaturalGas [J] !RunPeriod [Value,Min,Month,Day,Hour,Minute,Max,Month,Day,Hour,Minute]
476,11,gas_dryer:InteriorEquipment:NaturalGas [J] !RunPeriod [Value,Min,Month,Day,Hour,Minute,Max,Month,Day,Hour,Minute]
513,11,gas_mels:InteriorEquipment:NaturalGas [J] !RunPeriod [Value,Min,Month,Day,Hour,Minute,Max,Month,Day,Hour,Minute]
End of Data Dictionary
1,EXTREME_WINTER,  40.28, -74.82,  -5.00,  65.00
5,7
1038,1.0,0.0, 1, 8, 1,15,0.25, 1, 9, 6,15
1039,0.0,0.0, 1, 8, 1,15,0.0, 1, 8, 1,15
581,0.3514570246803463,0.1741428474847736, 1,14,21, 7,0.6265686692656245, 1, 8,16,60
582,3.2624031281673225,0.0, 1,11,22,60,11.038053449023877, 1, 8,16,52
583,0.04184289426020697,0.00020393718703415044, 1,14,19,41,0.06704902341024468, 1, 8,21,60
1115,1508706343.3689902,0.0, 1, 8,23, 3,3583961.849467976, 1,12, 5,60
1128,493683453.01137537,0.0, 1, 8,23, 3,1123397.8877939626, 1, 8,21,60
1153,5377090.537050436,0.0, 1, 8,23, 3,70327.32714685476, 1, 8, 4,60
1154,39523842.2198676,0.0, 1, 8, 1,15,180000.0, 1, 9,15,30
1155,370831036.28498286,0.0, 1, 8, 1,30,3809672.293641632, 1,10, 6,60
1156,370831036.28498286,0.0, 1, 8, 1,30,3809672.293641632, 1,10, 6,60
1292,-25338148.665509637,-39764.7493028971, 1,11, 4,30,-5894.68890206916, 1,14,18,17
1306,125520881.58877113,0.0, 1, 8, 1,15,4050000.0, 1, 8, 7,15
1307,23620377.197521724,0.0, 1, 8, 1,15,7151999.525108616, 1, 8, 6,60
1308,125520881.58877113,0.0, 1, 8, 1,15,4050000.0, 1, 8, 7,15
13,1459858249.6159241,452017.0388981225, 1, 9,15,30,8638026.330973422, 1,10, 8,60
61,301924526.02383536,88139.10953165221, 1, 8, 1,15,1282023.4113694867, 1, 8,20,15
134,70666020.44019976,63564.01800854099, 1, 8, 4,15,156554.22484006523, 1,13,20,15
170,5241013.419656067,348.4159749238097, 1, 8, 4,15,17476.39704006126, 1,13,12,15
207,6509451.13922267,815.2532113832032, 1, 8, 3,15,22990.642799023623, 1,13,10,15
244,12749673.399825225,1521.856143006317, 1, 8, 4,15,53038.631142310165, 1,13,20,15
281,46165882.481495745,59938.60262432081, 1, 8, 5,15,81951.81706819107, 1, 8,19,15
318,0.0,0.0, 1, 8, 1,15,0.0, 1, 8, 1,15
355,197687796.27748066,18561.32405820678, 1, 8, 4,15,724774.895203776, 1,13,18,15
403,197687796.27748066,18561.32405820678, 1, 8, 4,15,724774.895203776, 1,13,18,15
476,106772067.24485716,7098.072629279515, 1, 8, 4,15,356036.3026282215, 1,13,12,15
513,0.0,0.0, 1, 8, 1,15,0.0, 1, 8, 1,15
562,52331399.50984335,0.0, 1, 9,15,30,115750.17015065144, 1, 8, 1,15
1046,0.0,0.0, 1, 8, 1,15,0.0, 1, 8, 1,15
1096,0.0,0.0, 1, 8, 1,15,0.0, 1, 8, 1,15
1134,909415422.0532758,180000.0, 1, 9,15,30,5413443.359006761, 1,10, 6,15
1326,125520881.58877106,0.0, 1, 8, 1,15,4050000.0, 1, 8, 7,15
1379,0.0,0.0, 1, 8, 1,15,0.0, 1, 8, 1,15
1,EXTREME_SUMMER,  40.28, -74.82,  -5.00,  65.00
5,7
1038,0.0,0.0, 7,29, 1,15,0.0, 7,29, 1,15
1039,36.0,0.0, 7,29, 1,15,0.25, 7,29,12,15
581,0.08926650009455864,0.0, 7,29, 7,33,0.4477472493417034, 7,30,13,55
582,2.378885447091578,0.012914284852413025, 8, 3,20,35,10.078687794707873, 7,30,13,50
583,0.03038489080430656,0.0, 8, 2,23, 5,0.059609996785607994, 7,30,13,50
1115,0.0,0.0, 7,29, 1,15,0.0, 7,29, 1,15
1128,0.0,0.0, 7,29, 1,15,0.0, 7,29, 1,15
1153,0.0,0.0, 7,29, 1,15,0.0, 7,29, 1,15
1154,0.0,0.0, 7,29, 1,15,0.0, 7,29, 1,15
1155,0.0,0.0, 7,29, 1,15,0.0, 7,29, 1,15
1156,0.0,0.0, 7,29, 1,15,0.0, 7,29, 1,15
1292,-21915006.099114448,-34421.6074002454, 8, 3, 6,45,-2897.0472903477435, 8, 4,17,17
1306,94009090.41726293,0.0, 7,29, 1,15,3957645.2551790867, 8, 4,13,60
1307,10014671.029951511,0.0, 7,29, 1,15,2364509.8466863334, 7,29, 6,60
1308,94009090.41726293,0.0, 7,29, 1,15,3957645.2551790867, 8, 4,13,60
13,902730768.9201229,151703.1275401932, 7,31, 4,30,5513282.3055160595, 8, 4,13,60
61,301924526.02383536,88139.10953165221, 7,29, 1,15,1282023.4113694867, 7,29,20,15
134,70666020.44019976,63564.01800854099, 7,29, 4,15,156554.22484006523, 8, 3,20,15
170,5241013.419656067,348.4159749238097, 7,29, 4,15,17476.39704006126, 8, 3,12,15
207,6509451.13922267,815.2532113832032, 7,29, 3,15,22990.642799023623, 8, 3,10,15
244,12749673.399825225,1521.856143006317, 7,29, 4,15,53038.631142310165, 8, 3,20,15
281,46165882.481495745,59938.60262432081, 7,29, 5,15,81951.81706819107, 7,29,19,15
318,0.0,0.0, 7,29, 1,15,0.0, 7,29, 1,15
355,197687796.27748066,18561.32405820678, 7,29, 4,15,724774.895203776, 8, 3,18,15
403,197687796.27748066,18561.32405820678, 7,29, 4,15,724774.895203776, 8, 3,18,15
476,106772067.24485716,7098.072629279515, 7,29, 4,15,356036.3026282215, 8, 3,12,15
513,0.0,0.0, 7,29, 1,15,0.0, 7,29, 1,15
562,42929082.786872804,0.0, 7,31, 4,30,115750.17015065145, 8, 4,17,15
1046,0.0,0.0, 7,29, 1,15,0.0, 7,29, 1,15
1096,393202049.2519524,0.0, 7,31, 4,30,1198691.7099120053, 7,29,17,60
1134,0.0,0.0, 7,29, 1,15,0.0, 7,29, 1,15
1326,94009090.41726293,0.0, 7,29, 1,15,4050000.0, 7,29, 7,15
1379,0.0,0.0, 7,29, 1,15,0.0, 7,29, 1,15
1,ANNUAL,  40.28, -74.82,  -5.00,  65.00
5,365
1038,28.5,0.0, 1, 1, 1,15,0.25, 1, 3, 6,15
1039,617.75,0.0, 1, 1, 1,15,0.25, 3,15,17,60
581,0.21871916411854703,0.0, 5,24, 2,22,1.074521726259993,11,17, 4,60
582,3.346451009061546,0.0, 1, 1, 6, 5,32.44487280982533,12,27,21,60
583,0.023591105187337896,0.0, 5,16, 1,52,0.07682159885465492,12,27,21,60
1115,21429361945.61561,0.0, 1, 1,14,52,4157760.7512301616,12,23,10,15
1128,6525918435.207366,0.0, 1, 1,14,52,1180658.7363418425,12,23, 9,15
1153,154545254.97735763,0.0, 1, 1,14,52,112407.81499501163,12, 3, 6,45
1154,1501220129.980981,0.0, 1, 1, 6, 5,180000.0, 1, 1,15,15
1155,3021209571.426691,0.0, 1, 1, 1,15,4374205.130352492, 1,31, 6,45
1156,3021209571.426691,0.0, 1, 1, 1,15,4374205.130352492, 1,31, 6,45
1292,-1225165347.0671103,-40232.602565922774,12,28, 4,30,-2503.435946183576, 5,31,18,47
1306,5823275530.209159,0.0, 1, 1, 1,15,4050000.0, 1, 2, 7,15
1307,906415083.9328748,0.0, 1, 1, 1,15,7384328.612492383, 2, 6, 6,60
1308,5823275530.209159,0.0, 1, 1, 1,15,4050000.0, 1, 2, 7,15
13,45745099948.518036,151703.1275401932, 4,11, 4,15,10085986.441175684, 1,31, 7,30
61,15743207428.383959,88139.10953165221, 1, 1, 1,15,1282023.4113694867, 1, 1,20,15
134,3685071073.4325233,63564.01800854099, 1, 2, 4,15,156554.22484006523, 1, 1,20,15
170,273393721.45532674,348.4159749238097, 1, 2, 4,15,17476.39704006126, 1, 1,12,15
207,339560869.0695816,815.2532113832032, 1, 2, 3,15,22990.642799023623, 1, 1,10,15
244,664895467.8009144,1521.856143006317, 1, 2, 4,15,53038.631142310165, 1, 1,20,15
281,2407221015.106824,59938.60262432081, 1, 1, 5,15,81951.81706819107, 1, 1,19,15
318,0.0,0.0, 1, 1, 1,15,0.0, 1, 1, 1,15
355,10310294493.051695,18561.32405820678, 1, 2, 4,15,724774.895203776, 1, 1,18,15
403,10310294493.051695,18561.32405820678, 1, 2, 4,15,724774.895203776, 1, 1,18,15
476,5569688622.066177,7098.072629279515, 1, 2, 4,15,356036.3026282215, 1, 1,12,15
513,0.0,0.0, 1, 1, 1,15,0.0, 1, 1, 1,15
562,1572371419.6930199,0.0, 1, 1,14,60,115750.17015065145, 5,25,15,60
1046,0.0,0.0, 1, 1, 1,15,0.0, 1, 1, 1,15
1096,7718281105.204812,0.0, 1, 1, 1,15,1232860.2781896594, 7,19,16,60
1134,11202893391.592295,0.0, 1,15,15,30,5452828.773821225, 1, 3, 6,30
1326,5823275530.209162,0.0, 1, 1, 1,15,4050000.0, 1, 2, 7,15
1379,0.0,0.0, 1, 1, 1,15,0.0, 1, 1, 1,15
End of Data
 Number of Records Written=          99
