Program Version,EnergyPlus, Version 22.2.0-c249759bad, YMD=2023.07.07 15:21
1,5,Environment Title[],Latitude[deg],Longitude[deg],Time Zone[],Elevation[m]
2,8,Day of Simulation[],Month[],Day of Month[],DST Indicator[1=yes 0=no],Hour[],StartMinute[],EndMinute[],DayType
3,5,Cumulative Day of Simulation[],Month[],Day of Month[],DST Indicator[1=yes 0=no],DayType  ! When Daily Report Variables Requested
4,2,Cumulative Days of Simulation[],Month[]  ! When Monthly Report Variables Requested
5,1,Cumulative Days of Simulation[] ! When Run Period Report Variables Requested
6,1,Calendar Year of Simulation[] ! When Annual Report Variables Requested
581,11,LIVING,AFN Zone Infiltration Air Change Rate [ach] !RunPeriod [Value,Min,Month,Day,Hour,Minute,Max,Month,Day,Hour,Minute]
582,11,ATTIC,AFN Zone Infiltration Air Change Rate [ach] !RunPeriod [Value,Min,Month,Day,Hour,Minute,Max,Month,Day,Hour,Minute]
583,11,CRAWLSPACE,AFN Zone Infiltration Air Change Rate [ach] !RunPeriod [Value,Min,Month,Day,Hour,Minute,Max,Month,Day,Hour,Minute]
1038,11,Facility,Facility Heating Setpoint Not Met Time [hr] !RunPeriod [Value,Min,Month,Day,Hour,Minute,Max,Month,Day,Hour,Minute]
1039,11,Facility,Facility Cooling Setpoint Not Met Time [hr] !RunPeriod [Value,Min,Month,Day,Hour,Minute,Max,Month,Day,Hour,Minute]
1115,11,DX_HEATING_COIL,Heating Coil Heating Energy [J] !RunPeriod [Value,Min,Month,Day,Hour,Minute,Max,Month,Day,Hour,Minute]
1128,11,DX_HEATING_COIL,Heating Coil Electricity Energy [J] !RunPeriod [Value,Min,Month,Day,Hour,Minute,Max,Month,Day,Hour,Minute]
1153,11,DX_HEATING_COIL,Heating Coil Defrost Electricity Energy [J] !RunPeriod [Value,Min,Month,Day,Hour,Minute,Max,Month,Day,Hour,Minute]
1154,11,DX_HEATING_COIL,Heating Coil Crankcase Heater Electricity Energy [J] !RunPeriod [Value,Min,Month,Day,Hour,Minute,Max,Month,Day,Hour,Minute]
1156,11,HEATING_RESISTANCE_BACKUP,Heating Coil Electricity Energy [J] !RunPeriod [Value,Min,Month,Day,Hour,Minute,Max,Month,Day,Hour,Minute]
13,11,Electricity:Facility [J] !RunPeriod [Value,Min,Month,Day,Hour,Minute,Max,Month,Day,Hour,Minute]
1134,11,Heating:Electricity [J] !RunPeriod [Value,Min,Month,Day,Hour,Minute,Max,Month,Day,Hour,Minute]
1096,11,Cooling:Electricity [J] !RunPeriod [Value,Min,Month,Day,Hour,Minute,Max,Month,Day,Hour,Minute]
562,11,Fans:Electricity [J] !RunPeriod [Value,Min,Month,Day,Hour,Minute,Max,Month,Day,Hour,Minute]
1388,11,Pumps:Electricity [J] !RunPeriod [Value,Min,Month,Day,Hour,Minute,Max,Month,Day,Hour,Minute]
1360,11,WaterSystems:Electricity [J] !RunPeriod [Value,Min,Month,Day,Hour,Minute,Max,Month,Day,Hour,Minute]
61,11,InteriorLights:Electricity [J] !RunPeriod [Value,Min,Month,Day,Hour,Minute,Max,Month,Day,Hour,Minute]
1046,11,ExteriorLights:Electricity [J] !RunPeriod [Value,Min,Month,Day,Hour,Minute,Max,Month,Day,Hour,Minute]
134,11,InteriorEquipment:Electricity [J] !RunPeriod [Value,Min,Month,Day,Hour,Minute,Max,Month,Day,Hour,Minute]
170,11,gas_dryer:InteriorEquipment:Electricity [J] !RunPeriod [Value,Min,Month,Day,Hour,Minute,Max,Month,Day,Hour,Minute]
207,11,clotheswasher:InteriorEquipment:Electricity [J] !RunPeriod [Value,Min,Month,Day,Hour,Minute,Max,Month,Day,Hour,Minute]
244,11,dishwasher:InteriorEquipment:Electricity [J] !RunPeriod [Value,Min,Month,Day,Hour,Minute,Max,Month,Day,Hour,Minute]
281,11,refrigerator:InteriorEquipment:Electricity [J] !RunPeriod [Value,Min,Month,Day,Hour,Minute,Max,Month,Day,Hour,Minute]
318,11,electric_mels:InteriorEquipment:Electricity [J] !RunPeriod [Value,Min,Month,Day,Hour,Minute,Max,Month,Day,Hour,Minute]
355,11,NaturalGas:Facility [J] !RunPeriod [Value,Min,Month,Day,Hour,Minute,Max,Month,Day,Hour,Minute]
1323,11,WaterSystems:NaturalGas [J] !RunPeriod [Value,Min,Month,Day,Hour,Minute,Max,Month,Day,Hour,Minute]
403,11,InteriorEquipment:NaturalGas [J] !RunPeriod [Value,Min,Month,Day,Hour,Minute,Max,Month,Day,Hour,Minute]
476,11,gas_dryer:InteriorEquipment:NaturalGas [J] !RunPeriod [Value,Min,Month,Day,Hour,Minute,Max,Month,Day,Hour,Minute]
513,11,gas_mels:InteriorEquipment:NaturalGas [J] !RunPeriod [Value,Min,Month,Day,Hour,Minute,Max,Month,Day,Hour,Minute]
End of Data Dictionary
1,EXTREME_WINTER,  43.58, -96.73,  -6.00, 435.30
5,7
1038,16.833333333333332,0.0, 1,27, 1,10,0.16666666666666666, 1,28, 6,10
1039,0.0,0.0, 1,27, 1,10,0.0, 1,27, 1,10
581,0.5182717833844181,0.23934884346447888, 1,27, 2,16,1.0125466157459169, 1,29,14,60
582,7.594398490497657,0.0, 1,28,21,55,22.218591722660186, 1,29,11,60
583,10.091125952834181,0.7728372798602232, 2, 2,18,55,26.864928202873685, 1,29,14,20
1115,2619607873.88758,0.0, 1,27,23, 3,3306723.562655122, 1,27, 6,20
1128,1008330557.6570868,0.0, 1,27,23, 3,1090645.8345694635, 1,27, 6,20
1153,7644381.35474303,0.0, 1,27,23, 3,49361.72371336335, 1,29, 5,60
1154,829247.6985659151,0.0, 1,27, 1, 1,40000.0, 1,27,23, 3
1156,2629096977.861875,0.0, 1,27,23, 3,5328789.262048822, 1,30, 6,30
13,4128361021.1801095,1066073.884912463, 1,31,14,10,7382066.994588616, 2, 1,20,10
61,301924526.0238348,58759.40635443481, 1,27, 1,10,854682.2742463244, 1,27,20,10
134,70666020.44019979,42376.01200569399, 1,27, 4,10,104369.48322671017, 2, 1,20,10
170,5241013.419656074,232.27731661587313, 1,27, 4,10,11650.931360040839, 2, 1,12,10
207,6509451.13922266,543.5021409221355, 1,27, 3,10,15327.095199349082, 2, 1,10,10
244,12749673.39982522,1014.5707620042115, 1,27, 4,10,35359.08742820678, 2, 1,20,10
281,46165882.48149605,39959.06841621388, 1,27, 5,10,54634.54471212738, 1,27,19,10
318,0.0,0.0, 1,27, 1,10,0.0, 1,27, 1,10
355,744971595.0972952,12374.216038804521, 1,27, 4,10,3829218.154066982, 1,28,18,60
403,197687796.27748126,12374.216038804521, 1,27, 4,10,483183.26346918393, 2, 1,18,10
476,106772067.24485692,4732.048419519677, 1,27, 4,10,237357.535085481, 2, 1,12,10
513,0.0,0.0, 1,27, 1,10,0.0, 1,27, 1,10
562,104849470.14380784,62264.939187818105, 1,28,23,10,104747.8113537023, 1,27, 1,30
1046,0.0,0.0, 1,27, 1,10,0.0, 1,27, 1,10
1096,0.0,0.0, 1,27, 1,10,0.0, 1,27, 1,10
1134,3645901164.572271,802837.9073594582, 1,31,14,10,6320137.663670546, 2, 1, 6,10
1323,547283798.819811,0.0, 1,27, 1,10,3375000.0000000005, 1,27,21,30
1360,5019840.0,4980.0, 1,27, 1,50,4980.000000000002, 1,28, 9,60
1388,0.0,0.0, 1,27, 1,10,0.0, 1,27, 1,10
1,EXTREME_SUMMER,  43.58, -96.73,  -6.00, 435.30
5,7
1038,0.0,0.0, 7,27, 1,10,0.0, 7,27, 1,10
1039,7.833333333333333,0.0, 7,27, 1,10,0.16666666666666666, 8, 1,14,30
581,0.17245651025889813,0.0, 7,30, 6,60,0.5758103937400572, 7,29,24,60
582,4.250244211747509,0.03172306254471496, 7,27, 6, 2,14.168981513789856, 7,30, 1,20
583,5.042238534469109,0.0, 7,30,23, 2,16.419197035627903, 7,29,24,60
1115,0.0,0.0, 7,27, 1,10,0.0, 7,27, 1,10
1128,0.0,0.0, 7,27, 1,10,0.0, 7,27, 1,10
1153,0.0,0.0, 7,27, 1,10,0.0, 7,27, 1,10
1154,0.0,0.0, 7,27, 1,10,0.0, 7,27, 1,10
1156,0.0,0.0, 7,27, 1,10,0.0, 7,27, 1,10
13,972688231.7753469,122245.52796679971, 7,27, 4,60,2369990.198765794, 8, 1,20,10
61,301924526.0238348,58759.40635443481, 7,27, 1,10,854682.2742463244, 7,27,20,10
134,70666020.44019979,42376.01200569399, 7,27, 4,10,104369.48322671017, 8, 1,20,10
170,5241013.419656074,232.27731661587313, 7,27, 4,10,11650.931360040839, 8, 1,12,10
207,6509451.13922266,543.5021409221355, 7,27, 3,10,15327.095199349082, 8, 1,10,10
244,12749673.39982522,1014.5707620042115, 7,27, 4,10,35359.08742820678, 8, 1,20,10
281,46165882.48149605,39959.06841621388, 7,27, 5,10,54634.54471212738, 7,27,19,10
318,0.0,0.0, 7,27, 1,10,0.0, 7,27, 1,10
355,632458104.4006844,12374.216038804521, 7,27, 4,10,3829218.154066982, 7,31,18,20
403,197687796.27748126,12374.216038804521, 7,27, 4,10,483183.26346918393, 8, 1,18,10
476,106772067.24485692,4732.048419519677, 7,27, 4,10,237357.535085481, 8, 1,12,10
513,0.0,0.0, 7,27, 1,10,0.0, 7,27, 1,10
562,49552896.343562596,0.0, 7,27, 6,20,104747.8113537023, 8, 1,13,40
1046,0.0,0.0, 7,27, 1,10,0.0, 7,27, 1,10
1096,545524948.9677502,0.0, 7,27, 6,20,1379991.992049285, 8, 1,16,60
1134,0.0,0.0, 7,27, 1,10,0.0, 7,27, 1,10
1323,434770308.1232016,0.0, 7,27, 1,10,3375000.0000000005, 7,28, 9,40
1360,5019840.0,4980.0, 7,27, 1,10,4980.000000000002, 7,27,17,10
1388,0.0,0.0, 7,27, 1,10,0.0, 7,27, 1,10
1,ANNUAL,  43.58, -96.73,  -6.00, 435.30
5,365
1038,37.99999999999995,0.0, 1, 1, 1,10,0.16666666666666666, 1, 4, 6,10
1039,34.16666666666667,0.0, 1, 1, 1,10,0.16666666666666666, 5, 4,13,20
581,0.2968678811419508,0.0, 6,14,23,45,1.2948199904153355,10,27,13,60
582,4.945967434181114,0.0, 1, 1, 6,55,30.645668890423753, 4,26,16,60
583,6.014224609393187,0.0, 6,26,23, 2,37.04417919125427,10,27,13,10
1115,43048218888.2446,0.0, 1, 1,23, 3,3833536.389084464, 2,15, 7,30
1128,14564380415.516817,0.0, 1, 1,23, 3,1140438.8249954793,10,28, 6,30
1153,456964397.49043626,0.0, 1, 1,23, 3,99115.9240414448, 3, 9, 6,30
1154,1560513810.6375668,0.0, 1, 1, 2,50,120000.0, 1, 2,14,50
1156,13988855813.588871,0.0, 1, 1, 1, 3,5328789.262048822, 1,12, 6,30
13,60005469211.33593,106115.4183601288, 4,12, 4,10,7373427.188984282, 2, 1,20,10
61,15743207428.39043,58759.40635443481, 1, 1, 1,10,854682.2742463244, 1, 1,20,10
134,3685071073.433083,42376.01200569399, 1, 2, 4,10,104369.48322671017, 1, 1,20,10
170,273393721.45534325,232.27731661587313, 1, 2, 4,10,11650.931360040839, 1, 1,12,10
207,339560869.06955314,543.5021409221355, 1, 2, 3,10,15327.095199349082, 1, 1,10,10
244,664895467.8009839,1014.5707620042115, 1, 2, 4,10,35359.08742820678, 1, 1,20,10
281,2407221015.1057043,39959.06841621388, 1, 1, 5,10,54634.54471212738, 1, 1,19,10
318,0.0,0.0, 1, 1, 1,10,0.0, 1, 1, 1,10
355,35773500012.59227,12374.216038804521, 1, 2, 4,10,3829218.154066983, 4,18,18,60
403,10310294493.052883,12374.216038804521, 1, 2, 4,10,483183.26346918393, 1, 1,18,10
476,5569688622.065564,4732.048419519677, 1, 2, 4,10,237357.535085481, 1, 1,12,10
513,0.0,0.0, 1, 1, 1,10,0.0, 1, 1, 1,10
562,2186171366.896228,0.0, 1, 2,14,50,104747.81135370232, 7,16,17,30
1046,0.0,0.0, 1, 1, 1,10,0.0, 1, 1, 1,10
1096,7558556105.388656,0.0, 1, 1, 1,10,1381007.3588586152, 8, 1,16,60
1134,30570714437.233654,0.0, 2,16,15,60,6323909.373943635, 2, 1, 6,20
1323,25463205519.54326,0.0, 1, 1, 1,10,3375000.000000002, 2,14, 9,60
1360,261748800.0,4979.999999999998, 1, 1,19,40,4980.000000000002, 1,30, 9,40
1388,0.0,0.0, 1, 1, 1,10,0.0, 1, 1, 1,10
End of Data
 Number of Records Written=          87
