Program Version,EnergyPlus, Version 22.2.0-c249759bad, YMD=2023.09.01 14:31
1,5,Environment Title[],Latitude[deg],Longitude[deg],Time Zone[],Elevation[m]
2,8,Day of Simulation[],Month[],Day of Month[],DST Indicator[1=yes 0=no],Hour[],StartMinute[],EndMinute[],DayType
3,5,Cumulative Day of Simulation[],Month[],Day of Month[],DST Indicator[1=yes 0=no],DayType  ! When Daily Report Variables Requested
4,2,Cumulative Days of Simulation[],Month[]  ! When Monthly Report Variables Requested
5,1,Cumulative Days of Simulation[] ! When Run Period Report Variables Requested
6,1,Calendar Year of Simulation[] ! When Annual Report Variables Requested
7,1,Environment,Site Outdoor Air Drybulb Temperature [C] !Hourly
545,1,LIVING,Zone Mean Air Temperature [C] !Hourly
546,1,ATTIC,Zone Mean Air Temperature [C] !Hourly
547,1,CRAWLSPACE,Zone Mean Air Temperature [C] !Hourly
548,1,FAN,Fan Electricity Rate [W] !Hourly
720,1,LIVING,Zone Predicted Sensible Load to Heating Setpoint Heat Transfer Rate [W] !Hourly
721,1,LIVING,Zone System Predicted Sensible Load to Heating Setpoint Heat Transfer Rate [W] !Hourly
784,1,ATTIC,Zone Predicted Sensible Load to Heating Setpoint Heat Transfer Rate [W] !Hourly
785,1,ATTIC,Zone System Predicted Sensible Load to Heating Setpoint Heat Transfer Rate [W] !Hourly
848,1,CRAWLSPACE,Zone Predicted Sensible Load to Heating Setpoint Heat Transfer Rate [W] !Hourly
849,1,CRAWLSPACE,Zone System Predicted Sensible Load to Heating Setpoint Heat Transfer Rate [W] !Hourly
1121,1,DX_HEATING_COIL,Heating Coil Heating Rate [W] !Hourly
1135,1,DX_HEATING_COIL,Heating Coil Electricity Rate [W] !Hourly
1161,1,DX_HEATING_COIL,Heating Coil Defrost Electricity Rate [W] !Hourly
1163,1,DX_HEATING_COIL,Heating Coil Crankcase Heater Electricity Rate [W] !Hourly
1166,1,HEATING_RESISTANCE_BACKUP,Heating Coil Heating Rate [W] !Hourly
1168,1,HEATING_RESISTANCE_BACKUP,Heating Coil Electricity Rate [W] !Hourly
End of Data Dictionary
1,EXTREME_WINTER,  35.22, -80.93,  -5.00, 221.90
2,1, 1,20, 0, 1, 0.00,60.00,Monday
7,1.0
545,19.058094330649332
546,-4.586634150183857
547,19.827046148598818
548,47.09021174503823
720,863.8442657887736
721,863.8442657887736
784,0.0
785,0.0
848,0.0
849,0.0
1121,1300.6652006988907
1135,416.38226771685635
1161,38.11168778317847
1163,137.8263654393754
1166,0.0
1168,0.0
2,1, 1,20, 0, 2, 0.00,60.00,Monday
7,1.1
545,18.622720334628685
546,-1.7135426021850704
547,19.574491152785328
548,45.13177589035865
720,816.7521122617945
721,816.7521122617945
784,0.0
785,0.0
848,0.0
849,0.0
1121,1248.0052613584244
1135,403.9307279872588
1161,35.8768220742824
1163,140.43502596955076
1166,0.0
1168,0.0
2,1, 1,20, 0, 3, 0.00,60.00,Monday
7,-0.6
545,18.38341391121477
546,-0.6608457652355488
547,19.378041486665317
548,69.21774890120514
720,1352.35251078271
721,1352.35251078271
784,0.0
785,0.0
848,0.0
849,0.0
1121,1898.2084091836302
1135,616.1440216432851
1161,47.628177714712706
1163,108.51906696801541
1166,0.0
1168,0.0
2,1, 1,20, 0, 4, 0.00,60.00,Monday
7,-1.1
545,18.495683687810786
546,-1.3152692442043898
547,19.198956957778865
548,86.55789446987036
720,1868.6839672382139
721,1868.6839672382139
784,0.0
785,0.0
848,0.0
849,0.0
1121,2561.223420948908
1135,816.3039360338513
1161,16.153582512061806
1163,86.57906625354342
1166,0.0
1168,0.0
2,1, 1,20, 0, 5, 0.00,60.00,Monday
7,-1.1
545,18.54109886591874
546,-2.035337333238968
547,19.047442594164163
548,95.40484740270686
720,2029.3043872376948
721,2029.3043872376948
784,0.0
785,0.0
848,0.0
849,0.0
1121,2840.877893905801
1135,901.5454948044143
1161,17.804645517758292
1163,74.98627514107679
1166,0.0
1168,0.0
2,1, 1,20, 0, 6, 0.00,60.00,Monday
7,-2.8
545,19.135088807247335
546,-2.00428628665273
547,18.836878700275985
548,145.14446687087187
720,3180.154608302104
721,3180.154608302104
784,0.0
785,0.0
848,0.0
849,0.0
1121,4403.033461200215
1135,1385.0552169491611
1161,0.06991964169188661
1163,10.42443690643291
1166,0.0
1168,0.0
2,1, 1,20, 0, 7, 0.00,60.00,Monday
7,-3.9
545,19.496267994968466
546,-2.458089779700018
547,18.71716735141217
548,153.1272982192746
720,3349.7286349849837
721,3349.7286349849837
784,0.0
785,0.0
848,0.0
849,0.0
1121,4517.833588673395
1135,1464.6020906368324
1161,0.07376440354538417
1163,0.0
1166,319.72857378111803
1168,319.72857378111803
2,1, 1,20, 0, 8, 0.00,60.00,Monday
7,-3.9
545,19.645586937681944
546,-2.7749495961962105
547,18.595352367584724
548,153.1272982192746
720,3172.8998232403646
721,3172.8998232403646
784,0.0
785,0.0
848,0.0
849,0.0
1121,4509.062775785629
1135,1474.9141354437966
1161,0.07376440354538417
1163,0.0
1166,212.77219209785653
1168,212.77219209785653
2,1, 1,20, 0, 9, 0.00,60.00,Monday
7,-3.9
545,19.70843138425131
546,-0.7799413725799282
547,18.47065881655849
548,150.41679743346157
720,2880.177473644806
721,2880.177473644806
784,0.0
785,0.0
848,0.0
849,0.0
1121,4416.101278390645
1135,1452.9319481066082
1161,0.07245956597902752
1163,3.5378516022402273
1166,0.0
1168,0.0
2,1, 1,20, 0,10, 0.00,60.00,Monday
7,-3.3
545,19.805857639755683
546,1.7294452541921412
547,18.37448081248377
548,130.32682153682694
720,2500.5737581126778
721,2500.5737581126778
784,0.0
785,0.0
848,0.0
849,0.0
1121,3828.9120061876183
1135,1266.812121310128
1161,0.06278166565774622
1163,29.77788027766193
1166,0.0
1168,0.0
2,1, 1,20, 0,11, 0.00,60.00,Monday
7,-3.3
545,19.91877853829816
546,3.5051185143662105
547,18.312897650629143
548,92.0729193780618
720,1694.974490992323
721,1694.974490992323
784,0.0
785,0.0
848,0.0
849,0.0
1121,2623.982037805978
1135,896.7800062232554
1161,0.04435381150203738
1163,79.74196395488151
1166,0.0
1168,0.0
2,1, 1,20, 0,12, 0.00,60.00,Monday
7,-1.7
545,20.33503344454321
546,8.087353776866529
547,18.291803607130568
548,38.53228700727105
720,645.509360594282
721,645.509360594282
784,0.0
785,0.0
848,0.0
849,0.0
1121,1102.4436212705316
1135,381.3742504024536
1161,0.01856192056309565
1163,149.6724173966234
1166,0.0
1168,0.0
2,1, 1,20, 0,13, 0.00,60.00,Monday
7,-1.7
545,19.71601902929686
546,9.371088293445029
547,18.2629718385575
548,6.619711531068333
720,50.72122500453952
721,50.72122500453952
784,0.0
785,0.0
848,0.0
849,0.0
1121,184.62233555443245
1135,66.06739713119747
1161,0.0031888728023996725
1163,191.3538979531294
1166,0.0
1168,0.0
2,1, 1,20, 0,14, 0.00,60.00,Monday
7,-1.7
545,19.953540321070545
546,10.289642226182497
547,18.24658126417708
548,0.0
720,-199.72161759879236
721,-199.72161759879236
784,0.0
785,0.0
848,0.0
849,0.0
1121,0.0
1135,0.0
1161,0.0
1163,200.0
1166,0.0
1168,0.0
2,1, 1,20, 0,15, 0.00,60.00,Monday
7,0.0
545,21.170978420211117
546,13.531391234072164
547,18.245214420708045
548,0.0
720,-1308.13035944506
721,-1308.13035944506
784,0.0
785,0.0
848,0.0
849,0.0
1121,0.0
1135,0.0
1161,0.0
1163,200.0
1166,0.0
1168,0.0
2,1, 1,20, 0,16, 0.00,60.00,Monday
7,0.0
545,21.78342724228289
546,11.851585815415216
547,18.252330274076577
548,0.0
720,-1706.8249135859405
721,-1706.8249135859405
784,0.0
785,0.0
848,0.0
849,0.0
1121,0.0
1135,0.0
1161,0.0
1163,200.0
1166,0.0
1168,0.0
2,1, 1,20, 0,17, 0.00,60.00,Monday
7,0.0
545,22.403913824912653
546,9.638782914773417
547,18.272335413953247
548,0.0
720,-2299.8220113918433
721,-2299.8220113918433
784,0.0
785,0.0
848,0.0
849,0.0
1121,0.0
1135,0.0
1161,0.0
1163,200.0
1166,0.0
1168,0.0
2,1, 1,20, 0,18, 0.00,60.00,Monday
7,-1.1
545,22.23550013886319
546,7.4289448636803
547,18.311819484706753
548,0.0
720,-2092.6971513103726
721,-2092.6971513103726
784,0.0
785,0.0
848,0.0
849,0.0
1121,0.0
1135,0.0
1161,0.0
1163,200.0
1166,0.0
1168,0.0
2,1, 1,20, 0,19, 0.00,60.00,Monday
7,-2.8
545,21.382978552197784
546,3.3649181226024303
547,18.338418398111482
548,0.0
720,-1370.3861823141506
721,-1370.3861823141506
784,0.0
785,0.0
848,0.0
849,0.0
1121,0.0
1135,0.0
1161,0.0
1163,200.0
1166,0.0
1168,0.0
2,1, 1,20, 0,20, 0.00,60.00,Monday
7,-2.8
545,20.98104792735035
546,0.6078535464328756
547,18.341261105533814
548,0.0
720,-1110.0494179971774
721,-1110.0494179971774
784,0.0
785,0.0
848,0.0
849,0.0
1121,0.0
1135,0.0
1161,0.0
1163,200.0
1166,0.0
1168,0.0
2,1, 1,20, 0,21, 0.00,60.00,Monday
7,-4.4
545,20.40994481491116
546,-1.908461229114835
547,18.3144169109274
548,0.0
720,-587.0621716377773
721,-587.0621716377773
784,0.0
785,0.0
848,0.0
849,0.0
1121,0.0
1135,0.0
1161,0.0
1163,200.0
1166,0.0
1168,0.0
2,1, 1,20, 0,22, 0.00,60.00,Monday
7,-5.0
545,19.749171631933496
546,-4.069609895983405
547,18.25746267526733
548,4.93237785805405
720,56.33433948148377
721,56.33433948148377
784,0.0
785,0.0
848,0.0
849,0.0
1121,125.02568357256997
1135,47.933416558222866
1161,0.002376054790628049
1163,193.55771977694863
1166,0.0
1168,0.0
2,1, 1,20, 0,23, 0.00,60.00,Monday
7,-5.0
545,18.773837154811865
546,-5.830725059626407
547,18.186619158974615
548,0.0
720,-87.45344706003198
721,-87.45344706003198
784,0.0
785,0.0
848,0.0
849,0.0
1121,0.0
1135,0.0
1161,0.0
1163,200.0
1166,0.0
1168,0.0
2,1, 1,20, 0,24, 0.00,60.00,Monday
7,-5.6
545,18.43991737287955
546,-6.304806737885337
547,18.04831975783975
548,40.89151168361527
720,763.5723470850462
721,763.5723470850462
784,0.0
785,0.0
848,0.0
849,0.0
1121,1055.5184029445202
1135,382.8327946962274
1161,0.01969852088374109
1163,146.59071330625912
1166,0.0
1168,0.0
2,2, 1,21, 0, 1, 0.00,60.00,Tuesday
7,-6.1
545,18.30962596072465
546,-6.490814703674091
547,17.903993358944362
548,77.45101876200552
720,1409.9656055394535
721,1409.9656055394535
784,0.0
785,0.0
848,0.0
849,0.0
1121,2029.0792850261682
1135,717.1428585099462
1161,0.037310228717799064
1163,98.8394756155152
1166,0.0
1168,0.0
2,2, 1,21, 0, 2, 0.00,60.00,Tuesday
7,-6.1
545,18.324071566842125
546,-6.33786827111806
547,17.762696193974687
548,106.83972089810155
720,1923.321400822144
721,1923.321400822144
784,0.0
785,0.0
848,0.0
849,0.0
1121,2865.3435540551877
1135,986.4735586233446
1161,0.051467552495082426
1163,60.454229895815324
1166,0.0
1168,0.0
2,2, 1,21, 0, 3, 0.00,60.00,Tuesday
7,-7.2
545,18.28574214361512
546,-5.9403021976523025
547,17.59439742530317
548,148.9078359103087
720,2640.0572100398203
721,2640.0572100398203
784,0.0
785,0.0
848,0.0
849,0.0
1121,3997.386756347206
1135,1362.1538915542594
1161,0.07173301713035946
1163,5.507768835343163
1166,0.0
1168,0.0
2,2, 1,21, 0, 4, 0.00,60.00,Tuesday
7,-7.2
545,18.464564993088953
546,-5.959562899934242
547,17.475022730158464
548,153.1272982192746
720,3126.652914402179
721,3126.652914402179
784,0.0
785,0.0
848,0.0
849,0.0
1121,4125.768909784365
1135,1399.4470628836323
1161,0.07376440354538417
1163,0.0
1166,625.8914172775121
1168,625.8914172775121
2,2, 1,21, 0, 5, 0.00,60.00,Tuesday
7,-7.2
545,18.55213307921826
546,-5.923113190508689
547,17.357389777155696
548,153.1272982192746
720,3280.7554237514287
721,3280.7554237514287
784,0.0
785,0.0
848,0.0
849,0.0
1121,4121.647218625752
1135,1404.1596231278038
1161,0.07376440354538417
1163,0.0
1166,864.0924205985757
1168,864.0924205985757
2,2, 1,21, 0, 6, 0.00,60.00,Tuesday
7,-7.8
545,19.31989851633219
546,-5.728764463524158
547,17.232669062213493
548,153.1272982192746
720,4438.2653492222635
721,4438.2653492222635
784,0.0
785,0.0
848,0.0
849,0.0
1121,4046.8046757807497
1135,1399.219748347518
1161,0.07376440354538417
1163,0.0
1166,2289.0381421765496
1168,2289.0381421765496
2,2, 1,21, 0, 7, 0.00,60.00,Tuesday
7,-7.8
545,19.585810361692676
546,-5.684243169541964
547,17.148667061957788
548,153.1272982192746
720,4281.049878934242
721,4281.049878934242
784,0.0
785,0.0
848,0.0
849,0.0
1121,4028.6294539630358
1135,1419.8570400235142
1161,0.07376440354538417
1163,0.0
1166,2203.9529917249206
1168,2203.9529917249206
2,2, 1,21, 0, 8, 0.00,60.00,Tuesday
7,-7.8
545,19.672577814884384
546,-5.688615746173078
547,17.038580302077914
548,153.1272982192746
720,4031.218951088198
721,4031.218951088198
784,0.0
785,0.0
848,0.0
849,0.0
1121,4022.3419741792054
1135,1426.9892199960705
1161,0.07376440354538417
1163,0.0
1166,1946.8537127432915
1168,1946.8537127432915
2,2, 1,21, 0, 9, 0.00,60.00,Tuesday
7,-5.6
545,19.725412297771108
546,-3.115044727875866
547,16.95203445645866
548,153.1272982192746
720,2779.9794365731977
721,2779.9794365731977
784,0.0
785,0.0
848,0.0
849,0.0
1121,4290.929409678381
1135,1456.5095931150242
1161,0.07376440354538417
1163,0.0
1166,245.1091372030528
1168,245.1091372030528
2,2, 1,21, 0,10, 0.00,60.00,Tuesday
7,-2.2
545,20.01422442642497
546,2.7275824286701704
547,16.894913177592098
548,88.64088066662624
720,1463.7429983903949
721,1463.7429983903949
784,0.0
785,0.0
848,0.0
849,0.0
1121,2600.8660450995844
1135,868.8861546435395
1161,0.04270045044976474
1163,84.22477943987461
1166,0.0
1168,0.0
2,2, 1,21, 0,11, 0.00,60.00,Tuesday
7,-2.2
545,20.002794526522294
546,9.81700472871618
547,16.834568736335154
548,40.34084348670461
720,610.9583943569178
721,610.9583943569178
784,0.0
785,0.0
848,0.0
849,0.0
1121,1139.5774439069935
1135,397.75946161794496
1161,0.019433157720496426
1163,147.31020170578614
1166,0.0
1168,0.0
2,2, 1,21, 0,12, 0.00,60.00,Tuesday
7,0.6
545,19.939729069718474
546,12.082818091102718
547,16.804222330875373
548,0.0
720,-72.96498730905478
721,-72.96498730905478
784,0.0
785,0.0
848,0.0
849,0.0
1121,0.0
1135,0.0
1161,0.0
1163,200.0
1166,0.0
1168,0.0
2,2, 1,21, 0,13, 0.00,60.00,Tuesday
7,1.7
545,20.23006912611193
546,14.772377498542525
547,16.8028069474646
548,0.0
720,-403.99732403860435
721,-403.99732403860435
784,0.0
785,0.0
848,0.0
849,0.0
1121,0.0
1135,0.0
1161,0.0
1163,200.0
1166,0.0
1168,0.0
2,2, 1,21, 0,14, 0.00,60.00,Tuesday
7,1.7
545,20.76177414997252
546,16.129910143545015
547,16.824133810081285
548,0.0
720,-828.4761197041789
721,-828.4761197041789
784,0.0
785,0.0
848,0.0
849,0.0
1121,0.0
1135,0.0
1161,0.0
1163,200.0
1166,0.0
1168,0.0
2,2, 1,21, 0,15, 0.00,60.00,Tuesday
7,2.2
545,21.652296765850643
546,17.630560900816732
547,16.864449690362928
548,0.0
720,-1591.294520248086
721,-1591.294520248086
784,0.0
785,0.0
848,0.0
849,0.0
1121,0.0
1135,0.0
1161,0.0
1163,200.0
1166,0.0
1168,0.0
2,2, 1,21, 0,16, 0.00,60.00,Tuesday
7,2.8
545,22.55113423183965
546,18.011045711107233
547,16.919357853959955
548,0.0
720,-2303.5321753718763
721,-2303.5321753718763
784,0.0
785,0.0
848,0.0
849,0.0
1121,0.0
1135,0.0
1161,0.0
1163,200.0
1166,0.0
1168,0.0
2,2, 1,21, 0,17, 0.00,60.00,Tuesday
7,2.8
545,23.24908172957514
546,14.709463511060992
547,16.988621022696517
548,0.0
720,-2854.879493342258
721,-2854.879493342258
784,0.0
785,0.0
848,0.0
849,0.0
1121,0.0
1135,0.0
1161,0.0
1163,200.0
1166,0.0
1168,0.0
2,2, 1,21, 0,18, 0.00,60.00,Tuesday
7,1.1
545,23.05941269305879
546,9.931957123534072
547,17.074634690302037
548,0.0
720,-2679.731312562444
721,-2679.731312562444
784,0.0
785,0.0
848,0.0
849,0.0
1121,0.0
1135,0.0
1161,0.0
1163,200.0
1166,0.0
1168,0.0
2,2, 1,21, 0,19, 0.00,60.00,Tuesday
7,0.0
545,22.369455133010856
546,5.6097031521500424
547,17.14839694472356
548,0.0
720,-2206.0772223931017
721,-2206.0772223931017
784,0.0
785,0.0
848,0.0
849,0.0
1121,0.0
1135,0.0
1161,0.0
1163,200.0
1166,0.0
1168,0.0
2,2, 1,21, 0,20, 0.00,60.00,Tuesday
7,0.0
545,21.987466722306273
546,3.240524909264407
547,17.195369868565777
548,0.0
720,-1940.3789755072776
721,-1940.3789755072776
784,0.0
785,0.0
848,0.0
849,0.0
1121,0.0
1135,0.0
1161,0.0
1163,200.0
1166,0.0
1168,0.0
2,2, 1,21, 0,21, 0.00,60.00,Tuesday
7,-1.7
545,21.36647033693405
546,1.4555004646011345
547,17.20727455022698
548,0.0
720,-1385.977988323879
721,-1385.977988323879
784,0.0
785,0.0
848,0.0
849,0.0
1121,0.0
1135,0.0
1161,0.0
1163,200.0
1166,0.0
1168,0.0
2,2, 1,21, 0,22, 0.00,60.00,Tuesday
7,-1.1
545,20.842594675477788
546,0.6442036415812391
547,17.191290790841453
548,0.0
720,-962.1140769987778
721,-962.1140769987778
784,0.0
785,0.0
848,0.0
849,0.0
1121,0.0
1135,0.0
1161,0.0
1163,200.0
1166,0.0
1168,0.0
2,2, 1,21, 0,23, 0.00,60.00,Tuesday
7,-1.1
545,20.03934763083441
546,0.17483819897516142
547,17.15148792473481
548,0.0
720,-1175.1236230300583
721,-1175.1236230300583
784,0.0
785,0.0
848,0.0
849,0.0
1121,0.0
1135,0.0
1161,0.0
1163,200.0
1166,0.0
1168,0.0
2,2, 1,21, 0,24, 0.00,60.00,Tuesday
7,-0.6
545,19.143885089899367
546,0.07590210471389146
547,17.09473509719199
548,0.0
720,-434.553316148309
721,-434.553316148309
784,0.0
785,0.0
848,0.0
849,0.0
1121,0.0
1135,0.0
1161,0.0
1163,200.0
1166,0.0
1168,0.0
2,3, 1,22, 0, 1, 0.00,60.00,Wednesday
7,-1.1
545,18.710838311207723
546,0.04150126868102146
547,17.02030561686583
548,19.556109393485624
720,305.771959218966
721,305.771959218966
784,0.0
785,0.0
848,0.0
849,0.0
1121,563.4234555986336
1135,191.39802521733418
1161,0.00942063642348149
1163,174.45749990322807
1166,0.0
1168,0.0
2,3, 1,22, 0, 2, 0.00,60.00,Wednesday
7,-1.1
545,18.56503617172431
546,0.0962988350229606
547,16.93395598336537
548,38.70830192845599
720,822.1605047109952
721,822.1605047109952
784,0.0
785,0.0
848,0.0
849,0.0
1121,1133.5195597641182
1135,375.5628409109783
1161,0.018646696283860634
1163,149.4425620282062
1166,0.0
1168,0.0
2,3, 1,22, 0, 3, 0.00,60.00,Wednesday
7,-0.6
545,18.627053949130932
546,-0.09481662626962238
547,16.851283027265154
548,50.59193285400988
720,1109.436177466957
721,1109.436177466957
784,0.0
785,0.0
848,0.0
849,0.0
1121,1516.3948472949655
1135,491.5105480761192
1161,0.024371305124134313
1163,133.92123042345307
1166,0.0
1168,0.0
2,3, 1,22, 0, 4, 0.00,60.00,Wednesday
7,-0.6
545,18.46761941033138
546,0.5129253066964363
547,16.76619777430841
548,68.53403717898509
720,1522.0652791914108
721,1522.0652791914108
784,0.0
785,0.0
848,0.0
849,0.0
1121,2081.470733103621
1135,666.5196275465673
1161,0.033014432155746176
1163,110.4868186579079
1166,0.0
1168,0.0
2,3, 1,22, 0, 5, 0.00,60.00,Wednesday
7,-0.6
545,18.52615534111477
546,0.9836964210062809
547,16.67624981082718
548,80.86419990366416
720,1808.81448119993
721,1808.81448119993
784,0.0
785,0.0
848,0.0
849,0.0
1121,2481.1013104792787
1135,783.8608454793299
1161,0.038954156717732336
1163,94.38223629432466
1166,0.0
1168,0.0
2,3, 1,22, 0, 6, 0.00,60.00,Wednesday
7,-1.0
545,19.28279280325529
546,1.4879638887115725
547,16.583352855851956
548,120.68479169244524
720,2802.197847517011
721,2802.197847517011
784,0.0
785,0.0
848,0.0
849,0.0
1121,3776.5058008111687
1135,1166.8271421150537
1161,0.05813668522375699
1163,42.37197773045666
1166,0.0
1168,0.0
2,3, 1,22, 0, 7, 0.00,60.00,Wednesday
7,-1.1
545,19.556941202887334
546,1.4776956233712464
547,16.53645555624207
548,126.63279396672678
720,2837.3962600470622
721,2837.3962600470622
784,0.0
785,0.0
848,0.0
849,0.0
1121,3955.360243109905
1135,1241.4650166001927
1161,0.0610019862089623
1163,34.603187236699306
1166,0.0
1168,0.0
2,3, 1,22, 0, 8, 0.00,60.00,Wednesday
7,-1.1
545,19.68391741933697
546,1.6791227831536968
547,16.469238763266606
548,121.92989408581201
720,2666.4472123711894
721,2666.4472123711894
784,0.0
785,0.0
848,0.0
849,0.0
1121,3789.0931754692433
1135,1201.7967607639287
1161,0.058736489732082814
1163,40.74570684776244
1166,0.0
1168,0.0
2,3, 1,22, 0, 9, 0.00,60.00,Wednesday
7,0.0
545,19.787936792111438
546,2.854786881926976
547,16.410066669058377
548,103.03045690342914
720,2258.9989104492943
721,2258.9989104492943
784,0.0
785,0.0
848,0.0
849,0.0
1121,3249.160199923238
1135,1027.8569622037194
1161,0.04963212324964482
1163,65.43069322289514
1166,0.0
1168,0.0
2,3, 1,22, 0,10, 0.00,60.00,Wednesday
7,1.1
545,19.786552299069406
546,3.8702022310923834
547,16.350375455729672
548,89.75438241185007
720,2036.935842735551
721,2036.935842735551
784,0.0
785,0.0
848,0.0
849,0.0
1121,2884.675442474035
1135,906.0093374835852
1161,0.0432366820585154
1163,82.77087597701873
1166,0.0
1168,0.0
2,3, 1,22, 0,11, 0.00,60.00,Wednesday
7,1.1
545,19.777803506954502
546,4.918647747944844
547,16.291240870871096
548,84.44101088254797
720,1947.533004327739
721,1947.533004327739
784,0.0
785,0.0
848,0.0
849,0.0
1121,2702.9179994606693
1135,852.32361386828
1161,0.040677112825146404
1163,89.71072530907279
1166,0.0
1168,0.0
2,3, 1,22, 0,12, 0.00,60.00,Wednesday
7,1.7
545,19.782872281208235
546,6.592237859405734
547,16.23959169297636
548,74.81418694893281
720,1762.7028480059853
721,1762.7028480059853
784,0.0
785,0.0
848,0.0
849,0.0
1121,2415.8349653215955
1135,759.1046711418516
1161,0.03603963450216056
1163,102.28448202665432
1166,0.0
1168,0.0
2,3, 1,22, 0,13, 0.00,60.00,Wednesday
7,2.2
545,19.762202803860017
546,6.88515525075566
547,16.192241062322836
548,66.75283790864229
720,1617.68674629403
721,1617.68674629403
784,0.0
785,0.0
848,0.0
849,0.0
1121,2171.020070315396
1135,680.4648486043723
1161,0.0321562891690071
1163,112.81353166714712
1166,0.0
1168,0.0
2,3, 1,22, 0,14, 0.00,60.00,Wednesday
7,2.2
545,19.73976220283656
546,7.0842511449976415
547,16.151503571265046
548,64.4555225495483
720,1580.0604062895127
721,1580.0604062895127
784,0.0
785,0.0
848,0.0
849,0.0
1121,2092.9016932274894
1135,656.7572607768407
1161,0.03104962254135143
1163,115.8140754917163
1166,0.0
1168,0.0
2,3, 1,22, 0,15, 0.00,60.00,Wednesday
7,3.0
545,19.76832482341759
546,7.191035700382585
547,16.11820653970632
548,62.310904098810525
720,1565.7780695743804
721,1565.7780695743804
784,0.0
785,0.0
848,0.0
849,0.0
1121,2057.309265866689
1135,637.5905155731472
1161,1.289997573576938
1163,118.60241561289773
1166,0.0
1168,0.0
2,3, 1,22, 0,16, 0.00,60.00,Wednesday
7,2.8
545,19.718794643337233
546,7.585401164498731
547,16.08477760404627
548,59.39088093785557
720,1395.442255621023
721,1395.442255621023
784,0.0
785,0.0
848,0.0
849,0.0
1121,1850.3574043549224
1135,578.6776822272012
1161,21.64302750846337
1163,122.18602371854985
1166,0.0
1168,0.0
2,3, 1,22, 0,17, 0.00,60.00,Wednesday
7,2.8
545,19.769324091049427
546,8.158259667196956
547,16.048249911357946
548,43.511025697272544
720,994.4216832827769
721,994.4216832827769
784,0.0
785,0.0
848,0.0
849,0.0
1121,1339.8945581550379
1135,423.5621255295533
1161,15.85613239377848
1163,142.9918614887621
1166,0.0
1168,0.0
2,3, 1,22, 0,18, 0.00,60.00,Wednesday
7,2.2
545,19.662941215362217
546,6.889915340935336
547,16.020878927055033
548,35.20950934883375
720,725.2985773629789
721,725.2985773629789
784,0.0
785,0.0
848,0.0
849,0.0
1121,983.7619702501894
1135,318.33667139481037
1161,29.89738176817591
1163,153.59699942083972
1166,0.0
1168,0.0
2,3, 1,22, 0,19, 0.00,60.00,Wednesday
7,2.0
545,19.704217130782656
546,5.629285707926783
547,16.002102048838974
548,38.30514089620021
720,800.5904791426674
721,800.5904791426674
784,0.0
785,0.0
848,0.0
849,0.0
1121,1065.5024950063344
1135,344.46652848773596
1161,33.01400713355423
1163,149.48918553713563
1166,0.0
1168,0.0
2,3, 1,22, 0,20, 0.00,60.00,Wednesday
7,2.2
545,19.785869346883526
546,4.780017989581339
547,15.98334000114587
548,37.32757297111296
720,762.040420602405
721,762.040420602405
784,0.0
785,0.0
848,0.0
849,0.0
1121,1033.4494022077733
1135,333.60340306161805
1161,34.26288337687151
1163,150.76513251794742
1166,0.0
1168,0.0
2,3, 1,22, 0,21, 0.00,60.00,Wednesday
7,3.3
545,19.82483660087823
546,4.605896158903977
547,15.959546091771497
548,31.56716099005383
720,647.0268026903104
721,647.0268026903104
784,0.0
785,0.0
848,0.0
849,0.0
1121,896.2850676916917
1135,285.08357617507085
1161,28.712406410557726
1163,158.4635411265596
1166,0.0
1168,0.0
2,3, 1,22, 0,22, 0.00,60.00,Wednesday
7,3.3
545,19.77293728211741
546,4.52503927412315
547,15.933496412809331
548,33.43465257616286
720,693.8418366430433
721,693.8418366430433
784,0.0
785,0.0
848,0.0
849,0.0
1121,950.4583230885738
1135,302.1674976455509
1161,30.411051675194045
1163,156.00621629748545
1166,0.0
1168,0.0
2,3, 1,22, 0,23, 0.00,60.00,Wednesday
7,3.3
545,18.741638185487215
546,3.9900480890840453
547,15.885564699543394
548,6.043170477245568
720,73.18462103760976
721,73.18462103760976
784,0.0
785,0.0
848,0.0
849,0.0
1121,168.40721317664466
1135,54.566423543845644
1161,5.496658790182369
1163,192.04832438928582
1166,0.0
1168,0.0
2,3, 1,22, 0,24, 0.00,60.00,Wednesday
7,3.0
545,18.566242872987857
546,3.9678690267658263
547,15.853743781995664
548,22.680182624185658
720,487.70460007728616
721,487.70460007728616
784,0.0
785,0.0
848,0.0
849,0.0
1121,637.1763253064076
1135,200.07156821385453
1161,20.786985723981413
1163,170.13766820808692
1166,0.0
1168,0.0
2,4, 1,23, 0, 1, 0.00,60.00,Thursday
7,2.8
545,18.5039467662746
546,4.134765536496911
547,15.815419532224075
548,42.68615610962907
720,939.3269703116275
721,939.3269703116275
784,0.0
785,0.0
848,0.0
849,0.0
1121,1218.4192649720492
1135,376.58196099926255
1161,37.70600853562566
1163,143.79263549200547
1166,0.0
1168,0.0
2,4, 1,23, 0, 2, 0.00,60.00,Thursday
7,2.8
545,18.5360140109939
546,4.229048451212116
547,15.774014153647125
548,57.78035398613721
720,1270.8637527109313
721,1270.8637527109313
784,0.0
785,0.0
848,0.0
849,0.0
1121,1668.6020172953602
1135,509.0738066341017
1161,51.039053250316165
1163,123.91741312334955
1166,0.0
1168,0.0
2,4, 1,23, 0, 3, 0.00,60.00,Thursday
7,2.2
545,18.530748396157964
546,4.037978926645464
547,15.729768989914207
548,70.25666086855222
720,1528.1604807985623
721,1528.1604807985623
784,0.0
785,0.0
848,0.0
849,0.0
1121,2026.8456297403927
1135,619.6537226838266
1161,59.79570444039396
1163,107.4106609511933
1166,0.0
1168,0.0
2,4, 1,23, 0, 4, 0.00,60.00,Thursday
7,2.2
545,18.591189931480933
546,4.2141571798198045
547,15.68704330919169
548,76.09481881763266
720,1644.0075060533
721,1644.0075060533
784,0.0
785,0.0
848,0.0
849,0.0
1121,2205.037238983953
1135,670.9855099291493
1161,64.79856540889
1163,99.71621891480487
1166,0.0
1168,0.0
2,4, 1,23, 0, 5, 0.00,60.00,Thursday
7,2.2
545,18.60305239761574
546,3.6593091087785274
547,15.64412941401633
548,75.95413522964466
720,1626.6912749924486
721,1626.6912749924486
784,0.0
785,0.0
848,0.0
849,0.0
1121,2200.1256871331934
1135,670.5035350084831
1161,64.67892326835408
1163,99.90137990030443
1166,0.0
1168,0.0
2,4, 1,23, 0, 6, 0.00,60.00,Thursday
7,1.7
545,19.288657219691185
546,2.9359352040192377
547,15.607184208780602
548,117.40619416312424
720,2596.1609334747645
721,2596.1609334747645
784,0.0
785,0.0
848,0.0
849,0.0
1121,3445.0276162392634
1135,1026.6955135760609
1161,104.71558672428935
1163,45.033737364685365
1166,0.0
1168,0.0
2,4, 1,23, 0, 7, 0.00,60.00,Thursday
7,1.7
545,19.568543000621332
546,2.5042821098601022
547,15.592412727634386
548,120.43376710615603
720,2547.0918909567863
721,2547.0918909567863
784,0.0
785,0.0
848,0.0
849,0.0
1121,3531.1602225843135
1135,1067.3657970493628
1161,107.37214277506985
1163,41.033036055056904
1166,0.0
1168,0.0
2,4, 1,23, 0, 8, 0.00,60.00,Thursday
7,1.7
545,19.68919932079411
546,2.3765908799522024
547,15.555404908886521
548,114.1607562995321
720,2335.371521664947
721,2335.371521664947
784,0.0
785,0.0
848,0.0
849,0.0
1121,3326.146941343712
1135,1017.3422668568223
1161,101.78090549803414
1163,49.31099336925635
1166,0.0
1168,0.0
2,4, 1,23, 0, 9, 0.00,60.00,Thursday
7,1.7
545,19.746439942608063
546,3.2299122913437643
547,15.513240136725262
548,102.80824644447752
720,2049.7462894411237
721,2049.7462894411237
784,0.0
785,0.0
848,0.0
849,0.0
1121,2967.2705356672454
1135,918.4436693487822
1161,91.59570113269844
1163,64.29628911199731
1166,0.0
1168,0.0
2,4, 1,23, 0,10, 0.00,60.00,Thursday
7,2.2
545,19.80817314886646
546,5.427029547671511
547,15.469738427510178
548,85.36031920680193
720,1687.4424728628528
721,1687.4424728628528
784,0.0
785,0.0
848,0.0
849,0.0
1121,2450.7356311235667
1135,762.862375496111
1161,78.41305775530309
1163,87.40920220620423
1166,0.0
1168,0.0
2,4, 1,23, 0,11, 0.00,60.00,Thursday
7,2.2
545,19.780603719157337
546,7.874782336148803
547,15.432687655607435
548,74.32269888218887
720,1499.7949788515052
721,1499.7949788515052
784,0.0
785,0.0
848,0.0
849,0.0
1121,2115.1533599246186
1135,665.0278127091227
1161,68.27395962317195
1163,101.96760842431942
1166,0.0
1168,0.0
2,4, 1,23, 0,12, 0.00,60.00,Thursday
7,3.0
545,19.806448094836803
546,11.007303191248095
547,15.400059558443578
548,59.21998176850106
720,1215.2883625793274
721,1215.2883625793274
784,0.0
785,0.0
848,0.0
849,0.0
1121,1667.7787543869272
1135,522.6857770601566
1161,61.59668811144165
1163,121.9254251721785
1166,0.0
1168,0.0
2,4, 1,23, 0,13, 0.00,60.00,Thursday
7,4.0
545,19.7786194462364
546,12.626468014757256
547,15.374960199184725
548,41.92661166417204
720,914.5189072297253
721,914.5189072297253
784,0.0
785,0.0
848,0.0
849,0.0
1121,1208.7700647342094
1135,376.70039946075684
1161,40.81216439435947
1163,144.88401354147155
1166,0.0
1168,0.0
2,4, 1,23, 0,14, 0.00,60.00,Thursday
7,3.9
545,19.844629199988603
546,17.951736063732632
547,15.349330678576669
548,12.457316880954528
720,241.40676195956075
721,241.40676195956075
784,0.0
785,0.0
848,0.0
849,0.0
1121,351.1865118088921
1135,111.98697283240816
1161,11.99226588777799
1163,183.62169383942896
1166,0.0
1168,0.0
2,4, 1,23, 0,15, 0.00,60.00,Thursday
7,6.0
545,20.3440177971127
546,19.154390166617922
547,15.358648717393718
548,0.0
720,-448.0935778817784
721,-448.0935778817784
784,0.0
785,0.0
848,0.0
849,0.0
1121,0.0
1135,0.0
1161,0.0
1163,200.0
1166,0.0
1168,0.0
2,4, 1,23, 0,16, 0.00,60.00,Thursday
7,6.7
545,20.9121267084213
546,17.02958718082071
547,15.401056869827057
548,0.0
720,-878.7810397443554
721,-878.7810397443554
784,0.0
785,0.0
848,0.0
849,0.0
1121,0.0
1135,0.0
1161,0.0
1163,200.0
1166,0.0
1168,0.0
2,4, 1,23, 0,17, 0.00,60.00,Thursday
7,6.7
545,21.68635983483658
546,14.87623666886661
547,15.468753024569978
548,0.0
720,-1482.4821491227522
721,-1482.4821491227522
784,0.0
785,0.0
848,0.0
849,0.0
1121,0.0
1135,0.0
1161,0.0
1163,200.0
1166,0.0
1168,0.0
2,4, 1,23, 0,18, 0.00,60.00,Thursday
7,3.9
545,21.83045695101592
546,13.05568475756946
547,15.549104894912965
548,0.0
720,-1531.344194592286
721,-1531.344194592286
784,0.0
785,0.0
848,0.0
849,0.0
1121,0.0
1135,0.0
1161,0.0
1163,200.0
1166,0.0
1168,0.0
2,4, 1,23, 0,19, 0.00,60.00,Thursday
7,3.0
545,21.39152666293637
546,9.229728074490694
547,15.621553236930868
548,0.0
720,-1197.0269632879645
721,-1197.0269632879645
784,0.0
785,0.0
848,0.0
849,0.0
1121,0.0
1135,0.0
1161,0.0
1163,200.0
1166,0.0
1168,0.0
2,4, 1,23, 0,20, 0.00,60.00,Thursday
7,3.9
545,21.412438916693347
546,7.288061786013725
547,15.675863599008553
548,0.0
720,-1275.9281410615185
721,-1275.9281410615185
784,0.0
785,0.0
848,0.0
849,0.0
1121,0.0
1135,0.0
1161,0.0
1163,200.0
1166,0.0
1168,0.0
2,4, 1,23, 0,21, 0.00,60.00,Thursday
7,3.9
545,21.095278509412015
546,6.372811997827876
547,15.707795883263747
548,0.0
720,-956.7861097265177