Program Version,EnergyPlus, Version 22.2.0-c249759bad, YMD=2023.09.01 20:53
1,5,Environment Title[],Latitude[deg],Longitude[deg],Time Zone[],Elevation[m]
2,8,Day of Simulation[],Month[],Day of Month[],DST Indicator[1=yes 0=no],Hour[],StartMinute[],EndMinute[],DayType
3,5,Cumulative Day of Simulation[],Month[],Day of Month[],DST Indicator[1=yes 0=no],DayType  ! When Daily Report Variables Requested
4,2,Cumulative Days of Simulation[],Month[]  ! When Monthly Report Variables Requested
5,1,Cumulative Days of Simulation[] ! When Run Period Report Variables Requested
6,1,Calendar Year of Simulation[] ! When Annual Report Variables Requested
581,11,LIVING,AFN Zone Infiltration Air Change Rate [ach] !RunPeriod [Value,Min,Month,Day,Hour,Minute,Max,Month,Day,Hour,Minute]
582,11,ATTIC,AFN Zone Infiltration Air Change Rate [ach] !RunPeriod [Value,Min,Month,Day,Hour,Minute,Max,Month,Day,Hour,Minute]
583,11,CRAWLSPACE,AFN Zone Infiltration Air Change Rate [ach] !RunPeriod [Value,Min,Month,Day,Hour,Minute,Max,Month,Day,Hour,Minute]
1038,11,Facility,Facility Heating Setpoint Not Met Time [hr] !RunPeriod [Value,Min,Month,Day,Hour,Minute,Max,Month,Day,Hour,Minute]
1039,11,Facility,Facility Cooling Setpoint Not Met Time [hr] !RunPeriod [Value,Min,Month,Day,Hour,Minute,Max,Month,Day,Hour,Minute]
1115,11,DX_HEATING_COIL,Heating Coil Heating Energy [J] !RunPeriod [Value,Min,Month,Day,Hour,Minute,Max,Month,Day,Hour,Minute]
1128,11,DX_HEATING_COIL,Heating Coil Electricity Energy [J] !RunPeriod [Value,Min,Month,Day,Hour,Minute,Max,Month,Day,Hour,Minute]
1153,11,DX_HEATING_COIL,Heating Coil Defrost Electricity Energy [J] !RunPeriod [Value,Min,Month,Day,Hour,Minute,Max,Month,Day,Hour,Minute]
1154,11,DX_HEATING_COIL,Heating Coil Crankcase Heater Electricity Energy [J] !RunPeriod [Value,Min,Month,Day,Hour,Minute,Max,Month,Day,Hour,Minute]
1155,11,HEATING_RESISTANCE_BACKUP,Heating Coil Heating Energy [J] !RunPeriod [Value,Min,Month,Day,Hour,Minute,Max,Month,Day,Hour,Minute]
1156,11,HEATING_RESISTANCE_BACKUP,Heating Coil Electricity Energy [J] !RunPeriod [Value,Min,Month,Day,Hour,Minute,Max,Month,Day,Hour,Minute]
1292,11,WATER HEATER,Water Heater Heat Loss Energy [J] !RunPeriod [Value,Min,Month,Day,Hour,Minute,Max,Month,Day,Hour,Minute]
1306,11,WATER HEATER,Water Heater Heating Energy [J] !RunPeriod [Value,Min,Month,Day,Hour,Minute,Max,Month,Day,Hour,Minute]
1307,11,WATER HEATER,Water Heater Unmet Demand Heat Transfer Energy [J] !RunPeriod [Value,Min,Month,Day,Hour,Minute,Max,Month,Day,Hour,Minute]
1308,11,WATER HEATER,Water Heater Electricity Energy [J] !RunPeriod [Value,Min,Month,Day,Hour,Minute,Max,Month,Day,Hour,Minute]
13,11,Electricity:Facility [J] !RunPeriod [Value,Min,Month,Day,Hour,Minute,Max,Month,Day,Hour,Minute]
1134,11,Heating:Electricity [J] !RunPeriod [Value,Min,Month,Day,Hour,Minute,Max,Month,Day,Hour,Minute]
1096,11,Cooling:Electricity [J] !RunPeriod [Value,Min,Month,Day,Hour,Minute,Max,Month,Day,Hour,Minute]
562,11,Fans:Electricity [J] !RunPeriod [Value,Min,Month,Day,Hour,Minute,Max,Month,Day,Hour,Minute]
1379,11,Pumps:Electricity [J] !RunPeriod [Value,Min,Month,Day,Hour,Minute,Max,Month,Day,Hour,Minute]
1326,11,WaterSystems:Electricity [J] !RunPeriod [Value,Min,Month,Day,Hour,Minute,Max,Month,Day,Hour,Minute]
61,11,InteriorLights:Electricity [J] !RunPeriod [Value,Min,Month,Day,Hour,Minute,Max,Month,Day,Hour,Minute]
1046,11,ExteriorLights:Electricity [J] !RunPeriod [Value,Min,Month,Day,Hour,Minute,Max,Month,Day,Hour,Minute]
134,11,InteriorEquipment:Electricity [J] !RunPeriod [Value,Min,Month,Day,Hour,Minute,Max,Month,Day,Hour,Minute]
170,11,gas_dryer:InteriorEquipment:Electricity [J] !RunPeriod [Value,Min,Month,Day,Hour,Minute,Max,Month,Day,Hour,Minute]
207,11,clotheswasher:InteriorEquipment:Electricity [J] !RunPeriod [Value,Min,Month,Day,Hour,Minute,Max,Month,Day,Hour,Minute]
244,11,dishwasher:InteriorEquipment:Electricity [J] !RunPeriod [Value,Min,Month,Day,Hour,Minute,Max,Month,Day,Hour,Minute]
281,11,refrigerator:InteriorEquipment:Electricity [J] !RunPeriod [Value,Min,Month,Day,Hour,Minute,Max,Month,Day,Hour,Minute]
318,11,electric_mels:InteriorEquipment:Electricity [J] !RunPeriod [Value,Min,Month,Day,Hour,Minute,Max,Month,Day,Hour,Minute]
355,11,NaturalGas:Facility [J] !RunPeriod [Value,Min,Month,Day,Hour,Minute,Max,Month,Day,Hour,Minute]
403,11,InteriorEquipment:NaturalGas [J] !RunPeriod [Value,Min,Month,Day,Hour,Minute,Max,Month,Day,Hour,Minute]
476,11,gas_dryer:InteriorEquipment:NaturalGas [J] !RunPeriod [Value,Min,Month,Day,Hour,Minute,Max,Month,Day,Hour,Minute]
513,11,gas_mels:InteriorEquipment:NaturalGas [J] !RunPeriod [Value,Min,Month,Day,Hour,Minute,Max,Month,Day,Hour,Minute]
End of Data Dictionary
1,EXTREME_WINTER,  43.12, -76.12,  -5.00, 124.00
5,7
1038,3.5,0.0, 1,20, 1,15,0.25, 1,23, 6,15
1039,0.0,0.0, 1,20, 1,15,0.0, 1,20, 1,15
581,0.4840373552533621,0.30474015507846747, 1,26,23, 5,0.9808267753065848, 1,20, 9,30
582,6.670807858003961,0.1270548858793493, 1,21, 9,50,35.512252112465276, 1,20,13,52
583,0.06954189064917664,0.00048560620514551155, 1,26,23, 5,0.086249197698389, 1,22,10,60
1115,2095092344.7257993,0.0, 1,20,23, 5,4067847.3418000606, 1,21,10,60
1128,786816703.7238495,0.0, 1,20,23, 5,1376762.0479270227, 1,21,10,60
1153,5049377.972689027,0.0, 1,20, 1,46,63114.67205833147, 1,20, 8,60
1154,10985000.100410864,0.0, 1,20, 6, 5,136327.43732038426, 1,20,12,60
1155,1246222089.4077516,0.0, 1,20, 1, 5,6039022.077749762, 1,24, 6,15
1156,1246222089.4077516,0.0, 1,20, 1, 5,6039022.077749762, 1,24, 6,15
1292,-25014840.327060033,-39762.230332797866, 1,22, 1,60,-4099.959098427274, 1,24,10, 3
1306,376465699.5392685,0.0, 1,20, 1, 5,4050000.0, 1,20,10,15
1307,180595689.00503406,0.0, 1,20, 1, 5,14158806.214247704, 1,24,19,45
1308,376465699.5392685,0.0, 1,20, 1, 5,4050000.0, 1,20,10,15
13,2881327721.348329,805258.1703836528, 1,20, 2,15,10693204.06911939, 1,22, 8,60
61,301924526.02383536,88139.10953165221, 1,20, 1,15,1282023.4113694867, 1,20,20,15
134,70666020.44019976,63564.01800854099, 1,20, 4,15,156554.22484006523, 1,25,20,15
170,5241013.419656067,348.4159749238097, 1,20, 4,15,17476.39704006126, 1,25,12,15
207,6509451.13922267,815.2532113832032, 1,20, 3,15,22990.642799023623, 1,25,10,15
244,12749673.399825225,1521.856143006317, 1,20, 4,15,53038.631142310165, 1,25,20,15
281,46165882.481495745,59938.60262432081, 1,20, 5,15,81951.81706819107, 1,20,19,15
318,0.0,0.0, 1,20, 1,15,0.0, 1,20, 1,15
355,197687796.27748066,18561.32405820678, 1,20, 4,15,724774.895203776, 1,25,18,15
403,197687796.27748066,18561.32405820678, 1,20, 4,15,724774.895203776, 1,25,18,15
476,106772067.24485716,7098.072629279515, 1,20, 4,15,356036.3026282215, 1,25,12,15
513,0.0,0.0, 1,20, 1,15,0.0, 1,20, 1,15
562,83198304.14032614,33051.19935510766, 1,20,12,60,136223.97008616297, 1,23,12,30
1046,0.0,0.0, 1,20, 1,15,0.0, 1,20, 1,15
1096,0.0,0.0, 1,20, 1,15,0.0, 1,20, 1,15
1134,2049073171.2046993,491671.77108020463, 1,20,12,60,7217942.395658912, 1,24, 7,60
1326,376465699.53926843,0.0, 1,20, 1,15,4050000.0, 1,20, 9,60
1379,0.0,0.0, 1,20, 1,15,0.0, 1,20, 1,15
1,EXTREME_SUMMER,  43.12, -76.12,  -5.00, 124.00
5,7
1038,0.0,0.0, 7,13, 1,15,0.0, 7,13, 1,15
1039,46.25,0.0, 7,13, 1,15,0.25, 7,14,15,15
581,0.1260709726683912,0.0, 7,14, 6, 7,0.45067991754450687, 7,19,21,48
582,3.758518367460963,0.0, 7,13, 2, 7,12.896471557139545, 7,19,21,46
583,0.0423048819990565,0.0, 7,14, 6, 7,0.07425818100227033, 7,19,21,46
1115,0.0,0.0, 7,13, 1, 7,0.0, 7,13, 1, 7
1128,0.0,0.0, 7,13, 1, 7,0.0, 7,13, 1, 7
1153,0.0,0.0, 7,13, 1, 7,0.0, 7,13, 1, 7
1154,0.0,0.0, 7,13, 1, 7,0.0, 7,13, 1, 7
1155,0.0,0.0, 7,13, 1, 7,0.0, 7,13, 1, 7
1156,0.0,0.0, 7,13, 1, 7,0.0, 7,13, 1, 7
1292,-21690428.992540654,-34265.960663279555, 7,13,17,45,-3110.4857714038176, 7,19,21,16
1306,292649475.4304244,0.0, 7,13, 1, 7,3776292.099593378, 7,13,16,45
1307,109195327.23291615,0.0, 7,13, 1, 7,4875517.523763902, 7,17,19,45
1308,292649475.4304244,0.0, 7,13, 1, 7,3776292.099593378, 7,13,16,45
13,1300781940.7921782,187019.17494254332, 7,13, 4,60,7008706.265426697, 7,19,21,15
61,301924526.02383536,88139.10953165221, 7,13, 1,15,1282023.4113694867, 7,13,20,15
134,70666020.44019976,63564.01800854099, 7,13, 4,15,156554.22484006523, 7,18,20,15
170,5241013.419656067,348.4159749238097, 7,13, 4,15,17476.39704006126, 7,18,12,15
207,6509451.13922267,815.2532113832032, 7,13, 3,15,22990.642799023623, 7,18,10,15
244,12749673.399825225,1521.856143006317, 7,13, 4,15,53038.631142310165, 7,18,20,15
281,46165882.481495745,59938.60262432081, 7,13, 5,15,81951.81706819107, 7,13,19,15
318,0.0,0.0, 7,13, 1,15,0.0, 7,13, 1,15
355,197687796.27748066,18561.32405820678, 7,13, 4,15,724774.895203776, 7,18,18,15
403,197687796.27748066,18561.32405820678, 7,13, 4,15,724774.895203776, 7,18,18,15
476,106772067.24485716,7098.072629279515, 7,13, 4,15,356036.3026282215, 7,18,12,15
513,0.0,0.0, 7,13, 1,15,0.0, 7,13, 1,15
562,57061700.58003007,2392.8659304971557, 7,13, 6,30,136223.97008616297, 7,17,18,30
1046,0.0,0.0, 7,13, 1,15,0.0, 7,13, 1,15
1096,578480218.3176892,20533.845939515893, 7,13, 6,30,1545749.64774514, 7,19,17,60
1134,0.0,0.0, 7,13, 1,15,0.0, 7,13, 1,15
1326,292649475.4304244,0.0, 7,13, 1,15,4050000.0, 7,13, 8,30
1379,0.0,0.0, 7,13, 1,15,0.0, 7,13, 1,15
1,ANNUAL,  43.12, -76.12,  -5.00, 124.00
5,365
1038,10.25,0.0, 1, 1, 1,15,0.25, 1, 3, 6,15
1039,182.5,0.0, 1, 1, 1,15,0.25, 4,15,12,60
581,0.27228201538306357,0.0, 5,31,24,52,1.1517274600419265,12,16,16,52
582,4.553330951415592,0.0, 1, 8, 3,15,39.46863670736951, 5, 9,19,52
583,0.030052174743788046,0.0, 6, 7,23, 3,0.09018094255889621, 9,11, 6, 3
1115,32959465316.20921,0.0, 1, 1,23, 5,5284448.292017911, 1,19, 6,60
1128,10778283214.238914,0.0, 1, 1,23, 5,1488841.4227939679, 1,19, 6,60
1153,330086410.58452874,0.0, 1, 1,23, 5,124417.87191114321,12,19, 6,45
1154,1688467136.015627,0.0, 1, 1, 6, 5,180000.0, 1, 9,17,15
1155,5406379338.828928,0.0, 1, 1, 1,15,6039022.077749762, 1,24, 4,60
1156,5406379338.828928,0.0, 1, 1, 1,15,6039022.077749762, 1,24, 4,60
1292,-1222791611.9150722,-39773.55805003288, 2,15, 1,60,-1463.288655896651, 4,20, 9,46
1306,17390368256.47668,0.0, 1, 1, 1,15,4050000.0, 1, 1,10,15
1307,7488831156.698674,0.0, 1, 1, 1,15,18273885.179596625, 2,17, 9,60
1308,17390368256.47668,0.0, 1, 1, 1,15,4050000.0, 1, 1,10,15
13,64346324582.966644,151703.1275401932, 3,14, 4,15,11064315.474755544, 1,24, 9,30
61,15743207428.383959,88139.10953165221, 1, 1, 1,15,1282023.4113694867, 1, 1,20,15
134,3685071073.4325233,63564.01800854099, 1, 2, 4,15,156554.22484006523, 1, 1,20,15
170,273393721.45532674,348.4159749238097, 1, 2, 4,15,17476.39704006126, 1, 1,12,15
207,339560869.0695816,815.2532113832032, 1, 2, 3,15,22990.642799023623, 1, 1,10,15
244,664895467.8009144,1521.856143006317, 1, 2, 4,15,53038.631142310165, 1, 1,20,15
281,2407221015.106824,59938.60262432081, 1, 1, 5,15,81951.81706819107, 1, 1,19,15
318,0.0,0.0, 1, 1, 1,15,0.0, 1, 1, 1,15
355,10310294493.051695,18561.32405820678, 1, 2, 4,15,724774.895203776, 1, 1,18,15
403,10310294493.051695,18561.32405820678, 1, 2, 4,15,724774.895203776, 1, 1,18,15
476,5569688622.066177,7098.072629279515, 1, 2, 4,15,356036.3026282215, 1, 1,12,15
513,0.0,0.0, 1, 1, 1,15,0.0, 1, 1, 1,15
562,1915376642.6115596,0.0, 1, 8,15,15,136223.970086163, 6, 6,18,60
1046,0.0,0.0, 1, 1, 1,15,0.0, 1, 1, 1,15
1096,7409085082.392234,0.0, 1, 1, 1,15,1598944.088198834, 6, 8,15,60
1134,18203216099.668,0.0, 1,12,13,60,7347098.249066053,12,16,16,60
1326,17390368256.476707,0.0, 1, 1, 1,15,4050000.0000000014, 3,30,10,15
1379,0.0,0.0, 1, 1, 1,15,0.0, 1, 1, 1,15
End of Data
 Number of Records Written=          99
