Program Version,EnergyPlus, Version 22.2.0-c249759bad, YMD=2023.09.01 18:06
1,5,Environment Title[],Latitude[deg],Longitude[deg],Time Zone[],Elevation[m]
2,8,Day of Simulation[],Month[],Day of Month[],DST Indicator[1=yes 0=no],Hour[],StartMinute[],EndMinute[],DayType
3,5,Cumulative Day of Simulation[],Month[],Day of Month[],DST Indicator[1=yes 0=no],DayType  ! When Daily Report Variables Requested
4,2,Cumulative Days of Simulation[],Month[]  ! When Monthly Report Variables Requested
5,1,Cumulative Days of Simulation[] ! When Run Period Report Variables Requested
6,1,Calendar Year of Simulation[] ! When Annual Report Variables Requested
581,11,LIVING,AFN Zone Infiltration Air Change Rate [ach] !RunPeriod [Value,Min,Month,Day,Hour,Minute,Max,Month,Day,Hour,Minute]
582,11,ATTIC,AFN Zone Infiltration Air Change Rate [ach] !RunPeriod [Value,Min,Month,Day,Hour,Minute,Max,Month,Day,Hour,Minute]
583,11,CRAWLSPACE,AFN Zone Infiltration Air Change Rate [ach] !RunPeriod [Value,Min,Month,Day,Hour,Minute,Max,Month,Day,Hour,Minute]
1038,11,Facility,Facility Heating Setpoint Not Met Time [hr] !RunPeriod [Value,Min,Month,Day,Hour,Minute,Max,Month,Day,Hour,Minute]
1039,11,Facility,Facility Cooling Setpoint Not Met Time [hr] !RunPeriod [Value,Min,Month,Day,Hour,Minute,Max,Month,Day,Hour,Minute]
1115,11,DX_HEATING_COIL,Heating Coil Heating Energy [J] !RunPeriod [Value,Min,Month,Day,Hour,Minute,Max,Month,Day,Hour,Minute]
1128,11,DX_HEATING_COIL,Heating Coil Electricity Energy [J] !RunPeriod [Value,Min,Month,Day,Hour,Minute,Max,Month,Day,Hour,Minute]
1153,11,DX_HEATING_COIL,Heating Coil Defrost Electricity Energy [J] !RunPeriod [Value,Min,Month,Day,Hour,Minute,Max,Month,Day,Hour,Minute]
1154,11,DX_HEATING_COIL,Heating Coil Crankcase Heater Electricity Energy [J] !RunPeriod [Value,Min,Month,Day,Hour,Minute,Max,Month,Day,Hour,Minute]
1155,11,HEATING_RESISTANCE_BACKUP,Heating Coil Heating Energy [J] !RunPeriod [Value,Min,Month,Day,Hour,Minute,Max,Month,Day,Hour,Minute]
1156,11,HEATING_RESISTANCE_BACKUP,Heating Coil Electricity Energy [J] !RunPeriod [Value,Min,Month,Day,Hour,Minute,Max,Month,Day,Hour,Minute]
1292,11,WATER HEATER,Water Heater Heat Loss Energy [J] !RunPeriod [Value,Min,Month,Day,Hour,Minute,Max,Month,Day,Hour,Minute]
1306,11,WATER HEATER,Water Heater Heating Energy [J] !RunPeriod [Value,Min,Month,Day,Hour,Minute,Max,Month,Day,Hour,Minute]
1307,11,WATER HEATER,Water Heater Unmet Demand Heat Transfer Energy [J] !RunPeriod [Value,Min,Month,Day,Hour,Minute,Max,Month,Day,Hour,Minute]
1308,11,WATER HEATER,Water Heater Electricity Energy [J] !RunPeriod [Value,Min,Month,Day,Hour,Minute,Max,Month,Day,Hour,Minute]
13,11,Electricity:Facility [J] !RunPeriod [Value,Min,Month,Day,Hour,Minute,Max,Month,Day,Hour,Minute]
1134,11,Heating:Electricity [J] !RunPeriod [Value,Min,Month,Day,Hour,Minute,Max,Month,Day,Hour,Minute]
1096,11,Cooling:Electricity [J] !RunPeriod [Value,Min,Month,Day,Hour,Minute,Max,Month,Day,Hour,Minute]
562,11,Fans:Electricity [J] !RunPeriod [Value,Min,Month,Day,Hour,Minute,Max,Month,Day,Hour,Minute]
1379,11,Pumps:Electricity [J] !RunPeriod [Value,Min,Month,Day,Hour,Minute,Max,Month,Day,Hour,Minute]
1326,11,WaterSystems:Electricity [J] !RunPeriod [Value,Min,Month,Day,Hour,Minute,Max,Month,Day,Hour,Minute]
61,11,InteriorLights:Electricity [J] !RunPeriod [Value,Min,Month,Day,Hour,Minute,Max,Month,Day,Hour,Minute]
1046,11,ExteriorLights:Electricity [J] !RunPeriod [Value,Min,Month,Day,Hour,Minute,Max,Month,Day,Hour,Minute]
134,11,InteriorEquipment:Electricity [J] !RunPeriod [Value,Min,Month,Day,Hour,Minute,Max,Month,Day,Hour,Minute]
170,11,gas_dryer:InteriorEquipment:Electricity [J] !RunPeriod [Value,Min,Month,Day,Hour,Minute,Max,Month,Day,Hour,Minute]
207,11,clotheswasher:InteriorEquipment:Electricity [J] !RunPeriod [Value,Min,Month,Day,Hour,Minute,Max,Month,Day,Hour,Minute]
244,11,dishwasher:InteriorEquipment:Electricity [J] !RunPeriod [Value,Min,Month,Day,Hour,Minute,Max,Month,Day,Hour,Minute]
281,11,refrigerator:InteriorEquipment:Electricity [J] !RunPeriod [Value,Min,Month,Day,Hour,Minute,Max,Month,Day,Hour,Minute]
318,11,electric_mels:InteriorEquipment:Electricity [J] !RunPeriod [Value,Min,Month,Day,Hour,Minute,Max,Month,Day,Hour,Minute]
355,11,NaturalGas:Facility [J] !RunPeriod [Value,Min,Month,Day,Hour,Minute,Max,Month,Day,Hour,Minute]
403,11,InteriorEquipment:NaturalGas [J] !RunPeriod [Value,Min,Month,Day,Hour,Minute,Max,Month,Day,Hour,Minute]
476,11,gas_dryer:InteriorEquipment:NaturalGas [J] !RunPeriod [Value,Min,Month,Day,Hour,Minute,Max,Month,Day,Hour,Minute]
513,11,gas_mels:InteriorEquipment:NaturalGas [J] !RunPeriod [Value,Min,Month,Day,Hour,Minute,Max,Month,Day,Hour,Minute]
End of Data Dictionary
1,EXTREME_WINTER,  44.36, -84.67,  -5.00, 351.00
5,7
1038,5.0,0.0,12,15, 1,15,0.25,12,15, 6,15
1039,0.0,0.0,12,15, 1,15,0.0,12,15, 1,15
581,0.46904489657412135,0.2811743644019401,12,21,23, 5,0.7995161176981074,12,21,13,22
582,5.966566024150806,0.17272891316388442,12,18, 9,60,17.931980777478408,12,16,11,60
583,0.06885842303261118,0.0018115524215032842,12,16,23, 5,0.07683348408040065,12,16,11,60
1115,1981960986.9292095,0.0,12,16,23, 5,3856552.584922552,12,21,13,60
1128,736502080.3113209,0.0,12,16,23, 5,1182105.758750885,12,21,16,15
1153,13302670.628690196,0.0,12,16,23, 5,47567.36894584524,12,21,24,45
1154,896937.1924973808,0.0,12,15, 1,15,60000.0,12,16,23, 5
1155,1937514509.3770008,0.0,12,15,23, 5,6039472.411016794,12,16, 6,45
1156,1937514509.3770008,0.0,12,15,23, 5,6039472.411016794,12,16, 6,45
1292,-25400449.399257667,-39783.024067695325,12,15, 1,15,-9239.373498789117,12,20,12,60
1306,236586044.47805762,0.0,12,15, 1,15,4050000.0,12,15, 7,60
1307,43402207.435203545,0.0,12,15, 1,15,12530702.926738476,12,21,19,60
1308,236586044.47805762,0.0,12,15, 1,15,4050000.0,12,15, 7,60
13,3381418777.629174,1341044.7633908943,12,21,23,15,11635575.98449987,12,20, 9,45
61,301924526.02383536,88139.10953165221,12,15, 1,15,1282023.4113694867,12,15,20,15
134,70666020.44019976,63564.01800854099,12,15, 4,15,156554.22484006523,12,20,20,15
170,5241013.419656067,348.4159749238097,12,15, 4,15,17476.39704006126,12,20,12,15
207,6509451.13922267,815.2532113832032,12,15, 3,15,22990.642799023623,12,20,10,15
244,12749673.399825225,1521.856143006317,12,15, 4,15,53038.631142310165,12,20,20,15
281,46165882.481495745,59938.60262432081,12,15, 5,15,81951.81706819107,12,15,19,15
318,0.0,0.0,12,15, 1,15,0.0,12,15, 1,15
355,197687796.27748066,18561.32405820678,12,15, 4,15,724774.895203776,12,20,18,15
403,197687796.27748066,18561.32405820678,12,15, 4,15,724774.895203776,12,20,18,15
476,106772067.24485716,7098.072629279515,12,15, 4,15,356036.3026282215,12,20,12,15
513,0.0,0.0,12,15, 1,15,0.0,12,15, 1,15
562,84025989.17757066,56695.56607025259,12,21,23,15,126007.08563388832,12,15, 1,15
1046,0.0,0.0,12,15, 1,15,0.0,12,15, 1,15
1096,0.0,0.0,12,15, 1,15,0.0,12,15, 1,15
1134,2688216197.5095105,632826.9035279421,12,21,23,15,7126667.648080349,12,16, 6,45
1326,236586044.47805765,0.0,12,15, 1,15,4050000.0,12,15, 7,60
1379,0.0,0.0,12,15, 1,15,0.0,12,15, 1,15
1,EXTREME_SUMMER,  44.36, -84.67,  -5.00, 351.00
5,7
1038,0.0,0.0, 7,27, 1,15,0.0, 7,27, 1,15
1039,18.25,0.0, 7,27, 1,15,0.25, 7,29,17,30
581,0.15650276568164362,0.00012848217804535105, 8, 1, 6,15,0.4165335280487477, 7,27,11,60
582,4.041678984341608,0.0, 7,28,22,60,15.968246223933264, 7,27,11,60
583,0.031186279801940758,0.00012171455014510747, 7,29, 6,52,0.06292048604742702, 7,29,20,46
1115,0.0,0.0, 7,27, 1,15,0.0, 7,27, 1,15
1128,0.0,0.0, 7,27, 1,15,0.0, 7,27, 1,15
1153,0.0,0.0, 7,27, 1,15,0.0, 7,27, 1,15
1154,0.0,0.0, 7,27, 1,15,0.0, 7,27, 1,15
1155,0.0,0.0, 7,27, 1,15,0.0, 7,27, 1,15
1156,0.0,0.0, 7,27, 1,15,0.0, 7,27, 1,15
1292,-22047592.000934612,-34604.037196983976, 7,30, 7,30,-3209.0749114882847, 8, 1, 8,49
1306,197470078.54301804,0.0, 7,27, 1,15,3647657.5238827155, 7,30, 7,15
1307,26531737.506082248,0.0, 7,27, 1,15,5056010.018311159, 8, 2,19,60
1308,197470078.54301804,0.0, 7,27, 1,15,3647657.5238827155, 7,30, 7,15
13,980724234.9737659,151703.1275401932, 7,27, 4,15,6771603.372343084, 8, 2,20,15
61,301924526.02383536,88139.10953165221, 7,27, 1,15,1282023.4113694867, 7,27,20,15
134,70666020.44019976,63564.01800854099, 7,27, 4,15,156554.22484006523, 8, 1,20,15
170,5241013.419656067,348.4159749238097, 7,27, 4,15,17476.39704006126, 8, 1,12,15
207,6509451.13922267,815.2532113832032, 7,27, 3,15,22990.642799023623, 8, 1,10,15
244,12749673.399825225,1521.856143006317, 7,27, 4,15,53038.631142310165, 8, 1,20,15
281,46165882.481495745,59938.60262432081, 7,27, 5,15,81951.81706819107, 7,27,19,15
318,0.0,0.0, 7,27, 1,15,0.0, 7,27, 1,15
355,197687796.27748066,18561.32405820678, 7,27, 4,15,724774.895203776, 8, 1,18,15
403,197687796.27748066,18561.32405820678, 7,27, 4,15,724774.895203776, 8, 1,18,15
476,106772067.24485716,7098.072629279515, 7,27, 4,15,356036.3026282215, 8, 1,12,15
513,0.0,0.0, 7,27, 1,15,0.0, 7,27, 1,15
562,42055567.46167083,0.0, 7,27, 3,60,126007.08563388835, 7,29,20,30
1046,0.0,0.0, 7,27, 1,15,0.0, 7,27, 1,15
1096,368608042.5050432,0.0, 7,27, 3,60,1286289.470037867, 8, 1,16,60
1134,0.0,0.0, 7,27, 1,15,0.0, 7,27, 1,15
1326,197470078.543018,0.0, 7,27, 1,15,4050000.0, 7,28,20,30
1379,0.0,0.0, 7,27, 1,15,0.0, 7,27, 1,15
1,ANNUAL,  44.36, -84.67,  -5.00, 351.00
5,365
1038,61.0,0.0, 1, 1, 1,15,0.25, 1, 4, 6,15
1039,164.5,0.0, 1, 1, 1,15,0.25, 3,20,18,15
581,0.2843567293388332,0.0, 6,23,23, 3,0.9945932049218404, 2,19,13,52
582,4.241857991132129,0.0, 1, 5,21,60,23.970190237801326,11,23, 7,60
583,0.03135810316386774,0.0, 6,26,23, 3,0.0808446436110553, 2,19,13,52
1115,38341997234.97585,0.0, 1, 1,23, 5,4159801.012875051, 1,11,10,15
1128,12619511110.749643,0.0, 1, 1,23, 5,1248362.4958868716, 1,11,10,15
1153,497745027.346685,0.0, 1, 1, 1,48,135983.2203975886, 2,10, 8,15
1154,1500552450.6579576,0.0, 1, 1, 6, 5,180000.0, 1, 2,16,15
1155,13841837225.345356,0.0, 1, 1, 1, 7,6039472.411016794, 2, 4, 2,60
1156,13841837225.345356,0.0, 1, 1, 1, 7,6039472.411016794, 2, 4, 2,60
1292,-1246903278.334084,-41426.50456385259, 2, 5, 5,60,-2298.7337193090257, 6, 4, 9,46
1306,11679244518.360826,0.0, 1, 1, 1, 7,4050000.0, 1, 1, 9,60
1307,1963121896.279982,0.0, 1, 1, 1, 7,13466242.942399757, 2,19,19,60
1308,11679244518.360826,0.0, 1, 1, 1, 7,4050000.0, 1, 1, 9,60
13,66901590273.95983,151703.1275401932, 4,18, 4,15,11962300.554230914, 3,13, 7,60
61,15743207428.383959,88139.10953165221, 1, 1, 1,15,1282023.4113694867, 1, 1,20,15
134,3685071073.4325233,63564.01800854099, 1, 2, 4,15,156554.22484006523, 1, 1,20,15
170,273393721.45532674,348.4159749238097, 1, 2, 4,15,17476.39704006126, 1, 1,12,15
207,339560869.0695816,815.2532113832032, 1, 2, 3,15,22990.642799023623, 1, 1,10,15
244,664895467.8009144,1521.856143006317, 1, 2, 4,15,53038.631142310165, 1, 1,20,15
281,2407221015.106824,59938.60262432081, 1, 1, 5,15,81951.81706819107, 1, 1,19,15
318,0.0,0.0, 1, 1, 1,15,0.0, 1, 1, 1,15
355,10310294493.051695,18561.32405820678, 1, 2, 4,15,724774.895203776, 1, 1,18,15
403,10310294493.051695,18561.32405820678, 1, 2, 4,15,724774.895203776, 1, 1,18,15
476,5569688622.066177,7098.072629279515, 1, 2, 4,15,356036.3026282215, 1, 1,12,15
513,0.0,0.0, 1, 1, 1,15,0.0, 1, 1, 1,15
562,2043504036.4907322,0.0, 1, 1,23,15,126007.08563388835, 3, 2,11,30
1046,0.0,0.0, 1, 1, 1,15,0.0, 1, 1, 1,15
1096,5290917403.191443,0.0, 1, 1, 1,15,1289089.413843457, 8, 1,16,60
1134,28459645814.099743,0.0, 2,10,14,30,7151709.173207025,12,15, 6,30
1326,11679244518.360828,0.0, 1, 1, 1,15,4050000.0000000014, 6, 4, 9,60
1379,0.0,0.0, 1, 1, 1,15,0.0, 1, 1, 1,15
End of Data
 Number of Records Written=          99
