Program Version,EnergyPlus, Version 22.2.0-c249759bad, YMD=2023.09.01 20:19
1,5,Environment Title[],Latitude[deg],Longitude[deg],Time Zone[],Elevation[m]
2,8,Day of Simulation[],Month[],Day of Month[],DST Indicator[1=yes 0=no],Hour[],StartMinute[],EndMinute[],DayType
3,5,Cumulative Day of Simulation[],Month[],Day of Month[],DST Indicator[1=yes 0=no],DayType  ! When Daily Report Variables Requested
4,2,Cumulative Days of Simulation[],Month[]  ! When Monthly Report Variables Requested
5,1,Cumulative Days of Simulation[] ! When Run Period Report Variables Requested
6,1,Calendar Year of Simulation[] ! When Annual Report Variables Requested
581,11,LIVING,AFN Zone Infiltration Air Change Rate [ach] !RunPeriod [Value,Min,Month,Day,Hour,Minute,Max,Month,Day,Hour,Minute]
582,11,ATTIC,AFN Zone Infiltration Air Change Rate [ach] !RunPeriod [Value,Min,Month,Day,Hour,Minute,Max,Month,Day,Hour,Minute]
583,11,CRAWLSPACE,AFN Zone Infiltration Air Change Rate [ach] !RunPeriod [Value,Min,Month,Day,Hour,Minute,Max,Month,Day,Hour,Minute]
1038,11,Facility,Facility Heating Setpoint Not Met Time [hr] !RunPeriod [Value,Min,Month,Day,Hour,Minute,Max,Month,Day,Hour,Minute]
1039,11,Facility,Facility Cooling Setpoint Not Met Time [hr] !RunPeriod [Value,Min,Month,Day,Hour,Minute,Max,Month,Day,Hour,Minute]
1115,11,DX_HEATING_COIL,Heating Coil Heating Energy [J] !RunPeriod [Value,Min,Month,Day,Hour,Minute,Max,Month,Day,Hour,Minute]
1128,11,DX_HEATING_COIL,Heating Coil Electricity Energy [J] !RunPeriod [Value,Min,Month,Day,Hour,Minute,Max,Month,Day,Hour,Minute]
1153,11,DX_HEATING_COIL,Heating Coil Defrost Electricity Energy [J] !RunPeriod [Value,Min,Month,Day,Hour,Minute,Max,Month,Day,Hour,Minute]
1154,11,DX_HEATING_COIL,Heating Coil Crankcase Heater Electricity Energy [J] !RunPeriod [Value,Min,Month,Day,Hour,Minute,Max,Month,Day,Hour,Minute]
1155,11,HEATING_RESISTANCE_BACKUP,Heating Coil Heating Energy [J] !RunPeriod [Value,Min,Month,Day,Hour,Minute,Max,Month,Day,Hour,Minute]
1156,11,HEATING_RESISTANCE_BACKUP,Heating Coil Electricity Energy [J] !RunPeriod [Value,Min,Month,Day,Hour,Minute,Max,Month,Day,Hour,Minute]
1292,11,WATER HEATER,Water Heater Heat Loss Energy [J] !RunPeriod [Value,Min,Month,Day,Hour,Minute,Max,Month,Day,Hour,Minute]
1306,11,WATER HEATER,Water Heater Heating Energy [J] !RunPeriod [Value,Min,Month,Day,Hour,Minute,Max,Month,Day,Hour,Minute]
1307,11,WATER HEATER,Water Heater Unmet Demand Heat Transfer Energy [J] !RunPeriod [Value,Min,Month,Day,Hour,Minute,Max,Month,Day,Hour,Minute]
1308,11,WATER HEATER,Water Heater Electricity Energy [J] !RunPeriod [Value,Min,Month,Day,Hour,Minute,Max,Month,Day,Hour,Minute]
13,11,Electricity:Facility [J] !RunPeriod [Value,Min,Month,Day,Hour,Minute,Max,Month,Day,Hour,Minute]
1134,11,Heating:Electricity [J] !RunPeriod [Value,Min,Month,Day,Hour,Minute,Max,Month,Day,Hour,Minute]
1096,11,Cooling:Electricity [J] !RunPeriod [Value,Min,Month,Day,Hour,Minute,Max,Month,Day,Hour,Minute]
562,11,Fans:Electricity [J] !RunPeriod [Value,Min,Month,Day,Hour,Minute,Max,Month,Day,Hour,Minute]
1379,11,Pumps:Electricity [J] !RunPeriod [Value,Min,Month,Day,Hour,Minute,Max,Month,Day,Hour,Minute]
1326,11,WaterSystems:Electricity [J] !RunPeriod [Value,Min,Month,Day,Hour,Minute,Max,Month,Day,Hour,Minute]
61,11,InteriorLights:Electricity [J] !RunPeriod [Value,Min,Month,Day,Hour,Minute,Max,Month,Day,Hour,Minute]
1046,11,ExteriorLights:Electricity [J] !RunPeriod [Value,Min,Month,Day,Hour,Minute,Max,Month,Day,Hour,Minute]
134,11,InteriorEquipment:Electricity [J] !RunPeriod [Value,Min,Month,Day,Hour,Minute,Max,Month,Day,Hour,Minute]
170,11,gas_dryer:InteriorEquipment:Electricity [J] !RunPeriod [Value,Min,Month,Day,Hour,Minute,Max,Month,Day,Hour,Minute]
207,11,clotheswasher:InteriorEquipment:Electricity [J] !RunPeriod [Value,Min,Month,Day,Hour,Minute,Max,Month,Day,Hour,Minute]
244,11,dishwasher:InteriorEquipment:Electricity [J] !RunPeriod [Value,Min,Month,Day,Hour,Minute,Max,Month,Day,Hour,Minute]
281,11,refrigerator:InteriorEquipment:Electricity [J] !RunPeriod [Value,Min,Month,Day,Hour,Minute,Max,Month,Day,Hour,Minute]
318,11,electric_mels:InteriorEquipment:Electricity [J] !RunPeriod [Value,Min,Month,Day,Hour,Minute,Max,Month,Day,Hour,Minute]
355,11,NaturalGas:Facility [J] !RunPeriod [Value,Min,Month,Day,Hour,Minute,Max,Month,Day,Hour,Minute]
403,11,InteriorEquipment:NaturalGas [J] !RunPeriod [Value,Min,Month,Day,Hour,Minute,Max,Month,Day,Hour,Minute]
476,11,gas_dryer:InteriorEquipment:NaturalGas [J] !RunPeriod [Value,Min,Month,Day,Hour,Minute,Max,Month,Day,Hour,Minute]
513,11,gas_mels:InteriorEquipment:NaturalGas [J] !RunPeriod [Value,Min,Month,Day,Hour,Minute,Max,Month,Day,Hour,Minute]
End of Data Dictionary
1,EXTREME_WINTER,  42.93, -71.43,  -5.00,  81.00
5,7
1038,1.0,0.0, 1,20, 1,15,0.25, 1,21, 6,15
1039,0.0,0.0, 1,20, 1,15,0.0, 1,20, 1,15
581,0.3657069798392091,0.23078678294286076, 1,23,17,37,0.715877387093059, 1,20,15,60
582,3.7080709067173747,0.0, 1,26, 8,45,14.67451411255989, 1,20,15,60
583,0.051858838210737605,0.0004684981265985662, 1,21,23, 5,0.07400896921807185, 1,20,13,52
1115,1740627704.5344934,0.0, 1,20,23, 5,3955210.5307934163, 1,23, 5,60
1128,600072028.9291794,0.0, 1,20,23, 5,1208674.64767672, 1,23, 6,30
1153,3637972.8130566888,0.0, 1,20,23, 5,52844.15452252384, 1,23, 2,60
1154,26444976.854277752,0.0, 1,20, 1, 7,180000.0, 1,23,15,15
1155,627924177.0894253,0.0, 1,20,11,37,4516704.93675687, 1,25, 6,45
1156,627924177.0894253,0.0, 1,20,11,37,4516704.93675687, 1,25, 6,45
1292,-25403315.428776618,-39738.75415364804, 1,25, 5,15,-4661.327947812028, 1,26,11,45
1306,131599625.07789156,0.0, 1,20, 1, 7,4050000.0, 1,20, 7,15
1307,27198857.909201488,0.0, 1,20, 1, 7,7861389.729483495, 1,20, 6,60
1308,131599625.07789156,0.0, 1,20, 1, 7,4050000.0, 1,20, 7,15
13,1827037831.4402583,452017.0388981225, 1,23,15,15,9761995.070018334, 1,21, 7,30
61,301924526.02383536,88139.10953165221, 1,20, 1,15,1282023.4113694867, 1,20,20,15
134,70666020.44019976,63564.01800854099, 1,20, 4,15,156554.22484006523, 1,25,20,15
170,5241013.419656067,348.4159749238097, 1,20, 4,15,17476.39704006126, 1,25,12,15
207,6509451.13922267,815.2532113832032, 1,20, 3,15,22990.642799023623, 1,25,10,15
244,12749673.399825225,1521.856143006317, 1,20, 4,15,53038.631142310165, 1,25,20,15
281,46165882.481495745,59938.60262432081, 1,20, 5,15,81951.81706819107, 1,20,19,15
318,0.0,0.0, 1,20, 1,15,0.0, 1,20, 1,15
355,197687796.27748066,18561.32405820678, 1,20, 4,15,724774.895203776, 1,25,18,15
403,197687796.27748066,18561.32405820678, 1,20, 4,15,724774.895203776, 1,25,18,15
476,106772067.24485716,7098.072629279515, 1,20, 4,15,356036.3026282215, 1,25,12,15
513,0.0,0.0, 1,20, 1,15,0.0, 1,20, 1,15
562,64768504.21239408,0.0, 1,23,14,45,123409.58789814997, 1,20, 1,45
1046,0.0,0.0, 1,20, 1,15,0.0, 1,20, 1,15
1096,0.0,0.0, 1,20, 1,15,0.0, 1,20, 1,15
1134,1258079155.6859381,180000.0, 1,23,14,45,5941826.658490816, 1,21, 6,15
1326,131599625.07789151,0.0, 1,20, 1,15,4050000.0, 1,20, 7,15
1379,0.0,0.0, 1,20, 1,15,0.0, 1,20, 1,15
1,EXTREME_SUMMER,  42.93, -71.43,  -5.00,  81.00
5,7
1038,0.0,0.0, 7,27, 1,15,0.0, 7,27, 1,15
1039,25.0,0.0, 7,27, 1,15,0.25, 7,28,14,30
581,0.11172348998247925,0.0, 7,28, 4,30,0.45854512460395047, 7,30,13,52
582,2.3512112121685322,0.0, 7,27, 6, 5,9.31670541503537, 7,31,15,48
583,0.031611986132933895,0.00004176655067747115, 7,28, 4,30,0.0654337781162428, 7,30,13,52
1115,0.0,0.0, 7,27, 1,15,0.0, 7,27, 1,15
1128,0.0,0.0, 7,27, 1,15,0.0, 7,27, 1,15
1153,0.0,0.0, 7,27, 1,15,0.0, 7,27, 1,15
1154,0.0,0.0, 7,27, 1,15,0.0, 7,27, 1,15
1155,0.0,0.0, 7,27, 1,15,0.0, 7,27, 1,15
1156,0.0,0.0, 7,27, 1,15,0.0, 7,27, 1,15
1292,-21987111.948459703,-34534.91519362654, 7,27, 6,45,-3385.7094762578663, 8, 1, 8,45
1306,101671952.60525952,0.0, 7,27, 1,15,2025000.0, 7,27, 6,60
1307,13403739.95371931,0.0, 7,27, 1,15,2816809.0494612698, 7,27, 6,60
1308,101671952.60525952,0.0, 7,27, 1,15,2025000.0, 7,27, 6,60
13,912186139.8119586,151703.1275401932, 7,27, 4,15,5175545.609694967, 7,29, 9,15
61,301924526.02383536,88139.10953165221, 7,27, 1,15,1282023.4113694867, 7,27,20,15
134,70666020.44019976,63564.01800854099, 7,27, 4,15,156554.22484006523, 8, 1,20,15
170,5241013.419656067,348.4159749238097, 7,27, 4,15,17476.39704006126, 8, 1,12,15
207,6509451.13922267,815.2532113832032, 7,27, 3,15,22990.642799023623, 8, 1,10,15
244,12749673.399825225,1521.856143006317, 7,27, 4,15,53038.631142310165, 8, 1,20,15
281,46165882.481495745,59938.60262432081, 7,27, 5,15,81951.81706819107, 7,27,19,15
318,0.0,0.0, 7,27, 1,15,0.0, 7,27, 1,15
355,197687796.27748066,18561.32405820678, 7,27, 4,15,724774.895203776, 8, 1,18,15
403,197687796.27748066,18561.32405820678, 7,27, 4,15,724774.895203776, 8, 1,18,15
476,106772067.24485716,7098.072629279515, 7,27, 4,15,356036.3026282215, 8, 1,12,15
513,0.0,0.0, 7,27, 1,15,0.0, 7,27, 1,15
562,43541365.271688566,0.0, 7,27, 3,60,123409.58789814997, 7,28,16,60
1046,0.0,0.0, 7,27, 1,15,0.0, 7,27, 1,15
1096,394382275.4709749,0.0, 7,27, 3,60,1308758.3903621263, 7,29,17,60
1134,0.0,0.0, 7,27, 1,15,0.0, 7,27, 1,15
1326,101671952.60525957,0.0, 7,27, 1,15,4050000.0, 7,27, 7,15
1379,0.0,0.0, 7,27, 1,15,0.0, 7,27, 1,15
1,ANNUAL,  42.93, -71.43,  -5.00,  81.00
5,365
1038,58.0,0.0, 1, 1, 1,15,0.25, 1, 3, 2,30
1039,212.5,0.0, 1, 1, 1,15,0.25, 3,15,14,45
581,0.23360854469788953,0.0, 6,18,23, 3,0.9015060721369176, 3,23,19,60
582,2.9926027441629475,0.0, 1, 1, 4,60,17.9671531650057,11,12,15,50
583,0.025669829163918214,0.0, 6,26,23, 5,0.07795421333745849, 3,23,19,52
1115,29715768895.525223,0.0, 1, 1,23, 3,4269215.045595232, 4, 8, 6,45
1128,9411030110.677044,0.0, 1, 1,23, 3,1239006.0981927314,11,13, 6,45
1153,266203777.73912254,0.0, 1, 1,23, 3,121356.29578445917, 3, 8, 6,45
1154,1553542103.619095,0.0, 1, 1, 1,45,180000.0, 1, 8,21,30
1155,6653193198.536457,0.0, 1, 1, 1,15,4841555.132814741, 1, 3, 1,15
1156,6653193198.536457,0.0, 1, 1, 1,15,4841555.132814741, 1, 3, 1,15
1292,-1240341289.3364012,-41292.267971981884, 1, 3, 7,45,-2697.6223595802526, 5,26, 9,60
1306,6162148059.438784,0.0, 1, 1, 1,15,4050000.0, 1, 2, 7,15
1307,1071875362.4025674,0.0, 1, 1, 1,15,7988596.82941974, 2,13, 6,60
1308,6162148059.438784,0.0, 1, 1, 1,15,4050000.0, 1, 2, 7,15
13,51112012633.42162,151703.1275401932, 4,25, 4,15,10782966.66859236, 2, 6, 7,30
61,15743207428.383959,88139.10953165221, 1, 1, 1,15,1282023.4113694867, 1, 1,20,15
134,3685071073.4325233,63564.01800854099, 1, 2, 4,15,156554.22484006523, 1, 1,20,15
170,273393721.45532674,348.4159749238097, 1, 2, 4,15,17476.39704006126, 1, 1,12,15
207,339560869.0695816,815.2532113832032, 1, 2, 3,15,22990.642799023623, 1, 1,10,15
244,664895467.8009144,1521.856143006317, 1, 2, 4,15,53038.631142310165, 1, 1,20,15
281,2407221015.106824,59938.60262432081, 1, 1, 5,15,81951.81706819107, 1, 1,19,15
318,0.0,0.0, 1, 1, 1,15,0.0, 1, 1, 1,15
355,10310294493.051695,18561.32405820678, 1, 2, 4,15,724774.895203776, 1, 1,18,15
403,10310294493.051695,18561.32405820678, 1, 2, 4,15,724774.895203776, 1, 1,18,15
476,5569688622.066177,7098.072629279515, 1, 2, 4,15,356036.3026282215, 1, 1,12,15
513,0.0,0.0, 1, 1, 1,15,0.0, 1, 1, 1,15
562,1705333682.118145,0.0, 1, 8,13,30,123409.58789814998, 6, 7,15,60
1046,0.0,0.0, 1, 1, 1,15,0.0, 1, 1, 1,15
1096,5932283199.475038,0.0, 1, 1, 1,15,1327760.629812688, 8,31,16,60
1134,17883969190.571606,0.0, 1, 8,13,30,5945326.91053106, 3, 4, 6,60
1326,6162148059.438793,0.0, 1, 1, 1,15,4050000.0, 1, 2, 7,15
1379,0.0,0.0, 1, 1, 1,15,0.0, 1, 1, 1,15
End of Data
 Number of Records Written=          99
