Program Version,EnergyPlus, Version 22.2.0-c249759bad, YMD=2023.09.01 14:30
1,5,Environment Title[],Latitude[deg],Longitude[deg],Time Zone[],Elevation[m]
2,8,Day of Simulation[],Month[],Day of Month[],DST Indicator[1=yes 0=no],Hour[],StartMinute[],EndMinute[],DayType
3,5,Cumulative Day of Simulation[],Month[],Day of Month[],DST Indicator[1=yes 0=no],DayType  ! When Daily Report Variables Requested
4,2,Cumulative Days of Simulation[],Month[]  ! When Monthly Report Variables Requested
5,1,Cumulative Days of Simulation[] ! When Run Period Report Variables Requested
6,1,Calendar Year of Simulation[] ! When Annual Report Variables Requested
7,1,Environment,Site Outdoor Air Drybulb Temperature [C] !Hourly
619,1,DX_HEATING_COIL,Heating Coil Heating Rate [W] !Hourly
633,1,DX_HEATING_COIL,Heating Coil Electricity Rate [W] !Hourly
659,1,DX_HEATING_COIL,Heating Coil Defrost Electricity Rate [W] !Hourly
661,1,DX_HEATING_COIL,Heating Coil Crankcase Heater Electricity Rate [W] !Hourly
690,1,FAN,Fan Electricity Rate [W] !Hourly
716,1,HEAT PUMP WATER HEATER FAN,Fan Electricity Rate [W] !Hourly
718,1,LIVING,Zone Mean Air Temperature [C] !Hourly
719,1,ATTIC,Zone Mean Air Temperature [C] !Hourly
720,1,CRAWLSPACE,Zone Mean Air Temperature [C] !Hourly
843,1,LIVING,Zone Predicted Sensible Load to Heating Setpoint Heat Transfer Rate [W] !Hourly
844,1,LIVING,Zone System Predicted Sensible Load to Heating Setpoint Heat Transfer Rate [W] !Hourly
907,1,ATTIC,Zone Predicted Sensible Load to Heating Setpoint Heat Transfer Rate [W] !Hourly
908,1,ATTIC,Zone System Predicted Sensible Load to Heating Setpoint Heat Transfer Rate [W] !Hourly
971,1,CRAWLSPACE,Zone Predicted Sensible Load to Heating Setpoint Heat Transfer Rate [W] !Hourly
972,1,CRAWLSPACE,Zone System Predicted Sensible Load to Heating Setpoint Heat Transfer Rate [W] !Hourly
1195,1,HEATING_RESISTANCE_BACKUP,Heating Coil Heating Rate [W] !Hourly
1197,1,HEATING_RESISTANCE_BACKUP,Heating Coil Electricity Rate [W] !Hourly
End of Data Dictionary
1,EXTREME_WINTER,  35.62,-106.09,  -7.00,1935.00
2,1,12,22, 0, 1, 0.00,60.00,Monday
7,-2.2
718,18.614979122055143
719,0.8005698918147497
720,18.396709085083884
619,1779.0622555976865
633,602.2918999617879
659,31.0670030955347
661,129.22311874790086
690,66.35327235863522
716,0.0
843,1346.56100373779
844,1346.56100373779
907,0.0
908,0.0
971,0.0
972,0.0
1195,0.0
1197,0.0
2,1,12,22, 0, 2, 0.00,60.00,Monday
7,0.6
718,18.740521446058075
719,0.4439013853003316
720,18.001523031003924
619,1931.5068005007172
633,616.7240901238741
659,17.96413357849417
661,131.18773220052472
690,64.90733242866611
716,0.0
843,1458.5318904662872
844,1458.5318904662872
907,0.0
908,0.0
971,0.0
972,0.0
1195,0.0
1197,0.0
2,1,12,22, 0, 3, 0.00,60.00,Monday
7,0.0
718,18.605137739802558
719,-0.03822251307556555
720,17.799040199584752
619,2099.157889631833
633,676.8974224246127
659,18.923570980075684
661,124.36242856148363
690,71.32921296762228
716,0.0
843,1553.6575854468883
844,1553.6575854468883
907,0.0
908,0.0
971,0.0
972,0.0
1195,0.0
1197,0.0
2,1,12,22, 0, 4, 0.00,60.00,Monday
7,-1.1
718,18.512637251009536
719,-0.1867459891034609
720,17.562273960972334
619,2485.030362734893
633,808.7627523872486
659,30.57007992802252
661,107.32666809702937
690,87.19458619107516
716,0.0
843,1842.2810209537438
844,1842.2810209537438
907,0.0
908,0.0
971,0.0
972,0.0
1195,0.0
1197,0.0
2,1,12,22, 0, 5, 0.00,60.00,Monday
7,0.0
718,18.639138544637362
719,-0.24123229194633608
720,17.38016808159239
619,2583.44333125152
633,819.7212737322973
659,17.198204277387774
661,108.83258940136817
690,86.06033027836449
716,0.0
843,1925.2106252023568
844,1925.2106252023568
907,0.0
908,0.0
971,0.0
972,0.0
1195,0.0
1197,0.0
2,1,12,22, 0, 6, 0.00,60.00,Monday
7,-1.7
718,19.366085083150153
719,-0.09249768605139269
720,17.171817643351538
619,3945.614001433876
633,1260.3998175559257
659,52.66584719747791
661,54.11169808058405
690,137.09440494175948
716,0.0
843,2888.2167821631247
844,2888.2167821631247
907,0.0
908,0.0
971,0.0
972,0.0
1195,0.0
1197,0.0
2,1,12,22, 0, 7, 0.00,60.00,Monday
7,0.0
718,19.57514619067873
719,0.42008315807239455
720,17.04281414352983
619,4969.217411552933
633,1537.0516716904724
659,31.749322597981507
661,31.780288172058626
690,158.79413627900604
716,85.44000000000004
843,2666.075030928232
844,2666.075030928232
907,0.0
908,0.0
971,0.0
972,0.0
1195,0.0
1197,0.0
2,1,12,22, 0, 8, 0.00,60.00,Monday
7,0.6
718,19.68090204760038
719,0.8753751787172767
720,16.896888808921176
619,4393.373067360839
633,1367.0086008091473
659,29.294837251249298
661,51.5856509534282
690,140.12088491591592
716,77.06002131967247
843,2300.003717443624
844,2300.003717443624
907,0.0
908,0.0
971,0.0
972,0.0
1195,0.0
1197,0.0
2,1,12,22, 0, 9, 0.00,60.00,Monday
7,1.1
718,19.767217383914485
719,2.3844325311431662
720,16.762836513289134
619,2505.3198642199227
633,803.2938231802533
659,19.758218252057894
661,112.96452741794542
690,82.15941625805519
716,0.0
843,1846.2868091260607
844,1846.2868091260607
907,0.0
908,0.0
971,0.0
972,0.0
1195,0.0
1197,0.0
2,1,12,22, 0,10, 0.00,60.00,Monday
7,2.2
718,19.796396603479703
719,5.1531091009499965
720,16.64125312884771
619,1881.6115024245812
633,600.1067092770418
659,7.818559237312238
661,136.7582439857302
690,59.79931235853464
716,0.0
843,1416.824870914912
844,1416.824870914912
907,0.0
908,0.0
971,0.0
972,0.0
1195,0.0
1197,0.0
2,1,12,22, 0,11, 0.00,60.00,Monday
7,3.3
718,19.771432774874512
719,7.614558755573282
720,16.535132760191942
619,1464.6103878499198
633,462.63574835658255
659,9.113930285696432
661,151.2895307444521
690,46.04977021759915
716,0.0
843,1133.325231893521
844,1133.325231893521
907,0.0
908,0.0
971,0.0
972,0.0
1195,0.0
1197,0.0
2,1,12,22, 0,12, 0.00,60.00,Monday
7,3.9
718,19.49126614607526
719,7.126373625082742
720,16.44277327951792
619,1350.395424881898
633,423.0065785197015
659,8.666290537108264
661,155.63383783811906
690,41.950608460882414
716,0.0
843,1059.3961886908073
844,1059.3961886908073
907,0.0
908,0.0
971,0.0
972,0.0
1195,0.0
1197,0.0
2,1,12,22, 0,13, 0.00,60.00,Monday
7,5.0
718,19.86180255682917
719,7.749154202954677
720,16.367312213184007
619,1472.5692146357233
633,449.33908672775993
659,0.020747358641769294
661,154.50847768016422
690,43.06929737827768
716,0.0
843,1170.151128381338
844,1170.151128381338
907,0.0
908,0.0
971,0.0
972,0.0
1195,0.0
1197,0.0
2,1,12,22, 0,14, 0.00,60.00,Monday
7,3.9
718,19.675479948342762
719,8.20111500528285
720,16.310314555952495
619,2058.8191408199596
633,637.954024417112
659,16.90328288490729
661,132.6044494768716
690,63.702229854013474
716,79.1847386022344
843,705.2499060277587
844,705.2499060277587
907,0.0
908,0.0
971,0.0
972,0.0
1195,0.0
1197,0.0
2,1,12,22, 0,15, 0.00,60.00,Monday
7,2.8
718,19.69611674816055
719,7.620267384939916
720,16.244526856911236
619,845.069468367389
633,272.41434471499014
659,22.458181815016605
661,168.52198933220873
690,29.597256415497803
716,0.0
843,665.8633830897234
844,665.8633830897234
907,0.0
908,0.0
971,0.0
972,0.0
1195,0.0
1197,0.0
2,1,12,22, 0,16, 0.00,60.00,Monday
7,1.1
718,19.93879109331215
719,8.380765657949057
720,16.21082734115802
619,920.9016627688596
633,306.8433959132596
659,33.90588021781263
661,162.754340374237
690,34.80218376644207
716,0.0
843,720.2257517025882
844,720.2257517025882
907,0.0
908,0.0
971,0.0
972,0.0
1195,0.0
1197,0.0
2,1,12,22, 0,17, 0.00,60.00,Monday
7,0.6
718,19.693599776306765
719,5.75690918413361
720,16.173224430204588
619,685.4299772488944
633,233.39840716012068
659,26.746994389401113
661,171.5321658422003
690,26.55212664645501
716,0.0
843,525.9001232826049
844,525.9001232826049
907,0.0
908,0.0
971,0.0
972,0.0
1195,0.0
1197,0.0
2,1,12,22, 0,18, 0.00,60.00,Monday
7,0.6
718,19.79029263993171
719,4.531662544960998
720,16.133245026811764
619,788.4270192348064
633,266.20993413639513
659,30.65634495688642
661,167.37129669931176
690,30.433550498014963
716,0.0
843,603.2351576029232
844,603.2351576029232
907,0.0
908,0.0
971,0.0
972,0.0
1195,0.0
1197,0.0
2,1,12,22, 0,19, 0.00,60.00,Monday
7,0.6
718,19.662577596867422
719,3.9201111336498604
720,16.098276933498347
619,2143.585360315806
633,703.5213865374263
659,80.88646960607477
661,113.90948198396057
690,80.2981472174688
716,85.44000000000004
843,515.5656210901252
844,515.5656210901252
907,0.0
908,0.0
971,0.0
972,0.0
1195,0.0
1197,0.0
2,1,12,22, 0,20, 0.00,60.00,Monday
7,0.6
718,19.683486211484208
719,3.74951382952028
720,16.041220747128254
619,2232.9582896020706
633,729.5140671654295
659,91.14886949981116
661,109.42920971743962
690,84.37283664355705
716,85.44000000000004
843,593.6144155328384
844,593.6144155328384
907,0.0
908,0.0
971,0.0
972,0.0
1195,0.0
1197,0.0
2,1,12,22, 0,21, 0.00,60.00,Monday
7,1.1
718,19.676364223997716
719,2.613189142928455
720,15.973622441660348
619,1368.247078211986
633,451.0409095917609
659,49.14797844113173
661,145.32996520428426
690,51.09315447851388
716,27.087073060489473
843,682.467325524005
844,682.467325524005
907,0.0
908,0.0
971,0.0
972,0.0
1195,0.0
1197,0.0
2,1,12,22, 0,22, 0.00,60.00,Monday
7,1.1
718,19.663410494558534
719,2.544893941413145
720,15.906385392751906
619,1268.265793116743
633,418.9043957111781
659,45.65481461053277
661,149.2156059615073
690,47.46176710589316
716,0.0
843,937.77444693701
844,937.77444693701
907,0.0
908,0.0
971,0.0
972,0.0
1195,0.0
1197,0.0
2,1,12,22, 0,23, 0.00,60.00,Monday
7,1.7
718,18.691091326388076
719,2.4201927386922213
720,15.827286945904843
619,692.5565217312602
633,228.83052680129467
659,23.942340278689983
661,172.53383415125074
690,25.716632027507202
716,0.0
843,492.8560286434931
844,492.8560286434931
907,0.0
908,0.0
971,0.0
972,0.0
1195,0.0
1197,0.0
2,1,12,22, 0,24, 0.00,60.00,Monday
7,1.1
718,18.682175757855536
719,2.3261733120338994
720,15.74602626954264
619,1221.5637379540126
633,394.6285255201726
659,48.64289772388465
661,150.4935138247851
690,46.205689765228165
716,0.0
843,916.6377542988957
844,916.6377542988957
907,0.0
908,0.0
971,0.0
972,0.0
1195,0.0
1197,0.0
2,2,12,23, 0, 1, 0.00,60.00,Tuesday
7,1.7
718,18.422295498439073
719,2.6450406617088484
720,15.666546716470307
619,1873.256068264057
633,588.9966768810297
659,62.81686876311514
661,127.91285332358964
690,67.4992043995566
716,0.0
843,1408.6304115014846
844,1408.6304115014846
907,0.0
908,0.0
971,0.0
972,0.0
1195,0.0
1197,0.0
2,2,12,23, 0, 2, 0.00,60.00,Tuesday
7,1.1
718,18.739915009898308
719,2.6058727399582806
720,15.578079457342564
619,2346.806407959421
633,734.0574463557755
659,82.03096675646822
661,108.75238516119418
690,85.28439383175262
716,0.0
843,1770.6192620798938
844,1770.6192620798938
907,0.0
908,0.0
971,0.0
972,0.0
1195,0.0
1197,0.0
2,2,12,23, 0, 3, 0.00,60.00,Tuesday
7,1.7
718,18.554347835068562
719,3.057410149786593
720,15.50209518292717
619,2450.460727907004
633,761.9490551688572
659,79.8577194974285
661,107.02803657703987
690,87.07034441537195
716,0.0
843,1841.1358211933111
844,1841.1358211933111
907,0.0
908,0.0
971,0.0
972,0.0
1195,0.0
1197,0.0
2,2,12,23, 0, 4, 0.00,60.00,Tuesday
7,1.1
718,18.6474412997508
719,2.9247652854362967
720,15.412399792197304
619,2665.8953087011905
633,830.6342980247057
659,92.60411449457955
661,96.99128382850874
690,96.27617025050192
716,0.0
843,2001.2993807950206
844,2001.2993807950206
907,0.0
908,0.0
971,0.0
972,0.0
1195,0.0
1197,0.0
2,2,12,23, 0, 5, 0.00,60.00,Tuesday
7,1.1
718,18.605164464721234
719,2.58950043792744
720,15.333161800397287
619,2591.7056690909158
633,810.5292922649636
659,90.20589404401814
661,99.65895805720628
690,93.78234195268583
716,0.0
843,1948.7479945548057
844,1948.7479945548057
907,0.0
908,0.0
971,0.0
972,0.0
1195,0.0
1197,0.0
2,2,12,23, 0, 6, 0.00,60.00,Tuesday
7,1.1
718,19.375285973903985
719,3.0780878314615667
720,15.261640643850669
619,3917.5058457829687
633,1189.8796680207051
659,132.57353231394984
661,52.531073413816486
690,137.83024096811639
716,0.0
843,2926.2165243562777
844,2926.2165243562777
907,0.0
908,0.0
971,0.0
972,0.0
1195,0.0
1197,0.0
2,2,12,23, 0, 7, 0.00,60.00,Tuesday
7,0.6
718,19.550313439216385
719,3.6020294759327602
720,15.227359989675024
619,5167.690077914555
633,1571.3026520001138
659,184.90786542311199
661,5.495684550040769
690,181.38695951087217
716,85.44000000000004
843,2802.416993733481
844,2802.416993733481
907,0.0
908,0.0
971,0.0
972,0.0
1195,0.0
1197,0.0
2,2,12,23, 0, 8, 0.00,60.00,Tuesday
7,0.0
718,19.653616446293434
719,3.348080539074727
720,15.149823273880065
619,4805.312896592845
633,1494.4336668493168
659,180.26810749336937
661,14.050549178971394
690,173.0583859478409
716,85.44000000000004
843,2461.4381134245887
844,2461.4381134245887
907,0.0
908,0.0
971,0.0
972,0.0
1195,0.0
1197,0.0
2,2,12,23, 0, 9, 0.00,60.00,Tuesday
7,0.0
718,19.750526108813347
719,4.183247747912073
720,15.065750033038313
619,3230.4830844845687
633,1041.8488975611253
659,113.25421642411112
661,72.49442611612491
690,118.86060544519671
716,70.20263656163878
843,1483.9508867075474
844,1483.9508867075474
907,0.0
908,0.0
971,0.0
972,0.0
1195,0.0
1197,0.0
2,2,12,23, 0,10, 0.00,60.00,Tuesday
7,3.3
718,19.70212743560167
719,5.329627008839984
720,14.980750324384344
619,1103.739636055482
633,350.7818886399973
659,27.149480863463168
661,159.91118391289598
690,37.73872456003993
716,0.0
843,828.2094646785426
844,828.2094646785426
907,0.0
908,0.0
971,0.0
972,0.0
1195,0.0
1197,0.0
2,2,12,23, 0,11, 0.00,60.00,Tuesday
7,4.4
718,19.776435234082044
719,8.125992955536972
720,14.935227289484995
619,226.0406096272678
633,71.50695090415405
659,2.8390833384046394
661,192.30755671237216
690,7.26783079793879
716,0.0
843,171.9026139027028
844,171.9026139027028
907,0.0
908,0.0
971,0.0
972,0.0
1195,0.0
1197,0.0
2,2,12,23, 0,12, 0.00,60.00,Tuesday
7,2.8
718,19.70895461377718
719,8.373702041164467
720,14.931082947020405
619,308.13369472877184
633,100.3205016766177
659,5.5683311888316585
661,188.82476977802375
690,10.53112656570972
716,0.0
843,242.66053767325866
844,242.66053767325866
907,0.0
908,0.0
971,0.0
972,0.0
1195,0.0
1197,0.0
2,2,12,23, 0,13, 0.00,60.00,Tuesday
7,4.4
718,19.94533699468313
719,9.522545028571866
720,14.93746568252001
619,291.73564069180406
633,92.1485928340504
659,2.8112389516428524
661,190.21631251710298
690,9.248062148774979
716,0.0
843,220.09639213526498
844,220.09639213526498
907,0.0
908,0.0
971,0.0
972,0.0
1195,0.0
1197,0.0
2,2,12,23, 0,14, 0.00,60.00,Tuesday
7,4.4
718,19.76453793555559
719,9.007556803711367
720,14.944788480140431
619,34.18509779227067
633,10.916318388500846
659,0.4322228967095757
661,198.83101741258153
690,1.1044494131610505
716,0.0
843,26.773719756924038
844,26.773719756924038
907,0.0
908,0.0
971,0.0
972,0.0
1195,0.0
1197,0.0
2,2,12,23, 0,15, 0.00,60.00,Tuesday
7,3.9
718,19.472783043849063
719,7.686507691850006
720,14.959827687698185
619,0.0
633,0.0
659,0.0
661,200.0
690,0.0
716,0.0
843,-32.313130119136986
844,-32.313130119136986
907,0.0
908,0.0
971,0.0
972,0.0
1195,0.0
1197,0.0
2,2,12,23, 0,16, 0.00,60.00,Tuesday
7,2.2
718,19.68180346090645
719,6.691125840568999
720,14.988578907989128
619,654.0857966822241
633,212.4302243763824
659,14.883756153859672
661,175.61362396186738
690,22.934252757933045
716,0.0
843,514.3819738937054
844,514.3819738937054
907,0.0
908,0.0
971,0.0
972,0.0
1195,0.0
1197,0.0
2,2,12,23, 0,17, 0.00,60.00,Tuesday
7,1.7
718,20.549659724348057
719,7.164997608680356
720,15.004219764907852
619,509.46425357714554
633,168.33998142942033
659,11.37718589930402
661,180.73135256548903
690,18.112164483336063
716,0.0
843,381.3907113979312
844,381.3907113979312
907,0.0
908,0.0
971,0.0
972,0.0
1195,0.0
1197,0.0
2,2,12,23, 0,18, 0.00,60.00,Tuesday
7,1.7
718,18.82290793457488
719,5.34908534299409
720,15.001615979587651
619,0.0
633,0.0
659,0.0
661,200.0
690,0.0
716,68.81712551491415
843,-30.40065038890134
844,-30.40065038890134
907,0.0
908,0.0
971,0.0
972,0.0
1195,0.0
1197,0.0
2,2,12,23, 0,19, 0.00,60.00,Tuesday
7,1.1
718,19.654453998052244
719,3.520997800188451
720,15.009866806418051
619,736.158500453663
633,240.27356864509144
659,22.031412128387398
661,171.0555617332148
690,27.112431069431892
716,0.0
843,552.5978578763425
844,552.5978578763425
907,0.0
908,0.0
971,0.0
972,0.0
1195,0.0
1197,0.0
2,2,12,23, 0,20, 0.00,60.00,Tuesday
7,0.6
718,19.768482517137304
719,3.5763542834598008
720,15.028509366015637
619,2123.540391609781
633,692.6286987741413
659,58.79980964232682
661,118.12777502637637
690,76.66502105353213
716,85.44000000000004
843,451.02144046819376
844,451.02144046819376
907,0.0
908,0.0
971,0.0
972,0.0
1195,0.0
1197,0.0
2,2,12,23, 0,21, 0.00,60.00,Tuesday
7,0.6
718,19.738949512672352
719,3.2375789174655027
720,14.997053843599158
619,2049.917748886552
633,671.98978790016
659,63.42713635330985
661,119.76041476228296
690,75.04181982675648
716,85.44000000000004
843,412.165000832636
844,412.165000832636
907,0.0
908,0.0
971,0.0
972,0.0
1195,0.0
1197,0.0
2,2,12,23, 0,22, 0.00,60.00,Tuesday
7,0.6
718,19.62674948891982
719,2.5028751402680687
720,14.94676413092861
619,1478.7698177670275
633,490.87741620691105
659,51.14058945388157
661,140.63043241088042
690,55.45409826830009
716,37.34092955960512
843,666.437961793079
844,666.437961793079
907,0.0
908,0.0
971,0.0
972,0.0
1195,0.0
1197,0.0
2,2,12,23, 0,23, 0.00,60.00,Tuesday
7,0.0
718,18.87985727915685
719,1.801745203244517
720,14.880049914661688
619,491.5601729008169
633,168.50503770970877
659,18.321462069324433
661,179.3730546261276
690,19.228440710335516
716,0.0
843,356.10043011499147
844,356.10043011499147
907,0.0
908,0.0
971,0.0
972,0.0
1195,0.0
1197,0.0
2,2,12,23, 0,24, 0.00,60.00,Tuesday
7,-1.7
718,18.511228663734652
719,0.49457912357227735
720,14.828015219834619
619,967.6203779235892
633,332.9401935653766
659,32.727979875942914
661,158.71299819502264
690,38.40990390530791
716,0.0
843,711.6638629599356
844,711.6638629599356
907,0.0
908,0.0
971,0.0
972,0.0
1195,0.0
1197,0.0
2,3,12,24, 0, 1, 0.00,60.00,Wednesday
7,-1.1
718,18.571552587116187
719,0.3097188143512862
720,14.766159137789431
619,1683.5963742270092
633,556.7784225794379
659,46.92930073488771
661,131.99979023824272
690,63.50047156594017
716,0.0
843,1232.6059920603038
844,1232.6059920603038
907,0.0
908,0.0
971,0.0
972,0.0
1195,0.0
1197,0.0
2,3,12,24, 0, 2, 0.00,60.00,Wednesday
7,-2.8
718,18.503236016177972
719,-0.019119500291328986
720,14.696843610060858
619,2363.2335174399927
633,795.0990741140796
659,51.34884389246504
661,104.08710403859122
690,89.62173753310257
716,0.0
843,1715.467863775868
844,1715.467863775868
907,0.0
908,0.0
971,0.0
972,0.0
1195,0.0
1197,0.0
2,3,12,24, 0, 3, 0.00,60.00,Wednesday
7,-2.8
718,18.57776877332207
719,-0.8631528213083175
720,14.624381804584482
619,2866.0310079335327
633,951.7657448280271
659,61.497996157823984
661,85.02520905193694
690,107.43525969699513
716,0.0
843,2071.6108190169907
844,2071.6108190169907
907,0.0
908,0.0
971,0.0
972,0.0
1195,0.0
1197,0.0
2,3,12,24, 0, 4, 0.00,60.00,Wednesday
7,-2.2
718,18.55419207046965
719,-0.2990678335902309
720,14.55148476448941
619,3195.0682330287664
633,1038.5044368463396
659,14.049105468329788
661,83.33370989788324
690,110.17117032309
716,0.0
843,2312.1270989037257
844,2312.1270989037257
907,0.0
908,0.0
971,0.0
972,0.0
1195,0.0
1197,0.0
2,3,12,24, 0, 5, 0.00,60.00,Wednesday
7,-2.8
718,18.50725667594279
719,0.12652468064039213
720,14.470917940898572
619,3589.7177769618015
633,1169.586515517492
659,21.1899771313899
661,67.05645385733499
690,125.40064419262225
716,0.0
843,2588.611079016182
844,2588.611079016182
907,0.0
908,0.0
971,0.0
972,0.0
1195,0.0
1197,0.0
2,3,12,24, 0, 6, 0.00,60.00,Wednesday
7,-2.8
718,19.15375519917383
719,0.877221879491815
720,14.410378568832748
619,5505.1471522760185
633,1713.1077081914596
659,64.19654024711888
661,0.0
690,189.35122736123571
716,70.52119316058689
843,3441.649808864475
844,3441.649808864475
907,0.0
908,0.0
971,0.0
972,0.0
1195,240.41430228215313
1197,240.41430228215313
2,3,12,24, 0, 7, 0.00,60.00,Wednesday
7,-2.8
718,19.489412822198435
719,1.0494567283662826
720,14.363649915893387
619,5445.931710701789
633,1722.0353535942272
659,73.51313892039106
661,0.0
690,189.35122736123571
716,85.44000000000004
843,3325.6538271431527
844,3325.6538271431527
907,0.0
908,0.0
971,0.0
972,0.0
1195,502.3251079667093
1197,502.3251079667093
2,3,12,24, 0, 8, 0.00,60.00,Wednesday
7,-2.8
718,19.63466034142403
719,1.3790487504939386
720,14.298958652447594
619,5208.664809075328
633,1681.717474370182
659,71.21466573348036
661,5.979914757245153
690,182.07721097608075
716,59.37337733725894
843,3025.2603447563633
844,3025.2603447563633
907,0.0
908,0.0
971,0.0
972,0.0
1195,0.0
1197,0.0
2,3,12,24, 0, 9, 0.00,60.00,Wednesday
7,-1.1
718,19.748534699387612
719,1.56490645355903
720,14.216124790150555
619,4296.091356375341
633,1374.1170014421548
659,0.06709831910105298
661,52.87743207639899
690,139.28804671467145
716,0.0
843,3136.3595335562222
844,3136.3595335562222
907,0.0
908,0.0
971,0.0
972,0.0
1195,0.0
1197,0.0
2,3,12,24, 0,10, 0.00,60.00,Wednesday
7,-0.6
718,19.784564253519267
719,2.640950884418022
720,14.144024813454388
619,3698.714190150505
633,1189.7608754449775
659,0.05771512157601577
661,73.45142161462852
690,119.80972772244782
716,0.0
843,2709.038729371294
844,2709.038729371294
907,0.0
908,0.0
971,0.0
972,0.0
1195,0.0
1197,0.0
2,3,12,24, 0,11, 0.00,60.00,Wednesday
7,0.0
718,19.837231811766653
719,5.914345923222037
720,14.057638137459435
619,2533.278492442881
633,825.8991674192031
659,7.307724908429545
661,111.58146971281981
690,83.60428613628267
716,0.0
843,1874.7762646882584
844,1874.7762646882584
907,0.0
908,0.0
971,0.0
972,0.0
1195,0.0
1197,0.0
2,3,12,24, 0,12, 0.00,60.00,Wednesday
7,0.6
718,19.769944012033204
719,8.281748960580964
720,13.99463571632064
619,1861.0105169097092
633,608.6284630127245
659,0.02916085651333386
661,136.06069197304203
690,60.53455306879701
716,0.0
843,1426.5560581099471
844,1426.5560581099471
907,0.0
908,0.0
971,0.0
972,0.0
1195,0.0
1197,0.0
2,3,12,24, 0,13, 0.00,60.00,Wednesday
7,0.6
718,19.654182907390478
719,9.07148797082701
720,13.953625585647845
619,1628.5355204480538
633,534.136342221344
659,1.093544423435021
661,143.64845733934436
690,53.33691669051365
716,0.0
843,1277.6139334187665
844,1277.6139334187665
907,0.0
908,0.0
971,0.0
972,0.0
1195,0.0
1197,0.0
2,3,12,24, 0,14, 0.00,60.00,Wednesday
7,0.6
718,19.80696932982768
719,10.29402178406066
720,13.930351522675767
619,1509.0246142209091
633,495.7637319240751
659,14.156711565015478
661,145.58423067553812
690,51.32771589742756
716,0.0
843,1183.973125040895
844,1183.973125040895
907,0.0
908,0.0
971,0.0
972,0.0
1195,0.0
1197,0.0
2,3,12,24, 0,15, 0.00,60.00,Wednesday
7,1.1
718,19.69751903192268
719,10.782605570187268
720,13.949776093947925
619,2475.704991405572
633,793.7793030491014
659,19.410916780997976
661,113.97350177356782
690,81.2084912228169
716,70.50744935903708
843,1185.0949238623907
844,1185.0949238623907
907,0.0
908,0.0
971,0.0
972,0.0
1195,0.0
1197,0.0
2,3,12,24, 0,16, 0.00,60.00,Wednesday
7,0.6
718,19.717028705693735
719,10.326650361316526
720,13.933851649791393
619,2394.2664024507417
633,774.3490382229486
659,33.29563474010964
661,113.3672422261031
690,81.56327808775112
716,78.84609919877222
843,1023.9521900112304
844,1023.9521900112304
907,0.0
908,0.0
971,0.0
972,0.0
1195,0.0
1197,0.0
2,3,12,24, 0,17, 0.00,60.00,Wednesday
7,0.6
718,19.79654144974175
719,8.324324911126766
720,13.89004176607058
619,1024.7440399781833
633,340.9587266326303
659,14.643025421110199
661,161.87820022587084
690,35.89112173907845
716,0.0
843,815.6312584210882
844,815.6312584210882
907,0.0
908,0.0
971,0.0
972,0.0
1195,0.0
1197,0.0
2,3,12,24, 0,18, 0.00,60.00,Wednesday
7,0.6
718,19.745260029714817
719,5.832134719343026
720,13.891642802551633
619,994.6334130115323
633,331.7720343715743
659,14.218411286173648
661,162.9629751477839
690,34.86986275470275
716,0.0
843,777.7211908917216
844,777.7211908917216
907,0.0
908,0.0
971,0.0
972,0.0
1195,0.0
1197,0.0
2,3,12,24, 0,19, 0.00,60.00,Wednesday
7,-0.6
718,19.700009921870343
719,3.5495078533760642
720,13.878648377673265
619,954.8272062921304
633,326.3793135058815
659,19.885404382254272
661,162.27326535068457
690,35.37847725656008
716,0.0
843,710.6558508991329
844,710.6558508991329
907,0.0
908,0.0
971,0.0
972,0.0
1195,0.0
1197,0.0
2,3,12,24, 0,20, 0.00,60.00,Wednesday
7,-1.1
718,19.62287530056109
719,2.1771805546276877
720,13.907893242496996
619,2462.609038799431
633,821.8145145532077
659,53.141850976582035
661,104.0575914626503
690,89.85256127711962
716,85.44000000000004
843,756.8105346163666
844,756.8105346163666
907,0.0
908,0.0
971,0.0
972,0.0
1195,0.0
1197,0.0
2,3,12,24, 0,21, 0.00,60.00,Wednesday
7,-1.1
718,19.665472498863025
719,0.8371815697343109
720,13.87863238410953
619,2660.8527821460143
633,882.5399832532231
659,57.16702754044097
661,96.80961360487092
690,96.64068295649363
716,85.44000000000004
843,898.5051900682065
844,898.5051900682065
907,0.0
908,0.0
971,0.0
972,0.0
1195,0.0
1197,0.0
2,3,12,24, 0,22, 0.00,60.00,Wednesday
7,-1.1
718,19.756031576547112
719,-0.5022703953305367
720,13.823988141059814
619,1860.205046985194
633,628.4536760006013
659,40.69393138653064
661,126.58458246020162
690,68.75496768708959
716,17.956456296225603
843,1129.36616240878
844,1129.36616240878
907,0.0
908,0.0
971,0.0
972,0.0
1195,0.0
1197,0.0
2,3,12,24, 0,23, 0.00,60.00,Wednesday
7,-1.1
718,18.798519975211725
719,-1.8373710189061565
720,13.752322500775945
619,775.8345185379602
633,269.0787918630529
659,17.395277932010906
661,168.62610526224765
690,29.382007708320888
716,0.0
843,518.3427228231212
844,518.3427228231212
907,0.0
908,0.0
971,0.0
972,0.0
1195,0.0
1197,0.0
2,3,12,24, 0,24, 0.00,60.00,Wednesday
7,-1.1
718,18.6055054564283
719,-1.1080122942193888
720,13.713279111001551
619,1335.108693469294
633,447.070886071156
659,33.38097644682555
661,146.27742436558208
690,50.242383312816415
716,0.0
843,943.2465956008746
844,943.2465956008746
907,0.0
908,0.0
971,0.0
972,0.0
1195,0.0
1197,0.0
2,4,12,25, 0, 1, 0.00,60.00,Thursday
7,-1.1
718,18.58737978058752
719,-1.6890499170776798
720,13.669650351215147
619,2047.2992733185602
633,671.5957471543046
659,50.374145384761384
661,118.97264300019555
690,75.77872268789957
716,0.0
843,1462.17072276205
844,1462.17072276205
907,0.0
908,0.0
971,0.0
972,0.0
1195,0.0
1197,0.0
2,4,12,25, 0, 2, 0.00,60.00,Thursday
7,-0.6
718,18.57573120350793
719,-1.473496843958356
720,13.621835557744365
619,2566.3323675023817
633,825.058642224008
659,74.18789296330199
661,98.93747935514415
690,94.38317988989661
716,0.0
843,1816.2923000651772
844,1816.2923000651772
907,0.0
908,0.0
971,0.0
972,0.0
1195,0.0
1197,0.0
2,4,12,25, 0, 3, 0.00,60.00,Thursday
7,-0.6
718,18.610760075184754
719,-1.9405670654760145
720,13.564186070335158
619,2848.3979468281523
633,909.1402456001448
659,71.4191245465276
661,90.17307159038349
690,102.74498684272764
716,0.0
843,2023.8510213581321
844,2023.8510213581321
907,0.0
908,0.0
971,0.0
972,0.0
1195,0.0
1197,0.0
2,4,12,25, 0, 4, 0.00,60.00,Thursday
7,-0.6
718,18.59805706347562
719,-1.474602893831237
720,13.509758942493312
619,3132.7912031455207
633,994.6333607007233
659,78.13643740430732
661,79.90777583207178
690,112.34735908284205
716,0.0
843,2194.3957309248144
844,2194.3957309248144
907,0.0
908,0.0
971,0.0
972,0.0
1195,0.0
1197,0.0
2,4,12,25, 0, 5, 0.00,60.00,Thursday
7,-2.2
718,18.57492857798853
719,-1.4913055861597855
720,13.4463294040635
619,3314.7877980087833
633,1080.284196365572
659,91.07438160132095
661,66.95370809735675
690,123.97723250055216
716,0.0
843,2327.8288027785384
844,2327.8288027785384
907,0.0
908,0.0
971,0.0
972,0.0
1195,0.0
1197,0.0
2,4,12,25, 0, 6, 0.00,60.00,Thursday
7,-2.2
718,19.32951931821784
719,-1.4444096390341958
720,13.415002958927799
619,4714.229463452909
633,1488.4118190158126
659,113.53669114881328
661,18.377710195913522
690,169.49863142562026
716,0.0
843,3305.6362336573984
844,3305.6362336573984
907,0.0
908,0.0
971,0.0
972,0.0
1195,0.0
1197,0.0
2,4,12,25, 0, 7, 0.00,60.00,Thursday
7,-2.8
718,19.521915371234808
719,-1.0945480309905231
720,13.39532220123606
619,5245.954165258832
633,1663.964076110152
659,118.46179527951358
661,0.0
690,189.35122736123571
716,85.44000000000004
843,3295.6010044354334
844,3295.6010044354334
907,0.0
908,0.0
971,0.0
972,0.0
1195,872.072274989986
1197,872.072274989986
2,4,12,25, 0, 8, 0.00,60.00,Thursday
7,-0.6
718,19.65005321805451
719,-0.5312715518905253
720,13.35427037486868
619,5139.202423972915
633,1599.3589597488183
659,141.5219913303981
661,7.4849322574010335
690,179.77663994513253
716,85.44000000000004
843,2485.130184831789
844,2485.130184831789
907,0.0
908,0.0
971,0.0
972,0.0
1195,0.0
1197,0.0
2,4,12,25, 0, 9, 0.00,60.00,Thursday
7,3.9
718,19.757415934307286
719,3.152361578541527
720,13.256402302509738
619,3367.423074502349
633,1008.8453545221763
659,83.78303745114619
661,84.02106480930061
690,109.24486681696021
716,62.45715076625736
843,1688.569636959368
844,1688.569636959368
907,0.0
908,0.0
971,0.0
972,0.0
1195,0.0
1197,0.0
2,4,12,25, 0,10, 0.00,60.00,Thursday
7,6.7
718,19.788052971338185
719,6.989853991127789
720,13.131694877135756
619,914.865265993928
633,253.25998557277643
659,0.0
661,176.01672922307978
690,22.70630878873349
716,0.0
843,685.6271730751159
844,685.6271730751159
907,0.0
908,0.0
971,0.0
972,0.0
1195,0.0
1197,0.0
2,4,12,25, 0,11, 0.00,60.00,Thursday
7,8.3
718,19.845619746088744
719,10.10919712036764
720,13.113656736480603
619,0.0
633,0.0
659,0.0
661,200.0
690,0.0
716,0.0
843,-105.90088710928649
844,-105.90088710928649
907,0.0
908,0.0
971,0.0
972,0.0
1195,0.0
1197,0.0
2,4,12,25, 0,12, 0.00,60.00,Thursday
7,8.9
718,20.394282107499812
719,12.125081505626222
720,13.143949397904851
619,0.0
633,0.0
659,0.0
661,200.0
690,0.0
716,0.0
843,-505.5891137637336
844,-505.5891137637336
907,0.0
908,0.0
971,0.0
972,0.0
1195,0.0
1197,0.0
2,4,12,25, 0,13, 0.00,60.00,Thursday
7,6.7
718,20.262323524752116
719,12.188231679702971
720,13.199055070199236
619,0.0
633,0.0
659,0.0
661,200.0
690,0.0
716,0.0
843,-384.31320587225855
844,-384.31320587225855
907,0.0
908,0.0
971,0.0
972,0.0
1195,0.0
1197,0.0
2,4,12,25, 0,14, 0.00,60.00,Thursday
7,10.0
718,20.268995093273464
719,12.311858311046379
720,13.26328767234945
619,0.0
633,0.0
659,0.0
661,0.0
690,0.0
716,0.0
843,-396.34249890455794
844,-396.34249890455794
907,0.0
908,0.0
971,0.0