Program Version,EnergyPlus, Version 22.2.0-c249759bad, YMD=2023.09.01 14:31
1,5,Environment Title[],Latitude[deg],Longitude[deg],Time Zone[],Elevation[m]
2,8,Day of Simulation[],Month[],Day of Month[],DST Indicator[1=yes 0=no],Hour[],StartMinute[],EndMinute[],DayType
3,5,Cumulative Day of Simulation[],Month[],Day of Month[],DST Indicator[1=yes 0=no],DayType  ! When Daily Report Variables Requested
4,2,Cumulative Days of Simulation[],Month[]  ! When Monthly Report Variables Requested
5,1,Cumulative Days of Simulation[] ! When Run Period Report Variables Requested
6,1,Calendar Year of Simulation[] ! When Annual Report Variables Requested
7,1,Environment,Site Outdoor Air Drybulb Temperature [C] !Hourly
545,1,LIVING,Zone Mean Air Temperature [C] !Hourly
546,1,ATTIC,Zone Mean Air Temperature [C] !Hourly
547,1,CRAWLSPACE,Zone Mean Air Temperature [C] !Hourly
548,1,FAN,Fan Electricity Rate [W] !Hourly
720,1,LIVING,Zone Predicted Sensible Load to Heating Setpoint Heat Transfer Rate [W] !Hourly
721,1,LIVING,Zone System Predicted Sensible Load to Heating Setpoint Heat Transfer Rate [W] !Hourly
784,1,ATTIC,Zone Predicted Sensible Load to Heating Setpoint Heat Transfer Rate [W] !Hourly
785,1,ATTIC,Zone System Predicted Sensible Load to Heating Setpoint Heat Transfer Rate [W] !Hourly
848,1,CRAWLSPACE,Zone Predicted Sensible Load to Heating Setpoint Heat Transfer Rate [W] !Hourly
849,1,CRAWLSPACE,Zone System Predicted Sensible Load to Heating Setpoint Heat Transfer Rate [W] !Hourly
1121,1,DX_HEATING_COIL,Heating Coil Heating Rate [W] !Hourly
1135,1,DX_HEATING_COIL,Heating Coil Electricity Rate [W] !Hourly
1161,1,DX_HEATING_COIL,Heating Coil Defrost Electricity Rate [W] !Hourly
1163,1,DX_HEATING_COIL,Heating Coil Crankcase Heater Electricity Rate [W] !Hourly
1166,1,HEATING_RESISTANCE_BACKUP,Heating Coil Heating Rate [W] !Hourly
1168,1,HEATING_RESISTANCE_BACKUP,Heating Coil Electricity Rate [W] !Hourly
End of Data Dictionary
1,EXTREME_WINTER,  32.54, -93.75,  -6.00,  55.00
2,1, 1,29, 0, 1, 0.00,60.00,Monday
7,-2.8
545,19.117272925904967
546,-1.5989328867142194
547,19.332031950074565
548,0.0
720,-407.7514718673174
721,-407.7514718673174
784,0.0
785,0.0
848,0.0
849,0.0
1121,0.0
1135,0.0
1161,0.0
1163,200.0
1166,0.0
1168,0.0
2,1, 1,29, 0, 2, 0.00,60.00,Monday
7,-3.3
545,19.651233758349118
546,-1.6568832404592402
547,18.92807351372994
548,82.97241284090396
720,330.1844939378261
721,330.1844939378261
784,0.0
785,0.0
848,0.0
849,0.0
1121,2274.164433655212
1135,779.7972984084105
1161,50.44877253333612
1163,89.18977659886127
1166,0.0
1168,0.0
2,1, 1,29, 0, 3, 0.00,60.00,Monday
7,-3.9
545,19.244955926041815
546,-2.8837172603732184
547,18.809195165084628
548,69.78217141608916
720,879.7256405901917
721,879.7256405901917
784,0.0
785,0.0
848,0.0
849,0.0
1121,1861.2809159654826
1135,661.5795879038295
1161,41.066431552217
1163,106.75294585480628
1166,0.0
1168,0.0
2,1, 1,29, 0, 4, 0.00,60.00,Monday
7,-3.9
545,18.83762756052914
546,-3.450036245938743
547,18.601397740784183
548,74.65668823486324
720,1236.9139151992604
721,1236.9139151992604
784,0.0
785,0.0
848,0.0
849,0.0
1121,2003.39778514547
1135,702.0432660435868
1161,43.92546230839709
1163,100.24291361276003
1166,0.0
1168,0.0
2,1, 1,29, 0, 5, 0.00,60.00,Monday
7,-4.0
545,18.607637412215908
546,-2.491628734636663
547,18.414561533554885
548,87.26635836249356
720,1550.0060889586039
721,1550.0060889586039
784,0.0
785,0.0
848,0.0
849,0.0
1121,2347.639989286378
1135,808.7330219317605
1161,55.51376763203671
1163,83.22779755211711
1166,0.0
1168,0.0
2,1, 1,29, 0, 6, 0.00,60.00,Monday
7,-5.0
545,19.035727457541633
546,-1.4847101203339736
547,18.175224926983866
548,149.12326615362224
720,2912.36614666676
721,2912.36614666676
784,0.0
785,0.0
848,0.0
849,0.0
1121,4139.479474898893
1135,1375.6850144190914
1161,85.97679672400703
1163,0.4388775311950921
1166,0.0
1168,0.0
2,1, 1,29, 0, 7, 0.00,60.00,Monday
7,-4.4
545,19.47152227160994
546,-1.2898520527611044
547,18.055656666497487
548,151.89350541881507
720,3149.915799282684
721,3149.915799282684
784,0.0
785,0.0
848,0.0
849,0.0
1121,4296.934640699941
1135,1402.2965536079557
1161,82.36161409715102
1163,0.0
1166,294.3274644228327
1168,294.3274644228327
2,1, 1,29, 0, 8, 0.00,60.00,Monday
7,-3.9
545,19.63763783943062
546,-0.22518770960895426
547,17.920716572186546
548,151.89350541881507
720,3058.295028387589
721,3058.295028387589
784,0.0
785,0.0
848,0.0
849,0.0
1121,4295.335981517869
1135,1402.785134625055
1161,94.95181362232367
1163,0.0
1166,245.53770357309077
1168,245.53770357309077
2,1, 1,29, 0, 9, 0.00,60.00,Monday
7,-3.0
545,19.70845833546343
546,0.827559000062727
547,17.793576494157172
548,150.13831302551955
720,2887.833160358643
721,2887.833160358643
784,0.0
785,0.0
848,0.0
849,0.0
1121,4314.056318229959
1135,1405.649847262185
1161,103.75994916527304
1163,0.0
1166,0.0
1168,0.0
2,1, 1,29, 0,10, 0.00,60.00,Monday
7,-3.0
545,19.764934886828996
546,4.017771424008915
547,17.670743085438048
548,139.25094836307213
720,2664.9626381558337
721,2664.9626381558337
784,0.0
785,0.0
848,0.0
849,0.0
1121,3966.1266481235725
1135,1310.890052685413
1161,96.63709533219404
1163,13.729485972922827
1166,0.0
1168,0.0
2,1, 1,29, 0,11, 0.00,60.00,Monday
7,-2.0
545,19.824901523988775
546,5.990104787070302
547,17.56872484859406
548,118.45895432189201
720,2344.6501221516683
721,2344.6501221516683
784,0.0
785,0.0
848,0.0
849,0.0
1121,3379.1884672380093
1135,1114.9125778646246
1161,89.51411199378015
1163,41.62930007230481
1166,0.0
1168,0.0
2,1, 1,29, 0,12, 0.00,60.00,Monday
7,0.0
545,19.928660452863717
546,10.786733387819947
547,17.488449501221154
548,72.64173540519188
720,1461.5171389627867
721,1461.5171389627867
784,0.0
785,0.0
848,0.0
849,0.0
1121,2113.8985852815586
1135,694.7790954325172
1161,53.881936969513156
1163,103.28057395216422
1166,0.0
1168,0.0
2,1, 1,29, 0,13, 0.00,60.00,Monday
7,1.0
545,19.92475608679697
546,16.119251025747833
547,17.41616277219025
548,31.860255748562917
720,644.4095906161292
721,644.4095906161292
784,0.0
785,0.0
848,0.0
849,0.0
1121,926.4169322634104
1135,308.61103962198496
1161,22.774418111741557
1163,157.66999173030334
1166,0.0
1168,0.0
2,1, 1,29, 0,14, 0.00,60.00,Monday
7,5.0
545,20.178639639879854
546,18.903973275238265
547,17.36996569556814
548,0.0
720,-275.681144744156
721,-275.681144744156
784,0.0
785,0.0
848,0.0
849,0.0
1121,0.0
1135,0.0
1161,0.0
1163,200.0
1166,0.0
1168,0.0
2,1, 1,29, 0,15, 0.00,60.00,Monday
7,7.2
545,21.250980349639512
546,21.335293624216682
547,17.357700358885275
548,0.0
720,-1199.8809387490146
721,-1199.8809387490146
784,0.0
785,0.0
848,0.0
849,0.0
1121,0.0
1135,0.0
1161,0.0
1163,200.0
1166,0.0
1168,0.0
2,1, 1,29, 0,16, 0.00,60.00,Monday
7,8.9
545,22.391920588929963
546,22.116403387618845
547,17.378407699973422
548,0.0
720,-2009.385217996729
721,-2009.385217996729
784,0.0
785,0.0
848,0.0
849,0.0
1121,0.0
1135,0.0
1161,0.0
1163,200.0
1166,0.0
1168,0.0
2,1, 1,29, 0,17, 0.00,60.00,Monday
7,8.3
545,23.256118426662585
546,19.723967459857345
547,17.42586623528003
548,0.0
720,-2606.5994886382578
721,-2606.5994886382578
784,0.0
785,0.0
848,0.0
849,0.0
1121,0.0
1135,0.0
1161,0.0
1163,200.0
1166,0.0
1168,0.0
2,1, 1,29, 0,18, 0.00,60.00,Monday
7,7.2
545,23.49885515445628
546,16.579318261752064
547,17.491060275441786
548,0.0
720,-2833.76108715842
721,-2833.76108715842
784,0.0
785,0.0
848,0.0
849,0.0
1121,0.0
1135,0.0
1161,0.0
1163,200.0
1166,0.0
1168,0.0
2,1, 1,29, 0,19, 0.00,60.00,Monday
7,2.8
545,22.744936055344503
546,11.577752948657034
547,17.554209070792187
548,0.0
720,-2253.2028830967665
721,-2253.2028830967665
784,0.0
785,0.0
848,0.0
849,0.0
1121,0.0
1135,0.0
1161,0.0
1163,200.0
1166,0.0
1168,0.0
2,1, 1,29, 0,20, 0.00,60.00,Monday
7,2.8
545,22.604998245873414
546,7.59506360300058
547,17.598848458920084
548,0.0
720,-2310.9591260412835
721,-2310.9591260412835
784,0.0
785,0.0
848,0.0
849,0.0
1121,0.0
1135,0.0
1161,0.0
1163,200.0
1166,0.0
1168,0.0
2,1, 1,29, 0,21, 0.00,60.00,Monday
7,2.2
545,22.25936343814414
546,5.060879918753832
547,17.616102855989944
548,0.0
720,-1953.5489877839736
721,-1953.5489877839736
784,0.0
785,0.0
848,0.0
849,0.0
1121,0.0
1135,0.0
1161,0.0
1163,200.0
1166,0.0
1168,0.0
2,1, 1,29, 0,22, 0.00,60.00,Monday
7,1.7
545,21.78515929546594
546,3.02660435422288
547,17.610999863559627
548,0.0
720,-1613.2541947555583
721,-1613.2541947555583
784,0.0
785,0.0
848,0.0
849,0.0
1121,0.0
1135,0.0
1161,0.0
1163,200.0
1166,0.0
1168,0.0
2,1, 1,29, 0,23, 0.00,60.00,Monday
7,1.1
545,21.008780716611827
546,1.1062148721164253
547,17.585332091406816
548,0.0
720,-1860.3029766573509
721,-1860.3029766573509
784,0.0
785,0.0
848,0.0
849,0.0
1121,0.0
1135,0.0
1161,0.0
1163,200.0
1166,0.0
1168,0.0
2,1, 1,29, 0,24, 0.00,60.00,Monday
7,0.6
545,20.097760415075985
546,0.17816803404751702
547,17.542446385355216
548,0.0
720,-1173.334396700424
721,-1173.334396700424
784,0.0
785,0.0
848,0.0
849,0.0
1121,0.0
1135,0.0
1161,0.0
1163,200.0
1166,0.0
1168,0.0
2,2, 1,30, 0, 1, 0.00,60.00,Tuesday
7,0.6
545,19.24825561711075
546,-0.36373327769620906
547,17.48673711702324
548,0.0
720,-505.1290958549671
721,-505.1290958549671
784,0.0
785,0.0
848,0.0
849,0.0
1121,0.0
1135,0.0
1161,0.0
1163,200.0
1166,0.0
1168,0.0
2,2, 1,30, 0, 2, 0.00,60.00,Tuesday
7,0.0
545,19.90009829569333
546,-0.18592456186926928
547,17.39203128725526
548,68.94940783605533
720,142.9419338404059
721,142.9419338404059
784,0.0
785,0.0
848,0.0
849,0.0
1121,2025.9403410230902
1135,657.5946375012047
1161,46.63159611874826
1163,108.29702884121484
1166,0.0
1168,0.0
2,2, 1,30, 0, 3, 0.00,60.00,Tuesday
7,0.6
545,19.27585661208373
546,-1.407957576665238
547,17.3391842781563
548,39.70986915074909
720,406.7804441440294
721,406.7804441440294
784,0.0
785,0.0
848,0.0
849,0.0
1121,1151.235937605123
1135,383.8696879840266
1161,27.9414766466087
1163,147.21419793469502
1166,0.0
1168,0.0
2,2, 1,30, 0, 4, 0.00,60.00,Tuesday
7,-1.7
545,18.671090551985237
546,-2.1093817217119843
547,17.23406146543699
548,48.179475160264815
720,845.6901933799272
721,845.6901933799272
784,0.0
785,0.0
848,0.0
849,0.0
1121,1359.7180784919974
1135,463.1829814224602
1161,25.274738566297433
1163,135.93255979248707
1166,0.0
1168,0.0
2,2, 1,30, 0, 5, 0.00,60.00,Tuesday
7,-2.2
545,18.547667702638407
546,-2.706648129405115
547,17.12777171256509
548,67.35841467826758
720,1301.2890630293205
721,1301.2890630293205
784,0.0
785,0.0
848,0.0
849,0.0
1121,1884.8962571968439
1135,630.682336706151
1161,41.20578188694666
1163,110.20281371990714
1166,0.0
1168,0.0
2,2, 1,30, 0, 6, 0.00,60.00,Tuesday
7,-1.7
545,19.187646217182465
546,-2.2356000050164475
547,17.01059204363855
548,117.144235276627
720,2431.467413915274
721,2431.467413915274
784,0.0
785,0.0
848,0.0
849,0.0
1121,3410.3867341717882
1135,1084.1464806595131
1161,83.04517742725916
1163,43.64804276562637
1166,0.0
1168,0.0
2,2, 1,30, 0, 7, 0.00,60.00,Tuesday
7,-1.1
545,19.4942848625072
546,-1.3629207798001206
547,16.947140032742393
548,128.58632937690595
720,2638.4711522526122
721,2638.4711522526122
784,0.0
785,0.0
848,0.0
849,0.0
1121,3848.128679398581
1135,1215.3248126095295
1161,86.53166299633622
1163,28.67533419019752
1166,0.0
1168,0.0
2,2, 1,30, 0, 8, 0.00,60.00,Tuesday
7,-1.1
545,19.697338069822546
546,-0.9118879873220956
547,16.867072724416428
548,116.1950345274625
720,2255.1785407052685
721,2255.1785407052685
784,0.0
785,0.0
848,0.0
849,0.0
1121,3408.3081785857858
1135,1096.6378144365585
1161,84.9895939838611
1163,45.00903535593614
1166,0.0
1168,0.0
2,2, 1,30, 0, 9, 0.00,60.00,Tuesday
7,2.2
545,19.939440265313582
546,2.171625994282871
547,16.808353641768495
548,65.7011194815454
720,1246.520788075928
721,1246.520788075928
784,0.0
785,0.0
848,0.0
849,0.0
1121,2017.5049227626048
1135,636.0961485519213
1161,48.79332798226749
1163,112.85244225284055
1166,0.0
1168,0.0
2,2, 1,30, 0,10, 0.00,60.00,Tuesday
7,6.1
545,20.101659431392928
546,7.8579100027599225
547,16.738047770788725
548,7.344055541915277
720,76.27685977515284
721,76.27685977515284
784,0.0
785,0.0
848,0.0
849,0.0
1121,303.14887083981364
1135,85.88639769993799
1161,0.0
1163,190.32999400248804
1166,0.0
1168,0.0
2,2, 1,30, 0,11, 0.00,60.00,Tuesday
7,9.4
545,20.84839475273975
546,13.78330879187267
547,16.705264867397446
548,0.0
720,-976.4186538791728
721,-976.4186538791728
784,0.0
785,0.0
848,0.0
849,0.0
1121,0.0
1135,0.0
1161,0.0
1163,200.0
1166,0.0
1168,0.0
2,2, 1,30, 0,12, 0.00,60.00,Tuesday
7,11.7
545,21.662642880066876
546,18.1063679865188
547,16.710635539674367
548,0.0
720,-1659.1643685760773
721,-1659.1643685760773
784,0.0
785,0.0
848,0.0
849,0.0
1121,0.0
1135,0.0
1161,0.0
1163,0.0
1166,0.0
1168,0.0
2,2, 1,30, 0,13, 0.00,60.00,Tuesday
7,13.3
545,22.4199410459002
546,20.52640308628189
547,16.74842968271488
548,0.0
720,-2256.380215669402
721,-2256.380215669402
784,0.0
785,0.0
848,0.0
849,0.0
1121,0.0
1135,0.0
1161,0.0
1163,0.0
1166,0.0
1168,0.0
2,2, 1,30, 0,14, 0.00,60.00,Tuesday
7,15.0
545,23.560350710586267
546,23.162100952362202
547,16.81471476029092
548,0.0
720,-3036.509287648869
721,-3036.509287648869
784,0.0
785,0.0
848,0.0
849,0.0
1121,0.0
1135,0.0
1161,0.0
1163,0.0
1166,0.0
1168,0.0
2,2, 1,30, 0,15, 0.00,60.00,Tuesday
7,15.0
545,24.424275375054517
546,21.45204709844705
547,16.897641128593918
548,0.0
720,-3857.708120894302
721,-3857.708120894302
784,0.0
785,0.0
848,0.0
849,0.0
1121,0.0
1135,0.0
1161,0.0
1163,0.0
1166,0.0
1168,0.0
2,2, 1,30, 0,16, 0.00,60.00,Tuesday
7,15.6
545,25.591924272714692
546,20.838501176564353
547,17.00264542067225
548,0.0
720,-4288.57184306998
721,-4288.57184306998
784,0.0
785,0.0
848,0.0
849,0.0
1121,0.0
1135,0.0
1161,0.0
1163,0.0
1166,0.0
1168,0.0
2,2, 1,30, 0,17, 0.00,60.00,Tuesday
7,15.0
545,26.795391000964585
546,20.205139286787308
547,17.13365234936936
548,0.0
720,-5187.921898713836
721,-5187.921898713836
784,0.0
785,0.0
848,0.0
849,0.0
1121,0.0
1135,0.0
1161,0.0
1163,0.0
1166,0.0
1168,0.0
2,2, 1,30, 0,18, 0.00,60.00,Tuesday
7,12.8
545,27.106441481474203
546,18.200212173890723
547,17.272241967109032
548,0.0
720,-5085.636905389398
721,-5085.636905389398
784,0.0
785,0.0
848,0.0
849,0.0
1121,0.0
1135,0.0
1161,0.0
1163,0.0
1166,0.0
1168,0.0
2,2, 1,30, 0,19, 0.00,60.00,Tuesday
7,11.1
545,26.63747670371761
546,14.744272875009921
547,17.40529409832276
548,0.0
720,-4731.370563593449
721,-4731.370563593449
784,0.0
785,0.0
848,0.0
849,0.0
1121,0.0
1135,0.0
1161,0.0
1163,0.0
1166,0.0
1168,0.0
2,2, 1,30, 0,20, 0.00,60.00,Tuesday
7,10.0
545,26.390147763329644
546,12.066428063665423
547,17.503904811333022
548,0.0
720,-4584.869135625653
721,-4584.869135625653
784,0.0
785,0.0
848,0.0
849,0.0
1121,0.0
1135,0.0
1161,0.0
1163,0.0
1166,0.0
1168,0.0
2,2, 1,30, 0,21, 0.00,60.00,Tuesday
7,10.0
545,26.231559071037275
546,10.445545838199207
547,17.564562667801397
548,0.0
720,-4545.8519263743365
721,-4545.8519263743365
784,0.0
785,0.0
848,0.0
849,0.0
1121,0.0
1135,0.0
1161,0.0
1163,0.0
1166,0.0
1168,0.0
2,2, 1,30, 0,22, 0.00,60.00,Tuesday
7,9.4
545,25.723133755779816
546,9.234172685050032
547,17.60254668723023
548,0.0
720,-3954.4403869862635
721,-3954.4403869862635
784,0.0
785,0.0
848,0.0
849,0.0
1121,0.0
1135,0.0
1161,0.0
1163,200.0
1166,0.0
1168,0.0
2,2, 1,30, 0,23, 0.00,60.00,Tuesday
7,7.8
545,24.85581343051388
546,7.945709002858498
547,17.61486255599297
548,0.0
720,-4331.426533797685
721,-4331.426533797685
784,0.0
785,0.0
848,0.0
849,0.0
1121,0.0
1135,0.0
1161,0.0
1163,200.0
1166,0.0
1168,0.0
2,2, 1,30, 0,24, 0.00,60.00,Tuesday
7,7.2
545,23.902165376708293
546,7.089476334970257
547,17.607213805988348
548,0.0
720,-3956.732609964274
721,-3956.732609964274
784,0.0
785,0.0
848,0.0
849,0.0
1121,0.0
1135,0.0
1161,0.0
1163,200.0
1166,0.0
1168,0.0
2,3, 1,31, 0, 1, 0.00,60.00,Wednesday
7,6.7
545,23.078144047075618
546,6.338003893244241
547,17.583467968404346
548,0.0
720,-3423.907156803367
721,-3423.907156803367
784,0.0
785,0.0
848,0.0
849,0.0
1121,0.0
1135,0.0
1161,0.0
1163,200.0
1166,0.0
1168,0.0
2,3, 1,31, 0, 2, 0.00,60.00,Wednesday
7,5.6
545,22.20053178314328
546,5.287409439593377
547,17.545686111016526
548,0.0
720,-2680.9136589179034
721,-2680.9136589179034
784,0.0
785,0.0
848,0.0
849,0.0
1121,0.0
1135,0.0
1161,0.0
1163,200.0
1166,0.0
1168,0.0
2,3, 1,31, 0, 3, 0.00,60.00,Wednesday
7,4.4
545,21.377958514613837
546,3.351699803784156
547,17.497651825258497
548,0.0
720,-2074.5767813442108
721,-2074.5767813442108
784,0.0
785,0.0
848,0.0
849,0.0
1121,0.0
1135,0.0
1161,0.0
1163,200.0
1166,0.0
1168,0.0
2,3, 1,31, 0, 4, 0.00,60.00,Wednesday
7,4.4
545,20.664132787289795
546,1.7200758468808162
547,17.438471056125195
548,0.0
720,-1520.0279342596332
721,-1520.0279342596332
784,0.0
785,0.0
848,0.0
849,0.0
1121,0.0
1135,0.0
1161,0.0
1163,200.0
1166,0.0
1168,0.0
2,3, 1,31, 0, 5, 0.00,60.00,Wednesday
7,1.7
545,19.76806474129228
546,0.21362012712789583
547,17.37249376888478
548,0.0
720,-829.4813424172335
721,-829.4813424172335
784,0.0
785,0.0
848,0.0
849,0.0
1121,0.0
1135,0.0
1161,0.0
1163,200.0
1166,0.0
1168,0.0
2,3, 1,31, 0, 6, 0.00,60.00,Wednesday
7,1.1
545,20.84886355891069
546,0.45110925040542543
547,17.29045096375434
548,74.79554877393015
720,377.0085397794319
721,377.0085397794319
784,0.0
785,0.0
848,0.0
849,0.0
1121,2308.8643179783107
1135,738.2562199436829
1161,41.41129600615869
1163,100.85405866656856
1166,0.0
1168,0.0
2,3, 1,31, 0, 7, 0.00,60.00,Wednesday
7,0.0
545,20.27531788514966
546,-0.852817493326877
547,17.23716754597076
548,46.0711853044328
720,506.10136093756955
721,506.10136093756955
784,0.0
785,0.0
848,0.0
849,0.0
1121,1319.3507300750944
1135,453.3939786283765
1161,31.220382804127784
1163,138.71892321808582
1166,0.0
1168,0.0
2,3, 1,31, 0, 8, 0.00,60.00,Wednesday
7,0.6
545,20.02730713153492
546,-1.1079621442757084
547,17.14841861223464
548,31.972703182687912
720,496.91822379285077
721,496.91822379285077
784,0.0
785,0.0
848,0.0
849,0.0
1121,928.7981382719275
1135,314.06577324581775
1161,20.39919921615279
1163,157.53911424083634
1166,0.0
1168,0.0
2,3, 1,31, 0, 9, 0.00,60.00,Wednesday
7,6.1
545,20.333865761282215
546,2.6519583194116327
547,17.07595941579338
548,3.319137086605732
720,8.738366262670752
721,8.738366262670752
784,0.0
785,0.0
848,0.0
849,0.0
1121,136.54331892824266
1135,38.89435294592465
1161,0.0
1163,195.6296523969818
1166,0.0
1168,0.0
2,3, 1,31, 0,10, 0.00,60.00,Wednesday
7,10.6
545,21.553789302833042
546,11.144971290914773
547,17.01754823061189
548,0.0
720,-1284.4962452076634
721,-1284.4962452076634
784,0.0
785,0.0
848,0.0
849,0.0
1121,0.0
1135,0.0
1161,0.0
1163,0.0
1166,0.0
1168,0.0
2,3, 1,31, 0,11, 0.00,60.00,Wednesday
7,13.9
545,22.57283271413977
546,20.162046019069937
547,16.99284751887614
548,0.0
720,-2440.0408116258823
721,-2440.0408116258823
784,0.0
785,0.0
848,0.0
849,0.0
1121,0.0
1135,0.0
1161,0.0
1163,0.0
1166,0.0
1168,0.0
2,3, 1,31, 0,12, 0.00,60.00,Wednesday
7,16.7
545,23.339727526129316
546,25.994122325169343
547,17.013697649137942
548,4.041490507747155
720,-3290.225294457814
721,-3290.225294457814
784,0.0
785,0.0
848,0.0
849,0.0
1121,0.0
1135,0.0
1161,0.0
1163,0.0
1166,0.0
1168,0.0
2,3, 1,31, 0,13, 0.00,60.00,Wednesday
7,17.8
545,23.36717606719054
546,30.25902594652252
547,17.102318623569754
548,21.909370952409386
720,-3754.5133585745043
721,-3754.5133585745043
784,0.0
785,0.0
848,0.0
849,0.0
1121,0.0
1135,0.0
1161,0.0
1163,0.0
1166,0.0
1168,0.0
2,3, 1,31, 0,14, 0.00,60.00,Wednesday
7,19.4
545,23.425604526594427
546,32.40012459436267
547,17.22512888897875
548,40.06538187772573
720,-4451.999510017642
721,-4451.999510017642
784,0.0
785,0.0
848,0.0
849,0.0
1121,0.0
1135,0.0
1161,0.0
1163,0.0
1166,0.0
1168,0.0
2,3, 1,31, 0,15, 0.00,60.00,Wednesday
7,20.0
545,23.367047976213385
546,30.717894075863594
547,17.39349860403235
548,62.12025355049203
720,-5747.749105142077
721,-5747.749105142077
784,0.0
785,0.0
848,0.0
849,0.0
1121,0.0
1135,0.0
1161,0.0
1163,0.0
1166,0.0
1168,0.0
2,3, 1,31, 0,16, 0.00,60.00,Wednesday
7,20.0
545,23.356171895868926
546,29.207395387581094
547,17.560431598726467
548,77.00951714099061
720,-6770.651593584211
721,-6770.651593584211
784,0.0
785,0.0
848,0.0
849,0.0
1121,0.0
1135,0.0
1161,0.0
1163,0.0
1166,0.0
1168,0.0
2,3, 1,31, 0,17, 0.00,60.00,Wednesday
7,18.9
545,23.328942261256127
546,25.5020852305478
547,17.723983240376466
548,83.38426326197387
720,-7241.432668927089
721,-7241.432668927089
784,0.0
785,0.0
848,0.0
849,0.0
1121,0.0
1135,0.0
1161,0.0
1163,0.0
1166,0.0
1168,0.0
2,3, 1,31, 0,18, 0.00,60.00,Wednesday
7,16.1
545,23.283149314312343
546,21.754026000365585
547,17.811574610086627
548,68.0331814788151
720,-6704.916175278471
721,-6704.916175278471
784,0.0
785,0.0
848,0.0
849,0.0
1121,0.0
1135,0.0
1161,0.0
1163,0.0
1166,0.0
1168,0.0
2,3, 1,31, 0,19, 0.00,60.00,Wednesday
7,13.1
545,23.239810984384118
546,17.439104223990856
547,17.86075524470122
548,42.685181360034655
720,-5617.918309523484
721,-5617.918309523484
784,0.0
785,0.0
848,0.0
849,0.0
1121,0.0
1135,0.0
1161,0.0
1163,0.0
1166,0.0
1168,0.0
2,3, 1,31, 0,20, 0.00,60.00,Wednesday
7,12.9
545,23.312609036603057
546,15.000180407733204
547,17.92595613002477
548,29.83398558004776
720,-4864.316442563337
721,-4864.316442563337
784,0.0
785,0.0
848,0.0
849,0.0
1121,0.0
1135,0.0
1161,0.0
1163,0.0
1166,0.0
1168,0.0
2,3, 1,31, 0,21, 0.00,60.00,Wednesday
7,12.2
545,23.27323095687009
546,13.398889605642056
547,17.9663675231014
548,21.71702668018747
720,-4376.512547089347
721,-4376.512547089347
784,0.0
785,0.0
848,0.0
849,0.0
1121,0.0
1135,0.0
1161,0.0
1163,0.0
1166,0.0
1168,0.0
2,3, 1,31, 0,22, 0.00,60.00,Wednesday
7,12.6
545,23.38687288554217
546,12.71827949589436
547,17.967043811188507
548,11.403523782879226
720,-3814.0689426017743
721,-3814.0689426017743
784,0.0
785,0.0
848,0.0
849,0.0
1121,0.0
1135,0.0
1161,0.0
1163,0.0
1166,0.0
1168,0.0
2,3, 1,31, 0,23, 0.00,60.00,Wednesday
7,12.9
545,23.569958079077548
546,12.276277637080184
547,17.945003850578036
548,0.0
720,-4033.514313964193
721,-4033.514313964193
784,0.0
785,0.0
848,0.0
849,0.0
1121,0.0
1135,0.0
1161,0.0
1163,0.0
1166,0.0
1168,0.0
2,3, 1,31, 0,24, 0.00,60.00,Wednesday
7,13.4
545,23.19476090539025
546,12.008870956631391
547,17.93510441980607
548,0.0
720,-3008.4808040717835
721,-3008.4808040717835
784,0.0
785,0.0
848,0.0
849,0.0
1121,0.0
1135,0.0
1161,0.0
1163,0.0
1166,0.0
1168,0.0
2,4, 2, 1, 0, 1, 0.00,60.00,Thursday
7,14.4
545,22.921750728924543
546,12.87451919185039
547,17.913697394464563
548,0.0
720,-2665.882437776386
721,-2665.882437776386
784,0.0
785,0.0
848,0.0
849,0.0
1121,0.0
1135,0.0
1161,0.0
1163,0.0
1166,0.0
1168,0.0
2,4, 2, 1, 0, 2, 0.00,60.00,Thursday
7,14.5
545,22.46569335378356
546,13.769622781297272
547,17.88663240177791
548,0.0
720,-1988.8145453873576
721,-1988.8145453873576
784,0.0
785,0.0
848,0.0
849,0.0
1121,0.0
1135,0.0
1161,0.0
1163,0.0
1166,0.0
1168,0.0
2,4, 2, 1, 0, 3, 0.00,60.00,Thursday
7,15.0
545,22.00667619734801
546,14.526114923471503
547,17.856907483363415
548,0.0
720,-1816.462366804346
721,-1816.462366804346
784,0.0
785,0.0
848,0.0
849,0.0
1121,0.0
1135,0.0
1161,0.0
1163,0.0
1166,0.0
1168,0.0
2,4, 2, 1, 0, 4, 0.00,60.00,Thursday
7,15.5
545,21.591535574213147
546,15.197751613622897
547,17.826880787713822
548,0.0
720,-1661.1408433173783
721,-1661.1408433173783
784,0.0
785,0.0
848,0.0
849,0.0
1121,0.0
1135,0.0
1161,0.0
1163,0.0
1166,0.0
1168,0.0
2,4, 2, 1, 0, 5, 0.00,60.00,Thursday
7,15.8
545,21.423343170692913
546,15.58159046615204
547,17.79788281173141
548,0.0
720,-1570.5600765995987
721,-1570.5600765995987
784,0.0
785,0.0
848,0.0
849,0.0
1121,0.0
1135,0.0
1161,0.0
1163,0.0
1166,0.0
1168,0.0
2,4, 2, 1, 0, 6, 0.00,60.00,Thursday
7,13.5
545,20.7018653681564
546,14.580670547700553
547,17.768505414986397
548,0.0
720,-524.4332501200997
721,-524.4332501200997
784,0.0
785,0.0
848,0.0
849,0.0
1121,0.0
1135,0.0
1161,0.0
1163,0.0
1166,0.0
1168,0.0
2,4, 2, 1, 0, 7, 0.00,60.00,Thursday
7,16.0
545,21.059076531939652
546,15.791101454582273
547,17.744652544004072
548,0.0
720,-1020.7804455586574
721,-1020.7804455586574
784,0.0
785,0.0
848,0.0
849,0.0
1121,0.0
1135,0.0
1161,0.0
1163,0.0
1166,0.0
1168,0.0
2,4, 2, 1, 0, 8, 0.00,60.00,Thursday
7,16.0
545,21.245989126319735
546,15.886828423827314
547,17.720765672108236
548,0.0
720,-775.3204261113742
721,-775.3204261113742
784,0.0
785,0.0
848,0.0
849,0.0
1121,0.0
1135,0.0
1161,0.0
1163,0.0
1166,0.0
1168,0.0
2,4, 2, 1, 0, 9, 0.00,60.00,Thursday
7,6.0
545,19.80422895812591
546,8.221387040275465
547,17.702017789434002
548,27.797698788385148
720,995.723862006208
721,995.723862006208
784,0.0
785,0.0
848,0.0
849,0.0
1121,1154.8679483023398
1135,333.16273249415195
1161,0.0
1163,163.39843667214248
1166,0.0
1168,0.0
2,4, 2, 1, 0,10, 0.00,60.00,Thursday
7,3.9
545,20.45240803092593
546,8.12789218524105
547,17.659294546874065
548,44.69809643318816
720,1056.4222848508416
721,1056.4222848508416
784,0.0
785,0.0
848,0.0
849,0.0
1121,1327.2553526919949
1135,414.82382113458027
1161,50.858953972190264
1163,140.69779884181753
1166,0.0
1168,0.0
2,4, 2, 1, 0,11, 0.00,60.00,Thursday
7,2.8
545,19.335454513116975
546,5.2010587207521635
547,17.6254856013585
548,29.856183827633153
720,656.6163646310797
721,656.6163646310797
784,0.0
785,0.0
848,0.0
849,0.0
1121,881.8525398645572
1135,288.46044030549285
1161,26.842241069899508
1163,160.3754232921582
1166,0.0
1168,0.0
2,4, 2, 1, 0,12, 0.00,60.00,Thursday
7,-0.6
545,19.406390168262412
546,2.6284038053453327
547,17.52937515401284
548,60.49891855714403
720,1314.2841397074044
721,1314.2841397074044
784,0.0
785,0.0
848,0.0
849,0.0
1121,1700.622679974313
1135,565.0364196408871
1161,49.585807632337534
1163,119.24793483635874
1166,0.0
1168,0.0
2,4, 2, 1, 0,13, 0.00,60.00,Thursday
7,-1.7
545,19.41730060294476
546,2.560573665335369
547,17.468235297598497
548,79.51767174868647
720,1685.3084355922183
721,1685.3084355922183
784,0.0
785,0.0
848,0.0
849,0.0
1121,2270.8272793367346
1135,758.780602315532
1161,48.11105149709025
1163,94.0880355326575
1166,0.0
1168,0.0
2,4, 2, 1, 0,14, 0.00,60.00,Thursday
7,-2.2
545,19.344284181427593
546,1.3589054594279164
547,17.38657448531888
548,98.92003657388334
720,2141.368557734394
721,2141.368557734394
784,0.0
785,0.0
848,0.0
849,0.0
1121,2915.6216667196504
1135,965.5997381690369
1161,38.81630754239058
1163,68.73307360612024
1166,0.0
1168,0.0
2,4, 2, 1, 0,15, 0.00,60.00,Thursday
7,-2.8
545,19.69939547165895
546,1.402424387809907
547,17.317260724666685
548,105.0673206714473
720,2204.526848282203
721,2204.526848282203
784,0.0
785,0.0
848,0.0
849,0.0
1121,3089.550725134475
1135,1027.4857477022588
1161,34.36720611733736
1163,60.69049085936504
1166,0.0
1168,0.0
2,4, 2, 1, 0,16, 0.00,60.00,Thursday
7,-3.3
545,19.482669055768138
546,0.5653671878401638
547,17.23876953913469
548,125.57563868845035
720,2652.3422773920847
721,2652.3422773920847
784,0.0
785,0.0
848,0.0
849,0.0
1121,3730.817522161226
1135,1242.1536973415982
1161,32.109440146055846
1163,33.698610183584556
1166,0.0
1168,0.0
2,4, 2, 1, 0,17, 0.00,60.00,Thursday
7,-4.4
545,19.531648063244987
546,-0.3653573868081939
547,17.12602595473008
548,147.01311557938752
720,3019.285249176417
721,3019.285249176417
784,0.0
785,0.0
848,0.0
849,0.0
1121,4308.114542470215
1135,1434.3035928259094
1161,38.72037647050035
1163,5.115811848196117
1166,0.0
1168,0.0
2,4, 2, 1, 0,18, 0.00,60.00,Thursday
7,-5.0
545,19.622524814627706
546,-1.050468331711755
547,17.04400612714003
548,150.1192201005126
720,2965.392103476328
721,2965.392103476328
784,0.0
785,0.0
848,0.0
849,0.0
1121,4365.284343349134
1135,1467.7595419044956
1161,31.600287363940364
1163,1.199089049891322
1166,0.0
1168,0.0
2,4, 2, 1, 0,19, 0.00,60.00,Thursday
7,-5.0
545,19.688941443901516
546,-1.1361945232668986
547,16.960932522876107
548,145.59187985996823
720,2811.4504984670893
721,2811.4504984670893
784,0.0
785,0.0
848,0.0
849,0.0
1121,4236.7740953950215
1135,1431.718075911927
1161,25.358200192805334
1163,7.388148164487052
1166,0.0
1168,0.0
2,4, 2, 1, 0,20, 0.00,60.00,Thursday
7,-5.6
545,19.753750965513014
546,-1.5221561626328357
547,16.870140659946973
548,136.7647777266183
720,2529.7085554590885
721,2529.7085554590885
784,0.0
785,0.0
848,0.0
849,0.0
1121,3888.6558160705968
1135,1342.085347935292
1161,22.07430174617544
1163,19.076328126171216
1166,0.0
1168,0.0
2,4, 2, 1, 0,21, 0.00,60.00,Thursday
7,-6.1
545,19.679689634766365
546,-2.018713144962859
547,16.760935676149135
548,149.5685184390441
720,2792.070532450065
721,2792.070532450065
784,0.0
785,0.0
848,0.0
849,0.0
1121,4245.543288481889
1135,1466.8010450872541
1161,20.979699839048006
1163,2.217631156949751
1166,0.0
1168,0.0
2,4, 2, 1, 0,22, 0.00,60.00,Thursday
7,-6.7
545,19.65310227509068
546,-2.7174749189049088
547,16.63094668541873
548,151.89350541881507
720,4250.885476416919
721,4250.885476416919
784,0.0
785,0.0
848,0.0
849,0.0
1121,4250.102370798485
1135,1475.5121128333478
1161,19.582629629488974
1163,0.0
1166,1764.1957598137833
1168,1764.1957598137833
2,4, 2, 1, 0,23, 0.00,60.00,Thursday
7,-7.0
545,18.9989057982296
546,-2.663182790483197
547,16.53284280822789
548,148.3583252174835
720,2562.690061119618
721,2562.690061119618
784,0.0
785,0.0
848,0.0
849,0.0
1121,4136.151844538374
1135,1451.2222209199676
1161,10.950605486111417
1163,4.1758545712967665
1166,0.0
1168,0.0
2,4, 2, 1, 0,24, 0.00,60.00,Thursday
7,-7.8
545,18.756692853309968
546,-2.8463919948359906
547,16.376886426274076
548,151.89350541881507
720,2658.464035479423
721,2658.464035479423
784,0.0
785,0.0
848,0.0
849,0.0
1121,4102.564559143841
1135,1432.802145416566
1161,26.803512009298707
1163,0.0
1166,60.774187150235775
1168,60.774187150235775
2,5, 2, 2, 0, 1, 0.00,60.00,Friday
7,-8.0
545,18.638630205264725
546,-3.5891383273979147
547,16.244102570730583
548,151.89350541881507
720,3553.5753669944934
721,3553.5753669944934
784,0.0
785,0.0
848,0.0
849,0.0
1121,4122.571944637572
1135,1436.8893259196427
1161,16.593190409704903
1163,0.0
1166,1061.4441043801135
1168,1061.4441043801135
2,5, 2, 2, 0, 2, 0.00,60.00,Friday
7,-8.3
545,18.58268116419029
546,-3.805599795907911
547,16.10506116873703
548,151.89350541881507
720,4578.150274822481
721,4578.150274822481
784,0.0
785,0.0
848,0.0
849,0.0
1121,4056.1385036955407
1135,1418.3625531569364
1161,25.2939705476654
1163,0.0
1166,2371.598516147898
1168,2371.598516147898
2,5, 2, 2, 0, 3, 0.00,60.00,Friday
7,-8.3
545,18.60151897894651