Program Version,EnergyPlus, Version 22.2.0-c249759bad, YMD=2023.07.07 15:08
1,5,Environment Title[],Latitude[deg],Longitude[deg],Time Zone[],Elevation[m]
2,8,Day of Simulation[],Month[],Day of Month[],DST Indicator[1=yes 0=no],Hour[],StartMinute[],EndMinute[],DayType
3,5,Cumulative Day of Simulation[],Month[],Day of Month[],DST Indicator[1=yes 0=no],DayType  ! When Daily Report Variables Requested
4,2,Cumulative Days of Simulation[],Month[]  ! When Monthly Report Variables Requested
5,1,Cumulative Days of Simulation[] ! When Run Period Report Variables Requested
6,1,Calendar Year of Simulation[] ! When Annual Report Variables Requested
581,11,LIVING,AFN Zone Infiltration Air Change Rate [ach] !RunPeriod [Value,Min,Month,Day,Hour,Minute,Max,Month,Day,Hour,Minute]
582,11,ATTIC,AFN Zone Infiltration Air Change Rate [ach] !RunPeriod [Value,Min,Month,Day,Hour,Minute,Max,Month,Day,Hour,Minute]
583,11,CRAWLSPACE,AFN Zone Infiltration Air Change Rate [ach] !RunPeriod [Value,Min,Month,Day,Hour,Minute,Max,Month,Day,Hour,Minute]
1038,11,Facility,Facility Heating Setpoint Not Met Time [hr] !RunPeriod [Value,Min,Month,Day,Hour,Minute,Max,Month,Day,Hour,Minute]
1039,11,Facility,Facility Cooling Setpoint Not Met Time [hr] !RunPeriod [Value,Min,Month,Day,Hour,Minute,Max,Month,Day,Hour,Minute]
1115,11,DX_HEATING_COIL,Heating Coil Heating Energy [J] !RunPeriod [Value,Min,Month,Day,Hour,Minute,Max,Month,Day,Hour,Minute]
1128,11,DX_HEATING_COIL,Heating Coil Electricity Energy [J] !RunPeriod [Value,Min,Month,Day,Hour,Minute,Max,Month,Day,Hour,Minute]
1153,11,DX_HEATING_COIL,Heating Coil Defrost Electricity Energy [J] !RunPeriod [Value,Min,Month,Day,Hour,Minute,Max,Month,Day,Hour,Minute]
1154,11,DX_HEATING_COIL,Heating Coil Crankcase Heater Electricity Energy [J] !RunPeriod [Value,Min,Month,Day,Hour,Minute,Max,Month,Day,Hour,Minute]
1156,11,HEATING_RESISTANCE_BACKUP,Heating Coil Electricity Energy [J] !RunPeriod [Value,Min,Month,Day,Hour,Minute,Max,Month,Day,Hour,Minute]
13,11,Electricity:Facility [J] !RunPeriod [Value,Min,Month,Day,Hour,Minute,Max,Month,Day,Hour,Minute]
1134,11,Heating:Electricity [J] !RunPeriod [Value,Min,Month,Day,Hour,Minute,Max,Month,Day,Hour,Minute]
1096,11,Cooling:Electricity [J] !RunPeriod [Value,Min,Month,Day,Hour,Minute,Max,Month,Day,Hour,Minute]
562,11,Fans:Electricity [J] !RunPeriod [Value,Min,Month,Day,Hour,Minute,Max,Month,Day,Hour,Minute]
1388,11,Pumps:Electricity [J] !RunPeriod [Value,Min,Month,Day,Hour,Minute,Max,Month,Day,Hour,Minute]
1360,11,WaterSystems:Electricity [J] !RunPeriod [Value,Min,Month,Day,Hour,Minute,Max,Month,Day,Hour,Minute]
61,11,InteriorLights:Electricity [J] !RunPeriod [Value,Min,Month,Day,Hour,Minute,Max,Month,Day,Hour,Minute]
1046,11,ExteriorLights:Electricity [J] !RunPeriod [Value,Min,Month,Day,Hour,Minute,Max,Month,Day,Hour,Minute]
134,11,InteriorEquipment:Electricity [J] !RunPeriod [Value,Min,Month,Day,Hour,Minute,Max,Month,Day,Hour,Minute]
170,11,gas_dryer:InteriorEquipment:Electricity [J] !RunPeriod [Value,Min,Month,Day,Hour,Minute,Max,Month,Day,Hour,Minute]
207,11,clotheswasher:InteriorEquipment:Electricity [J] !RunPeriod [Value,Min,Month,Day,Hour,Minute,Max,Month,Day,Hour,Minute]
244,11,dishwasher:InteriorEquipment:Electricity [J] !RunPeriod [Value,Min,Month,Day,Hour,Minute,Max,Month,Day,Hour,Minute]
281,11,refrigerator:InteriorEquipment:Electricity [J] !RunPeriod [Value,Min,Month,Day,Hour,Minute,Max,Month,Day,Hour,Minute]
318,11,electric_mels:InteriorEquipment:Electricity [J] !RunPeriod [Value,Min,Month,Day,Hour,Minute,Max,Month,Day,Hour,Minute]
355,11,NaturalGas:Facility [J] !RunPeriod [Value,Min,Month,Day,Hour,Minute,Max,Month,Day,Hour,Minute]
1323,11,WaterSystems:NaturalGas [J] !RunPeriod [Value,Min,Month,Day,Hour,Minute,Max,Month,Day,Hour,Minute]
403,11,InteriorEquipment:NaturalGas [J] !RunPeriod [Value,Min,Month,Day,Hour,Minute,Max,Month,Day,Hour,Minute]
476,11,gas_dryer:InteriorEquipment:NaturalGas [J] !RunPeriod [Value,Min,Month,Day,Hour,Minute,Max,Month,Day,Hour,Minute]
513,11,gas_mels:InteriorEquipment:NaturalGas [J] !RunPeriod [Value,Min,Month,Day,Hour,Minute,Max,Month,Day,Hour,Minute]
End of Data Dictionary
1,EXTREME_WINTER,  38.68,-121.58,  -8.00,   8.00
5,15
1038,0.8333333333333333,0.0,12,22, 1,10,0.16666666666666666,12,23, 6,10
1039,0.0,0.0,12,22, 1,10,0.0,12,22, 1,10
581,0.2594007982650539,0.12291645201914102,12,26, 6, 2,1.0294010703280192,12,28,14,60
582,2.97050440331773,0.0,12,23, 5,50,20.614388961243698,12,28,14,60
583,3.896357256847604,0.00013513488705188333, 1, 2,19,39,28.008570848624686,12,28,14,60
1115,1087065250.938081,0.0,12,22, 1, 2,3281546.784014576,12,28, 6,40
1128,325175220.4692653,0.0,12,22, 1, 2,910227.2702521697,12,28, 6,40
1153,20284306.932325553,0.0,12,22, 1, 2,64717.12950350474,12,30, 6,40
1154,171046803.0659072,0.0,12,22, 6, 2,120000.0,12,22, 1,20
1156,5466488.108286558,0.0,12,22, 1, 2,726618.7760239785,12,29, 6, 3
13,1374254891.4393044,171100.65381062368,12,27, 1,10,2147518.309046084,12,30, 6,10
61,646981127.1939279,58759.40635443481,12,22, 1,10,854682.2742463244,12,22,20,10
134,151290040.75163832,42376.01200569399,12,22, 4,10,104369.48322671017,12,27,20,10
170,11185820.069951665,232.27731661587313,12,22, 4,10,11650.931360040839,12,27,12,10
207,13893028.574283868,543.5021409221355,12,22, 3,10,15327.095199349082,12,27,10,10
244,27284301.07562606,1014.5707620042115,12,22, 4,10,35359.08742820678,12,27,20,10
281,98926891.03177528,39959.06841621388,12,22, 5,10,54634.54471212738,12,22,19,10
318,0.0,0.0,12,22, 1,10,0.0,12,22, 1,10
355,1570506664.95776,12374.216038804521,12,22, 4,10,3829218.154066982,12,26,18,20
403,422701517.161075,12374.216038804521,12,22, 4,10,483183.26346918393,12,27,18,10
476,227882097.80545104,4732.048419519677,12,22, 4,10,237357.535085481,12,27,12,10
513,0.0,0.0,12,22, 1,10,0.0,12,22, 1,10
562,35781452.78095434,0.0,12,22, 1,10,103769.10883761554,12,28, 6,10
1046,0.0,0.0,12,22, 1,10,0.0,12,22, 1,10
1096,7472652.137000355,0.0,12,22, 1,10,137504.81614057696,12,22,16,40
1134,521972818.5757848,0.0,12,22,12,60,1642131.3306644326,12,30, 6,10
1323,1147805147.7966845,0.0,12,22, 1,10,3375000.000000001,12,26,19,40
1360,10756800.0,4979.999999999999,12,25, 9,40,4980.000000000002,12,30,10,60
1388,0.0,0.0,12,22, 1,10,0.0,12,22, 1,10
1,EXTREME_SUMMER,  38.68,-121.58,  -8.00,   8.00
5,7
1038,0.0,0.0, 6,29, 1,10,0.0, 6,29, 1,10
1039,27.5,0.0, 6,29, 1,10,0.16666666666666666, 6,29,16,10
581,0.14644579531452212,0.0, 7, 5,16,50,0.36624009378722555, 7, 1,24,60
582,3.2693938844707437,0.0, 6,29, 7,58,7.497575252339937, 7, 1,24,60
583,4.192595360761378,0.12094748231580375, 7, 5, 5,55,10.00666383666877, 7, 1,24,60
1115,0.0,0.0, 6,29, 1,10,0.0, 6,29, 1,10
1128,0.0,0.0, 6,29, 1,10,0.0, 6,29, 1,10
1153,0.0,0.0, 6,29, 1,10,0.0, 6,29, 1,10
1154,0.0,0.0, 6,29, 1,10,0.0, 6,29, 1,10
1156,0.0,0.0, 6,29, 1,10,0.0, 6,29, 1,10
13,973493875.6105777,106115.4183601288, 6,30, 4,10,2228853.2665180354, 7, 5,19,10
61,301924526.0238348,58759.40635443481, 6,29, 1,10,854682.2742463244, 6,29,20,10
134,70666020.44019979,42376.01200569399, 6,29, 4,10,104369.48322671017, 7, 4,20,10
170,5241013.419656074,232.27731661587313, 6,29, 4,10,11650.931360040839, 7, 4,12,10
207,6509451.13922266,543.5021409221355, 6,29, 3,10,15327.095199349082, 7, 4,10,10
244,12749673.39982522,1014.5707620042115, 6,29, 4,10,35359.08742820678, 7, 4,20,10
281,46165882.48149605,39959.06841621388, 6,29, 5,10,54634.54471212738, 6,29,19,10
318,0.0,0.0, 6,29, 1,10,0.0, 6,29, 1,10
355,655162955.3267133,12374.216038804521, 6,29, 4,10,3829218.154066982, 6,30,18,60
403,197687796.27748126,12374.216038804521, 6,29, 4,10,483183.26346918393, 7, 4,18,10
476,106772067.24485692,4732.048419519677, 6,29, 4,10,237357.535085481, 7, 4,12,10
513,0.0,0.0, 6,29, 1,10,0.0, 6,29, 1,10
562,55121560.12358965,0.0, 6,29, 6,20,103769.10883761554, 6,29,15,40
1046,0.0,0.0, 6,29, 1,10,0.0, 6,29, 1,10
1096,540761929.0229537,0.0, 6,29, 6,20,1279305.306127028, 7, 5,16,60
1134,0.0,0.0, 6,29, 1,10,0.0, 6,29, 1,10
1323,457475159.0492309,0.0, 6,29, 1,10,3375000.0, 6,29, 9,50
1360,5019840.0,4980.0, 6,29, 1,10,4980.000000000001, 6,29, 7,30
1388,0.0,0.0, 6,29, 1,10,0.0, 6,29, 1,10
1,ANNUAL,  38.68,-121.58,  -8.00,   8.00
5,365
1038,2.8333333333333326,0.0, 1, 1, 1,10,0.16666666666666666, 1, 6, 6,10
1039,373.1666666666666,0.0, 1, 1, 1,10,0.16666666666666666, 4,22,16,20
581,0.2133733772578038,0.0, 4,21,21,15,1.204882326850606, 5,23, 8,55
582,3.4040434151399404,0.0, 1, 1, 3,43,30.79289749122368,10,24,10,60
583,4.394783159950848,0.000042897863828659976, 3, 2,10,54,33.56379712755294, 2,23,14,60
1115,3501443179.1200905,0.0, 1, 1, 1,10,3298085.9369737306,12,28, 6,40
1128,1030342898.8837622,0.0, 1, 1, 1,10,914054.3431412306,12,28, 6,40
1153,55822881.717111,0.0, 1, 1, 1,10,67653.97531079371,12,24, 6,30
1154,1253140484.5233548,0.0, 1, 1, 6, 2,120000.0, 1, 1, 1,10
1156,12361547.180381296,0.0, 1, 1, 1,10,726618.7760239785, 1, 2, 6, 3
13,35957782103.427765,106115.41836012878,10,30, 4,30,2225817.397599872, 7, 5,19,10
61,15743207428.39043,58759.40635443481, 1, 1, 1,10,854682.2742463244, 1, 1,20,10
134,3685071073.433083,42376.01200569399, 1, 2, 4,10,104369.48322671017, 1, 1,20,10
170,273393721.45534325,232.27731661587313, 1, 2, 4,10,11650.931360040839, 1, 1,12,10
207,339560869.06955314,543.5021409221355, 1, 2, 3,10,15327.095199349082, 1, 1,10,10
244,664895467.8009839,1014.5707620042115, 1, 2, 4,10,35359.08742820678, 1, 1,20,10
281,2407221015.1057043,39959.06841621388, 1, 1, 5,10,54634.54471212738, 1, 1,19,10
318,0.0,0.0, 1, 1, 1,10,0.0, 1, 1, 1,10
355,35666928888.134346,12374.216038804521, 1, 2, 4,10,3829218.154066983, 4,14,18,30
403,10310294493.052883,12374.216038804521, 1, 2, 4,10,483183.26346918393, 1, 1,18,10
476,5569688622.065564,4732.048419519677, 1, 2, 4,10,237357.535085481, 1, 1,12,10
513,0.0,0.0, 1, 1, 1,10,0.0, 1, 1, 1,10
562,1505800164.567984,0.0, 1, 1, 1,10,103769.10883761555, 4,22,18,60
1046,0.0,0.0, 1, 1, 1,10,0.0, 1, 1, 1,10
1096,12410286824.737223,0.0, 1, 1, 1,10,1279953.0569674883, 7, 5,16,60
1134,2351667812.304614,0.0, 1, 1,15,60,1641326.031254143,12,30, 6,10
1323,25356634395.08547,0.0, 1, 1, 1,10,3375000.000000002, 4,26, 9,60
1360,261748800.0,4979.999999999998, 2,24,10,40,4980.000000000002, 1,15,19,60
1388,0.0,0.0, 1, 1, 1,10,0.0, 1, 1, 1,10
End of Data
 Number of Records Written=          87
