Program Version,EnergyPlus, Version 22.2.0-c249759bad, YMD=2023.09.01 15:36
1,5,Environment Title[],Latitude[deg],Longitude[deg],Time Zone[],Elevation[m]
2,8,Day of Simulation[],Month[],Day of Month[],DST Indicator[1=yes 0=no],Hour[],StartMinute[],EndMinute[],DayType
3,5,Cumulative Day of Simulation[],Month[],Day of Month[],DST Indicator[1=yes 0=no],DayType  ! When Daily Report Variables Requested
4,2,Cumulative Days of Simulation[],Month[]  ! When Monthly Report Variables Requested
5,1,Cumulative Days of Simulation[] ! When Run Period Report Variables Requested
6,1,Calendar Year of Simulation[] ! When Annual Report Variables Requested
581,11,LIVING,AFN Zone Infiltration Air Change Rate [ach] !RunPeriod [Value,Min,Month,Day,Hour,Minute,Max,Month,Day,Hour,Minute]
582,11,ATTIC,AFN Zone Infiltration Air Change Rate [ach] !RunPeriod [Value,Min,Month,Day,Hour,Minute,Max,Month,Day,Hour,Minute]
583,11,CRAWLSPACE,AFN Zone Infiltration Air Change Rate [ach] !RunPeriod [Value,Min,Month,Day,Hour,Minute,Max,Month,Day,Hour,Minute]
1038,11,Facility,Facility Heating Setpoint Not Met Time [hr] !RunPeriod [Value,Min,Month,Day,Hour,Minute,Max,Month,Day,Hour,Minute]
1039,11,Facility,Facility Cooling Setpoint Not Met Time [hr] !RunPeriod [Value,Min,Month,Day,Hour,Minute,Max,Month,Day,Hour,Minute]
1115,11,DX_HEATING_COIL,Heating Coil Heating Energy [J] !RunPeriod [Value,Min,Month,Day,Hour,Minute,Max,Month,Day,Hour,Minute]
1128,11,DX_HEATING_COIL,Heating Coil Electricity Energy [J] !RunPeriod [Value,Min,Month,Day,Hour,Minute,Max,Month,Day,Hour,Minute]
1153,11,DX_HEATING_COIL,Heating Coil Defrost Electricity Energy [J] !RunPeriod [Value,Min,Month,Day,Hour,Minute,Max,Month,Day,Hour,Minute]
1154,11,DX_HEATING_COIL,Heating Coil Crankcase Heater Electricity Energy [J] !RunPeriod [Value,Min,Month,Day,Hour,Minute,Max,Month,Day,Hour,Minute]
1155,11,HEATING_RESISTANCE_BACKUP,Heating Coil Heating Energy [J] !RunPeriod [Value,Min,Month,Day,Hour,Minute,Max,Month,Day,Hour,Minute]
1156,11,HEATING_RESISTANCE_BACKUP,Heating Coil Electricity Energy [J] !RunPeriod [Value,Min,Month,Day,Hour,Minute,Max,Month,Day,Hour,Minute]
1292,11,WATER HEATER,Water Heater Heat Loss Energy [J] !RunPeriod [Value,Min,Month,Day,Hour,Minute,Max,Month,Day,Hour,Minute]
1306,11,WATER HEATER,Water Heater Heating Energy [J] !RunPeriod [Value,Min,Month,Day,Hour,Minute,Max,Month,Day,Hour,Minute]
1307,11,WATER HEATER,Water Heater Unmet Demand Heat Transfer Energy [J] !RunPeriod [Value,Min,Month,Day,Hour,Minute,Max,Month,Day,Hour,Minute]
1308,11,WATER HEATER,Water Heater Electricity Energy [J] !RunPeriod [Value,Min,Month,Day,Hour,Minute,Max,Month,Day,Hour,Minute]
13,11,Electricity:Facility [J] !RunPeriod [Value,Min,Month,Day,Hour,Minute,Max,Month,Day,Hour,Minute]
1134,11,Heating:Electricity [J] !RunPeriod [Value,Min,Month,Day,Hour,Minute,Max,Month,Day,Hour,Minute]
1096,11,Cooling:Electricity [J] !RunPeriod [Value,Min,Month,Day,Hour,Minute,Max,Month,Day,Hour,Minute]
562,11,Fans:Electricity [J] !RunPeriod [Value,Min,Month,Day,Hour,Minute,Max,Month,Day,Hour,Minute]
1379,11,Pumps:Electricity [J] !RunPeriod [Value,Min,Month,Day,Hour,Minute,Max,Month,Day,Hour,Minute]
1326,11,WaterSystems:Electricity [J] !RunPeriod [Value,Min,Month,Day,Hour,Minute,Max,Month,Day,Hour,Minute]
61,11,InteriorLights:Electricity [J] !RunPeriod [Value,Min,Month,Day,Hour,Minute,Max,Month,Day,Hour,Minute]
1046,11,ExteriorLights:Electricity [J] !RunPeriod [Value,Min,Month,Day,Hour,Minute,Max,Month,Day,Hour,Minute]
134,11,InteriorEquipment:Electricity [J] !RunPeriod [Value,Min,Month,Day,Hour,Minute,Max,Month,Day,Hour,Minute]
170,11,gas_dryer:InteriorEquipment:Electricity [J] !RunPeriod [Value,Min,Month,Day,Hour,Minute,Max,Month,Day,Hour,Minute]
207,11,clotheswasher:InteriorEquipment:Electricity [J] !RunPeriod [Value,Min,Month,Day,Hour,Minute,Max,Month,Day,Hour,Minute]
244,11,dishwasher:InteriorEquipment:Electricity [J] !RunPeriod [Value,Min,Month,Day,Hour,Minute,Max,Month,Day,Hour,Minute]
281,11,refrigerator:InteriorEquipment:Electricity [J] !RunPeriod [Value,Min,Month,Day,Hour,Minute,Max,Month,Day,Hour,Minute]
318,11,electric_mels:InteriorEquipment:Electricity [J] !RunPeriod [Value,Min,Month,Day,Hour,Minute,Max,Month,Day,Hour,Minute]
355,11,NaturalGas:Facility [J] !RunPeriod [Value,Min,Month,Day,Hour,Minute,Max,Month,Day,Hour,Minute]
403,11,InteriorEquipment:NaturalGas [J] !RunPeriod [Value,Min,Month,Day,Hour,Minute,Max,Month,Day,Hour,Minute]
476,11,gas_dryer:InteriorEquipment:NaturalGas [J] !RunPeriod [Value,Min,Month,Day,Hour,Minute,Max,Month,Day,Hour,Minute]
513,11,gas_mels:InteriorEquipment:NaturalGas [J] !RunPeriod [Value,Min,Month,Day,Hour,Minute,Max,Month,Day,Hour,Minute]
End of Data Dictionary
1,EXTREME_WINTER,  37.43,-105.87,  -7.00,2299.00
5,7
1038,6.0,0.0, 1,27, 1,15,0.25, 1,27, 6,15
1039,0.0,0.0, 1,27, 1,15,0.0, 1,27, 1,15
581,0.409751952169114,0.21354216056005892, 1,30,18,60,0.6140434537292548, 1,31,15,60
582,2.237273163578622,0.0, 1,30, 8,50,10.073666356276968, 1,31,15,52
583,0.06395998027283366,0.0004162641110050189, 1,27,15,60,0.09305071479477628, 1,27, 3,60
1115,1585173668.2412543,0.0, 1,27,15, 5,4105565.4686060795, 2, 1,14,30
1128,654410352.8348333,0.0, 1,27,15, 5,1455669.8055340245, 2, 1,14,30
1153,8485637.957805961,0.0, 1,27,15, 5,47708.55881076482, 2, 1, 1,15
1154,32303638.921477705,0.0, 1,27, 1,15,180000.0, 1,27,15,60
1155,1202840650.144731,0.0, 1,27,11,17,6674387.117429537, 2, 2, 4,30
1156,1202840650.144731,0.0, 1,27,11,17,6674387.117429537, 2, 2, 4,30
1292,-25401775.084650822,-40006.68658382901, 2, 2, 6,15,-3352.758258737769, 1,28,10,60
1306,261492659.70783108,0.0, 1,27, 1,15,8513385.85657961, 1,29, 7,60
1307,9307605.175622772,0.0, 1,27, 1,15,3983118.9183177818, 2, 2,19,60
1308,261492659.70783108,0.0, 1,27, 1,15,8513385.85657961, 1,29, 7,60
13,2610059800.089605,452017.0388981225, 1,27,15,15,17878740.616427213, 2, 2, 9,45
61,301924526.02383536,88139.10953165221, 1,27, 1,15,1282023.4113694867, 1,27,20,15
134,70666020.44019976,63564.01800854099, 1,27, 4,15,156554.22484006523, 2, 1,20,15
170,5241013.419656067,348.4159749238097, 1,27, 4,15,17476.39704006126, 2, 1,12,15
207,6509451.13922267,815.2532113832032, 1,27, 3,15,22990.642799023623, 2, 1,10,15
244,12749673.399825225,1521.856143006317, 1,27, 4,15,53038.631142310165, 2, 1,20,15
281,46165882.481495745,59938.60262432081, 1,27, 5,15,81951.81706819107, 1,27,19,15
318,0.0,0.0, 1,27, 1,15,0.0, 1,27, 1,15
355,197687796.27748066,18561.32405820678, 1,27, 4,15,724774.895203776, 2, 1,18,15
403,197687796.27748066,18561.32405820678, 1,27, 4,15,724774.895203776, 2, 1,18,15
476,106772067.24485716,7098.072629279515, 1,27, 4,15,356036.3026282215, 2, 1,12,15
513,0.0,0.0, 1,27, 1,15,0.0, 1,27, 1,15
562,77936314.05889411,0.0, 1,27,15,15,158444.28851643158, 1,28,10,45
1046,0.0,0.0, 1,27, 1,15,0.0, 1,27, 1,15
1096,0.0,0.0, 1,27, 1,15,0.0, 1,27, 1,15
1134,1898040279.8588467,179999.99999999997, 1,27,17,30,7916655.591639161, 1,27, 6,30
1326,261492659.70783108,0.0, 1,27, 1,15,10161269.270582035, 2, 2,19,60
1379,0.0,0.0, 1,27, 1,15,0.0, 1,27, 1,15
1,EXTREME_SUMMER,  37.43,-105.87,  -7.00,2299.00
5,7
1038,0.0,0.0, 7,27, 1,15,0.0, 7,27, 1,15
1039,0.0,0.0, 7,27, 1,15,0.0, 7,27, 1,15
581,0.18613354728076853,0.03199719582092836, 8, 1, 6,60,0.5793999962756997, 7,27,21,52
582,2.8218663054166826,0.0, 7,27, 2,22,22.344265436694076, 8, 2,14,46
583,0.024847611853341996,0.00008792996229908566, 7,27, 3,60,0.06614355576947423, 8, 1,18,24
1115,0.0,0.0, 7,27, 1,15,0.0, 7,27, 1,15
1128,0.0,0.0, 7,27, 1,15,0.0, 7,27, 1,15
1153,0.0,0.0, 7,27, 1,15,0.0, 7,27, 1,15
1154,6480000.0,0.0, 7,27, 1,15,180000.0, 7,27, 6,45
1155,0.0,0.0, 7,27, 1,15,0.0, 7,27, 1,15
1156,0.0,0.0, 7,27, 1,15,0.0, 7,27, 1,15
1292,-22353925.9800777,-36454.37971471216, 7,29, 6,60,-2720.160111770954, 7,31, 8,60
1306,210916436.74363956,0.0, 7,27, 1,15,3664101.083158377, 7,29, 6,45
1307,4080746.4716151967,0.0, 7,27, 1,15,615131.9981961312, 8, 2,19,49
1308,210916436.74363956,0.0, 7,27, 1,15,3664101.083158377, 7,29, 6,45
13,901831360.9433647,151703.1275401932, 7,27, 4,15,12125135.840783624, 8, 2,19,60
61,301924526.02383536,88139.10953165221, 7,27, 1,15,1282023.4113694867, 7,27,20,15
134,70666020.44019976,63564.01800854099, 7,27, 4,15,156554.22484006523, 8, 1,20,15
170,5241013.419656067,348.4159749238097, 7,27, 4,15,17476.39704006126, 8, 1,12,15
207,6509451.13922267,815.2532113832032, 7,27, 3,15,22990.642799023623, 8, 1,10,15
244,12749673.399825225,1521.856143006317, 7,27, 4,15,53038.631142310165, 8, 1,20,15
281,46165882.481495745,59938.60262432081, 7,27, 5,15,81951.81706819107, 7,27,19,15
318,0.0,0.0, 7,27, 1,15,0.0, 7,27, 1,15
355,197687796.27748066,18561.32405820678, 7,27, 4,15,724774.895203776, 8, 1,18,15
403,197687796.27748066,18561.32405820678, 7,27, 4,15,724774.895203776, 8, 1,18,15
476,106772067.24485716,7098.072629279515, 7,27, 4,15,356036.3026282215, 8, 1,12,15
513,0.0,0.0, 7,27, 1,15,0.0, 7,27, 1,15
562,33252205.418540973,0.0, 7,27, 1,15,137881.93287018768, 8, 1,18,30
1046,0.0,0.0, 7,27, 1,15,0.0, 7,27, 1,15
1096,278592172.3171499,0.0, 7,27, 1,15,1305043.5445837355, 8, 1,18,30
1134,6480000.0,0.0, 7,27, 1,15,180000.0, 7,27, 5,60
1326,210916436.74363953,0.0, 7,27, 1,15,9992356.951570287, 8, 2,19,60
1379,0.0,0.0, 7,27, 1,15,0.0, 7,27, 1,15
1,ANNUAL,  37.43,-105.87,  -7.00,2299.00
5,365
1038,20.5,0.0, 1, 1, 1,15,0.25, 1, 5, 6,15
1039,21.0,0.0, 1, 1, 1,15,0.25, 4,25,14,30
581,0.3007571050348115,0.03578759289054319, 7, 1, 6,50,1.4360500102414429, 4, 5,13,60
582,3.777430948389595,0.0, 1, 9, 9,47,34.27439449271254, 3,30,19,60
583,0.028430179947560415,0.0, 5,15, 8,17,0.1004219335118035,12,25,11,60
1115,29294222774.504696,0.0, 1, 1,12,48,4968333.261677423, 2,27, 6,45
1128,10586939925.873657,0.0, 1, 1,12,48,1528351.4556884246, 2,17, 6,45
1153,278578444.698887,0.0, 1, 1,12,48,139182.12109069838, 3, 2, 6,45
1154,2415296289.5077643,0.0, 1, 1, 4,45,180000.0, 1, 1,13,60
1155,8973980397.317831,0.0, 1, 1, 1,15,6674387.117429537, 1,27, 6,15
1156,8973980397.317831,0.0, 1, 1, 1,15,6674387.117429537, 1,27, 6,15
1292,-1244940732.983673,-41649.882355610695, 2, 3, 7,15,-2139.1855911702114, 6, 5,13,39
1306,12364827253.435339,0.0, 1, 1, 1,15,10136222.887285454, 3,26,19,60
1307,349279954.8976162,0.0, 1, 1, 1,15,7440413.729133217, 3,26,19,60
1308,12364827253.435339,0.0, 1, 1, 1,15,10136222.887285454, 3,26,19,60
13,60505909003.67388,151703.1275401932, 5,26, 4,45,16747478.061926082, 1,27, 6,60
61,15743207428.383959,88139.10953165221, 1, 1, 1,15,1282023.4113694867, 1, 1,20,15
134,3685071073.4325233,63564.01800854099, 1, 2, 4,15,156554.22484006523, 1, 1,20,15
170,273393721.45532674,348.4159749238097, 1, 2, 4,15,17476.39704006126, 1, 1,12,15
207,339560869.0695816,815.2532113832032, 1, 2, 3,15,22990.642799023623, 1, 1,10,15
244,664895467.8009144,1521.856143006317, 1, 2, 4,15,53038.631142310165, 1, 1,20,15
281,2407221015.106824,59938.60262432081, 1, 1, 5,15,81951.81706819107, 1, 1,19,15
318,0.0,0.0, 1, 1, 1,15,0.0, 1, 1, 1,15
355,10310294493.051695,18561.32405820678, 1, 2, 4,15,724774.895203776, 1, 1,18,15
403,10310294493.051695,18561.32405820678, 1, 2, 4,15,724774.895203776, 1, 1,18,15
476,5569688622.066177,7098.072629279515, 1, 2, 4,15,356036.3026282215, 1, 1,12,15
513,0.0,0.0, 1, 1, 1,15,0.0, 1, 1, 1,15
562,1809917109.2434752,0.0, 1, 1,12,60,158444.28851643158, 1,24,11,30
1046,0.0,0.0, 1, 1, 1,15,0.0, 1, 1, 1,15
1096,4648091081.779718,0.0, 1, 1, 1,15,1516205.2687008108, 7, 1,18,30
1134,22254795057.398132,0.0, 3, 5,14,45,7942174.727563724, 2, 3, 9,15
1326,12364827253.435368,0.0, 1, 1, 1,15,10540800.0,10,22,19,60
1379,0.0,0.0, 1, 1, 1,15,0.0, 1, 1, 1,15
End of Data
 Number of Records Written=          99
