Program Version,EnergyPlus, Version 22.2.0-c249759bad, YMD=2023.09.01 14:30
1,5,Environment Title[],Latitude[deg],Longitude[deg],Time Zone[],Elevation[m]
2,8,Day of Simulation[],Month[],Day of Month[],DST Indicator[1=yes 0=no],Hour[],StartMinute[],EndMinute[],DayType
3,5,Cumulative Day of Simulation[],Month[],Day of Month[],DST Indicator[1=yes 0=no],DayType  ! When Daily Report Variables Requested
4,2,Cumulative Days of Simulation[],Month[]  ! When Monthly Report Variables Requested
5,1,Cumulative Days of Simulation[] ! When Run Period Report Variables Requested
6,1,Calendar Year of Simulation[] ! When Annual Report Variables Requested
7,1,Environment,Site Outdoor Air Drybulb Temperature [C] !Hourly
619,1,DX_HEATING_COIL,Heating Coil Heating Rate [W] !Hourly
633,1,DX_HEATING_COIL,Heating Coil Electricity Rate [W] !Hourly
659,1,DX_HEATING_COIL,Heating Coil Defrost Electricity Rate [W] !Hourly
661,1,DX_HEATING_COIL,Heating Coil Crankcase Heater Electricity Rate [W] !Hourly
690,1,FAN,Fan Electricity Rate [W] !Hourly
716,1,HEAT PUMP WATER HEATER FAN,Fan Electricity Rate [W] !Hourly
718,1,LIVING,Zone Mean Air Temperature [C] !Hourly
719,1,ATTIC,Zone Mean Air Temperature [C] !Hourly
720,1,CRAWLSPACE,Zone Mean Air Temperature [C] !Hourly
843,1,LIVING,Zone Predicted Sensible Load to Heating Setpoint Heat Transfer Rate [W] !Hourly
844,1,LIVING,Zone System Predicted Sensible Load to Heating Setpoint Heat Transfer Rate [W] !Hourly
907,1,ATTIC,Zone Predicted Sensible Load to Heating Setpoint Heat Transfer Rate [W] !Hourly
908,1,ATTIC,Zone System Predicted Sensible Load to Heating Setpoint Heat Transfer Rate [W] !Hourly
971,1,CRAWLSPACE,Zone Predicted Sensible Load to Heating Setpoint Heat Transfer Rate [W] !Hourly
972,1,CRAWLSPACE,Zone System Predicted Sensible Load to Heating Setpoint Heat Transfer Rate [W] !Hourly
1195,1,HEATING_RESISTANCE_BACKUP,Heating Coil Heating Rate [W] !Hourly
1197,1,HEATING_RESISTANCE_BACKUP,Heating Coil Electricity Rate [W] !Hourly
End of Data Dictionary
1,EXTREME_WINTER,  39.18, -76.67,  -5.00,  47.60
2,1, 1, 6, 0, 1, 0.00,60.00,Monday
7,-1.7
718,18.433136622234866
719,-0.2524091439102174
720,18.23322732946842
619,2626.911119570044
633,844.4052098583825
659,4.138500176723447
661,79.93085097825026
690,88.15938401891661
716,0.0
843,1823.4302237591637
844,1823.4302237591637
907,0.0
908,0.0
971,0.0
972,0.0
1195,0.0
1197,0.0
2,1, 1, 6, 0, 2, 0.00,60.00,Monday
7,-1.7
718,18.536302476208913
719,0.1481122522917003
720,17.789847801864337
619,3338.4550146566453
633,1050.398089807199
659,5.163417006309553
661,50.195225439651466
690,109.9924970128984
716,0.0
843,2339.737542639343
844,2339.737542639343
907,0.0
908,0.0
971,0.0
972,0.0
1195,0.0
1197,0.0
2,1, 1, 6, 0, 3, 0.00,60.00,Monday
7,-2.2
718,18.56539066559603
719,0.10098653129444922
720,17.578534671584492
619,3809.8592441274955
633,1197.323961470053
659,8.975732358223732
661,28.178908512342705
690,126.08836208008539
716,0.0
843,2657.656691402184
844,2657.656691402184
907,0.0
908,0.0
971,0.0
972,0.0
1195,0.0
1197,0.0
2,1, 1, 6, 0, 4, 0.00,60.00,Monday
7,-2.2
718,18.600434287606422
719,0.35934131610461667
720,17.35229666405639
619,3970.8934939171686
633,1243.508343747269
659,9.320537011263145
661,21.613709433920427
690,130.90608169758542
716,0.0
843,2761.1960753134954
844,2761.1960753134954
907,0.0
908,0.0
971,0.0
972,0.0
1195,0.0
1197,0.0
2,1, 1, 6, 0, 5, 0.00,60.00,Monday
7,-2.2
718,18.62298957995094
719,0.27125768420393503
720,17.16212217490581
619,3832.38886035616
633,1205.3896962668634
659,18.636778795452337
661,25.289840630629868
690,128.01441384114474
716,0.0
843,2657.0456967605733
844,2657.0456967605733
907,0.0
908,0.0
971,0.0
972,0.0
1195,0.0
1197,0.0
2,1, 1, 6, 0, 6, 0.00,60.00,Monday
7,-2.2
718,19.344087785336292
719,0.42669919148844576
720,16.972626565255855
619,4497.619753714505
633,1389.0499695870687
659,14.831048679218231
661,0.0
690,146.97629971467094
716,0.0
843,3718.707215674698
844,3718.707215674698
907,0.0
908,0.0
971,0.0
972,0.0
1195,712.6808664786331
1197,712.6808664786331
2,1, 1, 6, 0, 7, 0.00,60.00,Monday
7,-2.2
718,19.56317062949327
719,0.6129424609596874
720,16.839868287673454
619,4452.24584573763
633,1399.5678293893677
659,21.324265791874513
661,0.0
690,146.97629971467094
716,85.44000000000005
843,3550.3191932970913
844,3550.3191932970913
907,0.0
908,0.0
971,0.0
972,0.0
1195,1762.0384704248618
1197,1762.0384704248618
2,1, 1, 6, 0, 8, 0.00,60.00,Monday
7,-2.2
718,19.646374310887115
719,0.6087775185579068
720,16.690911658584415
619,4447.31582905266
633,1405.4188739081485
659,21.324265791874513
661,0.0
690,146.97629971467094
716,79.90709849443442
843,3309.938584217398
844,3309.938584217398
907,0.0
908,0.0
971,0.0
972,0.0
1195,1483.5729360310006
1197,1483.5729360310006
2,1, 1, 6, 0, 9, 0.00,60.00,Monday
7,-0.6
718,19.713211427475688
719,1.5329333790167963
720,16.565807840719714
619,4301.549718636425
633,1334.7694045995017
659,8.284417713915179
661,15.210798689253568
690,135.66578742622113
716,0.0
843,2950.2218065697543
844,2950.2218065697543
907,0.0
908,0.0
971,0.0
972,0.0
1195,0.0
1197,0.0
2,1, 1, 6, 0,10, 0.00,60.00,Monday
7,0.6
718,19.72692732325283
719,2.669962779214868
720,16.43928202572928
619,4013.699950946798
633,1232.0756162054483
659,2.0025547186707975
661,32.5062139472303
690,123.0620049767036
716,0.0
843,2805.0789855663243
844,2805.0789855663243
907,0.0
908,0.0
971,0.0
972,0.0
1195,0.0
1197,0.0
2,1, 1, 6, 0,11, 0.00,60.00,Monday
7,0.6
718,19.669451339416966
719,3.5272709112802936
720,16.31628421462223
619,4203.173009303758
633,1284.7970697670019
659,2.0878433149026434
661,25.3552409129731
690,128.31601140565803
716,0.0
843,2977.8440203410846
844,2977.8440203410846
907,0.0
908,0.0
971,0.0
972,0.0
1195,0.0
1197,0.0
2,1, 1, 6, 0,12, 0.00,60.00,Monday
7,1.1
718,19.688215051116607
719,3.971337792556483
720,16.20650748582051
619,3973.0845767203828
633,1209.6197896618753
659,0.05788872422515175
661,36.475643177021944
690,120.17033835417533
716,0.0
843,2849.619482303542
844,2849.619482303542
907,0.0
908,0.0
971,0.0
972,0.0
1195,0.0
1197,0.0
2,1, 1, 6, 0,13, 0.00,60.00,Monday
7,1.7
718,19.78825335851005
719,4.576270340232566
720,16.112847827235022
619,3140.3734671919997
633,965.7291252665127
659,0.045949922307474765
661,70.20043036065154
690,95.3868188367293
716,0.0
843,2273.469267788001
844,2273.469267788001
907,0.0
908,0.0
971,0.0
972,0.0
1195,0.0
1197,0.0
2,1, 1, 6, 0,14, 0.00,60.00,Monday
7,1.7
718,19.7287042960841
719,5.128989090097497
720,16.049008783615125
619,3768.9714154450485
633,1145.1829047634176
659,0.054392276994268136
661,46.35242474802273
690,112.91218787290126
716,79.88872293898307
843,1856.623508475759
844,1856.623508475759
907,0.0
908,0.0
971,0.0
972,0.0
1195,0.0
1197,0.0
2,1, 1, 6, 0,15, 0.00,60.00,Monday
7,2.8
718,19.762033375194985
719,5.494830405115431
720,15.97244016736073
619,2062.2001788054963
633,639.3729615041981
659,0.030091660182010514
661,114.99692828157175
690,62.46693843981546
716,0.0
843,1514.7478211459093
844,1514.7478211459093
907,0.0
908,0.0
971,0.0
972,0.0
1195,0.0
1197,0.0
2,1, 1, 6, 0,16, 0.00,60.00,Monday
7,1.7
718,20.14233406492486
719,5.5503307423909725
720,15.930576887119607
619,1447.9974196197372
633,463.95347236793793
659,0.022042570399968747
661,137.73403723044902
690,45.75787204796379
716,0.0
843,1068.091398192444
844,1068.091398192444
907,0.0
908,0.0
971,0.0
972,0.0
1195,0.0
1197,0.0
2,1, 1, 6, 0,17, 0.00,60.00,Monday
7,1.1
718,19.547001581073832
719,3.9029805056664917
720,15.899136960212426
619,1098.0576170463435
633,361.7393463200869
659,0.017151403328961992
661,151.5506303598688
690,35.60434163152624
716,0.0
843,802.7020368951253
844,802.7020368951253
907,0.0
908,0.0
971,0.0
972,0.0
1195,0.0
1197,0.0
2,1, 1, 6, 0,18, 0.00,60.00,Monday
7,0.6
718,19.78301666618735
719,3.0904933361528935
720,15.875145647844334
619,1786.2651383574332
633,575.284115310177
659,0.9374013376358383
661,121.51039950772302
690,57.66835842633055
716,0.0
843,1296.0581467094125
844,1296.0581467094125
907,0.0
908,0.0
971,0.0
972,0.0
1195,0.0
1197,0.0
2,1, 1, 6, 0,19, 0.00,60.00,Monday
7,-0.6
718,19.84350505029427
719,2.3498293653021807
720,15.85604104936406
619,2963.9133461774272
633,952.2680602005928
659,9.222215848117617
661,67.78501233731637
690,97.01426169123884
716,85.44000000000005
843,1087.7402202597405
844,1087.7402202597405
907,0.0
908,0.0
971,0.0
972,0.0
1195,0.0
1197,0.0
2,1, 1, 6, 0,20, 0.00,60.00,Monday
7,-0.6
718,19.762426920752656
719,1.689524809518593
720,15.804283689569049
619,2860.9020268855666
633,922.8549406468879
659,8.926787180133436
661,72.02044754464829
690,93.90641889941163
716,85.44000000000005
843,971.0826525389384
844,971.0826525389384
907,0.0
908,0.0
971,0.0
972,0.0
1195,0.0
1197,0.0
2,1, 1, 6, 0,21, 0.00,60.00,Monday
7,-1.7
718,19.672091965151402
719,0.48767615174649037
720,15.732123855689476
619,2379.1924822155847
633,790.683094811711
659,12.714106868189273
661,88.15735092085359
690,81.94931211602102
716,35.697972019407246
843,1209.6456793723628
844,1209.6456793723628
907,0.0
908,0.0
971,0.0
972,0.0
1195,0.0
1197,0.0
2,1, 1, 6, 0,22, 0.00,60.00,Monday
7,-2.2
718,19.80026267379115
719,0.10740127110526758
720,15.660628890128198
619,2246.294143998678
633,754.447698578187
659,14.914560860304775
661,92.1016049399684
690,78.98773782553062
716,0.0
843,1509.0867219853462
844,1509.0867219853462
907,0.0
908,0.0
971,0.0
972,0.0
1195,0.0
1197,0.0
2,1, 1, 6, 0,23, 0.00,60.00,Monday
7,-1.7
718,18.837872090008723
719,-0.41977051287367045
720,15.575292341730055
619,1271.2199560400622
633,435.3581568071137
659,6.9908701181824116
661,138.4677515226603
690,45.08594094471259
716,0.0
843,821.9631337016217
844,821.9631337016217
907,0.0
908,0.0
971,0.0
972,0.0
1195,0.0
1197,0.0
2,1, 1, 6, 0,24, 0.00,60.00,Monday
7,-2.2
718,18.603422605002823
719,-0.5638942484722015
720,15.479443850279848
619,1963.2484754563777
633,651.1165454285881
659,16.17527162897211
661,104.7271865072024
690,69.68330098321914
716,0.0
843,1329.3548981692347
844,1329.3548981692347
907,0.0
908,0.0
971,0.0
972,0.0
1195,0.0
1197,0.0
2,2, 1, 7, 0, 1, 0.00,60.00,Tuesday
7,-2.2
718,18.57598285988459
719,-0.3146750102062735
720,15.388110888528349
619,2743.3532215871646
633,885.6035034271536
659,17.877623752213495
661,70.61531681225503
690,94.71910382882913
716,0.0
843,1863.4258553504278
844,1863.4258553504278
907,0.0
908,0.0
971,0.0
972,0.0
1195,0.0
1197,0.0
2,2, 1, 7, 0, 2, 0.00,60.00,Tuesday
7,-2.2
718,18.579398093409832
719,0.012733403287383867
720,15.295515438396865
619,3273.3014673843963
633,1041.4225931959854
659,21.0382561617763
661,47.74105630358032
690,111.46482467955997
716,0.0
843,2227.0133877185
844,2227.0133877185
907,0.0
908,0.0
971,0.0
972,0.0
1195,0.0
1197,0.0
2,2, 1, 7, 0, 3, 0.00,60.00,Tuesday
7,-3.9
718,18.548289669578715
719,-0.34324041474532835
720,15.192805725194413
619,3937.948999794096
633,1269.2211412013457
659,36.85718008474917
661,9.60770306754597
690,138.98083640751614
716,0.0
843,2649.899539085396
844,2649.899539085396
907,0.0
908,0.0
971,0.0
972,0.0
1195,0.0
1197,0.0
2,2, 1, 7, 0, 4, 0.00,60.00,Tuesday
7,-3.3
718,18.579616568304075
719,-0.5712440556239531
720,15.103934709278148
619,4263.479869877623
633,1343.2115066765143
659,35.60939560044778
661,0.0
690,146.57105866866294
716,0.0
843,2863.085014881388
844,2863.085014881388
907,0.0
908,0.0
971,0.0
972,0.0
1195,0.0
1197,0.0
2,2, 1, 7, 0, 5, 0.00,60.00,Tuesday
7,-3.3
718,18.603216502367697
719,-0.5212809855898829
720,15.012923167394487
619,4233.202112130192
633,1338.8439447348212
659,29.587247848622763
661,1.9073044094600755
690,144.8814882957169
716,0.0
843,2829.778821381842
844,2829.778821381842
907,0.0
908,0.0
971,0.0
972,0.0
1195,0.0
1197,0.0
2,2, 1, 7, 0, 6, 0.00,60.00,Tuesday
7,-4.4
718,19.362745233349326
719,-0.9075831912101312
720,14.913403384593378
619,4138.452709479094
633,1330.6644650077387
659,36.65314192849747
661,0.0
690,146.97629971467094
716,0.0
843,3980.9125052529344
844,3980.9125052529344
907,0.0
908,0.0
971,0.0
972,0.0
1195,1474.541194246955
1197,1474.541194246955
2,2, 1, 7, 0, 7, 0.00,60.00,Tuesday
7,-3.3
718,19.56066430800672
719,-0.5043503088870478
720,14.869180369426564
619,4282.026012008995
633,1372.3921128256688
659,29.854807895003198
661,0.0
690,146.97629971467094
716,85.44000000000005
843,3535.599669278601
844,3535.599669278601
907,0.0
908,0.0
971,0.0
972,0.0
1195,2061.460087621864
1197,2061.460087621864
2,2, 1, 7, 0, 8, 0.00,60.00,Tuesday
7,-3.3
718,19.652437027470388
719,-0.7548928982333829
720,14.783979346976789
619,4277.562516700864
633,1377.6583133198837
659,29.854807895003198
661,0.0
690,146.97629971467094
716,85.44000000000005
843,3274.991949829351
844,3274.991949829351
907,0.0
908,0.0
971,0.0
972,0.0
1195,1824.0790614904336
1197,1824.0790614904336
2,2, 1, 7, 0, 9, 0.00,60.00,Tuesday
7,-1.1
718,19.684263113237613
719,1.0092379731132706
720,14.724335762074494
619,4592.350404821184
633,1420.2458877998758
659,19.846874655800054
661,0.0
690,146.97629971467094
716,79.28362011646755
843,2789.23648779456
844,2789.23648779456
907,0.0
908,0.0
971,0.0
972,0.0
1195,865.3121458974315
1197,865.3121458974315
2,2, 1, 7, 0,10, 0.00,60.00,Tuesday
7,0.0
718,19.754748599054285
719,2.965186293827523
720,14.628068980782372
619,3422.277675335683
633,1072.2114007655105
659,7.513812245131848
661,51.983065080487044
690,108.66576192607832
716,0.0
843,2327.815597025423
844,2327.815597025423
907,0.0
908,0.0
971,0.0
972,0.0
1195,0.0
1197,0.0
2,2, 1, 7, 0,11, 0.00,60.00,Tuesday
7,1.7
718,19.889219015901084
719,5.234440553638926
720,14.547998409711361
619,1748.3970982925553
633,555.1528972315557
659,0.02641774187895983
661,125.37503102209652
690,54.84023111530024
716,0.0
843,1231.2075578424756
844,1231.2075578424756
907,0.0
908,0.0
971,0.0
972,0.0
1195,0.0
1197,0.0
2,2, 1, 7, 0,12, 0.00,60.00,Tuesday
7,2.2
718,20.052865353630402
719,8.434042735232874
720,14.49388669934859
619,447.2533500154648
633,145.73462180349296
659,0.006884389671075026
661,180.552941731748
690,14.291218281199829
716,0.0
843,321.12071470263254
844,321.12071470263254
907,0.0
908,0.0
971,0.0
972,0.0
1195,0.0
1197,0.0
2,2, 1, 7, 0,13, 0.00,60.00,Tuesday
7,3.3
718,20.303405063544343
719,12.003039979743106
720,14.486294280767988
619,0.0
633,0.0
659,0.0
661,200.0
690,0.0
716,0.0
843,-335.1091133518148
844,-335.1091133518148
907,0.0
908,0.0
971,0.0
972,0.0
1195,0.0
1197,0.0
2,2, 1, 7, 0,14, 0.00,60.00,Tuesday
7,3.3
718,20.54237577271275
719,12.846736474541991
720,14.51526130385686
619,0.0
633,0.0
659,0.0
661,200.0
690,0.0
716,0.0
843,-611.5630567735552
844,-611.5630567735552
907,0.0
908,0.0
971,0.0
972,0.0
1195,0.0
1197,0.0
2,2, 1, 7, 0,15, 0.00,60.00,Tuesday
7,2.2
718,20.19062341882478
719,10.606456581664403
720,14.554014213163958
619,0.0
633,0.0
659,0.0
661,200.0
690,0.0
716,0.0
843,-357.011983828128
844,-357.011983828128
907,0.0
908,0.0
971,0.0
972,0.0
1195,0.0
1197,0.0
2,2, 1, 7, 0,16, 0.00,60.00,Tuesday
7,1.7
718,20.79492234922537
719,8.452403994539123
720,14.601181227570265
619,0.0
633,0.0
659,0.0
661,200.0
690,0.0
716,0.0
843,-897.183640082465
844,-897.183640082465
907,0.0
908,0.0
971,0.0
972,0.0
1195,0.0
1197,0.0
2,2, 1, 7, 0,17, 0.00,60.00,Tuesday
7,0.0
718,20.653438044556058
719,6.418623316747433
720,14.646377992373747
619,0.0
633,0.0
659,0.0
661,200.0
690,0.0
716,0.0
843,-715.0091945022996
844,-715.0091945022996
907,0.0
908,0.0
971,0.0
972,0.0
1195,0.0
1197,0.0
2,2, 1, 7, 0,18, 0.00,60.00,Tuesday
7,-0.6
718,19.470759825009104
719,4.687496540490268
720,14.68298197929455
619,0.0
633,0.0
659,0.0
661,200.0
690,0.0
716,67.84413602815118
843,-356.08961844514306
844,-356.08961844514306
907,0.0
908,0.0
971,0.0
972,0.0
1195,0.0
1197,0.0
2,2, 1, 7, 0,19, 0.00,60.00,Tuesday
7,-1.1
718,19.719863982554134
719,2.210187158304561
720,14.706817411325105
619,20.395739493799162
633,7.074128086269434
659,0.09937872351108876
661,199.00087132243857
690,0.7325142271798225
716,0.0
843,14.804851433598742
844,14.804851433598742
907,0.0
908,0.0
971,0.0
972,0.0
1195,0.0
1197,0.0
2,2, 1, 7, 0,20, 0.00,60.00,Tuesday
7,-1.1
718,19.658432871621624
719,2.4418883584107136
720,14.761043036920155
619,1967.533767767226
633,652.1176882105093
659,9.119270328095514
661,108.31715098233705
690,67.21737187672636
716,85.44000000000005
843,201.9230913334177
844,201.9230913334177
907,0.0
908,0.0
971,0.0
972,0.0
1195,0.0
1197,0.0
2,2, 1, 7, 0,21, 0.00,60.00,Tuesday
7,-0.6
718,19.68012305535026
719,1.9517409470803455
720,14.743929775497724
619,2223.884982193758
633,724.834343998031
659,10.863325527920283
661,98.26439927652322
690,74.58818556495139
716,85.44000000000005
843,462.1000089249337
844,462.1000089249337
907,0.0
908,0.0
971,0.0
972,0.0
1195,0.0
1197,0.0
2,2, 1, 7, 0,22, 0.00,60.00,Tuesday
7,-0.6
718,19.738121983212313
719,1.4967983264277405
720,14.703135508592473
619,1675.9837666943856
633,554.2365992110515
659,8.307356650982577
661,122.24680450832585
690,57.005215806106285
716,38.69799696656243
843,724.8856363520645
844,724.8856363520645
907,0.0
908,0.0
971,0.0
972,0.0
1195,0.0
1197,0.0
2,2, 1, 7, 0,23, 0.00,60.00,Tuesday
7,-1.0
718,18.786735083783743
719,0.47006987157309416
720,14.633746092563547
619,485.88799534062974
633,167.59096487340838
659,4.948817174858005
661,175.96307797237478
690,17.577827654935383
716,0.0
843,322.62486192770666
844,322.62486192770666
907,0.0
908,0.0
971,0.0
972,0.0
1195,0.0
1197,0.0
2,2, 1, 7, 0,24, 0.00,60.00,Tuesday
7,-2.0
718,18.523983921190563
719,0.3685994191979532
720,14.59677789555797
619,1164.0108503348554
633,393.82041043615396
659,22.74150025070998
661,139.83633729876715
690,43.74343933137581
716,0.0
843,791.5840129604021
844,791.5840129604021
907,0.0
908,0.0
971,0.0
972,0.0
1195,0.0
1197,0.0
2,3, 1, 8, 0, 1, 0.00,60.00,Wednesday
7,-2.0
718,18.53206537382027
719,0.25037576652664595
720,14.550515134354862
619,1967.073920694089
633,647.0962701214652
659,44.927393180656864
661,99.17582530166717
690,73.15566934746738
716,0.0
843,1335.2279061670997
844,1335.2279061670997
907,0.0
908,0.0
971,0.0
972,0.0
1195,0.0
1197,0.0
2,3, 1, 8, 0, 2, 0.00,60.00,Wednesday
7,-2.2
718,18.53981983916256
719,0.5593010737042243
720,14.498002954123056
619,2675.3445631608392
633,866.3432166155179
659,63.39229961577932
661,64.16908588184218
690,98.45489811310303
716,0.0
843,1802.3949412120364
844,1802.3949412120364
907,0.0
908,0.0
971,0.0
972,0.0
1195,0.0
1197,0.0
2,3, 1, 8, 0, 3, 0.00,60.00,Wednesday
7,-2.0
718,18.57142081277717
719,0.8342322075676877
720,14.440413460264745
619,3112.216090073405
633,991.795332735058
659,68.85924575860736
661,45.46896375571647
690,112.12411352709972
716,0.0
843,2105.986692633034
844,2105.986692633034
907,0.0
908,0.0
971,0.0
972,0.0
1195,0.0
1197,0.0
2,3, 1, 8, 0, 4, 0.00,60.00,Wednesday
7,-2.0
718,18.585999465299892
719,1.0856109132701761
720,14.380545647044396
619,3404.326949336413
633,1076.978555683672
659,74.7353008580103
661,32.282166927844756
690,121.69194190934279
716,0.0
843,2306.7188017578774
844,2306.7188017578774
907,0.0
908,0.0
971,0.0
972,0.0
1195,0.0
1197,0.0
2,3, 1, 8, 0, 5, 0.00,60.00,Wednesday
7,-2.0
718,18.596911879347346
719,1.149862684810969
720,14.31757327259769
619,3526.3624828656034
633,1112.1856050870283
659,77.16289857583126
661,26.834253771284523
690,125.64473086218479
716,0.0
843,2395.28240458035
844,2395.28240458035
907,0.0
908,0.0
971,0.0
972,0.0
1195,0.0
1197,0.0
2,3, 1, 8, 0, 6, 0.00,60.00,Wednesday
7,-2.0
718,19.233393986650036
719,1.816367032799878
720,14.264831692333361
619,4193.411899307706
633,1284.5933378330608
659,89.12027956604689
661,0.0
690,146.97629971467094
716,68.50322155887847
843,3412.4061543703574
844,3412.4061543703574
907,0.0
908,0.0
971,0.0
972,0.0
1195,1574.1601381530527
1197,1574.1601381530527
2,3, 1, 8, 0, 7, 0.00,60.00,Wednesday
7,-3.9
718,19.505049415069553
719,1.263976726243338
720,14.216680402377873
619,3991.999568683599
633,1289.555947481813
659,82.09255795001293
661,0.0
690,146.97629971467094
716,85.44000000000005
843,3569.451373221211
844,3569.451373221211
907,0.0
908,0.0
971,0.0
972,0.0
1195,2341.0640201427696
1197,2341.0640201427696
2,3, 1, 8, 0, 8, 0.00,60.00,Wednesday
7,-3.9
718,19.63787274066713
719,0.9840710699831802
720,14.166736048597272
619,3986.2119522457724
633,1296.3571931445329
659,82.09255795001293
661,0.0
690,146.97629971467094
716,53.872745534803755
843,3353.179016737573
844,3353.179016737573
907,0.0
908,0.0
971,0.0
972,0.0
1195,1686.8165754227552
1197,1686.8165754227552
2,3, 1, 8, 0, 9, 0.00,60.00,Wednesday
7,-2.8
718,19.70151147585552
719,1.2121278927359338
720,14.120002523163288
619,4209.496433215687
633,1343.7040074183558
659,59.179325815828584
661,0.0
690,146.97629971467094
716,0.0
843,2799.8598114017423
844,2799.8598114017423
907,0.0
908,0.0
971,0.0
972,0.0
1195,26.132996717249625
1197,26.132996717249625
2,3, 1, 8, 0,10, 0.00,60.00,Wednesday
7,-2.0
718,19.73293630947337
719,1.684862230662949
720,14.056363807911946
619,3795.842037258326
633,1219.642010905633
659,55.69108004538066
661,19.450264286371866
690,131.54161625019995
716,0.0
843,2517.7399616026014
844,2517.7399616026014
907,0.0
908,0.0
971,0.0
972,0.0
1195,0.0
1197,0.0
2,3, 1, 8, 0,11, 0.00,60.00,Wednesday
7,-3.0
718,19.664316413825418
719,0.9490394047652555
720,14.011172972221985
619,4156.542329297629
633,1345.3645655757257
659,20.289162192950386
661,7.367373675396505
690,141.10495021476711
716,0.0
843,2786.4084971157627
844,2786.4084971157627
907,0.0
908,0.0
971,0.0
972,0.0
1195,0.0
1197,0.0
2,3, 1, 8, 0,12, 0.00,60.00,Wednesday
7,-2.8
718,19.74101637548573
719,1.4286125902901925
720,13.955089485150491
619,3640.258042378108
633,1186.8012478202438
659,0.05889831217213062
661,33.62375411061511
690,122.2655538354685
716,0.0
843,2427.312560156606
844,2427.312560156606
907,0.0
908,0.0
971,0.0
972,0.0
1195,0.0
1197,0.0
2,3, 1, 8, 0,13, 0.00,60.00,Wednesday
7,-2.8
718,19.73827371597507
719,1.5162355108353478
720,13.924961813820536
619,3376.721205668247
633,1110.276034557737
659,0.055018861332797334
661,44.58244618441118
690,114.21229702771498
716,0.0
843,2267.1481474069897
844,2267.1481474069897
907,0.0
908,0.0
971,0.0
972,0.0
1195,0.0
1197,0.0
2,3, 1, 8, 0,14, 0.00,60.00,Wednesday
7,-2.8
718,19.765451238811863
719,1.934394986280927
720,13.874333154345525
619,2525.997649350176
633,848.8912801057272
659,0.04206394642628097
661,81.17755440522889
690,87.31950873412579
716,0.0
843,1694.600004293079
844,1694.600004293079
907,0.0
908,0.0
971,0.0
972,0.0
1195,0.0
1197,0.0
2,3, 1, 8, 0,15, 0.00,60.00,Wednesday
7,-2.8
718,19.71539177804002
719,2.9618679981318143
720,13.881896741211385
619,2867.889099196254
633,955.8587034452586
659,0.04734370579676188
661,66.26326381074274
690,98.2796308473481
716,69.38034918013113
843,1156.0684477845662
844,1156.0684477845662
907,0.0
908,0.0
971,0.0
972,0.0
1195,0.0
1197,0.0
2,3, 1, 8, 0,16, 0.00,60.00,Wednesday
7,-2.8
718,19.83735202535518
719,3.201899080911252
720,13.864039495458984
619,2278.4834915960823
633,770.2409352430802
659,0.038182704109293704
661,92.1413070540342
690,79.26253364591757
716,77.440651230302
843,681.2059371988234
844,681.2059371988234
907,0.0
908,0.0
971,0.0
972,0.0
1195,0.0
1197,0.0
2,3, 1, 8, 0,17, 0.00,60.00,Wednesday
7,-2.8
718,19.84967183660794
719,2.0490381787459717
720,13.831061420254514
619,820.0537831668908
633,289.1220436490173
659,0.014294786847893672
661,159.6200148386108
690,29.674195202440696
716,0.0
843,557.5609789738428
844,557.5609789738428
907,0.0
908,0.0
971,0.0
972,0.0
1195,0.0
1197,0.0
2,3, 1, 8, 0,18, 0.00,60.00,Wednesday
7,-3.9
718,19.40868022945876
719,-0.5370843046281704
720,13.875802464587231
619,1642.7001324928233
633,578.3900492063426
659,0.6225359919350393
661,118.34999168089477
690,59.987664864376676
716,0.0
843,1111.1233958560879
844,1111.1233958560879
907,0.0
908,0.0
971,0.0
972,0.0
1195,0.0
1197,0.0
2,3, 1, 8, 0,19, 0.00,60.00,Wednesday
7,-4.4
718,19.535599681967206
719,-1.3539125391450175
720,13.881207276671365
619,2494.3985916717793
633,856.9884503565214
659,2.85002378826544
661,77.07302874420945
690,90.26194380502942
716,0.0
843,1627.5192996275782
844,1627.5192996275782
907,0.0
908,0.0
971,0.0
972,0.0
1195,0.0
1197,0.0
2,3, 1, 8, 0,20, 0.00,60.00,Wednesday
7,-4.4
718,19.262908491471638
719,-1.3242977330580055
720,13.91316836588714
619,4252.5511835527295
633,1397.3641354291158
659,4.636938109107097
661,0.0
690,146.97629971467094
716,85.44000000000005
843,1800.3669630666836
844,1800.3669630666836
907,0.0
908,0.0
971,0.0
972,0.0
1195,168.51665836227085
1197,168.51665836227085
2,3, 1, 8, 0,21, 0.00,60.00,Wednesday
7,-5.0
718,19.478402602821998
719,-1.82749829735321
720,13.84536090021509
619,4189.338082545264
633,1384.1260054601266
659,3.8110405976092783
661,0.0
690,146.97629971467094
716,85.44000000000005
843,2014.292084746634
844,2014.292084746634
907,0.0
908,0.0
971,0.0
972,0.0
1195,449.043709947292
1197,449.043709947292
2,3, 1, 8, 0,22, 0.00,60.00,Wednesday
7,-6.1
718,19.62326466913912
719,-2.076225423796341
720,13.80239394470765
619,4026.5346389212514
633,1368.149350099213
659,10.355712519943573
661,0.0
690,146.97629971467094
716,20.18941242722199
843,2325.0893947563764
844,2325.0893947563764
907,0.0
908,0.0
971,0.0
972,0.0
1195,64.08377108619106
1197,64.08377108619106
2,3, 1, 8, 0,23, 0.00,60.00,Wednesday
7,-6.7
718,18.962151372968663
719,-3.3593182209235835
720,13.712333353631566
619,3097.1079638870133
633,1098.5672539705859
659,11.110752047437588
661,38.50672582218999
690,118.30192047305158
716,0.0
843,1875.711457751746
844,1875.711457751746
907,0.0
908,0.0
971,0.0
972,0.0
1195,0.0
1197,0.0
2,3, 1, 8, 0,24, 0.00,60.00,Wednesday
7,-6.7
718,18.691779621941688
719,-2.9558476996049112
720,13.630091018200124
619,3725.1454069087476
633,1276.8455459844624
659,13.084444980083392
661,9.85476754597514
690,139.2925346926931
716,0.0
843,2266.855229822273
844,2266.855229822273
907,0.0
908,0.0
971,0.0
972,0.0
1195,0.0
1197,0.0
2,4, 1, 9, 0, 1, 0.00,60.00,Thursday
7,-5.6
718,18.626118031067872
719,-2.6519056014824343
720,13.550466440743964
619,4073.9870138061196
633,1342.9137886396413
659,17.775573283175763
661,0.0
690,146.97629971467094
716,0.0
843,2711.360131711801
844,2711.360131711801
907,0.0
908,0.0
971,0.0
972,0.0
1195,212.9552345735883
1197,212.9552345735883
2,4, 1, 9, 0, 2, 0.00,60.00,Thursday
7,-5.6
718,18.613703443042294
719,-2.392652316015569
720,13.462661020670568
619,4075.561935102417
633,1341.0877630688483
659,17.775573283175763
661,0.0
690,146.97629971467094
716,0.0
843,3075.723898572178
844,3075.723898572178
907,0.0
908,0.0
971,0.0
972,0.0
1195,622.8753931189758
1197,622.8753931189758
2,4, 1, 9, 0, 3, 0.00,60.00,Thursday
7,-3.9
718,18.612029909121077
719,-1.249843147433347
720,13.393079122293662
619,4260.680268780575
633,1353.7958023816977
659,22.26257545636349
661,0.0
690,146.97629971467094
716,0.0
843,3037.4449478738516
844,3037.4449478738516
907,0.0
908,0.0
971,0.0
972,0.0
1195,379.02424908619514
1197,379.02424908619514
2,4, 1, 9, 0, 4, 0.00,60.00,Thursday
7,-3.3
718,18.6106627237528
719,-0.6310030235981485
720,13.313209926167199
619,4326.10051669002
633,1358.0885350178257
659,24.02881073968388
661,0.0
690,146.97629971467094
716,0.0
843,3096.2163945060056
844,3096.2163945060056
907,0.0
908,0.0
971,0.0
972,0.0
1195,320.82107253681534
1197,320.82107253681534
2,4, 1, 9, 0, 5, 0.00,60.00,Thursday
7,-3.3
718,18.60976514354014
719,-0.5926342756997415
720,13.233875874174183
619,4377.146531659341
633,1373.8916646605335
659,12.265676759710612
661,0.0
690,146.97629971467094
716,0.0
843,3412.8690591754457
844,3412.8690591754457
907,0.0
908,0.0
971,0.0
972,0.0
1195,616.3419267362092
1197,616.3419267362092
2,4, 1, 9, 0, 6, 0.00,60.00,Thursday
7,-3.9
718,19.37571776627849
719,0.009291439420326926
720,13.157001281119756
619,4308.836895420806
633,1368.5205244030813
659,11.032957499985185
661,0.0
690,146.97629971467094
716,0.0
843,4455.9927414349495
844,4455.9927414349495
907,0.0
908,0.0
971,0.0
972,0.0
1195,1925.0213052855229
1197,1925.0213052855229
2,4, 1, 9, 0, 7, 0.00,60.00,Thursday
7,-4.4
718,19.5662972888885
719,-0.22478372206418787
720,13.123139784947519
619,4234.493000558998
633,1384.5157713178128
659,10.069855262647424
661,0.0
690,146.97629971467094
716,85.44000000000005
843,4383.584977129922
844,4383.584977129922
907,0.0
908,0.0
971,0.0
972,0.0
1195,3189.206436801492
1197,3189.206436801492
2,4, 1, 9, 0, 8, 0.00,60.00,Thursday
7,-4.4
718,19.654461771875244
719,-0.38518680201464695
720,13.061961762895674
619,4230.137088467401
633,1389.6180176299565
659,10.069855262647424
661,0.0
690,146.97629971467094
716,85.44000000000005
843,4107.284777678004
844,4107.284777678004
907,0.0
908,0.0
971,0.0
972,0.0
1195,2917.176812878298
1197,2917.176812878298
2,4, 1, 9, 0, 9, 0.00,60.00,Thursday
7,-3.3
718,19.6917359191909
719,1.000826180094015
720,13.016488205934664
619,4396.483359177675
633,1415.7369326436176
659,2.254744291875149
661,0.0
690,146.97629971467094
716,66.85045319114349
843,3113.4207818689265
844,3113.4207818689265
907,0.0
908,0.0
971,0.0
972,0.0
1195,1217.9808537186227
1197,1217.9808537186227
2,4, 1, 9, 0,10, 0.00,60.00,Thursday
7,-2.8
718,19.713099589464324
719,1.3847225420582774
720,12.966338641557078
619,4455.373127124737
633,1421.6374919328484
659,2.916643167376872
661,0.0
690,146.97629971467094
716,0.0
843,3224.0061381337746
844,3224.0061381337746
907,0.0
908,0.0
971,0.0
972,0.0
1195,341.58313963029923
1197,341.58313963029923
2,4, 1, 9, 0,11, 0.00,60.00,Thursday
7,-1.7
718,19.836543832035343
719,3.9877178395367174
720,12.843897935113894
619,1995.5636260839362
633,665.4644204819059
659,0.032713396243982285
661,107.59103518180173
690,67.909029057712
716,0.0
843,1323.5142548655003
844,1323.5142548655003
907,0.0
908,0.0
971,0.0
972,0.0
1195,0.0
1197,0.0
2,4, 1, 9, 0,12, 0.00,60.00,Thursday
7,-1.1
718,19.814044818282685
719,6.728655179312364
720,12.806841558725214
619,943.6830670660404
633,320.7951953019953
659,0.015650268346206305
661,155.79104394377953
690,32.48807620631368
716,0.0
843,653.4146254987972
844,653.4146254987972
907,0.0
908,0.0
971,0.0
972,0.0
1195,0.0
1197,0.0
2,4, 1, 9, 0,13, 0.00,60.00,Thursday
7,0.0
718,19.782951081628614
719,8.945282991724529
720,12.801988248194204
619,436.1244245059968
633,147.13947533180175
659,0.007112909701804112