Program Version,EnergyPlus, Version 22.2.0-c249759bad, YMD=2023.09.01 19:26
1,5,Environment Title[],Latitude[deg],Longitude[deg],Time Zone[],Elevation[m]
2,8,Day of Simulation[],Month[],Day of Month[],DST Indicator[1=yes 0=no],Hour[],StartMinute[],EndMinute[],DayType
3,5,Cumulative Day of Simulation[],Month[],Day of Month[],DST Indicator[1=yes 0=no],DayType  ! When Daily Report Variables Requested
4,2,Cumulative Days of Simulation[],Month[]  ! When Monthly Report Variables Requested
5,1,Cumulative Days of Simulation[] ! When Run Period Report Variables Requested
6,1,Calendar Year of Simulation[] ! When Annual Report Variables Requested
618,11,DX_HEATING_COIL,Heating Coil Heating Energy [J] !RunPeriod [Value,Min,Month,Day,Hour,Minute,Max,Month,Day,Hour,Minute]
631,11,DX_HEATING_COIL,Heating Coil Electricity Energy [J] !RunPeriod [Value,Min,Month,Day,Hour,Minute,Max,Month,Day,Hour,Minute]
656,11,DX_HEATING_COIL,Heating Coil Defrost Electricity Energy [J] !RunPeriod [Value,Min,Month,Day,Hour,Minute,Max,Month,Day,Hour,Minute]
657,11,DX_HEATING_COIL,Heating Coil Crankcase Heater Electricity Energy [J] !RunPeriod [Value,Min,Month,Day,Hour,Minute,Max,Month,Day,Hour,Minute]
684,11,HEAT PUMP WATER HEATER EVAPORATOR,Cooling Coil Total Water Heating Energy [J] !RunPeriod [Value,Min,Month,Day,Hour,Minute,Max,Month,Day,Hour,Minute]
685,11,HEAT PUMP WATER HEATER EVAPORATOR,Cooling Coil Water Heating Electricity Energy [J] !RunPeriod [Value,Min,Month,Day,Hour,Minute,Max,Month,Day,Hour,Minute]
712,11,LIVING,AFN Zone Infiltration Air Change Rate [ach] !RunPeriod [Value,Min,Month,Day,Hour,Minute,Max,Month,Day,Hour,Minute]
713,11,ATTIC,AFN Zone Infiltration Air Change Rate [ach] !RunPeriod [Value,Min,Month,Day,Hour,Minute,Max,Month,Day,Hour,Minute]
714,11,CRAWLSPACE,AFN Zone Infiltration Air Change Rate [ach] !RunPeriod [Value,Min,Month,Day,Hour,Minute,Max,Month,Day,Hour,Minute]
1157,11,Facility,Facility Heating Setpoint Not Met Time [hr] !RunPeriod [Value,Min,Month,Day,Hour,Minute,Max,Month,Day,Hour,Minute]
1158,11,Facility,Facility Cooling Setpoint Not Met Time [hr] !RunPeriod [Value,Min,Month,Day,Hour,Minute,Max,Month,Day,Hour,Minute]
1184,11,HEATING_RESISTANCE_BACKUP,Heating Coil Heating Energy [J] !RunPeriod [Value,Min,Month,Day,Hour,Minute,Max,Month,Day,Hour,Minute]
1185,11,HEATING_RESISTANCE_BACKUP,Heating Coil Electricity Energy [J] !RunPeriod [Value,Min,Month,Day,Hour,Minute,Max,Month,Day,Hour,Minute]
1321,11,WATER HEATER TANK,Water Heater Heat Loss Energy [J] !RunPeriod [Value,Min,Month,Day,Hour,Minute,Max,Month,Day,Hour,Minute]
1335,11,WATER HEATER TANK,Water Heater Heating Energy [J] !RunPeriod [Value,Min,Month,Day,Hour,Minute,Max,Month,Day,Hour,Minute]
1336,11,WATER HEATER TANK,Water Heater Unmet Demand Heat Transfer Energy [J] !RunPeriod [Value,Min,Month,Day,Hour,Minute,Max,Month,Day,Hour,Minute]
1337,11,WATER HEATER TANK,Water Heater Electricity Energy [J] !RunPeriod [Value,Min,Month,Day,Hour,Minute,Max,Month,Day,Hour,Minute]
13,11,Electricity:Facility [J] !RunPeriod [Value,Min,Month,Day,Hour,Minute,Max,Month,Day,Hour,Minute]
637,11,Heating:Electricity [J] !RunPeriod [Value,Min,Month,Day,Hour,Minute,Max,Month,Day,Hour,Minute]
599,11,Cooling:Electricity [J] !RunPeriod [Value,Min,Month,Day,Hour,Minute,Max,Month,Day,Hour,Minute]
692,11,Fans:Electricity [J] !RunPeriod [Value,Min,Month,Day,Hour,Minute,Max,Month,Day,Hour,Minute]
1374,11,Pumps:Electricity [J] !RunPeriod [Value,Min,Month,Day,Hour,Minute,Max,Month,Day,Hour,Minute]
677,11,WaterSystems:Electricity [J] !RunPeriod [Value,Min,Month,Day,Hour,Minute,Max,Month,Day,Hour,Minute]
61,11,InteriorLights:Electricity [J] !RunPeriod [Value,Min,Month,Day,Hour,Minute,Max,Month,Day,Hour,Minute]
1165,11,ExteriorLights:Electricity [J] !RunPeriod [Value,Min,Month,Day,Hour,Minute,Max,Month,Day,Hour,Minute]
134,11,InteriorEquipment:Electricity [J] !RunPeriod [Value,Min,Month,Day,Hour,Minute,Max,Month,Day,Hour,Minute]
170,11,gas_dryer:InteriorEquipment:Electricity [J] !RunPeriod [Value,Min,Month,Day,Hour,Minute,Max,Month,Day,Hour,Minute]
207,11,clotheswasher:InteriorEquipment:Electricity [J] !RunPeriod [Value,Min,Month,Day,Hour,Minute,Max,Month,Day,Hour,Minute]
244,11,dishwasher:InteriorEquipment:Electricity [J] !RunPeriod [Value,Min,Month,Day,Hour,Minute,Max,Month,Day,Hour,Minute]
281,11,refrigerator:InteriorEquipment:Electricity [J] !RunPeriod [Value,Min,Month,Day,Hour,Minute,Max,Month,Day,Hour,Minute]
318,11,electric_mels:InteriorEquipment:Electricity [J] !RunPeriod [Value,Min,Month,Day,Hour,Minute,Max,Month,Day,Hour,Minute]
355,11,NaturalGas:Facility [J] !RunPeriod [Value,Min,Month,Day,Hour,Minute,Max,Month,Day,Hour,Minute]
403,11,InteriorEquipment:NaturalGas [J] !RunPeriod [Value,Min,Month,Day,Hour,Minute,Max,Month,Day,Hour,Minute]
476,11,gas_dryer:InteriorEquipment:NaturalGas [J] !RunPeriod [Value,Min,Month,Day,Hour,Minute,Max,Month,Day,Hour,Minute]
513,11,gas_mels:InteriorEquipment:NaturalGas [J] !RunPeriod [Value,Min,Month,Day,Hour,Minute,Max,Month,Day,Hour,Minute]
End of Data Dictionary
1,EXTREME_WINTER,  25.79, -80.32,  -5.00,   8.80
5,7
1157,0.0,0.0, 1,15, 1,15,0.0, 1,15, 1,15
1158,0.0,0.0, 1,15, 1,15,0.0, 1,15, 1,15
618,4984933.061853757,0.0, 1,15, 1,15,1133826.1760364028, 1,18, 8,15
631,1297222.6311749164,0.0, 1,15, 1,15,296144.16796484886, 1,18, 8,15
656,0.0,0.0, 1,15, 1,15,0.0, 1,15, 1,15
657,0.0,0.0, 1,15, 1,15,0.0, 1,15, 1,15
684,259918302.4649975,0.0, 1,15, 1,15,1703514.965254258, 1,15, 7,60
685,66951714.1343345,0.0, 1,15, 1,15,410373.77305534226, 1,21, 8,60
712,0.22356428957426364,0.01418396055903148, 1,15,19,52,0.43774760047616273, 1,17,14,60
713,4.018109680982941,0.08547911091380372, 1,15,19,60,8.331679005443648, 1,16,12,60
714,0.013698656650885406,0.0006526143100305136, 1,19,10,18,0.06748846589700591, 1,15, 6, 3
1184,0.0,0.0, 1,15, 1,15,0.0, 1,15, 1,15
1185,0.0,0.0, 1,15, 1,15,0.0, 1,15, 1,15
1321,-128554250.20466942,-243274.78755330978, 1,17, 6,15,-17779.411353917832, 1,19,10,33
1335,0.0,0.0, 1,15, 1,15,0.0, 1,15, 1,15
1336,130589723.29059306,9845.594946040945, 1,19,10,35,1200578.250299581, 1,18, 7,15
1337,0.0,0.0, 1,15, 1,15,0.0, 1,15, 1,15
13,590087717.8260673,159353.1275401932, 1,16, 4,60,2189022.1575300004, 1,21,19,15
61,301924526.02383536,88139.10953165221, 1,15, 1,15,1282023.4113694867, 1,15,20,15
134,70666020.44019976,63564.01800854099, 1,15, 4,15,156554.22484006523, 1,20,20,15
170,5241013.419656067,348.4159749238097, 1,15, 4,15,17476.39704006126, 1,20,12,15
207,6509451.13922267,815.2532113832032, 1,15, 3,15,22990.642799023623, 1,20,10,15
244,12749673.399825225,1521.856143006317, 1,15, 4,15,53038.631142310165, 1,20,20,15
281,46165882.481495745,59938.60262432081, 1,15, 5,15,81951.81706819107, 1,15,19,15
318,0.0,0.0, 1,15, 1,15,0.0, 1,15, 1,15
355,197687796.27748066,18561.32405820678, 1,15, 4,15,724774.895203776, 1,20,18,15
403,197687796.27748066,18561.32405820678, 1,15, 4,15,724774.895203776, 1,20,18,15
476,106772067.24485716,7098.072629279515, 1,15, 4,15,356036.3026282215, 1,20,12,15
513,0.0,0.0, 1,15, 1,15,0.0, 1,15, 1,15
599,123923971.4446278,0.0, 1,15, 4,60,1020269.7337794879, 1,21,17,15
637,1297222.6311749164,0.0, 1,15, 1,15,296144.16796484886, 1,18, 8,15
677,72092514.13433446,7650.0, 1,15, 1,15,428130.5962944633, 1,15, 5,15
692,20183463.15189473,0.0, 1,15, 5,45,119384.4800548223, 1,21,17,15
1165,0.0,0.0, 1,15, 1,15,0.0, 1,15, 1,15
1374,0.0,0.0, 1,15, 1,15,0.0, 1,15, 1,15
1,EXTREME_SUMMER,  25.79, -80.32,  -5.00,   8.80
5,7
1157,0.0,0.0, 7,23, 1,15,0.0, 7,23, 1,15
1158,67.25,0.0, 7,23, 1,15,0.25, 7,23,11,60
618,0.0,0.0, 7,23, 1, 7,0.0, 7,23, 1, 7
631,0.0,0.0, 7,23, 1, 7,0.0, 7,23, 1, 7
656,0.0,0.0, 7,23, 1, 7,0.0, 7,23, 1, 7
657,0.0,0.0, 7,23, 1, 7,0.0, 7,23, 1, 7
684,222585232.77426356,0.0, 7,23, 1, 7,1573814.7435522445, 7,27, 7,15
685,57442807.04922805,0.0, 7,23, 1, 7,413853.7771063596, 7,23, 5,15
712,0.14317991679476152,0.0, 7,23, 3,15,0.35665423945968183, 7,27,11,60
713,5.398525243713967,0.176995752398406, 7,23, 1,60,12.766796187706962, 7,29,13,50
714,0.04882508698559442,0.0005079205891755453, 7,26,23, 3,0.06898567370613373, 7,28,18,50
1184,0.0,0.0, 7,23, 1, 7,0.0, 7,23, 1, 7
1185,0.0,0.0, 7,23, 1, 7,0.0, 7,23, 1, 7
1321,-126604319.19445547,-218710.69462620403, 7,28, 6,60,-22293.759158635352, 7,24, 9, 2
1335,0.0,0.0, 7,23, 1, 7,0.0, 7,23, 1, 7
1336,125708538.0053272,12370.022987823548, 7,24, 9,17,927364.1398838487, 7,24, 7,60
1337,0.0,0.0, 7,23, 1, 7,0.0, 7,23, 1, 7
13,1160401633.4048839,509732.28293213487, 7,23, 4,45,3297463.957746885, 7,29,20,60
61,301924526.02383536,88139.10953165221, 7,23, 1,15,1282023.4113694867, 7,23,20,15
134,70666020.44019976,63564.01800854099, 7,23, 4,15,156554.22484006523, 7,28,20,15
170,5241013.419656067,348.4159749238097, 7,23, 4,15,17476.39704006126, 7,28,12,15
207,6509451.13922267,815.2532113832032, 7,23, 3,15,22990.642799023623, 7,28,10,15
244,12749673.399825225,1521.856143006317, 7,23, 4,15,53038.631142310165, 7,28,20,15
281,46165882.481495745,59938.60262432081, 7,23, 5,15,81951.81706819107, 7,23,19,15
318,0.0,0.0, 7,23, 1,15,0.0, 7,23, 1,15
355,197687796.27748066,18561.32405820678, 7,23, 4,15,724774.895203776, 7,28,18,15
403,197687796.27748066,18561.32405820678, 7,23, 4,15,724774.895203776, 7,28,18,15
476,106772067.24485716,7098.072629279515, 7,23, 4,15,356036.3026282215, 7,28,12,15
513,0.0,0.0, 7,23, 1,15,0.0, 7,23, 1,15
599,656134901.0492166,56066.22419006277, 7,23, 4,60,1390296.9093959085, 7,23,17,60
637,0.0,0.0, 7,23, 1,15,0.0, 7,23, 1,15
677,62583607.04922802,7650.0, 7,23, 1,15,421503.7771063596, 7,23, 5,15
692,69092578.84240569,31623.701921222644, 7,23, 4,60,156643.7806811346, 7,23,16,15
1165,0.0,0.0, 7,23, 1,15,0.0, 7,23, 1,15
1374,0.0,0.0, 7,23, 1,15,0.0, 7,23, 1,15
1,ANNUAL,  25.79, -80.32,  -5.00,   8.80
5,365
1157,0.0,0.0, 1, 1, 1,15,0.0, 1, 1, 1,15
1158,1576.25,0.0, 1, 1, 1,15,0.25, 1, 4, 9,15
618,12373017.428653358,0.0, 1, 1, 1,15,1462290.492962483, 1,24, 6, 5
631,3340394.768505237,0.0, 1, 1, 1,15,373820.41289949795, 1,24, 6, 5
656,0.0,0.0, 1, 1, 1,15,0.0, 1, 1, 1,15
657,14426134.052676434,0.0, 1, 1, 1,15,180000.0, 1,24, 1,45
684,12645833779.461689,0.0, 1, 1, 1,15,1739523.8623571976, 1,14, 9,60
685,3272942986.327943,0.0, 1, 1, 1,15,424650.0728120213, 1,13, 4,45
712,0.1526925904039901,0.0, 1, 4, 5,52,0.8519570285116354, 5,26,15,47
713,4.1927018363450825,0.0, 1,25,20, 9,22.637467779511784, 5,26,15,46
714,0.038851563059281134,0.0, 2, 7,23, 3,0.08283668126152831, 6,24,19,50
1184,0.0,0.0, 1, 1, 1,15,0.0, 1, 1, 1,15
1185,0.0,0.0, 1, 1, 1,15,0.0, 1, 1, 1,15
1321,-6562402532.716922,-250541.43784367404, 1,24, 5,60,-12786.808189362517, 7, 1,13,30
1335,168722.43154673453,0.0, 1, 1, 1,15,90000.0, 1,15,20, 7
1336,6602882432.863998,6890.445637543321, 7,13,12,35,1405955.034971796, 3,17, 6,60
1337,168722.43154673453,0.0, 1, 1, 1,15,90000.0, 1,15,20, 7
13,49692913899.14009,159353.1275401932, 1,17, 4,15,3320612.2761321226, 7,23,20,60
61,15743207428.383959,88139.10953165221, 1, 1, 1,15,1282023.4113694867, 1, 1,20,15
134,3685071073.4325233,63564.01800854099, 1, 2, 4,15,156554.22484006523, 1, 1,20,15
170,273393721.45532674,348.4159749238097, 1, 2, 4,15,17476.39704006126, 1, 1,12,15
207,339560869.0695816,815.2532113832032, 1, 2, 3,15,22990.642799023623, 1, 1,10,15
244,664895467.8009144,1521.856143006317, 1, 2, 4,15,53038.631142310165, 1, 1,20,15
281,2407221015.106824,59938.60262432081, 1, 1, 5,15,81951.81706819107, 1, 1,19,15
318,0.0,0.0, 1, 1, 1,15,0.0, 1, 1, 1,15
355,10310294493.051695,18561.32405820678, 1, 2, 4,15,724774.895203776, 1, 1,18,15
403,10310294493.051695,18561.32405820678, 1, 2, 4,15,724774.895203776, 1, 1,18,15
476,5569688622.066177,7098.072629279515, 1, 2, 4,15,356036.3026282215, 1, 1,12,15
513,0.0,0.0, 1, 1, 1,15,0.0, 1, 1, 1,15
599,23911262759.276894,0.0, 1, 1, 4,60,1423378.3726303515, 8,21,14,60
637,17766528.82118167,0.0, 1, 1, 1,15,507912.8076723737, 1,24, 6,15
677,3541167708.7594824,7650.0, 1, 1, 1,15,432300.0728120213, 1,13, 4,45
692,2794438400.464723,0.0, 1, 1, 5,45,156643.78068113467, 8,20,10,60
1165,0.0,0.0, 1, 1, 1,15,0.0, 1, 1, 1,15
1374,0.0,0.0, 1, 1, 1,15,0.0, 1, 1, 1,15
End of Data
 Number of Records Written=         105
