Program Version,EnergyPlus, Version 22.2.0-c249759bad, YMD=2023.09.01 20:46
1,5,Environment Title[],Latitude[deg],Longitude[deg],Time Zone[],Elevation[m]
2,8,Day of Simulation[],Month[],Day of Month[],DST Indicator[1=yes 0=no],Hour[],StartMinute[],EndMinute[],DayType
3,5,Cumulative Day of Simulation[],Month[],Day of Month[],DST Indicator[1=yes 0=no],DayType  ! When Daily Report Variables Requested
4,2,Cumulative Days of Simulation[],Month[]  ! When Monthly Report Variables Requested
5,1,Cumulative Days of Simulation[] ! When Run Period Report Variables Requested
6,1,Calendar Year of Simulation[] ! When Annual Report Variables Requested
581,11,LIVING,AFN Zone Infiltration Air Change Rate [ach] !RunPeriod [Value,Min,Month,Day,Hour,Minute,Max,Month,Day,Hour,Minute]
582,11,ATTIC,AFN Zone Infiltration Air Change Rate [ach] !RunPeriod [Value,Min,Month,Day,Hour,Minute,Max,Month,Day,Hour,Minute]
583,11,CRAWLSPACE,AFN Zone Infiltration Air Change Rate [ach] !RunPeriod [Value,Min,Month,Day,Hour,Minute,Max,Month,Day,Hour,Minute]
1038,11,Facility,Facility Heating Setpoint Not Met Time [hr] !RunPeriod [Value,Min,Month,Day,Hour,Minute,Max,Month,Day,Hour,Minute]
1039,11,Facility,Facility Cooling Setpoint Not Met Time [hr] !RunPeriod [Value,Min,Month,Day,Hour,Minute,Max,Month,Day,Hour,Minute]
1115,11,DX_HEATING_COIL,Heating Coil Heating Energy [J] !RunPeriod [Value,Min,Month,Day,Hour,Minute,Max,Month,Day,Hour,Minute]
1128,11,DX_HEATING_COIL,Heating Coil Electricity Energy [J] !RunPeriod [Value,Min,Month,Day,Hour,Minute,Max,Month,Day,Hour,Minute]
1153,11,DX_HEATING_COIL,Heating Coil Defrost Electricity Energy [J] !RunPeriod [Value,Min,Month,Day,Hour,Minute,Max,Month,Day,Hour,Minute]
1154,11,DX_HEATING_COIL,Heating Coil Crankcase Heater Electricity Energy [J] !RunPeriod [Value,Min,Month,Day,Hour,Minute,Max,Month,Day,Hour,Minute]
1155,11,HEATING_RESISTANCE_BACKUP,Heating Coil Heating Energy [J] !RunPeriod [Value,Min,Month,Day,Hour,Minute,Max,Month,Day,Hour,Minute]
1156,11,HEATING_RESISTANCE_BACKUP,Heating Coil Electricity Energy [J] !RunPeriod [Value,Min,Month,Day,Hour,Minute,Max,Month,Day,Hour,Minute]
1292,11,WATER HEATER,Water Heater Heat Loss Energy [J] !RunPeriod [Value,Min,Month,Day,Hour,Minute,Max,Month,Day,Hour,Minute]
1306,11,WATER HEATER,Water Heater Heating Energy [J] !RunPeriod [Value,Min,Month,Day,Hour,Minute,Max,Month,Day,Hour,Minute]
1307,11,WATER HEATER,Water Heater Unmet Demand Heat Transfer Energy [J] !RunPeriod [Value,Min,Month,Day,Hour,Minute,Max,Month,Day,Hour,Minute]
1308,11,WATER HEATER,Water Heater Electricity Energy [J] !RunPeriod [Value,Min,Month,Day,Hour,Minute,Max,Month,Day,Hour,Minute]
13,11,Electricity:Facility [J] !RunPeriod [Value,Min,Month,Day,Hour,Minute,Max,Month,Day,Hour,Minute]
1134,11,Heating:Electricity [J] !RunPeriod [Value,Min,Month,Day,Hour,Minute,Max,Month,Day,Hour,Minute]
1096,11,Cooling:Electricity [J] !RunPeriod [Value,Min,Month,Day,Hour,Minute,Max,Month,Day,Hour,Minute]
562,11,Fans:Electricity [J] !RunPeriod [Value,Min,Month,Day,Hour,Minute,Max,Month,Day,Hour,Minute]
1379,11,Pumps:Electricity [J] !RunPeriod [Value,Min,Month,Day,Hour,Minute,Max,Month,Day,Hour,Minute]
1326,11,WaterSystems:Electricity [J] !RunPeriod [Value,Min,Month,Day,Hour,Minute,Max,Month,Day,Hour,Minute]
61,11,InteriorLights:Electricity [J] !RunPeriod [Value,Min,Month,Day,Hour,Minute,Max,Month,Day,Hour,Minute]
1046,11,ExteriorLights:Electricity [J] !RunPeriod [Value,Min,Month,Day,Hour,Minute,Max,Month,Day,Hour,Minute]
134,11,InteriorEquipment:Electricity [J] !RunPeriod [Value,Min,Month,Day,Hour,Minute,Max,Month,Day,Hour,Minute]
170,11,gas_dryer:InteriorEquipment:Electricity [J] !RunPeriod [Value,Min,Month,Day,Hour,Minute,Max,Month,Day,Hour,Minute]
207,11,clotheswasher:InteriorEquipment:Electricity [J] !RunPeriod [Value,Min,Month,Day,Hour,Minute,Max,Month,Day,Hour,Minute]
244,11,dishwasher:InteriorEquipment:Electricity [J] !RunPeriod [Value,Min,Month,Day,Hour,Minute,Max,Month,Day,Hour,Minute]
281,11,refrigerator:InteriorEquipment:Electricity [J] !RunPeriod [Value,Min,Month,Day,Hour,Minute,Max,Month,Day,Hour,Minute]
318,11,electric_mels:InteriorEquipment:Electricity [J] !RunPeriod [Value,Min,Month,Day,Hour,Minute,Max,Month,Day,Hour,Minute]
355,11,NaturalGas:Facility [J] !RunPeriod [Value,Min,Month,Day,Hour,Minute,Max,Month,Day,Hour,Minute]
403,11,InteriorEquipment:NaturalGas [J] !RunPeriod [Value,Min,Month,Day,Hour,Minute,Max,Month,Day,Hour,Minute]
476,11,gas_dryer:InteriorEquipment:NaturalGas [J] !RunPeriod [Value,Min,Month,Day,Hour,Minute,Max,Month,Day,Hour,Minute]
513,11,gas_mels:InteriorEquipment:NaturalGas [J] !RunPeriod [Value,Min,Month,Day,Hour,Minute,Max,Month,Day,Hour,Minute]
End of Data Dictionary
1,EXTREME_WINTER,  47.63,-117.53,  -8.00, 717.20
5,7
1038,1.0,0.0, 1, 1, 1,15,0.25, 1, 1, 6,15
1039,0.0,0.0, 1, 1, 1,15,0.0, 1, 1, 1,15
581,0.3751909403405483,0.2209560474044605, 1, 6,20,60,0.6598770896923993, 1, 7,21,60
582,1.6537412606141997,0.0, 1, 3,23,11,10.1046165707653, 1, 7,21,60
583,0.06704586933877964,0.0004257989687591355, 1, 3,23, 3,0.08500060696254111, 1, 1, 1,52
1115,2096767516.0490332,0.0, 1, 1,23, 5,4051382.733886363, 1, 4,12,60
1128,728358614.5836412,0.0, 1, 1,23, 5,1327503.0663615537, 1, 4,16,15
1153,36894265.03005738,0.0, 1, 1,23, 5,115016.28470295228, 1, 7, 6,60
1154,18139650.52292159,0.0, 1, 1, 1,15,120900.74048286717, 1, 6,23,60
1155,512183160.30520433,0.0, 1, 1,13,20,4296539.393411161, 1, 1, 7,60
1156,512183160.30520433,0.0, 1, 1,13,20,4296539.393411161, 1, 1, 7,60
1292,-25267797.201719902,-39763.972633362246, 1, 1, 1,15,-7286.702840168759, 1, 1,17,27
1306,274143533.06197184,0.0, 1, 1, 1,15,4050000.0, 1, 1, 8,45
1307,94061094.01599273,0.0, 1, 1, 1,15,14770256.132152021, 1, 1, 8,30
1308,274143533.06197184,0.0, 1, 1, 1,15,4050000.0, 1, 1, 8,45
13,2025376012.158243,980020.7369497553, 1, 7, 1,15,10130110.581512611, 1, 1, 8,45
61,301924526.02383536,88139.10953165221, 1, 1, 1,15,1282023.4113694867, 1, 1,20,15
134,70666020.44019976,63564.01800854099, 1, 1, 4,15,156554.22484006523, 1, 6,20,15
170,5241013.419656067,348.4159749238097, 1, 1, 4,15,17476.39704006126, 1, 6,12,15
207,6509451.13922267,815.2532113832032, 1, 1, 3,15,22990.642799023623, 1, 6,10,15
244,12749673.399825225,1521.856143006317, 1, 1, 4,15,53038.631142310165, 1, 6,20,15
281,46165882.481495745,59938.60262432081, 1, 1, 5,15,81951.81706819107, 1, 1,19,15
318,0.0,0.0, 1, 1, 1,15,0.0, 1, 1, 1,15
355,197687796.27748066,18561.32405820678, 1, 1, 4,15,724774.895203776, 1, 6,18,15
403,197687796.27748066,18561.32405820678, 1, 1, 4,15,724774.895203776, 1, 6,18,15
476,106772067.24485716,7098.072629279515, 1, 1, 4,15,356036.3026282215, 1, 6,12,15
513,0.0,0.0, 1, 1, 1,15,0.0, 1, 1, 1,15
562,83066242.19041209,16984.05691858087, 1, 6,23,15,146036.9168865445, 1, 1, 1,15
1046,0.0,0.0, 1, 1, 1,15,0.0, 1, 1, 1,15
1096,0.0,0.0, 1, 1, 1,15,0.0, 1, 1, 1,15
1134,1295575690.4418244,322492.79986716807, 1, 6,23,15,5899672.831185324, 1, 1, 6,15
1326,274143533.0619719,0.0, 1, 1, 1,15,4050000.0, 1, 1, 8,45
1379,0.0,0.0, 1, 1, 1,15,0.0, 1, 1, 1,15
1,EXTREME_SUMMER,  47.63,-117.53,  -8.00, 717.20
5,7
1038,0.0,0.0, 7,29, 1,15,0.0, 7,29, 1,15
1039,26.25,0.0, 7,29, 1,15,0.25, 7,30,15,45
581,0.14285736620080167,0.012570129027776737, 8, 3,23, 3,0.3894062271756754, 8, 2,19,48
582,3.3189744464268296,0.12816448811260184, 8, 4,21,37,10.035387306384104, 7,29,11,52
583,0.040697402055983455,0.00010366484684295938, 7,30, 6,11,0.0760787923156697, 8, 4, 6, 3
1115,0.0,0.0, 7,29, 1,15,0.0, 7,29, 1,15
1128,0.0,0.0, 7,29, 1,15,0.0, 7,29, 1,15
1153,0.0,0.0, 7,29, 1,15,0.0, 7,29, 1,15
1154,0.0,0.0, 7,29, 1,15,0.0, 7,29, 1,15
1155,0.0,0.0, 7,29, 1,15,0.0, 7,29, 1,15
1156,0.0,0.0, 7,29, 1,15,0.0, 7,29, 1,15
1292,-21969342.961752355,-34113.67107455435, 7,31,14,45,-3035.5275369418455, 7,30,12,45
1306,215957961.31904602,0.0, 7,29, 1,15,3223626.7843591603, 8, 3,15,60
1307,58865138.65410615,0.0, 7,29, 1,15,3839535.368445794, 7,29, 8,25
1308,215957961.31904602,0.0, 7,29, 1,15,3223626.7843591603, 8, 3,15,60
13,1153314874.8993797,182981.18991367926, 8, 3, 4,15,6464747.560564501, 7,29,18,30
61,301924526.02383536,88139.10953165221, 7,29, 1,15,1282023.4113694867, 7,29,20,15
134,70666020.44019976,63564.01800854099, 7,29, 4,15,156554.22484006523, 8, 3,20,15
170,5241013.419656067,348.4159749238097, 7,29, 4,15,17476.39704006126, 8, 3,12,15
207,6509451.13922267,815.2532113832032, 7,29, 3,15,22990.642799023623, 8, 3,10,15
244,12749673.399825225,1521.856143006317, 7,29, 4,15,53038.631142310165, 8, 3,20,15
281,46165882.481495745,59938.60262432081, 7,29, 5,15,81951.81706819107, 7,29,19,15
318,0.0,0.0, 7,29, 1,15,0.0, 7,29, 1,15
355,197687796.27748066,18561.32405820678, 7,29, 4,15,724774.895203776, 8, 3,18,15
403,197687796.27748066,18561.32405820678, 7,29, 4,15,724774.895203776, 8, 3,18,15
476,106772067.24485716,7098.072629279515, 7,29, 4,15,356036.3026282215, 8, 3,12,15
513,0.0,0.0, 7,29, 1,15,0.0, 7,29, 1,15
562,54488986.830650054,3493.767465010975, 8, 3, 4,15,146036.9168865445, 7,30,14,60
1046,0.0,0.0, 7,29, 1,15,0.0, 7,29, 1,15
1096,510277380.2856477,27415.622250255597, 8, 3, 4,15,1560533.6769559816, 8, 4,17,60
1134,0.0,0.0, 7,29, 1,15,0.0, 7,29, 1,15
1326,215957961.3190461,0.0, 7,29, 1,15,4050000.0, 7,29, 8,45
1379,0.0,0.0, 7,29, 1,15,0.0, 7,29, 1,15
1,ANNUAL,  47.63,-117.53,  -8.00, 717.20
5,365
1038,24.5,0.0, 1, 1, 1,15,0.25, 1, 1, 6,15
1039,155.75,0.0, 1, 1, 1,15,0.25, 6,17,19,30
581,0.29109906955811504,0.0, 7,25,23, 3,1.0120926927652194, 3,16,22,60
582,3.988399321313635,0.0, 1, 3,23,11,32.28019603443089, 4, 9,16,50
583,0.030074438570551417,0.0, 8,11,23, 3,0.08993332305374949,12, 3, 9,60
1115,32493105460.590874,0.0, 1, 1,23, 5,4554643.42626863, 2,23, 2,15
1128,10391547747.785353,0.0, 1, 1,23, 5,1396561.2805448775, 3, 5, 6,45
1153,581817822.1605504,0.0, 1, 1,23, 5,145401.83751351098, 1,21,17,60
1154,2031999373.9418232,0.0, 1, 1, 1,15,180000.0, 1,17,16,15
1155,3129142641.3309035,0.0, 1, 1,13,18,4652182.119751803,12, 7, 1,60
1156,3129142641.3309035,0.0, 1, 1,13,18,4652182.119751803,12, 7, 1,60
1292,-1237640960.1111414,-41110.02022532738,12, 7, 7,60,-1928.930481653513, 8,13,10,31
1306,13004778329.39419,0.0, 1, 1, 1,15,4050000.0, 1, 1, 9,45
1307,4110862357.528623,0.0, 1, 1, 1,15,15474567.355893776, 2,13, 8,30
1308,13004778329.39419,0.0, 1, 1, 1,15,4050000.0, 1, 1, 9,45
13,56852904882.99813,151703.1275401932, 4,28, 4,15,10741943.28292498,12, 7, 7,15
61,15743207428.383959,88139.10953165221, 1, 1, 1,15,1282023.4113694867, 1, 1,20,15
134,3685071073.4325233,63564.01800854099, 1, 2, 4,15,156554.22484006523, 1, 1,20,15
170,273393721.45532674,348.4159749238097, 1, 2, 4,15,17476.39704006126, 1, 1,12,15
207,339560869.0695816,815.2532113832032, 1, 2, 3,15,22990.642799023623, 1, 1,10,15
244,664895467.8009144,1521.856143006317, 1, 2, 4,15,53038.631142310165, 1, 1,20,15
281,2407221015.106824,59938.60262432081, 1, 1, 5,15,81951.81706819107, 1, 1,19,15
318,0.0,0.0, 1, 1, 1,15,0.0, 1, 1, 1,15
355,10310294493.051695,18561.32405820678, 1, 2, 4,15,724774.895203776, 1, 1,18,15
403,10310294493.051695,18561.32405820678, 1, 2, 4,15,724774.895203776, 1, 1,18,15
476,5569688622.066177,7098.072629279515, 1, 2, 4,15,356036.3026282215, 1, 1,12,15
513,0.0,0.0, 1, 1, 1,15,0.0, 1, 1, 1,15
562,1909384487.5326438,0.0, 1,15,23,15,146036.91688654452, 7, 5,18,30
1046,0.0,0.0, 1, 1, 1,15,0.0, 1, 1, 1,15
1096,6375955979.034632,0.0, 1, 1, 1,15,1623450.430117479, 8,11,17,60
1134,16134507585.218668,0.0, 3, 2,13,15,5932584.87006869, 1,11, 6,30
1326,13004778329.394243,0.0, 1, 1, 1,15,4050000.0000000014, 7, 1, 9,45
1379,0.0,0.0, 1, 1, 1,15,0.0, 1, 1, 1,15
End of Data
 Number of Records Written=          99
