Program Version,EnergyPlus, Version 22.2.0-c249759bad, YMD=2023.07.07 15:08
1,5,Environment Title[],Latitude[deg],Longitude[deg],Time Zone[],Elevation[m]
2,8,Day of Simulation[],Month[],Day of Month[],DST Indicator[1=yes 0=no],Hour[],StartMinute[],EndMinute[],DayType
3,5,Cumulative Day of Simulation[],Month[],Day of Month[],DST Indicator[1=yes 0=no],DayType  ! When Daily Report Variables Requested
4,2,Cumulative Days of Simulation[],Month[]  ! When Monthly Report Variables Requested
5,1,Cumulative Days of Simulation[] ! When Run Period Report Variables Requested
6,1,Calendar Year of Simulation[] ! When Annual Report Variables Requested
581,11,LIVING,AFN Zone Infiltration Air Change Rate [ach] !RunPeriod [Value,Min,Month,Day,Hour,Minute,Max,Month,Day,Hour,Minute]
582,11,ATTIC,AFN Zone Infiltration Air Change Rate [ach] !RunPeriod [Value,Min,Month,Day,Hour,Minute,Max,Month,Day,Hour,Minute]
583,11,CRAWLSPACE,AFN Zone Infiltration Air Change Rate [ach] !RunPeriod [Value,Min,Month,Day,Hour,Minute,Max,Month,Day,Hour,Minute]
1038,11,Facility,Facility Heating Setpoint Not Met Time [hr] !RunPeriod [Value,Min,Month,Day,Hour,Minute,Max,Month,Day,Hour,Minute]
1039,11,Facility,Facility Cooling Setpoint Not Met Time [hr] !RunPeriod [Value,Min,Month,Day,Hour,Minute,Max,Month,Day,Hour,Minute]
1115,11,DX_HEATING_COIL,Heating Coil Heating Energy [J] !RunPeriod [Value,Min,Month,Day,Hour,Minute,Max,Month,Day,Hour,Minute]
1128,11,DX_HEATING_COIL,Heating Coil Electricity Energy [J] !RunPeriod [Value,Min,Month,Day,Hour,Minute,Max,Month,Day,Hour,Minute]
1153,11,DX_HEATING_COIL,Heating Coil Defrost Electricity Energy [J] !RunPeriod [Value,Min,Month,Day,Hour,Minute,Max,Month,Day,Hour,Minute]
1154,11,DX_HEATING_COIL,Heating Coil Crankcase Heater Electricity Energy [J] !RunPeriod [Value,Min,Month,Day,Hour,Minute,Max,Month,Day,Hour,Minute]
1156,11,HEATING_RESISTANCE_BACKUP,Heating Coil Electricity Energy [J] !RunPeriod [Value,Min,Month,Day,Hour,Minute,Max,Month,Day,Hour,Minute]
13,11,Electricity:Facility [J] !RunPeriod [Value,Min,Month,Day,Hour,Minute,Max,Month,Day,Hour,Minute]
1134,11,Heating:Electricity [J] !RunPeriod [Value,Min,Month,Day,Hour,Minute,Max,Month,Day,Hour,Minute]
1096,11,Cooling:Electricity [J] !RunPeriod [Value,Min,Month,Day,Hour,Minute,Max,Month,Day,Hour,Minute]
562,11,Fans:Electricity [J] !RunPeriod [Value,Min,Month,Day,Hour,Minute,Max,Month,Day,Hour,Minute]
1388,11,Pumps:Electricity [J] !RunPeriod [Value,Min,Month,Day,Hour,Minute,Max,Month,Day,Hour,Minute]
1360,11,WaterSystems:Electricity [J] !RunPeriod [Value,Min,Month,Day,Hour,Minute,Max,Month,Day,Hour,Minute]
61,11,InteriorLights:Electricity [J] !RunPeriod [Value,Min,Month,Day,Hour,Minute,Max,Month,Day,Hour,Minute]
1046,11,ExteriorLights:Electricity [J] !RunPeriod [Value,Min,Month,Day,Hour,Minute,Max,Month,Day,Hour,Minute]
134,11,InteriorEquipment:Electricity [J] !RunPeriod [Value,Min,Month,Day,Hour,Minute,Max,Month,Day,Hour,Minute]
170,11,gas_dryer:InteriorEquipment:Electricity [J] !RunPeriod [Value,Min,Month,Day,Hour,Minute,Max,Month,Day,Hour,Minute]
207,11,clotheswasher:InteriorEquipment:Electricity [J] !RunPeriod [Value,Min,Month,Day,Hour,Minute,Max,Month,Day,Hour,Minute]
244,11,dishwasher:InteriorEquipment:Electricity [J] !RunPeriod [Value,Min,Month,Day,Hour,Minute,Max,Month,Day,Hour,Minute]
281,11,refrigerator:InteriorEquipment:Electricity [J] !RunPeriod [Value,Min,Month,Day,Hour,Minute,Max,Month,Day,Hour,Minute]
318,11,electric_mels:InteriorEquipment:Electricity [J] !RunPeriod [Value,Min,Month,Day,Hour,Minute,Max,Month,Day,Hour,Minute]
355,11,NaturalGas:Facility [J] !RunPeriod [Value,Min,Month,Day,Hour,Minute,Max,Month,Day,Hour,Minute]
1323,11,WaterSystems:NaturalGas [J] !RunPeriod [Value,Min,Month,Day,Hour,Minute,Max,Month,Day,Hour,Minute]
403,11,InteriorEquipment:NaturalGas [J] !RunPeriod [Value,Min,Month,Day,Hour,Minute,Max,Month,Day,Hour,Minute]
476,11,gas_dryer:InteriorEquipment:NaturalGas [J] !RunPeriod [Value,Min,Month,Day,Hour,Minute,Max,Month,Day,Hour,Minute]
513,11,gas_mels:InteriorEquipment:NaturalGas [J] !RunPeriod [Value,Min,Month,Day,Hour,Minute,Max,Month,Day,Hour,Minute]
End of Data Dictionary
1,EXTREME_WINTER,  37.43,-105.87,  -7.00,2299.00
5,7
1038,4.333333333333333,0.0, 1,27, 1,10,0.16666666666666666, 1,27, 6,10
1039,0.0,0.0, 1,27, 1,10,0.0, 1,27, 1,10
581,0.32083553696613315,0.21868162004745814, 1,30,18,60,0.5881339152529904, 1,31,15,55
582,2.1723023784800533,0.0, 1,28, 8,30,10.037048850635083, 1,31,15,55
583,2.8746554650685447,0.00032861959955941773, 1,27,15,60,13.685393502716193, 1,31,15,55
1115,1590435698.286818,0.0, 1,27,15, 3,2645189.3955736645, 2, 1, 1,40
1128,641526266.3506398,0.0, 1,27,15, 3,934141.2477634125, 2, 1, 8,60
1153,8395315.51613403,0.0, 1,27,15, 3,31431.26179344465, 2, 1, 1,30
1154,35312524.92255191,0.0, 1,27, 1,10,120000.0, 1,27,15,50
1156,1067300793.8333889,0.0, 1,27,11,12,4526190.588840245, 2, 2, 6,20
13,2208369693.5846004,306324.6925987483, 1,27,15,10,5878381.098116055, 2, 2, 7,60
61,301924526.0238348,58759.40635443481, 1,27, 1,10,854682.2742463244, 1,27,20,10
134,70666020.44019979,42376.01200569399, 1,27, 4,10,104369.48322671017, 2, 1,20,10
170,5241013.419656074,232.27731661587313, 1,27, 4,10,11650.931360040839, 2, 1,12,10
207,6509451.13922266,543.5021409221355, 1,27, 3,10,15327.095199349082, 2, 1,10,10
244,12749673.39982522,1014.5707620042115, 1,27, 4,10,35359.08742820678, 2, 1,20,10
281,46165882.48149605,39959.06841621388, 1,27, 5,10,54634.54471212738, 1,27,19,10
318,0.0,0.0, 1,27, 1,10,0.0, 1,27, 1,10
355,744874955.8123399,12374.216038804521, 1,27, 4,10,3829218.154066982, 1,28,18,60
403,197687796.27748126,12374.216038804521, 1,27, 4,10,483183.26346918393, 2, 1,18,10
476,106772067.24485692,4732.048419519677, 1,27, 4,10,237357.535085481, 2, 1,12,10
513,0.0,0.0, 1,27, 1,10,0.0, 1,27, 1,10
562,78224406.49785025,0.0, 1,27,15,10,109749.14100739118, 1,27, 1,10
1046,0.0,0.0, 1,27, 1,10,0.0, 1,27, 1,10
1096,0.0,0.0, 1,27, 1,10,0.0, 1,27, 1,10
1134,1752534900.6227143,120000.0, 1,27,15,10,5338546.339723781, 2, 2, 9,30
1323,547187159.5348556,0.0, 1,27, 1,10,3375000.0000000005, 1,27,16,50
1360,5019840.0,4980.0, 1,27, 1,10,4980.000000000001, 1,27, 3,30
1388,0.0,0.0, 1,27, 1,10,0.0, 1,27, 1,10
1,EXTREME_SUMMER,  37.43,-105.87,  -7.00,2299.00
5,7
1038,0.0,0.0, 7,27, 1,10,0.0, 7,27, 1,10
1039,0.0,0.0, 7,27, 1,10,0.0, 7,27, 1,10
581,0.1584477128050233,0.007161809591674159, 7,30,20,60,0.5473759078792407, 7,27,21,60
582,2.748801416957069,0.0, 7,27, 2,20,22.088094203234554, 8, 2,14,51
583,3.2405349595171122,0.0, 7,29,23, 6,17.249370440200728, 8, 2,14,53
1115,0.0,0.0, 7,27, 1,10,0.0, 7,27, 1,10
1128,0.0,0.0, 7,27, 1,10,0.0, 7,27, 1,10
1153,0.0,0.0, 7,27, 1,10,0.0, 7,27, 1,10
1154,6476056.800053181,0.0, 7,27, 1,10,120000.0, 7,27, 6,30
1156,0.0,0.0, 7,27, 1,10,0.0, 7,27, 1,10
13,726460156.33255,106115.4183601288, 7,27, 4,10,1829723.9539320262, 8, 1,19,10
61,301924526.0238348,58759.40635443481, 7,27, 1,10,854682.2742463244, 7,27,20,10
134,70666020.44019979,42376.01200569399, 7,27, 4,10,104369.48322671017, 8, 1,20,10
170,5241013.419656074,232.27731661587313, 7,27, 4,10,11650.931360040839, 8, 1,12,10
207,6509451.13922266,543.5021409221355, 7,27, 3,10,15327.095199349082, 8, 1,10,10
244,12749673.39982522,1014.5707620042115, 7,27, 4,10,35359.08742820678, 8, 1,20,10
281,46165882.48149605,39959.06841621388, 7,27, 5,10,54634.54471212738, 7,27,19,10
318,0.0,0.0, 7,27, 1,10,0.0, 7,27, 1,10
355,632776798.895255,12374.216038804521, 7,27, 4,10,3829218.1540669827, 7,28,18,60
403,197687796.27748126,12374.216038804521, 7,27, 4,10,483183.26346918393, 8, 1,18,10
476,106772067.24485692,4732.048419519677, 7,27, 4,10,237357.535085481, 8, 1,12,10
513,0.0,0.0, 7,27, 1,10,0.0, 7,27, 1,10
562,36548206.44018995,0.0, 7,27, 1,10,95561.22797451168, 8, 1,18,30
1046,0.0,0.0, 7,27, 1,10,0.0, 7,27, 1,10
1096,305825506.6282739,0.0, 7,27, 1,10,905888.0510269299, 8, 1,18,30
1134,6476056.800053181,0.0, 7,27, 1,10,120000.0, 7,27, 5,50
1323,435089002.61777157,0.0, 7,27, 1,10,3375000.0000000005, 7,27,21,50
1360,5019840.0,4979.999999999998, 7,28, 9,30,4980.000000000002, 7,31,18,30
1388,0.0,0.0, 7,27, 1,10,0.0, 7,27, 1,10
1,ANNUAL,  37.43,-105.87,  -7.00,2299.00
5,365
1038,16.833333333333332,0.0, 1, 1, 1,10,0.16666666666666666, 1, 5, 6,10
1039,7.833333333333332,0.0, 1, 1, 1,10,0.16666666666666666, 4, 9,13,60
581,0.26653126866465315,0.0061927543754453866, 7,30,20,60,1.437428508514496, 4, 5,13,60
582,3.733622685916517,0.0, 1, 1, 6, 3,34.27356694417284, 3,30,19,60
583,4.398357435387408,0.00004889398470225652, 9, 3, 9,36,42.26240095145817, 4, 5,13,60
1115,28655655895.771862,0.0, 1, 1,12,33,3465354.1302207084, 2,27, 6,30
1128,10127026288.877033,0.0, 1, 1,12,33,1023678.2020600155, 2,17, 6,30
1153,268780927.3984875,0.0, 1, 1,12,33,93889.56521157439, 3, 2, 6,30
1154,2493046652.2691536,0.0, 1, 1, 5,23,120000.0, 1, 1,13,40
1156,7973230803.492982,0.0, 1, 1, 1, 1,4526190.588840245, 1,27, 6,10
13,47411516486.168076,106115.4183601288, 5,26, 4,50,5932205.415431992, 1,27, 7,10
61,15743207428.39043,58759.40635443481, 1, 1, 1,10,854682.2742463244, 1, 1,20,10
134,3685071073.433083,42376.01200569399, 1, 2, 4,10,104369.48322671017, 1, 1,20,10
170,273393721.45534325,232.27731661587313, 1, 2, 4,10,11650.931360040839, 1, 1,12,10
207,339560869.06955314,543.5021409221355, 1, 2, 3,10,15327.095199349082, 1, 1,10,10
244,664895467.8009839,1014.5707620042115, 1, 2, 4,10,35359.08742820678, 1, 1,20,10
281,2407221015.1057043,39959.06841621388, 1, 1, 5,10,54634.54471212738, 1, 1,19,10
318,0.0,0.0, 1, 1, 1,10,0.0, 1, 1, 1,10
355,35771710267.31515,12374.216038804521, 1, 2, 4,10,3829218.154066983, 3,28,18,60
403,10310294493.052883,12374.216038804521, 1, 2, 4,10,483183.26346918393, 1, 1,18,10
476,5569688622.065564,4732.048419519677, 1, 2, 4,10,237357.535085481, 1, 1,12,10
513,0.0,0.0, 1, 1, 1,10,0.0, 1, 1, 1,10
562,1835613917.227599,0.0, 1, 1,12,40,109749.14100739118, 1, 1, 5,40
1046,0.0,0.0, 1, 1, 1,10,0.0, 1, 1, 1,10
1096,5023790595.086522,0.0, 1, 1, 1,10,996566.8834334421, 7, 1,18,30
1134,20862084672.03764,0.0, 3, 5,14,40,5383637.418812537, 2, 3, 9,10
1323,25461415774.26626,0.0, 1, 1, 1,10,3375000.000000002, 5, 1,17,20
1360,261748800.0,4979.999999999998, 2,14,16,30,4980.000000000002, 1,22,11,10
1388,0.0,0.0, 1, 1, 1,10,0.0, 1, 1, 1,10
End of Data
 Number of Records Written=          87
