Program Version,EnergyPlus, Version 22.2.0-c249759bad, YMD=2023.07.31 20:15
1,5,Environment Title[],Latitude[deg],Longitude[deg],Time Zone[],Elevation[m]
2,8,Day of Simulation[],Month[],Day of Month[],DST Indicator[1=yes 0=no],Hour[],StartMinute[],EndMinute[],DayType
3,5,Cumulative Day of Simulation[],Month[],Day of Month[],DST Indicator[1=yes 0=no],DayType  ! When Daily Report Variables Requested
4,2,Cumulative Days of Simulation[],Month[]  ! When Monthly Report Variables Requested
5,1,Cumulative Days of Simulation[] ! When Run Period Report Variables Requested
6,1,Calendar Year of Simulation[] ! When Annual Report Variables Requested
581,11,LIVING,AFN Zone Infiltration Air Change Rate [ach] !RunPeriod [Value,Min,Month,Day,Hour,Minute,Max,Month,Day,Hour,Minute]
582,11,ATTIC,AFN Zone Infiltration Air Change Rate [ach] !RunPeriod [Value,Min,Month,Day,Hour,Minute,Max,Month,Day,Hour,Minute]
583,11,CRAWLSPACE,AFN Zone Infiltration Air Change Rate [ach] !RunPeriod [Value,Min,Month,Day,Hour,Minute,Max,Month,Day,Hour,Minute]
1038,11,Facility,Facility Heating Setpoint Not Met Time [hr] !RunPeriod [Value,Min,Month,Day,Hour,Minute,Max,Month,Day,Hour,Minute]
1039,11,Facility,Facility Cooling Setpoint Not Met Time [hr] !RunPeriod [Value,Min,Month,Day,Hour,Minute,Max,Month,Day,Hour,Minute]
1127,11,HEATING_FUEL_MAIN,Heating Coil Electricity Energy [J] !RunPeriod [Value,Min,Month,Day,Hour,Minute,Max,Month,Day,Hour,Minute]
13,11,Electricity:Facility [J] !RunPeriod [Value,Min,Month,Day,Hour,Minute,Max,Month,Day,Hour,Minute]
1133,11,Heating:Electricity [J] !RunPeriod [Value,Min,Month,Day,Hour,Minute,Max,Month,Day,Hour,Minute]
1172,11,Cooling:Electricity [J] !RunPeriod [Value,Min,Month,Day,Hour,Minute,Max,Month,Day,Hour,Minute]
562,11,Fans:Electricity [J] !RunPeriod [Value,Min,Month,Day,Hour,Minute,Max,Month,Day,Hour,Minute]
1422,11,Pumps:Electricity [J] !RunPeriod [Value,Min,Month,Day,Hour,Minute,Max,Month,Day,Hour,Minute]
1394,11,WaterSystems:Electricity [J] !RunPeriod [Value,Min,Month,Day,Hour,Minute,Max,Month,Day,Hour,Minute]
61,11,InteriorLights:Electricity [J] !RunPeriod [Value,Min,Month,Day,Hour,Minute,Max,Month,Day,Hour,Minute]
1046,11,ExteriorLights:Electricity [J] !RunPeriod [Value,Min,Month,Day,Hour,Minute,Max,Month,Day,Hour,Minute]
134,11,InteriorEquipment:Electricity [J] !RunPeriod [Value,Min,Month,Day,Hour,Minute,Max,Month,Day,Hour,Minute]
170,11,gas_dryer:InteriorEquipment:Electricity [J] !RunPeriod [Value,Min,Month,Day,Hour,Minute,Max,Month,Day,Hour,Minute]
207,11,clotheswasher:InteriorEquipment:Electricity [J] !RunPeriod [Value,Min,Month,Day,Hour,Minute,Max,Month,Day,Hour,Minute]
244,11,dishwasher:InteriorEquipment:Electricity [J] !RunPeriod [Value,Min,Month,Day,Hour,Minute,Max,Month,Day,Hour,Minute]
281,11,refrigerator:InteriorEquipment:Electricity [J] !RunPeriod [Value,Min,Month,Day,Hour,Minute,Max,Month,Day,Hour,Minute]
318,11,electric_mels:InteriorEquipment:Electricity [J] !RunPeriod [Value,Min,Month,Day,Hour,Minute,Max,Month,Day,Hour,Minute]
355,11,NaturalGas:Facility [J] !RunPeriod [Value,Min,Month,Day,Hour,Minute,Max,Month,Day,Hour,Minute]
1108,11,Heating:NaturalGas [J] !RunPeriod [Value,Min,Month,Day,Hour,Minute,Max,Month,Day,Hour,Minute]
1357,11,WaterSystems:NaturalGas [J] !RunPeriod [Value,Min,Month,Day,Hour,Minute,Max,Month,Day,Hour,Minute]
403,11,InteriorEquipment:NaturalGas [J] !RunPeriod [Value,Min,Month,Day,Hour,Minute,Max,Month,Day,Hour,Minute]
476,11,gas_dryer:InteriorEquipment:NaturalGas [J] !RunPeriod [Value,Min,Month,Day,Hour,Minute,Max,Month,Day,Hour,Minute]
513,11,gas_mels:InteriorEquipment:NaturalGas [J] !RunPeriod [Value,Min,Month,Day,Hour,Minute,Max,Month,Day,Hour,Minute]
End of Data Dictionary
1,EXTREME_WINTER,  39.10, -84.42,  -5.00, 149.40
5,7
1038,29.5,0.0, 1,15, 1,10,0.16666666666666666, 1,15, 6,10
1039,0.0,0.0, 1,15, 1,10,0.0, 1,15, 1,10
581,0.2729600041220951,0.18127835133132233, 1,17, 4,60,0.4254608647996201, 1,17,24,15
582,3.0219072988801163,0.0, 1,15, 3,60,12.196917726064271, 1,17,24,55
583,3.642298782051345,0.0002354975495722037, 1,18,23, 5,11.434801800348922, 1,17,24,15
1127,0.0,0.0, 1,15, 1,10,0.0, 1,15, 1,10
13,422996413.2947716,138979.70148480881, 1,17, 1,10,1027020.817316602, 1,19,21,60
61,301924526.0238348,58759.40635443481, 1,15, 1,10,854682.2742463244, 1,15,20,10
134,70666020.44019979,42376.01200569399, 1,15, 4,10,104369.48322671017, 1,20,20,10
170,5241013.419656074,232.27731661587313, 1,15, 4,10,11650.931360040839, 1,20,12,10
207,6509451.13922266,543.5021409221355, 1,15, 3,10,15327.095199349082, 1,20,10,10
244,12749673.39982522,1014.5707620042115, 1,15, 4,10,35359.08742820678, 1,20,20,10
281,46165882.48149605,39959.06841621388, 1,15, 5,10,54634.54471212738, 1,15,19,10
318,0.0,0.0, 1,15, 1,10,0.0, 1,15, 1,10
355,2791891066.5915394,137769.5713143841, 1,16,23,10,8244745.270131502, 1,20,10,30
403,197687796.27748126,12374.216038804521, 1,15, 4,10,483183.26346918393, 1,20,18,10
476,106772067.24485692,4732.048419519677, 1,15, 4,10,237357.535085481, 1,20,12,10
513,0.0,0.0, 1,15, 1,10,0.0, 1,15, 1,10
562,45386026.83073601,0.0, 1,15,16,30,86178.49984893281, 1,20, 9,40
1046,0.0,0.0, 1,15, 1,10,0.0, 1,15, 1,10
1108,2404949023.950609,0.0, 1,15,16,30,4566491.353608912, 1,15, 6,10
1133,0.0,0.0, 1,15, 1,10,0.0, 1,15, 1,10
1172,0.0,0.0, 1,15, 1,10,0.0, 1,15, 1,10
1357,189254246.36344758,0.0, 1,15, 1,10,3375000.0000000005, 1,15, 7,10
1394,5019840.0,4980.0, 1,15, 1,10,4980.000000000002, 1,18, 7,40
1422,0.0,0.0, 1,15, 1,10,0.0, 1,15, 1,10
1,EXTREME_SUMMER,  39.10, -84.42,  -5.00, 149.40
5,7
1038,0.0,0.0, 7,15, 1,10,0.0, 7,15, 1,10
1039,34.49999999999999,0.0, 7,15, 1,10,0.16666666666666666, 7,15,14,30
581,0.03869919313861668,0.0, 7,15, 1,10,0.405142951755111, 7,20,16,52
582,1.6863941883811397,0.0, 7,16,21,32,8.733076927159225, 7,20,16,52
583,1.765030802190064,0.0, 7,15, 6, 7,10.130898030688284, 7,20,16,52
1127,0.0,0.0, 7,15, 1,10,0.0, 7,15, 1,10
13,850683888.7710727,106115.4183601288, 7,19, 4,10,1795552.1892125949, 7,15,20,10
61,301924526.0238348,58759.40635443481, 7,15, 1,10,854682.2742463244, 7,15,20,10
134,70666020.44019979,42376.01200569399, 7,15, 4,10,104369.48322671017, 7,20,20,10
170,5241013.419656074,232.27731661587313, 7,15, 4,10,11650.931360040839, 7,20,12,10
207,6509451.13922266,543.5021409221355, 7,15, 3,10,15327.095199349082, 7,20,10,10
244,12749673.39982522,1014.5707620042115, 7,15, 4,10,35359.08742820678, 7,20,20,10
281,46165882.48149605,39959.06841621388, 7,15, 5,10,54634.54471212738, 7,15,19,10
318,0.0,0.0, 7,15, 1,10,0.0, 7,15, 1,10
355,342025063.8948916,12374.216038804521, 7,15, 4,10,3680590.57944438, 7,21,13,60
403,197687796.27748126,12374.216038804521, 7,15, 4,10,483183.26346918393, 7,20,18,10
476,106772067.24485692,4732.048419519677, 7,15, 4,10,237357.535085481, 7,20,12,10
513,0.0,0.0, 7,15, 1,10,0.0, 7,15, 1,10
562,48657118.609596744,0.0, 7,15, 6,20,86178.49984893283, 7,18,16,50
1046,0.0,0.0, 7,15, 1,10,0.0, 7,15, 1,10
1108,0.0,0.0, 7,15, 1,10,0.0, 7,15, 1,10
1133,0.0,0.0, 7,15, 1,10,0.0, 7,15, 1,10
1172,424416383.69744086,0.0, 7,15, 6,20,846279.249617984, 7,16,15,60
1357,144337267.61741105,0.0, 7,15, 1,10,3375000.0, 7,15, 6,60
1394,5019840.0,4979.999999999998, 7,18,16,60,4980.000000000002, 7,17, 2,40
1422,0.0,0.0, 7,15, 1,10,0.0, 7,15, 1,10
1,ANNUAL,  39.10, -84.42,  -5.00, 149.40
5,365
1038,227.8333333333327,0.0, 1, 1, 1,40,0.16666666666666666, 1, 1, 1,10
1039,498.16666666666686,0.0, 1, 1, 1,10,0.16666666666666666, 3,29,15,50
581,0.18468678636108848,0.0, 5, 7, 8,25,1.2250534015191885, 2,18,22,60
582,3.0533010782179604,0.0, 1, 3,22,60,27.740460558952787, 1,29,21,60
583,3.595618529444395,0.0, 4,21,10,43,34.16488670733171, 2,18,22,60
1127,0.0,0.0, 1, 1, 1, 1,0.0, 1, 1, 1, 1
13,29338670941.354218,106115.4183601288, 3, 6, 4,10,1825819.3349940013, 8, 5,20,10
61,15743207428.39043,58759.40635443481, 1, 1, 1,10,854682.2742463244, 1, 1,20,10
134,3685071073.433083,42376.01200569399, 1, 2, 4,10,104369.48322671017, 1, 1,20,10
170,273393721.45534325,232.27731661587313, 1, 2, 4,10,11650.931360040839, 1, 1,12,10
207,339560869.06955314,543.5021409221355, 1, 2, 3,10,15327.095199349082, 1, 1,10,10
244,664895467.8009839,1014.5707620042115, 1, 2, 4,10,35359.08742820678, 1, 1,20,10
281,2407221015.1057043,39959.06841621388, 1, 1, 5,10,54634.54471212738, 1, 1,19,10
318,0.0,0.0, 1, 1, 1,10,0.0, 1, 1, 1,10
355,51967354503.91154,12374.216038804521, 3, 6, 4,10,8280471.416296279, 1, 1,13,60
403,10310294493.052883,12374.216038804521, 1, 2, 4,10,483183.26346918393, 1, 1,18,10
476,5569688622.065564,4732.048419519677, 1, 2, 4,10,237357.535085481, 1, 1,12,10
513,0.0,0.0, 1, 1, 1,10,0.0, 1, 1, 1,10
562,1608517519.7267025,0.0, 1, 5,23,10,86178.49984893283, 1, 1, 1,10
1046,0.0,0.0, 1, 1, 1,10,0.0, 1, 1, 1,10
1108,32897347377.9185,0.0, 1, 5,23,10,4566491.353608912, 1, 1, 1,20
1133,0.0,0.0, 1, 1, 1,10,0.0, 1, 1, 1,10
1172,8040126119.809388,0.0, 1, 1, 1,10,879237.4813419749, 8, 9,14,60
1357,8759712632.941721,0.0, 1, 1, 1,10,3375000.000000001, 1, 9, 6,60
1394,261748800.0,4979.999999999998, 4,16,12,50,4980.000000000002, 1,14,12,10
1422,0.0,0.0, 1, 1, 1,10,0.0, 1, 1, 1,10
End of Data
 Number of Records Written=          78
