Program Version,EnergyPlus, Version 9.5.0-de239b2e5f, YMD=2022.08.10 16:06
1,5,Environment Title[],Latitude[deg],Longitude[deg],Time Zone[],Elevation[m]
2,8,Day of Simulation[],Month[],Day of Month[],DST Indicator[1=yes 0=no],Hour[],StartMinute[],EndMinute[],DayType
3,5,Cumulative Day of Simulation[],Month[],Day of Month[],DST Indicator[1=yes 0=no],DayType  ! When Daily Report Variables Requested
4,2,Cumulative Days of Simulation[],Month[]  ! When Monthly Report Variables Requested
5,1,Cumulative Days of Simulation[] ! When Run Period Report Variables Requested
6,1,Calendar Year of Simulation[] ! When Annual Report Variables Requested
191,1,UNHEATEDBSMT_UNIT1,Zone Windows Total Transmitted Solar Radiation Rate [W] !Hourly
192,1,UNHEATEDBSMT_UNIT1,Zone Windows Total Transmitted Solar Radiation Energy [J] !Hourly
193,1,UNHEATEDBSMT_UNIT1,Zone Windows Total Heat Gain Energy [J] !Hourly
194,1,LIVING_UNIT1,Zone Windows Total Transmitted Solar Radiation Rate [W] !Hourly
195,1,LIVING_UNIT1,Zone Windows Total Transmitted Solar Radiation Energy [J] !Hourly
196,1,LIVING_UNIT1,Zone Windows Total Heat Gain Energy [J] !Hourly
197,1,ATTIC_UNIT1,Zone Windows Total Transmitted Solar Radiation Rate [W] !Hourly
198,1,ATTIC_UNIT1,Zone Windows Total Transmitted Solar Radiation Energy [J] !Hourly
199,1,ATTIC_UNIT1,Zone Windows Total Heat Gain Energy [J] !Hourly
200,1,UNHEATEDBSMT_UNIT1,Zone Mean Air Temperature [C] !Hourly
201,1,LIVING_UNIT1,Zone Mean Air Temperature [C] !Hourly
202,1,ATTIC_UNIT1,Zone Mean Air Temperature [C] !Hourly
279,1,UNHEATEDBSMT_UNIT1,AFN Zone Infiltration Sensible Heat Gain Rate [W] !Hourly
280,1,LIVING_UNIT1,AFN Zone Infiltration Sensible Heat Gain Rate [W] !Hourly
281,1,ATTIC_UNIT1,AFN Zone Infiltration Sensible Heat Gain Rate [W] !Hourly
282,1,UNHEATEDBSMT_UNIT1,AFN Zone Infiltration Air Change Rate [ach] !Hourly
283,1,LIVING_UNIT1,AFN Zone Infiltration Air Change Rate [ach] !Hourly
284,1,ATTIC_UNIT1,AFN Zone Infiltration Air Change Rate [ach] !Hourly
618,1,Whole Building,Facility Total HVAC Electricity Demand Rate [W] !Hourly
End of Data Dictionary
1,PASCO-TRI.CITIES.AP ANN HTG 99.6% CONDNS DB,  46.27,-119.12,  -8.00, 124.00
2,1,12,21, 0, 1, 0.00,60.00,WinterDesignDay
191,0.0
192,0.0
193,0.0
194,0.0
195,0.0
196,0.0
197,0.0
198,0.0
199,0.0
200,17.292317456180393
201,17.343665446824905
202,-1.8032965214108064
279,0.0
280,0.0
281,0.0
282,0.36313867300331556
283,0.4238004070304019
284,1.4716896375622224
618,7737.077255976351
2,1,12,21, 0, 2, 0.00,60.00,WinterDesignDay
191,0.0
192,0.0
193,0.0
194,0.0
195,0.0
196,0.0
197,0.0
198,0.0
199,0.0
200,16.918685164857075
201,17.345191024875349
202,-1.8011861068304894
279,0.0
280,0.0
281,0.0
282,0.36281239758524105
283,0.42375898387260665
284,1.4716452051114293
618,7737.077255976351
2,1,12,21, 0, 3, 0.00,60.00,WinterDesignDay
191,0.0
192,0.0
193,0.0
194,0.0
195,0.0
196,0.0
197,0.0
198,0.0
199,0.0
200,16.68120723281891
201,17.33561056617775
202,-1.8070550195115387
279,0.0
280,0.0
281,0.0
282,0.36225398103335129
283,0.42380165792698279
284,1.4717365934904064
618,7737.077255976351
2,1,12,21, 0, 4, 0.00,60.00,WinterDesignDay
191,0.0
192,0.0
193,0.0
194,0.0
195,0.0
196,0.0
197,0.0
198,0.0
199,0.0
200,16.45934805432605
201,17.3257693169459
202,-1.8123533063547255
279,0.0
280,0.0
281,0.0
282,0.36179836741061258
283,0.4237364461066355
284,1.4717806835979353
618,7737.077255976351
2,1,12,21, 0, 5, 0.00,60.00,WinterDesignDay
191,0.0
192,0.0
193,0.0
194,0.0
195,0.0
196,0.0
197,0.0
198,0.0
199,0.0
200,16.262933393239249
201,17.314045141998507
202,-1.819001828510588
279,0.0
280,0.0
281,0.0
282,0.3613850882884799
283,0.42366496777502807
284,1.4718197748405296
618,7737.077255976351
2,1,12,21, 0, 6, 0.00,60.00,WinterDesignDay
191,0.0
192,0.0
193,0.0
194,0.0
195,0.0
196,0.0
197,0.0
198,0.0
199,0.0
200,16.082657348827668
201,17.30097916231521
202,-1.826022157655234
279,0.0
280,0.0
281,0.0
282,0.361007742724483
283,0.42357304170472706
284,1.4718474516991745
618,7737.077255976351
2,1,12,21, 0, 7, 0.00,60.00,WinterDesignDay
191,0.0
192,0.0
193,0.0
194,0.0
195,0.0
196,0.0
197,0.0
198,0.0
199,0.0
200,15.915567543934053
201,17.28670935693173
202,-1.8335330090009512
279,0.0
280,0.0
281,0.0
282,0.3606567268217322
283,0.4234667919373083
284,1.4718718271492537
618,7737.077255976351
2,1,12,21, 0, 8, 0.00,60.00,WinterDesignDay
191,0.0
192,0.0
193,0.0
194,0.0
195,0.0
196,0.0
197,0.0
198,0.0
199,0.0
200,15.759199303281145
201,17.271438682208975
202,-1.8413573861430166
279,0.0
280,0.0
281,0.0
282,0.3603270386510897
283,0.42334784931423266
284,1.4718928340794609
618,7737.077255976351
2,1,12,21, 0, 9, 0.00,60.00,WinterDesignDay
191,0.0
192,0.0
193,0.0
194,0.0
195,0.0
196,0.0
197,0.0
198,0.0
199,0.0
200,15.611911468183243
201,17.25534468467772
202,-1.849452232851697
279,0.0
280,0.0
281,0.0
282,0.3600151243729644
283,0.4232184476299504
284,1.4719119217359345
618,7737.077255976351
2,1,12,21, 0,10, 0.00,60.00,WinterDesignDay
191,0.0
192,0.0
193,0.0
194,0.0
195,0.0
196,0.0
197,0.0
198,0.0
199,0.0
200,15.472468415988854
201,17.238586023623748
202,-1.8577488546274644
279,0.0
280,0.0
281,0.0
282,0.35971848059507019
283,0.42308041295744816
284,1.471929336867347
618,7737.077255976351
2,1,12,21, 0,11, 0.00,60.00,WinterDesignDay
191,0.0
192,0.0
193,0.0
194,0.0
195,0.0
196,0.0
197,0.0
198,0.0
199,0.0
200,15.339916840864682
201,17.221300783984817
202,-1.8662007697477583
279,0.0
280,0.0
281,0.0
282,0.35943522226466426
283,0.42293536484558999
284,1.4719454326808224
618,7737.077255976351
2,1,12,21, 0,12, 0.00,60.00,WinterDesignDay
191,0.0
192,0.0
193,0.0
194,0.0
195,0.0
196,0.0
197,0.0
198,0.0
199,0.0
200,15.21349414527397
201,17.2036076085755
202,-1.874764063374972
279,0.0
280,0.0
281,0.0
282,0.35916387762607046
283,0.4227846880583667
284,1.4719603764262249
618,7737.077255976351
2,1,12,21, 0,13, 0.00,60.00,WinterDesignDay
191,0.0
192,0.0
193,0.0
194,0.0
195,0.0
196,0.0
197,0.0
198,0.0
199,0.0
200,15.092575296994756
201,17.185608003243688
202,-1.8834023401046328
279,0.0
280,0.0
281,0.0
282,0.35890325987739227
283,0.4226295681624934
284,1.4719743253983889
618,7737.077255976351
2,1,12,21, 0,14, 0.00,60.00,WinterDesignDay
191,0.0
192,0.0
193,0.0
194,0.0
195,0.0
196,0.0
197,0.0
198,0.0
199,0.0
200,14.97663767361069
201,17.16738855402523
202,-1.8920838153776436
279,0.0
280,0.0
281,0.0
282,0.3586523881238299
283,0.4224710155527936
284,1.4719873991005644
618,7737.077255976351
2,1,12,21, 0,15, 0.00,60.00,WinterDesignDay
191,0.0
192,0.0
193,0.0
194,0.0
195,0.0
196,0.0
197,0.0
198,0.0
199,0.0
200,14.865237006952933
201,17.149023104028218
202,-1.900781393603161
279,0.0
280,0.0
281,0.0
282,0.35841043516493029
283,0.42230989175404828
284,1.47199970358455
618,7737.077255976351
2,1,12,21, 0,16, 0.00,60.00,WinterDesignDay
191,0.0
192,0.0
193,0.0
194,0.0
195,0.0
196,0.0
197,0.0
198,0.0
199,0.0
200,14.757989426611698
201,17.13057463004168
202,-1.9094718620586949
279,0.0
280,0.0
281,0.0
282,0.35817669047323977
283,0.42214693173622505
284,1.4720113297005733
618,7737.077255976351
2,1,12,21, 0,17, 0.00,60.00,WinterDesignDay
191,0.0
192,0.0
193,0.0
194,0.0
195,0.0
196,0.0
197,0.0
198,0.0
199,0.0
200,14.654554245987049
201,17.112096837320967
202,-1.9181355002072079
279,0.0
280,0.0
281,0.0
282,0.35795052811865016
283,0.42198276335832687
284,1.4720223572817897
618,7737.077255976351
2,1,12,21, 0,18, 0.00,60.00,WinterDesignDay
191,0.0
192,0.0
193,0.0
194,0.0
195,0.0
196,0.0
197,0.0
198,0.0
199,0.0
200,14.554585404208402
201,17.09363540252804
202,-1.9267556928472998
279,0.0
280,0.0
281,0.0
282,0.3577313358653417
283,0.4218179237484506
284,1.472032856979199
618,7737.077255976351
2,1,12,21, 0,19, 0.00,60.00,WinterDesignDay
191,0.0
192,0.0
193,0.0
194,0.0
195,0.0
196,0.0
197,0.0
198,0.0
199,0.0
200,14.4582814042817
201,17.07522821118812
202,-1.9353192087240812
279,0.0
280,0.0
281,0.0
282,0.3575191652326229
283,0.42165287508220647
284,1.4720429000733584
618,7737.077255976351
2,1,12,21, 0,20, 0.00,60.00,WinterDesignDay
191,0.0
192,0.0
193,0.0
194,0.0
195,0.0
196,0.0
197,0.0
198,0.0
199,0.0
200,14.365097742128773
201,17.056918199684735
202,-1.9438070774189605
279,0.0
280,0.0
281,0.0
282,0.35731352840334
283,0.42148796183501016
284,1.472052433544302
618,7737.077255976351
2,1,12,21, 0,21, 0.00,60.00,WinterDesignDay
191,0.0
192,0.0
193,0.0
194,0.0
195,0.0
196,0.0
197,0.0
198,0.0
199,0.0
200,14.274666068243839
201,17.03872939007571
202,-1.952212822938635
279,0.0
280,0.0
281,0.0
282,0.35711362556417927
283,0.42132362965248745
284,1.472061591569859
618,7737.077255976351
2,1,12,21, 0,22, 0.00,60.00,WinterDesignDay
191,0.0
192,0.0
193,0.0
194,0.0
195,0.0
196,0.0
197,0.0
198,0.0
199,0.0
200,14.1868478401105
201,17.020682783168405
202,-1.9605301616471287
279,0.0
280,0.0
281,0.0
282,0.3569190479802679
283,0.4211601440091001
284,1.4720704448755178
618,7737.077255976351
2,1,12,21, 0,23, 0.00,60.00,WinterDesignDay
191,0.0
192,0.0
193,0.0
194,0.0
195,0.0
196,0.0
197,0.0
198,0.0
199,0.0
200,14.101479644120289
201,17.002799090989389
202,-1.9687523834834025
279,0.0
280,0.0
281,0.0
282,0.35672951858690457
283,0.4209977200910824
284,1.4720790108443758
618,7737.077255976351
2,1,12,21, 0,24, 0.00,60.00,WinterDesignDay
191,0.0
192,0.0
193,0.0
194,0.0
195,0.0
196,0.0
197,0.0
198,0.0
199,0.0
200,14.01840995496231
201,16.985095179483929
202,-1.976874308410123
279,0.0
280,0.0
281,0.0
282,0.35654475656367909
283,0.42083656854347536
284,1.4720873119409342
618,7737.077255976351
1,PASCO-TRI.CITIES.AP ANN CLG .4% CONDNS DB=>MWB,  46.27,-119.12,  -8.00, 124.00
2,1, 7,21, 0, 1, 0.00,60.00,SummerDesignDay
191,0.0
192,0.0
193,0.0
194,0.0
195,0.0
196,0.0
197,0.0
198,0.0
199,0.0
200,21.61397523083641
201,36.47681557853681
202,24.328011631852396
279,0.0
280,0.0
281,0.0
282,0.48398266590758956
283,0.3420154692369673
284,2.5150835449076149
618,257.4216506733774
2,1, 7,21, 0, 2, 0.00,60.00,SummerDesignDay
191,0.0
192,0.0
193,0.0
194,0.0
195,0.0
196,0.0
197,0.0
198,0.0
199,0.0
200,21.436547192675378
201,35.46277994206452
202,23.242827297638838
279,0.0
280,0.0
281,0.0
282,0.48451209245646456
283,0.3392998991328687
284,2.5130250023447378
618,257.4216506733774
2,1, 7,21, 0, 3, 0.00,60.00,SummerDesignDay
191,0.0
192,0.0
193,0.0
194,0.0
195,0.0
196,0.0
197,0.0
198,0.0
199,0.0
200,21.264504276512569
201,34.46727619736454
202,22.35359334428922
279,0.0
280,0.0
281,0.0
282,0.48466627347650839
283,0.33520324895627498
284,2.5114737172293677
618,257.4216506733774
2,1, 7,21, 0, 4, 0.00,60.00,SummerDesignDay
191,0.0
192,0.0
193,0.0
194,0.0
195,0.0
196,0.0
197,0.0
198,0.0
199,0.0
200,21.08705751654106
201,33.510609391170067
202,21.5884633902977
279,0.0
280,0.0
281,0.0
282,0.4848347983295732
283,0.3321173789685955
284,2.5118745023911899
618,257.4216506733774
2,1, 7,21, 0, 5, 0.00,60.00,SummerDesignDay
191,0.0
192,0.0
193,0.0
194,0.0
195,0.0
196,0.0
197,0.0
198,0.0
199,0.0
200,20.920181711899454
201,32.5912821220003
202,20.93368294780469
279,0.0
280,0.0
281,0.0
282,0.4846590105776658
283,0.327882955379982
284,2.51167322367716
618,257.4216506733774
2,1, 7,21, 0, 6, 0.00,60.00,SummerDesignDay
191,0.0
192,0.0
193,0.0
194,1889.7846713173934
195,6803224.816742616
196,6221638.898456562
197,0.0
198,0.0
199,0.0
200,20.81329867119518
201,32.401003343272588
202,22.00424500325478
279,0.0
280,0.0
281,0.0
282,0.4830592353808205
283,0.31854100769175189
284,2.518841469372285
618,257.4216506733774
2,1, 7,21, 0, 7, 0.00,60.00,SummerDesignDay
191,0.0
192,0.0
193,0.0
194,2550.320645343596
195,9181154.323236946
196,9310439.859638432
197,0.0
198,0.0
199,0.0
200,20.855474355366089
201,32.58356069279789
202,25.375516704706123
279,0.0
280,0.0
281,0.0
282,0.4803173220960433
283,0.30810319316550335
284,2.5405569665183855
618,257.4216506733774
2,1, 7,21, 0, 8, 0.00,60.00,SummerDesignDay
191,0.0
192,0.0
193,0.0
194,2822.5664859305695
195,10161239.34935005
196,10855351.28178538
197,0.0
198,0.0
199,0.0
200,21.084873015332918
201,33.02559253326981
202,30.712153126915898
279,90.98851674977215
280,0.0
281,0.0
282,0.4745006754435992
283,0.2862113311768999
284,2.569878827303297
618,257.4216506733774
2,1, 7,21, 0, 9, 0.00,60.00,SummerDesignDay
191,0.0
192,0.0
193,0.0
194,2943.478170147388
195,10596521.412530598
196,12203721.14801008
197,0.0
198,0.0
199,0.0
200,21.366557878160444
201,33.72935023000132
202,36.07934234244519
279,208.35199173012217
280,0.0
281,0.0
282,0.4684619233804573
283,0.2636138675398497
284,2.6045298036696167
618,257.4216506733774
2,1, 7,21, 0,10, 0.00,60.00,SummerDesignDay
191,0.0
192,0.0
193,0.0
194,2852.536429016414
195,10269131.14445909
196,12570726.780697184
197,0.0
198,0.0
199,0.0
200,21.663856403728166
201,34.59322369395288
202,41.96010252003437
279,309.1971859040337
280,0.0
281,0.0
282,0.4634983885770429
283,0.24478558384446218
284,2.645577940650251
618,257.4216506733774
2,1, 7,21, 0,11, 0.00,60.00,SummerDesignDay
191,0.0
192,0.0
193,0.0
194,2512.7670573406264
195,9045961.406426255
196,11633339.48181601
197,0.0
198,0.0
199,0.0
200,21.96747921043037
201,35.54186012300081
202,46.8056884849945
279,394.96047990349828
280,0.0
281,0.0
282,0.4594845733015704
283,0.23029554930308045
284,2.681595300627216
618,257.4216506733774
2,1, 7,21, 0,12, 0.00,60.00,SummerDesignDay
191,0.0
192,0.0
193,0.0
194,2180.8000411615437
195,7850880.148181557
196,10001349.255930379
197,0.0
198,0.0
199,0.0
200,22.237828003585773
201,36.417183905508057
202,50.59532354694859
279,449.0888417234321
280,0.0
281,0.0
282,0.45724040227474507
283,0.2249323690305254
284,2.7100423609206678
618,257.4216506733774
2,1, 7,21, 0,13, 0.00,60.00,SummerDesignDay
191,0.0
192,0.0
193,0.0
194,2164.741295947708
195,7793068.665411748
196,9982255.061945532
197,0.0
198,0.0
199,0.0
200,22.494824113784725
201,37.36328093340567
202,53.05733950593543
279,490.58709247143426
280,0.0
281,0.0
282,0.45560396052669308
283,0.22150694635990177
284,2.7261652200046559
618,257.4216506733774
2,1, 7,21, 0,14, 0.00,60.00,SummerDesignDay
191,0.0
192,0.0
193,0.0
194,2475.884631960053
195,8913184.675056192
196,11725184.793086689
197,0.0
198,0.0
199,0.0
200,22.733558787056706
201,38.48123599150864
202,54.290455987096127
279,513.8675722818407
280,0.0
281,0.0
282,0.45495920751041116
283,0.22433617929950479
284,2.7301985769546919
618,257.4216506733774
2,1, 7,21, 0,15, 0.00,60.00,SummerDesignDay
191,0.0
192,0.0
193,0.0
194,2831.7164128053457
195,10194179.086099245
196,12876905.235745112
197,0.0
198,0.0
199,0.0
200,22.94023939902137
201,39.64644432008334
202,54.13210364292198
279,507.3987769855222
280,0.0
281,0.0
282,0.45601158783882858
283,0.2385425800513238
284,2.723498945366627
618,257.4216506733774
2,1, 7,21, 0,16, 0.00,60.00,SummerDesignDay
191,0.0
192,0.0
193,0.0
194,2946.0143387196696
195,10605651.61939081
196,12628830.657561237
197,0.0
198,0.0
199,0.0
200,23.092687274533306
201,40.67495563923986
202,52.43969261157307
279,465.4247326942739
280,0.0
281,0.0
282,0.45902346904272886
283,0.261789166959264
284,2.7084553039311398
618,257.4216506733774
2,1, 7,21, 0,17, 0.00,60.00,SummerDesignDay
191,0.0
192,0.0
193,0.0
194,2840.668460269466
195,10226406.456970077
196,11393448.636878893
197,0.0
198,0.0
199,0.0
200,23.20989809034743
201,41.450544645350969
202,49.47138388041328
279,411.38667941169936
280,0.0
281,0.0
282,0.462565098087886
283,0.2832132670419552
284,2.683154268313345
618,257.4216506733774
2,1, 7,21, 0,18, 0.00,60.00,SummerDesignDay
191,0.0
192,0.0
193,0.0
194,2584.131252314666
195,9302872.508332799
196,9908952.001627231
197,0.0
198,0.0
199,0.0
200,23.282325883866645
201,41.96380186116667
202,45.4309708283522
279,345.1197816555363
280,0.0
281,0.0
282,0.46658036046204545
283,0.3027806449106632
284,2.650315298205658
618,257.4216506733774
2,1, 7,21, 0,19, 0.00,60.00,SummerDesignDay
191,0.0
192,0.0
193,0.0
194,1980.5610223202503
195,7130019.680352901
196,6768633.750698774
197,0.0
198,0.0
199,0.0
200,23.272041471354
201,42.025294041340398
202,40.44314972548967
279,247.71533177912137
280,0.0
281,0.0
282,0.47210743234051269
283,0.3254604995836432
284,2.6164359206981384
618,257.4216506733774
2,1, 7,21, 0,20, 0.00,60.00,SummerDesignDay
191,0.0
192,0.0
193,0.0
194,349.18931801818976
195,1257081.544865483
196,0.0
197,0.0
198,0.0
199,0.0
200,23.24902184675625
201,41.354316240447577
202,35.70935744871759
279,175.27057044645253
280,0.0
281,0.0
282,0.4759454827095505
283,0.3359260979072807
284,2.5770094300606005
618,257.4216506733774
2,1, 7,21, 0,21, 0.00,60.00,SummerDesignDay
191,0.0
192,0.0
193,0.0
194,0.0
195,0.0
196,0.0
197,0.0
198,0.0
199,0.0
200,23.167783184024633
201,40.46294677647204
202,31.903999120637537
279,117.31231977634673
280,0.0
281,0.0
282,0.4785923181184647
283,0.3385437049921114
284,2.5461807691008304
618,257.4216506733774
2,1, 7,21, 0,22, 0.00,60.00,SummerDesignDay
191,0.0
192,0.0
193,0.0
194,0.0
195,0.0
196,0.0
197,0.0
198,0.0
199,0.0
200,23.042634686263069
201,39.527299563369698
202,29.238886476796915
279,60.295000569783827
280,0.0
281,0.0
282,0.4810862798902657
283,0.3406988134176322
284,2.5293862122476429
618,257.4216506733774
2,1, 7,21, 0,23, 0.00,60.00,SummerDesignDay
191,0.0
192,0.0
193,0.0
194,0.0
195,0.0
196,0.0
197,0.0
198,0.0
199,0.0
200,22.907447674144185
201,38.56823693861247
202,27.290663652055405
279,16.912529131218478
280,0.0
281,0.0
282,0.4828376121640448
283,0.340970094599898
284,2.519728233254402
618,257.4216506733774
2,1, 7,21, 0,24, 0.00,60.00,SummerDesignDay
191,0.0
192,0.0
193,0.0
194,0.0
195,0.0
196,0.0
197,0.0
198,0.0
199,0.0
200,22.74613337602357
201,37.57643787288923
202,25.68206185460592
279,0.0
280,0.0
281,0.0
282,0.4845759144441168
283,0.34179344355795007
284,2.5162250427008887
618,257.4216506733774
1,SUB-ANNUAL,  46.27,-119.12,  -8.00, 124.00
2,1, 1, 1, 0, 1, 0.00,60.00,Sunday
191,0.0
192,0.0
193,0.0
194,0.0
195,0.0
196,0.0
197,0.0
198,0.0
199,0.0
200,17.249920440026
201,20.55443182527517
202,6.10917835515658
279,0.0
280,0.0
281,0.0
282,0.48013098416365559
283,0.4176053480587244
284,2.598310944485901
618,5858.769106000113
2,1, 1, 1, 0, 2, 0.00,60.00,Sunday
191,0.0
192,0.0
193,0.0
194,0.0
195,0.0
196,0.0
197,0.0
198,0.0
199,0.0
200,16.937738660169754
201,20.554498723687116
202,4.970896271255013
279,0.0
280,0.0
281,0.0
282,0.4442697352594775
283,0.3935839535941983
284,2.138659339455195
618,6050.7982878537409
2,1, 1, 1, 0, 3, 0.00,60.00,Sunday
191,0.0
192,0.0
193,0.0
194,0.0
195,0.0
196,0.0
197,0.0
198,0.0
199,0.0
200,16.352599275127007
201,20.55328039863046
202,3.9562018210497067
279,0.0
280,0.0
281,0.0
282,0.5389800342736733
283,0.4645976311894344
284,2.743109957694254
618,6701.803945077558
2,1, 1, 1, 0, 4, 0.00,60.00,Sunday
191,0.0
192,0.0
193,0.0
194,0.0
195,0.0
196,0.0
197,0.0
198,0.0
199,0.0
200,16.478696913050908
201,20.553746592529494
202,4.0548985338520329
279,0.0
280,0.0
281,0.0
282,0.43721301901020867
283,0.4726083092787503
284,2.200722418910929
618,6846.247817277729
2,1, 1, 1, 0, 5, 0.00,60.00,Sunday
191,0.0
192,0.0
193,0.0
194,0.0
195,0.0
196,0.0
197,0.0
198,0.0
199,0.0
200,16.32272271472238
201,20.555656284061148
202,4.095294330680875
279,0.0
280,0.0
281,0.0
282,0.4191862988554709
283,0.39279020989327026
284,2.003905949097716
618,6387.798490971155
2,1, 1, 1, 0, 6, 0.00,60.00,Sunday
191,0.0
192,0.0
193,0.0
194,0.0
195,0.0
196,0.0
197,0.0
198,0.0
199,0.0
200,15.863361723099942
201,20.553704027068926
202,4.174310968753078
279,0.0
280,0.0
281,0.0
282,0.5585250492885201
283,0.42226651031239839
284,3.7219374527430828
618,6448.099543002848
2,1, 1, 1, 0, 7, 0.00,60.00,Sunday
191,0.0
192,0.0
193,0.0
194,0.0
195,0.0
196,0.0
197,0.0
198,0.0
199,0.0
200,15.8265836238656
201,20.55489732632119
202,4.824721256994846
279,0.0
280,0.0
281,0.0
282,0.5230415015617356
283,0.3844888748889979
284,3.0348760656481437
618,6252.587568346464
2,1, 1, 1, 0, 8, 0.00,60.00,Sunday
191,0.0
192,0.0
193,0.0
194,0.0
195,0.0
196,0.0
197,0.0
198,0.0
199,0.0
200,15.75854276917013
201,20.553678226509388
202,4.886631635857956
279,0.0
280,0.0
281,0.0
282,0.49787725518319816
283,0.3897019815041759
284,2.895866026105644
618,6269.91885512882
2,1, 1, 1, 0, 9, 0.00,60.00,Sunday
191,0.0
192,0.0
193,0.0
194,1146.9778543797527
195,4129120.27576711
196,1922187.7947648105
197,0.0
198,0.0
199,0.0
200,16.052599324586848
201,20.55600149860469
202,6.436041270494033
279,0.0
280,0.0
281,0.0
282,0.34801391686075835
283,0.3878922816898296
284,0.902522730957479
618,5506.336544131709
2,1, 1, 1, 0,10, 0.00,60.00,Sunday
191,0.0
192,0.0
193,0.0
194,2178.0057717126717
195,7840820.778165617
196,6551546.818145979
197,0.0
198,0.0
199,0.0
200,15.23670436080294
201,20.555102007907366
202,7.375465816967917
279,0.0
280,0.0
281,0.0
282,0.6265671585109
283,0.48544528345759915
284,3.6925824216569507
618,4821.745312144786
2,1, 1, 1, 0,11, 0.00,60.00,Sunday
191,0.0
192,0.0
193,0.0
194,1563.912594647068
195,5630085.340729445
196,3864014.2872568739
197,0.0
198,0.0
199,0.0
200,15.227720744497427
201,20.554203212110765
202,8.858699795491928
279,0.0
280,0.0
281,0.0
282,0.6306383405324499
283,0.48528495063853296
284,3.7298747207374078
618,4429.05504539987
2,1, 1, 1, 0,12, 0.00,60.00,Sunday
191,0.0
192,0.0
193,0.0
194,1022.0608741832307
195,3679419.1470596308
196,1547739.1218565878
197,0.0
198,0.0
199,0.0
200,15.687741577103762
201,20.555949685975894
202,10.719758526101174
279,0.0
280,0.0
281,0.0
282,0.3837915958921221
283,0.3720212041434784
284,1.9086375176149935
618,3864.3902685495547
2,1, 1, 1, 0,13, 0.00,60.00,Sunday
191,0.0
192,0.0
193,0.0
194,364.38458970770099
195,1311784.5229477236
196,0.0
197,0.0
198,0.0
199,0.0
200,15.383852011916393
201,20.553566830742544
202,10.208120699807396
279,0.0
280,0.0
281,0.0
282,0.4735639074064174
283,0.3933857102155021
284,2.625315420463682
618,4236.707734335302
2,1, 1, 1, 0,14, 0.00,60.00,Sunday
191,0.0
192,0.0
193,0.0
194,415.56974047192957
195,1496051.0656989464
196,0.0
197,0.0
198,0.0
199,0.0
200,15.757925108046792
201,20.555499875394735
202,12.513458650070535
279,0.0
280,0.0
281,0.0
282,0.3210472279013749
283,0.334577343381092
284,0.0
618,3931.4718664307908
2,1, 1, 1, 0,15, 0.00,60.00,Sunday
191,0.0
192,0.0
193,0.0
194,177.2325042547365
195,638037.0153170514
196,0.0
197,0.0
198,0.0
199,0.0
200,15.411088977505257
201,20.553819943604045
202,10.712541348718054
279,0.0
280,0.0
281,0.0
282,0.436527878896736
283,0.38894859111223586
284,2.1409175363134489
618,4317.051631375266
2,1, 1, 1, 0,16, 0.00,60.00,Sunday
191,0.0
192,0.0
193,0.0
194,118.21289129578452
195,425566.40866482429
196,0.0
197,0.0
198,0.0
199,0.0
200,15.624038360670609
201,20.554406777639366
202,10.722146789413714
279,0.0
280,0.0
281,0.0
282,0.3338554963882095
283,0.33693875756091687
284,1.2040319873299568
618,4228.948561698467
2,1, 1, 1, 0,17, 0.00,60.00,Sunday
191,0.0
192,0.0
193,0.0
194,0.0
195,0.0
196,0.0
197,0.0
198,0.0
199,0.0
200,15.598564253808812
201,20.554168830428645
202,10.529831063058424
279,0.0
280,0.0
281,0.0
282,0.32136946992755618
283,0.3355762476030986
284,0.0
618,4342.190743344225
2,1, 1, 1, 0,18, 0.00,60.00,Sunday
191,0.0
192,0.0
193,0.0
194,0.0
195,0.0
196,0.0
197,0.0
198,0.0
199,0.0
200,15.592645137670046
201,20.5542478586055
202,10.18739992776432
279,0.0
280,0.0
281,0.0
282,0.3200676527462288
283,0.3284460637124692
284,0.0
618,4352.115712794896
2,1, 1, 1, 0,19, 0.00,60.00,Sunday
191,0.0
192,0.0
193,0.0
194,0.0
195,0.0
196,0.0
197,0.0
198,0.0
199,0.0
200,14.884511177727826
201,20.555023986425839
202,8.084055022067935
279,0.0
280,0.0
281,0.0
282,0.587551100159848
283,0.39110333618836926
284,3.9386002859049604
618,4825.1624528970219
2,1, 1, 1, 0,20, 0.00,60.00,Sunday
191,0.0
192,0.0
193,0.0
194,0.0
195,0.0
196,0.0
197,0.0
198,0.0
199,0.0
200,15.127374933227994
201,20.55516093390599
202,8.227042781408548
279,0.0
280,0.0
281,0.0
282,0.43691995458710328
283,0.3904838573994663
284,2.103507212133951
618,5125.0307803948
2,1, 1, 1, 0,21, 0.00,60.00,Sunday
191,0.0
192,0.0
193,0.0
194,0.0
195,0.0
196,0.0
197,0.0
198,0.0
199,0.0
200,15.324292117738127
201,20.555053097442003
202,8.40709697460836
279,0.0
280,0.0
281,0.0
282,0.322534367157652
283,0.34860513032715609
284,0.2538735227524116
618,4947.801432493136
2,1, 1, 1, 0,22, 0.00,60.00,Sunday
191,0.0
192,0.0
193,0.0
194,0.0
195,0.0
196,0.0
197,0.0
198,0.0
199,0.0
200,15.309663487323384
201,20.55522004366132
202,8.637302400969244
279,0.0
280,0.0
281,0.0
282,0.32097339461892945
283,0.3342680948424462
284,0.0
618,4842.7929704155899
2,1, 1, 1, 0,23, 0.00,60.00,Sunday
191,0.0
192,0.0
193,0.0
194,0.0
195,0.0
196,0.0
197,0.0
198,0.0
199,0.0
200,15.24747928646603
201,20.555104639522363
202,8.165459747884297
279,0.0
280,0.0
281,0.0
282,0.32217887672260306
283,0.34067555212245689
284,0.0
618,5012.740071034499
2,1, 1, 1, 0,24, 0.00,60.00,Sunday
191,0.0
192,0.0
193,0.0
194,0.0
195,0.0
196,0.0
197,0.0
198,0.0
199,0.0
200,15.208224444121994
201,20.555132590618727
202,8.24710556688568
279,0.0
280,0.0
281,0.0
282,0.3266746260342991
283,0.3426282212807111
284,0.0
618,5032.136771550364
End of Data
 Number of Records Written=        1368
