Program Version,EnergyPlus, Version 22.2.0-c249759bad, YMD=2023.09.01 20:28
1,5,Environment Title[],Latitude[deg],Longitude[deg],Time Zone[],Elevation[m]
2,8,Day of Simulation[],Month[],Day of Month[],DST Indicator[1=yes 0=no],Hour[],StartMinute[],EndMinute[],DayType
3,5,Cumulative Day of Simulation[],Month[],Day of Month[],DST Indicator[1=yes 0=no],DayType  ! When Daily Report Variables Requested
4,2,Cumulative Days of Simulation[],Month[]  ! When Monthly Report Variables Requested
5,1,Cumulative Days of Simulation[] ! When Run Period Report Variables Requested
6,1,Calendar Year of Simulation[] ! When Annual Report Variables Requested
581,11,LIVING,AFN Zone Infiltration Air Change Rate [ach] !RunPeriod [Value,Min,Month,Day,Hour,Minute,Max,Month,Day,Hour,Minute]
582,11,ATTIC,AFN Zone Infiltration Air Change Rate [ach] !RunPeriod [Value,Min,Month,Day,Hour,Minute,Max,Month,Day,Hour,Minute]
583,11,CRAWLSPACE,AFN Zone Infiltration Air Change Rate [ach] !RunPeriod [Value,Min,Month,Day,Hour,Minute,Max,Month,Day,Hour,Minute]
1038,11,Facility,Facility Heating Setpoint Not Met Time [hr] !RunPeriod [Value,Min,Month,Day,Hour,Minute,Max,Month,Day,Hour,Minute]
1039,11,Facility,Facility Cooling Setpoint Not Met Time [hr] !RunPeriod [Value,Min,Month,Day,Hour,Minute,Max,Month,Day,Hour,Minute]
1115,11,DX_HEATING_COIL,Heating Coil Heating Energy [J] !RunPeriod [Value,Min,Month,Day,Hour,Minute,Max,Month,Day,Hour,Minute]
1128,11,DX_HEATING_COIL,Heating Coil Electricity Energy [J] !RunPeriod [Value,Min,Month,Day,Hour,Minute,Max,Month,Day,Hour,Minute]
1153,11,DX_HEATING_COIL,Heating Coil Defrost Electricity Energy [J] !RunPeriod [Value,Min,Month,Day,Hour,Minute,Max,Month,Day,Hour,Minute]
1154,11,DX_HEATING_COIL,Heating Coil Crankcase Heater Electricity Energy [J] !RunPeriod [Value,Min,Month,Day,Hour,Minute,Max,Month,Day,Hour,Minute]
1155,11,HEATING_RESISTANCE_BACKUP,Heating Coil Heating Energy [J] !RunPeriod [Value,Min,Month,Day,Hour,Minute,Max,Month,Day,Hour,Minute]
1156,11,HEATING_RESISTANCE_BACKUP,Heating Coil Electricity Energy [J] !RunPeriod [Value,Min,Month,Day,Hour,Minute,Max,Month,Day,Hour,Minute]
1292,11,WATER HEATER,Water Heater Heat Loss Energy [J] !RunPeriod [Value,Min,Month,Day,Hour,Minute,Max,Month,Day,Hour,Minute]
1306,11,WATER HEATER,Water Heater Heating Energy [J] !RunPeriod [Value,Min,Month,Day,Hour,Minute,Max,Month,Day,Hour,Minute]
1307,11,WATER HEATER,Water Heater Unmet Demand Heat Transfer Energy [J] !RunPeriod [Value,Min,Month,Day,Hour,Minute,Max,Month,Day,Hour,Minute]
1308,11,WATER HEATER,Water Heater Electricity Energy [J] !RunPeriod [Value,Min,Month,Day,Hour,Minute,Max,Month,Day,Hour,Minute]
13,11,Electricity:Facility [J] !RunPeriod [Value,Min,Month,Day,Hour,Minute,Max,Month,Day,Hour,Minute]
1134,11,Heating:Electricity [J] !RunPeriod [Value,Min,Month,Day,Hour,Minute,Max,Month,Day,Hour,Minute]
1096,11,Cooling:Electricity [J] !RunPeriod [Value,Min,Month,Day,Hour,Minute,Max,Month,Day,Hour,Minute]
562,11,Fans:Electricity [J] !RunPeriod [Value,Min,Month,Day,Hour,Minute,Max,Month,Day,Hour,Minute]
1379,11,Pumps:Electricity [J] !RunPeriod [Value,Min,Month,Day,Hour,Minute,Max,Month,Day,Hour,Minute]
1326,11,WaterSystems:Electricity [J] !RunPeriod [Value,Min,Month,Day,Hour,Minute,Max,Month,Day,Hour,Minute]
61,11,InteriorLights:Electricity [J] !RunPeriod [Value,Min,Month,Day,Hour,Minute,Max,Month,Day,Hour,Minute]
1046,11,ExteriorLights:Electricity [J] !RunPeriod [Value,Min,Month,Day,Hour,Minute,Max,Month,Day,Hour,Minute]
134,11,InteriorEquipment:Electricity [J] !RunPeriod [Value,Min,Month,Day,Hour,Minute,Max,Month,Day,Hour,Minute]
170,11,gas_dryer:InteriorEquipment:Electricity [J] !RunPeriod [Value,Min,Month,Day,Hour,Minute,Max,Month,Day,Hour,Minute]
207,11,clotheswasher:InteriorEquipment:Electricity [J] !RunPeriod [Value,Min,Month,Day,Hour,Minute,Max,Month,Day,Hour,Minute]
244,11,dishwasher:InteriorEquipment:Electricity [J] !RunPeriod [Value,Min,Month,Day,Hour,Minute,Max,Month,Day,Hour,Minute]
281,11,refrigerator:InteriorEquipment:Electricity [J] !RunPeriod [Value,Min,Month,Day,Hour,Minute,Max,Month,Day,Hour,Minute]
318,11,electric_mels:InteriorEquipment:Electricity [J] !RunPeriod [Value,Min,Month,Day,Hour,Minute,Max,Month,Day,Hour,Minute]
355,11,NaturalGas:Facility [J] !RunPeriod [Value,Min,Month,Day,Hour,Minute,Max,Month,Day,Hour,Minute]
403,11,InteriorEquipment:NaturalGas [J] !RunPeriod [Value,Min,Month,Day,Hour,Minute,Max,Month,Day,Hour,Minute]
476,11,gas_dryer:InteriorEquipment:NaturalGas [J] !RunPeriod [Value,Min,Month,Day,Hour,Minute,Max,Month,Day,Hour,Minute]
513,11,gas_mels:InteriorEquipment:NaturalGas [J] !RunPeriod [Value,Min,Month,Day,Hour,Minute,Max,Month,Day,Hour,Minute]
End of Data Dictionary
1,EXTREME_WINTER,  41.20, -96.11,  -6.00, 320.00
5,7
1038,4.25,0.0,12,15, 1,15,0.25,12,19, 6,15
1039,0.0,0.0,12,15, 1,15,0.0,12,15, 1,15
581,0.4048806260794568,0.1779975966845873,12,21,17,60,0.7488823833362156,12,18,14,60
582,3.056073591247218,0.0,12,15, 1,15,14.6837696756065,12,15,13,52
583,0.06343034659165415,0.00017677088173076414,12,21,20,40,0.08289530564518881,12,18,14,52
1115,1905104868.5802178,0.0,12,15,23, 3,4115498.39188438,12,21, 4,60
1128,689620720.8597046,0.0,12,15,23, 3,1286094.4607867866,12,17, 6,45
1153,8673294.140523577,0.0,12,15,23, 3,76597.536456695,12,17,17,60
1154,18131675.80511289,0.0,12,15, 1,15,180000.0,12,21,15,45
1155,1168270523.6968474,0.0,12,15,11,37,6325465.561619227,12,19, 4,60
1156,1168270523.6968474,0.0,12,15,11,37,6325465.561619227,12,19, 4,60
1292,-25421426.457611367,-39761.11842566721,12,19, 5,30,-5190.541950539703,12,20,10,33
1306,184141205.55686945,0.0,12,15, 1,15,4050000.0,12,15, 8,45
1307,35815158.741145775,0.0,12,15, 1,15,9490660.204704193,12,18,10,30
1308,184141205.55686945,0.0,12,15, 1,15,4050000.0,12,15, 8,45
13,2518432779.6733007,458150.8545527997,12,21,15,15,12220409.026684172,12,19, 8,45
61,301924526.02383536,88139.10953165221,12,15, 1,15,1282023.4113694867,12,15,20,15
134,70666020.44019976,63564.01800854099,12,15, 4,15,156554.22484006523,12,20,20,15
170,5241013.419656067,348.4159749238097,12,15, 4,15,17476.39704006126,12,20,12,15
207,6509451.13922267,815.2532113832032,12,15, 3,15,22990.642799023623,12,20,10,15
244,12749673.399825225,1521.856143006317,12,15, 4,15,53038.631142310165,12,20,20,15
281,46165882.481495745,59938.60262432081,12,15, 5,15,81951.81706819107,12,15,19,15
318,0.0,0.0,12,15, 1,15,0.0,12,15, 1,15
355,197687796.27748066,18561.32405820678,12,15, 4,15,724774.895203776,12,20,18,15
403,197687796.27748066,18561.32405820678,12,15, 4,15,724774.895203776,12,20,18,15
476,106772067.24485716,7098.072629279515,12,15, 4,15,356036.3026282215,12,20,12,15
513,0.0,0.0,12,15, 1,15,0.0,12,15, 1,15
562,77004813.15020354,0.0,12,20,16,15,134914.15787986162,12,19,10,45
1046,0.0,0.0,12,15, 1,15,0.0,12,15, 1,15
1096,0.0,0.0,12,15, 1,15,0.0,12,15, 1,15
1134,1884696214.5021892,180000.0,12,20,16,15,7400897.879337806,12,19, 4,60
1326,184141205.5568694,0.0,12,15, 1,15,4050000.0,12,15, 8,45
1379,0.0,0.0,12,15, 1,15,0.0,12,15, 1,15
1,EXTREME_SUMMER,  41.20, -96.11,  -6.00, 320.00
5,7
1038,0.0,0.0, 7,13, 1,15,0.0, 7,13, 1,15
1039,38.0,0.0, 7,13, 1,15,0.25, 7,13,16,45
581,0.12610551952557392,0.0, 7,14,23, 3,0.49187263744885046, 7,13,16,50
582,3.0161482680499896,0.0, 7,19,20,42,10.27890295064141, 7,13,16,50
583,0.03965027574855747,0.0, 7,14,23, 3,0.07228680209831972, 7,13,16,50
1115,0.0,0.0, 7,13, 1,15,0.0, 7,13, 1,15
1128,0.0,0.0, 7,13, 1,15,0.0, 7,13, 1,15
1153,0.0,0.0, 7,13, 1,15,0.0, 7,13, 1,15
1154,0.0,0.0, 7,13, 1,15,0.0, 7,13, 1,15
1155,0.0,0.0, 7,13, 1,15,0.0, 7,13, 1,15
1156,0.0,0.0, 7,13, 1,15,0.0, 7,13, 1,15
1292,-21902663.775945157,-34342.814091687054, 7,18, 6,30,-3212.0641300250722, 7,17, 9,13
1306,143224361.16706923,0.0, 7,13, 1,15,4050000.0, 7,13, 8,45
1307,20781615.414693743,0.0, 7,13, 1,15,2085690.0556815506, 7,18,10,20
1308,143224361.16706923,0.0, 7,13, 1,15,4050000.0, 7,13, 8,45
13,1076456923.9314902,161349.01561085708, 7,15, 4,60,6964451.774274123, 7,19,20,60
61,301924526.02383536,88139.10953165221, 7,13, 1,15,1282023.4113694867, 7,13,20,15
134,70666020.44019976,63564.01800854099, 7,13, 4,15,156554.22484006523, 7,18,20,15
170,5241013.419656067,348.4159749238097, 7,13, 4,15,17476.39704006126, 7,18,12,15
207,6509451.13922267,815.2532113832032, 7,13, 3,15,22990.642799023623, 7,18,10,15
244,12749673.399825225,1521.856143006317, 7,13, 4,15,53038.631142310165, 7,18,20,15
281,46165882.481495745,59938.60262432081, 7,13, 5,15,81951.81706819107, 7,13,19,15
318,0.0,0.0, 7,13, 1,15,0.0, 7,13, 1,15
355,197687796.27748066,18561.32405820678, 7,13, 4,15,724774.895203776, 7,18,18,15
403,197687796.27748066,18561.32405820678, 7,13, 4,15,724774.895203776, 7,18,18,15
476,106772067.24485716,7098.072629279515, 7,13, 4,15,356036.3026282215, 7,18,12,15
513,0.0,0.0, 7,13, 1,15,0.0, 7,13, 1,15
562,53525244.28691203,0.0, 7,15, 6,30,134914.15787986162, 7,16,17,45
1046,0.0,0.0, 7,13, 1,15,0.0, 7,13, 1,15
1096,507116772.01347387,0.0, 7,15, 6,30,1418488.8927061048, 7,18,16,60
1134,0.0,0.0, 7,13, 1,15,0.0, 7,13, 1,15
1326,143224361.16706923,0.0, 7,13, 1,15,4050000.0, 7,13, 8,45
1379,0.0,0.0, 7,13, 1,15,0.0, 7,13, 1,15
1,ANNUAL,  41.20, -96.11,  -6.00, 320.00
5,365
1038,27.5,0.0, 1, 1, 1,15,0.25, 1,10, 6,15
1039,422.5,0.0, 1, 1, 1,15,0.25, 5, 7,15,45
581,0.2434029211519821,0.0, 5,20,23, 3,1.1253195482522313, 3,23,15,52
582,3.1530890468594235,0.0, 1, 1, 2,60,23.18832244926456, 3,23,15,52
583,0.03186916676366922,0.0, 5,20,23, 3,0.08255749637774823, 2, 1,22,60
1115,29094228975.56486,0.0, 1, 1,14,22,4379549.759872192,12,27, 6,45
1128,9632242639.74564,0.0, 1, 1,14,22,1323869.6327599622,12,27, 6,45
1153,317728485.7167562,0.0, 1, 1,14,22,121065.05514907252,12,26, 6,45
1154,1467229818.8205316,0.0, 1, 1, 2,45,180000.0, 1, 1,15,15
1155,8124791826.575943,0.0, 1, 1, 1,15,6325465.561619227, 1,10, 6,15
1156,8124791826.575943,0.0, 1, 1, 1,15,6325465.561619227, 1,10, 6,15
1292,-1227927335.0607111,-40035.43766127505,12,19, 6,45,-2367.570562541126, 6,21,11,30
1306,8762055757.771292,0.0, 1, 1, 1,15,4050000.0, 1, 2, 8,45
1307,1559019070.2876277,0.0, 1, 1, 1,15,10242608.60114694, 1,21,10,30
1308,8762055757.771292,0.0, 1, 1, 1,15,4050000.0, 1, 2, 8,45
13,58651460975.93833,151703.1275401932, 3,17, 4,15,11952932.885591455, 2, 8, 9,45
61,15743207428.383959,88139.10953165221, 1, 1, 1,15,1282023.4113694867, 1, 1,20,15
134,3685071073.4325233,63564.01800854099, 1, 2, 4,15,156554.22484006523, 1, 1,20,15
170,273393721.45532674,348.4159749238097, 1, 2, 4,15,17476.39704006126, 1, 1,12,15
207,339560869.0695816,815.2532113832032, 1, 2, 3,15,22990.642799023623, 1, 1,10,15
244,664895467.8009144,1521.856143006317, 1, 2, 4,15,53038.631142310165, 1, 1,20,15
281,2407221015.106824,59938.60262432081, 1, 1, 5,15,81951.81706819107, 1, 1,19,15
318,0.0,0.0, 1, 1, 1,15,0.0, 1, 1, 1,15
355,10310294493.051695,18561.32405820678, 1, 2, 4,15,724774.895203776, 1, 1,18,15
403,10310294493.051695,18561.32405820678, 1, 2, 4,15,724774.895203776, 1, 1,18,15
476,5569688622.066177,7098.072629279515, 1, 2, 4,15,356036.3026282215, 1, 1,12,15
513,0.0,0.0, 1, 1, 1,15,0.0, 1, 1, 1,15
562,2069855189.572589,0.0, 1, 1,14,30,134914.15787986162, 1,10,10,30
1046,0.0,0.0, 1, 1, 1,15,0.0, 1, 1, 1,15
1096,8849278755.917301,0.0, 1, 1, 1,15,1552241.4061024068, 8, 1,16,60
1134,19541992770.85884,0.0, 1,29,15,45,7471319.052458851, 2, 2, 4,45
1326,8762055757.77128,0.0, 1, 1, 1,15,4050000.0000000014,10, 4, 9,45
1379,0.0,0.0, 1, 1, 1,15,0.0, 1, 1, 1,15
End of Data
 Number of Records Written=          99
