Program Version,EnergyPlus, Version 22.2.0-c249759bad, YMD=2023.07.07 15:19
1,5,Environment Title[],Latitude[deg],Longitude[deg],Time Zone[],Elevation[m]
2,8,Day of Simulation[],Month[],Day of Month[],DST Indicator[1=yes 0=no],Hour[],StartMinute[],EndMinute[],DayType
3,5,Cumulative Day of Simulation[],Month[],Day of Month[],DST Indicator[1=yes 0=no],DayType  ! When Daily Report Variables Requested
4,2,Cumulative Days of Simulation[],Month[]  ! When Monthly Report Variables Requested
5,1,Cumulative Days of Simulation[] ! When Run Period Report Variables Requested
6,1,Calendar Year of Simulation[] ! When Annual Report Variables Requested
581,11,LIVING,AFN Zone Infiltration Air Change Rate [ach] !RunPeriod [Value,Min,Month,Day,Hour,Minute,Max,Month,Day,Hour,Minute]
582,11,ATTIC,AFN Zone Infiltration Air Change Rate [ach] !RunPeriod [Value,Min,Month,Day,Hour,Minute,Max,Month,Day,Hour,Minute]
583,11,CRAWLSPACE,AFN Zone Infiltration Air Change Rate [ach] !RunPeriod [Value,Min,Month,Day,Hour,Minute,Max,Month,Day,Hour,Minute]
1038,11,Facility,Facility Heating Setpoint Not Met Time [hr] !RunPeriod [Value,Min,Month,Day,Hour,Minute,Max,Month,Day,Hour,Minute]
1039,11,Facility,Facility Cooling Setpoint Not Met Time [hr] !RunPeriod [Value,Min,Month,Day,Hour,Minute,Max,Month,Day,Hour,Minute]
1115,11,DX_HEATING_COIL,Heating Coil Heating Energy [J] !RunPeriod [Value,Min,Month,Day,Hour,Minute,Max,Month,Day,Hour,Minute]
1128,11,DX_HEATING_COIL,Heating Coil Electricity Energy [J] !RunPeriod [Value,Min,Month,Day,Hour,Minute,Max,Month,Day,Hour,Minute]
1153,11,DX_HEATING_COIL,Heating Coil Defrost Electricity Energy [J] !RunPeriod [Value,Min,Month,Day,Hour,Minute,Max,Month,Day,Hour,Minute]
1154,11,DX_HEATING_COIL,Heating Coil Crankcase Heater Electricity Energy [J] !RunPeriod [Value,Min,Month,Day,Hour,Minute,Max,Month,Day,Hour,Minute]
1156,11,HEATING_RESISTANCE_BACKUP,Heating Coil Electricity Energy [J] !RunPeriod [Value,Min,Month,Day,Hour,Minute,Max,Month,Day,Hour,Minute]
13,11,Electricity:Facility [J] !RunPeriod [Value,Min,Month,Day,Hour,Minute,Max,Month,Day,Hour,Minute]
1134,11,Heating:Electricity [J] !RunPeriod [Value,Min,Month,Day,Hour,Minute,Max,Month,Day,Hour,Minute]
1096,11,Cooling:Electricity [J] !RunPeriod [Value,Min,Month,Day,Hour,Minute,Max,Month,Day,Hour,Minute]
562,11,Fans:Electricity [J] !RunPeriod [Value,Min,Month,Day,Hour,Minute,Max,Month,Day,Hour,Minute]
1388,11,Pumps:Electricity [J] !RunPeriod [Value,Min,Month,Day,Hour,Minute,Max,Month,Day,Hour,Minute]
1360,11,WaterSystems:Electricity [J] !RunPeriod [Value,Min,Month,Day,Hour,Minute,Max,Month,Day,Hour,Minute]
61,11,InteriorLights:Electricity [J] !RunPeriod [Value,Min,Month,Day,Hour,Minute,Max,Month,Day,Hour,Minute]
1046,11,ExteriorLights:Electricity [J] !RunPeriod [Value,Min,Month,Day,Hour,Minute,Max,Month,Day,Hour,Minute]
134,11,InteriorEquipment:Electricity [J] !RunPeriod [Value,Min,Month,Day,Hour,Minute,Max,Month,Day,Hour,Minute]
170,11,gas_dryer:InteriorEquipment:Electricity [J] !RunPeriod [Value,Min,Month,Day,Hour,Minute,Max,Month,Day,Hour,Minute]
207,11,clotheswasher:InteriorEquipment:Electricity [J] !RunPeriod [Value,Min,Month,Day,Hour,Minute,Max,Month,Day,Hour,Minute]
244,11,dishwasher:InteriorEquipment:Electricity [J] !RunPeriod [Value,Min,Month,Day,Hour,Minute,Max,Month,Day,Hour,Minute]
281,11,refrigerator:InteriorEquipment:Electricity [J] !RunPeriod [Value,Min,Month,Day,Hour,Minute,Max,Month,Day,Hour,Minute]
318,11,electric_mels:InteriorEquipment:Electricity [J] !RunPeriod [Value,Min,Month,Day,Hour,Minute,Max,Month,Day,Hour,Minute]
355,11,NaturalGas:Facility [J] !RunPeriod [Value,Min,Month,Day,Hour,Minute,Max,Month,Day,Hour,Minute]
1323,11,WaterSystems:NaturalGas [J] !RunPeriod [Value,Min,Month,Day,Hour,Minute,Max,Month,Day,Hour,Minute]
403,11,InteriorEquipment:NaturalGas [J] !RunPeriod [Value,Min,Month,Day,Hour,Minute,Max,Month,Day,Hour,Minute]
476,11,gas_dryer:InteriorEquipment:NaturalGas [J] !RunPeriod [Value,Min,Month,Day,Hour,Minute,Max,Month,Day,Hour,Minute]
513,11,gas_mels:InteriorEquipment:NaturalGas [J] !RunPeriod [Value,Min,Month,Day,Hour,Minute,Max,Month,Day,Hour,Minute]
End of Data Dictionary
1,EXTREME_WINTER,  35.62,-106.09,  -7.00,1935.00
5,15
1038,0.16666666666666666,0.0,12,22, 1,10,0.16666666666666666, 1, 2, 6,10
1039,0.0,0.0,12,22, 1,10,0.0,12,22, 1,10
581,0.33802378637964725,0.17531852928239844,12,25, 4,10,1.390144965080093,12,26,23,60
582,4.6448534636329155,0.0,12,22, 8,50,24.27506626712477,12,26,23,60
583,5.619559941636098,0.00021388834314164774,12,24,23,15,30.556213898769055,12,26,23,60
1115,3309190016.5085745,0.0,12,22, 6, 5,3622336.6877049473,12,27,10,60
1128,1083119368.9989047,0.0,12,22, 6, 5,1107211.4442103866,12,27,10,60
1153,45064062.418864824,0.0,12,22, 6, 5,87349.51892881357,12,23, 6,30
1154,133715398.28011812,0.0,12,22, 6, 2,120000.0,12,23,13,40
1156,299067590.5314876,0.0,12,22, 1, 1,2233267.101175548, 1, 2, 6,30
13,2492735213.2217155,191357.63440335175,12,25,14,60,4282260.630209685, 1, 2, 6,10
61,646981127.1939279,58759.40635443481,12,22, 1,10,854682.2742463244,12,22,20,10
134,151290040.75163832,42376.01200569399,12,22, 4,10,104369.48322671017,12,27,20,10
170,11185820.069951665,232.27731661587313,12,22, 4,10,11650.931360040839,12,27,12,10
207,13893028.574283868,543.5021409221355,12,22, 3,10,15327.095199349082,12,27,10,10
244,27284301.07562606,1014.5707620042115,12,22, 4,10,35359.08742820678,12,27,20,10
281,98926891.03177528,39959.06841621388,12,22, 5,10,54634.54471212738,12,22,19,10
318,0.0,0.0,12,22, 1,10,0.0,12,22, 1,10
355,1573928926.6914053,12374.216038804521,12,22, 4,10,3829218.154066982,12,23,18,60
403,422701517.161075,12374.216038804521,12,22, 4,10,483183.26346918393,12,27,18,10
476,227882097.80545104,4732.048419519677,12,22, 4,10,237357.535085481,12,27,12,10
513,0.0,0.0,12,22, 1,10,0.0,12,22, 1,10
562,122740825.04676907,0.0,12,22,23,10,118270.64883640614,12,26, 6,30
1046,0.0,0.0,12,22, 1,10,0.0,12,22, 1,10
1096,0.0,0.0,12,22, 1,10,0.0,12,22, 1,10
1134,1560966420.229376,0.0,12,25,14,60,3746430.6583626266, 1, 2, 6,10
1323,1151227409.5303307,0.0,12,22, 1,10,3375000.000000002, 1, 5,17,20
1360,10756800.0,4980.0,12,22, 1,30,4980.000000000002,12,22, 9,40
1388,0.0,0.0,12,22, 1,10,0.0,12,22, 1,10
1,EXTREME_SUMMER,  35.62,-106.09,  -7.00,1935.00
5,7
1038,0.0,0.0, 7,13, 1,10,0.0, 7,13, 1,10
1039,0.0,0.0, 7,13, 1,10,0.0, 7,13, 1,10
581,0.13949229045348335,0.0, 7,13,23,25,0.6217205501223678, 7,14,19,53
582,3.5678017265242965,0.08040174223041129, 7,14,22,10,14.722467969940185, 7,14,19,53
583,4.43058101265879,0.06350925657246373, 7,14, 3,60,19.71961268287239, 7,14,19,53
1115,0.0,0.0, 7,13, 1,10,0.0, 7,13, 1,10
1128,0.0,0.0, 7,13, 1,10,0.0, 7,13, 1,10
1153,0.0,0.0, 7,13, 1,10,0.0, 7,13, 1,10
1154,0.0,0.0, 7,13, 1,10,0.0, 7,13, 1,10
1156,0.0,0.0, 7,13, 1,10,0.0, 7,13, 1,10
13,963184650.8281708,106115.4183601288, 7,13, 4,10,2237936.3971464643, 7,19,19,10
61,301924526.0238348,58759.40635443481, 7,13, 1,10,854682.2742463244, 7,13,20,10
134,70666020.44019979,42376.01200569399, 7,13, 4,10,104369.48322671017, 7,18,20,10
170,5241013.419656074,232.27731661587313, 7,13, 4,10,11650.931360040839, 7,18,12,10
207,6509451.13922266,543.5021409221355, 7,13, 3,10,15327.095199349082, 7,18,10,10
244,12749673.39982522,1014.5707620042115, 7,13, 4,10,35359.08742820678, 7,18,20,10
281,46165882.48149605,39959.06841621388, 7,13, 5,10,54634.54471212738, 7,13,19,10
318,0.0,0.0, 7,13, 1,10,0.0, 7,13, 1,10
355,643449249.9904586,12374.216038804521, 7,13, 4,10,3829218.154066982, 7,14,18,60
403,197687796.27748126,12374.216038804521, 7,13, 4,10,483183.26346918393, 7,18,18,10
476,106772067.24485692,4732.048419519677, 7,13, 4,10,237357.535085481, 7,18,12,10
513,0.0,0.0, 7,13, 1,10,0.0, 7,13, 1,10
562,55285756.72179306,0.0, 7,13, 4,10,118270.64883640615, 7,19,18,40
1046,0.0,0.0, 7,13, 1,10,0.0, 7,13, 1,10
1096,530288507.64234453,0.0, 7,13, 4,10,1323931.9549573518, 7,19,16,10
1134,0.0,0.0, 7,13, 1,10,0.0, 7,13, 1,10
1323,445761453.7129754,0.0, 7,13, 1,10,3375000.0000000005, 7,19,21,40
1360,5019840.0,4979.999999999998, 7,15,17,60,4980.000000000002, 7,14,20,30
1388,0.0,0.0, 7,13, 1,10,0.0, 7,13, 1,10
1,ANNUAL,  35.62,-106.09,  -7.00,1935.00
5,365
1038,0.9999999999999999,0.0, 1, 1, 1,10,0.16666666666666666, 1, 2, 6,10
1039,25.333333333333336,0.0, 1, 1, 1,10,0.16666666666666666, 4, 2,13,30
581,0.24891715235249565,0.0, 5,24,20,52,1.390806092216482,12,26,23,60
582,4.328214807693679,0.0, 1, 2,19,23,25.718784641877335, 5,17,23,60
583,5.051859907237206,0.0, 8, 3,23, 2,32.39072590554848, 6, 9,18,53
1115,18090226486.486637,0.0, 1, 1,17,15,3652763.476787494, 2, 9, 6,30
1128,5854508148.943059,0.0, 1, 1,17,15,1118016.890605137, 2, 9, 6,30
1153,190377496.01033112,0.0, 1, 1,17,15,97400.76791018245,12,23, 6,30
1154,2151924103.6342707,0.0, 1, 1, 6, 3,120000.0, 1, 2,14,20
1156,966113456.141917,0.0, 1, 1, 1, 5,3050116.812781907, 1,11, 6,40
13,39058693671.36433,106115.41836012878, 6, 2, 4,40,4867846.386096719, 1,11, 6,10
61,15743207428.39043,58759.40635443481, 1, 1, 1,10,854682.2742463244, 1, 1,20,10
134,3685071073.433083,42376.01200569399, 1, 2, 4,10,104369.48322671017, 1, 1,20,10
170,273393721.45534325,232.27731661587313, 1, 2, 4,10,11650.931360040839, 1, 1,12,10
207,339560869.06955314,543.5021409221355, 1, 2, 3,10,15327.095199349082, 1, 1,10,10
244,664895467.8009839,1014.5707620042115, 1, 2, 4,10,35359.08742820678, 1, 1,20,10
281,2407221015.1057043,39959.06841621388, 1, 1, 5,10,54634.54471212738, 1, 1,19,10
318,0.0,0.0, 1, 1, 1,10,0.0, 1, 1, 1,10
355,35720374587.24905,12374.216038804521, 1, 2, 4,10,3829218.154066983, 4,25,18,60
403,10310294493.052883,12374.216038804521, 1, 2, 4,10,483183.26346918393, 1, 1,18,10
476,5569688622.065564,4732.048419519677, 1, 2, 4,10,237357.535085481, 1, 1,12,10
513,0.0,0.0, 1, 1, 1,10,0.0, 1, 1, 1,10
562,1688447658.274654,0.0, 1, 1,17,20,118270.64883640615, 6, 5,17,10
1046,0.0,0.0, 1, 1, 1,10,0.0, 1, 1, 1,10
1096,8517295506.542352,0.0, 1, 1, 1,10,1330549.9434070757, 7,19,15,60
1134,9162923204.72955,0.0, 1,23,15,60,4332016.4142496595, 1,11, 6,10
1323,25410080094.20025,0.0, 1, 1, 1,10,3375000.000000002, 7,25, 9,60
1360,261748800.0,4979.999999999998, 3, 8, 9,50,4980.000000000002, 1, 4,21,20
1388,0.0,0.0, 1, 1, 1,10,0.0, 1, 1, 1,10
End of Data
 Number of Records Written=          87
