Program Version,EnergyPlus, Version 22.2.0-c249759bad, YMD=2023.07.07 15:22
1,5,Environment Title[],Latitude[deg],Longitude[deg],Time Zone[],Elevation[m]
2,8,Day of Simulation[],Month[],Day of Month[],DST Indicator[1=yes 0=no],Hour[],StartMinute[],EndMinute[],DayType
3,5,Cumulative Day of Simulation[],Month[],Day of Month[],DST Indicator[1=yes 0=no],DayType  ! When Daily Report Variables Requested
4,2,Cumulative Days of Simulation[],Month[]  ! When Monthly Report Variables Requested
5,1,Cumulative Days of Simulation[] ! When Run Period Report Variables Requested
6,1,Calendar Year of Simulation[] ! When Annual Report Variables Requested
581,11,LIVING,AFN Zone Infiltration Air Change Rate [ach] !RunPeriod [Value,Min,Month,Day,Hour,Minute,Max,Month,Day,Hour,Minute]
582,11,ATTIC,AFN Zone Infiltration Air Change Rate [ach] !RunPeriod [Value,Min,Month,Day,Hour,Minute,Max,Month,Day,Hour,Minute]
583,11,CRAWLSPACE,AFN Zone Infiltration Air Change Rate [ach] !RunPeriod [Value,Min,Month,Day,Hour,Minute,Max,Month,Day,Hour,Minute]
1038,11,Facility,Facility Heating Setpoint Not Met Time [hr] !RunPeriod [Value,Min,Month,Day,Hour,Minute,Max,Month,Day,Hour,Minute]
1039,11,Facility,Facility Cooling Setpoint Not Met Time [hr] !RunPeriod [Value,Min,Month,Day,Hour,Minute,Max,Month,Day,Hour,Minute]
1115,11,DX_HEATING_COIL,Heating Coil Heating Energy [J] !RunPeriod [Value,Min,Month,Day,Hour,Minute,Max,Month,Day,Hour,Minute]
1128,11,DX_HEATING_COIL,Heating Coil Electricity Energy [J] !RunPeriod [Value,Min,Month,Day,Hour,Minute,Max,Month,Day,Hour,Minute]
1153,11,DX_HEATING_COIL,Heating Coil Defrost Electricity Energy [J] !RunPeriod [Value,Min,Month,Day,Hour,Minute,Max,Month,Day,Hour,Minute]
1154,11,DX_HEATING_COIL,Heating Coil Crankcase Heater Electricity Energy [J] !RunPeriod [Value,Min,Month,Day,Hour,Minute,Max,Month,Day,Hour,Minute]
1156,11,HEATING_RESISTANCE_BACKUP,Heating Coil Electricity Energy [J] !RunPeriod [Value,Min,Month,Day,Hour,Minute,Max,Month,Day,Hour,Minute]
13,11,Electricity:Facility [J] !RunPeriod [Value,Min,Month,Day,Hour,Minute,Max,Month,Day,Hour,Minute]
1134,11,Heating:Electricity [J] !RunPeriod [Value,Min,Month,Day,Hour,Minute,Max,Month,Day,Hour,Minute]
1096,11,Cooling:Electricity [J] !RunPeriod [Value,Min,Month,Day,Hour,Minute,Max,Month,Day,Hour,Minute]
562,11,Fans:Electricity [J] !RunPeriod [Value,Min,Month,Day,Hour,Minute,Max,Month,Day,Hour,Minute]
1388,11,Pumps:Electricity [J] !RunPeriod [Value,Min,Month,Day,Hour,Minute,Max,Month,Day,Hour,Minute]
1360,11,WaterSystems:Electricity [J] !RunPeriod [Value,Min,Month,Day,Hour,Minute,Max,Month,Day,Hour,Minute]
61,11,InteriorLights:Electricity [J] !RunPeriod [Value,Min,Month,Day,Hour,Minute,Max,Month,Day,Hour,Minute]
1046,11,ExteriorLights:Electricity [J] !RunPeriod [Value,Min,Month,Day,Hour,Minute,Max,Month,Day,Hour,Minute]
134,11,InteriorEquipment:Electricity [J] !RunPeriod [Value,Min,Month,Day,Hour,Minute,Max,Month,Day,Hour,Minute]
170,11,gas_dryer:InteriorEquipment:Electricity [J] !RunPeriod [Value,Min,Month,Day,Hour,Minute,Max,Month,Day,Hour,Minute]
207,11,clotheswasher:InteriorEquipment:Electricity [J] !RunPeriod [Value,Min,Month,Day,Hour,Minute,Max,Month,Day,Hour,Minute]
244,11,dishwasher:InteriorEquipment:Electricity [J] !RunPeriod [Value,Min,Month,Day,Hour,Minute,Max,Month,Day,Hour,Minute]
281,11,refrigerator:InteriorEquipment:Electricity [J] !RunPeriod [Value,Min,Month,Day,Hour,Minute,Max,Month,Day,Hour,Minute]
318,11,electric_mels:InteriorEquipment:Electricity [J] !RunPeriod [Value,Min,Month,Day,Hour,Minute,Max,Month,Day,Hour,Minute]
355,11,NaturalGas:Facility [J] !RunPeriod [Value,Min,Month,Day,Hour,Minute,Max,Month,Day,Hour,Minute]
1323,11,WaterSystems:NaturalGas [J] !RunPeriod [Value,Min,Month,Day,Hour,Minute,Max,Month,Day,Hour,Minute]
403,11,InteriorEquipment:NaturalGas [J] !RunPeriod [Value,Min,Month,Day,Hour,Minute,Max,Month,Day,Hour,Minute]
476,11,gas_dryer:InteriorEquipment:NaturalGas [J] !RunPeriod [Value,Min,Month,Day,Hour,Minute,Max,Month,Day,Hour,Minute]
513,11,gas_mels:InteriorEquipment:NaturalGas [J] !RunPeriod [Value,Min,Month,Day,Hour,Minute,Max,Month,Day,Hour,Minute]
End of Data Dictionary
1,EXTREME_WINTER,  43.60,-110.73,  -7.00,1966.00
5,7
1038,1.5,0.0, 1, 1, 1,10,0.16666666666666666, 1, 1, 6,10
1039,0.0,0.0, 1, 1, 1,10,0.0, 1, 1, 1,10
581,0.33537611984938764,0.21633757210464694, 1, 7,15,55,0.7567819062897472, 1, 6, 5,55
582,1.8610356448569174,0.0, 1, 3, 4,60,12.101905562392034, 1, 6, 5,55
583,2.8897230462421355,0.18913621073082065, 1, 5,23, 4,17.687592000604873, 1, 6, 5,55
1115,2119419436.4794784,0.0, 1, 1,23, 2,2851834.6529945144, 1, 7, 5,10
1128,830005101.233328,0.0, 1, 1,23, 2,929115.5846216916, 1, 6,14,20
1153,17295027.829605486,0.0, 1, 1,23, 2,55956.230010267376, 1, 7, 1,60
1154,6728086.012384851,0.0, 1, 1, 1, 1,80947.62499135493, 1, 7,13,20
1156,1459563069.9607592,0.0, 1, 1,15,10,4085065.6911652675, 1, 4, 7,10
13,2792196405.0217066,582078.0834364773, 1, 7,12,40,5499218.32543092, 1, 4, 7,10
61,301924526.0238348,58759.40635443481, 1, 1, 1,10,854682.2742463244, 1, 1,20,10
134,70666020.44019979,42376.01200569399, 1, 1, 4,10,104369.48322671017, 1, 6,20,10
170,5241013.419656074,232.27731661587313, 1, 1, 4,10,11650.931360040839, 1, 6,12,10
207,6509451.13922266,543.5021409221355, 1, 1, 3,10,15327.095199349082, 1, 6,10,10
244,12749673.39982522,1014.5707620042115, 1, 1, 4,10,35359.08742820678, 1, 6,20,10
281,46165882.48149605,39959.06841621388, 1, 1, 5,10,54634.54471212738, 1, 1,19,10
318,0.0,0.0, 1, 1, 1,10,0.0, 1, 1, 1,10
355,734738789.0116013,12374.216038804521, 1, 1, 4,10,3829218.154066983, 1, 2,18,60
403,197687796.27748126,12374.216038804521, 1, 1, 4,10,483183.26346918393, 1, 6,18,10
476,106772067.24485692,4732.048419519677, 1, 1, 4,10,237357.535085481, 1, 6,12,10
513,0.0,0.0, 1, 1, 1,10,0.0, 1, 1, 1,10
562,100994733.52159561,28782.76933165062, 1, 7,12,40,106242.06168024804, 1, 1, 1,10
1046,0.0,0.0, 1, 1, 1,10,0.0, 1, 1, 1,10
1096,0.0,0.0, 1, 1, 1,10,0.0, 1, 1, 1,10
1134,2313591285.0360756,354224.5686283149, 1, 7,12,40,4939535.916050667, 1, 4, 6,60
1323,537050992.7341174,0.0, 1, 1, 1,10,3375000.000000001, 1, 2,18,60
1360,5019840.0,4979.999999999998, 1, 1, 1,10,4980.000000000001, 1, 1, 1,20
1388,0.0,0.0, 1, 1, 1,10,0.0, 1, 1, 1,10
1,EXTREME_SUMMER,  43.60,-110.73,  -7.00,1966.00
5,7
1038,0.0,0.0, 7, 8, 1,10,0.0, 7, 8, 1,10
1039,0.0,0.0, 7, 8, 1,10,0.0, 7, 8, 1,10
581,0.1654107228478471,0.0, 7, 9,19,60,0.8654566021446625, 7,12,19,53
582,2.5461232342979208,0.0, 7, 8, 6,50,16.236204663134007, 7,12,19,53
583,3.0250053095172813,0.0001402494900025403, 7,12, 7,37,20.11009077073742, 7,12,20,25
1115,0.0,0.0, 7, 8, 1, 5,0.0, 7, 8, 1, 5
1128,0.0,0.0, 7, 8, 1, 5,0.0, 7, 8, 1, 5
1153,0.0,0.0, 7, 8, 1, 5,0.0, 7, 8, 1, 5
1154,11132279.900695298,0.0, 7, 8, 1, 5,120000.0, 7, 8, 6,30
1156,0.0,0.0, 7, 8, 1, 5,0.0, 7, 8, 1, 5
13,704769664.6793252,106115.4183601288, 7, 8, 4,10,1907098.9184046593, 7, 8,19,10
61,301924526.0238348,58759.40635443481, 7, 8, 1,10,854682.2742463244, 7, 8,20,10
134,70666020.44019979,42376.01200569399, 7, 8, 4,10,104369.48322671017, 7,13,20,10
170,5241013.419656074,232.27731661587313, 7, 8, 4,10,11650.931360040839, 7,13,12,10
207,6509451.13922266,543.5021409221355, 7, 8, 3,10,15327.095199349082, 7,13,10,10
244,12749673.39982522,1014.5707620042115, 7, 8, 4,10,35359.08742820678, 7,13,20,10
281,46165882.48149605,39959.06841621388, 7, 8, 5,10,54634.54471212738, 7, 8,19,10
318,0.0,0.0, 7, 8, 1,10,0.0, 7, 8, 1,10
355,648693987.3040587,12374.216038804521, 7, 8, 4,10,3829218.154066982, 7, 9,18,60
403,197687796.27748126,12374.216038804521, 7, 8, 4,10,483183.26346918393, 7,13,18,10
476,106772067.24485692,4732.048419519677, 7, 8, 4,10,237357.535085481, 7,13,12,10
513,0.0,0.0, 7, 8, 1,10,0.0, 7, 8, 1,10
562,34528382.57505843,0.0, 7, 8, 3,20,101681.11484495891, 7, 8,19,10
1046,0.0,0.0, 7, 8, 1,10,0.0, 7, 8, 1,10
1096,281498615.73953736,0.0, 7, 8, 3,20,935572.8722413325, 7, 8,19,10
1134,11132279.900695298,0.0, 7, 8, 1,10,120000.0, 7, 8, 5,40
1323,451006191.02657604,0.0, 7, 8, 1,10,3375000.0000000005, 7, 8,16,60
1360,5019840.0,4979.999999999998, 7,11, 9,40,4980.000000000001, 7, 8, 3,30
1388,0.0,0.0, 7, 8, 1,10,0.0, 7, 8, 1,10
1,ANNUAL,  43.60,-110.73,  -7.00,1966.00
5,365
1038,40.50000000000002,0.0, 1, 1, 1,10,0.16666666666666666, 1, 1, 6,10
1039,10.33333333333333,0.0, 1, 1, 1,10,0.16666666666666666, 4, 5,13,60
581,0.27551027188021343,0.0, 7, 5,21,53,1.8249590882271334, 5,10,17,53
582,3.3358549493735516,0.0, 1, 3, 4,60,42.22110770857715, 5,10,17,53
583,4.1932117574740015,0.000055039131036673285, 9, 9, 9,24,52.86060009201174, 5,10,17,53
1115,46992618379.08005,0.0, 1, 1,23, 2,3403142.4834534274, 1,22, 6,50
1128,15795250422.54437,0.0, 1, 1,23, 2,1007837.3833122907,11,20, 6,30
1153,643587085.7958344,0.0, 1, 1,23, 2,116108.14061406985, 3, 3, 6,30
1154,2309114277.2498794,0.0, 1, 1, 1, 1,120000.0, 1,29,14,60
1156,12782950020.380388,0.0, 1, 1,15,10,4100959.654975501, 1,10, 3,10
13,57264148680.691246,106115.4183601288, 6,27, 4,10,5539863.277263524, 1,23, 7,30
61,15743207428.39043,58759.40635443481, 1, 1, 1,10,854682.2742463244, 1, 1,20,10
134,3685071073.433083,42376.01200569399, 1, 2, 4,10,104369.48322671017, 1, 1,20,10
170,273393721.45534325,232.27731661587313, 1, 2, 4,10,11650.931360040839, 1, 1,12,10
207,339560869.06955314,543.5021409221355, 1, 2, 3,10,15327.095199349082, 1, 1,10,10
244,664895467.8009839,1014.5707620042115, 1, 2, 4,10,35359.08742820678, 1, 1,20,10
281,2407221015.1057043,39959.06841621388, 1, 1, 5,10,54634.54471212738, 1, 1,19,10
318,0.0,0.0, 1, 1, 1,10,0.0, 1, 1, 1,10
355,35813042828.512695,12374.216038804521, 1, 2, 4,10,3829218.154066983, 5,19,18,30
403,10310294493.052883,12374.216038804521, 1, 2, 4,10,483183.26346918393, 1, 1,18,10
476,5569688622.065564,4732.048419519677, 1, 2, 4,10,237357.535085481, 1, 1,12,10
513,0.0,0.0, 1, 1, 1,10,0.0, 1, 1, 1,10
562,2328603586.2104197,0.0, 1,16,23,10,106242.06168024804, 1, 1, 1,10
1046,0.0,0.0, 1, 1, 1,10,0.0, 1, 1, 1,10
1096,3714615986.693593,0.0, 1, 1, 1,10,1019986.3037408978, 7,23,18,10
1134,31530901805.970367,0.0, 4, 4,14,60,4964589.856021742, 1,23, 7,30
1323,25502748335.46374,0.0, 1, 1, 1,10,3375000.000000001, 1, 2,21,50
1360,261748800.0,4979.999999999998, 1, 1, 1,10,4980.000000000002, 2,21, 9,30
1388,0.0,0.0, 1, 1, 1,10,0.0, 1, 1, 1,10
End of Data
 Number of Records Written=          87
