Program Version,EnergyPlus, Version 22.2.0-c249759bad, YMD=2023.07.07 15:19
1,5,Environment Title[],Latitude[deg],Longitude[deg],Time Zone[],Elevation[m]
2,8,Day of Simulation[],Month[],Day of Month[],DST Indicator[1=yes 0=no],Hour[],StartMinute[],EndMinute[],DayType
3,5,Cumulative Day of Simulation[],Month[],Day of Month[],DST Indicator[1=yes 0=no],DayType  ! When Daily Report Variables Requested
4,2,Cumulative Days of Simulation[],Month[]  ! When Monthly Report Variables Requested
5,1,Cumulative Days of Simulation[] ! When Run Period Report Variables Requested
6,1,Calendar Year of Simulation[] ! When Annual Report Variables Requested
581,11,LIVING,AFN Zone Infiltration Air Change Rate [ach] !RunPeriod [Value,Min,Month,Day,Hour,Minute,Max,Month,Day,Hour,Minute]
582,11,ATTIC,AFN Zone Infiltration Air Change Rate [ach] !RunPeriod [Value,Min,Month,Day,Hour,Minute,Max,Month,Day,Hour,Minute]
583,11,CRAWLSPACE,AFN Zone Infiltration Air Change Rate [ach] !RunPeriod [Value,Min,Month,Day,Hour,Minute,Max,Month,Day,Hour,Minute]
1038,11,Facility,Facility Heating Setpoint Not Met Time [hr] !RunPeriod [Value,Min,Month,Day,Hour,Minute,Max,Month,Day,Hour,Minute]
1039,11,Facility,Facility Cooling Setpoint Not Met Time [hr] !RunPeriod [Value,Min,Month,Day,Hour,Minute,Max,Month,Day,Hour,Minute]
1115,11,DX_HEATING_COIL,Heating Coil Heating Energy [J] !RunPeriod [Value,Min,Month,Day,Hour,Minute,Max,Month,Day,Hour,Minute]
1128,11,DX_HEATING_COIL,Heating Coil Electricity Energy [J] !RunPeriod [Value,Min,Month,Day,Hour,Minute,Max,Month,Day,Hour,Minute]
1153,11,DX_HEATING_COIL,Heating Coil Defrost Electricity Energy [J] !RunPeriod [Value,Min,Month,Day,Hour,Minute,Max,Month,Day,Hour,Minute]
1154,11,DX_HEATING_COIL,Heating Coil Crankcase Heater Electricity Energy [J] !RunPeriod [Value,Min,Month,Day,Hour,Minute,Max,Month,Day,Hour,Minute]
1156,11,HEATING_RESISTANCE_BACKUP,Heating Coil Electricity Energy [J] !RunPeriod [Value,Min,Month,Day,Hour,Minute,Max,Month,Day,Hour,Minute]
13,11,Electricity:Facility [J] !RunPeriod [Value,Min,Month,Day,Hour,Minute,Max,Month,Day,Hour,Minute]
1134,11,Heating:Electricity [J] !RunPeriod [Value,Min,Month,Day,Hour,Minute,Max,Month,Day,Hour,Minute]
1096,11,Cooling:Electricity [J] !RunPeriod [Value,Min,Month,Day,Hour,Minute,Max,Month,Day,Hour,Minute]
562,11,Fans:Electricity [J] !RunPeriod [Value,Min,Month,Day,Hour,Minute,Max,Month,Day,Hour,Minute]
1388,11,Pumps:Electricity [J] !RunPeriod [Value,Min,Month,Day,Hour,Minute,Max,Month,Day,Hour,Minute]
1360,11,WaterSystems:Electricity [J] !RunPeriod [Value,Min,Month,Day,Hour,Minute,Max,Month,Day,Hour,Minute]
61,11,InteriorLights:Electricity [J] !RunPeriod [Value,Min,Month,Day,Hour,Minute,Max,Month,Day,Hour,Minute]
1046,11,ExteriorLights:Electricity [J] !RunPeriod [Value,Min,Month,Day,Hour,Minute,Max,Month,Day,Hour,Minute]
134,11,InteriorEquipment:Electricity [J] !RunPeriod [Value,Min,Month,Day,Hour,Minute,Max,Month,Day,Hour,Minute]
170,11,gas_dryer:InteriorEquipment:Electricity [J] !RunPeriod [Value,Min,Month,Day,Hour,Minute,Max,Month,Day,Hour,Minute]
207,11,clotheswasher:InteriorEquipment:Electricity [J] !RunPeriod [Value,Min,Month,Day,Hour,Minute,Max,Month,Day,Hour,Minute]
244,11,dishwasher:InteriorEquipment:Electricity [J] !RunPeriod [Value,Min,Month,Day,Hour,Minute,Max,Month,Day,Hour,Minute]
281,11,refrigerator:InteriorEquipment:Electricity [J] !RunPeriod [Value,Min,Month,Day,Hour,Minute,Max,Month,Day,Hour,Minute]
318,11,electric_mels:InteriorEquipment:Electricity [J] !RunPeriod [Value,Min,Month,Day,Hour,Minute,Max,Month,Day,Hour,Minute]
355,11,NaturalGas:Facility [J] !RunPeriod [Value,Min,Month,Day,Hour,Minute,Max,Month,Day,Hour,Minute]
1323,11,WaterSystems:NaturalGas [J] !RunPeriod [Value,Min,Month,Day,Hour,Minute,Max,Month,Day,Hour,Minute]
403,11,InteriorEquipment:NaturalGas [J] !RunPeriod [Value,Min,Month,Day,Hour,Minute,Max,Month,Day,Hour,Minute]
476,11,gas_dryer:InteriorEquipment:NaturalGas [J] !RunPeriod [Value,Min,Month,Day,Hour,Minute,Max,Month,Day,Hour,Minute]
513,11,gas_mels:InteriorEquipment:NaturalGas [J] !RunPeriod [Value,Min,Month,Day,Hour,Minute,Max,Month,Day,Hour,Minute]
End of Data Dictionary
1,EXTREME_WINTER,  36.08,-115.17,  -8.00, 664.50
5,15
1038,0.16666666666666666,0.0,12,22, 1,10,0.16666666666666666, 1, 4, 6,10
1039,0.0,0.0,12,22, 1,10,0.0,12,22, 1,10
581,0.26269396345967305,0.12578604961368658,12,23, 9,51,0.8882550013791426,12,25, 1,53
582,3.182668915527594,0.0,12,22, 1,45,18.914794591963705,12,25, 1,32
583,3.9129035827787466,0.00007909171992914168,12,23,10, 3,24.695548419578277,12,25, 1,53
1115,702487261.6459064,0.0,12,22, 1, 2,2390884.903813142, 1, 2, 6,30
1128,218990296.66182426,0.0,12,22, 1, 2,744659.4657233828, 1, 2, 6,30
1153,3984865.804795329,0.0,12,22, 1, 2,40311.062761141395, 1, 3,10,10
1154,204146025.42859966,0.0,12,22, 9,30,120000.0,12,22, 1,60
1156,2806442.5791536192,0.0,12,22, 1, 2,572152.1616798989, 1, 5, 6, 3
13,1304459050.5411057,193494.1410400855,12,22,12,10,1777852.077738925, 1, 5, 6,10
61,646981127.1939279,58759.40635443481,12,22, 1,10,854682.2742463244,12,22,20,10
134,151290040.75163832,42376.01200569399,12,22, 4,10,104369.48322671017,12,27,20,10
170,11185820.069951665,232.27731661587313,12,22, 4,10,11650.931360040839,12,27,12,10
207,13893028.574283868,543.5021409221355,12,22, 3,10,15327.095199349082,12,27,10,10
244,27284301.07562606,1014.5707620042115,12,22, 4,10,35359.08742820678,12,27,20,10
281,98926891.03177528,39959.06841621388,12,22, 5,10,54634.54471212738,12,22,19,10
318,0.0,0.0,12,22, 1,10,0.0,12,22, 1,10
355,1568408951.1454074,12374.216038804521,12,22, 4,10,3829218.154066982,12,26,18,20
403,422701517.161075,12374.216038804521,12,22, 4,10,483183.26346918393,12,27,18,10
476,227882097.80545104,4732.048419519677,12,22, 4,10,237357.535085481,12,27,12,10
513,0.0,0.0,12,22, 1,10,0.0,12,22, 1,10
562,28331834.25547171,0.0,12,22, 1,10,93820.26811738659, 1, 4, 6,10
1046,0.0,0.0,12,22, 1,10,0.0,12,22, 1,10
1096,37171617.86569458,0.0,12,22, 1,10,285924.03378019016,12,23,14,60
1134,429927630.4743728,0.0,12,22, 9,40,1291116.927335524, 1, 5, 6,10
1323,1145707433.9843318,0.0,12,22, 1,10,3375000.000000001,12,27,22,10
1360,10756800.0,4979.999999999999,12,27, 2,20,4980.000000000002,12,26,18,60
1388,0.0,0.0,12,22, 1,10,0.0,12,22, 1,10
1,EXTREME_SUMMER,  36.08,-115.17,  -8.00, 664.50
5,7
1038,0.0,0.0, 6,29, 1,10,0.0, 6,29, 1,10
1039,44.83333333333333,0.0, 6,29, 1,10,0.16666666666666666, 6,29,13,40
581,0.11458135716409908,0.0, 6,29,10,52,0.3733965466274894, 7, 5, 9,55
582,4.048472550122423,0.13123972669751546, 6,30, 8,12,11.840613129509963, 7, 5,13,60
583,5.150611324755558,0.21017673484287713, 7, 4, 5,30,14.026826276136397, 7, 5,17,55
1115,0.0,0.0, 6,29, 1, 5,0.0, 6,29, 1, 5
1128,0.0,0.0, 6,29, 1, 5,0.0, 6,29, 1, 5
1153,0.0,0.0, 6,29, 1, 5,0.0, 6,29, 1, 5
1154,0.0,0.0, 6,29, 1, 5,0.0, 6,29, 1, 5
1156,0.0,0.0, 6,29, 1, 5,0.0, 6,29, 1, 5
13,1541126587.0189564,354274.0191957912, 7, 4, 4,60,2734110.8327997313, 6,29,20,10
61,301924526.0238348,58759.40635443481, 6,29, 1,10,854682.2742463244, 6,29,20,10
134,70666020.44019979,42376.01200569399, 6,29, 4,10,104369.48322671017, 7, 4,20,10
170,5241013.419656074,232.27731661587313, 6,29, 4,10,11650.931360040839, 7, 4,12,10
207,6509451.13922266,543.5021409221355, 6,29, 3,10,15327.095199349082, 7, 4,10,10
244,12749673.39982522,1014.5707620042115, 6,29, 4,10,35359.08742820678, 7, 4,20,10
281,46165882.48149605,39959.06841621388, 6,29, 5,10,54634.54471212738, 6,29,19,10
318,0.0,0.0, 6,29, 1,10,0.0, 6,29, 1,10
355,654726542.5430208,12374.216038804521, 6,29, 4,10,3829218.154066982, 6,30,18,60
403,197687796.27748126,12374.216038804521, 6,29, 4,10,483183.26346918393, 7, 4,18,10
476,106772067.24485692,4732.048419519677, 6,29, 4,10,237357.535085481, 7, 4,12,10
513,0.0,0.0, 6,29, 1,10,0.0, 6,29, 1,10
562,91111441.5557913,23989.588329107515, 7, 4, 5,30,128967.34053183842, 6,29,13,10
1046,0.0,0.0, 6,29, 1,10,0.0, 6,29, 1,10
1096,1072404758.9991326,223736.1681697682, 7, 4, 5,30,1778467.2260885094, 6,30,15,60
1134,0.0,0.0, 6,29, 1,10,0.0, 6,29, 1,10
1323,457038746.2655387,0.0, 6,29, 1,10,3375000.0000000005, 7, 5,21,40
1360,5019840.0,4980.0, 6,29, 1,10,4980.000000000001, 6,29, 7,30
1388,0.0,0.0, 6,29, 1,10,0.0, 6,29, 1,10
1,ANNUAL,  36.08,-115.17,  -8.00, 664.50
5,365
1038,0.0,0.0, 1, 1, 1,10,0.0, 1, 1, 1,10
1039,602.333333333333,0.0, 1, 1, 1,10,0.16666666666666666, 1,19,11,60
581,0.20513567539106892,0.0, 3,31,18,53,1.1174873289619656, 3, 7,15,60
582,3.918937201696794,0.0, 1, 1, 1, 5,25.528707043648396, 3, 7,15,60
583,5.086246961286376,0.0, 7,16,23, 2,33.798478318975825, 3, 7,15,60
1115,1741078759.6651082,0.0, 1, 1, 1, 5,2337350.027186046, 1,11, 6,30
1128,525418491.7738501,0.0, 1, 1, 1, 5,717281.6715571281, 1,11, 6,30
1153,6434875.562740621,0.0, 1, 1, 1, 5,37649.02493624244, 1, 3,10,10
1154,967765563.4262595,0.0, 1, 1, 6, 2,120000.0, 1, 1, 1,20
1156,4219088.710995602,0.0, 1, 1, 1, 5,572152.1616798989, 1, 5, 6, 3
13,46790361466.709854,106115.4183601288, 1,17, 4,10,2757291.817928171, 6,28,20,10
61,15743207428.39043,58759.40635443481, 1, 1, 1,10,854682.2742463244, 1, 1,20,10
134,3685071073.433083,42376.01200569399, 1, 2, 4,10,104369.48322671017, 1, 1,20,10
170,273393721.45534325,232.27731661587313, 1, 2, 4,10,11650.931360040839, 1, 1,12,10
207,339560869.06955314,543.5021409221355, 1, 2, 3,10,15327.095199349082, 1, 1,10,10
244,664895467.8009839,1014.5707620042115, 1, 2, 4,10,35359.08742820678, 1, 1,20,10
281,2407221015.1057043,39959.06841621388, 1, 1, 5,10,54634.54471212738, 1, 1,19,10
318,0.0,0.0, 1, 1, 1,10,0.0, 1, 1, 1,10
355,35628116221.1231,12374.216038804521, 1, 2, 4,10,3829218.154066982, 1, 3,18,60
403,10310294493.052883,12374.216038804521, 1, 2, 4,10,483183.26346918393, 1, 1,18,10
476,5569688622.065564,4732.048419519677, 1, 2, 4,10,237357.535085481, 1, 1,12,10
513,0.0,0.0, 1, 1, 1,10,0.0, 1, 1, 1,10
562,2407495364.2279854,0.0, 1, 1, 1,10,128967.34053183842, 4,24,15,10
1046,0.0,0.0, 1, 1, 1,10,0.0, 1, 1, 1,10
1096,23189000781.18983,0.0, 1, 1, 1,10,1767145.0590022434, 6,30,15,60
1134,1503838019.4738452,0.0, 1, 4,14,60,1300271.6583271557, 1, 6, 6,10
1323,25317821728.074173,0.0, 1, 1, 1,10,3375000.000000001, 1, 4,16,10
1360,261748800.0,4979.999999999998, 2,28,10,60,4980.000000000002, 1,18,16,10
1388,0.0,0.0, 1, 1, 1,10,0.0, 1, 1, 1,10
End of Data
 Number of Records Written=          87
