Program Version,EnergyPlus, Version 22.2.0-c249759bad, YMD=2023.08.31 12:58
1,5,Environment Title[],Latitude[deg],Longitude[deg],Time Zone[],Elevation[m]
2,8,Day of Simulation[],Month[],Day of Month[],DST Indicator[1=yes 0=no],Hour[],StartMinute[],EndMinute[],DayType
3,5,Cumulative Day of Simulation[],Month[],Day of Month[],DST Indicator[1=yes 0=no],DayType  ! When Daily Report Variables Requested
4,2,Cumulative Days of Simulation[],Month[]  ! When Monthly Report Variables Requested
5,1,Cumulative Days of Simulation[] ! When Run Period Report Variables Requested
6,1,Calendar Year of Simulation[] ! When Annual Report Variables Requested
618,11,DX_HEATING_COIL,Heating Coil Heating Energy [J] !RunPeriod [Value,Min,Month,Day,Hour,Minute,Max,Month,Day,Hour,Minute]
631,11,DX_HEATING_COIL,Heating Coil Electricity Energy [J] !RunPeriod [Value,Min,Month,Day,Hour,Minute,Max,Month,Day,Hour,Minute]
656,11,DX_HEATING_COIL,Heating Coil Defrost Electricity Energy [J] !RunPeriod [Value,Min,Month,Day,Hour,Minute,Max,Month,Day,Hour,Minute]
657,11,DX_HEATING_COIL,Heating Coil Crankcase Heater Electricity Energy [J] !RunPeriod [Value,Min,Month,Day,Hour,Minute,Max,Month,Day,Hour,Minute]
684,11,HEAT PUMP WATER HEATER EVAPORATOR,Cooling Coil Total Water Heating Energy [J] !RunPeriod [Value,Min,Month,Day,Hour,Minute,Max,Month,Day,Hour,Minute]
685,11,HEAT PUMP WATER HEATER EVAPORATOR,Cooling Coil Water Heating Electricity Energy [J] !RunPeriod [Value,Min,Month,Day,Hour,Minute,Max,Month,Day,Hour,Minute]
712,11,LIVING,AFN Zone Infiltration Air Change Rate [ach] !RunPeriod [Value,Min,Month,Day,Hour,Minute,Max,Month,Day,Hour,Minute]
713,11,ATTIC,AFN Zone Infiltration Air Change Rate [ach] !RunPeriod [Value,Min,Month,Day,Hour,Minute,Max,Month,Day,Hour,Minute]
714,11,CRAWLSPACE,AFN Zone Infiltration Air Change Rate [ach] !RunPeriod [Value,Min,Month,Day,Hour,Minute,Max,Month,Day,Hour,Minute]
1157,11,Facility,Facility Heating Setpoint Not Met Time [hr] !RunPeriod [Value,Min,Month,Day,Hour,Minute,Max,Month,Day,Hour,Minute]
1158,11,Facility,Facility Cooling Setpoint Not Met Time [hr] !RunPeriod [Value,Min,Month,Day,Hour,Minute,Max,Month,Day,Hour,Minute]
1184,11,HEATING_RESISTANCE_BACKUP,Heating Coil Heating Energy [J] !RunPeriod [Value,Min,Month,Day,Hour,Minute,Max,Month,Day,Hour,Minute]
1185,11,HEATING_RESISTANCE_BACKUP,Heating Coil Electricity Energy [J] !RunPeriod [Value,Min,Month,Day,Hour,Minute,Max,Month,Day,Hour,Minute]
1334,11,WATER HEATER TANK,Water Heater Heating Energy [J] !RunPeriod [Value,Min,Month,Day,Hour,Minute,Max,Month,Day,Hour,Minute]
13,11,Electricity:Facility [J] !RunPeriod [Value,Min,Month,Day,Hour,Minute,Max,Month,Day,Hour,Minute]
637,11,Heating:Electricity [J] !RunPeriod [Value,Min,Month,Day,Hour,Minute,Max,Month,Day,Hour,Minute]
599,11,Cooling:Electricity [J] !RunPeriod [Value,Min,Month,Day,Hour,Minute,Max,Month,Day,Hour,Minute]
692,11,Fans:Electricity [J] !RunPeriod [Value,Min,Month,Day,Hour,Minute,Max,Month,Day,Hour,Minute]
1372,11,Pumps:Electricity [J] !RunPeriod [Value,Min,Month,Day,Hour,Minute,Max,Month,Day,Hour,Minute]
677,11,WaterSystems:Electricity [J] !RunPeriod [Value,Min,Month,Day,Hour,Minute,Max,Month,Day,Hour,Minute]
61,11,InteriorLights:Electricity [J] !RunPeriod [Value,Min,Month,Day,Hour,Minute,Max,Month,Day,Hour,Minute]
1165,11,ExteriorLights:Electricity [J] !RunPeriod [Value,Min,Month,Day,Hour,Minute,Max,Month,Day,Hour,Minute]
134,11,InteriorEquipment:Electricity [J] !RunPeriod [Value,Min,Month,Day,Hour,Minute,Max,Month,Day,Hour,Minute]
170,11,gas_dryer:InteriorEquipment:Electricity [J] !RunPeriod [Value,Min,Month,Day,Hour,Minute,Max,Month,Day,Hour,Minute]
207,11,clotheswasher:InteriorEquipment:Electricity [J] !RunPeriod [Value,Min,Month,Day,Hour,Minute,Max,Month,Day,Hour,Minute]
244,11,dishwasher:InteriorEquipment:Electricity [J] !RunPeriod [Value,Min,Month,Day,Hour,Minute,Max,Month,Day,Hour,Minute]
281,11,refrigerator:InteriorEquipment:Electricity [J] !RunPeriod [Value,Min,Month,Day,Hour,Minute,Max,Month,Day,Hour,Minute]
318,11,electric_mels:InteriorEquipment:Electricity [J] !RunPeriod [Value,Min,Month,Day,Hour,Minute,Max,Month,Day,Hour,Minute]
355,11,NaturalGas:Facility [J] !RunPeriod [Value,Min,Month,Day,Hour,Minute,Max,Month,Day,Hour,Minute]
403,11,InteriorEquipment:NaturalGas [J] !RunPeriod [Value,Min,Month,Day,Hour,Minute,Max,Month,Day,Hour,Minute]
476,11,gas_dryer:InteriorEquipment:NaturalGas [J] !RunPeriod [Value,Min,Month,Day,Hour,Minute,Max,Month,Day,Hour,Minute]
513,11,gas_mels:InteriorEquipment:NaturalGas [J] !RunPeriod [Value,Min,Month,Day,Hour,Minute,Max,Month,Day,Hour,Minute]
End of Data Dictionary
1,EXTREME_WINTER,  25.79, -80.32,  -5.00,   8.80
5,7
1157,0.0,0.0, 1,15, 1,15,0.0, 1,15, 1,15
1158,0.0,0.0, 1,15, 1,15,0.0, 1,15, 1,15
618,9385504.359801788,0.0, 1,15, 1,15,1901311.6039446609, 1,17, 6, 7
631,2401376.021737508,0.0, 1,15, 1,15,459957.9516342834, 1,17, 6, 7
656,0.0,0.0, 1,15, 1,15,0.0, 1,15, 1,15
657,0.0,0.0, 1,15, 1,15,0.0, 1,15, 1,15
684,135656541.65475845,0.0, 1,15, 1,15,1878387.7574656918, 1,15, 8,45
685,28515592.048163515,0.0, 1,15, 1,15,367583.9858394985, 1,15, 9,30
712,0.20952942714722958,0.0, 1,15,19,37,0.40309957825332526, 1,18, 8,45
713,4.001031004700434,0.09409899096037652, 1,15,19,52,8.347319399923252, 1,16,12,52
714,5.069939991423717,0.1707592746956511, 1,15,19,52,11.003482503630137, 1,18, 8,52
1184,0.0,0.0, 1,15, 1,15,0.0, 1,15, 1,15
1185,0.0,0.0, 1,15, 1,15,0.0, 1,15, 1,15
1334,0.0,0.0, 1,15, 1,15,0.0, 1,15, 1,15
13,534892113.62139016,159353.1275401932, 1,15, 4,15,2069424.741996509, 1,21,20,60
61,301924526.02383536,88139.10953165221, 1,15, 1,15,1282023.4113694867, 1,15,20,15
134,70666020.44019976,63564.01800854099, 1,15, 4,15,156554.22484006523, 1,20,20,15
170,5241013.419656067,348.4159749238097, 1,15, 4,15,17476.39704006126, 1,20,12,15
207,6509451.13922267,815.2532113832032, 1,15, 3,15,22990.642799023623, 1,20,10,15
244,12749673.399825225,1521.856143006317, 1,15, 4,15,53038.631142310165, 1,20,20,15
281,46165882.481495745,59938.60262432081, 1,15, 5,15,81951.81706819107, 1,15,19,15
318,0.0,0.0, 1,15, 1,15,0.0, 1,15, 1,15
355,197687796.27748066,18561.32405820678, 1,15, 4,15,724774.895203776, 1,20,18,15
403,197687796.27748066,18561.32405820678, 1,15, 4,15,724774.895203776, 1,20,18,15
476,106772067.24485716,7098.072629279515, 1,15, 4,15,356036.3026282215, 1,20,12,15
513,0.0,0.0, 1,15, 1,15,0.0, 1,15, 1,15
599,106262942.64439513,0.0, 1,15, 3,60,964121.7033037987, 1,21,17,30
637,2401376.0217375085,0.0, 1,15, 1,15,459957.9516342834, 1,17, 6,15
677,33656392.048163526,7650.0, 1,15, 1,15,375233.9858394985, 1,15, 9,30
692,19980856.443058718,0.0, 1,15, 3,60,133297.27971082547, 1,21,15,15
1165,0.0,0.0, 1,15, 1,15,0.0, 1,15, 1,15
1372,0.0,0.0, 1,15, 1,15,0.0, 1,15, 1,15
1,EXTREME_SUMMER,  25.79, -80.32,  -5.00,   8.80
5,7
1157,0.0,0.0, 7,23, 1,15,0.0, 7,23, 1,15
1158,74.5,0.0, 7,23, 1,15,0.25, 7,23,11,30
618,0.0,0.0, 7,23, 1, 5,0.0, 7,23, 1, 5
631,0.0,0.0, 7,23, 1, 5,0.0, 7,23, 1, 5
656,0.0,0.0, 7,23, 1, 5,0.0, 7,23, 1, 5
657,0.0,0.0, 7,23, 1, 5,0.0, 7,23, 1, 5
684,108728095.03524645,0.0, 7,23, 1, 5,1735829.4464418655, 7,28, 5,15
685,23146565.59176969,0.0, 7,23, 1, 5,384172.1948055079, 7,28, 5,30
712,0.11848587417984298,0.0, 7,23, 1,37,0.3084030283452266, 7,27,11,60
713,5.239687036715483,0.14588610597558324, 7,26, 8,50,12.482916449551777, 7,29,13,50
714,5.199537058294679,0.17380258284497535, 7,23, 3,60,11.424128767037411, 7,27,12,30
1184,0.0,0.0, 7,23, 1, 5,0.0, 7,23, 1, 5
1185,0.0,0.0, 7,23, 1, 5,0.0, 7,23, 1, 5
1334,0.0,0.0, 7,23, 1, 5,0.0, 7,23, 1, 5
13,1127678655.0186496,452567.4937370719, 7,23, 4,60,3295482.4421641314, 7,24,20,60
61,301924526.02383536,88139.10953165221, 7,23, 1,15,1282023.4113694867, 7,23,20,15
134,70666020.44019976,63564.01800854099, 7,23, 4,15,156554.22484006523, 7,28,20,15
170,5241013.419656067,348.4159749238097, 7,23, 4,15,17476.39704006126, 7,28,12,15
207,6509451.13922267,815.2532113832032, 7,23, 3,15,22990.642799023623, 7,28,10,15
244,12749673.399825225,1521.856143006317, 7,23, 4,15,53038.631142310165, 7,28,20,15
281,46165882.481495745,59938.60262432081, 7,23, 5,15,81951.81706819107, 7,23,19,15
318,0.0,0.0, 7,23, 1,15,0.0, 7,23, 1,15
355,197687796.27748066,18561.32405820678, 7,23, 4,15,724774.895203776, 7,28,18,15
403,197687796.27748066,18561.32405820678, 7,23, 4,15,724774.895203776, 7,28,18,15
476,106772067.24485716,7098.072629279515, 7,23, 4,15,356036.3026282215, 7,28,12,15
513,0.0,0.0, 7,23, 1,15,0.0, 7,23, 1,15
599,656318651.6574574,0.0, 7,28, 5,15,1375862.5244309418, 7,23,17,60
637,0.0,0.0, 7,23, 1,15,0.0, 7,23, 1,15
677,28287365.591769684,7650.0, 7,23, 1,15,391822.1948055079, 7,28, 5,30
692,70482091.30538699,28339.165506527093, 7,23, 5,60,206957.70994469526, 7,23,19,45
1165,0.0,0.0, 7,23, 1,15,0.0, 7,23, 1,15
1372,0.0,0.0, 7,23, 1,15,0.0, 7,23, 1,15
1,ANNUAL,  25.79, -80.32,  -5.00,   8.80
5,365
1157,0.0,0.0, 1, 1, 1,15,0.0, 1, 1, 1,15
1158,1598.0,0.0, 1, 1, 1,15,0.25, 1, 6,14,60
618,29172763.655826498,0.0, 1, 1, 1,15,2279623.687563416, 1,24, 7,45
631,7730612.725901407,0.0, 1, 1, 1,15,608393.5594199083, 1,24, 7,45
656,0.0,0.0, 1, 1, 1,15,0.0, 1, 1, 1,15
657,14144759.685343707,0.0, 1, 1, 1,15,180000.0, 1,24, 1,30
684,6439858368.469461,0.0, 1, 1, 1,15,1912689.5501663662, 1,14, 4,45
685,1359605622.7883687,0.0, 1, 1, 1,15,383157.7243985712, 7, 8, 5,30
712,0.12685234888917415,0.0, 1, 4, 7,52,0.7814332661445401, 5,26,15,49
713,4.1025844753923435,0.0, 1,25,20, 9,22.270515032842713, 5,26,15,46
714,4.4514632989531915,0.0, 2, 7,23, 3,25.70193174168414, 5,26,15,46
1184,0.0,0.0, 1, 1, 1,15,0.0, 1, 1, 1,15
1185,0.0,0.0, 1, 1, 1,15,0.0, 1, 1, 1,15
1334,0.0,0.0, 1, 1, 1,15,0.0, 1, 1, 1,15
13,46929761296.54701,159353.1275401932, 1, 2, 4,15,3305545.837342147, 8,26,20,15
61,15743207428.383959,88139.10953165221, 1, 1, 1,15,1282023.4113694867, 1, 1,20,15
134,3685071073.4325233,63564.01800854099, 1, 2, 4,15,156554.22484006523, 1, 1,20,15
170,273393721.45532674,348.4159749238097, 1, 2, 4,15,17476.39704006126, 1, 1,12,15
207,339560869.0695816,815.2532113832032, 1, 2, 3,15,22990.642799023623, 1, 1,10,15
244,664895467.8009144,1521.856143006317, 1, 2, 4,15,53038.631142310165, 1, 1,20,15
281,2407221015.106824,59938.60262432081, 1, 1, 5,15,81951.81706819107, 1, 1,19,15
318,0.0,0.0, 1, 1, 1,15,0.0, 1, 1, 1,15
355,10310294493.051695,18561.32405820678, 1, 2, 4,15,724774.895203776, 1, 1,18,15
403,10310294493.051695,18561.32405820678, 1, 2, 4,15,724774.895203776, 1, 1,18,15
476,5569688622.066177,7098.072629279515, 1, 2, 4,15,356036.3026282215, 1, 1,12,15
513,0.0,0.0, 1, 1, 1,15,0.0, 1, 1, 1,15
599,23067856099.18552,0.0, 1, 1, 4,15,1407440.7287752363, 8,21,14,60
637,21875372.411245115,0.0, 1, 1, 1,15,736425.0810203103, 1,24, 7,30
677,1627661622.7883666,7650.0, 1, 1, 1,15,390807.7243985712, 7, 8, 5,30
692,2784089700.343706,0.0, 1, 1, 4,15,206957.7099446953, 2,24,18,45
1165,0.0,0.0, 1, 1, 1,15,0.0, 1, 1, 1,15
1372,0.0,0.0, 1, 1, 1,15,0.0, 1, 1, 1,15
End of Data
 Number of Records Written=          96
