Program Version,EnergyPlus, Version 22.2.0-c249759bad, YMD=2023.09.01 15:47
1,5,Environment Title[],Latitude[deg],Longitude[deg],Time Zone[],Elevation[m]
2,8,Day of Simulation[],Month[],Day of Month[],DST Indicator[1=yes 0=no],Hour[],StartMinute[],EndMinute[],DayType
3,5,Cumulative Day of Simulation[],Month[],Day of Month[],DST Indicator[1=yes 0=no],DayType  ! When Daily Report Variables Requested
4,2,Cumulative Days of Simulation[],Month[]  ! When Monthly Report Variables Requested
5,1,Cumulative Days of Simulation[] ! When Run Period Report Variables Requested
6,1,Calendar Year of Simulation[] ! When Annual Report Variables Requested
581,11,LIVING,AFN Zone Infiltration Air Change Rate [ach] !RunPeriod [Value,Min,Month,Day,Hour,Minute,Max,Month,Day,Hour,Minute]
582,11,ATTIC,AFN Zone Infiltration Air Change Rate [ach] !RunPeriod [Value,Min,Month,Day,Hour,Minute,Max,Month,Day,Hour,Minute]
583,11,CRAWLSPACE,AFN Zone Infiltration Air Change Rate [ach] !RunPeriod [Value,Min,Month,Day,Hour,Minute,Max,Month,Day,Hour,Minute]
1038,11,Facility,Facility Heating Setpoint Not Met Time [hr] !RunPeriod [Value,Min,Month,Day,Hour,Minute,Max,Month,Day,Hour,Minute]
1039,11,Facility,Facility Cooling Setpoint Not Met Time [hr] !RunPeriod [Value,Min,Month,Day,Hour,Minute,Max,Month,Day,Hour,Minute]
1115,11,DX_HEATING_COIL,Heating Coil Heating Energy [J] !RunPeriod [Value,Min,Month,Day,Hour,Minute,Max,Month,Day,Hour,Minute]
1128,11,DX_HEATING_COIL,Heating Coil Electricity Energy [J] !RunPeriod [Value,Min,Month,Day,Hour,Minute,Max,Month,Day,Hour,Minute]
1153,11,DX_HEATING_COIL,Heating Coil Defrost Electricity Energy [J] !RunPeriod [Value,Min,Month,Day,Hour,Minute,Max,Month,Day,Hour,Minute]
1154,11,DX_HEATING_COIL,Heating Coil Crankcase Heater Electricity Energy [J] !RunPeriod [Value,Min,Month,Day,Hour,Minute,Max,Month,Day,Hour,Minute]
1155,11,HEATING_RESISTANCE_BACKUP,Heating Coil Heating Energy [J] !RunPeriod [Value,Min,Month,Day,Hour,Minute,Max,Month,Day,Hour,Minute]
1156,11,HEATING_RESISTANCE_BACKUP,Heating Coil Electricity Energy [J] !RunPeriod [Value,Min,Month,Day,Hour,Minute,Max,Month,Day,Hour,Minute]
1292,11,WATER HEATER,Water Heater Heat Loss Energy [J] !RunPeriod [Value,Min,Month,Day,Hour,Minute,Max,Month,Day,Hour,Minute]
1306,11,WATER HEATER,Water Heater Heating Energy [J] !RunPeriod [Value,Min,Month,Day,Hour,Minute,Max,Month,Day,Hour,Minute]
1307,11,WATER HEATER,Water Heater Unmet Demand Heat Transfer Energy [J] !RunPeriod [Value,Min,Month,Day,Hour,Minute,Max,Month,Day,Hour,Minute]
1308,11,WATER HEATER,Water Heater Electricity Energy [J] !RunPeriod [Value,Min,Month,Day,Hour,Minute,Max,Month,Day,Hour,Minute]
13,11,Electricity:Facility [J] !RunPeriod [Value,Min,Month,Day,Hour,Minute,Max,Month,Day,Hour,Minute]
1134,11,Heating:Electricity [J] !RunPeriod [Value,Min,Month,Day,Hour,Minute,Max,Month,Day,Hour,Minute]
1096,11,Cooling:Electricity [J] !RunPeriod [Value,Min,Month,Day,Hour,Minute,Max,Month,Day,Hour,Minute]
562,11,Fans:Electricity [J] !RunPeriod [Value,Min,Month,Day,Hour,Minute,Max,Month,Day,Hour,Minute]
1379,11,Pumps:Electricity [J] !RunPeriod [Value,Min,Month,Day,Hour,Minute,Max,Month,Day,Hour,Minute]
1326,11,WaterSystems:Electricity [J] !RunPeriod [Value,Min,Month,Day,Hour,Minute,Max,Month,Day,Hour,Minute]
61,11,InteriorLights:Electricity [J] !RunPeriod [Value,Min,Month,Day,Hour,Minute,Max,Month,Day,Hour,Minute]
1046,11,ExteriorLights:Electricity [J] !RunPeriod [Value,Min,Month,Day,Hour,Minute,Max,Month,Day,Hour,Minute]
134,11,InteriorEquipment:Electricity [J] !RunPeriod [Value,Min,Month,Day,Hour,Minute,Max,Month,Day,Hour,Minute]
170,11,gas_dryer:InteriorEquipment:Electricity [J] !RunPeriod [Value,Min,Month,Day,Hour,Minute,Max,Month,Day,Hour,Minute]
207,11,clotheswasher:InteriorEquipment:Electricity [J] !RunPeriod [Value,Min,Month,Day,Hour,Minute,Max,Month,Day,Hour,Minute]
244,11,dishwasher:InteriorEquipment:Electricity [J] !RunPeriod [Value,Min,Month,Day,Hour,Minute,Max,Month,Day,Hour,Minute]
281,11,refrigerator:InteriorEquipment:Electricity [J] !RunPeriod [Value,Min,Month,Day,Hour,Minute,Max,Month,Day,Hour,Minute]
318,11,electric_mels:InteriorEquipment:Electricity [J] !RunPeriod [Value,Min,Month,Day,Hour,Minute,Max,Month,Day,Hour,Minute]
355,11,NaturalGas:Facility [J] !RunPeriod [Value,Min,Month,Day,Hour,Minute,Max,Month,Day,Hour,Minute]
403,11,InteriorEquipment:NaturalGas [J] !RunPeriod [Value,Min,Month,Day,Hour,Minute,Max,Month,Day,Hour,Minute]
476,11,gas_dryer:InteriorEquipment:NaturalGas [J] !RunPeriod [Value,Min,Month,Day,Hour,Minute,Max,Month,Day,Hour,Minute]
513,11,gas_mels:InteriorEquipment:NaturalGas [J] !RunPeriod [Value,Min,Month,Day,Hour,Minute,Max,Month,Day,Hour,Minute]
End of Data Dictionary
1,EXTREME_WINTER,  39.10, -84.42,  -5.00, 149.40
5,7
1038,0.75,0.0, 1,15, 1,15,0.25, 1,20, 6,15
1039,0.0,0.0, 1,15, 1,15,0.0, 1,15, 1,15
581,0.3328021324281153,0.18801249711507625, 1,16,20,22,0.4759764167650307, 1,18, 5,60
582,3.091054771054659,0.0, 1,15,20,52,12.444589683937874, 1,17,24,52
583,0.04338827404698055,0.00030485653624873985, 1,16,20,15,0.07324522078857022, 1,15, 6,15
1115,1421172525.1411674,0.0, 1,15,15,52,4001203.1336806607, 1,19, 5,45
1128,492710895.4462233,0.0, 1,15,15,52,1260951.3402419959, 1,18, 9,30
1153,8498930.528749717,0.0, 1,15,15,52,68624.3342581583, 1,17, 6,45
1154,46656779.17323903,0.0, 1,15, 1,15,180000.0, 1,15,16,15
1155,473446585.1996752,0.0, 1,15, 1,35,5100757.628846118, 1,20, 6,45
1156,473446585.1996752,0.0, 1,15, 1,35,5100757.628846118, 1,20, 6,45
1292,-25355939.848359592,-39773.393277076284, 1,21, 5,60,-5981.2065874402315, 1,21,19, 2
1306,233022434.41676497,0.0, 1,15, 1,15,7457819.0305708675, 1,15, 7,45
1307,6035531.531978731,0.0, 1,15, 1,15,1469031.0215995607, 1,21,19,52
1308,233022434.41676497,0.0, 1,15, 1,15,7457819.0305708675, 1,15, 7,45
13,1681014166.5300827,452017.0388981225, 1,15,15,60,14514626.473427244, 1,21, 9,45
61,301924526.02383536,88139.10953165221, 1,15, 1,15,1282023.4113694867, 1,15,20,15
134,70666020.44019976,63564.01800854099, 1,15, 4,15,156554.22484006523, 1,20,20,15
170,5241013.419656067,348.4159749238097, 1,15, 4,15,17476.39704006126, 1,20,12,15
207,6509451.13922267,815.2532113832032, 1,15, 3,15,22990.642799023623, 1,20,10,15
244,12749673.399825225,1521.856143006317, 1,15, 4,15,53038.631142310165, 1,20,20,15
281,46165882.481495745,59938.60262432081, 1,15, 5,15,81951.81706819107, 1,15,19,15
318,0.0,0.0, 1,15, 1,15,0.0, 1,15, 1,15
355,197687796.27748066,18561.32405820678, 1,15, 4,15,724774.895203776, 1,20,18,15
403,197687796.27748066,18561.32405820678, 1,15, 4,15,724774.895203776, 1,20,18,15
476,106772067.24485716,7098.072629279515, 1,15, 4,15,356036.3026282215, 1,20,12,15
513,0.0,0.0, 1,15, 1,15,0.0, 1,15, 1,15
562,54087995.30139641,0.0, 1,15,15,60,131209.16658527427, 1,15, 1,15
1046,0.0,0.0, 1,15, 1,15,0.0, 1,15, 1,15
1096,0.0,0.0, 1,15, 1,15,0.0, 1,15, 1,15
1134,1021313190.3478872,180000.0, 1,15,15,60,6243483.936807791, 1,20, 6,60
1326,233022434.416765,0.0, 1,15, 1,15,10370357.887790244, 1,21, 9,45
1379,0.0,0.0, 1,15, 1,15,0.0, 1,15, 1,15
1,EXTREME_SUMMER,  39.10, -84.42,  -5.00, 149.40
5,7
1038,0.0,0.0, 7,15, 1,15,0.0, 7,15, 1,15
1039,38.0,0.0, 7,15, 1,15,0.25, 7,15,14,45
581,0.06620667831225127,0.0, 7,15, 6, 7,0.4705397517604534, 7,20,16,51
582,1.762275079635972,0.0, 7,16,21,47,8.878967273144367, 7,20,16,48
583,0.03643825155660009,0.0, 7,15, 6, 7,0.06655999372858291, 7,18,17, 2
1115,0.0,0.0, 7,15, 1, 7,0.0, 7,15, 1, 7
1128,0.0,0.0, 7,15, 1, 7,0.0, 7,15, 1, 7
1153,0.0,0.0, 7,15, 1, 7,0.0, 7,15, 1, 7
1154,0.0,0.0, 7,15, 1, 7,0.0, 7,15, 1, 7
1155,0.0,0.0, 7,15, 1, 7,0.0, 7,15, 1, 7
1156,0.0,0.0, 7,15, 1, 7,0.0, 7,15, 1, 7
1292,-21825566.49345449,-34238.64347141226, 7,18,18,30,-2447.1700771362594, 7,19,19,32
1306,172197924.67799777,0.0, 7,15, 1, 7,5662534.513377915, 7,19, 6,60
1307,1305640.7270956112,0.0, 7,15, 1, 7,448430.81526493386, 7,21,19,55
1308,172197924.67799777,0.0, 7,15, 1, 7,5662534.513377915, 7,19, 6,60
13,1070336077.0033985,155561.85992507203, 7,19, 4,60,12321488.21138211, 7,21,19,60
61,301924526.02383536,88139.10953165221, 7,15, 1,15,1282023.4113694867, 7,15,20,15
134,70666020.44019976,63564.01800854099, 7,15, 4,15,156554.22484006523, 7,20,20,15
170,5241013.419656067,348.4159749238097, 7,15, 4,15,17476.39704006126, 7,20,12,15
207,6509451.13922267,815.2532113832032, 7,15, 3,15,22990.642799023623, 7,20,10,15
244,12749673.399825225,1521.856143006317, 7,15, 4,15,53038.631142310165, 7,20,20,15
281,46165882.481495745,59938.60262432081, 7,15, 5,15,81951.81706819107, 7,15,19,15
318,0.0,0.0, 7,15, 1,15,0.0, 7,15, 1,15
355,197687796.27748066,18561.32405820678, 7,15, 4,15,724774.895203776, 7,20,18,15
403,197687796.27748066,18561.32405820678, 7,15, 4,15,724774.895203776, 7,20,18,15
476,106772067.24485716,7098.072629279515, 7,15, 4,15,356036.3026282215, 7,20,12,15
513,0.0,0.0, 7,15, 1,15,0.0, 7,15, 1,15
562,50594938.52717911,0.0, 7,16, 6,30,131209.1665852743, 7,18,16,60
1046,0.0,0.0, 7,15, 1,15,0.0, 7,15, 1,15
1096,474952667.33418685,0.0, 7,16, 6,30,1388803.7061574608, 7,16,15,60
1134,0.0,0.0, 7,15, 1,15,0.0, 7,15, 1,15
1326,172197924.6779979,0.0, 7,15, 1,15,10228840.16700298, 7,21,19,60
1379,0.0,0.0, 7,15, 1,15,0.0, 7,15, 1,15
1,ANNUAL,  39.10, -84.42,  -5.00, 149.40
5,365
1038,8.75,0.0, 1, 1, 1,15,0.25, 1, 2, 6,15
1039,510.5,0.0, 1, 1, 1,15,0.25, 2,12,16,60
581,0.2165061097673407,0.0, 5, 7, 8,32,1.2417591598351505, 2,18,22,50
582,3.115993161214239,0.0, 1, 9,19,60,28.111785632710234, 1,29,21,60
583,0.027007770884934758,0.0, 6, 7, 6,11,0.09296123993526963, 9,15,14,60
1115,20874267822.849594,0.0, 1, 1,23, 5,4671473.249516893, 1,22, 4,60
1128,6662035829.376034,0.0, 1, 1,23, 5,1304923.666693093, 1,22, 4,60
1153,232944490.17527938,0.0, 1, 1,23, 5,115356.7102171599, 2,22, 7,60
1154,1491422080.8396823,0.0, 1, 1, 1, 3,180000.0, 1, 4,15,15
1155,3110799622.767708,0.0, 1, 1, 1,47,5100757.628846118, 1,20, 6,45
1156,3110799622.767708,0.0, 1, 1, 1,47,5100757.628846118, 1,20, 6,45
1292,-1220619349.4243767,-39790.31786654022,11,27, 1,45,-2230.8727417145374, 8,10,15,16
1306,10634052051.992195,0.0, 1, 1, 1, 3,10540800.0,12,17,19,60
1307,188003338.26089528,0.0, 1, 1, 1, 3,5728438.714700266, 1,29,19,60
1308,10634052051.992195,0.0, 1, 1, 1, 3,10540800.0,12,17,19,60
13,52522390001.418785,151703.1275401932, 3, 6, 4,15,14486217.788143303, 1,25, 7,60
61,15743207428.383959,88139.10953165221, 1, 1, 1,15,1282023.4113694867, 1, 1,20,15
134,3685071073.4325233,63564.01800854099, 1, 2, 4,15,156554.22484006523, 1, 1,20,15
170,273393721.45532674,348.4159749238097, 1, 2, 4,15,17476.39704006126, 1, 1,12,15
207,339560869.0695816,815.2532113832032, 1, 2, 3,15,22990.642799023623, 1, 1,10,15
244,664895467.8009144,1521.856143006317, 1, 2, 4,15,53038.631142310165, 1, 1,20,15
281,2407221015.106824,59938.60262432081, 1, 1, 5,15,81951.81706819107, 1, 1,19,15
318,0.0,0.0, 1, 1, 1,15,0.0, 1, 1, 1,15
355,10310294493.051695,18561.32405820678, 1, 2, 4,15,724774.895203776, 1, 1,18,15
403,10310294493.051695,18561.32405820678, 1, 2, 4,15,724774.895203776, 1, 1,18,15
476,5569688622.066177,7098.072629279515, 1, 2, 4,15,356036.3026282215, 1, 1,12,15
513,0.0,0.0, 1, 1, 1,15,0.0, 1, 1, 1,15
562,1771164595.047804,0.0, 1, 4,14,60,131209.1665852743, 7,18,16,60
1046,0.0,0.0, 1, 1, 1,15,0.0, 1, 1, 1,15
1096,9191692829.401752,0.0, 1, 1, 1,15,1443093.609263815, 8, 9,14,60
1134,11497202023.15868,0.0, 1, 6,17,60,6243490.224351352, 1,21, 6,15
1326,10634052051.992205,0.0, 1, 1, 1,15,10540800.0, 3,26,19,60
1379,0.0,0.0, 1, 1, 1,15,0.0, 1, 1, 1,15
End of Data
 Number of Records Written=          99
