Program Version,EnergyPlus, Version 22.2.0-c249759bad, YMD=2023.09.01 20:18
1,5,Environment Title[],Latitude[deg],Longitude[deg],Time Zone[],Elevation[m]
2,8,Day of Simulation[],Month[],Day of Month[],DST Indicator[1=yes 0=no],Hour[],StartMinute[],EndMinute[],DayType
3,5,Cumulative Day of Simulation[],Month[],Day of Month[],DST Indicator[1=yes 0=no],DayType  ! When Daily Report Variables Requested
4,2,Cumulative Days of Simulation[],Month[]  ! When Monthly Report Variables Requested
5,1,Cumulative Days of Simulation[] ! When Run Period Report Variables Requested
6,1,Calendar Year of Simulation[] ! When Annual Report Variables Requested
581,11,LIVING,AFN Zone Infiltration Air Change Rate [ach] !RunPeriod [Value,Min,Month,Day,Hour,Minute,Max,Month,Day,Hour,Minute]
582,11,ATTIC,AFN Zone Infiltration Air Change Rate [ach] !RunPeriod [Value,Min,Month,Day,Hour,Minute,Max,Month,Day,Hour,Minute]
583,11,CRAWLSPACE,AFN Zone Infiltration Air Change Rate [ach] !RunPeriod [Value,Min,Month,Day,Hour,Minute,Max,Month,Day,Hour,Minute]
1038,11,Facility,Facility Heating Setpoint Not Met Time [hr] !RunPeriod [Value,Min,Month,Day,Hour,Minute,Max,Month,Day,Hour,Minute]
1039,11,Facility,Facility Cooling Setpoint Not Met Time [hr] !RunPeriod [Value,Min,Month,Day,Hour,Minute,Max,Month,Day,Hour,Minute]
1115,11,DX_HEATING_COIL,Heating Coil Heating Energy [J] !RunPeriod [Value,Min,Month,Day,Hour,Minute,Max,Month,Day,Hour,Minute]
1128,11,DX_HEATING_COIL,Heating Coil Electricity Energy [J] !RunPeriod [Value,Min,Month,Day,Hour,Minute,Max,Month,Day,Hour,Minute]
1153,11,DX_HEATING_COIL,Heating Coil Defrost Electricity Energy [J] !RunPeriod [Value,Min,Month,Day,Hour,Minute,Max,Month,Day,Hour,Minute]
1154,11,DX_HEATING_COIL,Heating Coil Crankcase Heater Electricity Energy [J] !RunPeriod [Value,Min,Month,Day,Hour,Minute,Max,Month,Day,Hour,Minute]
1155,11,HEATING_RESISTANCE_BACKUP,Heating Coil Heating Energy [J] !RunPeriod [Value,Min,Month,Day,Hour,Minute,Max,Month,Day,Hour,Minute]
1156,11,HEATING_RESISTANCE_BACKUP,Heating Coil Electricity Energy [J] !RunPeriod [Value,Min,Month,Day,Hour,Minute,Max,Month,Day,Hour,Minute]
1292,11,WATER HEATER,Water Heater Heat Loss Energy [J] !RunPeriod [Value,Min,Month,Day,Hour,Minute,Max,Month,Day,Hour,Minute]
1306,11,WATER HEATER,Water Heater Heating Energy [J] !RunPeriod [Value,Min,Month,Day,Hour,Minute,Max,Month,Day,Hour,Minute]
1307,11,WATER HEATER,Water Heater Unmet Demand Heat Transfer Energy [J] !RunPeriod [Value,Min,Month,Day,Hour,Minute,Max,Month,Day,Hour,Minute]
1308,11,WATER HEATER,Water Heater Electricity Energy [J] !RunPeriod [Value,Min,Month,Day,Hour,Minute,Max,Month,Day,Hour,Minute]
13,11,Electricity:Facility [J] !RunPeriod [Value,Min,Month,Day,Hour,Minute,Max,Month,Day,Hour,Minute]
1134,11,Heating:Electricity [J] !RunPeriod [Value,Min,Month,Day,Hour,Minute,Max,Month,Day,Hour,Minute]
1096,11,Cooling:Electricity [J] !RunPeriod [Value,Min,Month,Day,Hour,Minute,Max,Month,Day,Hour,Minute]
562,11,Fans:Electricity [J] !RunPeriod [Value,Min,Month,Day,Hour,Minute,Max,Month,Day,Hour,Minute]
1379,11,Pumps:Electricity [J] !RunPeriod [Value,Min,Month,Day,Hour,Minute,Max,Month,Day,Hour,Minute]
1326,11,WaterSystems:Electricity [J] !RunPeriod [Value,Min,Month,Day,Hour,Minute,Max,Month,Day,Hour,Minute]
61,11,InteriorLights:Electricity [J] !RunPeriod [Value,Min,Month,Day,Hour,Minute,Max,Month,Day,Hour,Minute]
1046,11,ExteriorLights:Electricity [J] !RunPeriod [Value,Min,Month,Day,Hour,Minute,Max,Month,Day,Hour,Minute]
134,11,InteriorEquipment:Electricity [J] !RunPeriod [Value,Min,Month,Day,Hour,Minute,Max,Month,Day,Hour,Minute]
170,11,gas_dryer:InteriorEquipment:Electricity [J] !RunPeriod [Value,Min,Month,Day,Hour,Minute,Max,Month,Day,Hour,Minute]
207,11,clotheswasher:InteriorEquipment:Electricity [J] !RunPeriod [Value,Min,Month,Day,Hour,Minute,Max,Month,Day,Hour,Minute]
244,11,dishwasher:InteriorEquipment:Electricity [J] !RunPeriod [Value,Min,Month,Day,Hour,Minute,Max,Month,Day,Hour,Minute]
281,11,refrigerator:InteriorEquipment:Electricity [J] !RunPeriod [Value,Min,Month,Day,Hour,Minute,Max,Month,Day,Hour,Minute]
318,11,electric_mels:InteriorEquipment:Electricity [J] !RunPeriod [Value,Min,Month,Day,Hour,Minute,Max,Month,Day,Hour,Minute]
355,11,NaturalGas:Facility [J] !RunPeriod [Value,Min,Month,Day,Hour,Minute,Max,Month,Day,Hour,Minute]
403,11,InteriorEquipment:NaturalGas [J] !RunPeriod [Value,Min,Month,Day,Hour,Minute,Max,Month,Day,Hour,Minute]
476,11,gas_dryer:InteriorEquipment:NaturalGas [J] !RunPeriod [Value,Min,Month,Day,Hour,Minute,Max,Month,Day,Hour,Minute]
513,11,gas_mels:InteriorEquipment:NaturalGas [J] !RunPeriod [Value,Min,Month,Day,Hour,Minute,Max,Month,Day,Hour,Minute]
End of Data Dictionary
1,EXTREME_WINTER,  44.74, -85.58,  -5.00, 188.40
5,7
1038,2.25,0.0,12,15, 1,15,0.25,12,15, 6,15
1039,0.0,0.0,12,15, 1,15,0.0,12,15, 1,15
581,0.4403459039793846,0.25336838793783123,12,21,21,60,0.7925241622854164,12,21,10,60
582,5.498193660465634,0.02232979342940168,12,18, 9,52,19.48430778944905,12,15, 7,60
583,0.059758711740999414,0.0009352574547298096,12,17,23, 5,0.07059632851238273,12,15,19,52
1115,1903360578.286792,0.0,12,15,23, 3,3735004.0274964115,12,21,15,45
1128,666621025.9533617,0.0,12,15,23, 3,1092840.68265118,12,21,15,45
1153,12635539.85812375,0.0,12,15,23, 3,50798.827302031044,12,18,19,60
1154,2395029.845995431,0.0,12,15, 1, 5,87147.52937153165,12,21,17,45
1155,1884191272.7816608,0.0,12,15,23, 3,5748574.937915316,12,16, 6,45
1156,1884191272.7816608,0.0,12,15,23, 3,5748574.937915316,12,16, 6,45
1292,-25418728.125723023,-39768.986517772624,12,18, 4,30,-9454.33766929069,12,15,23, 3
1306,129513073.1212523,0.0,12,15, 1, 5,4050000.0,12,15, 7,15
1307,25941737.144726053,0.0,12,15, 1, 5,7585359.068365426,12,15, 6,60
1308,129513073.1212523,0.0,12,15, 1, 5,4050000.0,12,15, 7,15
13,3142284074.292794,1131568.8048741948,12,21,23,15,11122857.29297356,12,16, 7,30
61,301924526.02383536,88139.10953165221,12,15, 1,15,1282023.4113694867,12,15,20,15
134,70666020.44019976,63564.01800854099,12,15, 4,15,156554.22484006523,12,20,20,15
170,5241013.419656067,348.4159749238097,12,15, 4,15,17476.39704006126,12,20,12,15
207,6509451.13922267,815.2532113832032,12,15, 3,15,22990.642799023623,12,20,10,15
244,12749673.399825225,1521.856143006317,12,15, 4,15,53038.631142310165,12,20,20,15
281,46165882.481495745,59938.60262432081,12,15, 5,15,81951.81706819107,12,15,19,15
318,0.0,0.0,12,15, 1,15,0.0,12,15, 1,15
355,197687796.27748066,18561.32405820678,12,15, 4,15,724774.895203776,12,20,18,15
403,197687796.27748066,18561.32405820678,12,15, 4,15,724774.895203776,12,20,18,15
476,106772067.24485716,7098.072629279515,12,15, 4,15,356036.3026282215,12,20,12,15
513,0.0,0.0,12,15, 1,15,0.0,12,15, 1,15
562,74337586.268365,33174.46748021794,12,21,23,15,112873.47659181627,12,15, 1,15
1046,0.0,0.0,12,15, 1,15,0.0,12,15, 1,15
1096,0.0,0.0,12,15, 1,15,0.0,12,15, 1,15
1134,2565842868.4391418,446872.0436012774,12,21,23,15,6747132.850597288,12,16, 7,15
1326,129513073.12125233,0.0,12,15, 1,15,4050000.0,12,15, 7,15
1379,0.0,0.0,12,15, 1,15,0.0,12,15, 1,15
1,EXTREME_SUMMER,  44.74, -85.58,  -5.00, 188.40
5,7
1038,0.0,0.0, 8,24, 1,15,0.0, 8,24, 1,15
1039,30.5,0.0, 8,24, 1,15,0.25, 8,24,14,60
581,0.10388655290301721,0.0, 8,26,23, 3,0.39094718590547856, 8,30,17,50
582,2.4748382872434598,0.0, 8,24,22,26,10.146413682291954, 8,26,16,48
583,0.02257043662549661,0.0, 8,26,23, 3,0.054188214798706974, 8,26,16,51
1115,0.0,0.0, 8,24, 1,15,0.0, 8,24, 1,15
1128,0.0,0.0, 8,24, 1,15,0.0, 8,24, 1,15
1153,0.0,0.0, 8,24, 1,15,0.0, 8,24, 1,15
1154,0.0,0.0, 8,24, 1,15,0.0, 8,24, 1,15
1155,0.0,0.0, 8,24, 1,15,0.0, 8,24, 1,15
1156,0.0,0.0, 8,24, 1,15,0.0, 8,24, 1,15
1292,-21986757.81540989,-34762.52500229445, 8,24, 6,45,-3666.4731904386877, 8,24, 9,30
1306,106946018.55492413,0.0, 8,24, 1,15,4050000.0, 8,26, 9,15
1307,16485985.914653486,0.0, 8,24, 1,15,5406418.706838506, 8,24, 6,60
1308,106946018.55492413,0.0, 8,24, 1,15,4050000.0, 8,26, 9,15
13,795696885.192798,151703.1275401932, 8,24, 4,15,5148678.526841044, 8,24,19,30
61,301924526.02383536,88139.10953165221, 8,24, 1,15,1282023.4113694867, 8,24,20,15
134,70666020.44019976,63564.01800854099, 8,24, 4,15,156554.22484006523, 8,29,20,15
170,5241013.419656067,348.4159749238097, 8,24, 4,15,17476.39704006126, 8,29,12,15
207,6509451.13922267,815.2532113832032, 8,24, 3,15,22990.642799023623, 8,29,10,15
244,12749673.399825225,1521.856143006317, 8,24, 4,15,53038.631142310165, 8,29,20,15
281,46165882.481495745,59938.60262432081, 8,24, 5,15,81951.81706819107, 8,24,19,15
318,0.0,0.0, 8,24, 1,15,0.0, 8,24, 1,15
355,197687796.27748066,18561.32405820678, 8,24, 4,15,724774.895203776, 8,29,18,15
403,197687796.27748066,18561.32405820678, 8,24, 4,15,724774.895203776, 8,29,18,15
476,106772067.24485716,7098.072629279515, 8,24, 4,15,356036.3026282215, 8,29,12,15
513,0.0,0.0, 8,24, 1,15,0.0, 8,24, 1,15
562,31989709.080840543,0.0, 8,24, 2,30,112873.47659181629, 8,24,15,30
1046,0.0,0.0, 8,24, 1,15,0.0, 8,24, 1,15
1096,284170611.0929998,0.0, 8,24, 2,30,1137140.1496781453, 8,25,15,15
1134,0.0,0.0, 8,24, 1,15,0.0, 8,24, 1,15
1326,106946018.55492415,0.0, 8,24, 1,15,4050000.0, 8,24, 7,15
1379,0.0,0.0, 8,24, 1,15,0.0, 8,24, 1,15
1,ANNUAL,  44.74, -85.58,  -5.00, 188.40
5,365
1038,112.5,0.0, 1, 1, 1,15,0.25, 1, 3, 6,15
1039,319.5,0.0, 1, 1, 1,15,0.25, 5,19,17,30
581,0.2558147272460827,0.0, 5, 7, 7,47,1.1000098964634657,11,24,19,60
582,3.30825013642199,0.0, 1, 5,19, 7,24.69392872074971,11,24,18,60
583,0.028540351411697442,0.0, 5,30, 3,45,0.07572519449080364,11,24,19,60
1115,37143434895.015434,0.0, 1, 1,23, 5,3987237.5427228548, 3,24, 7,45
1128,11803217410.50891,0.0, 1, 1,23, 5,1139498.5354074815, 3,24, 7,45
1153,419686189.2108556,0.0, 1, 1, 1,33,106485.02706139193,12,27, 9,15
1154,1350594425.6868176,0.0, 1, 1, 6, 5,180000.0, 1, 2,14,30
1155,14299199862.20089,0.0, 1, 1, 1,15,5748574.937915316, 1,25, 9,15
1156,14299199862.20089,0.0, 1, 1, 1,15,5748574.937915316, 1,25, 9,15
1292,-1247294322.7694197,-42126.60825377449, 3, 2, 7,45,-2149.579463264847, 6, 1,19,16
1306,6401829367.562176,0.0, 1, 1, 1,15,4050000.0, 1, 1,14,15
1307,1196381044.785843,0.0, 1, 1, 1,15,8371293.814070996, 2,13, 6,60
1308,6401829367.562176,0.0, 1, 1, 1,15,4050000.0, 1, 1,14,15
13,60828939496.51151,151703.1275401932, 4,13, 4,15,11574890.580432117, 3,13, 7,30
61,15743207428.383959,88139.10953165221, 1, 1, 1,15,1282023.4113694867, 1, 1,20,15
134,3685071073.4325233,63564.01800854099, 1, 2, 4,15,156554.22484006523, 1, 1,20,15
170,273393721.45532674,348.4159749238097, 1, 2, 4,15,17476.39704006126, 1, 1,12,15
207,339560869.0695816,815.2532113832032, 1, 2, 3,15,22990.642799023623, 1, 1,10,15
244,664895467.8009144,1521.856143006317, 1, 2, 4,15,53038.631142310165, 1, 1,20,15
281,2407221015.106824,59938.60262432081, 1, 1, 5,15,81951.81706819107, 1, 1,19,15
318,0.0,0.0, 1, 1, 1,15,0.0, 1, 1, 1,15
355,10310294493.051695,18561.32405820678, 1, 2, 4,15,724774.895203776, 1, 1,18,15
403,10310294493.051695,18561.32405820678, 1, 2, 4,15,724774.895203776, 1, 1,18,15
476,5569688622.066177,7098.072629279515, 1, 2, 4,15,356036.3026282215, 1, 1,12,15
513,0.0,0.0, 1, 1, 1,15,0.0, 1, 1, 1,15
562,1917411018.0733263,0.0, 1, 2,14,30,112873.47659181629, 1,20,12,30
1046,0.0,0.0, 1, 1, 1,15,0.0, 1, 1, 1,15
1096,5208722721.450245,0.0, 1, 1, 1,15,1153886.2812836005, 8,21,14,60
1134,27872697887.607456,0.0, 2,10,11,45,6777552.151778047, 2,19, 9,60
1326,6401829367.5621805,0.0, 1, 1, 1,15,4050000.0, 1, 1,14,15
1379,0.0,0.0, 1, 1, 1,15,0.0, 1, 1, 1,15
End of Data
 Number of Records Written=          99
