Program Version,EnergyPlus, Version 22.2.0-c249759bad, YMD=2023.09.01 14:31
1,5,Environment Title[],Latitude[deg],Longitude[deg],Time Zone[],Elevation[m]
2,8,Day of Simulation[],Month[],Day of Month[],DST Indicator[1=yes 0=no],Hour[],StartMinute[],EndMinute[],DayType
3,5,Cumulative Day of Simulation[],Month[],Day of Month[],DST Indicator[1=yes 0=no],DayType  ! When Daily Report Variables Requested
4,2,Cumulative Days of Simulation[],Month[]  ! When Monthly Report Variables Requested
5,1,Cumulative Days of Simulation[] ! When Run Period Report Variables Requested
6,1,Calendar Year of Simulation[] ! When Annual Report Variables Requested
7,1,Environment,Site Outdoor Air Drybulb Temperature [C] !Hourly
619,1,DX_HEATING_COIL,Heating Coil Heating Rate [W] !Hourly
633,1,DX_HEATING_COIL,Heating Coil Electricity Rate [W] !Hourly
659,1,DX_HEATING_COIL,Heating Coil Defrost Electricity Rate [W] !Hourly
661,1,DX_HEATING_COIL,Heating Coil Crankcase Heater Electricity Rate [W] !Hourly
690,1,FAN,Fan Electricity Rate [W] !Hourly
716,1,HEAT PUMP WATER HEATER FAN,Fan Electricity Rate [W] !Hourly
718,1,LIVING,Zone Mean Air Temperature [C] !Hourly
719,1,ATTIC,Zone Mean Air Temperature [C] !Hourly
720,1,CRAWLSPACE,Zone Mean Air Temperature [C] !Hourly
843,1,LIVING,Zone Predicted Sensible Load to Heating Setpoint Heat Transfer Rate [W] !Hourly
844,1,LIVING,Zone System Predicted Sensible Load to Heating Setpoint Heat Transfer Rate [W] !Hourly
907,1,ATTIC,Zone Predicted Sensible Load to Heating Setpoint Heat Transfer Rate [W] !Hourly
908,1,ATTIC,Zone System Predicted Sensible Load to Heating Setpoint Heat Transfer Rate [W] !Hourly
971,1,CRAWLSPACE,Zone Predicted Sensible Load to Heating Setpoint Heat Transfer Rate [W] !Hourly
972,1,CRAWLSPACE,Zone System Predicted Sensible Load to Heating Setpoint Heat Transfer Rate [W] !Hourly
1195,1,HEATING_RESISTANCE_BACKUP,Heating Coil Heating Rate [W] !Hourly
1197,1,HEATING_RESISTANCE_BACKUP,Heating Coil Electricity Rate [W] !Hourly
End of Data Dictionary
1,EXTREME_WINTER,  40.78,-111.97,  -7.00,1287.80
2,1, 1, 6, 0, 1, 0.00,60.00,Monday
7,-8.3
718,18.426473123768915
719,-3.6088471309786487
720,18.35321977715142
619,3066.407032516198
633,1138.2249648688612
659,42.865949107494586
661,71.47468327443048
690,129.1560171750685
716,0.0
843,2158.682416651309
844,2158.682416651309
907,0.0
908,0.0
971,0.0
972,0.0
1195,0.0
1197,0.0
2,1, 1, 6, 0, 2, 0.00,60.00,Monday
7,-8.9
718,18.495947413726455
719,-4.017382688638209
720,17.894853643984277
619,3956.0987009481455
633,1447.739089305536
659,45.268760990219874
661,36.4822860335787
690,164.60419174249802
716,0.0
843,2776.9936758387266
844,2776.9936758387266
907,0.0
908,0.0
971,0.0
972,0.0
1195,0.0
1197,0.0
2,1, 1, 6, 0, 3, 0.00,60.00,Monday
7,-8.9
718,18.5367736509594
719,-4.207839701517351
720,17.675970113142526
619,4546.672691632959
633,1643.7550317389516
659,51.350818906365426
661,14.512959175387042
690,186.71886870719342
716,0.0
843,3155.033586917145
844,3155.033586917145
907,0.0
908,0.0
971,0.0
972,0.0
1195,0.0
1197,0.0
2,1, 1, 6, 0, 4, 0.00,60.00,Monday
7,-9.4
718,18.556723377792203
719,-4.158160684543409
720,17.423847838709413
619,4944.535107833877
633,1771.6199074224382
659,50.727731545570144
661,0.0
690,203.67857497364926
716,0.0
843,3507.348596868622
844,3507.348596868622
907,0.0
908,0.0
971,0.0
972,0.0
1195,126.34525452837397
1197,126.34525452837397
2,1, 1, 6, 0, 5, 0.00,60.00,Monday
7,-10.0
718,18.59084575688938
719,-4.538832131933968
720,17.21625002781646
619,4835.64135502398
633,1755.8225820949447
659,55.962054599148956
661,0.0
690,203.67857497364926
716,0.0
843,3670.401730280897
844,3670.401730280897
907,0.0
908,0.0
971,0.0
972,0.0
1195,431.17280057299376
1197,431.17280057299376
2,1, 1, 6, 0, 6, 0.00,60.00,Monday
7,-10.0
718,19.319619989495045
719,-4.493028078238024
720,17.02007229950567
619,4834.876234107244
633,1756.6684278611274
659,55.962054599148956
661,0.0
690,203.67857497364926
716,0.0
843,4723.712017063082
844,4723.712017063082
907,0.0
908,0.0
971,0.0
972,0.0
1195,1699.9694695807584
1197,1699.9694695807584
2,1, 1, 6, 0, 7, 0.00,60.00,Monday
7,-8.9
718,19.547460182530372
719,-4.140495779585902
720,16.874999391189043
619,4953.437504330117
633,1789.4939346453937
659,62.69863023478439
661,0.0
690,203.67857497364926
716,85.44000000000005
843,4494.34628378004
844,4494.34628378004
907,0.0
908,0.0
971,0.0
972,0.0
1195,2473.590771140266
1197,2473.590771140266
2,1, 1, 6, 0, 8, 0.00,60.00,Monday
7,-11.0
718,19.636031145710056
719,-5.219534300784263
720,16.678621595380154
619,4647.661848916027
633,1767.5027366739027
659,59.28988195752694
661,0.0
690,203.67857497364926
716,85.44000000000005
843,4701.789322893463
844,4701.789322893463
907,0.0
908,0.0
971,0.0
972,0.0
1195,3086.9379299101947
1197,3086.9379299101947
2,1, 1, 6, 0, 9, 0.00,60.00,Monday
7,-10.6
718,19.691314791639652
719,-4.369339627906078
720,16.525370340050017
619,4699.753671109976
633,1775.227700227546
659,60.42501320715499
661,0.0
690,203.67857497364926
716,12.738743527625122
843,4442.973540091994
844,4442.973540091994
907,0.0
908,0.0
971,0.0
972,0.0
1195,1798.1708178773815
1197,1798.1708178773815
2,1, 1, 6, 0,10, 0.00,60.00,Monday
7,-8.0
718,19.73959928094693
719,-0.9756940673245493
720,16.393112449542773
619,4595.315878526045
633,1682.175389492118
659,77.10116250401542
661,12.051498187711385
690,188.33101114456713
716,0.0
843,3057.938117592559
844,3057.938117592559
907,0.0
908,0.0
971,0.0
972,0.0
1195,0.0
1197,0.0
2,1, 1, 6, 0,11, 0.00,60.00,Monday
7,-7.0
718,19.82793441148666
719,2.24704259547412
720,16.27295534883318
619,3159.6432963193215
633,1173.5384245197038
659,57.656997531260046
661,69.53455694809358
690,130.76913777271486
716,0.0
843,2207.992931824034
844,2207.992931824034
907,0.0
908,0.0
971,0.0
972,0.0
1195,0.0
1197,0.0
2,1, 1, 6, 0,12, 0.00,60.00,Monday
7,-7.2
718,19.78927725741473
719,5.594298405318642
720,16.164082310353184
619,2428.78071356963
633,922.731721186728
659,43.30728833490967
661,97.70196770216731
690,102.57660651002647
716,0.0
843,1770.1425973925852
844,1770.1425973925852
907,0.0
908,0.0
971,0.0
972,0.0
1195,0.0
1197,0.0
2,1, 1, 6, 0,13, 0.00,60.00,Monday
7,-6.0
718,19.857410304589454
719,9.603830265943964
720,16.09035828491272
619,1518.5135948044326
633,575.0998232896437
659,31.67749329786838
661,136.15808710656628
690,63.968232055601156
716,0.0
843,1158.0533362011975
844,1158.0533362011975
907,0.0
908,0.0
971,0.0
972,0.0
1195,0.0
1197,0.0
2,1, 1, 6, 0,14, 0.00,60.00,Monday
7,-5.0
718,19.764656446297614
719,9.07185875891661
720,16.03397338909894
619,1566.185596962097
633,579.973379904028
659,26.743423181813437
661,136.93306037335313
690,63.43788960505113
716,78.12535396445897
843,404.7088417324594
844,404.7088417324594
907,0.0
908,0.0
971,0.0
972,0.0
1195,0.0
1197,0.0
2,1, 1, 6, 0,15, 0.00,60.00,Monday
7,-5.0
718,19.888290023915356
719,8.436455638786134
720,16.004802737921473
619,76.41102663022328
633,29.20049722494261
659,1.3486437108217197
661,196.8195981901789
690,3.1991266733313517
716,0.0
843,58.273425016903275
844,58.273425016903275
907,0.0
908,0.0
971,0.0
972,0.0
1195,0.0
1197,0.0
2,1, 1, 6, 0,16, 0.00,60.00,Monday
7,-5.0
718,20.082707103269524
719,7.3994482028449875
720,15.989060657269524
619,0.0
633,0.0
659,0.0
661,200.0
690,0.0
716,0.0
843,-443.23075682567105
844,-443.23075682567105
907,0.0
908,0.0
971,0.0
972,0.0
1195,0.0
1197,0.0
2,1, 1, 6, 0,17, 0.00,60.00,Monday
7,-7.2
718,20.146136369112455
719,5.204478036773769
720,15.988013617675923
619,0.0
633,0.0
659,0.0
661,200.0
690,0.0
716,0.0
843,-353.2368540612151
844,-353.2368540612151
907,0.0
908,0.0
971,0.0
972,0.0
1195,0.0
1197,0.0
2,1, 1, 6, 0,18, 0.00,60.00,Monday
7,-7.2
718,19.68673779777955
719,1.983623104794268
720,15.982009713692685
619,625.8276326657984
633,250.15717179815286
659,11.701180244975523
661,172.4331106278001
690,27.6399401679014
716,0.0
843,474.00703870178586
844,474.00703870178586
907,0.0
908,0.0
971,0.0
972,0.0
1195,0.0
1197,0.0
2,1, 1, 6, 0,19, 0.00,60.00,Monday
7,-7.8
718,19.60260943157533
719,-0.05164138560380244
720,15.938083376204435
619,2548.1991749034155
633,974.5563870693983
659,49.14426684314792
661,90.63678814464105
690,109.44376716577653
716,85.44000000000005
843,864.8120817971376
844,864.8120817971376
907,0.0
908,0.0
971,0.0
972,0.0
1195,0.0
1197,0.0
2,1, 1, 6, 0,20, 0.00,60.00,Monday
7,-7.0
718,19.664843729018642
719,-0.974372474771553
720,15.899415434489121
619,2942.151300508574
633,1094.1964013366082
659,55.176066868055436
661,77.81162820535168
690,122.4296594695902
716,85.44000000000005
843,1096.0586889860806
844,1096.0586889860806
907,0.0
908,0.0
971,0.0
972,0.0
1195,0.0
1197,0.0
2,1, 1, 6, 0,21, 0.00,60.00,Monday
7,-6.7
718,19.72603185452137
719,-1.8214681426409622
720,15.845276905483178
619,2589.908905727059
633,966.345164285128
659,47.84420780733949
661,92.59747711918591
690,107.68994643669792
716,52.43097684058711
843,1215.99161971587
844,1215.99161971587
907,0.0
908,0.0
971,0.0
972,0.0
1195,0.0
1197,0.0
2,1, 1, 6, 0,22, 0.00,60.00,Monday
7,-7.0
718,19.789709442668684
719,-2.037429338235974
720,15.775825067859707
619,2074.08792497059
633,789.4698889462102
659,39.71233971326443
661,112.05632432403307
690,88.11627422907945
716,0.0
843,1437.910037073254
844,1437.910037073254
907,0.0
908,0.0
971,0.0
972,0.0
1195,0.0
1197,0.0
2,1, 1, 6, 0,23, 0.00,60.00,Monday
7,-7.0
718,18.867644834039755
719,-3.014756645933528
720,15.700103425623528
619,1429.3331391136185
633,553.2811767232898
659,27.795784977626525
661,138.4457446506276
690,61.674670981920684
716,0.0
843,984.276869968302
844,984.276869968302
907,0.0
908,0.0
971,0.0
972,0.0
1195,0.0
1197,0.0
2,1, 1, 6, 0,24, 0.00,60.00,Monday
7,-6.7
718,18.61058335132616
719,-3.1846102657090913
720,15.58480149264102
619,2154.6753224296976
633,797.0490514568298
659,45.306528218847305
661,109.28538354095298
690,90.78214964564063
716,0.0
843,1503.5849037765493
844,1503.5849037765493
907,0.0
908,0.0
971,0.0
972,0.0
1195,0.0
1197,0.0
2,2, 1, 7, 0, 1, 0.00,60.00,Tuesday
7,-7.0
718,18.496543061387058
719,-2.658006779987058
720,15.470648904011478
619,3130.4301004261647
633,1130.2255791572538
659,57.1086529869792
661,71.43370388196271
690,128.86835377128855
716,0.0
843,2186.2214523134135
844,2186.2214523134135
907,0.0
908,0.0
971,0.0
972,0.0
1195,0.0
1197,0.0
2,2, 1, 7, 0, 2, 0.00,60.00,Tuesday
7,-7.0
718,18.55943153770463
719,-2.435753351661921
720,15.35796151221889
619,3784.125780876536
633,1342.2128643343904
659,68.0313706370872
661,46.942710230256644
690,153.41695896520847
716,0.0
843,2659.4095479678563
844,2659.4095479678563
907,0.0
908,0.0
971,0.0
972,0.0
1195,0.0
1197,0.0
2,2, 1, 7, 0, 3, 0.00,60.00,Tuesday
7,-7.2
718,18.566520435364325
719,-2.2426563675065796
720,15.249185371817411
619,4245.318511547542
633,1497.829976563206
659,72.56900736098284
661,29.565899791991292
690,170.9025971873979
716,0.0
843,2978.431994425333
844,2978.431994425333
907,0.0
908,0.0
971,0.0
972,0.0
1195,0.0
1197,0.0
2,2, 1, 7, 0, 4, 0.00,60.00,Tuesday
7,-7.0
718,18.597023541958514
719,-1.9741945554380913
720,15.14548485207014
619,4422.61720381887
633,1546.4832515417909
659,63.68964088210913
661,25.89952003539244
690,175.02335684982296
716,0.0
843,3117.5949135600786
844,3117.5949135600786
907,0.0
908,0.0
971,0.0
972,0.0
1195,0.0
1197,0.0
2,2, 1, 7, 0, 5, 0.00,60.00,Tuesday
7,-8.0
718,18.563952243746808
719,-2.5640698493495777
720,15.027674812453835
619,4836.772663680813
633,1711.3566667511584
659,80.20784188945342
661,4.478386224921138
690,195.94130193115487
716,0.0
843,3387.772683606783
844,3387.772683606783
907,0.0
908,0.0
971,0.0
972,0.0
1195,0.0
1197,0.0
2,2, 1, 7, 0, 6, 0.00,60.00,Tuesday
7,-8.3
718,19.302644212880164
719,-2.0815564326647578
720,14.924037040441005
619,5018.0223540970355
633,1751.8104526116267
659,76.60507797674286
661,0.0
690,203.67857497364926
716,0.0
843,4544.282379657683
844,4544.282379657683
907,0.0
908,0.0
971,0.0
972,0.0
1195,1244.1273732021045
1197,1244.1273732021045
2,2, 1, 7, 0, 7, 0.00,60.00,Tuesday
7,-7.8
718,19.532256523204186
719,-1.522591841348641
720,14.865061025453759
619,5057.071740786011
633,1779.301178772469
659,80.46550058376872
661,0.0
690,203.67857497364926
716,85.44000000000005
843,4165.701262128914
844,4165.701262128914
907,0.0
908,0.0
971,0.0
972,0.0
1195,1906.3134430668024
1197,1906.3134430668024
2,2, 1, 7, 0, 8, 0.00,60.00,Tuesday
7,-7.8
718,19.638510260599894
719,-2.0533853225136887
720,14.771572439055218
619,5050.1028901836435
633,1787.0409582317902
659,80.49519236590315
661,0.0
690,203.67857497364926
716,85.44000000000005
843,3994.4164477076774
844,3994.4164477076774
907,0.0
908,0.0
971,0.0
972,0.0
1195,1790.193660725285
1197,1790.193660725285
2,2, 1, 7, 0, 9, 0.00,60.00,Tuesday
7,-7.8
718,19.67700170396656
719,-1.2629631033536672
720,14.686112258833507
619,5047.01428481928
633,1790.5438852390091
659,80.49519236590315
661,0.0
690,203.67857497364926
716,85.44000000000005
843,3494.7256281852387
844,3494.7256281852387
907,0.0
908,0.0
971,0.0
972,0.0
1195,1247.3862581672993
1197,1247.3862581672993
2,2, 1, 7, 0,10, 0.00,60.00,Tuesday
7,-8.0
718,19.725220173331248
719,0.4562540812391136
720,14.600079552907571
619,4578.536794965619
633,1675.4147055826095
659,92.58544860022891
661,10.24383493423029
690,189.5254306579688
716,17.604737382180133
843,2954.0023894303013
844,2954.0023894303013
907,0.0
908,0.0
971,0.0
972,0.0
1195,0.0
1197,0.0
2,2, 1, 7, 0,11, 0.00,60.00,Tuesday
7,-7.0
718,19.855446895760164
719,4.724065505559336
720,14.528397028292186
619,2858.4763363289117
633,1066.7535186772566
659,53.72809145385877
661,81.01819526063782
690,119.21606014514097
716,0.0
843,2016.123697181607
844,2016.123697181607
907,0.0
908,0.0
971,0.0
972,0.0
1195,0.0
1197,0.0
2,2, 1, 7, 0,12, 0.00,60.00,Tuesday
7,-5.6
718,19.880963876944165
719,9.348736058349383
720,14.4729893706638
619,1523.7381047932556
633,569.8171713141895
659,21.869567102578838
661,138.2757871939801
690,62.177094076565936
716,0.0
843,1140.733068996622
844,1140.733068996622
907,0.0
908,0.0
971,0.0
972,0.0
1195,0.0
1197,0.0
2,2, 1, 7, 0,13, 0.00,60.00,Tuesday
7,-4.4
718,19.759275526307533
719,10.932243106742808
720,14.440220324011051
619,707.1071578861075
633,262.7340279939864
659,9.756355204753962
661,171.87609777021999
690,28.374504520165694
716,0.0
843,559.6644676554733
844,559.6644676554733
907,0.0
908,0.0
971,0.0
972,0.0
1195,0.0
1197,0.0
2,2, 1, 7, 0,14, 0.00,60.00,Tuesday
7,-4.4
718,19.755713923513905
719,12.171356647018747
720,14.434428642400022
619,259.6719334119467
633,97.14617550115095
659,3.6194258380182913
661,189.57628364058075
690,10.516567392085514
716,0.0
843,209.3644507058816
844,209.3644507058816
907,0.0
908,0.0
971,0.0
972,0.0
1195,0.0
1197,0.0
2,2, 1, 7, 0,15, 0.00,60.00,Tuesday
7,-4.4
718,19.98588897690464
719,11.75780617794295
720,14.448593231946631
619,0.0
633,0.0
659,0.0
661,200.0
690,0.0
716,0.0
843,-200.25038553061313
844,-200.25038553061313
907,0.0
908,0.0
971,0.0
972,0.0
1195,0.0
1197,0.0
2,2, 1, 7, 0,16, 0.00,60.00,Tuesday
7,-6.0
718,20.23567781759286
719,7.659809335442907
720,14.477656160824582
619,0.0
633,0.0
659,0.0
661,200.0
690,0.0
716,0.0
843,-424.8489078847051
844,-424.8489078847051
907,0.0
908,0.0
971,0.0
972,0.0
1195,0.0
1197,0.0
2,2, 1, 7, 0,17, 0.00,60.00,Tuesday
7,-7.0
718,20.25666386952965
719,3.4901170740130403
720,14.512426208530826
619,0.0
633,0.0
659,0.0
661,200.0
690,0.0
716,0.0
843,-436.35612302588197
844,-436.35612302588197
907,0.0
908,0.0
971,0.0
972,0.0
1195,0.0
1197,0.0
2,2, 1, 7, 0,18, 0.00,60.00,Tuesday
7,-6.7
718,19.70539992451848
719,0.3175465182053676
720,14.551368888514103
619,380.3994956833822
633,151.1096819738295
659,5.946855629811309
661,183.5873651888581
690,16.50599236340225
716,0.0
843,280.70831931988323
844,280.70831931988323
907,0.0
908,0.0
971,0.0
972,0.0
1195,0.0
1197,0.0
2,2, 1, 7, 0,19, 0.00,60.00,Tuesday
7,-7.0
718,19.60315512962459
719,-0.6048563207173948
720,14.583104900123697
619,2263.2378400853404
633,855.9193135173884
659,43.12346273816498
661,104.5023323115081
690,95.68584246120301
716,85.44000000000005
843,649.8587699205145
844,649.8587699205145
907,0.0
908,0.0
971,0.0
972,0.0
1195,0.0
1197,0.0
2,2, 1, 7, 0,20, 0.00,60.00,Tuesday
7,-6.0
718,19.658231562992103
719,-0.7740867884671444
720,14.572071881605158
619,2736.5107375455304
633,999.0991889907804
659,44.40530407055887
661,90.04532387585036
690,110.52597378790351
716,85.44000000000005
843,910.1255305774557
844,910.1255305774557
907,0.0
908,0.0
971,0.0
972,0.0
1195,0.0
1197,0.0
2,2, 1, 7, 0,21, 0.00,60.00,Tuesday
7,-6.1
718,19.63818197420564
719,-0.9072028008469463
720,14.542251717649982
619,3053.7283832360527
633,1112.5853719206498
659,58.939414315962324
661,76.23462485631718
690,124.07882512509558
716,85.44000000000005
843,1115.692251055645
844,1115.692251055645
907,0.0
908,0.0
971,0.0
972,0.0
1195,0.0
1197,0.0
2,2, 1, 7, 0,22, 0.00,60.00,Tuesday
7,-7.0
718,19.707366445822423
719,-1.7925637697131893
720,14.483704115009106
619,2629.0287481952296
633,984.145861545874
659,49.6517418676031
661,90.04534320870472
690,110.17206013438133
716,32.807414514618195
843,1485.1341170322366
844,1485.1341170322366
907,0.0
908,0.0
971,0.0
972,0.0
1195,0.0
1197,0.0
2,2, 1, 7, 0,23, 0.00,60.00,Tuesday
7,-6.1
718,18.9206966602179
719,-2.4497261966355777
720,14.419902238094682
619,1548.1192526067182
633,583.5540696324117
659,27.013526388388264
661,135.70310942604556
690,64.58534236557863
716,0.0
843,1067.9861748333678
844,1067.9861748333678
907,0.0
908,0.0
971,0.0
972,0.0
1195,0.0
1197,0.0
2,2, 1, 7, 0,24, 0.00,60.00,Tuesday
7,-6.1
718,18.65006973616185
719,-2.408518301495866
720,14.342980706645898
619,2135.1590997758813
633,778.5558100216169
659,36.60280968976577
661,112.87894755074346
690,87.51732694110376
716,0.0
843,1496.8319843728423
844,1496.8319843728423
907,0.0
908,0.0
971,0.0
972,0.0
1195,0.0
1197,0.0
2,3, 1, 8, 0, 1, 0.00,60.00,Wednesday
7,-6.7
718,18.563271143948217
719,-2.2089280828377214
720,14.26771020230973
619,2942.1883764143454
633,1060.0223945219284
659,54.31198977328427
661,79.56739431186053
690,120.74217721395435
716,0.0
843,2062.768806908123
844,2062.768806908123
907,0.0
908,0.0
971,0.0
972,0.0
1195,0.0
1197,0.0
2,3, 1, 8, 0, 2, 0.00,60.00,Wednesday
7,-6.7
718,18.555869031099846
719,-2.215737990302805
720,14.186383971720247
619,3592.146066440598
633,1272.5106404962496
659,65.36622870710794
661,55.1499681872889
690,145.22203220945747
716,0.0
843,2523.9049115402086
844,2523.9049115402086
907,0.0
908,0.0
971,0.0
972,0.0
1195,0.0
1197,0.0
2,3, 1, 8, 0, 3, 0.00,60.00,Wednesday
7,-6.7
718,18.567481305914036
719,-2.081820066587816
720,14.107057004408194
619,4056.332212229206
633,1421.779910990422
659,73.05510357366528
661,38.11160157116993
690,162.3043714228001
716,0.0
843,2845.746978756795
844,2845.746978756795
907,0.0
908,0.0
971,0.0
972,0.0
1195,0.0
1197,0.0
2,3, 1, 8, 0, 4, 0.00,60.00,Wednesday
7,-7.2
718,18.559739812558288
719,-2.3697302463522787
720,14.02187808612162
619,4551.39568618934
633,1593.1522766550102
659,78.13402941189896
661,18.41552037967262
690,182.05299879820467
716,0.0
843,3183.9578575743926
844,3183.9578575743926
907,0.0
908,0.0
971,0.0
972,0.0
1195,0.0
1197,0.0
2,3, 1, 8, 0, 5, 0.00,60.00,Wednesday
7,-7.0
718,18.587872427608563
719,-2.2715873295817817
720,13.941690900971858
619,4707.540836087571
633,1635.9369154529377
659,84.34686134569814
661,13.212390102661264
690,187.17653930071094
716,0.0
843,3280.01641555095
844,3280.01641555095
907,0.0
908,0.0
971,0.0
972,0.0
1195,0.0
1197,0.0
2,3, 1, 8, 0, 6, 0.00,60.00,Wednesday
7,-7.2
718,19.207687032126753
719,-1.8886470784464915
720,13.860179371650181
619,5149.554196790625
633,1754.9497814526828
659,86.10595446292913
661,0.0
690,203.67857497364926
716,78.69217261051273
843,4439.61058184636
844,4439.61058184636
907,0.0
908,0.0
971,0.0
972,0.0
1195,1961.0607120089926
1197,1961.0607120089926
2,3, 1, 8, 0, 7, 0.00,60.00,Wednesday
7,-7.0
718,19.49279281848528
719,-1.2714556123040475
720,13.8138755183018
619,5145.355400307404
633,1773.4639862210608
659,90.31312236615312
661,0.0
690,203.67857497364926
716,85.44000000000005
843,4140.5097126278215
844,4140.5097126278215
907,0.0
908,0.0
971,0.0
972,0.0
1195,1856.3587478160912
1197,1856.3587478160912
2,3, 1, 8, 0, 8, 0.00,60.00,Wednesday
7,-7.2
718,19.62516711303616
719,-1.2855733928889108
720,13.742317840979887
619,5122.461762351808
633,1785.729235878769
659,86.13792167673303
661,0.0
690,203.67857497364926
716,72.26110947145163
843,3941.5036758789975
844,3941.5036758789975
907,0.0
908,0.0
971,0.0
972,0.0
1195,1467.6317773071673
1197,1467.6317773071673
2,3, 1, 8, 0, 9, 0.00,60.00,Wednesday
7,-7.0
718,19.69202809051022
719,-1.1445222320413986
720,13.6764721246261
619,5134.492168797693
633,1788.1868182099035
659,89.91682450572709
661,0.0
690,203.67857497364926
716,0.0
843,3838.4168877540906
844,3838.4168877540906
907,0.0
908,0.0
971,0.0
972,0.0
1195,350.1691245640868
1197,350.1691245640868
2,3, 1, 8, 0,10, 0.00,60.00,Wednesday
7,-7.0
718,19.71140416314113
719,-0.5423474674283465
720,13.606048403955821
619,5131.031346196605
633,1789.8621266202153
659,90.31312236615312
661,0.0
690,203.67857497364926
716,0.0
843,3788.4782194341824
844,3788.4782194341824
907,0.0
908,0.0
971,0.0
972,0.0
1195,292.6214339119433
1197,292.6214339119433
2,3, 1, 8, 0,11, 0.00,60.00,Wednesday
7,-5.6
718,19.833989582919088
719,5.650171679198182
720,13.512391880996502
619,3245.855433655428
633,1164.3227187812174
659,51.86747400496911
661,72.39314593741982
690,128.32745964888747
716,0.0
843,2269.4312376494818
844,2269.4312376494818
907,0.0
908,0.0
971,0.0
972,0.0
1195,0.0
1197,0.0
2,3, 1, 8, 0,12, 0.00,60.00,Wednesday
7,-5.6
718,19.793837575873987
719,8.811534382200868
720,13.447339102520381
619,2210.354684617932
633,813.6075925384973
659,36.15467612061617
661,111.0505269841882
690,89.45096838931904
716,0.0
843,1665.13218845958
844,1665.13218845958
907,0.0
908,0.0
971,0.0
972,0.0
1195,0.0
1197,0.0
2,3, 1, 8, 0,13, 0.00,60.00,Wednesday
7,-4.4
718,19.786289399834065
719,10.502423760009462
720,13.421709665602844
619,2023.3363266735266
633,728.9569459486564
659,31.89937588568477
661,121.07614837853195
690,79.4982323236669
716,0.0
843,1589.1026875205225
844,1589.1026875205225
907,0.0
908,0.0
971,0.0
972,0.0
1195,0.0
1197,0.0
2,3, 1, 8, 0,14, 0.00,60.00,Wednesday
7,-4.0
718,19.73427969231222
719,9.229577167758517
720,13.410563024802538
619,2011.4441309084643
633,718.7280894639314
659,30.460593038219624
661,122.55906084782116
690,78.06636386845317
716,0.0
843,1604.6490495632552
844,1604.6490495632552
907,0.0
908,0.0
971,0.0
972,0.0
1195,0.0
1197,0.0
2,3, 1, 8, 0,15, 0.00,60.00,Wednesday
7,-3.9
718,19.67717297781657
719,8.332093133124436
720,13.435152829902442
619,3201.547693304349
633,1111.5719462785023
659,44.02043040723329
661,80.62480775280085
690,120.43347406873873
716,72.19225450774832
843,1735.5590429025397
844,1735.5590429025397
907,0.0
908,0.0
971,0.0
972,0.0
1195,0.0
1197,0.0
2,3, 1, 8, 0,16, 0.00,60.00,Wednesday
7,-4.0
718,19.681886963459412
719,5.805187029054011
720,13.428600656835428
619,3388.786929068423
633,1173.0812643438553
659,49.833548710364965
661,73.3065765143069
690,127.71746699854285
716,82.47287057534561
843,1732.167530329958
844,1732.167530329958
907,0.0
908,0.0
971,0.0
972,0.0
1195,0.0
1197,0.0
2,3, 1, 8, 0,17, 0.00,60.00,Wednesday
7,-5.0
718,19.770032630160404
719,4.933133094914647
720,13.39456003478573
619,2309.6221631693056
633,835.1718117509953
659,39.514298306668124
661,108.52948255255855
690,91.98797800785925
716,0.0
843,1753.4772437113534
844,1753.4772437113534
907,0.0
908,0.0
971,0.0
972,0.0
1195,0.0
1197,0.0
2,3, 1, 8, 0,18, 0.00,60.00,Wednesday
7,-5.0
718,19.737398487637492
719,2.392775176164341
720,13.389615759189764
619,2284.9227452753676
633,828.4777503727028
659,39.13111300892884
661,109.41650722374064
690,91.09537999171991
716,0.0
843,1717.010326106838
844,1717.010326106838
907,0.0
908,0.0
971,0.0
972,0.0
1195,0.0
1197,0.0
2,3, 1, 8, 0,19, 0.00,60.00,Wednesday
7,-4.0
718,19.824863567573768
719,1.232256807650815
720,13.365793753086367
619,2064.0036480019066
633,735.7579447440833
659,31.213396897906893
661,120.64518353694874
690,79.99592337679948
716,0.0
843,1501.5967280351888
844,1501.5967280351888
907,0.0
908,0.0
971,0.0
972,0.0
1195,0.0
1197,0.0
2,3, 1, 8, 0,20, 0.00,60.00,Wednesday
7,-4.4
718,19.654020475153104
719,0.7550972280946703
720,13.381272141480244
619,3453.435617203933
633,1208.3947772613474
659,58.52728775847563
661,68.40916845328555
690,132.39355169385001
716,85.44000000000005
843,1441.6566552094282
844,1441.6566552094282
907,0.0
908,0.0
971,0.0
972,0.0
1195,0.0
1197,0.0
2,3, 1, 8, 0,21, 0.00,60.00,Wednesday
7,-4.0
718,19.685412392110806
719,0.48160274414576065
720,13.344551082989927
619,3658.686852135695
633,1258.6601196258964
659,53.48988695146334
661,63.99146669091817
690,137.10828961924133
716,85.44000000000005
843,1607.2163602214696
844,1607.2163602214696
907,0.0
908,0.0
971,0.0
972,0.0
1195,0.0
1197,0.0
2,3, 1, 8, 0,22, 0.00,60.00,Wednesday
7,-5.0
718,19.64498905808407
719,-0.11006809390843895
720,13.302940653768177
619,3423.63931028193
633,1210.791540298567
659,73.42559034924703
661,65.09010934170985
690,135.19731302611785
716,30.444767563149842
843,2098.555368480267
844,2098.555368480267
907,0.0
908,0.0
971,0.0
972,0.0
1195,0.0
1197,0.0
2,3, 1, 8, 0,23, 0.00,60.00,Wednesday
7,-5.0
718,18.908249987805952
719,-1.0249290013473513
720,13.2260080464832
619,2210.0254448481137
633,802.0552247265932
659,48.6694829489415
661,110.57620930514523
690,89.61456514751957
716,0.0
843,1555.4532878726095
844,1555.4532878726095
907,0.0
908,0.0
971,0.0
972,0.0
1195,0.0
1197,0.0
2,3, 1, 8, 0,24, 0.00,60.00,Wednesday
7,-4.4
718,18.645271950408763
719,-0.8259140137689194
720,13.173583712838436
619,2743.859610206527
633,953.5156820414651
659,53.01288129478108
661,93.4308177783577
690,107.06198388520444
716,0.0
843,1955.8005589365475
844,1955.8005589365475
907,0.0
908,0.0
971,0.0
972,0.0
1195,0.0
1197,0.0
2,4, 1, 9, 0, 1, 0.00,60.00,Thursday
7,-5.0
718,18.648608815084696
719,-0.826215790361824
720,13.115135764975664
619,3316.6481475520895
633,1145.5039923156453
659,70.89579418268978
661,69.72002013541476
690,130.56993598510013
716,0.0
843,2369.455417634994
844,2369.455417634994
907,0.0
908,0.0
971,0.0
972,0.0
1195,0.0
1197,0.0
2,4, 1, 9, 0, 2, 0.00,60.00,Thursday
7,-5.0
718,18.62910640349502
719,-0.6749928842357086
720,13.05823162343785
619,3578.2969843163987
633,1228.881358258314
659,76.03587333269036
661,60.2368184091604
690,140.07490921929613
716,0.0
843,2553.228685314474
844,2553.228685314474
907,0.0
908,0.0
971,0.0
972,0.0
1195,0.0
1197,0.0
2,4, 1, 9, 0, 3, 0.00,60.00,Thursday
7,-5.0
718,18.6038922437863
719,-0.8542966380034147
720,12.997749969599182
619,3819.0354797268637
633,1303.7699510300365
659,78.74373270302998
661,51.92648542093947
690,148.46141281329082
716,0.0
843,2730.1430030964348
844,2730.1430030964348
907,0.0
908,0.0
971,0.0
972,0.0
1195,0.0
1197,0.0
2,4, 1, 9, 0, 4, 0.00,60.00,Thursday
7,-5.0
718,18.604154145301834
719,-0.8456407679440441
720,12.939317843745672
619,4045.5340337694006
633,1373.7095266263611
659,85.12469131742812
661,43.59454594330412
690,156.753932627051
716,0.0
843,2875.671924712169
844,2875.671924712169
907,0.0
908,0.0
971,0.0
972,0.0
1195,0.0
1197,0.0
2,4, 1, 9, 0, 5, 0.00,60.00,Thursday
7,-6.0
718,18.58502652569694
719,-1.178254708553259
720,12.87590096537573
619,4232.3549372369125
633,1458.3948010314227
659,82.4861249288417
661,33.75982584523616
690,166.5897962142129
716,0.0
843,3002.7790933591314
844,3002.7790933591314
907,0.0
908,0.0
971,0.0
972,0.0
1195,0.0
1197,0.0
2,4, 1, 9, 0, 6, 0.00,60.00,Thursday
7,-5.6
718,19.272386600652958
719,-0.8237038217371639
720,12.838372765655924
619,5340.315043777954
633,1757.792910164715
659,100.47017149769502
661,0.0
690,203.67857497364926
716,0.0
843,4061.9949736705257
844,4061.9949736705257
907,0.0
908,0.0
971,0.0
972,0.0
1195,335.0982852714833
1197,335.0982852714833
2,4, 1, 9, 0, 7, 0.00,60.00,Thursday
7,-5.0
718,19.516745052072814
719,-0.7155145798714014
720,12.819699389202468
619,5378.812406957869
633,1779.1786869689208
659,108.85130807084388
661,0.0
690,203.67857497364926
716,85.44000000000005
843,3911.72017311166
844,3911.72017311166
907,0.0
908,0.0
971,0.0
972,0.0
1195,1374.2228088957186
1197,1374.2228088957186
2,4, 1, 9, 0, 8, 0.00,60.00,Thursday
7,-7.8
718,19.631269228553588
719,-0.4589989085146431
720,12.744617879705533
619,5050.013064397482
633,1782.0024302487764
659,81.41054410292129
661,0.0
690,203.67857497364926
716,85.44000000000005
843,3927.175054113066
844,3927.175054113066
907,0.0
908,0.0
971,0.0
972,0.0
1195,1778.6840204939308
1197,1778.6840204939308
2,4, 1, 9, 0, 9, 0.00,60.00,Thursday
7,-7.8
718,19.675633221583446
719,-1.209838138239572
720,12.702865612627313
619,5046.661623641847
633,1785.8043556906127
659,81.41054410292129
661,0.0
690,203.67857497364926
716,75.32317363632573
843,3897.625392186259
844,3897.625392186259
907,0.0
908,0.0
971,0.0
972,0.0
1195,1486.045124306941
1197,1486.045124306941
2,4, 1, 9, 0,10, 0.00,60.00,Thursday
7,-11.0
718,19.707447606330135
719,-1.2029030129804776
720,12.615617113252894
619,4649.667957192513
633,1765.329009399289
659,59.28988195752694
661,0.0
690,203.67857497364926
716,0.0
843,3760.7335747402212
844,3760.7335747402212
907,0.0
908,0.0
971,0.0
972,0.0
1195,772.3452470750544
1197,772.3452470750544
2,4, 1, 9, 0,11, 0.00,60.00,Thursday
7,-10.0
718,19.7807911167558
719,1.7946774612651013
720,12.568668370428115
619,3902.1522362227956
633,1498.528173285037
659,44.98839006482946
661,32.57557291506274
690,168.38559830127875
716,0.0
843,2618.5774801362186
844,2618.5774801362186
907,0.0
908,0.0
971,0.0
972,0.0
1195,0.0
1197,0.0
2,4, 1, 9, 0,12, 0.00,60.00,Thursday
7,-9.4
718,19.8924823621217
719,7.71357284472973
720,12.50530104406762
619,2395.474654303878
633,946.1742835694586
659,35.86108836989526
661,93.94844634865085
690,106.38910977197374
716,0.0
843,1675.15761965411
844,1675.15761965411
907,0.0
908,0.0
971,0.0
972,0.0
1195,0.0
1197,0.0
2,4, 1, 9, 0,13, 0.00,60.00,Thursday
7,-6.7
718,19.792021200203965
719,8.41150437229066
720,12.483008863526761
619,1445.4210407871806
633,553.5032220272469