Program Version,EnergyPlus, Version 22.2.0-c249759bad, YMD=2023.09.01 14:30
1,5,Environment Title[],Latitude[deg],Longitude[deg],Time Zone[],Elevation[m]
2,8,Day of Simulation[],Month[],Day of Month[],DST Indicator[1=yes 0=no],Hour[],StartMinute[],EndMinute[],DayType
3,5,Cumulative Day of Simulation[],Month[],Day of Month[],DST Indicator[1=yes 0=no],DayType  ! When Daily Report Variables Requested
4,2,Cumulative Days of Simulation[],Month[]  ! When Monthly Report Variables Requested
5,1,Cumulative Days of Simulation[] ! When Run Period Report Variables Requested
6,1,Calendar Year of Simulation[] ! When Annual Report Variables Requested
7,1,Environment,Site Outdoor Air Drybulb Temperature [C] !Hourly
619,1,DX_HEATING_COIL,Heating Coil Heating Rate [W] !Hourly
633,1,DX_HEATING_COIL,Heating Coil Electricity Rate [W] !Hourly
659,1,DX_HEATING_COIL,Heating Coil Defrost Electricity Rate [W] !Hourly
661,1,DX_HEATING_COIL,Heating Coil Crankcase Heater Electricity Rate [W] !Hourly
690,1,FAN,Fan Electricity Rate [W] !Hourly
716,1,HEAT PUMP WATER HEATER FAN,Fan Electricity Rate [W] !Hourly
718,1,LIVING,Zone Mean Air Temperature [C] !Hourly
719,1,ATTIC,Zone Mean Air Temperature [C] !Hourly
720,1,CRAWLSPACE,Zone Mean Air Temperature [C] !Hourly
843,1,LIVING,Zone Predicted Sensible Load to Heating Setpoint Heat Transfer Rate [W] !Hourly
844,1,LIVING,Zone System Predicted Sensible Load to Heating Setpoint Heat Transfer Rate [W] !Hourly
907,1,ATTIC,Zone Predicted Sensible Load to Heating Setpoint Heat Transfer Rate [W] !Hourly
908,1,ATTIC,Zone System Predicted Sensible Load to Heating Setpoint Heat Transfer Rate [W] !Hourly
971,1,CRAWLSPACE,Zone Predicted Sensible Load to Heating Setpoint Heat Transfer Rate [W] !Hourly
972,1,CRAWLSPACE,Zone System Predicted Sensible Load to Heating Setpoint Heat Transfer Rate [W] !Hourly
1195,1,HEATING_RESISTANCE_BACKUP,Heating Coil Heating Rate [W] !Hourly
1197,1,HEATING_RESISTANCE_BACKUP,Heating Coil Electricity Rate [W] !Hourly
End of Data Dictionary
1,EXTREME_WINTER,  41.73, -71.43,  -5.00,  19.00
2,1, 1,27, 0, 1, 0.00,60.00,Monday
7,0.0
718,18.580295536276502
719,-0.9631742675506912
720,19.26474249580458
619,582.3521171187288
633,192.79691865610158
659,4.969017049230089
661,170.74632837597227
690,20.07068533966443
716,0.0
843,404.0172779169734
844,404.0172779169734
907,0.0
908,0.0
971,0.0
972,0.0
1195,0.0
1197,0.0
2,1, 1,27, 0, 2, 0.00,60.00,Monday
7,0.0
718,18.571818635804018
719,-0.9983622892868023
720,18.941070798373925
619,1106.9658518542624
633,359.447803555989
659,9.301338803298107
661,145.2410188333587
690,37.56978900714316
716,0.0
843,763.9526936390112
844,763.9526936390112
907,0.0
908,0.0
971,0.0
972,0.0
1195,0.0
1197,0.0
2,1, 1,27, 0, 3, 0.00,60.00,Monday
7,-1.7
718,18.438437771243162
719,-0.9821888695717285
720,18.732865978856942
619,1832.7034402171366
633,601.8874353809991
659,22.779850519564487
661,105.45081942511972
690,64.66748215305351
716,0.0
843,1242.215852942776
844,1242.215852942776
907,0.0
908,0.0
971,0.0
972,0.0
1195,0.0
1197,0.0
2,1, 1,27, 0, 4, 0.00,60.00,Monday
7,-1.1
718,18.544938040088073
719,-0.5701473299249247
720,18.526982355354352
619,2531.1094055130707
633,803.243281468017
659,26.74862234002801
661,74.83972231519233
690,85.71451333252098
716,0.0
843,1722.7646301895893
844,1722.7646301895893
907,0.0
908,0.0
971,0.0
972,0.0
1195,0.0
1197,0.0
2,1, 1,27, 0, 5, 0.00,60.00,Monday
7,0.0
718,18.596876943483828
719,0.12030669404429166
720,18.363770142366842
619,2705.5794060419444
633,840.141132314803
659,18.58338064482165
661,72.46409197422439
690,87.54811391405556
716,0.0
843,1859.1791044728234
844,1859.1791044728234
907,0.0
908,0.0
971,0.0
972,0.0
1195,0.0
1197,0.0
2,1, 1,27, 0, 6, 0.00,60.00,Monday
7,-0.6
718,19.318850841108624
719,0.9329570155307213
720,18.16028203190898
619,4174.125261080321
633,1261.6682059303228
659,32.74225910763374
661,6.619773376163707
690,132.63041142754133
716,0.0
843,2871.8300920011425
844,2871.8300920011425
907,0.0
908,0.0
971,0.0
972,0.0
1195,0.0
1197,0.0
2,1, 1,27, 0, 7, 0.00,60.00,Monday
7,-0.6
718,19.549145978808216
719,1.5116674821196134
720,18.0441420246176
619,4336.649511575517
633,1323.3163807765022
659,33.82403789122616
661,0.0
690,137.71698847315605
716,85.44000000000005
843,2798.8402093578025
844,2798.8402093578025
907,0.0
908,0.0
971,0.0
972,0.0
1195,1026.0286777540568
1197,1026.0286777540568
2,1, 1,27, 0, 8, 0.00,60.00,Monday
7,-0.6
718,19.634779726573868
719,1.7469756634890194
720,17.907284301902923
619,4331.745984464473
633,1329.168034199358
659,33.82403789122616
661,0.0
690,137.71698847315605
716,79.942838733719
843,2321.7538435623246
844,2321.7538435623246
907,0.0
908,0.0
971,0.0
972,0.0
1195,436.92441087282987
1197,436.92441087282987
2,1, 1,27, 0, 9, 0.00,60.00,Monday
7,1.7
718,19.776929564042277
719,2.9895304934593794
720,17.817486035620934
619,2283.5204611662452
633,714.8181765369541
659,9.991226551801505
661,96.41998076830014
690,71.21752304659064
716,0.0
843,1581.3830197219431
844,1581.3830197219431
907,0.0
908,0.0
971,0.0
972,0.0
1195,0.0
1197,0.0
2,1, 1,27, 0,10, 0.00,60.00,Monday
7,2.8
718,19.756865979648243
719,5.20224436879553
720,17.717034327473375
619,1069.3244571761143
633,339.88708229120533
659,0.6579770653339272
661,152.21766525178236
690,32.89684273811468
716,0.0
843,757.2644035261128
844,757.2644035261128
907,0.0
908,0.0
971,0.0
972,0.0
1195,0.0
1197,0.0
2,1, 1,27, 0,11, 0.00,60.00,Monday
7,4.4
718,19.95047475944115
719,8.47068046155717
720,17.642815198707776
619,0.0
633,0.0
659,0.0
661,200.0
690,0.0
716,0.0
843,-41.185256768581894
844,-41.185256768581894
907,0.0
908,0.0
971,0.0
972,0.0
1195,0.0
1197,0.0
2,1, 1,27, 0,12, 0.00,60.00,Monday
7,5.0
718,20.50163977758973
719,11.628683398093722
720,17.593965395101215
619,0.0
633,0.0
659,0.0
661,200.0
690,0.0
716,0.0
843,-606.2590973976257
844,-606.2590973976257
907,0.0
908,0.0
971,0.0
972,0.0
1195,0.0
1197,0.0
2,1, 1,27, 0,13, 0.00,60.00,Monday
7,5.6
718,20.92440887390745
719,13.674988107578006
720,17.569991512013683
619,0.0
633,0.0
659,0.0
661,200.0
690,0.0
716,0.0
843,-924.5163275757586
844,-924.5163275757586
907,0.0
908,0.0
971,0.0
972,0.0
1195,0.0
1197,0.0
2,1, 1,27, 0,14, 0.00,60.00,Monday
7,5.6
718,20.52710353401171
719,14.321763240764515
720,17.568280644996257
619,0.0
633,0.0
659,0.0
661,200.0
690,0.0
716,77.36624926537169
843,-1507.633498053745
844,-1507.633498053745
907,0.0
908,0.0
971,0.0
972,0.0
1195,0.0
1197,0.0
2,1, 1,27, 0,15, 0.00,60.00,Monday
7,5.6
718,22.21276040967552
719,14.738297904393525
720,17.585078260525382
619,0.0
633,0.0
659,0.0
661,200.0
690,0.0
716,0.0
843,-2368.936043007039
844,-2368.936043007039
907,0.0
908,0.0
971,0.0
972,0.0
1195,0.0
1197,0.0
2,1, 1,27, 0,16, 0.00,60.00,Monday
7,5.0
718,22.583010744126415
719,11.79669972142037
720,17.609801652477866
619,0.0
633,0.0
659,0.0
661,200.0
690,0.0
716,0.0
843,-2160.1463017464994
844,-2160.1463017464994
907,0.0
908,0.0
971,0.0
972,0.0
1195,0.0
1197,0.0
2,1, 1,27, 0,17, 0.00,60.00,Monday
7,4.4
718,22.798730706931604
719,10.352402058632652
720,17.657419415678458
619,0.0
633,0.0
659,0.0
661,200.0
690,0.0
716,0.0
843,-2433.135243217168
844,-2433.135243217168
907,0.0
908,0.0
971,0.0
972,0.0
1195,0.0
1197,0.0
2,1, 1,27, 0,18, 0.00,60.00,Monday
7,2.8
718,22.112870460838796
719,7.5818708916964574
720,17.69456745693068
619,0.0
633,0.0
659,0.0
661,200.0
690,0.0
716,0.0
843,-1817.9444134648384
844,-1817.9444134648384
907,0.0
908,0.0
971,0.0
972,0.0
1195,0.0
1197,0.0
2,1, 1,27, 0,19, 0.00,60.00,Monday
7,2.2
718,20.978480650169775
719,5.7361564132842195
720,17.71247155645761
619,0.0
633,0.0
659,0.0
661,200.0
690,0.0
716,85.44000000000005
843,-1856.636027424538
844,-1856.636027424538
907,0.0
908,0.0
971,0.0
972,0.0
1195,0.0
1197,0.0
2,1, 1,27, 0,20, 0.00,60.00,Monday
7,2.2
718,20.47479490481347
719,3.9293828325362763
720,17.70280451250921
619,0.0
633,0.0
659,0.0
661,200.0
690,0.0
716,85.44000000000005
843,-1710.251835919944
844,-1710.251835919944
907,0.0
908,0.0
971,0.0
972,0.0
1195,0.0
1197,0.0
2,1, 1,27, 0,21, 0.00,60.00,Monday
7,0.0
718,20.40846765645343
719,1.9146947432259125
720,17.670933773149166
619,0.0
633,0.0
659,0.0
661,200.0
690,0.0
716,26.02027529306758
843,-973.3535324280911
844,-973.3535324280911
907,0.0
908,0.0
971,0.0
972,0.0
1195,0.0
1197,0.0
2,1, 1,27, 0,22, 0.00,60.00,Monday
7,-0.6
718,20.0369034869958
719,0.7540432982209706
720,17.61842312882623
619,0.0
633,0.0
659,0.0
661,200.0
690,0.0
716,0.0
843,-265.69304395947074
844,-265.69304395947074
907,0.0
908,0.0
971,0.0
972,0.0
1195,0.0
1197,0.0
2,1, 1,27, 0,23, 0.00,60.00,Monday
7,-0.6
718,19.422236492221476
719,0.21082801029292308
720,17.55604952963324
619,0.0
633,0.0
659,0.0
661,200.0
690,0.0
716,0.0
843,-645.7621450987535
844,-645.7621450987535
907,0.0
908,0.0
971,0.0
972,0.0
1195,0.0
1197,0.0
2,1, 1,27, 0,24, 0.00,60.00,Monday
7,-1.7
718,18.667434025644265
719,-0.5852824174123934
720,17.47556282828199
619,219.8633663837629
633,76.99502585428347
659,1.7268208892844452
661,188.33034555708954
690,8.002807558025456
716,0.0
843,106.99767793914361
844,106.99767793914361
907,0.0
908,0.0
971,0.0
972,0.0
1195,0.0
1197,0.0
2,2, 1,28, 0, 1, 0.00,60.00,Tuesday
7,-1.7
718,18.573986601849192
719,-0.7137664988660337
720,17.368807966452167
619,1077.6575905634215
633,361.2732900863481
659,8.225675268022378
661,144.41184460237076
690,38.12181646733808
716,0.0
843,733.7938241829379
844,733.7938241829379
907,0.0
908,0.0
971,0.0
972,0.0
1195,0.0
1197,0.0
2,2, 1,28, 0, 2, 0.00,60.00,Tuesday
7,-1.7
718,18.567230637383524
719,-0.8706175852894009
720,17.271314212466816
619,1446.7118765221671
633,478.7644534485536
659,10.922740294993682
661,126.18539328357987
690,50.621446444796184
716,0.0
843,978.2715604517352
844,978.2715604517352
907,0.0
908,0.0
971,0.0
972,0.0
1195,0.0
1197,0.0
2,2, 1,28, 0, 3, 0.00,60.00,Tuesday
7,-3.9
718,18.384821962273186
719,-0.5497828471496339
720,17.137885393473468
619,2533.6870087406055
633,847.41270120161
659,29.05738346910831
661,64.90305215995578
690,92.29087381179619
716,0.0
843,1677.8097022302136
844,1677.8097022302136
907,0.0
908,0.0
971,0.0
972,0.0
1195,0.0
1197,0.0
2,2, 1,28, 0, 4, 0.00,60.00,Tuesday
7,-2.8
718,18.53642907080374
719,-0.08880628715605302
720,17.03698040198848
619,3184.840530333182
633,1019.7745406568815
659,34.478352768762754
661,38.36755180630931
690,110.5362294502437
716,0.0
843,2134.499945452848
844,2134.499945452848
907,0.0
908,0.0
971,0.0
972,0.0
1195,0.0
1197,0.0
2,2, 1,28, 0, 5, 0.00,60.00,Tuesday
7,-3.3
718,18.577755877841746
719,-0.4325895245499793
720,16.932674960729575
619,3441.3061522519306
633,1107.5753403115339
659,35.52617099020762
661,24.615066410523447
690,119.93340905752562
716,0.0
843,2300.882373872988
844,2300.882373872988
907,0.0
908,0.0
971,0.0
972,0.0
1195,0.0
1197,0.0
2,2, 1,28, 0, 6, 0.00,60.00,Tuesday
7,-3.9
718,19.327650281202985
719,-1.0228139048599527
720,16.81832295891172
619,3932.65955269248
633,1253.994702538945
659,43.05734026077741
661,0.0
690,137.71698847315605
716,0.0
843,3425.1536668038516
844,3425.1536668038516
907,0.0
908,0.0
971,0.0
972,0.0
1195,993.6429745313926
1197,993.6429745313926
2,2, 1,28, 0, 7, 0.00,60.00,Tuesday
7,-4.4
718,19.554850830406693
719,-0.8249280511188689
720,16.75014633366435
619,3824.1970451092025
633,1254.8277461517491
659,51.96851788884202
661,0.0
690,137.71698847315605
716,85.44000000000005
843,3477.9102093378588
844,3477.9102093378588
907,0.0
908,0.0
971,0.0
972,0.0
1195,2495.163017315724
1197,2495.163017315724
2,2, 1,28, 0, 8, 0.00,60.00,Tuesday
7,-4.4
718,19.63957703208078
719,-0.2623107853814732
720,16.655894979577695
619,3819.5188425349074
633,1260.3092889451038
659,51.96851788884202
661,0.0
690,137.71698847315605
716,85.44000000000005
843,3259.1002567062023
844,3259.1002567062023
907,0.0
908,0.0
971,0.0
972,0.0
1195,2334.418705350842
1197,2334.418705350842
2,2, 1,28, 0, 9, 0.00,60.00,Tuesday
7,0.0
718,19.68844872670166
719,1.8102897389340684
720,16.598806476476685
619,4425.842165561101
633,1343.5246708649092
659,28.955009505701476
661,0.0
690,137.71698847315605
716,85.42136928384252
843,2602.6806988103162
844,2602.6806988103162
907,0.0
908,0.0
971,0.0
972,0.0
1195,900.1377679142088
1197,900.1377679142088
2,2, 1,28, 0,10, 0.00,60.00,Tuesday
7,0.6
718,19.747751477952562
719,3.9496490681467216
720,16.50331335008104
619,3785.40517387936
633,1161.054901900104
659,26.05390250406001
661,27.998265124321108
690,118.09255690279524
716,0.0
843,2584.1647396854387
844,2584.1647396854387
907,0.0
908,0.0
971,0.0
972,0.0
1195,0.0
1197,0.0
2,2, 1,28, 0,11, 0.00,60.00,Tuesday
7,1.0
718,19.709899084105885
719,5.150321383458149
720,16.421900687119763
619,3085.9068376803834
633,958.4277702945824
659,35.21467121223292
661,55.82915255430139
690,98.83192176236074
716,0.0
843,2168.9543650387313
844,2168.9543650387313
907,0.0
908,0.0
971,0.0
972,0.0
1195,0.0
1197,0.0
2,2, 1,28, 0,12, 0.00,60.00,Tuesday
7,1.7
718,19.830232128874336
719,7.0476507151094
720,16.358598641220645
619,2554.106922292489
633,794.2714344342241
659,41.84664442433269
661,78.536903288713
690,83.17062370050849
716,0.0
843,1829.626028883391
844,1829.626028883391
907,0.0
908,0.0
971,0.0
972,0.0
1195,0.0
1197,0.0
2,2, 1,28, 0,13, 0.00,60.00,Tuesday
7,1.0
718,19.742010788338067
719,7.2356480245026304
720,16.31061080258777
619,2463.6582983073577
633,779.552568903477
659,46.82838755215943
661,79.15347737903167
690,82.60796780364976
716,0.0
843,1803.2362196860759
844,1803.2362196860759
907,0.0
908,0.0
971,0.0
972,0.0
1195,0.0
1197,0.0
2,2, 1,28, 0,14, 0.00,60.00,Tuesday
7,0.6
718,19.71171778672673
719,6.831524742101746
720,16.26774275223173
619,2606.092576031535
633,825.6574563903862
659,61.03890426075426
661,69.00908312410698
690,89.33696380289507
716,0.0
843,1901.587245079747
844,1901.587245079747
907,0.0
908,0.0
971,0.0
972,0.0
1195,0.0
1197,0.0
2,2, 1,28, 0,15, 0.00,60.00,Tuesday
7,1.0
718,19.785349423707032
719,7.4666452288945635
720,16.226151273347767
619,2020.2558217933708
633,645.828340591842
659,56.57864169698259
661,95.99373514861902
690,70.86233600144632
716,0.0
843,1468.8920019660054
844,1468.8920019660054
907,0.0
908,0.0
971,0.0
972,0.0
1195,0.0
1197,0.0
2,2, 1,28, 0,16, 0.00,60.00,Tuesday
7,2.2
718,19.843851665713583
719,7.831355367869938
720,16.192090360200353
619,1440.8340154283069
633,458.6196473103196
659,31.8328721314423
661,128.67277732147247
690,48.788854079438366
716,0.0
843,1064.1320616460507
844,1064.1320616460507
907,0.0
908,0.0
971,0.0
972,0.0
1195,0.0
1197,0.0
2,2, 1,28, 0,17, 0.00,60.00,Tuesday
7,1.7
718,19.832906781374284
719,6.858449696736465
720,16.16068965509075
619,897.2559544505466
633,292.7667784123866
659,17.273661342622887
661,154.9577000550033
690,30.82098495628107
716,0.0
843,665.4762813553589
844,665.4762813553589
907,0.0
908,0.0
971,0.0
972,0.0
1195,0.0
1197,0.0
2,2, 1,28, 0,18, 0.00,60.00,Tuesday
7,1.1
718,19.371335805784497
719,4.307959819624087
720,16.159360546994716
619,2325.507308519427
633,737.0982375110183
659,41.85798324291733
661,86.31301752060236
690,77.75440216612729
716,67.81405474260902
843,874.4389600709783
844,874.4389600709783
907,0.0
908,0.0
971,0.0
972,0.0
1195,0.0
1197,0.0
2,2, 1,28, 0,19, 0.00,60.00,Tuesday
7,1.0
718,19.160531236364804
719,3.356436323197039
720,16.11426176106408
619,2630.8489743077175
633,819.0958668106853
659,38.38016295556996
661,74.17171316259797
690,86.15683524700326
716,0.0
843,1865.915719891782
844,1865.915719891782
907,0.0
908,0.0
971,0.0
972,0.0
1195,0.0
1197,0.0
2,2, 1,28, 0,20, 0.00,60.00,Tuesday
7,-2.0
718,19.3918359191683
719,2.6013224774775603
720,16.07688797961777
619,4010.026856189154
633,1248.3339404912233
659,71.40022298338118
661,0.0
690,137.71698847315605
716,85.44000000000005
843,1776.5922107414735
844,1776.5922107414735
907,0.0
908,0.0
971,0.0
972,0.0
1195,197.3262254316155
1197,197.3262254316155
2,2, 1,28, 0,21, 0.00,60.00,Tuesday
7,-4.4
718,19.556884763840827
719,-1.2692018357440067
720,16.00827466444868
619,4040.3783574579315
633,1326.4192076268162
659,0.06695528173700152
661,0.0
690,137.71698847315605
716,85.44000000000005
843,3412.546080525897
844,3412.546080525897
907,0.0
908,0.0
971,0.0
972,0.0
1195,2194.914587577256
1197,2194.914587577256
2,2, 1,28, 0,22, 0.00,60.00,Tuesday
7,-6.1
718,19.646257894945823
719,-2.549731882508533
720,15.950203256514818
619,3842.431607478371
633,1311.5966479084452
659,0.06695528173700152
661,0.0
690,137.71698847315605
716,44.14171365055218
843,3414.746020221941
844,3414.746020221941
907,0.0
908,0.0
971,0.0
972,0.0
1195,1852.9017744511175
1197,1852.9017744511175
2,2, 1,28, 0,23, 0.00,60.00,Tuesday
7,-6.7
718,18.929720343716532
719,-3.7276152478985476
720,15.86788911175406
619,3773.2509593315262
633,1307.028608191734
659,0.06695528173700152
661,0.0
690,137.71698847315605
716,0.0
843,3536.1438016107204
844,3536.1438016107204
907,0.0
908,0.0
971,0.0
972,0.0
1195,1529.4634778666875
1197,1529.4634778666875
2,2, 1,28, 0,24, 0.00,60.00,Tuesday
7,-6.7
718,18.720807630504513
719,-3.72325375861663
720,15.751345954312136
619,3788.8946832976094
633,1289.0618818472385
659,0.06695528173700152
661,0.0
690,137.71698847315605
716,0.0
843,3035.738068171435
844,3035.738068171435
907,0.0
908,0.0
971,0.0
972,0.0
1195,918.9907364229543
1197,918.9907364229543
2,3, 1,29, 0, 1, 0.00,60.00,Wednesday
7,-7.8
718,18.643711567398412
719,-4.190307501653657
720,15.638124723889243
619,3630.4269190342393
633,1257.4702734207196
659,10.9591646124018
661,0.0
690,137.71698847315605
716,0.0
843,3107.2789069632818
844,3107.2789069632818
907,0.0
908,0.0
971,0.0
972,0.0
1195,1140.8951994182066
1197,1140.8951994182066
2,3, 1,29, 0, 2, 0.00,60.00,Wednesday
7,-7.8
718,18.617592440365346
719,-4.366277538337888
720,15.525870595221269
619,3632.1915734910867
633,1255.4654224046358
659,10.9591646124018
661,0.0
690,137.71698847315605
716,0.0
843,3482.9689535042253
844,3482.9689535042253
907,0.0
908,0.0
971,0.0
972,0.0
1195,1616.227530567062
1197,1616.227530567062
2,3, 1,29, 0, 3, 0.00,60.00,Wednesday
7,-8.3
718,18.60400321799103
719,-5.089384312122271
720,15.40183115694036
619,3619.602891115965
633,1263.5127480335127
659,0.06695528173700152
661,0.0
690,137.71698847315605
716,0.0
843,4541.545384224692
844,4541.545384224692
907,0.0
908,0.0
971,0.0
972,0.0
1195,2905.6011534994013
1197,2905.6011534994013
2,3, 1,29, 0, 4, 0.00,60.00,Wednesday
7,-8.9
718,18.601489156299266
719,-5.7913937799813064
720,15.279166605170973
619,3555.108914888158
633,1256.4703779698775
659,0.06695528173700152
661,0.0
690,137.71698847315605
716,0.0
843,5183.631475889322
844,5183.631475889322
907,0.0
908,0.0
971,0.0
972,0.0
1195,3803.9490621028704
1197,3803.9490621028704
2,3, 1,29, 0, 5, 0.00,60.00,Wednesday
7,-10.0
718,18.59604234395135
719,-6.829363234475626
720,15.148081953638927
619,3437.989471633449
633,1244.1625740834754
659,0.06695528173700152
661,0.0
690,137.71698847315605
716,0.0
843,5770.903311797705
844,5770.903311797705
907,0.0
908,0.0
971,0.0
972,0.0
1195,4659.352867263359
1197,4659.352867263359
2,3, 1,29, 0, 6, 0.00,60.00,Wednesday
7,-10.6
718,19.27325337362231
719,-7.569026344830386
720,15.021571026795428
619,3375.205061107188
633,1237.2173096359036
659,0.06695528173700152
661,0.0
690,137.71698847315605
716,75.2944878117911
843,6214.18542467234
844,6214.18542467234
907,0.0
908,0.0
971,0.0
972,0.0
1195,6241.525675778972
1197,6241.525675778972
2,3, 1,29, 0, 7, 0.00,60.00,Wednesday
7,-11.1
718,19.215785210492765
719,-7.90294725152783
720,14.921915382986324
619,3309.064412446136
633,1246.9631142690484
659,0.06695528173700152
661,0.0
690,137.71698847315605
716,85.44000000000005
843,6725.945935667773
844,6725.945935667773
907,0.0
908,0.0
971,0.0
972,0.0
1195,6547.991277941252
1197,6547.991277941252
2,3, 1,29, 0, 8, 0.00,60.00,Wednesday
7,-11.1
718,19.51810197982214
719,-7.889332363786414
720,14.790816546104855
619,3310.4014959679243
633,1245.5126730561103
659,0.06695528173700152
661,0.0
690,137.71698847315605
716,74.94733054460232
843,6147.702227846043
844,6147.702227846043
907,0.0
908,0.0
971,0.0
972,0.0
1195,6483.901265486958
1197,6483.901265486958
2,3, 1,29, 0, 9, 0.00,60.00,Wednesday
7,-10.0
718,19.660197821813284
719,-6.2140651947709715
720,14.706453170027844
619,3419.088908608448
633,1265.0300874417583
659,0.06695528173700152
661,0.0
690,137.71698847315605
716,0.0
843,4868.822424328464
844,4868.822424328464
907,0.0
908,0.0
971,0.0
972,0.0
1195,3794.2137470706252
1197,3794.2137470706252
2,3, 1,29, 0,10, 0.00,60.00,Wednesday
7,-8.9
718,19.70647784602008
719,-4.831771184921116
720,14.614652755674813
619,3533.368704170965
633,1280.8270464639988
659,0.06695528173700152
661,0.0
690,137.71698847315605
716,0.0
843,4086.757186499528
844,4086.757186499528
907,0.0
908,0.0
971,0.0
972,0.0
1195,2677.436248713858
1197,2677.436248713858
2,3, 1,29, 0,11, 0.00,60.00,Wednesday
7,-7.8
718,19.71383566714349
719,-2.8212577342680536
720,14.554507400476188
619,3651.918943590111
633,1294.2723011451694
659,0.06695528173700152
661,0.0
690,137.71698847315605
716,0.0
843,3585.740984517708
844,3585.740984517708
907,0.0
908,0.0
971,0.0
972,0.0
1195,1875.3731082624731
1197,1875.3731082624731
2,3, 1,29, 0,12, 0.00,60.00,Wednesday
7,-8.3
718,19.719236548587965
719,-3.1219709284434036
720,14.501259944637832
619,3597.302149773564
633,1288.682296961345
659,0.06695528173700152
661,0.0
690,137.71698847315605
716,0.0
843,3664.7382927242725
844,3664.7382927242725
907,0.0
908,0.0
971,0.0
972,0.0
1195,1928.797606522683
1197,1928.797606522683
2,3, 1,29, 0,13, 0.00,60.00,Wednesday
7,-6.7
718,19.71297692232804
719,-2.2377081574909994
720,14.486004750862174
619,3773.554315075575
633,1306.680295801456
659,0.06695528173700152
661,0.0
690,137.71698847315605
716,0.0
843,4335.180842848073
844,4335.180842848073
907,0.0
908,0.0
971,0.0
972,0.0
1195,2584.1050883656435
1197,2584.1050883656435
2,3, 1,29, 0,14, 0.00,60.00,Wednesday
7,-6.7
718,19.719592169096035
719,-2.2491261621321965
720,14.47453773495021
619,3773.710205387841
633,1306.5013011108554
659,0.06695528173700152
661,0.0
690,137.71698847315605
716,0.0
843,4027.4011053505874
844,4027.4011053505874
907,0.0
908,0.0
971,0.0
972,0.0
1195,2174.9631256947787
1197,2174.9631256947787
2,3, 1,29, 0,15, 0.00,60.00,Wednesday
7,-6.7
718,19.720203640476466
719,-1.3468885557820778
720,14.48911462732457
619,3773.4842536734213
633,1306.7607405554397
659,0.06695528173700152
661,0.0
690,137.71698847315605
716,76.32056440412939
843,2272.737947848622
844,2272.737947848622
907,0.0
908,0.0
971,0.0
972,0.0
1195,986.044699140909
1197,986.044699140909
2,3, 1,29, 0,16, 0.00,60.00,Wednesday
7,-7.2
718,19.699650970802722
719,-3.1435999009103903
720,14.482805629969159
619,3717.9651843071197
633,1301.0740676294286
659,0.06695528173700152
661,0.0
690,137.71698847315605
716,85.44000000000005
843,3811.36152518828
844,3811.36152518828
907,0.0
908,0.0
971,0.0
972,0.0
1195,3001.20039088921
1197,3001.20039088921
2,3, 1,29, 0,17, 0.00,60.00,Wednesday
7,-8.3
718,19.717461819556533
719,-4.105547844342777
720,14.50122748832269
619,3597.666311429644
633,1288.2718237298134
659,0.06695528173700152
661,0.0
690,137.71698847315605
716,9.125358779014821
843,2529.599103293698
844,2529.599103293698
907,0.0
908,0.0
971,0.0
972,0.0
1195,691.5336272772506
1197,691.5336272772506
2,3, 1,29, 0,18, 0.00,60.00,Wednesday
7,-9.4
718,19.716287680236082
719,-5.363252462496351
720,14.498763385576702
619,3478.8135930130616
633,1276.2454882908296
659,0.06695528173700152
661,0.0
690,137.71698847315605
716,0.0
843,3003.734609769912
844,3003.734609769912
907,0.0
908,0.0
971,0.0
972,0.0
1195,1314.307627260663
1197,1314.307627260663
2,3, 1,29, 0,19, 0.00,60.00,Wednesday
7,-9.4
718,19.708993861239517
719,-6.086411519648238
720,14.476560841277278
619,3478.8718455977246
633,1276.1807932898532
659,0.06695528173700152
661,0.0
690,137.71698847315605
716,0.0
843,3962.8990155691326
844,3962.8990155691326
907,0.0
908,0.0
971,0.0
972,0.0
1195,2534.6649978050355
1197,2534.6649978050355
2,3, 1,29, 0,20, 0.00,60.00,Wednesday
7,-9.4
718,19.69095927392658
719,-6.133270368617229
720,14.432766265443291
619,3479.056286552038
633,1275.9759493157999
659,0.06695528173700152
661,0.0
690,137.71698847315605
716,85.44000000000005
843,4224.226606902579
844,4224.226606902579
907,0.0
908,0.0
971,0.0
972,0.0
1195,4080.7998721541817
1197,4080.7998721541817
2,3, 1,29, 0,21, 0.00,60.00,Wednesday
7,-10.6
718,19.709339666744746
719,-6.220734586042741
720,14.369619994569561
619,3352.793768842556
633,1261.7337839794113
659,0.06695528173700152
661,0.0
690,137.71698847315605
716,85.44000000000005
843,2802.675964608721
844,2802.675964608721
907,0.0
908,0.0
971,0.0
972,0.0
1195,2466.5958076320435
1197,2466.5958076320435
2,3, 1,29, 0,22, 0.00,60.00,Wednesday
7,-10.6
718,19.70360650656403
719,-7.162922860355577
720,14.284104635679011
619,3352.528563323898
633,1262.0230721109729
659,0.06695528173700152
661,0.0
690,137.71698847315605
716,37.01938320424479
843,4279.9670743506085
844,4279.9670743506085
907,0.0
908,0.0
971,0.0
972,0.0
1195,3558.996329614657
1197,3558.996329614657
2,3, 1,29, 0,23, 0.00,60.00,Wednesday
7,-11.1
718,18.940959195836356
719,-7.75662498600528
720,14.192432615998248
619,3300.775204252644
633,1255.9427484687467
659,0.06695528173700152
661,0.0
690,137.71698847315605
716,0.0
843,3296.6801015767614
844,3296.6801015767614
907,0.0
908,0.0
971,0.0
972,0.0
1195,2011.0872473984646
1197,2011.0872473984646
2,3, 1,29, 0,24, 0.00,60.00,Wednesday
7,-11.1
718,18.705573557845593
719,-8.156521604903205
720,14.053762059520679
619,3317.0590208535295
633,1238.2827635707263
659,0.06695528173700152
661,0.0
690,137.71698847315605
716,0.0
843,4315.081475046492
844,4315.081475046492
907,0.0
908,0.0
971,0.0
972,0.0
1195,3204.836501482744
1197,3204.836501482744
2,4, 1,30, 0, 1, 0.00,60.00,Thursday
7,-11.7
718,18.63115613130126
719,-8.185007939636405
720,13.94493287202182
619,3260.307996438911
633,1225.9911046882603
659,0.06695528173700152
661,0.0
690,137.71698847315605
716,0.0
843,4415.125870310743
844,4415.125870310743
907,0.0
908,0.0
971,0.0
972,0.0
1195,3368.5487910706115
1197,3368.5487910706115
2,4, 1,30, 0, 2, 0.00,60.00,Thursday
7,-11.7
718,18.611168244573328
719,-8.285553582862981
720,13.828664811960056
619,3261.992708411572
633,1224.1743336326049
659,0.06695528173700152
661,0.0
690,137.71698847315605
716,0.0
843,4799.503747131437
844,4799.503747131437
907,0.0
908,0.0
971,0.0
972,0.0
1195,3842.3571358182485
1197,3842.3571358182485
2,4, 1,30, 0, 3, 0.00,60.00,Thursday
7,-12.8
718,18.60098983015525
719,-8.686745318943176
720,13.707774208964887
619,3150.9034782729696
633,1211.0511977106937
659,0.06695528173700152
661,0.0
690,137.71698847315605
716,0.0
843,4963.1457340025845
844,4963.1457340025845
907,0.0
908,0.0
971,0.0
972,0.0
1195,4138.721515972749
1197,4138.721515972749
2,4, 1,30, 0, 4, 0.00,60.00,Thursday
7,-13.3
718,18.603834408532954
719,-8.465398720264742
720,13.593934887339381
619,3101.2354044945982
633,1204.9162916775679
659,0.06695528173700152
661,0.0
690,137.71698847315605
716,0.0
843,4936.964785801552
844,4936.964785801552
907,0.0
908,0.0
971,0.0
972,0.0
1195,4199.197478739903
1197,4199.197478739903
2,4, 1,30, 0, 5, 0.00,60.00,Thursday
7,-13.9
718,18.597895410576143
719,-9.416157571858825
720,13.473042493966064
619,3041.9357800741655
633,1197.8056400863948
659,0.06695528173700152
661,0.0
690,137.71698847315605
716,0.0
843,5203.385724119713
844,5203.385724119713
907,0.0
908,0.0
971,0.0
972,0.0
1195,4551.490026807555
1197,4551.490026807555
2,4, 1,30, 0, 6, 0.00,60.00,Thursday
7,-13.9
718,19.39547525426896
719,-8.710618733686482
720,13.360765654562789
619,3042.210764666769
633,1197.520297452338
659,0.06695528173700152
661,0.0
690,137.71698847315605
716,0.0
843,6759.271924089529
844,6759.271924089529
907,0.0
908,0.0
971,0.0
972,0.0
1195,6514.084845703073
1197,6514.084845703073
2,4, 1,30, 0, 7, 0.00,60.00,Thursday
7,-14.4
718,19.364358734997346
719,-8.261782250615912
720,13.28580439355386
619,2976.8617390984973
633,1208.3590356063057
659,0.06695528173700152
661,0.0
690,137.71698847315605
716,85.44000000000005
843,6192.4484263306
844,6192.4484263306
907,0.0
908,0.0
971,0.0
972,0.0
1195,6547.991277941252
1197,6547.991277941252
2,4, 1,30, 0, 8, 0.00,60.00,Thursday
7,-14.4
718,19.569713687177384
719,-7.9440601219487785
720,13.172473634523682
619,2977.599274918518
633,1207.6070285635853
659,0.06695528173700152
661,0.0
690,137.71698847315605
716,85.44000000000005
843,5538.061394991464
844,5538.061394991464
907,0.0
908,0.0
971,0.0
972,0.0
1195,6304.714400687105
1197,6304.714400687105
2,4, 1,30, 0, 9, 0.00,60.00,Thursday
7,-12.2
718,19.65430979028939
719,-5.711717381021174
720,13.103041082203527
619,3192.238421500037
633,1238.4806562944964
659,0.06695528173700152
661,0.0
690,137.71698847315605
716,85.44000000000005
843,4882.5327573936065
844,4882.5327573936065
907,0.0
908,0.0
971,0.0
972,0.0
1195,5170.043556823419
1197,5170.043556823419
2,4, 1,30, 0,10, 0.00,60.00,Thursday
7,-10.6
718,19.710963462330874
719,-2.3541718291271505
720,13.041722247240468
619,3355.223356504179
633,1259.0826285507237
659,0.06695528173700152
661,0.0
690,137.71698847315605
716,15.091340505557207
843,3570.6209953721336
844,3570.6209953721336
907,0.0
908,0.0
971,0.0
972,0.0
1195,2414.6753425323477
1197,2414.6753425323477
2,4, 1,30, 0,11, 0.00,60.00,Thursday
7,-8.3
718,19.718215483506796
719,0.5535722582458249
720,13.009624217101411
619,3599.190619270464
633,1286.5534519229545
659,0.06695528173700152
661,0.0
690,137.71698847315605
716,0.0
843,3040.307137490994
844,3040.307137490994
907,0.0
908,0.0
971,0.0
972,0.0
1195,1180.5668390227715
1197,1180.5668390227715
2,4, 1,30, 0,12, 0.00,60.00,Thursday
7,-7.2
718,19.7490395159441
719,4.930070524564963
720,12.994887892382996
619,3451.7220736984864
633,1215.2332242781806
659,0.06262981135385678
661,12.920475490298333
690,128.81795502164894
716,0.0
843,2116.911485350196
844,2116.911485350196
907,0.0
908,0.0
971,0.0
972,0.0
1195,0.0
1197,0.0
2,4, 1,30, 0,13, 0.00,60.00,Thursday
7,-6.7
718,19.80365973378988
719,7.108126028276462
720,12.975152278313868
619,2597.1221969465505
633,930.3994901734669
659,0.04770899269587911
661,57.48998000403105
690,98.12866786823598
716,0.0
843,1738.1279303780775
844,1738.1279303780775
907,0.0
908,0.0