Program Version,EnergyPlus, Version 22.2.0-c249759bad, YMD=2023.08.31 13:13
1,5,Environment Title[],Latitude[deg],Longitude[deg],Time Zone[],Elevation[m]
2,8,Day of Simulation[],Month[],Day of Month[],DST Indicator[1=yes 0=no],Hour[],StartMinute[],EndMinute[],DayType
3,5,Cumulative Day of Simulation[],Month[],Day of Month[],DST Indicator[1=yes 0=no],DayType  ! When Daily Report Variables Requested
4,2,Cumulative Days of Simulation[],Month[]  ! When Monthly Report Variables Requested
5,1,Cumulative Days of Simulation[] ! When Run Period Report Variables Requested
6,1,Calendar Year of Simulation[] ! When Annual Report Variables Requested
581,11,LIVING,AFN Zone Infiltration Air Change Rate [ach] !RunPeriod [Value,Min,Month,Day,Hour,Minute,Max,Month,Day,Hour,Minute]
582,11,ATTIC,AFN Zone Infiltration Air Change Rate [ach] !RunPeriod [Value,Min,Month,Day,Hour,Minute,Max,Month,Day,Hour,Minute]
583,11,CRAWLSPACE,AFN Zone Infiltration Air Change Rate [ach] !RunPeriod [Value,Min,Month,Day,Hour,Minute,Max,Month,Day,Hour,Minute]
1038,11,Facility,Facility Heating Setpoint Not Met Time [hr] !RunPeriod [Value,Min,Month,Day,Hour,Minute,Max,Month,Day,Hour,Minute]
1039,11,Facility,Facility Cooling Setpoint Not Met Time [hr] !RunPeriod [Value,Min,Month,Day,Hour,Minute,Max,Month,Day,Hour,Minute]
1115,11,DX_HEATING_COIL,Heating Coil Heating Energy [J] !RunPeriod [Value,Min,Month,Day,Hour,Minute,Max,Month,Day,Hour,Minute]
1128,11,DX_HEATING_COIL,Heating Coil Electricity Energy [J] !RunPeriod [Value,Min,Month,Day,Hour,Minute,Max,Month,Day,Hour,Minute]
1153,11,DX_HEATING_COIL,Heating Coil Defrost Electricity Energy [J] !RunPeriod [Value,Min,Month,Day,Hour,Minute,Max,Month,Day,Hour,Minute]
1154,11,DX_HEATING_COIL,Heating Coil Crankcase Heater Electricity Energy [J] !RunPeriod [Value,Min,Month,Day,Hour,Minute,Max,Month,Day,Hour,Minute]
1155,11,HEATING_RESISTANCE_BACKUP,Heating Coil Heating Energy [J] !RunPeriod [Value,Min,Month,Day,Hour,Minute,Max,Month,Day,Hour,Minute]
1156,11,HEATING_RESISTANCE_BACKUP,Heating Coil Electricity Energy [J] !RunPeriod [Value,Min,Month,Day,Hour,Minute,Max,Month,Day,Hour,Minute]
1305,11,WATER HEATER,Water Heater Heating Energy [J] !RunPeriod [Value,Min,Month,Day,Hour,Minute,Max,Month,Day,Hour,Minute]
13,11,Electricity:Facility [J] !RunPeriod [Value,Min,Month,Day,Hour,Minute,Max,Month,Day,Hour,Minute]
1134,11,Heating:Electricity [J] !RunPeriod [Value,Min,Month,Day,Hour,Minute,Max,Month,Day,Hour,Minute]
1096,11,Cooling:Electricity [J] !RunPeriod [Value,Min,Month,Day,Hour,Minute,Max,Month,Day,Hour,Minute]
562,11,Fans:Electricity [J] !RunPeriod [Value,Min,Month,Day,Hour,Minute,Max,Month,Day,Hour,Minute]
1353,11,Pumps:Electricity [J] !RunPeriod [Value,Min,Month,Day,Hour,Minute,Max,Month,Day,Hour,Minute]
1324,11,WaterSystems:Electricity [J] !RunPeriod [Value,Min,Month,Day,Hour,Minute,Max,Month,Day,Hour,Minute]
61,11,InteriorLights:Electricity [J] !RunPeriod [Value,Min,Month,Day,Hour,Minute,Max,Month,Day,Hour,Minute]
1046,11,ExteriorLights:Electricity [J] !RunPeriod [Value,Min,Month,Day,Hour,Minute,Max,Month,Day,Hour,Minute]
134,11,InteriorEquipment:Electricity [J] !RunPeriod [Value,Min,Month,Day,Hour,Minute,Max,Month,Day,Hour,Minute]
170,11,gas_dryer:InteriorEquipment:Electricity [J] !RunPeriod [Value,Min,Month,Day,Hour,Minute,Max,Month,Day,Hour,Minute]
207,11,clotheswasher:InteriorEquipment:Electricity [J] !RunPeriod [Value,Min,Month,Day,Hour,Minute,Max,Month,Day,Hour,Minute]
244,11,dishwasher:InteriorEquipment:Electricity [J] !RunPeriod [Value,Min,Month,Day,Hour,Minute,Max,Month,Day,Hour,Minute]
281,11,refrigerator:InteriorEquipment:Electricity [J] !RunPeriod [Value,Min,Month,Day,Hour,Minute,Max,Month,Day,Hour,Minute]
318,11,electric_mels:InteriorEquipment:Electricity [J] !RunPeriod [Value,Min,Month,Day,Hour,Minute,Max,Month,Day,Hour,Minute]
355,11,NaturalGas:Facility [J] !RunPeriod [Value,Min,Month,Day,Hour,Minute,Max,Month,Day,Hour,Minute]
403,11,InteriorEquipment:NaturalGas [J] !RunPeriod [Value,Min,Month,Day,Hour,Minute,Max,Month,Day,Hour,Minute]
476,11,gas_dryer:InteriorEquipment:NaturalGas [J] !RunPeriod [Value,Min,Month,Day,Hour,Minute,Max,Month,Day,Hour,Minute]
513,11,gas_mels:InteriorEquipment:NaturalGas [J] !RunPeriod [Value,Min,Month,Day,Hour,Minute,Max,Month,Day,Hour,Minute]
End of Data Dictionary
1,EXTREME_WINTER,  41.78, -87.75,  -6.00, 190.00
5,7
1038,6.5,0.0, 1,20, 1,15,0.25, 1,20, 6,15
1039,0.0,0.0, 1,20, 1,15,0.0, 1,20, 1,15
581,0.3587535030054457,0.24438774459546808, 1,26,23,30,0.578614015351078, 1,26,15,60
582,5.154256843034567,0.05572697234456497, 1,21, 5,52,13.357584414416356, 1,26,15,52
583,5.996863465459731,0.6670026041980623, 1,21, 5,52,15.823802631704265, 1,26,15,52
1115,2319387889.1985297,0.0, 1,20,23, 5,4561087.808845298, 1,26,16,15
1128,826387358.9293807,0.0, 1,20,23, 5,1337989.148244442, 1,26,20,15
1153,11473943.419537053,0.0, 1,20,23, 5,91797.39874223951, 1,22, 5,60
1154,3656989.8115949347,0.0, 1,20, 1, 3,96452.08950162679, 1,21,15,15
1155,1745699062.8931155,0.0, 1,20,23, 5,6877670.453943219, 1,24, 6,15
1156,1745699062.8931155,0.0, 1,20,23, 5,6877670.453943219, 1,24, 6,15
1305,157051902.9709223,0.0, 1,20, 1, 3,4050000.000000001, 1,20, 7,30
13,3208504401.964505,1084111.9399925335, 1,21,15,15,12671247.688062323, 1,20, 6,15
61,301924526.02383536,88139.10953165221, 1,20, 1,15,1282023.4113694867, 1,20,20,15
134,70666020.44019976,63564.01800854099, 1,20, 4,15,156554.22484006523, 1,25,20,15
170,5241013.419656067,348.4159749238097, 1,20, 4,15,17476.39704006126, 1,25,12,15
207,6509451.13922267,815.2532113832032, 1,20, 3,15,22990.642799023623, 1,25,10,15
244,12749673.399825225,1521.856143006317, 1,20, 4,15,53038.631142310165, 1,25,20,15
281,46165882.481495745,59938.60262432081, 1,20, 5,15,81951.81706819107, 1,20,19,15
318,0.0,0.0, 1,20, 1,15,0.0, 1,20, 1,15
355,197687796.27748066,18561.32405820678, 1,20, 4,15,724774.895203776, 1,25,18,15
403,197687796.27748066,18561.32405820678, 1,20, 4,15,724774.895203776, 1,25,18,15
476,106772067.24485716,7098.072629279515, 1,20, 4,15,356036.3026282215, 1,25,12,15
513,0.0,0.0, 1,20, 1,15,0.0, 1,20, 1,15
562,86624757.47591978,54576.85945975125, 1,21,23,15,132986.95473586593, 1,20, 1,15
1046,0.0,0.0, 1,20, 1,15,0.0, 1,20, 1,15
1096,0.0,0.0, 1,20, 1,15,0.0, 1,20, 1,15
1134,2587217355.053629,672149.4164555204, 1,21,23,15,8073378.120177986, 1,25, 8,30
1324,162071742.9709223,7470.0, 1,20, 1,30,4057470.0000000014, 1,21, 7,30
1353,0.0,0.0, 1,20, 1,15,0.0, 1,20, 1,15
1,EXTREME_SUMMER,  41.78, -87.75,  -6.00, 190.00
5,7
1038,0.0,0.0, 7,27, 1,15,0.0, 7,27, 1,15
1039,11.5,0.0, 7,27, 1,15,0.25, 7,28,15,15
581,0.17338262851866496,0.0, 7,27, 1,45,0.9629080318039905, 8, 2,23,48
582,6.120016413958451,0.12299926726517335, 7,27, 1,60,18.932437888160585, 8, 2,23,48
583,6.359397893211637,0.033697889149542415, 7,27, 4,60,23.87033711938769, 8, 2,23,33
1115,0.0,0.0, 7,27, 1,15,0.0, 7,27, 1,15
1128,0.0,0.0, 7,27, 1,15,0.0, 7,27, 1,15
1153,0.0,0.0, 7,27, 1,15,0.0, 7,27, 1,15
1154,0.0,0.0, 7,27, 1,15,0.0, 7,27, 1,15
1155,0.0,0.0, 7,27, 1,15,0.0, 7,27, 1,15
1156,0.0,0.0, 7,27, 1,15,0.0, 7,27, 1,15
1305,119289459.32261364,0.0, 7,27, 1,15,4049999.999999999, 8, 2,15,60
13,1085387118.9170485,171652.8197452812, 8, 1, 4,60,6435762.628592713, 7,28,19,60
61,301924526.02383536,88139.10953165221, 7,27, 1,15,1282023.4113694867, 7,27,20,15
134,70666020.44019976,63564.01800854099, 7,27, 4,15,156554.22484006523, 8, 1,20,15
170,5241013.419656067,348.4159749238097, 7,27, 4,15,17476.39704006126, 8, 1,12,15
207,6509451.13922267,815.2532113832032, 7,27, 3,15,22990.642799023623, 8, 1,10,15
244,12749673.399825225,1521.856143006317, 7,27, 4,15,53038.631142310165, 8, 1,20,15
281,46165882.481495745,59938.60262432081, 7,27, 5,15,81951.81706819107, 7,27,19,15
318,0.0,0.0, 7,27, 1,15,0.0, 7,27, 1,15
355,197687796.27748066,18561.32405820678, 7,27, 4,15,724774.895203776, 8, 1,18,15
403,197687796.27748066,18561.32405820678, 7,27, 4,15,724774.895203776, 8, 1,18,15
476,106772067.24485716,7098.072629279515, 7,27, 4,15,356036.3026282215, 8, 1,12,15
513,0.0,0.0, 7,27, 1,15,0.0, 7,27, 1,15
562,50574784.5264021,1218.8613305598421, 8, 1, 4,60,132986.95473586593, 7,28,14,60
1046,0.0,0.0, 7,27, 1,15,0.0, 7,27, 1,15
1096,537912488.6039976,10892.158216308664, 8, 1, 4,60,1580165.02767807, 8, 2,13,60
1134,0.0,0.0, 7,27, 1,15,0.0, 7,27, 1,15
1324,124309299.32261363,7469.999999999999, 7,28,11,60,4057470.0, 7,27, 7,15
1353,0.0,0.0, 7,27, 1,15,0.0, 7,27, 1,15
1,ANNUAL,  41.78, -87.75,  -6.00, 190.00
5,365
1038,49.5,0.0, 1, 1, 1,15,0.25, 1, 2, 6,15
1039,121.25,0.0, 1, 1, 1,15,0.25, 4, 6,16,15
581,0.26426894029313963,0.0, 5,26, 1,45,1.8057235542058216, 2, 1,21,52
582,5.323440315885309,0.0, 1, 9,21,52,40.59610875986318, 2, 1,21,52
583,6.010842661084087,0.0, 6, 4,23, 3,51.49997200681216, 2, 1,21,52
1115,37288406684.05691,0.0, 1, 2,23, 5,5084307.119178351, 1,28, 6,60
1128,11665502754.205841,0.0, 1, 2,23, 5,1428390.2587875668, 4, 1, 6,45
1153,335713298.01608306,0.0, 1, 2,23, 5,148043.69632446702, 3,29, 3,60
1154,1228094380.5843372,0.0, 1, 1, 1, 1,180000.0, 2,13,15,15
1155,11193024223.854742,0.0, 1, 2,15,37,6877670.453943219, 1,19, 6,15
1156,11193024223.854742,0.0, 1, 2,15,37,6877670.453943219, 1,19, 6,15
1305,7287788317.107801,0.0, 1, 1, 1, 1,4050000.000000002, 1,11, 9,30
13,60460002852.343796,159173.1275401932, 4,10, 4,15,12923928.479823451, 1,24, 7,30
61,15743207428.383959,88139.10953165221, 1, 1, 1,15,1282023.4113694867, 1, 1,20,15
134,3685071073.4325233,63564.01800854099, 1, 2, 4,15,156554.22484006523, 1, 1,20,15
170,273393721.45532674,348.4159749238097, 1, 2, 4,15,17476.39704006126, 1, 1,12,15
207,339560869.0695816,815.2532113832032, 1, 2, 3,15,22990.642799023623, 1, 1,10,15
244,664895467.8009144,1521.856143006317, 1, 2, 4,15,53038.631142310165, 1, 1,20,15
281,2407221015.106824,59938.60262432081, 1, 1, 5,15,81951.81706819107, 1, 1,19,15
318,0.0,0.0, 1, 1, 1,15,0.0, 1, 1, 1,15
355,10310294493.051695,18561.32405820678, 1, 2, 4,15,724774.895203776, 1, 1,18,15
403,10310294493.051695,18561.32405820678, 1, 2, 4,15,724774.895203776, 1, 1,18,15
476,5569688622.066177,7098.072629279515, 1, 2, 4,15,356036.3026282215, 1, 1,12,15
513,0.0,0.0, 1, 1, 1,15,0.0, 1, 1, 1,15
562,1896146223.3260348,0.0, 1, 6,19,15,132986.95473586596, 1, 1, 1,15
1046,0.0,0.0, 1, 1, 1,15,0.0, 1, 1, 1,15
1096,7163706353.430855,0.0, 1, 1, 1,15,1622625.062573616, 6, 7,16,60
1134,24422334656.66097,0.0, 1, 6,19,15,8184715.771265569, 2, 1,20,45
1324,7549537117.107773,7469.999999999999, 1, 1, 1,30,4057470.000000002, 1,11, 9,30
1353,0.0,0.0, 1, 1, 1,15,0.0, 1, 1, 1,15
End of Data
 Number of Records Written=          90
