Program Version,EnergyPlus, Version 22.2.0-c249759bad, YMD=2023.07.07 15:20
1,5,Environment Title[],Latitude[deg],Longitude[deg],Time Zone[],Elevation[m]
2,8,Day of Simulation[],Month[],Day of Month[],DST Indicator[1=yes 0=no],Hour[],StartMinute[],EndMinute[],DayType
3,5,Cumulative Day of Simulation[],Month[],Day of Month[],DST Indicator[1=yes 0=no],DayType  ! When Daily Report Variables Requested
4,2,Cumulative Days of Simulation[],Month[]  ! When Monthly Report Variables Requested
5,1,Cumulative Days of Simulation[] ! When Run Period Report Variables Requested
6,1,Calendar Year of Simulation[] ! When Annual Report Variables Requested
581,11,LIVING,AFN Zone Infiltration Air Change Rate [ach] !RunPeriod [Value,Min,Month,Day,Hour,Minute,Max,Month,Day,Hour,Minute]
582,11,ATTIC,AFN Zone Infiltration Air Change Rate [ach] !RunPeriod [Value,Min,Month,Day,Hour,Minute,Max,Month,Day,Hour,Minute]
583,11,CRAWLSPACE,AFN Zone Infiltration Air Change Rate [ach] !RunPeriod [Value,Min,Month,Day,Hour,Minute,Max,Month,Day,Hour,Minute]
1038,11,Facility,Facility Heating Setpoint Not Met Time [hr] !RunPeriod [Value,Min,Month,Day,Hour,Minute,Max,Month,Day,Hour,Minute]
1039,11,Facility,Facility Cooling Setpoint Not Met Time [hr] !RunPeriod [Value,Min,Month,Day,Hour,Minute,Max,Month,Day,Hour,Minute]
1115,11,DX_HEATING_COIL,Heating Coil Heating Energy [J] !RunPeriod [Value,Min,Month,Day,Hour,Minute,Max,Month,Day,Hour,Minute]
1128,11,DX_HEATING_COIL,Heating Coil Electricity Energy [J] !RunPeriod [Value,Min,Month,Day,Hour,Minute,Max,Month,Day,Hour,Minute]
1153,11,DX_HEATING_COIL,Heating Coil Defrost Electricity Energy [J] !RunPeriod [Value,Min,Month,Day,Hour,Minute,Max,Month,Day,Hour,Minute]
1154,11,DX_HEATING_COIL,Heating Coil Crankcase Heater Electricity Energy [J] !RunPeriod [Value,Min,Month,Day,Hour,Minute,Max,Month,Day,Hour,Minute]
1156,11,HEATING_RESISTANCE_BACKUP,Heating Coil Electricity Energy [J] !RunPeriod [Value,Min,Month,Day,Hour,Minute,Max,Month,Day,Hour,Minute]
13,11,Electricity:Facility [J] !RunPeriod [Value,Min,Month,Day,Hour,Minute,Max,Month,Day,Hour,Minute]
1134,11,Heating:Electricity [J] !RunPeriod [Value,Min,Month,Day,Hour,Minute,Max,Month,Day,Hour,Minute]
1096,11,Cooling:Electricity [J] !RunPeriod [Value,Min,Month,Day,Hour,Minute,Max,Month,Day,Hour,Minute]
562,11,Fans:Electricity [J] !RunPeriod [Value,Min,Month,Day,Hour,Minute,Max,Month,Day,Hour,Minute]
1388,11,Pumps:Electricity [J] !RunPeriod [Value,Min,Month,Day,Hour,Minute,Max,Month,Day,Hour,Minute]
1360,11,WaterSystems:Electricity [J] !RunPeriod [Value,Min,Month,Day,Hour,Minute,Max,Month,Day,Hour,Minute]
61,11,InteriorLights:Electricity [J] !RunPeriod [Value,Min,Month,Day,Hour,Minute,Max,Month,Day,Hour,Minute]
1046,11,ExteriorLights:Electricity [J] !RunPeriod [Value,Min,Month,Day,Hour,Minute,Max,Month,Day,Hour,Minute]
134,11,InteriorEquipment:Electricity [J] !RunPeriod [Value,Min,Month,Day,Hour,Minute,Max,Month,Day,Hour,Minute]
170,11,gas_dryer:InteriorEquipment:Electricity [J] !RunPeriod [Value,Min,Month,Day,Hour,Minute,Max,Month,Day,Hour,Minute]
207,11,clotheswasher:InteriorEquipment:Electricity [J] !RunPeriod [Value,Min,Month,Day,Hour,Minute,Max,Month,Day,Hour,Minute]
244,11,dishwasher:InteriorEquipment:Electricity [J] !RunPeriod [Value,Min,Month,Day,Hour,Minute,Max,Month,Day,Hour,Minute]
281,11,refrigerator:InteriorEquipment:Electricity [J] !RunPeriod [Value,Min,Month,Day,Hour,Minute,Max,Month,Day,Hour,Minute]
318,11,electric_mels:InteriorEquipment:Electricity [J] !RunPeriod [Value,Min,Month,Day,Hour,Minute,Max,Month,Day,Hour,Minute]
355,11,NaturalGas:Facility [J] !RunPeriod [Value,Min,Month,Day,Hour,Minute,Max,Month,Day,Hour,Minute]
1323,11,WaterSystems:NaturalGas [J] !RunPeriod [Value,Min,Month,Day,Hour,Minute,Max,Month,Day,Hour,Minute]
403,11,InteriorEquipment:NaturalGas [J] !RunPeriod [Value,Min,Month,Day,Hour,Minute,Max,Month,Day,Hour,Minute]
476,11,gas_dryer:InteriorEquipment:NaturalGas [J] !RunPeriod [Value,Min,Month,Day,Hour,Minute,Max,Month,Day,Hour,Minute]
513,11,gas_mels:InteriorEquipment:NaturalGas [J] !RunPeriod [Value,Min,Month,Day,Hour,Minute,Max,Month,Day,Hour,Minute]
End of Data Dictionary
1,EXTREME_WINTER,  32.90, -80.03,  -5.00,  14.30
5,7
1038,0.3333333333333333,0.0, 1, 6, 1,10,0.16666666666666666, 1, 8, 6,10
1039,0.0,0.0, 1, 6, 1,10,0.0, 1, 6, 1,10
581,0.2677716223651744,0.09006654668355016, 1,12, 6,60,0.7526244943586965, 1, 7,23,10
582,4.166246948309762,0.0, 1, 6, 1,55,12.605349978188425, 1, 7,23,15
583,4.890993639181285,0.00014769848305604033, 1, 6, 4,40,15.653341334535977, 1, 7,22,55
1115,475324849.47921723,0.0, 1, 6, 1,10,3238349.694484922, 1, 8, 4,20
1128,149149591.19000927,0.0, 1, 6, 1,10,1011708.320523409, 1, 8, 6,20
1153,1137126.4421315573,0.0, 1, 6, 1,10,24236.1641094701, 1, 6, 7,10
1154,63511337.953445695,0.0, 1, 6, 6, 2,120000.0, 1, 6, 1,10
1156,32651878.46749371,0.0, 1, 6, 1,10,1579084.7873607092, 1, 8, 8,30
13,652155464.1159103,106361.20013227512, 1,12, 4,10,3450325.3014816213, 1, 8, 6,10
61,301924526.0238348,58759.40635443481, 1, 6, 1,10,854682.2742463244, 1, 6,20,10
134,70666020.44019979,42376.01200569399, 1, 6, 4,10,104369.48322671017, 1,11,20,10
170,5241013.419656074,232.27731661587313, 1, 6, 4,10,11650.931360040839, 1,11,12,10
207,6509451.13922266,543.5021409221355, 1, 6, 3,10,15327.095199349082, 1,11,10,10
244,12749673.39982522,1014.5707620042115, 1, 6, 4,10,35359.08742820678, 1,11,20,10
281,46165882.48149605,39959.06841621388, 1, 6, 5,10,54634.54471212738, 1, 6,19,10
318,0.0,0.0, 1, 6, 1,10,0.0, 1, 6, 1,10
355,736452844.8039945,12374.216038804521, 1, 6, 4,10,3829218.154066982, 1, 7,18,60
403,197687796.27748126,12374.216038804521, 1, 6, 4,10,483183.26346918393, 1,11,18,10
476,106772067.24485692,4732.048419519677, 1, 6, 4,10,237357.535085481, 1,11,12,10
513,0.0,0.0, 1, 6, 1,10,0.0, 1, 6, 1,10
562,15513127.39378912,0.0, 1, 6, 1,10,97014.6952495926, 1, 8, 4,20
1046,0.0,0.0, 1, 6, 1,10,0.0, 1, 6, 1,10
1096,12582016.205007775,0.0, 1, 6, 1,10,275186.1677632854, 1, 6,16,20
1134,246449934.05308026,0.0, 1, 6,10,40,2935751.283221376, 1, 8, 6,10
1323,538765048.5265101,0.0, 1, 6, 1,10,3375000.000000001, 1, 6,21,60
1360,5019840.0,4980.0, 1, 6, 1,10,4980.000000000001, 1, 6, 1,30
1388,0.0,0.0, 1, 6, 1,10,0.0, 1, 6, 1,10
1,EXTREME_SUMMER,  32.90, -80.03,  -5.00,  14.30
5,7
1038,0.0,0.0, 7,20, 1,10,0.0, 7,20, 1,10
1039,39.83333333333333,0.0, 7,20, 1,10,0.16666666666666666, 7,20,15,10
581,0.13350651927556778,0.0, 7,20,10,11,0.4751299406176536, 7,25,19,54
582,3.958948837259261,0.07011123712881835, 7,26, 6,60,9.873715268676019, 7,25,19,54
583,5.0453436300427965,0.2932534506523594, 7,26, 6,60,14.273292060455134, 7,25,19,54
1115,0.0,0.0, 7,20, 1,10,0.0, 7,20, 1,10
1128,0.0,0.0, 7,20, 1,10,0.0, 7,20, 1,10
1153,0.0,0.0, 7,20, 1,10,0.0, 7,20, 1,10
1154,0.0,0.0, 7,20, 1,10,0.0, 7,20, 1,10
1156,0.0,0.0, 7,20, 1,10,0.0, 7,20, 1,10
13,1143369369.8637636,317134.8949699267, 7,20, 4,60,2147147.5880317036, 7,22,20,10
61,301924526.0238348,58759.40635443481, 7,20, 1,10,854682.2742463244, 7,20,20,10
134,70666020.44019979,42376.01200569399, 7,20, 4,10,104369.48322671017, 7,25,20,10
170,5241013.419656074,232.27731661587313, 7,20, 4,10,11650.931360040839, 7,25,12,10
207,6509451.13922266,543.5021409221355, 7,20, 3,10,15327.095199349082, 7,25,10,10
244,12749673.39982522,1014.5707620042115, 7,20, 4,10,35359.08742820678, 7,25,20,10
281,46165882.48149605,39959.06841621388, 7,20, 5,10,54634.54471212738, 7,20,19,10
318,0.0,0.0, 7,20, 1,10,0.0, 7,20, 1,10
355,637259633.4230015,12374.216038804521, 7,20, 4,10,3829218.154066982, 7,21,18,60
403,197687796.27748126,12374.216038804521, 7,20, 4,10,483183.26346918393, 7,25,18,10
476,106772067.24485692,4732.048419519677, 7,20, 4,10,237357.535085481, 7,25,12,10
513,0.0,0.0, 7,20, 1,10,0.0, 7,20, 1,10
562,62969477.29825653,4129.219555558255, 7,26,23,10,97014.69524959261, 7,24,16,50
1046,0.0,0.0, 7,20, 1,10,0.0, 7,20, 1,10
1096,702789506.1014736,39924.6958642284, 7,26,23,10,1224003.2402111026, 7,22,14,60
1134,0.0,0.0, 7,20, 1,10,0.0, 7,20, 1,10
1323,439571837.14551866,0.0, 7,20, 1,10,3375000.0000000005, 7,25,22,10
1360,5019840.0,4979.999999999999, 7,26,10,60,4980.000000000001, 7,20, 8,10
1388,0.0,0.0, 7,20, 1,10,0.0, 7,20, 1,10
1,ANNUAL,  32.90, -80.03,  -5.00,  14.30
5,365
1038,1.5,0.0, 1, 1, 1,10,0.16666666666666666, 1, 8, 6,10
1039,440.6666666666669,0.0, 1, 1, 1,10,0.16666666666666666, 1, 6,13,20
581,0.16853067301307487,0.0, 4, 3,18,35,0.7977883127138481, 3,28,14,60
582,3.4656320163038266,0.0, 1, 1, 1,10,19.624008349992465, 3,29,16,55
583,4.1326953572216985,0.0, 4, 5,23, 3,21.588542083491706, 3,28,14,60
1115,3148621910.225661,0.0, 1, 1, 1,10,3407735.995878147, 3, 3, 6,30
1128,952549704.6909728,0.0, 1, 1, 1,10,1044349.4083161443, 3, 3, 6,30
1153,45975123.91865668,0.0, 1, 1, 1,10,74581.90224460176, 2,13, 6,30
1154,873246191.301659,0.0, 1, 1, 6, 2,120000.0, 1, 1, 1,10
1156,45697134.20219382,0.0, 1, 1, 1,10,1608116.1970242609, 1, 8, 8,30
13,40423388948.24054,106115.4183601288, 1, 2, 4,10,3479463.7412298676, 1, 8, 6,10
61,15743207428.39043,58759.40635443481, 1, 1, 1,10,854682.2742463244, 1, 1,20,10
134,3685071073.433083,42376.01200569399, 1, 2, 4,10,104369.48322671017, 1, 1,20,10
170,273393721.45534325,232.27731661587313, 1, 2, 4,10,11650.931360040839, 1, 1,12,10
207,339560869.06955314,543.5021409221355, 1, 2, 3,10,15327.095199349082, 1, 1,10,10
244,664895467.8009839,1014.5707620042115, 1, 2, 4,10,35359.08742820678, 1, 1,20,10
281,2407221015.1057043,39959.06841621388, 1, 1, 5,10,54634.54471212738, 1, 1,19,10
318,0.0,0.0, 1, 1, 1,10,0.0, 1, 1, 1,10
355,35636401384.83153,12374.216038804521, 1, 2, 4,10,3829218.154066983, 8,15,18,60
403,10310294493.052883,12374.216038804521, 1, 2, 4,10,483183.26346918393, 1, 1,18,10
476,5569688622.065564,4732.048419519677, 1, 2, 4,10,237357.535085481, 1, 1,12,10
513,0.0,0.0, 1, 1, 1,10,0.0, 1, 1, 1,10
562,1767361629.6803255,0.0, 1, 1, 1,10,97014.69524959261, 5,24,15,40
1046,0.0,0.0, 1, 1, 1,10,0.0, 1, 1, 1,10
1096,17048531862.628918,0.0, 1, 1, 1,10,1237157.572731255, 7,13,15,60
1134,1917468154.1134849,0.0, 1, 1,12,20,2964151.726603901, 1, 8, 6,10
1323,25326106891.782635,0.0, 1, 1, 1,10,3375000.000000002, 3,13, 8,40
1360,261748800.0,4979.999999999998, 3,21,18,50,4980.000000000002, 1,25,21,50
1388,0.0,0.0, 1, 1, 1,10,0.0, 1, 1, 1,10
End of Data
 Number of Records Written=          87
