Program Version,EnergyPlus, Version 22.2.0-c249759bad, YMD=2023.07.07 15:08
1,5,Environment Title[],Latitude[deg],Longitude[deg],Time Zone[],Elevation[m]
2,8,Day of Simulation[],Month[],Day of Month[],DST Indicator[1=yes 0=no],Hour[],StartMinute[],EndMinute[],DayType
3,5,Cumulative Day of Simulation[],Month[],Day of Month[],DST Indicator[1=yes 0=no],DayType  ! When Daily Report Variables Requested
4,2,Cumulative Days of Simulation[],Month[]  ! When Monthly Report Variables Requested
5,1,Cumulative Days of Simulation[] ! When Run Period Report Variables Requested
6,1,Calendar Year of Simulation[] ! When Annual Report Variables Requested
581,11,LIVING,AFN Zone Infiltration Air Change Rate [ach] !RunPeriod [Value,Min,Month,Day,Hour,Minute,Max,Month,Day,Hour,Minute]
582,11,ATTIC,AFN Zone Infiltration Air Change Rate [ach] !RunPeriod [Value,Min,Month,Day,Hour,Minute,Max,Month,Day,Hour,Minute]
583,11,CRAWLSPACE,AFN Zone Infiltration Air Change Rate [ach] !RunPeriod [Value,Min,Month,Day,Hour,Minute,Max,Month,Day,Hour,Minute]
1038,11,Facility,Facility Heating Setpoint Not Met Time [hr] !RunPeriod [Value,Min,Month,Day,Hour,Minute,Max,Month,Day,Hour,Minute]
1039,11,Facility,Facility Cooling Setpoint Not Met Time [hr] !RunPeriod [Value,Min,Month,Day,Hour,Minute,Max,Month,Day,Hour,Minute]
1115,11,DX_HEATING_COIL,Heating Coil Heating Energy [J] !RunPeriod [Value,Min,Month,Day,Hour,Minute,Max,Month,Day,Hour,Minute]
1128,11,DX_HEATING_COIL,Heating Coil Electricity Energy [J] !RunPeriod [Value,Min,Month,Day,Hour,Minute,Max,Month,Day,Hour,Minute]
1153,11,DX_HEATING_COIL,Heating Coil Defrost Electricity Energy [J] !RunPeriod [Value,Min,Month,Day,Hour,Minute,Max,Month,Day,Hour,Minute]
1154,11,DX_HEATING_COIL,Heating Coil Crankcase Heater Electricity Energy [J] !RunPeriod [Value,Min,Month,Day,Hour,Minute,Max,Month,Day,Hour,Minute]
1156,11,HEATING_RESISTANCE_BACKUP,Heating Coil Electricity Energy [J] !RunPeriod [Value,Min,Month,Day,Hour,Minute,Max,Month,Day,Hour,Minute]
13,11,Electricity:Facility [J] !RunPeriod [Value,Min,Month,Day,Hour,Minute,Max,Month,Day,Hour,Minute]
1134,11,Heating:Electricity [J] !RunPeriod [Value,Min,Month,Day,Hour,Minute,Max,Month,Day,Hour,Minute]
1096,11,Cooling:Electricity [J] !RunPeriod [Value,Min,Month,Day,Hour,Minute,Max,Month,Day,Hour,Minute]
562,11,Fans:Electricity [J] !RunPeriod [Value,Min,Month,Day,Hour,Minute,Max,Month,Day,Hour,Minute]
1388,11,Pumps:Electricity [J] !RunPeriod [Value,Min,Month,Day,Hour,Minute,Max,Month,Day,Hour,Minute]
1360,11,WaterSystems:Electricity [J] !RunPeriod [Value,Min,Month,Day,Hour,Minute,Max,Month,Day,Hour,Minute]
61,11,InteriorLights:Electricity [J] !RunPeriod [Value,Min,Month,Day,Hour,Minute,Max,Month,Day,Hour,Minute]
1046,11,ExteriorLights:Electricity [J] !RunPeriod [Value,Min,Month,Day,Hour,Minute,Max,Month,Day,Hour,Minute]
134,11,InteriorEquipment:Electricity [J] !RunPeriod [Value,Min,Month,Day,Hour,Minute,Max,Month,Day,Hour,Minute]
170,11,gas_dryer:InteriorEquipment:Electricity [J] !RunPeriod [Value,Min,Month,Day,Hour,Minute,Max,Month,Day,Hour,Minute]
207,11,clotheswasher:InteriorEquipment:Electricity [J] !RunPeriod [Value,Min,Month,Day,Hour,Minute,Max,Month,Day,Hour,Minute]
244,11,dishwasher:InteriorEquipment:Electricity [J] !RunPeriod [Value,Min,Month,Day,Hour,Minute,Max,Month,Day,Hour,Minute]
281,11,refrigerator:InteriorEquipment:Electricity [J] !RunPeriod [Value,Min,Month,Day,Hour,Minute,Max,Month,Day,Hour,Minute]
318,11,electric_mels:InteriorEquipment:Electricity [J] !RunPeriod [Value,Min,Month,Day,Hour,Minute,Max,Month,Day,Hour,Minute]
355,11,NaturalGas:Facility [J] !RunPeriod [Value,Min,Month,Day,Hour,Minute,Max,Month,Day,Hour,Minute]
1323,11,WaterSystems:NaturalGas [J] !RunPeriod [Value,Min,Month,Day,Hour,Minute,Max,Month,Day,Hour,Minute]
403,11,InteriorEquipment:NaturalGas [J] !RunPeriod [Value,Min,Month,Day,Hour,Minute,Max,Month,Day,Hour,Minute]
476,11,gas_dryer:InteriorEquipment:NaturalGas [J] !RunPeriod [Value,Min,Month,Day,Hour,Minute,Max,Month,Day,Hour,Minute]
513,11,gas_mels:InteriorEquipment:NaturalGas [J] !RunPeriod [Value,Min,Month,Day,Hour,Minute,Max,Month,Day,Hour,Minute]
End of Data Dictionary
1,EXTREME_WINTER,  26.59, -81.86,  -5.00,   4.60
5,7
1038,0.16666666666666666,0.0, 1,20, 1,10,0.16666666666666666, 1,24, 6,10
1039,0.0,0.0, 1,20, 1,10,0.0, 1,20, 1,10
581,0.19961331298504936,0.04489738885721193, 1,26, 9,51,0.4377048914972317, 1,23,22,55
582,3.451815098241159,0.0, 1,20, 3,55,9.429805348569364, 1,23, 3,40
583,3.9768169238240563,0.00012383100325366763, 1,21,24,43,12.229645313271597, 1,23,12,60
1115,48868014.487414174,0.0, 1,20, 1,10,1684049.357037097, 1,24, 6,40
1128,14519414.955645895,0.0, 1,20, 1,10,504400.2883577485, 1,24, 6,40
1153,107130.29466214585,0.0, 1,20, 1,10,7184.381006867497, 1,24, 8,30
1154,28179965.791072465,0.0, 1,20, 1,10,120000.0, 1,20, 2,50
1156,0.0,0.0, 1,20, 1,10,0.0, 1,20, 1,10
13,578675264.5942944,106115.4183601288, 1,21, 4,10,1350167.8045038467, 1,22,20,10
61,301924526.0238348,58759.40635443481, 1,20, 1,10,854682.2742463244, 1,20,20,10
134,70666020.44019979,42376.01200569399, 1,20, 4,10,104369.48322671017, 1,25,20,10
170,5241013.419656074,232.27731661587313, 1,20, 4,10,11650.931360040839, 1,25,12,10
207,6509451.13922266,543.5021409221355, 1,20, 3,10,15327.095199349082, 1,25,10,10
244,12749673.39982522,1014.5707620042115, 1,20, 4,10,35359.08742820678, 1,25,20,10
281,46165882.48149605,39959.06841621388, 1,20, 5,10,54634.54471212738, 1,20,19,10
318,0.0,0.0, 1,20, 1,10,0.0, 1,20, 1,10
355,741134897.106311,12374.216038804521, 1,20, 4,10,3829218.154066982, 1,21,18,60
403,197687796.27748126,12374.216038804521, 1,20, 4,10,483183.26346918393, 1,25,18,10
476,106772067.24485692,4732.048419519677, 1,20, 4,10,237357.535085481, 1,25,12,10
513,0.0,0.0, 1,20, 1,10,0.0, 1,20, 1,10
562,18557168.42099415,0.0, 1,20, 1,10,70116.72870376041, 1,21,17,20
1046,0.0,0.0, 1,20, 1,10,0.0, 1,20, 1,10
1096,139701198.66788667,0.0, 1,20, 1,10,599003.5172603512, 1,21,17,10
1134,42806511.04138052,0.0, 1,20, 1,10,672825.0217315974, 1,24, 6,10
1323,543447100.8288267,0.0, 1,20, 1,10,3375000.0000000005, 1,20,17,10
1360,5019840.0,4980.0, 1,20, 1,10,4980.000000000001, 1,20, 8,20
1388,0.0,0.0, 1,20, 1,10,0.0, 1,20, 1,10
1,EXTREME_SUMMER,  26.59, -81.86,  -5.00,   4.60
5,7
1038,0.0,0.0, 6,29, 1,10,0.0, 6,29, 1,10
1039,59.16666666666665,0.0, 6,29, 1,10,0.16666666666666666, 6,29,14,60
581,0.08178715695938468,0.0, 6,29, 1,30,0.41191348359296276, 7, 5,17,51
582,3.5325809514404214,0.07793390070800188, 7, 5,19,55,14.917622485998715, 7, 5,11,51
583,3.7924600379622087,0.0, 6,30, 6, 7,13.771193898757355, 7, 5,12,10
1115,0.0,0.0, 6,29, 1,10,0.0, 6,29, 1,10
1128,0.0,0.0, 6,29, 1,10,0.0, 6,29, 1,10
1153,0.0,0.0, 6,29, 1,10,0.0, 6,29, 1,10
1154,0.0,0.0, 6,29, 1,10,0.0, 6,29, 1,10
1156,0.0,0.0, 6,29, 1,10,0.0, 6,29, 1,10
13,1066304999.1971346,217079.1668989606, 6,30, 4,60,1955704.3632897437, 7, 4,20,10
61,301924526.0238348,58759.40635443481, 6,29, 1,10,854682.2742463244, 6,29,20,10
134,70666020.44019979,42376.01200569399, 6,29, 4,10,104369.48322671017, 7, 4,20,10
170,5241013.419656074,232.27731661587313, 6,29, 4,10,11650.931360040839, 7, 4,12,10
207,6509451.13922266,543.5021409221355, 6,29, 3,10,15327.095199349082, 7, 4,10,10
244,12749673.39982522,1014.5707620042115, 6,29, 4,10,35359.08742820678, 7, 4,20,10
281,46165882.48149605,39959.06841621388, 6,29, 5,10,54634.54471212738, 6,29,19,10
318,0.0,0.0, 6,29, 1,10,0.0, 6,29, 1,10
355,654724917.7496581,12374.216038804521, 6,29, 4,10,3829218.154066982, 6,30,18,60
403,197687796.27748126,12374.216038804521, 6,29, 4,10,483183.26346918393, 7, 4,18,10
476,106772067.24485692,4732.048419519677, 6,29, 4,10,237357.535085481, 7, 4,12,10
513,0.0,0.0, 6,29, 1,10,0.0, 6,29, 1,10
562,61547366.984329686,10544.941047428598, 6,30, 5,60,87785.73100240165, 6,30,16,50
1046,0.0,0.0, 6,29, 1,10,0.0, 6,29, 1,10
1096,627147245.7487699,94958.50956412737, 6,30, 5,60,982327.9910545843, 7, 1,14,60
1134,0.0,0.0, 6,29, 1,10,0.0, 6,29, 1,10
1323,457037121.4721755,0.0, 6,29, 1,10,3375000.0000000005, 6,29,16,60
1360,5019840.0,4979.999999999998, 7, 5,13,30,4980.000000000001, 6,29, 8,10
1388,0.0,0.0, 6,29, 1,10,0.0, 6,29, 1,10
1,ANNUAL,  26.59, -81.86,  -5.00,   4.60
5,365
1038,0.16666666666666666,0.0, 1, 1, 1,10,0.16666666666666666, 1,24, 6,10
1039,1636.1666666666683,0.0, 1, 1, 1,10,0.16666666666666666, 1, 6,16,40
581,0.11934468532308298,0.0, 1, 5,21,50,0.6942137728021015, 2,16,16,55
582,3.43003853408441,0.0, 1, 9, 5,45,25.24332757904892,10, 7,14,60
583,3.9014289025361126,0.0, 1, 6,23, 3,21.39412545348872, 3, 1,11,53
1115,93833250.15098341,0.0, 1, 1, 1,10,1662336.3897505456, 1,24, 6,40
1128,27001122.18145793,0.0, 1, 1, 1,10,498660.2350032362, 1,24, 6,40
1153,159491.0750215062,0.0, 1, 1, 1,10,6915.668763055588, 1,24, 8,30
1154,108668937.36351424,0.0, 1, 1, 1,10,120000.0, 1,16,24,10
1156,0.0,0.0, 1, 1, 1,10,0.0, 1, 1, 1,10
13,46100223150.197716,106115.4183601288, 1, 2, 4,10,1975658.3219944837, 8, 5,20,10
61,15743207428.39043,58759.40635443481, 1, 1, 1,10,854682.2742463244, 1, 1,20,10
134,3685071073.433083,42376.01200569399, 1, 2, 4,10,104369.48322671017, 1, 1,20,10
170,273393721.45534325,232.27731661587313, 1, 2, 4,10,11650.931360040839, 1, 1,12,10
207,339560869.06955314,543.5021409221355, 1, 2, 3,10,15327.095199349082, 1, 1,10,10
244,664895467.8009839,1014.5707620042115, 1, 2, 4,10,35359.08742820678, 1, 1,20,10
281,2407221015.1057043,39959.06841621388, 1, 1, 5,10,54634.54471212738, 1, 1,19,10
318,0.0,0.0, 1, 1, 1,10,0.0, 1, 1, 1,10
355,35568544292.92291,12374.216038804521, 1, 2, 4,10,3829218.1540669827, 6,13,18,60
403,10310294493.052883,12374.216038804521, 1, 2, 4,10,483183.26346918393, 1, 1,18,10
476,5569688622.065564,4732.048419519677, 1, 2, 4,10,237357.535085481, 1, 1,12,10
513,0.0,0.0, 1, 1, 1,10,0.0, 1, 1, 1,10
562,2492091819.7193007,0.0, 1, 1, 4,10,87785.73100240165, 2,20,17,30
1046,0.0,0.0, 1, 1, 1,10,0.0, 1, 1, 1,10
1096,23782274478.03993,0.0, 1, 1, 4,10,1017943.8636909091, 6,18,10,60
1134,135829550.61999375,0.0, 1, 1, 1,10,667295.8569873399, 1,24, 6,10
1323,25258249799.874218,0.0, 1, 1, 1,10,3375000.000000002, 7, 5,16,10
1360,261748800.0,4979.999999999998, 1,26,10,30,4980.000000000002, 1, 9,17,10
1388,0.0,0.0, 1, 1, 1,10,0.0, 1, 1, 1,10
End of Data
 Number of Records Written=          87
