Program Version,EnergyPlus, Version 22.2.0-c249759bad, YMD=2023.09.01 14:31
1,5,Environment Title[],Latitude[deg],Longitude[deg],Time Zone[],Elevation[m]
2,8,Day of Simulation[],Month[],Day of Month[],DST Indicator[1=yes 0=no],Hour[],StartMinute[],EndMinute[],DayType
3,5,Cumulative Day of Simulation[],Month[],Day of Month[],DST Indicator[1=yes 0=no],DayType  ! When Daily Report Variables Requested
4,2,Cumulative Days of Simulation[],Month[]  ! When Monthly Report Variables Requested
5,1,Cumulative Days of Simulation[] ! When Run Period Report Variables Requested
6,1,Calendar Year of Simulation[] ! When Annual Report Variables Requested
7,1,Environment,Site Outdoor Air Drybulb Temperature [C] !Hourly
545,1,LIVING,Zone Mean Air Temperature [C] !Hourly
546,1,ATTIC,Zone Mean Air Temperature [C] !Hourly
547,1,CRAWLSPACE,Zone Mean Air Temperature [C] !Hourly
548,1,FAN,Fan Electricity Rate [W] !Hourly
720,1,LIVING,Zone Predicted Sensible Load to Heating Setpoint Heat Transfer Rate [W] !Hourly
721,1,LIVING,Zone System Predicted Sensible Load to Heating Setpoint Heat Transfer Rate [W] !Hourly
784,1,ATTIC,Zone Predicted Sensible Load to Heating Setpoint Heat Transfer Rate [W] !Hourly
785,1,ATTIC,Zone System Predicted Sensible Load to Heating Setpoint Heat Transfer Rate [W] !Hourly
848,1,CRAWLSPACE,Zone Predicted Sensible Load to Heating Setpoint Heat Transfer Rate [W] !Hourly
849,1,CRAWLSPACE,Zone System Predicted Sensible Load to Heating Setpoint Heat Transfer Rate [W] !Hourly
1121,1,DX_HEATING_COIL,Heating Coil Heating Rate [W] !Hourly
1135,1,DX_HEATING_COIL,Heating Coil Electricity Rate [W] !Hourly
1161,1,DX_HEATING_COIL,Heating Coil Defrost Electricity Rate [W] !Hourly
1163,1,DX_HEATING_COIL,Heating Coil Crankcase Heater Electricity Rate [W] !Hourly
1166,1,HEATING_RESISTANCE_BACKUP,Heating Coil Heating Rate [W] !Hourly
1168,1,HEATING_RESISTANCE_BACKUP,Heating Coil Electricity Rate [W] !Hourly
End of Data Dictionary
1,EXTREME_WINTER,  37.43,-105.87,  -7.00,2299.00
2,1, 1,27, 0, 1, 0.00,60.00,Monday
7,-20.6
545,18.57888765766525
546,-12.369523563691155
547,16.34192308523023
548,176.41251505005013
720,4348.231536505225
721,4348.231536505225
784,0.0
785,0.0
848,0.0
849,0.0
1121,3064.047041257719
1135,1416.0139227050056
1161,2.115120358486372
1163,0.0
1166,3447.093697013046
1168,3447.093697013046
2,1, 1,27, 0, 2, 0.00,60.00,Monday
7,-22.2
545,18.55102638664909
546,-12.598154087464462
547,15.697616351651636
548,176.41251505005013
720,4934.076763304569
721,4934.076763304569
784,0.0
785,0.0
848,0.0
849,0.0
1121,2888.8203574508993
1135,1382.9378886298903
1161,4.4526589190629995
1163,0.0
1166,4360.668976687343
1168,4360.668976687343
2,1, 1,27, 0, 3, 0.00,60.00,Monday
7,-25.6
545,18.524994475751278
546,-13.81753536018083
547,15.349983702183671
548,176.41251505005013
720,5944.052857177034
721,5944.052857177034
784,0.0
785,0.0
848,0.0
849,0.0
1121,2544.603634549261
1135,1315.1894616317547
1161,5.543485966772015
1163,0.0
1166,5922.745043930338
1168,5922.745043930338
2,1, 1,27, 0, 4, 0.00,60.00,Monday
7,-24.4
545,18.52724652119862
546,-14.540858621869296
547,14.99079411337739
548,176.41251505005013
720,6156.0342802198265
721,6156.0342802198265
784,0.0
785,0.0
848,0.0
849,0.0
1121,2674.2120599997274
1135,1343.2230599355582
1161,0.7409573150327173
1163,0.0
1166,6133.9378080553515
1168,6133.9378080553515
2,1, 1,27, 0, 5, 0.00,60.00,Monday
7,-23.0
545,18.54179239501016
546,-14.225821491847075
547,14.677420453060403
548,176.41251505005013
720,5991.200735419254
721,5991.200735419254
784,0.0
785,0.0
848,0.0
849,0.0
1121,2815.281950479443
1135,1368.7251112155361
1161,1.5727592468324159
1163,0.0
1166,5863.092090749674
1168,5863.092090749674
2,1, 1,27, 0, 6, 0.00,60.00,Monday
7,-23.3
545,19.314345503389543
546,-14.038669077988612
547,14.365490511725431
548,176.41251505005013
720,7226.434550939888
721,7226.434550939888
784,0.0
785,0.0
848,0.0
849,0.0
1121,2780.164032230223
1135,1360.9219629523093
1161,3.457568471188813
1163,0.0
1166,7326.668037700258
1168,7326.668037700258
2,1, 1,27, 0, 7, 0.00,60.00,Monday
7,-25.0
545,19.408356632853067
546,-14.505162934449034
547,14.093602677296268
548,176.41251505005013
720,7450.498104595681
721,7450.498104595681
784,0.0
785,0.0
848,0.0
849,0.0
1121,2592.3937285563597
1135,1342.7290411193828
1161,2.6263997425760937
1163,0.0
1166,7602.58300895126
1168,7602.58300895126
2,1, 1,27, 0, 8, 0.00,60.00,Monday
7,-22.2
545,19.59636137562225
546,-13.649857417938811
547,13.840272972565156
548,176.41251505005013
720,6585.630759097268
721,6585.630759097268
784,0.0
785,0.0
848,0.0
849,0.0
1121,2871.192892005273
1135,1397.4778263250867
1161,4.420930020386894
1163,0.0
1166,6623.521353227589
1168,6623.521353227589
2,1, 1,27, 0, 9, 0.00,60.00,Monday
7,-18.3
545,19.691654768168792
546,-10.525738478441529
547,13.614649015810329
548,176.41251505005013
720,4959.437538778362
721,4959.437538778362
784,0.0
785,0.0
848,0.0
849,0.0
1121,3300.881408591294
1135,1475.7340911035549
1161,1.7344738928313244
1163,0.0
1166,4282.052076158128
1168,4282.052076158128
2,1, 1,27, 0,10, 0.00,60.00,Monday
7,-14.4
545,19.749739144064442
546,-5.310655988668415
547,13.414204613744097
548,176.41251505005013
720,3408.188998819154
721,3408.188998819154
784,0.0
785,0.0
848,0.0
849,0.0
1121,3767.254718855804
1135,1544.9242548308778
1161,0.08498134625201711
1163,0.0
1166,1844.107794513127
1168,1844.107794513127
2,1, 1,27, 0,11, 0.00,60.00,Monday
7,-9.0
545,19.887162208904634
546,0.1331752224216508
547,13.2583139803644
548,162.08062813160265
720,2318.8554016018134
721,2318.8554016018134
784,0.0
785,0.0
848,0.0
849,0.0
1121,4063.748107306273
1135,1495.900557630206
1161,0.07807897380252565
1163,16.244441289555667
1166,0.0
1168,0.0
2,1, 1,27, 0,12, 0.00,60.00,Monday
7,-9.4
545,19.957987632386565
546,3.972640449218716
547,13.101992970260348
548,130.02225993932197
720,1910.0081907916501
721,1910.0081907916501
784,0.0
785,0.0
848,0.0
849,0.0
1121,3147.5893619405324
1135,1198.8144397389997
1161,0.06263556951261827
1163,52.5898393587015
1166,0.0
1168,0.0
2,1, 1,27, 0,13, 0.00,60.00,Monday
7,-7.2
545,20.057675752349667
546,9.723842108305972
547,12.981340640908977
548,74.73102325632902
720,1161.758661209593
721,1161.758661209593
784,0.0
785,0.0
848,0.0
849,0.0
1121,1862.7791203490963
1135,703.5862931023207
1161,0.03600000316523
1163,115.27551691527715
1166,0.0
1168,0.0
2,1, 1,27, 0,14, 0.00,60.00,Monday
7,-6.1
545,20.059638529069286
546,13.710461423360051
547,12.879464189553207
548,23.287509142940323
720,333.0080926339906
721,333.0080926339906
784,0.0
785,0.0
848,0.0
849,0.0
1121,579.8111979136718
1135,221.7978766233973
1161,0.011218217855909002
1163,173.59839929426224
1166,0.0
1168,0.0
2,1, 1,27, 0,15, 0.00,60.00,Monday
7,-4.4
545,20.314619558910763
546,16.598731453742857
547,12.8269479740143
548,0.0
720,-306.68130251412185
721,-306.68130251412185
784,0.0
785,0.0
848,0.0
849,0.0
1121,0.0
1135,0.0
1161,0.0
1163,200.0
1166,0.0
1168,0.0
2,1, 1,27, 0,16, 0.00,60.00,Monday
7,-4.4
545,20.68900740675543
546,10.215974703153568
547,12.81914890406093
548,0.0
720,-764.3573117037049
721,-764.3573117037049
784,0.0
785,0.0
848,0.0
849,0.0
1121,0.0
1135,0.0
1161,0.0
1163,200.0
1166,0.0
1168,0.0
2,1, 1,27, 0,17, 0.00,60.00,Monday
7,-7.0
545,20.764445231248878
546,5.665759340418653
547,12.824225600575897
548,0.0
720,-821.3665739388471
721,-821.3665739388471
784,0.0
785,0.0
848,0.0
849,0.0
1121,0.0
1135,0.0
1161,0.0
1163,200.0
1166,0.0
1168,0.0
2,1, 1,27, 0,18, 0.00,60.00,Monday
7,-6.7
545,19.746632246715368
546,0.9569983786653398
547,12.824869195554474
548,0.0
720,-19.953414551704554
721,-19.953414551704554
784,0.0
785,0.0
848,0.0
849,0.0
1121,0.0
1135,0.0
1161,0.0
1163,200.0
1166,0.0
1168,0.0
2,1, 1,27, 0,19, 0.00,60.00,Monday
7,-12.8
545,19.52252965362079
546,-2.3048118884031323
547,12.855450749278596
548,63.1685440918587
720,907.4635109914288
721,907.4635109914288
784,0.0
785,0.0
848,0.0
849,0.0
1121,1305.5774094256162
1135,559.9182666319975
1161,3.5914254640862766
1163,128.14701550955215
1166,0.0
1168,0.0
2,1, 1,27, 0,20, 0.00,60.00,Monday
7,-16.7
545,19.12728688860458
546,-5.517757100931955
547,12.823857044320155
548,130.1505395469148
720,1632.7143701370806
721,1632.7143701370806
784,0.0
785,0.0
848,0.0
849,0.0
1121,2463.28513659505
1135,1101.1858190122089
1161,13.09729828412326
1163,51.26641751963452
1166,0.0
1168,0.0
2,1, 1,27, 0,21, 0.00,60.00,Monday
7,-17.8
545,19.27402178531523
546,-8.510181497087556
547,12.746963852430268
548,176.41251505005013
720,2511.0473753105816
721,2511.0473753105816
784,0.0
785,0.0
848,0.0
849,0.0
1121,3344.4990743919802
1135,1459.6038946905298
1161,11.734308784904016
1163,0.0
1166,686.8095373796277
1168,686.8095373796277
2,1, 1,27, 0,22, 0.00,60.00,Monday
7,-18.3
545,19.481445922013993
546,-9.303579793668796
547,12.654822871430143
548,176.41251505005013
720,3109.5180288279753
721,3109.5180288279753
784,0.0
785,0.0
848,0.0
849,0.0
1121,3288.382744061624
1135,1456.5823766968956
1161,10.059979131907319
1163,0.0
1166,1696.8211704695
1168,1696.8211704695
2,1, 1,27, 0,23, 0.00,60.00,Monday
7,-21.0
545,18.86806862065658
546,-10.40545669771745
547,12.525425568537976
548,176.41251505005013
720,3189.7957096312803
721,3189.7957096312803
784,0.0
785,0.0
848,0.0
849,0.0
1121,2978.6408610620124
1135,1410.1916553551516
1161,12.737981806529929
1163,0.0
1166,2204.384852807062
1168,2204.384852807062
2,1, 1,27, 0,24, 0.00,60.00,Monday
7,-20.6
545,18.657436943437368
546,-11.280988834925125
547,12.371782583267969
548,176.41251505005013
720,3802.0436559395475
721,3802.0436559395475
784,0.0
785,0.0
848,0.0
849,0.0
1121,3043.708506924386
1135,1406.9948018055113
1161,10.144207408926803
1163,0.0
1166,2875.547757417225
1168,2875.547757417225
2,2, 1,28, 0, 1, 0.00,60.00,Tuesday
7,-21.1
545,18.58023369000401
546,-11.90945001387474
547,12.215563953100908
548,176.41251505005013
720,4429.191481262629
721,4429.191481262629
784,0.0
785,0.0
848,0.0
849,0.0
1121,2998.7315526108628
1135,1394.9553560123059
1161,8.768794576225051
1163,0.0
1166,3694.419296665263
1168,3694.419296665263
2,2, 1,28, 0, 2, 0.00,60.00,Tuesday
7,-19.4
545,18.560176782796916
546,-12.43884171130748
547,12.067114334877143
548,176.41251505005013
720,4830.2565002711235
721,4830.2565002711235
784,0.0
785,0.0
848,0.0
849,0.0
1121,3187.4810816204244
1135,1422.9751896498124
1161,8.415742725423229
1163,0.0
1166,4023.387659377335
1168,4023.387659377335
2,2, 1,28, 0, 3, 0.00,60.00,Tuesday
7,-20.0
545,18.549837772061345
546,-12.293574175464387
547,11.896105570376765
548,176.41251505005013
720,5289.493380415921
721,5289.493380415921
784,0.0
785,0.0
848,0.0
849,0.0
1121,3116.7241263046926
1135,1409.7530389097328
1161,10.429185252822231
1163,0.0
1166,4670.1937995757435
1168,4670.1937995757435
2,2, 1,28, 0, 4, 0.00,60.00,Tuesday
7,-22.2
545,18.537025992071154
546,-12.9341270449931
547,11.714811276523664
548,176.41251505005013
720,5976.967343698261
721,5976.967343698261
784,0.0
785,0.0
848,0.0
849,0.0
1121,2888.9429001083736
1135,1373.955709833773
1161,7.332202764304189
1163,0.0
1166,5708.973246408212
1168,5708.973246408212
2,2, 1,28, 0, 5, 0.00,60.00,Tuesday
7,-22.0
545,18.54910220296472
546,-12.97040777878588
547,11.553957648996546
548,176.41251505005013
720,5762.479330176557
721,5762.479330176557
784,0.0
785,0.0
848,0.0
849,0.0
1121,2912.723383109754
1135,1378.1562297967919
1161,6.405387405412272
1163,0.0
1166,5484.247637743325
1168,5484.247637743325
2,2, 1,28, 0, 6, 0.00,60.00,Tuesday
7,-22.2
545,19.319366784544222
546,-13.397976957222888
547,11.384688241497217
548,176.41251505005013
720,6954.468839940126
721,6954.468839940126
784,0.0
785,0.0
848,0.0
849,0.0
1121,2889.4500577570843
1135,1373.5475007707994
1161,7.327879868303596
1163,0.0
1166,6894.913913797669
1168,6894.913913797669
2,2, 1,28, 0, 7, 0.00,60.00,Tuesday
7,-23.3
545,19.550581889554042
546,-13.727484915912155
547,11.246660659466714
548,176.41251505005013
720,6939.109973592063
721,6939.109973592063
784,0.0
785,0.0
848,0.0
849,0.0
1121,2755.0533135000596
1135,1367.2795726522147
1161,8.098949628684482
1163,0.0
1166,7121.764509873934
1168,7121.764509873934
2,2, 1,28, 0, 8, 0.00,60.00,Tuesday
7,-21.1
545,19.63573010436047
546,-13.47930158925981
547,11.10830876463124
548,176.41251505005013
720,6327.129981932561
721,6327.129981932561
784,0.0
785,0.0
848,0.0
849,0.0
1121,2984.236067725149
1135,1415.6506767405663
1161,6.1982660015791025
1163,0.0
1166,6234.690718807713
1168,6234.690718807713
2,2, 1,28, 0, 9, 0.00,60.00,Tuesday
7,-16.7
545,19.70123652892553
546,-10.579848449054296
547,10.989180107008522
548,176.41251505005013
720,4756.995596462151
721,4756.995596462151
784,0.0
785,0.0
848,0.0
849,0.0
1121,3455.3752529525627
1135,1485.328388164335
1161,13.845566053646865
1163,0.0
1166,3939.4596868448853
1168,3939.4596868448853
2,2, 1,28, 0,10, 0.00,60.00,Tuesday
7,-11.1
545,19.76118307771049
546,-1.4398572272214958
547,10.89660812670506
548,176.41251505005013
720,2923.3565773046193
721,2923.3565773046193
784,0.0
785,0.0
848,0.0
849,0.0
1121,4191.697845060744
1135,1591.6176985169893
1161,0.08498134625201711
1163,0.0
1166,917.1115062430968
1168,917.1115062430968
2,2, 1,28, 0,11, 0.00,60.00,Tuesday
7,-9.0
545,19.94000309279045
546,5.556292636352731
547,10.78085155694345
548,152.02036590160216
720,2211.833619475805
721,2211.833619475805
784,0.0
785,0.0
848,0.0
849,0.0
1121,3788.126602255287
1135,1399.6125079748258
1161,0.07323265039114339
1163,27.650058228148765
1166,0.0
1168,0.0
2,2, 1,28, 0,12, 0.00,60.00,Tuesday
7,-9.4
545,19.95706500798668
546,10.886045113425764
547,10.69070735854273
548,120.44362994485643
720,1884.243075116272
721,1884.243075116272
784,0.0
785,0.0
848,0.0
849,0.0
1121,2898.452256691144
1135,1108.6856779341583
1161,0.05802125938664267
1163,63.44942285433499
1166,0.0
1168,0.0
2,2, 1,28, 0,13, 0.00,60.00,Tuesday
7,-5.0
545,20.036463765225925
546,13.706369684135593
547,10.603378121238048
548,66.56053879668455
720,1244.5499332519157
721,1244.5499332519157
784,0.0
785,0.0
848,0.0
849,0.0
1121,1761.9153676027063
1135,636.8843711962032
1161,0.03206394197089718
1163,124.53887026969494
1166,0.0
1168,0.0
2,2, 1,28, 0,14, 0.00,60.00,Tuesday
7,-4.7
545,19.901973480226353
546,14.610763830277188
547,10.549947750435914
548,29.73348017218134
720,555.2376498298436
721,555.2376498298436
784,0.0
785,0.0
848,0.0
849,0.0
1121,774.9863475985471
1135,285.6990649888725
1161,0.014323384111828364
1163,166.290521994435
1166,0.0
1168,0.0
2,2, 1,28, 0,15, 0.00,60.00,Tuesday
7,-4.4
545,19.748273264322304
546,14.097583164353244
547,10.5407482755519
548,10.913382579344606
720,201.6132753778602
721,201.6132753778602
784,0.0
785,0.0
848,0.0
849,0.0
1121,283.736152171625
1135,104.8601990588205
1161,0.005257255448098573
1163,187.62727191327878
1166,0.0
1168,0.0
2,2, 1,28, 0,16, 0.00,60.00,Tuesday
7,-2.8
545,19.890202333191574
546,11.87926043544391
547,10.557344567864444
548,0.0
720,-14.188616665320296
721,-14.188616665320296
784,0.0
785,0.0
848,0.0
849,0.0
1121,0.0
1135,0.0
1161,0.0
1163,200.0
1166,0.0
1168,0.0
2,2, 1,28, 0,17, 0.00,60.00,Tuesday
7,-5.0
545,19.751682936969292
546,5.674996307367585
547,10.596512504922023
548,0.0
720,-22.417831442353418
721,-22.417831442353418
784,0.0
785,0.0
848,0.0
849,0.0
1121,0.0
1135,0.0
1161,0.0
1163,200.0
1166,0.0
1168,0.0
2,2, 1,28, 0,18, 0.00,60.00,Tuesday
7,-5.0
545,19.632653474831464
546,1.9481453039481613
547,10.67776833163824
548,29.919929328510744
720,582.1764387355306
721,582.1764387355306
784,0.0
785,0.0
848,0.0
849,0.0
1121,765.5775774970302
1135,282.54647729364024
1161,2.4110297609039137
1163,166.00226410505914
1166,0.0
1168,0.0
2,2, 1,28, 0,19, 0.00,60.00,Tuesday
7,-8.3
545,19.27159658190073
546,-1.0323874237330724
547,10.722003266690898
548,53.6055013676542
720,909.269604379926
721,909.269604379926
784,0.0
785,0.0
848,0.0
849,0.0
1121,1261.3616115225964
1135,490.5997346452038
1161,5.153170101988921
1163,138.99571673932064
1166,0.0
1168,0.0
2,2, 1,28, 0,20, 0.00,60.00,Tuesday
7,-13.9
545,19.097606429004383
546,-3.5992203816897916
547,10.771564062288142
548,113.60673561670028
720,1572.302347348872
721,1572.302347348872
784,0.0
785,0.0
848,0.0
849,0.0
1121,2312.9224095588233
1135,975.9333946734886
1161,20.489521788135068
1163,69.70859752795072
1166,0.0
1168,0.0
2,2, 1,28, 0,21, 0.00,60.00,Tuesday
7,-16.7
545,18.93719660509601
546,-6.212193756538766
547,10.77838999639017
548,176.41251505005013
720,2217.211801313364
721,2217.211801313364
784,0.0
785,0.0
848,0.0
849,0.0
1121,3447.721323151386
1135,1462.1305520511708
1161,21.548226971802343
1163,0.0
1166,58.914712457484256
1168,58.914712457484256
2,2, 1,28, 0,22, 0.00,60.00,Tuesday
7,-17.8
545,19.336439122919824
546,-8.204002351862252
547,10.704963088021161
548,176.41251505005013
720,3255.0745829538264
721,3255.0745829538264
784,0.0
785,0.0
848,0.0
849,0.0
1121,3332.991529915568
1135,1443.8087505083288
1161,18.763190900076786
1163,0.0
1166,1695.3493730709615
1168,1695.3493730709615
2,2, 1,28, 0,23, 0.00,60.00,Tuesday
7,-19.0
545,18.80627808320388
546,-9.338932334348383
547,10.647401736439535
548,176.41251505005013
720,3289.4498007714865
721,3289.4498007714865
784,0.0
785,0.0
848,0.0
849,0.0
1121,3191.095184323074
1135,1434.3556869591916
1161,17.576151421892757
1163,0.0
1166,2073.436840945809
1168,2073.436840945809
2,2, 1,28, 0,24, 0.00,60.00,Tuesday
7,-18.9
545,18.635920316165933
546,-10.187743354733092
547,10.52963103616287
548,176.41251505005013
720,3874.4306030879725
721,3874.4306030879725
784,0.0
785,0.0
848,0.0
849,0.0
1121,3219.189785362297
1135,1425.3331772939887
1161,16.24815329724769
1163,0.0
1166,2767.6182022528137
1168,2767.6182022528137
2,3, 1,29, 0, 1, 0.00,60.00,Wednesday
7,-18.3
545,18.581925486367542
546,-10.906465833861148
547,10.424154679791265
548,176.41251505005013
720,4300.648023793967
721,4300.648023793967
784,0.0
785,0.0
848,0.0
849,0.0
1121,3289.564851034922
1135,1430.486964628006
1161,16.79702622138764
1163,0.0
1166,3242.2553483582424
1168,3242.2553483582424
2,3, 1,29, 0, 2, 0.00,60.00,Wednesday
7,-20.0
545,18.556761004353007
546,-11.063735226843972
547,10.287936332861179
548,176.41251505005013
720,4869.262767108572
721,4869.262767108572
784,0.0
785,0.0
848,0.0
849,0.0
1121,3109.344461615064
1135,1403.9626849496
1161,14.026702225840328
1163,0.0
1166,4128.485059492016
1168,4128.485059492016
2,3, 1,29, 0, 3, 0.00,60.00,Wednesday
7,-20.6
545,18.548319450758846
546,-11.99127198072658
547,10.159407130870129
548,176.41251505005013
720,5367.1982946106
721,5367.1982946106
784,0.0
785,0.0
848,0.0
849,0.0
1121,3047.766342933853
1135,1394.1972606802788
1161,12.914816032126245
1163,0.0
1166,4797.580004262996
1168,4797.580004262996
2,3, 1,29, 0, 4, 0.00,60.00,Wednesday
7,-20.6
545,18.547980271395417
546,-12.176057889432647
547,10.029974834723777
548,176.41251505005013
720,5508.564830169156
721,5508.564830169156
784,0.0
785,0.0
848,0.0
849,0.0
1121,3054.8835297371656
1135,1396.928441019472
1161,10.231881886101547
1163,0.0
1166,5014.399090960453
1168,5014.399090960453
2,3, 1,29, 0, 5, 0.00,60.00,Wednesday
7,-20.0
545,18.554753151965965
546,-12.664329350944055
547,9.903156452690215
548,176.41251505005013
720,5508.22882939663
721,5508.22882939663
784,0.0
785,0.0
848,0.0
849,0.0
1121,3121.6576145152953
1135,1407.6076125462582
1161,9.771521043382165
1163,0.0
1166,4972.047491481687
1168,4972.047491481687
2,3, 1,29, 0, 6, 0.00,60.00,Wednesday
7,-20.0
545,19.32428014949582
546,-12.640270126818416
547,9.771530190059213
548,176.41251505005013
720,6655.749856068727
721,6655.749856068727
784,0.0
785,0.0
848,0.0
849,0.0
1121,3125.3178895034484
1135,1409.2359764959795
1161,8.348441083932032
1163,0.0
1166,6326.022472786862
1168,6326.022472786862
2,3, 1,29, 0, 7, 0.00,60.00,Wednesday
7,-20.6
545,19.55909439972151
546,-13.00647377065451
547,9.673617829923613
548,176.41251505005013
720,6672.014708937102
721,6672.014708937102
784,0.0
785,0.0
848,0.0
849,0.0
1121,3036.1352030735247
1135,1413.3742880427076
1161,10.203201867979525
1163,0.0
1166,6527.27413259682
1168,6527.27413259682
2,3, 1,29, 0, 8, 0.00,60.00,Wednesday
7,-17.8
545,19.6435021991022
546,-11.705667159606726
547,9.573618707199604
548,176.41251505005013
720,6091.75245885488
721,6091.75245885488
784,0.0
785,0.0
848,0.0
849,0.0
1121,3328.429557141904
1135,1461.3165799491871
1161,15.274983919827346
1163,0.0
1166,5615.140895572822
1168,5615.140895572822
2,3, 1,29, 0, 9, 0.00,60.00,Wednesday
7,-11.7
545,19.71573892841755
546,-8.430873239029888
547,9.499470657502245
548,176.41251505005013
720,4457.289153394857
721,4457.289153394857
784,0.0
785,0.0
848,0.0
849,0.0
1121,4076.3588960903194
1135,1562.9989277531402
1161,12.242065102188029
1163,0.0
1166,2918.83258096728
1168,2918.83258096728
2,3, 1,29, 0,10, 0.00,60.00,Wednesday
7,-10.5
545,19.753019213667276
546,-2.6469097202717617
547,9.402714899511341
548,176.41251505005013
720,3308.2112540175403
721,3308.2112540175403
784,0.0
785,0.0
848,0.0
849,0.0
1121,4227.062504936871
1135,1581.1433896678593
1161,13.27430279838071
1163,0.0
1166,1247.5334242873018
1168,1247.5334242873018
2,3, 1,29, 0,11, 0.00,60.00,Wednesday
7,-9.4
545,19.778428138796833
546,1.8182523790793155
547,9.34593370020576
548,176.41251505005013
720,2632.6537123150083
721,2632.6537123150083
784,0.0
785,0.0
848,0.0
849,0.0
1121,4375.90566676792
1135,1599.2489781766285
1161,12.225966760063407
1163,0.0
1166,4.707432765683734
1168,4.707432765683734
2,3, 1,29, 0,12, 0.00,60.00,Wednesday
7,-6.1
545,19.99807827586139
546,6.596457493549107
547,9.212244006713462
548,113.79620971920778
720,1852.3644579995253
721,1852.3644579995253
784,0.0
785,0.0
848,0.0
849,0.0
1121,2993.1577811544958
1135,1067.0978414946337
1161,5.7251034354277
1163,70.78270827541442
1166,0.0
1168,0.0
2,3, 1,29, 0,13, 0.00,60.00,Wednesday
7,-0.6
545,20.225142608947934
546,13.724699230579274
547,9.104165671782559
548,44.34865667573569
720,811.2987436914009
721,811.2987436914009
784,0.0
785,0.0
848,0.0
849,0.0
1121,1310.1951793782207
1135,440.20748037972237
1161,0.021363775364657035
1163,149.72125929541872
1166,0.0
1168,0.0
2,3, 1,29, 0,14, 0.00,60.00,Wednesday
7,0.6
545,19.925768927117026
546,15.462573515217553
547,9.044797485245539
548,0.0
720,-170.2982580478274
721,-170.2982580478274
784,0.0
785,0.0
848,0.0
849,0.0
1121,0.0
1135,0.0
1161,0.0
1163,200.0
1166,0.0
1168,0.0
2,3, 1,29, 0,15, 0.00,60.00,Wednesday
7,0.6
545,20.548005159118514
546,16.510593844861926
547,9.108142719769223
548,0.0
720,-608.2534346022894
721,-608.2534346022894
784,0.0
785,0.0
848,0.0
849,0.0
1121,0.0
1135,0.0
1161,0.0
1163,200.0
1166,0.0
1168,0.0
2,3, 1,29, 0,16, 0.00,60.00,Wednesday
7,0.6
545,20.956679799669022
546,13.123030778228701
547,9.178301622335143
548,0.0
720,-928.2631163507085
721,-928.2631163507085
784,0.0
785,0.0
848,0.0
849,0.0
1121,0.0
1135,0.0
1161,0.0
1163,200.0
1166,0.0
1168,0.0
2,3, 1,29, 0,17, 0.00,60.00,Wednesday
7,-2.0
545,21.314323599846777
546,9.826625469746022
547,9.265551632318568
548,0.0
720,-1235.6961716392016
721,-1235.6961716392016
784,0.0
785,0.0
848,0.0
849,0.0
1121,0.0
1135,0.0
1161,0.0
1163,200.0
1166,0.0
1168,0.0
2,3, 1,29, 0,18, 0.00,60.00,Wednesday
7,-1.7
545,20.356203036988553
546,5.438780948430133
547,9.359413303322317
548,0.0
720,-482.24454266881366
721,-482.24454266881366
784,0.0
785,0.0
848,0.0
849,0.0
1121,0.0
1135,0.0
1161,0.0
1163,200.0
1166,0.0
1168,0.0
2,3, 1,29, 0,19, 0.00,60.00,Wednesday
7,-8.3
545,19.77051145025476
546,0.32662088907087883
547,9.511010797282486
548,33.3909996516441
720,462.5442180227583
721,462.5442180227583
784,0.0
785,0.0
848,0.0
849,0.0
1121,756.173211099138
1135,304.6201607530932
1161,8.158996291388036
1163,161.7708804415923
1166,0.0
1168,0.0
2,3, 1,29, 0,20, 0.00,60.00,Wednesday
7,-9.4
545,19.70698703596017
546,-3.175796732770527
547,9.601774247526821
548,62.32227215885932
720,948.6279669478445
721,948.6279669478445
784,0.0
785,0.0
848,0.0
849,0.0
1121,1393.3652482626715
1135,556.7532755388802
1161,15.991135657944408
1163,128.53689030869364
1166,0.0
1168,0.0
2,3, 1,29, 0,21, 0.00,60.00,Wednesday
7,-10.6
545,19.513980731763237
546,-5.023707918067587
547,9.65279287988427
548,88.59612229437255
720,1256.7203675183682
721,1256.7203675183682
784,0.0
785,0.0
848,0.0
849,0.0
1121,1941.8570104956555
1135,782.5888710831592
1161,23.18307934711757
1163,98.25631266285562
1166,0.0
1168,0.0
2,3, 1,29, 0,22, 0.00,60.00,Wednesday
7,-11.7
545,19.417056864131766
546,-5.67068424516179
547,9.675082597196088
548,119.42289781227998
720,1601.4692412017084
721,1601.4692412017084
784,0.0
785,0.0
848,0.0
849,0.0
1121,2581.3435097656584
1135,1040.5478694238748
1161,32.70550096429129
1163,62.59434210207664
1166,0.0
1168,0.0
2,3, 1,29, 0,23, 0.00,60.00,Wednesday
7,-13.0
545,18.656743856600084
546,-6.902872110462905
547,9.656050854398655
548,143.70941992562325
720,1820.6377524883083
721,1820.6377524883083
784,0.0
785,0.0
848,0.0
849,0.0
1121,3061.293793372714
1135,1243.2994771723868
1161,29.90556730852449
1163,35.039437272426625
1166,0.0
1168,0.0
2,3, 1,29, 0,24, 0.00,60.00,Wednesday
7,-13.3
545,18.50792623110819
546,-7.082102445093976
547,9.60458395571151
548,176.41251505005013
720,2609.311537947631
721,2609.311537947631
784,0.0
785,0.0
848,0.0
849,0.0
1121,3813.8675190644817
1135,1479.1581283041526
1161,38.83762184989539
1163,0.0
1166,498.6703545602295
1168,498.6703545602295
2,4, 1,30, 0, 1, 0.00,60.00,Thursday
7,-15.6
545,18.53645897795773
546,-8.059299248642745
547,9.50257137039228
548,176.41251505005013
720,3571.41131375634
721,3571.41131375634
784,0.0
785,0.0
848,0.0
849,0.0
1121,3568.6334445504103
1135,1452.532265443077
1161,29.968853477837115
1163,0.0
1166,1926.2625210808708
1168,1926.2625210808708
2,4, 1,30, 0, 2, 0.00,60.00,Thursday
7,-14.4
545,18.558776017781764
546,-8.407420070855988
547,9.437063957181719
548,176.41251505005013
720,3877.748407052921
721,3877.748407052921
784,0.0
785,0.0
848,0.0
849,0.0
1121,3701.185010903519
1135,1466.8390177532315
1161,33.24826114557454
1163,0.0
1166,2231.755191031549
1168,2231.755191031549
2,4, 1,30, 0, 3, 0.00,60.00,Thursday
7,-16.1
545,18.558438900603164
546,-9.384190237604576
547,9.3299886053314
548,176.41251505005013
720,4499.509992211533
721,4499.509992211533
784,0.0
785,0.0
848,0.0
849,0.0
1121,3528.4734175002486
1135,1454.0844022363226
1161,23.27528709710106
1163,0.0
1166,3163.241482213937
1168,3163.241482213937
2,4, 1,30, 0, 4, 0.00,60.00,Thursday
7,-16.7
545,18.5577399425618
546,-9.361166980322627
547,9.230767984541691
548,176.41251505005013
720,4829.047765815159
721,4829.047765815159
784,0.0
785,0.0
848,0.0
849,0.0
1121,3463.3280376157213
1135,1446.687074336692
1161,21.60627868112543
1163,0.0
1166,3677.8087111943423
1168,3677.8087111943423
2,4, 1,30, 0, 5, 0.00,60.00,Thursday
7,-18.0
545,18.559946142899765
546,-9.935819256325223
547,9.118214453114511
548,176.41251505005013
720,5102.899909929398
721,5102.899909929398
784,0.0
785,0.0
848,0.0
849,0.0
1121,3318.7495154797784
1135,1427.9495444505026
1161,19.96999266822398
1163,0.0
1166,4158.428416205121
1168,4158.428416205121
2,4, 1,30, 0, 6, 0.00,60.00,Thursday
7,-17.8
545,19.328974294025087
546,-10.00248549307708
547,9.016803900646481
548,176.41251505005013
720,6226.847988807071
721,6226.847988807071
784,0.0
785,0.0
848,0.0
849,0.0
1121,3344.9367938102173
1135,1432.477849409614
1161,18.76148616398628
1163,0.0
1166,5471.724993408879
1168,5471.724993408879
2,4, 1,30, 0, 7, 0.00,60.00,Thursday
7,-18.3
545,19.571324606775864
546,-10.382799750954959
547,8.943158368139873
548,176.41251505005013
720,6043.527380604219
721,6043.527380604219
784,0.0
785,0.0
848,0.0
849,0.0
1121,3274.5653109428845
1135,1444.7978599925661
1161,16.713139906844855
1163,0.0
1166,5422.849574224354
1168,5422.849574224354
2,4, 1,30, 0, 8, 0.00,60.00,Thursday
7,-15.6
545,19.668349423808966
546,-9.909720396716487
547,8.864122328471066
548,176.41251505005013
720,4985.743821164595
721,4985.743821164595
784,0.0
785,0.0
848,0.0
849,0.0
1121,3558.3435750790986
1135,1484.9802371739547
1161,24.666297071207538
1163,0.0
1166,3960.234965573772
1168,3960.234965573772
2,4, 1,30, 0, 9, 0.00,60.00,Thursday
7,-11.1
545,19.72659929638083
546,-5.731658671899654
547,8.805986551222958
548,176.41251505005013
720,3483.450177995257
721,3483.450177995257
784,0.0
785,0.0
848,0.0
849,0.0
1121,4090.840739047976
1135,1547.2606057652013
1161,30.866732910868933
1163,0.0
1166,1659.35318235343
1168,1659.35318235343
2,4, 1,30, 0,10, 0.00,60.00,Thursday
7,-7.2
545,19.88979315454762
546,0.8491809896100226
547,8.71478731195828
548,154.61182203837748
720,2197.9524972442505
721,2197.9524972442505
784,0.0
785,0.0
848,0.0
849,0.0
1121,3992.3645372987708
1135,1418.133150165708
1161,23.534603774297477
1163,23.759647494624623
1166,0.0
1168,0.0
2,4, 1,30, 0,11, 0.00,60.00,Thursday
7,-4.0
545,20.128752684270022
546,7.223582106274754
547,8.52391622294986
548,78.71127913841617
720,1198.7571710594239
721,1198.7571710594239
784,0.0
785,0.0
848,0.0
849,0.0
1121,2144.316321951788
1135,751.1648951033694
1161,4.992736712375871
1163,110.62191694342111
1166,0.0
1168,0.0
2,4, 1,30, 0,12, 0.00,60.00,Thursday
7,-4.4
545,19.919752756345346
546,12.770520980971028
547,8.45803711580735
548,39.13860658559553
720,608.4241978844329
721,608.4241978844329
784,0.0
785,0.0
848,0.0
849,0.0
1121,1022.1004440547229
1135,372.82793945977977
1161,3.5326643937368227
1163,155.52214582556357
1166,0.0
1168,0.0
2,4, 1,30, 0,13, 0.00,60.00,Thursday
7,0.6
545,20.00402840651363
546,16.21536290104143
547,8.410557746109216
548,6.198780319944909
720,84.55172926327396
721,84.55172926327396
784,0.0
785,0.0
848,0.0
849,0.0
1121,184.7892086864333
1135,62.044329933846356
1161,0.002986091959473592
1163,192.97235901484035
1166,0.0
1168,0.0
2,4, 1,30, 0,14, 0.00,60.00,Thursday
7,2.2
545,20.455157342997012
546,18.992485195606157
547,8.45447172765129
548,0.0
720,-354.2357494352691
721,-354.2357494352691
784,0.0
785,0.0
848,0.0
849,0.0
1121,0.0
1135,0.0
1161,0.0
1163,200.0
1166,0.0
1168,0.0
2,4, 1,30, 0,15, 0.00,60.00,Thursday
7,2.8
545,20.709208177677972
546,17.90246049466151
547,8.52034668396336
548,0.0
720,-663.7742719544112
721,-663.7742719544112
784,0.0
785,0.0
848,0.0
849,0.0
1121,0.0
1135,0.0
1161,0.0
1163,200.0
1166,0.0
1168,0.0
2,4, 1,30, 0,16, 0.00,60.00,Thursday
7,2.2
545,21.330910165869952