Program Version,EnergyPlus, Version 22.2.0-c249759bad, YMD=2023.09.01 14:31
1,5,Environment Title[],Latitude[deg],Longitude[deg],Time Zone[],Elevation[m]
2,8,Day of Simulation[],Month[],Day of Month[],DST Indicator[1=yes 0=no],Hour[],StartMinute[],EndMinute[],DayType
3,5,Cumulative Day of Simulation[],Month[],Day of Month[],DST Indicator[1=yes 0=no],DayType  ! When Daily Report Variables Requested
4,2,Cumulative Days of Simulation[],Month[]  ! When Monthly Report Variables Requested
5,1,Cumulative Days of Simulation[] ! When Run Period Report Variables Requested
6,1,Calendar Year of Simulation[] ! When Annual Report Variables Requested
7,1,Environment,Site Outdoor Air Drybulb Temperature [C] !Hourly
619,1,DX_HEATING_COIL,Heating Coil Heating Rate [W] !Hourly
633,1,DX_HEATING_COIL,Heating Coil Electricity Rate [W] !Hourly
659,1,DX_HEATING_COIL,Heating Coil Defrost Electricity Rate [W] !Hourly
661,1,DX_HEATING_COIL,Heating Coil Crankcase Heater Electricity Rate [W] !Hourly
690,1,FAN,Fan Electricity Rate [W] !Hourly
716,1,HEAT PUMP WATER HEATER FAN,Fan Electricity Rate [W] !Hourly
718,1,LIVING,Zone Mean Air Temperature [C] !Hourly
719,1,ATTIC,Zone Mean Air Temperature [C] !Hourly
720,1,CRAWLSPACE,Zone Mean Air Temperature [C] !Hourly
843,1,LIVING,Zone Predicted Sensible Load to Heating Setpoint Heat Transfer Rate [W] !Hourly
844,1,LIVING,Zone System Predicted Sensible Load to Heating Setpoint Heat Transfer Rate [W] !Hourly
907,1,ATTIC,Zone Predicted Sensible Load to Heating Setpoint Heat Transfer Rate [W] !Hourly
908,1,ATTIC,Zone System Predicted Sensible Load to Heating Setpoint Heat Transfer Rate [W] !Hourly
971,1,CRAWLSPACE,Zone Predicted Sensible Load to Heating Setpoint Heat Transfer Rate [W] !Hourly
972,1,CRAWLSPACE,Zone System Predicted Sensible Load to Heating Setpoint Heat Transfer Rate [W] !Hourly
1195,1,HEATING_RESISTANCE_BACKUP,Heating Coil Heating Rate [W] !Hourly
1197,1,HEATING_RESISTANCE_BACKUP,Heating Coil Electricity Rate [W] !Hourly
End of Data Dictionary
1,EXTREME_WINTER,  45.63, -89.48,  -6.00, 495.00
2,1, 1,18, 0, 1, 0.00,60.00,Monday
7,-19.4
718,18.62050762567092
719,-14.538609721526413
720,16.62262282715623
619,2443.5700029866753
633,1096.5921171019236
659,3.3531314613905243
661,0.0
690,135.02790973914645
716,0.0
843,5517.405467644221
844,5517.405467644221
907,0.0
908,0.0
971,0.0
972,0.0
1195,5951.838690542279
1197,5951.838690542279
2,1, 1,18, 0, 2, 0.00,60.00,Monday
7,-19.4
718,18.59666178240164
719,-13.482973342192269
720,15.992251598481095
619,2443.9725621537473
633,1096.2335753873942
659,3.3514632330856258
661,0.0
690,135.02790973914645
716,0.0
843,5711.593027212239
844,5711.593027212239
907,0.0
908,0.0
971,0.0
972,0.0
1195,6052.141392002876
1197,6052.141392002876
2,1, 1,18, 0, 3, 0.00,60.00,Monday
7,-20.0
718,18.597869716499837
719,-12.95815108542127
720,15.703753481122313
619,2395.267941877599
633,1087.7361928293974
659,2.937665810748711
661,0.0
690,135.02790973914645
716,0.0
843,6018.060605147251
844,6018.060605147251
907,0.0
908,0.0
971,0.0
972,0.0
1195,6458.247935722096
1197,6458.247935722096
2,1, 1,18, 0, 4, 0.00,60.00,Monday
7,-18.9
718,18.590591992595524
719,-12.015520874681641
720,15.377293579310564
619,2486.0951576729612
633,1100.4083957835853
659,4.206982555664424
661,0.0
690,135.02790973914645
716,0.0
843,6073.345907532359
844,6073.345907532359
907,0.0
908,0.0
971,0.0
972,0.0
1195,6380.237812022865
1197,6380.237812022865
2,1, 1,18, 0, 5, 0.00,60.00,Monday
7,-20.0
718,18.59718991298262
719,-12.344995806417376
720,15.086478547425864
619,2390.4734532541406
633,1084.4694133542969
659,5.131785246918855
661,0.0
690,135.02790973914645
716,0.0
843,6216.671030273992
844,6216.671030273992
907,0.0
908,0.0
971,0.0
972,0.0
1195,6637.596440714946
1197,6637.596440714946
2,1, 1,18, 0, 6, 0.00,60.00,Monday
7,-18.3
718,19.407237499914526
719,-11.429624431227737
720,14.835605672620403
619,2533.344166946276
633,1105.0137673081686
659,6.2469344643016615
661,0.0
690,135.02790973914645
716,0.0
843,7081.376166270833
844,7081.376166270833
907,0.0
908,0.0
971,0.0
972,0.0
1195,7534.619812484267
1197,7534.619812484267
2,1, 1,18, 0, 7, 0.00,60.00,Monday
7,-17.8
718,19.58625955528992
719,-10.184556387779164
720,14.624288181408252
619,2558.6913327925613
633,1124.705963491737
659,7.298453355490285
661,0.0
690,135.02790973914645
716,85.44000000000004
843,6635.543159351577
844,6635.543159351577
907,0.0
908,0.0
971,0.0
972,0.0
1195,8099.839146488897
1197,8099.839146488897
2,1, 1,18, 0, 8, 0.00,60.00,Monday
7,-17.2
718,19.65573527860094
719,-10.475103300570511
720,14.402687916901511
619,2608.1027092903287
633,1135.4000731395743
659,7.417219512437474
661,0.0
690,135.02790973914645
716,85.44000000000004
843,6356.987351357651
844,6356.987351357651
907,0.0
908,0.0
971,0.0
972,0.0
1195,7719.752503608495
1197,7719.752503608495
2,1, 1,18, 0, 9, 0.00,60.00,Monday
7,-16.7
718,19.694836006874947
719,-9.88360634065948
720,14.201401358063535
619,2648.3075396201716
633,1141.4294212822174
659,8.592258676210724
661,0.0
690,135.02790973914645
716,39.24417006896876
843,5888.739532715539
844,5888.739532715539
907,0.0
908,0.0
971,0.0
972,0.0
1195,6484.137997815602
1197,6484.137997815602
2,1, 1,18, 0,10, 0.00,60.00,Monday
7,-16.0
718,19.70959467919136
719,-8.38954997642103
720,14.01563867936802
619,2715.7006174105054
633,1152.7944046098025
659,6.963484900001041
661,0.0
690,135.02790973914645
716,0.0
843,4763.103601214443
844,4763.103601214443
907,0.0
908,0.0
971,0.0
972,0.0
1195,4517.983461157968
1197,4517.983461157968
2,1, 1,18, 0,11, 0.00,60.00,Monday
7,-14.0
718,19.72388862114015
719,-8.17297267910841
720,13.859838191972754
619,2893.45138139574
633,1174.1586198763976
659,9.49519498637823
661,0.0
690,135.02790973914645
716,0.0
843,3877.2663506644367
844,3877.2663506644367
907,0.0
908,0.0
971,0.0
972,0.0
1195,3210.0837976869047
1197,3210.0837976869047
2,1, 1,18, 0,12, 0.00,60.00,Monday
7,-13.0
718,19.7154778347323
719,-5.851245055288586
720,13.732572341349869
619,2999.833846715049
633,1190.5700219543112
659,5.988169125179261
661,0.0
690,135.02790973914645
716,0.0
843,3704.98737337676
844,3704.98737337676
907,0.0
908,0.0
971,0.0
972,0.0
1195,2870.471833165402
1197,2870.471833165402
2,1, 1,18, 0,13, 0.00,60.00,Monday
7,-13.3
718,19.718666827580115
719,-5.276445050898201
720,13.612839473255997
619,2972.3530169993232
633,1187.1172199875448
659,5.6551442738601905
661,0.0
690,135.02790973914645
716,0.0
843,3794.07461867241
844,3794.07461867241
907,0.0
908,0.0
971,0.0
972,0.0
1195,2893.7599577053015
1197,2893.7599577053015
2,1, 1,18, 0,14, 0.00,60.00,Monday
7,-13.0
718,19.709075332748405
719,-2.8974529647966447
720,13.514068232915779
619,3000.2318389451734
633,1190.1539159768458
659,5.988169125179261
661,0.0
690,135.02790973914645
716,85.44000000000004
843,3648.1113558467405
844,3648.1113558467405
907,0.0
908,0.0
971,0.0
972,0.0
1195,3697.71368011574
1197,3697.71368011574
2,1, 1,18, 0,15, 0.00,60.00,Monday
7,-14.0
718,19.719078716944594
719,-5.028037621972464
720,13.409781439633253
619,2922.6164179186044
633,1185.1281380254877
659,0.30446800568303156
661,0.0
690,135.02790973914645
716,7.587696894450228
843,3990.9499386971856
844,3990.9499386971856
907,0.0
908,0.0
971,0.0
972,0.0
1195,3119.1901521187633
1197,3119.1901521187633
2,1, 1,18, 0,16, 0.00,60.00,Monday
7,-15.0
718,19.715756075626594
719,-6.4956139404185
720,13.315582539295812
619,2828.8813959590834
633,1173.3040523184097
659,0.06504557541154594
661,0.0
690,135.02790973914645
716,0.0
843,3457.215301193086
844,3457.215301193086
907,0.0
908,0.0
971,0.0
972,0.0
1195,2580.273712071318
1197,2580.273712071318
2,1, 1,18, 0,17, 0.00,60.00,Monday
7,-16.7
718,19.71602799350993
719,-6.337615498533558
720,13.228636289978576
619,2667.1286401838265
633,1149.3637965809216
659,2.0133207932805486
661,0.0
690,135.02790973914645
716,0.0
843,3380.9406188868106
844,3380.9406188868106
907,0.0
908,0.0
971,0.0
972,0.0
1195,2745.5981832594553
1197,2745.5981832594553
2,1, 1,18, 0,18, 0.00,60.00,Monday
7,-17.8
718,19.705837571493753
719,-9.29650450405357
720,13.145177453630872
619,2564.9691131279205
633,1133.164572017575
659,3.4969705008193652
661,0.0
690,135.02790973914645
716,0.0
843,4098.267575515236
844,4098.267575515236
907,0.0
908,0.0
971,0.0
972,0.0
1195,3695.504812625777
1197,3695.504812625777
2,1, 1,18, 0,19, 0.00,60.00,Monday
7,-18.0
718,19.686952975645916
719,-9.48148967511145
720,13.05933576482678
619,2553.8090781872315
633,1132.9865137337933
659,1.2356079995216258
661,0.0
690,135.02790973914645
716,85.44000000000004
843,4195.704178435284
844,4195.704178435284
907,0.0
908,0.0
971,0.0
972,0.0
1195,5152.612692763296
1197,5152.612692763296
2,1, 1,18, 0,20, 0.00,60.00,Monday
7,-19.4
718,19.691818251704447
719,-10.690587492404296
720,12.94660066983472
619,2435.8706975076834
633,1115.0598752928315
659,0.06504557541154594
661,0.0
690,135.02790973914645
716,85.44000000000004
843,4555.459646261374
844,4555.459646261374
907,0.0
908,0.0
971,0.0
972,0.0
1195,5750.441890838707
1197,5750.441890838707
2,1, 1,18, 0,21, 0.00,60.00,Monday
7,-21.1
718,19.68542960645643
719,-12.188425436808505
720,12.821091338694684
619,2292.993069120673
633,1091.1596453014486
659,0.06504557541154594
661,0.0
690,135.02790973914645
716,83.89163542228499
843,5042.704617437523
844,5042.704617437523
907,0.0
908,0.0
971,0.0
972,0.0
1195,6516.568421715525
1197,6516.568421715525
2,1, 1,18, 0,22, 0.00,60.00,Monday
7,-22.2
718,19.695538377168624
719,-14.473415313025017
720,12.685074955789624
619,2203.5765798572397
633,1074.92909355616
659,0.06504557541154594
661,0.0
690,135.02790973914645
716,0.0
843,5683.776310751167
844,5683.776310751167
907,0.0
908,0.0
971,0.0
972,0.0
1195,6316.228483779805
1197,6316.228483779805
2,1, 1,18, 0,23, 0.00,60.00,Monday
7,-23.3
718,18.90000216845864
719,-14.88513669393585
720,12.543078722312886
619,2115.9985497230327
633,1058.541413994213
659,0.06504557541154594
661,0.0
690,135.02790973914645
716,0.0
843,5011.509053633963
844,5011.509053633963
907,0.0
908,0.0
971,0.0
972,0.0
1195,5750.072232983774
1197,5750.072232983774
2,1, 1,18, 0,24, 0.00,60.00,Monday
7,-23.9
718,18.66992113362066
719,-16.041555433064996
720,12.357263383853372
619,2084.4583436682565
633,1037.6860692442908
659,0.06504557541154594
661,0.0
690,135.02790973914645
716,0.0
843,5788.423933817598
844,5788.423933817598
907,0.0
908,0.0
971,0.0
972,0.0
1195,6656.565878475289
1197,6656.565878475289
2,2, 1,19, 0, 1, 0.00,60.00,Tuesday
7,-24.4
718,18.60996292892604
719,-16.474086145745858
720,12.192902916998683
619,2050.4206503106357
633,1026.7916986472544
659,0.06504557541154594
661,0.0
690,135.02790973914645
716,0.0
843,6493.869886393732
844,6493.869886393732
907,0.0
908,0.0
971,0.0
972,0.0
1195,7638.021622510767
1197,7638.021622510767
2,2, 1,19, 0, 2, 0.00,60.00,Tuesday
7,-25.6
718,18.5833771160743
719,-18.094286667064296
720,12.012944657280785
619,1960.3774870650432
633,1007.5082838404611
659,0.34790529214547
661,0.0
690,135.02790973914645
716,0.0
843,7218.6232352182
844,7218.6232352182
907,0.0
908,0.0
971,0.0
972,0.0
1195,8598.668119734391
1197,8598.668119734391
2,2, 1,19, 0, 3, 0.00,60.00,Tuesday
7,-26.1
718,18.587557001842658
719,-17.74931079368458
720,11.842488870957972
619,1922.8262438309648
633,998.7777172303906
659,0.9270089953008627
661,0.0
690,135.02790973914645
716,0.0
843,7479.307446569061
844,7479.307446569061
907,0.0
908,0.0
971,0.0
972,0.0
1195,9094.731921408707
1197,9094.731921408707
2,2, 1,19, 0, 4, 0.00,60.00,Tuesday
7,-26.7
718,18.57727065257624
719,-18.696788670726345
720,11.663020783776568
619,1879.5032086199171
633,989.6523656665659
659,0.7305196901914293
661,0.0
690,135.02790973914645
716,0.0
843,7854.862141361486
844,7854.862141361486
907,0.0
908,0.0
971,0.0
972,0.0
1195,9535.167683886051
1197,9535.167683886051
2,2, 1,19, 0, 5, 0.00,60.00,Tuesday
7,-28.3
718,18.398930111297574
719,-18.380007203650262
720,11.48052115159289
619,1765.497776263752
633,963.8514371752486
659,1.0548251530349988
661,0.0
690,135.02790973914645
716,0.0
843,8035.722697148396
844,8035.722697148396
907,0.0
908,0.0
971,0.0
972,0.0
1195,9583.984234508896
1197,9583.984234508896
2,2, 1,19, 0, 6, 0.00,60.00,Tuesday
7,-31.1
718,17.936638442879637
719,-19.742240891649168
720,11.278772532844211
619,1582.4054838657503
633,916.8973504080502
659,0.17765100113665513
661,0.0
690,135.02790973914645
716,0.0
843,9903.032057542598
844,9903.032057542598
907,0.0
908,0.0
971,0.0
972,0.0
1195,9583.984234508896
1197,9583.984234508896
2,2, 1,19, 0, 7, 0.00,60.00,Tuesday
7,-31.7
718,17.186652389475245
719,-21.155629430737587
720,11.083971778583846
619,1552.288945701827
633,902.361360086657
659,0.2021602496188234
661,0.0
690,135.02790973914645
716,85.44000000000004
843,10151.769622814752
844,10151.769622814752
907,0.0
908,0.0
971,0.0
972,0.0
1195,9583.984234508896
1197,9583.984234508896
2,2, 1,19, 0, 8, 0.00,60.00,Tuesday
7,-31.7
718,16.72783960100041
719,-20.853729018850157
720,10.880555774755035
619,1565.630086688496
633,895.088448189149
659,0.2021009478698672
661,0.0
690,135.02790973914645
716,85.44000000000004
843,10280.266480684633
844,10280.266480684633
907,0.0
908,0.0
971,0.0
972,0.0
1195,9583.984234508896
1197,9583.984234508896
2,2, 1,19, 0, 9, 0.00,60.00,Tuesday
7,-28.3
718,17.135929788423315
719,-19.810245085982377
720,10.710811628324812
619,1801.4096591464981
633,942.3827452642481
659,0.06504557541154594
661,0.0
690,135.02790973914645
716,85.44000000000004
843,9468.120529345619
844,9468.120529345619
907,0.0
908,0.0
971,0.0
972,0.0
1195,9583.984234508896
1197,9583.984234508896
2,2, 1,19, 0,10, 0.00,60.00,Tuesday
7,-26.1
718,17.941970832049442
719,-18.18639972406177
720,10.56919926658253
619,1952.5072798379927
633,979.378188374078
659,0.06504557541154594
661,0.0
690,135.02790973914645
716,85.44000000000004
843,8558.941912790915
844,8558.941912790915
907,0.0
908,0.0
971,0.0
972,0.0
1195,9583.984234508896
1197,9583.984234508896
2,2, 1,19, 0,11, 0.00,60.00,Tuesday
7,-23.9
718,19.22263659507951
719,-15.161960436622639
720,10.472033926287018
619,2104.6803405743995
633,1021.813550595783
659,0.06504557541154594
661,0.0
690,135.02790973914645
716,8.062743865679073
843,7299.5754127444
844,7299.5754127444
907,0.0
908,0.0
971,0.0
972,0.0
1195,8765.278767104754
1197,8765.278767104754
2,2, 1,19, 0,12, 0.00,60.00,Tuesday
7,-22.8
718,19.576952900450912
719,-12.932955385740232
720,10.418328843124392
619,2167.258904476754
633,1056.6862882483865
659,0.06504557541154594
661,0.0
690,135.02790973914645
716,0.0
843,6282.723053959453
844,6282.723053959453
907,0.0
908,0.0
971,0.0
972,0.0
1195,7270.983149117182
1197,7270.983149117182
2,2, 1,19, 0,13, 0.00,60.00,Tuesday
7,-22.2
718,19.684485886268217
719,-10.941562112570796
720,10.358392696714244
619,2208.578667434795
633,1070.8606141299822
659,0.06504557541154594
661,0.0
690,135.02790973914645
716,0.0
843,5355.412427140855
844,5355.412427140855
907,0.0
908,0.0
971,0.0
972,0.0
1195,6039.739018140774
1197,6039.739018140774
2,2, 1,19, 0,14, 0.00,60.00,Tuesday
7,-21.1
718,19.69845899526265
719,-11.652192662036532
720,10.321195803915995
619,2296.3554444518086
633,1088.3183563361729
659,0.06504557541154594
661,0.0
690,135.02790973914645
716,0.0
843,4819.066105565013
844,4819.066105565013
907,0.0
908,0.0
971,0.0
972,0.0
1195,5169.320260684831
1197,5169.320260684831
2,2, 1,19, 0,15, 0.00,60.00,Tuesday
7,-20.6
718,19.71803668191747
719,-10.889241449296104
720,10.302288743473905
619,2337.60532594782
633,1095.6068007396107
659,0.06504557541154594
661,0.0
690,135.02790973914645
716,0.0
843,3951.859975383033
844,3951.859975383033
907,0.0
908,0.0
971,0.0
972,0.0
1195,4140.378509006861
1197,4140.378509006861
2,2, 1,19, 0,16, 0.00,60.00,Tuesday
7,-20.6
718,19.706231833070593
719,-12.383352618683478
720,10.289563537367796
619,2337.2792853927804
633,1095.8874096078077
659,0.06504557541154594
661,0.0
690,135.02790973914645
716,0.0
843,4349.12227071011
844,4349.12227071011
907,0.0
908,0.0
971,0.0
972,0.0
1195,4560.773506639371
1197,4560.773506639371
2,2, 1,19, 0,17, 0.00,60.00,Tuesday
7,-22.2
718,19.71002963835459
719,-13.690477317717733
720,10.27556106100322
619,2206.265613608396
633,1072.7449873756889
659,0.06504557541154594
661,0.0
690,135.02790973914645
716,0.0
843,4321.200179012374
844,4321.200179012374
907,0.0
908,0.0
971,0.0
972,0.0
1195,4764.767121086703
1197,4764.767121086703
2,2, 1,19, 0,18, 0.00,60.00,Tuesday
7,-22.8
718,19.696240200760823
719,-15.271034811297497
720,10.256444745595372
619,2158.1849967445673
633,1063.9430939964163
659,0.06504557541154594
661,0.0
690,135.02790973914645
716,0.0
843,5060.060484989235
844,5060.060484989235
907,0.0
908,0.0
971,0.0
972,0.0
1195,5759.162235557442
1197,5759.162235557442
2,2, 1,19, 0,19, 0.00,60.00,Tuesday
7,-25.6
718,19.6766918886422
719,-15.31756896923707
720,10.198772445289674
619,1942.892973911094
633,1020.7581345923356
659,0.06504557541154594
661,0.0
690,135.02790973914645
716,85.44000000000004
843,5731.171874044092
844,5731.171874044092
907,0.0
908,0.0
971,0.0
972,0.0
1195,7973.5136776693325
1197,7973.5136776693325
2,2, 1,19, 0,20, 0.00,60.00,Tuesday
7,-27.2
718,19.67853736792741
719,-17.124076697042682
720,10.121406425050356
619,1826.5023416630593
633,994.6704590081295
659,0.06504557541154594
661,0.0
690,135.02790973914645
716,85.44000000000004
843,6305.972188413143
844,6305.972188413143
907,0.0
908,0.0
971,0.0
972,0.0
1195,8875.593836243024
1197,8875.593836243024
2,2, 1,19, 0,21, 0.00,60.00,Tuesday
7,-28.3
718,19.674592337924636
719,-17.45817563007068
720,10.02811329327357
619,1748.899543538474
633,976.4254566751788
659,0.06504557541154594
661,0.0
690,135.02790973914645
716,85.44000000000004
843,6697.334634066108
844,6697.334634066108
907,0.0
908,0.0
971,0.0
972,0.0
1195,9583.984234508896
1197,9583.984234508896
2,2, 1,19, 0,22, 0.00,60.00,Tuesday
7,-27.8
718,19.674736472889116
719,-17.83901846987782
720,9.928804246780501
619,1784.1095092498815
633,984.6367179367982
659,0.06504557541154594
661,0.0
690,135.02790973914645
716,72.00045941901817
843,7005.48100611685
844,7005.48100611685
907,0.0
908,0.0
971,0.0
972,0.0
1195,9583.984234508896
1197,9583.984234508896
2,2, 1,19, 0,23, 0.00,60.00,Tuesday
7,-28.3
718,18.889291794261368
719,-18.078049313012713
720,9.809251846247278
619,1749.1900159393415
633,976.2469926034157
659,0.06504557541154594
661,0.0
690,135.02790973914645
716,0.0
843,6261.506335415148
844,6261.506335415148
907,0.0
908,0.0
971,0.0
972,0.0
1195,7913.550788444224
1197,7913.550788444224
2,2, 1,19, 0,24, 0.00,60.00,Tuesday
7,-28.3
718,18.657231595818793
719,-19.459056802429
720,9.64984774109141
619,1763.8108164053517
633,967.122229172871
659,0.06504557541154594
661,0.0
690,135.02790973914645
716,0.0
843,7073.496645749263
844,7073.496645749263
907,0.0
908,0.0
971,0.0
972,0.0
1195,8797.351164344398
1197,8797.351164344398
2,3, 1,20, 0, 1, 0.00,60.00,Wednesday
7,-26.7
718,18.605506971848612
719,-19.932983537787912
720,9.520112878212531
619,1882.124851079488
633,989.459140107332
659,0.06504557541154594
661,0.0
690,135.02790973914645
716,0.0
843,7575.201683504189
844,7575.201683504189
907,0.0
908,0.0
971,0.0
972,0.0
1195,9402.963464884775
1197,9402.963464884775
2,3, 1,20, 0, 2, 0.00,60.00,Wednesday
7,-27.2
718,18.463306246629116
719,-19.063801805652027
720,9.376625665737276
619,1847.1104594384772
633,980.9626773323757
659,0.06504557541154594
661,0.0
690,135.02790973914645
716,0.0
843,7900.911472196589
844,7900.911472196589
907,0.0
908,0.0
971,0.0
972,0.0
1195,9583.984234508896
1197,9583.984234508896
2,3, 1,20, 0, 3, 0.00,60.00,Wednesday
7,-28.9
718,18.045784018234766
719,-19.574600597590337
720,9.217307946722501
619,1730.385240591228
633,952.2055392837448
659,0.1479915481369305
661,0.0
690,135.02790973914645
716,0.0
843,8466.278749711368
844,8466.278749711368
907,0.0
908,0.0
971,0.0
972,0.0
1195,9583.984234508896
1197,9583.984234508896
2,3, 1,20, 0, 4, 0.00,60.00,Wednesday
7,-30.0
718,17.582490399776425
719,-20.283236097571464
720,9.051688887663625
619,1663.1282893119592
633,929.6260935505097
659,0.40984010866790693
661,0.0
690,135.02790973914645
716,0.0
843,8974.460526033254
844,8974.460526033254
907,0.0
908,0.0
971,0.0
972,0.0
1195,9583.984234508896
1197,9583.984234508896
2,3, 1,20, 0, 5, 0.00,60.00,Wednesday
7,-30.0
718,17.33152208398777
719,-20.26414889494579
720,8.89250465494425
619,1670.095216154707
633,923.7873684240418
659,1.2113509326383032
661,0.0
690,135.02790973914645
716,0.0
843,9176.822003751266
844,9176.822003751266
907,0.0
908,0.0
971,0.0
972,0.0
1195,9583.984234508896
1197,9583.984234508896
2,3, 1,20, 0, 6, 0.00,60.00,Wednesday
7,-31.7
718,16.55764042692703
719,-21.039563773089444
720,8.725670214883712
619,1565.515210999116
633,895.1537099063077
659,0.2012953638530435
661,0.0
690,135.02790973914645
716,85.44000000000004
843,11010.62942554363
844,11010.62942554363
907,0.0
908,0.0
971,0.0
972,0.0
1195,9583.984234508896
1197,9583.984234508896
2,3, 1,20, 0, 7, 0.00,60.00,Wednesday
7,-31.7
718,16.101949296713038
719,-21.055724561605093
720,8.55232141704867
619,1579.0443352326718
633,887.5114496169259
659,0.20109811477557454
661,0.0
690,135.02790973914645
716,85.44000000000004
843,11092.792072800548
844,11092.792072800548
907,0.0
908,0.0
971,0.0
972,0.0
1195,9583.984234508896
1197,9583.984234508896
2,3, 1,20, 0, 8, 0.00,60.00,Wednesday
7,-31.7
718,15.637253525627711
719,-22.208396452159548
720,8.386791302530684
619,1587.0122714733118
633,882.8833812404805
659,0.2009807883264464
661,0.0
690,135.02790973914645
716,85.44000000000004
843,11660.27732596162
844,11660.27732596162
907,0.0
908,0.0
971,0.0
972,0.0
1195,9583.984234508896
1197,9583.984234508896
2,3, 1,20, 0, 9, 0.00,60.00,Wednesday
7,-27.2
718,16.39953290541401
719,-19.688612092136438
720,8.2520404632093
619,1901.2960050276424
633,942.4176472127717
659,0.06504557541154594
661,0.0
690,135.02790973914645
716,56.63700716134348
843,10596.713421902612
844,10596.713421902612
907,0.0
908,0.0
971,0.0
972,0.0
1195,9583.984234508896
1197,9583.984234508896
2,3, 1,20, 0,10, 0.00,60.00,Wednesday
7,-25.0
718,17.911116321251257
719,-16.67411466360045
720,8.156120543496158
619,2050.828728917741
633,982.3260606142628
659,0.06504557541154594
661,0.0
690,135.02790973914645
716,0.0
843,9480.750390343708
844,9480.750390343708
907,0.0
908,0.0
971,0.0
972,0.0
1195,9583.984234508896
1197,9583.984234508896
2,3, 1,20, 0,11, 0.00,60.00,Wednesday
7,-22.8
718,19.253601387470624
719,-13.557572222754125
720,8.118441353542865
619,2194.664269083732
633,1034.270281378429
659,0.06504557541154594
661,0.0
690,135.02790973914645
716,0.0
843,7968.052637853247
844,7968.052637853247
907,0.0
908,0.0
971,0.0
972,0.0
1195,9379.668379331617
1197,9379.668379331617
2,3, 1,20, 0,12, 0.00,60.00,Wednesday
7,-21.1
718,19.590411118006745
719,-10.34479754605461
720,8.11234035763194
619,2307.3671972729685
633,1078.9409728771843
659,0.06504557541154594
661,0.0
690,135.02790973914645
716,0.0
843,6412.37665028387
844,6412.37665028387
907,0.0
908,0.0
971,0.0
972,0.0
1195,7258.024955355513
1197,7258.024955355513
2,3, 1,20, 0,13, 0.00,60.00,Wednesday
7,-19.4
718,19.692775788262875
719,-8.08188890642734
720,8.10872113972193
619,2443.896013528881
633,1107.8757164982499
659,0.06504557541154594
661,0.0
690,135.02790973914645
716,0.0
843,5150.077468823882
844,5150.077468823882
907,0.0
908,0.0
971,0.0
972,0.0
1195,5465.743040917181
1197,5465.743040917181
2,3, 1,20, 0,14, 0.00,60.00,Wednesday
7,-18.9
718,19.70611189706173
719,-8.682925721613575
720,8.121129944441186
619,2484.9777067532395
633,1116.3614675635456
659,0.06504557541154594
661,0.0
690,135.02790973914645
716,0.0
843,4356.7029431382325
844,4356.7029431382325
907,0.0
908,0.0
971,0.0
972,0.0
1195,4319.914461133593
1197,4319.914461133593
2,3, 1,20, 0,15, 0.00,60.00,Wednesday
7,-18.3
718,19.69919178043659
719,-8.803624114830106
720,8.15334278719312
619,2536.943969393362
633,1124.5772563993307
659,0.06504557541154594
661,0.0
690,135.02790973914645
716,72.52413163242184
843,3716.00195367603
844,3716.00195367603
907,0.0
908,0.0
971,0.0
972,0.0
1195,4402.432404937926
1197,4402.432404937926
2,3, 1,20, 0,16, 0.00,60.00,Wednesday
7,-18.9
718,19.700664074478027
719,-10.049646451580365
720,8.190643718082056
619,2484.7973151793326
633,1116.5256827156913
659,0.06504557541154594
661,0.0
690,135.02790973914645
716,85.44000000000004
843,3559.057810558297
844,3559.057810558297
907,0.0
908,0.0
971,0.0
972,0.0
1195,4458.38873932502
1197,4458.38873932502
2,3, 1,20, 0,17, 0.00,60.00,Wednesday
7,-20.6
718,19.708579394916047
719,-9.633761951950016
720,8.229378714834203
619,2340.164842743148
633,1093.400665444227
659,0.06504557541154594
661,0.0
690,135.02790973914645
716,19.792224690258458
843,3827.181823715153
844,3827.181823715153
907,0.0
908,0.0
971,0.0
972,0.0
1195,4202.581765124691
1197,4202.581765124691
2,3, 1,20, 0,18, 0.00,60.00,Wednesday
7,-22.8
718,19.697086417400048
719,-11.907574959171386
720,8.250555674928563
619,2160.6882308766026
633,1061.9494247790617
659,0.06504557541154594
661,0.0
690,135.02790973914645
716,0.0
843,4845.916245865421
844,4845.916245865421
907,0.0
908,0.0
971,0.0
972,0.0
1195,5319.65442918513
1197,5319.65442918513
2,3, 1,20, 0,19, 0.00,60.00,Wednesday
7,-23.9
718,19.700004247635594
719,-13.591999828029735
720,8.253387346838997
619,2074.507173881343
633,1045.337870090124
659,0.06504557541154594
661,0.0
690,135.02790973914645
716,0.0
843,5379.784051219005
844,5379.784051219005
907,0.0
908,0.0
971,0.0
972,0.0
1195,6210.124252963929
1197,6210.124252963929
2,3, 1,20, 0,20, 0.00,60.00,Wednesday
7,-25.6
718,19.68550535429192
719,-15.220751551528815
720,8.222438975027943
619,1945.2533348590507
633,1019.0888558727444
659,0.06504557541154594
661,0.0
690,135.02790973914645
716,85.44000000000004
843,5910.359468409179
844,5910.359468409179
907,0.0
908,0.0
971,0.0
972,0.0
1195,8232.671425773502
1197,8232.671425773502
2,3, 1,20, 0,21, 0.00,60.00,Wednesday
7,-25.0
718,19.681036605245076
719,-16.034650472726987
720,8.18523220904046
619,1990.5783232045737
633,1028.2520714037057
659,0.06504557541154594
661,0.0
690,135.02790973914645
716,85.44000000000004
843,6095.6080786033235
844,6095.6080786033235
907,0.0
908,0.0
971,0.0
972,0.0
1195,8556.006248871981
1197,8556.006248871981
2,3, 1,20, 0,22, 0.00,60.00,Wednesday
7,-24.4
718,19.686366673324137
719,-16.13741739053625
720,8.127916993334914
619,2036.3638422342472
633,1037.4161201317488
659,0.06504557541154594
661,0.0
690,135.02790973914645
716,59.67426404750717
843,6373.484784042801
844,6373.484784042801
907,0.0
908,0.0
971,0.0
972,0.0
1195,8408.194614467171
1197,8408.194614467171
2,3, 1,20, 0,23, 0.00,60.00,Wednesday
7,-26.1
718,18.891786687138627
719,-17.078125341573525
720,8.040983743434824
619,1908.657792362168
633,1010.8764939077059
659,0.06504557541154594
661,0.0
690,135.02790973914645
716,0.0
843,5922.760880563339
844,5922.760880563339
907,0.0
908,0.0
971,0.0
972,0.0
1195,7290.908158157801
1197,7290.908158157801
2,3, 1,20, 0,24, 0.00,60.00,Wednesday
7,-25.6
718,18.663981058162282
719,-15.98932822713001
720,7.928113393633901
619,1960.5880848249744
633,1008.0868227567306
659,0.06504557541154594
661,0.0
690,135.02790973914645
716,0.0
843,6380.189922103433
844,6380.189922103433
907,0.0
908,0.0
971,0.0
972,0.0
1195,7741.076875964829
1197,7741.076875964829
2,4, 1,21, 0, 1, 0.00,60.00,Thursday
7,-25.6
718,18.610763634221072
719,-15.914187848089943
720,7.827403484059559
619,1964.931951796155
633,1004.920943835383
659,0.06504557541154594
661,0.0
690,135.02790973914645
716,0.0
843,6916.081943158093
844,6916.081943158093
907,0.0
908,0.0
971,0.0
972,0.0
1195,8350.968225320306
1197,8350.968225320306
2,4, 1,21, 0, 2, 0.00,60.00,Thursday
7,-26.7
718,18.584810017588104
719,-15.229751687928198
720,7.716393128733263
619,1885.0570373739672
633,987.4211313022528
659,0.06504557541154594
661,0.0
690,135.02790973914645
716,0.0
843,7377.30305551411
844,7377.30305551411
907,0.0
908,0.0
971,0.0
972,0.0
1195,8942.107884609788
1197,8942.107884609788
2,4, 1,21, 0, 3, 0.00,60.00,Thursday
7,-26.7
718,18.587951557548287
719,-16.106161161660037
720,7.612510988797059
619,1884.3584170589518
633,986.3033443928581
659,0.7208580468351281
661,0.0
690,135.02790973914645
716,0.0
843,7831.132758689957
844,7831.132758689957
907,0.0
908,0.0
971,0.0
972,0.0
1195,9511.222654110774
1197,9511.222654110774
2,4, 1,21, 0, 4, 0.00,60.00,Thursday
7,-25.6
718,18.581288109617255
719,-15.508112441140995
720,7.517789609798756
619,1966.1215060552004
633,1003.3268678125191
659,0.343269053426099
661,0.0
690,135.02790973914645
716,0.0
843,7689.930644874214
844,7689.930644874214
907,0.0
908,0.0
971,0.0
972,0.0
1195,9255.211757568619
1197,9255.211757568619
2,4, 1,21, 0, 5, 0.00,60.00,Thursday
7,-25.6
718,18.591842972206795
719,-15.176534777277421
720,7.414777618842695
619,1964.7904746607608
633,1002.3600231190945
659,1.090409793869032
661,0.0
690,135.02790973914645
716,0.0
843,7625.189738884517
844,7625.189738884517
907,0.0
908,0.0
971,0.0
972,0.0
1195,9193.385059379369
1197,9193.385059379369
2,4, 1,21, 0, 6, 0.00,60.00,Thursday
7,-25.0
718,18.976457949794924
719,-15.077879297134931
720,7.321341345277891
619,2008.7030939017761
633,1010.7917211096924
659,1.5821666535647714
661,0.0
690,135.02790973914645
716,0.0
843,8736.14794618602
844,8736.14794618602
907,0.0
908,0.0
971,0.0
972,0.0
1195,9583.984234508896
1197,9583.984234508896
2,4, 1,21, 0, 7, 0.00,60.00,Thursday
7,-23.9
718,18.792340565906372
719,-14.751240135845894
720,7.249996439570435
619,2087.346223281176
633,1033.0677519397834
659,0.9059031754278954
661,0.0
690,135.02790973914645
716,85.44000000000004
843,8361.048653790363
844,8361.048653790363
907,0.0
908,0.0
971,0.0
972,0.0
1195,9583.984234508896
1197,9583.984234508896
2,4, 1,21, 0, 8, 0.00,60.00,Thursday
7,-22.8
718,18.84576576951948
719,-14.264632695281511
720,7.156748322763316
619,2179.2448518182478
633,1046.974155699315
659,0.06504557541154594
661,0.0
690,135.02790973914645
716,85.44000000000004
843,8169.163015640846
844,8169.163015640846
907,0.0
908,0.0
971,0.0
972,0.0
1195,9583.984234508896
1197,9583.984234508896
2,4, 1,21, 0, 9, 0.00,60.00,Thursday
7,-21.7
718,19.030747044404333
719,-13.053612601046197
720,7.084051903859863
619,2267.01617393188