Program Version,EnergyPlus, Version 22.2.0-c249759bad, YMD=2023.09.01 14:31
1,5,Environment Title[],Latitude[deg],Longitude[deg],Time Zone[],Elevation[m]
2,8,Day of Simulation[],Month[],Day of Month[],DST Indicator[1=yes 0=no],Hour[],StartMinute[],EndMinute[],DayType
3,5,Cumulative Day of Simulation[],Month[],Day of Month[],DST Indicator[1=yes 0=no],DayType  ! When Daily Report Variables Requested
4,2,Cumulative Days of Simulation[],Month[]  ! When Monthly Report Variables Requested
5,1,Cumulative Days of Simulation[] ! When Run Period Report Variables Requested
6,1,Calendar Year of Simulation[] ! When Annual Report Variables Requested
7,1,Environment,Site Outdoor Air Drybulb Temperature [C] !Hourly
545,1,LIVING,Zone Mean Air Temperature [C] !Hourly
546,1,ATTIC,Zone Mean Air Temperature [C] !Hourly
547,1,CRAWLSPACE,Zone Mean Air Temperature [C] !Hourly
548,1,FAN,Fan Electricity Rate [W] !Hourly
720,1,LIVING,Zone Predicted Sensible Load to Heating Setpoint Heat Transfer Rate [W] !Hourly
721,1,LIVING,Zone System Predicted Sensible Load to Heating Setpoint Heat Transfer Rate [W] !Hourly
784,1,ATTIC,Zone Predicted Sensible Load to Heating Setpoint Heat Transfer Rate [W] !Hourly
785,1,ATTIC,Zone System Predicted Sensible Load to Heating Setpoint Heat Transfer Rate [W] !Hourly
848,1,CRAWLSPACE,Zone Predicted Sensible Load to Heating Setpoint Heat Transfer Rate [W] !Hourly
849,1,CRAWLSPACE,Zone System Predicted Sensible Load to Heating Setpoint Heat Transfer Rate [W] !Hourly
1121,1,DX_HEATING_COIL,Heating Coil Heating Rate [W] !Hourly
1135,1,DX_HEATING_COIL,Heating Coil Electricity Rate [W] !Hourly
1161,1,DX_HEATING_COIL,Heating Coil Defrost Electricity Rate [W] !Hourly
1163,1,DX_HEATING_COIL,Heating Coil Crankcase Heater Electricity Rate [W] !Hourly
1166,1,HEATING_RESISTANCE_BACKUP,Heating Coil Heating Rate [W] !Hourly
1168,1,HEATING_RESISTANCE_BACKUP,Heating Coil Electricity Rate [W] !Hourly
End of Data Dictionary
1,EXTREME_WINTER,  33.63, -84.44,  -5.00, 307.90
2,1, 2,10, 0, 1, 0.00,60.00,Monday
7,6.7
545,19.021448201566685
546,4.956497035838891
547,19.147824250751036
548,11.508415697001709
720,379.3489370795796
721,379.3489370795796
784,0.0
785,0.0
848,0.0
849,0.0
1121,463.2341020693352
1135,126.13965891037734
1161,0.0
1163,185.04726988477097
1166,0.0
1168,0.0
2,1, 2,10, 0, 2, 0.00,60.00,Monday
7,5.6
545,18.303191362936445
546,5.550124052727354
547,18.846741358070016
548,9.242351233972414
720,279.975934641956
721,279.975934641956
784,0.0
785,0.0
848,0.0
849,0.0
1121,360.6111105805721
1135,100.89597425974061
1161,0.0
1163,187.99153703947727
1166,0.0
1168,0.0
2,1, 2,10, 0, 3, 0.00,60.00,Monday
7,4.4
545,18.543593144983486
546,5.2863573868918925
547,18.65478781530694
548,31.634611971155927
720,755.5589631285384
721,755.5589631285384
784,0.0
785,0.0
848,0.0
849,0.0
1121,936.434978195846
1135,282.6963682470305
1161,27.31319702193175
1163,158.6969178177429
1166,0.0
1168,0.0
2,1, 2,10, 0, 4, 0.00,60.00,Monday
7,5.6
545,18.695029798483112
546,5.4145388532459195
547,18.49114551927556
548,30.14080662272725
720,954.536386721491
721,954.536386721491
784,0.0
785,0.0
848,0.0
849,0.0
1121,1196.6176759616078
1135,325.9087766381037
1161,0.0
1163,160.83845433195765
1166,0.0
1168,0.0
2,1, 2,10, 0, 5, 0.00,60.00,Monday
7,5.6
545,18.654648681269563
546,4.92757939851856
547,18.33917182147179
548,27.74285223761995
720,861.3383397829839
721,861.3383397829839
784,0.0
785,0.0
848,0.0
849,0.0
1121,1098.7811026471993
1135,300.8152867649526
1161,0.0
1163,163.95408429295054
1166,0.0
1168,0.0
2,1, 2,10, 0, 6, 0.00,60.00,Monday
7,5.6
545,19.483187784792033
546,5.659647180110116
547,18.18578367697065
548,51.128077921813976
720,1655.8815999750113
721,1655.8815999750113
784,0.0
785,0.0
848,0.0
849,0.0
1121,2060.5752491046946
1135,553.8280895801777
1161,0.0
1163,133.56997430372104
1166,0.0
1168,0.0
2,1, 2,10, 0, 7, 0.00,60.00,Monday
7,5.6
545,19.677735443845688
546,5.9635695619275735
547,18.0733772289145
548,49.08131723582527
720,1535.7501619267987
721,1535.7501619267987
784,0.0
785,0.0
848,0.0
849,0.0
1121,1967.9292419301348
1135,540.0056005065047
1161,0.0
1163,136.22930300315477
1166,0.0
1168,0.0
2,1, 2,10, 0, 8, 0.00,60.00,Monday
7,6.0
545,19.75827020453902
546,5.919281457071233
547,17.960081313603116
548,41.28977692586725
720,1279.9317313224692
721,1279.9317313224692
784,0.0
785,0.0
848,0.0
849,0.0
1121,1661.412640553307
1135,457.8208968482857
1161,0.0
1163,146.3527467945607
1166,0.0
1168,0.0
2,1, 2,10, 0, 9, 0.00,60.00,Monday
7,7.0
545,19.756728353744982
546,6.609509953093984
547,17.856892590258663
548,37.13077528664096
720,1180.2545035219719
721,1180.2545035219719
784,0.0
785,0.0
848,0.0
849,0.0
1121,1526.9815885833032
1135,416.6846870124835
1161,0.0
1163,151.75648182616436
1166,0.0
1168,0.0
2,1, 2,10, 0,10, 0.00,60.00,Monday
7,7.8
545,19.69330031783225
546,8.382109181755306
547,17.759559653132712
548,30.03370336617691
720,967.6999913902819
721,967.6999913902819
784,0.0
785,0.0
848,0.0
849,0.0
1121,1253.4933022805858
1135,339.9794015811109
1161,0.0
1163,160.9776121562685
1166,0.0
1168,0.0
2,1, 2,10, 0,11, 0.00,60.00,Monday
7,7.8
545,19.580087596798244
546,9.231323221591792
547,17.669662665470817
548,30.11738151009572
720,995.1494030691993
721,995.1494030691993
784,0.0
785,0.0
848,0.0
849,0.0
1121,1257.4302866381265
1135,340.4947605828399
1161,0.0
1163,160.8688902665224
1166,0.0
1168,0.0
2,1, 2,10, 0,12, 0.00,60.00,Monday
7,7.8
545,19.69796360721591
546,10.486547107922913
547,17.590863079962368
548,28.612761793740795
720,952.1605637422817
721,952.1605637422817
784,0.0
785,0.0
848,0.0
849,0.0
1121,1193.895611382153
1135,322.7847280853808
1161,0.0
1163,162.8238224776146
1166,0.0
1168,0.0
2,1, 2,10, 0,13, 0.00,60.00,Monday
7,7.8
545,19.734954775371165
546,11.155416357682483
547,17.523931120897483
548,22.024480983288395
720,726.5474253423672
721,726.5474253423672
784,0.0
785,0.0
848,0.0
849,0.0
1121,914.1474522552934
1135,248.9918311667525
1161,0.0
1163,171.3838873445539
1166,0.0
1168,0.0
2,1, 2,10, 0,14, 0.00,60.00,Monday
7,9.4
545,19.90645345199451
546,13.062761821352678
547,17.469292997149857
548,14.463621891212927
720,492.2983511114344
721,492.2983511114344
784,0.0
785,0.0
848,0.0
849,0.0
1121,620.9087592736098
1135,166.67499575967776
1161,0.0
1163,181.20761012444396
1166,0.0
1168,0.0
2,1, 2,10, 0,15, 0.00,60.00,Monday
7,9.4
545,19.97863424935433
546,15.081023551685764
547,17.423195673948964
548,1.3922206742919758
720,28.60255088206577
721,28.60255088206577
784,0.0
785,0.0
848,0.0
849,0.0
1121,59.16558380054501
1135,16.093440953508285
1161,0.0
1163,198.19110635628553
1166,0.0
1168,0.0
2,1, 2,10, 0,16, 0.00,60.00,Monday
7,8.9
545,19.832972724727426
546,14.083652787321201
547,17.39311500359895
548,0.0
720,-208.53953264788652
721,-208.53953264788652
784,0.0
785,0.0
848,0.0
849,0.0
1121,0.0
1135,0.0
1161,0.0
1163,200.0
1166,0.0
1168,0.0
2,1, 2,10, 0,17, 0.00,60.00,Monday
7,9.0
545,20.266148149162323
546,13.644506992791046
547,17.375666440863224
548,0.0
720,-329.747230209201
721,-329.747230209201
784,0.0
785,0.0
848,0.0
849,0.0
1121,0.0
1135,0.0
1161,0.0
1163,200.0
1166,0.0
1168,0.0
2,1, 2,10, 0,18, 0.00,60.00,Monday
7,6.1
545,19.932994122062347
546,11.059990319599624
547,17.3614457456668
548,0.0
720,-129.48538892760735
721,-129.48538892760735
784,0.0
785,0.0
848,0.0
849,0.0
1121,0.0
1135,0.0
1161,0.0
1163,200.0
1166,0.0
1168,0.0
2,1, 2,10, 0,19, 0.00,60.00,Monday
7,6.1
545,19.968678750470712
546,9.16917828844213
547,17.347816625025118
548,0.0
720,-180.58475271853058
721,-180.58475271853058
784,0.0
785,0.0
848,0.0
849,0.0
1121,0.0
1135,0.0
1161,0.0
1163,200.0
1166,0.0
1168,0.0
2,1, 2,10, 0,20, 0.00,60.00,Monday
7,4.0
545,19.716619800471797
546,7.301720110414033
547,17.32526359157778
548,4.629659167566084
720,107.29993424849454
721,107.29993424849454
784,0.0
785,0.0
848,0.0
849,0.0
1121,137.23012162401687
1135,44.13299674490088
1161,2.8757142685198214
1163,193.96110398248777
1166,0.0
1168,0.0
2,1, 2,10, 0,21, 0.00,60.00,Monday
7,4.4
545,19.903041833643794
546,6.536179273299054
547,17.292790344233346
548,7.912436166952273
720,191.17668270767172
721,191.17668270767172
784,0.0
785,0.0
848,0.0
849,0.0
1121,241.4432132238243
1135,76.41688753802704
1161,4.140748948704788
1163,189.6904144531457
1166,0.0
1168,0.0
2,1, 2,10, 0,22, 0.00,60.00,Monday
7,4.4
545,19.788921726194957
546,6.050791736494242
547,17.24948984187566
548,9.920709088854355
720,232.16005166125433
721,232.16005166125433
784,0.0
785,0.0
848,0.0
849,0.0
1121,299.82292574306405
1135,95.21074479619058
1161,5.847128332788088
1163,187.0686743632251
1166,0.0
1168,0.0
2,1, 2,10, 0,23, 0.00,60.00,Monday
7,4.4
545,19.0285544682188
546,5.55887273455359
547,17.194339713032104
548,0.0
720,-180.32842342605363
721,-180.32842342605363
784,0.0
785,0.0
848,0.0
849,0.0
1121,0.0
1135,0.0
1161,0.0
1163,200.0
1166,0.0
1168,0.0
2,1, 2,10, 0,24, 0.00,60.00,Monday
7,4.0
545,18.61145108529282
546,5.228782146029654
547,17.130934582249033
548,8.778630340184764
720,193.69750648176523
721,193.69750648176523
784,0.0
785,0.0
848,0.0
849,0.0
1121,257.0231237587668
1135,80.63713251413775
1161,6.548060628533159
1163,188.53942536446297
1166,0.0
1168,0.0
2,2, 2,11, 0, 1, 0.00,60.00,Tuesday
7,3.9
545,18.60703146954549
546,5.154212444328023
547,17.0588726383948
548,23.325658803318614
720,552.7866622409911
721,552.7866622409911
784,0.0
785,0.0
848,0.0
849,0.0
1121,695.2459953592997
1135,213.96893037489946
1161,16.228424324988076
1163,169.55470607012396
1166,0.0
1168,0.0
2,2, 2,11, 0, 2, 0.00,60.00,Tuesday
7,3.0
545,18.418781953497824
546,4.939068307008693
547,16.980915768640088
548,36.60322126604682
720,808.8172342613434
721,808.8172342613434
784,0.0
785,0.0
848,0.0
849,0.0
1121,1037.7478984473973
1135,321.9878009793943
1161,33.863703631114085
1163,152.05312938220408
1166,0.0
1168,0.0
2,2, 2,11, 0, 3, 0.00,60.00,Tuesday
7,3.3
545,18.510337355380656
546,4.998509957006593
547,16.897331496425767
548,53.670823727014984
720,1209.8731991958302
721,1209.8731991958302
784,0.0
785,0.0
848,0.0
849,0.0
1121,1556.1119671640868
1135,471.84235821814116
1161,49.29172687292868
1163,129.74522562616815
1166,0.0
1168,0.0
2,2, 2,11, 0, 4, 0.00,60.00,Tuesday
7,4.4
545,18.672561043107926
546,5.435719432855316
547,16.824760095675426
548,59.993729515951344
720,1358.531396843835
721,1358.531396843835
784,0.0
785,0.0
848,0.0
849,0.0
1121,1772.921832656586
1135,525.9298359274651
1161,59.96016010642549
1163,121.6007073489997
1166,0.0
1168,0.0
2,2, 2,11, 0, 5, 0.00,60.00,Tuesday
7,4.4
545,18.375943655701892
546,5.522854620720391
547,16.745380218326993
548,62.60011228388328
720,1429.5163319426265
721,1429.5163319426265
784,0.0
785,0.0
848,0.0
849,0.0
1121,1876.2738035988552
1135,557.2864133458291
1161,57.65354622614457
1163,118.23661850495361
1166,0.0
1168,0.0
2,2, 2,11, 0, 6, 0.00,60.00,Tuesday
7,3.9
545,19.302440258312508
546,5.514460504042261
547,16.65516075664349
548,106.51278865734767
720,2571.6003015084316
721,2571.6003015084316
784,0.0
785,0.0
848,0.0
849,0.0
1121,3279.1525690754324
1135,943.000133793334
1161,95.16247479789973
1163,60.77287744767739
1166,0.0
1168,0.0
2,2, 2,11, 0, 7, 0.00,60.00,Tuesday
7,3.9
545,19.600537638469923
546,5.571173831371831
547,16.617526536850196
548,107.60219566925412
720,2490.9339196678484
721,2490.9339196678484
784,0.0
785,0.0
848,0.0
849,0.0
1121,3301.7035869021765
1135,969.6475445318472
1161,96.13820677227233
1163,59.34533622974774
1166,0.0
1168,0.0
2,2, 2,11, 0, 8, 0.00,60.00,Tuesday
7,3.3
545,19.70213874740608
546,5.034904950613117
547,16.546232831102206
548,101.6809231692242
720,2273.5573325264013
721,2273.5573325264013
784,0.0
785,0.0
848,0.0
849,0.0
1121,3070.593095860578
1135,922.1899969005418
1161,87.46678045040096
1163,66.96620997041049
1166,0.0
1168,0.0
2,2, 2,11, 0, 9, 0.00,60.00,Tuesday
7,2.8
545,19.666828386700796
546,4.821582762353407
547,16.480277222017843
548,105.1397287533536
720,2325.562566512912
721,2325.562566512912
784,0.0
785,0.0
848,0.0
849,0.0
1121,3154.8158009986937
1135,955.7530274791172
1161,87.63681172344738
1163,62.343967327751805
1166,0.0
1168,0.0
2,2, 2,11, 0,10, 0.00,60.00,Tuesday
7,3.0
545,19.779423477367747
546,4.7996054990068835
547,16.40990185748412
548,95.59278286811148
720,2092.6703063430523
721,2092.6703063430523
784,0.0
785,0.0
848,0.0
849,0.0
1121,2871.040094639249
1135,872.0831774824418
1161,77.8773263795721
1163,74.91416551747227
1166,0.0
1168,0.0
2,2, 2,11, 0,11, 0.00,60.00,Tuesday
7,2.8
545,19.67022212021148
546,5.256260176420861
547,16.34804382162425
548,96.48968516701801
720,2099.3084942754376
721,2099.3084942754376
784,0.0
785,0.0
848,0.0
849,0.0
1121,2874.965764991311
1135,878.3821880536855
1161,80.4130557914002
1163,73.66904670059591
1166,0.0
1168,0.0
2,2, 2,11, 0,12, 0.00,60.00,Tuesday
7,2.8
545,19.812163350467365
546,5.419067165712246
547,16.278951203656945
548,88.49648591329486
720,1912.5539858220673
721,1912.5539858220673
784,0.0
785,0.0
848,0.0
849,0.0
1121,2621.8305091259112
1135,803.8566167807384
1161,73.77689012064427
1163,84.13440835227202
1166,0.0
1168,0.0
2,2, 2,11, 0,13, 0.00,60.00,Tuesday
7,2.8
545,19.759022585354284
546,5.404326981175433
547,16.221988305264414
548,82.18105451540431
720,1765.913201722513
721,1765.913201722513
784,0.0
785,0.0
848,0.0
849,0.0
1121,2421.3633126423733
1135,748.5278594697766
1161,68.51224685277677
1163,92.40245822599537
1166,0.0
1168,0.0
2,2, 2,11, 0,14, 0.00,60.00,Tuesday
7,2.8
545,19.666923648920232
546,5.465013732967833
547,16.163173595757264
548,81.85740592564528
720,1771.4218109459143
721,1771.4218109459143
784,0.0
785,0.0
848,0.0
849,0.0
1121,2411.527876142495
1135,744.6666360428076
1161,68.31450301201976
1163,92.82544601416826
1166,0.0
1168,0.0
2,2, 2,11, 0,15, 0.00,60.00,Tuesday
7,2.8
545,19.62978555733918
546,5.523984398017821
547,16.110271434140667
548,87.59655122724836
720,1922.2906054590203
721,1922.2906054590203
784,0.0
785,0.0
848,0.0
849,0.0
1121,2593.226296989806
1135,795.3934534089541
1161,73.09121297011914
1163,85.31184676721482
1166,0.0
1168,0.0
2,2, 2,11, 0,16, 0.00,60.00,Tuesday
7,2.2
545,19.81585171624323
546,5.115668838792508
547,16.058083273669034
548,86.6825746017683
720,1852.30007816127
721,1852.30007816127
784,0.0
785,0.0
848,0.0
849,0.0
1121,2516.440388783945
1135,780.6432392457335
1161,74.20975454869846
1163,86.34755334381995
1166,0.0
1168,0.0
2,2, 2,11, 0,17, 0.00,60.00,Tuesday
7,2.2
545,19.659923938591742
546,4.647373826700249
547,16.01146907303495
548,80.66205302532232
720,1690.5753777207901
721,1690.5753777207901
784,0.0
785,0.0
848,0.0
849,0.0
1121,2329.043933587282
1135,729.1119527399684
1161,69.00771488894225
1163,94.24117703447261
1166,0.0
1168,0.0
2,2, 2,11, 0,18, 0.00,60.00,Tuesday
7,2.0
545,19.673678401290253
546,4.144366632056299
547,15.95724429242597
548,80.4545588433367
720,1674.5768809028177
721,1674.5768809028177
784,0.0
785,0.0
848,0.0
849,0.0
1121,2306.953305061942
1135,722.4368865747867
1161,70.00359480151047
1163,94.45204770812576
1166,0.0
1168,0.0
2,2, 2,11, 0,19, 0.00,60.00,Tuesday
7,2.2
545,19.771502784073974
546,3.959355288134389
547,15.90808443262645
548,72.42267369830351
720,1524.523660501991
721,1524.523660501991
784,0.0
785,0.0
848,0.0
849,0.0
1121,2120.641819588653
1135,664.7955212431654
1161,52.99166233893832
1163,105.18205921664409
1166,0.0
1168,0.0
2,2, 2,11, 0,20, 0.00,60.00,Tuesday
7,2.0
545,19.816206076460404
546,3.531452162097703
547,15.855930440341421
548,65.51829298668785
720,1343.1169075277066
721,1343.1169075277066
784,0.0
785,0.0
848,0.0
849,0.0
1121,1887.626896681062
1135,598.7576564338966
1161,50.13291760650947
1163,114.15723604300754
1166,0.0
1168,0.0
2,2, 2,11, 0,21, 0.00,60.00,Tuesday
7,2.2
545,19.72995136041075
546,3.6393985592333555
547,15.802798720492422
548,61.10702145205375
720,1260.0205312194175
721,1260.0205312194175
784,0.0
785,0.0
848,0.0
849,0.0
1121,1773.0670151022387
1135,562.523262100049
1161,44.66841907099962
1163,119.99710424134089
1166,0.0
1168,0.0
2,2, 2,11, 0,22, 0.00,60.00,Tuesday
7,1.7
545,19.707823105539678
546,3.247211138728772
547,15.748506658087097
548,70.11951520757172
720,1455.5747499987829
721,1455.5747499987829
784,0.0
785,0.0
848,0.0
849,0.0
1121,2013.2174419518612
1135,639.2588789440932
1161,53.33861544221467
1163,108.08417680172666
1166,0.0
1168,0.0
2,2, 2,11, 0,23, 0.00,60.00,Tuesday
7,2.0
545,18.731066044815837
546,3.169881737094848
547,15.676214666701815
548,44.9418987971208
720,886.39455951725
721,886.39455951725
784,0.0
785,0.0
848,0.0
849,0.0
1121,1300.8786888698226
1135,417.77265993809067
1161,28.704699579577944
1163,141.20536735016435
1166,0.0
1168,0.0
2,2, 2,11, 0,24, 0.00,60.00,Tuesday
7,1.1
545,18.633385747139492
546,2.6172950948684885
547,15.60360584589528
548,67.87836781181836
720,1413.2717073089743
721,1413.2717073089743
784,0.0
785,0.0
848,0.0
849,0.0
1121,1912.764273607307
1135,600.9379386599845
1161,54.21988284745683
1163,110.87891396332824
1166,0.0
1168,0.0
2,3, 2,12, 0, 1, 0.00,60.00,Wednesday
7,1.1
545,18.5566887431884
546,2.684927295920031
547,15.538681983753753
548,86.5980152273032
720,1826.6704658459257
721,1826.6704658459257
784,0.0
785,0.0
848,0.0
849,0.0
1121,2476.714309538599
1135,765.0751045834857
1161,69.17239753129624
1163,86.30150291741793
1166,0.0
1168,0.0
2,3, 2,12, 0, 2, 0.00,60.00,Wednesday
7,1.0
545,18.372210570851905
546,2.446125575743467
547,15.46406189311905
548,109.73897602443151
720,2392.049543558238
721,2392.049543558238
784,0.0
785,0.0
848,0.0
849,0.0
1121,3237.535364285025
1135,980.8248735869574
1161,76.91271889599082
1163,56.09677808516644
1166,0.0
1168,0.0
2,3, 2,12, 0, 3, 0.00,60.00,Wednesday
7,0.0
545,18.54415627219643
546,1.7773209705332633
547,15.382592831257153
548,124.21927457708833
720,2662.272395253727
721,2662.272395253727
784,0.0
785,0.0
848,0.0
849,0.0
1121,3646.781511153943
1135,1107.6204132290277
1161,79.5430800636126
1163,36.992948090140956
1166,0.0
1168,0.0
2,3, 2,12, 0, 4, 0.00,60.00,Wednesday
7,0.0
545,18.507905694191578
546,1.8728383174228682
547,15.320201514277523
548,143.0520198731404
720,3013.2266327500565
721,3013.2266327500565
784,0.0
785,0.0
848,0.0
849,0.0
1121,4188.230749095425
1135,1260.1702685780128
1161,107.40390603279515
1163,11.924388272383467
1166,0.0
1168,0.0
2,3, 2,12, 0, 5, 0.00,60.00,Wednesday
7,0.0
545,18.564099000300782
546,1.8112892478659903
547,15.243524685833332
548,145.22767260584092
720,3074.999110100249
721,3074.999110100249
784,0.0
785,0.0
848,0.0
849,0.0
1121,4315.719711608904
1135,1293.3325419779212
1161,96.8295515206831
1163,9.338678652433185
1166,0.0
1168,0.0
2,3, 2,12, 0, 6, 0.00,60.00,Wednesday
7,0.0
545,19.33495272803002
546,2.186344138440087
547,15.1795471077101
548,153.93062816375786
720,3738.209431778161
721,3738.209431778161
784,0.0
785,0.0
848,0.0
849,0.0
1121,4645.093693601392
1135,1371.477924555645
1161,91.96957753349662
1163,0.0
1166,498.7753816058821
1168,498.7753816058821
2,3, 2,12, 0, 7, 0.00,60.00,Wednesday
7,0.0
545,19.600787058065738
546,2.1930672903758968
547,15.146086872100824
548,153.93062816375786
720,3520.2764315413115
721,3520.2764315413115
784,0.0
785,0.0
848,0.0
849,0.0
1121,4627.620415683284
1135,1392.2529173637276
1161,91.96957753349662
1163,0.0
1166,330.6105545387645
1168,330.6105545387645
2,3, 2,12, 0, 8, 0.00,60.00,Wednesday
7,-1.1
545,19.660428432882018
546,1.1349445329776453
547,15.069149770302408
548,153.93062816375786
720,4496.859941391036
721,4496.859941391036
784,0.0
785,0.0
848,0.0
849,0.0
1121,4482.838369005164
1135,1385.5670324369996
1161,92.35208570413131
1163,0.0
1166,1632.9792558883128
1168,1632.9792558883128
2,3, 2,12, 0, 9, 0.00,60.00,Wednesday
7,-1.0
545,19.694211172669966
546,1.2698623712162012
547,15.012688839333613
548,153.93062816375786
720,4182.193025140999
721,4182.193025140999
784,0.0
785,0.0
848,0.0
849,0.0
1121,4507.760734371232
1135,1392.5839930994675
1161,89.3306006207938
1163,0.0
1166,1322.532061623228
1168,1322.532061623228
2,3, 2,12, 0,10, 0.00,60.00,Wednesday
7,-1.0
545,19.721347541542613
546,1.3127835498639313
547,14.949950822811202
548,153.93062816375786
720,3522.565134942746
721,3522.565134942746
784,0.0
785,0.0
848,0.0
849,0.0
1121,4507.031950661205
1135,1393.4533291498701
1161,89.3306006207938
1163,0.0
1166,559.4746332573995
1168,559.4746332573995
2,3, 2,12, 0,11, 0.00,60.00,Wednesday
7,-1.0
545,19.730759963102564
546,1.38756747141206
547,14.887765390279007
548,153.93062816375786
720,3060.575498549457
721,3060.575498549457
784,0.0
785,0.0
848,0.0
849,0.0
1121,4506.473470238203
1135,1394.119629051084
1161,89.3306006207938
1163,0.0
1166,9.703153263448257
1168,9.703153263448257
2,3, 2,12, 0,12, 0.00,60.00,Wednesday
7,-1.7
545,19.710072868818827
546,0.7851423104534412
547,14.814166151304685
548,153.93062816375786
720,3754.6047646602347
721,3754.6047646602347
784,0.0
785,0.0
848,0.0
849,0.0
1121,4389.165456609877
1135,1376.1987171529975
1161,96.19015948436
1163,0.0
1166,920.2368207281429
1168,920.2368207281429
2,3, 2,12, 0,13, 0.00,60.00,Wednesday
7,-1.7
545,19.712849295638666
546,0.8671055066552388
547,14.756196843049832
548,153.93062816375786
720,3596.447535621799
721,3596.447535621799
784,0.0
785,0.0
848,0.0
849,0.0
1121,4389.724496165081
1135,1375.5333316361407
1161,96.19015948436
1163,0.0
1166,780.4160158885952
1168,780.4160158885952
2,3, 2,12, 0,14, 0.00,60.00,Wednesday
7,-2.0
545,19.75105093214327
546,1.674178717496842
547,14.704004662435498
548,149.98741149154125
720,2790.9027583152965
721,2790.9027583152965
784,0.0
785,0.0
848,0.0
849,0.0
1121,4235.094625254866
1135,1354.798998399616
1161,94.96462851936343
1163,2.524822337117727
1166,0.0
1168,0.0
2,3, 2,12, 0,15, 0.00,60.00,Wednesday
7,-2.0
545,19.753437311335954
546,1.6164627359421793
547,14.65224476167516
548,146.5409621878046
720,2762.5348615204584
721,2762.5348615204584
784,0.0
785,0.0
848,0.0
849,0.0
1121,4125.454870926706
1135,1324.6069955734897
1161,92.78273572652925
1163,7.061981841916243
1166,0.0
1168,0.0
2,3, 2,12, 0,16, 0.00,60.00,Wednesday
7,-1.1
545,19.786238976159755
546,2.2914564816429652
547,14.603381680279842
548,130.3135853546209
720,2490.2442613625863
721,2490.2442613625863
784,0.0
785,0.0
848,0.0
849,0.0
1121,3723.6266842006894
1135,1188.6106583691023
1161,79.64252525164031
1163,28.76912328698895
1166,0.0
1168,0.0
2,3, 2,12, 0,17, 0.00,60.00,Wednesday
7,-1.0
545,19.800992617054092
546,2.368571255667804
547,14.553750379504248
548,116.0788984504629
720,2177.118634671353
721,2177.118634671353
784,0.0
785,0.0
848,0.0
849,0.0
1121,3248.649085709634
1135,1049.0013828197511
1161,80.11151959815437
1163,47.260213034052015
1166,0.0
1168,0.0
2,3, 2,12, 0,18, 0.00,60.00,Wednesday
7,-1.0
545,19.822753700044803
546,2.529810559931793
547,14.504694736167181
548,100.2792651710292
720,1893.786165249836
721,1893.786165249836
784,0.0
785,0.0
848,0.0
849,0.0
1121,2815.787150269523
1135,919.2380532998595
1161,58.81605768461506
1163,68.318230761063
1166,0.0
1168,0.0
2,3, 2,12, 0,19, 0.00,60.00,Wednesday
7,-1.1
545,19.711226829287124
546,1.5702479416344362
547,14.465066264817478
548,97.2227601662995
720,1845.6264552684424
721,1845.6264552684424
784,0.0
785,0.0
848,0.0
849,0.0
1121,2705.5544713407553
1135,887.9907885600663
1161,59.44054706194549
1163,72.24909187118516
1166,0.0
1168,0.0
2,3, 2,12, 0,20, 0.00,60.00,Wednesday
7,-1.0
545,19.63186124215632
546,1.6515493661348997
547,14.42739132630821
548,103.61506414947267
720,2006.4033126185677
721,2006.4033126185677
784,0.0
785,0.0
848,0.0
849,0.0
1121,2918.4649938363045
1135,948.0124099433685
1161,60.77226373760914
1163,63.938530995474
1166,0.0
1168,0.0
2,3, 2,12, 0,21, 0.00,60.00,Wednesday
7,-1.1
545,19.659697069652385
546,1.1071430754112646
547,14.389022893089747
548,111.61409097151208
720,2167.2362483591824
721,2167.2362483591824
784,0.0
785,0.0
848,0.0
849,0.0
1121,3144.0005835530055
1135,1015.3296208882239
1161,68.32661247903714
1163,53.33823023018307
1166,0.0
1168,0.0
2,3, 2,12, 0,22, 0.00,60.00,Wednesday
7,-2.0
545,19.657517746342204
546,0.7151877029190304
547,14.352519787139721
548,126.8005710842174
720,2404.454288804607
721,2404.454288804607
784,0.0
785,0.0
848,0.0
849,0.0
1121,3515.4027101812258
1135,1143.8592757750118
1161,80.28350000850918
1163,33.053646660180355
1166,0.0
1168,0.0
2,3, 2,12, 0,23, 0.00,60.00,Wednesday
7,-2.0
545,18.953701311959538
546,0.4683040008533547
547,14.275556019961025
548,93.67660391295928
720,1620.4614174959243
721,1620.4614174959243
784,0.0
785,0.0
848,0.0
849,0.0
1121,2530.184919564291
1135,845.1339486373284
1161,59.31115414493692
1163,76.66480788924666
1166,0.0
1168,0.0
2,3, 2,12, 0,24, 0.00,60.00,Wednesday
7,-2.0
545,18.664602978503396
546,0.6790162044241743
547,14.214618895168648
548,109.39066380183188
720,2047.9740574071384
721,2047.9740574071384
784,0.0
785,0.0
848,0.0
849,0.0
1121,3002.139157325059
1135,973.1512334862443
1161,69.25713525863236
1163,55.98253473047576
1166,0.0
1168,0.0
2,4, 2,13, 0, 1, 0.00,60.00,Thursday
7,-1.7
545,18.693390536851197
546,1.3347208893205644
547,14.155697806605003
548,116.95487373566469
720,2248.5436584825857
721,2248.5436584825857
784,0.0
785,0.0
848,0.0
849,0.0
1121,3257.9402631127746
1135,1035.8178168314778
1161,74.63407047572258
1163,46.09082980917143
1166,0.0
1168,0.0
2,4, 2,13, 0, 2, 0.00,60.00,Thursday
7,-1.7
545,18.637862610642536
546,1.4033021515026316
547,14.100272162604174
548,121.78737461685752
720,2329.7693508604407
721,2329.7693508604407
784,0.0
785,0.0
848,0.0
849,0.0
1121,3369.042389793023
1135,1069.1681289453159
1161,86.24948636715862
1163,39.487033355527835
1166,0.0
1168,0.0
2,4, 2,13, 0, 3, 0.00,60.00,Thursday
7,-1.1
545,18.5857414881429
546,1.572409684243219
547,14.042841411698683
548,125.52024182346666
720,2480.7939108710107
721,2480.7939108710107
784,0.0
785,0.0
848,0.0
849,0.0
1121,3560.090101248908
1135,1110.2000054003097
1161,84.44880005905021
1163,34.87617401289387
1166,0.0
1168,0.0
2,4, 2,13, 0, 4, 0.00,60.00,Thursday
7,-1.0
545,18.592649348202055
546,1.6641044483343872
547,13.987753170199136
548,131.4165290124099
720,2618.5243464357154
721,2618.5243464357154
784,0.0
785,0.0
848,0.0
849,0.0
1121,3746.1810042672037
1135,1159.1154826410107
1161,90.68968082932577
1163,27.09200125820408
1166,0.0
1168,0.0
2,4, 2,13, 0, 5, 0.00,60.00,Thursday
7,-0.6
545,18.624988825332682
546,1.8394684631755378
547,13.931931222029968
548,126.58924481814907
720,2520.552319113591
721,2520.552319113591
784,0.0
785,0.0
848,0.0
849,0.0
1121,3626.6339304841636
1135,1117.7389159569464
1161,88.93169201531106
1163,33.52582052825292
1166,0.0
1168,0.0
2,4, 2,13, 0, 6, 0.00,60.00,Thursday
7,-1.0
545,19.30029662959442
546,2.028632645667378
547,13.895753378884796
548,153.93062816375786
720,3639.560417009894
721,3639.560417009894
784,0.0
785,0.0
848,0.0
849,0.0
1121,4460.818040352051
1135,1341.462705551984
1161,104.89934703917656
1163,0.0
1166,573.790072343561
1168,573.790072343561
2,4, 2,13, 0, 7, 0.00,60.00,Thursday
7,-0.6
545,19.589912324673268
546,2.3457308773234202
547,13.88153457088352
548,153.93062816375786
720,3255.6881693746054
721,3255.6881693746054
784,0.0
785,0.0
848,0.0
849,0.0
1121,4433.825460713344
1135,1345.527577924489
1161,118.01973269773316
1163,0.0
1166,243.7404444141871
1168,243.7404444141871
2,4, 2,13, 0, 8, 0.00,60.00,Thursday
7,1.0
545,19.717536867048107
546,3.06354695271012
547,13.844179725314156
548,139.46378935604926
720,2876.150545689032
721,2876.150545689032
784,0.0
785,0.0
848,0.0
849,0.0
1121,4193.529980137019
1135,1269.6665892469882
1161,97.75001289213806
1163,17.110329743804954
1166,0.0
1168,0.0
2,4, 2,13, 0, 9, 0.00,60.00,Thursday
7,1.1
545,19.7323675308346
546,3.8518095963269827
547,13.794853378465525
548,127.05171666628692
720,2583.8000541995025
721,2583.8000541995025
784,0.0
785,0.0
848,0.0
849,0.0
1121,3766.1244502047957
1135,1153.5658057906865
1161,94.29319398677048
1163,33.3165297298529
1166,0.0
1168,0.0
2,4, 2,13, 0,10, 0.00,60.00,Thursday
7,1.0
545,19.689794452072768
546,3.708099376933797
547,13.776748115286923
548,133.58406210900358
720,2815.923005018156
721,2815.923005018156
784,0.0
785,0.0
848,0.0
849,0.0
1121,3995.2255705102384
1135,1219.4047037383398
1161,93.6294933162138
1163,24.81979641524714
1166,0.0
1168,0.0
2,4, 2,13, 0,11, 0.00,60.00,Thursday
7,2.0
545,19.73118824950802
546,4.515150033023586
547,13.749649080253485
548,124.56662974359904
720,2704.760144042937
721,2704.760144042937
784,0.0
785,0.0
848,0.0
849,0.0
1121,3835.233163257747
1135,1154.6937728229373
1161,79.56118780859049
1163,37.03815476547692
1166,0.0
1168,0.0
2,4, 2,13, 0,12, 0.00,60.00,Thursday
7,3.9
545,19.820932518572402
546,6.978505238062824
547,13.69793147177997
548,84.83535103699315
720,1811.3815552392425
721,1811.3815552392425
784,0.0
785,0.0
848,0.0
849,0.0
1121,2633.468284181048
1135,791.3171972086236
1161,59.62202979307725
1163,89.26276033048335
1166,0.0
1168,0.0
2,4, 2,13, 0,13, 0.00,60.00,Thursday
7,3.9
545,19.812066932525088
546,8.382199839699732
547,13.685033321614949
548,65.52864832028274
720,1423.3074293871687
721,1423.3074293871687
784,0.0
785,0.0
848,0.0
849,0.0
1121,2003.7184053335004
1135,612.311208687327
1161,46.05342663532626
1163,114.46401002082673
1166,0.0
1168,0.0
2,4, 2,13, 0,14, 0.00,60.00,Thursday
7,6.0
545,20.116755824447512
546,10.446032028447183
547,13.67055107425925
548,30.943739730670348
720,904.8933872996877
721,904.8933872996877
784,0.0
785,0.0
848,0.0
849,0.0
1121,1236.2037103463483
1135,342.5009398175597
1161,0.0
1163,159.7952141171657
1166,0.0
1168,0.0
2,4, 2,13, 0,15, 0.00,60.00,Thursday
7,7.2
545,20.053751349025205
546,12.163833944736382
547,13.680418221598638
548,2.0266205001675868
720,9.23129840841466
721,9.23129840841466
784,0.0
785,0.0
848,0.0
849,0.0
1121,81.60730206070373
1135,22.85261011123281
1161,0.0
1163,197.3668391737977
1166,0.0
1168,0.0
2,4, 2,13, 0,16, 0.00,60.00,Thursday
7,7.2
545,21.353705151136978
546,14.485515064668578
547,13.751327144180541
548,0.0
720,-973.599651908251
721,-973.599651908251
784,0.0
785,0.0
848,0.0
849,0.0
1121,0.0
1135,0.0
1161,0.0
1163,200.0
1166,0.0
1168,0.0
2,4, 2,13, 0,17, 0.00,60.00,Thursday
7,6.1
545,22.28911109357842
546,13.607907161051662
547,13.841481752064063
548,0.0
720,-1939.500509940317
721,-1939.500509940317
784,0.0
785,0.0
848,0.0
849,0.0
1121,0.0
1135,0.0
1161,0.0
1163,200.0
1166,0.0
1168,0.0