Program Version,EnergyPlus, Version 22.2.0-c249759bad, YMD=2023.09.01 18:03
1,5,Environment Title[],Latitude[deg],Longitude[deg],Time Zone[],Elevation[m]
2,8,Day of Simulation[],Month[],Day of Month[],DST Indicator[1=yes 0=no],Hour[],StartMinute[],EndMinute[],DayType
3,5,Cumulative Day of Simulation[],Month[],Day of Month[],DST Indicator[1=yes 0=no],DayType  ! When Daily Report Variables Requested
4,2,Cumulative Days of Simulation[],Month[]  ! When Monthly Report Variables Requested
5,1,Cumulative Days of Simulation[] ! When Run Period Report Variables Requested
6,1,Calendar Year of Simulation[] ! When Annual Report Variables Requested
581,11,LIVING,AFN Zone Infiltration Air Change Rate [ach] !RunPeriod [Value,Min,Month,Day,Hour,Minute,Max,Month,Day,Hour,Minute]
582,11,ATTIC,AFN Zone Infiltration Air Change Rate [ach] !RunPeriod [Value,Min,Month,Day,Hour,Minute,Max,Month,Day,Hour,Minute]
583,11,CRAWLSPACE,AFN Zone Infiltration Air Change Rate [ach] !RunPeriod [Value,Min,Month,Day,Hour,Minute,Max,Month,Day,Hour,Minute]
1038,11,Facility,Facility Heating Setpoint Not Met Time [hr] !RunPeriod [Value,Min,Month,Day,Hour,Minute,Max,Month,Day,Hour,Minute]
1039,11,Facility,Facility Cooling Setpoint Not Met Time [hr] !RunPeriod [Value,Min,Month,Day,Hour,Minute,Max,Month,Day,Hour,Minute]
1115,11,DX_HEATING_COIL,Heating Coil Heating Energy [J] !RunPeriod [Value,Min,Month,Day,Hour,Minute,Max,Month,Day,Hour,Minute]
1128,11,DX_HEATING_COIL,Heating Coil Electricity Energy [J] !RunPeriod [Value,Min,Month,Day,Hour,Minute,Max,Month,Day,Hour,Minute]
1153,11,DX_HEATING_COIL,Heating Coil Defrost Electricity Energy [J] !RunPeriod [Value,Min,Month,Day,Hour,Minute,Max,Month,Day,Hour,Minute]
1154,11,DX_HEATING_COIL,Heating Coil Crankcase Heater Electricity Energy [J] !RunPeriod [Value,Min,Month,Day,Hour,Minute,Max,Month,Day,Hour,Minute]
1155,11,HEATING_RESISTANCE_BACKUP,Heating Coil Heating Energy [J] !RunPeriod [Value,Min,Month,Day,Hour,Minute,Max,Month,Day,Hour,Minute]
1156,11,HEATING_RESISTANCE_BACKUP,Heating Coil Electricity Energy [J] !RunPeriod [Value,Min,Month,Day,Hour,Minute,Max,Month,Day,Hour,Minute]
1292,11,WATER HEATER,Water Heater Heat Loss Energy [J] !RunPeriod [Value,Min,Month,Day,Hour,Minute,Max,Month,Day,Hour,Minute]
1306,11,WATER HEATER,Water Heater Heating Energy [J] !RunPeriod [Value,Min,Month,Day,Hour,Minute,Max,Month,Day,Hour,Minute]
1307,11,WATER HEATER,Water Heater Unmet Demand Heat Transfer Energy [J] !RunPeriod [Value,Min,Month,Day,Hour,Minute,Max,Month,Day,Hour,Minute]
1308,11,WATER HEATER,Water Heater Electricity Energy [J] !RunPeriod [Value,Min,Month,Day,Hour,Minute,Max,Month,Day,Hour,Minute]
13,11,Electricity:Facility [J] !RunPeriod [Value,Min,Month,Day,Hour,Minute,Max,Month,Day,Hour,Minute]
1134,11,Heating:Electricity [J] !RunPeriod [Value,Min,Month,Day,Hour,Minute,Max,Month,Day,Hour,Minute]
1096,11,Cooling:Electricity [J] !RunPeriod [Value,Min,Month,Day,Hour,Minute,Max,Month,Day,Hour,Minute]
562,11,Fans:Electricity [J] !RunPeriod [Value,Min,Month,Day,Hour,Minute,Max,Month,Day,Hour,Minute]
1379,11,Pumps:Electricity [J] !RunPeriod [Value,Min,Month,Day,Hour,Minute,Max,Month,Day,Hour,Minute]
1326,11,WaterSystems:Electricity [J] !RunPeriod [Value,Min,Month,Day,Hour,Minute,Max,Month,Day,Hour,Minute]
61,11,InteriorLights:Electricity [J] !RunPeriod [Value,Min,Month,Day,Hour,Minute,Max,Month,Day,Hour,Minute]
1046,11,ExteriorLights:Electricity [J] !RunPeriod [Value,Min,Month,Day,Hour,Minute,Max,Month,Day,Hour,Minute]
134,11,InteriorEquipment:Electricity [J] !RunPeriod [Value,Min,Month,Day,Hour,Minute,Max,Month,Day,Hour,Minute]
170,11,gas_dryer:InteriorEquipment:Electricity [J] !RunPeriod [Value,Min,Month,Day,Hour,Minute,Max,Month,Day,Hour,Minute]
207,11,clotheswasher:InteriorEquipment:Electricity [J] !RunPeriod [Value,Min,Month,Day,Hour,Minute,Max,Month,Day,Hour,Minute]
244,11,dishwasher:InteriorEquipment:Electricity [J] !RunPeriod [Value,Min,Month,Day,Hour,Minute,Max,Month,Day,Hour,Minute]
281,11,refrigerator:InteriorEquipment:Electricity [J] !RunPeriod [Value,Min,Month,Day,Hour,Minute,Max,Month,Day,Hour,Minute]
318,11,electric_mels:InteriorEquipment:Electricity [J] !RunPeriod [Value,Min,Month,Day,Hour,Minute,Max,Month,Day,Hour,Minute]
355,11,NaturalGas:Facility [J] !RunPeriod [Value,Min,Month,Day,Hour,Minute,Max,Month,Day,Hour,Minute]
403,11,InteriorEquipment:NaturalGas [J] !RunPeriod [Value,Min,Month,Day,Hour,Minute,Max,Month,Day,Hour,Minute]
476,11,gas_dryer:InteriorEquipment:NaturalGas [J] !RunPeriod [Value,Min,Month,Day,Hour,Minute,Max,Month,Day,Hour,Minute]
513,11,gas_mels:InteriorEquipment:NaturalGas [J] !RunPeriod [Value,Min,Month,Day,Hour,Minute,Max,Month,Day,Hour,Minute]
End of Data Dictionary
1,EXTREME_WINTER,  38.05, -87.53,  -6.00, 121.90
5,7
1038,1.0,0.0, 1, 8, 1,15,0.25, 1, 8, 6,15
1039,0.0,0.0, 1, 8, 1,15,0.0, 1, 8, 1,15
581,0.39172245495534075,0.17654836841937838, 1,11,23,15,0.8141246305745833, 1, 8,21,60
582,3.5505767650527753,0.0, 1,10,24,60,15.571562420543469, 1, 8,23,60
583,0.05349552186650188,0.00028784172996884166, 1,11,23,10,0.08149172777694715, 1, 8,21,60
1115,1812669487.134973,0.0, 1, 8,23, 5,4295935.793054878, 1,11, 6,60
1128,610385893.703466,0.0, 1, 8,23, 5,1330260.4951864886, 1,11, 6,45
1153,10942517.192377983,0.0, 1, 8,23, 5,99818.51135735797, 1,12, 6,45
1154,32933759.09481655,0.0, 1, 8, 1, 3,180000.0, 1,10,15,45
1155,413162556.7520799,0.0, 1, 8,23, 5,4747846.678257431, 1, 8, 6,45
1156,413162556.7520799,0.0, 1, 8,23, 5,4747846.678257431, 1, 8, 6,45
1292,-25374198.953670606,-39734.07039948595, 1,12, 5,30,-7340.319854593508, 1,14,12,60
1306,221281542.03260762,0.0, 1, 8, 1, 3,4050000.0, 1, 8, 7,60
1307,35034515.369353026,0.0, 1, 8, 1, 3,11231288.746561864, 1,14,19,60
1308,221281542.03260762,0.0, 1, 8, 1, 3,4050000.0, 1, 8, 7,60
13,1727143120.0153828,493067.56006642064, 1,10,15,30,10318289.935861554, 1, 8, 7,60
61,301924526.02383536,88139.10953165221, 1, 8, 1,15,1282023.4113694867, 1, 8,20,15
134,70666020.44019976,63564.01800854099, 1, 8, 4,15,156554.22484006523, 1,13,20,15
170,5241013.419656067,348.4159749238097, 1, 8, 4,15,17476.39704006126, 1,13,12,15
207,6509451.13922267,815.2532113832032, 1, 8, 3,15,22990.642799023623, 1,13,10,15
244,12749673.399825225,1521.856143006317, 1, 8, 4,15,53038.631142310165, 1,13,20,15
281,46165882.481495745,59938.60262432081, 1, 8, 5,15,81951.81706819107, 1, 8,19,15
318,0.0,0.0, 1, 8, 1,15,0.0, 1, 8, 1,15
355,197687796.27748066,18561.32405820678, 1, 8, 4,15,724774.895203776, 1,13,18,15
403,197687796.27748066,18561.32405820678, 1, 8, 4,15,724774.895203776, 1,13,18,15
476,106772067.24485716,7098.072629279515, 1, 8, 4,15,356036.3026282215, 1,13,12,15
513,0.0,0.0, 1, 8, 1,15,0.0, 1, 8, 1,15
562,65846304.775998116,0.0, 1, 9,16,45,134850.01598661448, 1,10,10,30
1046,0.0,0.0, 1, 8, 1,15,0.0, 1, 8, 1,15
1096,0.0,0.0, 1, 8, 1,15,0.0, 1, 8, 1,15
1134,1067424726.7427399,180000.0, 1, 9,16,45,5922151.86170324, 1,10, 6,15
1326,221281542.03260756,0.0, 1, 8, 1,15,4050000.0, 1, 8, 7,60
1379,0.0,0.0, 1, 8, 1,15,0.0, 1, 8, 1,15
1,EXTREME_SUMMER,  38.05, -87.53,  -6.00, 121.90
5,7
1038,0.0,0.0, 7,15, 1,15,0.0, 7,15, 1,15
1039,48.0,0.0, 7,15, 1,15,0.25, 7,15,14,15
581,0.06109656481189348,0.0, 7,15, 6,50,0.33270487856596453, 7,21,15,50
582,1.8422419945464856,0.0, 7,15,20,52,7.72040407179732, 7,21, 9,52
583,0.042166137085662594,0.0, 7,17,23, 3,0.06867668995392019, 7,21, 6, 3
1115,0.0,0.0, 7,15, 1, 7,0.0, 7,15, 1, 7
1128,0.0,0.0, 7,15, 1, 7,0.0, 7,15, 1, 7
1153,0.0,0.0, 7,15, 1, 7,0.0, 7,15, 1, 7
1154,0.0,0.0, 7,15, 1, 7,0.0, 7,15, 1, 7
1155,0.0,0.0, 7,15, 1, 7,0.0, 7,15, 1, 7
1156,0.0,0.0, 7,15, 1, 7,0.0, 7,15, 1, 7
1292,-21734599.81029642,-34216.313877796456, 7,17, 6,30,-3041.0064745382488, 7,16, 8,60
1306,158908133.2059359,0.0, 7,15, 1, 7,4050000.0, 7,21,20,15
1307,13305213.122532228,0.0, 7,15, 1, 7,3519520.8521760185, 7,21,19,60
1308,158908133.2059359,0.0, 7,15, 1, 7,4050000.0, 7,21,20,15
13,1140684198.2811031,212258.28351400723, 7,15, 4,60,6471870.997879233, 7,16,20,30
61,301924526.02383536,88139.10953165221, 7,15, 1,15,1282023.4113694867, 7,15,20,15
134,70666020.44019976,63564.01800854099, 7,15, 4,15,156554.22484006523, 7,20,20,15
170,5241013.419656067,348.4159749238097, 7,15, 4,15,17476.39704006126, 7,20,12,15
207,6509451.13922267,815.2532113832032, 7,15, 3,15,22990.642799023623, 7,20,10,15
244,12749673.399825225,1521.856143006317, 7,15, 4,15,53038.631142310165, 7,20,20,15
281,46165882.481495745,59938.60262432081, 7,15, 5,15,81951.81706819107, 7,15,19,15
318,0.0,0.0, 7,15, 1,15,0.0, 7,15, 1,15
355,197687796.27748066,18561.32405820678, 7,15, 4,15,724774.895203776, 7,20,18,15
403,197687796.27748066,18561.32405820678, 7,15, 4,15,724774.895203776, 7,20,18,15
476,106772067.24485716,7098.072629279515, 7,15, 4,15,356036.3026282215, 7,20,12,15
513,0.0,0.0, 7,15, 1,15,0.0, 7,15, 1,15
562,57519093.79457801,6198.780704367276, 7,21,23,15,134850.01598661448, 7,15,16,60
1046,0.0,0.0, 7,15, 1,15,0.0, 7,15, 1,15
1096,551666424.8165542,52040.564612056565, 7,21,23,15,1431051.6398046375, 7,19,14,60
1134,0.0,0.0, 7,15, 1,15,0.0, 7,15, 1,15
1326,158908133.20593584,0.0, 7,15, 1,15,4050000.0000000014, 7,16, 8,60
1379,0.0,0.0, 7,15, 1,15,0.0, 7,15, 1,15
1,ANNUAL,  38.05, -87.53,  -6.00, 121.90
5,365
1038,10.5,0.0, 1, 1, 1,15,0.25, 1, 2, 6,15
1039,559.0,0.0, 1, 1, 1,15,0.25, 2,12,14,60
581,0.2150114569781206,0.0, 5, 7,23, 3,1.2147022886107977, 2,11,15,60
582,3.276353417861211,0.0, 1, 3, 2,60,27.09745813295335, 2,11,15,60
583,0.02726615872222965,0.0, 5, 8,23, 5,0.08340489290860593, 2, 3,12,60
1115,16841624385.318842,0.0, 1, 1,17, 7,4328635.115763596, 2, 6, 6,60
1128,5316402185.8822365,0.0, 1, 1,17, 7,1325918.7741561076, 1,11, 6,45
1153,182518211.69291964,0.0, 1, 1,17, 7,101122.19448712573,12,16, 4,15
1154,1443557077.1036975,0.0, 1, 1, 6, 5,180000.0, 1,10,15,45
1155,1652537166.2272055,0.0, 1, 1, 1,15,4747846.678257431, 1, 8, 6,15
1156,1652537166.2272055,0.0, 1, 1, 1,15,4747846.678257431, 1, 8, 6,15
1292,-1212396605.484346,-39788.51157370263,11, 7, 2,15,-2144.822586285106, 8,20,14,60
1306,9996749292.572342,0.0, 1, 1, 1,15,4050000.0, 1, 1,20,15
1307,1251344313.2496147,0.0, 1, 1, 1,15,11412488.748361997, 2, 5,19,60
1308,9996749292.572342,0.0, 1, 1, 1,15,4050000.0, 1, 1,20,15
13,50417105241.74313,151703.1275401932, 2, 8, 4,15,10483637.36268076, 1, 8, 9,60
61,15743207428.383959,88139.10953165221, 1, 1, 1,15,1282023.4113694867, 1, 1,20,15
134,3685071073.4325233,63564.01800854099, 1, 2, 4,15,156554.22484006523, 1, 1,20,15
170,273393721.45532674,348.4159749238097, 1, 2, 4,15,17476.39704006126, 1, 1,12,15
207,339560869.0695816,815.2532113832032, 1, 2, 3,15,22990.642799023623, 1, 1,10,15
244,664895467.8009144,1521.856143006317, 1, 2, 4,15,53038.631142310165, 1, 1,20,15
281,2407221015.106824,59938.60262432081, 1, 1, 5,15,81951.81706819107, 1, 1,19,15
318,0.0,0.0, 1, 1, 1,15,0.0, 1, 1, 1,15
355,10310294493.051695,18561.32405820678, 1, 2, 4,15,724774.895203776, 1, 1,18,15
403,10310294493.051695,18561.32405820678, 1, 2, 4,15,724774.895203776, 1, 1,18,15
476,5569688622.066177,7098.072629279515, 1, 2, 4,15,356036.3026282215, 1, 1,12,15
513,0.0,0.0, 1, 1, 1,15,0.0, 1, 1, 1,15
562,1771095462.803892,0.0, 1, 1,23,15,134850.01598661448, 1,10,10,30
1046,0.0,0.0, 1, 1, 1,15,0.0, 1, 1, 1,15
1096,10625967343.642708,0.0, 1, 1, 1,15,1475276.007183242, 8,31,15,60
1134,8595014640.906048,0.0, 1, 3,18,15,5931807.724238094, 1, 8, 9,60
1326,9996749292.572365,0.0, 1, 1, 1,15,4050000.0000000014,11,11, 9,45
1379,0.0,0.0, 1, 1, 1,15,0.0, 1, 1, 1,15
End of Data
 Number of Records Written=          99
