Program Version,EnergyPlus, Version 22.2.0-c249759bad, YMD=2023.09.01 15:51
1,5,Environment Title[],Latitude[deg],Longitude[deg],Time Zone[],Elevation[m]
2,8,Day of Simulation[],Month[],Day of Month[],DST Indicator[1=yes 0=no],Hour[],StartMinute[],EndMinute[],DayType
3,5,Cumulative Day of Simulation[],Month[],Day of Month[],DST Indicator[1=yes 0=no],DayType  ! When Daily Report Variables Requested
4,2,Cumulative Days of Simulation[],Month[]  ! When Monthly Report Variables Requested
5,1,Cumulative Days of Simulation[] ! When Run Period Report Variables Requested
6,1,Calendar Year of Simulation[] ! When Annual Report Variables Requested
581,11,LIVING,AFN Zone Infiltration Air Change Rate [ach] !RunPeriod [Value,Min,Month,Day,Hour,Minute,Max,Month,Day,Hour,Minute]
582,11,ATTIC,AFN Zone Infiltration Air Change Rate [ach] !RunPeriod [Value,Min,Month,Day,Hour,Minute,Max,Month,Day,Hour,Minute]
583,11,CRAWLSPACE,AFN Zone Infiltration Air Change Rate [ach] !RunPeriod [Value,Min,Month,Day,Hour,Minute,Max,Month,Day,Hour,Minute]
1038,11,Facility,Facility Heating Setpoint Not Met Time [hr] !RunPeriod [Value,Min,Month,Day,Hour,Minute,Max,Month,Day,Hour,Minute]
1039,11,Facility,Facility Cooling Setpoint Not Met Time [hr] !RunPeriod [Value,Min,Month,Day,Hour,Minute,Max,Month,Day,Hour,Minute]
1115,11,DX_HEATING_COIL,Heating Coil Heating Energy [J] !RunPeriod [Value,Min,Month,Day,Hour,Minute,Max,Month,Day,Hour,Minute]
1128,11,DX_HEATING_COIL,Heating Coil Electricity Energy [J] !RunPeriod [Value,Min,Month,Day,Hour,Minute,Max,Month,Day,Hour,Minute]
1153,11,DX_HEATING_COIL,Heating Coil Defrost Electricity Energy [J] !RunPeriod [Value,Min,Month,Day,Hour,Minute,Max,Month,Day,Hour,Minute]
1154,11,DX_HEATING_COIL,Heating Coil Crankcase Heater Electricity Energy [J] !RunPeriod [Value,Min,Month,Day,Hour,Minute,Max,Month,Day,Hour,Minute]
1155,11,HEATING_RESISTANCE_BACKUP,Heating Coil Heating Energy [J] !RunPeriod [Value,Min,Month,Day,Hour,Minute,Max,Month,Day,Hour,Minute]
1156,11,HEATING_RESISTANCE_BACKUP,Heating Coil Electricity Energy [J] !RunPeriod [Value,Min,Month,Day,Hour,Minute,Max,Month,Day,Hour,Minute]
1292,11,WATER HEATER,Water Heater Heat Loss Energy [J] !RunPeriod [Value,Min,Month,Day,Hour,Minute,Max,Month,Day,Hour,Minute]
1306,11,WATER HEATER,Water Heater Heating Energy [J] !RunPeriod [Value,Min,Month,Day,Hour,Minute,Max,Month,Day,Hour,Minute]
1307,11,WATER HEATER,Water Heater Unmet Demand Heat Transfer Energy [J] !RunPeriod [Value,Min,Month,Day,Hour,Minute,Max,Month,Day,Hour,Minute]
1308,11,WATER HEATER,Water Heater Electricity Energy [J] !RunPeriod [Value,Min,Month,Day,Hour,Minute,Max,Month,Day,Hour,Minute]
13,11,Electricity:Facility [J] !RunPeriod [Value,Min,Month,Day,Hour,Minute,Max,Month,Day,Hour,Minute]
1134,11,Heating:Electricity [J] !RunPeriod [Value,Min,Month,Day,Hour,Minute,Max,Month,Day,Hour,Minute]
1096,11,Cooling:Electricity [J] !RunPeriod [Value,Min,Month,Day,Hour,Minute,Max,Month,Day,Hour,Minute]
562,11,Fans:Electricity [J] !RunPeriod [Value,Min,Month,Day,Hour,Minute,Max,Month,Day,Hour,Minute]
1379,11,Pumps:Electricity [J] !RunPeriod [Value,Min,Month,Day,Hour,Minute,Max,Month,Day,Hour,Minute]
1326,11,WaterSystems:Electricity [J] !RunPeriod [Value,Min,Month,Day,Hour,Minute,Max,Month,Day,Hour,Minute]
61,11,InteriorLights:Electricity [J] !RunPeriod [Value,Min,Month,Day,Hour,Minute,Max,Month,Day,Hour,Minute]
1046,11,ExteriorLights:Electricity [J] !RunPeriod [Value,Min,Month,Day,Hour,Minute,Max,Month,Day,Hour,Minute]
134,11,InteriorEquipment:Electricity [J] !RunPeriod [Value,Min,Month,Day,Hour,Minute,Max,Month,Day,Hour,Minute]
170,11,gas_dryer:InteriorEquipment:Electricity [J] !RunPeriod [Value,Min,Month,Day,Hour,Minute,Max,Month,Day,Hour,Minute]
207,11,clotheswasher:InteriorEquipment:Electricity [J] !RunPeriod [Value,Min,Month,Day,Hour,Minute,Max,Month,Day,Hour,Minute]
244,11,dishwasher:InteriorEquipment:Electricity [J] !RunPeriod [Value,Min,Month,Day,Hour,Minute,Max,Month,Day,Hour,Minute]
281,11,refrigerator:InteriorEquipment:Electricity [J] !RunPeriod [Value,Min,Month,Day,Hour,Minute,Max,Month,Day,Hour,Minute]
318,11,electric_mels:InteriorEquipment:Electricity [J] !RunPeriod [Value,Min,Month,Day,Hour,Minute,Max,Month,Day,Hour,Minute]
355,11,NaturalGas:Facility [J] !RunPeriod [Value,Min,Month,Day,Hour,Minute,Max,Month,Day,Hour,Minute]
403,11,InteriorEquipment:NaturalGas [J] !RunPeriod [Value,Min,Month,Day,Hour,Minute,Max,Month,Day,Hour,Minute]
476,11,gas_dryer:InteriorEquipment:NaturalGas [J] !RunPeriod [Value,Min,Month,Day,Hour,Minute,Max,Month,Day,Hour,Minute]
513,11,gas_mels:InteriorEquipment:NaturalGas [J] !RunPeriod [Value,Min,Month,Day,Hour,Minute,Max,Month,Day,Hour,Minute]
End of Data Dictionary
1,EXTREME_WINTER,  41.73, -71.43,  -5.00,  19.00
5,7
1038,1.0,0.0, 1,27, 1,15,0.25, 1,29, 6,15
1039,0.0,0.0, 1,27, 1,15,0.0, 1,27, 1,15
581,0.40830309095382283,0.2018098687903514, 1,27,20,60,1.1031131335039146, 1,29,16,60
582,5.798665467137019,0.0, 1,27,19,52,24.98483412718643, 1,29,13,60
583,0.04749178060466334,0.0003144629294629337, 1,27,24,37,0.0807062579840632, 1,29,16,52
1115,1563265007.1818738,0.0, 1,27,11,20,3869237.1709129303, 1,27, 6,45
1128,536782038.0693398,0.0, 1,27,11,20,1195981.3277857665, 1,27, 6,45
1153,3721453.018394072,0.0, 1,27,11,20,53092.785295324655, 1,28,14,60
1154,38246186.76097728,0.0, 1,27, 6, 5,180000.0, 1,27,13,60
1155,602676773.4349397,0.0, 1,27, 1,15,5593928.47696727, 1,30, 6,45
1156,602676773.4349397,0.0, 1,27, 1,15,5593928.47696727, 1,30, 6,45
1292,-25277010.555545177,-39789.10503798487, 1,27, 1,15,-7333.529333770399, 1,30,11,15
1306,241542827.08359218,0.0, 1,27, 1,15,7791545.911705771, 1,29, 7,60
1307,6682502.768036002,0.0, 1,27, 1,15,3204655.277029871, 2, 2,19,60
1308,241542827.08359218,0.0, 1,27, 1,15,7791545.911705771, 1,29, 7,60
13,1852758217.5788736,452017.0388981225, 1,27,15,15,14798398.540420843, 1,29, 7,60
61,301924526.02383536,88139.10953165221, 1,27, 1,15,1282023.4113694867, 1,27,20,15
134,70666020.44019976,63564.01800854099, 1,27, 4,15,156554.22484006523, 2, 1,20,15
170,5241013.419656067,348.4159749238097, 1,27, 4,15,17476.39704006126, 2, 1,12,15
207,6509451.13922267,815.2532113832032, 1,27, 3,15,22990.642799023623, 2, 1,10,15
244,12749673.399825225,1521.856143006317, 1,27, 4,15,53038.631142310165, 2, 1,20,15
281,46165882.481495745,59938.60262432081, 1,27, 5,15,81951.81706819107, 1,27,19,15
318,0.0,0.0, 1,27, 1,15,0.0, 1,27, 1,15
355,197687796.27748066,18561.32405820678, 1,27, 4,15,724774.895203776, 2, 1,18,15
403,197687796.27748066,18561.32405820678, 1,27, 4,15,724774.895203776, 2, 1,18,15
476,106772067.24485716,7098.072629279515, 1,27, 4,15,356036.3026282215, 2, 1,12,15
513,0.0,0.0, 1,27, 1,15,0.0, 1,27, 1,15
562,57176249.998599716,0.0, 1,27,11,30,124529.27904132803, 1,30,10,60
1046,0.0,0.0, 1,27, 1,15,0.0, 1,27, 1,15
1096,22142.748995487582,0.0, 1,27, 1,15,7359.024448661619, 1,27,16,45
1134,1181426451.2836504,178345.7703610101, 1,27,16,45,6721974.673611489, 1,29, 6,15
1326,241542827.0835923,0.0, 1,27, 1,15,10396472.508976514, 2, 2, 9,45
1379,0.0,0.0, 1,27, 1,15,0.0, 1,27, 1,15
1,EXTREME_SUMMER,  41.73, -71.43,  -5.00,  19.00
5,7
1038,0.0,0.0, 7,13, 1,15,0.0, 7,13, 1,15
1039,32.75,0.0, 7,13, 1,15,0.25, 7,13,17,30
581,0.153362985573868,0.0046015142499635, 7,19,21,60,0.9880632472678479, 7,19,16,48
582,3.8603222966641817,0.06349101493430868, 7,19,20,15,22.656158150983188, 7,19,16,46
583,0.03679389877102662,0.00011597241929501968, 7,13, 6,11,0.07859871603926863, 7,19,16,46
1115,0.0,0.0, 7,13, 1, 7,0.0, 7,13, 1, 7
1128,0.0,0.0, 7,13, 1, 7,0.0, 7,13, 1, 7
1153,0.0,0.0, 7,13, 1, 7,0.0, 7,13, 1, 7
1154,0.0,0.0, 7,13, 1, 7,0.0, 7,13, 1, 7
1155,0.0,0.0, 7,13, 1, 7,0.0, 7,13, 1, 7
1156,0.0,0.0, 7,13, 1, 7,0.0, 7,13, 1, 7
1292,-21919412.866876196,-34321.14075582509, 7,15,12,45,-3056.1853954507897, 7,19,15,16
1306,179557330.95341885,0.0, 7,13, 1, 7,7922187.915583427, 7,19, 9,45
1307,1724341.3962308501,0.0, 7,13, 1, 7,947295.2902671102, 7,19,19,60
1308,179557330.95341885,0.0, 7,13, 1, 7,7922187.915583427, 7,19, 9,45
13,1072345489.5454773,151703.1275401932, 7,13, 4,45,11714537.52298602, 7,19,19,60
61,301924526.02383536,88139.10953165221, 7,13, 1,15,1282023.4113694867, 7,13,20,15
134,70666020.44019976,63564.01800854099, 7,13, 4,15,156554.22484006523, 7,18,20,15
170,5241013.419656067,348.4159749238097, 7,13, 4,15,17476.39704006126, 7,18,12,15
207,6509451.13922267,815.2532113832032, 7,13, 3,15,22990.642799023623, 7,18,10,15
244,12749673.399825225,1521.856143006317, 7,13, 4,15,53038.631142310165, 7,18,20,15
281,46165882.481495745,59938.60262432081, 7,13, 5,15,81951.81706819107, 7,13,19,15
318,0.0,0.0, 7,13, 1,15,0.0, 7,13, 1,15
355,197687796.27748066,18561.32405820678, 7,13, 4,15,724774.895203776, 7,18,18,15
403,197687796.27748066,18561.32405820678, 7,13, 4,15,724774.895203776, 7,18,18,15
476,106772067.24485716,7098.072629279515, 7,13, 4,15,356036.3026282215, 7,18,12,15
513,0.0,0.0, 7,13, 1,15,0.0, 7,13, 1,15
562,50009998.18461182,0.0, 7,13, 4,45,124529.27904132803, 7,16,11,60
1046,0.0,0.0, 7,13, 1,15,0.0, 7,13, 1,15
1096,470187613.9434117,0.0, 7,13, 4,45,1351011.0021933396, 7,18,14,60
1134,0.0,0.0, 7,13, 1,15,0.0, 7,13, 1,15
1326,179557330.95341885,0.0, 7,13, 1,15,9587828.812811175, 7,19,19,60
1379,0.0,0.0, 7,13, 1,15,0.0, 7,13, 1,15
1,ANNUAL,  41.73, -71.43,  -5.00,  19.00
5,365
1038,18.75,0.0, 1, 1, 1,15,0.25, 1, 3, 6,15
1039,301.25,0.0, 1, 1, 1,15,0.25, 4,24,12,30
581,0.26830205218802744,0.0, 4,26, 5,37,1.2220510305980221, 8,28,11,60
582,4.336114389495698,0.0, 1, 7,22,52,26.7394834830545, 8,28, 7,60
583,0.025731428285034712,0.0, 7,28,23, 3,0.08687574291413232, 2,10,21,60
1115,24727426448.15703,0.0, 1, 1,23, 5,4257092.601049939,12,24, 6,60
1128,7694585162.880037,0.0, 1, 1,23, 5,1261257.9990000683,12,24, 6,60
1153,230723175.19223714,0.0, 1, 1,23, 5,124151.46407693507, 2,26, 2,15
1154,1583065276.465078,0.0, 1, 1, 6, 5,180000.0, 1, 4,15,30
1155,3474735528.257983,0.0, 1, 1, 1,15,5593928.47696727, 1,30, 6,30
1156,3474735528.257983,0.0, 1, 1, 1,15,5593928.47696727, 1,30, 6,30
1292,-1231766395.2448087,-40815.22031774193, 1,18, 8,30,-2640.6497255801473, 5,25,11,59
1306,10961338687.277678,0.0, 1, 1, 1,15,10533801.233432863,12, 3,19,60
1307,216158649.18689322,0.0, 1, 1, 1,15,6180026.527063955, 1,22,19,60
1308,10961338687.277678,0.0, 1, 1, 1,15,10533801.233432863,12, 3,19,60
13,52204511392.74603,151703.1275401932, 4,18, 4,15,15418387.852134697, 1,29, 9,45
61,15743207428.383959,88139.10953165221, 1, 1, 1,15,1282023.4113694867, 1, 1,20,15
134,3685071073.4325233,63564.01800854099, 1, 2, 4,15,156554.22484006523, 1, 1,20,15
170,273393721.45532674,348.4159749238097, 1, 2, 4,15,17476.39704006126, 1, 1,12,15
207,339560869.0695816,815.2532113832032, 1, 2, 3,15,22990.642799023623, 1, 1,10,15
244,664895467.8009144,1521.856143006317, 1, 2, 4,15,53038.631142310165, 1, 1,20,15
281,2407221015.106824,59938.60262432081, 1, 1, 5,15,81951.81706819107, 1, 1,19,15
318,0.0,0.0, 1, 1, 1,15,0.0, 1, 1, 1,15
355,10310294493.051695,18561.32405820678, 1, 2, 4,15,724774.895203776, 1, 1,18,15
403,10310294493.051695,18561.32405820678, 1, 2, 4,15,724774.895203776, 1, 1,18,15
476,5569688622.066177,7098.072629279515, 1, 2, 4,15,356036.3026282215, 1, 1,12,15
513,0.0,0.0, 1, 1, 1,15,0.0, 1, 1, 1,15
562,1646114066.5039802,0.0, 1, 4,15,30,124529.27904132803, 1,18, 9,15
1046,0.0,0.0, 1, 1, 1,15,0.0, 1, 1, 1,15
1096,7185670994.351141,0.0, 1, 1, 1,15,1353172.8615133762, 7,18,14,60
1134,12983109142.79535,0.0, 1,25,23,15,6722616.039703142, 1,29, 6,30
1326,10961338687.277641,0.0, 1, 1, 1,15,10540800.0, 4, 9,19,60
1379,0.0,0.0, 1, 1, 1,15,0.0, 1, 1, 1,15
End of Data
 Number of Records Written=          99
