Program Version,EnergyPlus, Version 22.2.0-c249759bad, YMD=2023.09.01 14:31
1,5,Environment Title[],Latitude[deg],Longitude[deg],Time Zone[],Elevation[m]
2,8,Day of Simulation[],Month[],Day of Month[],DST Indicator[1=yes 0=no],Hour[],StartMinute[],EndMinute[],DayType
3,5,Cumulative Day of Simulation[],Month[],Day of Month[],DST Indicator[1=yes 0=no],DayType  ! When Daily Report Variables Requested
4,2,Cumulative Days of Simulation[],Month[]  ! When Monthly Report Variables Requested
5,1,Cumulative Days of Simulation[] ! When Run Period Report Variables Requested
6,1,Calendar Year of Simulation[] ! When Annual Report Variables Requested
7,1,Environment,Site Outdoor Air Drybulb Temperature [C] !Hourly
545,1,LIVING,Zone Mean Air Temperature [C] !Hourly
546,1,ATTIC,Zone Mean Air Temperature [C] !Hourly
547,1,CRAWLSPACE,Zone Mean Air Temperature [C] !Hourly
548,1,FAN,Fan Electricity Rate [W] !Hourly
720,1,LIVING,Zone Predicted Sensible Load to Heating Setpoint Heat Transfer Rate [W] !Hourly
721,1,LIVING,Zone System Predicted Sensible Load to Heating Setpoint Heat Transfer Rate [W] !Hourly
784,1,ATTIC,Zone Predicted Sensible Load to Heating Setpoint Heat Transfer Rate [W] !Hourly
785,1,ATTIC,Zone System Predicted Sensible Load to Heating Setpoint Heat Transfer Rate [W] !Hourly
848,1,CRAWLSPACE,Zone Predicted Sensible Load to Heating Setpoint Heat Transfer Rate [W] !Hourly
849,1,CRAWLSPACE,Zone System Predicted Sensible Load to Heating Setpoint Heat Transfer Rate [W] !Hourly
1121,1,DX_HEATING_COIL,Heating Coil Heating Rate [W] !Hourly
1135,1,DX_HEATING_COIL,Heating Coil Electricity Rate [W] !Hourly
1161,1,DX_HEATING_COIL,Heating Coil Defrost Electricity Rate [W] !Hourly
1163,1,DX_HEATING_COIL,Heating Coil Crankcase Heater Electricity Rate [W] !Hourly
1166,1,HEATING_RESISTANCE_BACKUP,Heating Coil Heating Rate [W] !Hourly
1168,1,HEATING_RESISTANCE_BACKUP,Heating Coil Electricity Rate [W] !Hourly
End of Data Dictionary
1,EXTREME_WINTER,  38.23, -85.66,  -5.00, 166.00
2,1, 1, 6, 0, 1, 0.00,60.00,Monday
7,-3.9
545,18.702443340954915
546,-2.218236415462326
547,18.735459424200386
548,102.60463690644794
720,1952.7758047901625
721,1952.7758047901625
784,0.0
785,0.0
848,0.0
849,0.0
1121,2912.9331331882618
1135,971.4671771402234
1161,1.0678416824836012
1163,65.23710889996832
1166,0.0
1168,0.0
2,1, 1, 6, 0, 2, 0.00,60.00,Monday
7,-3.3
545,18.595471609899942
546,-1.4710695097822448
547,18.352054038048156
548,111.30389146592599
720,2217.503555565989
721,2217.503555565989
784,0.0
785,0.0
848,0.0
849,0.0
1121,3233.30272051398
1135,1058.9983981011317
1161,1.7223964532385776
1163,53.796949622132104
1166,0.0
1168,0.0
2,1, 1, 6, 0, 3, 0.00,60.00,Monday
7,-3.3
545,18.595028918724722
546,-0.8746210615128718
547,18.158741426634524
548,118.34676178612813
720,2392.871257734947
721,2392.871257734947
784,0.0
785,0.0
848,0.0
849,0.0
1121,3459.2915670169214
1135,1123.251300502236
1161,1.832825245309152
1163,44.545791256865755
1166,0.0
1168,0.0
2,1, 1, 6, 0, 4, 0.00,60.00,Monday
7,-3.3
545,18.562823387200147
546,-0.4272752268922533
547,17.94603326286919
548,128.5156168592967
720,2630.306066506153
721,2630.306066506153
784,0.0
785,0.0
848,0.0
849,0.0
1121,3772.378267066177
1135,1215.4186611789733
1161,5.544303123615048
1163,31.08100238122571
1166,0.0
1168,0.0
2,1, 1, 6, 0, 5, 0.00,60.00,Monday
7,-3.3
545,18.569987437016263
546,0.011411288868852102
547,17.765790408936596
548,134.67698075386772
720,2757.1538412820064
721,2757.1538412820064
784,0.0
785,0.0
848,0.0
849,0.0
1121,3950.5041231789055
1135,1266.26052450257
1161,11.354376584018748
1163,22.813560514470144
1166,0.0
1168,0.0
2,1, 1, 6, 0, 6, 0.00,60.00,Monday
7,-2.8
545,19.313112794887196
546,0.6440876499520956
547,17.59486269760391
548,152.31336522923428
720,3624.9910015012138
721,3624.9910015012138
784,0.0
785,0.0
848,0.0
849,0.0
1121,4562.012099474845
1135,1424.837465187102
1161,20.366875401588068
1163,0.0
1166,475.07227010571023
1168,475.07227010571023
2,1, 1, 6, 0, 7, 0.00,60.00,Monday
7,-2.2
545,19.593272690359445
546,0.6981294951456956
547,17.48007869950786
548,152.31336522923428
720,3460.593801768193
721,3460.593801768193
784,0.0
785,0.0
848,0.0
849,0.0
1121,4643.664554266614
1135,1459.9888556796623
1161,15.363082471900718
1163,0.0
1166,267.7505740108977
1168,267.7505740108977
2,1, 1, 6, 0, 8, 0.00,60.00,Monday
7,-1.7
545,19.700170651182216
546,1.0177737766690722
547,17.35172217139396
548,147.4015493239819
720,3138.5433543452255
721,3138.5433543452255
784,0.0
785,0.0
848,0.0
849,0.0
1121,4548.145208116594
1135,1433.5082622572609
1161,11.52697796955002
1163,6.164698458460971
1166,0.0
1168,0.0
2,1, 1, 6, 0, 9, 0.00,60.00,Monday
7,-1.1
545,19.722205685157526
546,1.4247911364137038
547,17.230385671104308
548,144.30614101658685
720,3158.20590061451
721,3158.20590061451
784,0.0
785,0.0
848,0.0
849,0.0
1121,4539.471397398108
1135,1420.5576329919643
1161,5.458467481942597
1163,10.390924316424787
1166,0.0
1168,0.0
2,1, 1, 6, 0,10, 0.00,60.00,Monday
7,-1.1
545,19.718536682625185
546,1.8072962753136717
547,17.106765180420197
548,145.7982182018407
720,3215.38536582891
721,3215.38536582891
784,0.0
785,0.0
848,0.0
849,0.0
1121,4591.588937693049
1135,1435.6800777745068
1161,5.512221302492772
1163,8.430481133199486
1166,0.0
1168,0.0
2,1, 1, 6, 0,11, 0.00,60.00,Monday
7,-0.6
545,19.831717261307052
546,3.972479353125924
547,17.002112988569525
548,114.88669330639648
720,2461.8669224952882
721,2461.8669224952882
784,0.0
785,0.0
848,0.0
849,0.0
1121,3593.437383298464
1135,1140.2662806218725
1161,1.0582416633121217
1163,49.122235535745304
1166,0.0
1168,0.0
2,1, 1, 6, 0,12, 0.00,60.00,Monday
7,0.0
545,19.886954342363914
546,5.274272497424149
547,16.903728780422448
548,86.27268260434525
720,1857.7343956480672
721,1857.7343956480672
784,0.0
785,0.0
848,0.0
849,0.0
1121,2678.7270322109966
1135,862.0299285324062
1161,1.3090520942321768
1163,86.69202891124212
1166,0.0
1168,0.0
2,1, 1, 6, 0,13, 0.00,60.00,Monday
7,0.6
545,19.826423827973063
546,8.243504639471892
547,16.81712645136748
548,53.926398350958465
720,1145.8305325835572
721,1145.8305325835572
784,0.0
785,0.0
848,0.0
849,0.0
1121,1663.493537950221
1135,543.3302223138035
1161,0.02597755975876256
1163,129.1897513469091
1166,0.0
1168,0.0
2,1, 1, 6, 0,14, 0.00,60.00,Monday
7,0.6
545,19.690276383600008
546,8.486371030565852
547,16.748691156915953
548,36.707836619366205
720,807.2550128204275
721,807.2550128204275
784,0.0
785,0.0
848,0.0
849,0.0
1121,1118.217281541255
1135,369.4036497573545
1161,0.017682991016479053
1163,151.79928359572372
1166,0.0
1168,0.0
2,1, 1, 6, 0,15, 0.00,60.00,Monday
7,0.6
545,19.64509204183341
546,6.792716623360049
547,16.705770239603577
548,39.265967144367124
720,920.1092526561752
721,920.1092526561752
784,0.0
785,0.0
848,0.0
849,0.0
1121,1199.2511898651182
1135,394.05834486651764
1161,0.018915299979355506
1163,148.44022659079158
1166,0.0
1168,0.0
2,1, 1, 6, 0,16, 0.00,60.00,Monday
7,0.0
545,19.858481937097046
546,6.536584183662467
547,16.676872599165513
548,41.18613574754572
720,941.2108270665321
721,941.2108270665321
784,0.0
785,0.0
848,0.0
849,0.0
1121,1237.064475618937
1135,409.98891958103474
1161,0.6248722847395324
1163,145.90736881693056
1166,0.0
1168,0.0
2,1, 1, 6, 0,17, 0.00,60.00,Monday
7,-1.1
545,19.58894477434528
546,4.1290501094440915
547,16.65127464372866
548,36.52534803882991
720,783.2575245457465
721,783.2575245457465
784,0.0
785,0.0
848,0.0
849,0.0
1121,1056.2469325037862
1135,360.6284308263016
1161,1.3815941831726821
1163,152.00799548448583
1166,0.0
1168,0.0
2,1, 1, 6, 0,18, 0.00,60.00,Monday
7,-1.7
545,19.25209675539106
546,2.022772622393609
547,16.61726136485683
548,50.015369205393036
720,1072.7244903078517
721,1072.7244903078517
784,0.0
785,0.0
848,0.0
849,0.0
1121,1437.105046247448
1135,488.11332995423396
1161,2.342051659001965
1163,134.26804290767458
1166,0.0
1168,0.0
2,1, 1, 6, 0,19, 0.00,60.00,Monday
7,-2.8
545,19.7587288669878
546,0.7096185075090837
547,16.574686460752584
548,75.57347335724991
720,1570.9043487152867
721,1570.9043487152867
784,0.0
785,0.0
848,0.0
849,0.0
1121,2132.766043132171
1135,720.6272726276834
1161,7.976224266102816
1163,100.53715272728732
1166,0.0
1168,0.0
2,1, 1, 6, 0,20, 0.00,60.00,Monday
7,-3.9
545,19.36889526636323
546,-1.1052289347159925
547,16.531389711443058
548,86.58618501715333
720,1686.7335040726302
721,1686.7335040726302
784,0.0
785,0.0
848,0.0
849,0.0
1121,2405.938413393604
1135,833.1935008012764
1161,3.168724648956259
1163,86.20181703858395
1166,0.0
1168,0.0
2,1, 1, 6, 0,21, 0.00,60.00,Monday
7,-4.4
545,19.53208811078857
546,-1.845059486368776
547,16.450996227761863
548,106.5993684206561
720,2051.086895028492
721,2051.086895028492
784,0.0
785,0.0
848,0.0
849,0.0
1121,2974.274674015855
1135,1014.1950541481885
1161,3.369959470622733
1163,59.91002007677111
1166,0.0
1168,0.0
2,1, 1, 6, 0,22, 0.00,60.00,Monday
7,-5.0
545,19.669473908750778
546,-2.0134235892893373
547,16.378921773353795
548,118.99866106343745
720,2213.476147219717
721,2213.476147219717
784,0.0
785,0.0
848,0.0
849,0.0
1121,3306.9858381468907
1135,1134.0282074850727
1161,0.057324747845061245
1163,43.742842415546356
1166,0.0
1168,0.0
2,1, 1, 6, 0,23, 0.00,60.00,Monday
7,-5.6
545,18.987260792923756
546,-2.9707508021737765
547,16.29152789326161
548,93.61472920967181
720,1545.4506418072287
721,1545.4506418072287
784,0.0
785,0.0
848,0.0
849,0.0
1121,2497.1592317059367
1135,887.9640780044089
1161,1.9499253109663541
1163,76.99930745788963
1166,0.0
1168,0.0
2,1, 1, 6, 0,24, 0.00,60.00,Monday
7,-6.1
545,18.682752099064096
546,-2.7293867887201313
547,16.16689271142815
548,113.33990050450508
720,1981.5078879424382
721,1981.5078879424382
784,0.0
785,0.0
848,0.0
849,0.0
1121,3030.03670323549
1135,1054.179153097907
1161,4.367500968876987
1163,50.99427724174068
1166,0.0
1168,0.0
2,2, 1, 7, 0, 1, 0.00,60.00,Tuesday
7,-6.1
545,18.432180087660452
546,-3.240554362254615
547,16.038713955212042
548,147.2001512906385
720,2735.8839539474975
721,2735.8839539474975
784,0.0
785,0.0
848,0.0
849,0.0
1121,4062.750157157705
1135,1363.9500621714146
1161,2.472241141146455
1163,6.611996867406034
1166,0.0
1168,0.0
2,2, 1, 7, 0, 2, 0.00,60.00,Tuesday
7,-6.1
545,18.52904832103667
546,-2.6757206670671865
547,15.919869132519004
548,152.31336522923428
720,3041.7805159702566
721,3041.7805159702566
784,0.0
785,0.0
848,0.0
849,0.0
1121,4237.088333086929
1135,1406.8121338336405
1161,0.07337231616296162
1163,0.0
1166,327.82853930931105
1168,327.82853930931105
2,2, 1, 7, 0, 3, 0.00,60.00,Tuesday
7,-6.1
545,18.562390292510194
546,-3.1102615044929878
547,15.806381468963567
548,152.31336522923428
720,3931.6070947703756
721,3931.6070947703756
784,0.0
785,0.0
848,0.0
849,0.0
1121,4234.950629860263
1135,1409.2806718900379
1161,0.07337231616296162
1163,0.0
1166,1371.6135407040301
1168,1371.6135407040301
2,2, 1, 7, 0, 4, 0.00,60.00,Tuesday
7,-6.7
545,18.57764066728641
546,-3.2115377814306423
547,15.689522252407158
548,152.31336522923428
720,4206.088880343394
721,4206.088880343394
784,0.0
785,0.0
848,0.0
849,0.0
1121,4153.394387611768
1135,1400.5550435240257
1161,1.8715220612562933
1163,0.0
1166,1815.8482716050908
1168,1815.8482716050908
2,2, 1, 7, 0, 5, 0.00,60.00,Tuesday
7,-6.7
545,18.600908866845504
546,-2.781402333211529
547,15.581383312636165
548,152.31336522923428
720,3668.8026006999316
721,3668.8026006999316
784,0.0
785,0.0
848,0.0
849,0.0
1121,4122.5636910264175
1135,1390.500924849421
1161,9.674991341053799
1163,0.0
1166,1246.3142410156743
1168,1246.3142410156743
2,2, 1, 7, 0, 6, 0.00,60.00,Tuesday
7,-6.7
545,19.335790382030087
546,-3.278873125757379
547,15.465330128099692
548,152.31336522923428
720,5417.44903953727
721,5417.44903953727
784,0.0
785,0.0
848,0.0
849,0.0
1121,4103.124914133369
1135,1384.543572048878
1161,14.529566485590284
1163,0.0
1166,3254.4381753332505
1168,3254.4381753332505
2,2, 1, 7, 0, 7, 0.00,60.00,Tuesday
7,-7.8
545,19.57418076887802
546,-3.640090902411062
547,15.378797384586276
548,152.31336522923428
720,5673.244764787831
721,5673.244764787831
784,0.0
785,0.0
848,0.0
849,0.0
1121,3995.788661723644
1135,1405.4660115035206
1161,3.600252591163376
1163,0.0
1166,3784.595576799216
1168,3784.595576799216
2,2, 1, 7, 0, 8, 0.00,60.00,Tuesday
7,-9.4
545,19.6400970652939
546,-4.958575826752014
547,15.261610960245498
548,152.31336522923428
720,6101.607468670361
721,6101.607468670361
784,0.0
785,0.0
848,0.0
849,0.0
1121,3813.9954958141443
1135,1396.5952188190738
1161,0.07337231616296162
1163,0.0
1166,4526.060402789823
1168,4526.060402789823
2,2, 1, 7, 0, 9, 0.00,60.00,Tuesday
7,-10.0
545,19.661329444659653
546,-5.5578293113285735
547,15.155378990525904
548,152.31336522923428
720,6119.006631802675
721,6119.006631802675
784,0.0
785,0.0
848,0.0
849,0.0
1121,3729.8410473374593
1135,1385.8044285093165
1161,3.7529049243030257
1163,0.0
1166,4715.310493302139
1168,4715.310493302139
2,2, 1, 7, 0,10, 0.00,60.00,Tuesday
7,-10.6
545,19.705215523954703
546,-4.024838552005225
547,15.052282197238553
548,152.31336522923428
720,4716.583154382752
721,4716.583154382752
784,0.0
785,0.0
848,0.0
849,0.0
1121,3673.417321996024
1135,1383.433777122003
1161,0.07337231616296162
1163,0.0
1166,3200.433573795876
1168,3200.433573795876
2,2, 1, 7, 0,11, 0.00,60.00,Tuesday
7,-9.4
545,19.714610093043394
546,-3.5490224653767144
547,14.958532220062006
548,152.31336522923428
720,4454.218465226673
721,4454.218465226673
784,0.0
785,0.0
848,0.0
849,0.0
1121,3811.3051178284677
1135,1399.5833460573988
1161,0.07337231616296162
1163,0.0
1166,2671.427611352261
1168,2671.427611352261
2,2, 1, 7, 0,12, 0.00,60.00,Tuesday
7,-10.0
545,19.716048086090552
546,-3.5423050362839104
547,14.870646200334996
548,152.31336522923428
720,4154.068306227664
721,4154.068306227664
784,0.0
785,0.0
848,0.0
849,0.0
1121,3741.440818214067
1135,1392.1471543729158
1161,0.07337231616296162
1163,0.0
1166,2346.9574672797307
1168,2346.9574672797307
2,2, 1, 7, 0,13, 0.00,60.00,Tuesday
7,-9.4
545,19.708276749296534
546,-2.911302399826134
547,14.802640398968371
548,152.31336522923428
720,4152.75617070061
721,4152.75617070061
784,0.0
785,0.0
848,0.0
849,0.0
1121,3811.269578538006
1135,1399.6228089353804
1161,0.07337231616296162
1163,0.0
1166,2265.1025794039933
1168,2265.1025794039933
2,2, 1, 7, 0,14, 0.00,60.00,Tuesday
7,-9.4
545,19.724378541537718
546,-1.468280512858201
547,14.740231324184398
548,152.31336522923428
720,3468.636535167345
721,3468.636535167345
784,0.0
785,0.0
848,0.0
849,0.0
1121,3811.5319638527385
1135,1399.3314499682194
1161,0.07337231616296162
1163,0.0
1166,1446.655715935463
1168,1446.655715935463
2,2, 1, 7, 0,15, 0.00,60.00,Tuesday
7,-9.4
545,19.72828217981054
546,-1.3005566677324472
547,14.68946200898692
548,152.31336522923428
720,3310.611764980913
721,3310.611764980913
784,0.0
785,0.0
848,0.0
849,0.0
1121,3811.2322467545505
1135,1399.6642619281342
1161,0.07337231616296162
1163,0.0
1166,1179.3933107613657
1168,1179.3933107613657
2,2, 1, 7, 0,16, 0.00,60.00,Tuesday
7,-10.0
545,19.737453413000367
546,-2.0354921597433746
547,14.648812958714894
548,152.31336522923428
720,2659.8609779632534
721,2659.8609779632534
784,0.0
785,0.0
848,0.0
849,0.0
1121,3741.4383262897854
1135,1392.149897053995
1161,0.07337231616296162
1163,0.0
1166,467.95648416221593
1168,467.95648416221593
2,2, 1, 7, 0,17, 0.00,60.00,Tuesday
7,-11.7
545,19.714137968332437
546,-4.7157620170748835
547,14.604687964829546
548,152.31336522923428
720,2987.605820760009
721,2987.605820760009
784,0.0
785,0.0
848,0.0
849,0.0
1121,3547.665883092073
1135,1370.4691097990894
1161,0.07337231616296162
1163,0.0
1166,1057.8034168660727
1168,1057.8034168660727
2,2, 1, 7, 0,18, 0.00,60.00,Tuesday
7,-12.2
545,19.697889248642223
546,-5.54669090383435
547,14.584165204551185
548,152.31336522923428
720,2932.792144177676
721,2932.792144177676
784,0.0
785,0.0
848,0.0
849,0.0
1121,3492.41887717085
1135,1363.300310683203
1161,0.07337231616296162
1163,0.0
1166,1185.3924003709642
1168,1185.3924003709642
2,2, 1, 7, 0,19, 0.00,60.00,Tuesday
7,-12.8
545,19.678277898335665
546,-7.199484195678032
547,14.547151940408986
548,152.31336522923428
720,3695.7718533511506
721,3695.7718533511506
784,0.0
785,0.0
848,0.0
849,0.0
1121,3426.498582112522
1135,1354.9368594353946
1161,0.07337231616296162
1163,0.0
1166,2190.0419160627284
1168,2190.0419160627284
2,2, 1, 7, 0,20, 0.00,60.00,Tuesday
7,-13.9
545,19.696805834374025
546,-7.372473329654996
547,14.496503431277976
548,152.31336522923428
720,3130.8019860351105
721,3130.8019860351105
784,0.0
785,0.0
848,0.0
849,0.0
1121,3307.234811063922
1135,1339.687700310737
1161,0.07337231616296162
1163,0.0
1166,1755.2007616459737
1168,1755.2007616459737
2,2, 1, 7, 0,21, 0.00,60.00,Tuesday
7,-14.4
545,19.68714415124237
546,-8.244832586143502
547,14.420598662061199
548,152.31336522923428
720,3677.679363917945
721,3677.679363917945
784,0.0
785,0.0
848,0.0
849,0.0
1121,3253.27522421295
1135,1333.2140718566582
1161,0.07337231616296162
1163,0.0
1166,2454.1014705116845
1168,2454.1014705116845
2,2, 1, 7, 0,22, 0.00,60.00,Tuesday
7,-15.0
545,19.679449810221854
546,-9.211280810108464
547,14.328321930862527
548,152.31336522923428
720,4112.819766193119
721,4112.819766193119
784,0.0
785,0.0
848,0.0
849,0.0
1121,3189.9415233798322
1135,1324.5818386772955
1161,0.07337231616296162
1163,0.0
1166,3073.527019129546
1168,3073.527019129546
2,2, 1, 7, 0,23, 0.00,60.00,Tuesday
7,-15.0
545,18.932654497465986
546,-8.901043102821703
547,14.229446959152156
548,152.31336522923428
720,3770.6995897491342
721,3770.6995897491342
784,0.0
785,0.0
848,0.0
849,0.0
1121,3190.237895185152
1135,1324.2848739917758
1161,0.07337231616296162
1163,0.0
1166,2751.1178626582896
1168,2751.1178626582896
2,2, 1, 7, 0,24, 0.00,60.00,Tuesday
7,-15.0
545,18.70485634263273
546,-9.243942792150992
547,14.089625905904715
548,152.31336522923428
720,3910.713021917776
721,3910.713021917776
784,0.0
785,0.0
848,0.0
849,0.0
1121,3207.3332575439617
1135,1307.081595665764
1161,0.07337231616296162
1163,0.0
1166,2818.3799302156763
1168,2818.3799302156763
2,3, 1, 8, 0, 1, 0.00,60.00,Wednesday
7,-16.7
545,18.599103576191393
546,-10.393405787874803
547,13.953337112203627
548,152.31336522923428
720,4837.991621924002
721,4837.991621924002
784,0.0
785,0.0
848,0.0
849,0.0
1121,3030.223738683648
1135,1276.1293904431216
1161,2.117820242998911
1163,0.0
1166,4066.6190742364047
1168,4066.6190742364047
2,3, 1, 8, 0, 2, 0.00,60.00,Wednesday
7,-16.7
545,18.558931672383306
546,-10.980354499734837
547,13.823963235674032
548,152.31336522923428
720,5539.253479446019
721,5539.253479446019
784,0.0
785,0.0
848,0.0
849,0.0
1121,3032.7543509131656
1135,1273.6600816980758
1161,2.118235112746396
1163,0.0
1166,4944.391640308904
1168,4944.391640308904
2,3, 1, 8, 0, 3, 0.00,60.00,Wednesday
7,-16.7
545,18.561938491533713
546,-10.212107396302365
547,13.699127310950683
548,152.31336522923428
720,5453.107860420261
721,5453.107860420261
784,0.0
785,0.0
848,0.0
849,0.0
1121,3033.7784578636315
1135,1272.6539462471512
1161,2.1198546590326184
1163,0.0
1166,4898.515805913491
1168,4898.515805913491
2,3, 1, 8, 0, 4, 0.00,60.00,Wednesday
7,-16.7
545,18.564295947074893
546,-10.497094022643992
547,13.570215313624287
548,152.31336522923428
720,5651.869213931619
721,5651.869213931619
784,0.0
785,0.0
848,0.0
849,0.0
1121,3033.8570563266053
1135,1272.5722934687687
1161,2.121081346518839
1163,0.0
1166,5099.830247024586
1168,5099.830247024586
2,3, 1, 8, 0, 5, 0.00,60.00,Wednesday
7,-17.2
545,18.56373192875864
546,-10.175581104025742
547,13.440239651649527
548,152.31336522923428
720,5675.7646346989495
721,5675.7646346989495
784,0.0
785,0.0
848,0.0
849,0.0
1121,2979.0639544232276
1135,1263.813796762764
1161,3.594283068334328
1163,0.0
1166,5197.5964029355
1168,5197.5964029355
2,3, 1, 8, 0, 6, 0.00,60.00,Wednesday
7,-17.2
545,19.20558920461685
546,-9.717450441235904
547,13.317164166456953
548,152.31336522923428
720,6738.550269020872
721,6738.550269020872
784,0.0
785,0.0
848,0.0
849,0.0
1121,2979.2242185975556
1135,1263.6538161838878
1161,3.5956582496358305
1163,0.0
1166,6182.006571850082
1168,6182.006571850082
2,3, 1, 8, 0, 7, 0.00,60.00,Wednesday
7,-17.2
545,19.268168369126162
546,-10.003645857872415
547,13.222852270349966
548,152.31336522923428
720,6920.187706714836
721,6920.187706714836
784,0.0
785,0.0
848,0.0
849,0.0
1121,2958.372333047321
1135,1274.3141707677994
1161,5.996951224772579
1163,0.0
1166,6182.006571850082
1168,6182.006571850082
2,3, 1, 8, 0, 8, 0.00,60.00,Wednesday
7,-16.7
545,19.469918866200526
546,-9.994500822277418
547,13.110348282885887
548,152.31336522923428
720,6628.125273543728
721,6628.125273543728
784,0.0
785,0.0
848,0.0
849,0.0
1121,3006.056500339706
1135,1281.9877553009542
1161,6.538029717776976
1163,0.0
1166,6182.006571850082
1168,6182.006571850082
2,3, 1, 8, 0, 9, 0.00,60.00,Wednesday
7,-15.6
545,19.618292761540985
546,-9.046611631516289
547,13.01782661270177
548,152.31336522923428
720,6164.839268495243
721,6164.839268495243
784,0.0
785,0.0
848,0.0
849,0.0
1121,3116.8322279263075
1135,1302.655958729349
1161,5.7454200955187815
1163,0.0
1166,5715.434984780492
1168,5715.434984780492
2,3, 1, 8, 0,10, 0.00,60.00,Wednesday
7,-14.4
545,19.673037375790962
546,-7.259114591417004
547,12.928661813276028
548,152.31336522923428
720,5666.3439110177715
721,5666.3439110177715
784,0.0
785,0.0
848,0.0
849,0.0
1121,3252.091902454056
1135,1327.5148640732777
1161,1.6518013698865013
1163,0.0
1166,4972.356298193727
1168,4972.356298193727
2,3, 1, 8, 0,11, 0.00,60.00,Wednesday
7,-12.8
545,19.722299504910847
546,-3.5135705037002927
547,12.859069222292048
548,152.31336522923428
720,4289.044645216996
721,4289.044645216996
784,0.0
785,0.0
848,0.0
849,0.0
1121,3429.103393415401
1135,1352.2025919415337
1161,0.07337231616296162
1163,0.0
1166,3103.1196646798044
1168,3103.1196646798044
2,3, 1, 8, 0,12, 0.00,60.00,Wednesday
7,-11.1
545,19.74578318586231
546,0.24635965584170097
547,12.80657294237935
548,152.31336522923428
720,3545.383645328033
721,3545.383645328033
784,0.0
785,0.0
848,0.0
849,0.0
1121,3617.9035121117968
1135,1375.4689856757025
1161,0.07337231616296162
1163,0.0
1166,1837.3621235586284
1168,1837.3621235586284
2,3, 1, 8, 0,13, 0.00,60.00,Wednesday
7,-9.4
545,19.741930974897713
546,1.1211771579877952
547,12.774182982713647
548,152.31336522923428
720,3592.298764541807
721,3592.298764541807
784,0.0
785,0.0
848,0.0
849,0.0
1121,3813.1771530070678
1135,1397.5042804221057
1161,0.07337231616296162
1163,0.0
1166,1480.2137677429014
1168,1480.2137677429014
2,3, 1, 8, 0,14, 0.00,60.00,Wednesday
7,-8.9
545,19.736234079334473
546,2.14995721655633
547,12.756237753485756
548,152.31336522923428
720,3281.9587765865163
721,3281.9587765865163
784,0.0
785,0.0
848,0.0
849,0.0
1121,3871.9902975610344
1135,1403.6030684486025
1161,0.07337231616296162
1163,0.0
1166,991.4616110591296
1168,991.4616110591296
2,3, 1, 8, 0,15, 0.00,60.00,Wednesday
7,-7.2
545,19.73104268879105
546,1.700009849603571
547,12.762121483516752
548,152.31336522923428
720,3214.0406761429713
721,3214.0406761429713
784,0.0
785,0.0
848,0.0
849,0.0
1121,4075.483448953748
1135,1424.4150268625438
1161,0.07337231616296162
1163,0.0
1166,648.0341348110642
1168,648.0341348110642
2,3, 1, 8, 0,16, 0.00,60.00,Wednesday
7,-7.2
545,19.7218075988255
546,1.029268007128687
547,12.764999009746804
548,152.31336522923428
720,3177.3036768510156
721,3177.3036768510156
784,0.0
785,0.0
848,0.0
849,0.0
1121,4075.5827012438485
1135,1424.301670594178
1161,0.07337231616296162
1163,0.0
1166,611.9683848730606
1168,611.9683848730606
2,3, 1, 8, 0,17, 0.00,60.00,Wednesday
7,-6.7
545,19.727877324391496
546,1.2531723284944296
547,12.776127176694748
548,152.31336522923428
720,2696.3192539713837
721,2696.3192539713837
784,0.0
785,0.0
848,0.0
849,0.0
1121,4136.689867985931
1135,1430.218704228889
1161,0.07337231616296162
1163,0.0
1166,23.569895861759505
1168,23.569895861759505
2,3, 1, 8, 0,18, 0.00,60.00,Wednesday
7,-6.1
545,19.72919664462535
546,0.2846360547706684
547,12.782576590254738
548,151.33646700628594
720,2729.8414148534757
721,2729.8414148534757
784,0.0
785,0.0
848,0.0
849,0.0
1121,4179.990886491557
1135,1428.5542304255896
1161,0.07290283290336012
1163,1.279728606519015
1166,0.0
1168,0.0
2,3, 1, 8, 0,19, 0.00,60.00,Wednesday
7,-5.0
545,19.712803761376467
546,-0.8142293368470642
547,12.78952327089474
548,151.14966488008278
720,2815.2169516309314
721,2815.2169516309314
784,0.0
785,0.0
848,0.0
849,0.0
1121,4310.150426493578
1135,1440.1859120451752
1161,0.07281272195213691
1163,1.5253551750549876
1166,0.0
1168,0.0
2,3, 1, 8, 0,20, 0.00,60.00,Wednesday
7,-4.4
545,19.733229791936456
546,-0.7350934775225914
547,12.777394168387332
548,142.7459450891396
720,2635.8419770260098
721,2635.8419770260098
784,0.0
785,0.0
848,0.0
849,0.0
1121,4113.792693214071
1135,1366.675826687631
1161,0.06876437094828301
1163,12.560446379924151
1166,0.0
1168,0.0
2,3, 1, 8, 0,21, 0.00,60.00,Wednesday
7,-3.3
545,19.783518613631866
546,-0.5460184630060637
547,12.754963386725876
548,128.23057013770276
720,2407.6265637297165
721,2407.6265637297165
784,0.0
785,0.0
848,0.0
849,0.0
1121,3768.6705652340406
1135,1239.749182874327
1161,0.061771848304391676
1163,31.620830485451854
1166,0.0
1168,0.0
2,3, 1, 8, 0,22, 0.00,60.00,Wednesday
7,-2.8
545,19.678068331850483
546,-0.4356001174488022
547,12.75594353218333
548,141.18612284557614
720,2804.8218990131936
721,2804.8218990131936
784,0.0
785,0.0
848,0.0
849,0.0
1121,4251.24739564781
1135,1372.0027926545495
1161,0.06801281393784898
1163,14.609058308065581
1166,0.0
1168,0.0
2,3, 1, 8, 0,23, 0.00,60.00,Wednesday
7,-2.8
545,18.94383908780669
546,-0.6310107383716402
547,12.6963323118077
548,123.10094367176168
720,2352.424530375527
721,2352.424530375527
784,0.0
785,0.0
848,0.0
849,0.0
1121,3655.5096778140455
1135,1193.8791601289483
1161,0.05930073977561595
1163,38.35663673501153
1166,0.0
1168,0.0
2,3, 1, 8, 0,24, 0.00,60.00,Wednesday
7,-2.8
545,18.692850851365137
546,-0.21470595283455782
547,12.660823050286652
548,138.2642045893757
720,2799.2192097173356
721,2799.2192097173356
784,0.0
785,0.0
848,0.0
849,0.0
1121,4171.919964039856
1135,1321.59492098338
1161,0.06660525127994689
1163,18.445825992421796
1166,0.0
1168,0.0
2,4, 1, 9, 0, 1, 0.00,60.00,Thursday
7,-2.8
545,18.60609857536473
546,-0.09412817729548452
547,12.630244236631624
548,152.31336522923428
720,3252.927418712754
721,3252.927418712754
784,0.0
785,0.0
848,0.0
849,0.0
1121,4654.411448339041
1135,1448.5695245541797
1161,0.07337231616296162
1163,0.0
1166,111.58159237682594
1168,111.58159237682594
2,4, 1, 9, 0, 2, 0.00,60.00,Thursday
7,-2.8
545,18.60874834992016
546,0.13650034753718912
547,12.589358656677721
548,152.31336522923428
720,3191.9468415132105
721,3191.9468415132105
784,0.0
785,0.0
848,0.0
849,0.0
1121,4656.510649904202
1135,1446.0964321056538
1161,0.07337231616296162
1163,0.0
1166,52.49622671695215
1168,52.49622671695215
2,4, 1, 9, 0, 3, 0.00,60.00,Thursday
7,-2.8
545,18.607280717661148
546,0.18349582520574073
547,12.551373746340463
548,152.31336522923428
720,3367.760955562844
721,3367.760955562844
784,0.0
785,0.0
848,0.0
849,0.0
1121,4656.500530215891
1135,1446.1083516519732
1161,0.07337231616296162
1163,0.0
1166,246.31694979026224
1168,246.31694979026224
2,4, 1, 9, 0, 4, 0.00,60.00,Thursday
7,-2.8
545,18.60652053785098
546,-0.37238335621963203
547,12.511922713698583
548,152.31336522923428
720,3470.480749528395
721,3470.480749528395
784,0.0
785,0.0
848,0.0
849,0.0
1121,4656.5995193599865
1135,1445.9917576663697
1161,0.07337231616296162
1163,0.0
1166,364.96992540275096
1168,364.96992540275096
2,4, 1, 9, 0, 5, 0.00,60.00,Thursday
7,-2.8
545,18.62829609191898
546,0.3259486288069182
547,12.472019537549556
548,147.34320533689302
720,2999.3721172452006
721,2999.3721172452006
784,0.0
785,0.0
848,0.0
849,0.0
1121,4486.554629159385
1135,1398.8285450846777
1161,0.07097882682159835
1163,6.524230027159761
1166,0.0
1168,0.0
2,4, 1, 9, 0, 6, 0.00,60.00,Thursday
7,-3.3
545,19.35342877671494
546,0.15816192009113042
547,12.439140226544865
548,152.31336522923428
720,4043.8109561689434
721,4043.8109561689434
784,0.0
785,0.0
848,0.0
849,0.0
1121,4591.205089719672
1135,1440.4386505463183
1161,0.07337231616296162
1163,0.0
1166,1075.997935583764
1168,1075.997935583764
2,4, 1, 9, 0, 7, 0.00,60.00,Thursday
7,-5.6
545,19.57968353419576
546,-2.028026187909991
547,12.416652943347495
548,152.31336522923428
720,4958.977758892859
721,4958.977758892859
784,0.0
785,0.0
848,0.0
849,0.0
1121,4248.437137261096
1135,1421.7015697254885
1161,8.344772032964457
1163,0.0
1166,2558.919395381764
1168,2558.919395381764
2,4, 1, 9, 0, 8, 0.00,60.00,Thursday
7,-6.1
545,19.65642091922822
546,-1.9762494539187703
547,12.387084360758237
548,152.31336522923428
720,4713.062791117194
721,4713.062791117194
784,0.0
785,0.0
848,0.0
849,0.0
1121,4171.223168539554
1135,1418.4019835447718
1161,10.932028159188569
1163,0.0
1166,2503.8396347104567
1168,2503.8396347104567
2,4, 1, 9, 0, 9, 0.00,60.00,Thursday
7,-7.8
545,19.69525942913499
546,-3.616648018955072
547,12.342173150859777
548,152.31336522923428
720,4291.404427231537
721,4291.404427231537
784,0.0
785,0.0
848,0.0
849,0.0
1121,4005.4298117012854
1135,1414.3361287078487
1161,0.07337231616296162
1163,0.0
1166,2202.2854003979637
1168,2202.2854003979637
2,4, 1, 9, 0,10, 0.00,60.00,Thursday
7,-7.2
545,19.722224033102368
546,-1.529096887624764
547,12.319292558560976
548,152.31336522923428
720,3066.834822008841
721,3066.834822008841
784,0.0
785,0.0
848,0.0
849,0.0
1121,4076.976390540032
1135,1422.709861112334
1161,0.07337231616296162
1163,0.0
1166,794.6964004803294
1168,794.6964004803294
2,4, 1, 9, 0,11, 0.00,60.00,Thursday
7,-6.7
545,19.82759625738751
546,-0.7352445924289429
547,12.285112994163676
548,138.87499398446113
720,2203.4014554605783
721,2203.4014554605783
784,0.0
785,0.0
848,0.0
849,0.0
1121,3731.4762605587953
1135,1303.5442914414266
1161,0.06689987185826198
1163,17.64274223080049
1166,0.0
1168,0.0
2,4, 1, 9, 0,12, 0.00,60.00,Thursday
7,-6.1
545,19.771591743324997
546,-0.7565658586186482
547,12.275433720691197
548,128.8550442255749
720,2134.4579091810665
721,2134.4579091810665
784,0.0
785,0.0
848,0.0
849,0.0
1121,3493.800480377937
1135,1218.136687140294
1161,0.06207292932200659