Program Version,EnergyPlus, Version 22.2.0-c249759bad, YMD=2023.09.01 14:31
1,5,Environment Title[],Latitude[deg],Longitude[deg],Time Zone[],Elevation[m]
2,8,Day of Simulation[],Month[],Day of Month[],DST Indicator[1=yes 0=no],Hour[],StartMinute[],EndMinute[],DayType
3,5,Cumulative Day of Simulation[],Month[],Day of Month[],DST Indicator[1=yes 0=no],DayType  ! When Daily Report Variables Requested
4,2,Cumulative Days of Simulation[],Month[]  ! When Monthly Report Variables Requested
5,1,Cumulative Days of Simulation[] ! When Run Period Report Variables Requested
6,1,Calendar Year of Simulation[] ! When Annual Report Variables Requested
7,1,Environment,Site Outdoor Air Drybulb Temperature [C] !Hourly
545,1,LIVING,Zone Mean Air Temperature [C] !Hourly
546,1,ATTIC,Zone Mean Air Temperature [C] !Hourly
547,1,CRAWLSPACE,Zone Mean Air Temperature [C] !Hourly
548,1,FAN,Fan Electricity Rate [W] !Hourly
720,1,LIVING,Zone Predicted Sensible Load to Heating Setpoint Heat Transfer Rate [W] !Hourly
721,1,LIVING,Zone System Predicted Sensible Load to Heating Setpoint Heat Transfer Rate [W] !Hourly
784,1,ATTIC,Zone Predicted Sensible Load to Heating Setpoint Heat Transfer Rate [W] !Hourly
785,1,ATTIC,Zone System Predicted Sensible Load to Heating Setpoint Heat Transfer Rate [W] !Hourly
848,1,CRAWLSPACE,Zone Predicted Sensible Load to Heating Setpoint Heat Transfer Rate [W] !Hourly
849,1,CRAWLSPACE,Zone System Predicted Sensible Load to Heating Setpoint Heat Transfer Rate [W] !Hourly
1121,1,DX_HEATING_COIL,Heating Coil Heating Rate [W] !Hourly
1135,1,DX_HEATING_COIL,Heating Coil Electricity Rate [W] !Hourly
1161,1,DX_HEATING_COIL,Heating Coil Defrost Electricity Rate [W] !Hourly
1163,1,DX_HEATING_COIL,Heating Coil Crankcase Heater Electricity Rate [W] !Hourly
1166,1,HEATING_RESISTANCE_BACKUP,Heating Coil Heating Rate [W] !Hourly
1168,1,HEATING_RESISTANCE_BACKUP,Heating Coil Electricity Rate [W] !Hourly
End of Data Dictionary
1,EXTREME_WINTER,  36.08,-115.17,  -8.00, 664.50
2,1,12,22, 0, 1, 0.00,60.00,Monday
7,8.3
545,22.01264593000952
546,7.8903179158207415
547,20.333551516050857
548,0.0
720,-2278.9031450325037
721,-2278.9031450325037
784,0.0
785,0.0
848,0.0
849,0.0
1121,0.0
1135,0.0
1161,0.0
1163,200.0
1166,0.0
1168,0.0
2,1,12,22, 0, 2, 0.00,60.00,Monday
7,8.3
545,21.482250227479263
546,7.834598340788448
547,20.142649162822156
548,0.0
720,-1719.517014889093
721,-1719.517014889093
784,0.0
785,0.0
848,0.0
849,0.0
1121,0.0
1135,0.0
1161,0.0
1163,200.0
1166,0.0
1168,0.0
2,1,12,22, 0, 3, 0.00,60.00,Monday
7,8.3
545,20.960904740637513
546,7.75134513255175
547,20.037369356771343
548,0.0
720,-1347.698738938233
721,-1347.698738938233
784,0.0
785,0.0
848,0.0
849,0.0
1121,0.0
1135,0.0
1161,0.0
1163,200.0
1166,0.0
1168,0.0
2,1,12,22, 0, 4, 0.00,60.00,Monday
7,8.3
545,20.515909741428175
546,7.747069852572685
547,19.921769202100155
548,0.0
720,-1074.363611042415
721,-1074.363611042415
784,0.0
785,0.0
848,0.0
849,0.0
1121,0.0
1135,0.0
1161,0.0
1163,200.0
1166,0.0
1168,0.0
2,1,12,22, 0, 5, 0.00,60.00,Monday
7,8.3
545,20.20165183485541
546,7.771278170431084
547,19.81652251734082
548,0.0
720,-862.3955959532041
721,-862.3955959532041
784,0.0
785,0.0
848,0.0
849,0.0
1121,0.0
1135,0.0
1161,0.0
1163,200.0
1166,0.0
1168,0.0
2,1,12,22, 0, 6, 0.00,60.00,Monday
7,8.3
545,20.036195919031915
546,7.672040249183089
547,19.71672208984229
548,0.0
720,-165.40720559466536
721,-165.40720559466536
784,0.0
785,0.0
848,0.0
849,0.0
1121,0.0
1135,0.0
1161,0.0
1163,200.0
1166,0.0
1168,0.0
2,1,12,22, 0, 7, 0.00,60.00,Monday
7,8.9
545,20.002440961783595
546,7.725262567850085
547,19.622491854194813
548,0.0
720,-156.35168192532183
721,-156.35168192532183
784,0.0
785,0.0
848,0.0
849,0.0
1121,0.0
1135,0.0
1161,0.0
1163,200.0
1166,0.0
1168,0.0
2,1,12,22, 0, 8, 0.00,60.00,Monday
7,9.4
545,19.759837076951676
546,8.421882428087983
547,19.534028450947297
548,0.0
720,-20.608201603931775
721,-20.608201603931775
784,0.0
785,0.0
848,0.0
849,0.0
1121,0.0
1135,0.0
1161,0.0
1163,200.0
1166,0.0
1168,0.0
2,1,12,22, 0, 9, 0.00,60.00,Monday
7,10.6
545,19.71005568548241
546,9.588568349786847
547,19.449131656980665
548,2.0335286447229732
720,80.16656632353988
721,80.16656632353988
784,0.0
785,0.0
848,0.0
849,0.0
1121,88.98500676349039
1135,23.84032132505407
1161,0.0
1163,0.0
1166,0.0
1168,0.0
2,1,12,22, 0,10, 0.00,60.00,Monday
7,12.2
545,20.49025205703335
546,13.229664444449062
547,19.375098581013262
548,0.0
720,-340.12079222352986
721,-340.12079222352986
784,0.0
785,0.0
848,0.0
849,0.0
1121,0.0
1135,0.0
1161,0.0
1163,0.0
1166,0.0
1168,0.0
2,1,12,22, 0,11, 0.00,60.00,Monday
7,12.2
545,21.536212425521146
546,17.34599024784051
547,19.31821840035811
548,0.0
720,-1369.3618597005388
721,-1369.3618597005388
784,0.0
785,0.0
848,0.0
849,0.0
1121,0.0
1135,0.0
1161,0.0
1163,0.0
1166,0.0
1168,0.0
2,1,12,22, 0,12, 0.00,60.00,Monday
7,14.4
545,22.64868904281824
546,22.562358787934986
547,19.291409697798866
548,0.0
720,-2267.5059781758155
721,-2267.5059781758155
784,0.0
785,0.0
848,0.0
849,0.0
1121,0.0
1135,0.0
1161,0.0
1163,0.0
1166,0.0
1168,0.0
2,1,12,22, 0,13, 0.00,60.00,Monday
7,14.4
545,23.313163680076627
546,25.94486990456699
547,19.300973308145416
548,9.35065829811705
720,-3261.2047066045398
721,-3261.2047066045398
784,0.0
785,0.0
848,0.0
849,0.0
1121,0.0
1135,0.0
1161,0.0
1163,0.0
1166,0.0
1168,0.0
2,1,12,22, 0,14, 0.00,60.00,Monday
7,16.7
545,23.351094536698515
546,25.966162502594887
547,19.35218393266622
548,30.287720669715796
720,-3548.310992304032
721,-3548.310992304032
784,0.0
785,0.0
848,0.0
849,0.0
1121,0.0
1135,0.0
1161,0.0
1163,0.0
1166,0.0
1168,0.0
2,1,12,22, 0,15, 0.00,60.00,Monday
7,16.7
545,23.347305091285417
546,24.014396090413644
547,19.43243592201774
548,49.73115587027597
720,-4905.193886660123
721,-4905.193886660123
784,0.0
785,0.0
848,0.0
849,0.0
1121,0.0
1135,0.0
1161,0.0
1163,0.0
1166,0.0
1168,0.0
2,1,12,22, 0,16, 0.00,60.00,Monday
7,15.0
545,23.278940384221436
546,22.226962347263008
547,19.512274608323246
548,54.56715877461117
720,-5478.973316539639
721,-5478.973316539639
784,0.0
785,0.0
848,0.0
849,0.0
1121,0.0
1135,0.0
1161,0.0
1163,0.0
1166,0.0
1168,0.0
2,1,12,22, 0,17, 0.00,60.00,Monday
7,15.0
545,23.33405535687651
546,19.232300174757754
547,19.57824082114455
548,30.242106179054584
720,-4659.151753971393
721,-4659.151753971393
784,0.0
785,0.0
848,0.0
849,0.0
1121,0.0
1135,0.0
1161,0.0
1163,0.0
1166,0.0
1168,0.0
2,1,12,22, 0,18, 0.00,60.00,Monday
7,13.3
545,23.200714167480786
546,16.198697401514682
547,19.640441072529153
548,23.19748324591574
720,-3999.4917338473388
721,-3999.4917338473388
784,0.0
785,0.0
848,0.0
849,0.0
1121,0.0
1135,0.0
1161,0.0
1163,0.0
1166,0.0
1168,0.0
2,1,12,22, 0,19, 0.00,60.00,Monday
7,11.7
545,23.434047026851847
546,13.7782674455243
547,19.67653462377152
548,18.654104206261316
720,-3880.781319602318
721,-3880.781319602318
784,0.0
785,0.0
848,0.0
849,0.0
1121,0.0
1135,0.0
1161,0.0
1163,0.0
1166,0.0
1168,0.0
2,1,12,22, 0,20, 0.00,60.00,Monday
7,10.6
545,23.25589321588607
546,11.958613581630244
547,19.693892740066186
548,18.569376600350896
720,-3633.463473301672
721,-3633.463473301672
784,0.0
785,0.0
848,0.0
849,0.0
1121,0.0
1135,0.0
1161,0.0
1163,0.0
1166,0.0
1168,0.0
2,1,12,22, 0,21, 0.00,60.00,Monday
7,10.6
545,23.385261875014262
546,10.97237000474177
547,19.687374393328117
548,12.822408511786863
720,-3484.1775159191
721,-3484.1775159191
784,0.0
785,0.0
848,0.0
849,0.0
1121,0.0
1135,0.0
1161,0.0
1163,0.0
1166,0.0
1168,0.0
2,1,12,22, 0,22, 0.00,60.00,Monday
7,10.0
545,23.311667137544163
546,10.11077847733458
547,19.665058023070127
548,6.313784363890838
720,-2975.1397983271236
721,-2975.1397983271236
784,0.0
785,0.0
848,0.0
849,0.0
1121,0.0
1135,0.0
1161,0.0
1163,0.0
1166,0.0
1168,0.0
2,1,12,22, 0,23, 0.00,60.00,Monday
7,10.0
545,23.141785399275452
546,9.698698068798436
547,19.63076725248822
548,0.0
720,-3172.591588729383
721,-3172.591588729383
784,0.0
785,0.0
848,0.0
849,0.0
1121,0.0
1135,0.0
1161,0.0
1163,0.0
1166,0.0
1168,0.0
2,1,12,22, 0,24, 0.00,60.00,Monday
7,8.3
545,22.37929449348277
546,8.660693520426003
547,19.58975920864832
548,0.0
720,-2265.21620031569
721,-2265.21620031569
784,0.0
785,0.0
848,0.0
849,0.0
1121,0.0
1135,0.0
1161,0.0
1163,200.0
1166,0.0
1168,0.0
2,2,12,23, 0, 1, 0.00,60.00,Tuesday
7,7.8
545,21.67218334298498
546,7.836221006881907
547,19.537354444920336
548,0.0
720,-2068.3260695132176
721,-2068.3260695132176
784,0.0
785,0.0
848,0.0
849,0.0
1121,0.0
1135,0.0
1161,0.0
1163,200.0
1166,0.0
1168,0.0
2,2,12,23, 0, 2, 0.00,60.00,Tuesday
7,7.2
545,21.220673166361046
546,6.153858266779157
547,19.478778577965443
548,0.0
720,-1774.3946836597224
721,-1774.3946836597224
784,0.0
785,0.0
848,0.0
849,0.0
1121,0.0
1135,0.0
1161,0.0
1163,200.0
1166,0.0
1168,0.0
2,2,12,23, 0, 3, 0.00,60.00,Tuesday
7,7.2
545,20.709833813643623
546,4.818816054470504
547,19.41117831683199
548,0.0
720,-1282.1014087361618
721,-1282.1014087361618
784,0.0
785,0.0
848,0.0
849,0.0
1121,0.0
1135,0.0
1161,0.0
1163,200.0
1166,0.0
1168,0.0
2,2,12,23, 0, 4, 0.00,60.00,Tuesday
7,6.7
545,20.097787337298332
546,4.969604503864161
547,19.338875997330582
548,0.0
720,-840.6210382658
721,-840.6210382658
784,0.0
785,0.0
848,0.0
849,0.0
1121,0.0
1135,0.0
1161,0.0
1163,200.0
1166,0.0
1168,0.0
2,2,12,23, 0, 5, 0.00,60.00,Tuesday
7,6.7
545,19.71206384503803
546,4.925108401979359
547,19.26478298704859
548,0.0
720,-618.121141847415
721,-618.121141847415
784,0.0
785,0.0
848,0.0
849,0.0
1121,0.0
1135,0.0
1161,0.0
1163,200.0
1166,0.0
1168,0.0
2,2,12,23, 0, 6, 0.00,60.00,Tuesday
7,6.7
545,19.70357636280616
546,3.7870331132492034
547,19.188056330095346
548,2.588174381280036
720,90.7286743766781
721,90.7286743766781
784,0.0
785,0.0
848,0.0
849,0.0
1121,102.95647179020752
1135,28.97419016331358
1161,0.0
1163,197.543096603779
1166,0.0
1168,0.0
2,2,12,23, 0, 7, 0.00,60.00,Tuesday
7,5.6
545,19.554396432535402
546,3.871054217526133
547,19.10797731766635
548,7.096368912692886
720,229.8081327157861
721,229.8081327157861
784,0.0
785,0.0
848,0.0
849,0.0
1121,275.2082326293295
1135,78.518311348081
1161,0.0
1163,193.26355557471766
1166,0.0
1168,0.0
2,2,12,23, 0, 8, 0.00,60.00,Tuesday
7,7.2
545,19.932319642969908
546,4.66920804857213
547,19.03896725308526
548,2.635768024735103
720,80.91557870749602
721,80.91557870749602
784,0.0
785,0.0
848,0.0
849,0.0
1121,106.25020632123473
1135,29.574837028570695
1161,0.0
1163,197.4979168874936
1166,0.0
1168,0.0
2,2,12,23, 0, 9, 0.00,60.00,Tuesday
7,10.6
545,20.824236317290232
546,8.503245695889282
547,18.973727260768474
548,0.0
720,-669.2990335118393
721,-669.2990335118393
784,0.0
785,0.0
848,0.0
849,0.0
1121,0.0
1135,0.0
1161,0.0
1163,0.0
1166,0.0
1168,0.0
2,2,12,23, 0,10, 0.00,60.00,Tuesday
7,11.7
545,21.97084091182598
546,15.433217575696997
547,18.930218261796337
548,0.0
720,-1798.3530054442763
721,-1798.3530054442763
784,0.0
785,0.0
848,0.0
849,0.0
1121,0.0
1135,0.0
1161,0.0
1163,0.0
1166,0.0
1168,0.0
2,2,12,23, 0,11, 0.00,60.00,Tuesday
7,11.7
545,22.89724514246473
546,22.65773582966043
547,18.91797520953819
548,0.0
720,-2677.891531240486
721,-2677.891531240486
784,0.0
785,0.0
848,0.0
849,0.0
1121,0.0
1135,0.0
1161,0.0
1163,0.0
1166,0.0
1168,0.0
2,2,12,23, 0,12, 0.00,60.00,Tuesday
7,14.4
545,23.316438228564145
546,28.352921809399884
547,18.94852120860904
548,14.306037956041012
720,-3433.980407650497
721,-3433.980407650497
784,0.0
785,0.0
848,0.0
849,0.0
1121,0.0
1135,0.0
1161,0.0
1163,0.0
1166,0.0
1168,0.0
2,2,12,23, 0,13, 0.00,60.00,Tuesday
7,15.6
545,23.278599981103756
546,28.65953029898048
547,19.00827647231551
548,31.704354089472872
720,-3531.1322304355235
721,-3531.1322304355235
784,0.0
785,0.0
848,0.0
849,0.0
1121,0.0
1135,0.0
1161,0.0
1163,0.0
1166,0.0
1168,0.0
2,2,12,23, 0,14, 0.00,60.00,Tuesday
7,17.2
545,23.36676520396309
546,27.80505306962265
547,19.108751509265407
548,53.9725137124955
720,-5031.703416863056
721,-5031.703416863056
784,0.0
785,0.0
848,0.0
849,0.0
1121,0.0
1135,0.0
1161,0.0
1163,0.0
1166,0.0
1168,0.0
2,2,12,23, 0,15, 0.00,60.00,Tuesday
7,16.7
545,23.32153434378096
546,25.101082905174458
547,19.205308210762908
548,57.333471989506215
720,-5539.683722038928
721,-5539.683722038928
784,0.0
785,0.0
848,0.0
849,0.0
1121,0.0
1135,0.0
1161,0.0
1163,0.0
1166,0.0
1168,0.0
2,2,12,23, 0,16, 0.00,60.00,Tuesday
7,15.0
545,23.28828195667795
546,21.345150380345512
547,19.299911369052932
548,52.04172667975803
720,-5459.739829356027
721,-5459.739829356027
784,0.0
785,0.0
848,0.0
849,0.0
1121,0.0
1135,0.0
1161,0.0
1163,0.0
1166,0.0
1168,0.0
2,2,12,23, 0,17, 0.00,60.00,Tuesday
7,15.0
545,23.328661786614383
546,18.466659546664744
547,19.376932097124612
548,31.69282352951956
720,-4706.76306773334
721,-4706.76306773334
784,0.0
785,0.0
848,0.0
849,0.0
1121,0.0
1135,0.0
1161,0.0
1163,0.0
1166,0.0
1168,0.0
2,2,12,23, 0,18, 0.00,60.00,Tuesday
7,12.8
545,23.36856640648427
546,16.55747030504587
547,19.442375162530148
548,25.567394264442168
720,-4157.2542915617505
721,-4157.2542915617505
784,0.0
785,0.0
848,0.0
849,0.0
1121,0.0
1135,0.0
1161,0.0
1163,0.0
1166,0.0
1168,0.0
2,2,12,23, 0,19, 0.00,60.00,Tuesday
7,12.2
545,23.267366901963925
546,14.315227442368448
547,19.484715201845912
548,25.34466676832897
720,-4053.972703363792
721,-4053.972703363792
784,0.0
785,0.0
848,0.0
849,0.0
1121,0.0
1135,0.0
1161,0.0
1163,0.0
1166,0.0
1168,0.0
2,2,12,23, 0,20, 0.00,60.00,Tuesday
7,12.2
545,23.293536731789235
546,13.152773596547597
547,19.499882111303233
548,20.935616118880915
720,-3925.0254303709953
721,-3925.0254303709953
784,0.0
785,0.0
848,0.0
849,0.0
1121,0.0
1135,0.0
1161,0.0
1163,0.0
1166,0.0
1168,0.0
2,2,12,23, 0,21, 0.00,60.00,Tuesday
7,11.1
545,23.181508451496253
546,12.024714831360425
547,19.493971462281277
548,14.433671220993096
720,-3585.181585950637
721,-3585.181585950637
784,0.0
785,0.0
848,0.0
849,0.0
1121,0.0
1135,0.0
1161,0.0
1163,0.0
1166,0.0
1168,0.0
2,2,12,23, 0,22, 0.00,60.00,Tuesday
7,10.0
545,23.02793448162324
546,10.905675429137542
547,19.468419046061182
548,1.3251577192299944
720,-3045.567414526824
721,-3045.567414526824
784,0.0
785,0.0
848,0.0
849,0.0
1121,0.0
1135,0.0
1161,0.0
1163,0.0
1166,0.0
1168,0.0
2,2,12,23, 0,23, 0.00,60.00,Tuesday
7,10.0
545,22.549431008058708
546,10.568979740808597
547,19.441485382596163
548,0.0
720,-3140.0434958129117
721,-3140.0434958129117
784,0.0
785,0.0
848,0.0
849,0.0
1121,0.0
1135,0.0
1161,0.0
1163,0.0
1166,0.0
1168,0.0
2,2,12,23, 0,24, 0.00,60.00,Tuesday
7,9.4
545,21.79205303069851
546,10.08095369546762
547,19.400433027174408
548,0.0
720,-2535.920710710505
721,-2535.920710710505
784,0.0
785,0.0
848,0.0
849,0.0
1121,0.0
1135,0.0
1161,0.0
1163,200.0
1166,0.0
1168,0.0
2,3,12,24, 0, 1, 0.00,60.00,Wednesday
7,8.3
545,21.480292193270895
546,9.04337494068927
547,19.353389627419066
548,0.0
720,-2273.2096848827678
721,-2273.2096848827678
784,0.0
785,0.0
848,0.0
849,0.0
1121,0.0
1135,0.0
1161,0.0
1163,200.0
1166,0.0
1168,0.0
2,3,12,24, 0, 2, 0.00,60.00,Wednesday
7,7.8
545,21.027566979442216
546,8.214220649018108
547,19.295603391883287
548,0.0
720,-1660.8796646346836
721,-1660.8796646346836
784,0.0
785,0.0
848,0.0
849,0.0
1121,0.0
1135,0.0
1161,0.0
1163,200.0
1166,0.0
1168,0.0
2,3,12,24, 0, 3, 0.00,60.00,Wednesday
7,6.7
545,20.444537779275777
546,6.72921530662463
547,19.23129124004263
548,0.0
720,-1187.4485975436583
721,-1187.4485975436583
784,0.0
785,0.0
848,0.0
849,0.0
1121,0.0
1135,0.0
1161,0.0
1163,200.0
1166,0.0
1168,0.0
2,3,12,24, 0, 4, 0.00,60.00,Wednesday
7,6.7
545,20.052100050961126
546,5.386708213812938
547,19.163847126331163
548,0.0
720,-924.1294533287892
721,-924.1294533287892
784,0.0
785,0.0
848,0.0
849,0.0
1121,0.0
1135,0.0
1161,0.0
1163,200.0
1166,0.0
1168,0.0
2,3,12,24, 0, 5, 0.00,60.00,Wednesday
7,6.7
545,19.699634503503166
546,3.9270669419543722
547,19.092424949004823
548,0.0
720,-612.6838727013046
721,-612.6838727013046
784,0.0
785,0.0
848,0.0
849,0.0
1121,0.0
1135,0.0
1161,0.0
1163,200.0
1166,0.0
1168,0.0
2,3,12,24, 0, 6, 0.00,60.00,Wednesday
7,5.0
545,19.67139322091994
546,3.9013890332540244
547,19.00989127639881
548,10.901355650701296
720,308.11351928461863
721,308.11351928461863
784,0.0
785,0.0
848,0.0
849,0.0
1121,365.0115636649443
1135,114.35348198977132
1161,0.005251405285817897
1163,189.65153659207087
1166,0.0
1168,0.0
2,3,12,24, 0, 7, 0.00,60.00,Wednesday
7,5.6
545,19.75178170853775
546,4.164504274211335
547,18.93564840738525
548,12.699229721817774
720,405.34503820307873
721,405.34503820307873
784,0.0
785,0.0
848,0.0
849,0.0
1121,494.0304754425959
1135,140.40933771286157
1161,0.0
1163,187.94486922573813
1166,0.0
1168,0.0
2,3,12,24, 0, 8, 0.00,60.00,Wednesday
7,6.1
545,19.90012408737443
546,4.986160456726199
547,18.87073173838113
548,3.489491403339297
720,98.0568334150721
721,98.0568334150721
784,0.0
785,0.0
848,0.0
849,0.0
1121,136.77221590894223
1135,38.84023968511105
1161,0.0
1163,196.68749395637388
1166,0.0
1168,0.0
2,3,12,24, 0, 9, 0.00,60.00,Wednesday
7,7.8
545,20.47899638813789
546,8.118250842724802
547,18.806800005373557
548,0.0
720,-551.8802514484469
721,-551.8802514484469
784,0.0
785,0.0
848,0.0
849,0.0
1121,0.0
1135,0.0
1161,0.0
1163,200.0
1166,0.0
1168,0.0
2,3,12,24, 0,10, 0.00,60.00,Wednesday
7,10.0
545,21.657453609363493
546,12.616960164248919
547,18.763218522007296
548,0.0
720,-1470.6605401853358
721,-1470.6605401853358
784,0.0
785,0.0
848,0.0
849,0.0
1121,0.0
1135,0.0
1161,0.0
1163,0.0
1166,0.0
1168,0.0
2,3,12,24, 0,11, 0.00,60.00,Wednesday
7,10.0
545,22.53734192282724
546,16.49060875061011
547,18.74839058048071
548,0.0
720,-2314.2786864346617
721,-2314.2786864346617
784,0.0
785,0.0
848,0.0
849,0.0
1121,0.0
1135,0.0
1161,0.0
1163,0.0
1166,0.0
1168,0.0
2,3,12,24, 0,12, 0.00,60.00,Wednesday
7,11.7
545,23.286007556080186
546,19.219196897219135
547,18.76071304651052
548,0.0
720,-2893.303702680081
721,-2893.303702680081
784,0.0
785,0.0
848,0.0
849,0.0
1121,0.0
1135,0.0
1161,0.0
1163,0.0
1166,0.0
1168,0.0
2,3,12,24, 0,13, 0.00,60.00,Wednesday
7,13.3
545,23.32899047296449
546,20.945792589551264
547,18.810235805741197
548,15.520080410481803
720,-3342.054468783881
721,-3342.054468783881
784,0.0
785,0.0
848,0.0
849,0.0
1121,0.0
1135,0.0
1161,0.0
1163,0.0
1166,0.0
1168,0.0
2,3,12,24, 0,14, 0.00,60.00,Wednesday
7,13.9
545,23.245756665557558
546,20.40626182063478
547,18.890793077003707
548,31.905080130859954
720,-4258.650053734191
721,-4258.650053734191
784,0.0
785,0.0
848,0.0
849,0.0
1121,0.0
1135,0.0
1161,0.0
1163,0.0
1166,0.0
1168,0.0
2,3,12,24, 0,15, 0.00,60.00,Wednesday
7,13.3
545,23.30265942642261
546,18.964160124440617
547,18.981384533019302
548,42.406190671053345
720,-5280.670641086723
721,-5280.670641086723
784,0.0
785,0.0
848,0.0
849,0.0
1121,0.0
1135,0.0
1161,0.0
1163,0.0
1166,0.0
1168,0.0
2,3,12,24, 0,16, 0.00,60.00,Wednesday
7,12.8
545,23.29914499907484
546,17.182590763326015
547,19.079725610067626
548,43.551387363793005
720,-5488.798401696051
721,-5488.798401696051
784,0.0
785,0.0
848,0.0
849,0.0
1121,0.0
1135,0.0
1161,0.0
1163,0.0
1166,0.0
1168,0.0
2,3,12,24, 0,17, 0.00,60.00,Wednesday
7,12.8
545,23.347714591188904
546,15.059881890635044
547,19.146378869976495
548,17.41554032247285
720,-4413.968452945272
721,-4413.968452945272
784,0.0
785,0.0
848,0.0
849,0.0
1121,0.0
1135,0.0
1161,0.0
1163,0.0
1166,0.0
1168,0.0
2,3,12,24, 0,18, 0.00,60.00,Wednesday
7,12.2
545,23.243310899026184
546,13.260180544523148
547,19.207541080691293
548,10.507276686431577
720,-3613.1397460835215
721,-3613.1397460835215
784,0.0
785,0.0
848,0.0
849,0.0
1121,0.0
1135,0.0
1161,0.0
1163,0.0
1166,0.0
1168,0.0
2,3,12,24, 0,19, 0.00,60.00,Wednesday
7,11.7
545,22.708268253212076
546,12.268345813018252
547,19.231517343916284
548,5.841823049065486
720,-3403.174054393281
721,-3403.174054393281
784,0.0
785,0.0
848,0.0
849,0.0
1121,0.0
1135,0.0
1161,0.0
1163,0.0
1166,0.0
1168,0.0
2,3,12,24, 0,20, 0.00,60.00,Wednesday
7,10.6
545,22.763623174307835
546,11.326575308081578
547,19.23234656970989
548,0.0
720,-2908.62055742307
721,-2908.62055742307
784,0.0
785,0.0
848,0.0
849,0.0
1121,0.0
1135,0.0
1161,0.0
1163,0.0
1166,0.0
1168,0.0
2,3,12,24, 0,21, 0.00,60.00,Wednesday
7,10.6
545,23.12408456524486
546,10.818517565048891
547,19.220095549825363
548,0.0
720,-2887.326861610931
721,-2887.326861610931
784,0.0
785,0.0
848,0.0
849,0.0
1121,0.0
1135,0.0
1161,0.0
1163,0.0
1166,0.0
1168,0.0
2,3,12,24, 0,22, 0.00,60.00,Wednesday
7,10.6
545,23.01993480952566
546,10.502220682679791
547,19.187722106839608
548,0.0
720,-2320.248243235348
721,-2320.248243235348
784,0.0
785,0.0
848,0.0
849,0.0
1121,0.0
1135,0.0
1161,0.0
1163,0.0
1166,0.0
1168,0.0
2,3,12,24, 0,23, 0.00,60.00,Wednesday
7,10.6
545,22.51761236994469
546,10.262646192026434
547,19.14600932752461
548,0.0
720,-2577.030356888934
721,-2577.030356888934
784,0.0
785,0.0
848,0.0
849,0.0
1121,0.0
1135,0.0
1161,0.0
1163,0.0
1166,0.0
1168,0.0
2,3,12,24, 0,24, 0.00,60.00,Wednesday
7,9.4
545,21.325728317939316
546,9.595678431467634
547,19.094229553533218
548,0.0
720,-1914.4027669813677
721,-1914.4027669813677
784,0.0
785,0.0
848,0.0
849,0.0
1121,0.0
1135,0.0
1161,0.0
1163,200.0
1166,0.0
1168,0.0
2,4,12,25, 0, 1, 0.00,60.00,Thursday
7,4.4
545,18.97819927666745
546,6.301130290073424
547,19.02435817807496
548,0.0
720,-335.8369115966452
721,-335.8369115966452
784,0.0
785,0.0
848,0.0
849,0.0
1121,0.0
1135,0.0
1161,0.0
1163,200.0
1166,0.0
1168,0.0
2,4,12,25, 0, 2, 0.00,60.00,Thursday
7,3.9
545,18.829812542219408
546,5.754482114772949
547,18.967442625934492
548,0.0
720,-230.83591098615943
721,-230.83591098615943
784,0.0
785,0.0
848,0.0
849,0.0
1121,0.0
1135,0.0
1161,0.0
1163,200.0
1166,0.0
1168,0.0
2,4,12,25, 0, 3, 0.00,60.00,Thursday
7,4.4
545,18.839443682933528
546,5.263550816156179
547,18.893205922244938
548,0.0
720,-196.8591180286785
721,-196.8591180286785
784,0.0
785,0.0
848,0.0
849,0.0
1121,0.0
1135,0.0
1161,0.0
1163,200.0
1166,0.0
1168,0.0
2,4,12,25, 0, 4, 0.00,60.00,Thursday
7,3.9
545,18.588203702661634
546,5.0907194323027465
547,18.798046689886576
548,6.9376695460497375
720,168.37057307036048
721,168.37057307036048
784,0.0
785,0.0
848,0.0
849,0.0
1121,193.41991725675672
1135,60.94009145556804
1161,7.063587978651374
1163,193.3678250249984
1166,0.0
1168,0.0
2,4,12,25, 0, 5, 0.00,60.00,Thursday
7,3.9
545,18.577983445112626
546,4.803534331038089
547,18.699726355864737
548,15.805015128906678
720,369.90496194962907
721,369.90496194962907
784,0.0
785,0.0
848,0.0
849,0.0
1121,443.2329899227914
1135,138.1373072830623
1161,16.091742785995336
1163,184.89107035517992
1166,0.0
1168,0.0
2,4,12,25, 0, 6, 0.00,60.00,Thursday
7,3.3
545,19.51322609615948
546,4.453182156067243
547,18.593100238524656
548,38.178945691237935
720,988.2862124856847
721,988.2862124856847
784,0.0
785,0.0
848,0.0
849,0.0
1121,1184.2583666979633
1135,366.5512084706071
1161,13.600715164722198
1163,163.66070751020817
1166,0.0
1168,0.0
2,4,12,25, 0, 7, 0.00,60.00,Thursday
7,3.3
545,19.65803046347343
546,3.7539068775126405
547,18.511244833515406
548,50.847918007207724
720,1283.3061253794458
721,1283.3061253794458
784,0.0
785,0.0
848,0.0
849,0.0
1121,1581.171147558721
1135,497.19453749203814
1161,18.09523015472044
1163,151.60176918247132
1166,0.0
1168,0.0
2,4,12,25, 0, 8, 0.00,60.00,Thursday
7,4.4
545,19.847936618584573
546,4.062617964161096
547,18.450320560126958
548,24.32997301528704
720,586.9063435409425
721,586.9063435409425
784,0.0
785,0.0
848,0.0
849,0.0
1121,778.2224144284507
1135,244.32786615925488
1161,6.291531532279428
1163,176.87298696322637
1166,0.0
1168,0.0
2,4,12,25, 0, 9, 0.00,60.00,Thursday
7,5.6
545,19.824270241614595
546,6.281936295934401
547,18.39054479659469
548,0.0
720,-61.85140630881324
721,-61.85140630881324
784,0.0
785,0.0
848,0.0
849,0.0
1121,0.0
1135,0.0
1161,0.0
1163,200.0
1166,0.0
1168,0.0
2,4,12,25, 0,10, 0.00,60.00,Thursday
7,7.2
545,21.148542441624762
546,11.820509922239165
547,18.34853449077176
548,0.0
720,-1048.7995900386431
721,-1048.7995900386431
784,0.0
785,0.0
848,0.0
849,0.0
1121,0.0
1135,0.0
1161,0.0
1163,200.0
1166,0.0
1168,0.0
2,4,12,25, 0,11, 0.00,60.00,Thursday
7,7.2
545,21.90515296315723
546,17.60344449053254
547,18.336063540145254
548,0.0
720,-1787.782160769224
721,-1787.782160769224
784,0.0
785,0.0
848,0.0
849,0.0
1121,0.0
1135,0.0
1161,0.0
1163,200.0
1166,0.0
1168,0.0
2,4,12,25, 0,12, 0.00,60.00,Thursday
7,9.4
545,22.14054400629313
546,16.89453842914679
547,18.347216052091113
548,0.0
720,-1968.7244265488607
721,-1968.7244265488607
784,0.0
785,0.0
848,0.0
849,0.0
1121,0.0
1135,0.0
1161,0.0
1163,200.0
1166,0.0
1168,0.0
2,4,12,25, 0,13, 0.00,60.00,Thursday
7,9.4
545,22.99063234454383
546,17.96395381112356
547,18.38378540598104
548,0.0
720,-2579.5212533907616
721,-2579.5212533907616
784,0.0
785,0.0
848,0.0
849,0.0
1121,0.0
1135,0.0
1161,0.0
1163,200.0
1166,0.0
1168,0.0
2,4,12,25, 0,14, 0.00,60.00,Thursday
7,9.4
545,23.33920430125561
546,17.561248950509
547,18.44126849038253
548,9.285883255579702
720,-3261.1778882006383
721,-3261.1778882006383
784,0.0
785,0.0
848,0.0
849,0.0
1121,0.0
1135,0.0
1161,0.0
1163,191.18509236759297
1166,0.0
1168,0.0
2,4,12,25, 0,15, 0.00,60.00,Thursday
7,9.4
545,23.182744873519542
546,15.980967659787867
547,18.531095111547796
548,23.373860017975584
720,-4098.94723631152
721,-4098.94723631152
784,0.0
785,0.0
848,0.0
849,0.0
1121,0.0
1135,0.0
1161,0.0
1163,177.81165114826723
1166,0.0
1168,0.0
2,4,12,25, 0,16, 0.00,60.00,Thursday
7,8.3
545,22.901969313052646
546,12.842286694335922
547,18.594029226896186
548,4.935854570702034
720,-3784.8426193934447
721,-3784.8426193934447
784,0.0
785,0.0
848,0.0
849,0.0
1121,0.0
1135,0.0
1161,0.0
1163,195.3144896473269
1166,0.0
1168,0.0
2,4,12,25, 0,17, 0.00,60.00,Thursday
7,8.3
545,22.403751875799472
546,10.997014352965577
547,18.665302000526214
548,0.0
720,-2597.02567521687
721,-2597.02567521687
784,0.0
785,0.0
848,0.0
849,0.0
1121,0.0
1135,0.0
1161,0.0
1163,200.0
1166,0.0
1168,0.0
2,4,12,25, 0,18, 0.00,60.00,Thursday
7,7.8
545,22.537885720261684
546,9.73577328529134
547,18.71319294944394
548,0.0
720,-2546.08172989836
721,-2546.08172989836
784,0.0
785,0.0
848,0.0
849,0.0
1121,0.0
1135,0.0
1161,0.0
1163,200.0
1166,0.0
1168,0.0
2,4,12,25, 0,19, 0.00,60.00,Thursday
7,7.2
545,22.45609541943784
546,8.757428588321451
547,18.72358293126131
548,0.0
720,-2227.054616565165
721,-2227.054616565165
784,0.0
785,0.0
848,0.0
849,0.0
1121,0.0
1135,0.0
1161,0.0
1163,200.0
1166,0.0
1168,0.0
2,4,12,25, 0,20, 0.00,60.00,Thursday
7,6.7
545,21.848471827897992
546,8.023876979368936
547,18.70548354051432
548,0.0
720,-1749.9747047575474
721,-1749.9747047575474
784,0.0
785,0.0
848,0.0
849,0.0
1121,0.0
1135,0.0
1161,0.0
1163,200.0
1166,0.0
1168,0.0
2,4,12,25, 0,21, 0.00,60.00,Thursday
7,6.1
545,21.830307786115746
546,7.485327027839662
547,18.678680107319288
548,0.0
720,-1835.2268429442283
721,-1835.2268429442283
784,0.0
785,0.0
848,0.0
849,0.0
1121,0.0
1135,0.0
1161,0.0
1163,200.0
1166,0.0
1168,0.0
2,4,12,25, 0,22, 0.00,60.00,Thursday
7,6.1
545,20.93121065240113
546,7.336126898291739
547,18.63156987537308
548,0.0
720,-980.4483810350121
721,-980.4483810350121
784,0.0
785,0.0
848,0.0
849,0.0
1121,0.0
1135,0.0
1161,0.0
1163,200.0
1166,0.0
1168,0.0
2,4,12,25, 0,23, 0.00,60.00,Thursday
7,6.1
545,20.241125372422054
546,7.1208796642669805
547,18.577818688281983
548,0.0
720,-1461.2371368843196
721,-1461.2371368843196
784,0.0
785,0.0
848,0.0
849,0.0
1121,0.0
1135,0.0
1161,0.0
1163,200.0
1166,0.0
1168,0.0
2,4,12,25, 0,24, 0.00,60.00,Thursday
7,5.6
545,19.07041931146433
546,6.538722971677308
547,18.510467829072386
548,0.0
720,-413.3249220521793
721,-413.3249220521793
784,0.0
785,0.0
848,0.0
849,0.0
1121,0.0
1135,0.0
1161,0.0
1163,200.0
1166,0.0
1168,0.0
2,5,12,26, 0, 1, 0.00,60.00,Friday
7,5.0
545,18.5929410484292
546,6.0328017596230215
547,18.432779489263137
548,11.330425308987303
720,329.1608706618754
721,329.1608706618754
784,0.0
785,0.0
848,0.0
849,0.0
1121,380.58615622720197
1135,117.37016842164533
1161,0.005458096858414027
1163,189.2442284413336
1166,0.0
1168,0.0
2,5,12,26, 0, 2, 0.00,60.00,Friday
7,4.4
545,18.411700694919755
546,5.639941179826067
547,18.332188990687527
548,33.949760144931126
720,959.610618544224
721,959.610618544224
784,0.0
785,0.0
848,0.0
849,0.0
1121,1138.9498932875545
1135,346.3100431269693
1161,0.016354300337086954
1163,167.77207825537914
1166,0.0
1168,0.0
2,5,12,26, 0, 3, 0.00,60.00,Friday
7,3.9
545,19.067404679999267
546,5.121532178728444
547,18.240639228858747
548,49.77616190479593
720,1381.4690144567103
721,1381.4690144567103
784,0.0
785,0.0
848,0.0
849,0.0
1121,1663.9203774255745
1135,503.3997250971745
1161,0.023978215821822815
1163,152.74832630235397
1166,0.0
1168,0.0
2,5,12,26, 0, 4, 0.00,60.00,Friday
7,3.3
545,18.55172240179322
546,4.566268759920581
547,18.166986441995576
548,42.60011316782652
720,1116.9267331807769
721,1116.9267331807769
784,0.0
785,0.0
848,0.0
849,0.0
1121,1392.4433066281595
1135,433.81468952386365
1161,0.020521375322015912
1163,159.56040525499333
1166,0.0
1168,0.0
2,5,12,26, 0, 5, 0.00,60.00,Friday
7,3.3
545,18.581947212871178
546,4.388951186438389
547,18.063457825908642
548,51.608178085712694
720,1380.8929654395288
721,1380.8929654395288
784,0.0
785,0.0
848,0.0
849,0.0
1121,1699.1405401506513
1135,520.2388330963516
1161,0.024860750468071114
1163,151.00919610846194
1166,0.0
1168,0.0
2,5,12,26, 0, 6, 0.00,60.00,Friday
7,3.3
545,19.517322979540072
546,4.454303929545957
547,17.95387552447424
548,84.1648116240085
720,2315.3775625416038
721,2315.3775625416038
784,0.0
785,0.0
848,0.0
849,0.0
1121,2820.0337692756666
1135,848.7619603019334
1161,0.0405439691588026
1163,120.10371349833282
1166,0.0
1168,0.0
2,5,12,26, 0, 7, 0.00,60.00,Friday
7,3.3
545,19.70613024713336
546,4.33502400436882
547,17.89143620424949
548,81.5448347623735
720,2168.4364692357467
721,2168.4364692357467
784,0.0
785,0.0
848,0.0
849,0.0
1121,2716.520161322053
1135,837.4376777238195
1161,0.039281871500801264
1163,122.59081375439803
1166,0.0
1168,0.0
2,5,12,26, 0, 8, 0.00,60.00,Friday
7,3.9
545,19.47106106499068
546,4.828796143745947
547,17.81144448685962
548,61.867682074748224
720,1615.856891016585
721,1615.856891016585
784,0.0
785,0.0
848,0.0
849,0.0
1121,2069.4129669283943
1135,641.3871993578476
1161,0.029802953892845666
1163,141.27004848754927
1166,0.0
1168,0.0