Program Version,EnergyPlus, Version 22.2.0-c249759bad, YMD=2023.07.07 15:16
1,5,Environment Title[],Latitude[deg],Longitude[deg],Time Zone[],Elevation[m]
2,8,Day of Simulation[],Month[],Day of Month[],DST Indicator[1=yes 0=no],Hour[],StartMinute[],EndMinute[],DayType
3,5,Cumulative Day of Simulation[],Month[],Day of Month[],DST Indicator[1=yes 0=no],DayType  ! When Daily Report Variables Requested
4,2,Cumulative Days of Simulation[],Month[]  ! When Monthly Report Variables Requested
5,1,Cumulative Days of Simulation[] ! When Run Period Report Variables Requested
6,1,Calendar Year of Simulation[] ! When Annual Report Variables Requested
581,11,LIVING,AFN Zone Infiltration Air Change Rate [ach] !RunPeriod [Value,Min,Month,Day,Hour,Minute,Max,Month,Day,Hour,Minute]
582,11,ATTIC,AFN Zone Infiltration Air Change Rate [ach] !RunPeriod [Value,Min,Month,Day,Hour,Minute,Max,Month,Day,Hour,Minute]
583,11,CRAWLSPACE,AFN Zone Infiltration Air Change Rate [ach] !RunPeriod [Value,Min,Month,Day,Hour,Minute,Max,Month,Day,Hour,Minute]
1038,11,Facility,Facility Heating Setpoint Not Met Time [hr] !RunPeriod [Value,Min,Month,Day,Hour,Minute,Max,Month,Day,Hour,Minute]
1039,11,Facility,Facility Cooling Setpoint Not Met Time [hr] !RunPeriod [Value,Min,Month,Day,Hour,Minute,Max,Month,Day,Hour,Minute]
1115,11,DX_HEATING_COIL,Heating Coil Heating Energy [J] !RunPeriod [Value,Min,Month,Day,Hour,Minute,Max,Month,Day,Hour,Minute]
1128,11,DX_HEATING_COIL,Heating Coil Electricity Energy [J] !RunPeriod [Value,Min,Month,Day,Hour,Minute,Max,Month,Day,Hour,Minute]
1153,11,DX_HEATING_COIL,Heating Coil Defrost Electricity Energy [J] !RunPeriod [Value,Min,Month,Day,Hour,Minute,Max,Month,Day,Hour,Minute]
1154,11,DX_HEATING_COIL,Heating Coil Crankcase Heater Electricity Energy [J] !RunPeriod [Value,Min,Month,Day,Hour,Minute,Max,Month,Day,Hour,Minute]
1156,11,HEATING_RESISTANCE_BACKUP,Heating Coil Electricity Energy [J] !RunPeriod [Value,Min,Month,Day,Hour,Minute,Max,Month,Day,Hour,Minute]
13,11,Electricity:Facility [J] !RunPeriod [Value,Min,Month,Day,Hour,Minute,Max,Month,Day,Hour,Minute]
1134,11,Heating:Electricity [J] !RunPeriod [Value,Min,Month,Day,Hour,Minute,Max,Month,Day,Hour,Minute]
1096,11,Cooling:Electricity [J] !RunPeriod [Value,Min,Month,Day,Hour,Minute,Max,Month,Day,Hour,Minute]
562,11,Fans:Electricity [J] !RunPeriod [Value,Min,Month,Day,Hour,Minute,Max,Month,Day,Hour,Minute]
1388,11,Pumps:Electricity [J] !RunPeriod [Value,Min,Month,Day,Hour,Minute,Max,Month,Day,Hour,Minute]
1360,11,WaterSystems:Electricity [J] !RunPeriod [Value,Min,Month,Day,Hour,Minute,Max,Month,Day,Hour,Minute]
61,11,InteriorLights:Electricity [J] !RunPeriod [Value,Min,Month,Day,Hour,Minute,Max,Month,Day,Hour,Minute]
1046,11,ExteriorLights:Electricity [J] !RunPeriod [Value,Min,Month,Day,Hour,Minute,Max,Month,Day,Hour,Minute]
134,11,InteriorEquipment:Electricity [J] !RunPeriod [Value,Min,Month,Day,Hour,Minute,Max,Month,Day,Hour,Minute]
170,11,gas_dryer:InteriorEquipment:Electricity [J] !RunPeriod [Value,Min,Month,Day,Hour,Minute,Max,Month,Day,Hour,Minute]
207,11,clotheswasher:InteriorEquipment:Electricity [J] !RunPeriod [Value,Min,Month,Day,Hour,Minute,Max,Month,Day,Hour,Minute]
244,11,dishwasher:InteriorEquipment:Electricity [J] !RunPeriod [Value,Min,Month,Day,Hour,Minute,Max,Month,Day,Hour,Minute]
281,11,refrigerator:InteriorEquipment:Electricity [J] !RunPeriod [Value,Min,Month,Day,Hour,Minute,Max,Month,Day,Hour,Minute]
318,11,electric_mels:InteriorEquipment:Electricity [J] !RunPeriod [Value,Min,Month,Day,Hour,Minute,Max,Month,Day,Hour,Minute]
355,11,NaturalGas:Facility [J] !RunPeriod [Value,Min,Month,Day,Hour,Minute,Max,Month,Day,Hour,Minute]
1323,11,WaterSystems:NaturalGas [J] !RunPeriod [Value,Min,Month,Day,Hour,Minute,Max,Month,Day,Hour,Minute]
403,11,InteriorEquipment:NaturalGas [J] !RunPeriod [Value,Min,Month,Day,Hour,Minute,Max,Month,Day,Hour,Minute]
476,11,gas_dryer:InteriorEquipment:NaturalGas [J] !RunPeriod [Value,Min,Month,Day,Hour,Minute,Max,Month,Day,Hour,Minute]
513,11,gas_mels:InteriorEquipment:NaturalGas [J] !RunPeriod [Value,Min,Month,Day,Hour,Minute,Max,Month,Day,Hour,Minute]
End of Data Dictionary
1,EXTREME_WINTER,  29.98, -90.25,  -6.00,   1.20
5,7
1038,0.6666666666666666,0.0, 2, 3, 1,10,0.16666666666666666, 2, 3, 6,10
1039,0.0,0.0, 2, 3, 1,10,0.0, 2, 3, 1,10
581,0.31207084166058446,0.1024497947371955, 2, 7, 5,60,0.7054782063940546, 2, 7,15,55
582,5.239419165949412,0.0, 2, 5,20,55,17.9082301211456, 2, 7,15,55
583,6.454318939431628,0.00016615939058276533, 2, 7, 6,50,20.225532463629307, 2, 7,15,55
1115,629131347.7164551,0.0, 2, 3,23, 5,2663386.885931739, 2, 5, 4,60
1128,185665221.65150905,0.0, 2, 3,23, 5,766652.938035196, 2, 5, 4,60
1153,10664706.327724382,0.0, 2, 3,23, 5,64052.003252309216, 2, 4,10,10
1154,64995330.15570538,0.0, 2, 3, 6, 5,120000.0, 2, 5,15,10
1156,2698631.9380167928,0.0, 2, 3, 1, 1,696449.0061467008, 2, 5, 6,15
13,678880492.6626613,106115.4183601288, 2, 7, 4,10,2439864.9679583847, 2, 5, 6,10
61,301924526.0238348,58759.40635443481, 2, 3, 1,10,854682.2742463244, 2, 3,20,10
134,70666020.44019979,42376.01200569399, 2, 3, 4,10,104369.48322671017, 2, 8,20,10
170,5241013.419656074,232.27731661587313, 2, 3, 4,10,11650.931360040839, 2, 8,12,10
207,6509451.13922266,543.5021409221355, 2, 3, 3,10,15327.095199349082, 2, 8,10,10
244,12749673.39982522,1014.5707620042115, 2, 3, 4,10,35359.08742820678, 2, 8,20,10
281,46165882.48149605,39959.06841621388, 2, 3, 5,10,54634.54471212738, 2, 3,19,10
318,0.0,0.0, 2, 3, 1,10,0.0, 2, 3, 1,10
355,741911208.0465984,12374.216038804521, 2, 3, 4,10,3829218.154066982, 2, 4,18,60
403,197687796.27748126,12374.216038804521, 2, 3, 4,10,483183.26346918393, 2, 8,18,10
476,106772067.24485692,4732.048419519677, 2, 3, 4,10,237357.535085481, 2, 8,12,10
513,0.0,0.0, 2, 3, 1,10,0.0, 2, 3, 1,10
562,21675651.657362647,0.0, 2, 3,23,10,89675.85582159976, 2, 3, 6,10
1046,0.0,0.0, 2, 3, 1,10,0.0, 2, 3, 1,10
1096,15570564.468308032,0.0, 2, 3, 1,10,288905.4943249966, 2, 6,17,30
1134,264023890.0729554,0.0, 2, 6,10,20,1932629.789126132, 2, 5, 6,10
1323,544223411.7691141,0.0, 2, 3, 1,10,3375000.000000001, 2, 4,10,60
1360,5019840.0,4980.0, 2, 3, 1,10,4980.000000000001, 2, 3, 1,20
1388,0.0,0.0, 2, 3, 1,10,0.0, 2, 3, 1,10
1,EXTREME_SUMMER,  29.98, -90.25,  -6.00,   1.20
5,7
1038,0.0,0.0, 6,22, 1,10,0.0, 6,22, 1,10
1039,65.99999999999999,0.0, 6,22, 1,10,0.16666666666666666, 6,22,15,40
581,0.07454334534416865,0.0, 6,22, 1,10,0.37755537912553966, 6,26,16,55
582,2.8073932295301933,0.07454137774111495, 6,25, 8, 5,9.243605652458022, 6,26,16,52
583,3.2665937413595594,0.0, 6,23, 6, 7,12.361148251586554, 6,26,16,52
1115,0.0,0.0, 6,22, 1,10,0.0, 6,22, 1,10
1128,0.0,0.0, 6,22, 1,10,0.0, 6,22, 1,10
1153,0.0,0.0, 6,22, 1,10,0.0, 6,22, 1,10
1154,0.0,0.0, 6,22, 1,10,0.0, 6,22, 1,10
1156,0.0,0.0, 6,22, 1,10,0.0, 6,22, 1,10
13,1106555420.412464,236226.93853925372, 6,22, 4,60,1999373.074605639, 6,28,20,10
61,301924526.0238348,58759.40635443481, 6,22, 1,10,854682.2742463244, 6,22,20,10
134,70666020.44019979,42376.01200569399, 6,22, 4,10,104369.48322671017, 6,27,20,10
170,5241013.419656074,232.27731661587313, 6,22, 4,10,11650.931360040839, 6,27,12,10
207,6509451.13922266,543.5021409221355, 6,22, 3,10,15327.095199349082, 6,27,10,10
244,12749673.39982522,1014.5707620042115, 6,22, 4,10,35359.08742820678, 6,27,20,10
281,46165882.48149605,39959.06841621388, 6,22, 5,10,54634.54471212738, 6,22,19,10
318,0.0,0.0, 6,22, 1,10,0.0, 6,22, 1,10
355,658749020.5144255,12374.216038804521, 6,22, 4,10,3829218.1540669827, 6,26,18,30
403,197687796.27748126,12374.216038804521, 6,22, 4,10,483183.26346918393, 6,27,18,10
476,106772067.24485692,4732.048419519677, 6,22, 4,10,237357.535085481, 6,27,12,10
513,0.0,0.0, 6,22, 1,10,0.0, 6,22, 1,10
562,66894122.11780238,12974.148598600796, 6,22, 4,60,89675.85582159978, 6,22,18,40
1046,0.0,0.0, 6,22, 1,10,0.0, 6,22, 1,10
1096,662050911.8306261,117137.37158052414, 6,22, 4,60,991847.2995728556, 6,28,16,60
1134,0.0,0.0, 6,22, 1,10,0.0, 6,22, 1,10
1323,461061224.23694307,0.0, 6,22, 1,10,3375000.0000000005, 6,22,16,60
1360,5019840.0,4980.0, 6,22, 1,10,4980.000000000001, 6,22, 7,30
1388,0.0,0.0, 6,22, 1,10,0.0, 6,22, 1,10
1,ANNUAL,  29.98, -90.25,  -6.00,   1.20
5,365
1038,2.8333333333333326,0.0, 1, 1, 1,10,0.16666666666666666, 1, 6, 6,10
1039,1453.3333333333342,0.0, 1, 1, 1,10,0.16666666666666666, 2,25,15,60
581,0.172752448173437,0.0, 2,22, 8,60,1.116413388801864, 3, 9,15,60
582,3.8561404872625156,0.0, 1, 1, 5,20,22.24381725177949, 3, 9,15,60
583,4.689933882846429,0.0, 5,29, 6, 7,25.557027572115768, 3, 9,16,10
1115,2272546674.475499,0.0, 1, 1, 1,10,2942778.274719692, 2, 2, 7,40
1128,662983019.1545191,0.0, 1, 1, 1,10,865422.3262388146, 2, 2, 7,10
1153,27772534.389994767,0.0, 1, 1, 1,10,70045.16049268734, 2, 4,10,10
1154,490013048.2985645,0.0, 1, 1, 1,10,120000.0, 1, 5,21,10
1156,8491942.936037488,0.0, 1, 1, 1,10,796263.9272951755, 2, 5, 6,15
13,43140537156.835205,106115.4183601288, 1, 2, 4,10,2570081.6694115167, 2, 5, 6,10
61,15743207428.39043,58759.40635443481, 1, 1, 1,10,854682.2742463244, 1, 1,20,10
134,3685071073.433083,42376.01200569399, 1, 2, 4,10,104369.48322671017, 1, 1,20,10
170,273393721.45534325,232.27731661587313, 1, 2, 4,10,11650.931360040839, 1, 1,12,10
207,339560869.06955314,543.5021409221355, 1, 2, 3,10,15327.095199349082, 1, 1,10,10
244,664895467.8009839,1014.5707620042115, 1, 2, 4,10,35359.08742820678, 1, 1,20,10
281,2407221015.1057043,39959.06841621388, 1, 1, 5,10,54634.54471212738, 1, 1,19,10
318,0.0,0.0, 1, 1, 1,10,0.0, 1, 1, 1,10
355,35597258788.9098,12374.216038804521, 1, 2, 4,10,3829218.154066983,12, 5,18,60
403,10310294493.052883,12374.216038804521, 1, 2, 4,10,483183.26346918393, 1, 1,18,10
476,5569688622.065564,4732.048419519677, 1, 2, 4,10,237357.535085481, 1, 1,12,10
513,0.0,0.0, 1, 1, 1,10,0.0, 1, 1, 1,10
562,2230523641.2149906,0.0, 1, 1, 1,40,89675.85582159978, 1,28, 6,10
1046,0.0,0.0, 1, 1, 1,10,0.0, 1, 1, 1,10
1096,20030725669.0236,0.0, 1, 1, 1,40,1004807.5818607707, 7,29,16,60
1134,1189260544.7791166,0.0, 1, 1, 1,10,2062108.4942135431, 2, 5, 6,10
1323,25286964295.860943,0.0, 1, 1, 1,10,3375000.000000002, 3,20,17,20
1360,261748800.0,4979.999999999998, 1,23,10,60,4980.000000000002, 2,13,16,40
1388,0.0,0.0, 1, 1, 1,10,0.0, 1, 1, 1,10
End of Data
 Number of Records Written=          87
