Program Version,EnergyPlus, Version 22.2.0-c249759bad, YMD=2023.07.07 15:21
1,5,Environment Title[],Latitude[deg],Longitude[deg],Time Zone[],Elevation[m]
2,8,Day of Simulation[],Month[],Day of Month[],DST Indicator[1=yes 0=no],Hour[],StartMinute[],EndMinute[],DayType
3,5,Cumulative Day of Simulation[],Month[],Day of Month[],DST Indicator[1=yes 0=no],DayType  ! When Daily Report Variables Requested
4,2,Cumulative Days of Simulation[],Month[]  ! When Monthly Report Variables Requested
5,1,Cumulative Days of Simulation[] ! When Run Period Report Variables Requested
6,1,Calendar Year of Simulation[] ! When Annual Report Variables Requested
581,11,LIVING,AFN Zone Infiltration Air Change Rate [ach] !RunPeriod [Value,Min,Month,Day,Hour,Minute,Max,Month,Day,Hour,Minute]
582,11,ATTIC,AFN Zone Infiltration Air Change Rate [ach] !RunPeriod [Value,Min,Month,Day,Hour,Minute,Max,Month,Day,Hour,Minute]
583,11,CRAWLSPACE,AFN Zone Infiltration Air Change Rate [ach] !RunPeriod [Value,Min,Month,Day,Hour,Minute,Max,Month,Day,Hour,Minute]
1038,11,Facility,Facility Heating Setpoint Not Met Time [hr] !RunPeriod [Value,Min,Month,Day,Hour,Minute,Max,Month,Day,Hour,Minute]
1039,11,Facility,Facility Cooling Setpoint Not Met Time [hr] !RunPeriod [Value,Min,Month,Day,Hour,Minute,Max,Month,Day,Hour,Minute]
1115,11,DX_HEATING_COIL,Heating Coil Heating Energy [J] !RunPeriod [Value,Min,Month,Day,Hour,Minute,Max,Month,Day,Hour,Minute]
1128,11,DX_HEATING_COIL,Heating Coil Electricity Energy [J] !RunPeriod [Value,Min,Month,Day,Hour,Minute,Max,Month,Day,Hour,Minute]
1153,11,DX_HEATING_COIL,Heating Coil Defrost Electricity Energy [J] !RunPeriod [Value,Min,Month,Day,Hour,Minute,Max,Month,Day,Hour,Minute]
1154,11,DX_HEATING_COIL,Heating Coil Crankcase Heater Electricity Energy [J] !RunPeriod [Value,Min,Month,Day,Hour,Minute,Max,Month,Day,Hour,Minute]
1156,11,HEATING_RESISTANCE_BACKUP,Heating Coil Electricity Energy [J] !RunPeriod [Value,Min,Month,Day,Hour,Minute,Max,Month,Day,Hour,Minute]
13,11,Electricity:Facility [J] !RunPeriod [Value,Min,Month,Day,Hour,Minute,Max,Month,Day,Hour,Minute]
1134,11,Heating:Electricity [J] !RunPeriod [Value,Min,Month,Day,Hour,Minute,Max,Month,Day,Hour,Minute]
1096,11,Cooling:Electricity [J] !RunPeriod [Value,Min,Month,Day,Hour,Minute,Max,Month,Day,Hour,Minute]
562,11,Fans:Electricity [J] !RunPeriod [Value,Min,Month,Day,Hour,Minute,Max,Month,Day,Hour,Minute]
1388,11,Pumps:Electricity [J] !RunPeriod [Value,Min,Month,Day,Hour,Minute,Max,Month,Day,Hour,Minute]
1360,11,WaterSystems:Electricity [J] !RunPeriod [Value,Min,Month,Day,Hour,Minute,Max,Month,Day,Hour,Minute]
61,11,InteriorLights:Electricity [J] !RunPeriod [Value,Min,Month,Day,Hour,Minute,Max,Month,Day,Hour,Minute]
1046,11,ExteriorLights:Electricity [J] !RunPeriod [Value,Min,Month,Day,Hour,Minute,Max,Month,Day,Hour,Minute]
134,11,InteriorEquipment:Electricity [J] !RunPeriod [Value,Min,Month,Day,Hour,Minute,Max,Month,Day,Hour,Minute]
170,11,gas_dryer:InteriorEquipment:Electricity [J] !RunPeriod [Value,Min,Month,Day,Hour,Minute,Max,Month,Day,Hour,Minute]
207,11,clotheswasher:InteriorEquipment:Electricity [J] !RunPeriod [Value,Min,Month,Day,Hour,Minute,Max,Month,Day,Hour,Minute]
244,11,dishwasher:InteriorEquipment:Electricity [J] !RunPeriod [Value,Min,Month,Day,Hour,Minute,Max,Month,Day,Hour,Minute]
281,11,refrigerator:InteriorEquipment:Electricity [J] !RunPeriod [Value,Min,Month,Day,Hour,Minute,Max,Month,Day,Hour,Minute]
318,11,electric_mels:InteriorEquipment:Electricity [J] !RunPeriod [Value,Min,Month,Day,Hour,Minute,Max,Month,Day,Hour,Minute]
355,11,NaturalGas:Facility [J] !RunPeriod [Value,Min,Month,Day,Hour,Minute,Max,Month,Day,Hour,Minute]
1323,11,WaterSystems:NaturalGas [J] !RunPeriod [Value,Min,Month,Day,Hour,Minute,Max,Month,Day,Hour,Minute]
403,11,InteriorEquipment:NaturalGas [J] !RunPeriod [Value,Min,Month,Day,Hour,Minute,Max,Month,Day,Hour,Minute]
476,11,gas_dryer:InteriorEquipment:NaturalGas [J] !RunPeriod [Value,Min,Month,Day,Hour,Minute,Max,Month,Day,Hour,Minute]
513,11,gas_mels:InteriorEquipment:NaturalGas [J] !RunPeriod [Value,Min,Month,Day,Hour,Minute,Max,Month,Day,Hour,Minute]
End of Data Dictionary
1,EXTREME_WINTER,  42.92, -97.38,  -6.00, 398.00
5,7
1038,2.0,0.0, 1,20, 1,10,0.16666666666666666, 1,21, 4,60
1039,0.0,0.0, 1,20, 1,10,0.0, 1,20, 1,10
581,0.386234157562596,0.2074395833580213, 1,26,23,40,0.7426245570400758, 1,21, 2,55
582,5.322158037872505,0.0, 1,21,23,60,15.476262296974726, 1,21, 2,55
583,6.900918228191534,0.7093236675779317, 1,25, 4,40,18.886795077018387, 1,21, 2,55
1115,2435233282.868406,0.0, 1,20,23, 3,3400257.4160532407, 1,26,13,40
1128,887645769.6171495,0.0, 1,20,23, 3,1028614.5418819098, 1,26,13,40
1153,12099021.784203533,0.0, 1,20,23, 3,45034.6024923085, 1,25,10,30
1154,10733748.911473652,0.0, 1,20, 1, 1,120000.0, 1,25,16,30
1156,1584989784.7856815,0.0, 1,20,23, 3,4623069.5956802005, 1,21, 5,10
13,2961355280.48573,359331.9305176403, 1,25,15,60,6107640.4263926605, 1,21, 7,40
61,301924526.0238348,58759.40635443481, 1,20, 1,10,854682.2742463244, 1,20,20,10
134,70666020.44019979,42376.01200569399, 1,20, 4,10,104369.48322671017, 1,25,20,10
170,5241013.419656074,232.27731661587313, 1,20, 4,10,11650.931360040839, 1,25,12,10
207,6509451.13922266,543.5021409221355, 1,20, 3,10,15327.095199349082, 1,25,10,10
244,12749673.39982522,1014.5707620042115, 1,20, 4,10,35359.08742820678, 1,25,20,10
281,46165882.48149605,39959.06841621388, 1,20, 5,10,54634.54471212738, 1,20,19,10
318,0.0,0.0, 1,20, 1,10,0.0, 1,20, 1,10
355,746399126.8492689,12374.216038804521, 1,20, 4,10,3829218.1540669827, 1,21,18,60
403,197687796.27748126,12374.216038804521, 1,20, 4,10,483183.26346918393, 1,25,18,10
476,106772067.24485692,4732.048419519677, 1,20, 4,10,237357.535085481, 1,25,12,10
513,0.0,0.0, 1,20, 1,10,0.0, 1,20, 1,10
562,88276568.92318138,0.0, 1,25,16,30,96141.32163109163, 1,20, 1,20
1046,0.0,0.0, 1,20, 1,10,0.0, 1,20, 1,10
1096,0.0,0.0, 1,20, 1,10,0.0, 1,20, 1,10
1134,2495468325.0985093,120000.0, 1,25,16,30,5542467.745200034, 1,21, 7,40
1323,548711330.5717851,0.0, 1,20, 1,10,3375000.000000001, 1,21,20,40
1360,5019840.0,4980.0, 1,20, 1,20,4980.000000000001, 1,20, 1,10
1388,0.0,0.0, 1,20, 1,10,0.0, 1,20, 1,10
1,EXTREME_SUMMER,  42.92, -97.38,  -6.00, 398.00
5,7
1038,0.0,0.0, 7,13, 1,10,0.0, 7,13, 1,10
1039,12.833333333333332,0.0, 7,13, 1,10,0.16666666666666666, 7,13,17,10
581,0.16613908074689876,0.0, 7,16,17,30,0.6809669015442225, 7,13,13,60
582,4.235276826396491,0.0, 7,15, 8,18,16.225925904103946, 7,13,13,60
583,5.212142296809986,0.0, 7,18,23, 2,21.538635999363137, 7,13,13,60
1115,0.0,0.0, 7,13, 1, 5,0.0, 7,13, 1, 5
1128,0.0,0.0, 7,13, 1, 5,0.0, 7,13, 1, 5
1153,0.0,0.0, 7,13, 1, 5,0.0, 7,13, 1, 5
1154,0.0,0.0, 7,13, 1, 5,0.0, 7,13, 1, 5
1156,0.0,0.0, 7,13, 1, 5,0.0, 7,13, 1, 5
13,959199754.1171433,106115.4183601288, 7,15, 4,50,2207218.181972213, 7,13,20,10
61,301924526.0238348,58759.40635443481, 7,13, 1,10,854682.2742463244, 7,13,20,10
134,70666020.44019979,42376.01200569399, 7,13, 4,10,104369.48322671017, 7,18,20,10
170,5241013.419656074,232.27731661587313, 7,13, 4,10,11650.931360040839, 7,18,12,10
207,6509451.13922266,543.5021409221355, 7,13, 3,10,15327.095199349082, 7,18,10,10
244,12749673.39982522,1014.5707620042115, 7,13, 4,10,35359.08742820678, 7,18,20,10
281,46165882.48149605,39959.06841621388, 7,13, 5,10,54634.54471212738, 7,13,19,10
318,0.0,0.0, 7,13, 1,10,0.0, 7,13, 1,10
355,643354880.6499531,12374.216038804521, 7,13, 4,10,3829218.154066982, 7,14,18,60
403,197687796.27748126,12374.216038804521, 7,13, 4,10,483183.26346918393, 7,18,18,10
476,106772067.24485692,4732.048419519677, 7,13, 4,10,237357.535085481, 7,18,12,10
513,0.0,0.0, 7,13, 1,10,0.0, 7,13, 1,10
562,48485035.44423188,0.0, 7,15, 4,50,96141.32163109162, 7,13,16,30
1046,0.0,0.0, 7,13, 1,10,0.0, 7,13, 1,10
1096,533104332.2088759,0.0, 7,15, 4,50,1235624.8836996541, 7,17,16,60
1134,0.0,0.0, 7,13, 1,10,0.0, 7,13, 1,10
1323,445667084.3724703,0.0, 7,13, 1,10,3375000.000000001, 7,13,16,50
1360,5019840.0,4980.0, 7,13, 1,10,4980.000000000001, 7,13, 1,30
1388,0.0,0.0, 7,13, 1,10,0.0, 7,13, 1,10
1,ANNUAL,  42.92, -97.38,  -6.00, 398.00
5,365
1038,86.83333333333343,0.0, 1, 1, 1,10,0.16666666666666666, 1,11, 6,10
1039,110.83333333333333,0.0, 1, 1, 1,10,0.16666666666666666, 6,16,18,50
581,0.29852096023060265,0.0, 5,19,20,43,1.3780934486075598,10,27,15,60
582,5.570056971134127,0.0, 1, 1, 4,60,31.648261496881265,10,27,13,60
583,6.628453157450181,0.0, 7, 4,23, 2,40.00292862496753,10,27,13,60
1115,39753925444.56809,0.0, 1, 1,23, 1,3744930.6487417705,12,13, 6,30
1128,13127403254.48083,0.0, 1, 1,23, 1,1097180.407462107,10,28, 6,30
1153,455684645.5981358,0.0, 1, 1,23, 1,106151.1195005632, 4, 3, 6,30
1154,1534324892.2043872,0.0, 1, 1, 1, 2,120000.0, 1, 4,15,30
1156,13550058380.41769,0.0, 1, 1,10,13,4623069.5956802005, 1,21, 3,10
13,58464522032.80111,106115.4183601288, 3,17, 4,10,6578143.475008209,12,10,20,10
61,15743207428.39043,58759.40635443481, 1, 1, 1,10,854682.2742463244, 1, 1,20,10
134,3685071073.433083,42376.01200569399, 1, 2, 4,10,104369.48322671017, 1, 1,20,10
170,273393721.45534325,232.27731661587313, 1, 2, 4,10,11650.931360040839, 1, 1,12,10
207,339560869.06955314,543.5021409221355, 1, 2, 3,10,15327.095199349082, 1, 1,10,10
244,664895467.8009839,1014.5707620042115, 1, 2, 4,10,35359.08742820678, 1, 1,20,10
281,2407221015.1057043,39959.06841621388, 1, 1, 5,10,54634.54471212738, 1, 1,19,10
318,0.0,0.0, 1, 1, 1,10,0.0, 1, 1, 1,10
355,35767646887.41995,12374.216038804521, 1, 2, 4,10,3829218.154066984, 4,28,18,30
403,10310294493.052883,12374.216038804521, 1, 2, 4,10,483183.26346918393, 1, 1,18,10
476,5569688622.065564,4732.048419519677, 1, 2, 4,10,237357.535085481, 1, 1,12,10
513,0.0,0.0, 1, 1, 1,10,0.0, 1, 1, 1,10
562,2054536318.4473236,0.0, 1, 4,14,60,96141.32163109162, 1, 1, 1,10
1046,0.0,0.0, 1, 1, 1,10,0.0, 1, 1, 1,10
1096,8052487239.836036,0.0, 1, 1, 1,10,1236526.2084586709, 7,17,16,60
1134,28667471172.701035,0.0, 1,18,13,60,5599001.449757383,12,21, 6,10
1323,25457352394.37103,0.0, 1, 1, 1,10,3375000.000000002, 1, 2,17,20
1360,261748800.0,4979.999999999998, 5, 5,10,50,4980.000000000002, 1,30, 9,40
1388,0.0,0.0, 1, 1, 1,10,0.0, 1, 1, 1,10
End of Data
 Number of Records Written=          87
