Program Version,EnergyPlus, Version 22.2.0-c249759bad, YMD=2023.07.07 15:19
1,5,Environment Title[],Latitude[deg],Longitude[deg],Time Zone[],Elevation[m]
2,8,Day of Simulation[],Month[],Day of Month[],DST Indicator[1=yes 0=no],Hour[],StartMinute[],EndMinute[],DayType
3,5,Cumulative Day of Simulation[],Month[],Day of Month[],DST Indicator[1=yes 0=no],DayType  ! When Daily Report Variables Requested
4,2,Cumulative Days of Simulation[],Month[]  ! When Monthly Report Variables Requested
5,1,Cumulative Days of Simulation[] ! When Run Period Report Variables Requested
6,1,Calendar Year of Simulation[] ! When Annual Report Variables Requested
581,11,LIVING,AFN Zone Infiltration Air Change Rate [ach] !RunPeriod [Value,Min,Month,Day,Hour,Minute,Max,Month,Day,Hour,Minute]
582,11,ATTIC,AFN Zone Infiltration Air Change Rate [ach] !RunPeriod [Value,Min,Month,Day,Hour,Minute,Max,Month,Day,Hour,Minute]
583,11,CRAWLSPACE,AFN Zone Infiltration Air Change Rate [ach] !RunPeriod [Value,Min,Month,Day,Hour,Minute,Max,Month,Day,Hour,Minute]
1038,11,Facility,Facility Heating Setpoint Not Met Time [hr] !RunPeriod [Value,Min,Month,Day,Hour,Minute,Max,Month,Day,Hour,Minute]
1039,11,Facility,Facility Cooling Setpoint Not Met Time [hr] !RunPeriod [Value,Min,Month,Day,Hour,Minute,Max,Month,Day,Hour,Minute]
1115,11,DX_HEATING_COIL,Heating Coil Heating Energy [J] !RunPeriod [Value,Min,Month,Day,Hour,Minute,Max,Month,Day,Hour,Minute]
1128,11,DX_HEATING_COIL,Heating Coil Electricity Energy [J] !RunPeriod [Value,Min,Month,Day,Hour,Minute,Max,Month,Day,Hour,Minute]
1153,11,DX_HEATING_COIL,Heating Coil Defrost Electricity Energy [J] !RunPeriod [Value,Min,Month,Day,Hour,Minute,Max,Month,Day,Hour,Minute]
1154,11,DX_HEATING_COIL,Heating Coil Crankcase Heater Electricity Energy [J] !RunPeriod [Value,Min,Month,Day,Hour,Minute,Max,Month,Day,Hour,Minute]
1156,11,HEATING_RESISTANCE_BACKUP,Heating Coil Electricity Energy [J] !RunPeriod [Value,Min,Month,Day,Hour,Minute,Max,Month,Day,Hour,Minute]
13,11,Electricity:Facility [J] !RunPeriod [Value,Min,Month,Day,Hour,Minute,Max,Month,Day,Hour,Minute]
1134,11,Heating:Electricity [J] !RunPeriod [Value,Min,Month,Day,Hour,Minute,Max,Month,Day,Hour,Minute]
1096,11,Cooling:Electricity [J] !RunPeriod [Value,Min,Month,Day,Hour,Minute,Max,Month,Day,Hour,Minute]
562,11,Fans:Electricity [J] !RunPeriod [Value,Min,Month,Day,Hour,Minute,Max,Month,Day,Hour,Minute]
1388,11,Pumps:Electricity [J] !RunPeriod [Value,Min,Month,Day,Hour,Minute,Max,Month,Day,Hour,Minute]
1360,11,WaterSystems:Electricity [J] !RunPeriod [Value,Min,Month,Day,Hour,Minute,Max,Month,Day,Hour,Minute]
61,11,InteriorLights:Electricity [J] !RunPeriod [Value,Min,Month,Day,Hour,Minute,Max,Month,Day,Hour,Minute]
1046,11,ExteriorLights:Electricity [J] !RunPeriod [Value,Min,Month,Day,Hour,Minute,Max,Month,Day,Hour,Minute]
134,11,InteriorEquipment:Electricity [J] !RunPeriod [Value,Min,Month,Day,Hour,Minute,Max,Month,Day,Hour,Minute]
170,11,gas_dryer:InteriorEquipment:Electricity [J] !RunPeriod [Value,Min,Month,Day,Hour,Minute,Max,Month,Day,Hour,Minute]
207,11,clotheswasher:InteriorEquipment:Electricity [J] !RunPeriod [Value,Min,Month,Day,Hour,Minute,Max,Month,Day,Hour,Minute]
244,11,dishwasher:InteriorEquipment:Electricity [J] !RunPeriod [Value,Min,Month,Day,Hour,Minute,Max,Month,Day,Hour,Minute]
281,11,refrigerator:InteriorEquipment:Electricity [J] !RunPeriod [Value,Min,Month,Day,Hour,Minute,Max,Month,Day,Hour,Minute]
318,11,electric_mels:InteriorEquipment:Electricity [J] !RunPeriod [Value,Min,Month,Day,Hour,Minute,Max,Month,Day,Hour,Minute]
355,11,NaturalGas:Facility [J] !RunPeriod [Value,Min,Month,Day,Hour,Minute,Max,Month,Day,Hour,Minute]
1323,11,WaterSystems:NaturalGas [J] !RunPeriod [Value,Min,Month,Day,Hour,Minute,Max,Month,Day,Hour,Minute]
403,11,InteriorEquipment:NaturalGas [J] !RunPeriod [Value,Min,Month,Day,Hour,Minute,Max,Month,Day,Hour,Minute]
476,11,gas_dryer:InteriorEquipment:NaturalGas [J] !RunPeriod [Value,Min,Month,Day,Hour,Minute,Max,Month,Day,Hour,Minute]
513,11,gas_mels:InteriorEquipment:NaturalGas [J] !RunPeriod [Value,Min,Month,Day,Hour,Minute,Max,Month,Day,Hour,Minute]
End of Data Dictionary
1,EXTREME_WINTER,  35.04,-106.62,  -7.00,1619.00
5,15
1038,0.16666666666666666,0.0,12,22, 1,10,0.16666666666666666, 1, 2, 6,10
1039,0.0,0.0,12,22, 1,10,0.0,12,22, 1,10
581,0.3040761742997264,0.1424206084331318,12,22, 6, 2,0.9260946977343621,12,25,15,50
582,3.6687902715013974,0.0,12,22, 5,60,26.019950559962478,12,31,22,55
583,4.425418190278176,0.00028214051690391925, 1, 4,12,42,26.377633549634364,12,25,14,50
1115,2410672114.613687,0.0,12,22,23,10,3443734.4701165273, 1, 5, 6,30
1128,802776874.489838,0.0,12,22,23,10,1116024.7054561232, 1, 3, 6,50
1153,24546903.397548094,0.0,12,22, 1, 2,68309.58194214325,12,27, 6,30
1154,166515098.2530769,0.0,12,22, 6, 2,120000.0,12,22,23,10
1156,85091604.34203325,0.0,12,22, 1, 2,1598803.2194953677, 1, 2, 6,30
13,1978177073.530874,186324.6925987483,12,25,15,10,3726604.936873935, 1, 2, 6,10
61,646981127.1939279,58759.40635443481,12,22, 1,10,854682.2742463244,12,22,20,10
134,151290040.75163832,42376.01200569399,12,22, 4,10,104369.48322671017,12,27,20,10
170,11185820.069951665,232.27731661587313,12,22, 4,10,11650.931360040839,12,27,12,10
207,13893028.574283868,543.5021409221355,12,22, 3,10,15327.095199349082,12,27,10,10
244,27284301.07562606,1014.5707620042115,12,22, 4,10,35359.08742820678,12,27,20,10
281,98926891.03177528,39959.06841621388,12,22, 5,10,54634.54471212738,12,22,19,10
318,0.0,0.0,12,22, 1,10,0.0,12,22, 1,10
355,1573080646.9563491,12374.216038804521,12,22, 4,10,3829218.154066983,12,23,18,60
403,422701517.161075,12374.216038804521,12,22, 4,10,483183.26346918393,12,27,18,10
476,227882097.80545104,4732.048419519677,12,22, 4,10,237357.535085481,12,27,12,10
513,0.0,0.0,12,22, 1,10,0.0,12,22, 1,10
562,89342435.30787696,0.0,12,22,23,10,122401.47106303225,12,27, 7,50
1046,0.0,0.0,12,22, 1,10,0.0,12,22, 1,10
1096,876189.7949334951,0.0,12,22, 1,10,77347.17397222087,12,25,17,10
1134,1078930480.4824955,0.0,12,23,16,50,3186644.14280025, 1, 2, 6,10
1323,1150379129.7952728,0.0,12,22, 1,10,3375000.000000001,12,23,18,60
1360,10756800.0,4980.0,12,22, 1,20,4980.000000000002,12,24, 6,40
1388,0.0,0.0,12,22, 1,10,0.0,12,22, 1,10
1,EXTREME_SUMMER,  35.04,-106.62,  -7.00,1619.00
5,7
1038,0.0,0.0, 7,13, 1,10,0.0, 7,13, 1,10
1039,5.0,0.0, 7,13, 1,10,0.16666666666666666, 7,18,17,40
581,0.10985781262829467,0.0, 7,13,22,35,0.7503144032022891, 7,18,22,60
582,3.5350203307819585,0.0, 7,17, 6, 2,19.700823469067196, 7,13,15,51
583,4.059221567294908,0.00015167965910664626, 7,14, 6, 5,22.114523882936258, 7,18,22,60
1115,0.0,0.0, 7,13, 1,10,0.0, 7,13, 1,10
1128,0.0,0.0, 7,13, 1,10,0.0, 7,13, 1,10
1153,0.0,0.0, 7,13, 1,10,0.0, 7,13, 1,10
1154,0.0,0.0, 7,13, 1,10,0.0, 7,13, 1,10
1156,0.0,0.0, 7,13, 1,10,0.0, 7,13, 1,10
13,1069090318.2387148,171513.5906148655, 7,13, 4,60,2367924.395040617, 7,19,19,10
61,301924526.0238348,58759.40635443481, 7,13, 1,10,854682.2742463244, 7,13,20,10
134,70666020.44019979,42376.01200569399, 7,13, 4,10,104369.48322671017, 7,18,20,10
170,5241013.419656074,232.27731661587313, 7,13, 4,10,11650.931360040839, 7,18,12,10
207,6509451.13922266,543.5021409221355, 7,13, 3,10,15327.095199349082, 7,18,10,10
244,12749673.39982522,1014.5707620042115, 7,13, 4,10,35359.08742820678, 7,18,20,10
281,46165882.48149605,39959.06841621388, 7,13, 5,10,54634.54471212738, 7,13,19,10
318,0.0,0.0, 7,13, 1,10,0.0, 7,13, 1,10
355,643437588.7987669,12374.216038804521, 7,13, 4,10,3829218.154066982, 7,14,18,60
403,197687796.27748126,12374.216038804521, 7,13, 4,10,483183.26346918393, 7,18,18,10
476,106772067.24485692,4732.048419519677, 7,13, 4,10,237357.535085481, 7,18,12,10
513,0.0,0.0, 7,13, 1,10,0.0, 7,13, 1,10
562,64139761.8114831,4531.380222625294, 7,13, 6,20,122401.47106303225, 7,17,18,10
1046,0.0,0.0, 7,13, 1,10,0.0, 7,13, 1,10
1096,627340169.9631975,36065.313507617015, 7,13, 6,20,1397902.499956252, 7,18,16,60
1134,0.0,0.0, 7,13, 1,10,0.0, 7,13, 1,10
1323,445749792.52128404,0.0, 7,13, 1,10,3375000.000000001, 7,13,17,10
1360,5019840.0,4979.999999999998, 7,13,15,10,4980.000000000001, 7,13, 7,20
1388,0.0,0.0, 7,13, 1,10,0.0, 7,13, 1,10
1,ANNUAL,  35.04,-106.62,  -7.00,1619.00
5,365
1038,0.16666666666666666,0.0, 1, 1, 1,10,0.16666666666666666, 2,23, 6,10
1039,43.333333333333336,0.0, 1, 1, 1,10,0.16666666666666666, 1,18,13,20
581,0.22417330422758527,0.0, 5,22,23,55,1.1383118223891178, 6, 6,23,55
582,4.169266228047537,0.0, 1, 1, 5,60,38.5550273719851, 4,29,17,55
583,4.663991481066526,0.0, 7,26,23, 2,33.910627418552615, 6, 6,23,55
1115,9383975717.728313,0.0, 1, 1,14,23,3540696.900428815, 2,22,22,30
1128,3046394424.077045,0.0, 1, 1,14,23,1128179.841810201, 3, 4, 6,30
1153,70383010.46814746,0.0, 1, 1,14,23,73690.97356817727,12,13, 6,30
1154,1871985309.3131363,0.0, 1, 1, 4,25,120000.0, 1, 1,16,50
1156,214370034.4735928,0.0, 1, 1, 1, 1,2053638.8420876444, 2,23, 6,30
13,38485264143.43661,106115.4183601288, 3,14, 4,10,4142644.4576339875, 2,23, 6,10
61,15743207428.39043,58759.40635443481, 1, 1, 1,10,854682.2742463244, 1, 1,20,10
134,3685071073.433083,42376.01200569399, 1, 2, 4,10,104369.48322671017, 1, 1,20,10
170,273393721.45534325,232.27731661587313, 1, 2, 4,10,11650.931360040839, 1, 1,12,10
207,339560869.06955314,543.5021409221355, 1, 2, 3,10,15327.095199349082, 1, 1,10,10
244,664895467.8009839,1014.5707620042115, 1, 2, 4,10,35359.08742820678, 1, 1,20,10
281,2407221015.1057043,39959.06841621388, 1, 1, 5,10,54634.54471212738, 1, 1,19,10
318,0.0,0.0, 1, 1, 1,10,0.0, 1, 1, 1,10
355,35681766259.32461,12374.216038804521, 1, 2, 4,10,3829218.154066984,12, 5,18,60
403,10310294493.052883,12374.216038804521, 1, 2, 4,10,483183.26346918393, 1, 1,18,10
476,5569688622.065564,4732.048419519677, 1, 2, 4,10,237357.535085481, 1, 1,12,10
513,0.0,0.0, 1, 1, 1,10,0.0, 1, 1, 1,10
562,1736069664.7556157,0.0, 1, 1,14,30,122401.47106303225, 1, 1, 4,40
1046,0.0,0.0, 1, 1, 1,10,0.0, 1, 1, 1,10
1096,11856034398.531631,0.0, 1, 1, 1,10,1396555.023022421, 7,18,16,60
1134,5203132778.3319025,0.0, 1, 9,15,60,3602683.6635603025, 2,23, 6,10
1323,25371471766.275524,0.0, 1, 1, 1,10,3375000.000000002, 3,13,21,60
1360,261748800.0,4979.999999999998, 2, 6,10,60,4980.000000000002, 1,23,20,60
1388,0.0,0.0, 1, 1, 1,10,0.0, 1, 1, 1,10
End of Data
 Number of Records Written=          87
