Program Version,EnergyPlus, Version 22.2.0-c249759bad, YMD=2023.07.07 15:08
1,5,Environment Title[],Latitude[deg],Longitude[deg],Time Zone[],Elevation[m]
2,8,Day of Simulation[],Month[],Day of Month[],DST Indicator[1=yes 0=no],Hour[],StartMinute[],EndMinute[],DayType
3,5,Cumulative Day of Simulation[],Month[],Day of Month[],DST Indicator[1=yes 0=no],DayType  ! When Daily Report Variables Requested
4,2,Cumulative Days of Simulation[],Month[]  ! When Monthly Report Variables Requested
5,1,Cumulative Days of Simulation[] ! When Run Period Report Variables Requested
6,1,Calendar Year of Simulation[] ! When Annual Report Variables Requested
581,11,LIVING,AFN Zone Infiltration Air Change Rate [ach] !RunPeriod [Value,Min,Month,Day,Hour,Minute,Max,Month,Day,Hour,Minute]
582,11,ATTIC,AFN Zone Infiltration Air Change Rate [ach] !RunPeriod [Value,Min,Month,Day,Hour,Minute,Max,Month,Day,Hour,Minute]
583,11,CRAWLSPACE,AFN Zone Infiltration Air Change Rate [ach] !RunPeriod [Value,Min,Month,Day,Hour,Minute,Max,Month,Day,Hour,Minute]
1038,11,Facility,Facility Heating Setpoint Not Met Time [hr] !RunPeriod [Value,Min,Month,Day,Hour,Minute,Max,Month,Day,Hour,Minute]
1039,11,Facility,Facility Cooling Setpoint Not Met Time [hr] !RunPeriod [Value,Min,Month,Day,Hour,Minute,Max,Month,Day,Hour,Minute]
1115,11,DX_HEATING_COIL,Heating Coil Heating Energy [J] !RunPeriod [Value,Min,Month,Day,Hour,Minute,Max,Month,Day,Hour,Minute]
1128,11,DX_HEATING_COIL,Heating Coil Electricity Energy [J] !RunPeriod [Value,Min,Month,Day,Hour,Minute,Max,Month,Day,Hour,Minute]
1153,11,DX_HEATING_COIL,Heating Coil Defrost Electricity Energy [J] !RunPeriod [Value,Min,Month,Day,Hour,Minute,Max,Month,Day,Hour,Minute]
1154,11,DX_HEATING_COIL,Heating Coil Crankcase Heater Electricity Energy [J] !RunPeriod [Value,Min,Month,Day,Hour,Minute,Max,Month,Day,Hour,Minute]
1156,11,HEATING_RESISTANCE_BACKUP,Heating Coil Electricity Energy [J] !RunPeriod [Value,Min,Month,Day,Hour,Minute,Max,Month,Day,Hour,Minute]
13,11,Electricity:Facility [J] !RunPeriod [Value,Min,Month,Day,Hour,Minute,Max,Month,Day,Hour,Minute]
1134,11,Heating:Electricity [J] !RunPeriod [Value,Min,Month,Day,Hour,Minute,Max,Month,Day,Hour,Minute]
1096,11,Cooling:Electricity [J] !RunPeriod [Value,Min,Month,Day,Hour,Minute,Max,Month,Day,Hour,Minute]
562,11,Fans:Electricity [J] !RunPeriod [Value,Min,Month,Day,Hour,Minute,Max,Month,Day,Hour,Minute]
1388,11,Pumps:Electricity [J] !RunPeriod [Value,Min,Month,Day,Hour,Minute,Max,Month,Day,Hour,Minute]
1360,11,WaterSystems:Electricity [J] !RunPeriod [Value,Min,Month,Day,Hour,Minute,Max,Month,Day,Hour,Minute]
61,11,InteriorLights:Electricity [J] !RunPeriod [Value,Min,Month,Day,Hour,Minute,Max,Month,Day,Hour,Minute]
1046,11,ExteriorLights:Electricity [J] !RunPeriod [Value,Min,Month,Day,Hour,Minute,Max,Month,Day,Hour,Minute]
134,11,InteriorEquipment:Electricity [J] !RunPeriod [Value,Min,Month,Day,Hour,Minute,Max,Month,Day,Hour,Minute]
170,11,gas_dryer:InteriorEquipment:Electricity [J] !RunPeriod [Value,Min,Month,Day,Hour,Minute,Max,Month,Day,Hour,Minute]
207,11,clotheswasher:InteriorEquipment:Electricity [J] !RunPeriod [Value,Min,Month,Day,Hour,Minute,Max,Month,Day,Hour,Minute]
244,11,dishwasher:InteriorEquipment:Electricity [J] !RunPeriod [Value,Min,Month,Day,Hour,Minute,Max,Month,Day,Hour,Minute]
281,11,refrigerator:InteriorEquipment:Electricity [J] !RunPeriod [Value,Min,Month,Day,Hour,Minute,Max,Month,Day,Hour,Minute]
318,11,electric_mels:InteriorEquipment:Electricity [J] !RunPeriod [Value,Min,Month,Day,Hour,Minute,Max,Month,Day,Hour,Minute]
355,11,NaturalGas:Facility [J] !RunPeriod [Value,Min,Month,Day,Hour,Minute,Max,Month,Day,Hour,Minute]
1323,11,WaterSystems:NaturalGas [J] !RunPeriod [Value,Min,Month,Day,Hour,Minute,Max,Month,Day,Hour,Minute]
403,11,InteriorEquipment:NaturalGas [J] !RunPeriod [Value,Min,Month,Day,Hour,Minute,Max,Month,Day,Hour,Minute]
476,11,gas_dryer:InteriorEquipment:NaturalGas [J] !RunPeriod [Value,Min,Month,Day,Hour,Minute,Max,Month,Day,Hour,Minute]
513,11,gas_mels:InteriorEquipment:NaturalGas [J] !RunPeriod [Value,Min,Month,Day,Hour,Minute,Max,Month,Day,Hour,Minute]
End of Data Dictionary
1,EXTREME_WINTER,  33.95,-117.43,  -8.00, 249.00
5,7
1038,0.0,0.0, 2,15, 1,10,0.0, 2,15, 1,10
1039,0.0,0.0, 2,15, 1,10,0.0, 2,15, 1,10
581,0.1650150698558136,0.08332762343542595, 2,16,19,60,0.5709880360022811, 2,16,11,60
582,1.9144741079761853,0.0, 2,15, 1,10,10.657552663406776, 2,16,11,60
583,2.0726459151378855,0.00014583375484646945, 2,19, 6,40,11.607898031923732, 2,16,11,60
1115,40372774.99018722,0.0, 2,15, 1,10,1296059.474129498, 2,16, 6, 2
1128,10607574.337783309,0.0, 2,15, 1,10,298254.101087408, 2,16, 6, 2
1153,9107.890769597187,0.0, 2,15, 1,10,3291.033303318484, 2,18, 7,10
1154,37729893.912877515,0.0, 2,15, 6, 2,120000.0, 2,15, 1,10
1156,0.0,0.0, 2,15, 1,10,0.0, 2,15, 1,10
13,534656049.8654075,106115.4183601288, 2,17, 4,10,1236901.7359429414, 2,21,20,10
61,301924526.0238348,58759.40635443481, 2,15, 1,10,854682.2742463244, 2,15,20,10
134,70666020.44019979,42376.01200569399, 2,15, 4,10,104369.48322671017, 2,20,20,10
170,5241013.419656074,232.27731661587313, 2,15, 4,10,11650.931360040839, 2,20,12,10
207,6509451.13922266,543.5021409221355, 2,15, 3,10,15327.095199349082, 2,20,10,10
244,12749673.39982522,1014.5707620042115, 2,15, 4,10,35359.08742820678, 2,20,20,10
281,46165882.48149605,39959.06841621388, 2,15, 5,10,54634.54471212738, 2,15,19,10
318,0.0,0.0, 2,15, 1,10,0.0, 2,15, 1,10
355,742566462.0654755,12374.216038804521, 2,15, 4,10,3829218.154066982, 2,19,18,20
403,197687796.27748126,12374.216038804521, 2,15, 4,10,483183.26346918393, 2,20,18,10
476,106772067.24485692,4732.048419519677, 2,15, 4,10,237357.535085481, 2,20,12,10
513,0.0,0.0, 2,15, 1,10,0.0, 2,15, 1,10
562,13730182.252825959,0.0, 2,15, 1,10,68314.01577662484, 2,17,16,30
1046,0.0,0.0, 2,15, 1,10,0.0, 2,15, 1,10
1096,94968905.00711703,0.0, 2,15, 1,10,530286.2992739513, 2,17,16,20
1134,48346576.141430415,0.0, 2,15,12,20,459043.7346694252, 2,15, 6,10
1323,544878665.787991,0.0, 2,15, 1,10,3375000.0000000005, 2,15,16,50
1360,5019840.0,4980.0, 2,15, 1,10,4980.000000000001, 2,15, 8,50
1388,0.0,0.0, 2,15, 1,10,0.0, 2,15, 1,10
1,EXTREME_SUMMER,  33.95,-117.43,  -8.00, 249.00
5,7
1038,0.0,0.0, 9,26, 1,10,0.0, 9,26, 1,10
1039,29.5,0.0, 9,26, 1,10,0.16666666666666666, 9,26,14,30
581,0.0474997372306852,0.0, 9,26, 1,10,0.2873259975724386, 9,30,16,55
582,2.377601535134702,0.03529174670068234, 9,26, 9, 3,11.574936523534607, 9,30,16,52
583,2.1740724440888943,0.0, 9,26,23, 3,10.988769925116594, 9,30,16,55
1115,0.0,0.0, 9,26, 1,10,0.0, 9,26, 1,10
1128,0.0,0.0, 9,26, 1,10,0.0, 9,26, 1,10
1153,0.0,0.0, 9,26, 1,10,0.0, 9,26, 1,10
1154,0.0,0.0, 9,26, 1,10,0.0, 9,26, 1,10
1156,0.0,0.0, 9,26, 1,10,0.0, 9,26, 1,10
13,971778238.1112428,132578.92209661164, 9,29, 4,60,2098408.614555718,10, 2,20,10
61,301924526.0238348,58759.40635443481, 9,26, 1,10,854682.2742463244, 9,26,20,10
134,70666020.44019979,42376.01200569399, 9,26, 4,10,104369.48322671017,10, 1,20,10
170,5241013.419656074,232.27731661587313, 9,26, 4,10,11650.931360040839,10, 1,12,10
207,6509451.13922266,543.5021409221355, 9,26, 3,10,15327.095199349082,10, 1,10,10
244,12749673.39982522,1014.5707620042115, 9,26, 4,10,35359.08742820678,10, 1,20,10
281,46165882.48149605,39959.06841621388, 9,26, 5,10,54634.54471212738, 9,26,19,10
318,0.0,0.0, 9,26, 1,10,0.0, 9,26, 1,10
355,632716436.8911988,12374.216038804521, 9,26, 4,10,3829218.154066982, 9,27,18,60
403,197687796.27748126,12374.216038804521, 9,26, 4,10,483183.26346918393,10, 1,18,10
476,106772067.24485692,4732.048419519677, 9,26, 4,10,237357.535085481,10, 1,12,10
513,0.0,0.0, 9,26, 1,10,0.0, 9,26, 1,10
562,53885569.58204158,0.0, 9,26, 6,20,104640.25422629782, 9,26,13,60
1046,0.0,0.0, 9,26, 1,10,0.0, 9,26, 1,10
1096,540282282.0651668,0.0, 9,26, 6,20,1283142.002991559,10, 2,13,60
1134,0.0,0.0, 9,26, 1,10,0.0, 9,26, 1,10
1323,435028640.61371607,0.0, 9,26, 1,10,3375000.0000000005, 9,26,21,50
1360,5019840.0,4979.999999999999, 9,30, 8,50,4980.000000000001, 9,26, 7,40
1388,0.0,0.0, 9,26, 1,10,0.0, 9,26, 1,10
1,ANNUAL,  33.95,-117.43,  -8.00, 249.00
5,365
1038,0.16666666666666666,0.0, 1, 1, 1,10,0.16666666666666666,12, 8, 6,10
1039,443.33333333333337,0.0, 1, 1, 1,10,0.16666666666666666, 3,12,17,10
581,0.11876161278552838,0.0, 1,15,20,55,0.7354716926778657,12,23, 9,55
582,2.500604635746717,0.0, 1, 1, 6,50,16.32919270517699, 3,27,16,60
583,2.4180306458167267,0.0, 7,12,23, 2,20.223138882196036,12,23, 9,55
1115,367862120.62937945,0.0, 1, 1, 1,10,1593045.165884672,12, 8, 6,40
1128,107401827.66019566,0.0, 1, 1, 1,10,496527.63695200015,12, 8, 6,40
1153,3632466.4938582587,0.0, 1, 1, 1,10,30866.274026727653, 4, 9, 6, 3
1154,590574231.1851704,0.0, 1, 1, 6, 2,120000.0, 1, 1, 1,10
1156,0.0,0.0, 1, 1, 1,10,0.0, 1, 1, 1,10
13,38348369487.02892,106115.4183601288, 1, 6, 4,10,2114693.641707155, 7,24,20,10
61,15743207428.39043,58759.40635443481, 1, 1, 1,10,854682.2742463244, 1, 1,20,10
134,3685071073.433083,42376.01200569399, 1, 2, 4,10,104369.48322671017, 1, 1,20,10
170,273393721.45534325,232.27731661587313, 1, 2, 4,10,11650.931360040839, 1, 1,12,10
207,339560869.06955314,543.5021409221355, 1, 2, 3,10,15327.095199349082, 1, 1,10,10
244,664895467.8009839,1014.5707620042115, 1, 2, 4,10,35359.08742820678, 1, 1,20,10
281,2407221015.1057043,39959.06841621388, 1, 1, 5,10,54634.54471212738, 1, 1,19,10
318,0.0,0.0, 1, 1, 1,10,0.0, 1, 1, 1,10
355,35615910239.8317,12374.216038804521, 1, 2, 4,20,3829218.154066982, 1, 6,18,20
403,10310294493.052883,12374.216038804521, 1, 2, 4,10,483183.26346918393, 1, 1,18,10
476,5569688622.065564,4732.048419519677, 1, 2, 4,10,237357.535085481, 1, 1,12,10
513,0.0,0.0, 1, 1, 1,10,0.0, 1, 1, 1,10
562,1846758171.2854779,0.0, 1, 1, 1,10,104640.25422629782, 3,12,16,20
1046,0.0,0.0, 1, 1, 1,10,0.0, 1, 1, 1,10
1096,16109975488.586355,0.0, 1, 1, 1,10,1281240.182935516,10, 2,13,60
1134,701608525.3392252,0.0, 1, 1,11,30,756846.1988234011,12, 8, 6,10
1323,25305615746.7826,0.0, 1, 1, 1,10,3375000.000000003,11,29, 9,60
1360,261748800.0,4979.999999999998, 3, 6, 9,60,4980.000000000002, 1,10,20,40
1388,0.0,0.0, 1, 1, 1,10,0.0, 1, 1, 1,10
End of Data
 Number of Records Written=          87
