Program Version,EnergyPlus, Version 22.2.0-c249759bad, YMD=2023.07.07 15:22
1,5,Environment Title[],Latitude[deg],Longitude[deg],Time Zone[],Elevation[m]
2,8,Day of Simulation[],Month[],Day of Month[],DST Indicator[1=yes 0=no],Hour[],StartMinute[],EndMinute[],DayType
3,5,Cumulative Day of Simulation[],Month[],Day of Month[],DST Indicator[1=yes 0=no],DayType  ! When Daily Report Variables Requested
4,2,Cumulative Days of Simulation[],Month[]  ! When Monthly Report Variables Requested
5,1,Cumulative Days of Simulation[] ! When Run Period Report Variables Requested
6,1,Calendar Year of Simulation[] ! When Annual Report Variables Requested
581,11,LIVING,AFN Zone Infiltration Air Change Rate [ach] !RunPeriod [Value,Min,Month,Day,Hour,Minute,Max,Month,Day,Hour,Minute]
582,11,ATTIC,AFN Zone Infiltration Air Change Rate [ach] !RunPeriod [Value,Min,Month,Day,Hour,Minute,Max,Month,Day,Hour,Minute]
583,11,CRAWLSPACE,AFN Zone Infiltration Air Change Rate [ach] !RunPeriod [Value,Min,Month,Day,Hour,Minute,Max,Month,Day,Hour,Minute]
1038,11,Facility,Facility Heating Setpoint Not Met Time [hr] !RunPeriod [Value,Min,Month,Day,Hour,Minute,Max,Month,Day,Hour,Minute]
1039,11,Facility,Facility Cooling Setpoint Not Met Time [hr] !RunPeriod [Value,Min,Month,Day,Hour,Minute,Max,Month,Day,Hour,Minute]
1115,11,DX_HEATING_COIL,Heating Coil Heating Energy [J] !RunPeriod [Value,Min,Month,Day,Hour,Minute,Max,Month,Day,Hour,Minute]
1128,11,DX_HEATING_COIL,Heating Coil Electricity Energy [J] !RunPeriod [Value,Min,Month,Day,Hour,Minute,Max,Month,Day,Hour,Minute]
1153,11,DX_HEATING_COIL,Heating Coil Defrost Electricity Energy [J] !RunPeriod [Value,Min,Month,Day,Hour,Minute,Max,Month,Day,Hour,Minute]
1154,11,DX_HEATING_COIL,Heating Coil Crankcase Heater Electricity Energy [J] !RunPeriod [Value,Min,Month,Day,Hour,Minute,Max,Month,Day,Hour,Minute]
1156,11,HEATING_RESISTANCE_BACKUP,Heating Coil Electricity Energy [J] !RunPeriod [Value,Min,Month,Day,Hour,Minute,Max,Month,Day,Hour,Minute]
13,11,Electricity:Facility [J] !RunPeriod [Value,Min,Month,Day,Hour,Minute,Max,Month,Day,Hour,Minute]
1134,11,Heating:Electricity [J] !RunPeriod [Value,Min,Month,Day,Hour,Minute,Max,Month,Day,Hour,Minute]
1096,11,Cooling:Electricity [J] !RunPeriod [Value,Min,Month,Day,Hour,Minute,Max,Month,Day,Hour,Minute]
562,11,Fans:Electricity [J] !RunPeriod [Value,Min,Month,Day,Hour,Minute,Max,Month,Day,Hour,Minute]
1388,11,Pumps:Electricity [J] !RunPeriod [Value,Min,Month,Day,Hour,Minute,Max,Month,Day,Hour,Minute]
1360,11,WaterSystems:Electricity [J] !RunPeriod [Value,Min,Month,Day,Hour,Minute,Max,Month,Day,Hour,Minute]
61,11,InteriorLights:Electricity [J] !RunPeriod [Value,Min,Month,Day,Hour,Minute,Max,Month,Day,Hour,Minute]
1046,11,ExteriorLights:Electricity [J] !RunPeriod [Value,Min,Month,Day,Hour,Minute,Max,Month,Day,Hour,Minute]
134,11,InteriorEquipment:Electricity [J] !RunPeriod [Value,Min,Month,Day,Hour,Minute,Max,Month,Day,Hour,Minute]
170,11,gas_dryer:InteriorEquipment:Electricity [J] !RunPeriod [Value,Min,Month,Day,Hour,Minute,Max,Month,Day,Hour,Minute]
207,11,clotheswasher:InteriorEquipment:Electricity [J] !RunPeriod [Value,Min,Month,Day,Hour,Minute,Max,Month,Day,Hour,Minute]
244,11,dishwasher:InteriorEquipment:Electricity [J] !RunPeriod [Value,Min,Month,Day,Hour,Minute,Max,Month,Day,Hour,Minute]
281,11,refrigerator:InteriorEquipment:Electricity [J] !RunPeriod [Value,Min,Month,Day,Hour,Minute,Max,Month,Day,Hour,Minute]
318,11,electric_mels:InteriorEquipment:Electricity [J] !RunPeriod [Value,Min,Month,Day,Hour,Minute,Max,Month,Day,Hour,Minute]
355,11,NaturalGas:Facility [J] !RunPeriod [Value,Min,Month,Day,Hour,Minute,Max,Month,Day,Hour,Minute]
1323,11,WaterSystems:NaturalGas [J] !RunPeriod [Value,Min,Month,Day,Hour,Minute,Max,Month,Day,Hour,Minute]
403,11,InteriorEquipment:NaturalGas [J] !RunPeriod [Value,Min,Month,Day,Hour,Minute,Max,Month,Day,Hour,Minute]
476,11,gas_dryer:InteriorEquipment:NaturalGas [J] !RunPeriod [Value,Min,Month,Day,Hour,Minute,Max,Month,Day,Hour,Minute]
513,11,gas_mels:InteriorEquipment:NaturalGas [J] !RunPeriod [Value,Min,Month,Day,Hour,Minute,Max,Month,Day,Hour,Minute]
End of Data Dictionary
1,EXTREME_WINTER,  45.63, -89.48,  -6.00, 495.00
5,7
1038,24.0,0.0, 1,18, 1,10,0.16666666666666666, 1,18, 6,10
1039,0.0,0.0, 1,18, 1,10,0.0, 1,18, 1,10
581,0.3879934243551866,0.3150363879334967, 1,18,12,50,0.6523583171472777, 1,22,15,60
582,4.539636347730797,0.16465343784450415, 1,21,23, 7,13.451390294789434, 1,22,15,55
583,4.737772398546885,0.00045841680035698046, 1,21,23, 2,16.103741310579323, 1,22,15,55
1115,1499988558.0977118,0.0, 1,18,23, 2,1936769.8571835598, 1,22,13,60
1128,658235435.5566058,0.0, 1,18,23, 2,729668.5588820676, 1,18,15,10
1153,1632127.7551416846,0.0, 1,18,23, 2,8782.165901213935, 1,21,19,60
1154,210000.0,0.0, 1,18, 1, 1,30000.0, 1,18,23, 2
1156,3885868827.099683,0.0, 1,18,23, 2,5701966.471589773, 1,19, 4,30
13,5009186120.699946,2029995.5344618927, 1,23,15,60,6900960.994752417, 1,19,22,60
61,301924526.0238348,58759.40635443481, 1,18, 1,10,854682.2742463244, 1,18,20,10
134,70666020.44019979,42376.01200569399, 1,18, 4,10,104369.48322671017, 1,23,20,10
170,5241013.419656074,232.27731661587313, 1,18, 4,10,11650.931360040839, 1,23,12,10
207,6509451.13922266,543.5021409221355, 1,18, 3,10,15327.095199349082, 1,23,10,10
244,12749673.39982522,1014.5707620042115, 1,18, 4,10,35359.08742820678, 1,23,20,10
281,46165882.48149605,39959.06841621388, 1,18, 5,10,54634.54471212738, 1,18,19,10
318,0.0,0.0, 1,18, 1,10,0.0, 1,18, 1,10
355,746068776.9909328,12374.216038804521, 1,18, 4,10,3829218.1540669827, 1,19,18,60
403,197687796.27748126,12374.216038804521, 1,18, 4,10,483183.26346918393, 1,23,18,10
476,106772067.24485692,4732.048419519677, 1,18, 4,10,237357.535085481, 1,23,12,10
513,0.0,0.0, 1,18, 1,10,0.0, 1,18, 1,10
562,85629343.82448383,63823.113409553756, 1,18,23,10,85097.48454607168, 1,18, 1,20
1046,0.0,0.0, 1,18, 1,10,0.0, 1,18, 1,10
1096,0.0,0.0, 1,18, 1,10,0.0, 1,18, 1,10
1134,4545946390.411431,1754484.1468806213, 1,23,15,60,6344028.819888305, 1,23, 7,40
1323,548380980.7134486,0.0, 1,18, 1,10,3375000.000000001, 1,18,17,10
1360,5019840.0,4979.999999999999, 1,21, 9,40,4980.000000000001, 1,18, 1,10
1388,0.0,0.0, 1,18, 1,10,0.0, 1,18, 1,10
1,EXTREME_SUMMER,  45.63, -89.48,  -6.00, 495.00
5,7
1038,0.0,0.0, 7,24, 1,10,0.0, 7,24, 1,10
1039,40.5,0.0, 7,24, 1,10,0.16666666666666666, 7,24,15,20
581,0.06778189921687572,0.0, 7,24, 1,10,0.8095921790817722, 7,26,16,51
582,2.0460688901185202,0.0, 7,24, 6, 2,26.67694283185146, 7,26,16,51
583,2.108541130391359,0.0, 7,24,23, 2,24.76199081450482, 7,26,16,51
1115,0.0,0.0, 7,24, 1,10,0.0, 7,24, 1,10
1128,0.0,0.0, 7,24, 1,10,0.0, 7,24, 1,10
1153,0.0,0.0, 7,24, 1,10,0.0, 7,24, 1,10
1154,0.0,0.0, 7,24, 1,10,0.0, 7,24, 1,10
1156,0.0,0.0, 7,24, 1,10,0.0, 7,24, 1,10
13,864940385.1898247,106115.4183601288, 7,28, 4,10,1841700.970273965, 7,25,20,10
61,301924526.0238348,58759.40635443481, 7,24, 1,10,854682.2742463244, 7,24,20,10
134,70666020.44019979,42376.01200569399, 7,24, 4,10,104369.48322671017, 7,29,20,10
170,5241013.419656074,232.27731661587313, 7,24, 4,10,11650.931360040839, 7,29,12,10
207,6509451.13922266,543.5021409221355, 7,24, 3,10,15327.095199349082, 7,29,10,10
244,12749673.39982522,1014.5707620042115, 7,24, 4,10,35359.08742820678, 7,29,20,10
281,46165882.48149605,39959.06841621388, 7,24, 5,10,54634.54471212738, 7,24,19,10
318,0.0,0.0, 7,24, 1,10,0.0, 7,24, 1,10
355,634014759.508018,12374.216038804521, 7,24, 4,10,3829218.154066982, 7,25,18,50
403,197687796.27748126,12374.216038804521, 7,24, 4,10,483183.26346918393, 7,29,18,10
476,106772067.24485692,4732.048419519677, 7,24, 4,10,237357.535085481, 7,29,12,10
513,0.0,0.0, 7,24, 1,10,0.0, 7,24, 1,10
562,49216850.365808055,0.0, 7,26,23,10,85097.48454607168, 7,24,14,50
1046,0.0,0.0, 7,24, 1,10,0.0, 7,24, 1,10
1096,438113148.3599818,0.0, 7,26,23,10,859714.7668043198, 7,25,15,60
1134,0.0,0.0, 7,24, 1,10,0.0, 7,24, 1,10
1323,436326963.2305354,0.0, 7,24, 1,10,3375000.0000000005, 7,24,16,60
1360,5019840.0,4979.999999999999, 7,26,16,60,4980.000000000001, 7,24, 7,20
1388,0.0,0.0, 7,24, 1,10,0.0, 7,24, 1,10
1,ANNUAL,  45.63, -89.48,  -6.00, 495.00
5,365
1038,91.33333333333344,0.0, 1, 1, 1,10,0.16666666666666666, 1, 3, 6,10
1039,195.16666666666666,0.0, 1, 1, 1,10,0.16666666666666666, 3,16,17,10
581,0.23997214279557155,0.0, 6,19, 7, 2,1.0251567596129225, 3, 7, 7,55
582,3.5148514143364205,0.0, 1, 4, 7,60,33.3933629084407, 3, 8, 1,60
583,4.021281122646562,0.0, 7,24,23, 2,29.822096939662888, 3, 7, 7,55
1115,40686867864.12992,0.0, 1, 1,23, 2,2961578.5696147126, 3, 8, 1,30
1128,13393746704.307663,0.0, 1, 1,23, 2,815079.8106486447, 4,15, 6,30
1153,490419823.4205058,0.0, 1, 1,23, 2,91727.72011617232,12,14, 6,20
1154,1477310103.2597885,0.0, 1, 1, 1, 2,120000.0, 2,14,14,10
1156,22015251776.7929,0.0, 1, 1,13,10,5701966.471589773, 1,19, 3,10
13,64636835191.17656,106115.4183601288, 4,24, 4,10,7213315.0462293215, 1,19,21,60
61,15743207428.39043,58759.40635443481, 1, 1, 1,10,854682.2742463244, 1, 1,20,10
134,3685071073.433083,42376.01200569399, 1, 2, 4,10,104369.48322671017, 1, 1,20,10
170,273393721.45534325,232.27731661587313, 1, 2, 4,10,11650.931360040839, 1, 1,12,10
207,339560869.06955314,543.5021409221355, 1, 2, 3,10,15327.095199349082, 1, 1,10,10
244,664895467.8009839,1014.5707620042115, 1, 2, 4,10,35359.08742820678, 1, 1,20,10
281,2407221015.1057043,39959.06841621388, 1, 1, 5,10,54634.54471212738, 1, 1,19,10
318,0.0,0.0, 1, 1, 1,10,0.0, 1, 1, 1,10
355,35789369547.3075,12374.216038804521, 1, 2, 4,10,3829218.154066983, 1, 3,18,60
403,10310294493.052883,12374.216038804521, 1, 2, 4,10,483183.26346918393, 1, 1,18,10
476,5569688622.065564,4732.048419519677, 1, 2, 4,10,237357.535085481, 1, 1,12,10
513,0.0,0.0, 1, 1, 1,10,0.0, 1, 1, 1,10
562,2212531701.441793,0.0, 1, 6,23,10,85097.48454607168, 1, 1, 1,10
1046,0.0,0.0, 1, 1, 1,10,0.0, 1, 1, 1,10
1096,5357547780.136653,0.0, 1, 1, 1,10,874426.3092513803, 7, 8,14,60
1134,37376728407.780556,0.0, 2,16,14,30,6383406.702268006,12,31,14,20
1323,25479075054.25854,0.0, 1, 1, 1,10,3375000.000000002,11,28,20,20
1360,261748800.0,4979.999999999998, 4,16, 8,60,4980.000000000002, 1,30,22,30
1388,0.0,0.0, 1, 1, 1,10,0.0, 1, 1, 1,10
End of Data
 Number of Records Written=          87
