Program Version,EnergyPlus, Version 22.2.0-c249759bad, YMD=2023.09.01 14:30
1,5,Environment Title[],Latitude[deg],Longitude[deg],Time Zone[],Elevation[m]
2,8,Day of Simulation[],Month[],Day of Month[],DST Indicator[1=yes 0=no],Hour[],StartMinute[],EndMinute[],DayType
3,5,Cumulative Day of Simulation[],Month[],Day of Month[],DST Indicator[1=yes 0=no],DayType  ! When Daily Report Variables Requested
4,2,Cumulative Days of Simulation[],Month[]  ! When Monthly Report Variables Requested
5,1,Cumulative Days of Simulation[] ! When Run Period Report Variables Requested
6,1,Calendar Year of Simulation[] ! When Annual Report Variables Requested
7,1,Environment,Site Outdoor Air Drybulb Temperature [C] !Hourly
619,1,DX_HEATING_COIL,Heating Coil Heating Rate [W] !Hourly
633,1,DX_HEATING_COIL,Heating Coil Electricity Rate [W] !Hourly
659,1,DX_HEATING_COIL,Heating Coil Defrost Electricity Rate [W] !Hourly
661,1,DX_HEATING_COIL,Heating Coil Crankcase Heater Electricity Rate [W] !Hourly
690,1,FAN,Fan Electricity Rate [W] !Hourly
716,1,HEAT PUMP WATER HEATER FAN,Fan Electricity Rate [W] !Hourly
718,1,LIVING,Zone Mean Air Temperature [C] !Hourly
719,1,ATTIC,Zone Mean Air Temperature [C] !Hourly
720,1,CRAWLSPACE,Zone Mean Air Temperature [C] !Hourly
843,1,LIVING,Zone Predicted Sensible Load to Heating Setpoint Heat Transfer Rate [W] !Hourly
844,1,LIVING,Zone System Predicted Sensible Load to Heating Setpoint Heat Transfer Rate [W] !Hourly
907,1,ATTIC,Zone Predicted Sensible Load to Heating Setpoint Heat Transfer Rate [W] !Hourly
908,1,ATTIC,Zone System Predicted Sensible Load to Heating Setpoint Heat Transfer Rate [W] !Hourly
971,1,CRAWLSPACE,Zone Predicted Sensible Load to Heating Setpoint Heat Transfer Rate [W] !Hourly
972,1,CRAWLSPACE,Zone System Predicted Sensible Load to Heating Setpoint Heat Transfer Rate [W] !Hourly
1195,1,HEATING_RESISTANCE_BACKUP,Heating Coil Heating Rate [W] !Hourly
1197,1,HEATING_RESISTANCE_BACKUP,Heating Coil Electricity Rate [W] !Hourly
End of Data Dictionary
1,EXTREME_WINTER,  32.83,-115.58,  -8.00, -16.00
2,1, 1,13, 0, 1, 0.00,60.00,Monday
7,3.3
718,21.412319965094962
719,4.4781912433648765
720,20.2083195711278
619,0.0
633,0.0
659,0.0
661,200.0
690,0.0
716,0.0
843,-2068.614910929451
844,-2068.614910929451
907,0.0
908,0.0
971,0.0
972,0.0
1195,0.0
1197,0.0
2,1, 1,13, 0, 2, 0.00,60.00,Monday
7,4.4
718,20.76532460239783
719,4.019877221509759
720,20.00459831866284
619,0.0
633,0.0
659,0.0
661,200.0
690,0.0
716,0.0
843,-1721.129432939766
844,-1721.129432939766
907,0.0
908,0.0
971,0.0
972,0.0
1195,0.0
1197,0.0
2,1, 1,13, 0, 3, 0.00,60.00,Monday
7,3.3
718,19.96816802632881
719,3.2444348335553657
720,19.856596718375375
619,0.0
633,0.0
659,0.0
661,200.0
690,0.0
716,0.0
843,-1037.4034845612223
844,-1037.4034845612223
907,0.0
908,0.0
971,0.0
972,0.0
1195,0.0
1197,0.0
2,1, 1,13, 0, 4, 0.00,60.00,Monday
7,3.9
718,19.438160084828514
719,2.888293921223983
720,19.703995432203907
619,0.0
633,0.0
659,0.0
661,200.0
690,0.0
716,0.0
843,-633.0554322927474
844,-633.0554322927474
907,0.0
908,0.0
971,0.0
972,0.0
1195,0.0
1197,0.0
2,1, 1,13, 0, 5, 0.00,60.00,Monday
7,2.2
718,18.80695338760489
719,0.8265023891814183
720,19.557841802348463
619,0.0
633,0.0
659,0.0
661,200.0
690,0.0
716,0.0
843,-138.04480729606075
844,-138.04480729606075
907,0.0
908,0.0
971,0.0
972,0.0
1195,0.0
1197,0.0
2,1, 1,13, 0, 6, 0.00,60.00,Monday
7,2.8
718,19.55267859593407
719,0.8869510841140582
720,19.37384992897573
619,1124.4654459644419
633,352.08323680451764
659,0.016813786882801926
661,164.08096958575987
690,32.8577996849787
716,0.0
843,869.8089615055542
844,869.8089615055542
907,0.0
908,0.0
971,0.0
972,0.0
1195,0.0
1197,0.0
2,1, 1,13, 0, 7, 0.00,60.00,Monday
7,3.3
718,19.60316883352695
719,1.812255793013255
720,19.213542810209216
619,2538.889419121675
633,783.3781306557388
659,0.036702643403064866
661,121.59271591421495
690,71.72498910044109
716,85.44000000000005
843,961.7653889411486
844,961.7653889411486
907,0.0
908,0.0
971,0.0
972,0.0
1195,0.0
1197,0.0
2,1, 1,13, 0, 8, 0.00,60.00,Monday
7,5.6
718,19.806981804959893
719,3.2997974817051436
720,19.121896582528535
619,1360.610266688961
633,380.8248009215913
659,0.0
661,164.4901325216815
690,32.483635641306
716,46.50498779717139
843,499.83795426792676
844,499.83795426792676
907,0.0
908,0.0
971,0.0
972,0.0
1195,0.0
1197,0.0
2,1, 1,13, 0, 9, 0.00,60.00,Monday
7,9.4
718,20.36701002748897
719,7.567343210853148
720,19.022040409533265
619,0.0
633,0.0
659,0.0
661,200.0
690,0.0
716,0.0
843,-314.85116236903195
844,-314.85116236903195
907,0.0
908,0.0
971,0.0
972,0.0
1195,0.0
1197,0.0
2,1, 1,13, 0,10, 0.00,60.00,Monday
7,14.4
718,21.846931957053673
719,15.495793464042201
720,18.93205811245458
619,0.0
633,0.0
659,0.0
661,0.0
690,0.0
716,0.0
843,-1753.8866265575034
844,-1753.8866265575034
907,0.0
908,0.0
971,0.0
972,0.0
1195,0.0
1197,0.0
2,1, 1,13, 0,11, 0.00,60.00,Monday
7,17.2
718,22.96734865364176
719,23.009266406127427
720,18.88235338518648
619,0.0
633,0.0
659,0.0
661,0.0
690,0.0
716,0.0
843,-2830.1644750296855
844,-2830.1644750296855
907,0.0
908,0.0
971,0.0
972,0.0
1195,0.0
1197,0.0
2,1, 1,13, 0,12, 0.00,60.00,Monday
7,18.9
718,23.306988139767718
719,29.771274151056243
720,18.890390079510446
619,0.0
633,0.0
659,0.0
661,0.0
690,15.802756778317569
716,0.0
843,-3766.526775437467
844,-3766.526775437467
907,0.0
908,0.0
971,0.0
972,0.0
1195,0.0
1197,0.0
2,1, 1,13, 0,13, 0.00,60.00,Monday
7,21.1
718,23.36418241552975
719,32.94957450026226
720,18.943733650598734
619,0.0
633,0.0
659,0.0
661,0.0
690,34.12221002732265
716,0.0
843,-3895.780663834279
844,-3895.780663834279
907,0.0
908,0.0
971,0.0
972,0.0
1195,0.0
1197,0.0
2,1, 1,13, 0,14, 0.00,60.00,Monday
7,21.7
718,23.340409662892768
719,34.49247506005374
720,19.014930449475155
619,0.0
633,0.0
659,0.0
661,0.0
690,39.23638358987348
716,62.206893050121565
843,-5524.6632720328
844,-5524.6632720328
907,0.0
908,0.0
971,0.0
972,0.0
1195,0.0
1197,0.0
2,1, 1,13, 0,15, 0.00,60.00,Monday
7,21.1
718,23.319762320940924
719,33.03721401425006
720,19.162941393984806
619,0.0
633,0.0
659,0.0
661,0.0
690,78.76568570221285
716,0.0
843,-6714.374036851526
844,-6714.374036851526
907,0.0
908,0.0
971,0.0
972,0.0
1195,0.0
1197,0.0
2,1, 1,13, 0,16, 0.00,60.00,Monday
7,20.0
718,23.324156699884064
719,30.240727914135626
720,19.280431988452726
619,0.0
633,0.0
659,0.0
661,0.0
690,85.64711377931626
716,0.0
843,-7257.065876593686
844,-7257.065876593686
907,0.0
908,0.0
971,0.0
972,0.0
1195,0.0
1197,0.0
2,1, 1,13, 0,17, 0.00,60.00,Monday
7,17.2
718,23.297382570811248
719,24.91970923447011
720,19.37731392754703
619,0.0
633,0.0
659,0.0
661,0.0
690,75.09450309654669
716,0.0
843,-6964.59133866346
844,-6964.59133866346
907,0.0
908,0.0
971,0.0
972,0.0
1195,0.0
1197,0.0
2,1, 1,13, 0,18, 0.00,60.00,Monday
7,13.9
718,23.29405843254378
719,20.023788726396063
720,19.440972344099876
619,0.0
633,0.0
659,0.0
661,0.0
690,46.744621783109615
716,0.0
843,-5811.422264281471
844,-5811.422264281471
907,0.0
908,0.0
971,0.0
972,0.0
1195,0.0
1197,0.0
2,1, 1,13, 0,19, 0.00,60.00,Monday
7,10.6
718,23.250706694988427
719,15.643648966477256
720,19.476472861584124
619,0.0
633,0.0
659,0.0
661,0.0
690,10.794205652863354
716,74.67242428121254
843,-5038.000467938591
844,-5038.000467938591
907,0.0
908,0.0
971,0.0
972,0.0
1195,0.0
1197,0.0
2,1, 1,13, 0,20, 0.00,60.00,Monday
7,8.3
718,23.277917621712202
719,12.082323874972147
720,19.515659730676553
619,0.0
633,0.0
659,0.0
661,195.8869350789621
690,3.762540154384125
716,67.45849399697677
843,-4564.73954508339
844,-4564.73954508339
907,0.0
908,0.0
971,0.0
972,0.0
1195,0.0
1197,0.0
2,1, 1,13, 0,21, 0.00,60.00,Monday
7,7.2
718,23.23548997463411
719,9.447234773946986
720,19.524806170782398
619,0.0
633,0.0
659,0.0
661,183.17687080493604
690,15.389423783480481
716,0.0
843,-4039.466614038547
844,-4039.466614038547
907,0.0
908,0.0
971,0.0
972,0.0
1195,0.0
1197,0.0
2,1, 1,13, 0,22, 0.00,60.00,Monday
7,7.8
718,23.33213291221857
719,8.33227758741373
720,19.491869385796914
619,0.0
633,0.0
659,0.0
661,195.33184890267444
690,4.270320621632101
716,0.0
843,-3401.207705414361
844,-3401.207705414361
907,0.0
908,0.0
971,0.0
972,0.0
1195,0.0
1197,0.0
2,1, 1,13, 0,23, 0.00,60.00,Monday
7,6.7
718,22.957908692038583
719,7.173467876898219
720,19.44341965400621
619,0.0
633,0.0
659,0.0
661,200.0
690,0.0
716,0.0
843,-3450.1135488545824
844,-3450.1135488545824
907,0.0
908,0.0
971,0.0
972,0.0
1195,0.0
1197,0.0
2,1, 1,13, 0,24, 0.00,60.00,Monday
7,6.7
718,22.364584479420294
719,6.321782573253936
720,19.381052842819432
619,0.0
633,0.0
659,0.0
661,200.0
690,0.0
716,0.0
843,-2818.3175769585305
844,-2818.3175769585305
907,0.0
908,0.0
971,0.0
972,0.0
1195,0.0
1197,0.0
2,2, 1,14, 0, 1, 0.00,60.00,Tuesday
7,5.0
718,21.534876361138554
719,4.752469330421632
720,19.305839995286735
619,0.0
633,0.0
659,0.0
661,200.0
690,0.0
716,0.0
843,-2137.818622721228
844,-2137.818622721228
907,0.0
908,0.0
971,0.0
972,0.0
1195,0.0
1197,0.0
2,2, 1,14, 0, 2, 0.00,60.00,Tuesday
7,5.0
718,20.84331757851243
719,4.075034891212342
720,19.219373467096368
619,0.0
633,0.0
659,0.0
661,200.0
690,0.0
716,0.0
843,-1677.692743748854
844,-1677.692743748854
907,0.0
908,0.0
971,0.0
972,0.0
1195,0.0
1197,0.0
2,2, 1,14, 0, 3, 0.00,60.00,Tuesday
7,3.9
718,19.980933351114054
719,3.477972288038461
720,19.126072643527483
619,0.0
633,0.0
659,0.0
661,200.0
690,0.0
716,0.0
843,-1010.7955348328524
844,-1010.7955348328524
907,0.0
908,0.0
971,0.0
972,0.0
1195,0.0
1197,0.0
2,2, 1,14, 0, 4, 0.00,60.00,Tuesday
7,4.4
718,19.429167532901463
719,3.2908599801944005
720,19.02803818149858
619,0.0
633,0.0
659,0.0
661,200.0
690,0.0
716,0.0
843,-620.6033166887064
844,-620.6033166887064
907,0.0
908,0.0
971,0.0
972,0.0
1195,0.0
1197,0.0
2,2, 1,14, 0, 5, 0.00,60.00,Tuesday
7,3.9
718,18.794113445579697
719,2.826693022796512
720,18.921745084770244
619,0.0
633,0.0
659,0.0
661,200.0
690,0.0
716,0.0
843,-128.83071006154387
844,-128.83071006154387
907,0.0
908,0.0
971,0.0
972,0.0
1195,0.0
1197,0.0
2,2, 1,14, 0, 6, 0.00,60.00,Tuesday
7,2.2
718,19.529035563214492
719,2.5162747517306983
720,18.763345515727764
619,1436.6387187352757
633,451.34633489430496
659,0.021691894625587464
661,153.65994417379417
690,42.39065853454937
716,0.0
843,1126.114201228429
844,1126.114201228429
907,0.0
908,0.0
971,0.0
972,0.0
1195,0.0
1197,0.0
2,2, 1,14, 0, 7, 0.00,60.00,Tuesday
7,3.9
718,19.734608341852297
719,3.0405426523893757
720,18.653998892371835
619,2738.8608797833595
633,833.5855377040232
659,0.03886735913445246
661,116.96826749364963
690,75.95536048065655
716,85.44000000000005
843,1135.2674354439387
844,1135.2674354439387
907,0.0
908,0.0
971,0.0
972,0.0
1195,0.0
1197,0.0
2,2, 1,14, 0, 8, 0.00,60.00,Tuesday
7,6.1
718,19.795928263997318
719,4.043603503272452
720,18.57425706181792
619,2134.0979166005577
633,588.0180600023862
659,0.0
661,145.5634898394536
690,49.79730669845842
716,85.44000000000005
843,672.6600827876246
844,672.6600827876246
907,0.0
908,0.0
971,0.0
972,0.0
1195,0.0
1197,0.0
2,2, 1,14, 0, 9, 0.00,60.00,Tuesday
7,10.0
718,19.47413565686103
719,7.318269577109013
720,18.49840437052428
619,0.0
633,0.0
659,0.0
661,0.0
690,0.0
716,41.901965318616334
843,-52.562795470154015
844,-52.562795470154015
907,0.0
908,0.0
971,0.0
972,0.0
1195,0.0
1197,0.0
2,2, 1,14, 0,10, 0.00,60.00,Tuesday
7,13.9
718,20.668279577858176
719,13.067268518636917
720,18.420744667065968
619,0.0
633,0.0
659,0.0
661,0.0
690,0.0
716,0.0
843,-670.9310094996108
844,-670.9310094996108
907,0.0
908,0.0
971,0.0
972,0.0
1195,0.0
1197,0.0
2,2, 1,14, 0,11, 0.00,60.00,Tuesday
7,15.6
718,20.688971105280036
719,15.71962990843731
720,18.371208879135978
619,0.0
633,0.0
659,0.0
661,0.0
690,0.0
716,0.0
843,-633.6690437603447
844,-633.6690437603447
907,0.0
908,0.0
971,0.0
972,0.0
1195,0.0
1197,0.0
2,2, 1,14, 0,12, 0.00,60.00,Tuesday
7,17.2
718,20.792869712796502
719,16.081154493774267
720,18.339359885127045
619,0.0
633,0.0
659,0.0
661,0.0
690,0.0
716,0.0
843,-688.4469699022939
844,-688.4469699022939
907,0.0
908,0.0
971,0.0
972,0.0
1195,0.0
1197,0.0
2,2, 1,14, 0,13, 0.00,60.00,Tuesday
7,18.9
718,21.345300619904986
719,19.410995952851557
720,18.31893046999593
619,0.0
633,0.0
659,0.0
661,0.0
690,0.0
716,0.0
843,-1073.0523759566386
844,-1073.0523759566386
907,0.0
908,0.0
971,0.0
972,0.0
1195,0.0
1197,0.0
2,2, 1,14, 0,14, 0.00,60.00,Tuesday
7,19.4
718,22.30995481941746
719,24.565202405892855
720,18.311290884741155
619,0.0
633,0.0
659,0.0
661,0.0
690,0.0
716,0.0
843,-1722.5759198314354
844,-1722.5759198314354
907,0.0
908,0.0
971,0.0
972,0.0
1195,0.0
1197,0.0
2,2, 1,14, 0,15, 0.00,60.00,Tuesday
7,20.0
718,23.046014531159674
719,26.504945367154004
720,18.323065118595196
619,0.0
633,0.0
659,0.0
661,0.0
690,0.0
716,0.0
843,-2263.1459772319813
844,-2263.1459772319813
907,0.0
908,0.0
971,0.0
972,0.0
1195,0.0
1197,0.0
2,2, 1,14, 0,16, 0.00,60.00,Tuesday
7,18.9
718,23.323181711204604
719,24.973435170076904
720,18.358932095688292
619,0.0
633,0.0
659,0.0
661,0.0
690,2.549590173781877
716,0.0
843,-2355.754090334125
844,-2355.754090334125
907,0.0
908,0.0
971,0.0
972,0.0
1195,0.0
1197,0.0
2,2, 1,14, 0,17, 0.00,60.00,Tuesday
7,17.8
718,23.286705711277314
719,21.538182563140268
720,18.408908629946527
619,0.0
633,0.0
659,0.0
661,0.0
690,7.193908623818601
716,0.0
843,-2371.2282678372094
844,-2371.2282678372094
907,0.0
908,0.0
971,0.0
972,0.0
1195,0.0
1197,0.0
2,2, 1,14, 0,18, 0.00,60.00,Tuesday
7,16.1
718,23.240748273670672
719,18.1340582201725
720,18.451914277603965
619,0.0
633,0.0
659,0.0
661,0.0
690,7.936297837528791
716,0.0
843,-2314.9447401844536
844,-2314.9447401844536
907,0.0
908,0.0
971,0.0
972,0.0
1195,0.0
1197,0.0
2,2, 1,14, 0,19, 0.00,60.00,Tuesday
7,15.6
718,22.52357855040195
719,15.772512378887273
720,18.475130110361594
619,0.0
633,0.0
659,0.0
661,0.0
690,0.0
716,79.14623919998877
843,-2775.0395193363165
844,-2775.0395193363165
907,0.0
908,0.0
971,0.0
972,0.0
1195,0.0
1197,0.0
2,2, 1,14, 0,20, 0.00,60.00,Tuesday
7,13.3
718,22.316562757467473
719,12.826432096572422
720,18.49719335473751
619,0.0
633,0.0
659,0.0
661,0.0
690,0.0
716,85.44000000000005
843,-3351.9970689955953
844,-3351.9970689955953
907,0.0
908,0.0
971,0.0
972,0.0
1195,0.0
1197,0.0
2,2, 1,14, 0,21, 0.00,60.00,Tuesday
7,12.2
718,22.88712529532015
719,10.417224991402236
720,18.502480257050745
619,0.0
633,0.0
659,0.0
661,0.0
690,0.0
716,25.796671232989734
843,-3115.29350598366
844,-3115.29350598366
907,0.0
908,0.0
971,0.0
972,0.0
1195,0.0
1197,0.0
2,2, 1,14, 0,22, 0.00,60.00,Tuesday
7,11.7
718,23.253067230596066
719,8.603810063904527
720,18.49428409327974
619,0.0
633,0.0
659,0.0
661,0.0
690,0.0
716,0.0
843,-2406.4452120493224
844,-2406.4452120493224
907,0.0
908,0.0
971,0.0
972,0.0
1195,0.0
1197,0.0
2,2, 1,14, 0,23, 0.00,60.00,Tuesday
7,9.4
718,22.442841741200244
719,8.046726490361063
720,18.473631541911885
619,0.0
633,0.0
659,0.0
661,200.0
690,0.0
716,0.0
843,-1634.9616435394892
844,-1634.9616435394892
907,0.0
908,0.0
971,0.0
972,0.0
1195,0.0
1197,0.0
2,2, 1,14, 0,24, 0.00,60.00,Tuesday
7,7.2
718,21.824294322644082
719,6.009188377721169
720,18.444021308906287
619,0.0
633,0.0
659,0.0
661,200.0
690,0.0
716,0.0
843,-2154.4139530767297
844,-2154.4139530767297
907,0.0
908,0.0
971,0.0
972,0.0
1195,0.0
1197,0.0
2,3, 1,15, 0, 1, 0.00,60.00,Wednesday
7,5.0
718,20.90479390665453
719,4.8379481243855835
720,18.400373759282854
619,0.0
633,0.0
659,0.0
661,200.0
690,0.0
716,0.0
843,-1554.7398979329719
844,-1554.7398979329719
907,0.0
908,0.0
971,0.0
972,0.0
1195,0.0
1197,0.0
2,3, 1,15, 0, 2, 0.00,60.00,Wednesday
7,4.4
718,20.286913937033464
719,3.0225827150849853
720,18.34744527753215
619,0.0
633,0.0
659,0.0
661,200.0
690,0.0
716,0.0
843,-1239.8176986542494
844,-1239.8176986542494
907,0.0
908,0.0
971,0.0
972,0.0
1195,0.0
1197,0.0
2,3, 1,15, 0, 3, 0.00,60.00,Wednesday
7,3.9
718,19.555127776134373
719,2.569617161598176
720,18.280630480722664
619,0.0
633,0.0
659,0.0
661,200.0
690,0.0
716,0.0
843,-673.5608022310207
844,-673.5608022310207
907,0.0
908,0.0
971,0.0
972,0.0
1195,0.0
1197,0.0
2,3, 1,15, 0, 4, 0.00,60.00,Wednesday
7,5.6
718,19.15208484147425
719,3.026549829850284
720,18.210212246598395
619,0.0
633,0.0
659,0.0
661,200.0
690,0.0
716,0.0
843,-386.33997213292423
844,-386.33997213292423
907,0.0
908,0.0
971,0.0
972,0.0
1195,0.0
1197,0.0
2,3, 1,15, 0, 5, 0.00,60.00,Wednesday
7,6.7
718,18.99159213260887
719,3.332447725342829
720,18.12864463807415
619,0.0
633,0.0
659,0.0
661,200.0
690,0.0
716,0.0
843,-233.83906876725268
844,-233.83906876725268
907,0.0
908,0.0
971,0.0
972,0.0
1195,0.0
1197,0.0
2,3, 1,15, 0, 6, 0.00,60.00,Wednesday
7,7.8
718,19.36272952818711
719,4.505542029424781
720,18.03188319536643
619,1634.5214514199922
633,435.4820059201842
659,0.0
661,159.85274447450035
690,36.72581491003902
716,72.27777698016618
843,392.2443845846592
844,392.2443845846592
907,0.0
908,0.0
971,0.0
972,0.0
1195,0.0
1197,0.0
2,3, 1,15, 0, 7, 0.00,60.00,Wednesday
7,7.2
718,19.542642093935214
719,4.965053865616204
720,17.954751485824975
619,2229.1220750466723
633,598.6891084476568
659,0.0
661,144.80982333718077
690,50.486744023726835
716,85.44000000000005
843,678.7938918387845
844,678.7938918387845
907,0.0
908,0.0
971,0.0
972,0.0
1195,0.0
1197,0.0
2,3, 1,15, 0, 8, 0.00,60.00,Wednesday
7,9.4
718,19.789170762904718
719,6.542585025930055
720,17.892622970877614
619,1098.2359896270016
633,292.4578879229446
659,0.0
661,173.80055319014738
690,23.966670241578964
716,18.85579383329009
843,632.8114088179755
844,632.8114088179755
907,0.0
908,0.0
971,0.0
972,0.0
1195,0.0
1197,0.0
2,3, 1,15, 0, 9, 0.00,60.00,Wednesday
7,11.1
718,19.818461374251402
719,8.933455041961688
720,17.827794924625984
619,391.0947740572519
633,103.63463180657227
659,0.0
661,0.0
690,8.278564153599367
716,0.0
843,305.4943788543951
844,305.4943788543951
907,0.0
908,0.0
971,0.0
972,0.0
1195,0.0
1197,0.0
2,3, 1,15, 0,10, 0.00,60.00,Wednesday
7,12.2
718,19.864480234910637
719,12.556234077499798
720,17.77371320543122
619,0.0
633,0.0
659,0.0
661,0.0
690,0.0
716,0.0
843,-62.32944887878875
844,-62.32944887878875
907,0.0
908,0.0
971,0.0
972,0.0
1195,0.0
1197,0.0
2,3, 1,15, 0,11, 0.00,60.00,Wednesday
7,14.4
718,20.102205072240913
719,15.270663635318353
720,17.737697708635416
619,0.0
633,0.0
659,0.0
661,0.0
690,0.0
716,0.0
843,-241.77274221292646
844,-241.77274221292646
907,0.0
908,0.0
971,0.0
972,0.0
1195,0.0
1197,0.0
2,3, 1,15, 0,12, 0.00,60.00,Wednesday
7,15.6
718,20.36665550649003
719,17.056270858467375
720,17.718111343559244
619,0.0
633,0.0
659,0.0
661,0.0
690,0.0
716,0.0
843,-401.0994393467681
844,-401.0994393467681
907,0.0
908,0.0
971,0.0
972,0.0
1195,0.0
1197,0.0
2,3, 1,15, 0,13, 0.00,60.00,Wednesday
7,17.2
718,20.860744990719713
719,19.09567133743169
720,17.7139610330964
619,0.0
633,0.0
659,0.0
661,0.0
690,0.0
716,0.0
843,-691.0296371750319
844,-691.0296371750319
907,0.0
908,0.0
971,0.0
972,0.0
1195,0.0
1197,0.0
2,3, 1,15, 0,14, 0.00,60.00,Wednesday
7,17.2
718,21.60611124610029
719,21.5574570344577
720,17.72434754809567
619,0.0
633,0.0
659,0.0
661,0.0
690,0.0
716,0.0
843,-1202.3578504010984
844,-1202.3578504010984
907,0.0
908,0.0
971,0.0
972,0.0
1195,0.0
1197,0.0
2,3, 1,15, 0,15, 0.00,60.00,Wednesday
7,17.8
718,21.979473273150273
719,21.476901810799323
720,17.750992446825542
619,0.0
633,0.0
659,0.0
661,0.0
690,0.0
716,0.0
843,-1523.0027110759002
844,-1523.0027110759002
907,0.0
908,0.0
971,0.0
972,0.0
1195,0.0
1197,0.0
2,3, 1,15, 0,16, 0.00,60.00,Wednesday
7,17.8
718,20.61052036278401
719,20.305279821005993
720,17.789296865796402
619,0.0
633,0.0
659,0.0
661,0.0
690,0.0
716,85.44000000000005
843,-1424.606023012152
844,-1424.606023012152
907,0.0
908,0.0
971,0.0
972,0.0
1195,0.0
1197,0.0
2,3, 1,15, 0,17, 0.00,60.00,Wednesday
7,16.7
718,20.95750634689137
719,18.371241969496065
720,17.82876502677636
619,0.0
633,0.0
659,0.0
661,0.0
690,0.0
716,42.65677509249454
843,-1617.171497944124
844,-1617.171497944124
907,0.0
908,0.0
971,0.0
972,0.0
1195,0.0
1197,0.0
2,3, 1,15, 0,18, 0.00,60.00,Wednesday
7,15.6
718,22.003748308371335
719,16.07596227364099
720,17.86129870326785
619,0.0
633,0.0
659,0.0
661,0.0
690,0.0
716,0.0
843,-1605.283754341839
844,-1605.283754341839
907,0.0
908,0.0
971,0.0
972,0.0
1195,0.0
1197,0.0
2,3, 1,15, 0,19, 0.00,60.00,Wednesday
7,15.0
718,22.754719976346905
719,14.879982115502466
720,17.888512914169567
619,0.0
633,0.0
659,0.0
661,0.0
690,0.0
716,0.0
843,-1733.2172490143757
844,-1733.2172490143757
907,0.0
908,0.0
971,0.0
972,0.0
1195,0.0
1197,0.0
2,3, 1,15, 0,20, 0.00,60.00,Wednesday
7,14.4
718,21.784579653501822
719,14.108713078160001
720,17.90750878207126
619,0.0
633,0.0
659,0.0
661,0.0
690,0.0
716,79.37901511858546
843,-2325.654423481985
844,-2325.654423481985
907,0.0
908,0.0
971,0.0
972,0.0
1195,0.0
1197,0.0
2,3, 1,15, 0,21, 0.00,60.00,Wednesday
7,13.9
718,22.78669855053665
719,13.345923628399344
720,17.920421545507658
619,0.0
633,0.0
659,0.0
661,0.0
690,0.0
716,0.0
843,-2316.3922736830627
844,-2316.3922736830627
907,0.0
908,0.0
971,0.0
972,0.0
1195,0.0
1197,0.0
2,3, 1,15, 0,22, 0.00,60.00,Wednesday
7,16.1
718,23.19167313696596
719,13.751594642255185
720,17.927426769970513
619,0.0
633,0.0
659,0.0
661,0.0
690,0.0
716,0.0
843,-2025.5469438702285
844,-2025.5469438702285
907,0.0
908,0.0
971,0.0
972,0.0
1195,0.0
1197,0.0
2,3, 1,15, 0,23, 0.00,60.00,Wednesday
7,15.6
718,22.850170359346482
719,14.665290698408805
720,17.92857249433537
619,0.0
633,0.0
659,0.0
661,0.0
690,0.0
716,0.0
843,-3019.2857004855396
844,-3019.2857004855396
907,0.0
908,0.0
971,0.0
972,0.0
1195,0.0
1197,0.0
2,3, 1,15, 0,24, 0.00,60.00,Wednesday
7,13.9
718,22.206630590884217
719,14.114252240674524
720,17.92554974027062
619,0.0
633,0.0
659,0.0
661,0.0
690,0.0
716,0.0
843,-2275.211372137679
844,-2275.211372137679
907,0.0
908,0.0
971,0.0
972,0.0
1195,0.0
1197,0.0
2,4, 1,16, 0, 1, 0.00,60.00,Thursday
7,13.9
718,21.666996148836645
719,13.76051408008882
720,17.917484856997337
619,0.0
633,0.0
659,0.0
661,0.0
690,0.0
716,0.0
843,-1288.8381163012436
844,-1288.8381163012436
907,0.0
908,0.0
971,0.0
972,0.0
1195,0.0
1197,0.0
2,4, 1,16, 0, 2, 0.00,60.00,Thursday
7,13.9
718,20.94430569182574
719,13.596118096904368
720,17.901492297597922
619,0.0
633,0.0
659,0.0
661,0.0
690,0.0
716,0.0
843,-1042.0300950775918
844,-1042.0300950775918
907,0.0
908,0.0
971,0.0
972,0.0
1195,0.0
1197,0.0
2,4, 1,16, 0, 3, 0.00,60.00,Thursday
7,12.8
718,20.78492794415364
719,12.44858829545492
720,17.880448241967883
619,0.0
633,0.0
659,0.0
661,0.0
690,0.0
716,0.0
843,-1406.8262900355203
844,-1406.8262900355203
907,0.0
908,0.0
971,0.0
972,0.0
1195,0.0
1197,0.0
2,4, 1,16, 0, 4, 0.00,60.00,Thursday
7,12.8
718,20.573873725456735
719,11.835743943795958
720,17.853028998275775
619,0.0
633,0.0
659,0.0
661,0.0
690,0.0
716,0.0
843,-917.8207773005897
844,-917.8207773005897
907,0.0
908,0.0
971,0.0
972,0.0
1195,0.0
1197,0.0
2,4, 1,16, 0, 5, 0.00,60.00,Thursday
7,13.3
718,20.300567906535253
719,12.25216201998515
720,17.819201726899156
619,0.0
633,0.0
659,0.0
661,0.0
690,0.0
716,0.0
843,-852.704207037099
844,-852.704207037099
907,0.0
908,0.0
971,0.0
972,0.0
1195,0.0
1197,0.0
2,4, 1,16, 0, 6, 0.00,60.00,Thursday
7,13.3
718,18.997318295421287
719,12.384845631250894
720,17.782325284610472
619,0.0
633,0.0
659,0.0
661,0.0
690,0.0
716,56.58691663518382
843,-157.20855725769616
844,-157.20855725769616
907,0.0
908,0.0
971,0.0
972,0.0
1195,0.0
1197,0.0
2,4, 1,16, 0, 7, 0.00,60.00,Thursday
7,12.2
718,19.50348870857371
719,11.87439590712461
720,17.74569320824782
619,1388.1224473156537
633,353.27562522868686
659,0.0
661,0.0
690,28.191921491440258
716,85.44000000000005
843,126.49901720169692
844,126.49901720169692
907,0.0
908,0.0
971,0.0
972,0.0
1195,0.0
1197,0.0
2,4, 1,16, 0, 8, 0.00,60.00,Thursday
7,13.3
718,19.55500300762133
719,12.313472719670632
720,17.70844365072602
619,0.0
633,0.0
659,0.0
661,0.0
690,0.0
716,42.28722932697299
843,-321.10970494976937
844,-321.10970494976937
907,0.0
908,0.0
971,0.0
972,0.0
1195,0.0
1197,0.0
2,4, 1,16, 0, 9, 0.00,60.00,Thursday
7,16.7
718,21.308392495022115
719,15.948745478545307
720,17.679687819218465
619,0.0
633,0.0
659,0.0
661,0.0
690,0.0
716,0.0
843,-1260.7811260492472
844,-1260.7811260492472
907,0.0
908,0.0
971,0.0
972,0.0
1195,0.0
1197,0.0
2,4, 1,16, 0,10, 0.00,60.00,Thursday
7,18.9
718,22.725930882823032
719,19.239104686238072
720,17.672363815825648
619,0.0
633,0.0
659,0.0
661,0.0
690,0.0
716,0.0
843,-2355.448683150773
844,-2355.448683150773
907,0.0
908,0.0
971,0.0
972,0.0
1195,0.0
1197,0.0
2,4, 1,16, 0,11, 0.00,60.00,Thursday
7,19.4
718,23.31413844474326
719,20.712546366668967
720,17.71228536770573
619,0.0
633,0.0
659,0.0
661,0.0
690,8.204004279688974
716,0.0
843,-3563.1395081159826
844,-3563.1395081159826
907,0.0
908,0.0
971,0.0
972,0.0
1195,0.0
1197,0.0
2,4, 1,16, 0,12, 0.00,60.00,Thursday
7,20.0
718,23.402689133328405
719,21.667743921822563
720,17.80221854874978
619,0.0
633,0.0
659,0.0
661,0.0
690,23.1941339404939
716,0.0
843,-3676.8684495851903
844,-3676.8684495851903
907,0.0
908,0.0
971,0.0
972,0.0
1195,0.0
1197,0.0
2,4, 1,16, 0,13, 0.00,60.00,Thursday
7,20.0
718,23.32432279733383
719,21.861053088942246
720,17.910284002870952
619,0.0
633,0.0
659,0.0
661,0.0
690,41.6598936427835
716,0.0
843,-4906.6604210473815
844,-4906.6604210473815
907,0.0
908,0.0
971,0.0
972,0.0
1195,0.0
1197,0.0
2,4, 1,16, 0,14, 0.00,60.00,Thursday
7,20.0
718,23.3836064722172
719,22.33376977782227
720,18.041239985950856
619,0.0
633,0.0
659,0.0
661,0.0
690,57.56049461753963
716,0.0
843,-5991.955629879631
844,-5991.955629879631
907,0.0
908,0.0
971,0.0
972,0.0
1195,0.0
1197,0.0
2,4, 1,16, 0,15, 0.00,60.00,Thursday
7,19.4
718,23.275047958325707
719,21.239484157281186
720,18.179010538062048
619,0.0
633,0.0
659,0.0
661,0.0
690,67.7609405293499
716,0.0
843,-6573.356039536397
844,-6573.356039536397
907,0.0
908,0.0
971,0.0
972,0.0
1195,0.0
1197,0.0
2,4, 1,16, 0,16, 0.00,60.00,Thursday
7,17.8
718,23.251363471411363
719,19.39808509417857
720,18.272808566414188
619,0.0
633,0.0
659,0.0
661,0.0
690,65.07023412615106
716,0.0
843,-6722.388478810637
844,-6722.388478810637
907,0.0
908,0.0
971,0.0
972,0.0
1195,0.0
1197,0.0
2,4, 1,16, 0,17, 0.00,60.00,Thursday
7,16.1
718,23.362543157942866
719,17.735758207000966
720,18.289277654555786
619,0.0
633,0.0
659,0.0
661,0.0
690,28.129310414996855
716,71.79372274274738
843,-6208.402593177136
844,-6208.402593177136
907,0.0
908,0.0
971,0.0
972,0.0
1195,0.0
1197,0.0
2,4, 1,16, 0,18, 0.00,60.00,Thursday
7,14.4
718,23.29950267865893
719,15.584869126569071
720,18.396236292455825
619,0.0
633,0.0
659,0.0
661,0.0
690,33.03254449776335
716,0.0
843,-5151.027223744906
844,-5151.027223744906
907,0.0
908,0.0
971,0.0
972,0.0
1195,0.0
1197,0.0
2,4, 1,16, 0,19, 0.00,60.00,Thursday
7,13.9
718,22.982720402378753
719,14.489927787992603
720,18.38768020925358
619,0.0
633,0.0
659,0.0
661,0.0
690,0.0
716,85.44000000000005
843,-4462.497698661195
844,-4462.497698661195
907,0.0
908,0.0
971,0.0
972,0.0
1195,0.0
1197,0.0
2,4, 1,16, 0,20, 0.00,60.00,Thursday
7,12.8
718,23.29675099448317
719,13.22932772609793
720,18.43733850106268
619,0.0
633,0.0
659,0.0
661,0.0
690,6.040307998861994
716,25.342992321084118
843,-4117.586692574827
844,-4117.586692574827
907,0.0
908,0.0
971,0.0
972,0.0
1195,0.0
1197,0.0
2,4, 1,16, 0,21, 0.00,60.00,Thursday
7,12.8
718,23.10399377602538
719,12.903842783228232
720,18.445295599169697
619,0.0
633,0.0
659,0.0
661,0.0
690,10.19123841919423
716,0.0
843,-3569.3921333553244
844,-3569.3921333553244
907,0.0
908,0.0
971,0.0
972,0.0
1195,0.0
1197,0.0
2,4, 1,16, 0,22, 0.00,60.00,Thursday
7,11.7
718,23.693722753248974
719,11.535909480527202
720,18.404604268463622
619,0.0
633,0.0
659,0.0
661,0.0
690,0.0
716,0.0
843,-3093.8436848726724
844,-3093.8436848726724
907,0.0
908,0.0
971,0.0
972,0.0
1195,0.0
1197,0.0
2,4, 1,16, 0,23, 0.00,60.00,Thursday
7,10.0
718,23.20015000572512
719,9.823703339026007
720,18.378002261168348
619,0.0
633,0.0
659,0.0
661,0.0
690,0.0
716,0.0
843,-2620.288796698089
844,-2620.288796698089
907,0.0
908,0.0
971,0.0
972,0.0
1195,0.0
1197,0.0
2,4, 1,16, 0,24, 0.00,60.00,Thursday
7,9.4
718,22.332892228039253
719,9.161158967944697
720,18.339885074470093
619,0.0
633,0.0
659,0.0
661,200.0
690,0.0
716,0.0
843,-2439.7859845963885
844,-2439.7859845963885
907,0.0
908,0.0
971,0.0
972,0.0
1195,0.0
1197,0.0
2,5, 1,17, 0, 1, 0.00,60.00,Friday
7,6.7
718,21.581884201672864
719,7.348695006651105
720,18.29927422161463
619,0.0
633,0.0
659,0.0
661,200.0
690,0.0
716,0.0
843,-2202.4990300367263
844,-2202.4990300367263
907,0.0
908,0.0
971,0.0
972,0.0
1195,0.0
1197,0.0
2,5, 1,17, 0, 2, 0.00,60.00,Friday
7,6.1
718,20.999538081861445
719,6.023333193567434
720,18.249838957170052
619,0.0
633,0.0
659,0.0
661,200.0
690,0.0
716,0.0
843,-1766.9747391461551
844,-1766.9747391461551
907,0.0
908,0.0
971,0.0
972,0.0
1195,0.0
1197,0.0
2,5, 1,17, 0, 3, 0.00,60.00,Friday
7,6.1
718,20.414881232849478
719,5.129404220552103
720,18.18568714312094
619,0.0
633,0.0
659,0.0
661,200.0
690,0.0
716,0.0
843,-1271.0030838262846
844,-1271.0030838262846
907,0.0
908,0.0
971,0.0
972,0.0
1195,0.0
1197,0.0
2,5, 1,17, 0, 4, 0.00,60.00,Friday
7,4.4
718,19.661359262662977
719,3.877175577842629
720,18.11631195004133
619,0.0
633,0.0
659,0.0
661,200.0
690,0.0
716,0.0
843,-715.8267422081099
844,-715.8267422081099
907,0.0
908,0.0
971,0.0
972,0.0
1195,0.0
1197,0.0
2,5, 1,17, 0, 5, 0.00,60.00,Friday
7,3.9
718,19.166799097907383
719,2.0556603645523293
720,18.0357224587242
619,0.0
633,0.0
659,0.0
661,200.0
690,0.0
716,0.0
843,-391.8889940224235
844,-391.8889940224235
907,0.0
908,0.0
971,0.0
972,0.0
1195,0.0
1197,0.0
2,5, 1,17, 0, 6, 0.00,60.00,Friday
7,3.9
718,19.418183117357163
719,3.187158142526652
720,17.902831486705626
619,2341.4562637057647
633,710.7373714330662
659,46.16188346814406
661,121.84888751885082
690,71.20817875520348
716,85.44000000000005
843,637.4510884887732
844,637.4510884887732
907,0.0
908,0.0
971,0.0
972,0.0
1195,0.0
1197,0.0
2,5, 1,17, 0, 7, 0.00,60.00,Friday
7,2.8
718,19.564310352674777
719,2.598218746811611
720,17.828390776048657
619,2284.660855129604
633,711.2671018701025
659,45.986160105757484
661,121.41310834499586
690,71.50416843732144
716,68.24444005177376
843,856.8290414108069
844,856.8290414108069
907,0.0
908,0.0
971,0.0
972,0.0
1195,0.0
1197,0.0
2,5, 1,17, 0, 8, 0.00,60.00,Friday