Program Version,EnergyPlus, Version 22.2.0-c249759bad, YMD=2023.09.01 14:30
1,5,Environment Title[],Latitude[deg],Longitude[deg],Time Zone[],Elevation[m]
2,8,Day of Simulation[],Month[],Day of Month[],DST Indicator[1=yes 0=no],Hour[],StartMinute[],EndMinute[],DayType
3,5,Cumulative Day of Simulation[],Month[],Day of Month[],DST Indicator[1=yes 0=no],DayType  ! When Daily Report Variables Requested
4,2,Cumulative Days of Simulation[],Month[]  ! When Monthly Report Variables Requested
5,1,Cumulative Days of Simulation[] ! When Run Period Report Variables Requested
6,1,Calendar Year of Simulation[] ! When Annual Report Variables Requested
7,1,Environment,Site Outdoor Air Drybulb Temperature [C] !Hourly
619,1,DX_HEATING_COIL,Heating Coil Heating Rate [W] !Hourly
633,1,DX_HEATING_COIL,Heating Coil Electricity Rate [W] !Hourly
659,1,DX_HEATING_COIL,Heating Coil Defrost Electricity Rate [W] !Hourly
661,1,DX_HEATING_COIL,Heating Coil Crankcase Heater Electricity Rate [W] !Hourly
690,1,FAN,Fan Electricity Rate [W] !Hourly
716,1,HEAT PUMP WATER HEATER FAN,Fan Electricity Rate [W] !Hourly
718,1,LIVING,Zone Mean Air Temperature [C] !Hourly
719,1,ATTIC,Zone Mean Air Temperature [C] !Hourly
720,1,CRAWLSPACE,Zone Mean Air Temperature [C] !Hourly
843,1,LIVING,Zone Predicted Sensible Load to Heating Setpoint Heat Transfer Rate [W] !Hourly
844,1,LIVING,Zone System Predicted Sensible Load to Heating Setpoint Heat Transfer Rate [W] !Hourly
907,1,ATTIC,Zone Predicted Sensible Load to Heating Setpoint Heat Transfer Rate [W] !Hourly
908,1,ATTIC,Zone System Predicted Sensible Load to Heating Setpoint Heat Transfer Rate [W] !Hourly
971,1,CRAWLSPACE,Zone Predicted Sensible Load to Heating Setpoint Heat Transfer Rate [W] !Hourly
972,1,CRAWLSPACE,Zone System Predicted Sensible Load to Heating Setpoint Heat Transfer Rate [W] !Hourly
1195,1,HEATING_RESISTANCE_BACKUP,Heating Coil Heating Rate [W] !Hourly
1197,1,HEATING_RESISTANCE_BACKUP,Heating Coil Electricity Rate [W] !Hourly
End of Data Dictionary
1,EXTREME_WINTER,  42.40, -96.38,  -6.00, 336.00
2,1,12,22, 0, 1, 0.00,60.00,Monday
7,-6.7
718,18.271909116523407
719,-2.252389612639032
720,18.577962613313186
619,3977.7595575242663
633,1385.65436352919
659,49.906707461821526
661,27.833168782550178
690,138.6850980724518
716,0.0
843,2717.9234559061642
844,2717.9234559061642
907,0.0
908,0.0
971,0.0
972,0.0
1195,0.0
1197,0.0
2,1,12,22, 0, 2, 0.00,60.00,Monday
7,-7.8
718,18.432078797516823
719,-2.5409127295536376
720,18.147249357164643
619,4638.424546979305
633,1594.7463347603514
659,50.180911791309526
661,0.0
690,162.896092559363
716,0.0
843,3712.5779257305185
844,3712.5779257305185
907,0.0
908,0.0
971,0.0
972,0.0
1195,621.507820521771
1197,621.507820521771
2,1,12,22, 0, 3, 0.00,60.00,Monday
7,-7.8
718,18.54847288403933
719,-2.553133392123651
720,17.964529710470828
619,4632.881794366108
633,1598.6700520060554
659,50.60326269954415
661,0.0
690,162.896092559363
716,0.0
843,4109.371562200702
844,4109.371562200702
907,0.0
908,0.0
971,0.0
972,0.0
1195,1130.5874668833849
1197,1130.5874668833849
2,1,12,22, 0, 4, 0.00,60.00,Monday
7,-7.8
718,18.589747460258717
719,-2.485925274333395
720,17.745499279838462
619,4631.502672792715
633,1602.5866714808346
659,50.18536251972799
661,0.0
690,162.896092559363
716,0.0
843,4131.946260789877
844,4131.946260789877
907,0.0
908,0.0
971,0.0
972,0.0
1195,1175.538489795881
1197,1175.538489795881
2,1,12,22, 0, 5, 0.00,60.00,Monday
7,-8.3
718,18.602194801494246
719,-2.8603308466614177
720,17.54871319574728
619,4571.3131354200505
633,1600.035483239238
659,47.62789531718442
661,0.0
690,162.896092559363
716,0.0
843,4079.17740527766
844,4079.17740527766
907,0.0
908,0.0
971,0.0
972,0.0
1195,1171.571725828203
1197,1171.571725828203
2,1,12,22, 0, 6, 0.00,60.00,Monday
7,-10.6
718,19.355186164150457
719,-3.6129968604242872
720,17.34532977088075
619,4297.548872285658
633,1581.425828943148
659,37.19855392619708
661,0.0
690,162.896092559363
716,0.0
843,5277.7717153056365
844,5277.7717153056365
907,0.0
908,0.0
971,0.0
972,0.0
1195,2897.2584646152936
1197,2897.2584646152936
2,1,12,22, 0, 7, 0.00,60.00,Monday
7,-10.6
718,19.564742001467607
719,-4.0248215362641755
720,17.202275757700722
619,4277.281861328922
633,1603.5968696864898
659,37.19855392619708
661,0.0
690,162.896092559363
716,85.44000000000005
843,5095.140981567965
844,5095.140981567965
907,0.0
908,0.0
971,0.0
972,0.0
1195,3930.4045883691933
1197,3930.4045883691933
2,1,12,22, 0, 8, 0.00,60.00,Monday
7,-10.0
718,19.647032694283794
719,-3.898912294267079
720,17.042706540824568
619,4343.251292791016
633,1615.294059258127
659,39.67430848752556
661,0.0
690,162.896092559363
716,85.44000000000005
843,4395.029237360282
844,4395.029237360282
907,0.0
908,0.0
971,0.0
972,0.0
1195,3150.5568825517785
1197,3150.5568825517785
2,1,12,22, 0, 9, 0.00,60.00,Monday
7,-9.4
718,19.6984354433162
719,-3.4877767489208993
720,16.889565775290347
619,4392.149776855424
633,1615.322167015522
659,48.02868907851292
661,0.0
690,162.896092559363
716,11.10658612668409
843,3889.2258189295826
844,3889.2258189295826
907,0.0
908,0.0
971,0.0
972,0.0
1195,1441.9336259862798
1197,1441.9336259862798
2,1,12,22, 0,10, 0.00,60.00,Monday
7,-8.3
718,19.71924270942299
719,-1.2012697694399428
720,16.75139576624879
619,4565.726578440692
633,1641.620557538124
659,41.240005602019345
661,0.0
690,162.896092559363
716,0.0
843,3067.3566705433805
844,3067.3566705433805
907,0.0
908,0.0
971,0.0
972,0.0
1195,143.8435087375792
1197,143.8435087375792
2,1,12,22, 0,11, 0.00,60.00,Monday
7,-7.2
718,19.811817415639204
719,0.1641067513862099
720,16.651596137797576
619,3076.7122609193434
633,1132.7107470943477
659,26.91116210440924
661,63.58703550686915
690,110.23688159406453
716,0.0
843,2063.0754285836683
844,2063.0754285836683
907,0.0
908,0.0
971,0.0
972,0.0
1195,0.0
1197,0.0
2,1,12,22, 0,12, 0.00,60.00,Monday
7,-6.7
718,19.86159813927714
719,2.5558249515251283
720,16.56755479646365
619,2002.7249728707052
633,750.9528181718025
659,16.239844471577637
661,110.35480168024472
690,72.51612534253373
716,0.0
843,1373.5535143578
844,1373.5535143578
907,0.0
908,0.0
971,0.0
972,0.0
1195,0.0
1197,0.0
2,1,12,22, 0,13, 0.00,60.00,Monday
7,-6.7
718,19.786513944945145
719,4.213167196835431
720,16.505906092093845
619,1274.6733385063642
633,487.3126222248454
659,10.527926545707961
661,141.88503068871313
690,47.010478457767604
716,0.0
843,903.884138302079
844,903.884138302079
907,0.0
908,0.0
971,0.0
972,0.0
1195,0.0
1197,0.0
2,1,12,22, 0,14, 0.00,60.00,Monday
7,-4.4
718,19.82691166332166
719,6.683176197634462
720,16.464824875585652
619,1704.17220028265
633,612.1661591664429
659,2.074089828970547
661,130.01900340730046
690,56.94939882583765
716,78.01116505743904
843,411.37753814831194
844,411.37753814831194
907,0.0
908,0.0
971,0.0
972,0.0
1195,0.0
1197,0.0
2,1,12,22, 0,15, 0.00,60.00,Monday
7,-3.9
718,19.989937175700845
719,6.932767836972038
720,16.443865264093724
619,0.0
633,0.0
659,0.0
661,200.0
690,0.0
716,0.0
843,-81.47998646895576
844,-81.47998646895576
907,0.0
908,0.0
971,0.0
972,0.0
1195,0.0
1197,0.0
2,1,12,22, 0,16, 0.00,60.00,Monday
7,-3.3
718,20.378759151836718
719,6.7302954832856825
720,16.432558448037433
619,0.0
633,0.0
659,0.0
661,200.0
690,0.0
716,0.0
843,-555.0539580952391
844,-555.0539580952391
907,0.0
908,0.0
971,0.0
972,0.0
1195,0.0
1197,0.0
2,1,12,22, 0,17, 0.00,60.00,Monday
7,-6.1
718,19.836118871109587
719,2.5776998958021746
720,16.429213630732967
619,0.0
633,0.0
659,0.0
661,200.0
690,0.0
716,0.0
843,-94.32518480221552
844,-94.32518480221552
907,0.0
908,0.0
971,0.0
972,0.0
1195,0.0
1197,0.0
2,1,12,22, 0,18, 0.00,60.00,Monday
7,-7.2
718,19.654063487589696
719,0.33396954498639286
720,16.412895091850135
619,1191.8208223261938
633,460.8462207036209
659,9.438190274701586
661,144.8584738801025
690,44.60774300099522
716,0.0
843,825.5092486868652
844,825.5092486868652
907,0.0
908,0.0
971,0.0
972,0.0
1195,0.0
1197,0.0
2,1,12,22, 0,19, 0.00,60.00,Monday
7,-7.2
718,19.56430567274783
719,-1.2561070773605185
720,16.365295743132883
619,3136.1782884230643
633,1149.8248367225228
659,23.638973300975607
661,61.89205496129722
690,111.72583227664506
716,85.44000000000005
843,1178.897441829722
844,1178.897441829722
907,0.0
908,0.0
971,0.0
972,0.0
1195,0.0
1197,0.0
2,1,12,22, 0,20, 0.00,60.00,Monday
7,-7.2
718,19.34850332256775
719,-2.493107984320614
720,16.293607734021446
619,4730.403458513077
633,1654.7204399086065
659,39.440566475497526
661,0.0
690,162.896092559363
716,85.44000000000005
843,2181.177234965051
844,2181.177234965051
907,0.0
908,0.0
971,0.0
972,0.0
1195,4.315321958354161
1197,4.315321958354161
2,1,12,22, 0,21, 0.00,60.00,Monday
7,-6.7
718,19.544868011953866
719,-2.120058741708738
720,16.228446893795837
619,4535.04538146585
633,1582.1401012250988
659,42.1890785239498
661,8.087664989040878
690,155.01232398605978
716,52.0063818682058
843,2425.358037895695
844,2425.358037895695
907,0.0
908,0.0
971,0.0
972,0.0
1195,0.0
1197,0.0
2,1,12,22, 0,22, 0.00,60.00,Monday
7,-6.1
718,19.80697056745221
719,-2.0519732014539502
720,16.17322303863901
619,3099.0555077579816
633,1112.1682125575608
659,35.03173669008152
661,65.42831260370174
690,108.58698403672003
716,0.0
843,2064.2357453210625
844,2064.2357453210625
907,0.0
908,0.0
971,0.0
972,0.0
1195,0.0
1197,0.0
2,1,12,22, 0,23, 0.00,60.00,Monday
7,-6.1
718,18.96810051925383
719,-2.575036531289919
720,16.089981154994206
619,2011.5899302473695
633,746.123371197914
659,23.366000867682327
661,110.1902362738303
690,72.46758431010917
716,0.0
843,1333.089070837008
844,1333.089070837008
907,0.0
908,0.0
971,0.0
972,0.0
1195,0.0
1197,0.0
2,1,12,22, 0,24, 0.00,60.00,Monday
7,-6.1
718,18.611504622405036
719,-2.758757059201728
720,15.964382260950154
619,2626.859205277006
633,939.832728629865
659,29.909384530958917
661,84.99718219460786
690,92.8003981168742
716,0.0
843,1777.8283036111407
844,1777.8283036111407
907,0.0
908,0.0
971,0.0
972,0.0
1195,0.0
1197,0.0
2,2,12,23, 0, 1, 0.00,60.00,Tuesday
7,-6.1
718,18.57169810647083
719,-2.4621174461864634
720,15.84595350974995
619,3526.7567200893777
633,1223.804049003579
659,39.22800536751363
661,49.16670052239023
690,121.71580710695245
716,0.0
843,2396.7457295612294
844,2396.7457295612294
907,0.0
908,0.0
971,0.0
972,0.0
1195,0.0
1197,0.0
2,2,12,23, 0, 2, 0.00,60.00,Tuesday
7,-7.2
718,18.391719785328497
719,-2.547039121174263
720,15.710220955722674
619,4779.088853937301
633,1629.5177883286512
659,34.13151408675755
661,0.0
690,162.896092559363
716,0.0
843,3611.9763627402263
844,3611.9763627402263
907,0.0
908,0.0
971,0.0
972,0.0
1195,461.6824068077931
1197,461.6824068077931
2,2,12,23, 0, 3, 0.00,60.00,Tuesday
7,-8.3
718,18.532006626308373
719,-3.365737884287732
720,15.582642411055932
619,4603.642574310371
633,1599.366481447365
659,41.142197559618346
661,0.0
690,162.896092559363
716,0.0
843,4781.14077637168
844,4781.14077637168
907,0.0
908,0.0
971,0.0
972,0.0
1195,2026.5116692609927
1197,2026.5116692609927
2,2,12,23, 0, 4, 0.00,60.00,Tuesday
7,-8.9
718,18.58153904497186
719,-3.7996624981552096
720,15.473926871740465
619,4543.698011434444
633,1604.445456370719
659,34.006839284131125
661,0.0
690,162.896092559363
716,0.0
843,5102.417177169922
844,5102.417177169922
907,0.0
908,0.0
971,0.0
972,0.0
1195,2538.736673532232
1197,2538.736673532232
2,2,12,23, 0, 5, 0.00,60.00,Tuesday
7,-8.9
718,18.59961050721449
719,-3.618998358251699
720,15.367146157925326
619,4525.892497239893
633,1599.9676141744833
659,38.520855278331815
661,0.0
690,162.896092559363
716,0.0
843,4573.852618488625
844,4573.852618488625
907,0.0
908,0.0
971,0.0
972,0.0
1195,1937.6703437991187
1197,1937.6703437991187
2,2,12,23, 0, 6, 0.00,60.00,Tuesday
7,-9.0
718,19.361575063420233
719,-3.948058124174323
720,15.24334089073454
619,4517.151842844382
633,1600.8135577389037
659,37.077666904403976
661,0.0
690,162.896092559363
716,0.0
843,6219.591790525928
844,6219.591790525928
907,0.0
908,0.0
971,0.0
972,0.0
1195,3921.64089907216
1197,3921.64089907216
2,2,12,23, 0, 7, 0.00,60.00,Tuesday
7,-8.9
718,19.569148729143773
719,-3.3010755263085567
720,15.16913981339536
619,4521.481159064168
633,1629.4692573977752
659,33.984205415702085
661,0.0
690,162.896092559363
716,85.44000000000005
843,5916.452513747408
844,5916.452513747408
907,0.0
908,0.0
971,0.0
972,0.0
1195,4751.281152492275
1197,4751.281152492275
2,2,12,23, 0, 8, 0.00,60.00,Tuesday
7,-9.4
718,19.650275655990157
719,-3.444916323024262
720,15.061574736460498
619,4459.485413007302
633,1632.9770805581659
659,30.61647781151258
661,0.0
690,162.896092559363
716,85.44000000000005
843,5135.288609230749
844,5135.288609230749
907,0.0
908,0.0
971,0.0
972,0.0
1195,3954.020285690006
1197,3954.020285690006
2,2,12,23, 0, 9, 0.00,60.00,Tuesday
7,-8.9
718,19.68806432100029
719,-2.8114597078330315
720,14.964849732979454
619,4513.781665748581
633,1638.2061422356667
659,33.961601655892494
661,0.0
690,162.896092559363
716,85.44000000000005
843,4635.107384641928
844,4635.107384641928
907,0.0
908,0.0
971,0.0
972,0.0
1195,3301.0333428846907
1197,3301.0333428846907
2,2,12,23, 0,10, 0.00,60.00,Tuesday
7,-8.3
718,19.71307671843221
719,-2.4711056408778562
720,14.865874754770063
619,4610.70187588362
633,1653.2800471006733
659,29.942290451710146
661,0.0
690,162.896092559363
716,20.28042993210701
843,4222.165439755781
844,4222.165439755781
907,0.0
908,0.0
971,0.0
972,0.0
1195,1747.3797887023975
1197,1747.3797887023975
2,2,12,23, 0,11, 0.00,60.00,Tuesday
7,-7.8
718,19.719209127827618
719,-1.6787220457954506
720,14.776606396422828
619,4692.257103509708
633,1665.4685470536062
659,26.71888551158494
661,0.0
690,162.896092559363
716,0.0
843,3680.778889037989
844,3680.778889037989
907,0.0
908,0.0
971,0.0
972,0.0
1195,741.2323160615629
1197,741.2323160615629
2,2,12,23, 0,12, 0.00,60.00,Tuesday
7,-7.2
718,19.723602873226113
719,0.872404179459311
720,14.705345168489036
619,4765.179035373428
633,1673.8532293675894
659,27.004905837177805
661,0.0
690,162.52570908887688
716,0.0
843,3151.4014136873648
844,3151.4014136873648
907,0.0
908,0.0
971,0.0
972,0.0
1195,0.0
1197,0.0
2,2,12,23, 0,13, 0.00,60.00,Tuesday
7,-7.2
718,19.768525485062778
719,1.932247009174926
720,14.634101285801318
619,4033.9228944505276
633,1445.5130650069782
659,23.318273340330354
661,27.303427896216135
690,139.9112853277986
716,0.0
843,2762.6522736418374
844,2762.6522736418374
907,0.0
908,0.0
971,0.0
972,0.0
1195,0.0
1197,0.0
2,2,12,23, 0,14, 0.00,60.00,Tuesday
7,-5.6
718,19.906850489735664
719,4.484306862655898
720,14.579739000374873
619,2416.662390621197
633,873.1313668096171
659,11.61015925824895
661,97.57457041711919
690,83.1087140142425
716,0.0
843,1693.9948868023766
844,1693.9948868023766
907,0.0
908,0.0
971,0.0
972,0.0
1195,0.0
1197,0.0
2,2,12,23, 0,15, 0.00,60.00,Tuesday
7,-5.0
718,19.789352875116858
719,4.3443205197503625
720,14.544220527980709
619,1513.946645715913
633,553.7532112950224
659,5.804197428057627
661,135.7861923637124
690,52.15375599102243
716,0.0
843,1099.9413557799471
844,1099.9413557799471
907,0.0
908,0.0
971,0.0
972,0.0
1195,0.0
1197,0.0
2,2,12,23, 0,16, 0.00,60.00,Tuesday
7,-5.6
718,19.759111362285648
719,2.5038109343511032
720,14.532782199349269
619,1202.9121875168871
633,447.1602417773362
659,4.295549699718212
661,147.8300059926414
690,42.37540899113703
716,0.0
843,874.8401504871417
844,874.8401504871417
907,0.0
908,0.0
971,0.0
972,0.0
1195,0.0
1197,0.0
2,2,12,23, 0,17, 0.00,60.00,Tuesday
7,-7.8
718,19.581036210631257
719,0.4865646025502191
720,14.540939919904929
619,1493.086182266893
633,576.819138388855
659,9.255591991179118
661,130.8044470782634
690,56.04418206278601
716,0.0
843,1049.6183310494307
844,1049.6183310494307
907,0.0
908,0.0
971,0.0
972,0.0
1195,0.0
1197,0.0
2,2,12,23, 0,18, 0.00,60.00,Tuesday
7,-8.9
718,19.462634796354486
719,-0.950626728887581
720,14.556994050634177
619,3585.495616524026
633,1336.9799545596177
659,22.685045624535405
661,37.302371012235305
690,131.66047390083318
716,66.77004296336763
843,1734.9983805833963
844,1734.9983805833963
907,0.0
908,0.0
971,0.0
972,0.0
1195,0.0
1197,0.0
2,2,12,23, 0,19, 0.00,60.00,Tuesday
7,-8.9
718,19.68825084596057
719,-3.306833889574427
720,14.531337278501903
619,3054.664376535098
633,1151.12141387517
659,19.573414757808763
661,59.61905367096529
690,113.60155932308463
716,0.0
843,2026.8525229058068
844,2026.8525229058068
907,0.0
908,0.0
971,0.0
972,0.0
1195,0.0
1197,0.0
2,2,12,23, 0,20, 0.00,60.00,Tuesday
7,-11.1
718,19.546221330987674
719,-4.352255437849511
720,14.500652334840698
619,4213.144757669818
633,1604.672436047279
659,35.041281093775865
661,0.0
690,162.896092559363
716,85.44000000000005
843,2377.67878242786
844,2377.67878242786
907,0.0
908,0.0
971,0.0
972,0.0
1195,998.0849678447717
1197,998.0849678447717
2,2,12,23, 0,21, 0.00,60.00,Tuesday
7,-9.4
718,19.63689366009812
719,-4.423273754295196
720,14.456258580608678
619,4440.153570886526
633,1623.621821837981
659,36.42280448379951
661,0.0
690,162.896092559363
716,85.44000000000005
843,2496.714386228865
844,2496.714386228865
907,0.0
908,0.0
971,0.0
972,0.0
1195,944.5552030539156
1197,944.5552030539156
2,2,12,23, 0,22, 0.00,60.00,Tuesday
7,-8.9
718,19.67683177671485
719,-3.9441282188496354
720,14.398816129591177
619,4496.523507470267
633,1630.1779414841158
659,39.01839724466255
661,0.0
690,162.896092559363
716,62.78553814148243
843,2727.746306071218
844,2727.746306071218
907,0.0
908,0.0
971,0.0
972,0.0
1195,708.3668127613564
1197,708.3668127613564
2,2,12,23, 0,23, 0.00,60.00,Tuesday
7,-7.8
718,18.987935386824013
719,-3.5776053408186015
720,14.32118432910528
619,3546.4237203640223
633,1300.430050842814
659,30.331867356170374
661,42.19756822834226
690,127.49067406897652
716,0.0
843,2233.1227200089725
844,2233.1227200089725
907,0.0
908,0.0
971,0.0
972,0.0
1195,0.0
1197,0.0
2,2,12,23, 0,24, 0.00,60.00,Tuesday
7,-7.8
718,18.752779555435332
719,-3.317206155505176
720,14.220646202494668
619,3812.975007191266
633,1365.5904392997904
659,32.27540590134911
661,32.071298379601274
690,135.67641975242782
716,0.0
843,2473.93949505771
844,2473.93949505771
907,0.0
908,0.0
971,0.0
972,0.0
1195,0.0
1197,0.0
2,3,12,24, 0, 1, 0.00,60.00,Wednesday
7,-7.8
718,18.626026730274738
719,-2.917067930412211
720,14.136984863532097
619,4492.891118162734
633,1573.5302730374337
659,37.36589360024633
661,5.585527991359962
690,157.07716766625242
716,0.0
843,2935.7711959238204
844,2935.7711959238204
907,0.0
908,0.0
971,0.0
972,0.0
1195,0.0
1197,0.0
2,3,12,24, 0, 2, 0.00,60.00,Wednesday
7,-8.3
718,18.605112795880867
719,-3.3142294735704705
720,14.042353368988772
619,4520.9237116387385
633,1576.850589516248
659,62.11802366090873
661,0.0
690,162.896092559363
716,0.0
843,3433.980180229304
844,3433.980180229304
907,0.0
908,0.0
971,0.0
972,0.0
1195,568.0106960556363
1197,568.0106960556363
2,3,12,24, 0, 3, 0.00,60.00,Wednesday
7,-7.8
718,18.606713730795676
719,-3.5536789420923185
720,13.961567241533302
619,4605.4348020182715
633,1588.1807784111186
659,58.015286675372984
661,0.0
690,162.896092559363
716,0.0
843,3827.9140169193706
844,3827.9140169193706
907,0.0
908,0.0
971,0.0
972,0.0
1195,972.6562331692039
1197,972.6562331692039
2,3,12,24, 0, 4, 0.00,60.00,Wednesday
7,-7.8
718,18.6089893836353
719,-3.3436732323291256
720,13.877458470682878
619,4577.999725675171
633,1578.6480684470964
659,65.25478415109066
661,0.0
690,162.896092559363
716,0.0
843,3797.562623114678
844,3797.562623114678
907,0.0
908,0.0
971,0.0
972,0.0
1195,980.8363715967421
1197,980.8363715967421
2,3,12,24, 0, 5, 0.00,60.00,Wednesday
7,-7.8
718,18.608715905500105
719,-3.359115999946916
720,13.794575228853132
619,4602.614019669025
633,1587.05463128456
659,58.78559681183545
661,0.0
690,162.896092559363
716,0.0
843,3798.120336527001
844,3798.120336527001
907,0.0
908,0.0
971,0.0
972,0.0
1195,944.3230488595327
1197,944.3230488595327
2,3,12,24, 0, 6, 0.00,60.00,Wednesday
7,-7.8
718,19.25230734334785
719,-2.9174406090877607
720,13.713190138667736
619,4602.727908398234
633,1586.9252163541528
659,58.78559681183545
661,0.0
690,162.896092559363
716,74.22752077689992
843,4827.117850457575
844,4827.117850457575
907,0.0
908,0.0
971,0.0
972,0.0
1195,3060.0106923629605
1197,3060.0106923629605
2,3,12,24, 0, 7, 0.00,60.00,Wednesday
7,-9.4
718,19.524867483834864
719,-3.348392331092674
720,13.650266274488509
619,4387.620777736139
633,1591.0241638984453
659,53.550755401206345
661,0.0
690,162.896092559363
716,85.44000000000005
843,4821.143447416578
844,4821.143447416578
907,0.0
908,0.0
971,0.0
972,0.0
1195,3584.426986874728
1197,3584.426986874728
2,3,12,24, 0, 8, 0.00,60.00,Wednesday
7,-12.8
718,19.631223882259125
719,-5.31645902633742
720,13.551574172151643
619,4003.489026580654
633,1575.1336920914252
659,33.22913146273538
661,0.0
690,162.896092559363
716,72.11074514992573
843,5144.282520328401
844,5144.282520328401
907,0.0
908,0.0
971,0.0
972,0.0
1195,4248.631440197903
1197,4248.631440197903
2,3,12,24, 0, 9, 0.00,60.00,Wednesday
7,-11.7
718,19.693996095237885
719,-5.8337914347639295
720,13.49147472528704
619,4160.725116998682
633,1601.4970613637488
659,28.028676099241913
661,0.0
690,162.896092559363
716,0.0
843,4514.0543342776655
844,4514.0543342776655
907,0.0
908,0.0
971,0.0
972,0.0
1195,2441.9126523987375
1197,2441.9126523987375
2,3,12,24, 0,10, 0.00,60.00,Wednesday
7,-9.4
718,19.716584459371774
719,-4.10274715666708
720,13.43609234164679
619,4479.416574890343
633,1641.8635281536592
659,24.77299669916975
661,0.0
690,162.896092559363
716,0.0
843,3370.2877182464927
844,3370.2877182464927
907,0.0
908,0.0
971,0.0
972,0.0
1195,808.5712821027082
1197,808.5712821027082
2,3,12,24, 0,11, 0.00,60.00,Wednesday
7,-7.8
718,19.719408538603652
719,-3.038985083891154
720,13.384869498324225
619,4739.131936431223
633,1679.0800300633716
659,14.826309937790931
661,0.0
690,162.896092559363
716,0.0
843,3395.9847355875645
844,3395.9847355875645
907,0.0
908,0.0
971,0.0
972,0.0
1195,487.5397520374863
1197,487.5397520374863
2,3,12,24, 0,12, 0.00,60.00,Wednesday
7,-7.2
718,19.78165295987997
719,-0.7023068534174937
720,13.326041136893839
619,3569.391587226639
633,1290.197241444468
659,16.664065411101756
661,46.310431419240025
690,124.64545630288124
716,0.0
843,2281.6610917657435
844,2281.6610917657435
907,0.0
908,0.0
971,0.0
972,0.0
1195,0.0
1197,0.0
2,3,12,24, 0,13, 0.00,60.00,Wednesday
7,-7.2
718,19.770627843451503
719,0.474567577046541
720,13.29744312459218
619,2804.4970087230595
633,1034.0833563688327
659,13.339414693395979
661,76.97306516919554
690,99.77725595364703
716,0.0
843,1859.1225154541698
844,1859.1225154541698
907,0.0
908,0.0
971,0.0
972,0.0
1195,0.0
1197,0.0
2,3,12,24, 0,14, 0.00,60.00,Wednesday
7,-6.1
718,20.08235792838218
719,1.6303314579645092
720,13.273581652250435
619,1628.5914668268592
633,604.2221952867172
659,6.826401960969334
661,128.9291928815918
690,57.691167519563166
716,0.0
843,1105.119635471161
844,1105.119635471161
907,0.0
908,0.0
971,0.0
972,0.0
1195,0.0
1197,0.0
2,3,12,24, 0,15, 0.00,60.00,Wednesday
7,-6.1
718,19.776245380657617
719,0.5659131515350242
720,13.305956700364513
619,1783.64945553878
633,664.3737476230978
659,7.463555360589211
661,122.31838159068833
690,63.057001713703876
716,72.59603677905388
843,441.33877913317156
844,441.33877913317156
907,0.0
908,0.0
971,0.0
972,0.0
1195,0.0
1197,0.0
2,3,12,24, 0,16, 0.00,60.00,Wednesday
7,-5.6
718,19.791199389465667
719,0.4842624414649438
720,13.33193897640943
619,1730.0978662376765
633,634.3573677292326
659,8.459332326412069
661,125.50083481785177
690,60.44881602943025
716,83.61109273628857
843,271.0875233892002
844,271.0875233892002
907,0.0
908,0.0
971,0.0
972,0.0
1195,0.0
1197,0.0
2,3,12,24, 0,17, 0.00,60.00,Wednesday
7,-6.1
718,19.806523995112354
719,-0.9708628469575677
720,13.336137296534666
619,580.288588236271
633,221.23763851456837
659,3.2838029148446926
661,173.86934793581037
690,21.18892396626002
716,0.0
843,389.5729984619884
844,389.5729984619884
907,0.0
908,0.0
971,0.0
972,0.0
1195,0.0
1197,0.0
2,3,12,24, 0,18, 0.00,60.00,Wednesday
7,-7.2
718,19.4225456320609
719,-2.4860854254575324
720,13.404959072655089
619,1680.494636310395
633,637.4745388620003
659,8.227324305005883
661,124.20850186220243
690,61.46802905817828
716,0.0
843,1125.9642515181295
844,1125.9642515181295
907,0.0
908,0.0
971,0.0
972,0.0
1195,0.0
1197,0.0
2,3,12,24, 0,19, 0.00,60.00,Wednesday
7,-7.2
718,19.595688402030035
719,-3.5357236160334717
720,13.425770351342127
619,2547.807638053813
633,937.0921250442651
659,12.184631165632082
661,87.75312409432318
690,91.03476180001087
716,0.0
843,1678.3786656145548
844,1678.3786656145548
907,0.0
908,0.0
971,0.0
972,0.0
1195,0.0
1197,0.0
2,3,12,24, 0,20, 0.00,60.00,Wednesday
7,-8.9
718,19.26004871706339
719,-4.59751266391602
720,13.459021632812973
619,4562.160652898587
633,1649.9750808078497
659,21.772490097201395
661,0.0
690,162.896092559363
716,85.44000000000005
843,2151.328405859542
844,2151.328405859542
907,0.0
908,0.0
971,0.0
972,0.0
1195,375.17461010908437
1197,375.17461010908437
2,3,12,24, 0,21, 0.00,60.00,Wednesday
7,-9.4
718,19.480994863265845
719,-4.480174890660407
720,13.404400976100588
619,4490.265392773461
633,1628.019793474833
659,25.108539110384932
661,0.0
690,162.896092559363
716,85.44000000000005
843,2417.2784867974915
844,2417.2784867974915
907,0.0
908,0.0
971,0.0
972,0.0
1195,772.062227689717
1197,772.062227689717
2,3,12,24, 0,22, 0.00,60.00,Wednesday
7,-8.9
718,19.611182634166894
719,-4.461369456424562
720,13.370856340457602
619,4564.495228516105
633,1645.9470788059414
659,22.03425733119727
661,0.0
690,162.896092559363
716,36.14997499309803
843,4142.953897600988
844,4142.953897600988
907,0.0
908,0.0
971,0.0
972,0.0
1195,2040.2093646257636
1197,2040.2093646257636
2,3,12,24, 0,23, 0.00,60.00,Wednesday
7,-10.6
718,18.95458999220269
719,-5.576370605716168
720,13.30701335714248
619,4363.483712983932
633,1638.0944548386365
659,11.901571535154089
661,0.0
690,162.896092559363
716,0.0
843,2815.4945951511763
844,2815.4945951511763
907,0.0
908,0.0
971,0.0
972,0.0
1195,188.7237359433493
1197,188.7237359433493
2,3,12,24, 0,24, 0.00,60.00,Wednesday
7,-13.9
718,18.727774147095747
719,-6.366679938234452
720,13.176450568218598
619,3919.303118100409
633,1557.6297608752282
659,20.53159076975119
661,0.0
690,162.896092559363
716,0.0
843,3451.1595397787005
844,3451.1595397787005
907,0.0
908,0.0
971,0.0
972,0.0
1195,1393.706950185348
1197,1393.706950185348
2,4,12,25, 0, 1, 0.00,60.00,Thursday
7,-13.9
718,18.644793670776853
719,-7.130149811624737
720,13.092748299621642
619,3925.5760370106887
633,1551.136142924916
659,20.53159076975119
661,0.0
690,162.896092559363
716,0.0
843,3984.480624093485
844,3984.480624093485
907,0.0
908,0.0
971,0.0
972,0.0
1195,2042.344952345636
1197,2042.344952345636
2,4,12,25, 0, 2, 0.00,60.00,Thursday
7,-13.3
718,18.617066202043876
719,-7.162123975037831
720,12.999110242921542
619,3999.597331441578
633,1555.8220641842404
659,22.105747585538293
661,0.0
690,162.896092559363
716,0.0
843,4440.210208070186
844,4440.210208070186
907,0.0
908,0.0
971,0.0
972,0.0
1195,2557.1848094567167
1197,2557.1848094567167
2,4,12,25, 0, 3, 0.00,60.00,Thursday
7,-11.7
718,18.608916916541407
719,-6.924376941654853
720,12.916156310783444
619,4205.251851472
633,1577.1374421331705
659,23.216723711489735
661,0.0
690,162.896092559363
716,0.0
843,4392.4436976093
844,4392.4436976093
907,0.0
908,0.0
971,0.0
972,0.0
1195,2286.4987018851634
1197,2286.4987018851634
2,4,12,25, 0, 4, 0.00,60.00,Thursday
7,-11.1
718,18.608264568609783
719,-6.429048684437567
720,12.822216233079793
619,4296.624264559898
633,1589.6468615855865
659,19.916934578244867
661,0.0
690,162.896092559363
716,0.0
843,4508.75257647764
844,4508.75257647764
907,0.0
908,0.0
971,0.0
972,0.0
1195,2329.2115643114203
1197,2329.2115643114203
2,4,12,25, 0, 5, 0.00,60.00,Thursday
7,-12.2
718,18.60423970756368
719,-7.4401245248620675
720,12.716124462762075
619,4148.492017030431
633,1572.52214325458
659,20.653400928620172
661,0.0
690,162.896092559363
716,0.0
843,4785.895816048012
844,4785.895816048012
907,0.0
908,0.0
971,0.0
972,0.0
1195,2773.29788456834
1197,2773.29788456834
2,4,12,25, 0, 6, 0.00,60.00,Thursday
7,-12.8
718,19.36769474943979
719,-7.970319225022745
720,12.616194555318003
619,4071.955130739121
633,1563.9406977839724
659,20.198062072511412
661,0.0
690,162.896092559363
716,0.0
843,6274.9473359243275
844,6274.9473359243275
907,0.0
908,0.0
971,0.0
972,0.0
1195,4691.8067214962375
1197,4691.8067214962375
2,4,12,25, 0, 7, 0.00,60.00,Thursday
7,-12.8
718,19.571737690104502
719,-7.982620686300505
720,12.55747232894864
619,4051.4355309620496
633,1585.6099104589218
659,20.198062072511412
661,0.0
690,162.896092559363
716,85.44000000000005
843,6056.538808428239
844,6056.538808428239
907,0.0
908,0.0
971,0.0
972,0.0
1195,5722.169801599286
1197,5722.169801599286
2,4,12,25, 0, 8, 0.00,60.00,Thursday
7,-14.4
718,19.635847148898772
719,-7.997076345238571
720,12.438634403793996
619,3903.4506753630753
633,1591.1577561267643
659,0.08790151262074176
661,0.0
690,162.896092559363
716,85.44000000000005
843,7746.272688672187
844,7746.272688672187
907,0.0
908,0.0
971,0.0
972,0.0
1195,8050.737645945537
1197,8050.737645945537
2,4,12,25, 0, 9, 0.00,60.00,Thursday
7,-15.0
718,19.679161638236618
719,-7.929700368295893
720,12.355130101341716
619,3793.85767164208
633,1569.869222893661
659,10.605224122425321
661,0.0
690,162.896092559363
716,84.29780293028696
843,6858.4655672646495
844,6858.4655672646495
907,0.0
908,0.0
971,0.0
972,0.0
1195,6895.5353569486
1197,6895.5353569486
2,4,12,25, 0,10, 0.00,60.00,Thursday
7,-15.6
718,19.709643736146212
719,-8.602530704563225
720,12.251085978644221
619,3738.6272651700833
633,1569.5623294285956
659,3.6352622104185937
661,0.0
690,162.896092559363
716,0.0
843,6831.682584238231
844,6831.682584238231
907,0.0
908,0.0
971,0.0
972,0.0
1195,5869.449504761695
1197,5869.449504761695
2,4,12,25, 0,11, 0.00,60.00,Thursday
7,-15.6
718,19.7038658171526
719,-8.550387016488108
720,12.155900211155686
619,3745.6889808709107
633,1573.34850038847
659,1.0434512193895755
661,0.0
690,162.896092559363
716,0.0
843,7136.50367576721
844,7136.50367576721
907,0.0
908,0.0
971,0.0
972,0.0
1195,6273.234543381119
1197,6273.234543381119
2,4,12,25, 0,12, 0.00,60.00,Thursday
7,-15.6