Program Version,EnergyPlus, Version 22.2.0-c249759bad, YMD=2023.08.31 13:04
1,5,Environment Title[],Latitude[deg],Longitude[deg],Time Zone[],Elevation[m]
2,8,Day of Simulation[],Month[],Day of Month[],DST Indicator[1=yes 0=no],Hour[],StartMinute[],EndMinute[],DayType
3,5,Cumulative Day of Simulation[],Month[],Day of Month[],DST Indicator[1=yes 0=no],DayType  ! When Daily Report Variables Requested
4,2,Cumulative Days of Simulation[],Month[]  ! When Monthly Report Variables Requested
5,1,Cumulative Days of Simulation[] ! When Run Period Report Variables Requested
6,1,Calendar Year of Simulation[] ! When Annual Report Variables Requested
618,11,DX_HEATING_COIL,Heating Coil Heating Energy [J] !RunPeriod [Value,Min,Month,Day,Hour,Minute,Max,Month,Day,Hour,Minute]
631,11,DX_HEATING_COIL,Heating Coil Electricity Energy [J] !RunPeriod [Value,Min,Month,Day,Hour,Minute,Max,Month,Day,Hour,Minute]
656,11,DX_HEATING_COIL,Heating Coil Defrost Electricity Energy [J] !RunPeriod [Value,Min,Month,Day,Hour,Minute,Max,Month,Day,Hour,Minute]
657,11,DX_HEATING_COIL,Heating Coil Crankcase Heater Electricity Energy [J] !RunPeriod [Value,Min,Month,Day,Hour,Minute,Max,Month,Day,Hour,Minute]
684,11,HEAT PUMP WATER HEATER EVAPORATOR,Cooling Coil Total Water Heating Energy [J] !RunPeriod [Value,Min,Month,Day,Hour,Minute,Max,Month,Day,Hour,Minute]
685,11,HEAT PUMP WATER HEATER EVAPORATOR,Cooling Coil Water Heating Electricity Energy [J] !RunPeriod [Value,Min,Month,Day,Hour,Minute,Max,Month,Day,Hour,Minute]
712,11,LIVING,AFN Zone Infiltration Air Change Rate [ach] !RunPeriod [Value,Min,Month,Day,Hour,Minute,Max,Month,Day,Hour,Minute]
713,11,ATTIC,AFN Zone Infiltration Air Change Rate [ach] !RunPeriod [Value,Min,Month,Day,Hour,Minute,Max,Month,Day,Hour,Minute]
714,11,CRAWLSPACE,AFN Zone Infiltration Air Change Rate [ach] !RunPeriod [Value,Min,Month,Day,Hour,Minute,Max,Month,Day,Hour,Minute]
1157,11,Facility,Facility Heating Setpoint Not Met Time [hr] !RunPeriod [Value,Min,Month,Day,Hour,Minute,Max,Month,Day,Hour,Minute]
1158,11,Facility,Facility Cooling Setpoint Not Met Time [hr] !RunPeriod [Value,Min,Month,Day,Hour,Minute,Max,Month,Day,Hour,Minute]
1184,11,HEATING_RESISTANCE_BACKUP,Heating Coil Heating Energy [J] !RunPeriod [Value,Min,Month,Day,Hour,Minute,Max,Month,Day,Hour,Minute]
1185,11,HEATING_RESISTANCE_BACKUP,Heating Coil Electricity Energy [J] !RunPeriod [Value,Min,Month,Day,Hour,Minute,Max,Month,Day,Hour,Minute]
1334,11,WATER HEATER TANK,Water Heater Heating Energy [J] !RunPeriod [Value,Min,Month,Day,Hour,Minute,Max,Month,Day,Hour,Minute]
13,11,Electricity:Facility [J] !RunPeriod [Value,Min,Month,Day,Hour,Minute,Max,Month,Day,Hour,Minute]
637,11,Heating:Electricity [J] !RunPeriod [Value,Min,Month,Day,Hour,Minute,Max,Month,Day,Hour,Minute]
599,11,Cooling:Electricity [J] !RunPeriod [Value,Min,Month,Day,Hour,Minute,Max,Month,Day,Hour,Minute]
692,11,Fans:Electricity [J] !RunPeriod [Value,Min,Month,Day,Hour,Minute,Max,Month,Day,Hour,Minute]
1372,11,Pumps:Electricity [J] !RunPeriod [Value,Min,Month,Day,Hour,Minute,Max,Month,Day,Hour,Minute]
677,11,WaterSystems:Electricity [J] !RunPeriod [Value,Min,Month,Day,Hour,Minute,Max,Month,Day,Hour,Minute]
61,11,InteriorLights:Electricity [J] !RunPeriod [Value,Min,Month,Day,Hour,Minute,Max,Month,Day,Hour,Minute]
1165,11,ExteriorLights:Electricity [J] !RunPeriod [Value,Min,Month,Day,Hour,Minute,Max,Month,Day,Hour,Minute]
134,11,InteriorEquipment:Electricity [J] !RunPeriod [Value,Min,Month,Day,Hour,Minute,Max,Month,Day,Hour,Minute]
170,11,gas_dryer:InteriorEquipment:Electricity [J] !RunPeriod [Value,Min,Month,Day,Hour,Minute,Max,Month,Day,Hour,Minute]
207,11,clotheswasher:InteriorEquipment:Electricity [J] !RunPeriod [Value,Min,Month,Day,Hour,Minute,Max,Month,Day,Hour,Minute]
244,11,dishwasher:InteriorEquipment:Electricity [J] !RunPeriod [Value,Min,Month,Day,Hour,Minute,Max,Month,Day,Hour,Minute]
281,11,refrigerator:InteriorEquipment:Electricity [J] !RunPeriod [Value,Min,Month,Day,Hour,Minute,Max,Month,Day,Hour,Minute]
318,11,electric_mels:InteriorEquipment:Electricity [J] !RunPeriod [Value,Min,Month,Day,Hour,Minute,Max,Month,Day,Hour,Minute]
355,11,NaturalGas:Facility [J] !RunPeriod [Value,Min,Month,Day,Hour,Minute,Max,Month,Day,Hour,Minute]
403,11,InteriorEquipment:NaturalGas [J] !RunPeriod [Value,Min,Month,Day,Hour,Minute,Max,Month,Day,Hour,Minute]
476,11,gas_dryer:InteriorEquipment:NaturalGas [J] !RunPeriod [Value,Min,Month,Day,Hour,Minute,Max,Month,Day,Hour,Minute]
513,11,gas_mels:InteriorEquipment:NaturalGas [J] !RunPeriod [Value,Min,Month,Day,Hour,Minute,Max,Month,Day,Hour,Minute]
End of Data Dictionary
1,EXTREME_WINTER,  41.78, -87.75,  -6.00, 190.00
5,7
1157,10.0,0.0, 1,20, 1,15,0.25, 1,20, 6,15
1158,0.0,0.0, 1,20, 1,15,0.0, 1,20, 1,15
618,2399245264.257219,0.0, 1,20,23, 5,4766006.479217507, 1,26,18,30
631,856484337.7700833,0.0, 1,20,23, 5,1436280.1161170092, 1,26,18,30
656,11789923.695980737,0.0, 1,20,23, 5,95963.10393522163, 1,22, 5,60
657,4652270.664678709,0.0, 1,20, 1, 3,90907.5989222432, 1,21,14,15
684,286615750.04375696,0.0, 1,20, 1, 3,1455990.896298399, 1,22, 7,60
685,65766776.46344309,0.0, 1,20, 1, 3,333209.8550160629, 1,22,11,15
712,0.35895221329480503,0.24341404834465474, 1,26,23,30,0.5802370173455508, 1,26,15,52
713,5.151362649416999,0.039414923991116325, 1,21, 5,52,13.378418677138612, 1,26,15,52
714,6.006532937758205,0.6949215358595058, 1,21, 5,52,15.796148699341005, 1,26,15,52
1184,1723692737.4337707,0.0, 1,20,15,52,6651299.48000145, 1,20, 9,15
1185,1723692737.4337707,0.0, 1,20,15,52,6651299.48000145, 1,20, 9,15
1334,4038021.272111397,0.0, 1,20, 1, 3,3649227.7491142615, 1,26,10,45
13,3150842638.931606,1104102.301016835, 1,21,15,60,9109864.088380756, 1,20, 7,60
61,301924526.02383536,88139.10953165221, 1,20, 1,15,1282023.4113694867, 1,20,20,15
134,70666020.44019976,63564.01800854099, 1,20, 4,15,156554.22484006523, 1,25,20,15
170,5241013.419656067,348.4159749238097, 1,20, 4,15,17476.39704006126, 1,25,12,15
207,6509451.13922267,815.2532113832032, 1,20, 3,15,22990.642799023623, 1,25,10,15
244,12749673.399825225,1521.856143006317, 1,20, 4,15,53038.631142310165, 1,25,20,15
281,46165882.481495745,59938.60262432081, 1,20, 5,15,81951.81706819107, 1,20,19,15
318,0.0,0.0, 1,20, 1,15,0.0, 1,20, 1,15
355,197687796.27748066,18561.32405820678, 1,20, 4,15,724774.895203776, 1,25,18,15
403,197687796.27748066,18561.32405820678, 1,20, 4,15,724774.895203776, 1,25,18,15
476,106772067.24485716,7098.072629279515, 1,20, 4,15,356036.3026282215, 1,25,12,15
513,0.0,0.0, 1,20, 1,15,0.0, 1,20, 1,15
599,0.0,0.0, 1,20, 1,15,0.0, 1,20, 1,15
637,2596619269.5645156,566672.8215151308, 1,21,23,15,7927058.590878509, 1,25,10,30
677,74945597.73555452,7650.0, 1,20, 1,15,3656877.7491142615, 1,26,10,45
692,106687225.16750251,42669.30314000487, 1,21,23,15,214775.74924389936, 1,20, 8,30
1165,0.0,0.0, 1,20, 1,15,0.0, 1,20, 1,15
1372,0.0,0.0, 1,20, 1,15,0.0, 1,20, 1,15
1,EXTREME_SUMMER,  41.78, -87.75,  -6.00, 190.00
5,7
1157,0.0,0.0, 7,27, 1,15,0.0, 7,27, 1,15
1158,9.75,0.0, 7,27, 1,15,0.25, 7,28,15,45
618,0.0,0.0, 7,27, 1,15,0.0, 7,27, 1,15
631,0.0,0.0, 7,27, 1,15,0.0, 7,27, 1,15
656,0.0,0.0, 7,27, 1,15,0.0, 7,27, 1,15
657,0.0,0.0, 7,27, 1,15,0.0, 7,27, 1,15
684,215556460.91636008,0.0, 7,27, 1,15,1812435.6734604905, 7,29, 7,60
685,42876973.59436805,0.0, 7,27, 1,15,364598.7384744042, 8, 2, 2,45
712,0.1743497500965032,0.0, 7,27, 1,45,0.962680733404341, 8, 2,23,48
713,6.120282388228162,0.13672441659991952, 7,27, 1,60,18.926991538168096, 8, 2,23,48
714,6.362013727524871,0.06329346096248802, 7,27, 4,60,23.87431499571616, 8, 2,23,33
1184,0.0,0.0, 7,27, 1,15,0.0, 7,27, 1,15
1185,0.0,0.0, 7,27, 1,15,0.0, 7,27, 1,15
1334,0.0,0.0, 7,27, 1,15,0.0, 7,27, 1,15
13,1022822730.7191162,218316.5260195711, 8, 1, 4,60,3559981.1866841614, 8, 2,20,15
61,301924526.02383536,88139.10953165221, 7,27, 1,15,1282023.4113694867, 7,27,20,15
134,70666020.44019976,63564.01800854099, 7,27, 4,15,156554.22484006523, 8, 1,20,15
170,5241013.419656067,348.4159749238097, 7,27, 4,15,17476.39704006126, 8, 1,12,15
207,6509451.13922267,815.2532113832032, 7,27, 3,15,22990.642799023623, 8, 1,10,15
244,12749673.399825225,1521.856143006317, 7,27, 4,15,53038.631142310165, 8, 1,20,15
281,46165882.481495745,59938.60262432081, 7,27, 5,15,81951.81706819107, 7,27,19,15
318,0.0,0.0, 7,27, 1,15,0.0, 7,27, 1,15
355,197687796.27748066,18561.32405820678, 7,27, 4,15,724774.895203776, 8, 1,18,15
403,197687796.27748066,18561.32405820678, 7,27, 4,15,724774.895203776, 8, 1,18,15
476,106772067.24485716,7098.072629279515, 7,27, 4,15,356036.3026282215, 8, 1,12,15
513,0.0,0.0, 7,27, 1,15,0.0, 7,27, 1,15
599,541820675.4532855,0.0, 8, 2, 2,30,1652498.7305775622, 8, 2,13,60
637,0.0,0.0, 7,27, 1,15,0.0, 7,27, 1,15
677,48017773.594368055,7650.0, 7,27, 1,15,388268.85515595565, 8, 2,12,60
692,60393735.20742674,5783.330869591362, 8, 1, 4,60,214775.7492438993, 8, 2,18,60
1165,0.0,0.0, 7,27, 1,15,0.0, 7,27, 1,15
1372,0.0,0.0, 7,27, 1,15,0.0, 7,27, 1,15
1,ANNUAL,  41.78, -87.75,  -6.00, 190.00
5,365
1157,79.75,0.0, 1, 1, 1,15,0.25, 1, 2, 6,15
1158,93.5,0.0, 1, 1, 1,15,0.25, 5,23,16,45
618,39031884388.0363,0.0, 1, 1,23, 3,5448916.209394787, 1,28, 7,15
631,12191881400.87836,0.0, 1, 1,23, 3,1501812.039392551, 4, 1, 6,30
656,344723565.8572181,0.0, 1, 1,23, 3,169867.22443583576, 4, 3, 8,60
657,1238509377.5631049,0.0, 1, 1, 1, 1,180000.0, 2,13,15,15
684,13395167443.548481,0.0, 1, 1, 1, 1,1999324.1531541073, 9,10,10,30
685,2790326412.5117807,0.0, 1, 1, 1, 1,388912.4982457842, 9, 4,10,45
712,0.2657011108601171,0.0, 5,26, 1,45,1.8068434460490508, 2, 1,21,52
713,5.321311643531797,0.0, 1, 9,21,52,40.59581628111965, 2, 1,21,52
714,6.0139166595938995,0.0, 6, 4,23, 3,51.51225291662257, 2, 1,21,52
1184,11132194464.59507,0.0, 1, 1, 6,10,6651299.48000145, 1,19, 6,15
1185,11132194464.59507,0.0, 1, 1, 6,10,6651299.48000145, 1,19, 6,15
1334,83543574.92676187,0.0, 1, 1, 1, 1,3670767.737397919, 1,22,10,45
13,57253899693.61311,159353.1275401932, 3, 6, 4,15,9914699.24234885,12,17,10,45
61,15743207428.383959,88139.10953165221, 1, 1, 1,15,1282023.4113694867, 1, 1,20,15
134,3685071073.4325233,63564.01800854099, 1, 2, 4,15,156554.22484006523, 1, 1,20,15
170,273393721.45532674,348.4159749238097, 1, 2, 4,15,17476.39704006126, 1, 1,12,15
207,339560869.0695816,815.2532113832032, 1, 2, 3,15,22990.642799023623, 1, 1,10,15
244,664895467.8009144,1521.856143006317, 1, 2, 4,15,53038.631142310165, 1, 1,20,15
281,2407221015.106824,59938.60262432081, 1, 1, 5,15,81951.81706819107, 1, 1,19,15
318,0.0,0.0, 1, 1, 1,15,0.0, 1, 1, 1,15
355,10310294493.051695,18561.32405820678, 1, 2, 4,15,724774.895203776, 1, 1,18,15
403,10310294493.051695,18561.32405820678, 1, 2, 4,15,724774.895203776, 1, 1,18,15
476,5569688622.066177,7098.072629279515, 1, 2, 4,15,356036.3026282215, 1, 1,12,15
513,0.0,0.0, 1, 1, 1,15,0.0, 1, 1, 1,15
599,7160228178.027895,0.0, 1, 1, 1,15,1697137.7613804308, 6, 7,16,60
637,24907308808.893734,0.0, 1, 6,16,15,8020093.67919847, 2, 1,20,45
677,3141925987.438534,7650.0, 1, 1, 1,15,3726526.66458371, 2, 5,10,45
692,2616158217.4349823,0.0, 1, 5,23,15,214775.74924389936, 1,23,12,30
1165,0.0,0.0, 1, 1, 1,15,0.0, 1, 1, 1,15
1372,0.0,0.0, 1, 1, 1,15,0.0, 1, 1, 1,15
End of Data
 Number of Records Written=          96
