Program Version,EnergyPlus, Version 22.2.0-c249759bad, YMD=2023.09.01 15:42
1,5,Environment Title[],Latitude[deg],Longitude[deg],Time Zone[],Elevation[m]
2,8,Day of Simulation[],Month[],Day of Month[],DST Indicator[1=yes 0=no],Hour[],StartMinute[],EndMinute[],DayType
3,5,Cumulative Day of Simulation[],Month[],Day of Month[],DST Indicator[1=yes 0=no],DayType  ! When Daily Report Variables Requested
4,2,Cumulative Days of Simulation[],Month[]  ! When Monthly Report Variables Requested
5,1,Cumulative Days of Simulation[] ! When Run Period Report Variables Requested
6,1,Calendar Year of Simulation[] ! When Annual Report Variables Requested
581,11,LIVING,AFN Zone Infiltration Air Change Rate [ach] !RunPeriod [Value,Min,Month,Day,Hour,Minute,Max,Month,Day,Hour,Minute]
582,11,ATTIC,AFN Zone Infiltration Air Change Rate [ach] !RunPeriod [Value,Min,Month,Day,Hour,Minute,Max,Month,Day,Hour,Minute]
583,11,CRAWLSPACE,AFN Zone Infiltration Air Change Rate [ach] !RunPeriod [Value,Min,Month,Day,Hour,Minute,Max,Month,Day,Hour,Minute]
1038,11,Facility,Facility Heating Setpoint Not Met Time [hr] !RunPeriod [Value,Min,Month,Day,Hour,Minute,Max,Month,Day,Hour,Minute]
1039,11,Facility,Facility Cooling Setpoint Not Met Time [hr] !RunPeriod [Value,Min,Month,Day,Hour,Minute,Max,Month,Day,Hour,Minute]
1115,11,DX_HEATING_COIL,Heating Coil Heating Energy [J] !RunPeriod [Value,Min,Month,Day,Hour,Minute,Max,Month,Day,Hour,Minute]
1128,11,DX_HEATING_COIL,Heating Coil Electricity Energy [J] !RunPeriod [Value,Min,Month,Day,Hour,Minute,Max,Month,Day,Hour,Minute]
1153,11,DX_HEATING_COIL,Heating Coil Defrost Electricity Energy [J] !RunPeriod [Value,Min,Month,Day,Hour,Minute,Max,Month,Day,Hour,Minute]
1154,11,DX_HEATING_COIL,Heating Coil Crankcase Heater Electricity Energy [J] !RunPeriod [Value,Min,Month,Day,Hour,Minute,Max,Month,Day,Hour,Minute]
1155,11,HEATING_RESISTANCE_BACKUP,Heating Coil Heating Energy [J] !RunPeriod [Value,Min,Month,Day,Hour,Minute,Max,Month,Day,Hour,Minute]
1156,11,HEATING_RESISTANCE_BACKUP,Heating Coil Electricity Energy [J] !RunPeriod [Value,Min,Month,Day,Hour,Minute,Max,Month,Day,Hour,Minute]
1292,11,WATER HEATER,Water Heater Heat Loss Energy [J] !RunPeriod [Value,Min,Month,Day,Hour,Minute,Max,Month,Day,Hour,Minute]
1306,11,WATER HEATER,Water Heater Heating Energy [J] !RunPeriod [Value,Min,Month,Day,Hour,Minute,Max,Month,Day,Hour,Minute]
1307,11,WATER HEATER,Water Heater Unmet Demand Heat Transfer Energy [J] !RunPeriod [Value,Min,Month,Day,Hour,Minute,Max,Month,Day,Hour,Minute]
1308,11,WATER HEATER,Water Heater Electricity Energy [J] !RunPeriod [Value,Min,Month,Day,Hour,Minute,Max,Month,Day,Hour,Minute]
13,11,Electricity:Facility [J] !RunPeriod [Value,Min,Month,Day,Hour,Minute,Max,Month,Day,Hour,Minute]
1134,11,Heating:Electricity [J] !RunPeriod [Value,Min,Month,Day,Hour,Minute,Max,Month,Day,Hour,Minute]
1096,11,Cooling:Electricity [J] !RunPeriod [Value,Min,Month,Day,Hour,Minute,Max,Month,Day,Hour,Minute]
562,11,Fans:Electricity [J] !RunPeriod [Value,Min,Month,Day,Hour,Minute,Max,Month,Day,Hour,Minute]
1379,11,Pumps:Electricity [J] !RunPeriod [Value,Min,Month,Day,Hour,Minute,Max,Month,Day,Hour,Minute]
1326,11,WaterSystems:Electricity [J] !RunPeriod [Value,Min,Month,Day,Hour,Minute,Max,Month,Day,Hour,Minute]
61,11,InteriorLights:Electricity [J] !RunPeriod [Value,Min,Month,Day,Hour,Minute,Max,Month,Day,Hour,Minute]
1046,11,ExteriorLights:Electricity [J] !RunPeriod [Value,Min,Month,Day,Hour,Minute,Max,Month,Day,Hour,Minute]
134,11,InteriorEquipment:Electricity [J] !RunPeriod [Value,Min,Month,Day,Hour,Minute,Max,Month,Day,Hour,Minute]
170,11,gas_dryer:InteriorEquipment:Electricity [J] !RunPeriod [Value,Min,Month,Day,Hour,Minute,Max,Month,Day,Hour,Minute]
207,11,clotheswasher:InteriorEquipment:Electricity [J] !RunPeriod [Value,Min,Month,Day,Hour,Minute,Max,Month,Day,Hour,Minute]
244,11,dishwasher:InteriorEquipment:Electricity [J] !RunPeriod [Value,Min,Month,Day,Hour,Minute,Max,Month,Day,Hour,Minute]
281,11,refrigerator:InteriorEquipment:Electricity [J] !RunPeriod [Value,Min,Month,Day,Hour,Minute,Max,Month,Day,Hour,Minute]
318,11,electric_mels:InteriorEquipment:Electricity [J] !RunPeriod [Value,Min,Month,Day,Hour,Minute,Max,Month,Day,Hour,Minute]
355,11,NaturalGas:Facility [J] !RunPeriod [Value,Min,Month,Day,Hour,Minute,Max,Month,Day,Hour,Minute]
403,11,InteriorEquipment:NaturalGas [J] !RunPeriod [Value,Min,Month,Day,Hour,Minute,Max,Month,Day,Hour,Minute]
476,11,gas_dryer:InteriorEquipment:NaturalGas [J] !RunPeriod [Value,Min,Month,Day,Hour,Minute,Max,Month,Day,Hour,Minute]
513,11,gas_mels:InteriorEquipment:NaturalGas [J] !RunPeriod [Value,Min,Month,Day,Hour,Minute,Max,Month,Day,Hour,Minute]
End of Data Dictionary
1,EXTREME_WINTER,  38.23, -85.66,  -5.00, 166.00
5,7
1038,2.25,0.0, 1, 6, 1,15,0.25, 1, 8, 6,15
1039,0.0,0.0, 1, 6, 1,15,0.0, 1, 6, 1,15
581,0.3870258455240685,0.17876963094190657, 1,11,23,22,0.7367036567615061, 1, 7, 9,60
582,4.183551340601369,0.0, 1, 6, 1,60,12.719218236315147, 1, 7, 9,60
583,0.055776741188754496,0.00038112990653175636, 1,10,23, 9,0.08362887623326852, 1, 7, 9,60
1115,1828522597.3143685,0.0, 1, 6,23, 3,4331590.047011217, 1,11, 8,30
1128,631104074.9758707,0.0, 1, 6,23, 3,1351195.7819729948, 1,11, 8,30
1153,7441100.438510207,0.0, 1, 6,23, 3,109176.86181440852, 1,12, 6,45
1154,31471677.98433867,0.0, 1, 6, 6, 5,180000.0, 1, 9,16,30
1155,594066616.2407703,0.0, 1, 6, 1,15,5431845.243070977, 1, 8, 6,15
1156,594066616.2407703,0.0, 1, 6, 1,15,5431845.243070977, 1, 8, 6,15
1292,-25387982.51838956,-39774.53021531985, 1, 6, 1,15,-6288.387435569698, 1,10,19, 2
1306,226317270.14416552,0.0, 1, 6, 1,15,10296666.029265206, 1,12, 9,45
1307,5042154.842854797,0.0, 1, 6, 1,15,4969842.935814431, 1,12,19,60
1308,226317270.14416552,0.0, 1, 6, 1,15,10296666.029265206, 1,12, 9,45
13,1931551197.3530726,452017.0388981225, 1, 9,15,60,14566460.550114512, 1,10, 6,60
61,301924526.02383536,88139.10953165221, 1, 6, 1,15,1282023.4113694867, 1, 6,20,15
134,70666020.44019976,63564.01800854099, 1, 6, 4,15,156554.22484006523, 1,11,20,15
170,5241013.419656067,348.4159749238097, 1, 6, 4,15,17476.39704006126, 1,11,12,15
207,6509451.13922267,815.2532113832032, 1, 6, 3,15,22990.642799023623, 1,11,10,15
244,12749673.399825225,1521.856143006317, 1, 6, 4,15,53038.631142310165, 1,11,20,15
281,46165882.481495745,59938.60262432081, 1, 6, 5,15,81951.81706819107, 1, 6,19,15
318,0.0,0.0, 1, 6, 1,15,0.0, 1, 6, 1,15
355,197687796.27748066,18561.32405820678, 1, 6, 4,15,724774.895203776, 1,11,18,15
403,197687796.27748066,18561.32405820678, 1, 6, 4,15,724774.895203776, 1,11,18,15
476,106772067.24485716,7098.072629279515, 1, 6, 4,15,356036.3026282215, 1,11,12,15
513,0.0,0.0, 1, 6, 1,15,0.0, 1, 6, 1,15
562,68559911.10538298,0.0, 1, 9,15,60,138048.53128750998, 1, 6, 6,45
1046,0.0,0.0, 1, 6, 1,15,0.0, 1, 6, 1,15
1096,0.0,0.0, 1, 6, 1,15,0.0, 1, 6, 1,15
1134,1264083469.6394928,180000.0, 1, 9,15,60,6605408.813341194, 1, 8, 8,60
1326,226317270.1441655,0.0, 1, 6, 1,15,10296666.029265206, 1,12, 9,45
1379,0.0,0.0, 1, 6, 1,15,0.0, 1, 6, 1,15
1,EXTREME_SUMMER,  38.23, -85.66,  -5.00, 166.00
5,7
1038,0.0,0.0, 7,13, 1,15,0.0, 7,13, 1,15
1039,45.75,0.0, 7,13, 1,15,0.25, 7,13,17,45
581,0.06353939385347943,0.0, 7,13,20,41,0.2618096864768657, 7,17,13,48
582,1.7576204270324762,0.0, 7,16,21,22,7.235567495237537, 7,14,17,48
583,0.04254376254374359,0.0, 7,13,23, 3,0.06996669474447148, 7,19, 6, 3
1115,0.0,0.0, 7,13, 1,15,0.0, 7,13, 1,15
1128,0.0,0.0, 7,13, 1,15,0.0, 7,13, 1,15
1153,0.0,0.0, 7,13, 1,15,0.0, 7,13, 1,15
1154,0.0,0.0, 7,13, 1,15,0.0, 7,13, 1,15
1155,0.0,0.0, 7,13, 1,15,0.0, 7,13, 1,15
1156,0.0,0.0, 7,13, 1,15,0.0, 7,13, 1,15
1292,-21770586.854655895,-34332.911134236696, 7,14,22,30,-3384.620865443959, 7,19,16,59
1306,160975056.18693808,0.0, 7,13, 1,15,5275312.355201845, 7,13, 7,45
1307,434273.54211911734,0.0, 7,13, 1,15,72411.28051187815, 7,19,19,47
1308,160975056.18693808,0.0, 7,13, 1,15,5275312.355201845, 7,13, 7,45
13,1154980915.919031,218802.10308137853, 7,15, 4,60,13370579.69183828, 7,19,19,60
61,301924526.02383536,88139.10953165221, 7,13, 1,15,1282023.4113694867, 7,13,20,15
134,70666020.44019976,63564.01800854099, 7,13, 4,15,156554.22484006523, 7,18,20,15
170,5241013.419656067,348.4159749238097, 7,13, 4,15,17476.39704006126, 7,18,12,15
207,6509451.13922267,815.2532113832032, 7,13, 3,15,22990.642799023623, 7,18,10,15
244,12749673.399825225,1521.856143006317, 7,13, 4,15,53038.631142310165, 7,18,20,15
281,46165882.481495745,59938.60262432081, 7,13, 5,15,81951.81706819107, 7,13,19,15
318,0.0,0.0, 7,13, 1,15,0.0, 7,13, 1,15
355,197687796.27748066,18561.32405820678, 7,13, 4,15,724774.895203776, 7,18,18,15
403,197687796.27748066,18561.32405820678, 7,13, 4,15,724774.895203776, 7,18,18,15
476,106772067.24485716,7098.072629279515, 7,13, 4,15,356036.3026282215, 7,18,12,15
513,0.0,0.0, 7,13, 1,15,0.0, 7,13, 1,15
562,58112524.719456375,7167.145050351764, 7,15, 4,60,138048.53128750998, 7,13,16,60
1046,0.0,0.0, 7,13, 1,15,0.0, 7,13, 1,15
1096,563302788.5486037,59931.830490833556, 7,15, 4,60,1536078.2503603185, 7,15,14,60
1134,0.0,0.0, 7,13, 1,15,0.0, 7,13, 1,15
1326,160975056.18693805,0.0, 7,13, 1,15,10540800.0, 7,19,19,60
1379,0.0,0.0, 7,13, 1,15,0.0, 7,13, 1,15
1,ANNUAL,  38.23, -85.66,  -5.00, 166.00
5,365
1038,8.0,0.0, 1, 1, 1,15,0.25, 1, 2, 6,15
1039,506.25,0.0, 1, 1, 1,15,0.25, 5,19,17,60
581,0.18706443679992646,0.0, 4, 1, 1,15,0.9157130196407461,12,23,11,60
582,2.751338795404273,0.0, 1, 2, 6, 5,24.617602824968053,12,23,11,60
583,0.027098350812408942,0.0, 4, 4,23, 3,0.08252959428473736, 1, 7, 9,60
1115,16518218819.196484,0.0, 1, 1,15,30,4346607.427804791, 1,11, 8,45
1128,5176510329.307283,0.0, 1, 1,15,30,1349948.0086039023, 1,11, 8,30
1153,176169701.01851386,0.0, 1, 1,15,30,110517.4772536568, 2,22, 6,60
1154,1533832147.2090762,0.0, 1, 1, 6, 5,180000.0, 1, 1,15,30
1155,1270562223.8572972,0.0, 1, 1, 1,15,5431845.243070977, 1, 8, 6,15
1156,1270562223.8572972,0.0, 1, 1, 1,15,5431845.243070977, 1, 8, 6,15
1292,-1211535728.1212912,-39775.63582127136, 3, 2, 3,15,-2329.284496670171, 6,21,13,30
1306,10179576420.621983,0.0, 1, 1, 1,15,10540800.0, 1, 1,19,60
1307,151436712.70789725,0.0, 1, 1, 1,15,5297195.990425811, 1,29,19,60
1308,10179576420.621983,0.0, 1, 1, 1,15,10540800.0, 1, 1,19,60
13,50342127858.22339,151703.1275401932, 1, 4, 4,15,17153559.67671347, 1, 8, 9,45
61,15743207428.383959,88139.10953165221, 1, 1, 1,15,1282023.4113694867, 1, 1,20,15
134,3685071073.4325233,63564.01800854099, 1, 2, 4,15,156554.22484006523, 1, 1,20,15
170,273393721.45532674,348.4159749238097, 1, 2, 4,15,17476.39704006126, 1, 1,12,15
207,339560869.0695816,815.2532113832032, 1, 2, 3,15,22990.642799023623, 1, 1,10,15
244,664895467.8009144,1521.856143006317, 1, 2, 4,15,53038.631142310165, 1, 1,20,15
281,2407221015.106824,59938.60262432081, 1, 1, 5,15,81951.81706819107, 1, 1,19,15
318,0.0,0.0, 1, 1, 1,15,0.0, 1, 1, 1,15
355,10310294493.051695,18561.32405820678, 1, 2, 4,15,724774.895203776, 1, 1,18,15
403,10310294493.051695,18561.32405820678, 1, 2, 4,15,724774.895203776, 1, 1,18,15
476,5569688622.066177,7098.072629279515, 1, 2, 4,15,356036.3026282215, 1, 1,12,15
513,0.0,0.0, 1, 1, 1,15,0.0, 1, 1, 1,15
562,1779211093.422118,0.0, 1, 1,15,30,138048.53128750998, 1, 1, 6,30
1046,0.0,0.0, 1, 1, 1,15,0.0, 1, 1, 1,15
1096,10797987440.968678,0.0, 1, 1, 1,15,1537936.8692372, 7,15,14,60
1134,8157074401.392154,0.0, 1, 3,17,15,6609189.244364018, 1, 8, 9,30
1326,10179576420.621998,0.0, 1, 1, 1,15,10540800.0, 1, 1,19,60
1379,0.0,0.0, 1, 1, 1,15,0.0, 1, 1, 1,15
End of Data
 Number of Records Written=          99
