Program Version,EnergyPlus, Version 22.2.0-c249759bad, YMD=2023.09.01 14:31
1,5,Environment Title[],Latitude[deg],Longitude[deg],Time Zone[],Elevation[m]
2,8,Day of Simulation[],Month[],Day of Month[],DST Indicator[1=yes 0=no],Hour[],StartMinute[],EndMinute[],DayType
3,5,Cumulative Day of Simulation[],Month[],Day of Month[],DST Indicator[1=yes 0=no],DayType  ! When Daily Report Variables Requested
4,2,Cumulative Days of Simulation[],Month[]  ! When Monthly Report Variables Requested
5,1,Cumulative Days of Simulation[] ! When Run Period Report Variables Requested
6,1,Calendar Year of Simulation[] ! When Annual Report Variables Requested
7,1,Environment,Site Outdoor Air Drybulb Temperature [C] !Hourly
545,1,LIVING,Zone Mean Air Temperature [C] !Hourly
546,1,ATTIC,Zone Mean Air Temperature [C] !Hourly
547,1,CRAWLSPACE,Zone Mean Air Temperature [C] !Hourly
548,1,FAN,Fan Electricity Rate [W] !Hourly
720,1,LIVING,Zone Predicted Sensible Load to Heating Setpoint Heat Transfer Rate [W] !Hourly
721,1,LIVING,Zone System Predicted Sensible Load to Heating Setpoint Heat Transfer Rate [W] !Hourly
784,1,ATTIC,Zone Predicted Sensible Load to Heating Setpoint Heat Transfer Rate [W] !Hourly
785,1,ATTIC,Zone System Predicted Sensible Load to Heating Setpoint Heat Transfer Rate [W] !Hourly
848,1,CRAWLSPACE,Zone Predicted Sensible Load to Heating Setpoint Heat Transfer Rate [W] !Hourly
849,1,CRAWLSPACE,Zone System Predicted Sensible Load to Heating Setpoint Heat Transfer Rate [W] !Hourly
1121,1,DX_HEATING_COIL,Heating Coil Heating Rate [W] !Hourly
1135,1,DX_HEATING_COIL,Heating Coil Electricity Rate [W] !Hourly
1161,1,DX_HEATING_COIL,Heating Coil Defrost Electricity Rate [W] !Hourly
1163,1,DX_HEATING_COIL,Heating Coil Crankcase Heater Electricity Rate [W] !Hourly
1166,1,HEATING_RESISTANCE_BACKUP,Heating Coil Heating Rate [W] !Hourly
1168,1,HEATING_RESISTANCE_BACKUP,Heating Coil Electricity Rate [W] !Hourly
End of Data Dictionary
1,EXTREME_WINTER,  39.67, -75.60,  -5.00,  23.00
2,1, 1, 8, 0, 1, 0.00,60.00,Monday
7,-11.7
545,18.579011101931435
546,-7.494026420821201
547,18.407743305759737
548,147.073077832993
720,5782.10390091523
721,5782.10390091523
784,0.0
785,0.0
848,0.0
849,0.0
1121,3601.0833317358397
1135,1361.7100976111308
1161,0.07406065130088231
1163,0.0
1166,4171.6156231321165
1168,4171.6156231321165
2,1, 1, 8, 0, 2, 0.00,60.00,Monday
7,-12.2
545,18.575976662903418
546,-7.443919676295023
547,17.98558213798357
548,147.073077832993
720,4717.984377264616
721,4717.984377264616
784,0.0
785,0.0
848,0.0
849,0.0
1121,3547.331014672967
1135,1352.507910745563
1161,0.07406065130088231
1163,0.0
1166,3224.2569752171817
1168,3224.2569752171817
2,1, 1, 8, 0, 3, 0.00,60.00,Monday
7,-12.8
545,18.582920276286433
546,-8.023423159632834
547,17.779965484021883
548,147.073077832993
720,4580.305790570514
721,4580.305790570514
784,0.0
785,0.0
848,0.0
849,0.0
1121,3480.811542079115
1135,1344.2984059527616
1161,0.07406065130088231
1163,0.0
1166,3148.1307531107295
1168,3148.1307531107295
2,1, 1, 8, 0, 4, 0.00,60.00,Monday
7,-12.8
545,18.583103662767208
546,-7.5016345339603285
547,17.54190251859137
548,147.073077832993
720,4508.410341032564
721,4508.410341032564
784,0.0
785,0.0
848,0.0
849,0.0
1121,3480.8737272481503
1135,1344.2326545871588
1161,0.07406065130088231
1163,0.0
1166,3094.8930884012184
1168,3094.8930884012184
2,1, 1, 8, 0, 5, 0.00,60.00,Monday
7,-12.8
545,18.58366330733272
546,-8.132421112223815
547,17.3232246347572
548,147.073077832993
720,4624.172472261351
721,4624.172472261351
784,0.0
785,0.0
848,0.0
849,0.0
1121,3481.1385667706536
1135,1343.9526118155356
1161,0.07406065130088231
1163,0.0
1166,3211.8474157460246
1168,3211.8474157460246
2,1, 1, 8, 0, 6, 0.00,60.00,Monday
7,-12.8
545,19.330844370273997
546,-8.13128002765168
547,17.11471228671216
548,147.073077832993
720,5789.783756700173
721,5789.783756700173
784,0.0
785,0.0
848,0.0
849,0.0
1121,3481.376784245605
1135,1343.7006982926066
1161,0.07406065130088231
1163,0.0
1166,4590.822213521455
1168,4590.822213521455
2,1, 1, 8, 0, 7, 0.00,60.00,Monday
7,-12.8
545,19.57938852244142
546,-7.90886389827436
547,16.948159272745027
548,147.073077832993
720,5579.27578449234
721,5579.27578449234
784,0.0
785,0.0
848,0.0
849,0.0
1121,3464.2274716057514
1135,1361.7839170616414
1161,0.07406065130088231
1163,0.0
1166,4456.279718727982
1168,4456.279718727982
2,1, 1, 8, 0, 8, 0.00,60.00,Monday
7,-12.8
545,19.660003488989016
546,-7.777075353854273
547,16.76608003903334
548,147.073077832993
720,5281.910283108173
721,5281.910283108173
784,0.0
785,0.0
848,0.0
849,0.0
1121,3458.60422765846
1135,1367.6897317494127
1161,0.07406065130088231
1163,0.0
1166,4135.69338255786
1168,4135.69338255786
2,1, 1, 8, 0, 9, 0.00,60.00,Monday
7,-11.1
545,19.706890639404772
546,-7.29558113806607
547,16.600662513035616
548,147.073077832993
720,4235.856316330031
721,4235.856316330031
784,0.0
785,0.0
848,0.0
849,0.0
1121,3648.565321633086
1135,1391.9200469881312
1161,0.07406065130088231
1163,0.0
1166,2740.32480971555
1168,2740.32480971555
2,1, 1, 8, 0,10, 0.00,60.00,Monday
7,-10.0
545,19.722892251518804
546,-6.325528329350104
547,16.44428379170097
548,147.073077832993
720,3546.417820538276
721,3546.417820538276
784,0.0
785,0.0
848,0.0
849,0.0
1121,3774.8204900969554
1135,1407.1004964973536
1161,0.07406065130088231
1163,0.0
1166,1778.5973168238115
1168,1778.5973168238115
2,1, 1, 8, 0,11, 0.00,60.00,Monday
7,-9.4
545,19.749556053164248
546,-3.8929364371489257
547,16.32519137262817
548,147.073077832993
720,2436.163279969531
721,2436.163279969531
784,0.0
785,0.0
848,0.0
849,0.0
1121,3845.0035052940407
1135,1414.9970753254756
1161,0.07406065130088231
1163,0.0
1166,363.4657310787379
1168,363.4657310787379
2,1, 1, 8, 0,12, 0.00,60.00,Monday
7,-8.3
545,19.8598831825206
546,-0.5926594352835467
547,16.239338048671243
548,123.76852244548748
720,1832.6292842725288
721,1832.6292842725288
784,0.0
785,0.0
848,0.0
849,0.0
1121,3281.157710012468
1135,1203.1288855267983
1161,0.062326504571932895
1163,31.68793825827352
1166,0.0
1168,0.0
2,1, 1, 8, 0,13, 0.00,60.00,Monday
7,-7.8
545,19.773316303139467
546,-0.14776022625524243
547,16.171129523025478
548,116.8086942899889
720,1909.4462496568067
721,1909.4462496568067
784,0.0
785,0.0
848,0.0
849,0.0
1121,3123.7265242741655
1135,1142.7888303881925
1161,0.05882167070380139
1163,41.152704788323604
1166,0.0
1168,0.0
2,1, 1, 8, 0,14, 0.00,60.00,Monday
7,-7.8
545,19.973450509052206
546,1.3277097726368463
547,16.126467900561845
548,84.25456843020712
720,1301.0322593311594
721,1301.0322593311594
784,0.0
785,0.0
848,0.0
849,0.0
1121,2195.6718260665207
1135,823.0253096011589
1161,0.04242830095960637
1163,85.4228251727489
1166,0.0
1168,0.0
2,1, 1, 8, 0,15, 0.00,60.00,Monday
7,-7.8
545,19.81471252341991
546,0.7304454508009733
547,16.09863732834782
548,71.14529320152563
720,1138.419425608714
721,1138.419425608714
784,0.0
785,0.0
848,0.0
849,0.0
1121,1832.6307795046407
1135,697.6381068614855
1161,0.035826828548657395
1163,103.25003110462632
1166,0.0
1168,0.0
2,1, 1, 8, 0,16, 0.00,60.00,Monday
7,-7.2
545,19.971229004975445
546,-0.26143639085792464
547,16.079715550396667
548,53.539077355252815
720,856.2469912441029
721,856.2469912441029
784,0.0
785,0.0
848,0.0
849,0.0
1121,1386.1309915409402
1135,526.1835601329881
1161,0.026960790407147665
1163,127.19267267144201
1166,0.0
1168,0.0
2,1, 1, 8, 0,17, 0.00,60.00,Monday
7,-8.3
545,19.715398593628542
546,-1.9824357669605575
547,16.064380572152647
548,59.70796392381526
720,964.0238063627748
721,964.0238063627748
784,0.0
785,0.0
848,0.0
849,0.0
1121,1501.4389309255414
1135,582.8976617215886
1161,0.030067328182503097
1163,118.80350049758502
1166,0.0
1168,0.0
2,1, 1, 8, 0,18, 0.00,60.00,Monday
7,-9.4
545,19.485416094587073
546,-2.5049336065784513
547,16.030103808964814
548,105.75894897495292
720,1789.7475252903241
721,1789.7475252903241
784,0.0
785,0.0
848,0.0
849,0.0
1121,2672.4056071440536
1135,1017.2267408014004
1161,0.05325747484640913
1163,56.1787564356063
1166,0.0
1168,0.0
2,1, 1, 8, 0,19, 0.00,60.00,Monday
7,-9.4
545,19.511431747121406
546,-4.06056313433008
547,15.982426094178512
548,123.77721668432729
720,2050.8661482024954
721,2050.8661482024954
784,0.0
785,0.0
848,0.0
849,0.0
1121,3178.82060130445
1135,1185.2524064739134
1161,0.062331007119745464
1163,31.67577917586342
1166,0.0
1168,0.0
2,1, 1, 8, 0,20, 0.00,60.00,Monday
7,-9.4
545,19.564420258827763
546,-4.2344251489249025
547,15.924485769264342
548,133.60144192496858
720,2133.617642266665
721,2133.617642266665
784,0.0
785,0.0
848,0.0
849,0.0
1121,3458.6823260608194
1135,1279.8349374969723
1161,0.06727823321376282
1163,18.315847803079443
1166,0.0
1168,0.0
2,1, 1, 8, 0,21, 0.00,60.00,Monday
7,-8.9
545,19.568927996042408
546,-4.474497427985969
547,15.848718003841423
548,147.073077832993
720,2792.6935334335794
721,2792.6935334335794
784,0.0
785,0.0
848,0.0
849,0.0
1121,3908.678393228
1135,1416.3643573120564
1161,0.07406065130088231
1163,0.0
1166,509.2533605659428
1168,509.2533605659428
2,1, 1, 8, 0,22, 0.00,60.00,Monday
7,-8.3
545,19.653822915415045
546,-4.058932143875844
547,15.768710277011447
548,147.073077832993
720,3038.4292078527014
721,3038.4292078527014
784,0.0
785,0.0
848,0.0
849,0.0
1121,3980.418469912034
1135,1423.8982431802947
1161,0.07406065130088231
1163,0.0
1166,779.6899994501691
1168,779.6899994501691
2,1, 1, 8, 0,23, 0.00,60.00,Monday
7,-7.2
545,18.94088648983342
546,-3.5347965831813193
547,15.677821281444102
548,147.073077832993
720,3035.7633993344243
721,3035.7633993344243
784,0.0
785,0.0
848,0.0
849,0.0
1121,4111.980734244717
1135,1439.761135965354
1161,0.07406065130088231
1163,0.0
1166,660.2321084595078
1168,660.2321084595078
2,1, 1, 8, 0,24, 0.00,60.00,Monday
7,-6.7
545,18.712720877500587
546,-3.0378736655420204
547,15.54783715146587
548,147.073077832993
720,3506.195530312443
721,3506.195530312443
784,0.0
785,0.0
848,0.0
849,0.0
1121,4190.767808900792
1135,1426.0982239883692
1161,0.07406065130088231
1163,0.0
1166,1052.4430699229115
1168,1052.4430699229115
2,2, 1, 9, 0, 1, 0.00,60.00,Tuesday
7,-6.1
545,18.63598878284106
546,-2.313888306814289
547,15.442515306614354
548,147.073077832993
720,3747.8640530540833
721,3747.8640530540833
784,0.0
785,0.0
848,0.0
849,0.0
1121,4270.917503511682
1135,1426.847369959314
1161,0.07406065130088231
1163,0.0
1166,1214.32834844642
1168,1214.32834844642
2,2, 1, 9, 0, 2, 0.00,60.00,Tuesday
7,-5.6
545,18.611495561647686
546,-2.031741153622831
547,15.333327706834886
548,147.073077832993
720,3949.6735588530864
721,3949.6735588530864
784,0.0
785,0.0
848,0.0
849,0.0
1121,4335.564153896013
1135,1430.567441804181
1161,0.07406065130088231
1163,0.0
1166,1344.9467879555318
1168,1344.9467879555318
2,2, 1, 9, 0, 3, 0.00,60.00,Tuesday
7,-4.4
545,18.59748647870573
546,-1.011765345576045
547,15.230415108729815
548,147.073077832993
720,4279.909626435761
721,4279.909626435761
784,0.0
785,0.0
848,0.0
849,0.0
1121,4488.830027193191
1135,1444.144059053812
1161,0.07406065130088231
1163,0.0
1166,1568.0639686332584
1168,1568.0639686332584
2,2, 1, 9, 0, 4, 0.00,60.00,Tuesday
7,-4.4
545,18.60298681575663
546,-0.7513836273704143
547,15.125888225406806
548,147.073077832993
720,4265.632344009051
721,4265.632344009051
784,0.0
785,0.0
848,0.0
849,0.0
1121,4489.294243572551
1135,1443.6013195713288
1161,0.07406065130088231
1163,0.0
1166,1508.1241046999507
1168,1508.1241046999507
2,2, 1, 9, 0, 5, 0.00,60.00,Tuesday
7,-3.9
545,18.617213360530226
546,-0.4049348510621562
547,15.0362185400053
548,147.073077832993
720,3674.453340646176
721,3674.453340646176
784,0.0
785,0.0
848,0.0
849,0.0
1121,4553.688653818604
1135,1449.6936275700216
1161,0.07406065130088231
1163,0.0
1166,734.1964728041162
1168,734.1964728041162
2,2, 1, 9, 0, 6, 0.00,60.00,Tuesday
7,-2.8
545,19.359236193181793
546,-0.19317199991583123
547,14.94595441187519
548,147.073077832993
720,5144.429843100344
721,5144.429843100344
784,0.0
785,0.0
848,0.0
849,0.0
1121,4697.024058348122
1135,1463.3992504286837
1161,0.07406065130088231
1163,0.0
1166,2258.8045257086887
1168,2258.8045257086887
2,2, 1, 9, 0, 7, 0.00,60.00,Tuesday
7,-3.3
545,19.61731114201931
546,0.1363729355885457
547,14.893474115999501
548,147.073077832993
720,4243.382675898914
721,4243.382675898914
784,0.0
785,0.0
848,0.0
849,0.0
1121,4613.440023433053
1135,1478.4884160839863
1161,0.07406065130088231
1163,0.0
1166,1371.0199722848802
1168,1371.0199722848802
2,2, 1, 9, 0, 8, 0.00,60.00,Tuesday
7,-3.3
545,19.697346136409017
546,-0.0010336610049912185
547,14.82233137417245
548,147.073077832993
720,3680.0833927443327
721,3680.0833927443327
784,0.0
785,0.0
848,0.0
849,0.0
1121,4597.334511938628
1135,1482.7434102932507
1161,2.355817542702175
1163,0.0
1166,725.8704631165265
1168,725.8704631165265
2,2, 1, 9, 0, 9, 0.00,60.00,Tuesday
7,-2.8
545,19.70951256712196
546,0.7593917718496596
547,14.756580590832998
548,147.073077832993
720,3750.732743756511
721,3750.732743756511
784,0.0
785,0.0
848,0.0
849,0.0
1121,4670.768046967898
1135,1494.4195362864102
1161,0.07406065130088231
1163,0.0
1166,738.6739901776937
1168,738.6739901776937
2,2, 1, 9, 0,10, 0.00,60.00,Tuesday
7,-2.2
545,19.77656256760539
546,2.1585098535811005
547,14.690861759598844
548,136.2951563004269
720,2899.3879989555335
721,2899.3879989555335
784,0.0
785,0.0
848,0.0
849,0.0
1121,4362.135412607503
1135,1392.3295135412811
1161,0.06863394202569535
1163,14.654770596440336
1166,0.0
1168,0.0
2,2, 1, 9, 0,11, 0.00,60.00,Tuesday
7,-0.6
545,19.845255262790506
546,3.718018609462586
547,14.62203989138289
548,101.62965967669022
720,2199.801483057505
721,2199.801483057505
784,0.0
785,0.0
848,0.0
849,0.0
1121,3303.251967462757
1135,1054.0485850802525
1161,0.05117739015813344
1163,61.79600298080623
1166,0.0
1168,0.0
2,2, 1, 9, 0,12, 0.00,60.00,Tuesday
7,1.1
545,19.917363967588095
546,4.83035347404606
547,14.561508243379038
548,62.330173459865364
720,1360.0332392419296
721,1360.0332392419296
784,0.0
785,0.0
848,0.0
849,0.0
1121,2055.318380712078
1135,657.1584640478287
1161,0.03138738698251328
1163,115.23869576842527
1166,0.0
1168,0.0
2,2, 1, 9, 0,13, 0.00,60.00,Tuesday
7,1.7
545,19.69043138934307
546,5.352570428567452
547,14.534432096980462
548,44.55536524807404
720,1009.0836575860067
721,1009.0836575860067
784,0.0
785,0.0
848,0.0
849,0.0
1121,1471.9214507772424
1135,472.9661940245515
1161,0.022436574751637864
1163,139.41026886062352
1166,0.0
1168,0.0
2,2, 1, 9, 0,14, 0.00,60.00,Tuesday
7,1.7
545,19.815088285101126
546,5.832277850252577
547,14.522081915851636
548,22.8905643895348
720,492.0731097388234
721,492.0731097388234
784,0.0
785,0.0
848,0.0
849,0.0
1121,744.5369321025976
1135,241.93601859308396
1161,0.011526913838289233
1163,168.8716919556663
1166,0.0
1168,0.0
2,2, 1, 9, 0,15, 0.00,60.00,Tuesday
7,2.2
545,19.833083647494576
546,6.618207766238586
547,14.533905122877453
548,0.0
720,-28.342815992851683
721,-28.342815992851683
784,0.0
785,0.0
848,0.0
849,0.0
1121,0.0
1135,0.0
1161,0.0
1163,200.0
1166,0.0
1168,0.0
2,2, 1, 9, 0,16, 0.00,60.00,Tuesday
7,1.7
545,19.721328497659137
546,5.509374297351844
547,14.580242730615446
548,0.0
720,0.7954088757633144
721,0.7954088757633144
784,0.0
785,0.0
848,0.0
849,0.0
1121,0.0
1135,0.0
1161,0.0
1163,200.0
1166,0.0
1168,0.0
2,2, 1, 9, 0,17, 0.00,60.00,Tuesday
7,0.0
545,19.88389992827181
546,3.449988583456709
547,14.638317671059044
548,0.0
720,-151.1991869957983
721,-151.1991869957983
784,0.0
785,0.0
848,0.0
849,0.0
1121,0.0
1135,0.0
1161,0.0
1163,200.0
1166,0.0
1168,0.0
2,2, 1, 9, 0,18, 0.00,60.00,Tuesday
7,-1.1
545,19.691551736784522
546,1.6495919530183694
547,14.714146388865355
548,31.954115698200592
720,694.3233783482101
721,694.3233783482101
784,0.0
785,0.0
848,0.0
849,0.0
1121,969.1287475844273
1135,330.77358714712744
1161,0.01609106280880398
1163,156.54625627465342
1166,0.0
1168,0.0
2,2, 1, 9, 0,19, 0.00,60.00,Tuesday
7,-1.1
545,19.949263457965294
546,0.6799359874640497
547,14.74661126686461
548,39.58571773628496
720,863.5098270875478
721,863.5098270875478
784,0.0
785,0.0
848,0.0
849,0.0
1121,1208.8179553159835
1135,408.2497273516196
1161,0.019934091475351554
1163,146.1681982936759
1166,0.0
1168,0.0
2,2, 1, 9, 0,20, 0.00,60.00,Tuesday
7,-2.2
545,19.574560186125918
546,-0.478361442629009
547,14.754609230059568
548,39.74344674781582
720,804.5267462303937
721,804.5267462303937
784,0.0
785,0.0
848,0.0
849,0.0
1121,1175.6950637835055
1135,408.1079582106972
1161,0.02001354655816116
1163,145.953630688844
1166,0.0
1168,0.0
2,2, 1, 9, 0,21, 0.00,60.00,Tuesday
7,-2.8
545,19.79632188542146
546,-1.0086433578481209
547,14.748184385522043
548,54.511935727806076
720,1116.9498170659135
721,1116.9498170659135
784,0.0
785,0.0
848,0.0
849,0.0
1121,1607.117839186695
1135,552.8048844977552
1161,0.02745051294976525
1163,125.87018216125729
1166,0.0
1168,0.0
2,2, 1, 9, 0,22, 0.00,60.00,Tuesday
7,-5.0
545,19.347526968583043
546,-2.334236261767365
547,14.72629568196523
548,75.03745724331237
720,1432.5513347123178
721,1432.5513347123178
784,0.0
785,0.0
848,0.0
849,0.0
1121,2108.9225761665994
1135,750.0797296369408
1161,0.03778664413476731
1163,97.95756998880958
1166,0.0
1168,0.0
2,2, 1, 9, 0,23, 0.00,60.00,Tuesday
7,-4.4
545,19.006878620113568
546,-2.872003531314142
547,14.671466934553425
548,65.53369804005325
720,1199.3442573301545
721,1199.3442573301545
784,0.0
785,0.0
848,0.0
849,0.0
1121,1864.5293700020445
1135,652.7067107163782
1161,0.03300080189806035
1163,110.88168597386559
1166,0.0
1168,0.0
2,2, 1, 9, 0,24, 0.00,60.00,Tuesday
7,-6.1
545,18.494609380571635
546,-3.7015049467904992
547,14.609278200061144
548,91.46511469907223
720,1680.006067468199
721,1680.006067468199
784,0.0
785,0.0
848,0.0
849,0.0
1121,2533.758464580375
1135,891.9165084902315
1161,0.046059201525518165
1163,75.61761686811023
1166,0.0
1168,0.0
2,3, 1,10, 0, 1, 0.00,60.00,Wednesday
7,-6.1
545,18.40834804122523
546,-3.4779484114287933
547,14.531271928146584
548,124.95046257580971
720,2384.2185989807567
721,2384.2185989807567
784,0.0
785,0.0
848,0.0
849,0.0
1121,3567.4769409017013
1135,1206.1136934288834
1161,0.06292145698776008
1163,30.08127559631526
1166,0.0
1168,0.0
2,3, 1,10, 0, 2, 0.00,60.00,Wednesday
7,-5.6
545,18.298771927826838
546,-3.4873171336122373
547,14.448637270708355
548,147.073077832993
720,4171.126577015519
721,4171.126577015519
784,0.0
785,0.0
848,0.0
849,0.0
1121,4342.218093197517
1135,1422.8533389711029
1161,0.07406065130088231
1163,0.0
1166,1563.0333985845036
1168,1563.0333985845036
2,3, 1,10, 0, 3, 0.00,60.00,Wednesday
7,-6.1
545,18.51252939401043
546,-3.1528750992800876
547,14.366097055940054
548,147.073077832993
720,3394.7858473034266
721,3394.7858473034266
784,0.0
785,0.0
848,0.0
849,0.0
1121,4282.18120778223
1135,1413.840958712662
1161,0.07406065130088231
1163,0.0
1166,798.6982948056516
1168,798.6982948056516
2,3, 1,10, 0, 4, 0.00,60.00,Wednesday
7,-7.2
545,18.56259947429866
546,-3.7320844978114085
547,14.278256928986547
548,147.073077832993
720,4034.7986832735132
721,4034.7986832735132
784,0.0
785,0.0
848,0.0
849,0.0
1121,4141.089377821767
1135,1406.4957216964874
1161,0.07406065130088231
1163,0.0
1166,1671.6268780161945
1168,1671.6268780161945
2,3, 1,10, 0, 5, 0.00,60.00,Wednesday
7,-7.8
545,18.570120593069525
546,-4.474684753429683
547,14.183293184865713
548,147.073077832993
720,4574.907715750636
721,4574.907715750636
784,0.0
785,0.0
848,0.0
849,0.0
1121,4066.837414883607
1135,1400.5438027330686
1161,0.07406065130088231
1163,0.0
1166,2417.329924428768
1168,2417.329924428768
2,3, 1,10, 0, 6, 0.00,60.00,Wednesday
7,-8.9
545,19.33080270236858
546,-4.963678767230533
547,14.084942576055706
548,147.073077832993
720,5699.084600878039
721,5699.084600878039
784,0.0
785,0.0
848,0.0
849,0.0
1121,3934.5028554172245
1135,1387.4274034440377
1161,0.07406065130088231
1163,0.0
1166,3901.4304323618912
1168,3901.4304323618912
2,3, 1,10, 0, 7, 0.00,60.00,Wednesday
7,-9.4
545,19.58536795300697
546,-4.903230857647804
547,14.026518605690757
548,147.073077832993
720,5276.001139535954
721,5276.001139535954
784,0.0
785,0.0
848,0.0
849,0.0
1121,3857.3858728106934
1135,1401.2377884840241
1161,0.07406065130088231
1163,0.0
1166,3609.0172201797836
1168,3609.0172201797836
2,3, 1,10, 0, 8, 0.00,60.00,Wednesday
7,-9.4
545,19.670046062024326
546,-5.232578557327098
547,13.941868642389704
548,147.073077832993
720,4825.576710471552
721,4825.576710471552
784,0.0
785,0.0
848,0.0
849,0.0
1121,3851.4035734037307
1135,1407.8889830939686
1161,0.07406065130088231
1163,0.0
1166,3113.694268963139
1168,3113.694268963139
2,3, 1,10, 0, 9, 0.00,60.00,Wednesday
7,-8.3
545,19.696865291849697
546,-4.852943755255974
547,13.860771424988906
548,147.073077832993
720,4449.904431218058
721,4449.904431218058
784,0.0
785,0.0
848,0.0
849,0.0
1121,3980.5354603442834
1135,1423.7663555529502
1161,0.07406065130088231
1163,0.0
1166,2573.7698809781577
1168,2573.7698809781577
2,3, 1,10, 0,10, 0.00,60.00,Wednesday
7,-7.8
545,19.730652262950105
546,-2.030897022288695
547,13.790338054419134
548,147.073077832993
720,3221.863053482939
721,3221.863053482939
784,0.0
785,0.0
848,0.0
849,0.0
1121,4040.3548115716376
1135,1430.612366991828
1161,0.07406065130088231
1163,0.0
1166,1082.001180478388
1168,1082.001180478388
2,3, 1,10, 0,11, 0.00,60.00,Wednesday
7,-7.2
545,19.844331381802075
546,-0.08992307383030945
547,13.739737198450035
548,135.7331229025565
720,2189.917894495182
721,2189.917894495182
784,0.0
785,0.0
848,0.0
849,0.0
1121,3759.71013738446
1135,1328.0843141766604
1161,0.06835142430161223
1163,15.417706701161759
1166,0.0
1168,0.0
2,3, 1,10, 0,12, 0.00,60.00,Wednesday
7,-6.7
545,19.886671331810017
546,1.463662258364116
547,13.69868371500697
548,106.35183373270836
720,1728.6808766199938
721,1728.6808766199938
784,0.0
785,0.0
848,0.0
849,0.0
1121,2916.5259062792566
1135,1047.4654828685293
1161,0.053555780619968435
1163,55.373184871436834
1166,0.0
1168,0.0
2,3, 1,10, 0,13, 0.00,60.00,Wednesday
7,-6.7
545,20.13401914060458
546,4.993093085598194
547,13.672099127871947
548,67.5028749624265
720,1033.3903215707924
721,1033.3903215707924
784,0.0
785,0.0
848,0.0
849,0.0
1121,1793.968094728591
1135,665.5010061998034
1161,0.03399254205046386
1163,108.20350225556577
1166,0.0
1168,0.0
2,3, 1,10, 0,14, 0.00,60.00,Wednesday
7,-5.6
545,19.690872793760033
546,4.31965598166856
547,13.666978181288876
548,36.356517696412
720,569.185233388529
721,569.185233388529
784,0.0
785,0.0
848,0.0
849,0.0
1121,972.6767611056432
1135,363.5930409525378
1161,0.01830808416337292
1163,150.55921372067434
1166,0.0
1168,0.0
2,3, 1,10, 0,15, 0.00,60.00,Wednesday
7,-5.6
545,20.014501532713133
546,2.987380500264006
547,13.684725367077126
548,20.680969493210043
720,327.5007702596722
721,327.5007702596722
784,0.0
785,0.0
848,0.0
849,0.0
1121,548.0683591512873
1135,205.07712077593928
1161,0.010414333947755964
1163,171.87620209969205
1166,0.0
1168,0.0
2,3, 1,10, 0,16, 0.00,60.00,Wednesday
7,-6.1
545,19.506967816524135
546,1.2058175338012955
547,13.708246050279362
548,0.0
720,-6.150180507602272
721,-6.150180507602272
784,0.0
785,0.0
848,0.0
849,0.0
1121,0.0
1135,0.0
1161,0.0
1163,200.0
1166,0.0
1168,0.0
2,3, 1,10, 0,17, 0.00,60.00,Wednesday
7,-6.7
545,19.73367644279409
546,-0.21957361680883095
547,13.76543473105613
548,8.660928843452455
720,108.63348675451743
721,108.63348675451743
784,0.0
785,0.0
848,0.0
849,0.0
1121,220.44258897108503
1135,84.79167321061377
1161,0.004361399096507257
1163,188.22208819420604
1166,0.0
1168,0.0
2,3, 1,10, 0,18, 0.00,60.00,Wednesday
7,-7.2
545,19.539151975698324
546,-1.385004269031322
547,13.834454283844254
548,53.285415027905536
720,986.8572359868922
721,986.8572359868922
784,0.0
785,0.0
848,0.0
849,0.0
1121,1380.9726959877935
1135,521.6191070592048
1161,0.026833052557447334
1163,127.53762737399082
1166,0.0
1168,0.0
2,3, 1,10, 0,19, 0.00,60.00,Wednesday
7,-7.2
545,19.53184700572888
546,-3.237572409753184
547,13.863521932220792
548,74.23038887191305
720,1323.9107968833669
721,1323.9107968833669
784,0.0
785,0.0
848,0.0
849,0.0
1121,1957.9537886034532
1135,723.9239541419463
1161,0.03738035794570338
1163,99.05474151492358
1166,0.0
1168,0.0
2,3, 1,10, 0,20, 0.00,60.00,Wednesday
7,-8.9
545,19.4119250240025
546,-4.0802334877881306
547,13.867570857163779
548,98.84042434652959
720,1618.0900596621304
721,1618.0900596621304
784,0.0
785,0.0
848,0.0
849,0.0
1121,2526.5250235294357
1135,949.5338415724359
1161,0.049773436014900876
1163,65.5873661907483
1166,0.0
1168,0.0
2,3, 1,10, 0,21, 0.00,60.00,Wednesday
7,-8.3
545,19.432012985933024
546,-4.322619208686076
547,13.855073381375485
548,120.12289400884768
720,1999.5224844835593
721,1999.5224844835593
784,0.0
785,0.0
848,0.0
849,0.0
1121,3183.9556324776763
1135,1157.330558067006
1161,0.060490660749979185
1163,36.645614945439895
1166,0.0
1168,0.0
2,3, 1,10, 0,22, 0.00,60.00,Wednesday
7,-8.9
545,19.468871443867776
546,-4.574266831041753
547,13.827082604574557
548,147.073077832993
720,2423.23264567564
721,2423.23264567564
784,0.0
785,0.0
848,0.0
849,0.0
1121,3914.4954025366465
1135,1409.8549241835378
1161,0.07406065130088231
1163,0.0
1166,10.680364841045048
1168,10.680364841045048
2,3, 1,10, 0,23, 0.00,60.00,Wednesday
7,-11.7
545,18.883048438707853
546,-5.643453078755957
547,13.749817950709662
548,147.073077832993
720,2516.6106049436057
721,2516.6106049436057
784,0.0
785,0.0
848,0.0
849,0.0
1121,3562.1577505564496
1135,1365.1731619832567
1161,7.928227053896556
1163,0.0
1166,614.8091458251238
1168,614.8091458251238
2,3, 1,10, 0,24, 0.00,60.00,Wednesday
7,-10.6
545,18.68649815913506
546,-5.666783610551448
547,13.670907676740619
548,147.073077832993
720,2941.9261086833685
721,2941.9261086833685
784,0.0
785,0.0
848,0.0
849,0.0
1121,3695.207601122588
1135,1362.0780099459498
1161,9.542854020151143
1163,0.0
1166,1005.3474667782825
1168,1005.3474667782825
2,4, 1,11, 0, 1, 0.00,60.00,Thursday
7,-10.6
545,18.618321487054153
546,-5.999019860517628
547,13.58574256875496
548,147.073077832993
720,3385.1624355134263
721,3385.1624355134263
784,0.0
785,0.0
848,0.0
849,0.0
1121,3699.858821942897
1135,1356.988628204634
1161,9.54101988787353
1163,0.0
1166,1515.9072397108002
1168,1515.9072397108002
2,4, 1,11, 0, 2, 0.00,60.00,Thursday
7,-10.6
545,18.590449013154956
546,-6.10023530004928
547,13.498747534689135
548,147.073077832993
720,3875.988745379136
721,3875.988745379136
784,0.0
785,0.0
848,0.0
849,0.0
1121,3701.560292528843
1135,1355.1456037717367
1161,9.536437640236855
1163,0.0
1166,2105.4422221837112
1168,2105.4422221837112
2,4, 1,11, 0, 3, 0.00,60.00,Thursday
7,-11.1
545,18.582239698020462
546,-6.103406390715788
547,13.405713565023715
548,147.073077832993
720,4220.272579163173
721,4220.272579163173
784,0.0
785,0.0
848,0.0
849,0.0
1121,3637.2324407324068
1135,1345.253757246639
1161,11.8734289074765
1163,0.0
1166,2586.472634122548
1168,2586.472634122548
2,4, 1,11, 0, 4, 0.00,60.00,Thursday
7,-10.6
545,18.586231925083958
546,-6.228715199116754
547,13.321584803139757
548,147.073077832993
720,4234.081593563689
721,4234.081593563689
784,0.0
785,0.0
848,0.0
849,0.0
1121,3687.5947654434417
1135,1348.4953952625374
1161,13.84244760902899
1163,0.0
1166,2563.069967345587
1168,2563.069967345587
2,4, 1,11, 0, 5, 0.00,60.00,Thursday
7,-11.7
545,18.577640103552227
546,-6.417854247713438
547,13.22075086979634
548,147.073077832993
720,4623.86272052568
721,4623.86272052568
784,0.0
785,0.0
848,0.0
849,0.0
1121,3534.252006223176
1135,1324.1836387866754
1161,22.451938513926585
1163,0.0
1166,3178.211631264424
1168,3178.211631264424
2,4, 1,11, 0, 6, 0.00,60.00,Thursday
7,-11.1
545,19.340140475364308
546,-6.175758821438935
547,13.139558904004451
548,147.073077832993
720,5465.80356422114
721,5465.80356422114
784,0.0
785,0.0
848,0.0
849,0.0
1121,3609.8634932747177
1135,1334.205754610761
1161,20.027614108410766
1163,0.0
1166,4091.0600952131526
1168,4091.0600952131526
2,4, 1,11, 0, 7, 0.00,60.00,Thursday
7,-10.6
545,19.58926818041466
546,-6.378384481466592
547,13.091048346682173
548,147.073077832993
720,5181.492835983481
721,5181.492835983481
784,0.0
785,0.0
848,0.0
849,0.0
1121,3655.6432900225145
1135,1361.7919229134814
1161,18.100674746645744
1163,0.0
1166,3787.459911266904
1168,3787.459911266904
2,4, 1,11, 0, 8, 0.00,60.00,Thursday
7,-9.4
545,19.670570431955966
546,-6.349351766230789
547,13.023260140991296
548,147.073077832993
720,4705.510723631647
721,4705.510723631647
784,0.0
785,0.0
848,0.0
849,0.0
1121,3794.1549545545386
1135,1385.3531022814343
1161,16.295386573816362
1163,0.0
1166,3130.976630930637
1168,3130.976630930637
2,4, 1,11, 0, 9, 0.00,60.00,Thursday
7,-6.7
545,19.71407704234054
546,-4.255955513830877
547,12.97086630377744
548,147.073077832993
720,3698.6641024660767
721,3698.6641024660767
784,0.0
785,0.0
848,0.0
849,0.0
1121,4081.3369394197234
1135,1409.4379384388894
1161,24.50616927347852
1163,0.0
1166,1682.9639285636222
1168,1682.9639285636222
2,4, 1,11, 0,10, 0.00,60.00,Thursday
7,-3.9
545,19.850729306426864
546,2.0082678541882766
547,12.907678467799252
548,129.82093086304246
720,2223.3112625670947
721,2223.3112625670947
784,0.0
785,0.0
848,0.0
849,0.0
1121,3900.4218535087557
1135,1293.6012814461187
1161,9.974828122823999
1163,23.13725005837015
1166,0.0
1168,0.0
2,4, 1,11, 0,11, 0.00,60.00,Thursday
7,-0.6
545,20.032826163688764
546,5.798832489136424
547,12.815988231036243
548,73.05282829585488
720,1348.462747415122
721,1348.462747415122
784,0.0
785,0.0
848,0.0
849,0.0
1121,2290.5212402451803
1135,748.5420626913705
1161,7.061241775708854
1163,100.51039526569019
1166,0.0
1168,0.0
2,4, 1,11, 0,12, 0.00,60.00,Thursday
7,0.6
545,19.865905617426986
546,8.206312424601439
547,12.78067176233987
548,42.05316542626688
720,852.4763015940989
721,852.4763015940989
784,0.0
785,0.0
848,0.0
849,0.0
1121,1343.0717080427391
1135,441.3159195343326
1161,0.7120526993196605
1163,142.80116677116345
1166,0.0
1168,0.0
2,4, 1,11, 0,13, 0.00,60.00,Thursday
7,3.9
545,19.860535446769415
546,10.013480236170755
547,12.768837621948494
548,14.84684225065983
720,313.63183773539276
721,313.63183773539276
784,0.0
785,0.0
848,0.0
849,0.0
1121,508.3530081691484
1135,160.43547931754256
1161,0.007476351125723628
1163,179.81019341741987
1166,0.0
1168,0.0
2,4, 1,11, 0,14, 0.00,60.00,Thursday
7,3.9
545,19.756744063846746
546,9.9046626364587
547,12.796571344594923
548,0.0