Program Version,EnergyPlus, Version 22.2.0-c249759bad, YMD=2023.09.01 14:31
1,5,Environment Title[],Latitude[deg],Longitude[deg],Time Zone[],Elevation[m]
2,8,Day of Simulation[],Month[],Day of Month[],DST Indicator[1=yes 0=no],Hour[],StartMinute[],EndMinute[],DayType
3,5,Cumulative Day of Simulation[],Month[],Day of Month[],DST Indicator[1=yes 0=no],DayType  ! When Daily Report Variables Requested
4,2,Cumulative Days of Simulation[],Month[]  ! When Monthly Report Variables Requested
5,1,Cumulative Days of Simulation[] ! When Run Period Report Variables Requested
6,1,Calendar Year of Simulation[] ! When Annual Report Variables Requested
7,1,Environment,Site Outdoor Air Drybulb Temperature [C] !Hourly
619,1,DX_HEATING_COIL,Heating Coil Heating Rate [W] !Hourly
633,1,DX_HEATING_COIL,Heating Coil Electricity Rate [W] !Hourly
659,1,DX_HEATING_COIL,Heating Coil Defrost Electricity Rate [W] !Hourly
661,1,DX_HEATING_COIL,Heating Coil Crankcase Heater Electricity Rate [W] !Hourly
690,1,FAN,Fan Electricity Rate [W] !Hourly
716,1,HEAT PUMP WATER HEATER FAN,Fan Electricity Rate [W] !Hourly
718,1,LIVING,Zone Mean Air Temperature [C] !Hourly
719,1,ATTIC,Zone Mean Air Temperature [C] !Hourly
720,1,CRAWLSPACE,Zone Mean Air Temperature [C] !Hourly
843,1,LIVING,Zone Predicted Sensible Load to Heating Setpoint Heat Transfer Rate [W] !Hourly
844,1,LIVING,Zone System Predicted Sensible Load to Heating Setpoint Heat Transfer Rate [W] !Hourly
907,1,ATTIC,Zone Predicted Sensible Load to Heating Setpoint Heat Transfer Rate [W] !Hourly
908,1,ATTIC,Zone System Predicted Sensible Load to Heating Setpoint Heat Transfer Rate [W] !Hourly
971,1,CRAWLSPACE,Zone Predicted Sensible Load to Heating Setpoint Heat Transfer Rate [W] !Hourly
972,1,CRAWLSPACE,Zone System Predicted Sensible Load to Heating Setpoint Heat Transfer Rate [W] !Hourly
1195,1,HEATING_RESISTANCE_BACKUP,Heating Coil Heating Rate [W] !Hourly
1197,1,HEATING_RESISTANCE_BACKUP,Heating Coil Electricity Rate [W] !Hourly
End of Data Dictionary
1,EXTREME_WINTER,  42.92, -97.38,  -6.00, 398.00
2,1, 1,20, 0, 1, 0.00,60.00,Monday
7,-12.0
718,18.64260604705111
719,-7.618559913172302
720,17.026758919391508
619,4073.0865943856224
633,1548.6779540745204
659,9.295023539736192
661,0.0
690,156.26077926207046
716,0.0
843,4023.3658001592994
844,4023.3658001592994
907,0.0
908,0.0
971,0.0
972,0.0
1195,2082.0213267925687
1197,2082.0213267925687
2,1, 1,20, 0, 2, 0.00,60.00,Monday
7,-13.0
718,18.615240292590016
719,-7.9007282619263774
720,16.464016827949763
619,3952.024031023533
633,1534.470206818245
659,7.743566859152083
661,0.0
690,156.26077926207046
716,0.0
843,4885.670998533664
844,4885.670998533664
907,0.0
908,0.0
971,0.0
972,0.0
1195,3090.3520205228656
1197,3090.3520205228656
2,1, 1,20, 0, 3, 0.00,60.00,Monday
7,-13.0
718,18.607174886541376
719,-7.189760855449143
720,16.206722124250955
619,3908.531897044777
633,1515.502655805131
659,21.660440721956483
661,0.0
690,156.26077926207046
716,0.0
843,4677.046742552318
844,4677.046742552318
907,0.0
908,0.0
971,0.0
972,0.0
1195,2892.1291692660284
1197,2892.1291692660284
2,1, 1,20, 0, 4, 0.00,60.00,Monday
7,-13.0
718,18.606978556813115
719,-7.23188153140994
720,15.908900003756125
619,3933.166766196245
633,1524.254910673173
659,14.205376953634104
661,0.0
690,156.26077926207046
716,0.0
843,4842.506719067738
844,4842.506719067738
907,0.0
908,0.0
971,0.0
972,0.0
1195,3041.7074861523206
1197,3041.7074861523206
2,1, 1,20, 0, 5, 0.00,60.00,Monday
7,-13.0
718,18.603803986908396
719,-7.200815945672537
720,15.658158407929308
619,3933.571153837509
633,1523.8287239268325
659,14.205376953634104
661,0.0
690,156.26077926207046
716,0.0
843,4838.179347157502
844,4838.179347157502
907,0.0
908,0.0
971,0.0
972,0.0
1195,3034.0073589080016
1197,3034.0073589080016
2,1, 1,20, 0, 6, 0.00,60.00,Monday
7,-13.0
718,19.37724276662853
719,-7.0120704510667355
720,15.42266238782057
619,3933.990228793779
633,1523.387003332084
659,14.205376953634104
661,0.0
690,156.26077926207046
716,0.0
843,5831.672751098235
844,5831.672751098235
907,0.0
908,0.0
971,0.0
972,0.0
1195,4234.214590188405
1197,4234.214590188405
2,1, 1,20, 0, 7, 0.00,60.00,Monday
7,-12.0
718,19.57726867163723
719,-6.595213315431318
720,15.243276166859472
619,4033.705579022665
633,1556.7244411726238
659,16.347937419469773
661,0.0
690,156.26077926207046
716,85.44000000000004
843,5573.277242372171
844,5573.277242372171
907,0.0
908,0.0
971,0.0
972,0.0
1195,4954.863294481873
1197,4954.863294481873
2,1, 1,20, 0, 8, 0.00,60.00,Monday
7,-12.0
718,19.650697881931382
719,-6.033685638866909
720,15.040379107513388
619,4052.0117219937683
633,1571.1983401777459
659,9.295023539736192
661,0.0
690,156.26077926207046
716,85.44000000000004
843,5505.964467459178
844,5505.964467459178
907,0.0
908,0.0
971,0.0
972,0.0
1195,4960.957675628873
1197,4960.957675628873
2,1, 1,20, 0, 9, 0.00,60.00,Monday
7,-12.0
718,19.694041136732977
719,-5.3884846313395895
720,14.85750402159912
619,4073.9529626132726
633,1582.181855052378
659,2.161722443293896
661,0.0
690,156.26077926207046
716,26.95242667366494
843,5235.654844716322
844,5235.654844716322
907,0.0
908,0.0
971,0.0
972,0.0
1195,3739.2079225178086
1197,3739.2079225178086
2,1, 1,20, 0,10, 0.00,60.00,Monday
7,-12.0
718,19.714922009620963
719,-4.871900351735596
720,14.681594900513636
619,4026.04083472802
633,1564.8944867576074
659,16.347937419469773
661,0.0
690,156.26077926207046
716,0.0
843,4917.899978862963
844,4917.899978862963
907,0.0
908,0.0
971,0.0
972,0.0
1195,3057.742793481657
1197,3057.742793481657
2,1, 1,20, 0,11, 0.00,60.00,Monday
7,-12.0
718,19.71418078898095
719,-4.491178961129788
720,14.513498925691419
619,3998.811978120263
633,1554.7498698356378
659,24.47653745806939
661,0.0
690,156.26077926207046
716,0.0
843,4887.892042447178
844,4887.892042447178
907,0.0
908,0.0
971,0.0
972,0.0
1195,3015.2347691168447
1197,3015.2347691168447
2,1, 1,20, 0,12, 0.00,60.00,Monday
7,-12.0
718,19.716798673937085
719,-5.073524222941683
720,14.353011889000182
619,3972.505105109585
633,1544.1314469061897
659,32.49965356639343
661,0.0
690,156.26077926207046
716,0.0
843,4990.859613723525
844,4990.859613723525
907,0.0
908,0.0
971,0.0
972,0.0
1195,3161.930509895564
1197,3161.930509895564
2,1, 1,20, 0,13, 0.00,60.00,Monday
7,-11.0
718,19.715060736663762
719,-4.9009123901917055
720,14.208084898401824
619,4116.766729318602
633,1564.9990536784271
659,27.57792758373602
661,0.0
690,156.26077926207046
716,0.0
843,4835.487858022741
844,4835.487858022741
907,0.0
908,0.0
971,0.0
972,0.0
1195,2859.7403753712224
1197,2859.7403753712224
2,1, 1,20, 0,14, 0.00,60.00,Monday
7,-11.0
718,19.70197073607604
719,-4.690717111717802
720,14.062924320023996
619,4117.041249427255
633,1564.70161971723
659,27.57792758373602
661,0.0
690,156.26077926207046
716,82.88304374351738
843,5067.833435464445
844,5067.833435464445
907,0.0
908,0.0
971,0.0
972,0.0
1195,4180.949315170141
1197,4180.949315170141
2,1, 1,20, 0,15, 0.00,60.00,Monday
7,-11.0
718,19.712431717881252
719,-4.352026832840151
720,13.931170130266583
619,4117.5892233908235
633,1564.107849930883
659,27.57792758373602
661,0.0
690,156.26077926207046
716,0.0
843,4819.632192823734
844,4819.632192823734
907,0.0
908,0.0
971,0.0
972,0.0
1195,2826.6701961938047
1197,2826.6701961938047
2,1, 1,20, 0,16, 0.00,60.00,Monday
7,-10.0
718,19.725063360895057
719,-2.735257332655965
720,13.818106123797579
619,4235.5494808683625
633,1574.2101421603468
659,30.98680542621267
661,0.0
690,156.26077926207046
716,0.0
843,3326.592143246111
844,3326.592143246111
907,0.0
908,0.0
971,0.0
972,0.0
1195,922.4126683403656
1197,922.4126683403656
2,1, 1,20, 0,17, 0.00,60.00,Monday
7,-10.0
718,19.725174984870943
719,-3.7728763441960647
720,13.715888143359816
619,4234.428989709078
633,1583.695458646431
659,22.718813220785986
661,0.1913961105085571
690,155.1785686878148
716,0.0
843,2630.960008089445
844,2630.960008089445
907,0.0
908,0.0
971,0.0
972,0.0
1195,0.0
1197,0.0
2,1, 1,20, 0,18, 0.00,60.00,Monday
7,-11.0
718,19.719961419965717
719,-4.752200589810811
720,13.630711907384704
619,4083.3801537156432
633,1551.3104657381773
659,37.54256702372333
661,0.0
690,156.26077926207046
716,0.0
843,3191.609918285634
844,3191.609918285634
907,0.0
908,0.0
971,0.0
972,0.0
1195,881.6387312688134
1197,881.6387312688134
2,1, 1,20, 0,19, 0.00,60.00,Monday
7,-10.0
718,19.701680366638413
719,-4.258556141386428
720,13.563364430575472
619,4235.772737726209
633,1573.964358538692
659,30.98680542621267
661,0.0
690,156.26077926207046
716,85.44000000000004
843,3171.208220399687
844,3171.208220399687
907,0.0
908,0.0
971,0.0
972,0.0
1195,1929.7773275993832
1197,1929.7773275993832
2,1, 1,20, 0,20, 0.00,60.00,Monday
7,-11.0
718,19.706190954399258
719,-5.0055192213120705
720,13.465671884569185
619,4144.236900093646
633,1573.168423794076
659,19.997272495097512
661,0.0
690,156.26077926207046
716,85.44000000000004
843,3675.1843318032625
844,3675.1843318032625
907,0.0
908,0.0
971,0.0
972,0.0
1195,2632.855046841982
1197,2632.855046841982
2,1, 1,20, 0,21, 0.00,60.00,Monday
7,-12.0
718,19.700908162765344
719,-5.812461511379213
720,13.36387167339954
619,4027.7762546056188
633,1563.0461822089494
659,16.347937419469773
661,0.0
690,156.26077926207046
716,74.18840706133034
843,4051.559283773653
844,4051.559283773653
907,0.0
908,0.0
971,0.0
972,0.0
1195,3055.656509325059
1197,3055.656509325059
2,1, 1,20, 0,22, 0.00,60.00,Monday
7,-13.0
718,19.712291429368587
719,-6.414200257483112
720,13.25626615446287
619,3884.335476546672
633,1540.9011937513433
659,21.660440721956483
661,0.0
690,156.26077926207046
716,0.0
843,4257.359140422002
844,4257.359140422002
907,0.0
908,0.0
971,0.0
972,0.0
1195,2473.8602551176286
1197,2473.8602551176286
2,1, 1,20, 0,23, 0.00,60.00,Monday
7,-15.0
718,18.951240327757258
719,-8.900747483939234
720,13.127842820432047
619,3672.382692527024
633,1523.8383171809696
659,10.550188041314739
661,0.0
690,156.26077926207046
716,0.0
843,4120.76000172221
844,4120.76000172221
907,0.0
908,0.0
971,0.0
972,0.0
1195,2571.896044039043
1197,2571.896044039043
2,1, 1,20, 0,24, 0.00,60.00,Monday
7,-16.0
718,18.7098527944015
719,-10.136247668195441
720,12.968787492773822
619,3593.5503979766486
633,1496.841172704721
659,3.2363989430903444
661,0.0
690,156.26077926207046
716,0.0
843,5035.656382042031
844,5035.656382042031
907,0.0
908,0.0
971,0.0
972,0.0
1195,3812.285737647692
1197,3812.285737647692
2,2, 1,21, 0, 1, 0.00,60.00,Tuesday
7,-17.0
718,18.633580176302107
719,-11.303544385571733
720,12.828741600669106
619,3470.959898928902
633,1470.1211796567654
659,6.87439694079189
661,0.0
690,156.26077926207046
716,0.0
843,5654.904440252703
844,5654.904440252703
907,0.0
908,0.0
971,0.0
972,0.0
1195,4739.323645004455
1197,4739.323645004455
2,2, 1,21, 0, 2, 0.00,60.00,Tuesday
7,-17.0
718,18.59908003046364
719,-12.428737264682693
720,12.678776733800428
619,3485.974533698212
633,1473.3856173334102
659,2.3606126726644483
661,0.0
690,156.26077926207046
716,0.0
843,7339.665410628782
844,7339.665410628782
907,0.0
908,0.0
971,0.0
972,0.0
1195,6798.339715376498
1197,6798.339715376498
2,2, 1,21, 0, 3, 0.00,60.00,Tuesday
7,-17.0
718,18.6069065312844
719,-11.282393971641548
720,12.541388618867503
619,3487.015108204127
633,1472.3770821814574
659,2.3606126726644483
661,0.0
690,156.26077926207046
716,0.0
843,6215.615310344017
844,6215.615310344017
907,0.0
908,0.0
971,0.0
972,0.0
1195,5531.522154502378
1197,5531.522154502378
2,2, 1,21, 0, 4, 0.00,60.00,Tuesday
7,-18.0
718,18.589615781155345
719,-12.232671781106959
720,12.371499963754976
619,3372.665651599154
633,1456.9588480751204
659,1.5973446167390477
661,0.0
690,156.26077926207046
716,0.0
843,7788.1113102937
844,7788.1113102937
907,0.0
908,0.0
971,0.0
972,0.0
1195,7477.195826383209
1197,7477.195826383209
2,2, 1,21, 0, 5, 0.00,60.00,Tuesday
7,-18.0
718,18.602421109022714
719,-11.79658195326898
720,12.232727211088232
619,3361.998652743808
633,1451.5032998467746
659,5.7124013848281185
661,0.0
690,156.26077926207046
716,0.0
843,6843.282749371872
844,6843.282749371872
907,0.0
908,0.0
971,0.0
972,0.0
1195,6420.45843247125
1197,6420.45843247125
2,2, 1,21, 0, 6, 0.00,60.00,Tuesday
7,-18.0
718,19.311834366578594
719,-11.993938894239415
720,12.081310586186385
619,3361.857090418092
633,1451.6371281504912
659,5.7124013848281185
661,0.0
690,156.26077926207046
716,0.0
843,8033.245100634331
844,8033.245100634331
907,0.0
908,0.0
971,0.0
972,0.0
1195,7651.001887288185
1197,7651.001887288185
2,2, 1,21, 0, 7, 0.00,60.00,Tuesday
7,-18.0
718,19.33340214201996
719,-11.633581330134055
720,11.96785634239953
619,3355.066438456783
633,1473.5060612707532
659,1.5973446167390477
661,0.0
690,156.26077926207046
716,85.44000000000004
843,7408.533475427885
844,7408.533475427885
907,0.0
908,0.0
971,0.0
972,0.0
1195,7651.001887288185
1197,7651.001887288185
2,2, 1,21, 0, 8, 0.00,60.00,Tuesday
7,-18.0
718,19.320598687472845
719,-11.415362624905663
720,11.819412482609657
619,3354.674831490127
633,1473.872304781609
659,1.5973446167390477
661,0.0
690,156.26077926207046
716,85.44000000000004
843,7356.856574897978
844,7356.856574897978
907,0.0
908,0.0
971,0.0
972,0.0
1195,7651.001887288185
1197,7651.001887288185
2,2, 1,21, 0, 9, 0.00,60.00,Tuesday
7,-18.0
718,19.5516064162311
719,-11.123696258774762
720,11.687545604214232
619,3343.949034809551
633,1468.4775940428747
659,5.7124013848281185
661,0.0
690,156.26077926207046
716,85.44000000000004
843,6616.923704536683
844,6616.923704536683
907,0.0
908,0.0
971,0.0
972,0.0
1195,7330.550817167179
1197,7330.550817167179
2,2, 1,21, 0,10, 0.00,60.00,Tuesday
7,-17.0
718,19.652304610136873
719,-9.68525314373859
720,11.570826711245726
619,3463.6825231244766
633,1494.8594892726355
659,2.3606126726644483
661,0.0
690,156.26077926207046
716,49.92995161850216
843,6475.2195989440315
844,6475.2195989440315
907,0.0
908,0.0
971,0.0
972,0.0
1195,6478.50687596555
1197,6478.50687596555
2,2, 1,21, 0,11, 0.00,60.00,Tuesday
7,-17.0
718,19.703449079309383
719,-9.181954094202133
720,11.447620687891545
619,3461.238865114253
633,1497.1979403922992
659,2.3606126726644483
661,0.0
690,156.26077926207046
716,0.0
843,5924.796021198543
844,5924.796021198543
907,0.0
908,0.0
971,0.0
972,0.0
1195,5168.185261708937
1197,5168.185261708937
2,2, 1,21, 0,12, 0.00,60.00,Tuesday
7,-16.0
718,19.715514825021955
719,-5.949561591603338
720,11.352952449468356
619,3576.2146702612827
633,1513.903858008411
659,3.2363989430903444
661,0.0
690,156.26077926207046
716,0.0
843,4532.536743696974
844,4532.536743696974
907,0.0
908,0.0
971,0.0
972,0.0
1195,3344.5163552984905
1197,3344.5163552984905
2,2, 1,21, 0,13, 0.00,60.00,Tuesday
7,-16.0
718,19.724344651655525
719,-3.965297793894554
720,11.267456626386481
619,3585.210919703054
633,1517.9609059316385
659,0.08517535815386236
661,0.0
690,156.26077926207046
716,0.0
843,3983.034560207636
844,3983.034560207636
907,0.0
908,0.0
971,0.0
972,0.0
1195,2514.366683601263
1197,2514.366683601263
2,2, 1,21, 0,14, 0.00,60.00,Tuesday
7,-14.0
718,19.71863522461878
719,-4.82223542887416
720,11.22404793716026
619,3830.0821715828656
633,1550.2129584957927
659,0.08517535815386236
661,0.0
690,156.26077926207046
716,0.0
843,3920.6686626098362
844,3920.6686626098362
907,0.0
908,0.0
971,0.0
972,0.0
1195,2078.349175371777
1197,2078.349175371777
2,2, 1,21, 0,15, 0.00,60.00,Tuesday
7,-14.0
718,19.72350706325902
719,-3.625535663951842
720,11.187348661863085
619,3829.29825531932
633,1549.6447562559163
659,0.39367102970700446
661,0.0
690,156.26077926207046
716,0.0
843,3256.719774712634
844,3256.719774712634
907,0.0
908,0.0
971,0.0
972,0.0
1195,1343.267740191886
1197,1343.267740191886
2,2, 1,21, 0,16, 0.00,60.00,Tuesday
7,-14.0
718,19.717603441082606
719,-5.344637345946865
720,11.162269355283527
619,3829.2540493710967
633,1549.6900926135047
659,0.39367102970700446
661,0.0
690,156.26077926207046
716,0.0
843,3689.7838067154826
844,3689.7838067154826
907,0.0
908,0.0
971,0.0
972,0.0
1195,1787.1075915591362
1197,1787.1075915591362
2,2, 1,21, 0,17, 0.00,60.00,Tuesday
7,-14.0
718,19.72040312810788
719,-5.577788558959846
720,11.145497847026505
619,3810.8550789177257
633,1542.0027216820895
659,6.3642671639624195
661,0.0
690,156.26077926207046
716,0.0
843,3219.444099681674
844,3219.444099681674
907,0.0
908,0.0
971,0.0
972,0.0
1195,1346.5514684409045
1197,1346.5514684409045
2,2, 1,21, 0,18, 0.00,60.00,Tuesday
7,-14.0
718,19.712581848521182
719,-6.874692337796138
720,11.123977825865172
619,3830.3441805562493
633,1549.9442518291803
659,0.08517535815386236
661,0.0
690,156.26077926207046
716,68.51656396084323
843,3802.181020001395
844,3802.181020001395
907,0.0
908,0.0
971,0.0
972,0.0
1195,2842.8081715635844
1197,2842.8081715635844
2,2, 1,21, 0,19, 0.00,60.00,Tuesday
7,-14.0
718,19.721478013445935
719,-7.051123666959922
720,11.094267248343778
619,3811.022322138513
633,1541.8311869414622
659,6.3642671639624195
661,0.0
690,156.26077926207046
716,0.0
843,3668.40833826939
844,3668.40833826939
907,0.0
908,0.0
971,0.0
972,0.0
1195,1968.053481201151
1197,1968.053481201151
2,2, 1,21, 0,20, 0.00,60.00,Tuesday
7,-14.0
718,19.71102572895649
719,-7.748677744259036
720,11.047923333662613
619,3810.8393595927923
633,1542.0188438154646
659,6.3642671639624195
661,0.0
690,156.26077926207046
716,85.44000000000004
843,3776.1526969601637
844,3776.1526969601637
907,0.0
908,0.0
971,0.0
972,0.0
1195,3311.387301178364
1197,3311.387301178364
2,2, 1,21, 0,21, 0.00,60.00,Tuesday
7,-15.0
718,19.70127820823946
719,-7.321790279002291
720,10.984302631021716
619,3675.5380621174127
633,1520.673662239004
659,10.550188041314739
661,0.0
690,156.26077926207046
716,85.44000000000004
843,3912.612448626938
844,3912.612448626938
907,0.0
908,0.0
971,0.0
972,0.0
1195,3658.15440141823
1197,3658.15440141823
2,2, 1,21, 0,22, 0.00,60.00,Tuesday
7,-14.0
718,19.70646874717308
719,-7.58520401176167
720,10.926388711733582
619,3811.5106879178516
633,1541.3302277775472
659,6.3642671639624195
661,0.0
690,156.26077926207046
716,85.44000000000004
843,4078.8673886247634
844,4078.8673886247634
907,0.0
908,0.0
971,0.0
972,0.0
1195,3508.5129039248236
1197,3508.5129039248236
2,2, 1,21, 0,23, 0.00,60.00,Tuesday
7,-14.0
718,18.969941339808184
719,-6.914129035821228
720,10.853311166643406
619,3793.0538651340066
633,1533.9525857280912
659,12.278573226593846
661,0.0
690,156.26077926207046
716,6.461876109260426
843,3211.5220905302303
844,3211.5220905302303
907,0.0
908,0.0
971,0.0
972,0.0
1195,1555.541642164012
1197,1555.541642164012
2,2, 1,21, 0,24, 0.00,60.00,Tuesday
7,-14.0
718,18.72220445265086
719,-7.763562432315313
720,10.743705191238353
619,3830.9814407341823
633,1521.2837011451588
659,6.3642671639624195
661,0.0
690,156.26077926207046
716,0.0
843,3792.1258115199453
844,3792.1258115199453
907,0.0
908,0.0
971,0.0
972,0.0
1195,2032.0278890160196
1197,2032.0278890160196
2,3, 1,22, 0, 1, 0.00,60.00,Wednesday
7,-14.0
718,18.640122129640492
719,-7.981400413613368
720,10.657483104691227
619,3837.626556202278
633,1514.4099349460378
659,6.3642671639624195
661,0.0
690,156.26077926207046
716,0.0
843,4360.448881951477
844,4360.448881951477
907,0.0
908,0.0
971,0.0
972,0.0
1195,2740.841342284953
1197,2740.841342284953
2,3, 1,22, 0, 2, 0.00,60.00,Wednesday
7,-13.0
718,18.613697780517175
719,-7.577794927129134
720,10.577836273435429
619,3982.0791876710205
633,1533.1919596372306
659,1.2144282552179717
661,0.0
690,156.26077926207046
716,0.0
843,4566.434185304444
844,4566.434185304444
907,0.0
908,0.0
971,0.0
972,0.0
1195,2838.286652063866
1197,2838.286652063866
2,3, 1,22, 0, 3, 0.00,60.00,Wednesday
7,-13.0
718,18.608794866680228
719,-7.513361714209575
720,10.491197279592768
619,3982.8876055214773
633,1532.3381688669137
659,1.2144282552179717
661,0.0
690,156.26077926207046
716,0.0
843,4725.835905555157
844,4725.835905555157
907,0.0
908,0.0
971,0.0
972,0.0
1195,3015.1836565951935
1197,3015.1836565951935
2,3, 1,22, 0, 4, 0.00,60.00,Wednesday
7,-14.0
718,18.602790347709718
719,-7.367587235023957
720,10.400117064859845
619,3840.9412721727563
633,1510.975211202435
659,6.3642671639624195
661,0.0
690,156.26077926207046
716,0.0
843,4984.29913040304
844,4984.29913040304
907,0.0
908,0.0
971,0.0
972,0.0
1195,3451.666473759353
1197,3451.666473759353
2,3, 1,22, 0, 5, 0.00,60.00,Wednesday
7,-14.0
718,18.60560640083803
719,-7.603242174370868
720,10.319275995492005
619,3822.688247507928
633,1503.3861499786858
659,12.278573226593846
661,0.0
690,156.26077926207046
716,0.0
843,5001.6586487581735
844,5001.6586487581735
907,0.0
908,0.0
971,0.0
972,0.0
1195,3497.547942979485
1197,3497.547942979485
2,3, 1,22, 0, 6, 0.00,60.00,Wednesday
7,-14.0
718,19.278082194165627
719,-6.872939973336488
720,10.239189142631922
619,3841.2715653973946
633,1510.6327449293221
659,6.3642671639624195
661,0.0
690,156.26077926207046
716,74.15116893178973
843,6081.858408482223
844,6081.858408482223
907,0.0
908,0.0
971,0.0
972,0.0
1195,5595.470083039419
1197,5595.470083039419
2,3, 1,22, 0, 7, 0.00,60.00,Wednesday
7,-14.0
718,19.535092662821498
719,-6.510890977554058
720,10.192922577591714
619,3805.323026719132
633,1521.3373238853155
659,12.278573226593846
661,0.0
690,156.26077926207046
716,85.44000000000004
843,5875.866710968132
844,5875.866710968132
907,0.0
908,0.0
971,0.0
972,0.0
1195,5718.52835084267
1197,5718.52835084267
2,3, 1,22, 0, 8, 0.00,60.00,Wednesday
7,-14.0
718,19.640378234776463
719,-6.151095325668631
720,10.126524373450936
619,3798.644159449637
633,1528.2117165693041
659,12.278573226593846
661,0.0
690,156.26077926207046
716,85.44000000000004
843,5582.789598645175
844,5582.789598645175
907,0.0
908,0.0
971,0.0
972,0.0
1195,5376.212255113653
1197,5376.212255113653
2,3, 1,22, 0, 9, 0.00,60.00,Wednesday
7,-13.0
718,19.69688229044877
719,-6.0615706034163175
720,10.069355861965605
619,3956.3315212176203
633,1560.2766813435564
659,1.2144282552179717
661,0.0
690,156.26077926207046
716,10.56042183884122
843,5559.60514916821
844,5559.60514916821
907,0.0
908,0.0
971,0.0
972,0.0
1195,4189.658053377528
1197,4189.658053377528
2,3, 1,22, 0,10, 0.00,60.00,Wednesday
7,-13.0
718,19.70700833951638
719,-5.344394501963152
720,10.00311284582349
619,3913.1680592467847
633,1545.2653671450742
659,14.205376953634104
661,0.0
690,156.26077926207046
716,0.0
843,5556.58180202487
844,5556.58180202487
907,0.0
908,0.0
971,0.0
972,0.0
1195,4088.4160487949625
1197,4088.4160487949625
2,3, 1,22, 0,11, 0.00,60.00,Wednesday
7,-13.0
718,19.716635486826238
719,-3.7763642357502865
720,9.940903896114294
619,3889.0405061203933
633,1535.977828656022
659,21.660440721956483
661,0.0
690,156.26077926207046
716,0.0
843,5264.471328734917
844,5264.471328734917
907,0.0
908,0.0
971,0.0
972,0.0
1195,3741.9345289586827
1197,3741.9345289586827
2,3, 1,22, 0,12, 0.00,60.00,Wednesday
7,-12.0
718,19.71653205153524
719,-2.3518210376349264
720,9.892694538509435
619,4005.6492544854987
633,1547.4632448449906
659,24.47653745806939
661,0.0
690,156.26077926207046
716,0.0
843,4734.588619664382
844,4734.588619664382
907,0.0
908,0.0
971,0.0
972,0.0
1195,2892.2566973927337
1197,2892.2566973927337
2,3, 1,22, 0,13, 0.00,60.00,Wednesday
7,-11.0
718,19.720011309003333
719,-1.9579097185636378
720,9.850574980972722
619,4123.275800424999
633,1557.941580222979
659,27.57792758373602
661,0.0
690,156.26077926207046
716,0.0
843,4621.792900498092
844,4621.792900498092
907,0.0
908,0.0
971,0.0
972,0.0
1195,2577.3834286649685
1197,2577.3834286649685
2,3, 1,22, 0,14, 0.00,60.00,Wednesday
7,-10.0
718,19.718821477425557
719,0.16687756046304866
720,9.822125925960352
619,4241.325986392821
633,1567.8475371147415
659,30.98680542621267
661,0.0
690,156.26077926207046
716,0.0
843,4220.185132237328
844,4220.185132237328
907,0.0
908,0.0
971,0.0
972,0.0
1195,1953.3055393564382
1197,1953.3055393564382
2,3, 1,22, 0,15, 0.00,60.00,Wednesday
7,-9.0
718,19.71376661615221
719,2.1103836769506357
720,9.808550685613309
619,4392.410796220775
633,1588.789799704316
659,25.766914286696583
661,0.0
690,156.26077926207046
716,71.38755999291973
843,3230.0500279334065
844,3230.0500279334065
907,0.0
908,0.0
971,0.0
972,0.0
1195,1389.2893902621568
1197,1389.2893902621568
2,3, 1,22, 0,16, 0.00,60.00,Wednesday
7,-9.0
718,19.71790105835754
719,0.5136608858601445
720,9.801524835154476
619,4354.550664891528
633,1574.84837993006
659,36.20739214724971
661,0.0
690,156.26077926207046
716,85.44000000000004
843,2797.3536506742785
844,2797.3536506742785
907,0.0
908,0.0
971,0.0
972,0.0
1195,1012.6118390278157
1197,1012.6118390278157
2,3, 1,22, 0,17, 0.00,60.00,Wednesday
7,-8.0
718,19.719642662634357
719,-0.37042024250889516
720,9.817895235734094
619,4514.895967963738
633,1598.2982644510098
659,29.097881542423462
661,0.0
690,156.26077926207046
716,12.707422619223422
843,2812.095989434356
844,2812.095989434356
907,0.0
908,0.0
971,0.0
972,0.0
1195,31.96191908748733
1197,31.96191908748733
2,3, 1,22, 0,18, 0.00,60.00,Wednesday
7,-9.0
718,19.71878248679892
719,-2.2247956287192543
720,9.818759622398817
619,4354.382091801014
633,1575.0367940925462
659,36.20739214724971
661,0.0
690,156.26077926207046
716,0.0
843,3296.627547531949
844,3296.627547531949
907,0.0
908,0.0
971,0.0
972,0.0
1195,650.4722110594585
1197,650.4722110594585
2,3, 1,22, 0,19, 0.00,60.00,Wednesday
7,-10.0
718,19.7182428443158
719,-4.039121130370151
720,9.814172134459795
619,4241.375715747601
633,1567.792733099231
659,30.98680542621267
661,0.0
690,156.26077926207046
716,0.0
843,3388.807354282875
844,3388.807354282875
907,0.0
908,0.0
971,0.0
972,0.0
1195,978.4787953655309
1197,978.4787953655309
2,3, 1,22, 0,20, 0.00,60.00,Wednesday
7,-11.0
718,19.712724674127006
719,-4.95603963075049
720,9.796665021454833
619,4089.185567071988
633,1545.0154115631726
659,37.54256702372333
661,0.0
690,156.26077926207046
716,85.44000000000004
843,3348.9847740723944
844,3348.9847740723944
907,0.0
908,0.0
971,0.0
972,0.0
1195,2389.018862772462
1197,2389.018862772462
2,3, 1,22, 0,21, 0.00,60.00,Wednesday
7,-11.0
718,19.703164172515383
719,-5.481495299209433
720,9.772472763240414
619,4089.356361396182
633,1544.8300842077288
659,37.54256702372333
661,0.0
690,156.26077926207046
716,85.44000000000004
843,3421.824148181642
844,3421.824148181642
907,0.0
908,0.0
971,0.0
972,0.0
1195,2531.6587674483408
1197,2531.6587674483408
2,3, 1,22, 0,22, 0.00,60.00,Wednesday
7,-12.0
718,19.71059177627646
719,-5.984399205509391
720,9.727533734046496
619,3949.6079560702474
633,1524.9656764131119
659,41.54237967940005
661,0.0
690,156.26077926207046
716,40.81710957450359
843,3794.789712619433
844,3794.789712619433
907,0.0
908,0.0
971,0.0
972,0.0
1195,2451.5826347121774
1197,2451.5826347121774
2,3, 1,22, 0,23, 0.00,60.00,Wednesday
7,-12.0
718,18.961362380466202
719,-6.451771480099149
720,9.683794370052333
619,3979.4908659947746
633,1536.6858141800901
659,32.49965356639343
661,0.0
690,156.26077926207046
716,0.0
843,3113.317108737214
844,3113.317108737214
907,0.0
908,0.0
971,0.0
972,0.0
1195,1124.3876009627754
1197,1124.3876009627754
2,3, 1,22, 0,24, 0.00,60.00,Wednesday
7,-12.0
718,18.71960089891755
719,-6.21875585737937
720,9.592147803072105
619,3968.9321055172363
633,1504.2943269749815
659,41.54237967940005
661,0.0
690,156.26077926207046
716,0.0
843,3785.9715994293565
844,3785.9715994293565
907,0.0
908,0.0
971,0.0
972,0.0
1195,1894.840070271985
1197,1894.840070271985
2,4, 1,23, 0, 1, 0.00,60.00,Thursday
7,-12.0
718,18.6427437655079
719,-6.517938067818116
720,9.52775879440241
619,4059.3983744737425
633,1529.21592545466
659,16.347937419469773
661,0.0
690,156.26077926207046
716,0.0
843,4077.9408979993277
844,4077.9408979993277
907,0.0
908,0.0
971,0.0
972,0.0
1195,2124.7778616059854
1197,2124.7778616059854
2,4, 1,23, 0, 2, 0.00,60.00,Thursday
7,-12.0
718,18.614674498772164
719,-6.5899414260848035
720,9.455714087132597
619,3977.304642667611
633,1495.3056742039635
659,41.54237967940005
661,0.0
690,156.26077926207046
716,0.0
843,4411.597897008118
844,4411.597897008118
907,0.0
908,0.0
971,0.0
972,0.0
1195,2606.820135809605
1197,2606.820135809605
2,4, 1,23, 0, 3, 0.00,60.00,Thursday
7,-12.0
718,18.609356261403814
719,-6.56720186493825
720,9.38400295629512
619,3978.1155540760033
633,1494.4340912835855
659,41.54237967940005
661,0.0
690,156.26077926207046
716,0.0
843,4509.632726605956
844,4509.632726605956
907,0.0
908,0.0
971,0.0
972,0.0
1195,2734.772680914812
1197,2734.772680914812
2,4, 1,23, 0, 4, 0.00,60.00,Thursday
7,-14.0
718,18.601198764202625
719,-7.240992526070973
720,9.296097030957144
619,3802.5709673276074
633,1493.6247756907942
659,19.108508768046022
661,0.0
690,156.26077926207046
716,0.0
843,5156.667310175386
844,5156.667310175386
907,0.0
908,0.0
971,0.0
972,0.0
1195,3673.8524634244804
1197,3673.8524634244804
2,4, 1,23, 0, 5, 0.00,60.00,Thursday
7,-13.0
718,18.604608902393025
719,-7.470939124519626
720,9.235123859805464
619,3868.109124150188
633,1485.0811178406664
659,37.33916570470117
661,0.0
690,156.26077926207046
716,0.0
843,5137.6998575654125
844,5137.6998575654125
907,0.0
908,0.0
971,0.0
972,0.0
1195,3640.4804196960968
1197,3640.4804196960968
2,4, 1,23, 0, 6, 0.00,60.00,Thursday
7,-11.0
718,19.380846571696814
719,-7.162038281985751
720,9.17698243901737
619,4119.019263043937
633,1512.5386416726176
659,37.54256702372333
661,0.0
690,156.26077926207046
716,0.0
843,6035.401942214194
844,6035.401942214194
907,0.0
908,0.0
971,0.0
972,0.0
1195,4455.802577388364
1197,4455.802577388364
2,4, 1,23, 0, 7, 0.00,60.00,Thursday
7,-12.0
718,19.569902150158637
719,-6.414327726918621
720,9.135294386838712
619,3958.8600507122414
633,1515.0819310381999
659,41.54237967940005
661,0.0
690,156.26077926207046
716,85.44000000000004
843,6063.420703291735
844,6063.420703291735
907,0.0
908,0.0
971,0.0
972,0.0
1195,5924.3526322661055
1197,5924.3526322661055
2,4, 1,23, 0, 8, 0.00,60.00,Thursday
7,-12.0
718,19.65348171942318
719,-6.395718531258418
720,9.074159534438504
619,3954.024646262602
633,1520.2505792759084
659,41.54237967940005
661,0.0
690,156.26077926207046
716,85.44000000000004
843,5789.4186807830865
844,5789.4186807830865
907,0.0
908,0.0
971,0.0
972,0.0
1195,5609.665309157711
1197,5609.665309157711
2,4, 1,23, 0, 9, 0.00,60.00,Thursday
7,-13.0
718,19.68393783076116
719,-5.965301387038525
720,9.008844456881757
619,3841.3773299568197
633,1513.2191360169866