Program Version,EnergyPlus, Version 22.2.0-c249759bad, YMD=2023.09.01 20:51
1,5,Environment Title[],Latitude[deg],Longitude[deg],Time Zone[],Elevation[m]
2,8,Day of Simulation[],Month[],Day of Month[],DST Indicator[1=yes 0=no],Hour[],StartMinute[],EndMinute[],DayType
3,5,Cumulative Day of Simulation[],Month[],Day of Month[],DST Indicator[1=yes 0=no],DayType  ! When Daily Report Variables Requested
4,2,Cumulative Days of Simulation[],Month[]  ! When Monthly Report Variables Requested
5,1,Cumulative Days of Simulation[] ! When Run Period Report Variables Requested
6,1,Calendar Year of Simulation[] ! When Annual Report Variables Requested
581,11,LIVING,AFN Zone Infiltration Air Change Rate [ach] !RunPeriod [Value,Min,Month,Day,Hour,Minute,Max,Month,Day,Hour,Minute]
582,11,ATTIC,AFN Zone Infiltration Air Change Rate [ach] !RunPeriod [Value,Min,Month,Day,Hour,Minute,Max,Month,Day,Hour,Minute]
583,11,CRAWLSPACE,AFN Zone Infiltration Air Change Rate [ach] !RunPeriod [Value,Min,Month,Day,Hour,Minute,Max,Month,Day,Hour,Minute]
1038,11,Facility,Facility Heating Setpoint Not Met Time [hr] !RunPeriod [Value,Min,Month,Day,Hour,Minute,Max,Month,Day,Hour,Minute]
1039,11,Facility,Facility Cooling Setpoint Not Met Time [hr] !RunPeriod [Value,Min,Month,Day,Hour,Minute,Max,Month,Day,Hour,Minute]
1115,11,DX_HEATING_COIL,Heating Coil Heating Energy [J] !RunPeriod [Value,Min,Month,Day,Hour,Minute,Max,Month,Day,Hour,Minute]
1128,11,DX_HEATING_COIL,Heating Coil Electricity Energy [J] !RunPeriod [Value,Min,Month,Day,Hour,Minute,Max,Month,Day,Hour,Minute]
1153,11,DX_HEATING_COIL,Heating Coil Defrost Electricity Energy [J] !RunPeriod [Value,Min,Month,Day,Hour,Minute,Max,Month,Day,Hour,Minute]
1154,11,DX_HEATING_COIL,Heating Coil Crankcase Heater Electricity Energy [J] !RunPeriod [Value,Min,Month,Day,Hour,Minute,Max,Month,Day,Hour,Minute]
1155,11,HEATING_RESISTANCE_BACKUP,Heating Coil Heating Energy [J] !RunPeriod [Value,Min,Month,Day,Hour,Minute,Max,Month,Day,Hour,Minute]
1156,11,HEATING_RESISTANCE_BACKUP,Heating Coil Electricity Energy [J] !RunPeriod [Value,Min,Month,Day,Hour,Minute,Max,Month,Day,Hour,Minute]
1292,11,WATER HEATER,Water Heater Heat Loss Energy [J] !RunPeriod [Value,Min,Month,Day,Hour,Minute,Max,Month,Day,Hour,Minute]
1306,11,WATER HEATER,Water Heater Heating Energy [J] !RunPeriod [Value,Min,Month,Day,Hour,Minute,Max,Month,Day,Hour,Minute]
1307,11,WATER HEATER,Water Heater Unmet Demand Heat Transfer Energy [J] !RunPeriod [Value,Min,Month,Day,Hour,Minute,Max,Month,Day,Hour,Minute]
1308,11,WATER HEATER,Water Heater Electricity Energy [J] !RunPeriod [Value,Min,Month,Day,Hour,Minute,Max,Month,Day,Hour,Minute]
13,11,Electricity:Facility [J] !RunPeriod [Value,Min,Month,Day,Hour,Minute,Max,Month,Day,Hour,Minute]
1134,11,Heating:Electricity [J] !RunPeriod [Value,Min,Month,Day,Hour,Minute,Max,Month,Day,Hour,Minute]
1096,11,Cooling:Electricity [J] !RunPeriod [Value,Min,Month,Day,Hour,Minute,Max,Month,Day,Hour,Minute]
562,11,Fans:Electricity [J] !RunPeriod [Value,Min,Month,Day,Hour,Minute,Max,Month,Day,Hour,Minute]
1379,11,Pumps:Electricity [J] !RunPeriod [Value,Min,Month,Day,Hour,Minute,Max,Month,Day,Hour,Minute]
1326,11,WaterSystems:Electricity [J] !RunPeriod [Value,Min,Month,Day,Hour,Minute,Max,Month,Day,Hour,Minute]
61,11,InteriorLights:Electricity [J] !RunPeriod [Value,Min,Month,Day,Hour,Minute,Max,Month,Day,Hour,Minute]
1046,11,ExteriorLights:Electricity [J] !RunPeriod [Value,Min,Month,Day,Hour,Minute,Max,Month,Day,Hour,Minute]
134,11,InteriorEquipment:Electricity [J] !RunPeriod [Value,Min,Month,Day,Hour,Minute,Max,Month,Day,Hour,Minute]
170,11,gas_dryer:InteriorEquipment:Electricity [J] !RunPeriod [Value,Min,Month,Day,Hour,Minute,Max,Month,Day,Hour,Minute]
207,11,clotheswasher:InteriorEquipment:Electricity [J] !RunPeriod [Value,Min,Month,Day,Hour,Minute,Max,Month,Day,Hour,Minute]
244,11,dishwasher:InteriorEquipment:Electricity [J] !RunPeriod [Value,Min,Month,Day,Hour,Minute,Max,Month,Day,Hour,Minute]
281,11,refrigerator:InteriorEquipment:Electricity [J] !RunPeriod [Value,Min,Month,Day,Hour,Minute,Max,Month,Day,Hour,Minute]
318,11,electric_mels:InteriorEquipment:Electricity [J] !RunPeriod [Value,Min,Month,Day,Hour,Minute,Max,Month,Day,Hour,Minute]
355,11,NaturalGas:Facility [J] !RunPeriod [Value,Min,Month,Day,Hour,Minute,Max,Month,Day,Hour,Minute]
403,11,InteriorEquipment:NaturalGas [J] !RunPeriod [Value,Min,Month,Day,Hour,Minute,Max,Month,Day,Hour,Minute]
476,11,gas_dryer:InteriorEquipment:NaturalGas [J] !RunPeriod [Value,Min,Month,Day,Hour,Minute,Max,Month,Day,Hour,Minute]
513,11,gas_mels:InteriorEquipment:NaturalGas [J] !RunPeriod [Value,Min,Month,Day,Hour,Minute,Max,Month,Day,Hour,Minute]
End of Data Dictionary
1,EXTREME_WINTER,  42.41, -83.01,  -5.00, 190.80
5,7
1038,1.0,0.0,12,15, 1,15,0.25,12,16, 6,15
1039,0.0,0.0,12,15, 1,15,0.0,12,15, 1,15
581,0.4576014925881446,0.28575126649677307,12,19,23, 7,0.7640508378090989,12,15,10,52
582,5.753251306383087,0.10902442201971713,12,18, 7,60,16.735606402352264,12,21,15,52
583,0.06933079826081295,0.0008578401398226294,12,19,23, 7,0.083627360998406,12,15,10,52
1115,2086442863.4123635,0.0,12,15,23, 5,3999135.409888395,12,21,12,60
1128,751457887.2236451,0.0,12,15,23, 5,1301986.0536517499,12,21,12,15
1153,12475320.171155717,0.0,12,15,23, 5,73100.22501263412,12,18, 6,60
1154,11370627.700166406,0.0,12,15, 1,15,171530.2383145198,12,19,15,15
1155,1011145789.365512,0.0,12,15,23, 5,5305775.586811695,12,16, 6,45
1156,1011145789.365512,0.0,12,15,23, 5,5305775.586811695,12,16, 6,45
1292,-25080794.969345722,-39773.072918769154,12,20, 5,60,-9060.596644544697,12,19,18,30
1306,353920932.4996609,0.0,12,15, 1,15,4050000.0,12,15,17,15
1307,160550077.87319455,0.0,12,15, 1,15,16580995.643392578,12,19, 9,60
1308,353920932.4996609,0.0,12,15, 1,15,4050000.0,12,15,17,15
13,2596844985.256895,479304.83940846473,12,19,15,45,9677756.06181122,12,17, 8,60
61,301924526.02383536,88139.10953165221,12,15, 1,15,1282023.4113694867,12,15,20,15
134,70666020.44019976,63564.01800854099,12,15, 4,15,156554.22484006523,12,20,20,15
170,5241013.419656067,348.4159749238097,12,15, 4,15,17476.39704006126,12,20,12,15
207,6509451.13922267,815.2532113832032,12,15, 3,15,22990.642799023623,12,20,10,15
244,12749673.399825225,1521.856143006317,12,15, 4,15,53038.631142310165,12,20,20,15
281,46165882.481495745,59938.60262432081,12,15, 5,15,81951.81706819107,12,15,19,15
318,0.0,0.0,12,15, 1,15,0.0,12,15, 1,15
355,197687796.27748066,18561.32405820678,12,15, 4,15,724774.895203776,12,20,18,15
403,197687796.27748066,18561.32405820678,12,15, 4,15,724774.895203776,12,20,18,15
476,106772067.24485716,7098.072629279515,12,15, 4,15,356036.3026282215,12,20,12,15
513,0.0,0.0,12,15, 1,15,0.0,12,15, 1,15
562,83883881.83271722,0.0,12,19,16,15,137888.11117719355,12,15, 1,15
1046,0.0,0.0,12,15, 1,15,0.0,12,15, 1,15
1096,0.0,0.0,12,15, 1,15,0.0,12,15, 1,15
1134,1786449624.4604783,180000.0,12,19,16,15,6798069.365500612,12,16, 6,30
1326,353920932.4996609,0.0,12,15, 1,15,4050000.0,12,15, 9,60
1379,0.0,0.0,12,15, 1,15,0.0,12,15, 1,15
1,EXTREME_SUMMER,  42.41, -83.01,  -5.00, 190.80
5,7
1038,0.0,0.0, 7,27, 1,15,0.0, 7,27, 1,15
1039,15.5,0.0, 7,27, 1,15,0.25, 7,27,17,60
581,0.12843422086371228,0.0, 8, 1,21,57,0.4213411467203439, 8, 1,11,52
582,3.648172174489601,0.0, 8, 1,20,60,12.610690448509335, 7,27,15,52
583,0.037472644975088204,0.0, 8, 1,23, 3,0.07188407014718691, 8, 1,11,52
1115,0.0,0.0, 7,27, 1,15,0.0, 7,27, 1,15
1128,0.0,0.0, 7,27, 1,15,0.0, 7,27, 1,15
1153,0.0,0.0, 7,27, 1,15,0.0, 7,27, 1,15
1154,0.0,0.0, 7,27, 1,15,0.0, 7,27, 1,15
1155,0.0,0.0, 7,27, 1,15,0.0, 7,27, 1,15
1156,0.0,0.0, 7,27, 1,15,0.0, 7,27, 1,15
1292,-21910280.505609643,-34343.9466027074, 7,31, 8,60,-2336.7004674218824, 8, 2, 9,46
1306,281552249.1618243,0.0, 7,27, 1,15,4050000.0, 8, 2,21,15
1307,99592327.35394505,0.0, 7,27, 1,15,11794384.674619619, 7,31, 9,60
1308,281552249.1618243,0.0, 7,27, 1,15,4050000.0, 8, 2,21,15
13,1158695991.9909873,151703.1275401932, 7,28, 4,45,6831365.48180227, 8, 1,21,45
61,301924526.02383536,88139.10953165221, 7,27, 1,15,1282023.4113694867, 7,27,20,15
134,70666020.44019976,63564.01800854099, 7,27, 4,15,156554.22484006523, 8, 1,20,15
170,5241013.419656067,348.4159749238097, 7,27, 4,15,17476.39704006126, 8, 1,12,15
207,6509451.13922267,815.2532113832032, 7,27, 3,15,22990.642799023623, 8, 1,10,15
244,12749673.399825225,1521.856143006317, 7,27, 4,15,53038.631142310165, 8, 1,20,15
281,46165882.481495745,59938.60262432081, 7,27, 5,15,81951.81706819107, 7,27,19,15
318,0.0,0.0, 7,27, 1,15,0.0, 7,27, 1,15
355,197687796.27748066,18561.32405820678, 7,27, 4,15,724774.895203776, 8, 1,18,15
403,197687796.27748066,18561.32405820678, 7,27, 4,15,724774.895203776, 8, 1,18,15
476,106772067.24485716,7098.072629279515, 7,27, 4,15,356036.3026282215, 8, 1,12,15
513,0.0,0.0, 7,27, 1,15,0.0, 7,27, 1,15
562,49761734.62854021,0.0, 7,28, 4,45,137888.11117719355, 7,27,16,30
1046,0.0,0.0, 7,27, 1,15,0.0, 7,27, 1,15
1096,454791461.7365894,0.0, 7,28, 4,45,1422839.4805720693, 8, 1,13,60
1134,0.0,0.0, 7,27, 1,15,0.0, 7,27, 1,15
1326,281552249.16182435,0.0, 7,27, 1,15,4050000.0, 7,27, 8,30
1379,0.0,0.0, 7,27, 1,15,0.0, 7,27, 1,15
1,ANNUAL,  42.41, -83.01,  -5.00, 190.80
5,365
1038,11.5,0.0, 1, 1, 1,15,0.25, 1,11, 6,15
1039,182.75,0.0, 1, 1, 1,15,0.25, 6, 4,14,15
581,0.26343656917442404,0.0, 5,28, 3,45,0.9077337565264301, 2,21,19,52
582,4.274369469942914,0.0, 1, 5, 8,60,24.718444237186233, 4, 1,12,52
583,0.029774875126929914,0.0, 8, 1,23, 3,0.0860344718500565, 2,21,19,52
1115,28282451044.064247,0.0, 1, 1,23, 5,4522530.809276894, 1,28,10,15
1128,9193158589.02421,0.0, 1, 1,23, 5,1348291.5209289377, 3,24, 6,45
1153,278630442.1608734,0.0, 1, 1,23, 5,125865.67089746376,12,27, 6,45
1154,1605914902.785394,0.0, 1, 1, 6, 5,180000.0, 1, 6,14,60
1155,5106483512.638408,0.0, 1, 1, 1,15,5597293.968958807, 2, 5, 6,15
1156,5106483512.638408,0.0, 1, 1, 1,15,5597293.968958807, 2, 5, 6,15
1292,-1217377373.1105182,-39815.55069846259, 4,23, 3,45,-1649.7709294281576, 5,12, 9,60
1306,17050821085.414375,0.0, 1, 1, 1,15,4050000.0, 1, 1, 9,60
1307,7194741027.455709,0.0, 1, 1, 1,15,17839354.60745343, 2,17, 9,60
1308,17050821085.414375,0.0, 1, 1, 1,15,4050000.0, 1, 1, 9,60
13,62222319131.38483,151703.1275401932, 4,14, 4,15,10209128.635666966, 2, 5, 9,45
61,15743207428.383959,88139.10953165221, 1, 1, 1,15,1282023.4113694867, 1, 1,20,15
134,3685071073.4325233,63564.01800854099, 1, 2, 4,15,156554.22484006523, 1, 1,20,15
170,273393721.45532674,348.4159749238097, 1, 2, 4,15,17476.39704006126, 1, 1,12,15
207,339560869.0695816,815.2532113832032, 1, 2, 3,15,22990.642799023623, 1, 1,10,15
244,664895467.8009144,1521.856143006317, 1, 2, 4,15,53038.631142310165, 1, 1,20,15
281,2407221015.106824,59938.60262432081, 1, 1, 5,15,81951.81706819107, 1, 1,19,15
318,0.0,0.0, 1, 1, 1,15,0.0, 1, 1, 1,15
355,10310294493.051695,18561.32405820678, 1, 2, 4,15,724774.895203776, 1, 1,18,15
403,10310294493.051695,18561.32405820678, 1, 2, 4,15,724774.895203776, 1, 1,18,15
476,5569688622.066177,7098.072629279515, 1, 2, 4,15,356036.3026282215, 1, 1,12,15
513,0.0,0.0, 1, 1, 1,15,0.0, 1, 1, 1,15
562,1903708863.272816,0.0, 1, 6,14,60,137888.11117719355, 1, 1, 6,30
1046,0.0,0.0, 1, 1, 1,15,0.0, 1, 1, 1,15
1096,7655323234.270142,0.0, 1, 1, 1,15,1466018.590594315, 6, 8,16,60
1134,16184187446.6089,0.0, 2,10,11,30,6793329.1123138135,12,16, 6,60
1326,17050821085.414383,0.0, 1, 1, 1,15,4050000.0000000014, 5,23, 9,45
1379,0.0,0.0, 1, 1, 1,15,0.0, 1, 1, 1,15
End of Data
 Number of Records Written=          99
