Program Version,EnergyPlus, Version 22.2.0-c249759bad, YMD=2023.09.01 15:36
1,5,Environment Title[],Latitude[deg],Longitude[deg],Time Zone[],Elevation[m]
2,8,Day of Simulation[],Month[],Day of Month[],DST Indicator[1=yes 0=no],Hour[],StartMinute[],EndMinute[],DayType
3,5,Cumulative Day of Simulation[],Month[],Day of Month[],DST Indicator[1=yes 0=no],DayType  ! When Daily Report Variables Requested
4,2,Cumulative Days of Simulation[],Month[]  ! When Monthly Report Variables Requested
5,1,Cumulative Days of Simulation[] ! When Run Period Report Variables Requested
6,1,Calendar Year of Simulation[] ! When Annual Report Variables Requested
581,11,LIVING,AFN Zone Infiltration Air Change Rate [ach] !RunPeriod [Value,Min,Month,Day,Hour,Minute,Max,Month,Day,Hour,Minute]
582,11,ATTIC,AFN Zone Infiltration Air Change Rate [ach] !RunPeriod [Value,Min,Month,Day,Hour,Minute,Max,Month,Day,Hour,Minute]
583,11,CRAWLSPACE,AFN Zone Infiltration Air Change Rate [ach] !RunPeriod [Value,Min,Month,Day,Hour,Minute,Max,Month,Day,Hour,Minute]
1038,11,Facility,Facility Heating Setpoint Not Met Time [hr] !RunPeriod [Value,Min,Month,Day,Hour,Minute,Max,Month,Day,Hour,Minute]
1039,11,Facility,Facility Cooling Setpoint Not Met Time [hr] !RunPeriod [Value,Min,Month,Day,Hour,Minute,Max,Month,Day,Hour,Minute]
1115,11,DX_HEATING_COIL,Heating Coil Heating Energy [J] !RunPeriod [Value,Min,Month,Day,Hour,Minute,Max,Month,Day,Hour,Minute]
1128,11,DX_HEATING_COIL,Heating Coil Electricity Energy [J] !RunPeriod [Value,Min,Month,Day,Hour,Minute,Max,Month,Day,Hour,Minute]
1153,11,DX_HEATING_COIL,Heating Coil Defrost Electricity Energy [J] !RunPeriod [Value,Min,Month,Day,Hour,Minute,Max,Month,Day,Hour,Minute]
1154,11,DX_HEATING_COIL,Heating Coil Crankcase Heater Electricity Energy [J] !RunPeriod [Value,Min,Month,Day,Hour,Minute,Max,Month,Day,Hour,Minute]
1155,11,HEATING_RESISTANCE_BACKUP,Heating Coil Heating Energy [J] !RunPeriod [Value,Min,Month,Day,Hour,Minute,Max,Month,Day,Hour,Minute]
1156,11,HEATING_RESISTANCE_BACKUP,Heating Coil Electricity Energy [J] !RunPeriod [Value,Min,Month,Day,Hour,Minute,Max,Month,Day,Hour,Minute]
1292,11,WATER HEATER,Water Heater Heat Loss Energy [J] !RunPeriod [Value,Min,Month,Day,Hour,Minute,Max,Month,Day,Hour,Minute]
1306,11,WATER HEATER,Water Heater Heating Energy [J] !RunPeriod [Value,Min,Month,Day,Hour,Minute,Max,Month,Day,Hour,Minute]
1307,11,WATER HEATER,Water Heater Unmet Demand Heat Transfer Energy [J] !RunPeriod [Value,Min,Month,Day,Hour,Minute,Max,Month,Day,Hour,Minute]
1308,11,WATER HEATER,Water Heater Electricity Energy [J] !RunPeriod [Value,Min,Month,Day,Hour,Minute,Max,Month,Day,Hour,Minute]
13,11,Electricity:Facility [J] !RunPeriod [Value,Min,Month,Day,Hour,Minute,Max,Month,Day,Hour,Minute]
1134,11,Heating:Electricity [J] !RunPeriod [Value,Min,Month,Day,Hour,Minute,Max,Month,Day,Hour,Minute]
1096,11,Cooling:Electricity [J] !RunPeriod [Value,Min,Month,Day,Hour,Minute,Max,Month,Day,Hour,Minute]
562,11,Fans:Electricity [J] !RunPeriod [Value,Min,Month,Day,Hour,Minute,Max,Month,Day,Hour,Minute]
1379,11,Pumps:Electricity [J] !RunPeriod [Value,Min,Month,Day,Hour,Minute,Max,Month,Day,Hour,Minute]
1326,11,WaterSystems:Electricity [J] !RunPeriod [Value,Min,Month,Day,Hour,Minute,Max,Month,Day,Hour,Minute]
61,11,InteriorLights:Electricity [J] !RunPeriod [Value,Min,Month,Day,Hour,Minute,Max,Month,Day,Hour,Minute]
1046,11,ExteriorLights:Electricity [J] !RunPeriod [Value,Min,Month,Day,Hour,Minute,Max,Month,Day,Hour,Minute]
134,11,InteriorEquipment:Electricity [J] !RunPeriod [Value,Min,Month,Day,Hour,Minute,Max,Month,Day,Hour,Minute]
170,11,gas_dryer:InteriorEquipment:Electricity [J] !RunPeriod [Value,Min,Month,Day,Hour,Minute,Max,Month,Day,Hour,Minute]
207,11,clotheswasher:InteriorEquipment:Electricity [J] !RunPeriod [Value,Min,Month,Day,Hour,Minute,Max,Month,Day,Hour,Minute]
244,11,dishwasher:InteriorEquipment:Electricity [J] !RunPeriod [Value,Min,Month,Day,Hour,Minute,Max,Month,Day,Hour,Minute]
281,11,refrigerator:InteriorEquipment:Electricity [J] !RunPeriod [Value,Min,Month,Day,Hour,Minute,Max,Month,Day,Hour,Minute]
318,11,electric_mels:InteriorEquipment:Electricity [J] !RunPeriod [Value,Min,Month,Day,Hour,Minute,Max,Month,Day,Hour,Minute]
355,11,NaturalGas:Facility [J] !RunPeriod [Value,Min,Month,Day,Hour,Minute,Max,Month,Day,Hour,Minute]
403,11,InteriorEquipment:NaturalGas [J] !RunPeriod [Value,Min,Month,Day,Hour,Minute,Max,Month,Day,Hour,Minute]
476,11,gas_dryer:InteriorEquipment:NaturalGas [J] !RunPeriod [Value,Min,Month,Day,Hour,Minute,Max,Month,Day,Hour,Minute]
513,11,gas_mels:InteriorEquipment:NaturalGas [J] !RunPeriod [Value,Min,Month,Day,Hour,Minute,Max,Month,Day,Hour,Minute]
End of Data Dictionary
1,EXTREME_WINTER,  39.22,-106.87,  -7.00,2384.00
5,15
1038,5.0,0.0,12,22, 1,15,0.25,12,24, 6,15
1039,0.0,0.0,12,22, 1,15,0.0,12,22, 1,15
581,0.40144626938338185,0.21560839097542292, 1, 5,23, 7,0.730364400998114,12,23,17,55
582,1.892659899266318,0.0,12,25, 7,45,10.168776723722385,12,23,17,50
583,0.0674696322685022,0.00033570235773280036, 1, 5,16,60,0.09772643853301612,12,23,18,60
1115,3923104265.511164,0.0,12,22,23, 3,4516058.410950278,12,23, 4,60
1128,1527724864.2559288,0.0,12,22,23, 3,1502161.3952587459,12,23, 6,60
1153,31484887.639541212,0.0,12,22,23, 3,83629.23353816557,12,23, 1,15
1154,68139033.65282904,0.0,12,22, 6, 5,180000.0, 1, 3,15,45
1155,1810298437.743183,0.0,12,22, 1,15,6352645.360898993,12,27, 6,45
1156,1810298437.743183,0.0,12,22, 1,15,6352645.360898993,12,27, 6,45
1292,-54489569.53751698,-39814.17438230131,12,22, 1,15,-4034.8400773051267,12,27,11, 9
1306,543226515.2116063,0.0,12,22, 1,15,10514427.966150863,12,28, 9,45
1307,17296759.47375557,0.0,12,22, 1,15,7314385.4880833225, 1, 4,19,60
1308,543226515.2116063,0.0,12,22, 1,15,10514427.966150863,12,28, 9,45
13,4956473973.644828,452017.0388981225,12,31,15,60,16625083.310150458,12,28, 9,45
61,646981127.1939323,88139.10953165221,12,22, 1,15,1282023.4113694867,12,22,20,15
134,151290040.75163814,63564.01800854099,12,22, 4,15,156554.22484006523,12,27,20,15
170,11185820.069951689,348.4159749238097,12,22, 4,15,17476.39704006126,12,27,12,15
207,13893028.5742839,815.2532113832032,12,22, 3,15,22990.642799023623,12,27,10,15
244,27284301.07562584,1521.856143006317,12,22, 4,15,53038.631142310165,12,27,20,15
281,98926891.03177746,59938.60262432081,12,22, 5,15,81951.81706819107,12,22,19,15
318,0.0,0.0,12,22, 1,15,0.0,12,22, 1,15
355,422701517.16107386,18561.32405820678,12,22, 4,15,724774.895203776,12,27,18,15
403,422701517.16107386,18561.32405820678,12,22, 4,15,724774.895203776,12,27,18,15
476,227882097.80545202,7098.072629279515,12,22, 4,15,356036.3026282215,12,27,12,15
513,0.0,0.0,12,22, 1,15,0.0,12,22, 1,15
562,177329067.1961622,0.0,12,26,16,15,167490.84987095158,12,24,10,30
1046,0.0,0.0,12,22, 1,15,0.0,12,22, 1,15
1096,0.0,0.0,12,22, 1,15,0.0,12,22, 1,15
1134,3437647223.2914815,179999.99999999997, 1, 4,18,15,7701902.232572466, 1, 2, 7,15
1326,543226515.2116063,0.0,12,22, 1,15,10514427.966150863,12,28, 9,45
1379,0.0,0.0,12,22, 1,15,0.0,12,22, 1,15
1,EXTREME_SUMMER,  39.22,-106.87,  -7.00,2384.00
5,7
1038,0.0,0.0, 6,29, 1,15,0.0, 6,29, 1,15
1039,0.0,0.0, 6,29, 1,15,0.0, 6,29, 1,15
581,0.20143878092562484,0.07942556841655415, 7, 1, 6,50,0.47071636190248517, 7, 5,16,50
582,3.075788732489131,0.0, 6,29, 7,45,10.003767118363973, 7, 5,17,52
583,0.02563869063768483,0.00019745107441963925, 6,29, 7,18,0.06855319727820389, 7, 2,18,33
1115,0.0,0.0, 6,29, 1,15,0.0, 6,29, 1,15
1128,0.0,0.0, 6,29, 1,15,0.0, 6,29, 1,15
1153,0.0,0.0, 6,29, 1,15,0.0, 6,29, 1,15
1154,2340000.0,0.0, 6,29, 1,15,180000.0, 7, 3, 4,60
1155,0.0,0.0, 6,29, 1,15,0.0, 6,29, 1,15
1156,0.0,0.0, 6,29, 1,15,0.0, 6,29, 1,15
1292,-22282947.278330047,-35508.215086090626, 7, 3, 5,60,-2483.4271067566624, 7, 5,10,35
1306,222354365.7756402,0.0, 6,29, 1,15,5270400.0, 7, 5,19,52
1307,5168106.049379775,0.0, 6,29, 1,15,2584894.304593961, 7, 5,19,52
1308,222354365.7756402,0.0, 6,29, 1,15,5270400.0, 7, 5,19,52
13,903341233.6505584,151703.1275401932, 6,29, 4,15,12354248.100144053, 7, 5,19,60
61,301924526.02383536,88139.10953165221, 6,29, 1,15,1282023.4113694867, 6,29,20,15
134,70666020.44019976,63564.01800854099, 6,29, 4,15,156554.22484006523, 7, 4,20,15
170,5241013.419656067,348.4159749238097, 6,29, 4,15,17476.39704006126, 7, 4,12,15
207,6509451.13922267,815.2532113832032, 6,29, 3,15,22990.642799023623, 7, 4,10,15
244,12749673.399825225,1521.856143006317, 6,29, 4,15,53038.631142310165, 7, 4,20,15
281,46165882.481495745,59938.60262432081, 6,29, 5,15,81951.81706819107, 6,29,19,15
318,0.0,0.0, 6,29, 1,15,0.0, 6,29, 1,15
355,197687796.27748066,18561.32405820678, 6,29, 4,15,724774.895203776, 7, 4,18,15
403,197687796.27748066,18561.32405820678, 6,29, 4,15,724774.895203776, 7, 4,18,15
476,106772067.24485716,7098.072629279515, 6,29, 4,15,356036.3026282215, 7, 4,12,15
513,0.0,0.0, 6,29, 1,15,0.0, 6,29, 1,15
562,33557633.95117947,0.0, 6,29, 1,30,138555.7366877877, 7, 2,18,30
1046,0.0,0.0, 6,29, 1,15,0.0, 6,29, 1,15
1096,272498687.4597036,0.0, 6,29, 1,30,1240964.9649968976, 7, 2,18,30
1134,2340000.0,0.0, 6,29, 1,15,180000.0, 7, 2, 5,45
1326,222354365.7756401,0.0, 6,29, 1,15,10540800.0, 7, 5,19,60
1379,0.0,0.0, 6,29, 1,15,0.0, 6,29, 1,15
1,ANNUAL,  39.22,-106.87,  -7.00,2384.00
5,365
1038,6.0,0.0, 1, 1, 1,15,0.25, 1, 1, 6,15
1039,23.5,0.0, 1, 1, 1,15,0.25, 3, 2,15,60
581,0.27293231572047455,0.047689135372942, 9, 2, 8,46,1.0242384147890342, 4,28,13,48
582,2.512412041677779,0.0, 1, 3,20,52,19.479970092657062, 4,28,13,46
583,0.028954610661428775,0.000034898818855241646, 7,22, 1,60,0.097860480570206, 1, 1, 6,60
1115,33897391040.300407,0.0, 1, 1,16, 3,4901360.221366404, 3,21, 6,45
1128,11922774078.17261,0.0, 1, 1,16, 3,1573390.877174428, 3, 8, 7,45
1153,416559667.76523685,0.0, 1, 1,16, 3,136640.36813722632,11,21, 6,45
1154,2593550138.2231207,0.0, 1, 1, 1, 7,180000.0, 1, 3,15,60
1155,5693513905.698637,0.0, 1, 1,12, 3,6352645.360898993, 1, 1, 6,30
1156,5693513905.698637,0.0, 1, 1,12, 3,6352645.360898993, 1, 1, 6,30
1292,-1251477122.8744023,-39826.94578634429, 2, 5,24,45,-2179.2525153988468, 7,16,15,60
1306,12541913613.978941,0.0, 1, 1, 1, 7,10523256.906472787, 7,16,19,60
1307,367487955.9298729,0.0, 1, 1, 1, 7,7916423.358249577, 2,19,19,60
1308,12541913613.978941,0.0, 1, 1, 1, 7,10523256.906472787, 7,16,19,60
13,58302553609.72415,151703.1275401932, 5,29, 4,15,16837802.954245895,12,27, 7,60
61,15743207428.383959,88139.10953165221, 1, 1, 1,15,1282023.4113694867, 1, 1,20,15
134,3685071073.4325233,63564.01800854099, 1, 2, 4,15,156554.22484006523, 1, 1,20,15
170,273393721.45532674,348.4159749238097, 1, 2, 4,15,17476.39704006126, 1, 1,12,15
207,339560869.0695816,815.2532113832032, 1, 2, 3,15,22990.642799023623, 1, 1,10,15
244,664895467.8009144,1521.856143006317, 1, 2, 4,15,53038.631142310165, 1, 1,20,15
281,2407221015.106824,59938.60262432081, 1, 1, 5,15,81951.81706819107, 1, 1,19,15
318,0.0,0.0, 1, 1, 1,15,0.0, 1, 1, 1,15
355,10310294493.051695,18561.32405820678, 1, 2, 4,15,724774.895203776, 1, 1,18,15
403,10310294493.051695,18561.32405820678, 1, 2, 4,15,724774.895203776, 1, 1,18,15
476,5569688622.066177,7098.072629279515, 1, 2, 4,15,356036.3026282215, 1, 1,12,15
513,0.0,0.0, 1, 1, 1,15,0.0, 1, 1, 1,15
562,1858862322.6362667,0.0, 1, 1,16,15,167490.84987095158, 1, 1,10,45
1046,0.0,0.0, 1, 1, 1,15,0.0, 1, 1, 1,15
1096,3847101381.431396,0.0, 1, 1, 1,15,1339304.3254307741, 7, 2,18,30
1134,20626397789.85968,0.0, 3, 2,13,60,7726638.326640111, 1,12, 6,30
1326,12541913613.978975,0.0, 1, 1, 1,15,10540800.0, 7, 2,19,60
1379,0.0,0.0, 1, 1, 1,15,0.0, 1, 1, 1,15
End of Data
 Number of Records Written=          99
