Program Version,EnergyPlus, Version 22.2.0-c249759bad, YMD=2023.09.01 15:42
1,5,Environment Title[],Latitude[deg],Longitude[deg],Time Zone[],Elevation[m]
2,8,Day of Simulation[],Month[],Day of Month[],DST Indicator[1=yes 0=no],Hour[],StartMinute[],EndMinute[],DayType
3,5,Cumulative Day of Simulation[],Month[],Day of Month[],DST Indicator[1=yes 0=no],DayType  ! When Daily Report Variables Requested
4,2,Cumulative Days of Simulation[],Month[]  ! When Monthly Report Variables Requested
5,1,Cumulative Days of Simulation[] ! When Run Period Report Variables Requested
6,1,Calendar Year of Simulation[] ! When Annual Report Variables Requested
581,11,LIVING,AFN Zone Infiltration Air Change Rate [ach] !RunPeriod [Value,Min,Month,Day,Hour,Minute,Max,Month,Day,Hour,Minute]
582,11,ATTIC,AFN Zone Infiltration Air Change Rate [ach] !RunPeriod [Value,Min,Month,Day,Hour,Minute,Max,Month,Day,Hour,Minute]
583,11,CRAWLSPACE,AFN Zone Infiltration Air Change Rate [ach] !RunPeriod [Value,Min,Month,Day,Hour,Minute,Max,Month,Day,Hour,Minute]
1038,11,Facility,Facility Heating Setpoint Not Met Time [hr] !RunPeriod [Value,Min,Month,Day,Hour,Minute,Max,Month,Day,Hour,Minute]
1039,11,Facility,Facility Cooling Setpoint Not Met Time [hr] !RunPeriod [Value,Min,Month,Day,Hour,Minute,Max,Month,Day,Hour,Minute]
1115,11,DX_HEATING_COIL,Heating Coil Heating Energy [J] !RunPeriod [Value,Min,Month,Day,Hour,Minute,Max,Month,Day,Hour,Minute]
1128,11,DX_HEATING_COIL,Heating Coil Electricity Energy [J] !RunPeriod [Value,Min,Month,Day,Hour,Minute,Max,Month,Day,Hour,Minute]
1153,11,DX_HEATING_COIL,Heating Coil Defrost Electricity Energy [J] !RunPeriod [Value,Min,Month,Day,Hour,Minute,Max,Month,Day,Hour,Minute]
1154,11,DX_HEATING_COIL,Heating Coil Crankcase Heater Electricity Energy [J] !RunPeriod [Value,Min,Month,Day,Hour,Minute,Max,Month,Day,Hour,Minute]
1155,11,HEATING_RESISTANCE_BACKUP,Heating Coil Heating Energy [J] !RunPeriod [Value,Min,Month,Day,Hour,Minute,Max,Month,Day,Hour,Minute]
1156,11,HEATING_RESISTANCE_BACKUP,Heating Coil Electricity Energy [J] !RunPeriod [Value,Min,Month,Day,Hour,Minute,Max,Month,Day,Hour,Minute]
1292,11,WATER HEATER,Water Heater Heat Loss Energy [J] !RunPeriod [Value,Min,Month,Day,Hour,Minute,Max,Month,Day,Hour,Minute]
1306,11,WATER HEATER,Water Heater Heating Energy [J] !RunPeriod [Value,Min,Month,Day,Hour,Minute,Max,Month,Day,Hour,Minute]
1307,11,WATER HEATER,Water Heater Unmet Demand Heat Transfer Energy [J] !RunPeriod [Value,Min,Month,Day,Hour,Minute,Max,Month,Day,Hour,Minute]
1308,11,WATER HEATER,Water Heater Electricity Energy [J] !RunPeriod [Value,Min,Month,Day,Hour,Minute,Max,Month,Day,Hour,Minute]
13,11,Electricity:Facility [J] !RunPeriod [Value,Min,Month,Day,Hour,Minute,Max,Month,Day,Hour,Minute]
1134,11,Heating:Electricity [J] !RunPeriod [Value,Min,Month,Day,Hour,Minute,Max,Month,Day,Hour,Minute]
1096,11,Cooling:Electricity [J] !RunPeriod [Value,Min,Month,Day,Hour,Minute,Max,Month,Day,Hour,Minute]
562,11,Fans:Electricity [J] !RunPeriod [Value,Min,Month,Day,Hour,Minute,Max,Month,Day,Hour,Minute]
1379,11,Pumps:Electricity [J] !RunPeriod [Value,Min,Month,Day,Hour,Minute,Max,Month,Day,Hour,Minute]
1326,11,WaterSystems:Electricity [J] !RunPeriod [Value,Min,Month,Day,Hour,Minute,Max,Month,Day,Hour,Minute]
61,11,InteriorLights:Electricity [J] !RunPeriod [Value,Min,Month,Day,Hour,Minute,Max,Month,Day,Hour,Minute]
1046,11,ExteriorLights:Electricity [J] !RunPeriod [Value,Min,Month,Day,Hour,Minute,Max,Month,Day,Hour,Minute]
134,11,InteriorEquipment:Electricity [J] !RunPeriod [Value,Min,Month,Day,Hour,Minute,Max,Month,Day,Hour,Minute]
170,11,gas_dryer:InteriorEquipment:Electricity [J] !RunPeriod [Value,Min,Month,Day,Hour,Minute,Max,Month,Day,Hour,Minute]
207,11,clotheswasher:InteriorEquipment:Electricity [J] !RunPeriod [Value,Min,Month,Day,Hour,Minute,Max,Month,Day,Hour,Minute]
244,11,dishwasher:InteriorEquipment:Electricity [J] !RunPeriod [Value,Min,Month,Day,Hour,Minute,Max,Month,Day,Hour,Minute]
281,11,refrigerator:InteriorEquipment:Electricity [J] !RunPeriod [Value,Min,Month,Day,Hour,Minute,Max,Month,Day,Hour,Minute]
318,11,electric_mels:InteriorEquipment:Electricity [J] !RunPeriod [Value,Min,Month,Day,Hour,Minute,Max,Month,Day,Hour,Minute]
355,11,NaturalGas:Facility [J] !RunPeriod [Value,Min,Month,Day,Hour,Minute,Max,Month,Day,Hour,Minute]
403,11,InteriorEquipment:NaturalGas [J] !RunPeriod [Value,Min,Month,Day,Hour,Minute,Max,Month,Day,Hour,Minute]
476,11,gas_dryer:InteriorEquipment:NaturalGas [J] !RunPeriod [Value,Min,Month,Day,Hour,Minute,Max,Month,Day,Hour,Minute]
513,11,gas_mels:InteriorEquipment:NaturalGas [J] !RunPeriod [Value,Min,Month,Day,Hour,Minute,Max,Month,Day,Hour,Minute]
End of Data Dictionary
1,EXTREME_WINTER,  44.36, -84.67,  -5.00, 351.00
5,7
1038,5.0,0.0,12,15, 1,15,0.25,12,15, 6,15
1039,0.0,0.0,12,15, 1,15,0.0,12,15, 1,15
581,0.46904424361739605,0.2811745974173092,12,21,23, 5,0.7995169863052082,12,21,13,22
582,5.9665655746671575,0.17274993119880153,12,18, 9,60,17.93198854017655,12,16,11,60
583,0.0688576733725661,0.0018115524321515666,12,16,23, 5,0.07683350473631075,12,16,11,60
1115,1981929492.8311749,0.0,12,16,23, 5,3856552.7000394356,12,21,13,60
1128,736492464.1224846,0.0,12,16,23, 5,1182105.9526421307,12,21,16,15
1153,13302413.40349043,0.0,12,16,23, 5,47567.36894584524,12,21,24,45
1154,898388.9881929463,0.0,12,15, 1,15,60000.0,12,16,23, 5
1155,1937511557.9192777,0.0,12,15,23, 5,6039472.411016794,12,16, 6,45
1156,1937511557.9192777,0.0,12,15,23, 5,6039472.411016794,12,16, 6,45
1292,-25428718.983967587,-39783.02860661255,12,15, 1,15,-9208.123966473524,12,20,12,60
1306,244104574.19236892,0.0,12,15, 1,15,10410040.446414156,12,21, 9,45
1307,7108577.40408334,0.0,12,15, 1,15,6178408.461921557,12,21,19,60
1308,244104574.19236892,0.0,12,15, 1,15,10410040.446414156,12,21, 9,45
13,3388924984.17607,1341566.0483825891,12,21,23,15,15687161.368889928,12,21, 9,45
61,301924526.02383536,88139.10953165221,12,15, 1,15,1282023.4113694867,12,15,20,15
134,70666020.44019976,63564.01800854099,12,15, 4,15,156554.22484006523,12,20,20,15
170,5241013.419656067,348.4159749238097,12,15, 4,15,17476.39704006126,12,20,12,15
207,6509451.13922267,815.2532113832032,12,15, 3,15,22990.642799023623,12,20,10,15
244,12749673.399825225,1521.856143006317,12,15, 4,15,53038.631142310165,12,20,20,15
281,46165882.481495745,59938.60262432081,12,15, 5,15,81951.81706819107,12,15,19,15
318,0.0,0.0,12,15, 1,15,0.0,12,15, 1,15
355,197687796.27748066,18561.32405820678,12,15, 4,15,724774.895203776,12,20,18,15
403,197687796.27748066,18561.32405820678,12,15, 4,15,724774.895203776,12,20,18,15
476,106772067.24485716,7098.072629279515,12,15, 4,15,356036.3026282215,12,20,12,15
513,0.0,0.0,12,15, 1,15,0.0,12,15, 1,15
562,84025039.08621904,56753.49458714359,12,21,23,15,126007.08563388832,12,15, 1,15
1046,0.0,0.0,12,15, 1,15,0.0,12,15, 1,15
1096,0.0,0.0,12,15, 1,15,0.0,12,15, 1,15
1134,2688204824.433448,633290.2600027459,12,21,23,15,7126660.2547987355,12,16, 6,45
1326,244104574.19236892,0.0,12,15, 1,15,10410040.446414156,12,21, 9,45
1379,0.0,0.0,12,15, 1,15,0.0,12,15, 1,15
1,EXTREME_SUMMER,  44.36, -84.67,  -5.00, 351.00
5,7
1038,0.0,0.0, 7,27, 1,15,0.0, 7,27, 1,15
1039,18.25,0.0, 7,27, 1,15,0.25, 7,29,17,30
581,0.15650223436877364,0.00003823157835046194, 8, 1, 6,15,0.41652535805578905, 7,27,11,60
582,4.041675701273438,0.0, 7,28,22,60,15.968279075325427, 7,27,11,60
583,0.03118649452764377,0.0001217136894668261, 7,29, 6,52,0.06292042793089234, 7,29,20,46
1115,0.0,0.0, 7,27, 1,15,0.0, 7,27, 1,15
1128,0.0,0.0, 7,27, 1,15,0.0, 7,27, 1,15
1153,0.0,0.0, 7,27, 1,15,0.0, 7,27, 1,15
1154,0.0,0.0, 7,27, 1,15,0.0, 7,27, 1,15
1155,0.0,0.0, 7,27, 1,15,0.0, 7,27, 1,15
1156,0.0,0.0, 7,27, 1,15,0.0, 7,27, 1,15
1292,-22048900.316592302,-34791.31542182629, 7,30, 6,60,-3313.6679445324226, 8, 1, 8,59
1306,201897345.13397866,0.0, 7,27, 1,15,5270400.0, 8, 2,19,60
1307,3398966.042150144,0.0, 7,27, 1,15,1811811.8893303995, 8, 2,19,60
1308,201897345.13397866,0.0, 7,27, 1,15,5270400.0, 8, 2,19,60
13,985154700.1808531,151703.1275401932, 7,27, 4,15,12480252.301979432, 8, 2,19,60
61,301924526.02383536,88139.10953165221, 7,27, 1,15,1282023.4113694867, 7,27,20,15
134,70666020.44019976,63564.01800854099, 7,27, 4,15,156554.22484006523, 8, 1,20,15
170,5241013.419656067,348.4159749238097, 7,27, 4,15,17476.39704006126, 8, 1,12,15
207,6509451.13922267,815.2532113832032, 7,27, 3,15,22990.642799023623, 8, 1,10,15
244,12749673.399825225,1521.856143006317, 7,27, 4,15,53038.631142310165, 8, 1,20,15
281,46165882.481495745,59938.60262432081, 7,27, 5,15,81951.81706819107, 7,27,19,15
318,0.0,0.0, 7,27, 1,15,0.0, 7,27, 1,15
355,197687796.27748066,18561.32405820678, 7,27, 4,15,724774.895203776, 8, 1,18,15
403,197687796.27748066,18561.32405820678, 7,27, 4,15,724774.895203776, 8, 1,18,15
476,106772067.24485716,7098.072629279515, 7,27, 4,15,356036.3026282215, 8, 1,12,15
513,0.0,0.0, 7,27, 1,15,0.0, 7,27, 1,15
562,42055884.398733094,0.0, 7,27, 3,60,126007.08563388835, 7,29,20,30
1046,0.0,0.0, 7,27, 1,15,0.0, 7,27, 1,15
1096,368610924.18410784,0.0, 7,27, 3,60,1286287.881509664, 8, 1,16,60
1134,0.0,0.0, 7,27, 1,15,0.0, 7,27, 1,15
1326,201897345.1339787,0.0, 7,27, 1,15,9882728.835978976, 8, 2,19,60
1379,0.0,0.0, 7,27, 1,15,0.0, 7,27, 1,15
1,ANNUAL,  44.36, -84.67,  -5.00, 351.00
5,365
1038,61.25,0.0, 1, 1, 1,15,0.25, 1, 4, 6,15
1039,164.5,0.0, 1, 1, 1,15,0.25, 3,20,18,15
581,0.2843562095983271,0.0, 6,23,23, 3,0.9945927630971497, 2,19,13,52
582,4.241858429647872,0.0, 1, 5,21,60,23.970180616800583,11,23, 7,60
583,0.03135753098676975,0.0, 6,26,23, 3,0.08084462619464193, 2,19,13,52
1115,38340898725.86135,0.0, 1, 1,23, 5,4159801.0338717313, 1,11,10,15
1128,12619179875.662424,0.0, 1, 1,23, 5,1248362.4708196234, 1,11,10,15
1153,497727463.1364695,0.0, 1, 1, 1,48,135983.2203975886, 2,10, 8,15
1154,1500604114.110408,0.0, 1, 1, 6, 5,180000.0, 1, 2,16,15
1155,13841231818.600912,0.0, 1, 1, 1, 7,6039472.411016794, 2, 4, 2,60
1156,13841231818.600912,0.0, 1, 1, 1, 7,6039472.411016794, 2, 4, 2,60
1292,-1248463103.1350224,-41792.46969062116, 2, 5, 4,60,-2416.0608406769416, 5, 8,16,59
1306,11992793555.903698,0.0, 1, 1, 1, 7,10540800.0, 1,29, 9,45
1307,310696367.04717356,0.0, 1, 1, 1, 7,7301598.410364938, 2,19,19,60
1308,11992793555.903698,0.0, 1, 1, 1, 7,10540800.0, 1,29, 9,45
13,67214165315.692894,151703.1275401932, 4,18, 4,15,16933700.756037183, 2, 5, 9,45
61,15743207428.383959,88139.10953165221, 1, 1, 1,15,1282023.4113694867, 1, 1,20,15
134,3685071073.4325233,63564.01800854099, 1, 2, 4,15,156554.22484006523, 1, 1,20,15
170,273393721.45532674,348.4159749238097, 1, 2, 4,15,17476.39704006126, 1, 1,12,15
207,339560869.0695816,815.2532113832032, 1, 2, 3,15,22990.642799023623, 1, 1,10,15
244,664895467.8009144,1521.856143006317, 1, 2, 4,15,53038.631142310165, 1, 1,20,15
281,2407221015.106824,59938.60262432081, 1, 1, 5,15,81951.81706819107, 1, 1,19,15
318,0.0,0.0, 1, 1, 1,15,0.0, 1, 1, 1,15
355,10310294493.051695,18561.32405820678, 1, 2, 4,15,724774.895203776, 1, 1,18,15
403,10310294493.051695,18561.32405820678, 1, 2, 4,15,724774.895203776, 1, 1,18,15
476,5569688622.066177,7098.072629279515, 1, 2, 4,15,356036.3026282215, 1, 1,12,15
513,0.0,0.0, 1, 1, 1,15,0.0, 1, 1, 1,15
562,2043464455.9006507,0.0, 1, 1,23,15,126007.08563388835, 3, 2,11,30
1046,0.0,0.0, 1, 1, 1,15,0.0, 1, 1, 1,15
1096,5290885530.561031,0.0, 1, 1, 1,15,1289091.1012918078, 8, 1,16,60
1134,28458743271.510403,0.0, 2,10,14,30,7151700.906416627,12,15, 6,30
1326,11992793555.903658,0.0, 1, 1, 1,15,10540800.0, 1,29, 9,45
1379,0.0,0.0, 1, 1, 1,15,0.0, 1, 1, 1,15
End of Data
 Number of Records Written=          99
