Program Version,EnergyPlus, Version 22.2.0-c249759bad, YMD=2023.09.01 15:53
1,5,Environment Title[],Latitude[deg],Longitude[deg],Time Zone[],Elevation[m]
2,8,Day of Simulation[],Month[],Day of Month[],DST Indicator[1=yes 0=no],Hour[],StartMinute[],EndMinute[],DayType
3,5,Cumulative Day of Simulation[],Month[],Day of Month[],DST Indicator[1=yes 0=no],DayType  ! When Daily Report Variables Requested
4,2,Cumulative Days of Simulation[],Month[]  ! When Monthly Report Variables Requested
5,1,Cumulative Days of Simulation[] ! When Run Period Report Variables Requested
6,1,Calendar Year of Simulation[] ! When Annual Report Variables Requested
581,11,LIVING,AFN Zone Infiltration Air Change Rate [ach] !RunPeriod [Value,Min,Month,Day,Hour,Minute,Max,Month,Day,Hour,Minute]
582,11,ATTIC,AFN Zone Infiltration Air Change Rate [ach] !RunPeriod [Value,Min,Month,Day,Hour,Minute,Max,Month,Day,Hour,Minute]
583,11,CRAWLSPACE,AFN Zone Infiltration Air Change Rate [ach] !RunPeriod [Value,Min,Month,Day,Hour,Minute,Max,Month,Day,Hour,Minute]
1038,11,Facility,Facility Heating Setpoint Not Met Time [hr] !RunPeriod [Value,Min,Month,Day,Hour,Minute,Max,Month,Day,Hour,Minute]
1039,11,Facility,Facility Cooling Setpoint Not Met Time [hr] !RunPeriod [Value,Min,Month,Day,Hour,Minute,Max,Month,Day,Hour,Minute]
1115,11,DX_HEATING_COIL,Heating Coil Heating Energy [J] !RunPeriod [Value,Min,Month,Day,Hour,Minute,Max,Month,Day,Hour,Minute]
1128,11,DX_HEATING_COIL,Heating Coil Electricity Energy [J] !RunPeriod [Value,Min,Month,Day,Hour,Minute,Max,Month,Day,Hour,Minute]
1153,11,DX_HEATING_COIL,Heating Coil Defrost Electricity Energy [J] !RunPeriod [Value,Min,Month,Day,Hour,Minute,Max,Month,Day,Hour,Minute]
1154,11,DX_HEATING_COIL,Heating Coil Crankcase Heater Electricity Energy [J] !RunPeriod [Value,Min,Month,Day,Hour,Minute,Max,Month,Day,Hour,Minute]
1155,11,HEATING_RESISTANCE_BACKUP,Heating Coil Heating Energy [J] !RunPeriod [Value,Min,Month,Day,Hour,Minute,Max,Month,Day,Hour,Minute]
1156,11,HEATING_RESISTANCE_BACKUP,Heating Coil Electricity Energy [J] !RunPeriod [Value,Min,Month,Day,Hour,Minute,Max,Month,Day,Hour,Minute]
1292,11,WATER HEATER,Water Heater Heat Loss Energy [J] !RunPeriod [Value,Min,Month,Day,Hour,Minute,Max,Month,Day,Hour,Minute]
1306,11,WATER HEATER,Water Heater Heating Energy [J] !RunPeriod [Value,Min,Month,Day,Hour,Minute,Max,Month,Day,Hour,Minute]
1307,11,WATER HEATER,Water Heater Unmet Demand Heat Transfer Energy [J] !RunPeriod [Value,Min,Month,Day,Hour,Minute,Max,Month,Day,Hour,Minute]
1308,11,WATER HEATER,Water Heater Electricity Energy [J] !RunPeriod [Value,Min,Month,Day,Hour,Minute,Max,Month,Day,Hour,Minute]
13,11,Electricity:Facility [J] !RunPeriod [Value,Min,Month,Day,Hour,Minute,Max,Month,Day,Hour,Minute]
1134,11,Heating:Electricity [J] !RunPeriod [Value,Min,Month,Day,Hour,Minute,Max,Month,Day,Hour,Minute]
1096,11,Cooling:Electricity [J] !RunPeriod [Value,Min,Month,Day,Hour,Minute,Max,Month,Day,Hour,Minute]
562,11,Fans:Electricity [J] !RunPeriod [Value,Min,Month,Day,Hour,Minute,Max,Month,Day,Hour,Minute]
1379,11,Pumps:Electricity [J] !RunPeriod [Value,Min,Month,Day,Hour,Minute,Max,Month,Day,Hour,Minute]
1326,11,WaterSystems:Electricity [J] !RunPeriod [Value,Min,Month,Day,Hour,Minute,Max,Month,Day,Hour,Minute]
61,11,InteriorLights:Electricity [J] !RunPeriod [Value,Min,Month,Day,Hour,Minute,Max,Month,Day,Hour,Minute]
1046,11,ExteriorLights:Electricity [J] !RunPeriod [Value,Min,Month,Day,Hour,Minute,Max,Month,Day,Hour,Minute]
134,11,InteriorEquipment:Electricity [J] !RunPeriod [Value,Min,Month,Day,Hour,Minute,Max,Month,Day,Hour,Minute]
170,11,gas_dryer:InteriorEquipment:Electricity [J] !RunPeriod [Value,Min,Month,Day,Hour,Minute,Max,Month,Day,Hour,Minute]
207,11,clotheswasher:InteriorEquipment:Electricity [J] !RunPeriod [Value,Min,Month,Day,Hour,Minute,Max,Month,Day,Hour,Minute]
244,11,dishwasher:InteriorEquipment:Electricity [J] !RunPeriod [Value,Min,Month,Day,Hour,Minute,Max,Month,Day,Hour,Minute]
281,11,refrigerator:InteriorEquipment:Electricity [J] !RunPeriod [Value,Min,Month,Day,Hour,Minute,Max,Month,Day,Hour,Minute]
318,11,electric_mels:InteriorEquipment:Electricity [J] !RunPeriod [Value,Min,Month,Day,Hour,Minute,Max,Month,Day,Hour,Minute]
355,11,NaturalGas:Facility [J] !RunPeriod [Value,Min,Month,Day,Hour,Minute,Max,Month,Day,Hour,Minute]
403,11,InteriorEquipment:NaturalGas [J] !RunPeriod [Value,Min,Month,Day,Hour,Minute,Max,Month,Day,Hour,Minute]
476,11,gas_dryer:InteriorEquipment:NaturalGas [J] !RunPeriod [Value,Min,Month,Day,Hour,Minute,Max,Month,Day,Hour,Minute]
513,11,gas_mels:InteriorEquipment:NaturalGas [J] !RunPeriod [Value,Min,Month,Day,Hour,Minute,Max,Month,Day,Hour,Minute]
End of Data Dictionary
1,EXTREME_WINTER,  30.32, -97.76,  -6.00, 204.20
5,7
1038,0.25,0.0, 1,29, 1,15,0.25, 2, 2, 6,15
1039,0.0,0.0, 1,29, 1,15,0.0, 1,29, 1,15
581,0.31423312148289245,0.08558808619186323, 1,31, 9,33,0.6492899519305123, 2, 1,23,60
582,3.2440012948134154,0.0, 1,30,20, 3,9.03001590871029, 1,29,17,32
583,0.03305454321062673,0.00028142084218601705, 1,31, 2,60,0.08405448361551573, 2, 1,23,60
1115,906344529.5144278,0.0, 1,29, 1,15,4048715.1472933567, 2, 3,10,45
1128,307721799.4447302,0.0, 1,29, 1,15,1361860.6436178738, 2, 3,10,45
1153,3653639.238153459,0.0, 1,29, 1,15,61326.610336950864, 2, 4, 1,30
1154,37951937.67312204,0.0, 1,29, 1,15,180000.0, 1,30, 7,30
1155,144821913.304774,0.0, 1,29, 1,15,2419042.0852963952, 2, 2, 6,45
1156,144821913.304774,0.0, 1,29, 1,15,2419042.0852963952, 2, 2, 6,45
1292,-24118980.75006377,-39766.13932174487, 2, 3, 1,15,-3063.0920008670478, 1,31,10,45
1306,192161584.74853718,0.0, 1,29, 1,15,6445756.637285438, 2, 2, 6,60
1307,2735249.1209353795,0.0, 1,29, 1,15,547732.7716889068, 2, 4,19,51
1308,192161584.74853718,0.0, 1,29, 1,15,6445756.637285438, 2, 2, 6,60
13,1149856788.7306445,151703.1275401932, 1,29, 4,15,12013738.893492945, 2, 4,19,60
61,301924526.02383536,88139.10953165221, 1,29, 1,15,1282023.4113694867, 1,29,20,15
134,70666020.44019976,63564.01800854099, 1,29, 4,15,156554.22484006523, 2, 3,20,15
170,5241013.419656067,348.4159749238097, 1,29, 4,15,17476.39704006126, 2, 3,12,15
207,6509451.13922267,815.2532113832032, 1,29, 3,15,22990.642799023623, 2, 3,10,15
244,12749673.399825225,1521.856143006317, 1,29, 4,15,53038.631142310165, 2, 3,20,15
281,46165882.481495745,59938.60262432081, 1,29, 5,15,81951.81706819107, 1,29,19,15
318,0.0,0.0, 1,29, 1,15,0.0, 1,29, 1,15
355,197687796.27748066,18561.32405820678, 1,29, 4,15,724774.895203776, 2, 3,18,15
403,197687796.27748066,18561.32405820678, 1,29, 4,15,724774.895203776, 2, 3,18,15
476,106772067.24485716,7098.072629279515, 1,29, 4,15,356036.3026282215, 2, 3,12,15
513,0.0,0.0, 1,29, 1,15,0.0, 1,29, 1,15
562,39718777.008370735,0.0, 1,29, 1,15,143046.02750108473, 2, 1,24,15
1046,0.0,0.0, 1,29, 1,15,0.0, 1,29, 1,15
1096,51236590.84892243,0.0, 1,29, 1,15,987300.245060215, 1,29,16,30
1134,494149289.66078,0.0, 1,29, 1,15,4358458.436527134, 2, 2, 6,15
1326,192161584.74853718,0.0, 1,29, 1,15,10529270.789162127, 2, 4,19,60
1379,0.0,0.0, 1,29, 1,15,0.0, 1,29, 1,15
1,EXTREME_SUMMER,  30.32, -97.76,  -6.00, 204.20
5,7
1038,0.0,0.0, 8,12, 1,15,0.0, 8,12, 1,15
1039,71.75,0.0, 8,12, 1,15,0.25, 8,12,12,30
581,0.09425782673677056,0.0, 8,14,20,29,0.26153951530636926, 8,16,22,60
582,2.3742109310514374,0.0, 8,14,20,17,5.671538500262853, 8,16,14,50
583,0.0508899882178445,0.0007804127151791811, 8,18,23, 3,0.07468249680587384, 8,16,22, 7
1115,0.0,0.0, 8,12, 1, 7,0.0, 8,12, 1, 7
1128,0.0,0.0, 8,12, 1, 7,0.0, 8,12, 1, 7
1153,0.0,0.0, 8,12, 1, 7,0.0, 8,12, 1, 7
1154,0.0,0.0, 8,12, 1, 7,0.0, 8,12, 1, 7
1155,0.0,0.0, 8,12, 1, 7,0.0, 8,12, 1, 7
1156,0.0,0.0, 8,12, 1, 7,0.0, 8,12, 1, 7
1292,-21453955.74495945,-34309.18071531754, 8,16,22,60,-3153.82410462071, 8,18,18,30
1306,132432483.32799453,0.0, 8,12, 1, 7,4479945.583346018, 8,16, 6,60
1307,0.0,0.0, 8,12, 1, 7,0.0, 8,12, 1, 7
1308,132432483.32799453,0.0, 8,12, 1, 7,4479945.583346018, 8,16, 6,60
13,1275074442.4428248,334334.06164500816, 8,12, 4,60,10467803.422277087, 8,18,19,60
61,301924526.02383536,88139.10953165221, 8,12, 1,15,1282023.4113694867, 8,12,20,15
134,70666020.44019976,63564.01800854099, 8,12, 4,15,156554.22484006523, 8,17,20,15
170,5241013.419656067,348.4159749238097, 8,12, 4,15,17476.39704006126, 8,17,12,15
207,6509451.13922267,815.2532113832032, 8,12, 3,15,22990.642799023623, 8,17,10,15
244,12749673.399825225,1521.856143006317, 8,12, 4,15,53038.631142310165, 8,17,20,15
281,46165882.481495745,59938.60262432081, 8,12, 5,15,81951.81706819107, 8,12,19,15
318,0.0,0.0, 8,12, 1,15,0.0, 8,12, 1,15
355,197687796.27748066,18561.32405820678, 8,12, 4,15,724774.895203776, 8,17,18,15
403,197687796.27748066,18561.32405820678, 8,12, 4,15,724774.895203776, 8,17,18,15
476,106772067.24485716,7098.072629279515, 8,12, 4,15,356036.3026282215, 8,17,12,15
513,0.0,0.0, 8,12, 1,15,0.0, 8,12, 1,15
562,67579661.63511205,16499.43474822616, 8,12, 5,60,143046.02750108473, 8,12,11,60
1046,0.0,0.0, 8,12, 1,15,0.0, 8,12, 1,15
1096,702471751.0156822,140288.4964840757, 8,12, 5,60,1672336.5276829128, 8,12,16,60
1134,0.0,0.0, 8,12, 1,15,0.0, 8,12, 1,15
1326,132432483.32799451,0.0, 8,12, 1,15,7517069.684681861, 8,18,19,60
1379,0.0,0.0, 8,12, 1,15,0.0, 8,12, 1,15
1,ANNUAL,  30.32, -97.76,  -6.00, 204.20
5,365
1038,0.75,0.0, 1, 1, 1,15,0.25, 1, 2, 6,15
1039,1272.25,0.0, 1, 1, 1,15,0.25, 1, 6,13,45
581,0.14527355028936048,0.0, 1, 1, 1,48,0.7068870105523125, 2, 9, 6,49
582,2.190781351732208,0.0, 1, 2, 7,52,12.398108229394381,12,22,11,60
583,0.032966140649387396,0.0, 5,15,23, 3,0.08425817969481787, 2, 1,24,15
1115,2979218629.1429,0.0, 1, 1, 1,15,4325892.075411005, 2, 5, 6,45
1128,950940165.40376,0.0, 1, 1, 1,15,1364914.5620454813, 2, 3,10,45
1153,29890526.097411197,0.0, 1, 1, 1,15,83819.07354848189, 3,13, 6,45
1154,681890246.7518975,0.0, 1, 1, 1,37,180000.0, 1, 1, 1,15
1155,161715033.4307296,0.0, 1, 1, 1,15,2260455.252113837, 2, 2, 6,45
1156,161715033.4307296,0.0, 1, 1, 1,15,2260455.252113837, 2, 2, 6,45
1292,-1162684949.8929124,-39763.90144153397,12,13, 5,60,-1971.9459926685743, 9, 7,16,16
1306,8470694075.89668,0.0, 1, 1, 1,15,10540800.0, 1, 8,19,60
1307,52153596.29413234,0.0, 1, 1, 1,15,2757639.134117834, 1,15,19,60
1308,8470694075.89668,0.0, 1, 1, 1,15,10540800.0, 1, 8,19,60
13,50985125984.062195,151703.1275401932, 1,12, 4,15,13210871.248503592, 6, 4,19,60
61,15743207428.383959,88139.10953165221, 1, 1, 1,15,1282023.4113694867, 1, 1,20,15
134,3685071073.4325233,63564.01800854099, 1, 2, 4,15,156554.22484006523, 1, 1,20,15
170,273393721.45532674,348.4159749238097, 1, 2, 4,15,17476.39704006126, 1, 1,12,15
207,339560869.0695816,815.2532113832032, 1, 2, 3,15,22990.642799023623, 1, 1,10,15
244,664895467.8009144,1521.856143006317, 1, 2, 4,15,53038.631142310165, 1, 1,20,15
281,2407221015.106824,59938.60262432081, 1, 1, 5,15,81951.81706819107, 1, 1,19,15
318,0.0,0.0, 1, 1, 1,15,0.0, 1, 1, 1,15
355,10310294493.051695,18561.32405820678, 1, 2, 4,15,724774.895203776, 1, 1,18,15
403,10310294493.051695,18561.32405820678, 1, 2, 4,15,724774.895203776, 1, 1,18,15
476,5569688622.066177,7098.072629279515, 1, 2, 4,15,356036.3026282215, 1, 1,12,15
513,0.0,0.0, 1, 1, 1,15,0.0, 1, 1, 1,15
562,2165269340.5148582,0.0, 1, 1, 1,15,143046.02750108473, 2, 1,24,15
1046,0.0,0.0, 1, 1, 1,15,0.0, 1, 1, 1,15
1096,19096448094.148865,0.0, 1, 1, 1,15,1712851.8133671426, 7,13,15,60
1134,1824435971.6838014,0.0, 1, 1, 1,45,4202573.100975769, 2, 2, 6,15
1326,8470694075.896658,0.0, 1, 1, 1,15,10540800.0, 1, 8,19,60
1379,0.0,0.0, 1, 1, 1,15,0.0, 1, 1, 1,15
End of Data
 Number of Records Written=          99
