Program Version,EnergyPlus, Version 22.2.0-c249759bad, YMD=2023.08.31 13:04
1,5,Environment Title[],Latitude[deg],Longitude[deg],Time Zone[],Elevation[m]
2,8,Day of Simulation[],Month[],Day of Month[],DST Indicator[1=yes 0=no],Hour[],StartMinute[],EndMinute[],DayType
3,5,Cumulative Day of Simulation[],Month[],Day of Month[],DST Indicator[1=yes 0=no],DayType  ! When Daily Report Variables Requested
4,2,Cumulative Days of Simulation[],Month[]  ! When Monthly Report Variables Requested
5,1,Cumulative Days of Simulation[] ! When Run Period Report Variables Requested
6,1,Calendar Year of Simulation[] ! When Annual Report Variables Requested
618,11,DX_HEATING_COIL,Heating Coil Heating Energy [J] !RunPeriod [Value,Min,Month,Day,Hour,Minute,Max,Month,Day,Hour,Minute]
631,11,DX_HEATING_COIL,Heating Coil Electricity Energy [J] !RunPeriod [Value,Min,Month,Day,Hour,Minute,Max,Month,Day,Hour,Minute]
656,11,DX_HEATING_COIL,Heating Coil Defrost Electricity Energy [J] !RunPeriod [Value,Min,Month,Day,Hour,Minute,Max,Month,Day,Hour,Minute]
657,11,DX_HEATING_COIL,Heating Coil Crankcase Heater Electricity Energy [J] !RunPeriod [Value,Min,Month,Day,Hour,Minute,Max,Month,Day,Hour,Minute]
684,11,HEAT PUMP WATER HEATER EVAPORATOR,Cooling Coil Total Water Heating Energy [J] !RunPeriod [Value,Min,Month,Day,Hour,Minute,Max,Month,Day,Hour,Minute]
685,11,HEAT PUMP WATER HEATER EVAPORATOR,Cooling Coil Water Heating Electricity Energy [J] !RunPeriod [Value,Min,Month,Day,Hour,Minute,Max,Month,Day,Hour,Minute]
712,11,LIVING,AFN Zone Infiltration Air Change Rate [ach] !RunPeriod [Value,Min,Month,Day,Hour,Minute,Max,Month,Day,Hour,Minute]
713,11,ATTIC,AFN Zone Infiltration Air Change Rate [ach] !RunPeriod [Value,Min,Month,Day,Hour,Minute,Max,Month,Day,Hour,Minute]
714,11,CRAWLSPACE,AFN Zone Infiltration Air Change Rate [ach] !RunPeriod [Value,Min,Month,Day,Hour,Minute,Max,Month,Day,Hour,Minute]
1157,11,Facility,Facility Heating Setpoint Not Met Time [hr] !RunPeriod [Value,Min,Month,Day,Hour,Minute,Max,Month,Day,Hour,Minute]
1158,11,Facility,Facility Cooling Setpoint Not Met Time [hr] !RunPeriod [Value,Min,Month,Day,Hour,Minute,Max,Month,Day,Hour,Minute]
1184,11,HEATING_RESISTANCE_BACKUP,Heating Coil Heating Energy [J] !RunPeriod [Value,Min,Month,Day,Hour,Minute,Max,Month,Day,Hour,Minute]
1185,11,HEATING_RESISTANCE_BACKUP,Heating Coil Electricity Energy [J] !RunPeriod [Value,Min,Month,Day,Hour,Minute,Max,Month,Day,Hour,Minute]
1334,11,WATER HEATER TANK,Water Heater Heating Energy [J] !RunPeriod [Value,Min,Month,Day,Hour,Minute,Max,Month,Day,Hour,Minute]
13,11,Electricity:Facility [J] !RunPeriod [Value,Min,Month,Day,Hour,Minute,Max,Month,Day,Hour,Minute]
637,11,Heating:Electricity [J] !RunPeriod [Value,Min,Month,Day,Hour,Minute,Max,Month,Day,Hour,Minute]
599,11,Cooling:Electricity [J] !RunPeriod [Value,Min,Month,Day,Hour,Minute,Max,Month,Day,Hour,Minute]
692,11,Fans:Electricity [J] !RunPeriod [Value,Min,Month,Day,Hour,Minute,Max,Month,Day,Hour,Minute]
1372,11,Pumps:Electricity [J] !RunPeriod [Value,Min,Month,Day,Hour,Minute,Max,Month,Day,Hour,Minute]
677,11,WaterSystems:Electricity [J] !RunPeriod [Value,Min,Month,Day,Hour,Minute,Max,Month,Day,Hour,Minute]
61,11,InteriorLights:Electricity [J] !RunPeriod [Value,Min,Month,Day,Hour,Minute,Max,Month,Day,Hour,Minute]
1165,11,ExteriorLights:Electricity [J] !RunPeriod [Value,Min,Month,Day,Hour,Minute,Max,Month,Day,Hour,Minute]
134,11,InteriorEquipment:Electricity [J] !RunPeriod [Value,Min,Month,Day,Hour,Minute,Max,Month,Day,Hour,Minute]
170,11,gas_dryer:InteriorEquipment:Electricity [J] !RunPeriod [Value,Min,Month,Day,Hour,Minute,Max,Month,Day,Hour,Minute]
207,11,clotheswasher:InteriorEquipment:Electricity [J] !RunPeriod [Value,Min,Month,Day,Hour,Minute,Max,Month,Day,Hour,Minute]
244,11,dishwasher:InteriorEquipment:Electricity [J] !RunPeriod [Value,Min,Month,Day,Hour,Minute,Max,Month,Day,Hour,Minute]
281,11,refrigerator:InteriorEquipment:Electricity [J] !RunPeriod [Value,Min,Month,Day,Hour,Minute,Max,Month,Day,Hour,Minute]
318,11,electric_mels:InteriorEquipment:Electricity [J] !RunPeriod [Value,Min,Month,Day,Hour,Minute,Max,Month,Day,Hour,Minute]
355,11,NaturalGas:Facility [J] !RunPeriod [Value,Min,Month,Day,Hour,Minute,Max,Month,Day,Hour,Minute]
403,11,InteriorEquipment:NaturalGas [J] !RunPeriod [Value,Min,Month,Day,Hour,Minute,Max,Month,Day,Hour,Minute]
476,11,gas_dryer:InteriorEquipment:NaturalGas [J] !RunPeriod [Value,Min,Month,Day,Hour,Minute,Max,Month,Day,Hour,Minute]
513,11,gas_mels:InteriorEquipment:NaturalGas [J] !RunPeriod [Value,Min,Month,Day,Hour,Minute,Max,Month,Day,Hour,Minute]
End of Data Dictionary
1,EXTREME_WINTER,  46.84, -92.18,  -6.00, 432.00
5,7
1157,45.5,0.0, 1,20, 1,15,0.25, 1,20, 6,15
1158,0.0,0.0, 1,20, 1,15,0.0, 1,20, 1,15
618,1695919418.6439295,0.0, 1,22,23, 3,3603698.7762939073, 1,26,18,60
631,713587097.8249445,0.0, 1,22,23, 3,1211566.7656232521, 1,26,20,60
656,2450258.0253633712,0.0, 1,22,23, 3,22760.861522980616, 1,25, 8,60
657,180000.0,0.0, 1,20, 1, 1,45000.0, 1,22,23, 3
684,309542846.4504966,0.0, 1,20, 1, 1,1332084.4577572246, 1,26,19,15
685,72849388.50841595,0.0, 1,20, 1, 1,331882.2734259076, 1,26,15,60
712,0.4300803154431057,0.2902945357403837, 1,26,23,11,0.8017297305818868, 1,23,15,55
713,5.395022975852413,0.31619553804318634, 1,26, 9,15,16.07267171007524, 1,21,14,50
714,6.6978074466436945,0.6570954886773274, 1,24,10,48,19.13235758453248, 1,23,15,50
1184,4412532443.078444,0.0, 1,22,23, 3,8429985.679283176, 1,20, 8,15
1185,4412532443.078444,0.0, 1,22,23, 3,8429985.679283176, 1,20, 8,15
1334,5833011.869458544,0.0, 1,20, 1, 1,1350000.0, 1,26,10,30
13,5696016768.925534,2899475.5995978527, 1,26,23,15,11382255.28027581, 1,23,21,15
61,301924526.02383536,88139.10953165221, 1,20, 1,15,1282023.4113694867, 1,20,20,15
134,70666020.44019976,63564.01800854099, 1,20, 4,15,156554.22484006523, 1,25,20,15
170,5241013.419656067,348.4159749238097, 1,20, 4,15,17476.39704006126, 1,25,12,15
207,6509451.13922267,815.2532113832032, 1,20, 3,15,22990.642799023623, 1,25,10,15
244,12749673.399825225,1521.856143006317, 1,20, 4,15,53038.631142310165, 1,25,20,15
281,46165882.481495745,59938.60262432081, 1,20, 5,15,81951.81706819107, 1,20,19,15
318,0.0,0.0, 1,20, 1,15,0.0, 1,20, 1,15
355,197687796.27748066,18561.32405820678, 1,20, 4,15,724774.895203776, 1,25,18,15
403,197687796.27748066,18561.32405820678, 1,20, 4,15,724774.895203776, 1,25,18,15
476,106772067.24485716,7098.072629279515, 1,20, 4,15,356036.3026282215, 1,25,12,15
513,0.0,0.0, 1,20, 1,15,0.0, 1,20, 1,15
599,0.0,0.0, 1,20, 1,15,0.0, 1,20, 1,15
637,5128749798.928757,2139182.4887885773, 1,26,23,15,9526337.418633781, 1,23, 7,60
677,83823200.37787451,7650.0, 1,20, 1,15,4057650.0, 1,26,10,45
692,110853223.15486827,101120.81701657653, 1,22,23,15,211723.75602210214, 1,20,11,60
1165,0.0,0.0, 1,20, 1,15,0.0, 1,20, 1,15
1372,0.0,0.0, 1,20, 1,15,0.0, 1,20, 1,15
1,EXTREME_SUMMER,  46.84, -92.18,  -6.00, 432.00
5,7
1157,0.0,0.0, 7,13, 1,15,0.0, 7,13, 1,15
1158,24.5,0.0, 7,13, 1,15,0.25, 7,16,14,30
618,0.0,0.0, 7,13, 1,15,0.0, 7,13, 1,15
631,0.0,0.0, 7,13, 1,15,0.0, 7,13, 1,15
656,0.0,0.0, 7,13, 1,15,0.0, 7,13, 1,15
657,0.0,0.0, 7,13, 1,15,0.0, 7,13, 1,15
684,260313072.6135327,0.0, 7,13, 1,15,1935594.1464242623, 7,14, 7,30
685,48742973.97635221,0.0, 7,13, 1,15,380469.8884781611, 7,19,13,45
712,0.1655319768166644,0.0, 7,14,21,45,0.4900178662693642, 7,18,17,52
713,4.751250419264274,0.0, 7,15, 6, 3,15.198222274529016, 7,18,16,52
714,5.266299050272908,0.0, 7,14,23, 5,17.529554222635213, 7,18,16,52
1184,0.0,0.0, 7,13, 1,15,0.0, 7,13, 1,15
1185,0.0,0.0, 7,13, 1,15,0.0, 7,13, 1,15
1334,0.0,0.0, 7,13, 1,15,0.0, 7,13, 1,15
13,861241811.9101957,159353.1275401932, 7,13, 4,45,3333428.6601219308, 7,16,20,15
61,301924526.02383536,88139.10953165221, 7,13, 1,15,1282023.4113694867, 7,13,20,15
134,70666020.44019976,63564.01800854099, 7,13, 4,15,156554.22484006523, 7,18,20,15
170,5241013.419656067,348.4159749238097, 7,13, 4,15,17476.39704006126, 7,18,12,15
207,6509451.13922267,815.2532113832032, 7,13, 3,15,22990.642799023623, 7,18,10,15
244,12749673.399825225,1521.856143006317, 7,13, 4,15,53038.631142310165, 7,18,20,15
281,46165882.481495745,59938.60262432081, 7,13, 5,15,81951.81706819107, 7,13,19,15
318,0.0,0.0, 7,13, 1,15,0.0, 7,13, 1,15
355,197687796.27748066,18561.32405820678, 7,13, 4,15,724774.895203776, 7,18,18,15
403,197687796.27748066,18561.32405820678, 7,13, 4,15,724774.895203776, 7,18,18,15
476,106772067.24485716,7098.072629279515, 7,13, 4,15,356036.3026282215, 7,18,12,15
513,0.0,0.0, 7,13, 1,15,0.0, 7,13, 1,15
599,382431359.52120346,0.0, 7,13, 4,45,1455420.7198535814, 7,18,15,45
637,0.0,0.0, 7,13, 1,15,0.0, 7,13, 1,15
677,53883773.97635217,7650.0, 7,13, 1,15,390507.46254780365, 7,13,10,60
692,52336131.94860591,0.0, 7,13, 4,45,211723.7560221021, 7,16,20,15
1165,0.0,0.0, 7,13, 1,15,0.0, 7,13, 1,15
1372,0.0,0.0, 7,13, 1,15,0.0, 7,13, 1,15
1,ANNUAL,  46.84, -92.18,  -6.00, 432.00
5,365
1157,177.75,0.0, 1, 1, 1,15,0.25, 1,11,17,30
1158,68.0,0.0, 1, 1, 1,15,0.25, 6,20,13,45
618,53060980619.31494,0.0, 1, 1,23, 5,5062289.9616448395,12, 4, 9,30
631,17042073084.761637,0.0, 1, 1,23, 5,1376011.9924363103, 3,29, 7,45
656,550225270.5944155,0.0, 1, 1,23, 5,154476.5539243915, 4,19, 8,60
657,1371938878.2345564,0.0, 1, 1, 1, 1,180000.0, 2, 8,15,30
684,15002436962.24046,0.0, 1, 1, 1, 1,2000733.408351717, 8,31, 6,60
685,3116336072.8324237,0.0, 1, 1, 1, 1,384692.65163919283, 7, 7,10,60
712,0.2933202357310417,0.0, 7, 6,17,52,1.3263447030028237, 3, 1,20,60
713,5.490799944101638,0.0, 1, 4,23, 8,38.86044369361763, 3, 1,20,60
714,6.051606875461345,0.0, 7,14,23, 5,36.16134873199094, 3, 1,20,60
1184,31126664106.92992,0.0, 1, 1,23, 5,8429985.679283176, 1,20, 6,15
1185,31126664106.92992,0.0, 1, 1,23, 5,8429985.679283176, 1,20, 6,15
1334,157737106.78127307,0.0, 1, 1, 1, 1,3982799.9689192805, 1,15,10,45
13,79795824382.01935,159353.1275401932, 5,24, 4,30,13849573.424362628, 1,22,10,45
61,15743207428.383959,88139.10953165221, 1, 1, 1,15,1282023.4113694867, 1, 1,20,15
134,3685071073.4325233,63564.01800854099, 1, 2, 4,15,156554.22484006523, 1, 1,20,15
170,273393721.45532674,348.4159749238097, 1, 2, 4,15,17476.39704006126, 1, 1,12,15
207,339560869.0695816,815.2532113832032, 1, 2, 3,15,22990.642799023623, 1, 1,10,15
244,664895467.8009144,1521.856143006317, 1, 2, 4,15,53038.631142310165, 1, 1,20,15
281,2407221015.106824,59938.60262432081, 1, 1, 5,15,81951.81706819107, 1, 1,19,15
318,0.0,0.0, 1, 1, 1,15,0.0, 1, 1, 1,15
355,10310294493.051695,18561.32405820678, 1, 2, 4,15,724774.895203776, 1, 1,18,15
403,10310294493.051695,18561.32405820678, 1, 2, 4,15,724774.895203776, 1, 1,18,15
476,5569688622.066177,7098.072629279515, 1, 2, 4,15,356036.3026282215, 1, 1,12,15
513,0.0,0.0, 1, 1, 1,15,0.0, 1, 1, 1,15
599,3602805033.59339,0.0, 1, 1, 1,15,1455557.581676714, 7,18,15,60
637,50090901340.52073,0.0, 3,12,16,60,9562464.835048396, 1,19,19,30
677,3542129179.6137047,7650.0, 1, 1, 1,30,4057650.0, 1,22,10,45
692,3131710326.473736,0.0, 2, 8,15,30,211723.75602210214, 1,20,11,45
1165,0.0,0.0, 1, 1, 1,15,0.0, 1, 1, 1,15
1372,0.0,0.0, 1, 1, 1,15,0.0, 1, 1, 1,15
End of Data
 Number of Records Written=          96
