Program Version,EnergyPlus, Version 22.2.0-c249759bad, YMD=2023.09.01 14:30
1,5,Environment Title[],Latitude[deg],Longitude[deg],Time Zone[],Elevation[m]
2,8,Day of Simulation[],Month[],Day of Month[],DST Indicator[1=yes 0=no],Hour[],StartMinute[],EndMinute[],DayType
3,5,Cumulative Day of Simulation[],Month[],Day of Month[],DST Indicator[1=yes 0=no],DayType  ! When Daily Report Variables Requested
4,2,Cumulative Days of Simulation[],Month[]  ! When Monthly Report Variables Requested
5,1,Cumulative Days of Simulation[] ! When Run Period Report Variables Requested
6,1,Calendar Year of Simulation[] ! When Annual Report Variables Requested
7,1,Environment,Site Outdoor Air Drybulb Temperature [C] !Hourly
619,1,DX_HEATING_COIL,Heating Coil Heating Rate [W] !Hourly
633,1,DX_HEATING_COIL,Heating Coil Electricity Rate [W] !Hourly
659,1,DX_HEATING_COIL,Heating Coil Defrost Electricity Rate [W] !Hourly
661,1,DX_HEATING_COIL,Heating Coil Crankcase Heater Electricity Rate [W] !Hourly
690,1,FAN,Fan Electricity Rate [W] !Hourly
716,1,HEAT PUMP WATER HEATER FAN,Fan Electricity Rate [W] !Hourly
718,1,LIVING,Zone Mean Air Temperature [C] !Hourly
719,1,ATTIC,Zone Mean Air Temperature [C] !Hourly
720,1,CRAWLSPACE,Zone Mean Air Temperature [C] !Hourly
843,1,LIVING,Zone Predicted Sensible Load to Heating Setpoint Heat Transfer Rate [W] !Hourly
844,1,LIVING,Zone System Predicted Sensible Load to Heating Setpoint Heat Transfer Rate [W] !Hourly
907,1,ATTIC,Zone Predicted Sensible Load to Heating Setpoint Heat Transfer Rate [W] !Hourly
908,1,ATTIC,Zone System Predicted Sensible Load to Heating Setpoint Heat Transfer Rate [W] !Hourly
971,1,CRAWLSPACE,Zone Predicted Sensible Load to Heating Setpoint Heat Transfer Rate [W] !Hourly
972,1,CRAWLSPACE,Zone System Predicted Sensible Load to Heating Setpoint Heat Transfer Rate [W] !Hourly
1195,1,HEATING_RESISTANCE_BACKUP,Heating Coil Heating Rate [W] !Hourly
1197,1,HEATING_RESISTANCE_BACKUP,Heating Coil Electricity Rate [W] !Hourly
End of Data Dictionary
1,EXTREME_WINTER,  33.95,-117.43,  -8.00, 249.00
2,1, 2,15, 0, 1, 0.00,60.00,Monday
7,8.9
718,18.704703333437532
719,3.438591568983511
720,19.753901175724113
619,0.0
633,0.0
659,0.0
661,200.0
690,0.0
716,0.0
843,-51.708548876875284
844,-51.708548876875284
907,0.0
908,0.0
971,0.0
972,0.0
1195,0.0
1197,0.0
2,1, 2,15, 0, 2, 0.00,60.00,Monday
7,8.9
718,18.602779740377407
719,4.661923701881505
720,19.5259962274184
619,154.2701217926342
633,41.14834144447188
659,0.0
661,195.75599019583544
690,3.6530069466519537
716,0.0
843,123.02709464227428
844,123.02709464227428
907,0.0
908,0.0
971,0.0
972,0.0
1195,0.0
1197,0.0
2,1, 2,15, 0, 3, 0.00,60.00,Monday
7,8.9
718,18.604084322077203
719,5.464043565663433
720,19.380099718018972
619,403.1852164536456
633,106.87141888993095
659,0.0
661,188.95500318414017
690,9.506917268308966
716,0.0
843,309.70620747494286
844,309.70620747494286
907,0.0
908,0.0
971,0.0
972,0.0
1195,0.0
1197,0.0
2,1, 2,15, 0, 4, 0.00,60.00,Monday
7,9.4
718,18.620770692131426
719,6.078817474587756
720,19.241888339891446
619,560.7315864554321
633,147.3785056959386
659,0.0
661,184.8597358206756
690,13.031895017524592
716,0.0
843,452.9487316751347
844,452.9487316751347
907,0.0
908,0.0
971,0.0
972,0.0
1195,0.0
1197,0.0
2,1, 2,15, 0, 5, 0.00,60.00,Monday
7,8.9
718,18.596647236967893
719,6.3752316809315355
720,19.120903956723662
619,581.6181654492318
633,153.77244995817395
659,0.0
661,184.1093319439231
690,13.677800823840464
716,0.0
843,459.2825972752289
844,459.2825972752289
907,0.0
908,0.0
971,0.0
972,0.0
1195,0.0
1197,0.0
2,1, 2,15, 0, 6, 0.00,60.00,Monday
7,8.3
718,19.533866092595712
719,6.650266195319364
720,18.992792397500562
619,1572.1072217528147
633,412.2025704526472
659,0.0
661,157.0716804913594
690,36.9503032766976
716,0.0
843,1276.2315277701618
844,1276.2315277701618
907,0.0
908,0.0
971,0.0
972,0.0
1195,0.0
1197,0.0
2,1, 2,15, 0, 7, 0.00,60.00,Monday
7,8.9
718,19.656599390474042
719,7.120176161853133
720,18.893690334910968
619,2717.2054737110684
633,709.9708842559772
659,0.0
661,127.81236352070752
690,62.1350915029639
716,85.44000000000007
843,1125.3322331148174
844,1125.3322331148174
907,0.0
908,0.0
971,0.0
972,0.0
1195,0.0
1197,0.0
2,1, 2,15, 0, 8, 0.00,60.00,Monday
7,8.9
718,19.709768780940838
719,7.875137272173588
720,18.809441619658593
619,1636.8291418152269
633,435.74856490912015
659,0.0
661,155.79464361876967
690,38.04950539496867
716,34.35498761569912
843,880.5632724928982
844,880.5632724928982
907,0.0
908,0.0
971,0.0
972,0.0
1195,0.0
1197,0.0
2,1, 2,15, 0, 9, 0.00,60.00,Monday
7,10.6
718,19.755305291204692
719,9.465366278647293
720,18.72887107535433
619,934.5567205869313
633,246.71723819821955
659,0.0
661,0.0
690,21.082793080657183
716,0.0
843,747.9691893910822
844,747.9691893910822
907,0.0
908,0.0
971,0.0
972,0.0
1195,0.0
1197,0.0
2,1, 2,15, 0,10, 0.00,60.00,Monday
7,11.1
718,19.81147721554967
719,11.21329592018824
720,18.65156598313075
619,675.6262165666648
633,178.21436041339774
659,0.0
661,0.0
690,15.120736532869921
716,0.0
843,553.977795701041
844,553.977795701041
907,0.0
908,0.0
971,0.0
972,0.0
1195,0.0
1197,0.0
2,1, 2,15, 0,11, 0.00,60.00,Monday
7,10.6
718,19.70691590433745
719,13.307168936999705
720,18.580794405525904
619,395.45204216244554
633,105.43795496075164
659,0.0
661,0.0
690,8.994478696982767
716,0.0
843,319.84125733020846
844,319.84125733020846
907,0.0
908,0.0
971,0.0
972,0.0
1195,0.0
1197,0.0
2,1, 2,15, 0,12, 0.00,60.00,Monday
7,11.7
718,19.76374842411914
719,16.183689697377325
720,18.52034842116839
619,102.38110489796443
633,27.02424710316532
659,0.0
661,0.0
690,2.2770392235226296
716,0.0
843,85.90598975942885
844,85.90598975942885
907,0.0
908,0.0
971,0.0
972,0.0
1195,0.0
1197,0.0
2,1, 2,15, 0,13, 0.00,60.00,Monday
7,10.6
718,19.490998624523655
719,15.251092333298889
720,18.468838816607544
619,0.0
633,0.0
659,0.0
661,0.0
690,0.0
716,0.0
843,-36.906499767175774
844,-36.906499767175774
907,0.0
908,0.0
971,0.0
972,0.0
1195,0.0
1197,0.0
2,1, 2,15, 0,14, 0.00,60.00,Monday
7,8.9
718,19.609106593996234
719,14.103374243899962
720,18.422459328023187
619,1276.3461067308417
633,340.2259101445884
659,0.0
661,165.3704576868967
690,29.80717869808171
716,64.39036625751184
843,309.1185726342201
844,309.1185726342201
907,0.0
908,0.0
971,0.0
972,0.0
1195,0.0
1197,0.0
2,1, 2,15, 0,15, 0.00,60.00,Monday
7,8.9
718,19.857677463991063
719,12.854299121641736
720,18.392937938274923
619,432.77396958383326
633,117.14750572965428
659,0.0
661,188.10241204066244
690,10.240780174733409
716,0.0
843,365.6546260898649
844,365.6546260898649
907,0.0
908,0.0
971,0.0
972,0.0
1195,0.0
1197,0.0
2,1, 2,15, 0,16, 0.00,60.00,Monday
7,9.0
718,19.748844491395534
719,11.688235811489383
720,18.355133991020107
619,287.73543715740436
633,78.39370851936323
659,0.0
661,192.08346349971282
690,6.81411310609957
716,0.0
843,234.0746642707618
844,234.0746642707618
907,0.0
908,0.0
971,0.0
972,0.0
1195,0.0
1197,0.0
2,1, 2,15, 0,17, 0.00,60.00,Monday
7,8.3
718,19.56412926264404
719,10.117535103269377
720,18.312048943140958
619,144.33112546114685
633,39.670084608078774
659,0.0
661,195.95330629042928
690,3.4831682569462146
716,0.0
843,119.74380579242461
844,119.74380579242461
907,0.0
908,0.0
971,0.0
972,0.0
1195,0.0
1197,0.0
2,1, 2,15, 0,18, 0.00,60.00,Monday
7,9.4
718,19.980604588134565
719,9.751707821214783
720,18.268809379080597
619,111.63566500171304
633,30.144209172115147
659,0.0
661,196.95397840249973
690,2.6218455113844295
716,0.0
843,82.83044085437359
844,82.83044085437359
907,0.0
908,0.0
971,0.0
972,0.0
1195,0.0
1197,0.0
2,1, 2,15, 0,19, 0.00,60.00,Monday
7,8.9
718,18.975087533976374
719,9.199465954062036
720,18.2214284500656
619,0.0
633,0.0
659,0.0
661,200.0
690,0.0
716,75.52048984758825
843,-256.756646759859
844,-256.756646759859
907,0.0
908,0.0
971,0.0
972,0.0
1195,0.0
1197,0.0
2,1, 2,15, 0,20, 0.00,60.00,Monday
7,8.3
718,19.518363427051927
719,9.089217089309958
720,18.16415016294478
619,1065.5989079960427
633,283.73374593330453
659,0.0
661,170.6374525604914
690,25.273643256589224
716,68.37973548477173
843,43.79526967003221
844,43.79526967003221
907,0.0
908,0.0
971,0.0
972,0.0
1195,0.0
1197,0.0
2,1, 2,15, 0,21, 0.00,60.00,Monday
7,7.8
718,19.936466353245162
719,8.20411064168495
720,18.124135285762247
619,0.0
633,0.0
659,0.0
661,200.0
690,0.0
716,0.0
843,-45.87152760254321
844,-45.87152760254321
907,0.0
908,0.0
971,0.0
972,0.0
1195,0.0
1197,0.0
2,1, 2,15, 0,22, 0.00,60.00,Monday
7,7.2
718,19.765538823442984
719,6.022239134408232
720,18.068699693319697
619,0.0
633,0.0
659,0.0
661,200.0
690,0.0
716,0.0
843,-23.775579343608115
844,-23.775579343608115
907,0.0
908,0.0
971,0.0
972,0.0
1195,0.0
1197,0.0
2,1, 2,15, 0,23, 0.00,60.00,Monday
7,6.7
718,19.32263754637171
719,4.048650579133682
720,18.011308758350147
619,0.0
633,0.0
659,0.0
661,200.0
690,0.0
716,0.0
843,-373.9155216756981
844,-373.9155216756981
907,0.0
908,0.0
971,0.0
972,0.0
1195,0.0
1197,0.0
2,1, 2,15, 0,24, 0.00,60.00,Monday
7,5.6
718,18.660711316530158
719,2.5368565094532416
720,17.948728519964927
619,0.0
633,0.0
659,0.0
661,200.0
690,0.0
716,0.0
843,-24.52851622464732
844,-24.52851622464732
907,0.0
908,0.0
971,0.0
972,0.0
1195,0.0
1197,0.0
2,2, 2,16, 0, 1, 0.00,60.00,Tuesday
7,7.2
718,18.602345589975425
719,1.8856052812531352
720,17.878619839023884
619,191.8004452827986
633,52.13713738942429
659,0.0
661,194.50408493218634
690,4.730577177562505
716,0.0
843,150.7944608599837
844,150.7944608599837
907,0.0
908,0.0
971,0.0
972,0.0
1195,0.0
1197,0.0
2,2, 2,16, 0, 2, 0.00,60.00,Tuesday
7,11.1
718,18.51842589177588
719,6.603619069990481
720,17.804320566650897
619,420.7360925671633
633,108.61403108173158
659,0.0
661,0.0
690,9.406275444024882
716,0.0
843,312.71828431100766
844,312.71828431100766
907,0.0
908,0.0
971,0.0
972,0.0
1195,0.0
1197,0.0
2,2, 2,16, 0, 3, 0.00,60.00,Tuesday
7,11.1
718,18.629872230353254
719,8.06100761955321
720,17.730173461269032
619,694.1696362436787
633,178.17575019550907
659,0.0
661,0.0
690,15.453649937811964
716,0.0
843,564.1204064329886
844,564.1204064329886
907,0.0
908,0.0
971,0.0
972,0.0
1195,0.0
1197,0.0
2,2, 2,16, 0, 4, 0.00,60.00,Tuesday
7,10.6
718,18.633758340300314
719,8.90310481511191
720,17.658823455232355
619,844.3591092964623
633,217.8799785835106
659,0.0
661,0.0
690,18.987722107340982
716,0.0
843,682.1259015109626
844,682.1259015109626
907,0.0
908,0.0
971,0.0
972,0.0
1195,0.0
1197,0.0
2,2, 2,16, 0, 5, 0.00,60.00,Tuesday
7,10.6
718,18.6109729539097
719,8.939995474027594
720,17.59143560328012
619,828.2824879833188
633,213.78566105636295
659,0.0
661,0.0
690,18.630575890387068
716,0.0
843,682.0100933231515
844,682.0100933231515
907,0.0
908,0.0
971,0.0
972,0.0
1195,0.0
1197,0.0
2,2, 2,16, 0, 6, 0.00,60.00,Tuesday
7,11.1
718,19.39530606751822
719,10.108737513288718
720,17.526438960484235
619,1814.1902048528164
633,459.1012382774721
659,0.0
661,0.0
690,39.766178796936295
716,0.0
843,1483.4118774000362
844,1483.4118774000362
907,0.0
908,0.0
971,0.0
972,0.0
1195,0.0
1197,0.0
2,2, 2,16, 0, 7, 0.00,60.00,Tuesday
7,11.7
718,19.66848752271032
719,10.706404574195014
720,17.48618791625792
619,3090.650238137815
633,776.5016867988487
659,0.0
661,0.0
690,65.84530629992356
716,85.44000000000007
843,1435.5619163898446
844,1435.5619163898446
907,0.0
908,0.0
971,0.0
972,0.0
1195,0.0
1197,0.0
2,2, 2,16, 0, 8, 0.00,60.00,Tuesday
7,13.3
718,19.796621437903617
719,12.172413720310242
720,17.43346249943807
619,1830.2736826769972
633,463.76241565260176
659,0.0
661,0.0
690,38.28478268755352
716,85.44000000000007
843,389.84927486240485
844,389.84927486240485
907,0.0
908,0.0
971,0.0
972,0.0
1195,0.0
1197,0.0
2,2, 2,16, 0, 9, 0.00,60.00,Tuesday
7,13.9
718,19.652759393594756
719,14.702599517222662
720,17.38028830268594
619,0.0
633,0.0
659,0.0
661,0.0
690,0.0
716,33.51880154606408
843,-417.8777316205833
844,-417.8777316205833
907,0.0
908,0.0
971,0.0
972,0.0
1195,0.0
1197,0.0
2,2, 2,16, 0,10, 0.00,60.00,Tuesday
7,15.0
718,21.198661843980897
719,17.410281784878816
720,17.37120488866452
619,0.0
633,0.0
659,0.0
661,0.0
690,0.0
716,0.0
843,-1134.6481420774162
844,-1134.6481420774162
907,0.0
908,0.0
971,0.0
972,0.0
1195,0.0
1197,0.0
2,2, 2,16, 0,11, 0.00,60.00,Tuesday
7,15.6
718,22.072994721603536
719,19.791970184954423
720,17.389034676118
619,0.0
633,0.0
659,0.0
661,0.0
690,0.0
716,0.0
843,-1943.2729709803043
844,-1943.2729709803043
907,0.0
908,0.0
971,0.0
972,0.0
1195,0.0
1197,0.0
2,2, 2,16, 0,12, 0.00,60.00,Tuesday
7,16.7
718,23.319057944926325
719,24.815766547500594
720,17.44181839770831
619,0.0
633,0.0
659,0.0
661,0.0
690,2.006486134566112
716,0.0
843,-2605.0356446967107
844,-2605.0356446967107
907,0.0
908,0.0
971,0.0
972,0.0
1195,0.0
1197,0.0
2,2, 2,16, 0,13, 0.00,60.00,Tuesday
7,17.8
718,23.33620755458727
719,27.206927026096892
720,17.5517542696893
619,0.0
633,0.0
659,0.0
661,0.0
690,20.98081493987786
716,0.0
843,-3484.162140181623
844,-3484.162140181623
907,0.0
908,0.0
971,0.0
972,0.0
1195,0.0
1197,0.0
2,2, 2,16, 0,14, 0.00,60.00,Tuesday
7,18.9
718,23.355594205125946
719,28.876129639648806
720,17.684435244284778
619,0.0
633,0.0
659,0.0
661,0.0
690,42.02132837778673
716,0.0
843,-4596.119377216301
844,-4596.119377216301
907,0.0
908,0.0
971,0.0
972,0.0
1195,0.0
1197,0.0
2,2, 2,16, 0,15, 0.00,60.00,Tuesday
7,19.4
718,23.376235154617767
719,29.793486629046253
720,17.839422213620548
619,0.0
633,0.0
659,0.0
661,0.0
690,64.08481517268424
716,0.0
843,-5958.632022657306
844,-5958.632022657306
907,0.0
908,0.0
971,0.0
972,0.0
1195,0.0
1197,0.0
2,2, 2,16, 0,16, 0.00,60.00,Tuesday
7,19.4
718,23.350580481760428
719,29.526553078935848
720,18.005472735210688
619,0.0
633,0.0
659,0.0
661,0.0
690,79.09563600279208
716,0.0
843,-6744.689663178087
844,-6744.689663178087
907,0.0
908,0.0
971,0.0
972,0.0
1195,0.0
1197,0.0
2,2, 2,16, 0,17, 0.00,60.00,Tuesday
7,18.9
718,23.30929532266106
719,25.328265171014976
720,18.154916272618294
619,0.0
633,0.0
659,0.0
661,0.0
690,81.87382919177747
716,0.0
843,-6999.318569696839
844,-6999.318569696839
907,0.0
908,0.0
971,0.0
972,0.0
1195,0.0
1197,0.0
2,2, 2,16, 0,18, 0.00,60.00,Tuesday
7,17.8
718,23.366902495499854
719,22.0548321111118
720,18.208607284885407
619,0.0
633,0.0
659,0.0
661,0.0
690,53.1100407326311
716,0.0
843,-5833.095123647367
844,-5833.095123647367
907,0.0
908,0.0
971,0.0
972,0.0
1195,0.0
1197,0.0
2,2, 2,16, 0,19, 0.00,60.00,Tuesday
7,16.7
718,23.34697667634527
719,18.150394959293845
720,18.228310570038087
619,0.0
633,0.0
659,0.0
661,0.0
690,15.676620349235272
716,83.04104111594754
843,-5196.031744217913
844,-5196.031744217913
907,0.0
908,0.0
971,0.0
972,0.0
1195,0.0
1197,0.0
2,2, 2,16, 0,20, 0.00,60.00,Tuesday
7,16.1
718,23.28498281870826
719,15.898111869575
720,18.308100620046357
619,0.0
633,0.0
659,0.0
661,0.0
690,9.952686073442717
716,85.44000000000007
843,-4940.799530245842
844,-4940.799530245842
907,0.0
908,0.0
971,0.0
972,0.0
1195,0.0
1197,0.0
2,2, 2,16, 0,21, 0.00,60.00,Tuesday
7,16.1
718,23.290414581320928
719,15.011839928424257
720,18.37835643148026
619,0.0
633,0.0
659,0.0
661,0.0
690,20.745141938146677
716,31.98971458212826
843,-4609.174270075475
844,-4609.174270075475
907,0.0
908,0.0
971,0.0
972,0.0
1195,0.0
1197,0.0
2,2, 2,16, 0,22, 0.00,60.00,Tuesday
7,15.6
718,23.34437298918824
719,14.119628782579086
720,18.391232187400252
619,0.0
633,0.0
659,0.0
661,0.0
690,21.56225819532599
716,0.0
843,-4093.6886048882716
844,-4093.6886048882716
907,0.0
908,0.0
971,0.0
972,0.0
1195,0.0
1197,0.0
2,2, 2,16, 0,23, 0.00,60.00,Tuesday
7,15.0
718,23.94461386994858
719,13.014297243719154
720,18.331320104453045
619,0.0
633,0.0
659,0.0
661,0.0
690,0.0
716,0.0
843,-4330.5991530093015
844,-4330.5991530093015
907,0.0
908,0.0
971,0.0
972,0.0
1195,0.0
1197,0.0
2,2, 2,16, 0,24, 0.00,60.00,Tuesday
7,15.0
718,23.820381448659038
719,10.796244094948754
720,18.32145507321502
619,0.0
633,0.0
659,0.0
661,0.0
690,0.0
716,0.0
843,-2357.8177781241866
844,-2357.8177781241866
907,0.0
908,0.0
971,0.0
972,0.0
1195,0.0
1197,0.0
2,3, 2,17, 0, 1, 0.00,60.00,Wednesday
7,16.1
718,23.38595513553415
719,11.992143391309007
720,18.300492438483857
619,0.0
633,0.0
659,0.0
661,0.0
690,0.0
716,0.0
843,-2505.3001774755376
844,-2505.3001774755376
907,0.0
908,0.0
971,0.0
972,0.0
1195,0.0
1197,0.0
2,3, 2,17, 0, 2, 0.00,60.00,Wednesday
7,15.0
718,23.02349949976563
719,11.012963280630432
720,18.273371830842677
619,0.0
633,0.0
659,0.0
661,0.0
690,0.0
716,0.0
843,-2083.0203112615764
844,-2083.0203112615764
907,0.0
908,0.0
971,0.0
972,0.0
1195,0.0
1197,0.0
2,3, 2,17, 0, 3, 0.00,60.00,Wednesday
7,15.6
718,22.520634348369974
719,12.334021677433444
720,18.240696058556583
619,0.0
633,0.0
659,0.0
661,0.0
690,0.0
716,0.0
843,-2223.269719859167
844,-2223.269719859167
907,0.0
908,0.0
971,0.0
972,0.0
1195,0.0
1197,0.0
2,3, 2,17, 0, 4, 0.00,60.00,Wednesday
7,15.6
718,22.21807070367792
719,12.211909625834922
720,18.204263450329137
619,0.0
633,0.0
659,0.0
661,0.0
690,0.0
716,0.0
843,-1740.9966627818467
844,-1740.9966627818467
907,0.0
908,0.0
971,0.0
972,0.0
1195,0.0
1197,0.0
2,3, 2,17, 0, 5, 0.00,60.00,Wednesday
7,14.4
718,21.905538625701595
719,11.655197761779585
720,18.16321101683662
619,0.0
633,0.0
659,0.0
661,0.0
690,0.0
716,0.0
843,-1911.0031985375226
844,-1911.0031985375226
907,0.0
908,0.0
971,0.0
972,0.0
1195,0.0
1197,0.0
2,3, 2,17, 0, 6, 0.00,60.00,Wednesday
7,14.4
718,20.62418163694492
719,12.11361159190317
720,18.11837289542892
619,0.0
633,0.0
659,0.0
661,0.0
690,0.0
716,70.01969433468129
843,-1153.401952672115
844,-1153.401952672115
907,0.0
908,0.0
971,0.0
972,0.0
1195,0.0
1197,0.0
2,3, 2,17, 0, 7, 0.00,60.00,Wednesday
7,13.9
718,20.067171169089786
719,9.482398599586903
720,18.07366333842076
619,0.0
633,0.0
659,0.0
661,0.0
690,0.0
716,85.44000000000007
843,-1215.6181438726162
844,-1215.6181438726162
907,0.0
908,0.0
971,0.0
972,0.0
1195,0.0
1197,0.0
2,3, 2,17, 0, 8, 0.00,60.00,Wednesday
7,13.9
718,21.09694692297266
719,11.1029590272111
720,18.026292277352496
619,0.0
633,0.0
659,0.0
661,0.0
690,0.0
716,26.379998921830996
843,-1521.5951771288455
844,-1521.5951771288455
907,0.0
908,0.0
971,0.0
972,0.0
1195,0.0
1197,0.0
2,3, 2,17, 0, 9, 0.00,60.00,Wednesday
7,16.7
718,23.131964786478935
719,16.54404606035075
720,17.990007325648044
619,0.0
633,0.0
659,0.0
661,0.0
690,0.0
716,0.0
843,-2039.948558519658
844,-2039.948558519658
907,0.0
908,0.0
971,0.0
972,0.0
1195,0.0
1197,0.0
2,3, 2,17, 0,10, 0.00,60.00,Wednesday
7,17.8
718,23.313794712234
719,22.682359564600834
720,18.013529758128012
619,0.0
633,0.0
659,0.0
661,0.0
690,16.32676843830416
716,0.0
843,-3301.013037913428
844,-3301.013037913428
907,0.0
908,0.0
971,0.0
972,0.0
1195,0.0
1197,0.0
2,3, 2,17, 0,11, 0.00,60.00,Wednesday
7,20.0
718,23.365580922212914
719,27.398574657334414
720,18.09105492603525
619,0.0
633,0.0
659,0.0
661,0.0
690,37.97525711280871
716,0.0
843,-4124.791859200774
844,-4124.791859200774
907,0.0
908,0.0
971,0.0
972,0.0
1195,0.0
1197,0.0
2,3, 2,17, 0,12, 0.00,60.00,Wednesday
7,21.1
718,23.347961983415537
719,31.466129385446656
720,18.182916863893762
619,0.0
633,0.0
659,0.0
661,0.0
690,55.11822284191788
716,0.0
843,-5324.941953130561
844,-5324.941953130561
907,0.0
908,0.0
971,0.0
972,0.0
1195,0.0
1197,0.0
2,3, 2,17, 0,13, 0.00,60.00,Wednesday
7,22.2
718,23.34997704602619
719,36.0837263506328
720,18.315826935278267
619,0.0
633,0.0
659,0.0
661,0.0
690,71.6798072597611
716,0.0
843,-6145.501529509036
844,-6145.501529509036
907,0.0
908,0.0
971,0.0
972,0.0
1195,0.0
1197,0.0
2,3, 2,17, 0,14, 0.00,60.00,Wednesday
7,23.3
718,23.346604888939268
719,36.88422992939887
720,18.500821197765386
619,0.0
633,0.0
659,0.0
661,0.0
690,92.15272979895141
716,0.0
843,-6986.650621028908
844,-6986.650621028908
907,0.0
908,0.0
971,0.0
972,0.0
1195,0.0
1197,0.0
2,3, 2,17, 0,15, 0.00,60.00,Wednesday
7,22.2
718,23.329283146321476
719,35.25060926337767
720,18.6198783051348
619,0.0
633,0.0
659,0.0
661,0.0
690,104.8086332786309
716,0.0
843,-7655.6956148244535
844,-7655.6956148244535
907,0.0
908,0.0
971,0.0
972,0.0
1195,0.0
1197,0.0
2,3, 2,17, 0,16, 0.00,60.00,Wednesday
7,22.2
718,23.33047225092835
719,33.86390488871394
720,18.71903589091203
619,0.0
633,0.0
659,0.0
661,0.0
690,79.12642173579474
716,85.44000000000007
843,-8095.087081841586
844,-8095.087081841586
907,0.0
908,0.0
971,0.0
972,0.0
1195,0.0
1197,0.0
2,3, 2,17, 0,17, 0.00,60.00,Wednesday
7,20.0
718,23.3013835623034
719,27.54060641134372
720,18.891416563318696
619,0.0
633,0.0
659,0.0
661,0.0
690,91.5139117729775
716,45.320964488805565
843,-8058.39569274032
844,-8058.39569274032
907,0.0
908,0.0
971,0.0
972,0.0
1195,0.0
1197,0.0
2,3, 2,17, 0,18, 0.00,60.00,Wednesday
7,16.7
718,23.31635100097152
719,23.81066248053344
720,18.99370690343731
619,0.0
633,0.0
659,0.0
661,0.0
690,78.45046094408497
716,0.0
843,-7078.889209560995
844,-7078.889209560995
907,0.0
908,0.0
971,0.0
972,0.0
1195,0.0
1197,0.0
2,3, 2,17, 0,19, 0.00,60.00,Wednesday
7,13.9
718,23.30004188154171
719,18.78889177893331
720,19.077513919145655
619,0.0
633,0.0
659,0.0
661,0.0
690,56.60921086914681
716,0.0
843,-6055.669735009178
844,-6055.669735009178
907,0.0
908,0.0
971,0.0
972,0.0
1195,0.0
1197,0.0
2,3, 2,17, 0,20, 0.00,60.00,Wednesday
7,13.3
718,23.356421971265725
719,15.94964800699426
720,19.107470903000568
619,0.0
633,0.0
659,0.0
661,0.0
690,16.73806171614457
716,85.44000000000007
843,-5444.807116362084
844,-5444.807116362084
907,0.0
908,0.0
971,0.0
972,0.0
1195,0.0
1197,0.0
2,3, 2,17, 0,21, 0.00,60.00,Wednesday
7,12.2
718,23.276378365922277
719,13.274161603332162
720,19.159320389791347
619,0.0
633,0.0
659,0.0
661,0.0
690,29.368768348233022
716,21.716509759658887
843,-4971.870610575321
844,-4971.870610575321
907,0.0
908,0.0
971,0.0
972,0.0
1195,0.0
1197,0.0
2,3, 2,17, 0,22, 0.00,60.00,Wednesday
7,11.1
718,23.340499303980096
719,11.028008743842763
720,19.14977616211229
619,0.0
633,0.0
659,0.0
661,0.0
690,23.165508130590535
716,0.0
843,-4328.366836001367
844,-4328.366836001367
907,0.0
908,0.0
971,0.0
972,0.0
1195,0.0
1197,0.0
2,3, 2,17, 0,23, 0.00,60.00,Wednesday
7,10.0
718,23.801747015600753
719,9.00025674499586
720,19.10271072137593
619,0.0
633,0.0
659,0.0
661,0.0
690,0.0
716,0.0
843,-4456.3556355878245
844,-4456.3556355878245
907,0.0
908,0.0
971,0.0
972,0.0
1195,0.0
1197,0.0
2,3, 2,17, 0,24, 0.00,60.00,Wednesday
7,9.4
718,23.269438401167253
719,8.282673432864296
720,19.05386457189638
619,0.0
633,0.0
659,0.0
661,200.0
690,0.0
716,0.0
843,-2868.0998267446794
844,-2868.0998267446794
907,0.0
908,0.0
971,0.0
972,0.0
1195,0.0
1197,0.0
2,4, 2,18, 0, 1, 0.00,60.00,Thursday
7,8.3
718,22.64044952014638
719,6.473257690882363
720,18.988267431670806
619,0.0
633,0.0
659,0.0
661,200.0
690,0.0
716,0.0
843,-2639.5766881513737
844,-2639.5766881513737
907,0.0
908,0.0
971,0.0
972,0.0
1195,0.0
1197,0.0
2,4, 2,18, 0, 2, 0.00,60.00,Thursday
7,8.3
718,22.071971930708
719,5.972409015357819
720,18.906104614613472
619,0.0
633,0.0
659,0.0
661,200.0
690,0.0
716,0.0
843,-2287.1358801117167
844,-2287.1358801117167
907,0.0
908,0.0
971,0.0
972,0.0
1195,0.0
1197,0.0
2,4, 2,18, 0, 3, 0.00,60.00,Thursday
7,7.8
718,21.15326084554691
719,6.521576879212943
720,18.808129683391005
619,0.0
633,0.0
659,0.0
661,200.0
690,0.0
716,0.0
843,-1656.9310189566058
844,-1656.9310189566058
907,0.0
908,0.0
971,0.0
972,0.0
1195,0.0
1197,0.0
2,4, 2,18, 0, 4, 0.00,60.00,Thursday
7,6.7
718,20.73904916368818
719,4.526489846919482
720,18.703476330951
619,0.0
633,0.0
659,0.0
661,200.0
690,0.0
716,0.0
843,-1541.5364419168563
844,-1541.5364419168563
907,0.0
908,0.0
971,0.0
972,0.0
1195,0.0
1197,0.0
2,4, 2,18, 0, 5, 0.00,60.00,Thursday
7,6.7
718,20.243874850440594
719,4.108506811984211
720,18.580411767849952
619,0.0
633,0.0
659,0.0
661,200.0
690,0.0
716,0.0
843,-1029.082704319393
844,-1029.082704319393
907,0.0
908,0.0
971,0.0
972,0.0
1195,0.0
1197,0.0
2,4, 2,18, 0, 6, 0.00,60.00,Thursday
7,4.4
718,19.721523745944204
719,3.4854618548890723
720,18.459589649167206
619,52.36203216993854
633,16.89935936721975
659,1.1475418605506806
661,197.94420245651185
690,1.763180007038045
716,0.0
843,39.79504502155578
844,39.79504502155578
907,0.0
908,0.0
971,0.0
972,0.0
1195,0.0
1197,0.0
2,4, 2,18, 0, 7, 0.00,60.00,Thursday
7,6.1
718,19.838605907578895
719,3.074746419267501
720,18.338234724119417
619,1846.6152757270006
633,508.98736004865987
659,0.0
661,146.78932185639695
690,45.80078413200241
716,85.44000000000007
843,218.44124346141143
844,218.44124346141143
907,0.0
908,0.0
971,0.0
972,0.0
1195,0.0
1197,0.0
2,4, 2,18, 0, 8, 0.00,60.00,Thursday
7,7.2
718,18.589446271954184
719,4.4986096558829125
720,18.28099183372227
619,0.0
633,0.0
659,0.0
661,200.0
690,0.0
716,85.44000000000007
843,-162.3512288720476
844,-162.3512288720476
907,0.0
908,0.0
971,0.0
972,0.0
1195,0.0
1197,0.0
2,4, 2,18, 0, 9, 0.00,60.00,Thursday
7,10.6
718,20.19603347796732
719,10.717600750301262
720,18.202686034408003
619,0.0
633,0.0
659,0.0
661,0.0
690,0.0
716,20.9657395348295
843,-793.6187482447149
844,-793.6187482447149
907,0.0
908,0.0
971,0.0
972,0.0
1195,0.0
1197,0.0
2,4, 2,18, 0,10, 0.00,60.00,Thursday
7,12.8
718,21.937899951460302
719,18.511362132564734
720,18.14850259094312
619,0.0
633,0.0
659,0.0
661,0.0
690,0.0
716,0.0
843,-1492.911319269897
844,-1492.911319269897
907,0.0
908,0.0
971,0.0
972,0.0
1195,0.0
1197,0.0
2,4, 2,18, 0,11, 0.00,60.00,Thursday
7,15.0
718,23.039251467098563
719,26.600429489028635
720,18.128389508676836
619,0.0
633,0.0
659,0.0
661,0.0
690,0.0
716,0.0
843,-2731.6189747965636
844,-2731.6189747965636
907,0.0
908,0.0
971,0.0
972,0.0
1195,0.0
1197,0.0
2,4, 2,18, 0,12, 0.00,60.00,Thursday
7,17.2
718,23.30716008850482
719,32.452929166922154
720,18.18562725600996
619,0.0
633,0.0
659,0.0
661,0.0
690,18.131408153173453
716,0.0
843,-3609.186464915003
844,-3609.186464915003
907,0.0
908,0.0
971,0.0
972,0.0
1195,0.0
1197,0.0
2,4, 2,18, 0,13, 0.00,60.00,Thursday
7,18.3
718,23.33737306787543
719,33.39583282512446
720,18.27354765527263
619,0.0
633,0.0
659,0.0
661,0.0
690,34.72358568563265
716,0.0
843,-3822.705252808031
844,-3822.705252808031
907,0.0
908,0.0
971,0.0
972,0.0
1195,0.0
1197,0.0
2,4, 2,18, 0,14, 0.00,60.00,Thursday
7,19.4
718,23.338461567808633
719,31.090671576066534
720,18.424463620452187
619,0.0
633,0.0
659,0.0
661,0.0
690,59.298403371464914
716,0.0
843,-5274.492956205686
844,-5274.492956205686
907,0.0
908,0.0
971,0.0
972,0.0
1195,0.0
1197,0.0
2,4, 2,18, 0,15, 0.00,60.00,Thursday
7,18.9
718,23.337540831014707
719,31.395919115117795
720,18.587653120148016
619,0.0
633,0.0
659,0.0
661,0.0
690,76.86435409671316
716,0.0
843,-6370.2871755937485
844,-6370.2871755937485
907,0.0
908,0.0
971,0.0
972,0.0
1195,0.0
1197,0.0
2,4, 2,18, 0,16, 0.00,60.00,Thursday
7,18.3
718,23.31957161223946
719,29.68274836127775
720,18.72583855055196
619,0.0
633,0.0
659,0.0
661,0.0
690,88.14523417565593
716,0.0
843,-6995.6944265926395
844,-6995.6944265926395
907,0.0
908,0.0
971,0.0
972,0.0
1195,0.0
1197,0.0
2,4, 2,18, 0,17, 0.00,60.00,Thursday
7,15.6
718,23.255053923067468
719,23.707724874344994
720,18.793770868939234
619,0.0
633,0.0
659,0.0
661,0.0
690,58.96349556371893
716,60.80552034575993
843,-6920.648005134284
844,-6920.648005134284
907,0.0
908,0.0
971,0.0
972,0.0
1195,0.0
1197,0.0
2,4, 2,18, 0,18, 0.00,60.00,Thursday
7,12.8
718,23.363397549040833
719,19.600528107317242
720,18.90799498530634
619,0.0
633,0.0
659,0.0
661,0.0
690,57.17318119416517
716,0.0
843,-6066.6514770246395
844,-6066.6514770246395
907,0.0
908,0.0
971,0.0
972,0.0
1195,0.0
1197,0.0
2,4, 2,18, 0,19, 0.00,60.00,Thursday
7,11.7
718,23.367543141998866
719,17.216069247350475
720,18.944051486057397
619,0.0
633,0.0
659,0.0
661,0.0
690,10.481949352155839
716,85.44000000000007
843,-5319.396206822676
844,-5319.396206822676
907,0.0
908,0.0
971,0.0
972,0.0
1195,0.0
1197,0.0
2,4, 2,18, 0,20, 0.00,60.00,Thursday
7,11.1
718,23.331426784869517
719,14.351606153733035
720,19.034476384330453
619,0.0
633,0.0
659,0.0
661,0.0
690,25.204056728053917
716,29.860459463790583
843,-4851.633701045288
844,-4851.633701045288
907,0.0
908,0.0
971,0.0
972,0.0
1195,0.0
1197,0.0
2,4, 2,18, 0,21, 0.00,60.00,Thursday
7,10.6
718,23.32965533097446
719,11.584585738245213
720,19.05312300548341
619,0.0
633,0.0
659,0.0
661,0.0
690,28.512958006464032
716,0.0
843,-4439.077859341998
844,-4439.077859341998
907,0.0
908,0.0
971,0.0
972,0.0
1195,0.0
1197,0.0
2,4, 2,18, 0,22, 0.00,60.00,Thursday
7,11.0
718,23.37800785540972
719,10.901404985565208
720,19.039094643667926
619,0.0
633,0.0
659,0.0
661,0.0
690,19.738222179571387
716,0.0
843,-3934.138457552919
844,-3934.138457552919
907,0.0
908,0.0
971,0.0
972,0.0
1195,0.0
1197,0.0
2,4, 2,18, 0,23, 0.00,60.00,Thursday
7,11.1
718,23.807707440070253
719,10.763034143724107
720,18.987675610311857
619,0.0
633,0.0
659,0.0
661,0.0
690,0.0
716,0.0
843,-4172.00782908433
844,-4172.00782908433
907,0.0
908,0.0
971,0.0
972,0.0
1195,0.0
1197,0.0
2,4, 2,18, 0,24, 0.00,60.00,Thursday
7,10.6
718,23.289461698265164
719,10.775583159252596
720,18.940835526066607
619,0.0
633,0.0
659,0.0
661,0.0
690,0.0
716,0.0
843,-2416.2287935918666
844,-2416.2287935918666
907,0.0
908,0.0
971,0.0
972,0.0
1195,0.0
1197,0.0
2,5, 2,19, 0, 1, 0.00,60.00,Friday
7,11.1
718,22.897998965714798
719,10.498180320637243
720,18.883193027691817
619,0.0
633,0.0
659,0.0
661,0.0
690,0.0
716,0.0
843,-2403.5082335572624
844,-2403.5082335572624
907,0.0
908,0.0
971,0.0
972,0.0
1195,0.0
1197,0.0
2,5, 2,19, 0, 2, 0.00,60.00,Friday
7,11.1
718,22.462018426092058
719,10.22149725174195
720,18.814619568500877
619,0.0
633,0.0
659,0.0
661,0.0
690,0.0
716,0.0
843,-1958.3630560094816
844,-1958.3630560094816
907,0.0
908,0.0
971,0.0
972,0.0
1195,0.0
1197,0.0
2,5, 2,19, 0, 3, 0.00,60.00,Friday
7,11.1
718,22.05324582598133
719,10.001473156313548
720,18.74162268492385
619,0.0
633,0.0
659,0.0
661,0.0
690,0.0
716,0.0
843,-1518.3289075391303
844,-1518.3289075391303
907,0.0
908,0.0
971,0.0
972,0.0
1195,0.0
1197,0.0
2,5, 2,19, 0, 4, 0.00,60.00,Friday
7,11.0
718,21.657580813299557
719,9.821693620577587
720,18.664672125132054
619,0.0
633,0.0
659,0.0
661,0.0
690,0.0
716,0.0
843,-1230.340252851062
844,-1230.340252851062
907,0.0
908,0.0
971,0.0
972,0.0
1195,0.0
1197,0.0
2,5, 2,19, 0, 5, 0.00,60.00,Friday
7,11.0
718,21.388708376876416
719,9.66006093179085
720,18.584248074668825
619,0.0
633,0.0
659,0.0
661,0.0
690,0.0
716,0.0