Program Version,EnergyPlus, Version 22.2.0-c249759bad, YMD=2023.09.01 14:30
1,5,Environment Title[],Latitude[deg],Longitude[deg],Time Zone[],Elevation[m]
2,8,Day of Simulation[],Month[],Day of Month[],DST Indicator[1=yes 0=no],Hour[],StartMinute[],EndMinute[],DayType
3,5,Cumulative Day of Simulation[],Month[],Day of Month[],DST Indicator[1=yes 0=no],DayType  ! When Daily Report Variables Requested
4,2,Cumulative Days of Simulation[],Month[]  ! When Monthly Report Variables Requested
5,1,Cumulative Days of Simulation[] ! When Run Period Report Variables Requested
6,1,Calendar Year of Simulation[] ! When Annual Report Variables Requested
7,1,Environment,Site Outdoor Air Drybulb Temperature [C] !Hourly
619,1,DX_HEATING_COIL,Heating Coil Heating Rate [W] !Hourly
633,1,DX_HEATING_COIL,Heating Coil Electricity Rate [W] !Hourly
659,1,DX_HEATING_COIL,Heating Coil Defrost Electricity Rate [W] !Hourly
661,1,DX_HEATING_COIL,Heating Coil Crankcase Heater Electricity Rate [W] !Hourly
690,1,FAN,Fan Electricity Rate [W] !Hourly
716,1,HEAT PUMP WATER HEATER FAN,Fan Electricity Rate [W] !Hourly
718,1,LIVING,Zone Mean Air Temperature [C] !Hourly
719,1,ATTIC,Zone Mean Air Temperature [C] !Hourly
720,1,CRAWLSPACE,Zone Mean Air Temperature [C] !Hourly
843,1,LIVING,Zone Predicted Sensible Load to Heating Setpoint Heat Transfer Rate [W] !Hourly
844,1,LIVING,Zone System Predicted Sensible Load to Heating Setpoint Heat Transfer Rate [W] !Hourly
907,1,ATTIC,Zone Predicted Sensible Load to Heating Setpoint Heat Transfer Rate [W] !Hourly
908,1,ATTIC,Zone System Predicted Sensible Load to Heating Setpoint Heat Transfer Rate [W] !Hourly
971,1,CRAWLSPACE,Zone Predicted Sensible Load to Heating Setpoint Heat Transfer Rate [W] !Hourly
972,1,CRAWLSPACE,Zone System Predicted Sensible Load to Heating Setpoint Heat Transfer Rate [W] !Hourly
1195,1,HEATING_RESISTANCE_BACKUP,Heating Coil Heating Rate [W] !Hourly
1197,1,HEATING_RESISTANCE_BACKUP,Heating Coil Electricity Rate [W] !Hourly
End of Data Dictionary
1,EXTREME_WINTER,  39.12, -94.60,  -6.00, 231.00
2,1, 1,13, 0, 1, 0.00,60.00,Monday
7,-7.2
718,18.62257301710319
719,-2.261722451525343
720,18.46026407006924
619,4254.803568103071
633,1458.3721621129275
659,9.316269725635872
661,0.0
690,159.6222843503828
716,0.0
843,3735.2009230543026
844,3735.2009230543026
907,0.0
908,0.0
971,0.0
972,0.0
1195,1066.0223837012923
1197,1066.0223837012923
2,1, 1,13, 0, 2, 0.00,60.00,Monday
7,-7.2
718,18.613203465664242
719,-1.9371633673963622
720,18.057967266050277
619,4255.752879354537
633,1457.28697043193
659,9.316269725635872
661,0.0
690,159.6222843503828
716,0.0
843,3672.6599723580402
844,3672.6599723580402
907,0.0
908,0.0
971,0.0
972,0.0
1195,987.6679426406754
1197,987.6679426406754
2,1, 1,13, 0, 3, 0.00,60.00,Monday
7,-7.8
718,18.604314541983868
719,-2.7499304487517655
720,17.866080757381358
619,4184.923754599684
633,1450.4282568661242
659,8.30005244808214
661,0.0
690,159.6222843503828
716,0.0
843,4751.037326121539
844,4751.037326121539
907,0.0
908,0.0
971,0.0
972,0.0
1195,2352.399307550977
1197,2352.399307550977
2,1, 1,13, 0, 4, 0.00,60.00,Monday
7,-8.0
718,18.605837267535307
719,-2.6653773660753513
720,17.658128293405195
619,4161.086279390422
633,1447.706005347387
659,8.112696447460294
661,0.0
690,159.6222843503828
716,0.0
843,4450.337116079134
844,4450.337116079134
907,0.0
908,0.0
971,0.0
972,0.0
1195,2046.3816295918564
1197,2046.3816295918564
2,1, 1,13, 0, 5, 0.00,60.00,Monday
7,-8.3
718,18.608514412239742
719,-2.8378398501867323
720,17.47069530844483
619,4110.259403733769
633,1438.9457878675782
659,11.785736376247145
661,0.0
690,159.6222843503828
716,0.0
843,4353.291234311953
844,4353.291234311953
907,0.0
908,0.0
971,0.0
972,0.0
1195,1989.3825082108565
1197,1989.3825082108565
2,1, 1,13, 0, 6, 0.00,60.00,Monday
7,-8.3
718,19.36487236493055
719,-3.7423195607284083
720,17.291060108745153
619,4110.366742500403
633,1438.7617004622355
659,11.797100205441412
661,0.0
690,159.6222843503828
716,0.0
843,5440.464636120825
844,5440.464636120825
907,0.0
908,0.0
971,0.0
972,0.0
1195,3278.8013574046136
1197,3278.8013574046136
2,1, 1,13, 0, 7, 0.00,60.00,Monday
7,-8.9
718,19.56165734163874
719,-2.525764027722065
720,17.150682165848725
619,4022.33376513205
633,1453.3214254317006
659,10.677252357143553
661,0.0
690,159.6222843503828
716,85.44000000000005
843,5207.492383698544
844,5207.492383698544
907,0.0
908,0.0
971,0.0
972,0.0
1195,4324.105607667654
1197,4324.105607667654
2,1, 1,13, 0, 8, 0.00,60.00,Monday
7,-8.0
718,19.652526984214685
719,-2.2326003506415515
720,17.005287503926233
619,4138.205753133002
633,1473.6181850062271
659,8.112696447460294
661,0.0
690,159.6222843503828
716,85.44000000000005
843,4424.763208472008
844,4424.763208472008
907,0.0
908,0.0
971,0.0
972,0.0
1195,3259.5056002833153
1197,3259.5056002833153
2,1, 1,13, 0, 9, 0.00,60.00,Monday
7,-8.3
718,19.701335076284685
719,-2.0735578038675073
720,16.852472061841436
619,4085.2609891745906
633,1467.1842238237693
659,11.780004204132497
661,0.0
690,159.6222843503828
716,8.02893332103705
843,4452.429258333295
844,4452.429258333295
907,0.0
908,0.0
971,0.0
972,0.0
1195,2308.4930241174357
1197,2308.4930241174357
2,1, 1,13, 0,10, 0.00,60.00,Monday
7,-8.0
718,19.713808698407668
719,-1.181023400179059
720,16.721483803202506
619,4135.097756239436
633,1477.133752159529
659,8.112696447460294
661,0.0
690,159.6222843503828
716,0.0
843,4037.7034594110173
844,4037.7034594110173
907,0.0
908,0.0
971,0.0
972,0.0
1195,1651.2426646101926
1197,1651.2426646101926
2,1, 1,13, 0,11, 0.00,60.00,Monday
7,-8.3
718,19.72237123057717
719,1.0403483891587497
720,16.594240758040602
619,4084.1035811152515
633,1468.5257103329768
659,11.773226386028412
661,0.0
690,159.6222843503828
716,0.0
843,3460.831604826317
844,3460.831604826317
907,0.0
908,0.0
971,0.0
972,0.0
1195,977.177071673691
1197,977.177071673691
2,1, 1,13, 0,12, 0.00,60.00,Monday
7,-8.0
718,19.72041040692974
719,0.6178539666057504
720,16.48177214427939
619,4101.646645989308
633,1465.4889870714526
659,16.987630675549685
661,0.0
690,159.6222843503828
716,0.0
843,3535.8381301608533
844,3535.8381301608533
907,0.0
908,0.0
971,0.0
972,0.0
1195,923.4980494761103
1197,923.4980494761103
2,1, 1,13, 0,13, 0.00,60.00,Monday
7,-8.3
718,19.719628677797253
719,1.0370669306454128
720,16.375291600920267
619,4031.995815398203
633,1449.5874069254419
659,25.8466411699065
661,0.0
690,159.6222843503828
716,0.0
843,3684.191432451731
844,3684.191432451731
907,0.0
908,0.0
971,0.0
972,0.0
1195,1200.8201451658197
1197,1200.8201451658197
2,1, 1,13, 0,14, 0.00,60.00,Monday
7,-8.0
718,19.71520303120648
719,1.0045515848667816
720,16.278776659357444
619,4069.260123852972
633,1453.4111625666458
659,25.72427680254473
661,0.0
690,159.6222843503828
716,78.06573988415613
843,3663.3187740819812
844,3663.3187740819812
907,0.0
908,0.0
971,0.0
972,0.0
1195,2091.8064165217374
1197,2091.8064165217374
2,1, 1,13, 0,15, 0.00,60.00,Monday
7,-8.0
718,19.72418061442822
719,1.3204053392940076
720,16.18407981262873
619,4069.489152649722
633,1453.152135073337
659,25.72427680254473
661,0.0
690,159.6222843503828
716,0.0
843,3511.6657508992103
844,3511.6657508992103
907,0.0
908,0.0
971,0.0
972,0.0
1195,941.5913446742252
1197,941.5913446742252
2,1, 1,13, 0,16, 0.00,60.00,Monday
7,-8.3
718,19.7194737942321
719,0.3494898377342675
720,16.09176549998296
619,4016.7199194976056
633,1443.6662776032538
659,30.0393119516735
661,0.0
690,159.6222843503828
716,0.0
843,3791.376341859883
844,3791.376341859883
907,0.0
908,0.0
971,0.0
972,0.0
1195,1313.034017090285
1197,1313.034017090285
2,1, 1,13, 0,17, 0.00,60.00,Monday
7,-8.3
718,19.72089942560843
719,-0.20989928432525568
720,16.00872721164763
619,4016.9110710534815
633,1443.4021445136827
659,30.048148892808435
661,0.0
690,159.6222843503828
716,0.0
843,3574.96531827569
844,3574.96531827569
907,0.0
908,0.0
971,0.0
972,0.0
1195,1114.2610275353109
1197,1114.2610275353109
2,1, 1,13, 0,18, 0.00,60.00,Monday
7,-7.8
718,19.722016529561632
719,-0.6299627853830297
720,15.931476488210983
619,4087.74980757288
633,1453.1654700058632
659,27.444753549863282
661,0.0
690,159.6222843503828
716,0.0
843,3116.9921225940816
844,3116.9921225940816
907,0.0
908,0.0
971,0.0
972,0.0
1195,527.2854041997352
1197,527.2854041997352
2,1, 1,13, 0,19, 0.00,60.00,Monday
7,-8.0
718,19.706694707948753
719,-0.966627543059139
720,15.844982833243241
619,4032.1937278900423
633,1439.4590087796553
659,35.746523051062475
661,0.0
690,159.6222843503828
716,85.44000000000005
843,2883.6579942163553
844,2883.6579942163553
907,0.0
908,0.0
971,0.0
972,0.0
1195,1483.4395779565693
1197,1483.4395779565693
2,1, 1,13, 0,20, 0.00,60.00,Monday
7,-8.0
718,19.71271519699116
719,-1.1307915102782709
720,15.760013835370355
619,3995.786158610722
633,1425.7592889504067
659,45.58982928994251
661,0.0
690,159.6222843503828
716,85.44000000000005
843,2738.268530774627
844,2738.268530774627
907,0.0
908,0.0
971,0.0
972,0.0
1195,1386.9107990292332
1197,1386.9107990292332
2,1, 1,13, 0,21, 0.00,60.00,Monday
7,-7.8
718,19.711363341915927
719,-1.6624218774695134
720,15.673896997675586
619,4002.5938310806537
633,1422.144711989154
659,50.17052654594375
661,0.0
690,159.6222843503828
716,49.02707152358105
843,2995.8896557151547
844,2995.8896557151547
907,0.0
908,0.0
971,0.0
972,0.0
1195,1192.3719099300733
1197,1192.3719099300733
2,1, 1,13, 0,22, 0.00,60.00,Monday
7,-7.2
718,19.719075556056602
719,-1.4803809276155762
720,15.591935541245785
619,4091.5017839823304
633,1435.1376982880972
659,45.92395643806164
661,0.0
690,159.6222843503828
716,0.0
843,3008.0875210202666
844,3008.0875210202666
907,0.0
908,0.0
971,0.0
972,0.0
1195,482.40016285424554
1197,482.40016285424554
2,1, 1,13, 0,23, 0.00,60.00,Monday
7,-7.2
718,18.984266482037334
719,-1.8308491003922343
720,15.502025038095017
619,3516.199379409773
633,1265.877822308728
659,45.932488312178926
661,22.638114020498932
690,139.87394513977253
716,0.0
843,2225.265850130163
844,2225.265850130163
907,0.0
908,0.0
971,0.0
972,0.0
1195,0.0
1197,0.0
2,1, 1,13, 0,24, 0.00,60.00,Monday
7,-7.0
718,18.69761199191882
719,-1.8456235338644014
720,15.38072259419565
619,4115.947067552874
633,1411.3038513627725
659,50.47995589097053
661,0.0
690,159.6222843503828
716,0.0
843,2798.7524278940473
844,2798.7524278940473
907,0.0
908,0.0
971,0.0
972,0.0
1195,164.4764747987906
1197,164.4764747987906
2,2, 1,14, 0, 1, 0.00,60.00,Tuesday
7,-7.2
718,18.63808223507146
719,-1.7455667530527803
720,15.280455688412097
619,4065.363530485118
633,1389.602341003368
659,59.07909092589989
661,0.0
690,159.6222843503828
716,0.0
843,3243.772011196259
844,3243.772011196259
907,0.0
908,0.0
971,0.0
972,0.0
1195,722.0758364841267
1197,722.0758364841267
2,2, 1,14, 0, 2, 0.00,60.00,Tuesday
7,-7.0
718,18.616945500215525
719,-1.80919496967546
720,15.183527109614648
619,4078.102499783482
633,1385.833778858844
659,62.404706370346844
661,0.0
690,159.6222843503828
716,0.0
843,3693.6512913295956
844,3693.6512913295956
907,0.0
908,0.0
971,0.0
972,0.0
1195,1237.737385424522
1197,1237.737385424522
2,2, 1,14, 0, 3, 0.00,60.00,Tuesday
7,-7.0
718,18.610818528623895
719,-1.5507815979842043
720,15.08994001732077
619,4125.046503039429
633,1400.881270607585
659,50.47995589097053
661,0.0
690,159.6222843503828
716,0.0
843,3683.6617970997613
844,3683.6617970997613
907,0.0
908,0.0
971,0.0
972,0.0
1195,1176.2331304738864
1197,1176.2331304738864
2,2, 1,14, 0, 4, 0.00,60.00,Tuesday
7,-6.7
718,18.610359249503645
719,-1.3911285002461915
720,15.000132011182213
619,4140.454099271856
633,1396.8779993455612
659,55.96862990854156
661,0.0
690,159.6222843503828
716,0.0
843,3686.5975994809996
844,3686.5975994809996
907,0.0
908,0.0
971,0.0
972,0.0
1195,1156.7670923189517
1197,1156.7670923189517
2,2, 1,14, 0, 5, 0.00,60.00,Tuesday
7,-6.7
718,18.60958078403222
719,-1.1066671690562662
720,14.910966591488107
619,4140.649686579439
633,1396.7751287776643
659,55.94772527886973
661,0.0
690,159.6222843503828
716,0.0
843,3510.1863510499497
844,3510.1863510499497
907,0.0
908,0.0
971,0.0
972,0.0
1195,935.7350256772852
1197,935.7350256772852
2,2, 1,14, 0, 6, 0.00,60.00,Tuesday
7,-6.7
718,19.362114102396838
719,-1.3146709266196366
720,14.821296584137487
619,4140.668907479317
633,1396.5687332063135
659,55.97935629233527
661,0.0
690,159.6222843503828
716,0.0
843,5045.14976870481
844,5045.14976870481
907,0.0
908,0.0
971,0.0
972,0.0
1195,2754.7399966431126
1197,2754.7399966431126
2,2, 1,14, 0, 7, 0.00,60.00,Tuesday
7,-6.1
718,19.570059966309476
719,-0.4859401502503918
720,14.780496136150166
619,4189.245058220659
633,1421.7858350239278
659,57.77208029287087
661,0.0
690,159.6222843503828
716,85.44000000000005
843,4395.015163803659
844,4395.015163803659
907,0.0
908,0.0
971,0.0
972,0.0
1195,3116.958515823717
1197,3116.958515823717
2,2, 1,14, 0, 8, 0.00,60.00,Tuesday
7,-6.1
718,19.648434500870362
719,-0.4051881394507224
720,14.705657806264249
619,4184.304719799682
633,1427.4633360873165
659,57.777054397549584
661,0.0
690,159.6222843503828
716,85.44000000000005
843,4106.65629106137
844,4106.65629106137
907,0.0
908,0.0
971,0.0
972,0.0
1195,2847.1751011442084
1197,2847.1751011442084
2,2, 1,14, 0, 9, 0.00,60.00,Tuesday
7,-5.6
718,19.689374204571372
719,0.8510055630160562
720,14.643839219530856
619,4252.357172037077
633,1438.4019031132293
659,55.73804375049793
661,0.0
690,159.6222843503828
716,85.05405418167236
843,3416.7219348285234
844,3416.7219348285234
907,0.0
908,0.0
971,0.0
972,0.0
1195,1944.9931401848812
1197,1944.9931401848812
2,2, 1,14, 0,10, 0.00,60.00,Tuesday
7,-5.0
718,19.71728564339223
719,1.5743140169221668
720,14.58661299531463
619,4312.634332807594
633,1442.2569939946372
659,59.0538818252012
661,0.0
690,159.6222843503828
716,0.0
843,3282.89917962654
844,3282.89917962654
907,0.0
908,0.0
971,0.0
972,0.0
1195,471.9750186000465
1197,471.9750186000465
2,2, 1,14, 0,11, 0.00,60.00,Tuesday
7,-5.0
718,19.717991607315618
719,1.3284480189377832
720,14.530471180777734
619,4290.2832547697935
633,1435.6588020676616
659,64.36815703235447
661,0.0
690,159.6222843503828
716,0.0
843,3664.620149555207
844,3664.620149555207
907,0.0
908,0.0
971,0.0
972,0.0
1195,910.1431301381799
1197,910.1431301381799
2,2, 1,14, 0,12, 0.00,60.00,Tuesday
7,-4.4
718,19.721450402531694
719,1.714469233931406
720,14.484723073068277
619,4349.4407399742495
633,1437.6990842356397
659,68.15155693076304
661,0.0
690,159.6222843503828
716,0.0
843,3409.0876137530267
844,3409.0876137530267
907,0.0
908,0.0
971,0.0
972,0.0
1195,564.4533631654781
1197,564.4533631654781
2,2, 1,14, 0,13, 0.00,60.00,Tuesday
7,-4.0
718,19.721588457809265
719,2.5077835674426825
720,14.436824318108364
619,4401.19141076072
633,1443.1415823580473
659,67.76151743787436
661,0.0
690,159.6222843503828
716,0.0
843,3292.4026386243913
844,3292.4026386243913
907,0.0
908,0.0
971,0.0
972,0.0
1195,352.53845893411835
1197,352.53845893411835
2,2, 1,14, 0,14, 0.00,60.00,Tuesday
7,-4.0
718,19.729135108345677
719,2.648758765099772
720,14.390696715271691
619,4257.73973825133
633,1415.2220370009247
659,66.45205896095484
661,3.8649030494928294
690,154.787440463239
716,0.0
843,2930.612612673598
844,2930.612612673598
907,0.0
908,0.0
971,0.0
972,0.0
1195,0.0
1197,0.0
2,2, 1,14, 0,15, 0.00,60.00,Tuesday
7,-2.2
718,19.711691413852094
719,2.0514430253976306
720,14.364568014522
619,4548.904472369522
633,1439.4479858697305
659,86.22876853838588
661,0.0
690,159.6222843503828
716,0.0
843,3171.2716674724943
844,3171.2716674724943
907,0.0
908,0.0
971,0.0
972,0.0
1195,12.37303512415292
1197,12.37303512415292
2,2, 1,14, 0,16, 0.00,60.00,Tuesday
7,-1.7
718,19.767785141422365
719,4.854828807929898
720,14.310243887135481
619,3560.880600241559
633,1155.589345132042
659,64.58453952887561
661,40.877976499282575
690,125.71172003097789
716,0.0
843,2460.8951312508343
844,2460.8951312508343
907,0.0
908,0.0
971,0.0
972,0.0
1195,0.0
1197,0.0
2,2, 1,14, 0,17, 0.00,60.00,Tuesday
7,-1.7
718,19.763531348367742
719,4.204208610449558
720,14.263948725517237
619,2716.6905058495227
633,902.1055030389691
659,56.31753055615523
661,74.85622556289894
690,98.7491481498883
716,0.0
843,1948.6690921794598
844,1948.6690921794598
907,0.0
908,0.0
971,0.0
972,0.0
1195,0.0
1197,0.0
2,2, 1,14, 0,18, 0.00,60.00,Tuesday
7,-2.0
718,19.686764773620986
719,3.743438318677263
720,14.267133618345245
619,3759.0217900938424
633,1222.6901121425271
659,84.81510149519733
661,28.41019839902095
690,135.16253048785998
716,70.5032416581391
843,1877.527644516469
844,1877.527644516469
907,0.0
908,0.0
971,0.0
972,0.0
1195,0.0
1197,0.0
2,2, 1,14, 0,19, 0.00,60.00,Tuesday
7,-2.0
718,19.747211241773986
719,2.127896052722699
720,14.210462114782583
619,2849.8953941327654
633,946.1523820386388
659,54.9549514556676
661,68.97449202867534
690,103.43103870190461
716,0.0
843,2014.7346183743084
844,2014.7346183743084
907,0.0
908,0.0
971,0.0
972,0.0
1195,0.0
1197,0.0
2,2, 1,14, 0,20, 0.00,60.00,Tuesday
7,-4.4
718,19.49631392015847
719,1.5726454238643093
720,14.217289398615744
619,4378.355422413873
633,1447.7052803370977
659,61.14083894178833
661,0.0
690,159.6222843503828
716,85.44000000000005
843,2168.5001116119474
844,2168.5001116119474
907,0.0
908,0.0
971,0.0
972,0.0
1195,350.2825708156629
1197,350.2825708156629
2,2, 1,14, 0,21, 0.00,60.00,Tuesday
7,-4.0
718,19.616496765392533
719,1.1580975699291454
720,14.171752868780931
619,4406.934091126804
633,1436.3929769819263
659,67.76151743787436
661,0.0
690,159.6222843503828
716,85.44000000000005
843,2480.931827670931
844,2480.931827670931
907,0.0
908,0.0
971,0.0
972,0.0
1195,673.5086019844252
1197,673.5086019844252
2,2, 1,14, 0,22, 0.00,60.00,Tuesday
7,-3.9
718,19.68608037453937
719,0.36389079179076134
720,14.143687298680858
619,4151.218547889279
633,1377.3184376790457
659,68.81235170890716
661,8.108750211215199
690,151.35481743870324
716,43.08178965197744
843,2325.787983630835
844,2325.787983630835
907,0.0
908,0.0
971,0.0
972,0.0
1195,0.0
1197,0.0
2,2, 1,14, 0,23, 0.00,60.00,Tuesday
7,-4.0
718,18.965117482333326
719,-0.290013220458269
720,14.05775323222251
619,2283.310304266426
633,798.2403018075696
659,37.50640963238555
661,89.29879066898859
690,87.36423278913529
716,0.0
843,1508.189522732333
844,1508.189522732333
907,0.0
908,0.0
971,0.0
972,0.0
1195,0.0
1197,0.0
2,2, 1,14, 0,24, 0.00,60.00,Tuesday
7,-5.0
718,18.557885740328192
719,-0.9642454241608814
720,14.006093657304257
619,3035.3070730760846
633,1041.1313559620817
659,47.56248655691049
661,52.73665670591401
690,116.1395439927337
716,0.0
843,2028.058733021444
844,2028.058733021444
907,0.0
908,0.0
971,0.0
972,0.0
1195,0.0
1197,0.0
2,3, 1,15, 0, 1, 0.00,60.00,Wednesday
7,-6.1
718,18.4665859843172
719,-1.3676359617410037
720,13.9432254704931
619,4208.170971072482
633,1398.1973232583437
659,58.0631175834469
661,0.0
690,159.6222843503828
716,0.0
843,2992.766753585027
844,2992.766753585027
907,0.0
908,0.0
971,0.0
972,0.0
1195,258.5564022176013
1197,258.5564022176013
2,3, 1,15, 0, 2, 0.00,60.00,Wednesday
7,-6.0
718,18.56074214067274
719,-1.436534638659002
720,13.884853068675213
619,4231.787775056211
633,1399.8368131064362
659,55.788603772163924
661,0.0
690,159.6222843503828
716,0.0
843,3216.238665781031
844,3216.238665781031
907,0.0
908,0.0
971,0.0
972,0.0
1195,511.6771487522842
1197,511.6771487522842
2,3, 1,15, 0, 3, 0.00,60.00,Wednesday
7,-7.0
718,18.592779938009695
719,-1.9216375008771027
720,13.818883910163985
619,4127.943809779114
633,1397.5623004546692
659,50.47995589097053
661,0.0
690,159.6222843503828
716,0.0
843,3419.070910202956
844,3419.070910202956
907,0.0
908,0.0
971,0.0
972,0.0
1195,869.0453267804205
1197,869.0453267804205
2,3, 1,15, 0, 4, 0.00,60.00,Wednesday
7,-7.2
718,18.602194895864947
719,-2.4185918519536855
720,13.75295122373846
619,4119.749286951459
633,1401.6677835245353
659,46.131730207852065
661,0.0
690,159.6222843503828
716,0.0
843,3778.8669076791175
844,3778.8669076791175
907,0.0
908,0.0
971,0.0
972,0.0
1195,1334.7466552804462
1197,1334.7466552804462
2,3, 1,15, 0, 5, 0.00,60.00,Wednesday
7,-7.2
718,18.605432146808667
719,-2.877530162422055
720,13.685445986567583
619,4142.819470723154
633,1409.7071254760172
659,40.1300852490454
661,0.0
690,159.6222843503828
716,0.0
843,4093.481812822005
844,4093.481812822005
907,0.0
908,0.0
971,0.0
972,0.0
1195,1722.139797781254
1197,1722.139797781254
2,3, 1,15, 0, 6, 0.00,60.00,Wednesday
7,-7.0
718,19.26546961076678
719,-2.6813411741553077
720,13.619188358833114
619,4210.825582549957
633,1426.8028054691242
659,28.96304250026625
661,0.0
690,159.6222843503828
716,71.36529795046864
843,5274.451179440472
844,5274.451179440472
907,0.0
908,0.0
971,0.0
972,0.0
1195,3966.463774531553
1197,3966.463774531553
2,3, 1,15, 0, 7, 0.00,60.00,Wednesday
7,-7.8
718,19.52412222961613
719,-2.5643059514040423
720,13.579258869603763
619,4063.6243108571357
633,1423.733953814866
659,37.558785665496934
661,0.0
690,159.6222843503828
716,85.44000000000005
843,4726.808025945444
844,4726.808025945444
907,0.0
908,0.0
971,0.0
972,0.0
1195,3833.4151120567653
1197,3833.4151120567653
2,3, 1,15, 0, 8, 0.00,60.00,Wednesday
7,-8.9
718,19.639760815192904
719,-3.3053001400757536
720,13.508392006914438
619,3954.800794867698
633,1427.7946659075537
659,29.37539346163143
661,0.0
690,159.6222843503828
716,61.0699096031449
843,5040.383194011432
844,5040.383194011432
907,0.0
908,0.0
971,0.0
972,0.0
1195,3998.9703783935356
1197,3998.9703783935356
2,3, 1,15, 0, 9, 0.00,60.00,Wednesday
7,-8.9
718,19.70051928100077
719,-2.93561000737734
720,13.453953407587951
619,3937.922820965843
633,1425.7441968646797
659,33.24772167476504
661,0.0
690,159.6222843503828
716,0.0
843,4498.99402200154
844,4498.99402200154
907,0.0
908,0.0
971,0.0
972,0.0
1195,2551.7757970726943
1197,2551.7757970726943
2,3, 1,15, 0,10, 0.00,60.00,Wednesday
7,-9.0
718,19.711244963742487
719,-2.8286500181742684
720,13.38758252930558
619,3929.043898674041
633,1427.683773801865
659,32.01083363757374
661,0.0
690,159.6222843503828
716,0.0
843,4405.493482509466
844,4405.493482509466
907,0.0
908,0.0
971,0.0
972,0.0
1195,2424.204093845457
1197,2424.204093845457
2,3, 1,15, 0,11, 0.00,60.00,Wednesday
7,-10.0
718,19.716394275673125
719,-3.205374811790931
720,13.313278350611117
619,3836.3820269665985
633,1424.769638311997
659,24.586393391886112
661,0.0
690,159.6222843503828
716,0.0
843,4502.962889084931
844,4502.962889084931
907,0.0
908,0.0
971,0.0
972,0.0
1195,2646.8042318720954
1197,2646.8042318720954
2,3, 1,15, 0,12, 0.00,60.00,Wednesday
7,-10.0
718,19.718731690636837
719,-1.7461514762365633
720,13.259600002431673
619,3826.433187775708
633,1421.153827228206
659,27.391032450223626
661,0.0
690,159.6222843503828
716,0.0
843,3887.8845548974714
844,3887.8845548974714
907,0.0
908,0.0
971,0.0
972,0.0
1195,1942.1069535906406
1197,1942.1069535906406
2,3, 1,15, 0,13, 0.00,60.00,Wednesday
7,-10.0
718,19.72506352718453
719,-0.00017176267519384907
720,13.217440455059638
619,3853.2816873441675
633,1431.0791879655787
659,19.79002644659415
661,0.0
690,159.6222843503828
716,0.0
843,3275.5079503034103
844,3275.5079503034103
907,0.0
908,0.0
971,0.0
972,0.0
1195,1118.5133865778143
1197,1118.5133865778143
2,3, 1,15, 0,14, 0.00,60.00,Wednesday
7,-10.0
718,19.72410024089944
719,0.8693655430894073
720,13.196809975005651
619,3853.16544326085
633,1431.1879048412063
659,19.793736067147105
661,0.0
690,159.6222843503828
716,0.0
843,2658.66229620175
844,2658.66229620175
907,0.0
908,0.0
971,0.0
972,0.0
1195,286.1303621420634
1197,286.1303621420634
2,3, 1,15, 0,15, 0.00,60.00,Wednesday
7,-9.0
718,19.679123726732954
719,2.5119180541791213
720,13.208688240401921
619,3962.4172388323095
633,1440.141071425395
659,22.776427601467944
661,0.0
690,159.6222843503828
716,71.81390883176007
843,1913.217368526768
844,1913.217368526768
907,0.0
908,0.0
971,0.0
972,0.0
1195,175.7529999023859
1197,175.7529999023859
2,3, 1,15, 0,16, 0.00,60.00,Wednesday
7,-9.0
718,19.706268867732568
719,0.8026566089816798
720,13.223725376518194
619,3882.763366715835
633,1418.869273721112
659,14.425535777966003
661,4.235549625632062
690,155.6319740579662
716,80.48600715630184
843,1687.422592788107
844,1687.422592788107
907,0.0
908,0.0
971,0.0
972,0.0
1195,0.0
1197,0.0
2,3, 1,15, 0,17, 0.00,60.00,Wednesday
7,-9.0
718,19.830501011234237
719,-1.684882374515694
720,13.212521971552432
619,2229.3068963717924
633,854.7187760321866
659,8.682687431796884
661,82.1699547926382
690,93.67432788781473
716,0.0
843,1424.9584222290487
844,1424.9584222290487
907,0.0
908,0.0
971,0.0
972,0.0
1195,0.0
1197,0.0
2,3, 1,15, 0,18, 0.00,60.00,Wednesday
7,-10.6
718,19.725923486224794
719,-3.191731922001747
720,13.287949388597728
619,3459.429245542158
633,1322.0532475353382
659,7.242849954333538
661,16.608055717263603
690,146.0151140503097
716,0.0
843,2108.377604853209
844,2108.377604853209
907,0.0
908,0.0
971,0.0
972,0.0
1195,0.0
1197,0.0
2,3, 1,15, 0,19, 0.00,60.00,Wednesday
7,-11.1
718,19.68852083065998
719,-4.479891420365947
720,13.294165441273222
619,3758.780668868116
633,1430.3997119001192
659,9.400566951758304
661,0.0
690,159.6222843503828
716,0.0
843,2436.684861470152
844,2436.684861470152
907,0.0
908,0.0
971,0.0
972,0.0
1195,291.49431568376076
1197,291.49431568376076
2,3, 1,15, 0,20, 0.00,60.00,Wednesday
7,-11.7
718,19.697062513718176
719,-5.219855917023316
720,13.277399594437107
619,3692.420064313694
633,1422.566998071088
659,8.482457158773332
661,0.0
690,159.6222843503828
716,85.44000000000005
843,2724.4344164195936
844,2724.4344164195936
907,0.0
908,0.0
971,0.0
972,0.0
1195,1994.3298402261848
1197,1994.3298402261848
2,3, 1,15, 0,21, 0.00,60.00,Wednesday
7,-12.2
718,19.694099869643313
719,-5.8788396682178
720,13.239823687084728
619,3636.5326399944684
633,1416.912168649937
659,7.761375639081329
661,0.0
690,159.6222843503828
716,85.44000000000005
843,3063.9758704398428
844,3063.9758704398428
907,0.0
908,0.0
971,0.0
972,0.0
1195,2476.0288766351823
1197,2476.0288766351823
2,3, 1,15, 0,22, 0.00,60.00,Wednesday
7,-12.8
718,19.706037727265986
719,-6.680585370598297
720,13.181982971029234
619,3579.500662322921
633,1413.2311930864435
659,4.086548958917721
661,0.0
690,159.6222843503828
716,26.183898672871713
843,3811.8855945059368
844,3811.8855945059368
907,0.0
908,0.0
971,0.0
972,0.0
1195,2585.8989254079665
1197,2585.8989254079665
2,3, 1,15, 0,23, 0.00,60.00,Wednesday
7,-13.3
718,18.977860360477564
719,-7.180692099523639
720,13.115623891703061
619,3534.8853507857566
633,1411.5965290092115
659,0.07689316493259735
661,0.0
690,159.6222843503828
716,0.0
843,3186.514123136485
844,3186.514123136485
907,0.0
908,0.0
971,0.0
972,0.0
1195,1606.404297679297
1197,1606.404297679297
2,3, 1,15, 0,24, 0.00,60.00,Wednesday
7,-13.9
718,18.73200270181611
719,-7.209477644125513
720,13.000487489483843
619,3484.351136045536
633,1385.0021829219013
659,0.07689316493259735
661,0.0
690,159.6222843503828
716,0.0
843,3649.8269458760005
844,3649.8269458760005
907,0.0
908,0.0
971,0.0
972,0.0
1195,2165.3324717292835
1197,2165.3324717292835
2,4, 1,16, 0, 1, 0.00,60.00,Thursday
7,-14.4
718,18.644417168550444
719,-7.761275048708507
720,12.904854523044362
619,3434.1211360944126
633,1371.9427508064373
659,0.07689316493259735
661,0.0
690,159.6222843503828
716,0.0
843,4401.221415377233
844,4401.221415377233
907,0.0
908,0.0
971,0.0
972,0.0
1195,3101.8935596546185
1197,3101.8935596546185
2,4, 1,16, 0, 2, 0.00,60.00,Thursday
7,-15.0
718,18.612086055470467
719,-8.182016582870707
720,12.802323761110788
619,3369.523924794711
633,1361.4173711080052
659,0.07689316493259735
661,0.0
690,159.6222843503828
716,0.0
843,5010.210974097248
844,5010.210974097248
907,0.0
908,0.0
971,0.0
972,0.0
1195,3906.4040677566227
1197,3906.4040677566227
2,4, 1,16, 0, 3, 0.00,60.00,Thursday
7,-15.6
718,18.60693198230281
719,-8.960142560628679
720,12.69995450416328
619,3301.935185772092
633,1351.1567299414126
659,0.8970935489521493
661,0.0
690,159.6222843503828
716,0.0
843,5158.128145165312
844,5158.128145165312
907,0.0
908,0.0
971,0.0
972,0.0
1195,4185.205516130121
1197,4185.205516130121
2,4, 1,16, 0, 4, 0.00,60.00,Thursday
7,-16.1
718,18.59920768858203
719,-9.051932297455247
720,12.593535353511633
619,3242.4792634365776
633,1341.6569314608275
659,2.7109035858002017
661,0.0
690,159.6222843503828
716,0.0
843,5593.785548175412
844,5593.785548175412
907,0.0
908,0.0
971,0.0
972,0.0
1195,4796.389959309853
1197,4796.389959309853
2,4, 1,16, 0, 5, 0.00,60.00,Thursday
7,-16.7
718,18.604249591112236
719,-9.001842223691167
720,12.486793070933606
619,3171.969272606218
633,1330.145672360819
659,4.920060480306612
661,0.0
690,159.6222843503828
716,0.0
843,5467.358220882466
844,5467.358220882466
907,0.0
908,0.0
971,0.0
972,0.0
1195,4737.837736568486
1197,4737.837736568486
2,4, 1,16, 0, 6, 0.00,60.00,Thursday
7,-16.1
718,19.369234767627383
719,-9.08356533889538
720,12.388749104253547
619,3242.805946574214
633,1341.3440797823125
659,2.7082947302937797
661,0.0
690,159.6222843503828
716,0.0
843,6647.2229728103885
844,6647.2229728103885
907,0.0
908,0.0
971,0.0
972,0.0
1195,6053.371541886761
1197,6053.371541886761
2,4, 1,16, 0, 7, 0.00,60.00,Thursday
7,-16.7
718,19.132232504147613
719,-9.373981906590494
720,12.316896837894786
619,3154.2233568884208
633,1347.420425639234
659,4.912517950244829
661,0.0
690,159.6222843503828
716,85.44000000000005
843,6443.889286467313
844,6443.889286467313
907,0.0
908,0.0
971,0.0
972,0.0
1195,6107.177778702993
1197,6107.177778702993
2,4, 1,16, 0, 8, 0.00,60.00,Thursday
7,-16.7
718,19.07818514853052
719,-9.689753582082169
720,12.20209162399244
619,3167.500657229001
633,1345.168205647503
659,2.2453260569666953
661,0.0
690,159.6222843503828
716,85.44000000000005
843,6329.9763866400735
844,6329.9763866400735
907,0.0
908,0.0
971,0.0
972,0.0
1195,6107.177778702993
1197,6107.177778702993
2,4, 1,16, 0, 9, 0.00,60.00,Thursday
7,-15.6
718,19.45542807352145
719,-7.393150237216783
720,12.119614749827761
619,3285.119882081362
633,1358.6824105242301
659,3.1128773004555113
661,0.0
690,159.6222843503828
716,80.37293489719892
843,5359.128603811925
844,5359.128603811925
907,0.0
908,0.0
971,0.0
972,0.0
1195,5577.682567026421
1197,5577.682567026421
2,4, 1,16, 0,10, 0.00,60.00,Thursday
7,-14.4
718,19.63974312509897
719,-3.6509878757145833
720,12.064101181103299