Program Version,EnergyPlus, Version 22.2.0-c249759bad, YMD=2023.09.01 14:30
1,5,Environment Title[],Latitude[deg],Longitude[deg],Time Zone[],Elevation[m]
2,8,Day of Simulation[],Month[],Day of Month[],DST Indicator[1=yes 0=no],Hour[],StartMinute[],EndMinute[],DayType
3,5,Cumulative Day of Simulation[],Month[],Day of Month[],DST Indicator[1=yes 0=no],DayType  ! When Daily Report Variables Requested
4,2,Cumulative Days of Simulation[],Month[]  ! When Monthly Report Variables Requested
5,1,Cumulative Days of Simulation[] ! When Run Period Report Variables Requested
6,1,Calendar Year of Simulation[] ! When Annual Report Variables Requested
7,1,Environment,Site Outdoor Air Drybulb Temperature [C] !Hourly
619,1,DX_HEATING_COIL,Heating Coil Heating Rate [W] !Hourly
633,1,DX_HEATING_COIL,Heating Coil Electricity Rate [W] !Hourly
659,1,DX_HEATING_COIL,Heating Coil Defrost Electricity Rate [W] !Hourly
661,1,DX_HEATING_COIL,Heating Coil Crankcase Heater Electricity Rate [W] !Hourly
690,1,FAN,Fan Electricity Rate [W] !Hourly
716,1,HEAT PUMP WATER HEATER FAN,Fan Electricity Rate [W] !Hourly
718,1,LIVING,Zone Mean Air Temperature [C] !Hourly
719,1,ATTIC,Zone Mean Air Temperature [C] !Hourly
720,1,CRAWLSPACE,Zone Mean Air Temperature [C] !Hourly
843,1,LIVING,Zone Predicted Sensible Load to Heating Setpoint Heat Transfer Rate [W] !Hourly
844,1,LIVING,Zone System Predicted Sensible Load to Heating Setpoint Heat Transfer Rate [W] !Hourly
907,1,ATTIC,Zone Predicted Sensible Load to Heating Setpoint Heat Transfer Rate [W] !Hourly
908,1,ATTIC,Zone System Predicted Sensible Load to Heating Setpoint Heat Transfer Rate [W] !Hourly
971,1,CRAWLSPACE,Zone Predicted Sensible Load to Heating Setpoint Heat Transfer Rate [W] !Hourly
972,1,CRAWLSPACE,Zone System Predicted Sensible Load to Heating Setpoint Heat Transfer Rate [W] !Hourly
1195,1,HEATING_RESISTANCE_BACKUP,Heating Coil Heating Rate [W] !Hourly
1197,1,HEATING_RESISTANCE_BACKUP,Heating Coil Electricity Rate [W] !Hourly
End of Data Dictionary
1,EXTREME_WINTER,  39.77, -94.92,  -6.00, 249.00
2,1,12,22, 0, 1, 0.00,60.00,Monday
7,-2.0
718,18.436148943639175
719,0.2878800200741261
720,18.80873426644327
619,3846.656904353296
633,1219.9029106627722
659,102.62083583382139
661,21.918502481781953
690,134.903855427819
716,0.0
843,2641.456435872262
844,2641.456435872262
907,0.0
908,0.0
971,0.0
972,0.0
1195,0.0
1197,0.0
2,1,12,22, 0, 2, 0.00,60.00,Monday
7,-2.2
718,18.542638303586678
719,1.0156482039338783
720,18.429000861434456
619,4339.066224530899
633,1358.5246538417234
659,112.69175658992603
661,1.0985701555141558
690,150.65883624495163
716,0.0
843,3045.697463508075
844,3045.697463508075
907,0.0
908,0.0
971,0.0
972,0.0
1195,0.0
1197,0.0
2,1,12,22, 0, 3, 0.00,60.00,Monday
7,-2.2
718,18.602024225295022
719,1.2219170131764419
720,18.27511409006359
619,4178.433421301733
633,1316.1515369745543
659,97.64467433855636
661,9.70549522780928
690,144.3713244397531
716,0.0
843,2958.349430539116
844,2958.349430539116
907,0.0
908,0.0
971,0.0
972,0.0
1195,0.0
1197,0.0
2,1,12,22, 0, 4, 0.00,60.00,Monday
7,-2.8
718,18.58659280312007
719,0.9776479548728926
720,18.06378915548952
619,4385.035139686594
633,1371.528682242504
659,107.1003507615914
661,0.0
690,153.87776647997202
716,0.0
843,3345.5421449391706
844,3345.5421449391706
907,0.0
908,0.0
971,0.0
972,0.0
1195,299.7382881131598
1197,299.7382881131598
2,1,12,22, 0, 5, 0.00,60.00,Monday
7,-2.8
718,18.60375441145664
719,1.270929694812589
720,17.901239784168055
619,4463.0491656457425
633,1395.0656717351214
659,89.43081258029494
661,0.0
690,153.87776647997202
716,0.0
843,3151.5491876447286
844,3151.5491876447286
907,0.0
908,0.0
971,0.0
972,0.0
1195,4.053733278906748
1197,4.053733278906748
2,1,12,22, 0, 6, 0.00,60.00,Monday
7,-2.8
718,19.360454094916186
719,1.4017673511910957
720,17.741457518764
619,4460.549061007916
633,1394.625564888283
659,89.94902056539988
661,0.0
690,153.87776647997202
716,0.0
843,4140.513721403238
844,4140.513721403238
907,0.0
908,0.0
971,0.0
972,0.0
1195,1170.1984617427424
1197,1170.1984617427424
2,1,12,22, 0, 7, 0.00,60.00,Monday
7,-3.3
718,19.568842106650795
719,1.5670411699194466
720,17.62250763069204
619,4400.315197517644
633,1415.7046161027517
659,85.40173580384383
661,0.0
690,153.87776647997202
716,85.44000000000007
843,3903.651053647549
844,3903.651053647549
907,0.0
908,0.0
971,0.0
972,0.0
1195,2207.2820531151647
1197,2207.2820531151647
2,1,12,22, 0, 8, 0.00,60.00,Monday
7,-2.8
718,19.651202351356766
719,1.826754158173758
720,17.494063341237826
619,4475.937470701845
633,1433.1197163021352
659,81.29567077458805
661,0.0
690,153.87776647997202
716,74.72709150559268
843,3392.606835961311
844,3392.606835961311
907,0.0
908,0.0
971,0.0
972,0.0
1195,1444.1270536950178
1197,1444.1270536950178
2,1,12,22, 0, 9, 0.00,60.00,Monday
7,-2.8
718,19.70133868830359
719,1.5772738263298105
720,17.36638646180742
619,4474.357700961258
633,1435.3323936820402
659,81.24359260889203
661,0.0
690,153.87776647997202
716,0.0
843,3417.3037026695238
844,3417.3037026695238
907,0.0
908,0.0
971,0.0
972,0.0
1195,355.7117390293379
1197,355.7117390293379
2,1,12,22, 0,10, 0.00,60.00,Monday
7,-2.8
718,19.714601078740912
719,1.9279516472517648
720,17.24402509441237
619,4470.532136868362
633,1435.667854244968
659,81.88307410477698
661,0.0
690,153.87776647997202
716,0.0
843,3506.3655833060275
844,3506.3655833060275
907,0.0
908,0.0
971,0.0
972,0.0
1195,489.8742293800633
1197,489.8742293800633
2,1,12,22, 0,11, 0.00,60.00,Monday
7,-2.8
718,19.7206983615415
719,2.1436763281274698
720,17.130129865497793
619,4470.3579941727285
633,1435.8741638175877
659,81.88307410477698
661,0.0
690,153.87776647997202
716,0.0
843,3133.416364352992
844,3133.416364352992
907,0.0
908,0.0
971,0.0
972,0.0
1195,27.494951697798115
1197,27.494951697798115
2,1,12,22, 0,12, 0.00,60.00,Monday
7,-2.2
718,19.727310469801125
719,3.0198464130409723
720,17.02400618485867
619,4447.693229025204
633,1428.9152007690084
659,67.72819463224674
661,4.393022320863427
690,149.11430432481376
716,0.0
843,3114.3557050541804
844,3114.3557050541804
907,0.0
908,0.0
971,0.0
972,0.0
1195,0.0
1197,0.0
2,1,12,22, 0,13, 0.00,60.00,Monday
7,-1.7
718,19.7893377287181
719,4.5927245059514075
720,16.937505448129933
619,3163.480779067453
633,1039.9325582589775
659,52.94235429933935
661,57.58167324521817
690,108.56017580493359
716,0.0
843,2242.7325428650674
844,2242.7325428650674
907,0.0
908,0.0
971,0.0
972,0.0
1195,0.0
1197,0.0
2,1,12,22, 0,14, 0.00,60.00,Monday
7,-1.7
718,19.688733895860494
719,6.345868173454492
720,16.851438685490677
619,3900.0975051634596
633,1260.7039082183787
659,64.1420469646177
661,27.51765952926297
690,131.47604144766527
716,77.58576314474841
843,1921.1969253796015
844,1921.1969253796015
907,0.0
908,0.0
971,0.0
972,0.0
1195,0.0
1197,0.0
2,1,12,22, 0,15, 0.00,60.00,Monday
7,-1.1
718,19.833582853340626
719,6.488221925628521
720,16.790963175024203
619,2305.797205866917
633,764.8078370378864
659,35.91359303179211
661,96.23097923627972
690,79.20951640052785
716,0.0
843,1715.7423581129315
844,1715.7423581129315
907,0.0
908,0.0
971,0.0
972,0.0
1195,0.0
1197,0.0
2,1,12,22, 0,16, 0.00,60.00,Monday
7,-1.7
718,19.686003497347034
719,5.378260890478638
720,16.73753924434135
619,2185.5261220105176
633,737.6589231829427
659,32.633210567631956
661,100.05623469743563
690,76.27440083199001
716,0.0
843,1626.6448864250306
844,1626.6448864250306
907,0.0
908,0.0
971,0.0
972,0.0
1195,0.0
1197,0.0
2,1,12,22, 0,17, 0.00,60.00,Monday
7,-2.2
718,19.733850874177428
719,4.308169095911101
720,16.687606648632517
619,2187.3014831623955
633,743.1795824685353
659,39.68837723600858
661,97.39087448099377
690,78.13029730841525
716,0.0
843,1592.2487688767505
844,1592.2487688767505
907,0.0
908,0.0
971,0.0
972,0.0
1195,0.0
1197,0.0
2,1,12,22, 0,18, 0.00,60.00,Monday
7,-2.2
718,19.770238044292064
719,3.1321797013226855
720,16.645510336436537
619,2270.174822595564
633,770.5796169004252
659,41.44411848909612
661,93.64238387080186
690,80.97764048284994
716,0.0
843,1639.1613251963736
844,1639.1613251963736
907,0.0
908,0.0
971,0.0
972,0.0
1195,0.0
1197,0.0
2,1,12,22, 0,19, 0.00,60.00,Monday
7,-2.2
718,19.726005383786426
719,2.8475046516950164
720,16.596275216264555
619,3627.63919458888
633,1190.3682370249505
659,63.3787411440729
661,35.8867219032821
690,124.9634872762652
716,85.44000000000007
843,1490.5254519549053
844,1490.5254519549053
907,0.0
908,0.0
971,0.0
972,0.0
1195,0.0
1197,0.0
2,1,12,22, 0,20, 0.00,60.00,Monday
7,-2.2
718,19.615542999649474
719,2.237066288073041
720,16.532477815823633
619,4336.77425563285
633,1396.5659321243947
659,74.50141385900388
661,7.244158616667562
690,146.7723543692233
716,85.44000000000007
843,1997.1380519972317
844,1997.1380519972317
907,0.0
908,0.0
971,0.0
972,0.0
1195,0.0
1197,0.0
2,1,12,22, 0,21, 0.00,60.00,Monday
7,-2.2
718,19.735202693611615
719,1.7956275034754958
720,16.467853373975196
619,3419.342152096724
633,1123.46611068822
659,60.069868649051415
661,44.61196055846401
690,118.31937908936467
716,29.63839136665085
843,2027.0455943871075
844,2027.0455943871075
907,0.0
908,0.0
971,0.0
972,0.0
1195,0.0
1197,0.0
2,1,12,22, 0,22, 0.00,60.00,Monday
7,-3.3
718,19.79447673789769
719,0.9004017329116444
720,16.397480359342293
619,2960.054911943742
633,1007.4985098997719
659,54.91650538726963
661,59.55588930112059
690,106.75649789808918
716,0.0
843,2040.5516543578178
844,2040.5516543578178
907,0.0
908,0.0
971,0.0
972,0.0
1195,0.0
1197,0.0
2,1,12,22, 0,23, 0.00,60.00,Monday
7,-3.9
718,18.872983161348923
719,-0.019561958938541124
720,16.318656394802765
619,2074.6593307278245
633,732.0746960950612
659,36.35092928200009
661,98.22564015896815
690,77.3845397912742
716,0.0
843,1399.6350844772496
844,1399.6350844772496
907,0.0
908,0.0
971,0.0
972,0.0
1195,0.0
1197,0.0
2,1,12,22, 0,24, 0.00,60.00,Monday
7,-5.6
718,18.612947001661205
719,-0.8521356852203802
720,16.19443883241308
619,2933.946467463626
633,1022.6356497605121
659,56.793045611234895
661,52.339530577385496
690,111.87488825087904
716,0.0
843,1984.136400433752
844,1984.136400433752
907,0.0
908,0.0
971,0.0
972,0.0
1195,0.0
1197,0.0
2,2,12,23, 0, 1, 0.00,60.00,Tuesday
7,-7.2
718,18.46769414497684
719,-1.9159329743138585
720,16.071563453591278
619,4027.8219281402417
633,1375.1408219568302
659,64.83372577023182
661,0.0
690,153.87776647997202
716,0.0
843,2900.825535495538
844,2900.825535495538
907,0.0
908,0.0
971,0.0
972,0.0
1195,285.4574221874209
1197,285.4574221874209
2,2,12,23, 0, 2, 0.00,60.00,Tuesday
7,-6.1
718,18.560852716941778
719,-1.9239101814663038
720,15.981648056119615
619,4160.440648406428
633,1382.7521984598707
659,65.69471959597719
661,0.0
690,153.87776647997202
716,0.0
843,3299.6756446535182
844,3299.6756446535182
907,0.0
908,0.0
971,0.0
972,0.0
1195,676.8321895778886
1197,676.8321895778886
2,2,12,23, 0, 3, 0.00,60.00,Tuesday
7,-6.1
718,18.591424628956297
719,-2.0336134480231096
720,15.877956961612421
619,4189.908399352291
633,1395.6301236676372
659,57.79495876003827
661,0.0
690,153.87776647997202
716,0.0
843,3786.45342136575
844,3786.45342136575
907,0.0
908,0.0
971,0.0
972,0.0
1195,1243.9181117061748
1197,1243.9181117061748
2,2,12,23, 0, 4, 0.00,60.00,Tuesday
7,-7.8
718,18.601207682438314
719,-2.5625697458293684
720,15.762020060645847
619,4013.0561774909515
633,1386.3581635743778
659,50.173897697107535
661,0.0
690,153.87776647997202
716,0.0
843,3947.9064285509758
844,3947.9064285509758
907,0.0
908,0.0
971,0.0
972,0.0
1195,1614.9274217546026
1197,1614.9274217546026
2,2,12,23, 0, 5, 0.00,60.00,Tuesday
7,-7.8
718,18.60688455788918
719,-3.024751637556343
720,15.657338617043049
619,4013.01499247784
633,1386.4840392389144
659,50.159832865748314
661,0.0
690,153.87776647997202
716,0.0
843,3862.6165475328908
844,3862.6165475328908
907,0.0
908,0.0
971,0.0
972,0.0
1195,1550.5732402674757
1197,1550.5732402674757
2,2,12,23, 0, 6, 0.00,60.00,Tuesday
7,-7.8
718,19.36765398572008
719,-3.0497424877302586
720,15.547422740479027
619,4013.097728298616
633,1386.5235524650243
659,50.136086059974595
661,0.0
690,153.87776647997202
716,0.0
843,4933.2003007746225
844,4933.2003007746225
907,0.0
908,0.0
971,0.0
972,0.0
1195,2844.8407745008435
1197,2844.8407745008435
2,2,12,23, 0, 7, 0.00,60.00,Tuesday
7,-9.4
718,19.562124251552465
719,-3.1047117044970847
720,15.462178343382233
619,3820.483379480736
633,1392.3006943379294
659,46.187133452291036
661,0.0
690,153.87776647997202
716,85.44000000000007
843,4797.895918372944
844,4797.895918372944
907,0.0
908,0.0
971,0.0
972,0.0
1195,4134.084105228689
1197,4134.084105228689
2,2,12,23, 0, 8, 0.00,60.00,Tuesday
7,-8.9
718,19.65114584447181
719,-3.6377017483732295
720,15.365442749894212
619,3861.271023276136
633,1398.6631416642588
659,49.868331364540275
661,0.0
690,153.87776647997202
716,85.44000000000007
843,4506.073312509259
844,4506.073312509259
907,0.0
908,0.0
971,0.0
972,0.0
1195,3827.0835143024156
1197,3827.0835143024156
2,2,12,23, 0, 9, 0.00,60.00,Tuesday
7,-8.3
718,19.681439731646297
719,-2.439126429959738
720,15.271959599938643
619,3916.4366051824904
633,1403.4340653880424
659,53.55772493738628
661,0.0
690,153.87776647997202
716,81.77318718353497
843,4131.68537225862
844,4131.68537225862
907,0.0
908,0.0
971,0.0
972,0.0
1195,3299.0434835074157
1197,3299.0434835074157
2,2,12,23, 0,10, 0.00,60.00,Tuesday
7,-5.0
718,19.710103821277507
719,-0.5585852772386019
720,15.197972143828736
619,4274.203256702469
633,1430.061487656223
659,64.0774585762524
661,0.0
690,153.87776647997202
716,0.0
843,3881.6056738103216
844,3881.6056738103216
907,0.0
908,0.0
971,0.0
972,0.0
1195,1402.4618829064789
1197,1402.4618829064789
2,2,12,23, 0,11, 0.00,60.00,Tuesday
7,-4.4
718,19.721430883169774
719,1.603118603137987
720,15.11124776807617
619,4385.460866412208
633,1450.354037336875
659,55.13546394631192
661,0.0
690,153.87776647997202
716,0.0
843,3457.014525250008
844,3457.014525250008
907,0.0
908,0.0
971,0.0
972,0.0
1195,690.1072125787714
1197,690.1072125787714
2,2,12,23, 0,12, 0.00,60.00,Tuesday
7,-3.9
718,19.723485213091816
719,3.719086948608307
720,15.041578277468462
619,4423.882366837275
633,1460.879912449096
659,50.86296214705158
661,0.22857002505312085
690,152.43688791332346
716,0.0
843,3019.226559418121
844,3019.226559418121
907,0.0
908,0.0
971,0.0
972,0.0
1195,0.0
1197,0.0
2,2,12,23, 0,13, 0.00,60.00,Tuesday
7,-2.2
718,19.76496845462338
719,5.267938327378984
720,14.977760676059782
619,3768.214505135153
633,1226.686618326296
659,36.17871039662708
661,35.73687694622998
690,125.65852946408538
716,0.0
843,2675.225959692705
844,2675.225959692705
907,0.0
908,0.0
971,0.0
972,0.0
1195,0.0
1197,0.0
2,2,12,23, 0,14, 0.00,60.00,Tuesday
7,-2.8
718,19.73795884413851
719,6.38915787904147
720,14.916568925133637
619,3216.2272774373555
633,1073.6618149593637
659,31.35534174187274
661,55.6924768950871
690,110.35061960047496
716,0.0
843,2325.9404798911182
844,2325.9404798911182
907,0.0
908,0.0
971,0.0
972,0.0
1195,0.0
1197,0.0
2,2,12,23, 0,15, 0.00,60.00,Tuesday
7,-2.8
718,19.69855831972181
719,5.82397384300849
720,14.878062895269126
619,3173.315700671353
633,1059.7170411817478
659,31.361159423989534
661,57.411945800148075
690,109.02737414800191
716,0.0
843,2332.5710962575085
844,2332.5710962575085
907,0.0
908,0.0
971,0.0
972,0.0
1195,0.0
1197,0.0
2,2,12,23, 0,16, 0.00,60.00,Tuesday
7,-3.9
718,19.68235433251491
719,4.630772861601839
720,14.849851408433805
619,3457.1445771773465
633,1168.2185743781827
659,33.68644689760922
661,41.427028152457844
690,121.17203377188788
716,0.0
843,2505.2601566922476
844,2505.2601566922476
907,0.0
908,0.0
971,0.0
972,0.0
1195,0.0
1197,0.0
2,2,12,23, 0,17, 0.00,60.00,Tuesday
7,-3.9
718,19.74914089022764
719,3.922398889922884
720,14.823529321023166
619,3221.18368806814
633,1094.590320402461
659,31.578850770913608
661,51.37562180929207
690,113.5698259674299
716,0.0
843,2301.5085863629047
844,2301.5085863629047
907,0.0
908,0.0
971,0.0
972,0.0
1195,0.0
1197,0.0
2,2,12,23, 0,18, 0.00,60.00,Tuesday
7,-3.9
718,19.65159537229497
719,2.044432848332329
720,14.820523798301158
619,4499.451304767241
633,1473.8302444092221
659,43.016025452767465
661,0.0
690,153.87776647997202
716,70.89375374083171
843,2403.9950557170196
844,2403.9950557170196
907,0.0
908,0.0
971,0.0
972,0.0
1195,48.626245400527296
1197,48.626245400527296
2,2,12,23, 0,19, 0.00,60.00,Tuesday
7,-4.4
718,19.742013279710648
719,0.010410998220468858
720,14.763193990021598
619,3381.3744753107712
633,1153.2834800337826
659,26.996685905271125
661,43.80026745661705
690,119.47604836337146
716,0.0
843,2317.2341434938717
844,2317.2341434938717
907,0.0
908,0.0
971,0.0
972,0.0
1195,0.0
1197,0.0
2,2,12,23, 0,20, 0.00,60.00,Tuesday
7,-5.0
718,19.66360356166299
719,0.3767418877283338
720,14.74976600526094
619,4426.196179266742
633,1482.174223555125
659,26.7609257898809
661,0.0
690,153.87776647997202
716,85.44000000000007
843,2261.128403814022
844,2261.128403814022
907,0.0
908,0.0
971,0.0
972,0.0
1195,514.418459382875
1197,514.418459382875
2,2,12,23, 0,21, 0.00,60.00,Tuesday
7,-5.0
718,19.694922818655293
719,-0.09237601005604862
720,14.696659668402004
619,4428.15094453424
633,1479.8937836235775
659,26.7609257898809
661,0.0
690,153.87776647997202
716,85.44000000000007
843,2360.3819651555877
844,2360.3819651555877
907,0.0
908,0.0
971,0.0
972,0.0
1195,580.8954645988028
1197,580.8954645988028
2,2,12,23, 0,22, 0.00,60.00,Tuesday
7,-5.0
718,19.704439817861246
719,-0.12528824248305295
720,14.647554893538388
619,4427.389432221522
633,1480.671725053919
659,26.778885750971575
661,0.0
690,153.87776647997202
716,44.838372751553635
843,2858.9900505205205
844,2858.9900505205205
907,0.0
908,0.0
971,0.0
972,0.0
1195,510.43497098855914
1197,510.43497098855914
2,2,12,23, 0,23, 0.00,60.00,Tuesday
7,-5.0
718,18.979858532225737
719,-1.0991181751964676
720,14.56249023520224
619,2620.90117788907
633,922.361045339194
659,16.667534670095097
661,75.4694251500395
690,95.3512499468524
716,0.0
843,1717.889331776416
844,1717.889331776416
907,0.0
908,0.0
971,0.0
972,0.0
1195,0.0
1197,0.0
2,2,12,23, 0,24, 0.00,60.00,Tuesday
7,-5.6
718,18.602092181833772
719,-1.3118988042819562
720,14.488532461006036
619,3418.1816334040836
633,1171.3317188676858
659,30.128740432286307
661,37.21308406559088
690,124.35375398103253
716,0.0
843,2254.4202779221214
844,2254.4202779221214
907,0.0
908,0.0
971,0.0
972,0.0
1195,0.0
1197,0.0
2,3,12,24, 0, 1, 0.00,60.00,Wednesday
7,-5.6
718,18.518385475942825
719,-0.938601154856092
720,14.414565974604686
619,4315.626821042583
633,1421.420697666594
659,42.13335951055436
661,0.0
690,153.87776647997202
716,0.0
843,2889.336370341509
844,2889.336370341509
907,0.0
908,0.0
971,0.0
972,0.0
1195,48.09296159169662
1197,48.09296159169662
2,3,12,24, 0, 2, 0.00,60.00,Wednesday
7,-5.6
718,18.577640098920064
719,-0.963482213781468
720,14.337174278392823
619,4290.292533354946
633,1409.9650115754437
659,48.90465458716676
661,0.0
690,153.87776647997202
716,0.0
843,3554.10331678924
844,3554.10331678924
907,0.0
908,0.0
971,0.0
972,0.0
1195,843.8470741294691
1197,843.8470741294691
2,3,12,24, 0, 3, 0.00,60.00,Wednesday
7,-5.6
718,18.59949048774832
719,-0.9516759246784999
720,14.26759724133416
619,4259.165101305708
633,1401.6944527074158
659,56.261609769906336
661,0.0
690,153.87776647997202
716,0.0
843,3608.065249168678
844,3608.065249168678
907,0.0
908,0.0
971,0.0
972,0.0
1195,945.2379488122647
1197,945.2379488122647
2,3,12,24, 0, 4, 0.00,60.00,Wednesday
7,-6.1
718,18.605812846515864
719,-0.7349190193964585
720,14.191536335228744
619,4131.977315523271
633,1374.6450123034322
659,72.59568407298282
661,0.0
690,153.87776647997202
716,0.0
843,3510.637094913869
844,3510.637094913869
907,0.0
908,0.0
971,0.0
972,0.0
1195,951.7136664269847
1197,951.7136664269847
2,3,12,24, 0, 5, 0.00,60.00,Wednesday
7,-6.1
718,18.608528325697694
719,-0.8737235878670725
720,14.11896807416166
619,4101.007219883258
633,1364.4159199178428
659,80.34152850071668
661,0.0
690,153.87776647997202
716,0.0
843,3567.60122181686
844,3567.60122181686
907,0.0
908,0.0
971,0.0
972,0.0
1195,1045.3513589733143
1197,1045.3513589733143
2,3,12,24, 0, 6, 0.00,60.00,Wednesday
7,-6.1
718,19.268038371396482
719,-0.6383104943100455
720,14.046670458309926
619,4131.962827940589
633,1374.6617424981828
659,72.59568407298282
661,0.0
690,153.87776647997202
716,71.67749121372482
843,4794.00123533875
844,4794.00123533875
907,0.0
908,0.0
971,0.0
972,0.0
1195,3366.195548336059
1197,3366.195548336059
2,3,12,24, 0, 7, 0.00,60.00,Wednesday
7,-6.7
718,19.525448578199786
719,-0.733199485403221
720,14.00409143854122
619,4054.4451981131006
633,1388.5005745171438
659,70.10994694858489
661,0.0
690,153.87776647997202
716,85.44000000000007
843,4690.463231997153
844,4690.463231997153
907,0.0
908,0.0
971,0.0
972,0.0
1195,3684.8099431247383
1197,3684.8099431247383
2,3,12,24, 0, 8, 0.00,60.00,Wednesday
7,-7.2
718,19.642502941988898
719,-1.3990454222471957
720,13.940811907915718
619,4029.082858685932
633,1403.3591734547224
659,59.65988580090305
661,0.0
690,153.87776647997202
716,62.015515410988925
843,4617.209748294217
844,4617.209748294217
907,0.0
908,0.0
971,0.0
972,0.0
1195,3330.1288247799685
1197,3330.1288247799685
2,3,12,24, 0, 9, 0.00,60.00,Wednesday
7,-7.8
718,19.701746720995207
719,-1.4848327051555117
720,13.88040605497198
619,3941.617926850748
633,1394.489914460987
659,63.16037935317493
661,0.0
690,153.87776647997202
716,0.0
843,4165.60172254889
844,4165.60172254889
907,0.0
908,0.0
971,0.0
972,0.0
1195,2045.3311729029392
1197,2045.3311729029392
2,3,12,24, 0,10, 0.00,60.00,Wednesday
7,-7.2
718,19.71247808987376
719,-1.6611582677151566
720,13.822484311960592
619,4025.0701058836207
633,1407.9424837934048
659,59.65988580090305
661,0.0
690,153.87776647997202
716,0.0
843,4046.0365476148654
844,4046.0365476148654
907,0.0
908,0.0
971,0.0
972,0.0
1195,1825.1354566979226
1197,1825.1354566979226
2,3,12,24, 0,11, 0.00,60.00,Wednesday
7,-6.7
718,19.716824143232575
719,-1.5992989167328022
720,13.760247170095486
619,4097.281052631202
633,1418.3485846570481
659,56.54224763256576
661,0.0
690,153.87776647997202
716,0.0
843,4193.60740695952
844,4193.60740695952
907,0.0
908,0.0
971,0.0
972,0.0
1195,1959.5035087040542
1197,1959.5035087040542
2,3,12,24, 0,12, 0.00,60.00,Wednesday
7,-6.1
718,19.722649544832276
719,0.23653817320180662
720,13.725179221509368
619,4217.099102017022
633,1441.722234772926
659,44.74563513777228
661,0.0
690,153.87776647997202
716,0.0
843,2781.8892149321073
844,2781.8892149321073
907,0.0
908,0.0
971,0.0
972,0.0
1195,147.75127664295087
1197,147.75127664295087
2,3,12,24, 0,13, 0.00,60.00,Wednesday
7,-5.6
718,19.7398426628212
719,1.46359132878606
720,13.688108294455958
619,3943.5846800596737
633,1355.7950105404434
659,34.33435298642663
661,14.103832709409048
690,142.00527483082348
716,0.0
843,2570.117020515583
844,2570.117020515583
907,0.0
908,0.0
971,0.0
972,0.0
1195,0.0
1197,0.0
2,3,12,24, 0,14, 0.00,60.00,Wednesday
7,-5.0
718,19.815347093393726
719,0.961917004357687
720,13.644224905784647
619,2536.6959500899916
633,894.2946457407236
659,16.129626643987404
661,79.22324366179969
690,92.4780513912235
716,0.0
843,1693.0397702124883
844,1693.0397702124883
907,0.0
908,0.0
971,0.0
972,0.0
1195,0.0
1197,0.0
2,3,12,24, 0,15, 0.00,60.00,Wednesday
7,-4.4
718,19.915769462370314
719,2.818876047242263
720,13.661359443451508
619,2279.2809125838226
633,800.7992686300371
659,11.201613013631423
661,93.12853017603548
690,81.93711794357164
716,70.2477795120738
843,750.3031200296464
844,750.3031200296464
907,0.0
908,0.0
971,0.0
972,0.0
1195,0.0
1197,0.0
2,3,12,24, 0,16, 0.00,60.00,Wednesday
7,-5.6
718,19.527988964593927
719,0.2855512194017689
720,13.690642320597737
619,2347.7453943580754
633,844.378233219838
659,11.067900044750314
661,86.52935787012055
690,86.97765117652327
716,78.29580976682198
843,721.0495146353533
844,721.0495146353533
907,0.0
908,0.0
971,0.0
972,0.0
1195,0.0
1197,0.0
2,3,12,24, 0,17, 0.00,60.00,Wednesday
7,-6.7
718,20.090449167636105
719,-0.539451664926056
720,13.697590114454348
619,1345.4790720999258
633,503.6097234536445
659,6.866189198966695
661,131.15975417600134
690,52.73905280402108
716,0.0
843,877.3050215911226
844,877.3050215911226
907,0.0
908,0.0
971,0.0
972,0.0
1195,0.0
1197,0.0
2,3,12,24, 0,18, 0.00,60.00,Wednesday
7,-8.3
718,19.59129106906274
719,-2.808074097656606
720,13.768155755578494
619,2066.9975597797884
633,793.6564366057612
659,11.015754870947886
661,91.12434425175466
690,83.3427371292132
716,0.0
843,1307.027873017545
844,1307.027873017545
907,0.0
908,0.0
971,0.0
972,0.0
1195,0.0
1197,0.0
2,3,12,24, 0,19, 0.00,60.00,Wednesday
7,-7.8
718,19.651367039289497
719,-3.9987591125486976
720,13.781292461860849
619,2764.276127807369
633,1017.1967242303631
659,12.013621603623273
661,60.13063098368501
690,107.17422326694515
716,0.0
843,1710.0320454993816
844,1710.0320454993816
907,0.0
908,0.0
971,0.0
972,0.0
1195,0.0
1197,0.0
2,3,12,24, 0,20, 0.00,60.00,Wednesday
7,-7.8
718,19.566757603368195
719,-4.046875568424508
720,13.80486518614192
619,4115.16497232364
633,1455.8508382835937
659,17.176641966107223
661,0.0
690,153.87776647997202
716,85.44000000000007
843,1895.7377986012852
844,1895.7377986012852
907,0.0
908,0.0
971,0.0
972,0.0
1195,569.7427237078577
1197,569.7427237078577
2,3,12,24, 0,21, 0.00,60.00,Wednesday
7,-7.8
718,19.642800583216076
719,-4.551156122922656
720,13.760964144096791
619,4095.180424810796
633,1445.7363725975958
659,23.014684841532606
661,0.0
690,153.87776647997202
716,85.44000000000007
843,2268.7179731731467
844,2268.7179731731467
907,0.0
908,0.0
971,0.0
972,0.0
1195,1007.9855700568173
1197,1007.9855700568173
2,3,12,24, 0,22, 0.00,60.00,Wednesday
7,-8.3
718,19.688719510982008
719,-4.930347347041358
720,13.715228444296903
619,4021.9901498624695
633,1437.7963066697246
659,25.774386547480777
661,0.0
690,153.87776647997202
716,22.618884803398398
843,2746.145704907083
844,2746.145704907083
907,0.0
908,0.0
971,0.0
972,0.0
1195,757.9262489498183
1197,757.9262489498183
2,3,12,24, 0,23, 0.00,60.00,Wednesday
7,-8.9
718,18.97157560684951
719,-5.169354726367058
720,13.650790477730025
619,3843.4944477364047
633,1406.7389325277052
659,28.794680628829866
661,2.822524359968792
690,150.52758231904403
716,0.0
843,2209.2017531726306
844,2209.2017531726306
907,0.0
908,0.0
971,0.0
972,0.0
1195,0.0
1197,0.0
2,3,12,24, 0,24, 0.00,60.00,Wednesday
7,-8.9
718,18.730890537993425
719,-5.56598187859969
720,13.5451650932271
619,3972.3738064749464
633,1414.355086734692
659,23.969031684791247
661,0.0
690,153.87776647997202
716,0.0
843,2808.32437300307
844,2808.32437300307
907,0.0
908,0.0
971,0.0
972,0.0
1195,565.8744144503689
1197,565.8744144503689
2,4,12,25, 0, 1, 0.00,60.00,Thursday
7,-8.9
718,18.647702919457537
719,-4.800392385901855
720,13.463016605678073
619,3978.2442954859034
633,1407.7840795589482
659,23.96667274732343
661,0.0
690,153.87776647997202
716,0.0
843,3216.278285706192
844,3216.278285706192
907,0.0
908,0.0
971,0.0
972,0.0
1195,1044.4119883271446
1197,1044.4119883271446
2,4,12,25, 0, 2, 0.00,60.00,Thursday
7,-10.0
718,18.620325628928793
719,-4.943500613589181
720,13.364998162110842
619,3847.0029686444313
633,1391.23610407822
659,24.52488637111519
661,0.0
690,153.87776647997202
716,0.0
843,3596.6997640863538
844,3596.6997640863538
907,0.0
908,0.0
971,0.0
972,0.0
1195,1583.6182727255418
1197,1583.6182727255418
2,4,12,25, 0, 3, 0.00,60.00,Thursday
7,-9.4
718,18.610178161273947
719,-5.581103500667537
720,13.28464135726255
619,3930.7948851766555
633,1401.9326235756444
659,21.28387436527102
661,0.0
690,153.87776647997202
716,0.0
843,3765.580744221421
844,3765.580744221421
907,0.0
908,0.0
971,0.0
972,0.0
1195,1702.4445675696188
1197,1702.4445675696188
2,4,12,25, 0, 4, 0.00,60.00,Thursday
7,-10.0
718,18.604745836546122
719,-5.481149897139532
720,13.189138309798215
619,3848.1255759901796
633,1389.9814834121153
659,24.527298297934514
661,0.0
690,153.87776647997202
716,0.0
843,4409.019529614165
844,4409.019529614165
907,0.0
908,0.0
971,0.0
972,0.0
1195,2601.0960347758914
1197,2601.0960347758914
2,4,12,25, 0, 5, 0.00,60.00,Thursday
7,-9.4
718,18.60543089266662
719,-5.075784617295332
720,13.111340644565844
619,3913.132697626202
633,1394.7517696373427
659,26.330981829835352
661,0.0
690,153.87776647997202
716,0.0
843,4170.234141125586
844,4170.234141125586
907,0.0
908,0.0
971,0.0
972,0.0
1195,2235.9837785322397
1197,2235.9837785322397
2,4,12,25, 0, 6, 0.00,60.00,Thursday
7,-8.9
718,19.37458359855105
719,-5.022051019300703
720,13.031390713916036
619,3962.5758422061463
633,1397.049672259874
659,29.192851803654523
661,0.0
690,153.87776647997202
716,0.0
843,5003.656012613055
844,5003.656012613055
907,0.0
908,0.0
971,0.0
972,0.0
1195,3164.094546170915
1197,3164.094546170915
2,4,12,25, 0, 7, 0.00,60.00,Thursday
7,-8.3
718,19.575749671945445
719,-4.973492444145527
720,12.992575936331287
619,4029.4980902241823
633,1429.5043636258004
659,25.742489447126832
661,0.0
690,153.87776647997202
716,85.44000000000007
843,4697.4011417992115
844,4697.4011417992115
907,0.0
908,0.0
971,0.0
972,0.0
1195,3991.711354175374
1197,3991.711354175374
2,4,12,25, 0, 8, 0.00,60.00,Thursday
7,-8.9
718,19.649978074194305
719,-4.84240966522243
720,12.9165780673741
619,3958.7472673386155
633,1429.7421793646593
659,23.94616956628666
661,0.0
690,153.87776647997202
716,85.44000000000007
843,4491.618064519731
844,4491.618064519731
907,0.0
908,0.0
971,0.0
972,0.0
1195,3882.569468357572
1197,3882.569468357572
2,4,12,25, 0, 9, 0.00,60.00,Thursday
7,-8.3
718,19.68897474173307
719,-4.132468321716095
720,12.857432087993669
619,4059.342403802841
633,1449.8013233794436
659,15.970694585271428
661,0.0
690,153.87776647997202
716,71.10335392099752
843,4363.2337148684965
844,4363.2337148684965
907,0.0
908,0.0
971,0.0
972,0.0
1195,3309.4431935952657
1197,3309.4431935952657
2,4,12,25, 0,10, 0.00,60.00,Thursday
7,-6.7
718,19.715230631399493
719,-1.9877425133877977
720,12.804956226132752
619,4260.89249127742
633,1472.2283615812812
659,15.04107950724541
661,0.0
690,153.87776647997202
716,0.0
843,4294.984393599947
844,4294.984393599947
907,0.0
908,0.0
971,0.0
972,0.0
1195,2081.3353952053876
1197,2081.3353952053876
2,4,12,25, 0,11, 0.00,60.00,Thursday
7,-6.7
718,19.719246893784717