Program Version,EnergyPlus, Version 22.2.0-c249759bad, YMD=2023.09.01 20:46
1,5,Environment Title[],Latitude[deg],Longitude[deg],Time Zone[],Elevation[m]
2,8,Day of Simulation[],Month[],Day of Month[],DST Indicator[1=yes 0=no],Hour[],StartMinute[],EndMinute[],DayType
3,5,Cumulative Day of Simulation[],Month[],Day of Month[],DST Indicator[1=yes 0=no],DayType  ! When Daily Report Variables Requested
4,2,Cumulative Days of Simulation[],Month[]  ! When Monthly Report Variables Requested
5,1,Cumulative Days of Simulation[] ! When Run Period Report Variables Requested
6,1,Calendar Year of Simulation[] ! When Annual Report Variables Requested
581,11,LIVING,AFN Zone Infiltration Air Change Rate [ach] !RunPeriod [Value,Min,Month,Day,Hour,Minute,Max,Month,Day,Hour,Minute]
582,11,ATTIC,AFN Zone Infiltration Air Change Rate [ach] !RunPeriod [Value,Min,Month,Day,Hour,Minute,Max,Month,Day,Hour,Minute]
583,11,CRAWLSPACE,AFN Zone Infiltration Air Change Rate [ach] !RunPeriod [Value,Min,Month,Day,Hour,Minute,Max,Month,Day,Hour,Minute]
1038,11,Facility,Facility Heating Setpoint Not Met Time [hr] !RunPeriod [Value,Min,Month,Day,Hour,Minute,Max,Month,Day,Hour,Minute]
1039,11,Facility,Facility Cooling Setpoint Not Met Time [hr] !RunPeriod [Value,Min,Month,Day,Hour,Minute,Max,Month,Day,Hour,Minute]
1115,11,DX_HEATING_COIL,Heating Coil Heating Energy [J] !RunPeriod [Value,Min,Month,Day,Hour,Minute,Max,Month,Day,Hour,Minute]
1128,11,DX_HEATING_COIL,Heating Coil Electricity Energy [J] !RunPeriod [Value,Min,Month,Day,Hour,Minute,Max,Month,Day,Hour,Minute]
1153,11,DX_HEATING_COIL,Heating Coil Defrost Electricity Energy [J] !RunPeriod [Value,Min,Month,Day,Hour,Minute,Max,Month,Day,Hour,Minute]
1154,11,DX_HEATING_COIL,Heating Coil Crankcase Heater Electricity Energy [J] !RunPeriod [Value,Min,Month,Day,Hour,Minute,Max,Month,Day,Hour,Minute]
1155,11,HEATING_RESISTANCE_BACKUP,Heating Coil Heating Energy [J] !RunPeriod [Value,Min,Month,Day,Hour,Minute,Max,Month,Day,Hour,Minute]
1156,11,HEATING_RESISTANCE_BACKUP,Heating Coil Electricity Energy [J] !RunPeriod [Value,Min,Month,Day,Hour,Minute,Max,Month,Day,Hour,Minute]
1292,11,WATER HEATER,Water Heater Heat Loss Energy [J] !RunPeriod [Value,Min,Month,Day,Hour,Minute,Max,Month,Day,Hour,Minute]
1306,11,WATER HEATER,Water Heater Heating Energy [J] !RunPeriod [Value,Min,Month,Day,Hour,Minute,Max,Month,Day,Hour,Minute]
1307,11,WATER HEATER,Water Heater Unmet Demand Heat Transfer Energy [J] !RunPeriod [Value,Min,Month,Day,Hour,Minute,Max,Month,Day,Hour,Minute]
1308,11,WATER HEATER,Water Heater Electricity Energy [J] !RunPeriod [Value,Min,Month,Day,Hour,Minute,Max,Month,Day,Hour,Minute]
13,11,Electricity:Facility [J] !RunPeriod [Value,Min,Month,Day,Hour,Minute,Max,Month,Day,Hour,Minute]
1134,11,Heating:Electricity [J] !RunPeriod [Value,Min,Month,Day,Hour,Minute,Max,Month,Day,Hour,Minute]
1096,11,Cooling:Electricity [J] !RunPeriod [Value,Min,Month,Day,Hour,Minute,Max,Month,Day,Hour,Minute]
562,11,Fans:Electricity [J] !RunPeriod [Value,Min,Month,Day,Hour,Minute,Max,Month,Day,Hour,Minute]
1379,11,Pumps:Electricity [J] !RunPeriod [Value,Min,Month,Day,Hour,Minute,Max,Month,Day,Hour,Minute]
1326,11,WaterSystems:Electricity [J] !RunPeriod [Value,Min,Month,Day,Hour,Minute,Max,Month,Day,Hour,Minute]
61,11,InteriorLights:Electricity [J] !RunPeriod [Value,Min,Month,Day,Hour,Minute,Max,Month,Day,Hour,Minute]
1046,11,ExteriorLights:Electricity [J] !RunPeriod [Value,Min,Month,Day,Hour,Minute,Max,Month,Day,Hour,Minute]
134,11,InteriorEquipment:Electricity [J] !RunPeriod [Value,Min,Month,Day,Hour,Minute,Max,Month,Day,Hour,Minute]
170,11,gas_dryer:InteriorEquipment:Electricity [J] !RunPeriod [Value,Min,Month,Day,Hour,Minute,Max,Month,Day,Hour,Minute]
207,11,clotheswasher:InteriorEquipment:Electricity [J] !RunPeriod [Value,Min,Month,Day,Hour,Minute,Max,Month,Day,Hour,Minute]
244,11,dishwasher:InteriorEquipment:Electricity [J] !RunPeriod [Value,Min,Month,Day,Hour,Minute,Max,Month,Day,Hour,Minute]
281,11,refrigerator:InteriorEquipment:Electricity [J] !RunPeriod [Value,Min,Month,Day,Hour,Minute,Max,Month,Day,Hour,Minute]
318,11,electric_mels:InteriorEquipment:Electricity [J] !RunPeriod [Value,Min,Month,Day,Hour,Minute,Max,Month,Day,Hour,Minute]
355,11,NaturalGas:Facility [J] !RunPeriod [Value,Min,Month,Day,Hour,Minute,Max,Month,Day,Hour,Minute]
403,11,InteriorEquipment:NaturalGas [J] !RunPeriod [Value,Min,Month,Day,Hour,Minute,Max,Month,Day,Hour,Minute]
476,11,gas_dryer:InteriorEquipment:NaturalGas [J] !RunPeriod [Value,Min,Month,Day,Hour,Minute,Max,Month,Day,Hour,Minute]
513,11,gas_mels:InteriorEquipment:NaturalGas [J] !RunPeriod [Value,Min,Month,Day,Hour,Minute,Max,Month,Day,Hour,Minute]
End of Data Dictionary
1,EXTREME_WINTER,  44.25,-121.15,  -8.00, 936.00
5,15
1038,0.75,0.0,12,22, 1,15,0.25, 1, 1, 6,15
1039,0.0,0.0,12,22, 1,15,0.0,12,22, 1,15
581,0.33213017047002846,0.17833900010892617, 1, 4,15,60,0.7916170669441857,12,27,12,60
582,2.6378235285909075,0.0,12,23,21,48,19.443242432153777,12,27, 6,60
583,0.045200522809557844,0.0003482196425008228,12,28,14,60,0.0922383201656386,12,23, 6, 3
1115,3172385879.85641,0.0,12,22,11,33,4376204.889826453, 1, 5,11,45
1128,1067516493.8395214,0.0,12,22,11,33,1432792.4466474603,12,29, 9,15
1153,45392820.84123691,0.0,12,22,11,33,103328.21872886005,12,24, 6,60
1154,124948154.21624552,0.0,12,22, 6, 5,180000.0,12,22,14,15
1155,391806423.01440424,0.0,12,22, 1,15,4228812.399593062, 1, 1, 6,60
1156,391806423.01440424,0.0,12,22, 1,15,4228812.399593062, 1, 1, 6,60
1292,-54068319.99189011,-39770.53472047037,12,25, 3,45,-5167.3592459206875, 1, 4,10,33
1306,577125001.8612385,0.0,12,22, 1,15,4050000.0,12,22, 8,45
1307,198803283.3361374,0.0,12,22, 1,15,14431377.534743225, 1, 5, 8,30
1308,577125001.8612385,0.0,12,22, 1,15,4050000.0,12,22, 8,45
13,3122983817.47271,452017.0388981225,12,22,15,15,10407789.238216192, 1, 1, 6,60
61,646981127.1939323,88139.10953165221,12,22, 1,15,1282023.4113694867,12,22,20,15
134,151290040.75163814,63564.01800854099,12,22, 4,15,156554.22484006523,12,27,20,15
170,11185820.069951689,348.4159749238097,12,22, 4,15,17476.39704006126,12,27,12,15
207,13893028.5742839,815.2532113832032,12,22, 3,15,22990.642799023623,12,27,10,15
244,27284301.07562584,1521.856143006317,12,22, 4,15,53038.631142310165,12,27,20,15
281,98926891.03177746,59938.60262432081,12,22, 5,15,81951.81706819107,12,22,19,15
318,0.0,0.0,12,22, 1,15,0.0,12,22, 1,15
355,422701517.16107386,18561.32405820678,12,22, 4,15,724774.895203776,12,27,18,15
403,422701517.16107386,18561.32405820678,12,22, 4,15,724774.895203776,12,27,18,15
476,227882097.80545202,7098.072629279515,12,22, 4,15,356036.3026282215,12,27,12,15
513,0.0,0.0,12,22, 1,15,0.0,12,22, 1,15
562,117923755.75449038,0.0,12,22,11,45,158932.53762401055, 1, 1, 2,15
1046,0.0,0.0,12,22, 1,15,0.0,12,22, 1,15
1096,0.0,0.0,12,22, 1,15,0.0,12,22, 1,15
1134,1629663891.911411,180000.0,12,22,11,45,5848108.6806025375, 1, 1, 6,15
1326,577125001.8612384,0.0,12,22, 1,15,4050000.0,12,22, 8,45
1379,0.0,0.0,12,22, 1,15,0.0,12,22, 1,15
1,EXTREME_SUMMER,  44.25,-121.15,  -8.00, 936.00
5,7
1038,0.0,0.0, 7,20, 1,15,0.0, 7,20, 1,15
1039,11.75,0.0, 7,20, 1,15,0.25, 7,21,16,15
581,0.17155686700846964,0.0, 7,22, 6, 7,0.5980848727488007, 7,24,18,51
582,2.883285769868515,0.0, 7,20, 4,50,9.76512083129748, 7,24,18,48
583,0.03791699866743395,0.00003437805443549479, 7,22, 6,11,0.08714677336971795, 7,24,18,48
1115,0.0,0.0, 7,20, 1, 5,0.0, 7,20, 1, 5
1128,0.0,0.0, 7,20, 1, 5,0.0, 7,20, 1, 5
1153,0.0,0.0, 7,20, 1, 5,0.0, 7,20, 1, 5
1154,1260000.0,0.0, 7,20, 1, 5,180000.0, 7,20, 5,45
1155,0.0,0.0, 7,20, 1, 5,0.0, 7,20, 1, 5
1156,0.0,0.0, 7,20, 1, 5,0.0, 7,20, 1, 5
1292,-22082362.51365129,-34474.53105749596, 7,25, 6,15,-1807.2180253241559, 7,20, 8,31
1306,221494331.4050969,0.0, 7,20, 1, 5,4039886.934901288, 7,23, 6,45
1307,62165411.76801036,0.0, 7,20, 1, 5,3205881.912177711, 7,22,17,15
1308,221494331.4050969,0.0, 7,20, 1, 5,4039886.934901288, 7,23, 6,45
13,1139019741.6329494,151703.1275401932, 7,20, 4,15,6739972.714842337, 7,20,18,30
61,301924526.02383536,88139.10953165221, 7,20, 1,15,1282023.4113694867, 7,20,20,15
134,70666020.44019976,63564.01800854099, 7,20, 4,15,156554.22484006523, 7,25,20,15
170,5241013.419656067,348.4159749238097, 7,20, 4,15,17476.39704006126, 7,25,12,15
207,6509451.13922267,815.2532113832032, 7,20, 3,15,22990.642799023623, 7,25,10,15
244,12749673.399825225,1521.856143006317, 7,20, 4,15,53038.631142310165, 7,25,20,15
281,46165882.481495745,59938.60262432081, 7,20, 5,15,81951.81706819107, 7,20,19,15
318,0.0,0.0, 7,20, 1,15,0.0, 7,20, 1,15
355,197687796.27748066,18561.32405820678, 7,20, 4,15,724774.895203776, 7,25,18,15
403,197687796.27748066,18561.32405820678, 7,20, 4,15,724774.895203776, 7,25,18,15
476,106772067.24485716,7098.072629279515, 7,20, 4,15,356036.3026282215, 7,25,12,15
513,0.0,0.0, 7,20, 1,15,0.0, 7,20, 1,15
562,50067567.448684454,0.0, 7,20, 2,30,158932.53762401055, 7,21,16,15
1046,0.0,0.0, 7,20, 1,15,0.0, 7,20, 1,15
1096,493607296.3151326,0.0, 7,20, 2,30,1860849.292165659, 7,23,14,60
1134,1260000.0,0.0, 7,20, 1,15,180000.0, 7,20, 4,45
1326,221494331.40509686,0.0, 7,20, 1,15,4050000.0000000014, 7,20, 8,45
1379,0.0,0.0, 7,20, 1,15,0.0, 7,20, 1,15
1,ANNUAL,  44.25,-121.15,  -8.00, 936.00
5,365
1038,4.0,0.0, 1, 1, 1,15,0.25, 1, 1, 6,15
1039,72.0,0.0, 1, 1, 1,15,0.25, 3, 9,15,15
581,0.25453769594008807,0.0, 7,22, 6, 7,1.0485981724986613, 4,15,11,60
582,3.063834720208059,0.0, 1, 1, 9,20,29.12612001717621, 1,19,20,52
583,0.024500200509709146,0.000013212873786664214, 5, 3, 8,31,0.09085493389362194, 3,17, 5,60
1115,23391393009.583405,0.0, 1, 1,15, 7,4952281.671717089, 3,17, 5,60
1128,7550882999.916997,0.0, 1, 1,15, 7,1521278.5591881003,12,19, 8,45
1153,347009659.89255697,0.0, 1, 1,15, 7,127397.27076329624, 3, 6, 6,45
1154,2590663213.7510076,0.0, 1, 1, 1,30,180000.0, 1, 8,14,30
1155,1359774778.3641007,0.0, 1, 1, 1,15,4299259.722501683, 1, 1, 6,45
1156,1359774778.3641007,0.0, 1, 1, 1,15,4299259.722501683, 1, 1, 6,45
1292,-1235143531.3490279,-39796.00519052217, 2,16, 3,45,-1523.2594867984906, 5, 8, 8,31
1306,12934058230.144653,0.0, 1, 1, 1,15,4050000.0, 1, 3, 7,30
1307,4057803701.6717787,0.0, 1, 1, 1,15,14903294.435166802, 2,13, 8,30
1308,12934058230.144653,0.0, 1, 1, 1,15,4050000.0, 1, 3, 7,30
13,51867746921.87422,151703.1275401932, 5,11, 4,15,9570871.201874215, 1, 1, 8,45
61,15743207428.383959,88139.10953165221, 1, 1, 1,15,1282023.4113694867, 1, 1,20,15
134,3685071073.4325233,63564.01800854099, 1, 2, 4,15,156554.22484006523, 1, 1,20,15
170,273393721.45532674,348.4159749238097, 1, 2, 4,15,17476.39704006126, 1, 1,12,15
207,339560869.0695816,815.2532113832032, 1, 2, 3,15,22990.642799023623, 1, 1,10,15
244,664895467.8009144,1521.856143006317, 1, 2, 4,15,53038.631142310165, 1, 1,20,15
281,2407221015.106824,59938.60262432081, 1, 1, 5,15,81951.81706819107, 1, 1,19,15
318,0.0,0.0, 1, 1, 1,15,0.0, 1, 1, 1,15
355,10310294493.051695,18561.32405820678, 1, 2, 4,15,724774.895203776, 1, 1,18,15
403,10310294493.051695,18561.32405820678, 1, 2, 4,15,724774.895203776, 1, 1,18,15
476,5569688622.066177,7098.072629279515, 1, 2, 4,15,356036.3026282215, 1, 1,12,15
513,0.0,0.0, 1, 1, 1,15,0.0, 1, 1, 1,15
562,1545610535.0142856,0.0, 1, 1,15,15,158932.53762401055, 1, 1, 9,60
1046,0.0,0.0, 1, 1, 1,15,0.0, 1, 1, 1,15
1096,6111469002.972262,0.0, 1, 1, 1,15,1858958.3044107545, 7,23,14,60
1134,11848330651.924671,0.0, 1,22,11,60,5857267.854185527, 1, 1, 6,15
1326,12934058230.144608,0.0, 1, 1, 1,15,4050000.0000000014, 4,29, 9,45
1379,0.0,0.0, 1, 1, 1,15,0.0, 1, 1, 1,15
End of Data
 Number of Records Written=          99
