Program Version,EnergyPlus, Version 22.2.0-c249759bad, YMD=2023.09.01 20:50
1,5,Environment Title[],Latitude[deg],Longitude[deg],Time Zone[],Elevation[m]
2,8,Day of Simulation[],Month[],Day of Month[],DST Indicator[1=yes 0=no],Hour[],StartMinute[],EndMinute[],DayType
3,5,Cumulative Day of Simulation[],Month[],Day of Month[],DST Indicator[1=yes 0=no],DayType  ! When Daily Report Variables Requested
4,2,Cumulative Days of Simulation[],Month[]  ! When Monthly Report Variables Requested
5,1,Cumulative Days of Simulation[] ! When Run Period Report Variables Requested
6,1,Calendar Year of Simulation[] ! When Annual Report Variables Requested
581,11,LIVING,AFN Zone Infiltration Air Change Rate [ach] !RunPeriod [Value,Min,Month,Day,Hour,Minute,Max,Month,Day,Hour,Minute]
582,11,ATTIC,AFN Zone Infiltration Air Change Rate [ach] !RunPeriod [Value,Min,Month,Day,Hour,Minute,Max,Month,Day,Hour,Minute]
583,11,CRAWLSPACE,AFN Zone Infiltration Air Change Rate [ach] !RunPeriod [Value,Min,Month,Day,Hour,Minute,Max,Month,Day,Hour,Minute]
1038,11,Facility,Facility Heating Setpoint Not Met Time [hr] !RunPeriod [Value,Min,Month,Day,Hour,Minute,Max,Month,Day,Hour,Minute]
1039,11,Facility,Facility Cooling Setpoint Not Met Time [hr] !RunPeriod [Value,Min,Month,Day,Hour,Minute,Max,Month,Day,Hour,Minute]
1115,11,DX_HEATING_COIL,Heating Coil Heating Energy [J] !RunPeriod [Value,Min,Month,Day,Hour,Minute,Max,Month,Day,Hour,Minute]
1128,11,DX_HEATING_COIL,Heating Coil Electricity Energy [J] !RunPeriod [Value,Min,Month,Day,Hour,Minute,Max,Month,Day,Hour,Minute]
1153,11,DX_HEATING_COIL,Heating Coil Defrost Electricity Energy [J] !RunPeriod [Value,Min,Month,Day,Hour,Minute,Max,Month,Day,Hour,Minute]
1154,11,DX_HEATING_COIL,Heating Coil Crankcase Heater Electricity Energy [J] !RunPeriod [Value,Min,Month,Day,Hour,Minute,Max,Month,Day,Hour,Minute]
1155,11,HEATING_RESISTANCE_BACKUP,Heating Coil Heating Energy [J] !RunPeriod [Value,Min,Month,Day,Hour,Minute,Max,Month,Day,Hour,Minute]
1156,11,HEATING_RESISTANCE_BACKUP,Heating Coil Electricity Energy [J] !RunPeriod [Value,Min,Month,Day,Hour,Minute,Max,Month,Day,Hour,Minute]
1292,11,WATER HEATER,Water Heater Heat Loss Energy [J] !RunPeriod [Value,Min,Month,Day,Hour,Minute,Max,Month,Day,Hour,Minute]
1306,11,WATER HEATER,Water Heater Heating Energy [J] !RunPeriod [Value,Min,Month,Day,Hour,Minute,Max,Month,Day,Hour,Minute]
1307,11,WATER HEATER,Water Heater Unmet Demand Heat Transfer Energy [J] !RunPeriod [Value,Min,Month,Day,Hour,Minute,Max,Month,Day,Hour,Minute]
1308,11,WATER HEATER,Water Heater Electricity Energy [J] !RunPeriod [Value,Min,Month,Day,Hour,Minute,Max,Month,Day,Hour,Minute]
13,11,Electricity:Facility [J] !RunPeriod [Value,Min,Month,Day,Hour,Minute,Max,Month,Day,Hour,Minute]
1134,11,Heating:Electricity [J] !RunPeriod [Value,Min,Month,Day,Hour,Minute,Max,Month,Day,Hour,Minute]
1096,11,Cooling:Electricity [J] !RunPeriod [Value,Min,Month,Day,Hour,Minute,Max,Month,Day,Hour,Minute]
562,11,Fans:Electricity [J] !RunPeriod [Value,Min,Month,Day,Hour,Minute,Max,Month,Day,Hour,Minute]
1379,11,Pumps:Electricity [J] !RunPeriod [Value,Min,Month,Day,Hour,Minute,Max,Month,Day,Hour,Minute]
1326,11,WaterSystems:Electricity [J] !RunPeriod [Value,Min,Month,Day,Hour,Minute,Max,Month,Day,Hour,Minute]
61,11,InteriorLights:Electricity [J] !RunPeriod [Value,Min,Month,Day,Hour,Minute,Max,Month,Day,Hour,Minute]
1046,11,ExteriorLights:Electricity [J] !RunPeriod [Value,Min,Month,Day,Hour,Minute,Max,Month,Day,Hour,Minute]
134,11,InteriorEquipment:Electricity [J] !RunPeriod [Value,Min,Month,Day,Hour,Minute,Max,Month,Day,Hour,Minute]
170,11,gas_dryer:InteriorEquipment:Electricity [J] !RunPeriod [Value,Min,Month,Day,Hour,Minute,Max,Month,Day,Hour,Minute]
207,11,clotheswasher:InteriorEquipment:Electricity [J] !RunPeriod [Value,Min,Month,Day,Hour,Minute,Max,Month,Day,Hour,Minute]
244,11,dishwasher:InteriorEquipment:Electricity [J] !RunPeriod [Value,Min,Month,Day,Hour,Minute,Max,Month,Day,Hour,Minute]
281,11,refrigerator:InteriorEquipment:Electricity [J] !RunPeriod [Value,Min,Month,Day,Hour,Minute,Max,Month,Day,Hour,Minute]
318,11,electric_mels:InteriorEquipment:Electricity [J] !RunPeriod [Value,Min,Month,Day,Hour,Minute,Max,Month,Day,Hour,Minute]
355,11,NaturalGas:Facility [J] !RunPeriod [Value,Min,Month,Day,Hour,Minute,Max,Month,Day,Hour,Minute]
403,11,InteriorEquipment:NaturalGas [J] !RunPeriod [Value,Min,Month,Day,Hour,Minute,Max,Month,Day,Hour,Minute]
476,11,gas_dryer:InteriorEquipment:NaturalGas [J] !RunPeriod [Value,Min,Month,Day,Hour,Minute,Max,Month,Day,Hour,Minute]
513,11,gas_mels:InteriorEquipment:NaturalGas [J] !RunPeriod [Value,Min,Month,Day,Hour,Minute,Max,Month,Day,Hour,Minute]
End of Data Dictionary
1,EXTREME_WINTER,  32.54, -93.75,  -6.00,  55.00
5,7
1038,0.25,0.0, 1,29, 1,15,0.25, 2, 2, 6,15
1039,0.0,0.0, 1,29, 1,15,0.0, 1,29, 1,15
581,0.3235757829777589,0.1258316554571129, 1,31,10,16,0.7819445907295597, 2, 1, 9,52
582,3.8681613549273495,0.0, 1,29, 1,52,22.500590349078905, 2, 1, 9,46
583,0.033586032420365175,0.00023150375103929177, 1,31,11, 1,0.08546411354805816, 2, 1,22,60
1115,1073482192.0706424,0.0, 1,29, 1, 7,4356386.09444076, 2, 3, 6,45
1128,359986399.0263214,0.0, 1,29, 1, 7,1406201.12507015, 2, 3, 6,45
1153,12711476.728483975,0.0, 1,29, 1, 7,88112.70006128687, 1,30, 6,60
1154,49114917.07352226,0.0, 1,29, 6, 3,180000.0, 1,29,21,60
1155,85590967.92564707,0.0, 1,29, 1, 7,2662636.5978854513, 2, 2, 6,45
1156,85590967.92564707,0.0, 1,29, 1, 7,2662636.5978854513, 2, 2, 6,45
1292,-24437373.466304783,-39743.39410503336, 1,30, 5,45,-2393.1494918040717, 1,31,10,31
1306,312121724.9402431,0.0, 1,29, 1, 7,4050000.0, 2, 1,21,15
1307,124037785.97665775,0.0, 1,29, 1, 7,12062450.06686438, 2, 4, 9,45
1308,312121724.9402431,0.0, 1,29, 1, 7,4050000.0, 2, 1,21,15
13,1252996869.8937058,151703.1275401932, 2, 1, 4,15,6965109.651555274, 2, 1,21,30
61,301924526.02383536,88139.10953165221, 1,29, 1,15,1282023.4113694867, 1,29,20,15
134,70666020.44019976,63564.01800854099, 1,29, 4,15,156554.22484006523, 2, 3,20,15
170,5241013.419656067,348.4159749238097, 1,29, 4,15,17476.39704006126, 2, 3,12,15
207,6509451.13922267,815.2532113832032, 1,29, 3,15,22990.642799023623, 2, 3,10,15
244,12749673.399825225,1521.856143006317, 1,29, 4,15,53038.631142310165, 2, 3,20,15
281,46165882.481495745,59938.60262432081, 1,29, 5,15,81951.81706819107, 1,29,19,15
318,0.0,0.0, 1,29, 1,15,0.0, 1,29, 1,15
355,197687796.27748066,18561.32405820678, 1,29, 4,15,724774.895203776, 2, 3,18,15
403,197687796.27748066,18561.32405820678, 1,29, 4,15,724774.895203776, 2, 3,18,15
476,106772067.24485716,7098.072629279515, 1,29, 4,15,356036.3026282215, 2, 3,12,15
513,0.0,0.0, 1,29, 1,15,0.0, 1,29, 1,15
562,40068650.753668666,0.0, 1,29, 1,15,139707.48303723813, 1,29, 6,45
1046,0.0,0.0, 1,29, 1,15,0.0, 1,29, 1,15
1096,20812186.981785294,0.0, 1,29, 1,15,607258.6882324585, 1,31,17,15
1134,507403760.7539743,0.0, 1,30,12,30,4597381.520436044, 2, 2, 6,15
1326,312121724.9402431,0.0, 1,29, 1,15,4050000.0, 1,29, 9,60
1379,0.0,0.0, 1,29, 1,15,0.0, 1,29, 1,15
1,EXTREME_SUMMER,  32.54, -93.75,  -6.00,  55.00
5,7
1038,0.0,0.0, 9, 2, 1,15,0.0, 9, 2, 1,15
1039,62.75,0.0, 9, 2, 1,15,0.25, 9, 2,13,30
581,0.13766565770249659,0.0, 9, 6,22,37,0.7574357170561514, 9, 2,19,48
582,3.5889035705840757,0.1742025532067654, 9, 7,21,25,13.98027469361046, 9, 2,19,48
583,0.0499799683831731,0.0, 9, 7,23, 3,0.08323633931151579, 9, 2,19,48
1115,0.0,0.0, 9, 2, 1,15,0.0, 9, 2, 1,15
1128,0.0,0.0, 9, 2, 1,15,0.0, 9, 2, 1,15
1153,0.0,0.0, 9, 2, 1,15,0.0, 9, 2, 1,15
1154,0.0,0.0, 9, 2, 1,15,0.0, 9, 2, 1,15
1155,0.0,0.0, 9, 2, 1,15,0.0, 9, 2, 1,15
1156,0.0,0.0, 9, 2, 1,15,0.0, 9, 2, 1,15
1292,-21593694.64789349,-34351.37397020316, 9, 4,22,45,-2925.3706812509477, 9, 6,16,59
1306,226082174.72063717,0.0, 9, 2, 1,15,2025000.0, 9, 2, 8,30
1307,60078744.50932361,0.0, 9, 2, 1,15,2717632.1536340066, 9, 5,20,60
1308,226082174.72063717,0.0, 9, 2, 1,15,2025000.0, 9, 2, 8,30
13,1361667689.1213925,382376.1964023065, 9, 3, 4,60,7088992.271194892, 9, 3,20,15
61,301924526.02383536,88139.10953165221, 9, 2, 1,15,1282023.4113694867, 9, 2,20,15
134,70666020.44019976,63564.01800854099, 9, 2, 4,15,156554.22484006523, 9, 7,20,15
170,5241013.419656067,348.4159749238097, 9, 2, 4,15,17476.39704006126, 9, 7,12,15
207,6509451.13922267,815.2532113832032, 9, 2, 3,15,22990.642799023623, 9, 7,10,15
244,12749673.399825225,1521.856143006317, 9, 2, 4,15,53038.631142310165, 9, 7,20,15
281,46165882.481495745,59938.60262432081, 9, 2, 5,15,81951.81706819107, 9, 2,19,15
318,0.0,0.0, 9, 2, 1,15,0.0, 9, 2, 1,15
355,197687796.27748066,18561.32405820678, 9, 2, 4,15,724774.895203776, 9, 7,18,15
403,197687796.27748066,18561.32405820678, 9, 2, 4,15,724774.895203776, 9, 7,18,15
476,106772067.24485716,7098.072629279515, 9, 2, 4,15,356036.3026282215, 9, 7,12,15
513,0.0,0.0, 9, 2, 1,15,0.0, 9, 2, 1,15
562,66161361.666443124,22687.186476601368, 9, 3, 4,60,139707.48303723815, 9, 2,16,60
1046,0.0,0.0, 9, 2, 1,15,0.0, 9, 2, 1,15
1096,696833606.2702763,207985.8823855119, 9, 3, 4,60,1677234.0250138026, 9, 7,15,60
1134,0.0,0.0, 9, 2, 1,15,0.0, 9, 2, 1,15
1326,226082174.72063717,0.0, 9, 2, 1,15,4050000.0, 9, 2, 9,60
1379,0.0,0.0, 9, 2, 1,15,0.0, 9, 2, 1,15
1,ANNUAL,  32.54, -93.75,  -6.00,  55.00
5,365
1038,0.75,0.0, 1, 1, 1,15,0.25, 2, 2, 6,15
1039,959.5,0.0, 1, 1, 1,15,0.25, 3,10,13,45
581,0.1877813272206475,0.0, 5,10,23, 3,1.0853231520245756, 3,19,13,60
582,3.108196354440733,0.0, 1, 1, 4, 5,22.500995677899724, 2, 1, 9,46
583,0.030393150422359915,0.0, 5,10,23, 3,0.09408249835724318, 7, 2,15,46
1115,4424409157.388885,0.0, 1, 1, 1,15,4357276.33593663, 2, 3, 6,45
1128,1419906784.017948,0.0, 1, 1, 1,15,1405149.091686653, 2, 3, 6,45
1153,66280480.124590494,0.0, 1, 1, 1,15,93893.61928832238, 1,30, 6,60
1154,919544196.3753465,0.0, 1, 1, 1,15,180000.0, 1, 4,20,30
1155,160519174.69377154,0.0, 1, 1, 1,15,2726623.5482640313, 2, 2, 6,45
1156,160519174.69377154,0.0, 1, 1, 1,15,2726623.5482640313, 2, 2, 6,45
1292,-1167793132.9893785,-39792.00615258363, 1,11, 3,15,-1911.192998361762, 5, 5, 9,60
1306,13776867744.37128,0.0, 1, 1, 1,15,4050000.0, 1, 1,21,15
1307,4581985044.698146,0.0, 1, 1, 1,15,13648476.22345887, 2,10, 9,60
1308,13776867744.37128,0.0, 1, 1, 1,15,4050000.0, 1, 1,21,15
13,55012384717.82502,151703.1275401932, 1, 2, 4,15,7128018.291791254, 7,29,21,45
61,15743207428.383959,88139.10953165221, 1, 1, 1,15,1282023.4113694867, 1, 1,20,15
134,3685071073.4325233,63564.01800854099, 1, 2, 4,15,156554.22484006523, 1, 1,20,15
170,273393721.45532674,348.4159749238097, 1, 2, 4,15,17476.39704006126, 1, 1,12,15
207,339560869.0695816,815.2532113832032, 1, 2, 3,15,22990.642799023623, 1, 1,10,15
244,664895467.8009144,1521.856143006317, 1, 2, 4,15,53038.631142310165, 1, 1,20,15
281,2407221015.106824,59938.60262432081, 1, 1, 5,15,81951.81706819107, 1, 1,19,15
318,0.0,0.0, 1, 1, 1,15,0.0, 1, 1, 1,15
355,10310294493.051695,18561.32405820678, 1, 2, 4,15,724774.895203776, 1, 1,18,15
403,10310294493.051695,18561.32405820678, 1, 2, 4,15,724774.895203776, 1, 1,18,15
476,5569688622.066177,7098.072629279515, 1, 2, 4,15,356036.3026282215, 1, 1,12,15
513,0.0,0.0, 1, 1, 1,15,0.0, 1, 1, 1,15
562,1964849540.9232543,0.0, 1, 1, 1,15,139707.48303723815, 5,10,19,45
1046,0.0,0.0, 1, 1, 1,15,0.0, 1, 1, 1,15
1096,17276138295.50058,0.0, 1, 1, 1,15,1723701.6715355944, 7,30,17,60
1134,2566250635.21166,0.0, 1, 1, 1,15,4660564.6029033195, 2, 2, 6,15
1326,13776867744.37127,0.0, 1, 1, 1,15,4050000.0000000014, 3, 7,10,60
1379,0.0,0.0, 1, 1, 1,15,0.0, 1, 1, 1,15
End of Data
 Number of Records Written=          99
