Program Version,EnergyPlus, Version 22.2.0-c249759bad, YMD=2023.09.01 20:28
1,5,Environment Title[],Latitude[deg],Longitude[deg],Time Zone[],Elevation[m]
2,8,Day of Simulation[],Month[],Day of Month[],DST Indicator[1=yes 0=no],Hour[],StartMinute[],EndMinute[],DayType
3,5,Cumulative Day of Simulation[],Month[],Day of Month[],DST Indicator[1=yes 0=no],DayType  ! When Daily Report Variables Requested
4,2,Cumulative Days of Simulation[],Month[]  ! When Monthly Report Variables Requested
5,1,Cumulative Days of Simulation[] ! When Run Period Report Variables Requested
6,1,Calendar Year of Simulation[] ! When Annual Report Variables Requested
581,11,LIVING,AFN Zone Infiltration Air Change Rate [ach] !RunPeriod [Value,Min,Month,Day,Hour,Minute,Max,Month,Day,Hour,Minute]
582,11,ATTIC,AFN Zone Infiltration Air Change Rate [ach] !RunPeriod [Value,Min,Month,Day,Hour,Minute,Max,Month,Day,Hour,Minute]
583,11,CRAWLSPACE,AFN Zone Infiltration Air Change Rate [ach] !RunPeriod [Value,Min,Month,Day,Hour,Minute,Max,Month,Day,Hour,Minute]
1038,11,Facility,Facility Heating Setpoint Not Met Time [hr] !RunPeriod [Value,Min,Month,Day,Hour,Minute,Max,Month,Day,Hour,Minute]
1039,11,Facility,Facility Cooling Setpoint Not Met Time [hr] !RunPeriod [Value,Min,Month,Day,Hour,Minute,Max,Month,Day,Hour,Minute]
1115,11,DX_HEATING_COIL,Heating Coil Heating Energy [J] !RunPeriod [Value,Min,Month,Day,Hour,Minute,Max,Month,Day,Hour,Minute]
1128,11,DX_HEATING_COIL,Heating Coil Electricity Energy [J] !RunPeriod [Value,Min,Month,Day,Hour,Minute,Max,Month,Day,Hour,Minute]
1153,11,DX_HEATING_COIL,Heating Coil Defrost Electricity Energy [J] !RunPeriod [Value,Min,Month,Day,Hour,Minute,Max,Month,Day,Hour,Minute]
1154,11,DX_HEATING_COIL,Heating Coil Crankcase Heater Electricity Energy [J] !RunPeriod [Value,Min,Month,Day,Hour,Minute,Max,Month,Day,Hour,Minute]
1155,11,HEATING_RESISTANCE_BACKUP,Heating Coil Heating Energy [J] !RunPeriod [Value,Min,Month,Day,Hour,Minute,Max,Month,Day,Hour,Minute]
1156,11,HEATING_RESISTANCE_BACKUP,Heating Coil Electricity Energy [J] !RunPeriod [Value,Min,Month,Day,Hour,Minute,Max,Month,Day,Hour,Minute]
1292,11,WATER HEATER,Water Heater Heat Loss Energy [J] !RunPeriod [Value,Min,Month,Day,Hour,Minute,Max,Month,Day,Hour,Minute]
1306,11,WATER HEATER,Water Heater Heating Energy [J] !RunPeriod [Value,Min,Month,Day,Hour,Minute,Max,Month,Day,Hour,Minute]
1307,11,WATER HEATER,Water Heater Unmet Demand Heat Transfer Energy [J] !RunPeriod [Value,Min,Month,Day,Hour,Minute,Max,Month,Day,Hour,Minute]
1308,11,WATER HEATER,Water Heater Electricity Energy [J] !RunPeriod [Value,Min,Month,Day,Hour,Minute,Max,Month,Day,Hour,Minute]
13,11,Electricity:Facility [J] !RunPeriod [Value,Min,Month,Day,Hour,Minute,Max,Month,Day,Hour,Minute]
1134,11,Heating:Electricity [J] !RunPeriod [Value,Min,Month,Day,Hour,Minute,Max,Month,Day,Hour,Minute]
1096,11,Cooling:Electricity [J] !RunPeriod [Value,Min,Month,Day,Hour,Minute,Max,Month,Day,Hour,Minute]
562,11,Fans:Electricity [J] !RunPeriod [Value,Min,Month,Day,Hour,Minute,Max,Month,Day,Hour,Minute]
1379,11,Pumps:Electricity [J] !RunPeriod [Value,Min,Month,Day,Hour,Minute,Max,Month,Day,Hour,Minute]
1326,11,WaterSystems:Electricity [J] !RunPeriod [Value,Min,Month,Day,Hour,Minute,Max,Month,Day,Hour,Minute]
61,11,InteriorLights:Electricity [J] !RunPeriod [Value,Min,Month,Day,Hour,Minute,Max,Month,Day,Hour,Minute]
1046,11,ExteriorLights:Electricity [J] !RunPeriod [Value,Min,Month,Day,Hour,Minute,Max,Month,Day,Hour,Minute]
134,11,InteriorEquipment:Electricity [J] !RunPeriod [Value,Min,Month,Day,Hour,Minute,Max,Month,Day,Hour,Minute]
170,11,gas_dryer:InteriorEquipment:Electricity [J] !RunPeriod [Value,Min,Month,Day,Hour,Minute,Max,Month,Day,Hour,Minute]
207,11,clotheswasher:InteriorEquipment:Electricity [J] !RunPeriod [Value,Min,Month,Day,Hour,Minute,Max,Month,Day,Hour,Minute]
244,11,dishwasher:InteriorEquipment:Electricity [J] !RunPeriod [Value,Min,Month,Day,Hour,Minute,Max,Month,Day,Hour,Minute]
281,11,refrigerator:InteriorEquipment:Electricity [J] !RunPeriod [Value,Min,Month,Day,Hour,Minute,Max,Month,Day,Hour,Minute]
318,11,electric_mels:InteriorEquipment:Electricity [J] !RunPeriod [Value,Min,Month,Day,Hour,Minute,Max,Month,Day,Hour,Minute]
355,11,NaturalGas:Facility [J] !RunPeriod [Value,Min,Month,Day,Hour,Minute,Max,Month,Day,Hour,Minute]
403,11,InteriorEquipment:NaturalGas [J] !RunPeriod [Value,Min,Month,Day,Hour,Minute,Max,Month,Day,Hour,Minute]
476,11,gas_dryer:InteriorEquipment:NaturalGas [J] !RunPeriod [Value,Min,Month,Day,Hour,Minute,Max,Month,Day,Hour,Minute]
513,11,gas_mels:InteriorEquipment:NaturalGas [J] !RunPeriod [Value,Min,Month,Day,Hour,Minute,Max,Month,Day,Hour,Minute]
End of Data Dictionary
1,EXTREME_WINTER,  40.65, -73.78,  -5.00,   3.40
5,7
1038,0.5,0.0, 1, 6, 1,15,0.25, 1, 8, 6,15
1039,0.0,0.0, 1, 6, 1,15,0.0, 1, 6, 1,15
581,0.48609665717083045,0.21587106226768416, 1,12,19,30,1.3151372007623905, 1, 7,19,52
582,9.281897962338816,0.3103584815890928, 1,12,17,60,26.296547126502816, 1, 7,19,52
583,0.05524129157379849,0.0025361781092230118, 1,11,23,22,0.08811474599542043, 1, 7,18,60
1115,1939865355.8885534,0.0, 1, 6,23, 5,3871924.155830771, 1, 9, 5,60
1128,650809228.9981809,0.0, 1, 6,23, 5,1214459.1302900559, 1, 9, 6,45
1153,5521918.067175774,0.0, 1, 6,23, 5,69642.85955465099, 1,12,11,60
1154,20406959.213694938,0.0, 1, 6, 1, 7,168826.99679898613, 1,10,16,15
1155,857399272.4188522,0.0, 1, 6,13,52,6419424.0262836665, 1, 7,24,60
1156,857399272.4188522,0.0, 1, 6,13,52,6419424.0262836665, 1, 7,24,60
1292,-25433742.57282987,-39741.430249474935, 1,10, 5,30,-6381.163514775301, 1, 6,14,60
1306,185192618.3086436,0.0, 1, 6, 1, 7,4050000.0, 1, 6, 8,45
1307,36380781.737532206,0.0, 1, 6, 1, 7,9582653.702896474, 1, 9,10,30
1308,185192618.3086436,0.0, 1, 6, 1, 7,4050000.0, 1, 6, 8,45
13,2157564431.523982,577306.1689669092, 1,10,15,60,10809166.300948855, 1, 7,20,45
61,301924526.02383536,88139.10953165221, 1, 6, 1,15,1282023.4113694867, 1, 6,20,15
134,70666020.44019976,63564.01800854099, 1, 6, 4,15,156554.22484006523, 1,11,20,15
170,5241013.419656067,348.4159749238097, 1, 6, 4,15,17476.39704006126, 1,11,12,15
207,6509451.13922267,815.2532113832032, 1, 6, 3,15,22990.642799023623, 1,11,10,15
244,12749673.399825225,1521.856143006317, 1, 6, 4,15,53038.631142310165, 1,11,20,15
281,46165882.481495745,59938.60262432081, 1, 6, 5,15,81951.81706819107, 1, 6,19,15
318,0.0,0.0, 1, 6, 1,15,0.0, 1, 6, 1,15
355,197687796.27748066,18561.32405820678, 1, 6, 4,15,724774.895203776, 1,11,18,15
403,197687796.27748066,18561.32405820678, 1, 6, 4,15,724774.895203776, 1,11,18,15
476,106772067.24485716,7098.072629279515, 1, 6, 4,15,356036.3026282215, 1,11,12,15
513,0.0,0.0, 1, 6, 1,15,0.0, 1, 6, 1,15
562,65643888.0533978,7199.494192181542, 1,11,23,15,117591.93361162618, 1, 6, 1,15
1046,0.0,0.0, 1, 6, 1,15,0.0, 1, 6, 1,15
1096,0.0,0.0, 1, 6, 1,15,0.0, 1, 6, 1,15
1134,1534137378.6979043,242804.01872013978, 1,10,16,15,7510595.343774742, 1, 7,24,60
1326,185192618.3086436,0.0, 1, 6, 1,15,4050000.0, 1, 6, 8,45
1379,0.0,0.0, 1, 6, 1,15,0.0, 1, 6, 1,15
1,EXTREME_SUMMER,  40.65, -73.78,  -5.00,   3.40
5,7
1038,0.0,0.0, 6,29, 1,15,0.0, 6,29, 1,15
1039,30.5,0.0, 6,29, 1,15,0.25, 6,29,17,15
581,0.24834650911131537,0.0, 7, 5,19,52,0.6463221460547992, 7, 1,16,48
582,5.813028768061009,0.07898942636421968, 7, 5,20,22,14.131121568696924, 7, 2,18,20
583,0.03727931853747516,0.0014142579307829478, 7, 2,23, 3,0.06811687853002302, 7, 1,16,48
1115,0.0,0.0, 6,29, 1,15,0.0, 6,29, 1,15
1128,0.0,0.0, 6,29, 1,15,0.0, 6,29, 1,15
1153,0.0,0.0, 6,29, 1,15,0.0, 6,29, 1,15
1154,0.0,0.0, 6,29, 1,15,0.0, 6,29, 1,15
1155,0.0,0.0, 6,29, 1,15,0.0, 6,29, 1,15
1156,0.0,0.0, 6,29, 1,15,0.0, 6,29, 1,15
1292,-22010524.642112453,-34334.72222693631, 7, 3,13,60,-2902.138928406304, 7, 4,10,31
1306,140347012.56836712,0.0, 6,29, 1,15,2809015.025733154, 7, 2,19,30
1307,19507126.56950248,0.0, 6,29, 1,15,1509328.630502892, 7, 2,10,18
1308,140347012.56836712,0.0, 6,29, 1,15,2809015.025733154, 7, 2,19,30
13,1038939304.189782,151703.1275401932, 6,30, 4,15,6697097.303099146, 7, 5,20,60
61,301924526.02383536,88139.10953165221, 6,29, 1,15,1282023.4113694867, 6,29,20,15
134,70666020.44019976,63564.01800854099, 6,29, 4,15,156554.22484006523, 7, 4,20,15
170,5241013.419656067,348.4159749238097, 6,29, 4,15,17476.39704006126, 7, 4,12,15
207,6509451.13922267,815.2532113832032, 6,29, 3,15,22990.642799023623, 7, 4,10,15
244,12749673.399825225,1521.856143006317, 6,29, 4,15,53038.631142310165, 7, 4,20,15
281,46165882.481495745,59938.60262432081, 6,29, 5,15,81951.81706819107, 6,29,19,15
318,0.0,0.0, 6,29, 1,15,0.0, 6,29, 1,15
355,197687796.27748066,18561.32405820678, 6,29, 4,15,724774.895203776, 7, 4,18,15
403,197687796.27748066,18561.32405820678, 6,29, 4,15,724774.895203776, 7, 4,18,15
476,106772067.24485716,7098.072629279515, 6,29, 4,15,356036.3026282215, 7, 4,12,15
513,0.0,0.0, 6,29, 1,15,0.0, 6,29, 1,15
562,48950317.88506295,0.0, 6,30, 4,15,117591.93361162618, 6,29,15,45
1046,0.0,0.0, 6,29, 1,15,0.0, 6,29, 1,15
1096,477051427.27231723,0.0, 6,30, 4,15,1283966.6157144, 7, 2,18,60
1134,0.0,0.0, 6,29, 1,15,0.0, 6,29, 1,15
1326,140347012.5683671,0.0, 6,29, 1,15,4050000.0, 6,29, 8,45
1379,0.0,0.0, 6,29, 1,15,0.0, 6,29, 1,15
1,ANNUAL,  40.65, -73.78,  -5.00,   3.40
5,365
1038,25.0,0.0, 1, 1, 1,15,0.25, 1, 2, 6,15
1039,477.75,0.0, 1, 1, 1,15,0.25, 4,27,11,15
581,0.3272101849717274,0.0, 5,30,23, 3,1.3809892598309907, 3, 2,14,60
582,6.341166812829887,0.0, 1, 4, 3,60,34.08970574205102, 2,12,15,60
583,0.026437697534908787,0.0, 5,30,23, 3,0.09360518397827916, 3, 2,14,60
1115,24877380642.59226,0.0, 1, 1,15,30,4367516.3844614485, 3,12, 6,15
1128,7626809332.999156,0.0, 1, 1,15,30,1251217.1554288361,11,20, 7,30
1153,113414942.5926714,0.0, 1, 1,15,30,101529.41160147032,10,29,18,60
1154,1426484849.1000535,0.0, 1, 1, 6, 5,180000.0, 1, 1,15,30
1155,4017092043.799695,0.0, 1, 1, 1, 7,6419424.0262836665, 1, 7,24,60
1156,4017092043.799695,0.0, 1, 1, 1, 7,6419424.0262836665, 1, 7,24,60
1292,-1228049823.4554634,-39999.19679652321, 1,31, 8,30,-2304.650508021532,10, 7,10,31
1306,8459550861.535854,0.0, 1, 1, 1, 7,4050000.0, 1, 2, 8,45
1307,1425250966.4399283,0.0, 1, 1, 1, 7,9804420.405364659, 1,26,10,30
1308,8459550861.535854,0.0, 1, 1, 1, 7,4050000.0, 1, 2, 8,45
13,50823503518.448944,151703.1275401932, 4,14, 4,15,12137612.540393438, 1, 7,19,30
61,15743207428.383959,88139.10953165221, 1, 1, 1,15,1282023.4113694867, 1, 1,20,15
134,3685071073.4325233,63564.01800854099, 1, 2, 4,15,156554.22484006523, 1, 1,20,15
170,273393721.45532674,348.4159749238097, 1, 2, 4,15,17476.39704006126, 1, 1,12,15
207,339560869.0695816,815.2532113832032, 1, 2, 3,15,22990.642799023623, 1, 1,10,15
244,664895467.8009144,1521.856143006317, 1, 2, 4,15,53038.631142310165, 1, 1,20,15
281,2407221015.106824,59938.60262432081, 1, 1, 5,15,81951.81706819107, 1, 1,19,15
318,0.0,0.0, 1, 1, 1,15,0.0, 1, 1, 1,15
355,10310294493.051695,18561.32405820678, 1, 2, 4,15,724774.895203776, 1, 1,18,15
403,10310294493.051695,18561.32405820678, 1, 2, 4,15,724774.895203776, 1, 1,18,15
476,5569688622.066177,7098.072629279515, 1, 2, 4,15,356036.3026282215, 1, 1,12,15
513,0.0,0.0, 1, 1, 1,15,0.0, 1, 1, 1,15
562,1627815134.5532327,0.0, 1, 1,15,30,117591.93361162618, 1, 1, 6,30
1046,0.0,0.0, 1, 1, 1,15,0.0, 1, 1, 1,15
1096,8124057852.050201,0.0, 1, 1, 1,15,1405708.6625967696, 7, 8,14,60
1134,13183801168.491554,0.0, 1, 4,19,15,7548827.520023784, 1,31, 7,15
1326,8459550861.535862,0.0, 1, 1, 1,15,4050000.0000000014,10, 7,10,45
1379,0.0,0.0, 1, 1, 1,15,0.0, 1, 1, 1,15
End of Data
 Number of Records Written=          99
