Program Version,EnergyPlus, Version 22.2.0-c249759bad, YMD=2023.08.31 13:10
1,5,Environment Title[],Latitude[deg],Longitude[deg],Time Zone[],Elevation[m]
2,8,Day of Simulation[],Month[],Day of Month[],DST Indicator[1=yes 0=no],Hour[],StartMinute[],EndMinute[],DayType
3,5,Cumulative Day of Simulation[],Month[],Day of Month[],DST Indicator[1=yes 0=no],DayType  ! When Daily Report Variables Requested
4,2,Cumulative Days of Simulation[],Month[]  ! When Monthly Report Variables Requested
5,1,Cumulative Days of Simulation[] ! When Run Period Report Variables Requested
6,1,Calendar Year of Simulation[] ! When Annual Report Variables Requested
618,11,DX_HEATING_COIL,Heating Coil Heating Energy [J] !RunPeriod [Value,Min,Month,Day,Hour,Minute,Max,Month,Day,Hour,Minute]
631,11,DX_HEATING_COIL,Heating Coil Electricity Energy [J] !RunPeriod [Value,Min,Month,Day,Hour,Minute,Max,Month,Day,Hour,Minute]
656,11,DX_HEATING_COIL,Heating Coil Defrost Electricity Energy [J] !RunPeriod [Value,Min,Month,Day,Hour,Minute,Max,Month,Day,Hour,Minute]
657,11,DX_HEATING_COIL,Heating Coil Crankcase Heater Electricity Energy [J] !RunPeriod [Value,Min,Month,Day,Hour,Minute,Max,Month,Day,Hour,Minute]
684,11,HEAT PUMP WATER HEATER EVAPORATOR,Cooling Coil Total Water Heating Energy [J] !RunPeriod [Value,Min,Month,Day,Hour,Minute,Max,Month,Day,Hour,Minute]
685,11,HEAT PUMP WATER HEATER EVAPORATOR,Cooling Coil Water Heating Electricity Energy [J] !RunPeriod [Value,Min,Month,Day,Hour,Minute,Max,Month,Day,Hour,Minute]
712,11,LIVING,AFN Zone Infiltration Air Change Rate [ach] !RunPeriod [Value,Min,Month,Day,Hour,Minute,Max,Month,Day,Hour,Minute]
713,11,ATTIC,AFN Zone Infiltration Air Change Rate [ach] !RunPeriod [Value,Min,Month,Day,Hour,Minute,Max,Month,Day,Hour,Minute]
714,11,CRAWLSPACE,AFN Zone Infiltration Air Change Rate [ach] !RunPeriod [Value,Min,Month,Day,Hour,Minute,Max,Month,Day,Hour,Minute]
1157,11,Facility,Facility Heating Setpoint Not Met Time [hr] !RunPeriod [Value,Min,Month,Day,Hour,Minute,Max,Month,Day,Hour,Minute]
1158,11,Facility,Facility Cooling Setpoint Not Met Time [hr] !RunPeriod [Value,Min,Month,Day,Hour,Minute,Max,Month,Day,Hour,Minute]
1184,11,HEATING_RESISTANCE_BACKUP,Heating Coil Heating Energy [J] !RunPeriod [Value,Min,Month,Day,Hour,Minute,Max,Month,Day,Hour,Minute]
1185,11,HEATING_RESISTANCE_BACKUP,Heating Coil Electricity Energy [J] !RunPeriod [Value,Min,Month,Day,Hour,Minute,Max,Month,Day,Hour,Minute]
1334,11,WATER HEATER TANK,Water Heater Heating Energy [J] !RunPeriod [Value,Min,Month,Day,Hour,Minute,Max,Month,Day,Hour,Minute]
13,11,Electricity:Facility [J] !RunPeriod [Value,Min,Month,Day,Hour,Minute,Max,Month,Day,Hour,Minute]
637,11,Heating:Electricity [J] !RunPeriod [Value,Min,Month,Day,Hour,Minute,Max,Month,Day,Hour,Minute]
599,11,Cooling:Electricity [J] !RunPeriod [Value,Min,Month,Day,Hour,Minute,Max,Month,Day,Hour,Minute]
692,11,Fans:Electricity [J] !RunPeriod [Value,Min,Month,Day,Hour,Minute,Max,Month,Day,Hour,Minute]
1372,11,Pumps:Electricity [J] !RunPeriod [Value,Min,Month,Day,Hour,Minute,Max,Month,Day,Hour,Minute]
677,11,WaterSystems:Electricity [J] !RunPeriod [Value,Min,Month,Day,Hour,Minute,Max,Month,Day,Hour,Minute]
61,11,InteriorLights:Electricity [J] !RunPeriod [Value,Min,Month,Day,Hour,Minute,Max,Month,Day,Hour,Minute]
1165,11,ExteriorLights:Electricity [J] !RunPeriod [Value,Min,Month,Day,Hour,Minute,Max,Month,Day,Hour,Minute]
134,11,InteriorEquipment:Electricity [J] !RunPeriod [Value,Min,Month,Day,Hour,Minute,Max,Month,Day,Hour,Minute]
170,11,gas_dryer:InteriorEquipment:Electricity [J] !RunPeriod [Value,Min,Month,Day,Hour,Minute,Max,Month,Day,Hour,Minute]
207,11,clotheswasher:InteriorEquipment:Electricity [J] !RunPeriod [Value,Min,Month,Day,Hour,Minute,Max,Month,Day,Hour,Minute]
244,11,dishwasher:InteriorEquipment:Electricity [J] !RunPeriod [Value,Min,Month,Day,Hour,Minute,Max,Month,Day,Hour,Minute]
281,11,refrigerator:InteriorEquipment:Electricity [J] !RunPeriod [Value,Min,Month,Day,Hour,Minute,Max,Month,Day,Hour,Minute]
318,11,electric_mels:InteriorEquipment:Electricity [J] !RunPeriod [Value,Min,Month,Day,Hour,Minute,Max,Month,Day,Hour,Minute]
355,11,NaturalGas:Facility [J] !RunPeriod [Value,Min,Month,Day,Hour,Minute,Max,Month,Day,Hour,Minute]
403,11,InteriorEquipment:NaturalGas [J] !RunPeriod [Value,Min,Month,Day,Hour,Minute,Max,Month,Day,Hour,Minute]
476,11,gas_dryer:InteriorEquipment:NaturalGas [J] !RunPeriod [Value,Min,Month,Day,Hour,Minute,Max,Month,Day,Hour,Minute]
513,11,gas_mels:InteriorEquipment:NaturalGas [J] !RunPeriod [Value,Min,Month,Day,Hour,Minute,Max,Month,Day,Hour,Minute]
End of Data Dictionary
1,EXTREME_WINTER,  46.84, -92.18,  -6.00, 432.00
5,7
1157,52.25,0.0, 1,20, 1,15,0.25, 1,20, 6,15
1158,0.0,0.0, 1,20, 1,15,0.0, 1,20, 1,15
618,1725786960.345295,0.0, 1,22,23, 3,3664191.517327063, 1,26,18,60
631,726089262.1030247,0.0, 1,22,23, 3,1232515.9249310624, 1,26,20,60
656,2496378.2781935977,0.0, 1,22,23, 3,23145.72029239709, 1,25, 8,60
657,105000.0,0.0, 1,20, 1, 1,60000.0, 1,26,23, 5
684,410098321.81757253,0.0, 1,20, 1, 1,1371295.3107175692, 1,26,21,45
685,94274805.90591848,0.0, 1,20, 1, 1,331266.6797200683, 1,25,13,45
712,0.42992660369002667,0.29099969120783964, 1,26,23,15,0.8020232695052173, 1,23,15,50
713,5.393753231031572,0.2997934942186767, 1,26, 9,15,16.066837810128465, 1,21,14,50
714,6.702464874429632,0.6673063957019906, 1,24,10,48,19.137169999650222, 1,23,15,50
1184,4402006697.024598,0.0, 1,22,23, 3,8352355.25927252, 1,20, 8,30
1185,4402006697.024598,0.0, 1,22,23, 3,8352355.25927252, 1,20, 8,30
1334,13092702.550723094,0.0, 1,20, 1, 1,2025000.0, 1,21,11, 7
13,5734112028.808576,3942658.2032819637, 1,26,16,60,13820017.309572319, 1,24,10,15
61,301924526.02383536,88139.10953165221, 1,20, 1,15,1282023.4113694867, 1,20,20,15
134,70666020.44019976,63564.01800854099, 1,20, 4,15,156554.22484006523, 1,25,20,15
170,5241013.419656067,348.4159749238097, 1,20, 4,15,17476.39704006126, 1,25,12,15
207,6509451.13922267,815.2532113832032, 1,20, 3,15,22990.642799023623, 1,25,10,15
244,12749673.399825225,1521.856143006317, 1,20, 4,15,53038.631142310165, 1,25,20,15
281,46165882.481495745,59938.60262432081, 1,20, 5,15,81951.81706819107, 1,20,19,15
318,0.0,0.0, 1,20, 1,15,0.0, 1,20, 1,15
355,197687796.27748066,18561.32405820678, 1,20, 4,15,724774.895203776, 1,25,18,15
403,197687796.27748066,18561.32405820678, 1,20, 4,15,724774.895203776, 1,25,18,15
476,106772067.24485716,7098.072629279515, 1,20, 4,15,356036.3026282215, 1,25,12,15
513,0.0,0.0, 1,20, 1,15,0.0, 1,20, 1,15
599,0.0,0.0, 1,20, 1,15,0.0, 1,20, 1,15
637,5130697337.405807,3076115.629802497, 1,26,23,15,9448639.302518396, 1,24,13,15
677,112508308.45664169,7650.0, 1,20, 1,15,4057650.0, 1,21,11,15
692,118315836.48208252,102435.37924083328, 1,22,23,15,213476.50565444445, 1,20,11,60
1165,0.0,0.0, 1,20, 1,15,0.0, 1,20, 1,15
1372,0.0,0.0, 1,20, 1,15,0.0, 1,20, 1,15
1,EXTREME_SUMMER,  46.84, -92.18,  -6.00, 432.00
5,7
1157,0.0,0.0, 7,13, 1,15,0.0, 7,13, 1,15
1158,22.5,0.0, 7,13, 1,15,0.25, 7,16,14,30
618,0.0,0.0, 7,13, 1,15,0.0, 7,13, 1,15
631,0.0,0.0, 7,13, 1,15,0.0, 7,13, 1,15
656,0.0,0.0, 7,13, 1,15,0.0, 7,13, 1,15
657,0.0,0.0, 7,13, 1,15,0.0, 7,13, 1,15
684,358452064.3812272,0.0, 7,13, 1,15,1840107.053794011, 7,14,11,60
685,66772113.82541465,0.0, 7,13, 1,15,383050.2464620666, 7,18,23,60
712,0.16616183531889395,0.0, 7,14,21,45,0.49066949194322573, 7,18,17,52
713,4.75104213049954,0.0, 7,15, 6, 3,15.18011691211438, 7,18,16,52
714,5.263693445183172,0.0, 7,14,23, 5,17.537138449135437, 7,18,16,52
1184,0.0,0.0, 7,13, 1,15,0.0, 7,13, 1,15
1185,0.0,0.0, 7,13, 1,15,0.0, 7,13, 1,15
1334,0.0,0.0, 7,13, 1,15,0.0, 7,13, 1,15
13,876171059.0875651,159353.1275401932, 7,16, 4,15,3368988.5507107773, 7,16,20,15
61,301924526.02383536,88139.10953165221, 7,13, 1,15,1282023.4113694867, 7,13,20,15
134,70666020.44019976,63564.01800854099, 7,13, 4,15,156554.22484006523, 7,18,20,15
170,5241013.419656067,348.4159749238097, 7,13, 4,15,17476.39704006126, 7,18,12,15
207,6509451.13922267,815.2532113832032, 7,13, 3,15,22990.642799023623, 7,18,10,15
244,12749673.399825225,1521.856143006317, 7,13, 4,15,53038.631142310165, 7,18,20,15
281,46165882.481495745,59938.60262432081, 7,13, 5,15,81951.81706819107, 7,13,19,15
318,0.0,0.0, 7,13, 1,15,0.0, 7,13, 1,15
355,197687796.27748066,18561.32405820678, 7,13, 4,15,724774.895203776, 7,18,18,15
403,197687796.27748066,18561.32405820678, 7,13, 4,15,724774.895203776, 7,18,18,15
476,106772067.24485716,7098.072629279515, 7,13, 4,15,356036.3026282215, 7,18,12,15
513,0.0,0.0, 7,13, 1,15,0.0, 7,13, 1,15
599,375701309.0395731,0.0, 7,13,23,15,1479783.5738440922, 7,18,15,30
637,0.0,0.0, 7,13, 1,15,0.0, 7,13, 1,15
677,71912913.82541464,7650.0, 7,13, 1,15,390956.45368018653, 7,16,23,45
692,55966289.758542955,0.0, 7,16, 4,15,213476.50565444442, 7,16,20,15
1165,0.0,0.0, 7,13, 1,15,0.0, 7,13, 1,15
1372,0.0,0.0, 7,13, 1,15,0.0, 7,13, 1,15
1,ANNUAL,  46.84, -92.18,  -6.00, 432.00
5,365
1157,150.0,0.0, 1, 1, 1,15,0.25, 1,11,16,45
1158,63.25,0.0, 1, 1, 1,15,0.25, 6,20,14,45
618,54041782981.875404,0.0, 1, 1,23, 5,4950290.3379421085,12, 7, 6,45
631,17376432074.74315,0.0, 1, 1,23, 5,1371584.1247205883, 3,14,11,60
656,557649385.843247,0.0, 1, 1,23, 5,149569.08460395216,12, 4, 6,45
657,1366231242.7720485,0.0, 1, 1, 1, 1,180000.0, 2, 8,15,30
684,20134950655.75355,0.0, 1, 1, 1, 1,1916432.92525652,10,14, 9,45
685,4116316511.509849,0.0, 1, 1, 1, 1,387391.06499069143, 7,18,14,15
712,0.293603580831749,0.0, 7, 6,17,52,1.3261203041510865, 3, 1,20,60
713,5.4898982082418115,0.0, 1, 4,22,52,38.85466389749165, 3, 1,20,60
714,6.052922257374802,0.0, 7,14,23, 3,36.16631220378071, 3, 1,20,60
1184,30590718806.79869,0.0, 1, 1,23, 5,8352355.25927252, 1,20, 6,15
1185,30590718806.79869,0.0, 1, 1,23, 5,8352355.25927252, 1,20, 6,15
1334,304685820.01912725,0.0, 1, 1, 1, 1,4050000.000000001, 1,17,11,15
13,80932574787.81264,159353.1275401932, 5,24, 4,30,14107376.087723196,12,22,10,15
61,15743207428.383959,88139.10953165221, 1, 1, 1,15,1282023.4113694867, 1, 1,20,15
134,3685071073.4325233,63564.01800854099, 1, 2, 4,15,156554.22484006523, 1, 1,20,15
170,273393721.45532674,348.4159749238097, 1, 2, 4,15,17476.39704006126, 1, 1,12,15
207,339560869.0695816,815.2532113832032, 1, 2, 3,15,22990.642799023623, 1, 1,10,15
244,664895467.8009144,1521.856143006317, 1, 2, 4,15,53038.631142310165, 1, 1,20,15
281,2407221015.106824,59938.60262432081, 1, 1, 5,15,81951.81706819107, 1, 1,19,15
318,0.0,0.0, 1, 1, 1,15,0.0, 1, 1, 1,15
355,10310294493.051695,18561.32405820678, 1, 2, 4,15,724774.895203776, 1, 1,18,15
403,10310294493.051695,18561.32405820678, 1, 2, 4,15,724774.895203776, 1, 1,18,15
476,5569688622.066177,7098.072629279515, 1, 2, 4,15,356036.3026282215, 1, 1,12,15
513,0.0,0.0, 1, 1, 1,15,0.0, 1, 1, 1,15
599,3511475656.579014,0.0, 1, 1, 1,15,1480508.1296388395, 7,18,15,60
637,49891031510.15665,0.0, 3,12,16,60,9502798.084558178,12,22,10,45
677,4689058331.528955,7650.0, 1, 1, 1,30,4253667.374687339, 2,17,10,15
692,3412730787.7297735,0.0, 2, 8,15,15,213476.50565444445, 1, 5,11,60
1165,0.0,0.0, 1, 1, 1,15,0.0, 1, 1, 1,15
1372,0.0,0.0, 1, 1, 1,15,0.0, 1, 1, 1,15
End of Data
 Number of Records Written=          96
