Program Version,EnergyPlus, Version 22.2.0-c249759bad, YMD=2023.09.01 14:31
1,5,Environment Title[],Latitude[deg],Longitude[deg],Time Zone[],Elevation[m]
2,8,Day of Simulation[],Month[],Day of Month[],DST Indicator[1=yes 0=no],Hour[],StartMinute[],EndMinute[],DayType
3,5,Cumulative Day of Simulation[],Month[],Day of Month[],DST Indicator[1=yes 0=no],DayType  ! When Daily Report Variables Requested
4,2,Cumulative Days of Simulation[],Month[]  ! When Monthly Report Variables Requested
5,1,Cumulative Days of Simulation[] ! When Run Period Report Variables Requested
6,1,Calendar Year of Simulation[] ! When Annual Report Variables Requested
7,1,Environment,Site Outdoor Air Drybulb Temperature [C] !Hourly
545,1,LIVING,Zone Mean Air Temperature [C] !Hourly
546,1,ATTIC,Zone Mean Air Temperature [C] !Hourly
547,1,CRAWLSPACE,Zone Mean Air Temperature [C] !Hourly
548,1,FAN,Fan Electricity Rate [W] !Hourly
720,1,LIVING,Zone Predicted Sensible Load to Heating Setpoint Heat Transfer Rate [W] !Hourly
721,1,LIVING,Zone System Predicted Sensible Load to Heating Setpoint Heat Transfer Rate [W] !Hourly
784,1,ATTIC,Zone Predicted Sensible Load to Heating Setpoint Heat Transfer Rate [W] !Hourly
785,1,ATTIC,Zone System Predicted Sensible Load to Heating Setpoint Heat Transfer Rate [W] !Hourly
848,1,CRAWLSPACE,Zone Predicted Sensible Load to Heating Setpoint Heat Transfer Rate [W] !Hourly
849,1,CRAWLSPACE,Zone System Predicted Sensible Load to Heating Setpoint Heat Transfer Rate [W] !Hourly
1121,1,DX_HEATING_COIL,Heating Coil Heating Rate [W] !Hourly
1135,1,DX_HEATING_COIL,Heating Coil Electricity Rate [W] !Hourly
1161,1,DX_HEATING_COIL,Heating Coil Defrost Electricity Rate [W] !Hourly
1163,1,DX_HEATING_COIL,Heating Coil Crankcase Heater Electricity Rate [W] !Hourly
1166,1,HEATING_RESISTANCE_BACKUP,Heating Coil Heating Rate [W] !Hourly
1168,1,HEATING_RESISTANCE_BACKUP,Heating Coil Electricity Rate [W] !Hourly
End of Data Dictionary
1,EXTREME_WINTER,  45.81,-108.54,  -7.00,1088.00
2,1, 3, 5, 0, 1, 0.00,60.00,Monday
7,2.8
545,19.17553685862859
546,1.9472336341429615
547,17.686531787564466
548,66.84479630738772
720,1341.7685344160018
721,1341.7685344160018
784,0.0
785,0.0
848,0.0
849,0.0
1121,1989.7015012103059
1135,609.3101523538636
1161,46.63750592750359
1163,120.09386151798309
1166,0.0
1168,0.0
2,1, 3, 5, 0, 2, 0.00,60.00,Monday
7,2.8
545,18.476242412929547
546,2.83745407788049
547,17.24565053183554
548,64.33551485672437
720,1428.5760197077616
721,1428.5760197077616
784,0.0
785,0.0
848,0.0
849,0.0
1121,1973.016126360783
1135,610.9992317621552
1161,30.831197632434375
1163,123.25323197961796
1166,0.0
1168,0.0
2,1, 3, 5, 0, 3, 0.00,60.00,Monday
7,2.8
545,18.550992808522484
546,3.492614704869368
547,16.96437794219025
548,81.41941724976147
720,1930.9001456540154
721,1930.9001456540154
784,0.0
785,0.0
848,0.0
849,0.0
1121,2535.0313347560245
1135,762.4396002508217
1161,39.017686580772114
1163,102.87495878667067
1166,0.0
1168,0.0
2,1, 3, 5, 0, 4, 0.00,60.00,Monday
7,0.0
545,18.80296995270064
546,2.704214785173525
547,16.701544129708726
548,95.48390349897295
720,2069.4641537456937
721,2069.4641537456937
784,0.0
785,0.0
848,0.0
849,0.0
1121,2736.510382164261
1135,861.2409435816915
1161,57.25344252370033
1163,85.51498797335032
1166,0.0
1168,0.0
2,1, 3, 5, 0, 5, 0.00,60.00,Monday
7,1.1
545,18.595571165972753
546,2.639669760327263
547,16.49126496061934
548,87.10288151720121
720,1910.6102278216513
721,1910.6102278216513
784,0.0
785,0.0
848,0.0
849,0.0
1121,2580.8220628194304
1135,803.7875332741428
1161,45.97214043452731
1163,95.83416365377428
1166,0.0
1168,0.0
2,1, 3, 5, 0, 6, 0.00,60.00,Monday
7,1.1
545,19.321204385964954
546,3.2834411281514764
547,16.275412764002766
548,123.57436301790956
720,2861.2504230634586
721,2861.2504230634586
784,0.0
785,0.0
848,0.0
849,0.0
1121,3761.1565474364097
1135,1135.2834358984753
1161,65.22099758327427
1163,52.21919848886441
1166,0.0
1168,0.0
2,1, 3, 5, 0, 7, 0.00,60.00,Monday
7,1.7
545,19.710409739031117
546,3.4223393090986125
547,16.121150371774775
548,110.18933865167496
720,2496.9149454930593
721,2496.9149454930593
784,0.0
785,0.0
848,0.0
849,0.0
1121,3384.6535209512012
1135,1037.4312052358766
1161,53.61844529383221
1163,68.38621111215646
1166,0.0
1168,0.0
2,1, 3, 5, 0, 8, 0.00,60.00,Monday
7,2.2
545,19.689099561510158
546,3.5435983381964236
547,15.954235639607251
548,99.20990799083607
720,2193.1447682209964
721,2193.1447682209964
784,0.0
785,0.0
848,0.0
849,0.0
1121,3011.47527738227
1135,931.2869308869449
1161,58.31247904857585
1163,81.4344199287923
1166,0.0
1168,0.0
2,1, 3, 5, 0, 9, 0.00,60.00,Monday
7,2.2
545,19.738854024542388
546,4.374570280437505
547,15.794958121158341
548,91.09375291338894
720,2004.2401369789222
721,2004.2401369789222
784,0.0
785,0.0
848,0.0
849,0.0
1121,2749.7865271119144
1135,854.6356177663716
1161,53.54201458790066
1163,91.1341084897582
1166,0.0
1168,0.0
2,1, 3, 5, 0,10, 0.00,60.00,Monday
7,2.8
545,19.766223015406513
546,4.859813290846439
547,15.65185611836217
548,80.81327848114901
720,1911.2457280955277
721,1911.2457280955277
784,0.0
785,0.0
848,0.0
849,0.0
1121,2581.2693484168026
1135,797.8137528254017
1161,21.76979615738525
1163,103.77871631845692
1166,0.0
1168,0.0
2,1, 3, 5, 0,11, 0.00,60.00,Monday
7,3.3
545,19.747282973309236
546,6.2555124896483845
547,15.519004087742218
548,73.59283018861534
720,1792.8861430944362
721,1792.8861430944362
784,0.0
785,0.0
848,0.0
849,0.0
1121,2401.3236527184367
1135,739.3636844681263
1161,13.170664093554256
1163,112.46096081704553
1166,0.0
1168,0.0
2,1, 3, 5, 0,12, 0.00,60.00,Monday
7,3.3
545,19.774224606152135
546,7.937813817378313
547,15.389496961918693
548,57.68409539130455
720,1388.5147252149745
721,1388.5147252149745
784,0.0
785,0.0
848,0.0
849,0.0
1121,1862.0540866020128
1135,579.2896027039797
1161,10.323529357152625
1163,131.38448946211892
1166,0.0
1168,0.0
2,1, 3, 5, 0,13, 0.00,60.00,Monday
7,8.3
545,19.787654499762883
546,9.702870608406476
547,15.267753437805146
548,20.708262967180907
720,633.519033217628
721,633.519033217628
784,0.0
785,0.0
848,0.0
849,0.0
1121,868.2619454175075
1135,235.44044899174645
1161,0.0
1163,175.3997569910973
1166,0.0
1168,0.0
2,1, 3, 5, 0,14, 0.00,60.00,Monday
7,7.8
545,19.40449734402768
546,10.717284568905479
547,15.174305224846258
548,5.60720763044386
720,150.77839468297134
721,150.77839468297134
784,0.0
785,0.0
848,0.0
849,0.0
1121,229.9012943398556
1135,63.40350435240712
1161,0.0
1163,193.33895505726858
1166,0.0
1168,0.0
2,1, 3, 5, 0,15, 0.00,60.00,Monday
7,7.8
545,19.71380986614703
546,10.855215886674111
547,15.12417649704802
548,8.350948959107539
720,276.52804560452205
721,276.52804560452205
784,0.0
785,0.0
848,0.0
849,0.0
1121,343.57941740238135
1135,93.757019381632
1161,0.0
1163,190.07954582793502
1166,0.0
1168,0.0
2,1, 3, 5, 0,16, 0.00,60.00,Monday
7,5.6
545,19.74011703014067
546,9.639549612398996
547,15.093035932474965
548,11.857181922790705
720,377.0777648281146
721,377.0777648281146
784,0.0
785,0.0
848,0.0
849,0.0
1121,462.074593052929
1135,130.7571360751514
1161,0.0
1163,185.91433974140185
1166,0.0
1168,0.0
2,1, 3, 5, 0,17, 0.00,60.00,Monday
7,6.1
545,20.501206767100765
546,10.015306532482292
547,15.064188803734591
548,1.6639674763272
720,39.167449506809135
721,39.167449506809135
784,0.0
785,0.0
848,0.0
849,0.0
1121,65.22635331286915
1135,18.45493346265324
1161,0.0
1163,198.02330092381803
1166,0.0
1168,0.0
2,1, 3, 5, 0,18, 0.00,60.00,Monday
7,6.1
545,20.35310269124701
546,8.6265934393883
547,15.04225741371986
548,0.0
720,-408.239805787407
721,-408.239805787407
784,0.0
785,0.0
848,0.0
849,0.0
1121,0.0
1135,0.0
1161,0.0
1163,200.0
1166,0.0
1168,0.0
2,1, 3, 5, 0,19, 0.00,60.00,Monday
7,3.9
545,19.726303675856887
546,5.7865319819977
547,15.018284937880548
548,3.6021181503385447
720,90.724094737001
721,90.724094737001
784,0.0
785,0.0
848,0.0
849,0.0
1121,116.5908086361983
1135,37.71888041474992
1161,0.00173521551628289
1163,195.72087539305494
1166,0.0
1168,0.0
2,1, 3, 5, 0,20, 0.00,60.00,Monday
7,2.8
545,20.163911684291033
546,4.730668958740943
547,14.986821585499838
548,8.276340184031923
720,207.22715648312442
721,207.22715648312442
784,0.0
785,0.0
848,0.0
849,0.0
1121,261.85191228694504
1135,84.73088935078337
1161,0.0039868900676627425
1163,190.16813805914632
1166,0.0
1168,0.0
2,1, 3, 5, 0,21, 0.00,60.00,Monday
7,2.8
545,19.78898783812643
546,3.2106943118330995
547,14.928401383305536
548,0.0
720,-21.266478879846545
721,-21.266478879846545
784,0.0
785,0.0
848,0.0
849,0.0
1121,0.0
1135,0.0
1161,0.0
1163,200.0
1166,0.0
1168,0.0
2,1, 3, 5, 0,22, 0.00,60.00,Monday
7,-3.9
545,19.36478635478742
546,-0.13693740468112783
547,14.909860514427471
548,115.85315163713999
720,2368.7157863287066
721,2368.7157863287066
784,0.0
785,0.0
848,0.0
849,0.0
1121,3067.9556468842857
1135,1057.7566854097593
1161,54.15211375056726
1163,60.68934399978543
1166,0.0
1168,0.0
2,1, 3, 5, 0,23, 0.00,60.00,Monday
7,-5.6
545,19.032929803757316
546,-1.5356404415402485
547,14.801750319959478
548,104.27834199962754
720,1824.9629055214136
721,1824.9629055214136
784,0.0
785,0.0
848,0.0
849,0.0
1121,2641.9875007592327
1135,941.0498340748562
1161,41.33711844319512
1163,74.58752446965968
1166,0.0
1168,0.0
2,1, 3, 5, 0,24, 0.00,60.00,Monday
7,-5.6
545,18.691849207639393
546,-2.0943357229861386
547,14.703769202763308
548,115.58642522028316
720,2014.8785734777703
721,2014.8785734777703
784,0.0
785,0.0
848,0.0
849,0.0
1121,2957.8446366207013
1135,1036.1948422384864
1161,45.818700407412926
1163,60.99087551124145
1166,0.0
1168,0.0
2,2, 3, 6, 0, 1, 0.00,60.00,Tuesday
7,-6.7
545,18.306080081558758
546,-2.6258669285257805
547,14.568096777301124
548,168.35819841037087
720,3086.3676805152936
721,3086.3676805152936
784,0.0
785,0.0
848,0.0
849,0.0
1121,4364.615662293563
1135,1475.797977393646
1161,59.088728514590656
1163,0.0
1166,92.12880454395781
1168,92.12880454395781
2,2, 3, 6, 0, 2, 0.00,60.00,Tuesday
7,-7.2
545,18.4628211712806
546,-2.700028467052132
547,14.420752076887878
548,168.35819841037087
720,3946.0709511445293
721,3946.0709511445293
784,0.0
785,0.0
848,0.0
849,0.0
1121,4355.484964618526
1135,1473.7312485364125
1161,47.41983971038923
1163,0.0
1166,1241.4472538010673
1168,1241.4472538010673
2,2, 3, 6, 0, 3, 0.00,60.00,Tuesday
7,-7.2
545,18.540006633252208
546,-2.7680204240253334
547,14.297535484161509
548,168.35819841037087
720,4340.725316836488
721,4340.725316836488
784,0.0
785,0.0
848,0.0
849,0.0
1121,4351.769765957072
1135,1477.979245032252
1161,47.41983971038923
1163,0.0
1166,1763.1992901857975
1168,1763.1992901857975
2,2, 3, 6, 0, 4, 0.00,60.00,Tuesday
7,-8.0
545,18.56972639922552
546,-3.9337096991456084
547,14.152836051691617
548,168.35819841037087
720,4662.173875693248
721,4662.173875693248
784,0.0
785,0.0
848,0.0
849,0.0
1121,4351.296112589431
1135,1505.8530592239317
1161,19.947784002683914
1163,0.0
1166,2151.335287571112
1168,2151.335287571112
2,2, 3, 6, 0, 5, 0.00,60.00,Tuesday
7,-8.9
545,18.580342873541817
546,-4.125232832237732
547,14.005138934889507
548,168.35819841037087
720,4578.989439876665
721,4578.989439876665
784,0.0
785,0.0
848,0.0
849,0.0
1121,4243.297631756449
1135,1497.9907648134483
1161,17.53233152608756
1163,0.0
1166,2233.7155524127356
1168,2233.7155524127356
2,2, 3, 6, 0, 6, 0.00,60.00,Tuesday
7,-8.9
545,19.32986857022296
546,-4.223975535243346
547,13.86251056538248
548,168.35819841037087
720,5694.091335557188
721,5694.091335557188
784,0.0
785,0.0
848,0.0
849,0.0
1121,4243.226286679237
1135,1498.0708260362333
1161,17.53233152608756
1163,0.0
1166,3541.202605440467
1168,3541.202605440467
2,2, 3, 6, 0, 7, 0.00,60.00,Tuesday
7,-10.0
545,19.586832085978966
546,-5.2330807365236565
547,13.751549201064503
548,168.35819841037087
720,5299.801809377486
721,5299.801809377486
784,0.0
785,0.0
848,0.0
849,0.0
1121,4093.69473173191
1135,1507.9787336773277
1161,14.886985296874325
1163,0.0
1166,3313.9591175448822
1168,3313.9591175448822
2,2, 3, 6, 0, 8, 0.00,60.00,Tuesday
7,-10.6
545,19.674125055637585
546,-5.029944726954917
547,13.615283243040004
548,168.35819841037087
720,4460.122686539056
721,4460.122686539056
784,0.0
785,0.0
848,0.0
849,0.0
1121,4002.209184691529
1135,1503.1818893439806
1161,17.68406821051252
1163,0.0
1166,2503.7034954531728
1168,2503.7034954531728
2,2, 3, 6, 0, 9, 0.00,60.00,Tuesday
7,-10.6
545,19.698403664823825
546,-4.812507152768459
547,13.48255491523646
548,168.35819841037087
720,4297.2238992207895
721,4297.2238992207895
784,0.0
785,0.0
848,0.0
849,0.0
1121,4000.164744014402
1135,1505.4125444955714
1161,17.68406821051252
1163,0.0
1166,2307.8266446379967
1168,2307.8266446379967
2,2, 3, 6, 0,10, 0.00,60.00,Tuesday
7,-10.6
545,19.69425540002898
546,-4.847278755970743
547,13.348468485679708
548,168.35819841037087
720,4676.932856595597
721,4676.932856595597
784,0.0
785,0.0
848,0.0
849,0.0
1121,3981.076328967942
1135,1498.8319257021515
1161,23.077510765230496
1163,0.0
1166,2754.9210316935378
1168,2754.9210316935378
2,2, 3, 6, 0,11, 0.00,60.00,Tuesday
7,-10.0
545,19.718438164566813
546,-1.9405260241766493
547,13.23102439451582
548,168.35819841037087
720,3800.8146178816223
721,3800.8146178816223
784,0.0
785,0.0
848,0.0
849,0.0
1121,4069.9793950249573
1135,1511.9297177168917
1161,19.154205520597383
1163,0.0
1166,1669.5584817108074
1168,1669.5584817108074
2,2, 3, 6, 0,12, 0.00,60.00,Tuesday
7,-10.0
545,19.733399512182185
546,-0.5820346925151566
547,13.11751113895832
548,168.35819841037087
720,3535.711881313746
721,3535.711881313746
784,0.0
785,0.0
848,0.0
849,0.0
1121,4069.523729333564
1135,1512.4313768581317
1161,19.154205520597383
1163,0.0
1166,1215.9471129064427
1168,1215.9471129064427
2,2, 3, 6, 0,13, 0.00,60.00,Tuesday
7,-8.0
545,19.76869492641781
546,0.8461948069629445
547,13.036367097405845
548,164.90732180598647
720,2723.967719535902
721,2723.967719535902
784,0.0
785,0.0
848,0.0
849,0.0
1121,4262.139242524215
1135,1524.2335128503892
1161,9.359815837706078
1163,3.6727737797533244
1166,0.0
1168,0.0
2,2, 3, 6, 0,14, 0.00,60.00,Tuesday
7,-7.8
545,19.77677824674583
546,4.444226839534597
547,12.952830724953184
548,158.4864167151282
720,2686.276637733039
721,2686.276637733039
784,0.0
785,0.0
848,0.0
849,0.0
1121,4099.640662768537
1135,1467.9850284863146
1161,9.299517357431915
1163,11.311088838402373
1166,0.0
1168,0.0
2,2, 3, 6, 0,15, 0.00,60.00,Tuesday
7,-7.8
545,19.850427088552358
546,5.478494024492053
547,12.872385143302449
548,135.01806131031827
720,2323.731202173356
721,2323.731202173356
784,0.0
785,0.0
848,0.0
849,0.0
1121,3433.5007661739673
1135,1250.8371866282596
1161,7.9224642016306985
1163,39.25174969131435
1166,0.0
1168,0.0
2,2, 3, 6, 0,16, 0.00,60.00,Tuesday
7,-6.7
545,19.993838268724623
546,7.875786403303594
547,12.802648335334805
548,94.2761446563005
720,1607.6993180299269
721,1607.6993180299269
784,0.0
785,0.0
848,0.0
849,0.0
1121,2377.6618880639853
1135,874.9154978610864
1161,13.301127387042087
1163,87.46630911716737
1166,0.0
1168,0.0
2,2, 3, 6, 0,17, 0.00,60.00,Tuesday
7,-6.7
545,19.824590525053416
546,5.530940005287965
547,12.773452627470778
548,87.89267299554152
720,1587.9682725437815
721,1587.9682725437815
784,0.0
785,0.0
848,0.0
849,0.0
1121,2205.0045228807703
1135,817.8973960995539
1161,12.398206114787644
1163,95.08568872501957
1166,0.0
1168,0.0
2,2, 3, 6, 0,18, 0.00,60.00,Tuesday
7,-6.7
545,19.815683753857776
546,3.13258375584422
547,12.725884467745383
548,72.07289463298669
720,1260.892727159362
721,1260.892727159362
784,0.0
785,0.0
848,0.0
849,0.0
1121,1790.1515451386385
1135,668.535950005968
1161,10.166609074049903
1163,113.96958728297597
1166,0.0
1168,0.0
2,2, 3, 6, 0,19, 0.00,60.00,Tuesday
7,-7.2
545,19.558018521452663
546,-0.03132532242773661
547,12.719435894180057
548,90.73946974798622
720,1586.1659174088873
721,1586.1659174088873
784,0.0
785,0.0
848,0.0
849,0.0
1121,2242.2168027728903
1135,835.853757839652
1161,14.939618934053664
1163,91.5688457688381
1166,0.0
1168,0.0
2,2, 3, 6, 0,20, 0.00,60.00,Tuesday
7,-7.8
545,19.581746905866428
546,-1.8774629047490954
547,12.690770968473801
548,112.04803214877066
720,1894.2153082960904
721,1894.2153082960904
784,0.0
785,0.0
848,0.0
849,0.0
1121,2765.7025902050195
1135,1022.1648841141297
1161,18.266910575952892
1163,66.06800850147086
1166,0.0
1168,0.0
2,2, 3, 6, 0,21, 0.00,60.00,Tuesday
7,-7.8
545,19.591590069734995
546,-2.930382708493663
547,12.654882986650778
548,127.82245957760827
720,2108.7958363629205
721,2108.7958363629205
784,0.0
785,0.0
848,0.0
849,0.0
1121,3190.443787731046
1135,1166.4720993801234
1161,20.83858986085703
1163,47.21259632377384
1166,0.0
1168,0.0
2,2, 3, 6, 0,22, 0.00,60.00,Tuesday
7,-8.9
545,19.510808677129084
546,-3.397303424615641
547,12.61406944556815
548,161.95262544118418
720,2562.7149447790944
721,2562.7149447790944
784,0.0
785,0.0
848,0.0
849,0.0
1121,3968.3029069192385
1135,1453.8891859348016
1161,38.14518898860288
1163,5.684296289512725
1166,0.0
1168,0.0
2,2, 3, 6, 0,23, 0.00,60.00,Tuesday
7,-8.9
545,18.91775494724348
546,-4.283185676537966
547,12.514966205336787
548,147.49642161407928
720,2181.4183929864776
721,2181.4183929864776
784,0.0
785,0.0
848,0.0
849,0.0
1121,3577.5378964877063
1135,1322.1006378160787
1161,34.76353861494257
1163,23.028928526574298
1166,0.0
1168,0.0
2,2, 3, 6, 0,24, 0.00,60.00,Tuesday
7,-8.9
545,18.650386238887204
546,-4.34334321462577
547,12.42252800174462
548,168.35819841037087
720,2680.3180045061945
721,2680.3180045061945
784,0.0
785,0.0
848,0.0
849,0.0
1121,4156.817009129136
1135,1477.1582219867546
1161,39.28725562376756
1163,0.0
1166,103.92633964604101
1168,103.92633964604101
2,3, 3, 7, 0, 1, 0.00,60.00,Wednesday
7,-8.9
545,18.593357212833773
546,-4.608895168721937
547,12.310917091790357
548,168.35819841037087
720,3715.8802690482717
721,3715.8802690482717
784,0.0
785,0.0
848,0.0
849,0.0
1121,4163.370108875285
1135,1469.4009986562285
1161,39.36220990641601
1163,0.0
1166,1333.5407190952378
1168,1333.5407190952378
2,3, 3, 7, 0, 2, 0.00,60.00,Wednesday
7,-8.3
545,18.589662094315692
546,-4.752539184525092
547,12.213619168258294
548,168.35819841037087
720,3929.389573411854
721,3929.389573411854
784,0.0
785,0.0
848,0.0
849,0.0
1121,4230.90047301547
1135,1471.7508211566187
1161,42.05549987786317
1163,0.0
1166,1550.1514146695558
1168,1550.1514146695558
2,3, 3, 7, 0, 3, 0.00,60.00,Wednesday
7,-8.3
545,18.588460735996314
546,-4.659384933721858
547,12.105413907615032
548,168.35819841037087
720,4172.951922950393
721,4172.951922950393
784,0.0
785,0.0
848,0.0
849,0.0
1121,4231.123242324084
1135,1471.4990320321415
1161,42.05549987786317
1163,0.0
1166,1849.756302607946
1168,1849.756302607946
2,3, 3, 7, 0, 4, 0.00,60.00,Wednesday
7,-8.3
545,18.596340144197878
546,-4.48508682075961
547,11.999191992726873
548,168.35819841037087
720,4040.1640056822635
721,4040.1640056822635
784,0.0
785,0.0
848,0.0
849,0.0
1121,4230.94632866327
1135,1471.20902787262
1161,42.14408999978621
1163,0.0
1166,1701.3237621435087
1168,1701.3237621435087
2,3, 3, 7, 0, 5, 0.00,60.00,Wednesday
7,-7.8
545,18.599542483220517
546,-4.039937089836852
547,11.896831483438376
548,168.35819841037087
720,3989.546605626405
721,3989.546605626405
784,0.0
785,0.0
848,0.0
849,0.0
1121,4285.753744595036
1135,1474.5166038830857
1161,44.49577923991458
1163,0.0
1166,1580.767330108135
1168,1580.767330108135
2,3, 3, 7, 0, 6, 0.00,60.00,Wednesday
7,-7.8
545,19.346642007901714
546,-3.8062549278835074
547,11.79087181884373
548,168.35819841037087
720,5047.656344070696
721,5047.656344070696
784,0.0
785,0.0
848,0.0
849,0.0
1121,4285.8121164489885
1135,1474.450267178398
1161,44.49577923991458
1163,0.0
1166,2778.1817589510574
1168,2778.1817589510574
2,3, 3, 7, 0, 7, 0.00,60.00,Wednesday
7,-7.8
545,19.59512282953822
546,-3.962330896309805
547,11.726456406533078
548,168.35819841037087
720,4823.843990110119
721,4823.843990110119
784,0.0
785,0.0
848,0.0
849,0.0
1121,4266.983551448226
1135,1495.430652710553
1161,44.568034206357844
1163,0.0
1166,2606.492323426309
1168,2606.492323426309
2,3, 3, 7, 0, 8, 0.00,60.00,Wednesday
7,-6.1
545,19.69119860686882
546,-2.4803404580371295
547,11.651910793308998
548,168.35819841037087
720,3821.8627145306873
721,3821.8627145306873
784,0.0
785,0.0
848,0.0
849,0.0
1121,4500.332230576466
1135,1531.0837972606098
1161,39.71984435210828
1163,0.0
1166,1250.3747555274977
1168,1250.3747555274977
2,3, 3, 7, 0, 9, 0.00,60.00,Wednesday
7,-6.1
545,19.734038307775513
546,-0.3587993363870541
547,11.573585576254096
548,168.35819841037087
720,2945.098811504453
721,2945.098811504453
784,0.0
785,0.0
848,0.0
849,0.0
1121,4497.974604960682
1135,1533.8073069154918
1161,39.71984435210828
1163,0.0
1166,163.9054973249281
1168,163.9054973249281
2,3, 3, 7, 0,10, 0.00,60.00,Wednesday
7,1.7
545,20.012362256478156
546,4.287920004547588
547,11.395722042502626
548,69.45558437243864
720,1314.384501657887
721,1314.384501657887
784,0.0
785,0.0
848,0.0
849,0.0
1121,2225.8529516892568
1135,701.2640017982471
1161,0.03345827792284545
1163,117.4902834707515
1166,0.0
1168,0.0
2,3, 3, 7, 0,11, 0.00,60.00,Wednesday
7,6.1
545,19.673690734432842
546,7.970821770666287
547,11.31837405587975
548,27.181842418535894
720,690.0882788392719
721,690.0882788392719
784,0.0
785,0.0
848,0.0
849,0.0
1121,1083.290558891841
1135,301.83533727981415
1161,0.0
1163,167.7095114165091
1166,0.0
1168,0.0
2,3, 3, 7, 0,12, 0.00,60.00,Wednesday
7,6.1
545,19.77672555657435
546,9.436875553577542
547,11.302856928760217
548,15.617514968203409
720,436.2616970715626
721,436.2616970715626
784,0.0
785,0.0
848,0.0
849,0.0
1121,618.5795519832076
1135,172.31834346395303
1161,0.0
1163,181.44727715589363
1166,0.0
1168,0.0
2,3, 3, 7, 0,13, 0.00,60.00,Wednesday
7,8.3
545,20.294421205629074
546,12.64845845923745
547,11.320026602232135
548,4.014668068719052
720,106.67559081244508
721,106.67559081244508
784,0.0
785,0.0
848,0.0
849,0.0
1121,166.63449713937626
1135,45.46954382013579
1161,0.0
1163,195.23080181823596
1166,0.0
1168,0.0
2,3, 3, 7, 0,14, 0.00,60.00,Wednesday
7,8.9
545,20.88462397329926
546,14.007274711167506
547,11.374197266210544
548,0.0
720,-764.9593915252663
721,-764.9593915252663
784,0.0
785,0.0
848,0.0
849,0.0
1121,0.0
1135,0.0
1161,0.0
1163,200.0
1166,0.0
1168,0.0
2,3, 3, 7, 0,15, 0.00,60.00,Wednesday
7,8.9
545,21.59002998635982
546,14.240698826065946
547,11.454489422043709
548,0.0
720,-1432.5969162422844
721,-1432.5969162422844
784,0.0
785,0.0
848,0.0
849,0.0
1121,0.0
1135,0.0
1161,0.0
1163,200.0
1166,0.0
1168,0.0
2,3, 3, 7, 0,16, 0.00,60.00,Wednesday
7,8.9
545,22.21643731934001
546,12.91090566851446
547,11.55178752665383
548,0.0
720,-1964.4480066142223
721,-1964.4480066142223
784,0.0
785,0.0
848,0.0
849,0.0
1121,0.0
1135,0.0
1161,0.0
1163,200.0
1166,0.0
1168,0.0
2,3, 3, 7, 0,17, 0.00,60.00,Wednesday
7,7.8
545,22.7974648125514
546,11.453133359677828
547,11.658581042506777
548,0.0
720,-2425.936208923644
721,-2425.936208923644
784,0.0
785,0.0
848,0.0
849,0.0
1121,0.0
1135,0.0
1161,0.0
1163,200.0
1166,0.0
1168,0.0
2,3, 3, 7, 0,18, 0.00,60.00,Wednesday
7,7.8
545,22.938476143781102
546,9.989079713366166
547,11.769428320751913
548,0.0
720,-2479.3995315249394
721,-2479.3995315249394
784,0.0
785,0.0
848,0.0
849,0.0
1121,0.0
1135,0.0
1161,0.0
1163,200.0
1166,0.0
1168,0.0
2,3, 3, 7, 0,19, 0.00,60.00,Wednesday
7,3.3
545,22.104914919998425
546,7.282898600812938
547,11.878073909870881
548,0.0
720,-1876.0788081535866
721,-1876.0788081535866
784,0.0
785,0.0
848,0.0
849,0.0
1121,0.0
1135,0.0
1161,0.0
1163,200.0
1166,0.0
1168,0.0
2,3, 3, 7, 0,20, 0.00,60.00,Wednesday
7,1.7
545,21.2860819602506
546,4.342230074397416
547,11.951960953879
548,0.0
720,-1309.572202081732
721,-1309.572202081732
784,0.0
785,0.0
848,0.0
849,0.0
1121,0.0
1135,0.0
1161,0.0
1163,200.0
1166,0.0
1168,0.0
2,3, 3, 7, 0,21, 0.00,60.00,Wednesday
7,1.7
545,20.76339340447269
546,3.2171147596348253
547,11.991406427458442
548,0.0
720,-916.994330593172
721,-916.994330593172
784,0.0
785,0.0
848,0.0
849,0.0
1121,0.0
1135,0.0
1161,0.0
1163,200.0
1166,0.0
1168,0.0
2,3, 3, 7, 0,22, 0.00,60.00,Wednesday
7,1.1
545,20.678083085462468
546,1.8395914980049992
547,12.004027929186867
548,0.0
720,-791.8005225363922
721,-791.8005225363922
784,0.0
785,0.0
848,0.0
849,0.0
1121,0.0
1135,0.0
1161,0.0
1163,200.0
1166,0.0
1168,0.0
2,3, 3, 7, 0,23, 0.00,60.00,Wednesday
7,0.0
545,19.667773989251877
546,0.5113498471404769
547,11.987956203233844
548,0.0
720,-729.5360171260618
721,-729.5360171260618
784,0.0
785,0.0
848,0.0
849,0.0
1121,0.0
1135,0.0
1161,0.0
1163,200.0
1166,0.0
1168,0.0
2,3, 3, 7, 0,24, 0.00,60.00,Wednesday
7,0.0
545,18.777737527952205
546,-0.3794280233268993
547,11.955406067007404
548,0.0
720,-125.43027398084814
721,-125.43027398084814
784,0.0
785,0.0
848,0.0
849,0.0
1121,0.0
1135,0.0
1161,0.0
1163,200.0
1166,0.0
1168,0.0
2,4, 3, 8, 0, 1, 0.00,60.00,Thursday
7,-0.6
545,18.52512305660839
546,-0.5781025978368222
547,11.950006614537632
548,26.485965858513875
720,586.9448807713379
721,586.9448807713379
784,0.0
785,0.0
848,0.0
849,0.0
1121,778.4820864248287
1135,257.32084022216617
1161,0.012758902833965973
1163,168.5359342616989
1166,0.0
1168,0.0
2,4, 3, 8, 0, 2, 0.00,60.00,Thursday
7,0.6
545,17.817599362368064
546,0.4991243276679012
547,11.901281123178926
548,38.97820428256505
720,882.0518061574139
721,882.0518061574139
784,0.0
785,0.0
848,0.0
849,0.0
1121,1194.8901355498924
1135,380.79349676374625
1161,0.01877667735022958
1163,153.69581395966696
1166,0.0
1168,0.0
2,4, 3, 8, 0, 3, 0.00,60.00,Thursday
7,0.6
545,18.27483296367161
546,1.0812898773844803
547,11.872302075611758
548,74.28335074321885
720,1770.5783227743314
721,1770.5783227743314
784,0.0
785,0.0
848,0.0
849,0.0
1121,2340.381460891038
1135,715.6284111732768
1161,0.035783959406291595
1163,111.75504149628517
1166,0.0
1168,0.0
2,4, 3, 8, 0, 4, 0.00,60.00,Thursday
7,0.0
545,18.592852139228935
546,1.033989000813255
547,11.849215608162599
548,100.91382190302895
720,2363.4494037899512
721,2363.4494037899512
784,0.0
785,0.0
848,0.0
849,0.0
1121,3179.932100846557
1135,975.4871786339294
1161,0.04861248919076346
1163,80.11927236182348
1166,0.0
1168,0.0
2,4, 3, 8, 0, 5, 0.00,60.00,Thursday
7,-1.7
545,18.632626454011014
546,0.20496515378033056
547,11.777295506307349
548,105.4010194105343
720,2279.9755985543597
721,2279.9755985543597
784,0.0
785,0.0
848,0.0
849,0.0
1121,3175.6039941622607
1135,1010.1636565854521
1161,0.050774178074151785
1163,74.78844399689399
1166,0.0
1168,0.0
2,4, 3, 8, 0, 6, 0.00,60.00,Thursday
7,-1.7
545,19.302349796575314
546,0.18800684800437192
547,11.763136807475199
548,140.87543961798679
720,3146.5047452263334
721,3146.5047452263334
784,0.0
785,0.0
848,0.0
849,0.0
1121,4352.167728135427
1135,1350.8589512728727
1161,0.06786305014938461
1163,32.646466636807034
1166,0.0
1168,0.0
2,4, 3, 8, 0, 7, 0.00,60.00,Thursday
7,-2.2
545,19.47271430689614
546,0.5890617094603351
547,11.755225628156682
548,163.87101721475378
720,3467.1845242853014
721,3467.1845242853014
784,0.0
785,0.0
848,0.0
849,0.0
1121,4942.064948827233
1135,1552.8254180006866
1161,27.16062464464021
1163,4.6749215566668
1166,0.0
1168,0.0
2,4, 3, 8, 0, 8, 0.00,60.00,Thursday
7,-2.2
545,19.620182660709165
546,1.2558155329074328
547,11.694802033815854
548,167.62269422327427
720,3468.6933757638253
721,3468.6933757638253
784,0.0
785,0.0
848,0.0
849,0.0
1121,5028.69256669464
1135,1583.666489050165
1161,36.11079952894202
1163,0.0
1166,0.0
1168,0.0
2,4, 3, 8, 0, 9, 0.00,60.00,Thursday
7,-2.2
545,19.775867829261998
546,2.7878987311118624
547,11.589201686278594
548,141.10697323477984
720,2793.0388070111694
721,2793.0388070111694
784,0.0
785,0.0
848,0.0
849,0.0
1121,4148.796196682517
1135,1337.137642937386
1161,30.3992751006481
1163,31.63333131805213
1166,0.0
1168,0.0
2,4, 3, 8, 0,10, 0.00,60.00,Thursday
7,-2.0
545,19.597822046822607
546,1.7978262753450862
547,11.606428845578794
548,168.35819841037087
720,3621.201760524149
721,3621.201760524149
784,0.0
785,0.0
848,0.0
849,0.0
1121,4876.358035639303
1135,1534.0091060648158
1161,79.82737279146578
1163,0.0
1166,262.89510576817156
1168,262.89510576817156
2,4, 3, 8, 0,11, 0.00,60.00,Thursday
7,-2.8
545,19.712269586008436
546,3.476991463049823
547,11.51854207118824
548,159.30711981357948
720,2966.6227488167424
721,2966.6227488167424
784,0.0
785,0.0
848,0.0
849,0.0
1121,4390.2747119548485
1135,1424.5436971128518
1161,100.85715235109237
1163,7.955912547882282
1166,0.0
1168,0.0
2,4, 3, 8, 0,12, 0.00,60.00,Thursday
7,-2.8
545,19.738837117857667
546,3.1525423050748365
547,11.4832894327874
548,157.69165138681788
720,2994.083991447471
721,2994.083991447471
784,0.0
785,0.0
848,0.0
849,0.0
1121,4338.042533636517
1135,1413.1523289390727
1161,99.83524502297323
1163,9.901746390246835
1166,0.0
1168,0.0
2,4, 3, 8, 0,13, 0.00,60.00,Thursday
7,-2.8
545,19.780893953868308
546,3.127863994222865
547,11.40220184701718
548,142.5697667463589
720,2681.979830791817
721,2681.979830791817
784,0.0
785,0.0
848,0.0
849,0.0
1121,3911.6473891289934
1135,1287.8226616566844
1161,82.04902772292469
1163,28.375436436794654
1166,0.0
1168,0.0
2,4, 3, 8, 0,14, 0.00,60.00,Thursday
7,-3.0
545,19.777421598816066
546,3.504906423724704
547,11.343040594772205
548,133.49119014817586
720,2505.8516285374662
721,2505.8516285374662
784,0.0
785,0.0
848,0.0
849,0.0
1121,3646.4277276705598
1135,1213.3631608919527
1161,69.67465160239793
1163,39.46531832470039
1166,0.0
1168,0.0
2,4, 3, 8, 0,15, 0.00,60.00,Thursday
7,-3.3
545,19.70913226847799
546,2.6056223073002753
547,11.305606381569227
548,137.70053549400546
720,2589.3927386157375
721,2589.3927386157375
784,0.0
785,0.0
848,0.0
849,0.0
1121,3725.908946901561
1135,1244.4590332137839
1161,75.75266649667361
1163,34.20671851930099
1166,0.0
1168,0.0
2,4, 3, 8, 0,16, 0.00,60.00,Thursday
7,-5.0
545,19.530976949524145
546,-0.07507435875269249
547,11.2946574920191
548,168.35819841037087
720,3631.8397409176196
721,3631.8397409176196
784,0.0
785,0.0
848,0.0
849,0.0
1121,4512.8076302281825
1135,1504.114224461826
1161,71.86596394341643
1163,0.0
1166,602.8236126374509
1168,602.8236126374509
2,4, 3, 8, 0,17, 0.00,60.00,Thursday
7,-7.0
545,19.62400921827646
546,-1.4892781019369954
547,11.208276024411532
548,168.35819841037087
720,4269.509773209395
721,4269.509773209395
784,0.0
785,0.0
848,0.0
849,0.0
1121,4309.986841350305
1135,1490.7542308012632