Program Version,EnergyPlus, Version 22.2.0-c249759bad, YMD=2023.09.01 20:31
1,5,Environment Title[],Latitude[deg],Longitude[deg],Time Zone[],Elevation[m]
2,8,Day of Simulation[],Month[],Day of Month[],DST Indicator[1=yes 0=no],Hour[],StartMinute[],EndMinute[],DayType
3,5,Cumulative Day of Simulation[],Month[],Day of Month[],DST Indicator[1=yes 0=no],DayType  ! When Daily Report Variables Requested
4,2,Cumulative Days of Simulation[],Month[]  ! When Monthly Report Variables Requested
5,1,Cumulative Days of Simulation[] ! When Run Period Report Variables Requested
6,1,Calendar Year of Simulation[] ! When Annual Report Variables Requested
581,11,LIVING,AFN Zone Infiltration Air Change Rate [ach] !RunPeriod [Value,Min,Month,Day,Hour,Minute,Max,Month,Day,Hour,Minute]
582,11,ATTIC,AFN Zone Infiltration Air Change Rate [ach] !RunPeriod [Value,Min,Month,Day,Hour,Minute,Max,Month,Day,Hour,Minute]
583,11,CRAWLSPACE,AFN Zone Infiltration Air Change Rate [ach] !RunPeriod [Value,Min,Month,Day,Hour,Minute,Max,Month,Day,Hour,Minute]
1038,11,Facility,Facility Heating Setpoint Not Met Time [hr] !RunPeriod [Value,Min,Month,Day,Hour,Minute,Max,Month,Day,Hour,Minute]
1039,11,Facility,Facility Cooling Setpoint Not Met Time [hr] !RunPeriod [Value,Min,Month,Day,Hour,Minute,Max,Month,Day,Hour,Minute]
1115,11,DX_HEATING_COIL,Heating Coil Heating Energy [J] !RunPeriod [Value,Min,Month,Day,Hour,Minute,Max,Month,Day,Hour,Minute]
1128,11,DX_HEATING_COIL,Heating Coil Electricity Energy [J] !RunPeriod [Value,Min,Month,Day,Hour,Minute,Max,Month,Day,Hour,Minute]
1153,11,DX_HEATING_COIL,Heating Coil Defrost Electricity Energy [J] !RunPeriod [Value,Min,Month,Day,Hour,Minute,Max,Month,Day,Hour,Minute]
1154,11,DX_HEATING_COIL,Heating Coil Crankcase Heater Electricity Energy [J] !RunPeriod [Value,Min,Month,Day,Hour,Minute,Max,Month,Day,Hour,Minute]
1155,11,HEATING_RESISTANCE_BACKUP,Heating Coil Heating Energy [J] !RunPeriod [Value,Min,Month,Day,Hour,Minute,Max,Month,Day,Hour,Minute]
1156,11,HEATING_RESISTANCE_BACKUP,Heating Coil Electricity Energy [J] !RunPeriod [Value,Min,Month,Day,Hour,Minute,Max,Month,Day,Hour,Minute]
1292,11,WATER HEATER,Water Heater Heat Loss Energy [J] !RunPeriod [Value,Min,Month,Day,Hour,Minute,Max,Month,Day,Hour,Minute]
1306,11,WATER HEATER,Water Heater Heating Energy [J] !RunPeriod [Value,Min,Month,Day,Hour,Minute,Max,Month,Day,Hour,Minute]
1307,11,WATER HEATER,Water Heater Unmet Demand Heat Transfer Energy [J] !RunPeriod [Value,Min,Month,Day,Hour,Minute,Max,Month,Day,Hour,Minute]
1308,11,WATER HEATER,Water Heater Electricity Energy [J] !RunPeriod [Value,Min,Month,Day,Hour,Minute,Max,Month,Day,Hour,Minute]
13,11,Electricity:Facility [J] !RunPeriod [Value,Min,Month,Day,Hour,Minute,Max,Month,Day,Hour,Minute]
1134,11,Heating:Electricity [J] !RunPeriod [Value,Min,Month,Day,Hour,Minute,Max,Month,Day,Hour,Minute]
1096,11,Cooling:Electricity [J] !RunPeriod [Value,Min,Month,Day,Hour,Minute,Max,Month,Day,Hour,Minute]
562,11,Fans:Electricity [J] !RunPeriod [Value,Min,Month,Day,Hour,Minute,Max,Month,Day,Hour,Minute]
1379,11,Pumps:Electricity [J] !RunPeriod [Value,Min,Month,Day,Hour,Minute,Max,Month,Day,Hour,Minute]
1326,11,WaterSystems:Electricity [J] !RunPeriod [Value,Min,Month,Day,Hour,Minute,Max,Month,Day,Hour,Minute]
61,11,InteriorLights:Electricity [J] !RunPeriod [Value,Min,Month,Day,Hour,Minute,Max,Month,Day,Hour,Minute]
1046,11,ExteriorLights:Electricity [J] !RunPeriod [Value,Min,Month,Day,Hour,Minute,Max,Month,Day,Hour,Minute]
134,11,InteriorEquipment:Electricity [J] !RunPeriod [Value,Min,Month,Day,Hour,Minute,Max,Month,Day,Hour,Minute]
170,11,gas_dryer:InteriorEquipment:Electricity [J] !RunPeriod [Value,Min,Month,Day,Hour,Minute,Max,Month,Day,Hour,Minute]
207,11,clotheswasher:InteriorEquipment:Electricity [J] !RunPeriod [Value,Min,Month,Day,Hour,Minute,Max,Month,Day,Hour,Minute]
244,11,dishwasher:InteriorEquipment:Electricity [J] !RunPeriod [Value,Min,Month,Day,Hour,Minute,Max,Month,Day,Hour,Minute]
281,11,refrigerator:InteriorEquipment:Electricity [J] !RunPeriod [Value,Min,Month,Day,Hour,Minute,Max,Month,Day,Hour,Minute]
318,11,electric_mels:InteriorEquipment:Electricity [J] !RunPeriod [Value,Min,Month,Day,Hour,Minute,Max,Month,Day,Hour,Minute]
355,11,NaturalGas:Facility [J] !RunPeriod [Value,Min,Month,Day,Hour,Minute,Max,Month,Day,Hour,Minute]
403,11,InteriorEquipment:NaturalGas [J] !RunPeriod [Value,Min,Month,Day,Hour,Minute,Max,Month,Day,Hour,Minute]
476,11,gas_dryer:InteriorEquipment:NaturalGas [J] !RunPeriod [Value,Min,Month,Day,Hour,Minute,Max,Month,Day,Hour,Minute]
513,11,gas_mels:InteriorEquipment:NaturalGas [J] !RunPeriod [Value,Min,Month,Day,Hour,Minute,Max,Month,Day,Hour,Minute]
End of Data Dictionary
1,EXTREME_WINTER,  35.43,-119.05,  -8.00, 149.10
5,15
1038,0.25,0.0,12,22, 1,15,0.25,12,26, 6,15
1039,0.0,0.0,12,22, 1,15,0.0,12,22, 1,15
581,0.20164922016401357,0.11472858142306402,12,31, 2,60,0.49050503025501496,12,25, 1,60
582,1.8937264265287963,0.0,12,23, 1,52,10.828683563276389,12,24,20,52
583,0.009818555634620887,0.00018361966735595562,12,24,16,60,0.08272610705490134, 1, 1, 6, 5
1115,580146514.802225,0.0,12,22, 1,15,3336312.996534032, 1, 1, 6,60
1128,174708255.08141813,0.0,12,22, 1,15,1064256.661247264, 1, 1, 6,60
1153,7960368.156817653,0.0,12,22, 1,15,75630.40964526334,12,26, 6,60
1154,158678984.87104818,0.0,12,22, 6, 3,180000.0,12,22, 1,15
1155,2297078.694112604,0.0,12,22, 1,15,777921.7020919955, 1, 2, 6, 5
1156,2297078.694112604,0.0,12,22, 1,15,777921.7020919955, 1, 2, 6, 5
1292,-51885852.560610905,-39735.715340198774,12,26, 5,30,-4025.363361556866,12,26,13,14
1306,415399098.179648,0.0,12,22, 1,15,4050000.0,12,23,20,30
1307,50671992.847340114,0.0,12,22, 1,15,3284142.6091887704, 1, 4,19,55
1308,415399098.179648,0.0,12,22, 1,15,4050000.0,12,23,20,30
13,1624259503.4376235,158004.1357532369,12,31, 2,60,5769338.16510593, 1, 1, 7,15
61,646981127.1939323,88139.10953165221,12,22, 1,15,1282023.4113694867,12,22,20,15
134,151290040.75163814,63564.01800854099,12,22, 4,15,156554.22484006523,12,27,20,15
170,11185820.069951689,348.4159749238097,12,22, 4,15,17476.39704006126,12,27,12,15
207,13893028.5742839,815.2532113832032,12,22, 3,15,22990.642799023623,12,27,10,15
244,27284301.07562584,1521.856143006317,12,22, 4,15,53038.631142310165,12,27,20,15
281,98926891.03177746,59938.60262432081,12,22, 5,15,81951.81706819107,12,22,19,15
318,0.0,0.0,12,22, 1,15,0.0,12,22, 1,15
355,422701517.16107386,18561.32405820678,12,22, 4,15,724774.895203776,12,27,18,15
403,422701517.16107386,18561.32405820678,12,22, 4,15,724774.895203776,12,27,18,15
476,227882097.80545202,7098.072629279515,12,22, 4,15,356036.3026282215,12,27,12,15
513,0.0,0.0,12,22, 1,15,0.0,12,22, 1,15
562,24145582.000969674,0.0,12,22, 1,15,118607.34328797342,12,26, 6,15
1046,0.0,0.0,12,22, 1,15,0.0,12,22, 1,15
1096,42798968.508042194,0.0,12,22, 1,15,395533.52599137387,12,23,16,30
1134,343644686.8033964,0.0,12,22,12,45,1809239.581102549, 1, 2, 6,15
1326,415399098.17964786,0.0,12,22, 1,15,4050000.0,12,23,20,30
1379,0.0,0.0,12,22, 1,15,0.0,12,22, 1,15
1,EXTREME_SUMMER,  35.43,-119.05,  -8.00, 149.10
5,7
1038,0.0,0.0, 7,13, 1,15,0.0, 7,13, 1,15
1039,48.0,0.0, 7,13, 1,15,0.25, 7,13,18,15
581,0.09933687316983403,0.0, 7,13, 6, 7,0.3554780473251045, 7,19,14,52
582,2.9398493857804064,0.1213884586798042, 7,16, 8,33,10.154210511904042, 7,14,15,52
583,0.05165728751441697,0.0, 7,13,23, 3,0.08100598939571944, 7,19,14,52
1115,0.0,0.0, 7,13, 1,15,0.0, 7,13, 1,15
1128,0.0,0.0, 7,13, 1,15,0.0, 7,13, 1,15
1153,0.0,0.0, 7,13, 1,15,0.0, 7,13, 1,15
1154,0.0,0.0, 7,13, 1,15,0.0, 7,13, 1,15
1155,0.0,0.0, 7,13, 1,15,0.0, 7,13, 1,15
1156,0.0,0.0, 7,13, 1,15,0.0, 7,13, 1,15
1292,-21768420.912797604,-34053.74541155482, 7,18,13,45,-3211.387441755917, 7,17, 9,60
1306,134380459.76629585,0.0, 7,13, 1,15,2025000.0, 7,17, 6,52
1307,6973114.37514665,0.0, 7,13, 1,15,1273285.4554492135, 7,19,19,52
1308,134380459.76629585,0.0, 7,13, 1,15,2025000.0, 7,17, 6,52
13,1306638723.4727652,218514.48300479, 7,13, 4,60,7441261.966807291, 7,19,20,15
61,301924526.02383536,88139.10953165221, 7,13, 1,15,1282023.4113694867, 7,13,20,15
134,70666020.44019976,63564.01800854099, 7,13, 4,15,156554.22484006523, 7,18,20,15
170,5241013.419656067,348.4159749238097, 7,13, 4,15,17476.39704006126, 7,18,12,15
207,6509451.13922267,815.2532113832032, 7,13, 3,15,22990.642799023623, 7,18,10,15
244,12749673.399825225,1521.856143006317, 7,13, 4,15,53038.631142310165, 7,18,20,15
281,46165882.481495745,59938.60262432081, 7,13, 5,15,81951.81706819107, 7,13,19,15
318,0.0,0.0, 7,13, 1,15,0.0, 7,13, 1,15
355,197687796.27748066,18561.32405820678, 7,13, 4,15,724774.895203776, 7,18,18,15
403,197687796.27748066,18561.32405820678, 7,13, 4,15,724774.895203776, 7,18,18,15
476,106772067.24485716,7098.072629279515, 7,13, 4,15,356036.3026282215, 7,18,12,15
513,0.0,0.0, 7,13, 1,15,0.0, 7,13, 1,15
562,68178121.97364213,6905.8090027826765, 7,13, 5,45,154765.5167920236, 7,13,19,15
1046,0.0,0.0, 7,13, 1,15,0.0, 7,13, 1,15
1096,731489595.2687926,56521.565659471395, 7,13, 5,45,1982333.5540893655, 7,19,17,15
1134,0.0,0.0, 7,13, 1,15,0.0, 7,13, 1,15
1326,134380459.76629585,0.0, 7,13, 1,15,4050000.0, 7,17, 6,60
1379,0.0,0.0, 7,13, 1,15,0.0, 7,13, 1,15
1,ANNUAL,  35.43,-119.05,  -8.00, 149.10
5,365
1038,0.0,0.0, 1, 1, 1,15,0.0, 1, 1, 1,15
1039,710.75,0.0, 1, 1, 1,15,0.25, 1, 3,14,45
581,0.16417152534833224,0.0, 5,17,23, 3,0.8872755831436728,12,17, 7,52
582,2.6248148395137174,0.0, 1, 1, 1, 7,20.723841492718908, 3,12,13,47
583,0.02891444440169903,0.0, 5,17,23, 3,0.0895992279219562, 5,14,19,33
1115,1431784594.1270652,0.0, 1, 1, 1, 7,2973198.727804119, 1, 1, 6,60
1128,421874157.2646073,0.0, 1, 1, 1, 7,959829.0382115458, 1, 1, 6,60
1153,18210791.907812305,0.0, 1, 1, 1, 7,87070.39832298034, 1,25, 6,60
1154,886620595.2757593,0.0, 1, 1, 6, 5,180000.0, 1, 1, 2,30
1155,4135704.1808173233,0.0, 1, 1, 1, 7,777921.7020919955, 1, 3, 6, 5
1156,4135704.1808173233,0.0, 1, 1, 1, 7,777921.7020919955, 1, 3, 6, 5
1292,-1176081193.5216112,-39784.793803434644,12,26, 1,60,-2205.990379023511, 4, 8,16,45
1306,8700851628.297419,0.0, 1, 1, 1, 7,4050000.0, 1,15,20,15
1307,809553046.604365,0.0, 1, 1, 1, 7,9324366.19528278, 1,15,19,60
1308,8700851628.297419,0.0, 1, 1, 1, 7,4050000.0, 1,15,20,15
13,47971559179.34675,151703.1275401932, 1, 9, 4,15,7396941.39587679, 7,16,20,15
61,15743207428.383959,88139.10953165221, 1, 1, 1,15,1282023.4113694867, 1, 1,20,15
134,3685071073.4325233,63564.01800854099, 1, 2, 4,15,156554.22484006523, 1, 1,20,15
170,273393721.45532674,348.4159749238097, 1, 2, 4,15,17476.39704006126, 1, 1,12,15
207,339560869.0695816,815.2532113832032, 1, 2, 3,15,22990.642799023623, 1, 1,10,15
244,664895467.8009144,1521.856143006317, 1, 2, 4,15,53038.631142310165, 1, 1,20,15
281,2407221015.106824,59938.60262432081, 1, 1, 5,15,81951.81706819107, 1, 1,19,15
318,0.0,0.0, 1, 1, 1,15,0.0, 1, 1, 1,15
355,10310294493.051695,18561.32405820678, 1, 2, 4,15,724774.895203776, 1, 1,18,15
403,10310294493.051695,18561.32405820678, 1, 2, 4,15,724774.895203776, 1, 1,18,15
476,5569688622.066177,7098.072629279515, 1, 2, 4,15,356036.3026282215, 1, 1,12,15
513,0.0,0.0, 1, 1, 1,15,0.0, 1, 1, 1,15
562,1852772662.0288274,0.0, 1, 1, 1,15,154765.51679202364, 5,18,16,30
1046,0.0,0.0, 1, 1, 1,15,0.0, 1, 1, 1,15
1096,16658815138.573408,0.0, 1, 1, 1,15,1983507.0715767937, 7,19,17,60
1134,1330841248.6289952,0.0, 1, 1,12,60,1736849.7041713982, 1, 2, 6,15
1326,8700851628.297422,0.0, 1, 1, 1,15,4050000.0000000014, 3,11, 9,45
1379,0.0,0.0, 1, 1, 1,15,0.0, 1, 1, 1,15
End of Data
 Number of Records Written=          99
