Program Version,EnergyPlus, Version 22.2.0-c249759bad, YMD=2023.09.01 20:33
1,5,Environment Title[],Latitude[deg],Longitude[deg],Time Zone[],Elevation[m]
2,8,Day of Simulation[],Month[],Day of Month[],DST Indicator[1=yes 0=no],Hour[],StartMinute[],EndMinute[],DayType
3,5,Cumulative Day of Simulation[],Month[],Day of Month[],DST Indicator[1=yes 0=no],DayType  ! When Daily Report Variables Requested
4,2,Cumulative Days of Simulation[],Month[]  ! When Monthly Report Variables Requested
5,1,Cumulative Days of Simulation[] ! When Run Period Report Variables Requested
6,1,Calendar Year of Simulation[] ! When Annual Report Variables Requested
581,11,LIVING,AFN Zone Infiltration Air Change Rate [ach] !RunPeriod [Value,Min,Month,Day,Hour,Minute,Max,Month,Day,Hour,Minute]
582,11,ATTIC,AFN Zone Infiltration Air Change Rate [ach] !RunPeriod [Value,Min,Month,Day,Hour,Minute,Max,Month,Day,Hour,Minute]
583,11,CRAWLSPACE,AFN Zone Infiltration Air Change Rate [ach] !RunPeriod [Value,Min,Month,Day,Hour,Minute,Max,Month,Day,Hour,Minute]
1038,11,Facility,Facility Heating Setpoint Not Met Time [hr] !RunPeriod [Value,Min,Month,Day,Hour,Minute,Max,Month,Day,Hour,Minute]
1039,11,Facility,Facility Cooling Setpoint Not Met Time [hr] !RunPeriod [Value,Min,Month,Day,Hour,Minute,Max,Month,Day,Hour,Minute]
1115,11,DX_HEATING_COIL,Heating Coil Heating Energy [J] !RunPeriod [Value,Min,Month,Day,Hour,Minute,Max,Month,Day,Hour,Minute]
1128,11,DX_HEATING_COIL,Heating Coil Electricity Energy [J] !RunPeriod [Value,Min,Month,Day,Hour,Minute,Max,Month,Day,Hour,Minute]
1153,11,DX_HEATING_COIL,Heating Coil Defrost Electricity Energy [J] !RunPeriod [Value,Min,Month,Day,Hour,Minute,Max,Month,Day,Hour,Minute]
1154,11,DX_HEATING_COIL,Heating Coil Crankcase Heater Electricity Energy [J] !RunPeriod [Value,Min,Month,Day,Hour,Minute,Max,Month,Day,Hour,Minute]
1155,11,HEATING_RESISTANCE_BACKUP,Heating Coil Heating Energy [J] !RunPeriod [Value,Min,Month,Day,Hour,Minute,Max,Month,Day,Hour,Minute]
1156,11,HEATING_RESISTANCE_BACKUP,Heating Coil Electricity Energy [J] !RunPeriod [Value,Min,Month,Day,Hour,Minute,Max,Month,Day,Hour,Minute]
1292,11,WATER HEATER,Water Heater Heat Loss Energy [J] !RunPeriod [Value,Min,Month,Day,Hour,Minute,Max,Month,Day,Hour,Minute]
1306,11,WATER HEATER,Water Heater Heating Energy [J] !RunPeriod [Value,Min,Month,Day,Hour,Minute,Max,Month,Day,Hour,Minute]
1307,11,WATER HEATER,Water Heater Unmet Demand Heat Transfer Energy [J] !RunPeriod [Value,Min,Month,Day,Hour,Minute,Max,Month,Day,Hour,Minute]
1308,11,WATER HEATER,Water Heater Electricity Energy [J] !RunPeriod [Value,Min,Month,Day,Hour,Minute,Max,Month,Day,Hour,Minute]
13,11,Electricity:Facility [J] !RunPeriod [Value,Min,Month,Day,Hour,Minute,Max,Month,Day,Hour,Minute]
1134,11,Heating:Electricity [J] !RunPeriod [Value,Min,Month,Day,Hour,Minute,Max,Month,Day,Hour,Minute]
1096,11,Cooling:Electricity [J] !RunPeriod [Value,Min,Month,Day,Hour,Minute,Max,Month,Day,Hour,Minute]
562,11,Fans:Electricity [J] !RunPeriod [Value,Min,Month,Day,Hour,Minute,Max,Month,Day,Hour,Minute]
1379,11,Pumps:Electricity [J] !RunPeriod [Value,Min,Month,Day,Hour,Minute,Max,Month,Day,Hour,Minute]
1326,11,WaterSystems:Electricity [J] !RunPeriod [Value,Min,Month,Day,Hour,Minute,Max,Month,Day,Hour,Minute]
61,11,InteriorLights:Electricity [J] !RunPeriod [Value,Min,Month,Day,Hour,Minute,Max,Month,Day,Hour,Minute]
1046,11,ExteriorLights:Electricity [J] !RunPeriod [Value,Min,Month,Day,Hour,Minute,Max,Month,Day,Hour,Minute]
134,11,InteriorEquipment:Electricity [J] !RunPeriod [Value,Min,Month,Day,Hour,Minute,Max,Month,Day,Hour,Minute]
170,11,gas_dryer:InteriorEquipment:Electricity [J] !RunPeriod [Value,Min,Month,Day,Hour,Minute,Max,Month,Day,Hour,Minute]
207,11,clotheswasher:InteriorEquipment:Electricity [J] !RunPeriod [Value,Min,Month,Day,Hour,Minute,Max,Month,Day,Hour,Minute]
244,11,dishwasher:InteriorEquipment:Electricity [J] !RunPeriod [Value,Min,Month,Day,Hour,Minute,Max,Month,Day,Hour,Minute]
281,11,refrigerator:InteriorEquipment:Electricity [J] !RunPeriod [Value,Min,Month,Day,Hour,Minute,Max,Month,Day,Hour,Minute]
318,11,electric_mels:InteriorEquipment:Electricity [J] !RunPeriod [Value,Min,Month,Day,Hour,Minute,Max,Month,Day,Hour,Minute]
355,11,NaturalGas:Facility [J] !RunPeriod [Value,Min,Month,Day,Hour,Minute,Max,Month,Day,Hour,Minute]
403,11,InteriorEquipment:NaturalGas [J] !RunPeriod [Value,Min,Month,Day,Hour,Minute,Max,Month,Day,Hour,Minute]
476,11,gas_dryer:InteriorEquipment:NaturalGas [J] !RunPeriod [Value,Min,Month,Day,Hour,Minute,Max,Month,Day,Hour,Minute]
513,11,gas_mels:InteriorEquipment:NaturalGas [J] !RunPeriod [Value,Min,Month,Day,Hour,Minute,Max,Month,Day,Hour,Minute]
End of Data Dictionary
1,EXTREME_WINTER,  37.36,-121.92,  -8.00,  15.50
5,7
1038,0.25,0.0, 1,15, 1,15,0.25, 1,20, 6,15
1039,0.0,0.0, 1,15, 1,15,0.0, 1,15, 1,15
581,0.20725928904466695,0.12017117621587088, 1,18,10,51,0.6509345870657416, 1,18,14,50
582,2.2871669338812786,0.0, 1,15, 4,50,12.961533872640508, 1,18,14,50
583,0.006082638052538649,0.0001105666135681736, 1,18, 2,60,0.0638452865437407, 1,20, 6, 7
1115,140743416.54020116,0.0, 1,15, 1,15,2379911.6327581066, 1,20, 6,60
1128,39966490.0763254,0.0, 1,15, 1,15,724339.4599295935, 1,20, 6,60
1153,1501547.3123682786,0.0, 1,15, 1,15,57729.03413473771, 1,20, 6,60
1154,62346808.9007104,0.0, 1,15,11,52,180000.0, 1,15, 1,15
1155,0.0,0.0, 1,15, 1,15,0.0, 1,15, 1,15
1156,0.0,0.0, 1,15, 1,15,0.0, 1,15, 1,15
1292,-23877516.258780885,-39524.65442960828, 1,19, 5,60,-3909.7481469225386, 1,20,11,31
1306,198424741.61554205,0.0, 1,15, 1,15,4050000.0, 1,16,20,30
1307,26226128.76201576,0.0, 1,15, 1,15,5053806.671949153, 1,21, 9,45
1308,198424741.61554205,0.0, 1,15, 1,15,4050000.0, 1,16,20,30
13,699353037.6440301,151703.1275401932, 1,18, 4,15,5668577.636209551, 1,21,20,15
61,301924526.02383536,88139.10953165221, 1,15, 1,15,1282023.4113694867, 1,15,20,15
134,70666020.44019976,63564.01800854099, 1,15, 4,15,156554.22484006523, 1,20,20,15
170,5241013.419656067,348.4159749238097, 1,15, 4,15,17476.39704006126, 1,20,12,15
207,6509451.13922267,815.2532113832032, 1,15, 3,15,22990.642799023623, 1,20,10,15
244,12749673.399825225,1521.856143006317, 1,15, 4,15,53038.631142310165, 1,20,20,15
281,46165882.481495745,59938.60262432081, 1,15, 5,15,81951.81706819107, 1,15,19,15
318,0.0,0.0, 1,15, 1,15,0.0, 1,15, 1,15
355,197687796.27748066,18561.32405820678, 1,15, 4,15,724774.895203776, 1,20,18,15
403,197687796.27748066,18561.32405820678, 1,15, 4,15,724774.895203776, 1,20,18,15
476,106772067.24485716,7098.072629279515, 1,15, 4,15,356036.3026282215, 1,20,12,15
513,0.0,0.0, 1,15, 1,15,0.0, 1,15, 1,15
562,6487222.563834879,0.0, 1,15, 1,15,94768.6694433826, 1,20, 6,15
1046,0.0,0.0, 1,15, 1,15,0.0, 1,15, 1,15
1096,18035680.71121518,0.0, 1,15, 1,15,275420.4385877412, 1,19,17,15
1134,103814846.28940408,0.0, 1,15,11,60,972142.7770103321, 1,20, 6,15
1326,198424741.61554202,0.0, 1,15, 1,15,4050000.0, 1,16,20,30
1379,0.0,0.0, 1,15, 1,15,0.0, 1,15, 1,15
1,EXTREME_SUMMER,  37.36,-121.92,  -8.00,  15.50
5,7
1038,0.0,0.0, 9, 2, 1,15,0.0, 9, 2, 1,15
1039,13.25,0.0, 9, 2, 1,15,0.25, 9, 6,15,15
581,0.19066957700783277,0.0, 9, 6,23, 3,0.5688979268064698, 9, 4,14,52
582,3.705694318641779,0.0, 9, 6, 8,52,12.570407136294428, 9, 5,15,52
583,0.02757317062488676,0.0, 9, 6,23, 3,0.06426590387560246, 9, 6,19,18
1115,0.0,0.0, 9, 2, 1,15,0.0, 9, 2, 1,15
1128,0.0,0.0, 9, 2, 1,15,0.0, 9, 2, 1,15
1153,0.0,0.0, 9, 2, 1,15,0.0, 9, 2, 1,15
1154,0.0,0.0, 9, 2, 1,15,0.0, 9, 2, 1,15
1155,0.0,0.0, 9, 2, 1,15,0.0, 9, 2, 1,15
1156,0.0,0.0, 9, 2, 1,15,0.0, 9, 2, 1,15
1292,-22126450.998606317,-34545.68443326392, 9, 6, 7,30,-2679.4378304656734, 9, 7, 9,16
1306,172850103.42228338,0.0, 9, 2, 1,15,3394639.0754347374, 9, 2, 7,45
1307,17190315.87458835,0.0, 9, 2, 1,15,2050786.440500402, 9, 8,19,52
1308,172850103.42228338,0.0, 9, 2, 1,15,3394639.0754347374, 9, 2, 7,45
13,893833295.1797315,151703.1275401932, 9, 2, 4,15,6469146.892382047, 9, 7,19,60
61,301924526.02383536,88139.10953165221, 9, 2, 1,15,1282023.4113694867, 9, 2,20,15
134,70666020.44019976,63564.01800854099, 9, 2, 4,15,156554.22484006523, 9, 7,20,15
170,5241013.419656067,348.4159749238097, 9, 2, 4,15,17476.39704006126, 9, 7,12,15
207,6509451.13922267,815.2532113832032, 9, 2, 3,15,22990.642799023623, 9, 7,10,15
244,12749673.399825225,1521.856143006317, 9, 2, 4,15,53038.631142310165, 9, 7,20,15
281,46165882.481495745,59938.60262432081, 9, 2, 5,15,81951.81706819107, 9, 2,19,15
318,0.0,0.0, 9, 2, 1,15,0.0, 9, 2, 1,15
355,197687796.27748066,18561.32405820678, 9, 2, 4,15,724774.895203776, 9, 7,18,15
403,197687796.27748066,18561.32405820678, 9, 2, 4,15,724774.895203776, 9, 7,18,15
476,106772067.24485716,7098.072629279515, 9, 2, 4,15,356036.3026282215, 9, 7,12,15
513,0.0,0.0, 9, 2, 1,15,0.0, 9, 2, 1,15
562,36039412.83557232,0.0, 9, 2, 2,30,125838.89554123329, 9, 6,15,15
1046,0.0,0.0, 9, 2, 1,15,0.0, 9, 2, 1,15
1096,312353232.4578407,0.0, 9, 2, 2,30,1327598.179745939, 9, 7,15,60
1134,0.0,0.0, 9, 2, 1,15,0.0, 9, 2, 1,15
1326,172850103.4222834,0.0, 9, 2, 1,15,4050000.0000000014, 9, 7, 9,60
1379,0.0,0.0, 9, 2, 1,15,0.0, 9, 2, 1,15
1,ANNUAL,  37.36,-121.92,  -8.00,  15.50
5,365
1038,2.0,0.0, 1, 1, 1,15,0.25, 1,20, 6,15
1039,227.25,0.0, 1, 1, 1,15,0.25, 1,15,14,30
581,0.20892275883415243,0.0, 4,22,23, 3,1.3160404627127693, 1, 1, 9,60
582,3.3052987147301165,0.0, 1, 2, 4,60,26.29784776164211, 1, 1, 9,60
583,0.018822330411504464,0.0, 4,22,23, 3,0.08741223842011103, 2,27, 6, 3
1115,1713678399.2904232,0.0, 1, 1, 1,15,3352982.5471872697,12,25, 6,45
1128,489699559.37830156,0.0, 1, 1, 1,15,1030704.8624382168,12,27, 6,60
1153,19499968.8800673,0.0, 1, 1, 1,15,95182.43423990298,12,25, 6,45
1154,865950898.2988408,0.0, 1, 1, 1,15,180000.0, 1, 2,23,45
1155,1643239.672087048,0.0, 1, 1, 1,15,499568.92751055234,12,27, 6, 5
1156,1643239.672087048,0.0, 1, 1, 1,15,499568.92751055234,12,27, 6, 5
1292,-1188250980.9007497,-39771.00355349709, 2,27, 2,45,-2332.3200739195418, 6,25, 9,46
1306,9711039104.97293,0.0, 1, 1, 1,15,4050000.0, 1, 1, 9,60
1307,1115386571.9102218,0.0, 1, 1, 1,15,9422022.312107956, 2,19,19,60
1308,9711039104.97293,0.0, 1, 1, 1,15,4050000.0, 1, 1, 9,60
13,41094360972.92511,151703.1275401932, 1, 2, 4,15,6730649.898254941, 7, 4,20,30
61,15743207428.383959,88139.10953165221, 1, 1, 1,15,1282023.4113694867, 1, 1,20,15
134,3685071073.4325233,63564.01800854099, 1, 2, 4,15,156554.22484006523, 1, 1,20,15
170,273393721.45532674,348.4159749238097, 1, 2, 4,15,17476.39704006126, 1, 1,12,15
207,339560869.0695816,815.2532113832032, 1, 2, 3,15,22990.642799023623, 1, 1,10,15
244,664895467.8009144,1521.856143006317, 1, 2, 4,15,53038.631142310165, 1, 1,20,15
281,2407221015.106824,59938.60262432081, 1, 1, 5,15,81951.81706819107, 1, 1,19,15
318,0.0,0.0, 1, 1, 1,15,0.0, 1, 1, 1,15
355,10310294493.051695,18561.32405820678, 1, 2, 4,15,724774.895203776, 1, 1,18,15
403,10310294493.051695,18561.32405820678, 1, 2, 4,15,724774.895203776, 1, 1,18,15
476,5569688622.066177,7098.072629279515, 1, 2, 4,15,356036.3026282215, 1, 1,12,15
513,0.0,0.0, 1, 1, 1,15,0.0, 1, 1, 1,15
562,1203048898.6476426,0.0, 1, 1, 1,15,125838.8955412333, 6, 9,16,30
1046,0.0,0.0, 1, 1, 1,15,0.0, 1, 1, 1,15
1096,9375200801.255695,0.0, 1, 1, 1,15,1329871.3761231028, 9, 7,15,60
1134,1376793666.2292953,0.0, 1, 1, 1,15,1753371.5376706515,12,27, 6,15
1326,9711039104.972977,0.0, 1, 1, 1,15,4050000.0000000014, 3,11, 9,60
1379,0.0,0.0, 1, 1, 1,15,0.0, 1, 1, 1,15
End of Data
 Number of Records Written=          99
