Program Version,EnergyPlus, Version 22.2.0-c249759bad, YMD=2023.09.01 20:31
1,5,Environment Title[],Latitude[deg],Longitude[deg],Time Zone[],Elevation[m]
2,8,Day of Simulation[],Month[],Day of Month[],DST Indicator[1=yes 0=no],Hour[],StartMinute[],EndMinute[],DayType
3,5,Cumulative Day of Simulation[],Month[],Day of Month[],DST Indicator[1=yes 0=no],DayType  ! When Daily Report Variables Requested
4,2,Cumulative Days of Simulation[],Month[]  ! When Monthly Report Variables Requested
5,1,Cumulative Days of Simulation[] ! When Run Period Report Variables Requested
6,1,Calendar Year of Simulation[] ! When Annual Report Variables Requested
581,11,LIVING,AFN Zone Infiltration Air Change Rate [ach] !RunPeriod [Value,Min,Month,Day,Hour,Minute,Max,Month,Day,Hour,Minute]
582,11,ATTIC,AFN Zone Infiltration Air Change Rate [ach] !RunPeriod [Value,Min,Month,Day,Hour,Minute,Max,Month,Day,Hour,Minute]
583,11,CRAWLSPACE,AFN Zone Infiltration Air Change Rate [ach] !RunPeriod [Value,Min,Month,Day,Hour,Minute,Max,Month,Day,Hour,Minute]
1038,11,Facility,Facility Heating Setpoint Not Met Time [hr] !RunPeriod [Value,Min,Month,Day,Hour,Minute,Max,Month,Day,Hour,Minute]
1039,11,Facility,Facility Cooling Setpoint Not Met Time [hr] !RunPeriod [Value,Min,Month,Day,Hour,Minute,Max,Month,Day,Hour,Minute]
1115,11,DX_HEATING_COIL,Heating Coil Heating Energy [J] !RunPeriod [Value,Min,Month,Day,Hour,Minute,Max,Month,Day,Hour,Minute]
1128,11,DX_HEATING_COIL,Heating Coil Electricity Energy [J] !RunPeriod [Value,Min,Month,Day,Hour,Minute,Max,Month,Day,Hour,Minute]
1153,11,DX_HEATING_COIL,Heating Coil Defrost Electricity Energy [J] !RunPeriod [Value,Min,Month,Day,Hour,Minute,Max,Month,Day,Hour,Minute]
1154,11,DX_HEATING_COIL,Heating Coil Crankcase Heater Electricity Energy [J] !RunPeriod [Value,Min,Month,Day,Hour,Minute,Max,Month,Day,Hour,Minute]
1155,11,HEATING_RESISTANCE_BACKUP,Heating Coil Heating Energy [J] !RunPeriod [Value,Min,Month,Day,Hour,Minute,Max,Month,Day,Hour,Minute]
1156,11,HEATING_RESISTANCE_BACKUP,Heating Coil Electricity Energy [J] !RunPeriod [Value,Min,Month,Day,Hour,Minute,Max,Month,Day,Hour,Minute]
1292,11,WATER HEATER,Water Heater Heat Loss Energy [J] !RunPeriod [Value,Min,Month,Day,Hour,Minute,Max,Month,Day,Hour,Minute]
1306,11,WATER HEATER,Water Heater Heating Energy [J] !RunPeriod [Value,Min,Month,Day,Hour,Minute,Max,Month,Day,Hour,Minute]
1307,11,WATER HEATER,Water Heater Unmet Demand Heat Transfer Energy [J] !RunPeriod [Value,Min,Month,Day,Hour,Minute,Max,Month,Day,Hour,Minute]
1308,11,WATER HEATER,Water Heater Electricity Energy [J] !RunPeriod [Value,Min,Month,Day,Hour,Minute,Max,Month,Day,Hour,Minute]
13,11,Electricity:Facility [J] !RunPeriod [Value,Min,Month,Day,Hour,Minute,Max,Month,Day,Hour,Minute]
1134,11,Heating:Electricity [J] !RunPeriod [Value,Min,Month,Day,Hour,Minute,Max,Month,Day,Hour,Minute]
1096,11,Cooling:Electricity [J] !RunPeriod [Value,Min,Month,Day,Hour,Minute,Max,Month,Day,Hour,Minute]
562,11,Fans:Electricity [J] !RunPeriod [Value,Min,Month,Day,Hour,Minute,Max,Month,Day,Hour,Minute]
1379,11,Pumps:Electricity [J] !RunPeriod [Value,Min,Month,Day,Hour,Minute,Max,Month,Day,Hour,Minute]
1326,11,WaterSystems:Electricity [J] !RunPeriod [Value,Min,Month,Day,Hour,Minute,Max,Month,Day,Hour,Minute]
61,11,InteriorLights:Electricity [J] !RunPeriod [Value,Min,Month,Day,Hour,Minute,Max,Month,Day,Hour,Minute]
1046,11,ExteriorLights:Electricity [J] !RunPeriod [Value,Min,Month,Day,Hour,Minute,Max,Month,Day,Hour,Minute]
134,11,InteriorEquipment:Electricity [J] !RunPeriod [Value,Min,Month,Day,Hour,Minute,Max,Month,Day,Hour,Minute]
170,11,gas_dryer:InteriorEquipment:Electricity [J] !RunPeriod [Value,Min,Month,Day,Hour,Minute,Max,Month,Day,Hour,Minute]
207,11,clotheswasher:InteriorEquipment:Electricity [J] !RunPeriod [Value,Min,Month,Day,Hour,Minute,Max,Month,Day,Hour,Minute]
244,11,dishwasher:InteriorEquipment:Electricity [J] !RunPeriod [Value,Min,Month,Day,Hour,Minute,Max,Month,Day,Hour,Minute]
281,11,refrigerator:InteriorEquipment:Electricity [J] !RunPeriod [Value,Min,Month,Day,Hour,Minute,Max,Month,Day,Hour,Minute]
318,11,electric_mels:InteriorEquipment:Electricity [J] !RunPeriod [Value,Min,Month,Day,Hour,Minute,Max,Month,Day,Hour,Minute]
355,11,NaturalGas:Facility [J] !RunPeriod [Value,Min,Month,Day,Hour,Minute,Max,Month,Day,Hour,Minute]
403,11,InteriorEquipment:NaturalGas [J] !RunPeriod [Value,Min,Month,Day,Hour,Minute,Max,Month,Day,Hour,Minute]
476,11,gas_dryer:InteriorEquipment:NaturalGas [J] !RunPeriod [Value,Min,Month,Day,Hour,Minute,Max,Month,Day,Hour,Minute]
513,11,gas_mels:InteriorEquipment:NaturalGas [J] !RunPeriod [Value,Min,Month,Day,Hour,Minute,Max,Month,Day,Hour,Minute]
End of Data Dictionary
1,EXTREME_WINTER,  45.63, -89.48,  -6.00, 495.00
5,7
1038,30.0,0.0, 1,18, 1,15,0.25, 1,18, 6,15
1039,0.0,0.0, 1,18, 1,15,0.0, 1,18, 1,15
581,0.48031719292142144,0.40826721538748806, 1,21,23, 5,0.7181472740483146, 1,22,15,60
582,4.60339996001628,0.29069340101982877, 1,21, 7,60,13.670472140859792, 1,22,15,52
583,0.06857026070042888,0.0572685048376345, 1,21,23, 5,0.07357704282308745, 1,19, 7,52
1115,1410264116.109689,352308.03507730213, 1,23,10,35,2730521.7461730563, 1,22,13,60
1128,650081810.2169151,163366.0385352849, 1,23,10,32,1073238.3452718942, 1,18,13,15
1153,1560750.9933014777,9.782264594734666, 1,21,11,32,12574.22870224316, 1,21,19,60
1154,7781.272086553384,0.0, 1,18, 1, 7,7781.272086553384, 1,21,23, 5
1155,3863238984.7554936,0.0, 1,21,23, 5,8406658.363357816, 1,19, 3,60
1156,3863238984.7554936,0.0, 1,21,23, 5,8406658.363357816, 1,19, 3,60
1292,-25618592.51761508,-42802.212272444995, 1,20, 8,60,-3853.92559183719, 1,23,10,32
1306,207363098.7881135,0.0, 1,18, 1, 7,4050000.0, 1,18, 8,45
1307,49083466.03736369,0.0, 1,18, 1, 7,5750499.066696031, 1,21,10,22
1308,207363098.7881135,0.0, 1,18, 1, 7,4050000.0, 1,18, 8,45
13,5176715124.202324,3055940.618046797, 1,23,15,60,14067862.712778233, 1,19, 7,30
61,301924526.02383536,88139.10953165221, 1,18, 1,15,1282023.4113694867, 1,18,20,15
134,70666020.44019976,63564.01800854099, 1,18, 4,15,156554.22484006523, 1,23,20,15
170,5241013.419656067,348.4159749238097, 1,18, 4,15,17476.39704006126, 1,23,12,15
207,6509451.13922267,815.2532113832032, 1,18, 3,15,22990.642799023623, 1,23,10,15
244,12749673.399825225,1521.856143006317, 1,18, 4,15,53038.631142310165, 1,23,20,15
281,46165882.481495745,59938.60262432081, 1,18, 5,15,81951.81706819107, 1,18,19,15
318,0.0,0.0, 1,18, 1,15,0.0, 1,18, 1,15
355,197687796.27748066,18561.32405820678, 1,18, 4,15,724774.895203776, 1,23,18,15
403,197687796.27748066,18561.32405820678, 1,18, 4,15,724774.895203776, 1,23,18,15
476,106772067.24485716,7098.072629279515, 1,18, 4,15,356036.3026282215, 1,23,12,15
513,0.0,0.0, 1,18, 1,15,0.0, 1,18, 1,15
562,81872151.71237795,116278.59445831669, 1,21,23,15,121841.83773162385, 1,18, 1,15
1046,0.0,0.0, 1,18, 1,15,0.0, 1,18, 1,15
1096,0.0,0.0, 1,18, 1,15,0.0, 1,18, 1,15
1134,4514889327.237796,2655947.925762373, 1,23,15,60,9365301.420146633, 1,21, 9,15
1326,207363098.78811347,0.0, 1,18, 1,15,4050000.0, 1,18, 8,45
1379,0.0,0.0, 1,18, 1,15,0.0, 1,18, 1,15
1,EXTREME_SUMMER,  45.63, -89.48,  -6.00, 495.00
5,7
1038,0.0,0.0, 7,24, 1,15,0.0, 7,24, 1,15
1039,37.25,0.0, 7,24, 1,15,0.25, 7,24,14,60
581,0.09575009992011543,0.0, 7,24,23, 3,0.8894198627589958, 7,26,16,46
582,2.1520449561748487,0.0, 7,27,21,48,27.041256771024234, 7,26,16,46
583,0.03136121493751195,0.0, 7,24,23, 3,0.07404129710687962, 7,26,16,46
1115,0.0,0.0, 7,24, 1,15,0.0, 7,24, 1,15
1128,0.0,0.0, 7,24, 1,15,0.0, 7,24, 1,15
1153,0.0,0.0, 7,24, 1,15,0.0, 7,24, 1,15
1154,0.0,0.0, 7,24, 1,15,0.0, 7,24, 1,15
1155,0.0,0.0, 7,24, 1,15,0.0, 7,24, 1,15
1156,0.0,0.0, 7,24, 1,15,0.0, 7,24, 1,15
1292,-21924198.03695417,-34316.69277231489, 7,26,22,30,-2208.6423881673045, 7,26,16,16
1306,166565929.6913195,0.0, 7,24, 1,15,2025000.0, 7,26,18,45
1307,28937778.42717749,0.0, 7,24, 1,15,2057943.417027229, 7,29,10,18
1308,166565929.6913195,0.0, 7,24, 1,15,2025000.0, 7,26,18,45
13,975511534.8585266,151703.1275401932, 7,27, 4,15,6552339.040855965, 7,29,19,30
61,301924526.02383536,88139.10953165221, 7,24, 1,15,1282023.4113694867, 7,24,20,15
134,70666020.44019976,63564.01800854099, 7,24, 4,15,156554.22484006523, 7,29,20,15
170,5241013.419656067,348.4159749238097, 7,24, 4,15,17476.39704006126, 7,29,12,15
207,6509451.13922267,815.2532113832032, 7,24, 3,15,22990.642799023623, 7,29,10,15
244,12749673.399825225,1521.856143006317, 7,24, 4,15,53038.631142310165, 7,29,20,15
281,46165882.481495745,59938.60262432081, 7,24, 5,15,81951.81706819107, 7,24,19,15
318,0.0,0.0, 7,24, 1,15,0.0, 7,24, 1,15
355,197687796.27748066,18561.32405820678, 7,24, 4,15,724774.895203776, 7,29,18,15
403,197687796.27748066,18561.32405820678, 7,24, 4,15,724774.895203776, 7,29,18,15
476,106772067.24485716,7098.072629279515, 7,24, 4,15,356036.3026282215, 7,29,12,15
513,0.0,0.0, 7,24, 1,15,0.0, 7,24, 1,15
562,44046922.48986904,0.0, 7,24, 6,30,121841.83773162388, 7,26,16,30
1046,0.0,0.0, 7,24, 1,15,0.0, 7,24, 1,15
1096,392308136.2133016,0.0, 7,24, 6,30,1227204.3646983784, 7,25,15,60
1134,0.0,0.0, 7,24, 1,15,0.0, 7,24, 1,15
1326,166565929.6913195,0.0, 7,24, 1,15,4050000.0, 7,24, 8,45
1379,0.0,0.0, 7,24, 1,15,0.0, 7,24, 1,15
1,ANNUAL,  45.63, -89.48,  -6.00, 495.00
5,365
1038,101.0,0.0, 1, 1, 1,15,0.25, 1, 3, 6,15
1039,164.5,0.0, 1, 1, 1,15,0.25, 3,31,15,30
581,0.2786169340678915,0.0, 7,24,23, 3,1.104011591972818, 3, 7, 7,50
582,3.569891754164964,0.0, 1, 7, 6, 5,33.614592945901464, 3, 8, 1,52
583,0.032191667229960384,0.0, 7,24,23, 3,0.08008786192043185, 3, 8,17,52
1115,40964927825.82909,0.0, 1, 1,23, 5,4212610.993978155, 3, 8, 1,30
1128,13841595064.035044,0.0, 1, 1,23, 5,1194025.3357027257, 3, 8, 1,30
1153,502141780.95195735,0.0, 1, 1,23, 5,133549.42984081636,12,15, 6,45
1154,1367103058.7328987,0.0, 1, 1, 1, 7,180000.0, 2,14,15,60
1155,22894257664.849976,0.0, 1, 1,13,22,8406658.363357816, 1,19, 3,15
1156,22894257664.849976,0.0, 1, 1,13,22,8406658.363357816, 1,19, 3,15
1292,-1253193828.8063297,-44154.09486108819, 1,30, 6,60,-2129.129696388067, 7,26,16,16
1306,9810579702.667322,0.0, 1, 1, 1, 7,4050000.0, 1, 1, 9,45
1307,2040640038.0061247,0.0, 1, 1, 1, 7,11740582.83369754, 2,18,10,30
1308,9810579702.667322,0.0, 1, 1, 1, 7,4050000.0, 1, 1, 9,45
13,74663671288.53322,151703.1275401932, 4,24, 4,15,14211308.426632, 1,31, 7,30
61,15743207428.383959,88139.10953165221, 1, 1, 1,15,1282023.4113694867, 1, 1,20,15
134,3685071073.4325233,63564.01800854099, 1, 2, 4,15,156554.22484006523, 1, 1,20,15
170,273393721.45532674,348.4159749238097, 1, 2, 4,15,17476.39704006126, 1, 1,12,15
207,339560869.0695816,815.2532113832032, 1, 2, 3,15,22990.642799023623, 1, 1,10,15
244,664895467.8009144,1521.856143006317, 1, 2, 4,15,53038.631142310165, 1, 1,20,15
281,2407221015.106824,59938.60262432081, 1, 1, 5,15,81951.81706819107, 1, 1,19,15
318,0.0,0.0, 1, 1, 1,15,0.0, 1, 1, 1,15
355,10310294493.051695,18561.32405820678, 1, 2, 4,15,724774.895203776, 1, 1,18,15
403,10310294493.051695,18561.32405820678, 1, 2, 4,15,724774.895203776, 1, 1,18,15
476,5569688622.066177,7098.072629279515, 1, 2, 4,15,356036.3026282215, 1, 1,12,15
513,0.0,0.0, 1, 1, 1,15,0.0, 1, 1, 1,15
562,2135702718.537903,0.0, 2,14,13,60,121841.83773162388, 7,26,16,30
1046,0.0,0.0, 1, 1, 1,15,0.0, 1, 1, 1,15
1096,4684012796.940129,0.0, 1, 1, 1,15,1246205.9810036016, 7, 8,14,60
1134,38605097568.569954,0.0, 2,16,14,30,9421139.994394813,12,31,13,45
1326,9810579702.667318,0.0, 1, 1, 1,15,4050000.0000000014, 8,28, 8,45
1379,0.0,0.0, 1, 1, 1,15,0.0, 1, 1, 1,15
End of Data
 Number of Records Written=          99
