Program Version,EnergyPlus, Version 22.2.0-c249759bad, YMD=2023.09.01 20:19
1,5,Environment Title[],Latitude[deg],Longitude[deg],Time Zone[],Elevation[m]
2,8,Day of Simulation[],Month[],Day of Month[],DST Indicator[1=yes 0=no],Hour[],StartMinute[],EndMinute[],DayType
3,5,Cumulative Day of Simulation[],Month[],Day of Month[],DST Indicator[1=yes 0=no],DayType  ! When Daily Report Variables Requested
4,2,Cumulative Days of Simulation[],Month[]  ! When Monthly Report Variables Requested
5,1,Cumulative Days of Simulation[] ! When Run Period Report Variables Requested
6,1,Calendar Year of Simulation[] ! When Annual Report Variables Requested
581,11,LIVING,AFN Zone Infiltration Air Change Rate [ach] !RunPeriod [Value,Min,Month,Day,Hour,Minute,Max,Month,Day,Hour,Minute]
582,11,ATTIC,AFN Zone Infiltration Air Change Rate [ach] !RunPeriod [Value,Min,Month,Day,Hour,Minute,Max,Month,Day,Hour,Minute]
583,11,CRAWLSPACE,AFN Zone Infiltration Air Change Rate [ach] !RunPeriod [Value,Min,Month,Day,Hour,Minute,Max,Month,Day,Hour,Minute]
1038,11,Facility,Facility Heating Setpoint Not Met Time [hr] !RunPeriod [Value,Min,Month,Day,Hour,Minute,Max,Month,Day,Hour,Minute]
1039,11,Facility,Facility Cooling Setpoint Not Met Time [hr] !RunPeriod [Value,Min,Month,Day,Hour,Minute,Max,Month,Day,Hour,Minute]
1115,11,DX_HEATING_COIL,Heating Coil Heating Energy [J] !RunPeriod [Value,Min,Month,Day,Hour,Minute,Max,Month,Day,Hour,Minute]
1128,11,DX_HEATING_COIL,Heating Coil Electricity Energy [J] !RunPeriod [Value,Min,Month,Day,Hour,Minute,Max,Month,Day,Hour,Minute]
1153,11,DX_HEATING_COIL,Heating Coil Defrost Electricity Energy [J] !RunPeriod [Value,Min,Month,Day,Hour,Minute,Max,Month,Day,Hour,Minute]
1154,11,DX_HEATING_COIL,Heating Coil Crankcase Heater Electricity Energy [J] !RunPeriod [Value,Min,Month,Day,Hour,Minute,Max,Month,Day,Hour,Minute]
1155,11,HEATING_RESISTANCE_BACKUP,Heating Coil Heating Energy [J] !RunPeriod [Value,Min,Month,Day,Hour,Minute,Max,Month,Day,Hour,Minute]
1156,11,HEATING_RESISTANCE_BACKUP,Heating Coil Electricity Energy [J] !RunPeriod [Value,Min,Month,Day,Hour,Minute,Max,Month,Day,Hour,Minute]
1292,11,WATER HEATER,Water Heater Heat Loss Energy [J] !RunPeriod [Value,Min,Month,Day,Hour,Minute,Max,Month,Day,Hour,Minute]
1306,11,WATER HEATER,Water Heater Heating Energy [J] !RunPeriod [Value,Min,Month,Day,Hour,Minute,Max,Month,Day,Hour,Minute]
1307,11,WATER HEATER,Water Heater Unmet Demand Heat Transfer Energy [J] !RunPeriod [Value,Min,Month,Day,Hour,Minute,Max,Month,Day,Hour,Minute]
1308,11,WATER HEATER,Water Heater Electricity Energy [J] !RunPeriod [Value,Min,Month,Day,Hour,Minute,Max,Month,Day,Hour,Minute]
13,11,Electricity:Facility [J] !RunPeriod [Value,Min,Month,Day,Hour,Minute,Max,Month,Day,Hour,Minute]
1134,11,Heating:Electricity [J] !RunPeriod [Value,Min,Month,Day,Hour,Minute,Max,Month,Day,Hour,Minute]
1096,11,Cooling:Electricity [J] !RunPeriod [Value,Min,Month,Day,Hour,Minute,Max,Month,Day,Hour,Minute]
562,11,Fans:Electricity [J] !RunPeriod [Value,Min,Month,Day,Hour,Minute,Max,Month,Day,Hour,Minute]
1379,11,Pumps:Electricity [J] !RunPeriod [Value,Min,Month,Day,Hour,Minute,Max,Month,Day,Hour,Minute]
1326,11,WaterSystems:Electricity [J] !RunPeriod [Value,Min,Month,Day,Hour,Minute,Max,Month,Day,Hour,Minute]
61,11,InteriorLights:Electricity [J] !RunPeriod [Value,Min,Month,Day,Hour,Minute,Max,Month,Day,Hour,Minute]
1046,11,ExteriorLights:Electricity [J] !RunPeriod [Value,Min,Month,Day,Hour,Minute,Max,Month,Day,Hour,Minute]
134,11,InteriorEquipment:Electricity [J] !RunPeriod [Value,Min,Month,Day,Hour,Minute,Max,Month,Day,Hour,Minute]
170,11,gas_dryer:InteriorEquipment:Electricity [J] !RunPeriod [Value,Min,Month,Day,Hour,Minute,Max,Month,Day,Hour,Minute]
207,11,clotheswasher:InteriorEquipment:Electricity [J] !RunPeriod [Value,Min,Month,Day,Hour,Minute,Max,Month,Day,Hour,Minute]
244,11,dishwasher:InteriorEquipment:Electricity [J] !RunPeriod [Value,Min,Month,Day,Hour,Minute,Max,Month,Day,Hour,Minute]
281,11,refrigerator:InteriorEquipment:Electricity [J] !RunPeriod [Value,Min,Month,Day,Hour,Minute,Max,Month,Day,Hour,Minute]
318,11,electric_mels:InteriorEquipment:Electricity [J] !RunPeriod [Value,Min,Month,Day,Hour,Minute,Max,Month,Day,Hour,Minute]
355,11,NaturalGas:Facility [J] !RunPeriod [Value,Min,Month,Day,Hour,Minute,Max,Month,Day,Hour,Minute]
403,11,InteriorEquipment:NaturalGas [J] !RunPeriod [Value,Min,Month,Day,Hour,Minute,Max,Month,Day,Hour,Minute]
476,11,gas_dryer:InteriorEquipment:NaturalGas [J] !RunPeriod [Value,Min,Month,Day,Hour,Minute,Max,Month,Day,Hour,Minute]
513,11,gas_mels:InteriorEquipment:NaturalGas [J] !RunPeriod [Value,Min,Month,Day,Hour,Minute,Max,Month,Day,Hour,Minute]
End of Data Dictionary
1,EXTREME_WINTER,  35.04,-106.62,  -7.00,1619.00
5,15
1038,0.25,0.0,12,22, 1,15,0.25, 1, 2, 6,15
1039,0.0,0.0,12,22, 1,15,0.0,12,22, 1,15
581,0.3532055389620198,0.19286245286908646,12,22, 5,60,1.0540868570378794,12,27, 7,52
582,3.714036281761522,0.0,12,22, 5,60,26.171843762566507,12,31,22,50
583,0.03975832325282926,0.0003222435861221242, 1, 3,16,56,0.11100526172623862,12,27, 7,52
1115,2752799288.4575305,0.0,12,22,23, 7,4927824.455887044,12,27, 8,45
1128,929015685.8569673,0.0,12,22,23, 7,1625818.5644412946, 1, 3, 8,45
1153,28023064.706311107,0.0,12,22,13, 7,99320.81208210204,12,27, 6,45
1154,149532264.05783945,0.0,12,23, 6, 5,180000.0,12,23,13,45
1155,143773607.64365244,0.0,12,22, 1,15,2751886.592401511, 1, 2, 6,45
1156,143773607.64365244,0.0,12,22, 1,15,2751886.592401511, 1, 2, 6,45
1292,-53981071.31056456,-39758.74427882784,12,22, 1,15,-3974.7314861144446, 1, 4,15, 6
1306,271345737.5211437,0.0,12,22, 1,15,4050000.0,12,24, 9,15
1307,48903145.169628404,0.0,12,22, 1,15,6748427.676500562, 1, 5, 6,60
1308,271345737.5211437,0.0,12,22, 1,15,4050000.0,12,24, 9,15
13,2421125929.71497,272017.0388981225,12,25,15,15,8421842.208439121, 1, 1, 8,30
61,646981127.1939323,88139.10953165221,12,22, 1,15,1282023.4113694867,12,22,20,15
134,151290040.75163814,63564.01800854099,12,22, 4,15,156554.22484006523,12,27,20,15
170,11185820.069951689,348.4159749238097,12,22, 4,15,17476.39704006126,12,27,12,15
207,13893028.5742839,815.2532113832032,12,22, 3,15,22990.642799023623,12,27,10,15
244,27284301.07562584,1521.856143006317,12,22, 4,15,53038.631142310165,12,27,20,15
281,98926891.03177746,59938.60262432081,12,22, 5,15,81951.81706819107,12,22,19,15
318,0.0,0.0,12,22, 1,15,0.0,12,22, 1,15
355,422701517.16107386,18561.32405820678,12,22, 4,15,724774.895203776,12,27,18,15
403,422701517.16107386,18561.32405820678,12,22, 4,15,724774.895203776,12,27,18,15
476,227882097.80545202,7098.072629279515,12,22, 4,15,356036.3026282215,12,27,12,15
513,0.0,0.0,12,22, 1,15,0.0,12,22, 1,15
562,100864080.6953879,0.0,12,22,23,15,173797.40188359004,12,27, 6,45
1046,0.0,0.0,12,22, 1,15,0.0,12,22, 1,15
1096,300321.2880951929,0.0,12,22, 1,15,68317.94931073024,12,25,17,15
1134,1250344622.2647705,0.0,12,23,16,45,4928874.69628563, 1, 2, 6,15
1326,271345737.5211435,0.0,12,22, 1,15,4050000.0,12,22, 7,15
1379,0.0,0.0,12,22, 1,15,0.0,12,22, 1,15
1,EXTREME_SUMMER,  35.04,-106.62,  -7.00,1619.00
5,7
1038,0.0,0.0, 7,13, 1,15,0.0, 7,13, 1,15
1039,6.0,0.0, 7,13, 1,15,0.25, 7,18,16,45
581,0.14548259218874507,0.0, 7,13,23, 3,0.7841594770075309, 7,18,22,52
582,3.6743976923923394,0.027525458324004902, 7,17, 6, 3,20.111465585753407, 7,13,15,46
583,0.043479818602725796,0.0, 7,14, 6, 7,0.09225611528016903, 7,18,19,47
1115,0.0,0.0, 7,13, 1,15,0.0, 7,13, 1,15
1128,0.0,0.0, 7,13, 1,15,0.0, 7,13, 1,15
1153,0.0,0.0, 7,13, 1,15,0.0, 7,13, 1,15
1154,0.0,0.0, 7,13, 1,15,0.0, 7,13, 1,15
1155,0.0,0.0, 7,13, 1,15,0.0, 7,13, 1,15
1156,0.0,0.0, 7,13, 1,15,0.0, 7,13, 1,15
1292,-22103118.76853033,-34347.872107630814, 7,18, 6,45,-2178.948587432373, 7,15,16,60
1306,91257719.25881377,0.0, 7,13, 1,15,3380872.4875366264, 7,13, 6,60
1307,8683344.624492243,0.0, 7,13, 1,15,3674688.0017579626, 7,13, 6,60
1308,91257719.25881377,0.0, 7,13, 1,15,3380872.4875366264, 7,13, 6,60
13,1072301973.4249382,175841.25032391073, 7,13, 4,60,5823526.5024106465, 7,19,13,60
61,301924526.02383536,88139.10953165221, 7,13, 1,15,1282023.4113694867, 7,13,20,15
134,70666020.44019976,63564.01800854099, 7,13, 4,15,156554.22484006523, 7,18,20,15
170,5241013.419656067,348.4159749238097, 7,13, 4,15,17476.39704006126, 7,18,12,15
207,6509451.13922267,815.2532113832032, 7,13, 3,15,22990.642799023623, 7,18,10,15
244,12749673.399825225,1521.856143006317, 7,13, 4,15,53038.631142310165, 7,18,20,15
281,46165882.481495745,59938.60262432081, 7,13, 5,15,81951.81706819107, 7,13,19,15
318,0.0,0.0, 7,13, 1,15,0.0, 7,13, 1,15
355,197687796.27748066,18561.32405820678, 7,13, 4,15,724774.895203776, 7,18,18,15
403,197687796.27748066,18561.32405820678, 7,13, 4,15,724774.895203776, 7,18,18,15
476,106772067.24485716,7098.072629279515, 7,13, 4,15,356036.3026282215, 7,18,12,15
513,0.0,0.0, 7,13, 1,15,0.0, 7,13, 1,15
562,56295396.379495725,2789.938618665236, 7,13, 4,60,173797.40188359004, 7,16,17,45
1046,0.0,0.0, 7,13, 1,15,0.0, 7,13, 1,15
1096,552158311.3225926,21348.18416505227, 7,13, 4,60,1986976.744130713, 7,18,16,60
1134,0.0,0.0, 7,13, 1,15,0.0, 7,13, 1,15
1326,91257719.25881378,0.0, 7,13, 1,15,4050000.0, 7,13, 7,15
1379,0.0,0.0, 7,13, 1,15,0.0, 7,13, 1,15
1,ANNUAL,  35.04,-106.62,  -7.00,1619.00
5,365
1038,0.25,0.0, 1, 1, 1,15,0.25,12,12,22,45
1039,50.25,0.0, 1, 1, 1,15,0.25, 1,15,15,15
581,0.2482586319830426,0.0, 7, 3, 6, 7,1.1611824759061804, 6, 6,23,52
582,4.236201224992078,0.0, 1, 1, 3,45,38.61318563206783, 4,29,17,52
583,0.026486078303599874,0.0, 7, 3, 6, 7,0.11132268166804313,12,27, 7,52
1115,11306008217.456202,0.0, 1, 1,14,47,4971121.49270797, 1,12, 6,45
1128,3707211838.953363,0.0, 1, 1,14,47,1659043.264761744, 3, 2, 6,45
1153,82311095.97130619,0.0, 1, 1,14,47,112633.39695179998,12,13, 6,45
1154,1789821975.2142367,0.0, 1, 1, 1,60,180000.0, 1, 1,15,15
1155,294790452.00507766,0.0, 1, 1, 1, 7,2557262.5322023504, 2,23, 6,45
1156,294790452.00507766,0.0, 1, 1, 1, 7,2557262.5322023504, 2,23, 6,45
1292,-1205306692.0457306,-39831.727300398124,11,25, 5,45,-2142.2146751319674, 8, 1,16,60
1306,5614897761.119753,0.0, 1, 1, 1, 7,4050000.0, 1, 2, 7,15
1307,821644335.51804,0.0, 1, 1, 1, 7,6986762.0573077565, 2, 6, 6,60
1308,5614897761.119753,0.0, 1, 1, 1, 7,4050000.0, 1, 2, 7,15
13,42961596399.22223,151703.1275401932, 3,14, 4,15,8632819.918573702, 1, 2, 7,15
61,15743207428.383959,88139.10953165221, 1, 1, 1,15,1282023.4113694867, 1, 1,20,15
134,3685071073.4325233,63564.01800854099, 1, 2, 4,15,156554.22484006523, 1, 1,20,15
170,273393721.45532674,348.4159749238097, 1, 2, 4,15,17476.39704006126, 1, 1,12,15
207,339560869.0695816,815.2532113832032, 1, 2, 3,15,22990.642799023623, 1, 1,10,15
244,664895467.8009144,1521.856143006317, 1, 2, 4,15,53038.631142310165, 1, 1,20,15
281,2407221015.106824,59938.60262432081, 1, 1, 5,15,81951.81706819107, 1, 1,19,15
318,0.0,0.0, 1, 1, 1,15,0.0, 1, 1, 1,15
355,10310294493.051695,18561.32405820678, 1, 2, 4,15,724774.895203776, 1, 1,18,15
403,10310294493.051695,18561.32405820678, 1, 2, 4,15,724774.895203776, 1, 1,18,15
476,5569688622.066177,7098.072629279515, 1, 2, 4,15,356036.3026282215, 1, 1,12,15
513,0.0,0.0, 1, 1, 1,15,0.0, 1, 1, 1,15
562,1630230537.332965,0.0, 1, 1,14,60,173797.4018835901, 7,15,16,60
1046,0.0,0.0, 1, 1, 1,15,0.0, 1, 1, 1,15
1096,10414054236.807034,0.0, 1, 1, 1,15,1984893.0534306904, 7,18,16,60
1134,5874135362.14397,0.0, 1, 9,15,60,4751434.894179732, 2,23, 6,15
1326,5614897761.119744,0.0, 1, 1, 1,15,4050000.0000000014, 9,13, 9,15
1379,0.0,0.0, 1, 1, 1,15,0.0, 1, 1, 1,15
End of Data
 Number of Records Written=          99
