Program Version,EnergyPlus, Version 22.2.0-c249759bad, YMD=2023.09.01 14:32
1,5,Environment Title[],Latitude[deg],Longitude[deg],Time Zone[],Elevation[m]
2,8,Day of Simulation[],Month[],Day of Month[],DST Indicator[1=yes 0=no],Hour[],StartMinute[],EndMinute[],DayType
3,5,Cumulative Day of Simulation[],Month[],Day of Month[],DST Indicator[1=yes 0=no],DayType  ! When Daily Report Variables Requested
4,2,Cumulative Days of Simulation[],Month[]  ! When Monthly Report Variables Requested
5,1,Cumulative Days of Simulation[] ! When Run Period Report Variables Requested
6,1,Calendar Year of Simulation[] ! When Annual Report Variables Requested
7,1,Environment,Site Outdoor Air Drybulb Temperature [C] !Hourly
545,1,LIVING,Zone Mean Air Temperature [C] !Hourly
546,1,ATTIC,Zone Mean Air Temperature [C] !Hourly
547,1,CRAWLSPACE,Zone Mean Air Temperature [C] !Hourly
548,1,FAN,Fan Electricity Rate [W] !Hourly
720,1,LIVING,Zone Predicted Sensible Load to Heating Setpoint Heat Transfer Rate [W] !Hourly
721,1,LIVING,Zone System Predicted Sensible Load to Heating Setpoint Heat Transfer Rate [W] !Hourly
784,1,ATTIC,Zone Predicted Sensible Load to Heating Setpoint Heat Transfer Rate [W] !Hourly
785,1,ATTIC,Zone System Predicted Sensible Load to Heating Setpoint Heat Transfer Rate [W] !Hourly
848,1,CRAWLSPACE,Zone Predicted Sensible Load to Heating Setpoint Heat Transfer Rate [W] !Hourly
849,1,CRAWLSPACE,Zone System Predicted Sensible Load to Heating Setpoint Heat Transfer Rate [W] !Hourly
1121,1,DX_HEATING_COIL,Heating Coil Heating Rate [W] !Hourly
1135,1,DX_HEATING_COIL,Heating Coil Electricity Rate [W] !Hourly
1161,1,DX_HEATING_COIL,Heating Coil Defrost Electricity Rate [W] !Hourly
1163,1,DX_HEATING_COIL,Heating Coil Crankcase Heater Electricity Rate [W] !Hourly
1166,1,HEATING_RESISTANCE_BACKUP,Heating Coil Heating Rate [W] !Hourly
1168,1,HEATING_RESISTANCE_BACKUP,Heating Coil Electricity Rate [W] !Hourly
End of Data Dictionary
1,EXTREME_WINTER,  44.47, -73.15,  -5.00, 104.00
2,1, 1,20, 0, 1, 0.00,60.00,Monday
7,-2.8
545,18.647266166051057
546,-3.6995850014908584
547,18.29820345028373
548,136.86786412613517
720,2977.172775523164
721,2977.172775523164
784,0.0
785,0.0
848,0.0
849,0.0
1121,3988.44532764492
1135,1248.9843567000723
1161,43.108676027613086
1163,0.0
1166,882.4854891897876
1168,882.4854891897876
2,1, 1,20, 0, 2, 0.00,60.00,Monday
7,-2.8
545,18.63895624750158
546,-1.9092714220649531
547,17.851638084770087
548,136.86786412613517
720,3223.6046713349606
721,3223.6046713349606
784,0.0
785,0.0
848,0.0
849,0.0
1121,3988.5892773557957
1135,1248.8145325788823
1161,43.108676027613086
1163,0.0
1166,891.501064840294
1168,891.501064840294
2,1, 1,20, 0, 3, 0.00,60.00,Monday
7,-3.0
545,18.61494592728616
546,-0.6758629758244608
547,17.673604021216413
548,136.86786412613517
720,3660.9701136540425
721,3660.9701136540425
784,0.0
785,0.0
848,0.0
849,0.0
1121,3980.310422555921
1135,1250.1789967223815
1161,40.02800331445122
1163,0.0
1166,1304.0979014136337
1168,1304.0979014136337
2,1, 1,20, 0, 4, 0.00,60.00,Monday
7,-4.0
545,18.60341504872459
546,-0.9130662829859064
547,17.454240160357415
548,136.86786412613517
720,3968.8362806103523
721,3968.8362806103523
784,0.0
785,0.0
848,0.0
849,0.0
1121,3930.0617631860246
1135,1258.1401820971982
1161,25.848145006567314
1163,0.0
1166,1647.8042954028215
1168,1647.8042954028215
2,1, 1,20, 0, 5, 0.00,60.00,Monday
7,-5.0
545,18.59279096985156
546,-1.4286243978097584
547,17.27578526558204
548,136.86786412613517
720,4154.152265916517
721,4154.152265916517
784,0.0
785,0.0
848,0.0
849,0.0
1121,3830.9411980886116
1135,1250.7931252885987
1161,23.087937916407846
1163,0.0
1166,1973.909116947143
1168,1973.909116947143
2,1, 1,20, 0, 6, 0.00,60.00,Monday
7,-6.0
545,19.33702458998398
546,-2.043714472201212
547,17.096234789766495
548,136.86786412613517
720,6225.436575648617
721,6225.436575648617
784,0.0
785,0.0
848,0.0
849,0.0
1121,3768.609424699359
1135,1255.4081537647799
1161,11.402186908508364
1163,0.0
1166,4496.83013329393
1168,4496.83013329393
2,1, 1,20, 0, 7, 0.00,60.00,Monday
7,-8.9
545,19.56858503855937
546,-4.798052685384182
547,16.960682582546386
548,136.86786412613517
720,6471.40238566498
721,6471.40238566498
784,0.0
785,0.0
848,0.0
849,0.0
1121,3475.5797677628284
1135,1254.064803059512
1161,2.1781803632406866
1163,0.0
1166,5200.72870838062
1168,5200.72870838062
2,1, 1,20, 0, 8, 0.00,60.00,Monday
7,-8.9
545,19.63543883922634
546,-5.1702630056867624
547,16.821014925915023
548,136.86786412613517
720,6160.95327480686
721,6160.95327480686
784,0.0
785,0.0
848,0.0
849,0.0
1121,3470.831744255635
1135,1259.3768400653876
1161,2.1781803632406866
1163,0.0
1166,5017.36821424417
1168,5017.36821424417
2,1, 1,20, 0, 9, 0.00,60.00,Monday
7,-10.6
545,19.663837921564717
546,-5.6086911753463
547,16.66779745283152
548,136.86786412613517
720,5901.816957516026
721,5901.816957516026
784,0.0
785,0.0
848,0.0
849,0.0
1121,3297.472896728077
1135,1243.376772192295
1161,0.7583247600548301
1163,0.0
1166,4936.392982304558
1168,4936.392982304558
2,1, 1,20, 0,10, 0.00,60.00,Monday
7,-11.1
545,19.654012726249572
546,-5.810934020057621
547,16.516124271067604
548,136.86786412613517
720,6341.709782031714
721,6341.709782031714
784,0.0
785,0.0
848,0.0
849,0.0
1121,3240.5618788734296
1135,1235.9787988641106
1161,2.338451107149855
1163,0.0
1166,5551.823249207972
1168,5551.823249207972
2,1, 1,20, 0,11, 0.00,60.00,Monday
7,-11.1
545,19.662707022075878
546,-5.731673309316493
547,16.37521081734434
548,136.86786412613517
720,6237.54527763019
721,6237.54527763019
784,0.0
785,0.0
848,0.0
849,0.0
1121,3240.9494051075217
1135,1235.5597315040172
1161,2.338451107149855
1163,0.0
1166,5461.292616035778
1168,5461.292616035778
2,1, 1,20, 0,12, 0.00,60.00,Monday
7,-11.1
545,19.674976308436214
546,-5.979131535040115
547,16.24130552640471
548,136.86786412613517
720,5971.558720783252
721,5971.558720783252
784,0.0
785,0.0
848,0.0
849,0.0
1121,3248.6609909662775
1135,1238.546719621173
1161,0.06593191729496757
1163,0.0
1166,5129.986437748337
1168,5129.986437748337
2,1, 1,20, 0,13, 0.00,60.00,Monday
7,-10.6
545,19.680039347208556
546,-5.62217283903044
547,16.11113844957774
548,136.86786412613517
720,5701.128378029769
721,5701.128378029769
784,0.0
785,0.0
848,0.0
849,0.0
1121,3299.7305003295874
1135,1244.4319261616076
1161,0.06593191729496757
1163,0.0
1166,4766.919282919895
1168,4766.919282919895
2,1, 1,20, 0,14, 0.00,60.00,Monday
7,-10.6
545,19.691492345675243
546,-5.097602434904052
547,15.978971656221397
548,136.86786412613517
720,5259.554182985561
721,5259.554182985561
784,0.0
785,0.0
848,0.0
849,0.0
1121,3299.780880843486
1135,1244.3769954979107
1161,0.06593191729496757
1163,0.0
1166,4233.932719127707
1168,4233.932719127707
2,1, 1,20, 0,15, 0.00,60.00,Monday
7,-10.0
545,19.716737258901055
546,-4.566382819296223
547,15.86813147356769
548,136.86786412613517
720,4262.2814378977
721,4262.2814378977
784,0.0
785,0.0
848,0.0
849,0.0
1121,3361.68779916281
1135,1251.3581680176674
1161,0.06593191729496757
1163,0.0
1166,2968.1028882526316
1168,2968.1028882526316
2,1, 1,20, 0,16, 0.00,60.00,Monday
7,-10.6
545,19.717645383098503
546,-5.131104930524898
547,15.7558470684008
548,136.86786412613517
720,3852.8241162429076
721,3852.8241162429076
784,0.0
785,0.0
848,0.0
849,0.0
1121,3299.2847155621353
1135,1244.9179393639565
1161,0.06593191729496757
1163,0.0
1166,2504.1586319042704
1168,2504.1586319042704
2,1, 1,20, 0,17, 0.00,60.00,Monday
7,-10.6
545,19.700332943470336
546,-5.706655941453375
547,15.669563441940182
548,136.86786412613517
720,3890.9505893219757
721,3890.9505893219757
784,0.0
785,0.0
848,0.0
849,0.0
1121,3299.401224493558
1135,1244.7909221663576
1161,0.06593191729496757
1163,0.0
1166,2558.203646827303
1168,2558.203646827303
2,1, 1,20, 0,18, 0.00,60.00,Monday
7,-12.2
545,19.66946801313775
546,-6.870021219910569
547,15.572252252521931
548,136.86786412613517
720,4678.387808827578
721,4678.387808827578
784,0.0
785,0.0
848,0.0
849,0.0
1121,3137.7307620892543
1135,1225.6215803665468
1161,0.06593191729496757
1163,0.0
1166,3670.2417220642324
1168,3670.2417220642324
2,1, 1,20, 0,19, 0.00,60.00,Monday
7,-12.8
545,19.683014803173304
546,-7.512066838094063
547,15.484811464396746
548,136.86786412613517
720,4295.984396726755
721,4295.984396726755
784,0.0
785,0.0
848,0.0
849,0.0
1121,3078.863787035396
1135,1217.7132463528328
1161,0.06593191729496757
1163,0.0
1166,3359.3187435300692
1168,3359.3187435300692
2,1, 1,20, 0,20, 0.00,60.00,Monday
7,-12.8
545,19.682502544229667
546,-7.922206915072545
547,15.383249199668034
548,136.86786412613517
720,4351.919209515903
721,4351.919209515903
784,0.0
785,0.0
848,0.0
849,0.0
1121,3078.686780610131
1135,1217.898941711933
1161,0.06593191729496757
1163,0.0
1166,3459.365174898087
1168,3459.365174898087
2,1, 1,20, 0,21, 0.00,60.00,Monday
7,-12.8
545,19.675612463368598
546,-8.143454741945726
547,15.27120141602602
548,136.86786412613517
720,4649.318599145006
721,4649.318599145006
784,0.0
785,0.0
848,0.0
849,0.0
1121,3078.828594921329
1135,1217.750167058066
1161,0.06593191729496757
1163,0.0
1166,3834.9833099270872
1168,3834.9833099270872
2,1, 1,20, 0,22, 0.00,60.00,Monday
7,-13.3
545,19.68050420249607
546,-8.187934629953215
547,15.153170980673734
548,136.86786412613517
720,4617.789026593144
721,4617.789026593144
784,0.0
785,0.0
848,0.0
849,0.0
1121,3029.921464061708
1135,1211.47281083754
1161,0.06593191729496757
1163,0.0
1166,3868.164207681428
1168,3868.164207681428
2,1, 1,20, 0,23, 0.00,60.00,Monday
7,-13.3
545,18.914017428665666
546,-8.43348383577977
547,15.031682469284753
548,136.86786412613517
720,3841.1233524275995
721,3841.1233524275995
784,0.0
785,0.0
848,0.0
849,0.0
1121,3029.9617882140856
1135,1211.4309154928023
1161,0.06593191729496757
1163,0.0
1166,2975.0016243872656
1168,2975.0016243872656
2,1, 1,20, 0,24, 0.00,60.00,Monday
7,-13.9
545,18.675851753380307
546,-8.706809362159419
547,14.870923215678616
548,136.86786412613517
720,4273.238872587484
721,4273.238872587484
784,0.0
785,0.0
848,0.0
849,0.0
1121,2987.435738716669
1135,1187.7905366283637
1161,0.06593191729496757
1163,0.0
1166,3456.583415535687
1168,3456.583415535687
2,2, 1,21, 0, 1, 0.00,60.00,Tuesday
7,-14.4
545,18.581821623877744
546,-8.292688897462371
547,14.734304260633348
548,136.86786412613517
720,5080.440295538505
721,5080.440295538505
784,0.0
785,0.0
848,0.0
849,0.0
1121,2939.859131693847
1135,1174.9572518787165
1161,1.4872896510964193
1163,0.0
1166,4449.939010994786
1168,4449.939010994786
2,2, 1,21, 0, 2, 0.00,60.00,Tuesday
7,-14.4
545,18.561594634148115
546,-8.33345430336611
547,14.59816031673923
548,136.86786412613517
720,5442.766884017623
721,5442.766884017623
784,0.0
785,0.0
848,0.0
849,0.0
1121,2941.919787305898
1135,1172.8421696147414
1161,1.4872896510964193
1163,0.0
1166,4867.766569123246
1168,4867.766569123246
2,2, 1,21, 0, 3, 0.00,60.00,Tuesday
7,-15.6
545,18.55619046081079
546,-8.259129079652658
547,14.4585297357948
548,136.86786412613517
720,5631.471222482867
721,5631.471222482867
784,0.0
785,0.0
848,0.0
849,0.0
1121,2830.8967373254986
1135,1158.9131632251137
1161,0.7636205774013
1163,0.0
1166,5205.14065119777
1168,5205.14065119777
2,2, 1,21, 0, 4, 0.00,60.00,Tuesday
7,-16.1
545,18.5551238590379
546,-8.581323885970463
547,14.325658937657934
548,136.86786412613517
720,5755.207501615345
721,5755.207501615345
784,0.0
785,0.0
848,0.0
849,0.0
1121,2786.5513091556727
1135,1153.4394601221127
1161,0.06593191729496757
1163,0.0
1166,5395.402029517558
1168,5395.402029517558
2,2, 1,21, 0, 5, 0.00,60.00,Tuesday
7,-16.1
545,18.55525930847722
546,-8.841427841759982
547,14.19630076823232
548,136.86786412613517
720,5765.445346491128
721,5765.445346491128
784,0.0
785,0.0
848,0.0
849,0.0
1121,2786.7256467024754
1135,1153.2668260708747
1161,0.06593191729496757
1163,0.0
1166,5428.457470260859
1168,5428.457470260859
2,2, 1,21, 0, 6, 0.00,60.00,Tuesday
7,-16.7
545,19.33805077079968
546,-8.617692965271361
547,14.068020670118685
548,136.86786412613517
720,6541.952138330285
721,6541.952138330285
784,0.0
785,0.0
848,0.0
849,0.0
1121,2719.643823182906
1135,1140.8265561361181
1161,4.18293970258474
1163,0.0
1166,6403.796714373726
1168,6403.796714373726
2,2, 1,21, 0, 7, 0.00,60.00,Tuesday
7,-17.8
545,19.565775297239714
546,-9.752486359682031
547,13.968274509345493
548,136.86786412613517
720,6580.559363896849
721,6580.559363896849
784,0.0
785,0.0
848,0.0
849,0.0
1121,2602.9355499580515
1135,1140.8314999792979
1161,4.856736923546974
1163,0.0
1166,6639.208994571074
1168,6639.208994571074
2,2, 1,21, 0, 8, 0.00,60.00,Tuesday
7,-17.8
545,19.632982768421524
546,-9.800138209091733
547,13.855008070310003
548,136.86786412613517
720,6270.560374895895
721,6270.560374895895
784,0.0
785,0.0
848,0.0
849,0.0
1121,2598.497245734384
1135,1144.9919300609702
1161,4.856736923546974
1163,0.0
1166,6366.619091883726
1168,6366.619091883726
2,2, 1,21, 0, 9, 0.00,60.00,Tuesday
7,-18.0
545,19.67712643322054
546,-9.270812105249622
547,13.742184485768675
548,136.86786412613517
720,5357.321486416204
721,5357.321486416204
784,0.0
785,0.0
848,0.0
849,0.0
1121,2571.4512730230103
1135,1139.9208232145577
1161,7.802635139980954
1163,0.0
1166,5347.7338144856385
1168,5347.7338144856385
2,2, 1,21, 0,10, 0.00,60.00,Tuesday
7,-15.6
545,19.717920335971506
546,-5.801144210752993
547,13.664665219001314
548,136.86786412613517
720,3955.2386661916116
721,3955.2386661916116
784,0.0
785,0.0
848,0.0
849,0.0
1121,2803.746764470202
1135,1178.0542224502556
1161,2.6509517893018306
1163,0.0
1166,3452.4125600053007
1168,3452.4125600053007
2,2, 1,21, 0,11, 0.00,60.00,Tuesday
7,-15.6
545,19.737812867192886
546,-3.0172732469349652
547,13.590238263175678
548,136.86786412613517
720,3353.751469865152
721,3353.751469865152
784,0.0
785,0.0
848,0.0
849,0.0
1121,2803.0109427616685
1135,1178.781674997995
1161,2.6509517893018306
1163,0.0
1166,2557.0019424580664
1168,2557.0019424580664
2,2, 1,21, 0,12, 0.00,60.00,Tuesday
7,-12.8
545,19.758235033700476
546,6.113054824964255
547,13.569786527387361
548,136.86786412613517
720,2454.9780274592886
721,2454.9780274592886
784,0.0
785,0.0
848,0.0
849,0.0
1121,3079.796578890899
1135,1216.7344432565753
1161,0.06593191729496757
1163,0.0
1166,1065.43235111773
1168,1065.43235111773
2,2, 1,21, 0,13, 0.00,60.00,Tuesday
7,-11.1
545,19.787485234652586
546,8.372227391730005
547,13.561851960046306
548,136.86786412613517
720,2152.9145377685636
721,2152.9145377685636
784,0.0
785,0.0
848,0.0
849,0.0
1121,3249.9952506528402
1135,1237.1035012735902
1161,0.06593191729496757
1163,0.0
1166,82.22826929786333
1168,82.22826929786333
2,2, 1,21, 0,14, 0.00,60.00,Tuesday
7,-11.1
545,19.857322403791244
546,9.704576945287139
547,13.551327886075319
548,114.77012439010451
720,1775.74910630235
721,1775.74910630235
784,0.0
785,0.0
848,0.0
849,0.0
1121,2671.3579738807052
1135,1038.0605218792637
1161,0.05528835063542203
1163,32.28653767773242
1166,0.0
1168,0.0
2,2, 1,21, 0,15, 0.00,60.00,Tuesday
7,-10.6
545,19.905440540057903
546,8.941894094368354
547,13.556224724975685
548,83.36101540511982
720,1295.9698978295473
721,1295.9698978295473
784,0.0
785,0.0
848,0.0
849,0.0
1121,1916.5669035658036
1135,758.5773541302401
1161,0.040157561696727205
1163,78.18475984227948
1166,0.0
1168,0.0
2,2, 1,21, 0,16, 0.00,60.00,Tuesday
7,-10.0
545,19.881601171884167
546,6.929639942448201
547,13.579742874226174
548,62.84782812161958
720,979.7570866290571
721,979.7570866290571
784,0.0
785,0.0
848,0.0
849,0.0
1121,1446.0498533927664
1135,575.6482218699423
1161,0.030275693169975807
1163,108.16073788806176
1166,0.0
1168,0.0
2,2, 1,21, 0,17, 0.00,60.00,Tuesday
7,-10.0
545,19.74755765370413
546,3.6967558373828053
547,13.625677793836951
548,67.87355844306843
720,1077.6420367187038
721,1077.6420367187038
784,0.0
785,0.0
848,0.0
849,0.0
1121,1568.5927635423127
1135,621.4060686730766
1161,0.032696738843326925
1163,100.81666001900847
1166,0.0
1168,0.0
2,2, 1,21, 0,18, 0.00,60.00,Tuesday
7,-11.7
545,19.440310638773774
546,0.43217909587375225
547,13.68555130757541
548,119.57896724208715
720,1866.403385907608
721,1866.403385907608
784,0.0
785,0.0
848,0.0
849,0.0
1121,2743.5480289707025
1135,1074.727304893485
1161,0.05760499345249917
1163,25.259158793199465
1166,0.0
1168,0.0
2,2, 1,21, 0,19, 0.00,60.00,Tuesday
7,-12.8
545,19.494852467518637
546,-3.2902940715941105
547,13.686891761288704
548,136.86786412613517
720,2372.9553665054527
721,2372.9553665054527
784,0.0
785,0.0
848,0.0
849,0.0
1121,3074.8107192612847
1135,1206.051030207453
1161,3.4749070876209327
1163,0.0
1166,616.3949376442843
1168,616.3949376442843
2,2, 1,21, 0,20, 0.00,60.00,Tuesday
7,-12.8
545,19.592136169010267
546,-4.737654662880995
547,13.680748671033022
548,136.86786412613517
720,2543.034696559098
721,2543.034696559098
784,0.0
785,0.0
848,0.0
849,0.0
1121,3073.6833248058883
1135,1207.2368771312824
1161,3.4749070876209327
1163,0.0
1166,1059.1061244186687
1168,1059.1061244186687
2,2, 1,21, 0,21, 0.00,60.00,Tuesday
7,-13.9
545,19.641345722283756
546,-6.0648426595963
547,13.640686849804743
548,136.86786412613517
720,2947.224124297445
721,2947.224124297445
784,0.0
785,0.0
848,0.0
849,0.0
1121,2953.5243124692424
1135,1191.7868795646066
1161,6.9832932079099095
1163,0.0
1166,1763.2346853324525
1168,1763.2346853324525
2,2, 1,21, 0,22, 0.00,60.00,Tuesday
7,-13.3
545,19.664467578420233
546,-6.627621735756755
547,13.596559982230568
548,136.86786412613517
720,3263.162456519778
721,3263.162456519778
784,0.0
785,0.0
848,0.0
849,0.0
1121,3008.221904598189
1135,1199.0370568004776
1161,7.715603056374925
1163,0.0
1166,2168.270601298441
1168,2168.270601298441
2,2, 1,21, 0,23, 0.00,60.00,Tuesday
7,-13.3
545,18.933360614478943
546,-7.025161823950498
547,13.530810869839438
548,136.86786412613517
720,2700.8930597657836
721,2700.8930597657836
784,0.0
785,0.0
848,0.0
849,0.0
1121,3007.8003585785295
1135,1199.4754906083913
1161,7.715603056374925
1163,0.0
1166,1568.8987946558445
1168,1568.8987946558445
2,2, 1,21, 0,24, 0.00,60.00,Tuesday
7,-12.8
545,18.695603315037165
546,-6.290729991768724
547,13.426748110758963
548,136.86786412613517
720,3136.9766296934868
721,3136.9766296934868
784,0.0
785,0.0
848,0.0
849,0.0
1121,3066.8565392904898
1135,1187.7280650018508
1161,9.179500319006307
1163,0.0
1166,1974.652059843208
1168,1974.652059843208
2,3, 1,22, 0, 1, 0.00,60.00,Wednesday
7,-12.2
545,18.615062719021104
546,-5.964886258662361
547,13.343328624739346
548,136.86786412613517
720,3634.453810879524
721,3634.453810879524
784,0.0
785,0.0
848,0.0
849,0.0
1121,3130.846042351763
1135,1189.1982611172907
1161,9.198416078971583
1163,0.0
1166,2444.7448868183374
1168,2444.7448868183374
2,3, 1,22, 0, 2, 0.00,60.00,Wednesday
7,-12.2
545,18.586480049700626
546,-5.78609883357509
547,13.25347227687249
548,136.86786412613517
720,4043.5639397975356
721,4043.5639397975356
784,0.0
785,0.0
848,0.0
849,0.0
1121,3132.5781772125424
1135,1187.3452071005815
1161,9.198416078971583
1163,0.0
1166,2903.779763126758
1168,2903.779763126758
2,3, 1,22, 0, 3, 0.00,60.00,Wednesday
7,-12.2
545,18.578056992564658
546,-5.570890324183014
547,13.16555638340172
548,136.86786412613517
720,4300.164738863259
721,4300.164738863259
784,0.0
785,0.0
848,0.0
849,0.0
1121,3141.75104636193
1135,1189.8285256049273
1161,6.6400982394204675
1163,0.0
1166,3191.273543797358
1168,3191.273543797358
2,3, 1,22, 0, 4, 0.00,60.00,Wednesday
7,-11.7
545,18.578464302900596
546,-5.305337897478957
547,13.082404422178564
548,136.86786412613517
720,4402.03888083791
721,4402.03888083791
784,0.0
785,0.0
848,0.0
849,0.0
1121,3189.8517350343045
1135,1194.2853072012358
1161,7.254492409802965
1163,0.0
1166,3258.6361628851973
1168,3258.6361628851973
2,3, 1,22, 0, 5, 0.00,60.00,Wednesday
7,-11.7
545,18.58077013983538
546,-5.126488943833515
547,12.99821534587403
548,136.86786412613517
720,4420.858880156726
721,4420.858880156726
784,0.0
785,0.0
848,0.0
849,0.0
1121,3189.9419594405094
1135,1194.18792918394
1161,7.254492409802965
1163,0.0
1166,3271.876570070295
1168,3271.876570070295
2,3, 1,22, 0, 6, 0.00,60.00,Wednesday
7,-11.7
545,19.347739357940647
546,-5.291407195886668
547,12.917135638273606
548,136.86786412613517
720,5618.836576897398
721,5618.836576897398
784,0.0
785,0.0
848,0.0
849,0.0
1121,3156.951775872649
1135,1181.7567590827084
1161,17.056417729257028
1163,0.0
1166,4685.24112861803
1168,4685.24112861803
2,3, 1,22, 0, 7, 0.00,60.00,Wednesday
7,-11.7
545,19.58616120750286
546,-5.328985840590576
547,12.873105581449199
548,136.86786412613517
720,5420.809003590855
721,5420.809003590855
784,0.0
785,0.0
848,0.0
849,0.0
1121,3153.363355659581
1135,1202.8972516068852
1161,13.524997978288372
1163,0.0
1166,4554.791766575443
1168,4554.791766575443
2,3, 1,22, 0, 8, 0.00,60.00,Wednesday
7,-11.7
545,19.65956160603443
546,-5.580907004425979
547,12.80381724101571
548,136.86786412613517
720,5135.26149038246
721,5135.26149038246
784,0.0
785,0.0
848,0.0
849,0.0
1121,3148.5320351569376
1135,1208.0825708920474
1161,13.524997978288372
1163,0.0
1166,4256.1557771309945
1168,4256.1557771309945
2,3, 1,22, 0, 9, 0.00,60.00,Wednesday
7,-11.1
545,19.707163999230374
546,-2.5983596963304927
547,12.743320402527063
548,136.86786412613517
720,3947.5493650411536
721,3947.5493650411536
784,0.0
785,0.0
848,0.0
849,0.0
1121,3225.730906284052
1135,1223.5303812704626
1161,8.053395481372792
1163,0.0
1166,2816.749199865102
1168,2816.749199865102
2,3, 1,22, 0,10, 0.00,60.00,Wednesday
7,-8.9
545,19.73694761504334
546,0.5066876943391683
547,12.702606433765416
548,136.86786412613517
720,3251.8047993504442
721,3251.8047993504442
784,0.0
785,0.0
848,0.0
849,0.0
1121,3473.033193215998
1135,1257.0094684892722
1161,2.160594360972824
1163,0.0
1166,1603.360134771848
1168,1603.360134771848
2,3, 1,22, 0,11, 0.00,60.00,Wednesday
7,-8.9
545,19.7413454239843
546,3.911349191869345
547,12.662201512962124
548,136.86786412613517
720,3067.49463503432
721,3067.49463503432
784,0.0
785,0.0
848,0.0
849,0.0
1121,3472.4567965768556
1135,1257.6542797879831
1161,2.160594360972824
1163,0.0
1166,1208.326465397507
1168,1208.326465397507
2,3, 1,22, 0,12, 0.00,60.00,Wednesday
7,-6.7
545,19.819789588475356
546,8.373360371915883
547,12.64427084036382
548,127.62576282557792
720,2155.6526510854837
721,2155.6526510854837
784,0.0
785,0.0
848,0.0
849,0.0
1121,3437.734508176413
1135,1198.1676952232015
1161,0.06148081048493873
1163,13.502130660376178
1166,0.0
1168,0.0
2,3, 1,22, 0,13, 0.00,60.00,Wednesday
7,-6.7
545,19.917488680851402
546,12.24444634234463
547,12.601915091408708
548,94.57202294541362
720,1633.1924780991212
721,1633.1924780991212
784,0.0
785,0.0
848,0.0
849,0.0
1121,2472.919146094336
1135,889.3308297361078
1161,0.04555792293186163
1163,61.80313025618942
1166,0.0
1168,0.0
2,3, 1,22, 0,14, 0.00,60.00,Wednesday
7,-6.7
545,19.896037354347026
546,12.985307230491692
547,12.587879672874134
548,61.1850849901672
720,1086.294449686242
721,1086.294449686242
784,0.0
785,0.0
848,0.0
849,0.0
1121,1553.8087159726615
1135,576.5219818425749
1161,0.029474524568853397
1163,110.59102850903102
1166,0.0
1168,0.0
2,3, 1,22, 0,15, 0.00,60.00,Wednesday
7,-5.0
545,19.837749928412283
546,10.385476244832821
547,12.617977952512907
548,47.701986171424565
720,935.2819129563086
721,935.2819129563086
784,0.0
785,0.0
848,0.0
849,0.0
1121,1259.0022866986878
1135,455.8748762284081
1161,0.022979286779157167
1163,130.29389187530538
1166,0.0
1168,0.0
2,3, 1,22, 0,16, 0.00,60.00,Wednesday
7,-6.1
545,19.54351691252045
546,5.394895808467907
547,12.684993790602235
548,62.48904484219084
720,1196.6594626820824
721,1196.6594626820824
784,0.0
785,0.0
848,0.0
849,0.0
1121,1601.5059131876142
1135,586.242590628057
1161,4.467318444834155
1163,108.47939676224581
1166,0.0
1168,0.0
2,3, 1,22, 0,17, 0.00,60.00,Wednesday
7,-6.1
545,19.59702402603559
546,2.480817699714936
547,12.748649712301088
548,82.53258418683441
720,1534.6944922385392
721,1534.6944922385392
784,0.0
785,0.0
848,0.0
849,0.0
1121,2155.3950431547614
1135,769.8835035260988
1161,5.900201098392092
1163,79.12436276546862
1166,0.0
1168,0.0
2,3, 1,22, 0,18, 0.00,60.00,Wednesday
7,-8.9
545,19.310793196641647
546,-0.3196881930123669
547,12.819676776537019
548,126.42154883346437
720,2104.730467547405
721,2104.730467547405
784,0.0
785,0.0
848,0.0
849,0.0
1121,3135.3164150800676
1135,1147.413359826187
1161,14.920383524058359
1163,14.349938490072024
1166,0.0
1168,0.0
2,3, 1,22, 0,19, 0.00,60.00,Wednesday
7,-9.4
545,19.452687483434133
546,-1.3579825341546015
547,12.823029966823597
548,136.86786412613517
720,2154.05381445246
721,2154.05381445246
784,0.0
785,0.0
848,0.0
849,0.0
1121,3382.224808474581
1135,1225.4389532282644
1161,15.042632310550909
1163,0.0
1166,72.45239464652241
1168,72.45239464652241
2,3, 1,22, 0,20, 0.00,60.00,Wednesday
7,-9.4
545,19.597925929404692
546,-2.1564403802046916
547,12.825308916869586
548,136.86786412613517
720,2364.5268740156644
721,2364.5268740156644
784,0.0
785,0.0
848,0.0
849,0.0
1121,3379.284553262901
1135,1228.7100084425242
1161,15.042632310550909
1163,0.0
1166,470.7253751488404
1168,470.7253751488404
2,3, 1,22, 0,21, 0.00,60.00,Wednesday
7,-10.6
545,19.65964722481526
546,-2.43035911365515
547,12.798501937417416
548,136.86786412613517
720,2641.3791000588117
721,2641.3791000588117
784,0.0
785,0.0
848,0.0
849,0.0
1121,3237.537831476863
1135,1212.7728373888
1161,19.64939063032285
1163,0.0
1166,1007.0177776046041
1168,1007.0177776046041
2,3, 1,22, 0,22, 0.00,60.00,Wednesday
7,-11.7
545,19.678848926395915
546,-3.7074715087986285
547,12.758254800171102
548,136.86786412613517
720,3060.7142467568574
721,3060.7142467568574
784,0.0
785,0.0
848,0.0
849,0.0
1121,3122.9834034562837
1135,1200.3499357596959
1161,20.72739118176695
1163,0.0
1166,1640.851267991938
1168,1640.851267991938
2,3, 1,22, 0,23, 0.00,60.00,Wednesday
7,-11.7
545,18.94227537376688
546,-4.285935079277324
547,12.713250480411055
548,136.86786412613517
720,2399.373578019022
721,2399.373578019022
784,0.0
785,0.0
848,0.0
849,0.0
1121,3122.6391797500146
1135,1200.7188856754979
1161,20.72739118176695
1163,0.0
1166,952.6034292462728
1168,952.6034292462728
2,3, 1,22, 0,24, 0.00,60.00,Wednesday
7,-11.7
545,18.699164405515855
546,-4.367856335677314
547,12.621669325206472
548,136.86786412613517
720,2949.913425097495
721,2949.913425097495
784,0.0
785,0.0
848,0.0
849,0.0
1121,3125.769336720731
1135,1180.1361627514568
1161,24.252778401695032
1163,0.0
1166,1556.3083433508723
1168,1556.3083433508723
2,4, 1,23, 0, 1, 0.00,60.00,Thursday
7,-12.2
545,18.609261415831572
546,-5.375051034708158
547,12.548768428046529
548,136.86786412613517
720,3612.7347491260844
721,3612.7347491260844
784,0.0
785,0.0
848,0.0
849,0.0
1121,3086.1751474599755
1135,1170.9875282132864
1161,22.92955411637056
1163,0.0
1166,2362.6471817208876
1168,2362.6471817208876
2,4, 1,23, 0, 2, 0.00,60.00,Thursday
7,-12.2
545,18.578244409959115
546,-6.221329670799703
547,12.474574280975823
548,136.86786412613517
720,3997.358133364578
721,3997.358133364578
784,0.0
785,0.0
848,0.0
849,0.0
1121,3088.054536754682
1135,1168.9763037833832
1161,22.92955411637056
1163,0.0
1166,2864.6051934663606
1168,2864.6051934663606
2,4, 1,23, 0, 3, 0.00,60.00,Thursday
7,-12.8
545,18.566533380036955
546,-6.829805046345464
547,12.393901660231757
548,136.86786412613517
720,4350.68305952964
721,4350.68305952964
784,0.0
785,0.0
848,0.0
849,0.0
1121,3025.14253442141
1135,1159.5970189562636
1161,24.574065865557365
1163,0.0
1166,3394.0555058206733
1168,3394.0555058206733
2,4, 1,23, 0, 4, 0.00,60.00,Thursday
7,-12.8
545,18.565660921005303
546,-7.25720162239914
547,12.316754539374395
548,136.86786412613517
720,4542.119540577802
721,4542.119540577802
784,0.0
785,0.0
848,0.0
849,0.0
1121,3035.834094072419
1135,1163.2235339491122
1161,21.391608410647493
1163,0.0
1166,3652.2012047567673
1168,3652.2012047567673
2,4, 1,23, 0, 5, 0.00,60.00,Thursday
7,-12.8
545,18.569123758523105
546,-7.562626938408581
547,12.237598187281854
548,136.86786412613517
720,4586.309612877556
721,4586.309612877556
784,0.0
785,0.0
848,0.0
849,0.0
1121,3035.9409955449064
1135,1163.1102291001953
1161,21.391608410647493
1163,0.0
1166,3736.967914537346
1168,3736.967914537346
2,4, 1,23, 0, 6, 0.00,60.00,Thursday
7,-14.4
545,19.332519679900848
546,-6.907563163110142
547,12.146305134031333
548,136.86786412613517
720,5920.8784614974375
721,5920.8784614974375
784,0.0
785,0.0
848,0.0
849,0.0
1121,2896.9430339777678
1135,1150.5088279982515
1161,17.039777525388452
1163,0.0
1166,5443.385766149688
1168,5443.385766149688
2,4, 1,23, 0, 7, 0.00,60.00,Thursday
7,-14.4
545,19.577367651373578
546,-6.757704730181009
547,12.105404510788128
548,136.86786412613517
720,5756.481039630064
721,5756.481039630064
784,0.0
785,0.0
848,0.0
849,0.0
1121,2881.8528929314084
1135,1165.985958606266
1161,17.036415043724407
1163,0.0
1166,5332.651287420293
1168,5332.651287420293
2,4, 1,23, 0, 8, 0.00,60.00,Thursday
7,-13.3
545,19.657032790881917
546,-6.484374681026001
547,12.042381680431877
548,136.86786412613517
720,5300.342302675386
721,5300.342302675386
784,0.0
785,0.0
848,0.0
849,0.0
1121,2974.153722171342
1135,1180.9819360136296
1161,19.40353254312294
1163,0.0
1166,4727.015696371664
1168,4727.015696371664
2,4, 1,23, 0, 9, 0.00,60.00,Thursday
7,-12.2
545,19.682220585595044
546,-5.185223956670437
547,11.980587911201125
548,136.86786412613517
720,4995.509759272192
721,4995.509759272192
784,0.0
785,0.0
848,0.0
849,0.0
1121,3081.646672260183
1135,1196.2626798407232
1161,18.665635129567033
1163,0.0
1166,4251.321952572907
1168,4251.321952572907
2,4, 1,23, 0,10, 0.00,60.00,Thursday
7,-10.0
545,19.704062418812974
546,-3.242616721565031
547,11.928388296325826
548,136.86786412613517
720,4502.898593563576
721,4502.898593563576
784,0.0
785,0.0
848,0.0
849,0.0
1121,3278.0807480156764
1135,1212.9916855199206
1161,25.17131028582975
1163,0.0
1166,3418.236235010881
1168,3418.236235010881
2,4, 1,23, 0,11, 0.00,60.00,Thursday
7,-10.0
545,19.715721172867557
546,-0.3777645465559663
547,11.867298810406586
548,136.86786412613517
720,4148.066155821129
721,4148.066155821129
784,0.0
785,0.0
848,0.0
849,0.0
1121,3277.6985240734084
1135,1213.4128118787069
1161,25.17131028582975
1163,0.0
1166,2897.4919418945333
1168,2897.4919418945333
2,4, 1,23, 0,12, 0.00,60.00,Thursday
7,-7.2
545,19.732169670848972