Program Version,EnergyPlus, Version 22.2.0-c249759bad, YMD=2023.09.01 18:15
1,5,Environment Title[],Latitude[deg],Longitude[deg],Time Zone[],Elevation[m]
2,8,Day of Simulation[],Month[],Day of Month[],DST Indicator[1=yes 0=no],Hour[],StartMinute[],EndMinute[],DayType
3,5,Cumulative Day of Simulation[],Month[],Day of Month[],DST Indicator[1=yes 0=no],DayType  ! When Daily Report Variables Requested
4,2,Cumulative Days of Simulation[],Month[]  ! When Monthly Report Variables Requested
5,1,Cumulative Days of Simulation[] ! When Run Period Report Variables Requested
6,1,Calendar Year of Simulation[] ! When Annual Report Variables Requested
581,11,LIVING,AFN Zone Infiltration Air Change Rate [ach] !RunPeriod [Value,Min,Month,Day,Hour,Minute,Max,Month,Day,Hour,Minute]
582,11,ATTIC,AFN Zone Infiltration Air Change Rate [ach] !RunPeriod [Value,Min,Month,Day,Hour,Minute,Max,Month,Day,Hour,Minute]
583,11,CRAWLSPACE,AFN Zone Infiltration Air Change Rate [ach] !RunPeriod [Value,Min,Month,Day,Hour,Minute,Max,Month,Day,Hour,Minute]
1038,11,Facility,Facility Heating Setpoint Not Met Time [hr] !RunPeriod [Value,Min,Month,Day,Hour,Minute,Max,Month,Day,Hour,Minute]
1039,11,Facility,Facility Cooling Setpoint Not Met Time [hr] !RunPeriod [Value,Min,Month,Day,Hour,Minute,Max,Month,Day,Hour,Minute]
1115,11,DX_HEATING_COIL,Heating Coil Heating Energy [J] !RunPeriod [Value,Min,Month,Day,Hour,Minute,Max,Month,Day,Hour,Minute]
1128,11,DX_HEATING_COIL,Heating Coil Electricity Energy [J] !RunPeriod [Value,Min,Month,Day,Hour,Minute,Max,Month,Day,Hour,Minute]
1153,11,DX_HEATING_COIL,Heating Coil Defrost Electricity Energy [J] !RunPeriod [Value,Min,Month,Day,Hour,Minute,Max,Month,Day,Hour,Minute]
1154,11,DX_HEATING_COIL,Heating Coil Crankcase Heater Electricity Energy [J] !RunPeriod [Value,Min,Month,Day,Hour,Minute,Max,Month,Day,Hour,Minute]
1155,11,HEATING_RESISTANCE_BACKUP,Heating Coil Heating Energy [J] !RunPeriod [Value,Min,Month,Day,Hour,Minute,Max,Month,Day,Hour,Minute]
1156,11,HEATING_RESISTANCE_BACKUP,Heating Coil Electricity Energy [J] !RunPeriod [Value,Min,Month,Day,Hour,Minute,Max,Month,Day,Hour,Minute]
1292,11,WATER HEATER,Water Heater Heat Loss Energy [J] !RunPeriod [Value,Min,Month,Day,Hour,Minute,Max,Month,Day,Hour,Minute]
1306,11,WATER HEATER,Water Heater Heating Energy [J] !RunPeriod [Value,Min,Month,Day,Hour,Minute,Max,Month,Day,Hour,Minute]
1307,11,WATER HEATER,Water Heater Unmet Demand Heat Transfer Energy [J] !RunPeriod [Value,Min,Month,Day,Hour,Minute,Max,Month,Day,Hour,Minute]
1308,11,WATER HEATER,Water Heater Electricity Energy [J] !RunPeriod [Value,Min,Month,Day,Hour,Minute,Max,Month,Day,Hour,Minute]
13,11,Electricity:Facility [J] !RunPeriod [Value,Min,Month,Day,Hour,Minute,Max,Month,Day,Hour,Minute]
1134,11,Heating:Electricity [J] !RunPeriod [Value,Min,Month,Day,Hour,Minute,Max,Month,Day,Hour,Minute]
1096,11,Cooling:Electricity [J] !RunPeriod [Value,Min,Month,Day,Hour,Minute,Max,Month,Day,Hour,Minute]
562,11,Fans:Electricity [J] !RunPeriod [Value,Min,Month,Day,Hour,Minute,Max,Month,Day,Hour,Minute]
1379,11,Pumps:Electricity [J] !RunPeriod [Value,Min,Month,Day,Hour,Minute,Max,Month,Day,Hour,Minute]
1326,11,WaterSystems:Electricity [J] !RunPeriod [Value,Min,Month,Day,Hour,Minute,Max,Month,Day,Hour,Minute]
61,11,InteriorLights:Electricity [J] !RunPeriod [Value,Min,Month,Day,Hour,Minute,Max,Month,Day,Hour,Minute]
1046,11,ExteriorLights:Electricity [J] !RunPeriod [Value,Min,Month,Day,Hour,Minute,Max,Month,Day,Hour,Minute]
134,11,InteriorEquipment:Electricity [J] !RunPeriod [Value,Min,Month,Day,Hour,Minute,Max,Month,Day,Hour,Minute]
170,11,gas_dryer:InteriorEquipment:Electricity [J] !RunPeriod [Value,Min,Month,Day,Hour,Minute,Max,Month,Day,Hour,Minute]
207,11,clotheswasher:InteriorEquipment:Electricity [J] !RunPeriod [Value,Min,Month,Day,Hour,Minute,Max,Month,Day,Hour,Minute]
244,11,dishwasher:InteriorEquipment:Electricity [J] !RunPeriod [Value,Min,Month,Day,Hour,Minute,Max,Month,Day,Hour,Minute]
281,11,refrigerator:InteriorEquipment:Electricity [J] !RunPeriod [Value,Min,Month,Day,Hour,Minute,Max,Month,Day,Hour,Minute]
318,11,electric_mels:InteriorEquipment:Electricity [J] !RunPeriod [Value,Min,Month,Day,Hour,Minute,Max,Month,Day,Hour,Minute]
355,11,NaturalGas:Facility [J] !RunPeriod [Value,Min,Month,Day,Hour,Minute,Max,Month,Day,Hour,Minute]
403,11,InteriorEquipment:NaturalGas [J] !RunPeriod [Value,Min,Month,Day,Hour,Minute,Max,Month,Day,Hour,Minute]
476,11,gas_dryer:InteriorEquipment:NaturalGas [J] !RunPeriod [Value,Min,Month,Day,Hour,Minute,Max,Month,Day,Hour,Minute]
513,11,gas_mels:InteriorEquipment:NaturalGas [J] !RunPeriod [Value,Min,Month,Day,Hour,Minute,Max,Month,Day,Hour,Minute]
End of Data Dictionary
1,EXTREME_WINTER,  35.53, -97.65,  -6.00, 396.00
5,7
1038,1.0,0.0, 1,29, 1,15,0.25, 2, 1, 6,15
1039,0.0,0.0, 1,29, 1,15,0.0, 1,29, 1,15
581,0.5139509050220494,0.15982985615347475, 1,30,22,60,1.4471469982249638, 2, 1,13,60
582,6.330510467142992,0.028061588941013984, 2, 3,24,60,22.833550478459934, 2, 1,13,60
583,0.05229557900284089,0.00042713178357096395, 2, 3,23, 7,0.1147729789096316, 2, 1,13,60
1115,1452497006.7978003,0.0, 1,29, 1, 5,4050655.3557903194, 2, 4, 8,60
1128,527569860.2182825,0.0, 1,29, 1, 5,1400502.0310621182, 2, 4, 8,60
1153,6677095.256805585,0.0, 1,29, 1, 5,73892.51955480041, 1,31,10,60
1154,45275861.71470352,0.0, 1,29, 1,32,180000.0, 1,29,16,15
1155,982877676.7122046,0.0, 1,29, 1, 5,7668250.943215536, 2, 1,11,30
1156,982877676.7122046,0.0, 1,29, 1, 5,7668250.943215536, 2, 1,11,30
1292,-25271541.083475813,-39765.952953588254, 2, 2, 5,30,-5539.700775924857, 1,29, 1,60
1306,216625741.52284807,0.0, 1,29, 1, 5,4050000.0, 1,29, 7,60
1307,33316476.845011298,0.0, 1,29, 1, 5,6111440.394326714, 2, 4, 9,45
1308,216625741.52284807,0.0, 1,29, 1, 5,4050000.0, 1,29, 7,60
13,2210066361.450649,154673.5309366046, 1,29, 3,15,13724356.777447237, 2, 1, 7,60
61,301924526.02383536,88139.10953165221, 1,29, 1,15,1282023.4113694867, 1,29,20,15
134,70666020.44019976,63564.01800854099, 1,29, 4,15,156554.22484006523, 2, 3,20,15
170,5241013.419656067,348.4159749238097, 1,29, 4,15,17476.39704006126, 2, 3,12,15
207,6509451.13922267,815.2532113832032, 1,29, 3,15,22990.642799023623, 2, 3,10,15
244,12749673.399825225,1521.856143006317, 1,29, 4,15,53038.631142310165, 2, 3,20,15
281,46165882.481495745,59938.60262432081, 1,29, 5,15,81951.81706819107, 1,29,19,15
318,0.0,0.0, 1,29, 1,15,0.0, 1,29, 1,15
355,197687796.27748066,18561.32405820678, 1,29, 4,15,724774.895203776, 2, 3,18,15
403,197687796.27748066,18561.32405820678, 1,29, 4,15,724774.895203776, 2, 3,18,15
476,106772067.24485716,7098.072629279515, 1,29, 4,15,356036.3026282215, 2, 3,12,15
513,0.0,0.0, 1,29, 1,15,0.0, 1,29, 1,15
562,58449579.5617689,0.0, 1,29, 1,15,150095.43848292134, 1,31,24,60
1046,0.0,0.0, 1,29, 1,15,0.0, 1,29, 1,15
1096,0.0,0.0, 1,29, 1,15,0.0, 1,29, 1,15
1134,1562400493.9019976,0.0, 1,29, 1,45,8982935.081158452, 2, 1,11,30
1326,216625741.52284804,0.0, 1,29, 1,15,4050000.0, 1,29, 7,60
1379,0.0,0.0, 1,29, 1,15,0.0, 1,29, 1,15
1,EXTREME_SUMMER,  35.53, -97.65,  -6.00, 396.00
5,7
1038,0.0,0.0, 7,22, 1,15,0.0, 7,22, 1,15
1039,57.5,0.0, 7,22, 1,15,0.25, 7,22,15,15
581,0.27604417177623436,0.10919033685724641, 7,23,14,55,0.5374534736845605, 7,26, 8,50
582,5.564672806217449,2.6360134110383533, 7,27,19,60,11.034876497347678, 7,26, 8,50
583,0.05591095778409303,0.002011363169339067, 7,23,23, 3,0.08341191395394222, 7,28,21,60
1115,0.0,0.0, 7,22, 1, 7,0.0, 7,22, 1, 7
1128,0.0,0.0, 7,22, 1, 7,0.0, 7,22, 1, 7
1153,0.0,0.0, 7,22, 1, 7,0.0, 7,22, 1, 7
1154,0.0,0.0, 7,22, 1, 7,0.0, 7,22, 1, 7
1155,0.0,0.0, 7,22, 1, 7,0.0, 7,22, 1, 7
1156,0.0,0.0, 7,22, 1, 7,0.0, 7,22, 1, 7
1292,-21770978.392094333,-34306.114551969134, 7,26,21,60,-4788.067310780547, 7,24,11,60
1306,146829520.7025951,0.0, 7,22, 1, 7,4050000.0, 7,26, 6,60
1307,9745253.788504317,0.0, 7,22, 1, 7,1525787.8754431154, 7,28,19,52
1308,146829520.7025951,0.0, 7,22, 1, 7,4050000.0, 7,26, 6,60
13,1318013194.6129313,358895.15026489145, 7,25, 4,60,7185674.602908609, 7,28,20,15
61,301924526.02383536,88139.10953165221, 7,22, 1,15,1282023.4113694867, 7,22,20,15
134,70666020.44019976,63564.01800854099, 7,22, 4,15,156554.22484006523, 7,27,20,15
170,5241013.419656067,348.4159749238097, 7,22, 4,15,17476.39704006126, 7,27,12,15
207,6509451.13922267,815.2532113832032, 7,22, 3,15,22990.642799023623, 7,27,10,15
244,12749673.399825225,1521.856143006317, 7,22, 4,15,53038.631142310165, 7,27,20,15
281,46165882.481495745,59938.60262432081, 7,22, 5,15,81951.81706819107, 7,22,19,15
318,0.0,0.0, 7,22, 1,15,0.0, 7,22, 1,15
355,197687796.27748066,18561.32405820678, 7,22, 4,15,724774.895203776, 7,27,18,15
403,197687796.27748066,18561.32405820678, 7,22, 4,15,724774.895203776, 7,27,18,15
476,106772067.24485716,7098.072629279515, 7,22, 4,15,356036.3026282215, 7,27,12,15
513,0.0,0.0, 7,22, 1,15,0.0, 7,22, 1,15
562,70947963.40966283,21060.11734706585, 7,25, 5,60,150095.43848292134, 7,22,14,15
1046,0.0,0.0, 7,22, 1,15,0.0, 7,22, 1,15
1096,727645164.0366367,178576.32598272525, 7,25, 5,60,1711199.9102641689, 7,28,12,60
1134,0.0,0.0, 7,22, 1,15,0.0, 7,22, 1,15
1326,146829520.70259506,0.0, 7,22, 1,15,4050000.0, 7,26, 6,60
1379,0.0,0.0, 7,22, 1,15,0.0, 7,22, 1,15
1,ANNUAL,  35.53, -97.65,  -6.00, 396.00
5,365
1038,6.0,0.0, 1, 1, 1,15,0.25, 1, 3, 6,15
1039,712.5,0.0, 1, 1, 1,15,0.25, 1,20,15,45
581,0.34847610797975304,0.0, 5,17, 7,47,1.4472511884990518, 2, 1,13,60
582,5.916972031030506,0.0, 1, 1,23,30,29.441517616849342,11,11,15,50
583,0.03314264999740972,0.0, 5,26,23, 3,0.11355626387056916, 2, 1,13,60
1115,14887354672.42946,0.0, 1, 1,23, 5,4859880.994126564,11,21, 6,60
1128,4787642338.4089,0.0, 1, 1,23, 5,1479993.139157795, 1,10,10,45
1153,164305624.62330878,0.0, 1, 1,23, 5,125221.69506746149, 1,12, 6,45
1154,1207633804.3006022,0.0, 1, 1, 6, 5,180000.0, 1, 4,16,30
1155,2444750492.886071,0.0, 1, 1, 1,15,7668250.943215536, 2, 1, 7,60
1156,2444750492.886071,0.0, 1, 1, 1,15,7668250.943215536, 2, 1, 7,60
1292,-1202487427.7357724,-39807.12819042149, 1,17, 3,15,-2167.397254193437, 5,16,15,60
1306,9521835830.546677,0.0, 1, 1, 1,15,4050000.0, 1, 1, 9,60
1307,1087092283.8289175,0.0, 1, 1, 1,15,10698654.651833525, 2,19,19,60
1308,9521835830.546677,0.0, 1, 1, 1,15,4050000.0, 1, 1, 9,60
13,53120293129.420296,151703.1275401932, 1,25, 4,15,13564500.96140999, 2, 9, 7,15
61,15743207428.383959,88139.10953165221, 1, 1, 1,15,1282023.4113694867, 1, 1,20,15
134,3685071073.4325233,63564.01800854099, 1, 2, 4,15,156554.22484006523, 1, 1,20,15
170,273393721.45532674,348.4159749238097, 1, 2, 4,15,17476.39704006126, 1, 1,12,15
207,339560869.0695816,815.2532113832032, 1, 2, 3,15,22990.642799023623, 1, 1,10,15
244,664895467.8009144,1521.856143006317, 1, 2, 4,15,53038.631142310165, 1, 1,20,15
281,2407221015.106824,59938.60262432081, 1, 1, 5,15,81951.81706819107, 1, 1,19,15
318,0.0,0.0, 1, 1, 1,15,0.0, 1, 1, 1,15
355,10310294493.051695,18561.32405820678, 1, 2, 4,15,724774.895203776, 1, 1,18,15
403,10310294493.051695,18561.32405820678, 1, 2, 4,15,724774.895203776, 1, 1,18,15
476,5569688622.066177,7098.072629279515, 1, 2, 4,15,356036.3026282215, 1, 1,12,15
513,0.0,0.0, 1, 1, 1,15,0.0, 1, 1, 1,15
562,1995039090.8223522,0.0, 1, 2,23,15,150095.4384829214, 7,13,17,45
1046,0.0,0.0, 1, 1, 1,15,0.0, 1, 1, 1,15
1096,13570807446.014324,0.0, 1, 1, 1,15,1795132.273641341, 7,29,13,60
1134,8604332260.21887,0.0, 1,15,11,45,8991916.473008579, 2, 1, 7,60
1326,9521835830.546686,0.0, 1, 1, 1,15,4050000.0000000014, 6, 3, 9,45
1379,0.0,0.0, 1, 1, 1,15,0.0, 1, 1, 1,15
End of Data
 Number of Records Written=          99
