Program Version,EnergyPlus, Version 22.2.0-c249759bad, YMD=2023.09.01 20:18
1,5,Environment Title[],Latitude[deg],Longitude[deg],Time Zone[],Elevation[m]
2,8,Day of Simulation[],Month[],Day of Month[],DST Indicator[1=yes 0=no],Hour[],StartMinute[],EndMinute[],DayType
3,5,Cumulative Day of Simulation[],Month[],Day of Month[],DST Indicator[1=yes 0=no],DayType  ! When Daily Report Variables Requested
4,2,Cumulative Days of Simulation[],Month[]  ! When Monthly Report Variables Requested
5,1,Cumulative Days of Simulation[] ! When Run Period Report Variables Requested
6,1,Calendar Year of Simulation[] ! When Annual Report Variables Requested
581,11,LIVING,AFN Zone Infiltration Air Change Rate [ach] !RunPeriod [Value,Min,Month,Day,Hour,Minute,Max,Month,Day,Hour,Minute]
582,11,ATTIC,AFN Zone Infiltration Air Change Rate [ach] !RunPeriod [Value,Min,Month,Day,Hour,Minute,Max,Month,Day,Hour,Minute]
583,11,CRAWLSPACE,AFN Zone Infiltration Air Change Rate [ach] !RunPeriod [Value,Min,Month,Day,Hour,Minute,Max,Month,Day,Hour,Minute]
1038,11,Facility,Facility Heating Setpoint Not Met Time [hr] !RunPeriod [Value,Min,Month,Day,Hour,Minute,Max,Month,Day,Hour,Minute]
1039,11,Facility,Facility Cooling Setpoint Not Met Time [hr] !RunPeriod [Value,Min,Month,Day,Hour,Minute,Max,Month,Day,Hour,Minute]
1115,11,DX_HEATING_COIL,Heating Coil Heating Energy [J] !RunPeriod [Value,Min,Month,Day,Hour,Minute,Max,Month,Day,Hour,Minute]
1128,11,DX_HEATING_COIL,Heating Coil Electricity Energy [J] !RunPeriod [Value,Min,Month,Day,Hour,Minute,Max,Month,Day,Hour,Minute]
1153,11,DX_HEATING_COIL,Heating Coil Defrost Electricity Energy [J] !RunPeriod [Value,Min,Month,Day,Hour,Minute,Max,Month,Day,Hour,Minute]
1154,11,DX_HEATING_COIL,Heating Coil Crankcase Heater Electricity Energy [J] !RunPeriod [Value,Min,Month,Day,Hour,Minute,Max,Month,Day,Hour,Minute]
1155,11,HEATING_RESISTANCE_BACKUP,Heating Coil Heating Energy [J] !RunPeriod [Value,Min,Month,Day,Hour,Minute,Max,Month,Day,Hour,Minute]
1156,11,HEATING_RESISTANCE_BACKUP,Heating Coil Electricity Energy [J] !RunPeriod [Value,Min,Month,Day,Hour,Minute,Max,Month,Day,Hour,Minute]
1292,11,WATER HEATER,Water Heater Heat Loss Energy [J] !RunPeriod [Value,Min,Month,Day,Hour,Minute,Max,Month,Day,Hour,Minute]
1306,11,WATER HEATER,Water Heater Heating Energy [J] !RunPeriod [Value,Min,Month,Day,Hour,Minute,Max,Month,Day,Hour,Minute]
1307,11,WATER HEATER,Water Heater Unmet Demand Heat Transfer Energy [J] !RunPeriod [Value,Min,Month,Day,Hour,Minute,Max,Month,Day,Hour,Minute]
1308,11,WATER HEATER,Water Heater Electricity Energy [J] !RunPeriod [Value,Min,Month,Day,Hour,Minute,Max,Month,Day,Hour,Minute]
13,11,Electricity:Facility [J] !RunPeriod [Value,Min,Month,Day,Hour,Minute,Max,Month,Day,Hour,Minute]
1134,11,Heating:Electricity [J] !RunPeriod [Value,Min,Month,Day,Hour,Minute,Max,Month,Day,Hour,Minute]
1096,11,Cooling:Electricity [J] !RunPeriod [Value,Min,Month,Day,Hour,Minute,Max,Month,Day,Hour,Minute]
562,11,Fans:Electricity [J] !RunPeriod [Value,Min,Month,Day,Hour,Minute,Max,Month,Day,Hour,Minute]
1379,11,Pumps:Electricity [J] !RunPeriod [Value,Min,Month,Day,Hour,Minute,Max,Month,Day,Hour,Minute]
1326,11,WaterSystems:Electricity [J] !RunPeriod [Value,Min,Month,Day,Hour,Minute,Max,Month,Day,Hour,Minute]
61,11,InteriorLights:Electricity [J] !RunPeriod [Value,Min,Month,Day,Hour,Minute,Max,Month,Day,Hour,Minute]
1046,11,ExteriorLights:Electricity [J] !RunPeriod [Value,Min,Month,Day,Hour,Minute,Max,Month,Day,Hour,Minute]
134,11,InteriorEquipment:Electricity [J] !RunPeriod [Value,Min,Month,Day,Hour,Minute,Max,Month,Day,Hour,Minute]
170,11,gas_dryer:InteriorEquipment:Electricity [J] !RunPeriod [Value,Min,Month,Day,Hour,Minute,Max,Month,Day,Hour,Minute]
207,11,clotheswasher:InteriorEquipment:Electricity [J] !RunPeriod [Value,Min,Month,Day,Hour,Minute,Max,Month,Day,Hour,Minute]
244,11,dishwasher:InteriorEquipment:Electricity [J] !RunPeriod [Value,Min,Month,Day,Hour,Minute,Max,Month,Day,Hour,Minute]
281,11,refrigerator:InteriorEquipment:Electricity [J] !RunPeriod [Value,Min,Month,Day,Hour,Minute,Max,Month,Day,Hour,Minute]
318,11,electric_mels:InteriorEquipment:Electricity [J] !RunPeriod [Value,Min,Month,Day,Hour,Minute,Max,Month,Day,Hour,Minute]
355,11,NaturalGas:Facility [J] !RunPeriod [Value,Min,Month,Day,Hour,Minute,Max,Month,Day,Hour,Minute]
403,11,InteriorEquipment:NaturalGas [J] !RunPeriod [Value,Min,Month,Day,Hour,Minute,Max,Month,Day,Hour,Minute]
476,11,gas_dryer:InteriorEquipment:NaturalGas [J] !RunPeriod [Value,Min,Month,Day,Hour,Minute,Max,Month,Day,Hour,Minute]
513,11,gas_mels:InteriorEquipment:NaturalGas [J] !RunPeriod [Value,Min,Month,Day,Hour,Minute,Max,Month,Day,Hour,Minute]
End of Data Dictionary
1,EXTREME_WINTER,  46.84, -92.18,  -6.00, 432.00
5,7
1038,37.25,0.0, 1,20, 1,15,0.25, 1,20, 6,15
1039,0.0,0.0, 1,20, 1,15,0.0, 1,20, 1,15
581,0.520064072345263,0.31426162340097524, 1,26,23, 5,0.8834349451564218, 1,23,15,60
582,5.4594848323935565,0.44304478435673617, 1,24,10, 5,16.26535904368465, 1,21,14,50
583,0.07141619435027165,0.0015851617690021684, 1,26,23, 5,0.08063747150933, 1,23,15,52
1115,1541383969.161148,0.0, 1,26,23, 5,3295801.6344452235, 1,26,18,60
1128,688531024.3573248,0.0, 1,26,23, 5,1165488.9076156465, 1,26,20,60
1153,2273296.1428751694,0.0, 1,26,23, 5,21075.16054114006, 1,25, 8,60
1154,60000.0,0.0, 1,20, 1, 7,60000.0, 1,26,23, 5
1155,4040952389.4654346,0.0, 1,26,23, 5,8163703.962840563, 1,20, 6,45
1156,4040952389.4654346,0.0, 1,26,23, 5,8163703.962840563, 1,20, 6,45
1292,-25723581.997292694,-42452.299081897356, 1,22, 8,15,-7370.943990098343, 1,26,11,45
1306,142751897.68392587,0.0, 1,20, 1, 7,4050000.0, 1,20, 7,15
1307,33825888.98756627,0.0, 1,20, 1, 7,9108389.525244927, 1,20, 6,60
1308,142751897.68392587,0.0, 1,20, 1, 7,4050000.0, 1,20, 7,15
13,5331729542.977946,2941194.106426053, 1,26,23,15,14044380.063427752, 1,20, 7,30
61,301924526.02383536,88139.10953165221, 1,20, 1,15,1282023.4113694867, 1,20,20,15
134,70666020.44019976,63564.01800854099, 1,20, 4,15,156554.22484006523, 1,25,20,15
170,5241013.419656067,348.4159749238097, 1,20, 4,15,17476.39704006126, 1,25,12,15
207,6509451.13922267,815.2532113832032, 1,20, 3,15,22990.642799023623, 1,25,10,15
244,12749673.399825225,1521.856143006317, 1,20, 4,15,53038.631142310165, 1,25,20,15
281,46165882.481495745,59938.60262432081, 1,20, 5,15,81951.81706819107, 1,20,19,15
318,0.0,0.0, 1,20, 1,15,0.0, 1,20, 1,15
355,197687796.27748066,18561.32405820678, 1,20, 4,15,724774.895203776, 1,25,18,15
403,197687796.27748066,18561.32405820678, 1,20, 4,15,724774.895203776, 1,25,18,15
476,106772067.24485716,7098.072629279515, 1,20, 4,15,356036.3026282215, 1,25,12,15
513,0.0,0.0, 1,20, 1,15,0.0, 1,20, 1,15
562,84570388.86435379,83940.83261970498, 1,26,23,15,125911.24892955748, 1,22,11,30
1046,0.0,0.0, 1,20, 1,15,0.0, 1,20, 1,15
1096,0.0,0.0, 1,20, 1,15,0.0, 1,20, 1,15
1134,4731816709.965636,2205730.980013649, 1,26,23,15,9193548.195525475, 1,24,12,30
1326,142751897.68392587,0.0, 1,20, 1,15,4050000.0, 1,20, 7,15
1379,0.0,0.0, 1,20, 1,15,0.0, 1,20, 1,15
1,EXTREME_SUMMER,  46.84, -92.18,  -6.00, 432.00
5,7
1038,0.0,0.0, 7,13, 1,15,0.0, 7,13, 1,15
1039,22.0,0.0, 7,13, 1,15,0.25, 7,16,14,60
581,0.18935872396653355,0.0, 7,14,23, 5,0.5630874579581827, 7,18,17,37
582,4.838324880321746,0.0, 7,15, 7,22,15.49465055377738, 7,18,16,52
583,0.029137604647142958,0.0, 7,14,23, 5,0.06658349572712234, 7,18,17,52
1115,0.0,0.0, 7,13, 1,15,0.0, 7,13, 1,15
1128,0.0,0.0, 7,13, 1,15,0.0, 7,13, 1,15
1153,0.0,0.0, 7,13, 1,15,0.0, 7,13, 1,15
1154,0.0,0.0, 7,13, 1,15,0.0, 7,13, 1,15
1155,0.0,0.0, 7,13, 1,15,0.0, 7,13, 1,15
1156,0.0,0.0, 7,13, 1,15,0.0, 7,13, 1,15
1292,-21984071.306263957,-34445.43577794344, 7,13, 6,45,-4774.004278953199, 7,16, 8,30
1306,116469256.23908736,0.0, 7,13, 1,15,4050000.0, 7,13, 7,15
1307,21506104.416317347,0.0, 7,13, 1,15,6553874.896490503, 7,13, 6,60
1308,116469256.23908736,0.0, 7,13, 1,15,4050000.0, 7,13, 7,15
13,890881932.3787245,151703.1275401932, 7,13, 4,15,6513203.730541052, 7,17,19,30
61,301924526.02383536,88139.10953165221, 7,13, 1,15,1282023.4113694867, 7,13,20,15
134,70666020.44019976,63564.01800854099, 7,13, 4,15,156554.22484006523, 7,18,20,15
170,5241013.419656067,348.4159749238097, 7,13, 4,15,17476.39704006126, 7,18,12,15
207,6509451.13922267,815.2532113832032, 7,13, 3,15,22990.642799023623, 7,18,10,15
244,12749673.399825225,1521.856143006317, 7,13, 4,15,53038.631142310165, 7,18,20,15
281,46165882.481495745,59938.60262432081, 7,13, 5,15,81951.81706819107, 7,13,19,15
318,0.0,0.0, 7,13, 1,15,0.0, 7,13, 1,15
355,197687796.27748066,18561.32405820678, 7,13, 4,15,724774.895203776, 7,18,18,15
403,197687796.27748066,18561.32405820678, 7,13, 4,15,724774.895203776, 7,18,18,15
476,106772067.24485716,7098.072629279515, 7,13, 4,15,356036.3026282215, 7,18,12,15
513,0.0,0.0, 7,13, 1,15,0.0, 7,13, 1,15
562,39196481.660131596,0.0, 7,13, 3,15,125911.24892955748, 7,17,20,60
1046,0.0,0.0, 7,13, 1,15,0.0, 7,13, 1,15
1096,362625648.01547134,0.0, 7,13, 3,15,1342757.4112646703, 7,18,15,60
1134,0.0,0.0, 7,13, 1,15,0.0, 7,13, 1,15
1326,116469256.23908737,0.0, 7,13, 1,15,4050000.0, 7,13, 7,15
1379,0.0,0.0, 7,13, 1,15,0.0, 7,13, 1,15
1,ANNUAL,  46.84, -92.18,  -6.00, 432.00
5,365
1038,111.25,0.0, 1, 1, 1,15,0.25, 1, 1, 6,15
1039,95.75,0.0, 1, 1, 1,15,0.25, 4, 9,18,45
581,0.332427995407672,0.0, 7,14,23, 5,1.418903363495884, 3, 1,20,60
582,5.544985394911938,0.0, 1, 4,23,12,39.13114669282424, 3, 1,20,60
583,0.034079716332609665,0.0, 7,14,23, 5,0.08857467641807652, 3, 1,20,60
1115,46845080290.11025,0.0, 1, 1,23, 5,4510273.285684594,12, 7, 6,60
1128,15761362954.151768,0.0, 1, 1,23, 5,1269123.6268138532, 4,10, 6,45
1153,501117755.4353467,0.0, 1, 1,23, 5,143035.806026568,12, 4, 6,60
1154,1429525347.0184698,0.0, 1, 1, 1, 7,180000.0, 2, 8,15,60
1155,27460449787.803864,0.0, 1, 1,23, 5,8163703.962840563, 1,20, 6,15
1156,27460449787.803864,0.0, 1, 1,23, 5,8163703.962840563, 1,20, 6,15
1292,-1264342179.957217,-43309.404714749435, 1,22, 8,15,-2251.119024473316, 5,23,15,60
1306,6816906467.338089,0.0, 1, 1, 1, 7,4050000.0, 1, 1,16,15
1307,1417300521.2144485,0.0, 1, 1, 1, 7,9346767.566814262, 2,20, 6,60
1308,6816906467.338089,0.0, 1, 1, 1, 7,4050000.0, 1, 1,16,15
13,77355439761.72195,151703.1275401932, 5,24, 4,30,14058763.44342141,12,26, 7,30
61,15743207428.383959,88139.10953165221, 1, 1, 1,15,1282023.4113694867, 1, 1,20,15
134,3685071073.4325233,63564.01800854099, 1, 2, 4,15,156554.22484006523, 1, 1,20,15
170,273393721.45532674,348.4159749238097, 1, 2, 4,15,17476.39704006126, 1, 1,12,15
207,339560869.0695816,815.2532113832032, 1, 2, 3,15,22990.642799023623, 1, 1,10,15
244,664895467.8009144,1521.856143006317, 1, 2, 4,15,53038.631142310165, 1, 1,20,15
281,2407221015.106824,59938.60262432081, 1, 1, 5,15,81951.81706819107, 1, 1,19,15
318,0.0,0.0, 1, 1, 1,15,0.0, 1, 1, 1,15
355,10310294493.051695,18561.32405820678, 1, 2, 4,15,724774.895203776, 1, 1,18,15
403,10310294493.051695,18561.32405820678, 1, 2, 4,15,724774.895203776, 1, 1,18,15
476,5569688622.066177,7098.072629279515, 1, 2, 4,15,356036.3026282215, 1, 1,12,15
513,0.0,0.0, 1, 1, 1,15,0.0, 1, 1, 1,15
562,2186547385.7634606,0.0, 2, 8,15,60,125911.24892955748, 1,22,11,30
1046,0.0,0.0, 1, 1, 1,15,0.0, 1, 1, 1,15
1096,3771251562.3920536,0.0, 1, 1, 1,15,1344749.2454719655, 7,18,15,60
1134,45152455844.40947,0.0, 3,12,16,60,9248337.546118405,12,22, 6,60
1326,6816906467.338079,0.0, 1, 1, 1,15,4050000.0, 1, 1,14,15
1379,0.0,0.0, 1, 1, 1,15,0.0, 1, 1, 1,15
End of Data
 Number of Records Written=          99
