Program Version,EnergyPlus, Version 9.5.0-de239b2e5f, YMD=2022.08.10 16:06
1,5,Environment Title[],Latitude[deg],Longitude[deg],Time Zone[],Elevation[m]
2,8,Day of Simulation[],Month[],Day of Month[],DST Indicator[1=yes 0=no],Hour[],StartMinute[],EndMinute[],DayType
3,5,Cumulative Day of Simulation[],Month[],Day of Month[],DST Indicator[1=yes 0=no],DayType  ! When Daily Report Variables Requested
4,2,Cumulative Days of Simulation[],Month[]  ! When Monthly Report Variables Requested
5,1,Cumulative Days of Simulation[] ! When Run Period Report Variables Requested
6,1,Calendar Year of Simulation[] ! When Annual Report Variables Requested
191,1,UNHEATEDBSMT_UNIT1,Zone Windows Total Transmitted Solar Radiation Rate [W] !Hourly
192,1,UNHEATEDBSMT_UNIT1,Zone Windows Total Transmitted Solar Radiation Energy [J] !Hourly
193,1,UNHEATEDBSMT_UNIT1,Zone Windows Total Heat Gain Energy [J] !Hourly
194,1,LIVING_UNIT1,Zone Windows Total Transmitted Solar Radiation Rate [W] !Hourly
195,1,LIVING_UNIT1,Zone Windows Total Transmitted Solar Radiation Energy [J] !Hourly
196,1,LIVING_UNIT1,Zone Windows Total Heat Gain Energy [J] !Hourly
197,1,ATTIC_UNIT1,Zone Windows Total Transmitted Solar Radiation Rate [W] !Hourly
198,1,ATTIC_UNIT1,Zone Windows Total Transmitted Solar Radiation Energy [J] !Hourly
199,1,ATTIC_UNIT1,Zone Windows Total Heat Gain Energy [J] !Hourly
200,1,UNHEATEDBSMT_UNIT1,Zone Mean Air Temperature [C] !Hourly
201,1,LIVING_UNIT1,Zone Mean Air Temperature [C] !Hourly
202,1,ATTIC_UNIT1,Zone Mean Air Temperature [C] !Hourly
279,1,UNHEATEDBSMT_UNIT1,AFN Zone Infiltration Sensible Heat Gain Rate [W] !Hourly
280,1,LIVING_UNIT1,AFN Zone Infiltration Sensible Heat Gain Rate [W] !Hourly
281,1,ATTIC_UNIT1,AFN Zone Infiltration Sensible Heat Gain Rate [W] !Hourly
282,1,UNHEATEDBSMT_UNIT1,AFN Zone Infiltration Air Change Rate [ach] !Hourly
283,1,LIVING_UNIT1,AFN Zone Infiltration Air Change Rate [ach] !Hourly
284,1,ATTIC_UNIT1,AFN Zone Infiltration Air Change Rate [ach] !Hourly
618,1,Whole Building,Facility Total HVAC Electricity Demand Rate [W] !Hourly
End of Data Dictionary
1,CRATERS.OF.THE.MOON.NATL.MONU ANN HTG 99.6% CONDNS DB,  43.42,-113.52,  -7.00,1804.40
2,1, 1,21, 0, 1, 0.00,60.00,WinterDesignDay
191,0.0
192,0.0
193,0.0
194,0.0
195,0.0
196,0.0
197,0.0
198,0.0
199,0.0
200,15.70985125518168
201,15.715289079010728
202,-5.663120806857782
279,0.0
280,0.0
281,0.0
282,0.36230907076098287
283,0.46739869397811237
284,0.0
618,8776.45582238466
2,1, 1,21, 0, 2, 0.00,60.00,WinterDesignDay
191,0.0
192,0.0
193,0.0
194,0.0
195,0.0
196,0.0
197,0.0
198,0.0
199,0.0
200,15.179230610990875
201,15.717402458420445
202,-5.659831730253775
279,0.0
280,0.0
281,0.0
282,0.362031932341989
283,0.4673334117741699
284,0.0
618,8776.45582238466
2,1, 1,21, 0, 3, 0.00,60.00,WinterDesignDay
191,0.0
192,0.0
193,0.0
194,0.0
195,0.0
196,0.0
197,0.0
198,0.0
199,0.0
200,14.85576485172996
201,15.704532800330887
202,-5.668156736049518
279,0.0
280,0.0
281,0.0
282,0.36100191096482978
283,0.4673946239637332
284,0.0
618,8776.45582238466
2,1, 1,21, 0, 4, 0.00,60.00,WinterDesignDay
191,0.0
192,0.0
193,0.0
194,0.0
195,0.0
196,0.0
197,0.0
198,0.0
199,0.0
200,14.555522737563523
201,15.691911445131103
202,-5.675232876318289
279,0.0
280,0.0
281,0.0
282,0.3602202366174933
283,0.4673179698651962
284,0.0
618,8776.45582238466
2,1, 1,21, 0, 5, 0.00,60.00,WinterDesignDay
191,0.0
192,0.0
193,0.0
194,0.0
195,0.0
196,0.0
197,0.0
198,0.0
199,0.0
200,14.294749766509748
201,15.67673475910801
202,-5.684417749566234
279,0.0
280,0.0
281,0.0
282,0.35951634895557268
283,0.4672368214326862
284,0.0
618,8776.45582238466
2,1, 1,21, 0, 6, 0.00,60.00,WinterDesignDay
191,0.0
192,0.0
193,0.0
194,0.0
195,0.0
196,0.0
197,0.0
198,0.0
199,0.0
200,14.058939825547514
201,15.659893066837672
202,-5.694054406986893
279,0.0
280,0.0
281,0.0
282,0.3588863908162467
283,0.4671288746385696
284,0.0
618,8776.45582238466
2,1, 1,21, 0, 7, 0.00,60.00,WinterDesignDay
191,0.0
192,0.0
193,0.0
194,0.0
195,0.0
196,0.0
197,0.0
198,0.0
199,0.0
200,13.843441714078214
201,15.641538440082535
202,-5.704406388661234
279,0.0
280,0.0
281,0.0
282,0.3583089208633863
283,0.4670034585963499
284,0.0
618,8776.45582238466
2,1, 1,21, 0, 8, 0.00,60.00,WinterDesignDay
191,0.0
192,0.0
193,0.0
194,0.0
195,0.0
196,0.0
197,0.0
198,0.0
199,0.0
200,13.644201963701317
201,15.621950239132863
202,-5.7151737999835519
279,0.0
280,0.0
281,0.0
282,0.3577735400189937
283,0.4668624866427488
284,0.0
618,8776.45582238466
2,1, 1,21, 0, 9, 0.00,60.00,WinterDesignDay
191,0.0
192,0.0
193,0.0
194,0.0
195,0.0
196,0.0
197,0.0
198,0.0
199,0.0
200,13.458490763196309
201,15.601364816953345
202,-5.726308003562299
279,0.0
280,0.0
281,0.0
282,0.3572724827130941
283,0.4667089830090767
284,0.0
618,8776.45582238466
2,1, 1,21, 0,10, 0.00,60.00,WinterDesignDay
191,0.0
192,0.0
193,0.0
194,0.0
195,0.0
196,0.0
197,0.0
198,0.0
199,0.0
200,13.284244782349014
201,15.579992614292044
202,-5.737703313670073
279,0.0
280,0.0
281,0.0
282,0.35680029771027646
283,0.46654530460981377
284,0.0
618,8776.45582238466
2,1, 1,21, 0,11, 0.00,60.00,WinterDesignDay
191,0.0
192,0.0
193,0.0
194,0.0
195,0.0
196,0.0
197,0.0
198,0.0
199,0.0
200,13.1198839777478
201,15.558015183929092
202,-5.749295922498744
279,0.0
280,0.0
281,0.0
282,0.3563528959514081
283,0.46637353620449259
284,0.0
618,8776.45582238466
2,1, 1,21, 0,12, 0.00,60.00,WinterDesignDay
191,0.0
192,0.0
193,0.0
194,0.0
195,0.0
196,0.0
197,0.0
198,0.0
199,0.0
200,12.964160554009255
201,15.53558671456696
202,-5.7610229567691759
279,0.0
280,0.0
281,0.0
282,0.3559271290989596
283,0.466195430609651
284,0.0
618,8776.45582238466
2,1, 1,21, 0,13, 0.00,60.00,WinterDesignDay
191,0.0
192,0.0
193,0.0
194,0.0
195,0.0
196,0.0
197,0.0
198,0.0
199,0.0
200,12.81606851845687
201,15.51283754520285
202,-5.772833995805658
279,0.0
280,0.0
281,0.0
282,0.3555205030172696
283,0.46601246997457215
284,0.0
618,8776.45582238466
2,1, 1,21, 0,14, 0.00,60.00,WinterDesignDay
191,0.0
192,0.0
193,0.0
194,0.0
195,0.0
196,0.0
197,0.0
198,0.0
199,0.0
200,12.674781859813683
201,15.489877322567648
202,-5.784684872124181
279,0.0
280,0.0
281,0.0
282,0.3551309973190082
283,0.4658258990313842
284,0.0
618,8776.45582238466
2,1, 1,21, 0,15, 0.00,60.00,WinterDesignDay
191,0.0
192,0.0
193,0.0
194,0.0
195,0.0
196,0.0
197,0.0
198,0.0
199,0.0
200,12.539611970410976
201,15.466798217763304
202,-5.796538394424745
279,0.0
280,0.0
281,0.0
282,0.35475694416828609
283,0.465636763874754
284,0.0
618,8776.45582238466
2,1, 1,21, 0,16, 0.00,60.00,WinterDesignDay
191,0.0
192,0.0
193,0.0
194,0.0
195,0.0
196,0.0
197,0.0
198,0.0
199,0.0
200,12.409977307055828
201,15.44367766510139
202,-5.808362865816049
279,0.0
280,0.0
281,0.0
282,0.3543969447361745
283,0.46544594356161247
284,0.0
618,8776.45582238466
2,1, 1,21, 0,17, 0.00,60.00,WinterDesignDay
191,0.0
192,0.0
193,0.0
194,0.0
195,0.0
196,0.0
197,0.0
198,0.0
199,0.0
200,12.285381248657716
201,15.420580731615829
202,-5.820131572297829
279,0.0
280,0.0
281,0.0
282,0.3540498099158433
283,0.46525417770031937
284,0.0
618,8776.45582238466
2,1, 1,21, 0,18, 0.00,60.00,WinterDesignDay
191,0.0
192,0.0
193,0.0
194,0.0
195,0.0
196,0.0
197,0.0
198,0.0
199,0.0
200,12.165395580311506
201,15.397562087363893
202,-5.831822049145759
279,0.0
280,0.0
281,0.0
282,0.3537145171465183
283,0.4650620891929141
284,0.0
618,8776.45582238466
2,1, 1,21, 0,19, 0.00,60.00,WinterDesignDay
191,0.0
192,0.0
193,0.0
194,0.0
195,0.0
196,0.0
197,0.0
198,0.0
199,0.0
200,12.049647933580197
201,15.37466764459594
202,-5.84341553410321
279,0.0
280,0.0
281,0.0
282,0.3533901782624565
283,0.4648702031102151
284,0.0
618,8776.45582238466
2,1, 1,21, 0,20, 0.00,60.00,WinterDesignDay
191,0.0
192,0.0
193,0.0
194,0.0
195,0.0
196,0.0
197,0.0
198,0.0
199,0.0
200,11.937812073366145
201,15.351935911401747
202,-5.854896449008434
279,0.0
280,0.0
281,0.0
282,0.3530760150620877
283,0.46467896219292678
284,0.0
618,8776.45582238466
2,1, 1,21, 0,21, 0.00,60.00,WinterDesignDay
191,0.0
192,0.0
193,0.0
194,0.0
195,0.0
196,0.0
197,0.0
198,0.0
199,0.0
200,11.829600272602813
201,15.329399112069938
202,-5.86625195917722
279,0.0
280,0.0
281,0.0
282,0.3527713404150478
283,0.4644887396171616
284,0.0
618,8776.45582238466
2,1, 1,21, 0,22, 0.00,60.00,WinterDesignDay
191,0.0
192,0.0
193,0.0
194,0.0
195,0.0
196,0.0
197,0.0
198,0.0
199,0.0
200,11.724757246170722
201,15.307084116220281
202,-5.877471585203206
279,0.0
280,0.0
281,0.0
282,0.3524755434245276
283,0.46429984952146105
284,0.0
618,8776.45582238466
2,1, 1,21, 0,23, 0.00,60.00,WinterDesignDay
191,0.0
192,0.0
193,0.0
194,0.0
195,0.0
196,0.0
197,0.0
198,0.0
199,0.0
200,11.62305526772334
201,15.28501321297345
202,-5.888546868712743
279,0.0
280,0.0
281,0.0
282,0.35218807761332657
283,0.4641125557231567
284,0.0
618,8776.45582238466
2,1, 1,21, 0,24, 0.00,60.00,WinterDesignDay
191,0.0
192,0.0
193,0.0
194,0.0
195,0.0
196,0.0
197,0.0
198,0.0
199,0.0
200,11.524290196909627
201,15.26320475926568
202,-5.899471083595992
279,0.0
280,0.0
281,0.0
282,0.3519084514039323
283,0.46392707897294868
284,0.0
618,8776.45582238466
1,CRATERS.OF.THE.MOON.NATL.MONU ANN CLG .4% CONDNS DB=>MWB,  43.42,-113.52,  -7.00,1804.40
2,1, 7,21, 0, 1, 0.00,60.00,SummerDesignDay
191,0.0
192,0.0
193,0.0
194,0.0
195,0.0
196,0.0
197,0.0
198,0.0
199,0.0
200,20.42361770692601
201,33.879196137706447
202,21.761400901886046
279,0.0
280,0.0
281,0.0
282,0.5073956332538276
283,0.4197055256878542
284,3.6789333995952058
618,270.28639715597896
2,1, 7,21, 0, 2, 0.00,60.00,SummerDesignDay
191,0.0
192,0.0
193,0.0
194,0.0
195,0.0
196,0.0
197,0.0
198,0.0
199,0.0
200,20.181467779857884
201,32.91187133310507
202,20.84820375542259
279,0.0
280,0.0
281,0.0
282,0.508022954049645
283,0.4161041655313935
284,3.6797779203612168
618,270.28639715597896
2,1, 7,21, 0, 3, 0.00,60.00,SummerDesignDay
191,0.0
192,0.0
193,0.0
194,0.0
195,0.0
196,0.0
197,0.0
198,0.0
199,0.0
200,19.96785146869039
201,31.987297125940875
202,20.128898704426964
279,0.0
280,0.0
281,0.0
282,0.508413451123424
283,0.4115208991072987
284,3.6831597000690907
618,270.28639715597896
2,1, 7,21, 0, 4, 0.00,60.00,SummerDesignDay
191,0.0
192,0.0
193,0.0
194,0.0
195,0.0
196,0.0
197,0.0
198,0.0
199,0.0
200,19.761471070193026
201,31.087640692975254
202,19.491348515693827
279,0.0
280,0.0
281,0.0
282,0.5088212658358794
283,0.40738673673378225
284,3.688458239193253
618,270.28639715597896
2,1, 7,21, 0, 5, 0.00,60.00,SummerDesignDay
191,0.0
192,0.0
193,0.0
194,0.0
195,0.0
196,0.0
197,0.0
198,0.0
199,0.0
200,19.569389484765908
201,30.219494310129666
202,18.953384357433433
279,0.0
280,0.0
281,0.0
282,0.5089680602884724
283,0.40218449672436687
284,3.6937929350553686
618,270.28639715597896
2,1, 7,21, 0, 6, 0.00,60.00,SummerDesignDay
191,0.0
192,0.0
193,0.0
194,823.1113773002454
195,2963200.9582808834
196,1414405.9957272155
197,0.0
198,0.0
199,0.0
200,19.425435855805046
201,29.73598696968809
202,19.03666458171883
279,0.0
280,0.0
281,0.0
282,0.5080500386203138
283,0.39241399203170149
284,3.7013867620060019
618,270.28639715597896
2,1, 7,21, 0, 7, 0.00,60.00,SummerDesignDay
191,0.0
192,0.0
193,0.0
194,2400.1302273722928
195,8640468.818540253
196,8799221.156107912
197,0.0
198,0.0
199,0.0
200,19.37962871100599
201,29.935528979497879
202,20.946855047104575
279,0.0
280,0.0
281,0.0
282,0.5059154212670456
283,0.37988520875382467
284,3.724004821058952
618,270.28639715597896
2,1, 7,21, 0, 8, 0.00,60.00,SummerDesignDay
191,0.0
192,0.0
193,0.0
194,2858.469996950231
195,10290491.98902083
196,11019551.225083555
197,0.0
198,0.0
199,0.0
200,19.51214984604242
201,30.423757994937568
202,25.156939730459418
279,54.07557258290807
280,0.0
281,0.0
282,0.5013659550686854
283,0.36038786596482866
284,3.7659845718921556
618,270.28639715597896
2,1, 7,21, 0, 9, 0.00,60.00,SummerDesignDay
191,0.0
192,0.0
193,0.0
194,3007.8354839424748
195,10828207.74219291
196,12008708.797279157
197,0.0
198,0.0
199,0.0
200,19.688716505024105
201,31.08161178098058
202,30.365304445487899
279,133.37676583142562
280,0.0
281,0.0
282,0.4964675781903032
283,0.34210651380298176
284,3.8324395388310825
618,270.28639715597896
2,1, 7,21, 0,10, 0.00,60.00,SummerDesignDay
191,0.0
192,0.0
193,0.0
194,2992.9630861627699
195,10774667.110185972
196,12616842.694365899
197,0.0
198,0.0
199,0.0
200,19.88116492907526
201,31.90055460889365
202,35.457163625962738
279,201.8778523179266
280,0.0
281,0.0
282,0.4922521801975581
283,0.3285841333541124
284,3.9043202324900316
618,270.28639715597896
2,1, 7,21, 0,11, 0.00,60.00,SummerDesignDay
191,0.0
192,0.0
193,0.0
194,2736.22106525813
195,9850395.834929267
196,12129639.800141346
197,0.0
198,0.0
199,0.0
200,20.08596642777238
201,32.7918472792468
202,40.27863942400503
279,260.20977438532437
280,0.0
281,0.0
282,0.4886750915560499
283,0.31884894366466245
284,3.969886501377119
618,270.28639715597896
2,1, 7,21, 0,12, 0.00,60.00,SummerDesignDay
191,0.0
192,0.0
193,0.0
194,2287.9128213541546
195,8236486.156874956
196,10398709.535657069
197,0.0
198,0.0
199,0.0
200,20.27038213105124
201,33.5992284733863
202,44.03889827781686
279,297.12446809368626
280,0.0
281,0.0
282,0.48643843783597698
283,0.3168089220794639
284,4.021799591275643
618,270.28639715597896
2,1, 7,21, 0,13, 0.00,60.00,SummerDesignDay
191,0.0
192,0.0
193,0.0
194,2030.980682972782
195,7311530.458702015
196,8868514.848396596
197,0.0
198,0.0
199,0.0
200,20.447139437743794
201,34.330745207814548
202,46.77524258978288
279,325.4834834378353
280,0.0
281,0.0
282,0.48472004747912636
283,0.31591749921358105
284,4.056068966586165
618,270.28639715597896
2,1, 7,21, 0,14, 0.00,60.00,SummerDesignDay
191,0.0
192,0.0
193,0.0
194,2159.8642551687128
195,7775511.318607366
196,9779963.207635113
197,0.0
198,0.0
199,0.0
200,20.604372323368218
201,35.18841854073248
202,48.29358200726836
279,341.66615755491559
280,0.0
281,0.0
282,0.48375219460409
283,0.3181280145964984
284,4.072146817254199
618,270.28639715597896
2,1, 7,21, 0,15, 0.00,60.00,SummerDesignDay
191,0.0
192,0.0
193,0.0
194,2588.758394188225
195,9319530.21907761
196,11621944.686945789
197,0.0
198,0.0
199,0.0
200,20.739154248061668
201,36.186479879018879
202,48.56823749401346
279,337.5777617900453
280,0.0
281,0.0
282,0.48405762287796708
283,0.32807457002118386
284,4.067354911838806
618,270.28639715597896
2,1, 7,21, 0,16, 0.00,60.00,SummerDesignDay
191,0.0
192,0.0
193,0.0
194,2936.805816697666
195,10572500.940111598
196,12455705.5246386
197,0.0
198,0.0
199,0.0
200,20.84098353705624
201,37.16368880367453
202,47.490562626343137
279,309.2827734868529
280,0.0
281,0.0
282,0.48588339642057756
283,0.3464397232638223
284,4.042457390166139
618,270.28639715597896
2,1, 7,21, 0,17, 0.00,60.00,SummerDesignDay
191,0.0
192,0.0
193,0.0
194,3024.2319092184836
195,10887234.87318654
196,12070806.125813488
197,0.0
198,0.0
199,0.0
200,20.927291226509575
201,37.98536880777775
202,45.20659122860855
279,272.77081550350598
280,0.0
281,0.0
282,0.48822517045768196
283,0.3652554137923355
284,3.998917422450822
618,270.28639715597896
2,1, 7,21, 0,18, 0.00,60.00,SummerDesignDay
191,0.0
192,0.0
193,0.0
194,2929.124699582049
195,10544848.918495376
196,11130162.456994575
197,0.0
198,0.0
199,0.0
200,20.98911487173194
201,38.578411679397749
202,41.82419485455784
279,228.06600245516888
280,0.0
281,0.0
282,0.4910315390407588
283,0.38355366950898159
284,3.9412645888649244
618,270.28639715597896
2,1, 7,21, 0,19, 0.00,60.00,SummerDesignDay
191,0.0
192,0.0
193,0.0
194,2613.72345788281
195,9409404.448378116
196,9456750.755341534
197,0.0
198,0.0
199,0.0
200,20.994180720297725
201,38.85760750047714
202,37.463526930442018
279,162.81741466585758
280,0.0
281,0.0
282,0.4951140917262
283,0.4047571282358172
284,3.876387452885323
618,270.28639715597896
2,1, 7,21, 0,20, 0.00,60.00,SummerDesignDay
191,0.0
192,0.0
193,0.0
194,1655.9486063840055
195,5961414.982982419
196,4837640.726569452
197,0.0
198,0.0
199,0.0
200,20.997410065372688
201,38.63860469204099
202,32.934466118537589
279,114.28583376136722
280,0.0
281,0.0
282,0.49812581107954326
283,0.4167250171156205
284,3.803492470593436
618,270.28639715597896
2,1, 7,21, 0,21, 0.00,60.00,SummerDesignDay
191,0.0
192,0.0
193,0.0
194,0.0
195,0.0
196,0.0
197,0.0
198,0.0
199,0.0
200,20.965260634555869
201,37.70204462710937
202,29.01396828792908
279,75.23824052503878
280,0.0
281,0.0
282,0.5005206433686689
283,0.42154108904384948
284,3.741055527841888
618,270.28639715597896
2,1, 7,21, 0,22, 0.00,60.00,SummerDesignDay
191,0.0
192,0.0
193,0.0
194,0.0
195,0.0
196,0.0
197,0.0
198,0.0
199,0.0
200,20.86242995337131
201,36.72360155286667
202,26.18547249886015
279,38.0590511583829
280,0.0
281,0.0
282,0.5027657621855253
283,0.42208928830918315
284,3.705966330837735
618,270.28639715597896
2,1, 7,21, 0,23, 0.00,60.00,SummerDesignDay
191,0.0
192,0.0
193,0.0
194,0.0
195,0.0
196,0.0
197,0.0
198,0.0
199,0.0
200,20.747845066084019
201,35.77023539730904
202,24.316032524202237
279,10.001565830818544
280,0.0
281,0.0
282,0.5044437891347348
283,0.4208142379037061
284,3.6873913257573118
618,270.28639715597896
2,1, 7,21, 0,24, 0.00,60.00,SummerDesignDay
191,0.0
192,0.0
193,0.0
194,0.0
195,0.0
196,0.0
197,0.0
198,0.0
199,0.0
200,20.611535880975226
201,34.805091206708059
202,22.891105768979999
279,0.0
280,0.0
281,0.0
282,0.5060993579477459
283,0.42053368750211997
284,3.680729295621916
618,270.28639715597896
1,SUB-ANNUAL,  43.42,-113.52,  -7.00,1804.40
2,1, 1, 1, 0, 1, 0.00,60.00,Sunday
191,0.0
192,0.0
193,0.0
194,0.0
195,0.0
196,0.0
197,0.0
198,0.0
199,0.0
200,16.190681646223184
201,20.554228724110275
202,5.640183030974633
279,0.0
280,0.0
281,0.0
282,0.9411475961357736
283,0.5240330020996539
284,10.13877454536614
618,5466.1896012310239
2,1, 1, 1, 0, 2, 0.00,60.00,Sunday
191,0.0
192,0.0
193,0.0
194,0.0
195,0.0
196,0.0
197,0.0
198,0.0
199,0.0
200,15.372778279846815
201,20.554205065646618
202,4.326095370861477
279,0.0
280,0.0
281,0.0
282,1.1390816082205753
283,0.5764447048959442
284,12.723675263004298
618,5765.657884832399
2,1, 1, 1, 0, 3, 0.00,60.00,Sunday
191,0.0
192,0.0
193,0.0
194,0.0
195,0.0
196,0.0
197,0.0
198,0.0
199,0.0
200,15.30205704619804
201,20.55444546402206
202,4.064471930066761
279,0.0
280,0.0
281,0.0
282,1.0823324102608978
283,0.5683933059629857
284,12.463624841324306
618,5874.632625311506
2,1, 1, 1, 0, 4, 0.00,60.00,Sunday
191,0.0
192,0.0
193,0.0
194,0.0
195,0.0
196,0.0
197,0.0
198,0.0
199,0.0
200,15.533004076672335
201,20.554525714628395
202,4.391394839252653
279,0.0
280,0.0
281,0.0
282,0.819930990203749
283,0.5011323485920057
284,9.26623834121373
618,5681.782734250972
2,1, 1, 1, 0, 5, 0.00,60.00,Sunday
191,0.0
192,0.0
193,0.0
194,0.0
195,0.0
196,0.0
197,0.0
198,0.0
199,0.0
200,15.354410210483503
201,20.554477624017989
202,4.393945472447754
279,0.0
280,0.0
281,0.0
282,0.7974823122123277
283,0.4755890172983909
284,8.07997375000969
618,5664.294142931998
2,1, 1, 1, 0, 6, 0.00,60.00,Sunday
191,0.0
192,0.0
193,0.0
194,0.0
195,0.0
196,0.0
197,0.0
198,0.0
199,0.0
200,15.494161383080563
201,20.5543934131526
202,4.293508294428507
279,0.0
280,0.0
281,0.0
282,0.5984548870959205
283,0.43273334975423596
284,4.5000802943615849
618,5793.942840963109
2,1, 1, 1, 0, 7, 0.00,60.00,Sunday
191,0.0
192,0.0
193,0.0
194,0.0
195,0.0
196,0.0
197,0.0
198,0.0
199,0.0
200,15.694446141470268
201,20.55517245953388
202,5.406113123487979
279,0.0
280,0.0
281,0.0
282,0.5506895639974058
283,0.3711921310942879
284,3.4637603986896687
618,5211.429967613148
2,1, 1, 1, 0, 8, 0.00,60.00,Sunday
191,0.0
192,0.0
193,0.0
194,0.0
195,0.0
196,0.0
197,0.0
198,0.0
199,0.0
200,13.461100533145546
201,20.55253337499728
202,4.040956093312188
279,0.0
280,0.0
281,0.0
282,1.6996551674017993
283,0.8399086700199925
284,15.41654992591152
618,7261.8254558836429
2,1, 1, 1, 0, 9, 0.00,60.00,Sunday
191,0.0
192,0.0
193,0.0
194,19.335998281794845
195,69609.59381446144
196,0.0
197,0.0
198,0.0
199,0.0
200,12.662462587024649
201,20.548533630688924
202,3.6543243676072909
279,0.0
280,0.0
281,0.0
282,2.319417512250968
283,1.1181528249934468
284,21.145324798936604
618,8767.765487505634
2,1, 1, 1, 0,10, 0.00,60.00,Sunday
191,0.0
192,0.0
193,0.0
194,127.19557120930333
195,457904.05635349199
196,0.0
197,0.0
198,0.0
199,0.0
200,12.50630847095742
201,20.553216377045826
202,3.8554249142685248
279,0.0
280,0.0
281,0.0
282,2.2486197468138857
283,1.0872957065711402
284,20.331048475366946
618,8632.131892268551
2,1, 1, 1, 0,11, 0.00,60.00,Sunday
191,0.0
192,0.0
193,0.0
194,373.04998834227697
195,1342979.958032197
196,0.0
197,0.0
198,0.0
199,0.0
200,12.13241430252387
201,20.548965552151519
202,4.078384727728864
279,0.0
280,0.0
281,0.0
282,2.3807679097359277
283,1.1501113792618845
284,21.371691506974864
618,8724.537600318703
2,1, 1, 1, 0,12, 0.00,60.00,Sunday
191,0.0
192,0.0
193,0.0
194,346.8053273566453
195,1248499.1784839233
196,0.0
197,0.0
198,0.0
199,0.0
200,12.188746176481646
201,20.555332880435825
202,4.0592158964513589
279,0.0
280,0.0
281,0.0
282,2.170384040449013
283,1.049889514961838
284,20.188806265504366
618,8122.9956643980499
2,1, 1, 1, 0,13, 0.00,60.00,Sunday
191,0.0
192,0.0
193,0.0
194,387.15425854308128
195,1393755.3307550925
196,0.0
197,0.0
198,0.0
199,0.0
200,12.00917353517311
201,20.550775038979685
202,4.002333320415574
279,0.0
280,0.0
281,0.0
282,2.2267400918866517
283,1.0730294286036746
284,23.163370814168947
618,8062.008655619329
2,1, 1, 1, 0,14, 0.00,60.00,Sunday
191,0.0
192,0.0
193,0.0
194,530.4141820967222
195,1909491.0555482002
196,0.0
197,0.0
198,0.0
199,0.0
200,11.783999883177176
201,20.552349987137946
202,4.124666557432744
279,0.0
280,0.0
281,0.0
282,2.4886967952541414
283,1.187824848181645
284,30.129517016508026
618,8226.286479542434
2,1, 1, 1, 0,15, 0.00,60.00,Sunday
191,0.0
192,0.0
193,0.0
194,1296.6084735124603
195,4667790.504644857
196,2736989.6985283747
197,0.0
198,0.0
199,0.0
200,11.540895306600753
201,20.553820293013837
202,3.695024898292825
279,0.0
280,0.0
281,0.0
282,2.619372224540702
283,1.2909129112521805
284,37.432520055488307
618,8071.0851350710249
2,1, 1, 1, 0,16, 0.00,60.00,Sunday
191,0.0
192,0.0
193,0.0
194,1299.3188103327023
195,4677547.717197728
196,2879394.2979555779
197,0.0
198,0.0
199,0.0
200,11.847370446252507
201,20.55147145890194
202,4.918052720315338
279,0.0
280,0.0
281,0.0
282,2.5066299123949458
283,1.2079386977028178
284,35.70872044327242
618,6947.846102797857
2,1, 1, 1, 0,17, 0.00,60.00,Sunday
191,0.0
192,0.0
193,0.0
194,172.02754371419653
195,619299.1573711075
196,0.0
197,0.0
198,0.0
199,0.0
200,11.944200767987818
201,20.55334043598893
202,5.312413957918898
279,0.0
280,0.0
281,0.0
282,2.4121491962254035
283,1.1535873418559215
284,34.28908651984777
618,6935.6402485309849
2,1, 1, 1, 0,18, 0.00,60.00,Sunday
191,0.0
192,0.0
193,0.0
194,0.0
195,0.0
196,0.0
197,0.0
198,0.0
199,0.0
200,11.944916356384097
201,20.551253162062534
202,5.502064336170549
279,0.0
280,0.0
281,0.0
282,2.373746362301349
283,1.1713278392623752
284,34.04729521779684
618,7277.61561355502
2,1, 1, 1, 0,19, 0.00,60.00,Sunday
191,0.0
192,0.0
193,0.0
194,0.0
195,0.0
196,0.0
197,0.0
198,0.0
199,0.0
200,11.661267511835839
201,20.551263736665644
202,5.716802805761937
279,0.0
280,0.0
281,0.0
282,2.704617767305959
283,1.280583299571482
284,35.69345630154324
618,7769.7795191716709
2,1, 1, 1, 0,20, 0.00,60.00,Sunday
191,0.0
192,0.0
193,0.0
194,0.0
195,0.0
196,0.0
197,0.0
198,0.0
199,0.0
200,11.338393894611122
201,20.551059954520829
202,5.766904278085712
279,0.0
280,0.0
281,0.0
282,3.031185400186097
283,1.423771658400534
284,36.596154592896947
618,8407.171320552958
2,1, 1, 1, 0,21, 0.00,60.00,Sunday
191,0.0
192,0.0
193,0.0
194,0.0
195,0.0
196,0.0
197,0.0
198,0.0
199,0.0
200,11.584122805016639
201,20.555685879052687
202,6.160860113627987
279,0.0
280,0.0
281,0.0
282,2.6149085148923194
283,1.2351365451380577
284,30.29589173863481
618,7684.2859294124
2,1, 1, 1, 0,22, 0.00,60.00,Sunday
191,0.0
192,0.0
193,0.0
194,0.0
195,0.0
196,0.0
197,0.0
198,0.0
199,0.0
200,11.443286104454306
201,20.551002711741373
202,6.120906137150854
279,0.0
280,0.0
281,0.0
282,2.680846228056542
283,1.2656783399393355
284,31.1312680199542
618,7793.827101446907
2,1, 1, 1, 0,23, 0.00,60.00,Sunday
191,0.0
192,0.0
193,0.0
194,0.0
195,0.0
196,0.0
197,0.0
198,0.0
199,0.0
200,11.218344985295524
201,20.55181887391768
202,6.1365011556333439
279,0.0
280,0.0
281,0.0
282,2.898018900312273
283,1.363290429818056
284,32.21941159754649
618,8198.469365970874
2,1, 1, 1, 0,24, 0.00,60.00,Sunday
191,0.0
192,0.0
193,0.0
194,0.0
195,0.0
196,0.0
197,0.0
198,0.0
199,0.0
200,11.13742372122839
201,20.553187643941823
202,6.266699054274049
279,0.0
280,0.0
281,0.0
282,2.9445250770987125
283,1.3842052459379555
284,31.419419014990287
618,8268.775960076777
End of Data
 Number of Records Written=        1368
