Program Version,EnergyPlus, Version 22.2.0-c249759bad, YMD=2023.09.01 15:47
1,5,Environment Title[],Latitude[deg],Longitude[deg],Time Zone[],Elevation[m]
2,8,Day of Simulation[],Month[],Day of Month[],DST Indicator[1=yes 0=no],Hour[],StartMinute[],EndMinute[],DayType
3,5,Cumulative Day of Simulation[],Month[],Day of Month[],DST Indicator[1=yes 0=no],DayType  ! When Daily Report Variables Requested
4,2,Cumulative Days of Simulation[],Month[]  ! When Monthly Report Variables Requested
5,1,Cumulative Days of Simulation[] ! When Run Period Report Variables Requested
6,1,Calendar Year of Simulation[] ! When Annual Report Variables Requested
581,11,LIVING,AFN Zone Infiltration Air Change Rate [ach] !RunPeriod [Value,Min,Month,Day,Hour,Minute,Max,Month,Day,Hour,Minute]
582,11,ATTIC,AFN Zone Infiltration Air Change Rate [ach] !RunPeriod [Value,Min,Month,Day,Hour,Minute,Max,Month,Day,Hour,Minute]
583,11,CRAWLSPACE,AFN Zone Infiltration Air Change Rate [ach] !RunPeriod [Value,Min,Month,Day,Hour,Minute,Max,Month,Day,Hour,Minute]
1038,11,Facility,Facility Heating Setpoint Not Met Time [hr] !RunPeriod [Value,Min,Month,Day,Hour,Minute,Max,Month,Day,Hour,Minute]
1039,11,Facility,Facility Cooling Setpoint Not Met Time [hr] !RunPeriod [Value,Min,Month,Day,Hour,Minute,Max,Month,Day,Hour,Minute]
1115,11,DX_HEATING_COIL,Heating Coil Heating Energy [J] !RunPeriod [Value,Min,Month,Day,Hour,Minute,Max,Month,Day,Hour,Minute]
1128,11,DX_HEATING_COIL,Heating Coil Electricity Energy [J] !RunPeriod [Value,Min,Month,Day,Hour,Minute,Max,Month,Day,Hour,Minute]
1153,11,DX_HEATING_COIL,Heating Coil Defrost Electricity Energy [J] !RunPeriod [Value,Min,Month,Day,Hour,Minute,Max,Month,Day,Hour,Minute]
1154,11,DX_HEATING_COIL,Heating Coil Crankcase Heater Electricity Energy [J] !RunPeriod [Value,Min,Month,Day,Hour,Minute,Max,Month,Day,Hour,Minute]
1155,11,HEATING_RESISTANCE_BACKUP,Heating Coil Heating Energy [J] !RunPeriod [Value,Min,Month,Day,Hour,Minute,Max,Month,Day,Hour,Minute]
1156,11,HEATING_RESISTANCE_BACKUP,Heating Coil Electricity Energy [J] !RunPeriod [Value,Min,Month,Day,Hour,Minute,Max,Month,Day,Hour,Minute]
1292,11,WATER HEATER,Water Heater Heat Loss Energy [J] !RunPeriod [Value,Min,Month,Day,Hour,Minute,Max,Month,Day,Hour,Minute]
1306,11,WATER HEATER,Water Heater Heating Energy [J] !RunPeriod [Value,Min,Month,Day,Hour,Minute,Max,Month,Day,Hour,Minute]
1307,11,WATER HEATER,Water Heater Unmet Demand Heat Transfer Energy [J] !RunPeriod [Value,Min,Month,Day,Hour,Minute,Max,Month,Day,Hour,Minute]
1308,11,WATER HEATER,Water Heater Electricity Energy [J] !RunPeriod [Value,Min,Month,Day,Hour,Minute,Max,Month,Day,Hour,Minute]
13,11,Electricity:Facility [J] !RunPeriod [Value,Min,Month,Day,Hour,Minute,Max,Month,Day,Hour,Minute]
1134,11,Heating:Electricity [J] !RunPeriod [Value,Min,Month,Day,Hour,Minute,Max,Month,Day,Hour,Minute]
1096,11,Cooling:Electricity [J] !RunPeriod [Value,Min,Month,Day,Hour,Minute,Max,Month,Day,Hour,Minute]
562,11,Fans:Electricity [J] !RunPeriod [Value,Min,Month,Day,Hour,Minute,Max,Month,Day,Hour,Minute]
1379,11,Pumps:Electricity [J] !RunPeriod [Value,Min,Month,Day,Hour,Minute,Max,Month,Day,Hour,Minute]
1326,11,WaterSystems:Electricity [J] !RunPeriod [Value,Min,Month,Day,Hour,Minute,Max,Month,Day,Hour,Minute]
61,11,InteriorLights:Electricity [J] !RunPeriod [Value,Min,Month,Day,Hour,Minute,Max,Month,Day,Hour,Minute]
1046,11,ExteriorLights:Electricity [J] !RunPeriod [Value,Min,Month,Day,Hour,Minute,Max,Month,Day,Hour,Minute]
134,11,InteriorEquipment:Electricity [J] !RunPeriod [Value,Min,Month,Day,Hour,Minute,Max,Month,Day,Hour,Minute]
170,11,gas_dryer:InteriorEquipment:Electricity [J] !RunPeriod [Value,Min,Month,Day,Hour,Minute,Max,Month,Day,Hour,Minute]
207,11,clotheswasher:InteriorEquipment:Electricity [J] !RunPeriod [Value,Min,Month,Day,Hour,Minute,Max,Month,Day,Hour,Minute]
244,11,dishwasher:InteriorEquipment:Electricity [J] !RunPeriod [Value,Min,Month,Day,Hour,Minute,Max,Month,Day,Hour,Minute]
281,11,refrigerator:InteriorEquipment:Electricity [J] !RunPeriod [Value,Min,Month,Day,Hour,Minute,Max,Month,Day,Hour,Minute]
318,11,electric_mels:InteriorEquipment:Electricity [J] !RunPeriod [Value,Min,Month,Day,Hour,Minute,Max,Month,Day,Hour,Minute]
355,11,NaturalGas:Facility [J] !RunPeriod [Value,Min,Month,Day,Hour,Minute,Max,Month,Day,Hour,Minute]
403,11,InteriorEquipment:NaturalGas [J] !RunPeriod [Value,Min,Month,Day,Hour,Minute,Max,Month,Day,Hour,Minute]
476,11,gas_dryer:InteriorEquipment:NaturalGas [J] !RunPeriod [Value,Min,Month,Day,Hour,Minute,Max,Month,Day,Hour,Minute]
513,11,gas_mels:InteriorEquipment:NaturalGas [J] !RunPeriod [Value,Min,Month,Day,Hour,Minute,Max,Month,Day,Hour,Minute]
End of Data Dictionary
1,EXTREME_WINTER,  40.28, -74.82,  -5.00,  65.00
5,7
1038,0.5,0.0, 1, 8, 1,15,0.25, 1,10, 6,15
1039,0.0,0.0, 1, 8, 1,15,0.0, 1, 8, 1,15
581,0.3503836344458528,0.18147505408013478, 1,14,20,60,0.623318529416865, 1, 8,16,60
582,3.2605042540110465,0.0, 1,10,21,60,11.035840023247616, 1, 8,16,52
583,0.04024546179952711,0.00023723516209337665, 1,14,19,55,0.06737649944249141, 1, 9, 9,52
1115,1431123844.3827708,0.0, 1, 8,23, 3,3687612.164345633, 1,12, 5,60
1128,470779540.1870475,0.0, 1, 8,23, 3,1150329.6177663065, 1,13, 6,30
1153,5201211.009354603,0.0, 1, 8,23, 3,72363.86670459276, 1, 8, 4,60
1154,45357618.29297909,0.0, 1, 8, 4,60,180000.0, 1, 9,15,15
1155,300895073.8180721,0.0, 1, 8, 1,15,3714061.103780017, 1,10, 6,45
1156,300895073.8180721,0.0, 1, 8, 1,15,3714061.103780017, 1,10, 6,45
1292,-25304911.73650708,-39765.41286506428, 1, 8, 1,15,-5579.414456631998, 1,14,18,27
1306,230703713.73791096,0.0, 1, 8, 1,15,7403296.370595981, 1, 8, 7,45
1307,5744818.835265377,0.0, 1, 8, 1,15,1902594.6761917989, 1,14,19,55
1308,230703713.73791096,0.0, 1, 8, 1,15,7403296.370595981, 1, 8, 7,45
13,1475503280.5627491,452017.0388981225, 1, 9,15,15,12669617.75482225, 1,10, 7,60
61,301924526.02383536,88139.10953165221, 1, 8, 1,15,1282023.4113694867, 1, 8,20,15
134,70666020.44019976,63564.01800854099, 1, 8, 4,15,156554.22484006523, 1,13,20,15
170,5241013.419656067,348.4159749238097, 1, 8, 4,15,17476.39704006126, 1,13,12,15
207,6509451.13922267,815.2532113832032, 1, 8, 3,15,22990.642799023623, 1,13,10,15
244,12749673.399825225,1521.856143006317, 1, 8, 4,15,53038.631142310165, 1,13,20,15
281,46165882.481495745,59938.60262432081, 1, 8, 5,15,81951.81706819107, 1, 8,19,15
318,0.0,0.0, 1, 8, 1,15,0.0, 1, 8, 1,15
355,197687796.27748066,18561.32405820678, 1, 8, 4,15,724774.895203776, 1,13,18,15
403,197687796.27748066,18561.32405820678, 1, 8, 4,15,724774.895203776, 1,13,18,15
476,106772067.24485716,7098.072629279515, 1, 8, 4,15,356036.3026282215, 1,13,12,15
513,0.0,0.0, 1, 8, 1,15,0.0, 1, 8, 1,15
562,49975577.05335075,0.0, 1, 9,15,15,119102.06492456292, 1, 8, 4,60
1046,0.0,0.0, 1, 8, 1,15,0.0, 1, 8, 1,15
1096,0.0,0.0, 1, 8, 1,15,0.0, 1, 8, 1,15
1134,822233443.3074518,180000.0, 1, 9,15,15,5288604.035660923, 1,10, 6,15
1326,230703713.73791096,0.0, 1, 8, 1,15,10346509.670844197, 1,14, 9,45
1379,0.0,0.0, 1, 8, 1,15,0.0, 1, 8, 1,15
1,EXTREME_SUMMER,  40.28, -74.82,  -5.00,  65.00
5,7
1038,0.0,0.0, 7,29, 1,15,0.0, 7,29, 1,15
1039,38.5,0.0, 7,29, 1,15,0.25, 7,29,11,45
581,0.091734698619819,0.0, 7,29, 7,33,0.45010440286311404, 7,30,13,55
582,2.3710698022931815,0.0, 8, 3,20,35,10.07680200394156, 7,30,13,50
583,0.03288328046413404,0.0, 8, 2,23, 5,0.061628818591437554, 7,30,13,50
1115,0.0,0.0, 7,29, 1,15,0.0, 7,29, 1,15
1128,0.0,0.0, 7,29, 1,15,0.0, 7,29, 1,15
1153,0.0,0.0, 7,29, 1,15,0.0, 7,29, 1,15
1154,0.0,0.0, 7,29, 1,15,0.0, 7,29, 1,15
1155,0.0,0.0, 7,29, 1,15,0.0, 7,29, 1,15
1156,0.0,0.0, 7,29, 1,15,0.0, 7,29, 1,15
1292,-21908659.509691745,-34335.012335844105, 8, 2,21,15,-2708.460383311494, 8, 4,17,27
1306,169002501.38518605,0.0, 7,29, 1,15,5543452.7214866355, 8, 2, 6,60
1307,1052666.6441509,0.0, 7,29, 1,15,280098.65007232386, 8, 4,19,52
1308,169002501.38518605,0.0, 7,29, 1,15,5543452.7214866355, 8, 2, 6,60
13,1009252128.2120044,152071.80019841267, 8, 3, 4,15,12338831.365015628, 8, 4,19,60
61,301924526.02383536,88139.10953165221, 7,29, 1,15,1282023.4113694867, 7,29,20,15
134,70666020.44019976,63564.01800854099, 7,29, 4,15,156554.22484006523, 8, 3,20,15
170,5241013.419656067,348.4159749238097, 7,29, 4,15,17476.39704006126, 8, 3,12,15
207,6509451.13922267,815.2532113832032, 7,29, 3,15,22990.642799023623, 8, 3,10,15
244,12749673.399825225,1521.856143006317, 7,29, 4,15,53038.631142310165, 8, 3,20,15
281,46165882.481495745,59938.60262432081, 7,29, 5,15,81951.81706819107, 7,29,19,15
318,0.0,0.0, 7,29, 1,15,0.0, 7,29, 1,15
355,197687796.27748066,18561.32405820678, 7,29, 4,15,724774.895203776, 8, 3,18,15
403,197687796.27748066,18561.32405820678, 7,29, 4,15,724774.895203776, 8, 3,18,15
476,106772067.24485716,7098.072629279515, 7,29, 4,15,356036.3026282215, 8, 3,12,15
513,0.0,0.0, 7,29, 1,15,0.0, 7,29, 1,15
562,46070104.96702879,0.0, 8, 3, 3,60,119102.06492456293, 7,29,11,15
1046,0.0,0.0, 7,29, 1,15,0.0, 7,29, 1,15
1096,421588975.3957544,0.0, 8, 3, 3,60,1234698.9506377843, 7,29,17,60
1134,0.0,0.0, 7,29, 1,15,0.0, 7,29, 1,15
1326,169002501.38518602,0.0, 7,29, 1,15,9901612.386106988, 8, 4,19,60
1379,0.0,0.0, 7,29, 1,15,0.0, 7,29, 1,15
1,ANNUAL,  40.28, -74.82,  -5.00,  65.00
5,365
1038,17.5,0.0, 1, 1, 1,15,0.25, 1, 3, 6,15
1039,664.0,0.0, 1, 1, 1,15,0.25, 3,25,17,45
581,0.22080743351313226,0.0, 5,29,20,48,1.0782380190157386,11,17, 4,60
582,3.3419609274812956,0.0, 1, 1, 6, 5,32.440052791903256,12,27,21,60
583,0.02401303224384456,0.0, 6,24,23, 3,0.07860266666725022,12,27,21,60
1115,19206574087.39031,0.0, 1, 1,14,22,4180273.9396206997,12,23,10,15
1128,5915296490.29149,0.0, 1, 1,14,22,1196282.1603469301,12,23,10,15
1153,141085452.56234702,0.0, 1, 1,14,22,113275.21100105267,12,28, 6,45
1154,1615058943.5385163,0.0, 1, 1, 6, 5,180000.0, 1, 1,15,15
1155,2399549924.026563,0.0, 1, 1, 1,15,4216054.328896354, 1,31, 6,45
1156,2399549924.026563,0.0, 1, 1, 1,15,4216054.328896354, 1,31, 6,45
1292,-1220614190.6334307,-40427.77759065973,12,28, 2,30,-2581.6269909605144, 5,31,18,47
1306,10576459438.148619,0.0, 1, 1, 1,15,10540800.0,12,17,19,60
1307,183533200.29865316,0.0, 1, 1, 1,15,5683800.0198098095, 2, 5,19,60
1308,10576459438.148619,0.0, 1, 1, 1,15,10540800.0,12,17,19,60
13,50066089733.74617,151703.1275401932, 3, 6, 4,15,14263385.986879157, 2, 5, 9,45
61,15743207428.383959,88139.10953165221, 1, 1, 1,15,1282023.4113694867, 1, 1,20,15
134,3685071073.4325233,63564.01800854099, 1, 2, 4,15,156554.22484006523, 1, 1,20,15
170,273393721.45532674,348.4159749238097, 1, 2, 4,15,17476.39704006126, 1, 1,12,15
207,339560869.0695816,815.2532113832032, 1, 2, 3,15,22990.642799023623, 1, 1,10,15
244,664895467.8009144,1521.856143006317, 1, 2, 4,15,53038.631142310165, 1, 1,20,15
281,2407221015.106824,59938.60262432081, 1, 1, 5,15,81951.81706819107, 1, 1,19,15
318,0.0,0.0, 1, 1, 1,15,0.0, 1, 1, 1,15
355,10310294493.051695,18561.32405820678, 1, 2, 4,15,724774.895203776, 1, 1,18,15
403,10310294493.051695,18561.32405820678, 1, 2, 4,15,724774.895203776, 1, 1,18,15
476,5569688622.066177,7098.072629279515, 1, 2, 4,15,356036.3026282215, 1, 1,12,15
513,0.0,0.0, 1, 1, 1,15,0.0, 1, 1, 1,15
562,1591654371.7661462,0.0, 1, 1,14,30,119102.06492456293, 1,31,10,60
1046,0.0,0.0, 1, 1, 1,15,0.0, 1, 1, 1,15
1096,8398706611.5941,0.0, 1, 1, 1,15,1269370.158357752, 7,19,16,60
1134,10070990810.418888,0.0, 1,15,15,15,5315387.755231895, 1, 3, 6,15
1326,10576459438.14861,0.0, 1, 1, 1,15,10540800.0, 3,26,19,60
1379,0.0,0.0, 1, 1, 1,15,0.0, 1, 1, 1,15
End of Data
 Number of Records Written=          99
