Program Version,EnergyPlus, Version 22.2.0-c249759bad, YMD=2023.09.01 19:00
1,5,Environment Title[],Latitude[deg],Longitude[deg],Time Zone[],Elevation[m]
2,8,Day of Simulation[],Month[],Day of Month[],DST Indicator[1=yes 0=no],Hour[],StartMinute[],EndMinute[],DayType
3,5,Cumulative Day of Simulation[],Month[],Day of Month[],DST Indicator[1=yes 0=no],DayType  ! When Daily Report Variables Requested
4,2,Cumulative Days of Simulation[],Month[]  ! When Monthly Report Variables Requested
5,1,Cumulative Days of Simulation[] ! When Run Period Report Variables Requested
6,1,Calendar Year of Simulation[] ! When Annual Report Variables Requested
618,11,DX_HEATING_COIL,Heating Coil Heating Energy [J] !RunPeriod [Value,Min,Month,Day,Hour,Minute,Max,Month,Day,Hour,Minute]
631,11,DX_HEATING_COIL,Heating Coil Electricity Energy [J] !RunPeriod [Value,Min,Month,Day,Hour,Minute,Max,Month,Day,Hour,Minute]
656,11,DX_HEATING_COIL,Heating Coil Defrost Electricity Energy [J] !RunPeriod [Value,Min,Month,Day,Hour,Minute,Max,Month,Day,Hour,Minute]
657,11,DX_HEATING_COIL,Heating Coil Crankcase Heater Electricity Energy [J] !RunPeriod [Value,Min,Month,Day,Hour,Minute,Max,Month,Day,Hour,Minute]
684,11,HEAT PUMP WATER HEATER EVAPORATOR,Cooling Coil Total Water Heating Energy [J] !RunPeriod [Value,Min,Month,Day,Hour,Minute,Max,Month,Day,Hour,Minute]
685,11,HEAT PUMP WATER HEATER EVAPORATOR,Cooling Coil Water Heating Electricity Energy [J] !RunPeriod [Value,Min,Month,Day,Hour,Minute,Max,Month,Day,Hour,Minute]
712,11,LIVING,AFN Zone Infiltration Air Change Rate [ach] !RunPeriod [Value,Min,Month,Day,Hour,Minute,Max,Month,Day,Hour,Minute]
713,11,ATTIC,AFN Zone Infiltration Air Change Rate [ach] !RunPeriod [Value,Min,Month,Day,Hour,Minute,Max,Month,Day,Hour,Minute]
714,11,CRAWLSPACE,AFN Zone Infiltration Air Change Rate [ach] !RunPeriod [Value,Min,Month,Day,Hour,Minute,Max,Month,Day,Hour,Minute]
1157,11,Facility,Facility Heating Setpoint Not Met Time [hr] !RunPeriod [Value,Min,Month,Day,Hour,Minute,Max,Month,Day,Hour,Minute]
1158,11,Facility,Facility Cooling Setpoint Not Met Time [hr] !RunPeriod [Value,Min,Month,Day,Hour,Minute,Max,Month,Day,Hour,Minute]
1184,11,HEATING_RESISTANCE_BACKUP,Heating Coil Heating Energy [J] !RunPeriod [Value,Min,Month,Day,Hour,Minute,Max,Month,Day,Hour,Minute]
1185,11,HEATING_RESISTANCE_BACKUP,Heating Coil Electricity Energy [J] !RunPeriod [Value,Min,Month,Day,Hour,Minute,Max,Month,Day,Hour,Minute]
1321,11,WATER HEATER TANK,Water Heater Heat Loss Energy [J] !RunPeriod [Value,Min,Month,Day,Hour,Minute,Max,Month,Day,Hour,Minute]
1335,11,WATER HEATER TANK,Water Heater Heating Energy [J] !RunPeriod [Value,Min,Month,Day,Hour,Minute,Max,Month,Day,Hour,Minute]
1336,11,WATER HEATER TANK,Water Heater Unmet Demand Heat Transfer Energy [J] !RunPeriod [Value,Min,Month,Day,Hour,Minute,Max,Month,Day,Hour,Minute]
1337,11,WATER HEATER TANK,Water Heater Electricity Energy [J] !RunPeriod [Value,Min,Month,Day,Hour,Minute,Max,Month,Day,Hour,Minute]
13,11,Electricity:Facility [J] !RunPeriod [Value,Min,Month,Day,Hour,Minute,Max,Month,Day,Hour,Minute]
637,11,Heating:Electricity [J] !RunPeriod [Value,Min,Month,Day,Hour,Minute,Max,Month,Day,Hour,Minute]
599,11,Cooling:Electricity [J] !RunPeriod [Value,Min,Month,Day,Hour,Minute,Max,Month,Day,Hour,Minute]
692,11,Fans:Electricity [J] !RunPeriod [Value,Min,Month,Day,Hour,Minute,Max,Month,Day,Hour,Minute]
1374,11,Pumps:Electricity [J] !RunPeriod [Value,Min,Month,Day,Hour,Minute,Max,Month,Day,Hour,Minute]
677,11,WaterSystems:Electricity [J] !RunPeriod [Value,Min,Month,Day,Hour,Minute,Max,Month,Day,Hour,Minute]
61,11,InteriorLights:Electricity [J] !RunPeriod [Value,Min,Month,Day,Hour,Minute,Max,Month,Day,Hour,Minute]
1165,11,ExteriorLights:Electricity [J] !RunPeriod [Value,Min,Month,Day,Hour,Minute,Max,Month,Day,Hour,Minute]
134,11,InteriorEquipment:Electricity [J] !RunPeriod [Value,Min,Month,Day,Hour,Minute,Max,Month,Day,Hour,Minute]
170,11,gas_dryer:InteriorEquipment:Electricity [J] !RunPeriod [Value,Min,Month,Day,Hour,Minute,Max,Month,Day,Hour,Minute]
207,11,clotheswasher:InteriorEquipment:Electricity [J] !RunPeriod [Value,Min,Month,Day,Hour,Minute,Max,Month,Day,Hour,Minute]
244,11,dishwasher:InteriorEquipment:Electricity [J] !RunPeriod [Value,Min,Month,Day,Hour,Minute,Max,Month,Day,Hour,Minute]
281,11,refrigerator:InteriorEquipment:Electricity [J] !RunPeriod [Value,Min,Month,Day,Hour,Minute,Max,Month,Day,Hour,Minute]
318,11,electric_mels:InteriorEquipment:Electricity [J] !RunPeriod [Value,Min,Month,Day,Hour,Minute,Max,Month,Day,Hour,Minute]
355,11,NaturalGas:Facility [J] !RunPeriod [Value,Min,Month,Day,Hour,Minute,Max,Month,Day,Hour,Minute]
403,11,InteriorEquipment:NaturalGas [J] !RunPeriod [Value,Min,Month,Day,Hour,Minute,Max,Month,Day,Hour,Minute]
476,11,gas_dryer:InteriorEquipment:NaturalGas [J] !RunPeriod [Value,Min,Month,Day,Hour,Minute,Max,Month,Day,Hour,Minute]
513,11,gas_mels:InteriorEquipment:NaturalGas [J] !RunPeriod [Value,Min,Month,Day,Hour,Minute,Max,Month,Day,Hour,Minute]
End of Data Dictionary
1,EXTREME_WINTER,  35.53, -97.65,  -6.00, 396.00
5,7
1157,1.5,0.0, 1,29, 1,15,0.25, 1,30, 6,15
1158,0.0,0.0, 1,29, 1,15,0.0, 1,29, 1,15
618,1552742099.7020936,0.0, 1,29, 1,15,3957329.3048386206, 2, 4, 8,60
631,553667762.7988765,0.0, 1,29, 1,15,1368160.7771489331, 2, 4, 8,60
656,7175971.16674734,0.0, 1,29, 1, 7,102200.32804936761, 1,31,10,45
657,40734557.22404209,0.0, 1,29, 1,32,180000.0, 1,29,16,15
684,242236978.75433695,0.0, 1,29, 1, 7,1395860.143156054, 1,29, 7,15
685,76436260.70534058,0.0, 1,29, 1, 7,379834.59319275734, 1,31,22,15
712,0.5153024336696914,0.15781826158653983, 1,30,22,60,1.4459432214814336, 2, 1,13,60
713,6.331314674944731,0.004560642387370253, 2, 3,24,30,22.839465470592362, 2, 1,13,60
714,0.0540298436100697,0.0004261903822012634, 2, 3,23, 6,0.11286795567858653, 2, 1,13,60
1184,1073429048.3601506,0.0, 1,29, 1, 7,7822732.416522083, 2, 1, 8,30
1185,1073429048.3601506,0.0, 1,29, 1, 7,7822732.416522083, 2, 1, 8,30
1321,-144279407.82529032,-253711.69613673448, 2, 4, 5,45,-31804.22950519731, 2, 3,10,33
1335,0.0,0.0, 1,29, 1, 7,0.0, 1,29, 1, 7
1336,141708738.9330033,21138.214082203394, 2, 3,11, 3,1578980.0109637748, 2, 1,20,15
1337,0.0,0.0, 1,29, 1, 7,0.0, 1,29, 1, 7
13,2195783144.840114,165654.1357532369, 1,29, 2,15,10257256.242135763, 2, 1, 8,30
61,301924526.02383536,88139.10953165221, 1,29, 1,15,1282023.4113694867, 1,29,20,15
134,70666020.44019976,63564.01800854099, 1,29, 4,15,156554.22484006523, 2, 3,20,15
170,5241013.419656067,348.4159749238097, 1,29, 4,15,17476.39704006126, 2, 3,12,15
207,6509451.13922267,815.2532113832032, 1,29, 3,15,22990.642799023623, 2, 3,10,15
244,12749673.399825225,1521.856143006317, 1,29, 4,15,53038.631142310165, 2, 3,20,15
281,46165882.481495745,59938.60262432081, 1,29, 5,15,81951.81706819107, 1,29,19,15
318,0.0,0.0, 1,29, 1,15,0.0, 1,29, 1,15
355,197687796.27748066,18561.32405820678, 1,29, 4,15,724774.895203776, 2, 3,18,15
403,197687796.27748066,18561.32405820678, 1,29, 4,15,724774.895203776, 2, 3,18,15
476,106772067.24485716,7098.072629279515, 1,29, 4,15,356036.3026282215, 2, 3,12,15
513,0.0,0.0, 1,29, 1,15,0.0, 1,29, 1,15
599,0.0,0.0, 1,29, 1,15,0.0, 1,29, 1,15
637,1675007339.549815,0.0, 1,29, 1,45,9120485.82201469, 2, 1, 8,30
677,81577060.70534053,7650.0, 1,29, 1,15,392916.6450952463, 1,31,22,30
692,66608198.12092261,0.0, 1,29, 1,45,172271.9934944907, 2, 3,10,30
1165,0.0,0.0, 1,29, 1,15,0.0, 1,29, 1,15
1374,0.0,0.0, 1,29, 1,15,0.0, 1,29, 1,15
1,EXTREME_SUMMER,  35.53, -97.65,  -6.00, 396.00
5,7
1157,0.0,0.0, 7,22, 1,15,0.0, 7,22, 1,15
1158,54.0,0.0, 7,22, 1,15,0.25, 7,22,14,60
618,0.0,0.0, 7,22, 1, 7,0.0, 7,22, 1, 7
631,0.0,0.0, 7,22, 1, 7,0.0, 7,22, 1, 7
656,0.0,0.0, 7,22, 1, 7,0.0, 7,22, 1, 7
657,0.0,0.0, 7,22, 1, 7,0.0, 7,22, 1, 7
684,187743998.7556123,0.0, 7,22, 1, 7,1521282.6015382877, 7,28,16,15
685,50311372.819877185,0.0, 7,22, 1, 7,413265.83152307814, 7,26, 6,45
712,0.2732063357947492,0.10434981907466545, 7,23,14,50,0.5374013066524423, 7,26, 8,50
713,5.572524508708132,2.6431690901681266, 7,27,19,60,11.035480744058045, 7,26, 8,50
714,0.052800112673810226,0.0020111919428130727, 7,23,23, 3,0.08106020361185953, 7,28,21,60
1184,0.0,0.0, 7,22, 1, 7,0.0, 7,22, 1, 7
1185,0.0,0.0, 7,22, 1, 7,0.0, 7,22, 1, 7
1321,-127157713.35640366,-218299.83459055173, 7,26, 6,60,-25674.815222715002, 7,24, 9,15
1335,0.0,0.0, 7,22, 1, 7,0.0, 7,22, 1, 7
1336,127099611.41865711,13366.969144139037, 7,22,16,55,1098469.736127615, 7,28,13,60
1337,0.0,0.0, 7,22, 1, 7,0.0, 7,22, 1, 7
13,1189525240.1647372,374515.13863286586, 7,25, 4,60,3496883.442095862, 7,28,20,60
61,301924526.02383536,88139.10953165221, 7,22, 1,15,1282023.4113694867, 7,22,20,15
134,70666020.44019976,63564.01800854099, 7,22, 4,15,156554.22484006523, 7,27,20,15
170,5241013.419656067,348.4159749238097, 7,22, 4,15,17476.39704006126, 7,27,12,15
207,6509451.13922267,815.2532113832032, 7,22, 3,15,22990.642799023623, 7,27,10,15
244,12749673.399825225,1521.856143006317, 7,22, 4,15,53038.631142310165, 7,27,20,15
281,46165882.481495745,59938.60262432081, 7,22, 5,15,81951.81706819107, 7,22,19,15
318,0.0,0.0, 7,22, 1,15,0.0, 7,22, 1,15
355,197687796.27748066,18561.32405820678, 7,22, 4,15,724774.895203776, 7,27,18,15
403,197687796.27748066,18561.32405820678, 7,22, 4,15,724774.895203776, 7,27,18,15
476,106772067.24485716,7098.072629279515, 7,22, 4,15,356036.3026282215, 7,27,12,15
513,0.0,0.0, 7,22, 1,15,0.0, 7,22, 1,15
599,690845247.4420131,0.0, 7,22, 4,60,1671386.497077433, 7,28,12,60
637,0.0,0.0, 7,22, 1,15,0.0, 7,22, 1,15
677,55452172.819877155,7650.0, 7,22, 1,15,420915.83152307814, 7,26, 6,45
692,70637273.43881115,18943.80699446159, 7,22, 5,30,172271.9934944907, 7,22,19,45
1165,0.0,0.0, 7,22, 1,15,0.0, 7,22, 1,15
1374,0.0,0.0, 7,22, 1,15,0.0, 7,22, 1,15
1,ANNUAL,  35.53, -97.65,  -6.00, 396.00
5,365
1157,12.25,0.0, 1, 1, 1,15,0.25, 1, 3, 6,15
1158,671.75,0.0, 1, 1, 1,15,0.25, 5, 6,15,15
618,17280654172.7106,0.0, 1, 1,23, 5,5045893.410446749,12, 4, 8,60
631,5447012663.372802,0.0, 1, 1,23, 5,1455299.7633974054, 2,21, 9,15
656,184289565.33433846,0.0, 1, 1,23, 5,147563.7772554785,12,11, 6,60
657,1121886300.9846656,0.0, 1, 1, 4,15,180000.0, 1, 4,16,30
684,11211972361.800648,0.0, 1, 1, 1,15,1777576.9683176465,10,23, 7,15
685,3167136409.4018126,0.0, 1, 1, 1,15,419422.1606476862, 4,27, 3,15
712,0.34646385538794355,0.0, 5,17, 7,20,1.445911389576236, 2, 1,13,60
713,5.922398127062787,0.0, 1, 1,23,15,29.442174759648356,11,11,15,50
714,0.032189467672744373,0.0, 5,26,23, 3,0.11166225106987457, 2, 1,13,60
1184,2955122543.932356,0.0, 1, 1, 1,15,7822732.416522083, 2, 1, 7,60
1185,2955122543.932356,0.0, 1, 1, 1,15,7822732.416522083, 2, 1, 7,60
1321,-6942072229.709949,-256156.40925571477, 1, 1, 1,15,-12773.378508853963, 5,31,10, 1
1335,329050.9218181956,0.0, 1, 1, 1,15,165081.37046184088, 1,23, 7,60
1336,6926140365.2345,6455.510372188253, 5,31,10, 1,1773991.813645535,12,31,13,60
1337,329050.9218181956,0.0, 1, 1, 1,15,165081.37046184088, 1,23, 7,60
13,47259344558.3845,159353.1275401932, 1,25, 4,15,10313260.829164594, 2, 9, 7,60
61,15743207428.383959,88139.10953165221, 1, 1, 1,15,1282023.4113694867, 1, 1,20,15
134,3685071073.4325233,63564.01800854099, 1, 2, 4,15,156554.22484006523, 1, 1,20,15
170,273393721.45532674,348.4159749238097, 1, 2, 4,15,17476.39704006126, 1, 1,12,15
207,339560869.0695816,815.2532113832032, 1, 2, 3,15,22990.642799023623, 1, 1,10,15
244,664895467.8009144,1521.856143006317, 1, 2, 4,15,53038.631142310165, 1, 1,20,15
281,2407221015.106824,59938.60262432081, 1, 1, 5,15,81951.81706819107, 1, 1,19,15
318,0.0,0.0, 1, 1, 1,15,0.0, 1, 1, 1,15
355,10310294493.051695,18561.32405820678, 1, 2, 4,15,724774.895203776, 1, 1,18,15
403,10310294493.051695,18561.32405820678, 1, 2, 4,15,724774.895203776, 1, 1,18,15
476,5569688622.066177,7098.072629279515, 1, 2, 4,15,356036.3026282215, 1, 1,12,15
513,0.0,0.0, 1, 1, 1,15,0.0, 1, 1, 1,15
599,12524092000.948324,0.0, 1, 1, 1,15,1753707.6256803183, 7,29,13,60
637,9708311073.62418,0.0, 1,15,11,45,9117086.922886621, 2, 9,10,30
677,3435521460.32363,7650.0, 1, 1, 1,15,483110.0170733712, 1,30, 8,15
692,2163141521.669981,0.0, 1, 2,23,15,172271.9934944907, 2, 3, 9,60
1165,0.0,0.0, 1, 1, 1,15,0.0, 1, 1, 1,15
1374,0.0,0.0, 1, 1, 1,15,0.0, 1, 1, 1,15
End of Data
 Number of Records Written=         105
