Program Version,EnergyPlus, Version 22.2.0-c249759bad, YMD=2023.09.01 14:32
1,5,Environment Title[],Latitude[deg],Longitude[deg],Time Zone[],Elevation[m]
2,8,Day of Simulation[],Month[],Day of Month[],DST Indicator[1=yes 0=no],Hour[],StartMinute[],EndMinute[],DayType
3,5,Cumulative Day of Simulation[],Month[],Day of Month[],DST Indicator[1=yes 0=no],DayType  ! When Daily Report Variables Requested
4,2,Cumulative Days of Simulation[],Month[]  ! When Monthly Report Variables Requested
5,1,Cumulative Days of Simulation[] ! When Run Period Report Variables Requested
6,1,Calendar Year of Simulation[] ! When Annual Report Variables Requested
7,1,Environment,Site Outdoor Air Drybulb Temperature [C] !Hourly
545,1,LIVING,Zone Mean Air Temperature [C] !Hourly
546,1,ATTIC,Zone Mean Air Temperature [C] !Hourly
547,1,CRAWLSPACE,Zone Mean Air Temperature [C] !Hourly
548,1,FAN,Fan Electricity Rate [W] !Hourly
720,1,LIVING,Zone Predicted Sensible Load to Heating Setpoint Heat Transfer Rate [W] !Hourly
721,1,LIVING,Zone System Predicted Sensible Load to Heating Setpoint Heat Transfer Rate [W] !Hourly
784,1,ATTIC,Zone Predicted Sensible Load to Heating Setpoint Heat Transfer Rate [W] !Hourly
785,1,ATTIC,Zone System Predicted Sensible Load to Heating Setpoint Heat Transfer Rate [W] !Hourly
848,1,CRAWLSPACE,Zone Predicted Sensible Load to Heating Setpoint Heat Transfer Rate [W] !Hourly
849,1,CRAWLSPACE,Zone System Predicted Sensible Load to Heating Setpoint Heat Transfer Rate [W] !Hourly
1121,1,DX_HEATING_COIL,Heating Coil Heating Rate [W] !Hourly
1135,1,DX_HEATING_COIL,Heating Coil Electricity Rate [W] !Hourly
1161,1,DX_HEATING_COIL,Heating Coil Defrost Electricity Rate [W] !Hourly
1163,1,DX_HEATING_COIL,Heating Coil Crankcase Heater Electricity Rate [W] !Hourly
1166,1,HEATING_RESISTANCE_BACKUP,Heating Coil Heating Rate [W] !Hourly
1168,1,HEATING_RESISTANCE_BACKUP,Heating Coil Electricity Rate [W] !Hourly
End of Data Dictionary
1,EXTREME_WINTER,  35.06, -89.99,  -6.00,  77.40
2,1, 1, 6, 0, 1, 0.00,60.00,Monday
7,-2.8
545,19.8248835906412
546,-0.9938382985134857
547,19.431533713507452
548,73.58342546000888
720,141.4709396867711
721,141.4709396867711
784,0.0
785,0.0
848,0.0
849,0.0
1121,2013.9512877311922
1135,689.529622563089
1161,22.688081874634108
1163,98.54166315664553
1166,0.0
1168,0.0
2,1, 1, 6, 0, 2, 0.00,60.00,Monday
7,-2.2
545,19.328803958929733
546,-1.9186876173004042
547,19.178894945902986
548,54.77459988945311
720,650.4029530324533
721,650.4029530324533
784,0.0
785,0.0
848,0.0
849,0.0
1121,1516.7097126965168
1135,524.0597443267084
1161,12.583503658667611
1163,124.63986603838157
1166,0.0
1168,0.0
2,1, 1, 6, 0, 3, 0.00,60.00,Monday
7,-2.2
545,18.784375609594925
546,-1.6852164068661575
547,18.981174195220984
548,60.121698966923155
720,1014.5589285897604
721,1014.5589285897604
784,0.0
785,0.0
848,0.0
849,0.0
1121,1652.2682611840967
1135,562.3895273442124
1161,19.73528599761506
1163,117.11081791684195
1166,0.0
1168,0.0
2,1, 1, 6, 0, 4, 0.00,60.00,Monday
7,-2.2
545,18.60277970218655
546,-1.4812898370852088
547,18.77175734266611
548,76.8780356927519
720,1465.9899788731327
721,1465.9899788731327
784,0.0
785,0.0
848,0.0
849,0.0
1121,2147.548580638425
1135,711.1906455391963
1161,25.235148010194028
1163,94.01112410708443
1166,0.0
1168,0.0
2,1, 1, 6, 0, 5, 0.00,60.00,Monday
7,-1.7
545,18.602600363172222
546,-1.3618176420653596
547,18.592085223115834
548,86.68854405374101
720,1721.6774203204204
721,1721.6774203204204
784,0.0
785,0.0
848,0.0
849,0.0
1121,2486.9514039829896
1135,804.6339389420692
1161,26.171411812626626
1163,80.60235715262914
1166,0.0
1168,0.0
2,1, 1, 6, 0, 6, 0.00,60.00,Monday
7,-2.2
545,19.171559508190963
546,-0.6946118170757494
547,18.37420097688036
548,135.42332678223354
720,2831.8307433392856
721,2831.8307433392856
784,0.0
785,0.0
848,0.0
849,0.0
1121,3974.5770444918076
1135,1247.5193306859603
1161,44.440040126564305
1163,13.29867257630848
1166,0.0
1168,0.0
2,1, 1, 6, 0, 7, 0.00,60.00,Monday
7,-2.2
545,19.48837613532452
546,-0.2167360214896942
547,18.240621241777124
548,146.0548220010259
720,2969.9899341498895
721,2969.9899341498895
784,0.0
785,0.0
848,0.0
849,0.0
1121,4309.314520119822
1135,1351.200401364493
1161,47.60548919474375
1163,0.0
1166,3.6839446800163387
1168,3.6839446800163387
2,1, 1, 6, 0, 8, 0.00,60.00,Monday
7,-0.6
545,19.746869883749888
546,0.2698974982136212
547,18.132682451241077
548,116.28228813363545
720,2278.1121395172995
721,2278.1121395172995
784,0.0
785,0.0
848,0.0
849,0.0
1121,3456.6261646427747
1135,1092.8846277735263
1161,46.56175286419544
1163,39.70440596127129
1166,0.0
1168,0.0
2,1, 1, 6, 0, 9, 0.00,60.00,Monday
7,2.2
545,19.903344970290842
546,2.5290854999046446
547,18.033075747075518
548,75.48481779501253
720,1532.4148634179128
721,1532.4148634179128
784,0.0
785,0.0
848,0.0
849,0.0
1121,2377.852052968004
1135,741.1230105220095
1161,21.348781429573776
1163,96.347879349543
1166,0.0
1168,0.0
2,1, 1, 6, 0,10, 0.00,60.00,Monday
7,2.2
545,19.943351136040505
546,6.948968778640134
547,17.931533877647798
548,28.53963248477698
720,470.9215935410939
721,470.9215935410939
784,0.0
785,0.0
848,0.0
849,0.0
1121,865.7726305957937
1135,281.1061030321683
1161,8.071658883120808
1163,160.810664385575
1166,0.0
1168,0.0
2,1, 1, 6, 0,11, 0.00,60.00,Monday
7,7.2
545,20.37430143113984
546,11.948722356575791
547,17.854217587261452
548,0.0
720,-460.55362737051655
721,-460.55362737051655
784,0.0
785,0.0
848,0.0
849,0.0
1121,0.0
1135,0.0
1161,0.0
1163,200.0
1166,0.0
1168,0.0
2,1, 1, 6, 0,12, 0.00,60.00,Monday
7,7.2
545,20.784594287056528
546,14.955398651682703
547,17.80726505324459
548,0.0
720,-888.7875042786363
721,-888.7875042786363
784,0.0
785,0.0
848,0.0
849,0.0
1121,0.0
1135,0.0
1161,0.0
1163,200.0
1166,0.0
1168,0.0
2,1, 1, 6, 0,13, 0.00,60.00,Monday
7,7.2
545,21.269403587488508
546,16.574402847019915
547,17.792279669415787
548,0.0
720,-1163.3089831224697
721,-1163.3089831224697
784,0.0
785,0.0
848,0.0
849,0.0
1121,0.0
1135,0.0
1161,0.0
1163,200.0
1166,0.0
1168,0.0
2,1, 1, 6, 0,14, 0.00,60.00,Monday
7,7.8
545,22.140716503243763
546,18.709695601442686
547,17.801046442255025
548,0.0
720,-1803.3020069375852
721,-1803.3020069375852
784,0.0
785,0.0
848,0.0
849,0.0
1121,0.0
1135,0.0
1161,0.0
1163,200.0
1166,0.0
1168,0.0
2,1, 1, 6, 0,15, 0.00,60.00,Monday
7,7.2
545,22.718707671642363
546,16.944581104453167
547,17.82488467798782
548,0.0
720,-2306.9243513220827
721,-2306.9243513220827
784,0.0
785,0.0
848,0.0
849,0.0
1121,0.0
1135,0.0
1161,0.0
1163,200.0
1166,0.0
1168,0.0
2,1, 1, 6, 0,16, 0.00,60.00,Monday
7,7.2
545,23.417472233621282
546,15.308709302202292
547,17.865103036975032
548,0.0
720,-3099.9621731675416
721,-3099.9621731675416
784,0.0
785,0.0
848,0.0
849,0.0
1121,0.0
1135,0.0
1161,0.0
1163,200.0
1166,0.0
1168,0.0
2,1, 1, 6, 0,17, 0.00,60.00,Monday
7,3.9
545,23.421365061216303
546,12.00725547392554
547,17.92738875577106
548,0.0
720,-3021.2836125120175
721,-3021.2836125120175
784,0.0
785,0.0
848,0.0
849,0.0
1121,0.0
1135,0.0
1161,0.0
1163,200.0
1166,0.0
1168,0.0
2,1, 1, 6, 0,18, 0.00,60.00,Monday
7,2.8
545,22.673631062077536
546,8.52814202432971
547,17.981411061146144
548,0.0
720,-2609.760164041976
721,-2609.760164041976
784,0.0
785,0.0
848,0.0
849,0.0
1121,0.0
1135,0.0
1161,0.0
1163,200.0
1166,0.0
1168,0.0
2,1, 1, 6, 0,19, 0.00,60.00,Monday
7,2.8
545,22.344764147353793
546,6.199197912732938
547,18.011586705419
548,0.0
720,-2332.5920459275185
721,-2332.5920459275185
784,0.0
785,0.0
848,0.0
849,0.0
1121,0.0
1135,0.0
1161,0.0
1163,200.0
1166,0.0
1168,0.0
2,1, 1, 6, 0,20, 0.00,60.00,Monday
7,1.1
545,22.033744499959486
546,3.984014330438483
547,18.009789738235096
548,0.0
720,-2007.4127331663549
721,-2007.4127331663549
784,0.0
785,0.0
848,0.0
849,0.0
1121,0.0
1135,0.0
1161,0.0
1163,200.0
1166,0.0
1168,0.0
2,1, 1, 6, 0,21, 0.00,60.00,Monday
7,0.6
545,21.578166864901146
546,2.5324663423174023
547,17.979294213062275
548,0.0
720,-1570.2639511043435
721,-1570.2639511043435
784,0.0
785,0.0
848,0.0
849,0.0
1121,0.0
1135,0.0
1161,0.0
1163,200.0
1166,0.0
1168,0.0
2,1, 1, 6, 0,22, 0.00,60.00,Monday
7,0.6
545,20.963152163437563
546,1.6157948119610022
547,17.927400992598823
548,0.0
720,-1044.2385600563794
721,-1044.2385600563794
784,0.0
785,0.0
848,0.0
849,0.0
1121,0.0
1135,0.0
1161,0.0
1163,200.0
1166,0.0
1168,0.0
2,1, 1, 6, 0,23, 0.00,60.00,Monday
7,0.0
545,20.065561445606157
546,0.8006936177469184
547,17.858491459137632
548,0.0
720,-1214.207494075874
721,-1214.207494075874
784,0.0
785,0.0
848,0.0
849,0.0
1121,0.0
1135,0.0
1161,0.0
1163,200.0
1166,0.0
1168,0.0
2,1, 1, 6, 0,24, 0.00,60.00,Monday
7,-1.1
545,19.276976524748452
546,-0.7409022616873404
547,17.77960430303933
548,0.0
720,-556.6397586763578
721,-556.6397586763578
784,0.0
785,0.0
848,0.0
849,0.0
1121,0.0
1135,0.0
1161,0.0
1163,200.0
1166,0.0
1168,0.0
2,2, 1, 7, 0, 1, 0.00,60.00,Tuesday
7,-1.1
545,19.829025475062213
546,0.014725758893257848
547,17.647853404725954
548,69.82468436858228
720,137.00730723016932
721,137.00730723016932
784,0.0
785,0.0
848,0.0
849,0.0
1121,2010.4169830766473
1135,661.6420484582765
1161,19.215947259008775
1163,103.92021119611834
1166,0.0
1168,0.0
2,2, 1, 7, 0, 2, 0.00,60.00,Tuesday
7,0.6
545,19.294119913896065
546,0.2950809968818139
547,17.584170123352763
548,40.67164175575546
720,446.7183976991055
721,446.7183976991055
784,0.0
785,0.0
848,0.0
849,0.0
1121,1205.5156701603964
1135,398.0362215504908
1161,8.8353240863294
1163,144.14437730391626
1166,0.0
1168,0.0
2,2, 1, 7, 0, 3, 0.00,60.00,Tuesday
7,0.6
545,18.73638240554702
546,1.2229806553631963
547,17.471777536445504
548,42.94749925374057
720,790.3645468175419
721,790.3645468175419
784,0.0
785,0.0
848,0.0
849,0.0
1121,1268.6661370933577
1135,412.935221891555
1161,11.609363295777127
1163,140.9761324249492
1166,0.0
1168,0.0
2,2, 1, 7, 0, 4, 0.00,60.00,Tuesday
7,0.6
545,18.600555143270956
546,1.809547491817666
547,17.36230675396826
548,57.32114199866704
720,1227.58428773975
721,1227.58428773975
784,0.0
785,0.0
848,0.0
849,0.0
1121,1717.2357793082274
1135,545.0341208366411
1161,15.49462287052871
1163,121.22284873554558
1166,0.0
1168,0.0
2,2, 1, 7, 0, 5, 0.00,60.00,Tuesday
7,0.0
545,18.324200242389338
546,2.270722807457123
547,17.24674517227921
548,77.92779947028663
720,1701.996204274079
721,1701.996204274079
784,0.0
785,0.0
848,0.0
849,0.0
1121,2323.5555977123836
1135,731.4421457185872
1161,24.079975878943657
1163,92.79758739477523
1166,0.0
1168,0.0
2,2, 1, 7, 0, 6, 0.00,60.00,Tuesday
7,0.0
545,18.991559759144508
546,2.880722017942319
547,17.10810069993886
548,132.61483469483298
720,3192.182922591399
721,3192.182922591399
784,0.0
785,0.0
848,0.0
849,0.0
1121,4235.450420303804
1135,1262.8251913011406
1161,20.682308684244525
1163,17.990459919657752
1166,0.0
1168,0.0
2,2, 1, 7, 0, 7, 0.00,60.00,Tuesday
7,0.0
545,19.438314418001116
546,3.147535300638352
547,17.042592352062226
548,146.0548220010259
720,3535.6589027088885
721,3535.6589027088885
784,0.0
785,0.0
848,0.0
849,0.0
1121,4701.397529743124
1135,1405.6420426529228
1161,22.726620456394745
1163,0.0
1166,133.0177726038596
1168,133.0177726038596
2,2, 1, 7, 0, 8, 0.00,60.00,Tuesday
7,-1.0
545,19.631643234031213
546,2.966551663296013
547,16.956561869763455
548,146.0548220010259
720,3342.7575144655493
721,3342.7575144655493
784,0.0
785,0.0
848,0.0
849,0.0
1121,4543.9577226868805
1135,1399.332582862413
1161,27.217426959521177
1163,0.0
1166,136.81611302393912
1168,136.81611302393912
2,2, 1, 7, 0, 9, 0.00,60.00,Tuesday
7,-0.6
545,19.66359269528142
546,3.061495276211887
547,16.86143561482971
548,146.0548220010259
720,4423.575008316866
721,4423.575008316866
784,0.0
785,0.0
848,0.0
849,0.0
1121,4675.51640848519
1135,1435.6224535511801
1161,8.72742652407522
1163,0.0
1166,1323.3108299109754
1168,1323.3108299109754
2,2, 1, 7, 0,10, 0.00,60.00,Tuesday
7,-0.6
545,19.700123766735096
546,3.48902634718034
547,16.775132372004173
548,146.0548220010259
720,4168.591227865752
721,4168.591227865752
784,0.0
785,0.0
848,0.0
849,0.0
1121,4674.88192158516
1135,1436.3803799354894
1161,8.72742652407522
1163,0.0
1166,1065.0794000190394
1168,1065.0794000190394
2,2, 1, 7, 0,11, 0.00,60.00,Tuesday
7,-1.0
545,19.718690763403043
546,3.391753517545878
547,16.688768309757048
548,146.0548220010259
720,3911.8062013890685
721,3911.8062013890685
784,0.0
785,0.0
848,0.0
849,0.0
1121,4662.711787361973
1135,1444.6360504044849
1161,0.0703574539296405
1163,0.0
1166,755.0082572997021
1168,755.0082572997021
2,2, 1, 7, 0,12, 0.00,60.00,Tuesday
7,-2.0
545,19.712878603705935
546,3.1986841826267067
547,16.59913439691899
548,146.0548220010259
720,4049.1590259508666
721,4049.1590259508666
784,0.0
785,0.0
848,0.0
849,0.0
1121,4534.971811286118
1135,1432.6942389131939
1161,0.0703574539296405
1163,0.0
1166,1043.4881486389781
1168,1043.4881486389781
2,2, 1, 7, 0,13, 0.00,60.00,Tuesday
7,-2.2
545,19.69499940890219
546,2.3810183421051856
547,16.51559436987253
548,146.0548220010259
720,4602.990825202851
721,4602.990825202851
784,0.0
785,0.0
848,0.0
849,0.0
1121,4510.0288991374655
1135,1429.8913503954063
1161,0.0703574539296405
1163,0.0
1166,1747.1098002541248
1168,1747.1098002541248
2,2, 1, 7, 0,14, 0.00,60.00,Tuesday
7,-4.4
545,19.694734669734956
546,1.3364635005661887
547,16.426743398529702
548,146.0548220010259
720,4674.677762686815
721,4674.677762686815
784,0.0
785,0.0
848,0.0
849,0.0
1121,4237.92062048368
1135,1402.9117145985576
1161,0.0703574539296405
1163,0.0
1166,2150.3088620343715
1168,2150.3088620343715
2,2, 1, 7, 0,15, 0.00,60.00,Tuesday
7,-3.9
545,19.70978553315702
546,1.6310930336158056
547,16.3606254390485
548,146.0548220010259
720,4097.258692690379
721,4097.258692690379
784,0.0
785,0.0
848,0.0
849,0.0
1121,4299.180922183602
1135,1408.7006824420553
1161,0.0703574539296405
1163,0.0
1166,1483.648620022333
1168,1483.648620022333
2,2, 1, 7, 0,16, 0.00,60.00,Tuesday
7,-3.9
545,19.726465167168147
546,1.6895583952842552
547,16.298117022210114
548,146.0548220010259
720,3561.3234314949004
721,3561.3234314949004
784,0.0
785,0.0
848,0.0
849,0.0
1121,4298.912960426654
1135,1409.0159296306676
1161,0.0703574539296405
1163,0.0
1166,844.5196882357131
1168,844.5196882357131
2,2, 1, 7, 0,17, 0.00,60.00,Tuesday
7,-6.1
545,19.739139975014396
546,-0.06263758371373074
547,16.239242898114345
548,146.0548220010259
720,2947.5991291062983
721,2947.5991291062983
784,0.0
785,0.0
848,0.0
849,0.0
1121,4033.2358285127766
1135,1383.3708730275753
1161,0.0703574539296405
1163,0.0
1166,362.8000972245918
1168,362.8000972245918
2,2, 1, 7, 0,18, 0.00,60.00,Tuesday
7,-7.2
545,19.692270370960273
546,-1.6230090784536713
547,16.18926525147348
548,146.0548220010259
720,3836.00206593839
721,3836.00206593839
784,0.0
785,0.0
848,0.0
849,0.0
1121,3903.889686847433
1135,1370.604988154141
1161,0.0703574539296405
1163,0.0
1166,1584.5664001552445
1168,1584.5664001552445
2,2, 1, 7, 0,19, 0.00,60.00,Tuesday
7,-7.2
545,19.68395138312196
546,-2.3878000810829576
547,16.13427706670825
548,146.0548220010259
720,3951.1073365715692
721,3951.1073365715692
784,0.0
785,0.0
848,0.0
849,0.0
1121,3905.0282264335356
1135,1369.3049813884675
1161,0.0703574539296405
1163,0.0
1166,1819.7245343324112
1168,1819.7245343324112
2,2, 1, 7, 0,20, 0.00,60.00,Tuesday
7,-8.3
545,19.71395382122633
546,-3.3434194411340776
547,16.064725844659627
548,146.0548220010259
720,3211.8987646123787
721,3211.8987646123787
784,0.0
785,0.0
848,0.0
849,0.0
1121,3778.446194683393
1135,1356.0167083660076
1161,0.0703574539296405
1163,0.0
1166,1121.9279166395681
1168,1121.9279166395681
2,2, 1, 7, 0,21, 0.00,60.00,Tuesday
7,-8.9
545,19.70520835995785
546,-3.9084356534951903
547,15.973020503268872
548,146.0548220010259
720,3345.471314341228
721,3345.471314341228
784,0.0
785,0.0
848,0.0
849,0.0
1121,3709.6820707586185
1135,1349.5168981066408
1161,0.0703574539296405
1163,0.0
1166,1377.9163147405352
1168,1377.9163147405352
2,2, 1, 7, 0,22, 0.00,60.00,Tuesday
7,-8.9
545,19.696206651762225
546,-4.173779394215758
547,15.873897186264848
548,146.0548220010259
720,3660.8170305231997
721,3660.8170305231997
784,0.0
785,0.0
848,0.0
849,0.0
1121,3709.994411931551
1135,1349.1677150787436
1161,0.0703574539296405
1163,0.0
1166,1778.2139607761405
1168,1778.2139607761405
2,2, 1, 7, 0,23, 0.00,60.00,Tuesday
7,-10.0
545,18.948920534919846
546,-5.017731739961771
547,15.75486141752696
548,146.0548220010259
720,3335.8932235116918
721,3335.8932235116918
784,0.0
785,0.0
848,0.0
849,0.0
1121,3587.1904810283986
1135,1335.5105744557718
1161,0.0703574539296405
1163,0.0
1166,1554.8591800062939
1168,1554.8591800062939
2,2, 1, 7, 0,24, 0.00,60.00,Tuesday
7,-10.6
545,18.71336443983326
546,-4.992614335418151
547,15.608752705089355
548,146.0548220010259
720,3441.44959902375
721,3441.44959902375
784,0.0
785,0.0
848,0.0
849,0.0
1121,3537.890050482217
1135,1309.746308714795
1161,0.0703574539296405
1163,0.0
1166,1701.0741921574
1168,1701.0741921574
2,3, 1, 8, 0, 1, 0.00,60.00,Wednesday
7,-10.6
545,18.621161005106554
546,-5.3023725047349055
547,15.481656091117808
548,146.0548220010259
720,3979.725240350941
721,3979.725240350941
784,0.0
785,0.0
848,0.0
849,0.0
1121,3543.3067053102714
1135,1303.8129470708495
1161,0.0703574539296405
1163,0.0
1166,2303.587140362717
1168,2303.587140362717
2,3, 1, 8, 0, 2, 0.00,60.00,Wednesday
7,-11.1
545,18.589898790904712
546,-5.485597179561206
547,15.349263065880765
548,146.0548220010259
720,4311.655827247228
721,4311.655827247228
784,0.0
785,0.0
848,0.0
849,0.0
1121,3490.822419606181
1135,1295.5309593364782
1161,0.0703574539296405
1163,0.0
1166,2759.079751280863
1168,2759.079751280863
2,3, 1, 8, 0, 3, 0.00,60.00,Wednesday
7,-11.7
545,18.577320233580895
546,-6.032771737207705
547,15.218075556685672
548,146.0548220010259
720,4657.212193632178
721,4657.212193632178
784,0.0
785,0.0
848,0.0
849,0.0
1121,3426.696040918715
1135,1287.5070146162907
1161,0.0703574539296405
1163,0.0
1166,3242.046367491446
1168,3242.046367491446
2,3, 1, 8, 0, 4, 0.00,60.00,Wednesday
7,-11.7
545,18.573320678616955
546,-6.198688822995894
547,15.093147466763018
548,146.0548220010259
720,4837.612953225482
721,4837.612953225482
784,0.0
785,0.0
848,0.0
849,0.0
1121,3427.1280631144737
1135,1287.0411204771324
1161,0.0703574539296405
1163,0.0
1166,3488.872165391216
1168,3488.872165391216
2,3, 1, 8, 0, 5, 0.00,60.00,Wednesday
7,-11.7
545,18.586088955345645
546,-6.290839194103049
547,14.972268228460504
548,146.0548220010259
720,4496.335012994687
721,4496.335012994687
784,0.0
785,0.0
848,0.0
849,0.0
1121,3427.35201354767
1135,1286.7995895193592
1161,0.0703574539296405
1163,0.0
1166,3108.8374194312737
1168,3108.8374194312737
2,3, 1, 8, 0, 6, 0.00,60.00,Wednesday
7,-12.2
545,19.340718104688825
546,-6.293308428111333
547,14.848821302847936
548,146.0548220010259
720,5549.654953697316
721,5549.654953697316
784,0.0
785,0.0
848,0.0
849,0.0
1121,3373.6006071257893
1135,1280.984056124472
1161,0.0703574539296405
1163,0.0
1166,4376.623919997641
1168,4376.623919997641
2,3, 1, 8, 0, 7, 0.00,60.00,Wednesday
7,-12.2
545,19.584880464784952
546,-6.618259221642547
547,14.767537089171554
548,146.0548220010259
720,5321.000177207276
721,5321.000177207276
784,0.0
785,0.0
848,0.0
849,0.0
1121,3357.0897466528168
1135,1298.5978383642346
1161,0.0703574539296405
1163,0.0
1166,4212.6936943823775
1168,4212.6936943823775
2,3, 1, 8, 0, 8, 0.00,60.00,Wednesday
7,-11.7
545,19.67037005064794
546,-6.523460767799027
547,14.667304118027054
548,146.0548220010259
720,4653.698501320432
721,4653.698501320432
784,0.0
785,0.0
848,0.0
849,0.0
1121,3405.312246878758
1135,1310.494399883699
1161,0.0703574539296405
1163,0.0
1166,3436.6034111216077
1168,3436.6034111216077
2,3, 1, 8, 0, 9, 0.00,60.00,Wednesday
7,-10.6
545,19.718548399836553
546,-1.9155852356224385
547,14.585233086926465
548,146.0548220010259
720,3402.4672712155025
721,3402.4672712155025
784,0.0
785,0.0
848,0.0
849,0.0
1121,3523.027949197688
1135,1325.9875708287354
1161,0.0703574539296405
1163,0.0
1166,1867.9289788691742
1168,1867.9289788691742
2,3, 1, 8, 0,10, 0.00,60.00,Wednesday
7,-10.6
545,19.756691645960057
546,3.477884994474139
547,14.512182920617091
548,146.0548220010259
720,2560.3128782364056
721,2560.3128782364056
784,0.0
785,0.0
848,0.0
849,0.0
1121,3522.0477061903503
1135,1327.0566969321012
1161,0.0703574539296405
1163,0.0
1166,656.07429125203
1168,656.07429125203
2,3, 1, 8, 0,11, 0.00,60.00,Wednesday
7,-7.8
545,19.875636937025657
546,4.299032839580971
547,14.480469596880805
548,125.7536808739994
720,2035.8931859709282
721,2035.8931859709282
784,0.0
785,0.0
848,0.0
849,0.0
1121,3247.0188343443547
1135,1172.4816466052644
1161,0.060579090967329656
1163,27.796238823791143
1166,0.0
1168,0.0
2,3, 1, 8, 0,12, 0.00,60.00,Wednesday
7,-6.1
545,19.965467705457673
546,8.138961668769157
547,14.455070646804245
548,82.63562894845205
720,1357.4863476029423
721,1357.4863476029423
784,0.0
785,0.0
848,0.0
849,0.0
1121,2164.8323404623043
1135,783.7815719355491
1161,0.039807798464008774
1163,86.84127625249849
1166,0.0
1168,0.0
2,3, 1, 8, 0,13, 0.00,60.00,Wednesday
7,-6.1
545,19.889924511084807
546,9.882696300178313
547,14.452240840151077
548,55.5751053142579
720,946.5742140323255
721,946.5742140323255
784,0.0
785,0.0
848,0.0
849,0.0
1121,1424.1687365392795
1135,528.0898461561166
1161,0.0267720187839782
1163,123.89713587205415
1166,0.0
1168,0.0
2,3, 1, 8, 0,14, 0.00,60.00,Wednesday
7,-3.9
545,20.01703048842448
546,9.916485670167393
547,14.465288405869739
548,25.746525274926118
720,457.6173276900972
721,457.6173276900972
784,0.0
785,0.0
848,0.0
849,0.0
1121,687.3612088266862
1135,248.9393110245287
1161,0.012402750788533565
1163,164.74360541546406
1166,0.0
1168,0.0
2,3, 1, 8, 0,15, 0.00,60.00,Wednesday
7,-2.2
545,19.64334677978316
546,7.728470791756148
547,14.490596426902227
548,0.0
720,-106.38124955865715
721,-106.38124955865715
784,0.0
785,0.0
848,0.0
849,0.0
1121,0.0
1135,0.0
1161,0.0
1163,200.0
1166,0.0
1168,0.0
2,3, 1, 8, 0,16, 0.00,60.00,Wednesday
7,-2.2
545,19.867533823976952
546,5.7814929469765515
547,14.54933298035491
548,0.0
720,-141.15936301174224
721,-141.15936301174224
784,0.0
785,0.0
848,0.0
849,0.0
1121,0.0
1135,0.0
1161,0.0
1163,200.0
1166,0.0
1168,0.0
2,3, 1, 8, 0,17, 0.00,60.00,Wednesday
7,-3.3
545,19.71531336473024
546,3.044161274799578
547,14.621997125451077
548,16.20784050631862
720,288.1168825186396
721,288.1168825186396
784,0.0
785,0.0
848,0.0
849,0.0
1121,436.994151981497
1135,157.45808718028516
1161,0.007807719163247931
1163,177.80556649745776
1166,0.0
1168,0.0
2,3, 1, 8, 0,18, 0.00,60.00,Wednesday
7,-3.9
545,19.516982344694032
546,1.2089368768318574
547,14.704035310856886
548,61.599788036682796
720,1254.9684586046333
721,1254.9684586046333
784,0.0
785,0.0
848,0.0
849,0.0
1121,1692.7380585488315
1135,593.549760910922
1161,0.02967417166942569
1163,115.64739764716126
1166,0.0
1168,0.0
2,3, 1, 8, 0,19, 0.00,60.00,Wednesday
7,-3.9
545,19.55084281727626
546,0.2741872583866664
547,14.739906495465453
548,85.34437343432067
720,1690.9094155413713
721,1690.9094155413713
784,0.0
785,0.0
848,0.0
849,0.0
1121,2392.643573443576
1135,819.1374128909717
1161,0.041112536850394635
1163,83.13239165388684
1166,0.0
1168,0.0
2,3, 1, 8, 0,20, 0.00,60.00,Wednesday
7,-3.9
545,20.01210465209764
546,0.0140416390703762
547,14.748211664362127
548,76.79583153632481
720,1418.5893960273825
721,1418.5893960273825
784,0.0
785,0.0
848,0.0
849,0.0
1121,2137.802625459377
1135,737.6715225404427
1161,0.036994488742196144
1163,94.83846649939407
1166,0.0
1168,0.0
2,3, 1, 8, 0,21, 0.00,60.00,Wednesday
7,-3.9
545,19.742862227468553
546,-0.9362630101578306
547,14.74109516777921
548,72.3114101477083
720,1293.6476142088395
721,1293.6476142088395
784,0.0
785,0.0
848,0.0
849,0.0
1121,2000.740055868242
1135,700.8921424869316
1161,0.03483423091152356
1163,100.97927379134894
1166,0.0
1168,0.0
2,3, 1, 8, 0,22, 0.00,60.00,Wednesday
7,-3.9
545,19.647693214622027
546,-1.0430101394016291
547,14.717072235435465
548,88.26526670084384
720,1643.0440690700925
721,1643.0440690700925
784,0.0
785,0.0
848,0.0
849,0.0
1121,2477.2855283038657
1135,850.968071853081
1161,0.04251960542260553
1163,79.1326205035038
1166,0.0
1168,0.0
2,3, 1, 8, 0,23, 0.00,60.00,Wednesday
7,-4.4
545,18.923091195007895
546,-1.6603414130020924
547,14.663893665405253
548,72.56401102788675
720,1240.033249240234
721,1240.033249240234
784,0.0
785,0.0
848,0.0
849,0.0
1121,1983.5397598351674
1135,695.3959338385387
1161,0.034955939276554826
1163,100.63330230365706
1166,0.0
1168,0.0
2,3, 1, 8, 0,24, 0.00,60.00,Wednesday
7,-5.6
545,18.621540522535156
546,-1.9515124751197788
547,14.600810845860268
548,97.37568783734852
720,1717.4360912306674
721,1717.4360912306674
784,0.0
785,0.0
848,0.0
849,0.0
1121,2601.313153186128
1135,901.6981399600833
1161,8.516059165238323
1163,66.30775322101043
1166,0.0
1168,0.0
2,4, 1, 9, 0, 1, 0.00,60.00,Thursday
7,-5.6
545,18.492706551815473
546,-2.1845691409172634
547,14.537935748444433
548,124.73738990064348
720,2277.896358748594
721,2277.896358748594
784,0.0
785,0.0
848,0.0
849,0.0
1121,3414.1723805546712
1135,1148.0726743446678
1161,10.90894649483631
1163,28.742198875313395
1166,0.0
1168,0.0
2,4, 1, 9, 0, 2, 0.00,60.00,Thursday
7,-5.6
545,18.481505969193147
546,-2.1129001686313442
547,14.469838264315891
548,146.0548220010259
720,2740.004734945658
721,2740.004734945658
784,0.0
785,0.0
848,0.0
849,0.0
1121,4052.3049102653126
1135,1330.7790579967736
1161,17.538086696740518
1163,0.0
1166,90.06047191883772
1168,90.06047191883772
2,4, 1, 9, 0, 3, 0.00,60.00,Thursday
7,-5.0
545,18.55542778307113
546,-2.1410992347927764
547,14.403678749836857
548,146.0548220010259
720,2988.6402501093726
721,2988.6402501093726
784,0.0
785,0.0
848,0.0
849,0.0
1121,4138.169917365578
1135,1341.840343119541
1161,13.982968085784812
1163,0.0
1166,371.0585385437407
1168,371.0585385437407
2,4, 1, 9, 0, 4, 0.00,60.00,Thursday
7,-5.0
545,18.585121688182316
546,-1.9733254811875882
547,14.33486532990054
548,146.0548220010259
720,3172.5029956461203
721,3172.5029956461203
784,0.0
785,0.0
848,0.0
849,0.0
1121,4136.587652607288
1135,1343.6825208223806
1161,13.982968085784812
1163,0.0
1166,610.5732668409591
1168,610.5732668409591
2,4, 1, 9, 0, 5, 0.00,60.00,Thursday
7,-4.4
545,18.601786175868632
546,-1.9796935760740955
547,14.269898918175718
548,146.0548220010259
720,3099.7166055333946
721,3099.7166055333946
784,0.0
785,0.0
848,0.0
849,0.0
1121,4224.666497275127
1135,1356.5441343776597
1161,9.962834725614261
1163,0.0
1166,442.4351140012136
1168,442.4351140012136
2,4, 1, 9, 0, 6, 0.00,60.00,Thursday
7,-5.0
545,19.349504471143057
546,-1.8040698581884147
547,14.19532768823424
548,146.0548220010259
720,4200.180440717104
721,4200.180440717104
784,0.0
785,0.0
848,0.0
849,0.0
1121,4135.750523539838
1135,1344.7232092469944
1161,13.972229032551589
1163,0.0
1166,1800.634474079532
1168,1800.634474079532
2,4, 1, 9, 0, 7, 0.00,60.00,Thursday
7,-5.0
545,19.601504941255016
546,-1.6174892152558193
547,14.164597213012549
548,146.0548220010259
720,3988.1626651349034
721,3988.1626651349034
784,0.0
785,0.0
848,0.0
849,0.0
1121,4118.915807486386
1135,1364.3406240596678
1161,13.972229032551589
1163,0.0
1166,1646.848014968211
1168,1646.848014968211
2,4, 1, 9, 0, 8, 0.00,60.00,Thursday
7,-2.2
545,19.689875229722134
546,-0.42210867883147407
547,14.12877461500531
548,146.0548220010259
720,3468.195084167808
721,3468.195084167808
784,0.0
785,0.0
848,0.0
849,0.0
1121,4470.542063442432
1135,1409.0810576635965
1161,10.220893377252262
1163,0.0
1166,712.9989174484167
1168,712.9989174484167
2,4, 1, 9, 0, 9, 0.00,60.00,Thursday
7,-0.6
545,19.713532365319477
546,1.8479340932649253
547,14.082576876174835
548,146.0548220010259
720,3548.292514376275
721,3548.292514376275
784,0.0
785,0.0
848,0.0
849,0.0
1121,4717.800715407229
1135,1445.3670055262066
1161,0.0703574539296405
1163,0.0
1166,508.4932075677061
1168,508.4932075677061
2,4, 1, 9, 0,10, 0.00,60.00,Thursday
7,-0.6
545,19.740862322463535
546,3.6537025513963757
547,14.031469335765342
548,145.1853783958246
720,3173.9803484105632
721,3173.9803484105632
784,0.0
785,0.0
848,0.0
849,0.0
1121,4685.771345866861
1135,1437.3730104868164
1161,0.0699391599865362
1163,1.189053667355866
1166,0.0
1168,0.0
2,4, 1, 9, 0,11, 0.00,60.00,Thursday
7,1.1
545,19.84956597438003
546,5.869889482787705
547,13.965457759560183
548,110.06262501484497
720,2449.22176052173
721,2449.22176052173
784,0.0
785,0.0
848,0.0
849,0.0
1121,3611.8359117080204
1135,1106.782200416859
1161,0.053019613868984364
1163,49.28501272372501
1166,0.0
1168,0.0
2,4, 1, 9, 0,12, 0.00,60.00,Thursday
7,2.2
545,20.037349364783218
546,9.550245631924478
547,13.896146127331173
548,58.191708403690754
720,1238.6261697568752
721,1238.6261697568752
784,0.0
785,0.0
848,0.0
849,0.0
1121,1885.013299902866
1135,592.42841074035
1161,0.028032207447708242
1163,120.31488951905149
1166,0.0
1168,0.0
2,4, 1, 9, 0,13, 0.00,60.00,Thursday
7,2.2
545,19.87755753939243
546,12.107592179211103
547,13.867637359643908
548,24.93134575266654
720,509.9848040650395
721,509.9848040650395
784,0.0
785,0.0
848,0.0
849,0.0
1121,786.2666226365018
1135,254.76938341338442
1161,0.012009969773632443
1163,165.86013534360478
1166,0.0
1168,0.0
2,4, 1, 9, 0,14, 0.00,60.00,Thursday
7,2.2
545,19.34504395746841
546,10.065403621920385
547,13.873452762834441
548,4.5395803498855996
720,66.5209431217827
721,66.5209431217827
784,0.0
785,0.0
848,0.0
849,0.0
1121,141.06628490321168
1135,46.24617506962705
1161,0.002186814267484617
1163,193.78370266305686
1166,0.0
1168,0.0
2,4, 1, 9, 0,15, 0.00,60.00,Thursday
7,1.7
545,20.040986967833838
546,10.637652722560432
547,13.930583663067715
548,0.0
720,0.9791027521732758
721,0.9791027521732758
784,0.0
785,0.0
848,0.0
849,0.0
1121,0.0
1135,0.0
1161,0.0
1163,200.0
1166,0.0
1168,0.0
2,4, 1, 9, 0,16, 0.00,60.00,Thursday
7,1.7
545,20.454432737739147
546,9.388857162985396
547,14.004396382964835
548,0.0
720,-626.4158490623267
721,-626.4158490623267
784,0.0
785,0.0
848,0.0
849,0.0
1121,0.0
1135,0.0
1161,0.0
1163,200.0
1166,0.0
1168,0.0
2,4, 1, 9, 0,17, 0.00,60.00,Thursday
7,-1.7
545,20.34937871910467
546,6.517405282024122
547,14.085210032342736
548,0.0
720,-554.5183349583367
721,-554.5183349583367
784,0.0
785,0.0
848,0.0
849,0.0
1121,0.0
1135,0.0
1161,0.0
1163,200.0
1166,0.0
1168,0.0