Program Version,EnergyPlus, Version 22.2.0-c249759bad, YMD=2023.07.07 15:08
1,5,Environment Title[],Latitude[deg],Longitude[deg],Time Zone[],Elevation[m]
2,8,Day of Simulation[],Month[],Day of Month[],DST Indicator[1=yes 0=no],Hour[],StartMinute[],EndMinute[],DayType
3,5,Cumulative Day of Simulation[],Month[],Day of Month[],DST Indicator[1=yes 0=no],DayType  ! When Daily Report Variables Requested
4,2,Cumulative Days of Simulation[],Month[]  ! When Monthly Report Variables Requested
5,1,Cumulative Days of Simulation[] ! When Run Period Report Variables Requested
6,1,Calendar Year of Simulation[] ! When Annual Report Variables Requested
581,11,LIVING,AFN Zone Infiltration Air Change Rate [ach] !RunPeriod [Value,Min,Month,Day,Hour,Minute,Max,Month,Day,Hour,Minute]
582,11,ATTIC,AFN Zone Infiltration Air Change Rate [ach] !RunPeriod [Value,Min,Month,Day,Hour,Minute,Max,Month,Day,Hour,Minute]
583,11,CRAWLSPACE,AFN Zone Infiltration Air Change Rate [ach] !RunPeriod [Value,Min,Month,Day,Hour,Minute,Max,Month,Day,Hour,Minute]
1038,11,Facility,Facility Heating Setpoint Not Met Time [hr] !RunPeriod [Value,Min,Month,Day,Hour,Minute,Max,Month,Day,Hour,Minute]
1039,11,Facility,Facility Cooling Setpoint Not Met Time [hr] !RunPeriod [Value,Min,Month,Day,Hour,Minute,Max,Month,Day,Hour,Minute]
1115,11,DX_HEATING_COIL,Heating Coil Heating Energy [J] !RunPeriod [Value,Min,Month,Day,Hour,Minute,Max,Month,Day,Hour,Minute]
1128,11,DX_HEATING_COIL,Heating Coil Electricity Energy [J] !RunPeriod [Value,Min,Month,Day,Hour,Minute,Max,Month,Day,Hour,Minute]
1153,11,DX_HEATING_COIL,Heating Coil Defrost Electricity Energy [J] !RunPeriod [Value,Min,Month,Day,Hour,Minute,Max,Month,Day,Hour,Minute]
1154,11,DX_HEATING_COIL,Heating Coil Crankcase Heater Electricity Energy [J] !RunPeriod [Value,Min,Month,Day,Hour,Minute,Max,Month,Day,Hour,Minute]
1156,11,HEATING_RESISTANCE_BACKUP,Heating Coil Electricity Energy [J] !RunPeriod [Value,Min,Month,Day,Hour,Minute,Max,Month,Day,Hour,Minute]
13,11,Electricity:Facility [J] !RunPeriod [Value,Min,Month,Day,Hour,Minute,Max,Month,Day,Hour,Minute]
1134,11,Heating:Electricity [J] !RunPeriod [Value,Min,Month,Day,Hour,Minute,Max,Month,Day,Hour,Minute]
1096,11,Cooling:Electricity [J] !RunPeriod [Value,Min,Month,Day,Hour,Minute,Max,Month,Day,Hour,Minute]
562,11,Fans:Electricity [J] !RunPeriod [Value,Min,Month,Day,Hour,Minute,Max,Month,Day,Hour,Minute]
1388,11,Pumps:Electricity [J] !RunPeriod [Value,Min,Month,Day,Hour,Minute,Max,Month,Day,Hour,Minute]
1360,11,WaterSystems:Electricity [J] !RunPeriod [Value,Min,Month,Day,Hour,Minute,Max,Month,Day,Hour,Minute]
61,11,InteriorLights:Electricity [J] !RunPeriod [Value,Min,Month,Day,Hour,Minute,Max,Month,Day,Hour,Minute]
1046,11,ExteriorLights:Electricity [J] !RunPeriod [Value,Min,Month,Day,Hour,Minute,Max,Month,Day,Hour,Minute]
134,11,InteriorEquipment:Electricity [J] !RunPeriod [Value,Min,Month,Day,Hour,Minute,Max,Month,Day,Hour,Minute]
170,11,gas_dryer:InteriorEquipment:Electricity [J] !RunPeriod [Value,Min,Month,Day,Hour,Minute,Max,Month,Day,Hour,Minute]
207,11,clotheswasher:InteriorEquipment:Electricity [J] !RunPeriod [Value,Min,Month,Day,Hour,Minute,Max,Month,Day,Hour,Minute]
244,11,dishwasher:InteriorEquipment:Electricity [J] !RunPeriod [Value,Min,Month,Day,Hour,Minute,Max,Month,Day,Hour,Minute]
281,11,refrigerator:InteriorEquipment:Electricity [J] !RunPeriod [Value,Min,Month,Day,Hour,Minute,Max,Month,Day,Hour,Minute]
318,11,electric_mels:InteriorEquipment:Electricity [J] !RunPeriod [Value,Min,Month,Day,Hour,Minute,Max,Month,Day,Hour,Minute]
355,11,NaturalGas:Facility [J] !RunPeriod [Value,Min,Month,Day,Hour,Minute,Max,Month,Day,Hour,Minute]
1323,11,WaterSystems:NaturalGas [J] !RunPeriod [Value,Min,Month,Day,Hour,Minute,Max,Month,Day,Hour,Minute]
403,11,InteriorEquipment:NaturalGas [J] !RunPeriod [Value,Min,Month,Day,Hour,Minute,Max,Month,Day,Hour,Minute]
476,11,gas_dryer:InteriorEquipment:NaturalGas [J] !RunPeriod [Value,Min,Month,Day,Hour,Minute,Max,Month,Day,Hour,Minute]
513,11,gas_mels:InteriorEquipment:NaturalGas [J] !RunPeriod [Value,Min,Month,Day,Hour,Minute,Max,Month,Day,Hour,Minute]
End of Data Dictionary
1,EXTREME_WINTER,  39.87,-104.67,  -7.00,1650.20
5,15
1038,1.1666666666666665,0.0,12,22, 1,10,0.16666666666666666,12,26, 6,10
1039,0.0,0.0,12,22, 1,10,0.0,12,22, 1,10
581,0.34074912349250663,0.15843799718537677, 1, 3,16,55,0.8569341344831373,12,26, 2,60
582,4.5137723725178285,0.0,12,28, 1,55,22.731069768533402, 1, 3,13,53
583,5.715402765459808,0.0002834034998438462, 1, 2,18,10,19.34103823890098, 1, 4, 1,52
1115,4150064385.6239176,0.0,12,22,11,55,3692294.2928457963,12,24, 4,60
1128,1458923642.9122882,0.0,12,22,11,55,1150907.7846670311,12,24, 6,60
1153,31476404.71925732,0.0,12,22,11, 5,87281.2698732562, 1, 1, 9,60
1154,88442515.35243346,0.0,12,22, 6, 2,120000.0,12,22,12,50
1156,943481572.7604923,0.0,12,22, 1,10,3666803.140331757, 1, 5,24,60
13,3500463453.5131574,196047.99638490335, 1, 3,14,10,5421463.396277399, 1, 5, 7,60
61,646981127.1939279,58759.40635443481,12,22, 1,10,854682.2742463244,12,22,20,10
134,151290040.75163832,42376.01200569399,12,22, 4,10,104369.48322671017,12,27,20,10
170,11185820.069951665,232.27731661587313,12,22, 4,10,11650.931360040839,12,27,12,10
207,13893028.574283868,543.5021409221355,12,22, 3,10,15327.095199349082,12,27,10,10
244,27284301.07562606,1014.5707620042115,12,22, 4,10,35359.08742820678,12,27,20,10
281,98926891.03177528,39959.06841621388,12,22, 5,10,54634.54471212738,12,22,19,10
318,0.0,0.0,12,22, 1,10,0.0,12,22, 1,10
355,1573325590.3001945,12374.216038804521,12,22, 4,10,3829218.154066982,12,26,18,20
403,422701517.161075,12374.216038804521,12,22, 4,10,483183.26346918393,12,27,18,10
476,227882097.80545104,4732.048419519677,12,22, 4,10,237357.535085481,12,27,12,10
513,0.0,0.0,12,22, 1,10,0.0,12,22, 1,10
562,168670348.84628865,0.0,12,22,11,60,123679.65858275,12,24, 4,60
1046,0.0,0.0,12,22, 1,10,0.0,12,22, 1,10
1096,441000.97682024696,0.0,12,22, 1,10,36027.501537706004, 1, 3,16,20
1134,2522324135.7444716,0.0, 1, 3,11,50,4828752.378133114, 1, 5, 7,60
1323,1150624073.1391184,0.0,12,22, 1,10,3375000.0000000005,12,22, 9,50
1360,10756800.0,4980.0,12,22, 1,10,4980.000000000002,12,25,14,50
1388,0.0,0.0,12,22, 1,10,0.0,12,22, 1,10
1,EXTREME_SUMMER,  39.87,-104.67,  -7.00,1650.20
5,7
1038,0.0,0.0, 7,27, 1,10,0.0, 7,27, 1,10
1039,0.3333333333333333,0.0, 7,27, 1,10,0.16666666666666666, 7,31,18,50
581,0.2097960090159614,0.0, 7,31,14,53,0.8899046481883807, 8, 2,17,55
582,5.112588309898208,0.0, 8, 2, 7,57,18.748520129949203, 8, 2,17,55
583,6.177383298301281,0.3583187345207337, 8, 2, 7,52,25.988244170612152, 8, 2,17,55
1115,0.0,0.0, 7,27, 1,10,0.0, 7,27, 1,10
1128,0.0,0.0, 7,27, 1,10,0.0, 7,27, 1,10
1153,0.0,0.0, 7,27, 1,10,0.0, 7,27, 1,10
1154,0.0,0.0, 7,27, 1,10,0.0, 7,27, 1,10
1156,0.0,0.0, 7,27, 1,10,0.0, 7,27, 1,10
13,940990130.8170838,109532.59939565613, 7,28, 4,60,2247538.5893137697, 7,31,19,10
61,301924526.0238348,58759.40635443481, 7,27, 1,10,854682.2742463244, 7,27,20,10
134,70666020.44019979,42376.01200569399, 7,27, 4,10,104369.48322671017, 8, 1,20,10
170,5241013.419656074,232.27731661587313, 7,27, 4,10,11650.931360040839, 8, 1,12,10
207,6509451.13922266,543.5021409221355, 7,27, 3,10,15327.095199349082, 8, 1,10,10
244,12749673.39982522,1014.5707620042115, 7,27, 4,10,35359.08742820678, 8, 1,20,10
281,46165882.48149605,39959.06841621388, 7,27, 5,10,54634.54471212738, 7,27,19,10
318,0.0,0.0, 7,27, 1,10,0.0, 7,27, 1,10
355,632625041.8022299,12374.216038804521, 7,27, 4,10,3829218.154066982, 7,28,18,60
403,197687796.27748126,12374.216038804521, 7,27, 4,10,483183.26346918393, 8, 1,18,10
476,106772067.24485692,4732.048419519677, 7,27, 4,10,237357.535085481, 8, 1,12,10
513,0.0,0.0, 7,27, 1,10,0.0, 7,27, 1,10
562,54992911.91162634,0.0, 7,27, 6,20,123679.65858275, 7,30,18,10
1046,0.0,0.0, 7,27, 1,10,0.0, 7,27, 1,10
1096,508386832.44142365,0.0, 7,27, 6,20,1298172.36415155, 7,31,18,60
1134,0.0,0.0, 7,27, 1,10,0.0, 7,27, 1,10
1323,434937245.5247471,0.0, 7,27, 1,10,3375000.0000000005, 7,27,16,60
1360,5019840.0,4979.999999999998, 7,31,16,50,4980.000000000002, 8, 2,10,20
1388,0.0,0.0, 7,27, 1,10,0.0, 7,27, 1,10
1,ANNUAL,  39.87,-104.67,  -7.00,1650.20
5,365
1038,7.500000000000003,0.0, 1, 1, 1,10,0.16666666666666666, 1, 5, 6,10
1039,11.499999999999998,0.0, 1, 1, 1,10,0.16666666666666666, 2,19,14,10
581,0.27767199838803014,0.0, 6,18,21,25,1.3196172443401977, 7,14,16,51
582,5.062250063231574,0.0, 1, 4,22,40,43.08005337065379, 7,14,16,51
583,6.0289090271378605,0.00005985680522824173,10, 6,24,30,39.445873738234184, 7,14,16,51
1115,24754333581.737762,0.0, 1, 1,23, 2,3854820.6693253815, 1,10, 6,30
1128,8123452633.529506,0.0, 1, 1,23, 2,1168594.9530006119, 1,10, 6,30
1153,223641346.34781197,0.0, 1, 1,23, 2,93300.8995070508, 4, 3, 6,30
1154,2043463153.7062743,0.0, 1, 1, 6, 3,120000.0, 1, 2,13,59
1156,2472856846.2320623,0.0, 1, 1, 1, 1,3844567.412785001, 1, 6, 3,10
13,42958178971.04499,106115.4183601288, 3, 3, 4,30,5401450.123157341, 1, 6, 8,60
61,15743207428.39043,58759.40635443481, 1, 1, 1,10,854682.2742463244, 1, 1,20,10
134,3685071073.433083,42376.01200569399, 1, 2, 4,10,104369.48322671017, 1, 1,20,10
170,273393721.45534325,232.27731661587313, 1, 2, 4,10,11650.931360040839, 1, 1,12,10
207,339560869.06955314,543.5021409221355, 1, 2, 3,10,15327.095199349082, 1, 1,10,10
244,664895467.8009839,1014.5707620042115, 1, 2, 4,10,35359.08742820678, 1, 1,20,10
281,2407221015.1057043,39959.06841621388, 1, 1, 5,10,54634.54471212738, 1, 1,19,10
318,0.0,0.0, 1, 1, 1,10,0.0, 1, 1, 1,10
355,35743084517.031296,12374.216038804521, 1, 2, 4,10,3829218.154066983, 4,14,18,30
403,10310294493.052883,12374.216038804521, 1, 2, 4,10,483183.26346918393, 1, 1,18,10
476,5569688622.065564,4732.048419519677, 1, 2, 4,10,237357.535085481, 1, 1,12,10
513,0.0,0.0, 1, 1, 1,10,0.0, 1, 1, 1,10
562,1916390456.2680466,0.0, 1, 2,12,30,123679.65858275, 1, 1,24,10
1046,0.0,0.0, 1, 1, 1,10,0.0, 1, 1, 1,10
1096,8488347233.144017,0.0, 1, 1, 1,10,1342015.2712746768, 8,15,17,10
1134,12863413979.81569,0.0, 1, 3,11,50,4850348.190979565, 1, 6, 9,20
1323,25432790023.982258,0.0, 1, 1, 1,10,3375000.000000001, 1, 3,20,20
1360,261748800.0,4979.999999999998, 3, 2,11,50,4980.000000000002, 1,24,10,50
1388,0.0,0.0, 1, 1, 1,10,0.0, 1, 1, 1,10
End of Data
 Number of Records Written=          87
