Program Version,EnergyPlus, Version 22.2.0-c249759bad, YMD=2023.09.01 15:36
1,5,Environment Title[],Latitude[deg],Longitude[deg],Time Zone[],Elevation[m]
2,8,Day of Simulation[],Month[],Day of Month[],DST Indicator[1=yes 0=no],Hour[],StartMinute[],EndMinute[],DayType
3,5,Cumulative Day of Simulation[],Month[],Day of Month[],DST Indicator[1=yes 0=no],DayType  ! When Daily Report Variables Requested
4,2,Cumulative Days of Simulation[],Month[]  ! When Monthly Report Variables Requested
5,1,Cumulative Days of Simulation[] ! When Run Period Report Variables Requested
6,1,Calendar Year of Simulation[] ! When Annual Report Variables Requested
581,11,LIVING,AFN Zone Infiltration Air Change Rate [ach] !RunPeriod [Value,Min,Month,Day,Hour,Minute,Max,Month,Day,Hour,Minute]
582,11,ATTIC,AFN Zone Infiltration Air Change Rate [ach] !RunPeriod [Value,Min,Month,Day,Hour,Minute,Max,Month,Day,Hour,Minute]
583,11,CRAWLSPACE,AFN Zone Infiltration Air Change Rate [ach] !RunPeriod [Value,Min,Month,Day,Hour,Minute,Max,Month,Day,Hour,Minute]
1038,11,Facility,Facility Heating Setpoint Not Met Time [hr] !RunPeriod [Value,Min,Month,Day,Hour,Minute,Max,Month,Day,Hour,Minute]
1039,11,Facility,Facility Cooling Setpoint Not Met Time [hr] !RunPeriod [Value,Min,Month,Day,Hour,Minute,Max,Month,Day,Hour,Minute]
1115,11,DX_HEATING_COIL,Heating Coil Heating Energy [J] !RunPeriod [Value,Min,Month,Day,Hour,Minute,Max,Month,Day,Hour,Minute]
1128,11,DX_HEATING_COIL,Heating Coil Electricity Energy [J] !RunPeriod [Value,Min,Month,Day,Hour,Minute,Max,Month,Day,Hour,Minute]
1153,11,DX_HEATING_COIL,Heating Coil Defrost Electricity Energy [J] !RunPeriod [Value,Min,Month,Day,Hour,Minute,Max,Month,Day,Hour,Minute]
1154,11,DX_HEATING_COIL,Heating Coil Crankcase Heater Electricity Energy [J] !RunPeriod [Value,Min,Month,Day,Hour,Minute,Max,Month,Day,Hour,Minute]
1155,11,HEATING_RESISTANCE_BACKUP,Heating Coil Heating Energy [J] !RunPeriod [Value,Min,Month,Day,Hour,Minute,Max,Month,Day,Hour,Minute]
1156,11,HEATING_RESISTANCE_BACKUP,Heating Coil Electricity Energy [J] !RunPeriod [Value,Min,Month,Day,Hour,Minute,Max,Month,Day,Hour,Minute]
1292,11,WATER HEATER,Water Heater Heat Loss Energy [J] !RunPeriod [Value,Min,Month,Day,Hour,Minute,Max,Month,Day,Hour,Minute]
1306,11,WATER HEATER,Water Heater Heating Energy [J] !RunPeriod [Value,Min,Month,Day,Hour,Minute,Max,Month,Day,Hour,Minute]
1307,11,WATER HEATER,Water Heater Unmet Demand Heat Transfer Energy [J] !RunPeriod [Value,Min,Month,Day,Hour,Minute,Max,Month,Day,Hour,Minute]
1308,11,WATER HEATER,Water Heater Electricity Energy [J] !RunPeriod [Value,Min,Month,Day,Hour,Minute,Max,Month,Day,Hour,Minute]
13,11,Electricity:Facility [J] !RunPeriod [Value,Min,Month,Day,Hour,Minute,Max,Month,Day,Hour,Minute]
1134,11,Heating:Electricity [J] !RunPeriod [Value,Min,Month,Day,Hour,Minute,Max,Month,Day,Hour,Minute]
1096,11,Cooling:Electricity [J] !RunPeriod [Value,Min,Month,Day,Hour,Minute,Max,Month,Day,Hour,Minute]
562,11,Fans:Electricity [J] !RunPeriod [Value,Min,Month,Day,Hour,Minute,Max,Month,Day,Hour,Minute]
1379,11,Pumps:Electricity [J] !RunPeriod [Value,Min,Month,Day,Hour,Minute,Max,Month,Day,Hour,Minute]
1326,11,WaterSystems:Electricity [J] !RunPeriod [Value,Min,Month,Day,Hour,Minute,Max,Month,Day,Hour,Minute]
61,11,InteriorLights:Electricity [J] !RunPeriod [Value,Min,Month,Day,Hour,Minute,Max,Month,Day,Hour,Minute]
1046,11,ExteriorLights:Electricity [J] !RunPeriod [Value,Min,Month,Day,Hour,Minute,Max,Month,Day,Hour,Minute]
134,11,InteriorEquipment:Electricity [J] !RunPeriod [Value,Min,Month,Day,Hour,Minute,Max,Month,Day,Hour,Minute]
170,11,gas_dryer:InteriorEquipment:Electricity [J] !RunPeriod [Value,Min,Month,Day,Hour,Minute,Max,Month,Day,Hour,Minute]
207,11,clotheswasher:InteriorEquipment:Electricity [J] !RunPeriod [Value,Min,Month,Day,Hour,Minute,Max,Month,Day,Hour,Minute]
244,11,dishwasher:InteriorEquipment:Electricity [J] !RunPeriod [Value,Min,Month,Day,Hour,Minute,Max,Month,Day,Hour,Minute]
281,11,refrigerator:InteriorEquipment:Electricity [J] !RunPeriod [Value,Min,Month,Day,Hour,Minute,Max,Month,Day,Hour,Minute]
318,11,electric_mels:InteriorEquipment:Electricity [J] !RunPeriod [Value,Min,Month,Day,Hour,Minute,Max,Month,Day,Hour,Minute]
355,11,NaturalGas:Facility [J] !RunPeriod [Value,Min,Month,Day,Hour,Minute,Max,Month,Day,Hour,Minute]
403,11,InteriorEquipment:NaturalGas [J] !RunPeriod [Value,Min,Month,Day,Hour,Minute,Max,Month,Day,Hour,Minute]
476,11,gas_dryer:InteriorEquipment:NaturalGas [J] !RunPeriod [Value,Min,Month,Day,Hour,Minute,Max,Month,Day,Hour,Minute]
513,11,gas_mels:InteriorEquipment:NaturalGas [J] !RunPeriod [Value,Min,Month,Day,Hour,Minute,Max,Month,Day,Hour,Minute]
End of Data Dictionary
1,EXTREME_WINTER,  26.59, -81.86,  -5.00,   4.60
5,7
1038,0.0,0.0, 1,20, 1,15,0.0, 1,20, 1,15
1039,0.5,0.0, 1,20, 1,15,0.25, 1,26,11,45
581,0.21232185440011758,0.008817593057224076, 1,26, 9,46,0.4696083535361319, 1,23,12,60
582,3.484439745956541,0.0, 1,20, 3,50,9.428696888166265, 1,23, 3,45
583,0.014677420368614677,0.00011512269068391977, 1,26, 9,50,0.06942447550215591, 1,24, 6, 5
1115,58374561.613474414,0.0, 1,20, 1, 7,2677638.160055266, 1,24, 6,60
1128,17451977.429644983,0.0, 1,20, 1, 7,813136.9536634547, 1,24, 6,60
1153,114443.65593365446,0.0, 1,20, 1, 7,11366.319058782094, 1,24, 8,30
1154,27602670.234559342,0.0, 1,20, 1, 7,180000.0, 1,20, 5,60
1155,0.0,0.0, 1,20, 1, 7,0.0, 1,20, 1, 7
1156,0.0,0.0, 1,20, 1, 7,0.0, 1,20, 1, 7
1292,-23041757.48903548,-39471.58564379643, 1,24, 3,30,-2790.2130127623273, 1,26,10,45
1306,166473291.1123016,0.0, 1,20, 1, 7,5418250.952497494, 1,24, 6,60
1307,790605.6864937218,0.0, 1,20, 1, 7,423203.00291492324, 1,26,19,60
1308,166473291.1123016,0.0, 1,20, 1, 7,5418250.952497494, 1,24, 6,60
13,725809797.9656149,151703.1275401932, 1,21, 4,15,11615913.053272137, 1,26,19,60
61,301924526.02383536,88139.10953165221, 1,20, 1,15,1282023.4113694867, 1,20,20,15
134,70666020.44019976,63564.01800854099, 1,20, 4,15,156554.22484006523, 1,25,20,15
170,5241013.419656067,348.4159749238097, 1,20, 4,15,17476.39704006126, 1,25,12,15
207,6509451.13922267,815.2532113832032, 1,20, 3,15,22990.642799023623, 1,25,10,15
244,12749673.399825225,1521.856143006317, 1,20, 4,15,53038.631142310165, 1,25,20,15
281,46165882.481495745,59938.60262432081, 1,20, 5,15,81951.81706819107, 1,20,19,15
318,0.0,0.0, 1,20, 1,15,0.0, 1,20, 1,15
355,197687796.27748066,18561.32405820678, 1,20, 4,15,724774.895203776, 1,25,18,15
403,197687796.27748066,18561.32405820678, 1,20, 4,15,724774.895203776, 1,25,18,15
476,106772067.24485716,7098.072629279515, 1,20, 4,15,356036.3026282215, 1,25,12,15
513,0.0,0.0, 1,20, 1,15,0.0, 1,20, 1,15
562,17741182.078497443,0.0, 1,20, 1,15,103565.6487911873, 1,21,17,15
1046,0.0,0.0, 1,20, 1,15,0.0, 1,20, 1,15
1096,123835686.99064295,0.0, 1,20, 1,15,838924.6153121212, 1,21,17,15
1134,45169091.32013799,0.0, 1,20, 1,15,976821.2137580097, 1,24, 6,15
1326,166473291.1123016,0.0, 1,20, 1,15,9839607.688468862, 1,26,19,60
1379,0.0,0.0, 1,20, 1,15,0.0, 1,20, 1,15
1,EXTREME_SUMMER,  26.59, -81.86,  -5.00,   4.60
5,7
1038,0.0,0.0, 6,29, 1,15,0.0, 6,29, 1,15
1039,58.75,0.0, 6,29, 1,15,0.25, 6,29,15,15
581,0.10648361547666478,0.0, 6,29, 1,60,0.5255253468969064, 7, 5,17,46
582,3.6515274877494943,0.2585936506627352, 7, 5,24,45,15.150501599721212, 7, 5,11,46
583,0.04280047636018952,0.00056450146295629, 6,30,23, 3,0.07035081021548235, 7, 5,17,46
1115,0.0,0.0, 6,29, 1,15,0.0, 6,29, 1,15
1128,0.0,0.0, 6,29, 1,15,0.0, 6,29, 1,15
1153,0.0,0.0, 6,29, 1,15,0.0, 6,29, 1,15
1154,0.0,0.0, 6,29, 1,15,0.0, 6,29, 1,15
1155,0.0,0.0, 6,29, 1,15,0.0, 6,29, 1,15
1156,0.0,0.0, 6,29, 1,15,0.0, 6,29, 1,15
1292,-21705045.700326305,-34343.589233308725, 7, 4, 7,30,-2514.699576979293, 7, 5,17,11
1306,130215623.09969741,0.0, 6,29, 1,15,3513600.0, 7, 5,19,55
1307,0.0,0.0, 6,29, 1,15,0.0, 6,29, 1,15
1308,130215623.09969741,0.0, 6,29, 1,15,3513600.0, 7, 5,19,55
13,1127166441.293165,256695.28758609737, 6,30, 4,60,9571266.086516878, 7, 5,19,60
61,301924526.02383536,88139.10953165221, 6,29, 1,15,1282023.4113694867, 6,29,20,15
134,70666020.44019976,63564.01800854099, 6,29, 4,15,156554.22484006523, 7, 4,20,15
170,5241013.419656067,348.4159749238097, 6,29, 4,15,17476.39704006126, 7, 4,12,15
207,6509451.13922267,815.2532113832032, 6,29, 3,15,22990.642799023623, 7, 4,10,15
244,12749673.399825225,1521.856143006317, 6,29, 4,15,53038.631142310165, 7, 4,20,15
281,46165882.481495745,59938.60262432081, 6,29, 5,15,81951.81706819107, 6,29,19,15
318,0.0,0.0, 6,29, 1,15,0.0, 6,29, 1,15
355,197687796.27748066,18561.32405820678, 6,29, 4,15,724774.895203776, 7, 4,18,15
403,197687796.27748066,18561.32405820678, 6,29, 4,15,724774.895203776, 7, 4,18,15
476,106772067.24485716,7098.072629279515, 6,29, 4,15,356036.3026282215, 7, 4,12,15
513,0.0,0.0, 6,29, 1,15,0.0, 6,29, 1,15
562,58449004.85704556,10184.823811990615, 6,30, 5,60,126489.40416852733, 7, 5,13,60
1046,0.0,0.0, 6,29, 1,15,0.0, 6,29, 1,15
1096,565911266.8723874,87157.7436932107, 6,30, 5,60,1342591.3258830782, 7, 1,14,60
1134,0.0,0.0, 6,29, 1,15,0.0, 6,29, 1,15
1326,130215623.09969738,0.0, 6,29, 1,15,6972725.824401233, 7, 5,19,60
1379,0.0,0.0, 6,29, 1,15,0.0, 6,29, 1,15
1,ANNUAL,  26.59, -81.86,  -5.00,   4.60
5,365
1038,0.0,0.0, 1, 1, 1,15,0.0, 1, 1, 1,15
1039,1936.25,0.0, 1, 1, 1,15,0.25, 1, 6,16,15
581,0.14487726014082533,0.0, 1, 6,23, 5,0.7321550850086689, 2,16,16,50
582,3.5186652185088376,0.0, 1, 7, 2,50,25.547491365380008,10, 7,14,52
583,0.03595102583044581,0.0, 1, 6,23, 5,0.07929392330024747, 7,20,19,47
1115,113965297.39795431,0.0, 1, 1, 1,15,2579240.6322695715, 1,24, 6,60
1128,33065083.178300466,0.0, 1, 1, 1,15,786197.0637904888, 1,24, 6,60
1153,193742.26287097525,0.0, 1, 1, 1,15,10983.742052792231, 1,24, 8,30
1154,106789292.2734563,0.0, 1, 1, 1,15,180000.0, 1,17, 1,15
1155,0.0,0.0, 1, 1, 1,15,0.0, 1, 1, 1,15
1156,0.0,0.0, 1, 1, 1,15,0.0, 1, 1, 1,15
1292,-1142690203.1574602,-39516.05804965638, 1,18, 4,30,-2091.8406755303217, 6,20,16,31
1306,7759146082.887924,0.0, 1, 1, 1,15,9841633.990078244, 1,22,19,60
1307,10604404.937346445,0.0, 1, 1, 1,15,798503.8620144166, 1,22,19,60
1308,7759146082.887924,0.0, 1, 1, 1,15,9841633.990078244, 1,22,19,60
13,51683455144.10172,151703.1275401932, 1, 2, 4,15,13099227.891243504, 5, 7,19,60
61,15743207428.383959,88139.10953165221, 1, 1, 1,15,1282023.4113694867, 1, 1,20,15
134,3685071073.4325233,63564.01800854099, 1, 2, 4,15,156554.22484006523, 1, 1,20,15
170,273393721.45532674,348.4159749238097, 1, 2, 4,15,17476.39704006126, 1, 1,12,15
207,339560869.0695816,815.2532113832032, 1, 2, 3,15,22990.642799023623, 1, 1,10,15
244,664895467.8009144,1521.856143006317, 1, 2, 4,15,53038.631142310165, 1, 1,20,15
281,2407221015.106824,59938.60262432081, 1, 1, 5,15,81951.81706819107, 1, 1,19,15
318,0.0,0.0, 1, 1, 1,15,0.0, 1, 1, 1,15
355,10310294493.051695,18561.32405820678, 1, 2, 4,15,724774.895203776, 1, 1,18,15
403,10310294493.051695,18561.32405820678, 1, 2, 4,15,724774.895203776, 1, 1,18,15
476,5569688622.066177,7098.072629279515, 1, 2, 4,15,356036.3026282215, 1, 1,12,15
513,0.0,0.0, 1, 1, 1,15,0.0, 1, 1, 1,15
562,2423279089.702226,0.0, 1, 1, 2,60,126489.40416852733, 6,11,18,45
1046,0.0,0.0, 1, 1, 1,15,0.0, 1, 1, 1,15
1096,21932703351.97874,0.0, 1, 1, 2,60,1393168.4962995227, 6,18,10,60
1134,140048117.71462768,0.0, 1, 1, 1,15,946759.7809719351, 1,24, 6,15
1326,7759146082.887938,0.0, 1, 1, 1,15,10540800.0, 3,12,19,60
1379,0.0,0.0, 1, 1, 1,15,0.0, 1, 1, 1,15
End of Data
 Number of Records Written=          99
