Program Version,EnergyPlus, Version 22.2.0-c249759bad, YMD=2023.09.01 20:36
1,5,Environment Title[],Latitude[deg],Longitude[deg],Time Zone[],Elevation[m]
2,8,Day of Simulation[],Month[],Day of Month[],DST Indicator[1=yes 0=no],Hour[],StartMinute[],EndMinute[],DayType
3,5,Cumulative Day of Simulation[],Month[],Day of Month[],DST Indicator[1=yes 0=no],DayType  ! When Daily Report Variables Requested
4,2,Cumulative Days of Simulation[],Month[]  ! When Monthly Report Variables Requested
5,1,Cumulative Days of Simulation[] ! When Run Period Report Variables Requested
6,1,Calendar Year of Simulation[] ! When Annual Report Variables Requested
581,11,LIVING,AFN Zone Infiltration Air Change Rate [ach] !RunPeriod [Value,Min,Month,Day,Hour,Minute,Max,Month,Day,Hour,Minute]
582,11,ATTIC,AFN Zone Infiltration Air Change Rate [ach] !RunPeriod [Value,Min,Month,Day,Hour,Minute,Max,Month,Day,Hour,Minute]
583,11,CRAWLSPACE,AFN Zone Infiltration Air Change Rate [ach] !RunPeriod [Value,Min,Month,Day,Hour,Minute,Max,Month,Day,Hour,Minute]
1038,11,Facility,Facility Heating Setpoint Not Met Time [hr] !RunPeriod [Value,Min,Month,Day,Hour,Minute,Max,Month,Day,Hour,Minute]
1039,11,Facility,Facility Cooling Setpoint Not Met Time [hr] !RunPeriod [Value,Min,Month,Day,Hour,Minute,Max,Month,Day,Hour,Minute]
1115,11,DX_HEATING_COIL,Heating Coil Heating Energy [J] !RunPeriod [Value,Min,Month,Day,Hour,Minute,Max,Month,Day,Hour,Minute]
1128,11,DX_HEATING_COIL,Heating Coil Electricity Energy [J] !RunPeriod [Value,Min,Month,Day,Hour,Minute,Max,Month,Day,Hour,Minute]
1153,11,DX_HEATING_COIL,Heating Coil Defrost Electricity Energy [J] !RunPeriod [Value,Min,Month,Day,Hour,Minute,Max,Month,Day,Hour,Minute]
1154,11,DX_HEATING_COIL,Heating Coil Crankcase Heater Electricity Energy [J] !RunPeriod [Value,Min,Month,Day,Hour,Minute,Max,Month,Day,Hour,Minute]
1155,11,HEATING_RESISTANCE_BACKUP,Heating Coil Heating Energy [J] !RunPeriod [Value,Min,Month,Day,Hour,Minute,Max,Month,Day,Hour,Minute]
1156,11,HEATING_RESISTANCE_BACKUP,Heating Coil Electricity Energy [J] !RunPeriod [Value,Min,Month,Day,Hour,Minute,Max,Month,Day,Hour,Minute]
1292,11,WATER HEATER,Water Heater Heat Loss Energy [J] !RunPeriod [Value,Min,Month,Day,Hour,Minute,Max,Month,Day,Hour,Minute]
1306,11,WATER HEATER,Water Heater Heating Energy [J] !RunPeriod [Value,Min,Month,Day,Hour,Minute,Max,Month,Day,Hour,Minute]
1307,11,WATER HEATER,Water Heater Unmet Demand Heat Transfer Energy [J] !RunPeriod [Value,Min,Month,Day,Hour,Minute,Max,Month,Day,Hour,Minute]
1308,11,WATER HEATER,Water Heater Electricity Energy [J] !RunPeriod [Value,Min,Month,Day,Hour,Minute,Max,Month,Day,Hour,Minute]
13,11,Electricity:Facility [J] !RunPeriod [Value,Min,Month,Day,Hour,Minute,Max,Month,Day,Hour,Minute]
1134,11,Heating:Electricity [J] !RunPeriod [Value,Min,Month,Day,Hour,Minute,Max,Month,Day,Hour,Minute]
1096,11,Cooling:Electricity [J] !RunPeriod [Value,Min,Month,Day,Hour,Minute,Max,Month,Day,Hour,Minute]
562,11,Fans:Electricity [J] !RunPeriod [Value,Min,Month,Day,Hour,Minute,Max,Month,Day,Hour,Minute]
1379,11,Pumps:Electricity [J] !RunPeriod [Value,Min,Month,Day,Hour,Minute,Max,Month,Day,Hour,Minute]
1326,11,WaterSystems:Electricity [J] !RunPeriod [Value,Min,Month,Day,Hour,Minute,Max,Month,Day,Hour,Minute]
61,11,InteriorLights:Electricity [J] !RunPeriod [Value,Min,Month,Day,Hour,Minute,Max,Month,Day,Hour,Minute]
1046,11,ExteriorLights:Electricity [J] !RunPeriod [Value,Min,Month,Day,Hour,Minute,Max,Month,Day,Hour,Minute]
134,11,InteriorEquipment:Electricity [J] !RunPeriod [Value,Min,Month,Day,Hour,Minute,Max,Month,Day,Hour,Minute]
170,11,gas_dryer:InteriorEquipment:Electricity [J] !RunPeriod [Value,Min,Month,Day,Hour,Minute,Max,Month,Day,Hour,Minute]
207,11,clotheswasher:InteriorEquipment:Electricity [J] !RunPeriod [Value,Min,Month,Day,Hour,Minute,Max,Month,Day,Hour,Minute]
244,11,dishwasher:InteriorEquipment:Electricity [J] !RunPeriod [Value,Min,Month,Day,Hour,Minute,Max,Month,Day,Hour,Minute]
281,11,refrigerator:InteriorEquipment:Electricity [J] !RunPeriod [Value,Min,Month,Day,Hour,Minute,Max,Month,Day,Hour,Minute]
318,11,electric_mels:InteriorEquipment:Electricity [J] !RunPeriod [Value,Min,Month,Day,Hour,Minute,Max,Month,Day,Hour,Minute]
355,11,NaturalGas:Facility [J] !RunPeriod [Value,Min,Month,Day,Hour,Minute,Max,Month,Day,Hour,Minute]
403,11,InteriorEquipment:NaturalGas [J] !RunPeriod [Value,Min,Month,Day,Hour,Minute,Max,Month,Day,Hour,Minute]
476,11,gas_dryer:InteriorEquipment:NaturalGas [J] !RunPeriod [Value,Min,Month,Day,Hour,Minute,Max,Month,Day,Hour,Minute]
513,11,gas_mels:InteriorEquipment:NaturalGas [J] !RunPeriod [Value,Min,Month,Day,Hour,Minute,Max,Month,Day,Hour,Minute]
End of Data Dictionary
1,EXTREME_WINTER,  39.10, -84.42,  -5.00, 149.40
5,7
1038,0.75,0.0, 1,15, 1,15,0.25, 1,20, 6,15
1039,0.0,0.0, 1,15, 1,15,0.0, 1,15, 1,15
581,0.33281019636691006,0.18827277340922474, 1,16,20,22,0.47597881638820033, 1,18, 5,60
582,3.0910098384828832,0.0, 1,15,20,52,12.44463612973381, 1,17,24,52
583,0.043396946398846045,0.00030483888004240493, 1,16,20,15,0.07324522106043982, 1,15, 6,15
1115,1421519742.1209118,0.0, 1,15,15,52,4001203.02891242, 1,19, 5,45
1128,492823802.44949955,0.0, 1,15,15,52,1260952.0340496406, 1,18, 9,30
1153,8499505.213855088,0.0, 1,15,15,52,68624.3342581583, 1,17, 6,45
1154,46640869.634706974,0.0, 1,15, 1,15,180000.0, 1,15,16,15
1155,473484535.14842725,0.0, 1,15, 1,35,5100757.628846118, 1,20, 6,45
1156,473484535.14842725,0.0, 1,15, 1,35,5100757.628846118, 1,20, 6,45
1292,-25331003.727994815,-39773.217545838605, 1,15, 1,15,-5754.929016953893, 1,21,20, 3
1306,227363852.3426785,0.0, 1,15, 1,15,4050000.0, 1,15, 7,60
1307,38214752.46996586,0.0, 1,15, 1,15,3097349.341648654, 1,15, 7,45
1308,227363852.3426785,0.0, 1,15, 1,15,4050000.0, 1,15, 7,60
13,1675502692.5058515,452017.0388981225, 1,15,15,60,9157081.201027857, 1,20, 9,30
61,301924526.02383536,88139.10953165221, 1,15, 1,15,1282023.4113694867, 1,15,20,15
134,70666020.44019976,63564.01800854099, 1,15, 4,15,156554.22484006523, 1,20,20,15
170,5241013.419656067,348.4159749238097, 1,15, 4,15,17476.39704006126, 1,20,12,15
207,6509451.13922267,815.2532113832032, 1,15, 3,15,22990.642799023623, 1,20,10,15
244,12749673.399825225,1521.856143006317, 1,15, 4,15,53038.631142310165, 1,20,20,15
281,46165882.481495745,59938.60262432081, 1,15, 5,15,81951.81706819107, 1,15,19,15
318,0.0,0.0, 1,15, 1,15,0.0, 1,15, 1,15
355,197687796.27748066,18561.32405820678, 1,15, 4,15,724774.895203776, 1,20,18,15
403,197687796.27748066,18561.32405820678, 1,15, 4,15,724774.895203776, 1,20,18,15
476,106772067.24485716,7098.072629279515, 1,15, 4,15,356036.3026282215, 1,20,12,15
513,0.0,0.0, 1,15, 1,15,0.0, 1,15, 1,15
562,54099581.25265058,0.0, 1,15,15,60,131209.16658527427, 1,15, 1,15
1046,0.0,0.0, 1,15, 1,15,0.0, 1,15, 1,15
1096,0.0,0.0, 1,15, 1,15,0.0, 1,15, 1,15
1134,1021448712.4464877,180000.0, 1,15,15,60,6243514.624987086, 1,20, 6,60
1326,227363852.34267864,0.0, 1,15, 1,15,4050000.0, 1,15, 7,60
1379,0.0,0.0, 1,15, 1,15,0.0, 1,15, 1,15
1,EXTREME_SUMMER,  39.10, -84.42,  -5.00, 149.40
5,7
1038,0.0,0.0, 7,15, 1,15,0.0, 7,15, 1,15
1039,38.0,0.0, 7,15, 1,15,0.25, 7,15,14,45
581,0.06620681351382045,0.0, 7,15, 6, 7,0.4705416722123021, 7,20,16,51
582,1.762273532617017,0.0, 7,16,21,47,8.878956364254275, 7,20,16,48
583,0.036438770842664704,0.0, 7,15, 6, 7,0.06655948517454364, 7,18,17, 2
1115,0.0,0.0, 7,15, 1, 7,0.0, 7,15, 1, 7
1128,0.0,0.0, 7,15, 1, 7,0.0, 7,15, 1, 7
1153,0.0,0.0, 7,15, 1, 7,0.0, 7,15, 1, 7
1154,0.0,0.0, 7,15, 1, 7,0.0, 7,15, 1, 7
1155,0.0,0.0, 7,15, 1, 7,0.0, 7,15, 1, 7
1156,0.0,0.0, 7,15, 1, 7,0.0, 7,15, 1, 7
1292,-21852019.948104236,-34316.26178696891, 7,18, 7,30,-2393.9947549179533, 7,18,16,31
1306,169017268.97436035,0.0, 7,15, 1, 7,4050000.0, 7,19, 6,60
1307,16218453.331329957,0.0, 7,15, 1, 7,2611429.051451207, 7,21,19,55
1308,169017268.97436035,0.0, 7,15, 1, 7,4050000.0, 7,19, 6,60
13,1067164586.0006685,155293.9579799409, 7,19, 4,60,6799515.903186734, 7,16,20,30
61,301924526.02383536,88139.10953165221, 7,15, 1,15,1282023.4113694867, 7,15,20,15
134,70666020.44019976,63564.01800854099, 7,15, 4,15,156554.22484006523, 7,20,20,15
170,5241013.419656067,348.4159749238097, 7,15, 4,15,17476.39704006126, 7,20,12,15
207,6509451.13922267,815.2532113832032, 7,15, 3,15,22990.642799023623, 7,20,10,15
244,12749673.399825225,1521.856143006317, 7,15, 4,15,53038.631142310165, 7,20,20,15
281,46165882.481495745,59938.60262432081, 7,15, 5,15,81951.81706819107, 7,15,19,15
318,0.0,0.0, 7,15, 1,15,0.0, 7,15, 1,15
355,197687796.27748066,18561.32405820678, 7,15, 4,15,724774.895203776, 7,20,18,15
403,197687796.27748066,18561.32405820678, 7,15, 4,15,724774.895203776, 7,20,18,15
476,106772067.24485716,7098.072629279515, 7,15, 4,15,356036.3026282215, 7,20,12,15
513,0.0,0.0, 7,15, 1,15,0.0, 7,15, 1,15
562,50595701.902072996,0.0, 7,16, 6,30,131209.1665852743, 7,18,16,60
1046,0.0,0.0, 7,15, 1,15,0.0, 7,15, 1,15
1096,474961068.66019964,0.0, 7,16, 6,30,1388805.552038906, 7,16,15,60
1134,0.0,0.0, 7,15, 1,15,0.0, 7,15, 1,15
1326,169017268.9743604,0.0, 7,15, 1,15,4050000.0, 7,16,20,30
1379,0.0,0.0, 7,15, 1,15,0.0, 7,15, 1,15
1,ANNUAL,  39.10, -84.42,  -5.00, 149.40
5,365
1038,8.75,0.0, 1, 1, 1,15,0.25, 1, 2, 6,15
1039,509.0,0.0, 1, 1, 1,15,0.25, 2,12,16,60
581,0.21650633914367404,0.0, 5, 7, 8,32,1.2417580403761668, 2,18,22,50
582,3.115986290797764,0.0, 1, 9,19,60,28.11180819448681, 1,29,21,60
583,0.02700843503268014,0.0, 6, 7, 6,11,0.09296112980071868, 9,15,14,60
1115,20874552139.68544,0.0, 1, 1,23, 5,4671473.288706201, 1,22, 4,60
1128,6662113569.834319,0.0, 1, 1,23, 5,1304923.6206406024, 1,22, 4,60
1153,232947724.4421515,0.0, 1, 1,23, 5,115356.7102171599, 2,22, 7,60
1154,1491415908.9313655,0.0, 1, 1, 1, 3,180000.0, 1, 4,15,15
1155,3111071193.0007057,0.0, 1, 1, 1,47,5100757.628846118, 1,20, 6,45
1156,3111071193.0007057,0.0, 1, 1, 1,47,5100757.628846118, 1,20, 6,45
1292,-1220113897.777563,-39828.86246693182,12, 2, 5,15,-2131.0198938173853, 8,10,15,31
1306,10391268165.108374,0.0, 1, 1, 1, 3,4050000.0, 1, 1, 9,60
1307,1398655972.628639,0.0, 1, 1, 1, 3,11819849.565921154, 1,29,19,60
1308,10391268165.108374,0.0, 1, 1, 1, 3,4050000.0, 1, 1, 9,60
13,52280217134.38296,151703.1275401932, 3, 6, 4,15,10807442.228300883, 1,20, 7,15
61,15743207428.383959,88139.10953165221, 1, 1, 1,15,1282023.4113694867, 1, 1,20,15
134,3685071073.4325233,63564.01800854099, 1, 2, 4,15,156554.22484006523, 1, 1,20,15
170,273393721.45532674,348.4159749238097, 1, 2, 4,15,17476.39704006126, 1, 1,12,15
207,339560869.0695816,815.2532113832032, 1, 2, 3,15,22990.642799023623, 1, 1,10,15
244,664895467.8009144,1521.856143006317, 1, 2, 4,15,53038.631142310165, 1, 1,20,15
281,2407221015.106824,59938.60262432081, 1, 1, 5,15,81951.81706819107, 1, 1,19,15
318,0.0,0.0, 1, 1, 1,15,0.0, 1, 1, 1,15
355,10310294493.051695,18561.32405820678, 1, 2, 4,15,724774.895203776, 1, 1,18,15
403,10310294493.051695,18561.32405820678, 1, 2, 4,15,724774.895203776, 1, 1,18,15
476,5569688622.066177,7098.072629279515, 1, 2, 4,15,356036.3026282215, 1, 1,12,15
513,0.0,0.0, 1, 1, 1,15,0.0, 1, 1, 1,15
562,1771212328.6196756,0.0, 1, 4,14,60,131209.1665852743, 7,18,16,60
1046,0.0,0.0, 1, 1, 1,15,0.0, 1, 1, 1,15
1096,9191909742.628357,0.0, 1, 1, 1,15,1443095.1845954347, 8, 9,14,60
1134,11497548396.20857,0.0, 1, 6,17,60,6243497.933664528, 1,21, 6,15
1326,10391268165.1084,0.0, 1, 1, 1,15,4050000.0000000014, 8,26, 9,60
1379,0.0,0.0, 1, 1, 1,15,0.0, 1, 1, 1,15
End of Data
 Number of Records Written=          99
