Program Version,EnergyPlus, Version 22.2.0-c249759bad, YMD=2023.09.01 14:32
1,5,Environment Title[],Latitude[deg],Longitude[deg],Time Zone[],Elevation[m]
2,8,Day of Simulation[],Month[],Day of Month[],DST Indicator[1=yes 0=no],Hour[],StartMinute[],EndMinute[],DayType
3,5,Cumulative Day of Simulation[],Month[],Day of Month[],DST Indicator[1=yes 0=no],DayType  ! When Daily Report Variables Requested
4,2,Cumulative Days of Simulation[],Month[]  ! When Monthly Report Variables Requested
5,1,Cumulative Days of Simulation[] ! When Run Period Report Variables Requested
6,1,Calendar Year of Simulation[] ! When Annual Report Variables Requested
7,1,Environment,Site Outdoor Air Drybulb Temperature [C] !Hourly
545,1,LIVING,Zone Mean Air Temperature [C] !Hourly
546,1,ATTIC,Zone Mean Air Temperature [C] !Hourly
547,1,CRAWLSPACE,Zone Mean Air Temperature [C] !Hourly
548,1,FAN,Fan Electricity Rate [W] !Hourly
720,1,LIVING,Zone Predicted Sensible Load to Heating Setpoint Heat Transfer Rate [W] !Hourly
721,1,LIVING,Zone System Predicted Sensible Load to Heating Setpoint Heat Transfer Rate [W] !Hourly
784,1,ATTIC,Zone Predicted Sensible Load to Heating Setpoint Heat Transfer Rate [W] !Hourly
785,1,ATTIC,Zone System Predicted Sensible Load to Heating Setpoint Heat Transfer Rate [W] !Hourly
848,1,CRAWLSPACE,Zone Predicted Sensible Load to Heating Setpoint Heat Transfer Rate [W] !Hourly
849,1,CRAWLSPACE,Zone System Predicted Sensible Load to Heating Setpoint Heat Transfer Rate [W] !Hourly
1121,1,DX_HEATING_COIL,Heating Coil Heating Rate [W] !Hourly
1135,1,DX_HEATING_COIL,Heating Coil Electricity Rate [W] !Hourly
1161,1,DX_HEATING_COIL,Heating Coil Defrost Electricity Rate [W] !Hourly
1163,1,DX_HEATING_COIL,Heating Coil Crankcase Heater Electricity Rate [W] !Hourly
1166,1,HEATING_RESISTANCE_BACKUP,Heating Coil Heating Rate [W] !Hourly
1168,1,HEATING_RESISTANCE_BACKUP,Heating Coil Electricity Rate [W] !Hourly
End of Data Dictionary
1,EXTREME_WINTER,  33.94, -81.12,  -5.00,  69.00
2,1, 1,20, 0, 1, 0.00,60.00,Monday
7,-3.3
545,19.2337303669898
546,3.3578657367871316
547,20.007689661972478
548,0.0
720,-416.29332280672315
721,-416.29332280672315
784,0.0
785,0.0
848,0.0
849,0.0
1121,0.0
1135,0.0
1161,0.0
1163,200.0
1166,0.0
1168,0.0
2,1, 1,20, 0, 2, 0.00,60.00,Monday
7,-3.3
545,18.629968518241558
546,0.8582429169141744
547,19.788393659975185
548,0.0
720,-17.481718394497875
721,-17.481718394497875
784,0.0
785,0.0
848,0.0
849,0.0
1121,0.0
1135,0.0
1161,0.0
1163,200.0
1166,0.0
1168,0.0
2,1, 1,20, 0, 3, 0.00,60.00,Monday
7,-2.8
545,18.51941529928474
546,-0.04774974797934568
547,19.602009890432466
548,28.917789801505208
720,594.9627199514889
721,594.9627199514889
784,0.0
785,0.0
848,0.0
849,0.0
1121,782.7169796514653
1135,271.971435869604
1161,9.099289016796709
1163,162.0132833933623
1166,0.0
1168,0.0
2,1, 1,20, 0, 4, 0.00,60.00,Monday
7,-2.8
545,18.489099659666095
546,-1.4122579297444953
547,19.41763848348639
548,50.35406438782794
720,1040.4692252193072
721,1040.4692252193072
784,0.0
785,0.0
848,0.0
849,0.0
1121,1385.7181654578355
1135,472.4071241904604
1161,15.85023812871464
1163,133.85448615395575
1166,0.0
1168,0.0
2,1, 1,20, 0, 5, 0.00,60.00,Monday
7,-3.3
545,18.431217716884984
546,-1.9796547282078945
547,19.240648439801944
548,67.64772691622436
720,1331.8523671626735
721,1331.8523671626735
784,0.0
785,0.0
848,0.0
849,0.0
1121,1840.4189300390165
1135,626.0640492031056
1161,26.32291410282049
1163,110.93864258941343
1166,0.0
1168,0.0
2,1, 1,20, 0, 6, 0.00,60.00,Monday
7,-3.3
545,19.072739387526266
546,-1.258930239091193
547,19.016732803666326
548,121.23012835298171
720,2513.572987676427
721,2513.572987676427
784,0.0
785,0.0
848,0.0
849,0.0
1121,3439.7937927314515
1135,1120.1634312227734
1161,47.19925155655428
1163,40.39468809516291
1166,0.0
1168,0.0
2,1, 1,20, 0, 7, 0.00,60.00,Monday
7,-2.8
545,19.47155889803923
546,-0.7941996492249325
547,18.895295898252904
548,131.65743329604757
720,2676.4026144810214
721,2676.4026144810214
784,0.0
785,0.0
848,0.0
849,0.0
1121,3818.4918400846464
1135,1239.4809109870216
1161,48.53148717282946
1163,26.838627418742366
1166,0.0
1168,0.0
2,1, 1,20, 0, 8, 0.00,60.00,Monday
7,-2.8
545,19.631957040475037
546,-0.34651747362209345
547,18.759905230113162
548,132.77110091831554
720,2637.068671794803
721,2637.068671794803
784,0.0
785,0.0
848,0.0
849,0.0
1121,3846.147185279333
1135,1259.7792110082623
1161,48.94283660268165
1163,25.370923953772074
1166,0.0
1168,0.0
2,1, 1,20, 0, 9, 0.00,60.00,Monday
7,-1.7
545,19.724809241527947
546,-0.028915136179044017
547,18.646573666705027
548,124.66037844612939
720,2581.9392315067125
721,2581.9392315067125
784,0.0
785,0.0
848,0.0
849,0.0
1121,3760.884560049025
1135,1214.564693334996
1161,30.8846941565459
1163,36.605263750054974
1166,0.0
1168,0.0
2,1, 1,20, 0,10, 0.00,60.00,Monday
7,0.6
545,19.753924720318732
546,1.069275162890623
547,18.543360180117944
548,108.7280668905466
720,2486.42536696724
721,2486.42536696724
784,0.0
785,0.0
848,0.0
849,0.0
1121,3570.627819149408
1135,1116.2667147568666
1161,0.05346829202714311
1163,58.14919982030935
1166,0.0
1168,0.0
2,1, 1,20, 0,11, 0.00,60.00,Monday
7,1.7
545,19.839382040932172
546,3.799846368403433
547,18.439157296204122
548,88.38246319589872
720,2052.5416428523695
721,2052.5416428523695
784,0.0
785,0.0
848,0.0
849,0.0
1121,2942.4129077846164
1135,916.8918978496514
1161,0.04346305287365051
1163,84.69299103009055
1166,0.0
1168,0.0
2,1, 1,20, 0,12, 0.00,60.00,Monday
7,3.3
545,19.98136290812339
546,11.821018627736061
547,18.359082365381752
548,42.97997295651752
720,956.802231959502
721,956.802231959502
784,0.0
785,0.0
848,0.0
849,0.0
1121,1441.8289187111343
1135,453.33939175122197
1161,0.02113584243222763
1163,143.92683873348062
1166,0.0
1168,0.0
2,1, 1,20, 0,13, 0.00,60.00,Monday
7,5.6
545,19.882846322937176
546,17.325481954631755
547,18.287100489918156
548,5.2930852248754565
720,91.92501857694333
721,91.92501857694333
784,0.0
785,0.0
848,0.0
849,0.0
1121,209.3719858824343
1135,60.029548552649324
1161,0.0
1163,193.0944815579893
1166,0.0
1168,0.0
2,1, 1,20, 0,14, 0.00,60.00,Monday
7,5.6
545,20.50631998009322
546,21.54420045158878
547,18.24078351085893
548,0.0
720,-632.3314565923938
721,-632.3314565923938
784,0.0
785,0.0
848,0.0
849,0.0
1121,0.0
1135,0.0
1161,0.0
1163,200.0
1166,0.0
1168,0.0
2,1, 1,20, 0,15, 0.00,60.00,Monday
7,8.9
545,20.959889296501
546,19.595701418465612
547,18.22871625778955
548,0.0
720,-937.7245650142704
721,-937.7245650142704
784,0.0
785,0.0
848,0.0
849,0.0
1121,0.0
1135,0.0
1161,0.0
1163,200.0
1166,0.0
1168,0.0
2,1, 1,20, 0,16, 0.00,60.00,Monday
7,8.9
545,21.01515008397738
546,16.801352457700926
547,18.241818307510886
548,0.0
720,-957.1617948741696
721,-957.1617948741696
784,0.0
785,0.0
848,0.0
849,0.0
1121,0.0
1135,0.0
1161,0.0
1163,200.0
1166,0.0
1168,0.0
2,1, 1,20, 0,17, 0.00,60.00,Monday
7,9.4
545,22.34883205161614
546,16.59625593856634
547,18.27154758753467
548,0.0
720,-1937.9932596205163
721,-1937.9932596205163
784,0.0
785,0.0
848,0.0
849,0.0
1121,0.0
1135,0.0
1161,0.0
1163,200.0
1166,0.0
1168,0.0
2,1, 1,20, 0,18, 0.00,60.00,Monday
7,8.9
545,22.673952954828362
546,14.14266502187028
547,18.305729109958623
548,0.0
720,-1954.6937236794656
721,-1954.6937236794656
784,0.0
785,0.0
848,0.0
849,0.0
1121,0.0
1135,0.0
1161,0.0
1163,200.0
1166,0.0
1168,0.0
2,1, 1,20, 0,19, 0.00,60.00,Monday
7,7.2
545,22.49740894903418
546,12.120856232959
547,18.340590140813813
548,0.0
720,-1873.57033370086
721,-1873.57033370086
784,0.0
785,0.0
848,0.0
849,0.0
1121,0.0
1135,0.0
1161,0.0
1163,200.0
1166,0.0
1168,0.0
2,1, 1,20, 0,20, 0.00,60.00,Monday
7,7.2
545,22.515181556243807
546,10.205025058795723
547,18.364475589029865
548,0.0
720,-1841.3073572451249
721,-1841.3073572451249
784,0.0
785,0.0
848,0.0
849,0.0
1121,0.0
1135,0.0
1161,0.0
1163,200.0
1166,0.0
1168,0.0
2,1, 1,20, 0,21, 0.00,60.00,Monday
7,6.7
545,22.504112188229133
546,8.881073886226659
547,18.377512647025583
548,0.0
720,-1784.6689577388697
721,-1784.6689577388697
784,0.0
785,0.0
848,0.0
849,0.0
1121,0.0
1135,0.0
1161,0.0
1163,200.0
1166,0.0
1168,0.0
2,1, 1,20, 0,22, 0.00,60.00,Monday
7,6.7
545,22.22723788332141
546,7.702914472146275
547,18.373832346991524
548,0.0
720,-1574.1939771916059
721,-1574.1939771916059
784,0.0
785,0.0
848,0.0
849,0.0
1121,0.0
1135,0.0
1161,0.0
1163,200.0
1166,0.0
1168,0.0
2,1, 1,20, 0,23, 0.00,60.00,Monday
7,6.1
545,21.58742187778276
546,6.98556972668912
547,18.355706864291015
548,0.0
720,-1892.160125097551
721,-1892.160125097551
784,0.0
785,0.0
848,0.0
849,0.0
1121,0.0
1135,0.0
1161,0.0
1163,200.0
1166,0.0
1168,0.0
2,1, 1,20, 0,24, 0.00,60.00,Monday
7,6.1
545,21.010433387002394
546,6.4280570315589305
547,18.328730750033852
548,0.0
720,-1585.4547292683437
721,-1585.4547292683437
784,0.0
785,0.0
848,0.0
849,0.0
1121,0.0
1135,0.0
1161,0.0
1163,200.0
1166,0.0
1168,0.0
2,2, 1,21, 0, 1, 0.00,60.00,Tuesday
7,5.6
545,20.24394879898386
546,5.999748391317085
547,18.290282260145624
548,0.0
720,-1041.1204306005984
721,-1041.1204306005984
784,0.0
785,0.0
848,0.0
849,0.0
1121,0.0
1135,0.0
1161,0.0
1163,200.0
1166,0.0
1168,0.0
2,2, 1,21, 0, 2, 0.00,60.00,Tuesday
7,5.6
545,19.622603206700617
546,5.113672245412204
547,18.242374891962207
548,0.0
720,-688.3128606005776
721,-688.3128606005776
784,0.0
785,0.0
848,0.0
849,0.0
1121,0.0
1135,0.0
1161,0.0
1163,200.0
1166,0.0
1168,0.0
2,2, 1,21, 0, 3, 0.00,60.00,Tuesday
7,1.7
545,18.687302163234836
546,3.5914287900831345
547,18.18718213268749
548,0.0
720,-50.955245684848705
721,-50.955245684848705
784,0.0
785,0.0
848,0.0
849,0.0
1121,0.0
1135,0.0
1161,0.0
1163,200.0
1166,0.0
1168,0.0
2,2, 1,21, 0, 4, 0.00,60.00,Tuesday
7,0.6
545,18.551355860278644
546,2.2515776984990006
547,18.10144154718196
548,24.453836485062286
720,536.0400422315888
721,536.0400422315888
784,0.0
785,0.0
848,0.0
849,0.0
1121,697.0258945860865
1135,228.0789942104267
1161,14.024107563823009
1163,167.8467108163022
1166,0.0
1168,0.0
2,2, 1,21, 0, 5, 0.00,60.00,Tuesday
7,2.2
545,18.766662941984794
546,2.0380517341726305
547,18.032941507665665
548,27.249577295877472
720,609.0522440485283
721,609.0522440485283
784,0.0
785,0.0
848,0.0
849,0.0
1121,809.2842264011992
1135,255.61767882855534
1161,16.357735252952246
1163,164.2362505920703
1166,0.0
1168,0.0
2,2, 1,21, 0, 6, 0.00,60.00,Tuesday
7,2.8
545,19.391525038082076
546,3.022638140616458
547,17.936043996473217
548,59.682894871724145
720,1450.4093687349268
721,1450.4093687349268
784,0.0
785,0.0
848,0.0
849,0.0
1121,1874.3853731102856
1135,573.8909537872535
1161,29.080315506558797
1163,121.81211714997995
1166,0.0
1168,0.0
2,2, 1,21, 0, 7, 0.00,60.00,Tuesday
7,1.7
545,19.584917882689076
546,2.4684315434416333
547,17.863332441905904
548,72.72987563235941
720,1653.9083106049438
721,1653.9083106049438
784,0.0
785,0.0
848,0.0
849,0.0
1121,2209.614621829824
1135,694.2912518277569
1161,40.903803312265886
1163,104.52185168904377
1166,0.0
1168,0.0
2,2, 1,21, 0, 8, 0.00,60.00,Tuesday
7,1.7
545,19.682359923052942
546,2.26052773330993
547,17.789692468536384
548,73.65473480072488
720,1630.766488872483
721,1630.766488872483
784,0.0
785,0.0
848,0.0
849,0.0
1121,2237.246460985785
1135,705.743010500008
1161,41.42418577245869
1163,103.30716870874963
1166,0.0
1168,0.0
2,2, 1,21, 0, 9, 0.00,60.00,Tuesday
7,3.9
545,19.801096733493363
546,3.5174915785896057
547,17.728827699717467
548,64.62542930076654
720,1492.687482440846
721,1492.687482440846
784,0.0
785,0.0
848,0.0
849,0.0
1121,2069.700056676847
1135,633.1179999270499
1161,35.16250169543937
1163,115.39802818798337
1166,0.0
1168,0.0
2,2, 1,21, 0,10, 0.00,60.00,Tuesday
7,5.6
545,19.787708597907923
546,5.783689633641672
547,17.664557918161155
548,41.326421321286425
720,1238.3727013575917
721,1238.3727013575917
784,0.0
785,0.0
848,0.0
849,0.0
1121,1679.9114076280312
1135,466.7222027644524
1161,0.0
1163,146.08430575890398
1166,0.0
1168,0.0
2,2, 1,21, 0,11, 0.00,60.00,Tuesday
7,6.1
545,19.808694014012993
546,8.156664134130105
547,17.60254656511748
548,32.767163138993666
720,1012.9709645405073
721,1012.9709645405073
784,0.0
785,0.0
848,0.0
849,0.0
1121,1340.5902584736648
1135,371.86973894983373
1161,0.0
1163,157.2509718367479
1166,0.0
1168,0.0
2,2, 1,21, 0,12, 0.00,60.00,Tuesday
7,7.8
545,19.75181382494764
546,10.518368301240534
547,17.550325742037092
548,11.50980269408605
720,340.8668974129123
721,340.8668974129123
784,0.0
785,0.0
848,0.0
849,0.0
1121,483.78386586591205
1135,133.0937351902979
1161,0.0
1163,184.9839646649963
1166,0.0
1168,0.0
2,2, 1,21, 0,13, 0.00,60.00,Tuesday
7,8.3
545,19.99118614186954
546,12.893430512385116
547,17.51559077371761
548,0.0
720,-211.7564484232753
721,-211.7564484232753
784,0.0
785,0.0
848,0.0
849,0.0
1121,0.0
1135,0.0
1161,0.0
1163,200.0
1166,0.0
1168,0.0
2,2, 1,21, 0,14, 0.00,60.00,Tuesday
7,10.0
545,20.841258830605664
546,16.77280840406771
547,17.512308104233504
548,0.0
720,-804.1215812667688
721,-804.1215812667688
784,0.0
785,0.0
848,0.0
849,0.0
1121,0.0
1135,0.0
1161,0.0
1163,0.0
1166,0.0
1168,0.0
2,2, 1,21, 0,15, 0.00,60.00,Tuesday
7,11.1
545,21.829745885224114
546,22.72392983814074
547,17.5350997759623
548,0.0
720,-1312.1224504208058
721,-1312.1224504208058
784,0.0
785,0.0
848,0.0
849,0.0
1121,0.0
1135,0.0
1161,0.0
1163,0.0
1166,0.0
1168,0.0
2,2, 1,21, 0,16, 0.00,60.00,Tuesday
7,11.1
545,22.402308514903602
546,23.90372602684238
547,17.579678683617423
548,0.0
720,-1963.8918913997932
721,-1963.8918913997932
784,0.0
785,0.0
848,0.0
849,0.0
1121,0.0
1135,0.0
1161,0.0
1163,0.0
1166,0.0
1168,0.0
2,2, 1,21, 0,17, 0.00,60.00,Tuesday
7,11.1
545,23.38613208740982
546,22.018903422410105
547,17.642053894923684
548,0.0
720,-2255.851446927327
721,-2255.851446927327
784,0.0
785,0.0
848,0.0
849,0.0
1121,0.0
1135,0.0
1161,0.0
1163,0.0
1166,0.0
1168,0.0
2,2, 1,21, 0,18, 0.00,60.00,Tuesday
7,10.6
545,23.62743401692963
546,17.75610059354892
547,17.715418570746493
548,0.0
720,-2589.599078064146
721,-2589.599078064146
784,0.0
785,0.0
848,0.0
849,0.0
1121,0.0
1135,0.0
1161,0.0
1163,0.0
1166,0.0
1168,0.0
2,2, 1,21, 0,19, 0.00,60.00,Tuesday
7,10.0
545,23.581819557923065
546,14.38474645465526
547,17.785071935827567
548,0.0
720,-2504.638890165086
721,-2504.638890165086
784,0.0
785,0.0
848,0.0
849,0.0
1121,0.0
1135,0.0
1161,0.0
1163,0.0
1166,0.0
1168,0.0
2,2, 1,21, 0,20, 0.00,60.00,Tuesday
7,10.0
545,23.698093714060317
546,12.53984738757317
547,17.843831074298244
548,0.0
720,-2473.1480008808703
721,-2473.1480008808703
784,0.0
785,0.0
848,0.0
849,0.0
1121,0.0
1135,0.0
1161,0.0
1163,0.0
1166,0.0
1168,0.0
2,2, 1,21, 0,21, 0.00,60.00,Tuesday
7,8.3
545,23.182118667582017
546,10.53608209098635
547,17.879933627312514
548,0.0
720,-2125.5589468865837
721,-2125.5589468865837
784,0.0
785,0.0
848,0.0
849,0.0
1121,0.0
1135,0.0
1161,0.0
1163,200.0
1166,0.0
1168,0.0
2,2, 1,21, 0,22, 0.00,60.00,Tuesday
7,8.9
545,23.056595505069186
546,10.13436688384496
547,17.900379345320857
548,0.0
720,-2498.153735456799
721,-2498.153735456799
784,0.0
785,0.0
848,0.0
849,0.0
1121,0.0
1135,0.0
1161,0.0
1163,200.0
1166,0.0
1168,0.0
2,2, 1,21, 0,23, 0.00,60.00,Tuesday
7,8.3
545,22.639258438128916
546,9.459170899023862
547,17.904513507678168
548,0.0
720,-2725.3811927125444
721,-2725.3811927125444
784,0.0
785,0.0
848,0.0
849,0.0
1121,0.0
1135,0.0
1161,0.0
1163,200.0
1166,0.0
1168,0.0
2,2, 1,21, 0,24, 0.00,60.00,Tuesday
7,7.8
545,21.74500632376973
546,8.823989267196062
547,17.89277253856232
548,0.0
720,-2080.085386932151
721,-2080.085386932151
784,0.0
785,0.0
848,0.0
849,0.0
1121,0.0
1135,0.0
1161,0.0
1163,200.0
1166,0.0
1168,0.0
2,3, 1,22, 0, 1, 0.00,60.00,Wednesday
7,7.2
545,21.048819305633916
546,8.20224575896016
547,17.870374635099413
548,0.0
720,-1824.636142491565
721,-1824.636142491565
784,0.0
785,0.0
848,0.0
849,0.0
1121,0.0
1135,0.0
1161,0.0
1163,200.0
1166,0.0
1168,0.0
2,3, 1,22, 0, 2, 0.00,60.00,Wednesday
7,6.7
545,20.38228956771878
546,7.625688226553879
547,17.837837517848047
548,0.0
720,-1318.681654774291
721,-1318.681654774291
784,0.0
785,0.0
848,0.0
849,0.0
1121,0.0
1135,0.0
1161,0.0
1163,200.0
1166,0.0
1168,0.0
2,3, 1,22, 0, 3, 0.00,60.00,Wednesday
7,5.6
545,19.60932315972213
546,6.883604728367964
547,17.797052362064917
548,0.0
720,-744.8150861165759
721,-744.8150861165759
784,0.0
785,0.0
848,0.0
849,0.0
1121,0.0
1135,0.0
1161,0.0
1163,200.0
1166,0.0
1168,0.0
2,3, 1,22, 0, 4, 0.00,60.00,Wednesday
7,3.9
545,18.846624659412946
546,5.553601012624659
547,17.747525318463545
548,0.0
720,-182.47234675266918
721,-182.47234675266918
784,0.0
785,0.0
848,0.0
849,0.0
1121,0.0
1135,0.0
1161,0.0
1163,200.0
1166,0.0
1168,0.0
2,3, 1,22, 0, 5, 0.00,60.00,Wednesday
7,3.9
545,19.582721850151255
546,5.541338222079234
547,17.666245010072895
548,51.48212669484974
720,271.67686748771666
721,271.67686748771666
784,0.0
785,0.0
848,0.0
849,0.0
1121,1566.657489969593
1135,475.3767446794522
1161,43.06879635716727
1163,132.4658398897175
1166,0.0
1168,0.0
2,3, 1,22, 0, 6, 0.00,60.00,Wednesday
7,3.9
545,19.946330397176045
546,5.302672205877647
547,17.621567856891186
548,54.3099101562688
720,1055.63980752934
721,1055.63980752934
784,0.0
785,0.0
848,0.0
849,0.0
1121,1651.3490102771275
1135,508.8139799603927
1161,45.29680355657502
1163,128.75639326857845
1166,0.0
1168,0.0
2,3, 1,22, 0, 7, 0.00,60.00,Wednesday
7,3.9
545,19.69979416088801
546,5.199991011787599
547,17.559786623761937
548,50.82483245620448
720,1101.5495249352334
721,1101.5495249352334
784,0.0
785,0.0
848,0.0
849,0.0
1121,1538.7027085532432
1135,479.4940532407045
1161,42.40522551562852
1163,133.32735713360213
1166,0.0
1168,0.0
2,3, 1,22, 0, 8, 0.00,60.00,Wednesday
7,3.9
545,19.714719097027675
546,5.194802192929585
547,17.488915396514894
548,56.42999552725544
720,1283.6283119592044
721,1283.6283119592044
784,0.0
785,0.0
848,0.0
849,0.0
1121,1717.589607929226
1135,529.7928556808682
1161,47.08154230464994
1163,125.97490480223419
1166,0.0
1168,0.0
2,3, 1,22, 0, 9, 0.00,60.00,Wednesday
7,2.8
545,19.536788212354615
546,4.364080062817486
547,17.415920479637453
548,71.08573471886541
720,1627.171180562309
721,1627.171180562309
784,0.0
785,0.0
848,0.0
849,0.0
1121,2151.04472004433
1135,669.2193073831276
1161,54.063555326665615
1163,106.6308123083715
1166,0.0
1168,0.0
2,3, 1,22, 0,10, 0.00,60.00,Wednesday
7,2.8
545,19.889964329252543
546,5.0051677270278505
547,17.348949986072206
548,75.55670407593774
720,1713.5385775840477
721,1713.5385775840477
784,0.0
785,0.0
848,0.0
849,0.0
1121,2295.348969144481
1135,708.5721564513085
1161,57.625826963982114
1163,100.75679314068083
1166,0.0
1168,0.0
2,3, 1,22, 0,11, 0.00,60.00,Wednesday
7,2.2
545,19.60804168619393
546,4.518002085422813
547,17.284018222161315
548,74.74258408407579
720,1675.50665194047
721,1675.50665194047
784,0.0
785,0.0
848,0.0
849,0.0
1121,2265.1802435699506
1135,712.8860207532362
1161,49.42163910045528
1163,101.83511586652779
1166,0.0
1168,0.0
2,3, 1,22, 0,12, 0.00,60.00,Wednesday
7,1.7
545,19.5731589383689
546,4.367835454707407
547,17.202846010510736
548,86.94987903254516
720,1968.6468119406218
721,1968.6468119406218
784,0.0
785,0.0
848,0.0
849,0.0
1121,2637.2369291813784
1135,824.0123496455527
1161,55.653886809180584
1163,85.74685067223027
1166,0.0
1168,0.0
2,3, 1,22, 0,13, 0.00,60.00,Wednesday
7,1.0
545,19.725780037634372
546,4.587209019319402
547,17.13577811590915
548,91.09639237506312
720,1989.6819446573081
721,1989.6819446573081
784,0.0
785,0.0
848,0.0
849,0.0
1121,2698.4024598351834
1135,851.5549523320258
1161,63.429099905717464
1163,80.0786845699508
1166,0.0
1168,0.0
2,3, 1,22, 0,14, 0.00,60.00,Wednesday
7,1.1
545,19.76709367544918
546,4.912405650127218
547,17.07951238743631
548,85.81468790746598
720,1860.0957376547722
721,1860.0957376547722
784,0.0
785,0.0
848,0.0
849,0.0
1121,2546.535002540785
1135,808.0669243569794
1161,57.50727770562094
1163,87.09046048938707
1166,0.0
1168,0.0
2,3, 1,22, 0,15, 0.00,60.00,Wednesday
7,1.7
545,19.78302311591295
546,5.398779212320112
547,17.023921987432413
548,82.49594685178523
720,1811.4999758261147
721,1811.4999758261147
784,0.0
785,0.0
848,0.0
849,0.0
1121,2469.483442669412
1135,777.6309894776159
1161,57.68247835570424
1163,91.52018503258626
1166,0.0
1168,0.0
2,3, 1,22, 0,16, 0.00,60.00,Wednesday
7,1.7
545,19.759602065875065
546,5.81508757769823
547,16.968439036111832
548,79.65126369625257
720,1754.8532803842554
721,1754.8532803842554
784,0.0
785,0.0
848,0.0
849,0.0
1121,2381.0711849360828
1135,751.633440994907
1161,55.2311753542382
1163,95.26831248771104
1166,0.0
1168,0.0
2,3, 1,22, 0,17, 0.00,60.00,Wednesday
7,1.7
545,19.917136368579065
546,6.6151425024269965
547,16.912936758680004
548,40.4596285898235
720,801.6607944189473
721,801.6607944189473
784,0.0
785,0.0
848,0.0
849,0.0
1121,1174.2661910773845
1135,381.6785797875314
1161,28.05519184331907
1163,146.8005602562948
1166,0.0
1168,0.0
2,3, 1,22, 0,18, 0.00,60.00,Wednesday
7,2.0
545,19.75356303784473
546,6.218895136614049
547,16.872244655257468
548,24.138859569779182
720,486.1577119512822
721,486.1577119512822
784,0.0
785,0.0
848,0.0
849,0.0
1121,703.442078934613
1135,230.8424864959736
1161,15.314739336987932
1163,168.29688745938833
1166,0.0
1168,0.0
2,3, 1,22, 0,19, 0.00,60.00,Wednesday
7,1.7
545,19.492425310579254
546,4.9679646332194025
547,16.83953453492802
548,33.024693653211365
720,725.8422658497493
721,725.8422658497493
784,0.0
785,0.0
848,0.0
849,0.0
1121,960.1212590114561
1135,313.5535471994302
1161,21.341968723528165
1163,156.60170226270014
1166,0.0
1168,0.0
2,3, 1,22, 0,20, 0.00,60.00,Wednesday
7,1.7
545,19.646278924654524
546,4.3032028004015865
547,16.80689484458805
548,43.144320013030715
720,959.7430987124853
721,959.7430987124853
784,0.0
785,0.0
848,0.0
849,0.0
1121,1265.412583683344
1135,407.50957168456114
1161,27.88144682076799
1163,143.30385607114
1166,0.0
1168,0.0
2,3, 1,22, 0,21, 0.00,60.00,Wednesday
7,1.0
545,19.919575530399367
546,3.835874166960072
547,16.77241328826095
548,45.02407580513779
720,949.5844543190342
721,949.5844543190342
784,0.0
785,0.0
848,0.0
849,0.0
1121,1287.2758477573204
1135,421.421080198736
1161,31.349702528913927
1163,140.7291358194219
1166,0.0
1168,0.0
2,3, 1,22, 0,22, 0.00,60.00,Wednesday
7,1.0
545,19.658782581144703
546,3.3991328934022866
547,16.72978869551679
548,45.93944950591143
720,973.9106380032517
721,973.9106380032517
784,0.0
785,0.0
848,0.0
849,0.0
1121,1336.553030745503
1135,439.4706270896833
1161,26.49449351514895
1163,139.6239168880103
1166,0.0
1168,0.0
2,3, 1,22, 0,23, 0.00,60.00,Wednesday
7,0.6
545,18.722571037582803
546,2.8467441004777823
547,16.671815502102557
548,29.142931937899167
720,566.3990706365803
721,566.3990706365803
784,0.0
785,0.0
848,0.0
849,0.0
1121,828.6005421010542
1135,276.28782172834303
1161,17.015748461711084
1163,161.67406837504822
1166,0.0
1168,0.0
2,3, 1,22, 0,24, 0.00,60.00,Wednesday
7,0.0
545,18.796777374271322
546,2.605059780916364
547,16.60368115407669
548,46.04962861805484
720,975.2966282039661
721,975.2966282039661
784,0.0
785,0.0
848,0.0
849,0.0
1121,1305.6634113588402
1135,425.1975688202685
1161,28.074011347150105
1163,139.36529504213365
1166,0.0
1168,0.0
2,4, 1,23, 0, 1, 0.00,60.00,Thursday
7,-0.6
545,18.4937265831918
546,2.19047970004292
547,16.53565790233149
548,64.4629097829058
720,1366.3677326523157
721,1366.3677326523157
784,0.0
785,0.0
848,0.0
849,0.0
1121,1831.5175915088432
1135,595.9387968156162
1161,37.27552658323994
1163,115.08952905072005
1166,0.0
1168,0.0
2,4, 1,23, 0, 2, 0.00,60.00,Thursday
7,-0.6
545,18.517574256987334
546,2.2042331845280763
547,16.455907886231266
548,82.39742648440713
720,1764.7536782892657
721,1764.7536782892657
784,0.0
785,0.0
848,0.0
849,0.0
1121,2377.087668620556
1135,757.083181168477
1161,47.64541704857973
1163,91.4678028455066
1166,0.0
1168,0.0
2,4, 1,23, 0, 3, 0.00,60.00,Thursday
7,-0.6
545,18.465648395090138
546,2.393821789116934
547,16.382496958216834
548,98.54175679657473
720,2138.2531361467973
721,2138.2531361467973
784,0.0
785,0.0
848,0.0
849,0.0
1121,2898.6396665673387
1135,911.3624566440146
1161,52.32496589444461
1163,70.31083211248905
1166,0.0
1168,0.0
2,4, 1,23, 0, 4, 0.00,60.00,Thursday
7,-1.1
545,18.506097455667007
546,2.382535383358125
547,16.302911001305947
548,113.43340255768818
720,2463.044253195929
721,2463.044253195929
784,0.0
785,0.0
848,0.0
849,0.0
1121,3352.9281053148507
1135,1050.0550302517572
1161,55.25390741553971
1163,50.73453527653879
1166,0.0
1168,0.0
2,4, 1,23, 0, 5, 0.00,60.00,Thursday
7,-1.0
545,18.524586557206238
546,2.2089896407122174
547,16.23156882348472
548,121.76129311623177
720,2652.2906334010295
721,2652.2906334010295
784,0.0
785,0.0
848,0.0
849,0.0
1121,3637.8399288158116
1135,1130.3054745330076
1161,58.00289964794616
1163,39.82736414936423
1166,0.0
1168,0.0
2,4, 1,23, 0, 6, 0.00,60.00,Thursday
7,-1.0
545,19.306438906196504
546,2.842593508169218
547,16.15979643244709
548,147.03497996722572
720,3352.1174598505677
721,3352.1174598505677
784,0.0
785,0.0
848,0.0
849,0.0
1121,4553.875041940355
1135,1384.4623291600783
1161,54.05631316691511
1163,6.961388268759072
1166,0.0
1168,0.0
2,4, 1,23, 0, 7, 0.00,60.00,Thursday
7,-1.1
545,19.57977710049681
546,2.621697472091309
547,16.127379608856803
548,147.82803727588544
720,3263.5064048272943
721,3263.5064048272943
784,0.0
785,0.0
848,0.0
849,0.0
1121,4543.210088165354
1135,1410.1971082343464
1161,56.11129188146411
1163,5.855028542022889
1166,0.0
1168,0.0
2,4, 1,23, 0, 8, 0.00,60.00,Thursday
7,-0.6
545,19.715024395520377
546,2.7355467528561404
547,16.071180108705192
548,134.37797611727333
720,2929.1572205703433
721,2929.1572205703433
784,0.0
785,0.0
848,0.0
849,0.0
1121,4151.699507285445
1135,1298.2510523522637
1161,47.43712924369054
1163,23.681572619254588
1166,0.0
1168,0.0
2,4, 1,23, 0, 9, 0.00,60.00,Thursday
7,1.1
545,19.772369070785295
546,3.1733992164568456
547,16.021448070875113
548,115.68480886239443
720,2564.8962967676234
721,2564.8962967676234
784,0.0
785,0.0
848,0.0
849,0.0
1121,3646.9628157472685
1135,1125.2272086186144
1161,48.92032212154056
1163,48.29055375705538
1166,0.0
1168,0.0
2,4, 1,23, 0,10, 0.00,60.00,Thursday
7,1.1
545,19.726875826814975
546,3.721302768907874
547,15.96232398270136
548,111.76557863194499
720,2477.0495254619163
721,2477.0495254619163
784,0.0
785,0.0
848,0.0
849,0.0
1121,3485.1200241434717
1135,1080.7306986129913
1161,53.01646026930872
1163,53.33192521402157
1166,0.0
1168,0.0
2,4, 1,23, 0,11, 0.00,60.00,Thursday
7,1.1
545,19.79336421294767
546,4.758229452359295
547,15.90357248498678
548,95.63584519905858
720,2011.6921544274192
721,2011.6921544274192
784,0.0
785,0.0
848,0.0
849,0.0
1121,2861.9064889033107
1135,899.8805431303559
1161,63.77637528043072
1163,74.1743689134828
1166,0.0
1168,0.0
2,4, 1,23, 0,12, 0.00,60.00,Thursday
7,2.8
545,19.756602761759783
546,6.28500425729991
547,15.860701206794781
548,72.68956810840484
720,1653.11422102068
721,1653.11422102068
784,0.0
785,0.0
848,0.0
849,0.0
1121,2314.1073613247413
1135,716.9728765802585
1161,31.482539650959197
1163,104.8176290844701
1166,0.0
1168,0.0
2,4, 1,23, 0,13, 0.00,60.00,Thursday
7,3.3
545,19.793955048980326
546,7.5419658696616905
547,15.82605313324384
548,58.16234434246384
720,1378.0582517987532
721,1378.0582517987532
784,0.0
785,0.0
848,0.0
849,0.0
1121,1881.9291699668315
1135,583.4085813956546
1161,19.673776379692217
1163,123.93099739168683
1166,0.0
1168,0.0
2,4, 1,23, 0,14, 0.00,60.00,Thursday
7,3.9
545,19.735688837220362
546,8.188003002342613
547,15.802621125292324
548,35.14731249743594
720,839.0613862033097
721,839.0613862033097
784,0.0
785,0.0
848,0.0
849,0.0
1121,1155.7113994697095
1135,360.8188819541433
1161,7.585909897791951
1163,154.08608848632673
1166,0.0
1168,0.0
2,4, 1,23, 0,15, 0.00,60.00,Thursday
7,4.4
545,19.658542481064828
546,8.959259521756907
547,15.80660302691258
548,29.845686903098443
720,759.7965262503512
721,759.7965262503512
784,0.0
785,0.0
848,0.0
849,0.0
1121,1003.6109942209529
1135,311.3869377588398
1161,3.720878866558339
1163,161.0381845759882
1166,0.0
1168,0.0
2,4, 1,23, 0,16, 0.00,60.00,Thursday
7,4.4
545,19.94585635931176
546,8.395737619964313
547,15.828089803013476
548,27.782430923118472
720,700.0926324918128
721,700.0926324918128
784,0.0
785,0.0
848,0.0
849,0.0
1121,907.2192345033575
1135,281.67917569272333
1161,8.871774848596115
1163,163.69485256654414
1166,0.0
1168,0.0
2,4, 1,23, 0,17, 0.00,60.00,Thursday
7,4.4
545,19.70477290638124
546,7.862921323424876
547,15.84305054577419
548,2.787549205943125
720,32.87879130905458
721,32.87879130905458
784,0.0
785,0.0
848,0.0
849,0.0
1121,91.17217287714229
1135,29.00707597580308
1161,0.485074573252563
1163,196.36009535120795
1166,0.0
1168,0.0
2,4, 1,23, 0,18, 0.00,60.00,Thursday
7,3.9
545,19.94223771585295
546,6.9247144755595444
547,15.883124484680872
548,1.207774927223371
720,21.397242826429647
721,21.397242826429647
784,0.0
785,0.0
848,0.0
849,0.0
1121,39.96756430231763
1135,12.749506651355855
1161,0.0005939353624501929
1163,198.42429591026013
1166,0.0
1168,0.0
2,4, 1,23, 0,19, 0.00,60.00,Thursday
7,3.9
545,19.58782846087378
546,5.84745742400456
547,15.922067595305395
548,5.708217154446479
720,150.01930544607785
721,150.01930544607785
784,0.0
785,0.0
848,0.0
849,0.0
1121,189.30070048982856
1135,60.53430221429474
1161,0.0028070727077121847
1163,192.55286648113977
1166,0.0
1168,0.0
2,4, 1,23, 0,20, 0.00,60.00,Thursday
7,3.9
545,19.687751648322195
546,5.292216425365553
547,15.952436232182466
548,16.61758347443822
720,442.3498682117097
721,442.3498682117097
784,0.0
785,0.0
848,0.0
849,0.0
1121,556.3602827265061
1135,175.02295553657575
1161,0.008171862344716518
1163,178.3201376253451
1166,0.0
1168,0.0
2,4, 1,23, 0,21, 0.00,60.00,Thursday
7,2.8
545,19.75357365237259
546,4.032551627652532
547,15.962240173773537
548,23.45766798878485
720,592.304986320738
721,592.304986320738
784,0.0
785,0.0
848,0.0
849,0.0
1121,766.5812114963654
1135,244.96964496512416
1161,0.011535554392795985
1163,169.3962990195427
1166,0.0
1168,0.0
2,4, 1,23, 0,22, 0.00,60.00,Thursday
7,1.7
545,19.546684258843804
546,3.3527697063929076
547,15.955806111524755
548,33.51491839972419
720,807.4076597042504
721,807.4076597042504
784,0.0
785,0.0
848,0.0
849,0.0
1121,1065.4945438814725
1135,345.13845833792357
1161,1.3242062544129494
1163,156.25752621510273
1166,0.0
1168,0.0
2,4, 1,23, 0,23, 0.00,60.00,Thursday
7,1.7