Program Version,EnergyPlus, Version 22.2.0-c249759bad, YMD=2023.09.01 18:12
1,5,Environment Title[],Latitude[deg],Longitude[deg],Time Zone[],Elevation[m]
2,8,Day of Simulation[],Month[],Day of Month[],DST Indicator[1=yes 0=no],Hour[],StartMinute[],EndMinute[],DayType
3,5,Cumulative Day of Simulation[],Month[],Day of Month[],DST Indicator[1=yes 0=no],DayType  ! When Daily Report Variables Requested
4,2,Cumulative Days of Simulation[],Month[]  ! When Monthly Report Variables Requested
5,1,Cumulative Days of Simulation[] ! When Run Period Report Variables Requested
6,1,Calendar Year of Simulation[] ! When Annual Report Variables Requested
581,11,LIVING,AFN Zone Infiltration Air Change Rate [ach] !RunPeriod [Value,Min,Month,Day,Hour,Minute,Max,Month,Day,Hour,Minute]
582,11,ATTIC,AFN Zone Infiltration Air Change Rate [ach] !RunPeriod [Value,Min,Month,Day,Hour,Minute,Max,Month,Day,Hour,Minute]
583,11,CRAWLSPACE,AFN Zone Infiltration Air Change Rate [ach] !RunPeriod [Value,Min,Month,Day,Hour,Minute,Max,Month,Day,Hour,Minute]
1038,11,Facility,Facility Heating Setpoint Not Met Time [hr] !RunPeriod [Value,Min,Month,Day,Hour,Minute,Max,Month,Day,Hour,Minute]
1039,11,Facility,Facility Cooling Setpoint Not Met Time [hr] !RunPeriod [Value,Min,Month,Day,Hour,Minute,Max,Month,Day,Hour,Minute]
1115,11,DX_HEATING_COIL,Heating Coil Heating Energy [J] !RunPeriod [Value,Min,Month,Day,Hour,Minute,Max,Month,Day,Hour,Minute]
1128,11,DX_HEATING_COIL,Heating Coil Electricity Energy [J] !RunPeriod [Value,Min,Month,Day,Hour,Minute,Max,Month,Day,Hour,Minute]
1153,11,DX_HEATING_COIL,Heating Coil Defrost Electricity Energy [J] !RunPeriod [Value,Min,Month,Day,Hour,Minute,Max,Month,Day,Hour,Minute]
1154,11,DX_HEATING_COIL,Heating Coil Crankcase Heater Electricity Energy [J] !RunPeriod [Value,Min,Month,Day,Hour,Minute,Max,Month,Day,Hour,Minute]
1155,11,HEATING_RESISTANCE_BACKUP,Heating Coil Heating Energy [J] !RunPeriod [Value,Min,Month,Day,Hour,Minute,Max,Month,Day,Hour,Minute]
1156,11,HEATING_RESISTANCE_BACKUP,Heating Coil Electricity Energy [J] !RunPeriod [Value,Min,Month,Day,Hour,Minute,Max,Month,Day,Hour,Minute]
1292,11,WATER HEATER,Water Heater Heat Loss Energy [J] !RunPeriod [Value,Min,Month,Day,Hour,Minute,Max,Month,Day,Hour,Minute]
1306,11,WATER HEATER,Water Heater Heating Energy [J] !RunPeriod [Value,Min,Month,Day,Hour,Minute,Max,Month,Day,Hour,Minute]
1307,11,WATER HEATER,Water Heater Unmet Demand Heat Transfer Energy [J] !RunPeriod [Value,Min,Month,Day,Hour,Minute,Max,Month,Day,Hour,Minute]
1308,11,WATER HEATER,Water Heater Electricity Energy [J] !RunPeriod [Value,Min,Month,Day,Hour,Minute,Max,Month,Day,Hour,Minute]
13,11,Electricity:Facility [J] !RunPeriod [Value,Min,Month,Day,Hour,Minute,Max,Month,Day,Hour,Minute]
1134,11,Heating:Electricity [J] !RunPeriod [Value,Min,Month,Day,Hour,Minute,Max,Month,Day,Hour,Minute]
1096,11,Cooling:Electricity [J] !RunPeriod [Value,Min,Month,Day,Hour,Minute,Max,Month,Day,Hour,Minute]
562,11,Fans:Electricity [J] !RunPeriod [Value,Min,Month,Day,Hour,Minute,Max,Month,Day,Hour,Minute]
1379,11,Pumps:Electricity [J] !RunPeriod [Value,Min,Month,Day,Hour,Minute,Max,Month,Day,Hour,Minute]
1326,11,WaterSystems:Electricity [J] !RunPeriod [Value,Min,Month,Day,Hour,Minute,Max,Month,Day,Hour,Minute]
61,11,InteriorLights:Electricity [J] !RunPeriod [Value,Min,Month,Day,Hour,Minute,Max,Month,Day,Hour,Minute]
1046,11,ExteriorLights:Electricity [J] !RunPeriod [Value,Min,Month,Day,Hour,Minute,Max,Month,Day,Hour,Minute]
134,11,InteriorEquipment:Electricity [J] !RunPeriod [Value,Min,Month,Day,Hour,Minute,Max,Month,Day,Hour,Minute]
170,11,gas_dryer:InteriorEquipment:Electricity [J] !RunPeriod [Value,Min,Month,Day,Hour,Minute,Max,Month,Day,Hour,Minute]
207,11,clotheswasher:InteriorEquipment:Electricity [J] !RunPeriod [Value,Min,Month,Day,Hour,Minute,Max,Month,Day,Hour,Minute]
244,11,dishwasher:InteriorEquipment:Electricity [J] !RunPeriod [Value,Min,Month,Day,Hour,Minute,Max,Month,Day,Hour,Minute]
281,11,refrigerator:InteriorEquipment:Electricity [J] !RunPeriod [Value,Min,Month,Day,Hour,Minute,Max,Month,Day,Hour,Minute]
318,11,electric_mels:InteriorEquipment:Electricity [J] !RunPeriod [Value,Min,Month,Day,Hour,Minute,Max,Month,Day,Hour,Minute]
355,11,NaturalGas:Facility [J] !RunPeriod [Value,Min,Month,Day,Hour,Minute,Max,Month,Day,Hour,Minute]
403,11,InteriorEquipment:NaturalGas [J] !RunPeriod [Value,Min,Month,Day,Hour,Minute,Max,Month,Day,Hour,Minute]
476,11,gas_dryer:InteriorEquipment:NaturalGas [J] !RunPeriod [Value,Min,Month,Day,Hour,Minute,Max,Month,Day,Hour,Minute]
513,11,gas_mels:InteriorEquipment:NaturalGas [J] !RunPeriod [Value,Min,Month,Day,Hour,Minute,Max,Month,Day,Hour,Minute]
End of Data Dictionary
1,EXTREME_WINTER,  40.65, -73.78,  -5.00,   3.40
5,7
1038,0.5,0.0, 1, 6, 1,15,0.25, 1, 8, 6,15
1039,0.0,0.0, 1, 6, 1,15,0.0, 1, 6, 1,15
581,0.48585703399099844,0.21424189498964394, 1,12,19,30,1.3157890184557415, 1, 7,19,52
582,9.280990977885349,0.3114659345266723, 1,12,17,60,26.295043111109624, 1, 7,19,52
583,0.054929445933437016,0.0025364587461053495, 1,11,23,22,0.0889446185714888, 1, 7,18,60
1115,1925589818.7716823,0.0, 1, 6,23, 5,3941891.0210547275, 1, 9, 5,60
1128,647754794.1096182,0.0, 1, 6,23, 5,1236550.0610027944, 1, 9, 6,45
1153,5343750.009738365,0.0, 1, 6,23, 5,66977.4370434881, 1,12,11,60
1154,22616570.053569134,0.0, 1, 6, 1, 7,176869.16892394805, 1,10,16,30
1155,796398546.4218524,0.0, 1, 6,13,45,6338886.700627682, 1, 7,24,60
1156,796398546.4218524,0.0, 1, 6,13,45,6338886.700627682, 1, 7,24,60
1292,-25377949.147067737,-39758.53350845797, 1,11, 3,60,-6160.141552082736, 1, 6,14,32
1306,227122247.2049053,0.0, 1, 6, 1, 7,4050000.0, 1, 6, 7,60
1307,38047187.90973608,0.0, 1, 6, 1, 7,11734517.639380153, 1,12,19,60
1308,227122247.2049053,0.0, 1, 6, 1, 7,4050000.0, 1, 6, 7,60
13,2136936864.8719344,592360.3167058929, 1,10,16,15,12561731.572067494, 1, 7,20,30
61,301924526.02383536,88139.10953165221, 1, 6, 1,15,1282023.4113694867, 1, 6,20,15
134,70666020.44019976,63564.01800854099, 1, 6, 4,15,156554.22484006523, 1,11,20,15
170,5241013.419656067,348.4159749238097, 1, 6, 4,15,17476.39704006126, 1,11,12,15
207,6509451.13922267,815.2532113832032, 1, 6, 3,15,22990.642799023623, 1,11,10,15
244,12749673.399825225,1521.856143006317, 1, 6, 4,15,53038.631142310165, 1,11,20,15
281,46165882.481495745,59938.60262432081, 1, 6, 5,15,81951.81706819107, 1, 6,19,15
318,0.0,0.0, 1, 6, 1,15,0.0, 1, 6, 1,15
355,197687796.27748066,18561.32405820678, 1, 6, 4,15,724774.895203776, 1,11,18,15
403,197687796.27748066,18561.32405820678, 1, 6, 4,15,724774.895203776, 1,11,18,15
476,106772067.24485716,7098.072629279515, 1, 6, 4,15,356036.3026282215, 1,11,12,15
513,0.0,0.0, 1, 6, 1,15,0.0, 1, 6, 1,15
562,65110410.60821594,2074.2713876441576, 1,10,16,30,119257.06472088807, 1, 6, 1,15
1046,0.0,0.0, 1, 6, 1,15,0.0, 1, 6, 1,15
1096,0.0,0.0, 1, 6, 1,15,0.0, 1, 6, 1,15
1134,1472113660.594781,197941.57885322272, 1,10,16,30,7449883.935891355, 1, 7,24,60
1326,227122247.20490533,0.0, 1, 6, 1,15,4050000.0, 1, 6, 7,60
1379,0.0,0.0, 1, 6, 1,15,0.0, 1, 6, 1,15
1,EXTREME_SUMMER,  40.65, -73.78,  -5.00,   3.40
5,7
1038,0.0,0.0, 6,29, 1,15,0.0, 6,29, 1,15
1039,30.75,0.0, 6,29, 1,15,0.25, 6,29,17,15
581,0.2492647212528392,0.0, 7, 5,19,52,0.6469708105123325, 7, 1,16,48
582,5.81008715134429,0.06750497642253052, 7, 5,20,22,14.128085287827213, 7, 2,18,20
583,0.03834878071800488,0.0014158341283973805, 7, 2,23, 3,0.06907547523729897, 7, 1,16,48
1115,0.0,0.0, 6,29, 1,15,0.0, 6,29, 1,15
1128,0.0,0.0, 6,29, 1,15,0.0, 6,29, 1,15
1153,0.0,0.0, 6,29, 1,15,0.0, 6,29, 1,15
1154,0.0,0.0, 6,29, 1,15,0.0, 6,29, 1,15
1155,0.0,0.0, 6,29, 1,15,0.0, 6,29, 1,15
1156,0.0,0.0, 6,29, 1,15,0.0, 6,29, 1,15
1292,-22014822.069925115,-34336.87619252315, 7, 5,14,15,-3707.949393828575, 7, 4,10,59
1306,171024447.00605348,0.0, 6,29, 1,15,3513399.831554102, 6,29,14,30
1307,16892675.31016671,0.0, 6,29, 1,15,3982386.7277589333, 7, 5,19,60
1308,171024447.00605348,0.0, 6,29, 1,15,3513399.831554102, 6,29,14,30
13,1085709505.6283586,151703.1275401932, 6,30, 4,30,6800945.130934216, 7, 5,20,15
61,301924526.02383536,88139.10953165221, 6,29, 1,15,1282023.4113694867, 6,29,20,15
134,70666020.44019976,63564.01800854099, 6,29, 4,15,156554.22484006523, 7, 4,20,15
170,5241013.419656067,348.4159749238097, 6,29, 4,15,17476.39704006126, 7, 4,12,15
207,6509451.13922267,815.2532113832032, 6,29, 3,15,22990.642799023623, 7, 4,10,15
244,12749673.399825225,1521.856143006317, 6,29, 4,15,53038.631142310165, 7, 4,20,15
281,46165882.481495745,59938.60262432081, 6,29, 5,15,81951.81706819107, 6,29,19,15
318,0.0,0.0, 6,29, 1,15,0.0, 6,29, 1,15
355,197687796.27748066,18561.32405820678, 6,29, 4,15,724774.895203776, 7, 4,18,15
403,197687796.27748066,18561.32405820678, 6,29, 4,15,724774.895203776, 7, 4,18,15
476,106772067.24485716,7098.072629279515, 6,29, 4,15,356036.3026282215, 7, 4,12,15
513,0.0,0.0, 6,29, 1,15,0.0, 6,29, 1,15
562,50269158.78918155,0.0, 6,30, 4,30,119257.06472088807, 6,29,15,45
1046,0.0,0.0, 6,29, 1,15,0.0, 6,29, 1,15
1096,491825353.3690871,0.0, 6,30, 4,30,1307407.0848618564, 7, 2,18,60
1134,0.0,0.0, 6,29, 1,15,0.0, 6,29, 1,15
1326,171024447.00605345,0.0, 6,29, 1,15,4050000.0, 6,30,20,30
1379,0.0,0.0, 6,29, 1,15,0.0, 6,29, 1,15
1,ANNUAL,  40.65, -73.78,  -5.00,   3.40
5,365
1038,20.0,0.0, 1, 1, 1,15,0.25, 1, 2, 6,15
1039,469.0,0.0, 1, 1, 1,15,0.25, 3, 7,14,45
581,0.3277865814517914,0.0, 5,30,23, 3,1.3813813884625137, 3, 2,14,60
582,6.339588965022045,0.0, 1, 4, 3,60,34.09059722465836, 2,12,15,60
583,0.02653135123335398,0.0, 5,30,23, 3,0.09438607653499874, 3, 2,14,60
1115,23738907107.790436,0.0, 1, 1,15,30,4446480.024112915, 3,12, 6,15
1128,7319431876.463299,0.0, 1, 1,15,30,1271960.9670220518,11,20, 6,45
1153,108350179.18709306,0.0, 1, 1,15,30,100564.36017785303,10,29,22,60
1154,1486134993.4774635,0.0, 1, 1, 6, 5,180000.0, 1, 1,15,30
1155,3645469176.226838,0.0, 1, 1, 1, 7,6338886.700627682, 1, 7,24,60
1156,3645469176.226838,0.0, 1, 1, 1, 7,6338886.700627682, 1, 7,24,60
1292,-1225876665.217699,-39941.62045381262, 1,31, 8,45,-2605.3432223656905, 5, 7, 9,46
1306,10381114213.072113,0.0, 1, 1, 1, 7,4050000.0, 1, 1,10,15
1307,1399979512.1219401,0.0, 1, 1, 1, 7,11998095.221184928, 2, 5,19,60
1308,10381114213.072113,0.0, 1, 1, 1, 7,4050000.0, 1, 1,10,15
13,52453565805.36282,151703.1275401932, 4,14, 4,15,11936489.969535379, 1,31, 9,15
61,15743207428.383959,88139.10953165221, 1, 1, 1,15,1282023.4113694867, 1, 1,20,15
134,3685071073.4325233,63564.01800854099, 1, 2, 4,15,156554.22484006523, 1, 1,20,15
170,273393721.45532674,348.4159749238097, 1, 2, 4,15,17476.39704006126, 1, 1,12,15
207,339560869.0695816,815.2532113832032, 1, 2, 3,15,22990.642799023623, 1, 1,10,15
244,664895467.8009144,1521.856143006317, 1, 2, 4,15,53038.631142310165, 1, 1,20,15
281,2407221015.106824,59938.60262432081, 1, 1, 5,15,81951.81706819107, 1, 1,19,15
318,0.0,0.0, 1, 1, 1,15,0.0, 1, 1, 1,15
355,10310294493.051695,18561.32405820678, 1, 2, 4,15,724774.895203776, 1, 1,18,15
403,10310294493.051695,18561.32405820678, 1, 2, 4,15,724774.895203776, 1, 1,18,15
476,5569688622.066177,7098.072629279515, 1, 2, 4,15,356036.3026282215, 1, 1,12,15
513,0.0,0.0, 1, 1, 1,15,0.0, 1, 1, 1,15
562,1629948648.1421657,0.0, 1, 1,15,30,119257.06472088807, 1, 1, 6,30
1046,0.0,0.0, 1, 1, 1,15,0.0, 1, 1, 1,15
1096,8454838216.975873,0.0, 1, 1, 1,15,1431422.333645775, 7, 8,14,60
1134,12559386225.354687,0.0, 1, 4,19,15,7490306.570117757, 1,31, 7,15
1326,10381114213.072126,0.0, 1, 1, 1,15,4050000.0, 1, 1, 9,60
1379,0.0,0.0, 1, 1, 1,15,0.0, 1, 1, 1,15
End of Data
 Number of Records Written=          99
