Program Version,EnergyPlus, Version 22.2.0-c249759bad, YMD=2023.09.01 14:30
1,5,Environment Title[],Latitude[deg],Longitude[deg],Time Zone[],Elevation[m]
2,8,Day of Simulation[],Month[],Day of Month[],DST Indicator[1=yes 0=no],Hour[],StartMinute[],EndMinute[],DayType
3,5,Cumulative Day of Simulation[],Month[],Day of Month[],DST Indicator[1=yes 0=no],DayType  ! When Daily Report Variables Requested
4,2,Cumulative Days of Simulation[],Month[]  ! When Monthly Report Variables Requested
5,1,Cumulative Days of Simulation[] ! When Run Period Report Variables Requested
6,1,Calendar Year of Simulation[] ! When Annual Report Variables Requested
7,1,Environment,Site Outdoor Air Drybulb Temperature [C] !Hourly
619,1,DX_HEATING_COIL,Heating Coil Heating Rate [W] !Hourly
633,1,DX_HEATING_COIL,Heating Coil Electricity Rate [W] !Hourly
659,1,DX_HEATING_COIL,Heating Coil Defrost Electricity Rate [W] !Hourly
661,1,DX_HEATING_COIL,Heating Coil Crankcase Heater Electricity Rate [W] !Hourly
690,1,FAN,Fan Electricity Rate [W] !Hourly
716,1,HEAT PUMP WATER HEATER FAN,Fan Electricity Rate [W] !Hourly
718,1,LIVING,Zone Mean Air Temperature [C] !Hourly
719,1,ATTIC,Zone Mean Air Temperature [C] !Hourly
720,1,CRAWLSPACE,Zone Mean Air Temperature [C] !Hourly
843,1,LIVING,Zone Predicted Sensible Load to Heating Setpoint Heat Transfer Rate [W] !Hourly
844,1,LIVING,Zone System Predicted Sensible Load to Heating Setpoint Heat Transfer Rate [W] !Hourly
907,1,ATTIC,Zone Predicted Sensible Load to Heating Setpoint Heat Transfer Rate [W] !Hourly
908,1,ATTIC,Zone System Predicted Sensible Load to Heating Setpoint Heat Transfer Rate [W] !Hourly
971,1,CRAWLSPACE,Zone Predicted Sensible Load to Heating Setpoint Heat Transfer Rate [W] !Hourly
972,1,CRAWLSPACE,Zone System Predicted Sensible Load to Heating Setpoint Heat Transfer Rate [W] !Hourly
1195,1,HEATING_RESISTANCE_BACKUP,Heating Coil Heating Rate [W] !Hourly
1197,1,HEATING_RESISTANCE_BACKUP,Heating Coil Electricity Rate [W] !Hourly
End of Data Dictionary
1,EXTREME_WINTER,  44.88, -93.22,  -6.00, 255.00
2,1, 2, 5, 0, 1, 0.00,60.00,Monday
7,-5.6
718,18.367802978469626
719,-0.7120061170202012
720,18.097564262735386
619,3009.065465367268
633,1040.972551304551
659,47.25632725407002
661,53.23595853614365
690,116.96480501913334
716,0.0
843,2092.039856460673
844,2092.039856460673
907,0.0
908,0.0
971,0.0
972,0.0
1195,0.0
1197,0.0
2,1, 2, 5, 0, 2, 0.00,60.00,Monday
7,-6.7
718,18.4921089036535
719,-0.4041990234893742
720,17.6274641286794
619,3825.728838793566
633,1314.521889486284
659,54.04152091823344
661,13.28953981580061
690,148.79943461703218
716,0.0
843,2634.097425468699
844,2634.097425468699
907,0.0
908,0.0
971,0.0
972,0.0
1195,0.0
1197,0.0
2,1, 2, 5, 0, 3, 0.00,60.00,Monday
7,-6.7
718,18.551472000828145
719,-0.9914817616779232
720,17.432182969502993
619,4181.260087546257
633,1410.8472363362603
659,57.91018200394512
661,0.0
690,161.39994812455055
716,0.0
843,2949.090453914212
844,2949.090453914212
907,0.0
908,0.0
971,0.0
972,0.0
1195,96.45837493557337
1197,96.45837493557337
2,1, 2, 5, 0, 4, 0.00,60.00,Monday
7,-7.8
718,18.589233497859286
719,-1.2394830038217768
720,17.19688011686048
619,4046.877237848063
633,1399.4416841825498
659,57.64811057716221
661,0.0
690,161.39994812455055
716,0.0
843,3242.9829310615914
844,3242.9829310615914
907,0.0
908,0.0
971,0.0
972,0.0
1195,618.9538136224128
1197,618.9538136224128
2,1, 2, 5, 0, 5, 0.00,60.00,Monday
7,-7.8
718,18.603194726009225
719,-1.5168836860196762
720,17.00649117993386
619,4095.275005590705
633,1417.136992794884
659,44.720721161789534
661,0.0
690,161.39994812455055
716,0.0
843,3253.1850979323935
844,3253.1850979323935
907,0.0
908,0.0
971,0.0
972,0.0
1195,607.009941249481
1197,607.009941249481
2,1, 2, 5, 0, 6, 0.00,60.00,Monday
7,-8.3
718,19.348241011422534
719,-1.5278332586622352
720,16.81973809619465
619,4021.849920930295
633,1406.8674668658723
659,48.03710273099413
661,0.0
690,161.39994812455055
716,0.0
843,4338.38114061369
844,4338.38114061369
907,0.0
908,0.0
971,0.0
972,0.0
1195,1979.826492170071
1197,1979.826492170071
2,1, 2, 5, 0, 7, 0.00,60.00,Monday
7,-8.3
718,19.55083413516382
719,-1.3953300716415766
720,16.682179585862194
619,4004.144326966437
633,1426.8542120773059
659,48.03710273099413
661,0.0
690,161.39994812455055
716,85.44000000000005
843,4162.12569530033
844,4162.12569530033
907,0.0
908,0.0
971,0.0
972,0.0
1195,3054.4827228043782
1197,3054.4827228043782
2,1, 2, 5, 0, 8, 0.00,60.00,Monday
7,-9.0
718,19.645502489047775
719,-1.5433804150880135
720,16.520827411175137
619,3938.4886419714335
633,1431.7775600261698
659,41.67540644693768
661,0.0
690,161.39994812455055
716,85.44000000000005
843,4051.6289333135283
844,4051.6289333135283
907,0.0
908,0.0
971,0.0
972,0.0
1195,3081.2635349814122
1197,3081.2635349814122
2,1, 2, 5, 0, 9, 0.00,60.00,Monday
7,-9.0
718,19.700131818902378
719,-0.7555710013087735
720,16.378522888049915
619,3936.3832798094422
633,1434.128598824629
659,41.67540644693768
661,0.0
690,161.39994812455055
716,16.18672411120856
843,3368.9329692666142
844,3368.9329692666142
907,0.0
908,0.0
971,0.0
972,0.0
1195,1245.3034249216475
1197,1245.3034249216475
2,1, 2, 5, 0,10, 0.00,60.00,Monday
7,-8.0
718,19.71416554957754
719,0.39933750425562037
720,16.254327482866525
619,3997.310044764373
633,1427.0924080290445
659,57.42502580207077
661,0.0
690,161.39994812455055
716,0.0
843,3249.305194860228
844,3249.305194860228
907,0.0
908,0.0
971,0.0
972,0.0
1195,783.9137926626581
1197,783.9137926626581
2,1, 2, 5, 0,11, 0.00,60.00,Monday
7,-7.0
718,19.720417876762582
719,1.2666372757954387
720,16.139583041086183
619,4095.8815669096084
633,1431.8533935040064
659,63.283363513396594
661,0.0
690,161.39994812455055
716,0.0
843,3166.5926873982153
844,3166.5926873982153
907,0.0
908,0.0
971,0.0
972,0.0
1195,531.6599668723352
1197,531.6599668723352
2,1, 2, 5, 0,12, 0.00,60.00,Monday
7,-6.0
718,19.72819478610882
719,3.4457114843015546
720,16.036911015489217
619,4045.291968053209
633,1408.122288825861
659,68.28568050683141
661,3.8288368366450998
690,156.06802171205476
716,0.0
843,2737.250252934651
844,2737.250252934651
907,0.0
908,0.0
971,0.0
972,0.0
1195,0.0
1197,0.0
2,1, 2, 5, 0,13, 0.00,60.00,Monday
7,-5.6
718,19.74680231942468
719,4.669618406460089
720,15.93840739506552
619,3760.2037124681206
633,1308.4375244576902
659,58.30361487814956
661,19.233184928687063
690,144.04975469205087
716,0.0
843,2640.5022690185633
844,2640.5022690185633
907,0.0
908,0.0
971,0.0
972,0.0
1195,0.0
1197,0.0
2,1, 2, 5, 0,14, 0.00,60.00,Monday
7,-4.0
718,19.66047300134887
719,5.0975054447236445
720,15.861409116259106
619,4504.080524683182
633,1480.662513215113
659,55.137284216938525
661,0.0
690,161.39994812455055
716,79.50297221897755
843,2514.5440942922396
844,2514.5440942922396
907,0.0
908,0.0
971,0.0
972,0.0
1195,209.79131272843233
1197,209.79131272843233
2,1, 2, 5, 0,15, 0.00,60.00,Monday
7,-4.0
718,19.754067578344603
719,3.304572101581041
720,15.770554396379815
619,3541.4938925498586
633,1200.7185380998671
659,56.530291720852006
661,35.4590405112811
690,131.29522528580108
716,0.0
843,2569.6792445091487
844,2569.6792445091487
907,0.0
908,0.0
971,0.0
972,0.0
1195,0.0
1197,0.0
2,1, 2, 5, 0,16, 0.00,60.00,Monday
7,-3.3
718,19.77463378974631
719,3.7322308764382464
720,15.70057440839091
619,3018.7390641773163
633,1025.6430533373657
659,44.25199066835297
661,61.18999547527177
690,110.95075748332467
716,0.0
843,2142.8793510065207
844,2142.8793510065207
907,0.0
908,0.0
971,0.0
972,0.0
1195,0.0
1197,0.0
2,1, 2, 5, 0,17, 0.00,60.00,Monday
7,-3.3
718,19.744604330361106
719,3.204370976851182
720,15.624284307086235
619,2216.1097815830053
633,768.9885947191768
659,33.13674025470007
661,95.97832956406087
690,83.14499235882138
716,0.0
843,1578.417532509513
844,1578.417532509513
907,0.0
908,0.0
971,0.0
972,0.0
1195,0.0
1197,0.0
2,1, 2, 5, 0,18, 0.00,60.00,Monday
7,-3.3
718,19.846379486754614
719,3.7682222705094133
720,15.56810782786102
619,2207.490559884412
633,765.5326961087932
659,32.979404774055745
661,96.3834278413356
690,82.82205454924107
716,0.0
843,1567.0063152313087
844,1567.0063152313087
907,0.0
908,0.0
971,0.0
972,0.0
1195,0.0
1197,0.0
2,1, 2, 5, 0,19, 0.00,60.00,Monday
7,-3.3
718,19.715232171599364
719,2.611327532125618
720,15.526430330549207
619,3569.3211012174456
633,1198.3356273669233
659,51.53611161022412
661,38.0809094638773
690,129.42342317150613
716,85.44000000000005
843,1458.5295377580042
844,1458.5295377580042
907,0.0
908,0.0
971,0.0
972,0.0
1195,0.0
1197,0.0
2,1, 2, 5, 0,20, 0.00,60.00,Monday
7,-2.8
718,19.697288055758115
719,1.8250425448675482
720,15.464659338171836
619,3752.7542670230673
633,1238.8926768914187
659,55.940605316875875
661,32.37887204527405
690,133.99788307831346
716,85.44000000000005
843,1559.5837748322228
844,1559.5837748322228
907,0.0
908,0.0
971,0.0
972,0.0
1195,0.0
1197,0.0
2,1, 2, 5, 0,21, 0.00,60.00,Monday
7,-3.3
718,19.715562415222376
719,1.504335212741928
720,15.396608887145913
619,3422.127768816391
633,1149.25692811465
659,54.60281762372592
661,43.3495675397874
690,125.0923071461743
716,61.23014622041857
843,1621.9571149037838
844,1621.9571149037838
907,0.0
908,0.0
971,0.0
972,0.0
1195,0.0
1197,0.0
2,1, 2, 5, 0,22, 0.00,60.00,Monday
7,-3.3
718,19.781553473452092
719,0.9853402365733211
720,15.32240755774783
619,2557.865313077362
633,878.5966422905549
659,41.70888197896782
661,80.29710893209885
690,95.58833207648279
716,0.0
843,1760.9575142746944
844,1760.9575142746944
907,0.0
908,0.0
971,0.0
972,0.0
1195,0.0
1197,0.0
2,1, 2, 5, 0,23, 0.00,60.00,Monday
7,-3.0
718,18.87681853377283
719,0.016998032989557026
720,15.241084418521265
619,1457.9163582927715
633,513.5438465742872
659,26.46145816194105
661,129.9215047523237
690,55.93158577307863
716,0.0
843,990.6432520764556
844,990.6432520764556
907,0.0
908,0.0
971,0.0
972,0.0
1195,0.0
1197,0.0
2,1, 2, 5, 0,24, 0.00,60.00,Monday
7,-3.0
718,18.605307156355057
719,0.03233841183531038
720,15.154437097891293
619,2086.5193537256896
633,706.7810785584943
659,37.079201959105404
661,101.80228684388607
690,78.37848272142894
716,0.0
843,1441.718458047384
844,1441.718458047384
907,0.0
908,0.0
971,0.0
972,0.0
1195,0.0
1197,0.0
2,2, 2, 6, 0, 1, 0.00,60.00,Tuesday
7,-2.8
718,18.574165036297263
719,0.40416047938110367
720,15.074257038870273
619,2814.612702694004
633,926.3384521281197
659,54.2990751171177
661,69.8190563514953
690,103.81167076027933
716,0.0
843,1953.2603576023976
844,1953.2603576023976
907,0.0
908,0.0
971,0.0
972,0.0
1195,0.0
1197,0.0
2,2, 2, 6, 0, 2, 0.00,60.00,Tuesday
7,-2.8
718,18.53028817158599
719,0.734886701161128
720,14.99382273553671
619,3468.445342332793
633,1121.7255223871377
659,65.75885243409539
661,42.242303346319844
690,125.8038729887553
716,0.0
843,2415.4931731309734
844,2415.4931731309734
907,0.0
908,0.0
971,0.0
972,0.0
1195,0.0
1197,0.0
2,2, 2, 6, 0, 3, 0.00,60.00,Tuesday
7,-2.0
718,18.560301027827304
719,1.2028856351468495
720,14.917333926964764
619,3920.4462970179775
633,1234.2722112760523
659,73.51754064703778
661,27.1329095115727
690,137.98451266354104
716,0.0
843,2749.2109362515002
844,2749.2109362515002
907,0.0
908,0.0
971,0.0
972,0.0
1195,0.0
1197,0.0
2,2, 2, 6, 0, 4, 0.00,60.00,Tuesday
7,-2.0
718,18.573319574739884
719,1.521983685050396
720,14.839433108348599
619,4255.61538482324
633,1329.7463627290601
659,79.16787899705578
661,13.846861824908817
690,148.58939666071603
716,0.0
843,2998.6500566266022
844,2998.6500566266022
907,0.0
908,0.0
971,0.0
972,0.0
1195,0.0
1197,0.0
2,2, 2, 6, 0, 5, 0.00,60.00,Tuesday
7,-2.2
718,18.60559939063311
719,1.665750713387024
720,14.760239445288528
619,4216.5967750396485
633,1323.2380621582975
659,64.40353289814085
661,17.057126549030556
690,146.28396750878602
716,0.0
843,2985.543360002328
844,2985.543360002328
907,0.0
908,0.0
971,0.0
972,0.0
1195,0.0
1197,0.0
2,2, 2, 6, 0, 6, 0.00,60.00,Tuesday
7,-2.2
718,19.335561958461838
719,1.9950711388437337
720,14.689329607572752
619,4740.988371316739
633,1459.7120442552955
659,61.386703491815915
661,0.0
690,161.39994812455055
716,0.0
843,3970.9555342231233
844,3970.9555342231233
907,0.0
908,0.0
971,0.0
972,0.0
1195,713.7965559216418
1197,713.7965559216418
2,2, 2, 6, 0, 7, 0.00,60.00,Tuesday
7,-2.2
718,19.546946337547272
719,2.2985902399825346
720,14.649997914331427
619,4723.233141774061
633,1480.7237359512128
659,61.386703491815915
661,0.0
690,161.39994812455055
716,85.44000000000005
843,3772.8724260086947
844,3772.8724260086947
907,0.0
908,0.0
971,0.0
972,0.0
1195,1749.132756131683
1197,1749.132756131683
2,2, 2, 6, 0, 8, 0.00,60.00,Tuesday
7,-2.2
718,19.646299056408637
719,2.3542507001961055
720,14.585918090702666
619,4748.741559869085
633,1496.4957444163406
659,54.479363286113674
661,0.0
690,161.39994812455055
716,85.44000000000005
843,3502.9627827351524
844,3502.9627827351524
907,0.0
908,0.0
971,0.0
972,0.0
1195,1509.680827538812
1197,1509.680827538812
2,2, 2, 6, 0, 9, 0.00,60.00,Tuesday
7,-2.0
718,19.677348384931882
719,3.261232281102227
720,14.528999346577312
619,4777.982047219027
633,1503.4697631090473
659,53.34422237522223
661,0.0
690,161.39994812455055
716,85.44000000000005
843,2792.0629185758808
844,2792.0629185758808
907,0.0
908,0.0
971,0.0
972,0.0
1195,648.3231813758953
1197,648.3231813758953
2,2, 2, 6, 0,10, 0.00,60.00,Tuesday
7,-1.7
718,19.735845882836212
719,3.486628251723402
720,14.466583845635919
619,4255.535599473053
633,1357.2160835554903
659,35.915276584723024
661,22.181102143853735
690,142.8089118553458
716,18.78913433766381
843,2802.629664758697
844,2802.629664758697
907,0.0
908,0.0
971,0.0
972,0.0
1195,0.0
1197,0.0
2,2, 2, 6, 0,11, 0.00,60.00,Tuesday
7,-1.7
718,19.741807284420112
719,3.6615510822775583
720,14.41907685522083
619,4014.511008387106
633,1288.77906568254
659,21.24221083380352
661,33.61951881394862
690,133.86504916205624
716,0.0
843,2867.3297949209536
844,2867.3297949209536
907,0.0
908,0.0
971,0.0
972,0.0
1195,0.0
1197,0.0
2,2, 2, 6, 0,12, 0.00,60.00,Tuesday
7,-1.7
718,19.742190100880602
719,4.363289168994715
720,14.369967046619466
619,3711.3349912631165
633,1199.9105060985762
659,19.769340206530345
661,45.11102314345694
690,124.61940821337355
716,0.0
843,2658.6051939034587
844,2658.6051939034587
907,0.0
908,0.0
971,0.0
972,0.0
1195,0.0
1197,0.0
2,2, 2, 6, 0,13, 0.00,60.00,Tuesday
7,-1.7
718,19.737991048968066
719,4.82996206719485
720,14.3259172440819
619,3489.1073699603694
633,1133.8327059832757
659,18.680837914322915
661,53.639229172827555
690,117.75784921026238
716,0.0
843,2522.19656821671
844,2522.19656821671
907,0.0
908,0.0
971,0.0
972,0.0
1195,0.0
1197,0.0
2,2, 2, 6, 0,14, 0.00,60.00,Tuesday
7,-2.2
718,19.69708780803489
719,4.0794517774704095
720,14.29157415119845
619,3599.8311740799445
633,1177.4130423487097
659,29.455079863669297
661,45.56567208543383
690,124.02280992782731
716,0.0
843,2606.959268722061
844,2606.959268722061
907,0.0
908,0.0
971,0.0
972,0.0
1195,0.0
1197,0.0
2,2, 2, 6, 0,15, 0.00,60.00,Tuesday
7,-2.8
718,19.688847772084216
719,3.8730571235211158
720,14.262355452805735
619,3913.6668159807023
633,1283.0283180238723
659,37.88057844627579
661,29.706213697675498
690,136.58084567958312
716,0.0
843,2788.0104713420224
844,2788.0104713420224
907,0.0
908,0.0
971,0.0
972,0.0
1195,0.0
1197,0.0
2,2, 2, 6, 0,16, 0.00,60.00,Tuesday
7,-3.3
718,19.692859934475308
719,2.61623830580646
720,14.231990961404735
619,4176.291198468801
633,1371.9620458754334
659,36.41170468081448
661,17.84702197108703
690,146.13470834882423
716,0.0
843,2966.776126488181
844,2966.776126488181
907,0.0
908,0.0
971,0.0
972,0.0
1195,0.0
1197,0.0
2,2, 2, 6, 0,17, 0.00,60.00,Tuesday
7,-3.3
718,19.71143859740498
719,2.2059222020223874
720,14.196820179598754
619,4200.268426392595
633,1378.735212873364
659,30.505563077407828
661,18.03852782364754
690,146.12365913746802
716,0.0
843,2933.063162680979
844,2933.063162680979
907,0.0
908,0.0
971,0.0
972,0.0
1195,0.0
1197,0.0
2,2, 2, 6, 0,18, 0.00,60.00,Tuesday
7,-3.0
718,19.760865619836913
719,2.698747828904318
720,14.164270166146567
619,4145.374405636482
633,1356.0631017605822
659,31.206495358087064
661,21.323381677295593
690,143.48230257165972
716,67.38208411836985
843,2102.7330948029867
844,2102.7330948029867
907,0.0
908,0.0
971,0.0
972,0.0
1195,0.0
1197,0.0
2,2, 2, 6, 0,19, 0.00,60.00,Tuesday
7,-3.3
718,19.799557622148036
719,1.2056693373625254
720,14.088356011862329
619,2814.8103249692363
633,957.3207884435665
659,21.143141084087965
661,73.84794475995547
690,101.30600124891808
716,0.0
843,1963.8143327056787
844,1963.8143327056787
907,0.0
908,0.0
971,0.0
972,0.0
1195,0.0
1197,0.0
2,2, 2, 6, 0,20, 0.00,60.00,Tuesday
7,-3.3
718,19.68336057909613
719,1.3188489093781461
720,14.087442076097089
619,4269.695806269505
633,1403.0254502135344
659,37.10640820252286
661,14.107104023330773
690,149.13591821697446
716,85.44000000000005
843,1795.5860657494777
844,1795.5860657494777
907,0.0
908,0.0
971,0.0
972,0.0
1195,0.0
1197,0.0
2,2, 2, 6, 0,21, 0.00,60.00,Tuesday
7,-3.9
718,19.67230945179753
719,1.0088725469641613
720,14.030167615432234
619,4541.876497959544
633,1493.9706362694797
659,37.15138277978574
661,1.0589963875144326
690,159.6012987064056
716,85.44000000000005
843,1988.511126606565
844,1988.511126606565
907,0.0
908,0.0
971,0.0
972,0.0
1195,0.0
1197,0.0
2,2, 2, 6, 0,22, 0.00,60.00,Tuesday
7,-5.0
718,19.660703859425126
719,0.6987804321368964
720,13.975215005486007
619,4388.959521062174
633,1466.089167523506
659,53.07847602175676
661,0.0
690,161.39994812455055
716,69.12510114429861
843,2331.111040916576
844,2331.111040916576
907,0.0
908,0.0
971,0.0
972,0.0
1195,204.2569783025442
1197,204.2569783025442
2,2, 2, 6, 0,23, 0.00,60.00,Tuesday
7,-4.4
718,18.975021973887007
719,-0.3941401269241286
720,13.876230185781285
619,2436.125497006123
633,853.6792444826923
659,32.75091391406214
661,83.7807381990737
690,92.89440211228231
716,0.0
843,1621.644368493031
844,1621.644368493031
907,0.0
908,0.0
971,0.0
972,0.0
1195,0.0
1197,0.0
2,2, 2, 6, 0,24, 0.00,60.00,Tuesday
7,-4.0
718,18.707270057841072
719,-0.3027248475923692
720,13.811961797449698
619,2826.0463070620112
633,956.2233280305971
659,36.215481444105386
661,68.63523672433702
690,105.07109690583232
716,0.0
843,1908.1017345667042
844,1908.1017345667042
907,0.0
908,0.0
971,0.0
972,0.0
1195,0.0
1197,0.0
2,3, 2, 7, 0, 1, 0.00,60.00,Wednesday
7,-5.0
718,18.540603785712563
719,-0.1641707986447309
720,13.748259889147842
619,3723.696067217171
633,1247.1899060199926
659,57.45634704211195
661,24.568666159674592
690,139.8925089274304
716,0.0
843,2505.489788267352
844,2505.489788267352
907,0.0
908,0.0
971,0.0
972,0.0
1195,0.0
1197,0.0
2,3, 2, 7, 0, 2, 0.00,60.00,Wednesday
7,-5.0
718,18.531987189850412
719,-0.15725937826973027
720,13.681563143121895
619,4430.290210047919
633,1438.0111237833141
659,49.80781137748246
661,0.0
690,161.39994812455055
716,0.0
843,3035.5395278294327
844,3035.5395278294327
907,0.0
908,0.0
971,0.0
972,0.0
1195,39.41097678982351
1197,39.41097678982351
2,3, 2, 7, 0, 3, 0.00,60.00,Wednesday
7,-6.1
718,18.582665248946707
719,-0.4500322543745879
720,13.60263526512663
619,4381.618250140215
633,1454.385253494826
659,27.25140740800252
661,0.0
690,161.39994812455055
716,0.0
843,3496.801574265084
844,3496.801574265084
907,0.0
908,0.0
971,0.0
972,0.0
1195,637.0417921114749
1197,637.0417921114749
2,3, 2, 7, 0, 4, 0.00,60.00,Wednesday
7,-6.0
718,18.59893853034083
719,-0.916763912068907
720,13.534991427687086
619,4412.131839303508
633,1463.1653286900757
659,22.5454558743999
661,0.0
690,161.39994812455055
716,0.0
843,3901.8011255219917
844,3901.8011255219917
907,0.0
908,0.0
971,0.0
972,0.0
1195,1114.5376049856582
1197,1114.5376049856582
2,3, 2, 7, 0, 5, 0.00,60.00,Wednesday
7,-8.0
718,18.602859089792915
719,-2.6008956952236577
720,13.443849329154924
619,4106.971007300645
633,1421.0528346362485
659,36.25279138556862
661,0.0
690,161.39994812455055
716,0.0
843,4216.320097374382
844,4216.320097374382
907,0.0
908,0.0
971,0.0
972,0.0
1195,1818.170134895971
1197,1818.170134895971
2,3, 2, 7, 0, 6, 0.00,60.00,Wednesday
7,-8.0
718,19.24732038362
719,-2.137662115998547
720,13.374120176525006
619,4145.3460351435815
633,1434.3118091397773
659,26.0893124861401
661,0.0
690,161.39994812455055
716,74.8823754649998
843,5341.890879431101
844,5341.890879431101
907,0.0
908,0.0
971,0.0
972,0.0
1195,4162.406087548753
1197,4162.406087548753
2,3, 2, 7, 0, 7, 0.00,60.00,Wednesday
7,-9.4
718,19.52146459761412
719,-2.9621845504311386
720,13.315538396146327
619,3955.0782826957657
633,1433.186562937018
659,26.962142408840535
661,0.0
690,161.39994812455055
716,85.44000000000005
843,5413.043189479635
844,5413.043189479635
907,0.0
908,0.0
971,0.0
972,0.0
1195,4754.490379258754
1197,4754.490379258754
2,3, 2, 7, 0, 8, 0.00,60.00,Wednesday
7,-13.0
718,19.62377717774918
719,-6.100649154371575
720,13.209067730356933
619,3572.6558045679817
633,1410.9630545205882
659,12.7296542927086
661,0.0
690,161.39994812455055
716,80.61291628839942
843,6195.4444148193525
844,6195.4444148193525
907,0.0
908,0.0
971,0.0
972,0.0
1195,6104.39014287218
1197,6104.39014287218
2,3, 2, 7, 0, 9, 0.00,60.00,Wednesday
7,-13.0
718,19.690397461722934
719,-5.508983119397626
720,13.145067657976204
619,3570.2581918583487
633,1413.4728280033492
659,12.7296542927086
661,0.0
690,161.39994812455055
716,0.0
843,5282.620250161441
844,5282.620250161441
907,0.0
908,0.0
971,0.0
972,0.0
1195,4005.1193702356372
1197,4005.1193702356372
2,3, 2, 7, 0,10, 0.00,60.00,Wednesday
7,-13.0
718,19.714743974303378
719,-5.4495671006323185
720,13.059722954751695
619,3587.337989086642
633,1422.427013160077
659,6.938470035957917
661,0.0
690,161.39994812455055
716,0.0
843,4572.599255197059
844,4572.599255197059
907,0.0
908,0.0
971,0.0
972,0.0
1195,3135.900784384818
1197,3135.900784384818
2,3, 2, 7, 0,11, 0.00,60.00,Wednesday
7,-12.8
718,19.72387389788139
719,-2.9080453995292297
720,12.999279731610649
619,3609.2990320739113
633,1425.5213072421784
659,7.134772106699914
661,0.0
690,161.39994812455055
716,0.0
843,3009.4250538509023
844,3009.4250538509023
907,0.0
908,0.0
971,0.0
972,0.0
1195,1242.7174226984644
1197,1242.7174226984644
2,3, 2, 7, 0,12, 0.00,60.00,Wednesday
7,-12.2
718,19.723387490820976
719,-1.1809020818612825
720,12.950424909622383
619,3686.5389634770254
633,1436.8845231664375
659,4.8588422626138135
661,0.0
690,161.39994812455055
716,0.0
843,3113.47079315448
844,3113.47079315448
907,0.0
908,0.0
971,0.0
972,0.0
1195,1161.4572857455364
1197,1161.4572857455364
2,3, 2, 7, 0,13, 0.00,60.00,Wednesday
7,-12.2
718,19.72286909026188
719,0.09540165103081764
720,12.926242775026097
619,3686.6150666158956
633,1436.8037410424622
659,4.8588422626138135
661,0.0
690,161.39994812455055
716,0.0
843,2765.151014727522
844,2765.151014727522
907,0.0
908,0.0
971,0.0
972,0.0
1195,650.536590595983
1197,650.536590595983
2,3, 2, 7, 0,14, 0.00,60.00,Wednesday
7,-12.8
718,19.734604571884873
719,0.5922174950081722
720,12.913636395749311
619,3500.6981345009694
633,1388.6013780963037
659,1.1991638377979006
661,6.207729085660851
690,156.3204462114278
716,0.0
843,2143.0613287649794
844,2143.0613287649794
907,0.0
908,0.0
971,0.0
972,0.0
1195,0.0
1197,0.0
2,3, 2, 7, 0,15, 0.00,60.00,Wednesday
7,-12.8
718,19.70163728072847
719,0.03160072242983605
720,12.9279820540266
619,3631.8158385054376
633,1434.8219367166862
659,0.0777495002139653
661,0.0
690,161.39994812455055
716,76.13261389164971
843,1830.9865511610606
844,1830.9865511610606
907,0.0
908,0.0
971,0.0
972,0.0
1195,483.4717198528747
1197,483.4717198528747
2,3, 2, 7, 0,16, 0.00,60.00,Wednesday
7,-13.3
718,19.710157101175998
719,-1.2848141671014772
720,12.938312137896956
619,3574.642033885673
633,1426.9118753517384
659,0.0777495002139653
661,0.0
690,161.39994812455055
716,85.44000000000005
843,2064.7549645418876
844,2064.7549645418876
907,0.0
908,0.0
971,0.0
972,0.0
1195,999.0151767130551
1197,999.0151767130551
2,3, 2, 7, 0,17, 0.00,60.00,Wednesday
7,-14.4
718,19.716940479904967
719,-3.4909582520097975
720,12.954925104407216
619,3448.7468811459976
633,1411.337650349431
659,0.0777495002139653
661,0.0
690,161.39994812455055
716,12.581346242182269
843,2433.4977459024794
844,2433.4977459024794
907,0.0
908,0.0
971,0.0
972,0.0
1195,676.6838847616543
1197,676.6838847616543
2,3, 2, 7, 0,18, 0.00,60.00,Wednesday
7,-15.6
718,19.71087589695128
719,-6.8788670738655036
720,12.962593967801903
619,3314.430105323284
633,1393.8221694733234
659,0.0777495002139653
661,0.0
690,161.39994812455055
716,0.0
843,3579.420408675118
844,3579.420408675118
907,0.0
908,0.0
971,0.0
972,0.0
1195,2116.9551658540877
1197,2116.9551658540877
2,3, 2, 7, 0,19, 0.00,60.00,Wednesday
7,-15.6
718,19.709898687401523
719,-8.420302906112992
720,12.957329279497145
619,3314.5651780227677
633,1393.688656498567
659,0.0777495002139653
661,0.0
690,161.39994812455055
716,0.0
843,3730.7316798815655
844,3730.7316798815655
907,0.0
908,0.0
971,0.0
972,0.0
1195,2494.062446835871
1197,2494.062446835871
2,3, 2, 7, 0,20, 0.00,60.00,Wednesday
7,-16.1
718,19.695537919578136
719,-8.675746819957956
720,12.907153350422165
619,3259.6736378678884
633,1386.0821321897383
659,0.0777495002139653
661,0.0
690,161.39994812455055
716,85.44000000000005
843,5047.434130334621
844,5047.434130334621
907,0.0
908,0.0
971,0.0
972,0.0
1195,5438.443510091119
1197,5438.443510091119
2,3, 2, 7, 0,21, 0.00,60.00,Wednesday
7,-16.7
718,19.691681383940217
719,-9.15325341843683
720,12.842267056439608
619,3194.7974754605125
633,1376.5610746742523
659,0.0777495002139653
661,0.0
690,161.39994812455055
716,85.44000000000005
843,5221.815321450204
844,5221.815321450204
907,0.0
908,0.0
971,0.0
972,0.0
1195,5733.276699652002
1197,5733.276699652002
2,3, 2, 7, 0,22, 0.00,60.00,Wednesday
7,-17.2
718,19.703010577259814
719,-9.148986272836094
720,12.760306836238135
619,3141.1279340191018
633,1368.7180967652396
659,0.0777495002139653
661,0.0
690,161.39994812455055
716,46.70853147710659
843,5002.5525298226385
844,5002.5525298226385
907,0.0
908,0.0
971,0.0
972,0.0
1195,4897.57228882287
1197,4897.57228882287
2,3, 2, 7, 0,23, 0.00,60.00,Wednesday
7,-17.8
718,18.96879560013012
719,-9.70075754394932
720,12.657821910185367
619,3077.107917711782
633,1359.4862048224861
659,0.0777495002139653
661,0.0
690,161.39994812455055
716,0.0
843,4316.185414680451
844,4316.185414680451
907,0.0
908,0.0
971,0.0
972,0.0
1195,3561.1968416865748
1197,3561.1968416865748
2,3, 2, 7, 0,24, 0.00,60.00,Wednesday
7,-17.2
718,18.72075754113041
719,-9.580135995234471
720,12.519681855945334
619,3158.5921990312913
633,1352.0443509225365
659,0.0777495002139653
661,0.0
690,161.39994812455055
716,0.0
843,4827.615516265832
844,4827.615516265832
907,0.0
908,0.0
971,0.0
972,0.0
1195,4044.097774675252
1197,4044.097774675252
2,4, 2, 8, 0, 1, 0.00,60.00,Thursday
7,-17.2
718,18.638977186935925
719,-9.473283719955775
720,12.397103463121868
619,3164.6333246718914
633,1346.2362725275898
659,0.0777495002139653
661,0.0
690,161.39994812455055
716,0.0
843,5438.706586440967
844,5438.706586440967
907,0.0
908,0.0
971,0.0
972,0.0
1195,4757.249022519052
1197,4757.249022519052
2,4, 2, 8, 0, 2, 0.00,60.00,Thursday
7,-18.9
718,18.608944377870053
719,-11.132390554357745
720,12.259046843767544
619,2985.4510865442408
633,1317.64219995896
659,0.878246574880468
661,0.0
690,161.39994812455055
716,0.0
843,5704.006714650546
844,5704.006714650546
907,0.0
908,0.0
971,0.0
972,0.0
1195,5217.352695381752
1197,5217.352695381752
2,4, 2, 8, 0, 3, 0.00,60.00,Thursday
7,-19.4
718,18.59981658665379
719,-11.833851496847355
720,12.131700068415885
619,2936.9558468521163
633,1310.020686062725
659,0.0777495002139653
661,0.0
690,161.39994812455055
716,0.0
843,6327.888825790809
844,6327.888825790809
907,0.0
908,0.0
971,0.0
972,0.0
1195,6131.525693324302
1197,6131.525693324302
2,4, 2, 8, 0, 4, 0.00,60.00,Thursday
7,-21.1
718,18.591081560463294
719,-12.659665226004456
720,11.990365137398664
619,2766.2363695830686
633,1282.5987536284415
659,0.0777495002139653
661,0.0
690,161.39994812455055
716,0.0
843,7038.582182997217
844,7038.582182997217
907,0.0
908,0.0
971,0.0
972,0.0
1195,7175.097623709724
1197,7175.097623709724
2,4, 2, 8, 0, 5, 0.00,60.00,Thursday
7,-21.7
718,18.598107228092427
719,-13.608660829934792
720,11.86039483037048
619,2707.7037874542
633,1272.4428963839043
659,0.0777495002139653
661,0.0
690,161.39994812455055
716,0.0
843,7004.122230482084
844,7004.122230482084
907,0.0
908,0.0
971,0.0
972,0.0
1195,7267.8103976757475
1197,7267.8103976757475
2,4, 2, 8, 0, 6, 0.00,60.00,Thursday
7,-22.2
718,18.975847937270842
719,-14.053384421265484
720,11.72712928614132
619,2658.7305810020057
633,1263.9202538843256
659,0.2747241800610875
661,0.0
690,161.39994812455055
716,0.0
843,8037.469344268531
844,8037.469344268531
907,0.0
908,0.0
971,0.0
972,0.0
1195,7787.285711602377
1197,7787.285711602377
2,4, 2, 8, 0, 7, 0.00,60.00,Thursday
7,-22.2
718,18.61900374743423
719,-14.323119748949752
720,11.613102827753165
619,2650.234574957952
633,1270.9546918671083
659,0.2747241800610875
661,0.0
690,161.39994812455055
716,85.44000000000005
843,7922.810263462488
844,7922.810263462488
907,0.0
908,0.0
971,0.0
972,0.0
1195,7787.285711602377
1197,7787.285711602377
2,4, 2, 8, 0, 8, 0.00,60.00,Thursday
7,-22.8
718,18.39168444971536
719,-14.522790698745816
720,11.45830461746735
619,2598.082400801622
633,1252.512065485422
659,1.5687472113465344
661,0.0
690,161.39994812455055
716,85.44000000000005
843,7973.166447527805
844,7973.166447527805
907,0.0
908,0.0
971,0.0
972,0.0
1195,7787.285711602377
1197,7787.285711602377
2,4, 2, 8, 0, 9, 0.00,60.00,Thursday
7,-21.1
718,18.97361077549827
719,-12.686406679625502
720,11.341276209293122
619,2770.145989106071
633,1277.0071106059513
659,0.7539414698539206
661,0.0
690,161.39994812455055
716,85.44000000000005
843,6920.285981589908
844,6920.285981589908
907,0.0
908,0.0
971,0.0
972,0.0
1195,7787.285711602377
1197,7787.285711602377
2,4, 2, 8, 0,10, 0.00,60.00,Thursday
7,-18.9
718,19.451284973436195
719,-8.990259591249092
720,11.270821226532474
619,2981.0533454903752
633,1324.5809128268363
659,0.0777495002139653
661,0.0
690,161.39994812455055
716,38.77022349335054
843,5547.422845319212
844,5547.422845319212
907,0.0
908,0.0
971,0.0
972,0.0
1195,5712.142237222409
1197,5712.142237222409