Program Version,EnergyPlus, Version 22.2.0-c249759bad, YMD=2023.09.01 20:31
1,5,Environment Title[],Latitude[deg],Longitude[deg],Time Zone[],Elevation[m]
2,8,Day of Simulation[],Month[],Day of Month[],DST Indicator[1=yes 0=no],Hour[],StartMinute[],EndMinute[],DayType
3,5,Cumulative Day of Simulation[],Month[],Day of Month[],DST Indicator[1=yes 0=no],DayType  ! When Daily Report Variables Requested
4,2,Cumulative Days of Simulation[],Month[]  ! When Monthly Report Variables Requested
5,1,Cumulative Days of Simulation[] ! When Run Period Report Variables Requested
6,1,Calendar Year of Simulation[] ! When Annual Report Variables Requested
581,11,LIVING,AFN Zone Infiltration Air Change Rate [ach] !RunPeriod [Value,Min,Month,Day,Hour,Minute,Max,Month,Day,Hour,Minute]
582,11,ATTIC,AFN Zone Infiltration Air Change Rate [ach] !RunPeriod [Value,Min,Month,Day,Hour,Minute,Max,Month,Day,Hour,Minute]
583,11,CRAWLSPACE,AFN Zone Infiltration Air Change Rate [ach] !RunPeriod [Value,Min,Month,Day,Hour,Minute,Max,Month,Day,Hour,Minute]
1038,11,Facility,Facility Heating Setpoint Not Met Time [hr] !RunPeriod [Value,Min,Month,Day,Hour,Minute,Max,Month,Day,Hour,Minute]
1039,11,Facility,Facility Cooling Setpoint Not Met Time [hr] !RunPeriod [Value,Min,Month,Day,Hour,Minute,Max,Month,Day,Hour,Minute]
1115,11,DX_HEATING_COIL,Heating Coil Heating Energy [J] !RunPeriod [Value,Min,Month,Day,Hour,Minute,Max,Month,Day,Hour,Minute]
1128,11,DX_HEATING_COIL,Heating Coil Electricity Energy [J] !RunPeriod [Value,Min,Month,Day,Hour,Minute,Max,Month,Day,Hour,Minute]
1153,11,DX_HEATING_COIL,Heating Coil Defrost Electricity Energy [J] !RunPeriod [Value,Min,Month,Day,Hour,Minute,Max,Month,Day,Hour,Minute]
1154,11,DX_HEATING_COIL,Heating Coil Crankcase Heater Electricity Energy [J] !RunPeriod [Value,Min,Month,Day,Hour,Minute,Max,Month,Day,Hour,Minute]
1155,11,HEATING_RESISTANCE_BACKUP,Heating Coil Heating Energy [J] !RunPeriod [Value,Min,Month,Day,Hour,Minute,Max,Month,Day,Hour,Minute]
1156,11,HEATING_RESISTANCE_BACKUP,Heating Coil Electricity Energy [J] !RunPeriod [Value,Min,Month,Day,Hour,Minute,Max,Month,Day,Hour,Minute]
1292,11,WATER HEATER,Water Heater Heat Loss Energy [J] !RunPeriod [Value,Min,Month,Day,Hour,Minute,Max,Month,Day,Hour,Minute]
1306,11,WATER HEATER,Water Heater Heating Energy [J] !RunPeriod [Value,Min,Month,Day,Hour,Minute,Max,Month,Day,Hour,Minute]
1307,11,WATER HEATER,Water Heater Unmet Demand Heat Transfer Energy [J] !RunPeriod [Value,Min,Month,Day,Hour,Minute,Max,Month,Day,Hour,Minute]
1308,11,WATER HEATER,Water Heater Electricity Energy [J] !RunPeriod [Value,Min,Month,Day,Hour,Minute,Max,Month,Day,Hour,Minute]
13,11,Electricity:Facility [J] !RunPeriod [Value,Min,Month,Day,Hour,Minute,Max,Month,Day,Hour,Minute]
1134,11,Heating:Electricity [J] !RunPeriod [Value,Min,Month,Day,Hour,Minute,Max,Month,Day,Hour,Minute]
1096,11,Cooling:Electricity [J] !RunPeriod [Value,Min,Month,Day,Hour,Minute,Max,Month,Day,Hour,Minute]
562,11,Fans:Electricity [J] !RunPeriod [Value,Min,Month,Day,Hour,Minute,Max,Month,Day,Hour,Minute]
1379,11,Pumps:Electricity [J] !RunPeriod [Value,Min,Month,Day,Hour,Minute,Max,Month,Day,Hour,Minute]
1326,11,WaterSystems:Electricity [J] !RunPeriod [Value,Min,Month,Day,Hour,Minute,Max,Month,Day,Hour,Minute]
61,11,InteriorLights:Electricity [J] !RunPeriod [Value,Min,Month,Day,Hour,Minute,Max,Month,Day,Hour,Minute]
1046,11,ExteriorLights:Electricity [J] !RunPeriod [Value,Min,Month,Day,Hour,Minute,Max,Month,Day,Hour,Minute]
134,11,InteriorEquipment:Electricity [J] !RunPeriod [Value,Min,Month,Day,Hour,Minute,Max,Month,Day,Hour,Minute]
170,11,gas_dryer:InteriorEquipment:Electricity [J] !RunPeriod [Value,Min,Month,Day,Hour,Minute,Max,Month,Day,Hour,Minute]
207,11,clotheswasher:InteriorEquipment:Electricity [J] !RunPeriod [Value,Min,Month,Day,Hour,Minute,Max,Month,Day,Hour,Minute]
244,11,dishwasher:InteriorEquipment:Electricity [J] !RunPeriod [Value,Min,Month,Day,Hour,Minute,Max,Month,Day,Hour,Minute]
281,11,refrigerator:InteriorEquipment:Electricity [J] !RunPeriod [Value,Min,Month,Day,Hour,Minute,Max,Month,Day,Hour,Minute]
318,11,electric_mels:InteriorEquipment:Electricity [J] !RunPeriod [Value,Min,Month,Day,Hour,Minute,Max,Month,Day,Hour,Minute]
355,11,NaturalGas:Facility [J] !RunPeriod [Value,Min,Month,Day,Hour,Minute,Max,Month,Day,Hour,Minute]
403,11,InteriorEquipment:NaturalGas [J] !RunPeriod [Value,Min,Month,Day,Hour,Minute,Max,Month,Day,Hour,Minute]
476,11,gas_dryer:InteriorEquipment:NaturalGas [J] !RunPeriod [Value,Min,Month,Day,Hour,Minute,Max,Month,Day,Hour,Minute]
513,11,gas_mels:InteriorEquipment:NaturalGas [J] !RunPeriod [Value,Min,Month,Day,Hour,Minute,Max,Month,Day,Hour,Minute]
End of Data Dictionary
1,EXTREME_WINTER,  33.43,-112.02,  -7.00, 337.40
5,7
1038,0.0,0.0,12,15, 1,15,0.0,12,15, 1,15
1039,3.5,0.0,12,15, 1,15,0.25,12,19,14,60
581,0.20817496101355823,0.11588188109002197,12,19,21,60,0.5644321928509438,12,20, 3,52
582,3.495145779912088,0.0,12,16,21,60,21.45796825904617,12,20, 3,52
583,0.0079592034538007,0.00019027667074821017,12,16,14,50,0.0990453033832515,12,19,18, 3
1115,31822592.063488606,0.0,12,15, 1,15,1575066.369560523,12,21, 6, 3
1128,8794980.116328754,0.0,12,15, 1,15,397828.064017862,12,21, 6, 3
1153,8.05873589838017,0.0,12,15, 1,15,8.05873589838017,12,21, 8,60
1154,35509613.458767176,0.0,12,15, 1,15,180000.0,12,17, 1,60
1155,0.0,0.0,12,15, 1,15,0.0,12,15, 1,15
1156,0.0,0.0,12,15, 1,15,0.0,12,15, 1,15
1292,-23432516.81902169,-38445.87333609686,12,18, 7,30,-3654.209544377257,12,20,13,41
1306,174238115.41896656,0.0,12,15, 1,15,4050000.0,12,16,20,30
1307,17042416.71531005,0.0,12,15, 1,15,4122850.105917929,12,21,19,60
1308,174238115.41896656,0.0,12,15, 1,15,4050000.0,12,16,20,30
13,650038679.4914845,151703.1275401932,12,15, 4,15,5675362.904174331,12,21,20,15
61,301924526.02383536,88139.10953165221,12,15, 1,15,1282023.4113694867,12,15,20,15
134,70666020.44019976,63564.01800854099,12,15, 4,15,156554.22484006523,12,20,20,15
170,5241013.419656067,348.4159749238097,12,15, 4,15,17476.39704006126,12,20,12,15
207,6509451.13922267,815.2532113832032,12,15, 3,15,22990.642799023623,12,20,10,15
244,12749673.399825225,1521.856143006317,12,15, 4,15,53038.631142310165,12,20,20,15
281,46165882.481495745,59938.60262432081,12,15, 5,15,81951.81706819107,12,15,19,15
318,0.0,0.0,12,15, 1,15,0.0,12,15, 1,15
355,197687796.27748066,18561.32405820678,12,15, 4,15,724774.895203776,12,20,18,15
403,197687796.27748066,18561.32405820678,12,15, 4,15,724774.895203776,12,20,18,15
476,106772067.24485716,7098.072629279515,12,15, 4,15,356036.3026282215,12,20,12,15
513,0.0,0.0,12,15, 1,15,0.0,12,15, 1,15
562,7916453.414826041,0.0,12,15, 1,15,72135.01972323762,12,18,17,15
1046,0.0,0.0,12,15, 1,15,0.0,12,15, 1,15
1096,50988962.55982515,0.0,12,15, 1,15,528257.4694579118,12,18,17,15
1134,44304601.63383184,0.0,12,15, 1,15,541757.4452472131,12,21, 6,15
1326,174238115.41896662,0.0,12,15, 1,15,4050000.0,12,16,20,30
1379,0.0,0.0,12,15, 1,15,0.0,12,15, 1,15
1,EXTREME_SUMMER,  33.43,-112.02,  -7.00, 337.40
5,7
1038,0.0,0.0, 7,13, 1,15,0.0, 7,13, 1,15
1039,66.75,0.0, 7,13, 1,15,0.25, 7,13,14,60
581,0.11254883875129491,0.0, 7,13, 6,60,0.6308504246984703, 7,16,19,52
582,4.13338314489104,0.3326351812780258, 7,14,19,60,14.927895487765127, 7,16,19,48
583,0.0746795715210923,0.0013584614754688583, 7,13,23, 5,0.1022482912195386, 7,16,19,48
1115,0.0,0.0, 7,13, 1,15,0.0, 7,13, 1,15
1128,0.0,0.0, 7,13, 1,15,0.0, 7,13, 1,15
1153,0.0,0.0, 7,13, 1,15,0.0, 7,13, 1,15
1154,0.0,0.0, 7,13, 1,15,0.0, 7,13, 1,15
1155,0.0,0.0, 7,13, 1,15,0.0, 7,13, 1,15
1156,0.0,0.0, 7,13, 1,15,0.0, 7,13, 1,15
1292,-21435482.496228553,-34341.76998662649, 7,17, 7,15,-3664.293978374693, 7,14,16,60
1306,101073207.88604386,0.0, 7,13, 1,15,4030901.234883874, 7,17, 6,60
1307,2209428.337853371,0.0, 7,13, 1,15,841424.0729883228, 7,19,19,55
1308,101073207.88604386,0.0, 7,13, 1,15,4030901.234883874, 7,17, 6,60
13,1689629997.8382094,741127.3155117799, 7,13, 4,60,6902035.72890791, 7,19,19,60
61,301924526.02383536,88139.10953165221, 7,13, 1,15,1282023.4113694867, 7,13,20,15
134,70666020.44019976,63564.01800854099, 7,13, 4,15,156554.22484006523, 7,18,20,15
170,5241013.419656067,348.4159749238097, 7,13, 4,15,17476.39704006126, 7,18,12,15
207,6509451.13922267,815.2532113832032, 7,13, 3,15,22990.642799023623, 7,18,10,15
244,12749673.399825225,1521.856143006317, 7,13, 4,15,53038.631142310165, 7,18,20,15
281,46165882.481495745,59938.60262432081, 7,13, 5,15,81951.81706819107, 7,13,19,15
318,0.0,0.0, 7,13, 1,15,0.0, 7,13, 1,15
355,197687796.27748066,18561.32405820678, 7,13, 4,15,724774.895203776, 7,18,18,15
403,197687796.27748066,18561.32405820678, 7,13, 4,15,724774.895203776, 7,18,18,15
476,106772067.24485716,7098.072629279515, 7,13, 4,15,356036.3026282215, 7,18,12,15
513,0.0,0.0, 7,13, 1,15,0.0, 7,13, 1,15
562,93838169.54350811,46906.085279170526, 7,13, 5,60,179379.88492670853, 7,13,14,15
1046,0.0,0.0, 7,13, 1,15,0.0, 7,13, 1,15
1096,1122128073.9446213,491780.4367696274, 7,13, 5,60,2388023.6376953796, 7,15,18,60
1134,0.0,0.0, 7,13, 1,15,0.0, 7,13, 1,15
1326,101073207.8860439,0.0, 7,13, 1,15,4030901.234883874, 7,17, 6,60
1379,0.0,0.0, 7,13, 1,15,0.0, 7,13, 1,15
1,ANNUAL,  33.43,-112.02,  -7.00, 337.40
5,365
1038,0.0,0.0, 1, 1, 1,15,0.0, 1, 1, 1,15
1039,1082.25,0.0, 1, 1, 1,15,0.25, 1, 3,12,30
581,0.1534397840202999,0.0, 3,12,23, 3,1.1995217530467235, 1,21,19,60
582,3.519959956779598,0.0, 1, 1, 1,37,26.912818817733093, 2,14,20,48
583,0.044039036191152195,0.0, 4,19,23, 3,0.11772810032066777, 8,17,19,32
1115,78052019.30848733,0.0, 1, 1, 1,15,1551366.2970975207,12,29, 6, 5
1128,22467168.949636023,0.0, 1, 1, 1,15,442563.04537598597,12,29, 6, 5
1153,420683.49731872376,0.0, 1, 1, 1,15,31256.680971011472,12,29, 6, 5
1154,304010714.1148606,0.0, 1, 1, 1,15,180000.0, 1, 1, 2,60
1155,0.0,0.0, 1, 1, 1,15,0.0, 1, 1, 1,15
1156,0.0,0.0, 1, 1, 1,15,0.0, 1, 1, 1,15
1292,-1152346280.6481888,-38695.019492219224, 2,24, 6,15,-2126.7235162351963, 7,24,19,44
1306,7356396698.0806675,0.0, 1, 1, 1,15,4050000.0, 1,22, 9,60
1307,494612183.85343045,0.0, 1, 1, 1,15,7430884.955101692, 2,19,19,60
1308,7356396698.0806675,0.0, 1, 1, 1,15,4050000.0, 1,22, 9,60
13,57506506786.353676,151703.1275401932, 1, 2, 4,15,7768527.934069454, 7,16,19,60
61,15743207428.383959,88139.10953165221, 1, 1, 1,15,1282023.4113694867, 1, 1,20,15
134,3685071073.4325233,63564.01800854099, 1, 2, 4,15,156554.22484006523, 1, 1,20,15
170,273393721.45532674,348.4159749238097, 1, 2, 4,15,17476.39704006126, 1, 1,12,15
207,339560869.0695816,815.2532113832032, 1, 2, 3,15,22990.642799023623, 1, 1,10,15
244,664895467.8009144,1521.856143006317, 1, 2, 4,15,53038.631142310165, 1, 1,20,15
281,2407221015.106824,59938.60262432081, 1, 1, 5,15,81951.81706819107, 1, 1,19,15
318,0.0,0.0, 1, 1, 1,15,0.0, 1, 1, 1,15
355,10310294493.051695,18561.32405820678, 1, 2, 4,15,724774.895203776, 1, 1,18,15
403,10310294493.051695,18561.32405820678, 1, 2, 4,15,724774.895203776, 1, 1,18,15
476,5569688622.066177,7098.072629279515, 1, 2, 4,15,356036.3026282215, 1, 1,12,15
513,0.0,0.0, 1, 1, 1,15,0.0, 1, 1, 1,15
562,2720684241.6324654,0.0, 1, 1, 1,15,179379.8849267086, 7,29,16,45
1046,0.0,0.0, 1, 1, 1,15,0.0, 1, 1, 1,15
1096,27674248778.261616,0.0, 1, 1, 1,15,2453030.427391083, 6,22,15,60
1134,326898566.5618153,0.0, 1, 1, 1,15,606719.0380904914,12,29, 6,15
1326,7356396698.080651,0.0, 1, 1, 1,15,4050000.0000000014, 4,15, 9,60
1379,0.0,0.0, 1, 1, 1,15,0.0, 1, 1, 1,15
End of Data
 Number of Records Written=          99
