Program Version,EnergyPlus, Version 22.2.0-c249759bad, YMD=2023.09.01 20:16
1,5,Environment Title[],Latitude[deg],Longitude[deg],Time Zone[],Elevation[m]
2,8,Day of Simulation[],Month[],Day of Month[],DST Indicator[1=yes 0=no],Hour[],StartMinute[],EndMinute[],DayType
3,5,Cumulative Day of Simulation[],Month[],Day of Month[],DST Indicator[1=yes 0=no],DayType  ! When Daily Report Variables Requested
4,2,Cumulative Days of Simulation[],Month[]  ! When Monthly Report Variables Requested
5,1,Cumulative Days of Simulation[] ! When Run Period Report Variables Requested
6,1,Calendar Year of Simulation[] ! When Annual Report Variables Requested
581,11,LIVING,AFN Zone Infiltration Air Change Rate [ach] !RunPeriod [Value,Min,Month,Day,Hour,Minute,Max,Month,Day,Hour,Minute]
582,11,ATTIC,AFN Zone Infiltration Air Change Rate [ach] !RunPeriod [Value,Min,Month,Day,Hour,Minute,Max,Month,Day,Hour,Minute]
583,11,CRAWLSPACE,AFN Zone Infiltration Air Change Rate [ach] !RunPeriod [Value,Min,Month,Day,Hour,Minute,Max,Month,Day,Hour,Minute]
1038,11,Facility,Facility Heating Setpoint Not Met Time [hr] !RunPeriod [Value,Min,Month,Day,Hour,Minute,Max,Month,Day,Hour,Minute]
1039,11,Facility,Facility Cooling Setpoint Not Met Time [hr] !RunPeriod [Value,Min,Month,Day,Hour,Minute,Max,Month,Day,Hour,Minute]
1115,11,DX_HEATING_COIL,Heating Coil Heating Energy [J] !RunPeriod [Value,Min,Month,Day,Hour,Minute,Max,Month,Day,Hour,Minute]
1128,11,DX_HEATING_COIL,Heating Coil Electricity Energy [J] !RunPeriod [Value,Min,Month,Day,Hour,Minute,Max,Month,Day,Hour,Minute]
1153,11,DX_HEATING_COIL,Heating Coil Defrost Electricity Energy [J] !RunPeriod [Value,Min,Month,Day,Hour,Minute,Max,Month,Day,Hour,Minute]
1154,11,DX_HEATING_COIL,Heating Coil Crankcase Heater Electricity Energy [J] !RunPeriod [Value,Min,Month,Day,Hour,Minute,Max,Month,Day,Hour,Minute]
1155,11,HEATING_RESISTANCE_BACKUP,Heating Coil Heating Energy [J] !RunPeriod [Value,Min,Month,Day,Hour,Minute,Max,Month,Day,Hour,Minute]
1156,11,HEATING_RESISTANCE_BACKUP,Heating Coil Electricity Energy [J] !RunPeriod [Value,Min,Month,Day,Hour,Minute,Max,Month,Day,Hour,Minute]
1292,11,WATER HEATER,Water Heater Heat Loss Energy [J] !RunPeriod [Value,Min,Month,Day,Hour,Minute,Max,Month,Day,Hour,Minute]
1306,11,WATER HEATER,Water Heater Heating Energy [J] !RunPeriod [Value,Min,Month,Day,Hour,Minute,Max,Month,Day,Hour,Minute]
1307,11,WATER HEATER,Water Heater Unmet Demand Heat Transfer Energy [J] !RunPeriod [Value,Min,Month,Day,Hour,Minute,Max,Month,Day,Hour,Minute]
1308,11,WATER HEATER,Water Heater Electricity Energy [J] !RunPeriod [Value,Min,Month,Day,Hour,Minute,Max,Month,Day,Hour,Minute]
13,11,Electricity:Facility [J] !RunPeriod [Value,Min,Month,Day,Hour,Minute,Max,Month,Day,Hour,Minute]
1134,11,Heating:Electricity [J] !RunPeriod [Value,Min,Month,Day,Hour,Minute,Max,Month,Day,Hour,Minute]
1096,11,Cooling:Electricity [J] !RunPeriod [Value,Min,Month,Day,Hour,Minute,Max,Month,Day,Hour,Minute]
562,11,Fans:Electricity [J] !RunPeriod [Value,Min,Month,Day,Hour,Minute,Max,Month,Day,Hour,Minute]
1379,11,Pumps:Electricity [J] !RunPeriod [Value,Min,Month,Day,Hour,Minute,Max,Month,Day,Hour,Minute]
1326,11,WaterSystems:Electricity [J] !RunPeriod [Value,Min,Month,Day,Hour,Minute,Max,Month,Day,Hour,Minute]
61,11,InteriorLights:Electricity [J] !RunPeriod [Value,Min,Month,Day,Hour,Minute,Max,Month,Day,Hour,Minute]
1046,11,ExteriorLights:Electricity [J] !RunPeriod [Value,Min,Month,Day,Hour,Minute,Max,Month,Day,Hour,Minute]
134,11,InteriorEquipment:Electricity [J] !RunPeriod [Value,Min,Month,Day,Hour,Minute,Max,Month,Day,Hour,Minute]
170,11,gas_dryer:InteriorEquipment:Electricity [J] !RunPeriod [Value,Min,Month,Day,Hour,Minute,Max,Month,Day,Hour,Minute]
207,11,clotheswasher:InteriorEquipment:Electricity [J] !RunPeriod [Value,Min,Month,Day,Hour,Minute,Max,Month,Day,Hour,Minute]
244,11,dishwasher:InteriorEquipment:Electricity [J] !RunPeriod [Value,Min,Month,Day,Hour,Minute,Max,Month,Day,Hour,Minute]
281,11,refrigerator:InteriorEquipment:Electricity [J] !RunPeriod [Value,Min,Month,Day,Hour,Minute,Max,Month,Day,Hour,Minute]
318,11,electric_mels:InteriorEquipment:Electricity [J] !RunPeriod [Value,Min,Month,Day,Hour,Minute,Max,Month,Day,Hour,Minute]
355,11,NaturalGas:Facility [J] !RunPeriod [Value,Min,Month,Day,Hour,Minute,Max,Month,Day,Hour,Minute]
403,11,InteriorEquipment:NaturalGas [J] !RunPeriod [Value,Min,Month,Day,Hour,Minute,Max,Month,Day,Hour,Minute]
476,11,gas_dryer:InteriorEquipment:NaturalGas [J] !RunPeriod [Value,Min,Month,Day,Hour,Minute,Max,Month,Day,Hour,Minute]
513,11,gas_mels:InteriorEquipment:NaturalGas [J] !RunPeriod [Value,Min,Month,Day,Hour,Minute,Max,Month,Day,Hour,Minute]
End of Data Dictionary
1,EXTREME_WINTER,  37.36,-121.92,  -8.00,  15.50
5,7
1038,0.5,0.0, 1,15, 1,15,0.25, 1,19, 6,15
1039,0.0,0.0, 1,15, 1,15,0.0, 1,15, 1,15
581,0.2045469120951225,0.10603291240223671, 1,18,10,48,0.6493948310340072, 1,18,14,50
582,2.2893008879598242,0.0, 1,15, 4,60,12.961289201870738, 1,18,14,50
583,0.006559854191589879,0.00009506095802051822, 1,18, 2,45,0.06191583174566056, 1,20, 6,22
1115,199139097.7290136,0.0, 1,15, 1,15,2642376.432595552, 1,20, 6,45
1128,55875327.519559875,0.0, 1,15, 1,15,795977.1307643014, 1,20, 6,45
1153,1871812.8320785249,0.0, 1,15, 1,15,65592.61426167647, 1,20, 6,45
1154,60249030.26469928,0.0, 1,15, 6, 5,180000.0, 1,15, 1,15
1155,0.0,0.0, 1,15, 1,15,0.0, 1,15, 1,15
1156,0.0,0.0, 1,15, 1,15,0.0, 1,15, 1,15
1292,-24029195.246585913,-39749.63330286262, 1,20, 5,45,-3878.8672487472822, 1,20,11,46
1306,111484765.41985711,0.0, 1,15, 1,15,4050000.0, 1,15, 7,15
1307,18041025.694248244,0.0, 1,15, 1,15,5705899.136449096, 1,15, 6,60
1308,111484765.41985711,0.0, 1,15, 1,15,4050000.0, 1,15, 7,15
13,621276355.6099969,151703.1275401932, 1,18, 4,15,5365911.09413229, 1,16, 7,15
61,301924526.02383536,88139.10953165221, 1,15, 1,15,1282023.4113694867, 1,15,20,15
134,70666020.44019976,63564.01800854099, 1,15, 4,15,156554.22484006523, 1,20,20,15
170,5241013.419656067,348.4159749238097, 1,15, 4,15,17476.39704006126, 1,20,12,15
207,6509451.13922267,815.2532113832032, 1,15, 3,15,22990.642799023623, 1,20,10,15
244,12749673.399825225,1521.856143006317, 1,15, 4,15,53038.631142310165, 1,20,20,15
281,46165882.481495745,59938.60262432081, 1,15, 5,15,81951.81706819107, 1,15,19,15
318,0.0,0.0, 1,15, 1,15,0.0, 1,15, 1,15
355,197687796.27748066,18561.32405820678, 1,15, 4,15,724774.895203776, 1,20,18,15
403,197687796.27748066,18561.32405820678, 1,15, 4,15,724774.895203776, 1,20,18,15
476,106772067.24485716,7098.072629279515, 1,15, 4,15,356036.3026282215, 1,20,12,15
513,0.0,0.0, 1,15, 1,15,0.0, 1,15, 1,15
562,7176459.912882934,0.0, 1,15, 1,15,108311.44206913048, 1,20, 6,15
1046,0.0,0.0, 1,15, 1,15,0.0, 1,15, 1,15
1096,12028413.196884241,0.0, 1,15, 1,15,231568.6177832571, 1,19,17,15
1134,117996170.61633761,0.0, 1,15,11,60,1078852.5152574466, 1,20, 6,15
1326,111484765.4198571,0.0, 1,15, 1,15,4050000.0, 1,15, 7,15
1379,0.0,0.0, 1,15, 1,15,0.0, 1,15, 1,15
1,EXTREME_SUMMER,  37.36,-121.92,  -8.00,  15.50
5,7
1038,0.0,0.0, 9, 2, 1,15,0.0, 9, 2, 1,15
1039,12.25,0.0, 9, 2, 1,15,0.25, 9, 6,15,30
581,0.18632534365396503,0.0, 9, 6,23, 5,0.5663163187823821, 9, 4,14,52
582,3.7131140468660053,0.0, 9, 6, 8,51,12.57244072915467, 9, 5,15,52
583,0.025305735802396083,0.0, 9, 6,23, 5,0.062150466059260445, 9, 6,19,18
1115,0.0,0.0, 9, 2, 1,15,0.0, 9, 2, 1,15
1128,0.0,0.0, 9, 2, 1,15,0.0, 9, 2, 1,15
1153,0.0,0.0, 9, 2, 1,15,0.0, 9, 2, 1,15
1154,0.0,0.0, 9, 2, 1,15,0.0, 9, 2, 1,15
1155,0.0,0.0, 9, 2, 1,15,0.0, 9, 2, 1,15
1156,0.0,0.0, 9, 2, 1,15,0.0, 9, 2, 1,15
1292,-22194798.891502067,-35742.156503658545, 9, 6, 7,15,-2803.4806371132195, 9, 7, 9,45
1306,97709442.65550952,0.0, 9, 2, 1,15,4050000.0, 9, 2, 7,15
1307,11655454.840498991,0.0, 9, 2, 1,15,4334845.856803415, 9, 2, 6,60
1308,97709442.65550952,0.0, 9, 2, 1,15,4050000.0, 9, 2, 7,15
13,791051371.0395174,151703.1275401932, 9, 2, 4,15,5076758.799574474, 9, 7,10,30
61,301924526.02383536,88139.10953165221, 9, 2, 1,15,1282023.4113694867, 9, 2,20,15
134,70666020.44019976,63564.01800854099, 9, 2, 4,15,156554.22484006523, 9, 7,20,15
170,5241013.419656067,348.4159749238097, 9, 2, 4,15,17476.39704006126, 9, 7,12,15
207,6509451.13922267,815.2532113832032, 9, 2, 3,15,22990.642799023623, 9, 7,10,15
244,12749673.399825225,1521.856143006317, 9, 2, 4,15,53038.631142310165, 9, 7,20,15
281,46165882.481495745,59938.60262432081, 9, 2, 5,15,81951.81706819107, 9, 2,19,15
318,0.0,0.0, 9, 2, 1,15,0.0, 9, 2, 1,15
355,197687796.27748066,18561.32405820678, 9, 2, 4,15,724774.895203776, 9, 7,18,15
403,197687796.27748066,18561.32405820678, 9, 2, 4,15,724774.895203776, 9, 7,18,15
476,106772067.24485716,7098.072629279515, 9, 2, 4,15,356036.3026282215, 9, 7,12,15
513,0.0,0.0, 9, 2, 1,15,0.0, 9, 2, 1,15
562,33167264.257929564,0.0, 9, 2, 1,15,122462.30041890653, 9, 6,14,45
1046,0.0,0.0, 9, 2, 1,15,0.0, 9, 2, 1,15
1096,287584117.6620435,0.0, 9, 2, 1,15,1291026.236384302, 9, 7,15,60
1134,0.0,0.0, 9, 2, 1,15,0.0, 9, 2, 1,15
1326,97709442.65550953,0.0, 9, 2, 1,15,4050000.0, 9, 2, 7,15
1379,0.0,0.0, 9, 2, 1,15,0.0, 9, 2, 1,15
1,ANNUAL,  37.36,-121.92,  -8.00,  15.50
5,365
1038,4.25,0.0, 1, 1, 1,15,0.25, 1, 9, 6,15
1039,208.25,0.0, 1, 1, 1,15,0.25, 1,24,13,30
581,0.2050351693982291,0.0, 4,22,23, 3,1.3172278516400178, 1, 1, 9,60
582,3.3111916173291958,0.0, 1, 2, 4,60,26.29880700285212, 1, 1, 9,60
583,0.017441905807620943,0.0, 4,22,23, 3,0.08566011011326642, 2,27, 6, 3
1115,2548410796.109082,0.0, 1, 1, 1,15,3686700.9244926684,12,25, 6,45
1128,716217906.9536533,0.0, 1, 1, 1,15,1114349.1538768343,12,27, 6,60
1153,24251423.944078244,0.0, 1, 1, 1,15,102307.60156794504,12,25, 6,45
1154,840556563.3523606,0.0, 1, 1, 1,15,180000.0, 1, 2,23,45
1155,2469414.7010962213,0.0, 1, 1, 1,15,570994.3032281657,12,27, 6, 5
1156,2469414.7010962213,0.0, 1, 1, 1,15,570994.3032281657,12,27, 6, 5
1292,-1194346412.0763774,-39780.36137453717,12,27, 5,60,-2294.2970953158124, 6, 2,11,59
1306,5489702938.666905,0.0, 1, 1, 1,15,4050000.0, 1, 2, 7,15
1307,765452547.7457322,0.0, 1, 1, 1,15,6296285.036479522, 3,13, 6,60
1308,5489702938.666905,0.0, 1, 1, 1,15,4050000.0, 1, 2, 7,15
13,36095675508.749695,151703.1275401932, 1,11, 4,15,5959949.043628846,12,25, 7,15
61,15743207428.383959,88139.10953165221, 1, 1, 1,15,1282023.4113694867, 1, 1,20,15
134,3685071073.4325233,63564.01800854099, 1, 2, 4,15,156554.22484006523, 1, 1,20,15
170,273393721.45532674,348.4159749238097, 1, 2, 4,15,17476.39704006126, 1, 1,12,15
207,339560869.0695816,815.2532113832032, 1, 2, 3,15,22990.642799023623, 1, 1,10,15
244,664895467.8009144,1521.856143006317, 1, 2, 4,15,53038.631142310165, 1, 1,20,15
281,2407221015.106824,59938.60262432081, 1, 1, 5,15,81951.81706819107, 1, 1,19,15
318,0.0,0.0, 1, 1, 1,15,0.0, 1, 1, 1,15
355,10310294493.051695,18561.32405820678, 1, 2, 4,15,724774.895203776, 1, 1,18,15
403,10310294493.051695,18561.32405820678, 1, 2, 4,15,724774.895203776, 1, 1,18,15
476,5569688622.066177,7098.072629279515, 1, 2, 4,15,356036.3026282215, 1, 1,12,15
513,0.0,0.0, 1, 1, 1,15,0.0, 1, 1, 1,15
562,1114782859.7806094,0.0, 1, 1, 1,15,122462.30041890653, 2,18, 6,15
1046,0.0,0.0, 1, 1, 1,15,0.0, 1, 1, 1,15
1096,8479415899.532386,0.0, 1, 1, 1,15,1293497.5772217626, 9, 7,15,60
1134,1583495308.9511917,0.0, 1, 1, 1,15,1970304.0090888205,12,27, 6,15
1326,5489702938.6669035,0.0, 1, 1, 1,15,4050000.0000000014, 3,11,10,30
1379,0.0,0.0, 1, 1, 1,15,0.0, 1, 1, 1,15
End of Data
 Number of Records Written=          99
