Program Version,EnergyPlus, Version 22.2.0-c249759bad, YMD=2023.09.01 20:36
1,5,Environment Title[],Latitude[deg],Longitude[deg],Time Zone[],Elevation[m]
2,8,Day of Simulation[],Month[],Day of Month[],DST Indicator[1=yes 0=no],Hour[],StartMinute[],EndMinute[],DayType
3,5,Cumulative Day of Simulation[],Month[],Day of Month[],DST Indicator[1=yes 0=no],DayType  ! When Daily Report Variables Requested
4,2,Cumulative Days of Simulation[],Month[]  ! When Monthly Report Variables Requested
5,1,Cumulative Days of Simulation[] ! When Run Period Report Variables Requested
6,1,Calendar Year of Simulation[] ! When Annual Report Variables Requested
581,11,LIVING,AFN Zone Infiltration Air Change Rate [ach] !RunPeriod [Value,Min,Month,Day,Hour,Minute,Max,Month,Day,Hour,Minute]
582,11,ATTIC,AFN Zone Infiltration Air Change Rate [ach] !RunPeriod [Value,Min,Month,Day,Hour,Minute,Max,Month,Day,Hour,Minute]
583,11,CRAWLSPACE,AFN Zone Infiltration Air Change Rate [ach] !RunPeriod [Value,Min,Month,Day,Hour,Minute,Max,Month,Day,Hour,Minute]
1038,11,Facility,Facility Heating Setpoint Not Met Time [hr] !RunPeriod [Value,Min,Month,Day,Hour,Minute,Max,Month,Day,Hour,Minute]
1039,11,Facility,Facility Cooling Setpoint Not Met Time [hr] !RunPeriod [Value,Min,Month,Day,Hour,Minute,Max,Month,Day,Hour,Minute]
1115,11,DX_HEATING_COIL,Heating Coil Heating Energy [J] !RunPeriod [Value,Min,Month,Day,Hour,Minute,Max,Month,Day,Hour,Minute]
1128,11,DX_HEATING_COIL,Heating Coil Electricity Energy [J] !RunPeriod [Value,Min,Month,Day,Hour,Minute,Max,Month,Day,Hour,Minute]
1153,11,DX_HEATING_COIL,Heating Coil Defrost Electricity Energy [J] !RunPeriod [Value,Min,Month,Day,Hour,Minute,Max,Month,Day,Hour,Minute]
1154,11,DX_HEATING_COIL,Heating Coil Crankcase Heater Electricity Energy [J] !RunPeriod [Value,Min,Month,Day,Hour,Minute,Max,Month,Day,Hour,Minute]
1155,11,HEATING_RESISTANCE_BACKUP,Heating Coil Heating Energy [J] !RunPeriod [Value,Min,Month,Day,Hour,Minute,Max,Month,Day,Hour,Minute]
1156,11,HEATING_RESISTANCE_BACKUP,Heating Coil Electricity Energy [J] !RunPeriod [Value,Min,Month,Day,Hour,Minute,Max,Month,Day,Hour,Minute]
1292,11,WATER HEATER,Water Heater Heat Loss Energy [J] !RunPeriod [Value,Min,Month,Day,Hour,Minute,Max,Month,Day,Hour,Minute]
1306,11,WATER HEATER,Water Heater Heating Energy [J] !RunPeriod [Value,Min,Month,Day,Hour,Minute,Max,Month,Day,Hour,Minute]
1307,11,WATER HEATER,Water Heater Unmet Demand Heat Transfer Energy [J] !RunPeriod [Value,Min,Month,Day,Hour,Minute,Max,Month,Day,Hour,Minute]
1308,11,WATER HEATER,Water Heater Electricity Energy [J] !RunPeriod [Value,Min,Month,Day,Hour,Minute,Max,Month,Day,Hour,Minute]
13,11,Electricity:Facility [J] !RunPeriod [Value,Min,Month,Day,Hour,Minute,Max,Month,Day,Hour,Minute]
1134,11,Heating:Electricity [J] !RunPeriod [Value,Min,Month,Day,Hour,Minute,Max,Month,Day,Hour,Minute]
1096,11,Cooling:Electricity [J] !RunPeriod [Value,Min,Month,Day,Hour,Minute,Max,Month,Day,Hour,Minute]
562,11,Fans:Electricity [J] !RunPeriod [Value,Min,Month,Day,Hour,Minute,Max,Month,Day,Hour,Minute]
1379,11,Pumps:Electricity [J] !RunPeriod [Value,Min,Month,Day,Hour,Minute,Max,Month,Day,Hour,Minute]
1326,11,WaterSystems:Electricity [J] !RunPeriod [Value,Min,Month,Day,Hour,Minute,Max,Month,Day,Hour,Minute]
61,11,InteriorLights:Electricity [J] !RunPeriod [Value,Min,Month,Day,Hour,Minute,Max,Month,Day,Hour,Minute]
1046,11,ExteriorLights:Electricity [J] !RunPeriod [Value,Min,Month,Day,Hour,Minute,Max,Month,Day,Hour,Minute]
134,11,InteriorEquipment:Electricity [J] !RunPeriod [Value,Min,Month,Day,Hour,Minute,Max,Month,Day,Hour,Minute]
170,11,gas_dryer:InteriorEquipment:Electricity [J] !RunPeriod [Value,Min,Month,Day,Hour,Minute,Max,Month,Day,Hour,Minute]
207,11,clotheswasher:InteriorEquipment:Electricity [J] !RunPeriod [Value,Min,Month,Day,Hour,Minute,Max,Month,Day,Hour,Minute]
244,11,dishwasher:InteriorEquipment:Electricity [J] !RunPeriod [Value,Min,Month,Day,Hour,Minute,Max,Month,Day,Hour,Minute]
281,11,refrigerator:InteriorEquipment:Electricity [J] !RunPeriod [Value,Min,Month,Day,Hour,Minute,Max,Month,Day,Hour,Minute]
318,11,electric_mels:InteriorEquipment:Electricity [J] !RunPeriod [Value,Min,Month,Day,Hour,Minute,Max,Month,Day,Hour,Minute]
355,11,NaturalGas:Facility [J] !RunPeriod [Value,Min,Month,Day,Hour,Minute,Max,Month,Day,Hour,Minute]
403,11,InteriorEquipment:NaturalGas [J] !RunPeriod [Value,Min,Month,Day,Hour,Minute,Max,Month,Day,Hour,Minute]
476,11,gas_dryer:InteriorEquipment:NaturalGas [J] !RunPeriod [Value,Min,Month,Day,Hour,Minute,Max,Month,Day,Hour,Minute]
513,11,gas_mels:InteriorEquipment:NaturalGas [J] !RunPeriod [Value,Min,Month,Day,Hour,Minute,Max,Month,Day,Hour,Minute]
End of Data Dictionary
1,EXTREME_WINTER,  40.70, -74.17,  -5.00,   9.00
5,7
1038,0.75,0.0, 1,27, 1,15,0.25, 1,29, 6,15
1039,0.0,0.0, 1,27, 1,15,0.0, 1,27, 1,15
581,0.44281707869038883,0.21941166276358925, 1,27,21,60,0.9079769941417153, 1,28,21,52
582,6.60364655026341,0.0, 1,28, 4,60,20.669170388971413, 1,28,18,52
583,0.05115796074926845,0.00034560542305489306, 2, 2,16, 5,0.08169217535652953, 1,28,21,48
1115,1710515404.903443,0.0, 1,27,11,20,4097417.4716336383, 1,27, 6,45
1128,567336314.6490134,0.0, 1,27,11,20,1277802.7023651695, 1,27, 6,45
1153,10121022.058586571,0.0, 1,27,11,20,79785.58392581539, 2, 2, 6,60
1154,36550445.762117356,0.0, 1,27, 6, 5,180000.0, 1,27,12,30
1155,519059911.33174473,0.0, 1,27, 1,15,4353204.439616028, 1,31, 6,45
1156,519059911.33174473,0.0, 1,27, 1,15,4353204.439616028, 1,31, 6,45
1292,-25347183.58042575,-39762.68272786358, 1,27, 1,15,-4054.721316255407, 1,31,15,46
1306,228793799.35292783,0.0, 1,27, 1,15,4050000.0, 1,27, 7,60
1307,38995058.661614306,0.0, 1,27, 1,15,11831719.063927012, 2, 2,19,60
1308,228793799.35292783,0.0, 1,27, 1,15,4050000.0, 1,27, 7,60
13,1795438786.3436775,452017.0388981225, 1,27,15,30,9841910.65769339, 1,31, 7,15
61,301924526.02383536,88139.10953165221, 1,27, 1,15,1282023.4113694867, 1,27,20,15
134,70666020.44019976,63564.01800854099, 1,27, 4,15,156554.22484006523, 2, 1,20,15
170,5241013.419656067,348.4159749238097, 1,27, 4,15,17476.39704006126, 2, 1,12,15
207,6509451.13922267,815.2532113832032, 1,27, 3,15,22990.642799023623, 2, 1,10,15
244,12749673.399825225,1521.856143006317, 1,27, 4,15,53038.631142310165, 2, 1,20,15
281,46165882.481495745,59938.60262432081, 1,27, 5,15,81951.81706819107, 1,27,19,15
318,0.0,0.0, 1,27, 1,15,0.0, 1,27, 1,15
355,197687796.27748066,18561.32405820678, 1,27, 4,15,724774.895203776, 2, 1,18,15
403,197687796.27748066,18561.32405820678, 1,27, 4,15,724774.895203776, 2, 1,18,15
476,106772067.24485716,7098.072629279515, 1,27, 4,15,356036.3026282215, 2, 1,12,15
513,0.0,0.0, 1,27, 1,15,0.0, 1,27, 1,15
562,60986746.72525381,0.0, 1,27,11,30,130219.38840299027, 1,28,21,45
1046,0.0,0.0, 1,27, 1,15,0.0, 1,27, 1,15
1096,0.0,0.0, 1,27, 1,15,0.0, 1,27, 1,15
1134,1133067693.801462,179999.99999999997, 2, 2,17,30,6220491.374906781, 1,31, 6,15
1326,228793799.35292768,0.0, 1,27, 1,15,4050000.0, 1,27, 7,60
1379,0.0,0.0, 1,27, 1,15,0.0, 1,27, 1,15
1,EXTREME_SUMMER,  40.70, -74.17,  -5.00,   9.00
5,7
1038,0.0,0.0, 7,27, 1,15,0.0, 7,27, 1,15
1039,53.0,0.0, 7,27, 1,15,0.25, 7,27,15,30
581,0.1503893926595636,0.0, 7,28, 7,33,0.4901893833816836, 7,30,14,52
582,4.045677893249611,0.09710688910105084, 7,28, 8,18,18.247967476287183, 7,30,16,48
583,0.04340143728174889,0.0007758845530351999, 7,28,23, 3,0.07074551328336194, 7,30,14,52
1115,0.0,0.0, 7,27, 1,15,0.0, 7,27, 1,15
1128,0.0,0.0, 7,27, 1,15,0.0, 7,27, 1,15
1153,0.0,0.0, 7,27, 1,15,0.0, 7,27, 1,15
1154,0.0,0.0, 7,27, 1,15,0.0, 7,27, 1,15
1155,0.0,0.0, 7,27, 1,15,0.0, 7,27, 1,15
1156,0.0,0.0, 7,27, 1,15,0.0, 7,27, 1,15
1292,-21789111.61213716,-34326.64063995234, 7,27,14,45,-3765.5579174388363, 7,28,16,31
1306,162684961.52348438,0.0, 7,27, 1,15,4050000.0, 7,31, 6,60
1307,14168394.810645558,0.0, 7,27, 1,15,2448762.5511667966, 8, 2,19,55
1308,162684961.52348438,0.0, 7,27, 1,15,4050000.0, 7,31, 6,60
13,1156353902.5805829,270320.1909939382, 7,31, 4,60,6901547.878074465, 8, 2,20,15
61,301924526.02383536,88139.10953165221, 7,27, 1,15,1282023.4113694867, 7,27,20,15
134,70666020.44019976,63564.01800854099, 7,27, 4,15,156554.22484006523, 8, 1,20,15
170,5241013.419656067,348.4159749238097, 7,27, 4,15,17476.39704006126, 8, 1,12,15
207,6509451.13922267,815.2532113832032, 7,27, 3,15,22990.642799023623, 8, 1,10,15
244,12749673.399825225,1521.856143006317, 7,27, 4,15,53038.631142310165, 8, 1,20,15
281,46165882.481495745,59938.60262432081, 7,27, 5,15,81951.81706819107, 7,27,19,15
318,0.0,0.0, 7,27, 1,15,0.0, 7,27, 1,15
355,197687796.27748066,18561.32405820678, 7,27, 4,15,724774.895203776, 8, 1,18,15
403,197687796.27748066,18561.32405820678, 7,27, 4,15,724774.895203776, 8, 1,18,15
476,106772067.24485716,7098.072629279515, 7,27, 4,15,356036.3026282215, 8, 1,12,15
513,0.0,0.0, 7,27, 1,15,0.0, 7,27, 1,15
562,58361082.611528724,12234.708925831412, 7,31, 5,45,130219.3884029903, 7,31,17,45
1046,0.0,0.0, 7,27, 1,15,0.0, 7,27, 1,15
1096,562717311.9815363,104440.59396967004, 7,31, 5,45,1418892.9405621355, 8, 1,15,60
1134,0.0,0.0, 7,27, 1,15,0.0, 7,27, 1,15
1326,162684961.52348444,0.0, 7,27, 1,15,4050000.0, 7,28,20,30
1379,0.0,0.0, 7,27, 1,15,0.0, 7,27, 1,15
1,ANNUAL,  40.70, -74.17,  -5.00,   9.00
5,365
1038,11.0,0.0, 1, 1, 1,15,0.25, 1, 3, 6,15
1039,500.75,0.0, 1, 1, 1,15,0.25, 3,19,13,15
581,0.2763286963352178,0.0, 6, 9,23, 3,1.2512361633537914, 8,19,19,48
582,5.101142392620479,0.0, 1,14, 6,60,39.33056095737354, 8,28,16,60
583,0.02764534358816078,0.00001968918689758192,10, 9,23, 3,0.09124911118716454, 8,19,19,48
1115,21617406997.128105,0.0, 1, 1,14, 5,4481267.1287587155, 3, 1, 6,45
1128,6737051071.815113,0.0, 1, 1,14, 5,1308661.113450186, 3, 1, 6,45
1153,114286298.80629092,0.0, 1, 1,14, 5,119240.55728631897,12,13, 6,45
1154,1480416288.3435373,0.0, 1, 1, 6, 5,180000.0, 1, 1,14,45
1155,2525816231.98326,0.0, 1, 1, 1,15,4536822.326736196, 1,30, 6,45
1156,2525816231.98326,0.0, 1, 1, 1,15,4536822.326736196, 1,30, 6,45
1292,-1221488847.4741206,-39769.41700140321, 1,17, 3,30,-2342.688186935303, 8,15,14,30
1306,10268697836.821405,0.0, 1, 1, 1,15,4050000.0, 1, 1,20,15
1307,1355577243.6672022,0.0, 1, 1, 1,15,11839741.71415307, 2, 5,19,60
1308,10268697836.821405,0.0, 1, 1, 1,15,4050000.0, 1, 1,20,15
13,51416622032.38424,151703.1275401932, 3, 6, 4,15,9935927.544880036, 1,30, 7,60
61,15743207428.383959,88139.10953165221, 1, 1, 1,15,1282023.4113694867, 1, 1,20,15
134,3685071073.4325233,63564.01800854099, 1, 2, 4,15,156554.22484006523, 1, 1,20,15
170,273393721.45532674,348.4159749238097, 1, 2, 4,15,17476.39704006126, 1, 1,12,15
207,339560869.0695816,815.2532113832032, 1, 2, 3,15,22990.642799023623, 1, 1,10,15
244,664895467.8009144,1521.856143006317, 1, 2, 4,15,53038.631142310165, 1, 1,20,15
281,2407221015.106824,59938.60262432081, 1, 1, 5,15,81951.81706819107, 1, 1,19,15
318,0.0,0.0, 1, 1, 1,15,0.0, 1, 1, 1,15
355,10310294493.051695,18561.32405820678, 1, 2, 4,15,724774.895203776, 1, 1,18,15
403,10310294493.051695,18561.32405820678, 1, 2, 4,15,724774.895203776, 1, 1,18,15
476,5569688622.066177,7098.072629279515, 1, 2, 4,15,356036.3026282215, 1, 1,12,15
513,0.0,0.0, 1, 1, 1,15,0.0, 1, 1, 1,15
562,1742100849.7366502,0.0, 1, 1,14,15,130219.3884029903, 5,30,16,45
1046,0.0,0.0, 1, 1, 1,15,0.0, 1, 1, 1,15
1096,9119974953.059788,0.0, 1, 1, 1,15,1456257.617097218, 7,19,15,60
1134,10857569890.94819,0.0, 1,15,15,30,6252254.81587033, 1,31, 6,15
1326,10268697836.821371,0.0, 1, 1, 1,15,4050000.0, 1, 1, 9,60
1379,0.0,0.0, 1, 1, 1,15,0.0, 1, 1, 1,15
End of Data
 Number of Records Written=          99
