Program Version,EnergyPlus, Version 22.2.0-c249759bad, YMD=2023.09.01 15:53
1,5,Environment Title[],Latitude[deg],Longitude[deg],Time Zone[],Elevation[m]
2,8,Day of Simulation[],Month[],Day of Month[],DST Indicator[1=yes 0=no],Hour[],StartMinute[],EndMinute[],DayType
3,5,Cumulative Day of Simulation[],Month[],Day of Month[],DST Indicator[1=yes 0=no],DayType  ! When Daily Report Variables Requested
4,2,Cumulative Days of Simulation[],Month[]  ! When Monthly Report Variables Requested
5,1,Cumulative Days of Simulation[] ! When Run Period Report Variables Requested
6,1,Calendar Year of Simulation[] ! When Annual Report Variables Requested
581,11,LIVING,AFN Zone Infiltration Air Change Rate [ach] !RunPeriod [Value,Min,Month,Day,Hour,Minute,Max,Month,Day,Hour,Minute]
582,11,ATTIC,AFN Zone Infiltration Air Change Rate [ach] !RunPeriod [Value,Min,Month,Day,Hour,Minute,Max,Month,Day,Hour,Minute]
583,11,CRAWLSPACE,AFN Zone Infiltration Air Change Rate [ach] !RunPeriod [Value,Min,Month,Day,Hour,Minute,Max,Month,Day,Hour,Minute]
1038,11,Facility,Facility Heating Setpoint Not Met Time [hr] !RunPeriod [Value,Min,Month,Day,Hour,Minute,Max,Month,Day,Hour,Minute]
1039,11,Facility,Facility Cooling Setpoint Not Met Time [hr] !RunPeriod [Value,Min,Month,Day,Hour,Minute,Max,Month,Day,Hour,Minute]
1115,11,DX_HEATING_COIL,Heating Coil Heating Energy [J] !RunPeriod [Value,Min,Month,Day,Hour,Minute,Max,Month,Day,Hour,Minute]
1128,11,DX_HEATING_COIL,Heating Coil Electricity Energy [J] !RunPeriod [Value,Min,Month,Day,Hour,Minute,Max,Month,Day,Hour,Minute]
1153,11,DX_HEATING_COIL,Heating Coil Defrost Electricity Energy [J] !RunPeriod [Value,Min,Month,Day,Hour,Minute,Max,Month,Day,Hour,Minute]
1154,11,DX_HEATING_COIL,Heating Coil Crankcase Heater Electricity Energy [J] !RunPeriod [Value,Min,Month,Day,Hour,Minute,Max,Month,Day,Hour,Minute]
1155,11,HEATING_RESISTANCE_BACKUP,Heating Coil Heating Energy [J] !RunPeriod [Value,Min,Month,Day,Hour,Minute,Max,Month,Day,Hour,Minute]
1156,11,HEATING_RESISTANCE_BACKUP,Heating Coil Electricity Energy [J] !RunPeriod [Value,Min,Month,Day,Hour,Minute,Max,Month,Day,Hour,Minute]
1292,11,WATER HEATER,Water Heater Heat Loss Energy [J] !RunPeriod [Value,Min,Month,Day,Hour,Minute,Max,Month,Day,Hour,Minute]
1306,11,WATER HEATER,Water Heater Heating Energy [J] !RunPeriod [Value,Min,Month,Day,Hour,Minute,Max,Month,Day,Hour,Minute]
1307,11,WATER HEATER,Water Heater Unmet Demand Heat Transfer Energy [J] !RunPeriod [Value,Min,Month,Day,Hour,Minute,Max,Month,Day,Hour,Minute]
1308,11,WATER HEATER,Water Heater Electricity Energy [J] !RunPeriod [Value,Min,Month,Day,Hour,Minute,Max,Month,Day,Hour,Minute]
13,11,Electricity:Facility [J] !RunPeriod [Value,Min,Month,Day,Hour,Minute,Max,Month,Day,Hour,Minute]
1134,11,Heating:Electricity [J] !RunPeriod [Value,Min,Month,Day,Hour,Minute,Max,Month,Day,Hour,Minute]
1096,11,Cooling:Electricity [J] !RunPeriod [Value,Min,Month,Day,Hour,Minute,Max,Month,Day,Hour,Minute]
562,11,Fans:Electricity [J] !RunPeriod [Value,Min,Month,Day,Hour,Minute,Max,Month,Day,Hour,Minute]
1379,11,Pumps:Electricity [J] !RunPeriod [Value,Min,Month,Day,Hour,Minute,Max,Month,Day,Hour,Minute]
1326,11,WaterSystems:Electricity [J] !RunPeriod [Value,Min,Month,Day,Hour,Minute,Max,Month,Day,Hour,Minute]
61,11,InteriorLights:Electricity [J] !RunPeriod [Value,Min,Month,Day,Hour,Minute,Max,Month,Day,Hour,Minute]
1046,11,ExteriorLights:Electricity [J] !RunPeriod [Value,Min,Month,Day,Hour,Minute,Max,Month,Day,Hour,Minute]
134,11,InteriorEquipment:Electricity [J] !RunPeriod [Value,Min,Month,Day,Hour,Minute,Max,Month,Day,Hour,Minute]
170,11,gas_dryer:InteriorEquipment:Electricity [J] !RunPeriod [Value,Min,Month,Day,Hour,Minute,Max,Month,Day,Hour,Minute]
207,11,clotheswasher:InteriorEquipment:Electricity [J] !RunPeriod [Value,Min,Month,Day,Hour,Minute,Max,Month,Day,Hour,Minute]
244,11,dishwasher:InteriorEquipment:Electricity [J] !RunPeriod [Value,Min,Month,Day,Hour,Minute,Max,Month,Day,Hour,Minute]
281,11,refrigerator:InteriorEquipment:Electricity [J] !RunPeriod [Value,Min,Month,Day,Hour,Minute,Max,Month,Day,Hour,Minute]
318,11,electric_mels:InteriorEquipment:Electricity [J] !RunPeriod [Value,Min,Month,Day,Hour,Minute,Max,Month,Day,Hour,Minute]
355,11,NaturalGas:Facility [J] !RunPeriod [Value,Min,Month,Day,Hour,Minute,Max,Month,Day,Hour,Minute]
403,11,InteriorEquipment:NaturalGas [J] !RunPeriod [Value,Min,Month,Day,Hour,Minute,Max,Month,Day,Hour,Minute]
476,11,gas_dryer:InteriorEquipment:NaturalGas [J] !RunPeriod [Value,Min,Month,Day,Hour,Minute,Max,Month,Day,Hour,Minute]
513,11,gas_mels:InteriorEquipment:NaturalGas [J] !RunPeriod [Value,Min,Month,Day,Hour,Minute,Max,Month,Day,Hour,Minute]
End of Data Dictionary
1,EXTREME_WINTER,  37.04,-113.51,  -7.00, 879.00
5,15
1038,0.0,0.0,12,22, 1,15,0.0,12,22, 1,15
1039,0.0,0.0,12,22, 1,15,0.0,12,22, 1,15
581,0.23334598825281636,0.13759147848817727, 1, 3, 4,52,0.5653618581789304,12,25, 3,60
582,1.6024787484583978,0.0,12,22, 1,15,11.713354668934151,12,25, 3,60
583,0.02071945671960823,0.00015303953126772284,12,31,22,60,0.10419312568945485, 1, 5, 6,52
1115,1501918865.316874,0.0,12,22,23, 7,5102159.514168511, 1, 5, 6,45
1128,480007813.89749366,0.0,12,22,23, 7,1744311.1895529076, 1, 5, 6,45
1153,16217681.151687525,0.0,12,22,13,37,76031.14565706253, 1, 1, 6,60
1154,204121200.5457397,0.0,12,22, 6, 5,180000.0,12,24,20,15
1155,7115128.390725037,0.0,12,22, 1,15,1077939.2606110347, 1, 5, 6, 5
1156,7115128.390725037,0.0,12,22, 1,15,1077939.2606110347, 1, 5, 6, 5
1292,-53263681.11404324,-39774.42273653382,12,22, 1,15,-4051.4096850255705,12,30,11,44
1306,454072346.20727533,0.0,12,22, 1,15,7633654.84978852,12,31, 7,60
1307,8207500.0705701765,0.0,12,22, 1,15,2205749.863634363, 1, 4,19,60
1308,454072346.20727533,0.0,12,22, 1,15,7633654.84978852,12,31, 7,60
13,2020077948.9249601,293741.63409419305, 1, 2,15,30,11696693.378502091, 1, 4, 9,45
61,646981127.1939323,88139.10953165221,12,22, 1,15,1282023.4113694867,12,22,20,15
134,151290040.75163814,63564.01800854099,12,22, 4,15,156554.22484006523,12,27,20,15
170,11185820.069951689,348.4159749238097,12,22, 4,15,17476.39704006126,12,27,12,15
207,13893028.5742839,815.2532113832032,12,22, 3,15,22990.642799023623,12,27,10,15
244,27284301.07562584,1521.856143006317,12,22, 4,15,53038.631142310165,12,27,20,15
281,98926891.03177746,59938.60262432081,12,22, 5,15,81951.81706819107,12,22,19,15
318,0.0,0.0,12,22, 1,15,0.0,12,22, 1,15
355,422701517.16107386,18561.32405820678,12,22, 4,15,724774.895203776,12,27,18,15
403,422701517.16107386,18561.32405820678,12,22, 4,15,724774.895203776,12,27,18,15
476,227882097.80545202,7098.072629279515,12,22, 4,15,356036.3026282215,12,27,12,15
513,0.0,0.0,12,22, 1,15,0.0,12,22, 1,15
562,51603168.64469977,0.0,12,22,23,15,184172.54050964926, 1, 5, 6,45
1046,0.0,0.0,12,22, 1,15,0.0,12,22, 1,15
1096,8669442.14176968,0.0,12,22, 1,15,246388.78435251728,12,30,17,30
1134,707461823.9856455,0.0,12,29,17,60,2732981.726089781, 1, 5, 6,15
1326,454072346.2072753,0.0,12,22, 1,15,10142168.846321205, 1, 4, 9,45
1379,0.0,0.0,12,22, 1,15,0.0,12,22, 1,15
1,EXTREME_SUMMER,  37.04,-113.51,  -7.00, 879.00
5,7
1038,0.0,0.0, 6,29, 1,15,0.0, 6,29, 1,15
1039,24.75,0.0, 6,29, 1,15,0.25, 6,30,17,15
581,0.14594340294372884,0.0, 7, 2, 6, 7,0.7406065592146076, 7, 5,17,50
582,5.017524941962491,0.1661435724005451, 7, 3, 2,37,23.858585413543636, 7, 5,17,50
583,0.05572176831112956,0.0, 7, 2, 6, 7,0.10433070407484739, 7, 5,17,50
1115,0.0,0.0, 6,29, 1, 7,0.0, 6,29, 1, 7
1128,0.0,0.0, 6,29, 1, 7,0.0, 6,29, 1, 7
1153,0.0,0.0, 6,29, 1, 7,0.0, 6,29, 1, 7
1154,0.0,0.0, 6,29, 1, 7,0.0, 6,29, 1, 7
1155,0.0,0.0, 6,29, 1, 7,0.0, 6,29, 1, 7
1156,0.0,0.0, 6,29, 1, 7,0.0, 6,29, 1, 7
1292,-21990368.096928697,-34335.395343241886, 6,30, 6,60,-3222.436156745733, 7, 4, 9,34
1306,138546661.4522631,0.0, 6,29, 1, 7,4642996.884289626, 6,29, 7,45
1307,0.0,0.0, 6,29, 1, 7,0.0, 6,29, 1, 7
1308,138546661.4522631,0.0, 6,29, 1, 7,4642996.884289626, 6,29, 7,45
13,1365715415.0959685,330668.0132636698, 6,29, 4,60,12588489.74603366, 7, 5,19,60
61,301924526.02383536,88139.10953165221, 6,29, 1,15,1282023.4113694867, 6,29,20,15
134,70666020.44019976,63564.01800854099, 6,29, 4,15,156554.22484006523, 7, 4,20,15
170,5241013.419656067,348.4159749238097, 6,29, 4,15,17476.39704006126, 7, 4,12,15
207,6509451.13922267,815.2532113832032, 6,29, 3,15,22990.642799023623, 7, 4,10,15
244,12749673.399825225,1521.856143006317, 6,29, 4,15,53038.631142310165, 7, 4,20,15
281,46165882.481495745,59938.60262432081, 6,29, 5,15,81951.81706819107, 6,29,19,15
318,0.0,0.0, 6,29, 1,15,0.0, 6,29, 1,15
355,197687796.27748066,18561.32405820678, 6,29, 4,15,724774.895203776, 7, 4,18,15
403,197687796.27748066,18561.32405820678, 6,29, 4,15,724774.895203776, 7, 4,18,15
476,106772067.24485716,7098.072629279515, 6,29, 4,15,356036.3026282215, 7, 4,12,15
513,0.0,0.0, 6,29, 1,15,0.0, 6,29, 1,15
562,70983884.93331987,17796.31127316697, 6,29, 5,45,184172.54050964926, 6,30,16,60
1046,0.0,0.0, 6,29, 1,15,0.0, 6,29, 1,15
1096,783594322.246351,155864.47367137563, 6,29, 5,45,2366853.546514425, 7, 4,16,60
1134,0.0,0.0, 6,29, 1,15,0.0, 6,29, 1,15
1326,138546661.45226306,0.0, 6,29, 1,15,9039004.825274555, 7, 5,19,60
1379,0.0,0.0, 6,29, 1,15,0.0, 6,29, 1,15
1,ANNUAL,  37.04,-113.51,  -7.00, 879.00
5,365
1038,0.0,0.0, 1, 1, 1,15,0.0, 1, 1, 1,15
1039,394.75,0.0, 1, 1, 1,15,0.25, 1,27,16,60
581,0.19496231237685913,0.0, 4,27,23, 7,1.897411177844197, 2,18,23,52
582,3.2799292679257337,0.0, 1, 1, 6, 5,39.18050171183014, 6,16,17,52
583,0.031453795638186136,0.0, 6, 9, 6, 7,0.11830192071225999, 6,16,17,52
1115,6063495034.149704,0.0, 1, 1, 1,15,5101384.294691562, 1, 5, 6,45
1128,1938098190.8889458,0.0, 1, 1, 1,15,1745207.5441585102, 1, 5, 6,45
1153,51802245.9077635,0.0, 1, 1, 1,15,99565.25329944896, 2,23, 7,15
1154,1501514533.1333218,0.0, 1, 1, 6, 5,180000.0, 1, 1, 1,15
1155,32047476.629360083,0.0, 1, 1, 1,15,1077939.2606110347, 1, 5, 6, 5
1156,32047476.629360083,0.0, 1, 1, 1,15,1077939.2606110347, 1, 5, 6, 5
1292,-1191121026.0898385,-39770.80932007239, 2,20, 1,45,-2373.1761115617114, 4,20,13,59
1306,9220842286.19169,0.0, 1, 1, 1,15,10540304.937624358, 1,22, 9,45
1307,97779420.83274813,0.0, 1, 1, 1,15,4447615.794758335, 2,12,19,60
1308,9220842286.19169,0.0, 1, 1, 1,15,10540304.937624358, 1,22, 9,45
13,50754943235.31255,151703.1275401932, 1,23, 4,15,13868507.189708315, 6,25,19,60
61,15743207428.383959,88139.10953165221, 1, 1, 1,15,1282023.4113694867, 1, 1,20,15
134,3685071073.4325233,63564.01800854099, 1, 2, 4,15,156554.22484006523, 1, 1,20,15
170,273393721.45532674,348.4159749238097, 1, 2, 4,15,17476.39704006126, 1, 1,12,15
207,339560869.0695816,815.2532113832032, 1, 2, 3,15,22990.642799023623, 1, 1,10,15
244,664895467.8009144,1521.856143006317, 1, 2, 4,15,53038.631142310165, 1, 1,20,15
281,2407221015.106824,59938.60262432081, 1, 1, 5,15,81951.81706819107, 1, 1,19,15
318,0.0,0.0, 1, 1, 1,15,0.0, 1, 1, 1,15
355,10310294493.051695,18561.32405820678, 1, 2, 4,15,724774.895203776, 1, 1,18,15
403,10310294493.051695,18561.32405820678, 1, 2, 4,15,724774.895203776, 1, 1,18,15
476,5569688622.066177,7098.072629279515, 1, 2, 4,15,356036.3026282215, 1, 1,12,15
513,0.0,0.0, 1, 1, 1,15,0.0, 1, 1, 1,15
562,1951465306.3893762,0.0, 1, 1, 1,15,184172.5405096493, 5,26,18,30
1046,0.0,0.0, 1, 1, 1,15,0.0, 1, 1, 1,15
1096,16630894694.35363,0.0, 1, 1, 1,15,2357136.3488591625, 7, 4,16,60
1134,3523462446.5594063,0.0, 1, 2,15,30,3121675.3006756827, 1, 6, 6,15
1326,9220842286.191685,0.0, 1, 1, 1,15,10540304.937624358, 1,22, 9,45
1379,0.0,0.0, 1, 1, 1,15,0.0, 1, 1, 1,15
End of Data
 Number of Records Written=          99
