Program Version,EnergyPlus, Version 22.2.0-c249759bad, YMD=2023.08.03 10:32
1,5,Environment Title[],Latitude[deg],Longitude[deg],Time Zone[],Elevation[m]
2,8,Day of Simulation[],Month[],Day of Month[],DST Indicator[1=yes 0=no],Hour[],StartMinute[],EndMinute[],DayType
3,5,Cumulative Day of Simulation[],Month[],Day of Month[],DST Indicator[1=yes 0=no],DayType  ! When Daily Report Variables Requested
4,2,Cumulative Days of Simulation[],Month[]  ! When Monthly Report Variables Requested
5,1,Cumulative Days of Simulation[] ! When Run Period Report Variables Requested
6,1,Calendar Year of Simulation[] ! When Annual Report Variables Requested
581,11,LIVING,AFN Zone Infiltration Air Change Rate [ach] !RunPeriod [Value,Min,Month,Day,Hour,Minute,Max,Month,Day,Hour,Minute]
582,11,ATTIC,AFN Zone Infiltration Air Change Rate [ach] !RunPeriod [Value,Min,Month,Day,Hour,Minute,Max,Month,Day,Hour,Minute]
583,11,CRAWLSPACE,AFN Zone Infiltration Air Change Rate [ach] !RunPeriod [Value,Min,Month,Day,Hour,Minute,Max,Month,Day,Hour,Minute]
1038,11,Facility,Facility Heating Setpoint Not Met Time [hr] !RunPeriod [Value,Min,Month,Day,Hour,Minute,Max,Month,Day,Hour,Minute]
1039,11,Facility,Facility Cooling Setpoint Not Met Time [hr] !RunPeriod [Value,Min,Month,Day,Hour,Minute,Max,Month,Day,Hour,Minute]
1115,11,DX_HEATING_COIL,Heating Coil Heating Energy [J] !RunPeriod [Value,Min,Month,Day,Hour,Minute,Max,Month,Day,Hour,Minute]
1128,11,DX_HEATING_COIL,Heating Coil Electricity Energy [J] !RunPeriod [Value,Min,Month,Day,Hour,Minute,Max,Month,Day,Hour,Minute]
1153,11,DX_HEATING_COIL,Heating Coil Defrost Electricity Energy [J] !RunPeriod [Value,Min,Month,Day,Hour,Minute,Max,Month,Day,Hour,Minute]
1154,11,DX_HEATING_COIL,Heating Coil Crankcase Heater Electricity Energy [J] !RunPeriod [Value,Min,Month,Day,Hour,Minute,Max,Month,Day,Hour,Minute]
1155,11,HEATING_RESISTANCE_BACKUP,Heating Coil Heating Energy [J] !RunPeriod [Value,Min,Month,Day,Hour,Minute,Max,Month,Day,Hour,Minute]
1156,11,HEATING_RESISTANCE_BACKUP,Heating Coil Electricity Energy [J] !RunPeriod [Value,Min,Month,Day,Hour,Minute,Max,Month,Day,Hour,Minute]
1292,11,WATER HEATER,Water Heater Heat Loss Energy [J] !RunPeriod [Value,Min,Month,Day,Hour,Minute,Max,Month,Day,Hour,Minute]
1306,11,WATER HEATER,Water Heater Off Cycle Parasitic Tank Heat Transfer Energy [J] !RunPeriod [Value,Min,Month,Day,Hour,Minute,Max,Month,Day,Hour,Minute]
1307,11,WATER HEATER,Water Heater On Cycle Parasitic Tank Heat Transfer Energy [J] !RunPeriod [Value,Min,Month,Day,Hour,Minute,Max,Month,Day,Hour,Minute]
1308,11,WATER HEATER,Water Heater Total Demand Heat Transfer Energy [J] !RunPeriod [Value,Min,Month,Day,Hour,Minute,Max,Month,Day,Hour,Minute]
1309,11,WATER HEATER,Water Heater Heating Energy [J] !RunPeriod [Value,Min,Month,Day,Hour,Minute,Max,Month,Day,Hour,Minute]
1310,11,WATER HEATER,Water Heater Venting Heat Transfer Energy [J] !RunPeriod [Value,Min,Month,Day,Hour,Minute,Max,Month,Day,Hour,Minute]
1311,11,WATER HEATER,Water Heater NaturalGas Energy [J] !RunPeriod [Value,Min,Month,Day,Hour,Minute,Max,Month,Day,Hour,Minute]
13,11,Electricity:Facility [J] !RunPeriod [Value,Min,Month,Day,Hour,Minute,Max,Month,Day,Hour,Minute]
1134,11,Heating:Electricity [J] !RunPeriod [Value,Min,Month,Day,Hour,Minute,Max,Month,Day,Hour,Minute]
1096,11,Cooling:Electricity [J] !RunPeriod [Value,Min,Month,Day,Hour,Minute,Max,Month,Day,Hour,Minute]
562,11,Fans:Electricity [J] !RunPeriod [Value,Min,Month,Day,Hour,Minute,Max,Month,Day,Hour,Minute]
1394,11,Pumps:Electricity [J] !RunPeriod [Value,Min,Month,Day,Hour,Minute,Max,Month,Day,Hour,Minute]
61,11,InteriorLights:Electricity [J] !RunPeriod [Value,Min,Month,Day,Hour,Minute,Max,Month,Day,Hour,Minute]
1046,11,ExteriorLights:Electricity [J] !RunPeriod [Value,Min,Month,Day,Hour,Minute,Max,Month,Day,Hour,Minute]
134,11,InteriorEquipment:Electricity [J] !RunPeriod [Value,Min,Month,Day,Hour,Minute,Max,Month,Day,Hour,Minute]
170,11,gas_dryer:InteriorEquipment:Electricity [J] !RunPeriod [Value,Min,Month,Day,Hour,Minute,Max,Month,Day,Hour,Minute]
207,11,clotheswasher:InteriorEquipment:Electricity [J] !RunPeriod [Value,Min,Month,Day,Hour,Minute,Max,Month,Day,Hour,Minute]
244,11,dishwasher:InteriorEquipment:Electricity [J] !RunPeriod [Value,Min,Month,Day,Hour,Minute,Max,Month,Day,Hour,Minute]
281,11,refrigerator:InteriorEquipment:Electricity [J] !RunPeriod [Value,Min,Month,Day,Hour,Minute,Max,Month,Day,Hour,Minute]
318,11,electric_mels:InteriorEquipment:Electricity [J] !RunPeriod [Value,Min,Month,Day,Hour,Minute,Max,Month,Day,Hour,Minute]
355,11,NaturalGas:Facility [J] !RunPeriod [Value,Min,Month,Day,Hour,Minute,Max,Month,Day,Hour,Minute]
1329,11,WaterSystems:NaturalGas [J] !RunPeriod [Value,Min,Month,Day,Hour,Minute,Max,Month,Day,Hour,Minute]
403,11,InteriorEquipment:NaturalGas [J] !RunPeriod [Value,Min,Month,Day,Hour,Minute,Max,Month,Day,Hour,Minute]
476,11,gas_dryer:InteriorEquipment:NaturalGas [J] !RunPeriod [Value,Min,Month,Day,Hour,Minute,Max,Month,Day,Hour,Minute]
513,11,gas_mels:InteriorEquipment:NaturalGas [J] !RunPeriod [Value,Min,Month,Day,Hour,Minute,Max,Month,Day,Hour,Minute]
End of Data Dictionary
1,EXTREME_WINTER,  39.10, -84.42,  -5.00, 149.40
5,7
1038,0.5,0.0, 1,15, 1,10,0.16666666666666666, 1,20, 6,10
1039,0.0,0.0, 1,15, 1,10,0.0, 1,15, 1,10
581,0.27809207530539926,0.18177040394675473, 1,17, 4,60,0.4338512847717557, 1,17,24,20
582,3.0550988609913254,0.0, 1,15,20,35,12.3700119495823, 1,17,24,60
583,3.5297206109391075,0.0002251620722515089, 1,18,23, 6,11.178729487037824, 1,17,24,20
1115,1358318269.3811927,0.0, 1,15,15,30,2841682.122060721, 1,19, 6,30
1128,462503149.77898794,0.0, 1,15,15,30,869987.7289532174, 1,19, 6,30
1153,7573792.6654982455,0.0, 1,15,15,30,44156.85842252873, 1,17, 6,30
1154,53961320.24258013,0.0, 1,15, 5,15,120000.0, 1,15,16,10
1155,376783396.7370196,0.0, 1,15, 1,10,3248585.015889989, 1,20, 6,30
1156,376783396.7370196,0.0, 1,15, 1,10,3248585.015889989, 1,20, 6,30
1292,-124177588.5563618,-130466.21406180032, 1,15, 1,10,-17966.88875981364, 1,20,23, 1
1306,0.0,0.0, 1,15, 1,10,0.0, 1,15, 1,10
1307,0.0,0.0, 1,15, 1,10,0.0, 1,15, 1,10
1308,477301244.43729985,17966.88875981364, 1,20,23, 1,14743301.728796236, 1,19, 9,60
1309,476081140.26543736,0.0, 1,15, 1,10,7027200.0, 1,15, 9,50
1310,0.0,0.0, 1,15, 1,10,0.0, 1,15, 1,10
1311,680115914.6649104,0.0, 1,15, 1,10,10038857.142857144, 1,15, 9,50
13,1325430461.0291977,301344.6925987483, 1,15,15,40,4634398.996873768, 1,21, 6,10
61,301924526.0238348,58759.40635443481, 1,15, 1,10,854682.2742463244, 1,15,20,10
134,70666020.44019979,42376.01200569399, 1,15, 4,10,104369.48322671017, 1,20,20,10
170,5241013.419656074,232.27731661587313, 1,15, 4,10,11650.931360040839, 1,20,12,10
207,6509451.13922266,543.5021409221355, 1,15, 3,10,15327.095199349082, 1,20,10,10
244,12749673.39982522,1014.5707620042115, 1,15, 4,10,35359.08742820678, 1,20,20,10
281,46165882.48149605,39959.06841621388, 1,15, 5,10,54634.54471212738, 1,15,19,10
318,0.0,0.0, 1,15, 1,10,0.0, 1,15, 1,10
355,877803710.9423945,12374.216038804521, 1,15, 4,10,10414514.917202147, 1,19,19,40
403,197687796.27748126,12374.216038804521, 1,15, 4,10,483183.26346918393, 1,20,18,10
476,106772067.24485692,4732.048419519677, 1,15, 4,10,237357.535085481, 1,20,12,10
513,0.0,0.0, 1,15, 1,10,0.0, 1,15, 1,10
562,52018255.14107635,0.0, 1,15,15,40,93314.72779432942, 1,15, 5,20
1046,0.0,0.0, 1,15, 1,10,0.0, 1,15, 1,10
1096,0.0,0.0, 1,15, 1,10,0.0, 1,15, 1,10
1134,900821659.424085,120000.0, 1,15,15,40,4127766.9497030647, 1,21, 6,10
1329,680115914.6649107,0.0, 1,15, 1,10,10038857.142857144, 1,15, 9,50
1394,0.0,0.0, 1,15, 1,10,0.0, 1,15, 1,10
1,EXTREME_SUMMER,  39.10, -84.42,  -5.00, 149.40
5,7
1038,0.0,0.0, 7,15, 1,10,0.0, 7,15, 1,10
1039,36.166666666666664,0.0, 7,15, 1,10,0.16666666666666666, 7,15,14,10
581,0.038430236227624585,0.0, 7,15, 1,10,0.4024286252612111, 7,20,16,52
582,1.6534178385103129,0.0, 7,16,21,22,8.690636922834658, 7,20,16,52
583,1.8150993833908313,0.0, 7,15, 6, 7,10.18894951031623, 7,20,16,52
1115,0.0,0.0, 7,15, 1,10,0.0, 7,15, 1,10
1128,0.0,0.0, 7,15, 1,10,0.0, 7,15, 1,10
1153,0.0,0.0, 7,15, 1,10,0.0, 7,15, 1,10
1154,0.0,0.0, 7,15, 1,10,0.0, 7,15, 1,10
1155,0.0,0.0, 7,15, 1,10,0.0, 7,15, 1,10
1156,0.0,0.0, 7,15, 1,10,0.0, 7,15, 1,10
1292,-107492729.53295974,-112684.28318856336, 7,20,20,20,-10153.384362578281, 7,19,19,40
1306,0.0,0.0, 7,15, 1,10,0.0, 7,15, 1,10
1307,0.0,0.0, 7,15, 1,10,0.0, 7,15, 1,10
1308,369032931.23410803,10594.740999812631, 7,18,16,42,10031782.47977869, 7,21,20,60
1309,368915524.3009771,0.0, 7,15, 1,10,6536419.988541312, 7,21,20,60
1310,0.0,0.0, 7,15, 1,10,0.0, 7,15, 1,10
1311,527022177.57282436,0.0, 7,15, 1,10,9337742.840773303, 7,21,20,60
13,963179383.8788034,153939.85784761864, 7,19, 4,60,1925112.9477495588, 7,15,20,10
61,301924526.0238348,58759.40635443481, 7,15, 1,10,854682.2742463244, 7,15,20,10
134,70666020.44019979,42376.01200569399, 7,15, 4,10,104369.48322671017, 7,20,20,10
170,5241013.419656074,232.27731661587313, 7,15, 4,10,11650.931360040839, 7,20,12,10
207,6509451.13922266,543.5021409221355, 7,15, 3,10,15327.095199349082, 7,20,10,10
244,12749673.39982522,1014.5707620042115, 7,15, 4,10,35359.08742820678, 7,20,20,10
281,46165882.48149605,39959.06841621388, 7,15, 5,10,54634.54471212738, 7,15,19,10
318,0.0,0.0, 7,15, 1,10,0.0, 7,15, 1,10
355,724709973.8503077,12374.216038804521, 7,15, 4,10,10317152.62657113, 7,16,11,10
403,197687796.27748126,12374.216038804521, 7,15, 4,10,483183.26346918393, 7,20,18,10
476,106772067.24485692,4732.048419519677, 7,15, 4,10,237357.535085481, 7,20,12,10
513,0.0,0.0, 7,15, 1,10,0.0, 7,15, 1,10
562,56966830.72481745,1551.2270960420867, 7,19, 6,20,93314.72779432942, 7,15,12,50
1046,0.0,0.0, 7,15, 1,10,0.0, 7,15, 1,10
1096,533622006.6899507,12718.751364711856, 7,19, 6,20,989001.309012736, 7,16,15,60
1134,0.0,0.0, 7,15, 1,10,0.0, 7,15, 1,10
1329,527022177.57282436,0.0, 7,15, 1,10,10038857.142857144, 7,15, 9,50
1394,0.0,0.0, 7,15, 1,10,0.0, 7,15, 1,10
1,ANNUAL,  39.10, -84.42,  -5.00, 149.40
5,365
1038,6.66666666666667,0.0, 1, 1, 1,10,0.16666666666666666, 1, 2, 6,10
1039,541.4999999999999,0.0, 1, 1, 1,10,0.16666666666666666, 3,27,11,50
581,0.18877006620302597,0.0, 5, 7, 8,51,1.2434396876607694, 2,18,22,55
582,3.05804221772391,0.0, 1, 4, 3,50,28.080912085948547, 1,29,21,60
583,3.55359475602852,0.0, 6, 8,23, 3,33.75860418575758, 4,29,17,52
1115,18880834059.903618,0.0, 1, 1,23, 2,3285028.125293485, 1,22, 4,60
1128,5952910595.144011,0.0, 1, 1,23, 2,890015.1413775312, 1,22, 4,60
1153,207094359.19323286,0.0, 1, 1,23, 2,82065.45019692909,12,18, 6,29
1154,1621884126.171367,0.0, 1, 1, 1, 1,120000.0, 1, 4,15,10
1155,2492741732.2596703,0.0, 1, 1, 1,42,3331318.485308542, 1,20, 6,30
1156,2492741732.2596703,0.0, 1, 1, 1,42,3331318.485308542, 1,20, 6,30
1292,-5969858661.795366,-130466.67519994799, 2,25, 2,30,-9589.657256106784, 4,21,10, 1
1306,0.0,0.0, 1, 1, 1, 1,0.0, 1, 1, 1, 1
1307,0.0,0.0, 1, 1, 1, 1,0.0, 1, 1, 1, 1
1308,21997747906.85085,10160.473019745941, 7,18,16,41,14810188.059464632, 1,27, 9,60
1309,22001959934.415672,0.0, 1, 1, 1, 1,7027200.0, 1, 1,21,10
1310,0.0,0.0, 1, 1, 1, 1,0.0, 1, 1, 1, 1
1311,31431371334.879574,0.0, 1, 1, 1, 1,10038857.142857144, 1, 1,21,10
13,42080698797.179535,101135.4183601288, 3, 6, 4,10,4635695.648608035, 1, 2, 6,10
61,15743207428.39043,58759.40635443481, 1, 1, 1,10,854682.2742463244, 1, 1,20,10
134,3685071073.433083,42376.01200569399, 1, 2, 4,10,104369.48322671017, 1, 1,20,10
170,273393721.45534325,232.27731661587313, 1, 2, 4,10,11650.931360040839, 1, 1,12,10
207,339560869.06955314,543.5021409221355, 1, 2, 3,10,15327.095199349082, 1, 1,10,10
244,664895467.8009839,1014.5707620042115, 1, 2, 4,10,35359.08742820678, 1, 1,20,10
281,2407221015.1057043,39959.06841621388, 1, 1, 5,10,54634.54471212738, 1, 1,19,10
318,0.0,0.0, 1, 1, 1,10,0.0, 1, 1, 1,10
355,41741665827.92944,12374.216038804521, 1, 2, 4,10,10414514.917202147, 1, 6,19,40
403,10310294493.052883,12374.216038804521, 1, 2, 4,10,483183.26346918393, 1, 1,18,10
476,5569688622.065564,4732.048419519677, 1, 2, 4,10,237357.535085481, 1, 1,12,10
513,0.0,0.0, 1, 1, 1,10,0.0, 1, 1, 1,10
562,1867165528.372346,0.0, 1, 3,17,10,93314.72779432942, 1, 1, 1,20
1046,0.0,0.0, 1, 1, 1,10,0.0, 1, 1, 1,10
1096,10510623954.221294,0.0, 1, 1, 1,10,1027196.6261569, 8, 9,14,60
1134,10274630812.768303,0.0, 1, 6,16,30,4129801.597803053, 1, 2, 6,10
1329,31431371334.87934,0.0, 1, 1, 1,10,10038857.142857144, 1, 1, 9,50
1394,0.0,0.0, 1, 1, 1,10,0.0, 1, 1, 1,10
End of Data
 Number of Records Written=         108
