Program Version,EnergyPlus, Version 22.2.0-c249759bad, YMD=2023.07.07 15:21
1,5,Environment Title[],Latitude[deg],Longitude[deg],Time Zone[],Elevation[m]
2,8,Day of Simulation[],Month[],Day of Month[],DST Indicator[1=yes 0=no],Hour[],StartMinute[],EndMinute[],DayType
3,5,Cumulative Day of Simulation[],Month[],Day of Month[],DST Indicator[1=yes 0=no],DayType  ! When Daily Report Variables Requested
4,2,Cumulative Days of Simulation[],Month[]  ! When Monthly Report Variables Requested
5,1,Cumulative Days of Simulation[] ! When Run Period Report Variables Requested
6,1,Calendar Year of Simulation[] ! When Annual Report Variables Requested
581,11,LIVING,AFN Zone Infiltration Air Change Rate [ach] !RunPeriod [Value,Min,Month,Day,Hour,Minute,Max,Month,Day,Hour,Minute]
582,11,ATTIC,AFN Zone Infiltration Air Change Rate [ach] !RunPeriod [Value,Min,Month,Day,Hour,Minute,Max,Month,Day,Hour,Minute]
583,11,CRAWLSPACE,AFN Zone Infiltration Air Change Rate [ach] !RunPeriod [Value,Min,Month,Day,Hour,Minute,Max,Month,Day,Hour,Minute]
1038,11,Facility,Facility Heating Setpoint Not Met Time [hr] !RunPeriod [Value,Min,Month,Day,Hour,Minute,Max,Month,Day,Hour,Minute]
1039,11,Facility,Facility Cooling Setpoint Not Met Time [hr] !RunPeriod [Value,Min,Month,Day,Hour,Minute,Max,Month,Day,Hour,Minute]
1115,11,DX_HEATING_COIL,Heating Coil Heating Energy [J] !RunPeriod [Value,Min,Month,Day,Hour,Minute,Max,Month,Day,Hour,Minute]
1128,11,DX_HEATING_COIL,Heating Coil Electricity Energy [J] !RunPeriod [Value,Min,Month,Day,Hour,Minute,Max,Month,Day,Hour,Minute]
1153,11,DX_HEATING_COIL,Heating Coil Defrost Electricity Energy [J] !RunPeriod [Value,Min,Month,Day,Hour,Minute,Max,Month,Day,Hour,Minute]
1154,11,DX_HEATING_COIL,Heating Coil Crankcase Heater Electricity Energy [J] !RunPeriod [Value,Min,Month,Day,Hour,Minute,Max,Month,Day,Hour,Minute]
1156,11,HEATING_RESISTANCE_BACKUP,Heating Coil Electricity Energy [J] !RunPeriod [Value,Min,Month,Day,Hour,Minute,Max,Month,Day,Hour,Minute]
13,11,Electricity:Facility [J] !RunPeriod [Value,Min,Month,Day,Hour,Minute,Max,Month,Day,Hour,Minute]
1134,11,Heating:Electricity [J] !RunPeriod [Value,Min,Month,Day,Hour,Minute,Max,Month,Day,Hour,Minute]
1096,11,Cooling:Electricity [J] !RunPeriod [Value,Min,Month,Day,Hour,Minute,Max,Month,Day,Hour,Minute]
562,11,Fans:Electricity [J] !RunPeriod [Value,Min,Month,Day,Hour,Minute,Max,Month,Day,Hour,Minute]
1388,11,Pumps:Electricity [J] !RunPeriod [Value,Min,Month,Day,Hour,Minute,Max,Month,Day,Hour,Minute]
1360,11,WaterSystems:Electricity [J] !RunPeriod [Value,Min,Month,Day,Hour,Minute,Max,Month,Day,Hour,Minute]
61,11,InteriorLights:Electricity [J] !RunPeriod [Value,Min,Month,Day,Hour,Minute,Max,Month,Day,Hour,Minute]
1046,11,ExteriorLights:Electricity [J] !RunPeriod [Value,Min,Month,Day,Hour,Minute,Max,Month,Day,Hour,Minute]
134,11,InteriorEquipment:Electricity [J] !RunPeriod [Value,Min,Month,Day,Hour,Minute,Max,Month,Day,Hour,Minute]
170,11,gas_dryer:InteriorEquipment:Electricity [J] !RunPeriod [Value,Min,Month,Day,Hour,Minute,Max,Month,Day,Hour,Minute]
207,11,clotheswasher:InteriorEquipment:Electricity [J] !RunPeriod [Value,Min,Month,Day,Hour,Minute,Max,Month,Day,Hour,Minute]
244,11,dishwasher:InteriorEquipment:Electricity [J] !RunPeriod [Value,Min,Month,Day,Hour,Minute,Max,Month,Day,Hour,Minute]
281,11,refrigerator:InteriorEquipment:Electricity [J] !RunPeriod [Value,Min,Month,Day,Hour,Minute,Max,Month,Day,Hour,Minute]
318,11,electric_mels:InteriorEquipment:Electricity [J] !RunPeriod [Value,Min,Month,Day,Hour,Minute,Max,Month,Day,Hour,Minute]
355,11,NaturalGas:Facility [J] !RunPeriod [Value,Min,Month,Day,Hour,Minute,Max,Month,Day,Hour,Minute]
1323,11,WaterSystems:NaturalGas [J] !RunPeriod [Value,Min,Month,Day,Hour,Minute,Max,Month,Day,Hour,Minute]
403,11,InteriorEquipment:NaturalGas [J] !RunPeriod [Value,Min,Month,Day,Hour,Minute,Max,Month,Day,Hour,Minute]
476,11,gas_dryer:InteriorEquipment:NaturalGas [J] !RunPeriod [Value,Min,Month,Day,Hour,Minute,Max,Month,Day,Hour,Minute]
513,11,gas_mels:InteriorEquipment:NaturalGas [J] !RunPeriod [Value,Min,Month,Day,Hour,Minute,Max,Month,Day,Hour,Minute]
End of Data Dictionary
1,EXTREME_WINTER,  29.62, -95.17,  -6.00,   9.80
5,7
1038,0.16666666666666666,0.0, 1,13, 1,10,0.16666666666666666, 1,16, 6,10
1039,0.0,0.0, 1,13, 1,10,0.0, 1,13, 1,10
581,0.2634874060841148,0.06326622524213897, 1,13, 2,55,0.6461550191742483, 1,13,21,60
582,3.9288266601732422,0.0, 1,16,23,45,12.228579663186359, 1,13, 6,55
583,4.982064914848173,0.00014386754412124103, 1,19,23,20,16.959704821107664, 1,13, 6,55
1115,341457539.7204188,0.0, 1,13, 1, 1,2150656.116958686, 1,16, 6,30
1128,99290518.42759128,0.0, 1,13, 1, 1,625712.5729431708, 1,16, 6,30
1153,5612531.728347038,0.0, 1,13, 1, 1,53396.39533473867, 1,15, 9,60
1154,70386878.03938043,0.0, 1,13, 1, 1,120000.0, 1,13,14,60
1156,0.0,0.0, 1,13, 1, 1,0.0, 1,13, 1, 1
13,607340889.5143738,106115.4183601288, 1,13, 4,10,1395772.5832168597, 1,16, 6,10
61,301924526.0238348,58759.40635443481, 1,13, 1,10,854682.2742463244, 1,13,20,10
134,70666020.44019979,42376.01200569399, 1,13, 4,10,104369.48322671017, 1,18,20,10
170,5241013.419656074,232.27731661587313, 1,13, 4,10,11650.931360040839, 1,18,12,10
207,6509451.13922266,543.5021409221355, 1,13, 3,10,15327.095199349082, 1,18,10,10
244,12749673.39982522,1014.5707620042115, 1,13, 4,10,35359.08742820678, 1,18,20,10
281,46165882.48149605,39959.06841621388, 1,13, 5,10,54634.54471212738, 1,13,19,10
318,0.0,0.0, 1,13, 1,10,0.0, 1,13, 1,10
355,739651895.2249075,12374.216038804521, 1,13, 4,10,3829218.154066982, 1,17,18,20
403,197687796.27748126,12374.216038804521, 1,13, 4,10,483183.26346918393, 1,18,18,10
476,106772067.24485692,4732.048419519677, 1,13, 4,10,237357.535085481, 1,18,12,10
513,0.0,0.0, 1,13, 1,10,0.0, 1,13, 1,10
562,15196131.906028254,0.0, 1,13, 1,10,85479.15163956245, 1,16, 6,10
1046,0.0,0.0, 1,13, 1,10,0.0, 1,13, 1,10
1096,39244442.94899217,0.0, 1,13, 1,10,392402.73576668854, 1,19,16,10
1134,175289928.19531885,0.0, 1,13, 1,10,892734.1085666447, 1,16, 6,10
1323,541964098.9474229,0.0, 1,13, 1,10,3375000.000000001, 1,13,17,10
1360,5019840.0,4980.0, 1,13, 1,30,4980.000000000001, 1,13, 1,10
1388,0.0,0.0, 1,13, 1,10,0.0, 1,13, 1,10
1,EXTREME_SUMMER,  29.62, -95.17,  -6.00,   9.80
5,7
1038,0.0,0.0, 7, 6, 1,10,0.0, 7, 6, 1,10
1039,57.333333333333336,0.0, 7, 6, 1,10,0.16666666666666666, 7, 6,14,40
581,0.06632133080490903,0.0, 7, 6, 1,10,0.3421602556869213, 7, 7,14,60
582,2.6236381074954047,0.022646161666636386, 7,12,22,25,8.931298241342159, 7, 9,15,55
583,3.1540292759181408,0.0, 7, 6,23, 2,11.206694659815096, 7, 7,13,60
1115,0.0,0.0, 7, 6, 1,10,0.0, 7, 6, 1,10
1128,0.0,0.0, 7, 6, 1,10,0.0, 7, 6, 1,10
1153,0.0,0.0, 7, 6, 1,10,0.0, 7, 6, 1,10
1154,0.0,0.0, 7, 6, 1,10,0.0, 7, 6, 1,10
1156,0.0,0.0, 7, 6, 1,10,0.0, 7, 6, 1,10
13,1183915873.2376912,293552.2740394286, 7, 9, 4,60,2157897.575794096, 7,12,20,10
61,301924526.0238348,58759.40635443481, 7, 6, 1,10,854682.2742463244, 7, 6,20,10
134,70666020.44019979,42376.01200569399, 7, 6, 4,10,104369.48322671017, 7,11,20,10
170,5241013.419656074,232.27731661587313, 7, 6, 4,10,11650.931360040839, 7,11,12,10
207,6509451.13922266,543.5021409221355, 7, 6, 3,10,15327.095199349082, 7,11,10,10
244,12749673.39982522,1014.5707620042115, 7, 6, 4,10,35359.08742820678, 7,11,20,10
281,46165882.48149605,39959.06841621388, 7, 6, 5,10,54634.54471212738, 7, 6,19,10
318,0.0,0.0, 7, 6, 1,10,0.0, 7, 6, 1,10
355,649561101.2928092,12374.216038804521, 7, 6, 4,10,3829218.154066982, 7,10,18,20
403,197687796.27748126,12374.216038804521, 7, 6, 4,10,483183.26346918393, 7,11,18,10
476,106772067.24485692,4732.048419519677, 7, 6, 4,10,237357.535085481, 7,11,12,10
513,0.0,0.0, 7, 6, 1,10,0.0, 7, 6, 1,10
562,70370849.98098859,18084.576417910037, 7, 9, 4,60,100235.94481396054, 7, 6,13,60
1046,0.0,0.0, 7, 6, 1,10,0.0, 7, 6, 1,10
1096,735934636.7926675,169352.2792613898, 7, 9, 4,60,1201968.751402377, 7,11,17,60
1134,0.0,0.0, 7, 6, 1,10,0.0, 7, 6, 1,10
1323,451873305.0153263,0.0, 7, 6, 1,10,3375000.000000001, 7, 6,16,50
1360,5019840.0,4980.0, 7, 6, 1,10,4980.000000000001, 7, 6, 7,40
1388,0.0,0.0, 7, 6, 1,10,0.0, 7, 6, 1,10
1,ANNUAL,  29.62, -95.17,  -6.00,   9.80
5,365
1038,0.6666666666666666,0.0, 1, 1, 1,10,0.16666666666666666, 1,16, 6,10
1039,1135.6666666666667,0.0, 1, 1, 1,10,0.16666666666666666, 2, 4,12,30
581,0.15427451238750262,0.0, 3, 2,18,50,0.851616518859488, 1,30,11,60
582,3.4818085210224785,0.0, 1, 6,21,45,22.317491931010352, 1, 9,15,60
583,4.2374385418431935,0.0, 3,17, 6, 7,25.109261426017916, 1, 9,15,60
1115,1213193045.6502829,0.0, 1, 1, 1, 2,2497417.1532253143,12, 7, 6,30
1128,347821441.23153913,0.0, 1, 1, 1, 2,769657.1017743044,12, 7, 6,30
1153,12298780.541198893,0.0, 1, 1, 1, 2,55323.09789087358, 1,15, 9,60
1154,462459996.5398028,0.0, 1, 1, 1, 2,120000.0, 1, 1,21,10
1156,1065201.1186989006,0.0, 1, 1, 1, 2,510095.5585446285,12, 7, 6, 3
13,44164268792.23247,106115.4183601288, 1, 9, 4,10,2215238.9427530416, 7,18,20,10
61,15743207428.39043,58759.40635443481, 1, 1, 1,10,854682.2742463244, 1, 1,20,10
134,3685071073.433083,42376.01200569399, 1, 2, 4,10,104369.48322671017, 1, 1,20,10
170,273393721.45534325,232.27731661587313, 1, 2, 4,10,11650.931360040839, 1, 1,12,10
207,339560869.06955314,543.5021409221355, 1, 2, 3,10,15327.095199349082, 1, 1,10,10
244,664895467.8009839,1014.5707620042115, 1, 2, 4,10,35359.08742820678, 1, 1,20,10
281,2407221015.1057043,39959.06841621388, 1, 1, 5,10,54634.54471212738, 1, 1,19,10
318,0.0,0.0, 1, 1, 1,10,0.0, 1, 1, 1,10
355,35598783933.864136,12374.216038804521, 1, 2, 4,10,3829218.154066983, 2,21,18,60
403,10310294493.052883,12374.216038804521, 1, 2, 4,10,483183.26346918393, 1, 1,18,10
476,5569688622.065564,4732.048419519677, 1, 2, 4,10,237357.535085481, 1, 1,12,10
513,0.0,0.0, 1, 1, 1,10,0.0, 1, 1, 1,10
562,2266872486.718076,0.0, 1, 1, 1,10,100235.94481396055, 4,28,17,40
1046,0.0,0.0, 1, 1, 1,10,0.0, 1, 1, 1,10
1096,21383723584.26506,0.0, 1, 1, 1,10,1257451.391879247, 7,25,16,60
1134,823645419.4312391,0.0, 1, 1, 1,10,1435378.6995693562,12, 7, 6,10
1323,25288489440.815342,0.0, 1, 1, 1,10,3375000.000000002, 1, 3,20,20
1360,261748800.0,4979.999999999998, 2, 3,10,30,4980.000000000002, 1, 8,19,60
1388,0.0,0.0, 1, 1, 1,10,0.0, 1, 1, 1,10
End of Data
 Number of Records Written=          87
