Program Version,EnergyPlus, Version 22.2.0-c249759bad, YMD=2023.08.31 13:10
1,5,Environment Title[],Latitude[deg],Longitude[deg],Time Zone[],Elevation[m]
2,8,Day of Simulation[],Month[],Day of Month[],DST Indicator[1=yes 0=no],Hour[],StartMinute[],EndMinute[],DayType
3,5,Cumulative Day of Simulation[],Month[],Day of Month[],DST Indicator[1=yes 0=no],DayType  ! When Daily Report Variables Requested
4,2,Cumulative Days of Simulation[],Month[]  ! When Monthly Report Variables Requested
5,1,Cumulative Days of Simulation[] ! When Run Period Report Variables Requested
6,1,Calendar Year of Simulation[] ! When Annual Report Variables Requested
581,11,LIVING,AFN Zone Infiltration Air Change Rate [ach] !RunPeriod [Value,Min,Month,Day,Hour,Minute,Max,Month,Day,Hour,Minute]
582,11,ATTIC,AFN Zone Infiltration Air Change Rate [ach] !RunPeriod [Value,Min,Month,Day,Hour,Minute,Max,Month,Day,Hour,Minute]
583,11,CRAWLSPACE,AFN Zone Infiltration Air Change Rate [ach] !RunPeriod [Value,Min,Month,Day,Hour,Minute,Max,Month,Day,Hour,Minute]
1038,11,Facility,Facility Heating Setpoint Not Met Time [hr] !RunPeriod [Value,Min,Month,Day,Hour,Minute,Max,Month,Day,Hour,Minute]
1039,11,Facility,Facility Cooling Setpoint Not Met Time [hr] !RunPeriod [Value,Min,Month,Day,Hour,Minute,Max,Month,Day,Hour,Minute]
1115,11,DX_HEATING_COIL,Heating Coil Heating Energy [J] !RunPeriod [Value,Min,Month,Day,Hour,Minute,Max,Month,Day,Hour,Minute]
1128,11,DX_HEATING_COIL,Heating Coil Electricity Energy [J] !RunPeriod [Value,Min,Month,Day,Hour,Minute,Max,Month,Day,Hour,Minute]
1153,11,DX_HEATING_COIL,Heating Coil Defrost Electricity Energy [J] !RunPeriod [Value,Min,Month,Day,Hour,Minute,Max,Month,Day,Hour,Minute]
1154,11,DX_HEATING_COIL,Heating Coil Crankcase Heater Electricity Energy [J] !RunPeriod [Value,Min,Month,Day,Hour,Minute,Max,Month,Day,Hour,Minute]
1155,11,HEATING_RESISTANCE_BACKUP,Heating Coil Heating Energy [J] !RunPeriod [Value,Min,Month,Day,Hour,Minute,Max,Month,Day,Hour,Minute]
1156,11,HEATING_RESISTANCE_BACKUP,Heating Coil Electricity Energy [J] !RunPeriod [Value,Min,Month,Day,Hour,Minute,Max,Month,Day,Hour,Minute]
1305,11,WATER HEATER,Water Heater Heating Energy [J] !RunPeriod [Value,Min,Month,Day,Hour,Minute,Max,Month,Day,Hour,Minute]
13,11,Electricity:Facility [J] !RunPeriod [Value,Min,Month,Day,Hour,Minute,Max,Month,Day,Hour,Minute]
1134,11,Heating:Electricity [J] !RunPeriod [Value,Min,Month,Day,Hour,Minute,Max,Month,Day,Hour,Minute]
1096,11,Cooling:Electricity [J] !RunPeriod [Value,Min,Month,Day,Hour,Minute,Max,Month,Day,Hour,Minute]
562,11,Fans:Electricity [J] !RunPeriod [Value,Min,Month,Day,Hour,Minute,Max,Month,Day,Hour,Minute]
1353,11,Pumps:Electricity [J] !RunPeriod [Value,Min,Month,Day,Hour,Minute,Max,Month,Day,Hour,Minute]
1324,11,WaterSystems:Electricity [J] !RunPeriod [Value,Min,Month,Day,Hour,Minute,Max,Month,Day,Hour,Minute]
61,11,InteriorLights:Electricity [J] !RunPeriod [Value,Min,Month,Day,Hour,Minute,Max,Month,Day,Hour,Minute]
1046,11,ExteriorLights:Electricity [J] !RunPeriod [Value,Min,Month,Day,Hour,Minute,Max,Month,Day,Hour,Minute]
134,11,InteriorEquipment:Electricity [J] !RunPeriod [Value,Min,Month,Day,Hour,Minute,Max,Month,Day,Hour,Minute]
170,11,gas_dryer:InteriorEquipment:Electricity [J] !RunPeriod [Value,Min,Month,Day,Hour,Minute,Max,Month,Day,Hour,Minute]
207,11,clotheswasher:InteriorEquipment:Electricity [J] !RunPeriod [Value,Min,Month,Day,Hour,Minute,Max,Month,Day,Hour,Minute]
244,11,dishwasher:InteriorEquipment:Electricity [J] !RunPeriod [Value,Min,Month,Day,Hour,Minute,Max,Month,Day,Hour,Minute]
281,11,refrigerator:InteriorEquipment:Electricity [J] !RunPeriod [Value,Min,Month,Day,Hour,Minute,Max,Month,Day,Hour,Minute]
318,11,electric_mels:InteriorEquipment:Electricity [J] !RunPeriod [Value,Min,Month,Day,Hour,Minute,Max,Month,Day,Hour,Minute]
355,11,NaturalGas:Facility [J] !RunPeriod [Value,Min,Month,Day,Hour,Minute,Max,Month,Day,Hour,Minute]
403,11,InteriorEquipment:NaturalGas [J] !RunPeriod [Value,Min,Month,Day,Hour,Minute,Max,Month,Day,Hour,Minute]
476,11,gas_dryer:InteriorEquipment:NaturalGas [J] !RunPeriod [Value,Min,Month,Day,Hour,Minute,Max,Month,Day,Hour,Minute]
513,11,gas_mels:InteriorEquipment:NaturalGas [J] !RunPeriod [Value,Min,Month,Day,Hour,Minute,Max,Month,Day,Hour,Minute]
End of Data Dictionary
1,EXTREME_WINTER,  47.45,-122.30,  -8.00, 137.00
5,7
1038,5.0,0.0, 1, 1, 1,15,0.25, 1, 3, 6,15
1039,0.0,0.0, 1, 1, 1,15,0.0, 1, 1, 1,15
581,0.2493810196694011,0.133967976881505, 1, 6, 6, 5,0.6196042965019836, 1, 7,14,60
582,2.7319997468135533,0.0, 1, 1,19,11,12.1474785537659, 1, 7,14,60
583,3.6176929414160863,0.00018205478226624095, 1, 1,18,50,16.84092378054118, 1, 7,14,60
1115,1235576010.4311597,0.0, 1, 1,13,20,3366928.2642970528, 1, 1, 5,45
1128,354599764.4601367,0.0, 1, 1,13,20,1031448.6555954246, 1, 1, 9,45
1153,13250591.290531563,0.0, 1, 1,13,20,106384.19122685194, 1, 5, 8,60
1154,57968204.429206654,0.0, 1, 1, 3,35,180000.0, 1, 1,14,15
1155,94637474.82148583,0.0, 1, 1, 1,15,2078959.756496405, 1, 3, 6,45
1156,94637474.82148583,0.0, 1, 1, 1,15,2078959.756496405, 1, 3, 6,45
1305,146283259.7832145,0.0, 1, 1, 1,15,4050000.000000001, 1, 1, 7,30
13,1081547672.8876173,459487.0388981225, 1, 1,15,15,7587093.574939913, 1, 1, 6,15
61,301924526.02383536,88139.10953165221, 1, 1, 1,15,1282023.4113694867, 1, 1,20,15
134,70666020.44019976,63564.01800854099, 1, 1, 4,15,156554.22484006523, 1, 6,20,15
170,5241013.419656067,348.4159749238097, 1, 1, 4,15,17476.39704006126, 1, 6,12,15
207,6509451.13922267,815.2532113832032, 1, 1, 3,15,22990.642799023623, 1, 6,10,15
244,12749673.399825225,1521.856143006317, 1, 1, 4,15,53038.631142310165, 1, 6,20,15
281,46165882.481495745,59938.60262432081, 1, 1, 5,15,81951.81706819107, 1, 1,19,15
318,0.0,0.0, 1, 1, 1,15,0.0, 1, 1, 1,15
355,197687796.27748066,18561.32405820678, 1, 1, 4,15,724774.895203776, 1, 6,18,15
403,197687796.27748066,18561.32405820678, 1, 1, 4,15,724774.895203776, 1, 6,18,15
476,106772067.24485716,7098.072629279515, 1, 1, 4,15,356036.3026282215, 1, 6,12,15
513,0.0,0.0, 1, 1, 1,15,0.0, 1, 1, 1,15
562,37197991.639008686,0.0, 1, 1,13,30,106494.15299152592, 1, 1, 3,45
1046,0.0,0.0, 1, 1, 1,15,0.0, 1, 1, 1,15
1096,0.0,0.0, 1, 1, 1,15,0.0, 1, 1, 1,15
1134,520456035.0013607,180000.0, 1, 1,13,30,3820128.84665634, 1, 3, 6,15
1324,151303099.78321448,7470.0, 1, 1, 1,45,4057470.000000001, 1, 1, 7,30
1353,0.0,0.0, 1, 1, 1,15,0.0, 1, 1, 1,15
1,EXTREME_SUMMER,  47.45,-122.30,  -8.00, 137.00
5,7
1038,0.0,0.0, 8, 5, 1,15,0.0, 8, 5, 1,15
1039,22.0,0.0, 8, 5, 1,15,0.25, 8, 6,18,30
581,0.17163852978973276,0.03305612247692928, 8,10,21,60,0.44747304796514875, 8, 5,18,52
582,3.375261984906341,0.0, 8, 5, 1,52,10.02073897894728, 8, 8,14,48
583,4.026344268794359,0.00011174142544230938, 8, 5, 1,52,11.984128588563077, 8, 5,19,35
1115,0.0,0.0, 8, 5, 1,15,0.0, 8, 5, 1,15
1128,0.0,0.0, 8, 5, 1,15,0.0, 8, 5, 1,15
1153,0.0,0.0, 8, 5, 1,15,0.0, 8, 5, 1,15
1154,0.0,0.0, 8, 5, 1,15,0.0, 8, 5, 1,15
1155,0.0,0.0, 8, 5, 1,15,0.0, 8, 5, 1,15
1156,0.0,0.0, 8, 5, 1,15,0.0, 8, 5, 1,15
1305,124788531.34912863,0.0, 8, 5, 1,15,3072878.9726854917, 8, 5, 6,15
13,788701796.9159217,159173.1275401932, 8, 5, 4,15,5850874.338055503, 8, 6,19,60
61,301924526.02383536,88139.10953165221, 8, 5, 1,15,1282023.4113694867, 8, 5,20,15
134,70666020.44019976,63564.01800854099, 8, 5, 4,15,156554.22484006523, 8,10,20,15
170,5241013.419656067,348.4159749238097, 8, 5, 4,15,17476.39704006126, 8,10,12,15
207,6509451.13922267,815.2532113832032, 8, 5, 3,15,22990.642799023623, 8,10,10,15
244,12749673.399825225,1521.856143006317, 8, 5, 4,15,53038.631142310165, 8,10,20,15
281,46165882.481495745,59938.60262432081, 8, 5, 5,15,81951.81706819107, 8, 5,19,15
318,0.0,0.0, 8, 5, 1,15,0.0, 8, 5, 1,15
355,197687796.27748066,18561.32405820678, 8, 5, 4,15,724774.895203776, 8,10,18,15
403,197687796.27748066,18561.32405820678, 8, 5, 4,15,724774.895203776, 8,10,18,15
476,106772067.24485716,7098.072629279515, 8, 5, 4,15,356036.3026282215, 8,10,12,15
513,0.0,0.0, 8, 5, 1,15,0.0, 8, 5, 1,15
562,30234475.19438727,0.0, 8, 5, 1,15,106494.15299152593, 8, 6,16,30
1046,0.0,0.0, 8, 5, 1,15,0.0, 8, 5, 1,15
1096,256068403.90837127,0.0, 8, 5, 1,15,1009908.7050317543, 8,11,17,60
1134,0.0,0.0, 8, 5, 1,15,0.0, 8, 5, 1,15
1324,129808371.34912859,7469.999999999999, 8, 5,11,45,4057470.0, 8, 5, 7,15
1353,0.0,0.0, 8, 5, 1,15,0.0, 8, 5, 1,15
1,ANNUAL,  47.45,-122.30,  -8.00, 137.00
5,365
1038,187.75,0.0, 1, 1, 1,15,0.25, 1, 3, 6,15
1039,268.75,0.0, 1, 1, 1,15,0.25, 2,22,15,30
581,0.23102533058609942,0.0, 7, 1,21,48,1.1603748209329405,12,14, 1,60
582,3.599292605935755,0.0, 1, 1,19,11,27.075113818549966,12,14, 1,60
583,4.429384451118182,0.0, 7, 1,23, 3,34.30578973922368,12,14, 1,60
1115,22319207484.453938,0.0, 1, 1,13,20,4735185.464426205, 2, 7, 2,15
1128,6016172295.76474,0.0, 1, 1,13,20,1123151.0620474988, 2, 7, 6,45
1153,217956293.11219954,0.0, 1, 1,13,20,115623.1115441108, 2, 5,14,30
1154,1730910008.6666117,0.0, 1, 1, 3,35,180000.0, 1, 1,14,30
1155,316411912.8379907,0.0, 1, 1, 1,15,2884239.1887482204,12,31, 6,45
1156,316411912.8379907,0.0, 1, 1, 1,15,2884239.1887482204,12,31, 6,45
1305,7190440864.979566,0.0, 1, 1, 1,15,4050000.000000002, 1,18, 9,15
13,40392584145.535866,159173.1275401932, 4, 4, 4,15,7924331.409864619, 1, 2, 6,15
61,15743207428.383959,88139.10953165221, 1, 1, 1,15,1282023.4113694867, 1, 1,20,15
134,3685071073.4325233,63564.01800854099, 1, 2, 4,15,156554.22484006523, 1, 1,20,15
170,273393721.45532674,348.4159749238097, 1, 2, 4,15,17476.39704006126, 1, 1,12,15
207,339560869.0695816,815.2532113832032, 1, 2, 3,15,22990.642799023623, 1, 1,10,15
244,664895467.8009144,1521.856143006317, 1, 2, 4,15,53038.631142310165, 1, 1,20,15
281,2407221015.106824,59938.60262432081, 1, 1, 5,15,81951.81706819107, 1, 1,19,15
318,0.0,0.0, 1, 1, 1,15,0.0, 1, 1, 1,15
355,10310294493.051695,18561.32405820678, 1, 2, 4,15,724774.895203776, 1, 1,18,15
403,10310294493.051695,18561.32405820678, 1, 2, 4,15,724774.895203776, 1, 1,18,15
476,5569688622.066177,7098.072629279515, 1, 2, 4,15,356036.3026282215, 1, 1,12,15
513,0.0,0.0, 1, 1, 1,15,0.0, 1, 1, 1,15
562,1120047736.0211189,0.0, 1, 1,13,30,106494.15299152593, 5,16,19,15
1046,0.0,0.0, 1, 1, 1,15,0.0, 1, 1, 1,15
1096,4110617732.335144,0.0, 1, 1, 1,15,1101084.323191863, 8, 1,17,60
1134,8281450510.381524,0.0, 1,13,23,15,4404651.741271892,12,31, 6,15
1324,7452189664.979556,7469.999999999999, 1,26,12,45,4057470.000000002, 2,27, 7,15
1353,0.0,0.0, 1, 1, 1,15,0.0, 1, 1, 1,15
End of Data
 Number of Records Written=          90
