Program Version,EnergyPlus, Version 22.2.0-c249759bad, YMD=2023.09.01 20:46
1,5,Environment Title[],Latitude[deg],Longitude[deg],Time Zone[],Elevation[m]
2,8,Day of Simulation[],Month[],Day of Month[],DST Indicator[1=yes 0=no],Hour[],StartMinute[],EndMinute[],DayType
3,5,Cumulative Day of Simulation[],Month[],Day of Month[],DST Indicator[1=yes 0=no],DayType  ! When Daily Report Variables Requested
4,2,Cumulative Days of Simulation[],Month[]  ! When Monthly Report Variables Requested
5,1,Cumulative Days of Simulation[] ! When Run Period Report Variables Requested
6,1,Calendar Year of Simulation[] ! When Annual Report Variables Requested
581,11,LIVING,AFN Zone Infiltration Air Change Rate [ach] !RunPeriod [Value,Min,Month,Day,Hour,Minute,Max,Month,Day,Hour,Minute]
582,11,ATTIC,AFN Zone Infiltration Air Change Rate [ach] !RunPeriod [Value,Min,Month,Day,Hour,Minute,Max,Month,Day,Hour,Minute]
583,11,CRAWLSPACE,AFN Zone Infiltration Air Change Rate [ach] !RunPeriod [Value,Min,Month,Day,Hour,Minute,Max,Month,Day,Hour,Minute]
1038,11,Facility,Facility Heating Setpoint Not Met Time [hr] !RunPeriod [Value,Min,Month,Day,Hour,Minute,Max,Month,Day,Hour,Minute]
1039,11,Facility,Facility Cooling Setpoint Not Met Time [hr] !RunPeriod [Value,Min,Month,Day,Hour,Minute,Max,Month,Day,Hour,Minute]
1115,11,DX_HEATING_COIL,Heating Coil Heating Energy [J] !RunPeriod [Value,Min,Month,Day,Hour,Minute,Max,Month,Day,Hour,Minute]
1128,11,DX_HEATING_COIL,Heating Coil Electricity Energy [J] !RunPeriod [Value,Min,Month,Day,Hour,Minute,Max,Month,Day,Hour,Minute]
1153,11,DX_HEATING_COIL,Heating Coil Defrost Electricity Energy [J] !RunPeriod [Value,Min,Month,Day,Hour,Minute,Max,Month,Day,Hour,Minute]
1154,11,DX_HEATING_COIL,Heating Coil Crankcase Heater Electricity Energy [J] !RunPeriod [Value,Min,Month,Day,Hour,Minute,Max,Month,Day,Hour,Minute]
1155,11,HEATING_RESISTANCE_BACKUP,Heating Coil Heating Energy [J] !RunPeriod [Value,Min,Month,Day,Hour,Minute,Max,Month,Day,Hour,Minute]
1156,11,HEATING_RESISTANCE_BACKUP,Heating Coil Electricity Energy [J] !RunPeriod [Value,Min,Month,Day,Hour,Minute,Max,Month,Day,Hour,Minute]
1292,11,WATER HEATER,Water Heater Heat Loss Energy [J] !RunPeriod [Value,Min,Month,Day,Hour,Minute,Max,Month,Day,Hour,Minute]
1306,11,WATER HEATER,Water Heater Heating Energy [J] !RunPeriod [Value,Min,Month,Day,Hour,Minute,Max,Month,Day,Hour,Minute]
1307,11,WATER HEATER,Water Heater Unmet Demand Heat Transfer Energy [J] !RunPeriod [Value,Min,Month,Day,Hour,Minute,Max,Month,Day,Hour,Minute]
1308,11,WATER HEATER,Water Heater Electricity Energy [J] !RunPeriod [Value,Min,Month,Day,Hour,Minute,Max,Month,Day,Hour,Minute]
13,11,Electricity:Facility [J] !RunPeriod [Value,Min,Month,Day,Hour,Minute,Max,Month,Day,Hour,Minute]
1134,11,Heating:Electricity [J] !RunPeriod [Value,Min,Month,Day,Hour,Minute,Max,Month,Day,Hour,Minute]
1096,11,Cooling:Electricity [J] !RunPeriod [Value,Min,Month,Day,Hour,Minute,Max,Month,Day,Hour,Minute]
562,11,Fans:Electricity [J] !RunPeriod [Value,Min,Month,Day,Hour,Minute,Max,Month,Day,Hour,Minute]
1379,11,Pumps:Electricity [J] !RunPeriod [Value,Min,Month,Day,Hour,Minute,Max,Month,Day,Hour,Minute]
1326,11,WaterSystems:Electricity [J] !RunPeriod [Value,Min,Month,Day,Hour,Minute,Max,Month,Day,Hour,Minute]
61,11,InteriorLights:Electricity [J] !RunPeriod [Value,Min,Month,Day,Hour,Minute,Max,Month,Day,Hour,Minute]
1046,11,ExteriorLights:Electricity [J] !RunPeriod [Value,Min,Month,Day,Hour,Minute,Max,Month,Day,Hour,Minute]
134,11,InteriorEquipment:Electricity [J] !RunPeriod [Value,Min,Month,Day,Hour,Minute,Max,Month,Day,Hour,Minute]
170,11,gas_dryer:InteriorEquipment:Electricity [J] !RunPeriod [Value,Min,Month,Day,Hour,Minute,Max,Month,Day,Hour,Minute]
207,11,clotheswasher:InteriorEquipment:Electricity [J] !RunPeriod [Value,Min,Month,Day,Hour,Minute,Max,Month,Day,Hour,Minute]
244,11,dishwasher:InteriorEquipment:Electricity [J] !RunPeriod [Value,Min,Month,Day,Hour,Minute,Max,Month,Day,Hour,Minute]
281,11,refrigerator:InteriorEquipment:Electricity [J] !RunPeriod [Value,Min,Month,Day,Hour,Minute,Max,Month,Day,Hour,Minute]
318,11,electric_mels:InteriorEquipment:Electricity [J] !RunPeriod [Value,Min,Month,Day,Hour,Minute,Max,Month,Day,Hour,Minute]
355,11,NaturalGas:Facility [J] !RunPeriod [Value,Min,Month,Day,Hour,Minute,Max,Month,Day,Hour,Minute]
403,11,InteriorEquipment:NaturalGas [J] !RunPeriod [Value,Min,Month,Day,Hour,Minute,Max,Month,Day,Hour,Minute]
476,11,gas_dryer:InteriorEquipment:NaturalGas [J] !RunPeriod [Value,Min,Month,Day,Hour,Minute,Max,Month,Day,Hour,Minute]
513,11,gas_mels:InteriorEquipment:NaturalGas [J] !RunPeriod [Value,Min,Month,Day,Hour,Minute,Max,Month,Day,Hour,Minute]
End of Data Dictionary
1,EXTREME_WINTER,  45.60,-122.61,  -8.00,  12.00
5,15
1038,0.5,0.0,12,22, 1,15,0.25,12,22, 6,15
1039,0.0,0.0,12,22, 1,15,0.0,12,22, 1,15
581,0.3491000558092816,0.16494608798787774, 1, 5,23,22,0.8016268731837081,12,26,11,60
582,6.030712319370165,0.0,12,29,24,60,19.366010188232192, 1, 1, 2,60
583,0.033557156368808155,0.0002903227889657266, 1, 5,23,15,0.08239419596146556, 1, 1, 6,15
1115,2785135534.916803,0.0,12,22,16,15,4888435.042315059, 1, 1, 6,45
1128,846255758.6733829,0.0,12,22,16,15,1498789.6806841977, 1, 1, 6,45
1153,32893198.931933623,0.0,12,22,13,15,115337.04027152673,12,30, 6,60
1154,154393864.49193138,0.0,12,22, 6, 5,180000.0,12,22,16,15
1155,17395466.32869194,0.0,12,22, 1,15,1126559.1033676884,12,30, 6, 5
1156,17395466.32869194,0.0,12,22, 1,15,1126559.1033676884,12,30, 6, 5
1292,-54207163.250165,-39810.33056432828,12,22, 1,15,-6146.796239188241, 1, 2,14,50
1306,535840776.61946046,0.0,12,22, 1,15,4050000.0,12,22, 8,45
1307,168824081.65360773,0.0,12,22, 1,15,12826432.33159228, 1, 5, 8,30
1308,535840776.61946046,0.0,12,22, 1,15,4050000.0,12,22, 8,45
13,2470224699.5659394,452017.0388981225, 1, 2,15,15,6615636.3003064785,12,31, 8,30
61,646981127.1939323,88139.10953165221,12,22, 1,15,1282023.4113694867,12,22,20,15
134,151290040.75163814,63564.01800854099,12,22, 4,15,156554.22484006523,12,27,20,15
170,11185820.069951689,348.4159749238097,12,22, 4,15,17476.39704006126,12,27,12,15
207,13893028.5742839,815.2532113832032,12,22, 3,15,22990.642799023623,12,27,10,15
244,27284301.07562584,1521.856143006317,12,22, 4,15,53038.631142310165,12,27,20,15
281,98926891.03177746,59938.60262432081,12,22, 5,15,81951.81706819107,12,22,19,15
318,0.0,0.0,12,22, 1,15,0.0,12,22, 1,15
355,422701517.16107386,18561.32405820678,12,22, 4,15,724774.895203776,12,27,18,15
403,422701517.16107386,18561.32405820678,12,22, 4,15,724774.895203776,12,27,18,15
476,227882097.80545202,7098.072629279515,12,22, 4,15,356036.3026282215,12,27,12,15
513,0.0,0.0,12,22, 1,15,0.0,12,22, 1,15
562,85174466.57496946,0.0,12,22,16,15,146902.98619484826,12,31, 6,15
1046,0.0,0.0,12,22, 1,15,0.0,12,22, 1,15
1096,0.0,0.0,12,22, 1,15,0.0,12,22, 1,15
1134,1050938288.4259392,180000.0,12,22,16,15,2929894.387075054,12,31, 6,15
1326,535840776.6194605,0.0,12,22, 1,15,4050000.0,12,22, 8,45
1379,0.0,0.0,12,22, 1,15,0.0,12,22, 1,15
1,EXTREME_SUMMER,  45.60,-122.61,  -8.00,  12.00
5,7
1038,0.0,0.0, 7,20, 1,15,0.0, 7,20, 1,15
1039,23.5,0.0, 7,20, 1,15,0.25, 7,20,17,60
581,0.15873841237870354,0.0, 7,21, 6, 7,0.42908018586545693, 7,25,21,52
582,4.014764291600782,0.0682612128517604, 7,23, 8,15,10.33291676703329, 7,26,18,47
583,0.0398101127126273,0.00006817402899138377, 7,21, 6,11,0.07884338286056326, 7,25, 6, 3
1115,0.0,0.0, 7,20, 1, 7,0.0, 7,20, 1, 7
1128,0.0,0.0, 7,20, 1, 7,0.0, 7,20, 1, 7
1153,0.0,0.0, 7,20, 1, 7,0.0, 7,20, 1, 7
1154,0.0,0.0, 7,20, 1, 7,0.0, 7,20, 1, 7
1155,0.0,0.0, 7,20, 1, 7,0.0, 7,20, 1, 7
1156,0.0,0.0, 7,20, 1, 7,0.0, 7,20, 1, 7
1292,-21939551.54069614,-34327.2239384081, 7,22,18,30,-3061.92059045872, 7,20, 8,32
1306,207533836.3396739,0.0, 7,20, 1, 7,4050000.0, 7,22, 8,15
1307,52904739.17300644,0.0, 7,20, 1, 7,6002081.55460911, 7,26,10,30
1308,207533836.3396739,0.0, 7,20, 1, 7,4050000.0, 7,22, 8,15
13,1146380147.2322826,151703.1275401932, 7,20, 4,60,6731468.717235655, 7,20,18,30
61,301924526.02383536,88139.10953165221, 7,20, 1,15,1282023.4113694867, 7,20,20,15
134,70666020.44019976,63564.01800854099, 7,20, 4,15,156554.22484006523, 7,25,20,15
170,5241013.419656067,348.4159749238097, 7,20, 4,15,17476.39704006126, 7,25,12,15
207,6509451.13922267,815.2532113832032, 7,20, 3,15,22990.642799023623, 7,25,10,15
244,12749673.399825225,1521.856143006317, 7,20, 4,15,53038.631142310165, 7,25,20,15
281,46165882.481495745,59938.60262432081, 7,20, 5,15,81951.81706819107, 7,20,19,15
318,0.0,0.0, 7,20, 1,15,0.0, 7,20, 1,15
355,197687796.27748066,18561.32405820678, 7,20, 4,15,724774.895203776, 7,25,18,15
403,197687796.27748066,18561.32405820678, 7,20, 4,15,724774.895203776, 7,25,18,15
476,106772067.24485716,7098.072629279515, 7,20, 4,15,356036.3026282215, 7,25,12,15
513,0.0,0.0, 7,20, 1,15,0.0, 7,20, 1,15
562,51751299.04758957,0.0, 7,20, 4,60,146902.98619484826, 7,20,18,45
1046,0.0,0.0, 7,20, 1,15,0.0, 7,20, 1,15
1096,514504465.3809818,0.0, 7,20, 4,60,1815575.790681923, 7,21,15,60
1134,0.0,0.0, 7,20, 1,15,0.0, 7,20, 1,15
1326,207533836.3396739,0.0, 7,20, 1,15,4050000.0, 7,20, 8,45
1379,0.0,0.0, 7,20, 1,15,0.0, 7,20, 1,15
1,ANNUAL,  45.60,-122.61,  -8.00,  12.00
5,365
1038,6.0,0.0, 1, 1, 1,15,0.25, 1, 9, 6,15
1039,126.25,0.0, 1, 1, 1,15,0.25, 2,11,17,15
581,0.23190779496735425,0.0, 7,21, 6, 7,0.9698331540172207,12,18, 4,60
582,3.8647869101694594,0.0, 1, 2, 2,60,33.830748232607235,12,18, 4,52
583,0.018464510689575237,0.0, 8, 5,23, 3,0.09162740086344819, 4, 7, 6, 3
1115,12595289057.583076,0.0, 1, 1,23, 3,4965007.436895194, 1,11, 6,45
1128,3661611815.6538377,0.0, 1, 1,23, 3,1507294.2025274849, 1,11, 6,45
1153,163018311.87366688,0.0, 1, 1,23, 3,135090.07129078446,12,18, 6,45
1154,1970480214.850831,0.0, 1, 1, 6, 5,180000.0, 1, 2,14,15
1155,22804601.248897735,0.0, 1, 1, 1,15,1126559.1033676884, 1, 1, 6, 5
1156,22804601.248897735,0.0, 1, 1, 1,15,1126559.1033676884, 1, 1, 6, 5
1292,-1223900343.0602312,-39803.24500036888,12,22,24,45,-2140.8089526916847, 3,12,10,31
1306,12006416533.21923,0.0, 1, 1, 1,15,4050000.0, 1, 1,10,30
1307,3459321472.102496,0.0, 1, 1, 1,15,13110447.422783561, 2, 6, 8,30
1308,12006416533.21923,0.0, 1, 1, 1,15,4050000.0, 1, 1,10,30
13,45089647754.69712,151703.1275401932, 3,14, 4,15,6780143.170241911, 7,24,18,30
61,15743207428.383959,88139.10953165221, 1, 1, 1,15,1282023.4113694867, 1, 1,20,15
134,3685071073.4325233,63564.01800854099, 1, 2, 4,15,156554.22484006523, 1, 1,20,15
170,273393721.45532674,348.4159749238097, 1, 2, 4,15,17476.39704006126, 1, 1,12,15
207,339560869.0695816,815.2532113832032, 1, 2, 3,15,22990.642799023623, 1, 1,10,15
244,664895467.8009144,1521.856143006317, 1, 2, 4,15,53038.631142310165, 1, 1,20,15
281,2407221015.106824,59938.60262432081, 1, 1, 5,15,81951.81706819107, 1, 1,19,15
318,0.0,0.0, 1, 1, 1,15,0.0, 1, 1, 1,15
355,10310294493.051695,18561.32405820678, 1, 2, 4,15,724774.895203776, 1, 1,18,15
403,10310294493.051695,18561.32405820678, 1, 2, 4,15,724774.895203776, 1, 1,18,15
476,5569688622.066177,7098.072629279515, 1, 2, 4,15,356036.3026282215, 1, 1,12,15
513,0.0,0.0, 1, 1, 1,15,0.0, 1, 1, 1,15
562,1129702282.356903,0.0, 1, 2,13,45,146902.98619484826, 6,19,17,30
1046,0.0,0.0, 1, 1, 1,15,0.0, 1, 1, 1,15
1096,6707335493.675154,0.0, 1, 1, 1,15,1815830.1040821252, 7,21,15,60
1134,5817914943.627206,0.0, 1,12,20,60,2957798.710383199,12,31, 6,15
1326,12006416533.219263,0.0, 1, 1, 1,15,4050000.0000000014, 3,12,10,60
1379,0.0,0.0, 1, 1, 1,15,0.0, 1, 1, 1,15
End of Data
 Number of Records Written=          99
