Program Version,EnergyPlus, Version 22.2.0-c249759bad, YMD=2023.09.01 20:39
1,5,Environment Title[],Latitude[deg],Longitude[deg],Time Zone[],Elevation[m]
2,8,Day of Simulation[],Month[],Day of Month[],DST Indicator[1=yes 0=no],Hour[],StartMinute[],EndMinute[],DayType
3,5,Cumulative Day of Simulation[],Month[],Day of Month[],DST Indicator[1=yes 0=no],DayType  ! When Daily Report Variables Requested
4,2,Cumulative Days of Simulation[],Month[]  ! When Monthly Report Variables Requested
5,1,Cumulative Days of Simulation[] ! When Run Period Report Variables Requested
6,1,Calendar Year of Simulation[] ! When Annual Report Variables Requested
581,11,LIVING,AFN Zone Infiltration Air Change Rate [ach] !RunPeriod [Value,Min,Month,Day,Hour,Minute,Max,Month,Day,Hour,Minute]
582,11,ATTIC,AFN Zone Infiltration Air Change Rate [ach] !RunPeriod [Value,Min,Month,Day,Hour,Minute,Max,Month,Day,Hour,Minute]
583,11,CRAWLSPACE,AFN Zone Infiltration Air Change Rate [ach] !RunPeriod [Value,Min,Month,Day,Hour,Minute,Max,Month,Day,Hour,Minute]
1038,11,Facility,Facility Heating Setpoint Not Met Time [hr] !RunPeriod [Value,Min,Month,Day,Hour,Minute,Max,Month,Day,Hour,Minute]
1039,11,Facility,Facility Cooling Setpoint Not Met Time [hr] !RunPeriod [Value,Min,Month,Day,Hour,Minute,Max,Month,Day,Hour,Minute]
1115,11,DX_HEATING_COIL,Heating Coil Heating Energy [J] !RunPeriod [Value,Min,Month,Day,Hour,Minute,Max,Month,Day,Hour,Minute]
1128,11,DX_HEATING_COIL,Heating Coil Electricity Energy [J] !RunPeriod [Value,Min,Month,Day,Hour,Minute,Max,Month,Day,Hour,Minute]
1153,11,DX_HEATING_COIL,Heating Coil Defrost Electricity Energy [J] !RunPeriod [Value,Min,Month,Day,Hour,Minute,Max,Month,Day,Hour,Minute]
1154,11,DX_HEATING_COIL,Heating Coil Crankcase Heater Electricity Energy [J] !RunPeriod [Value,Min,Month,Day,Hour,Minute,Max,Month,Day,Hour,Minute]
1155,11,HEATING_RESISTANCE_BACKUP,Heating Coil Heating Energy [J] !RunPeriod [Value,Min,Month,Day,Hour,Minute,Max,Month,Day,Hour,Minute]
1156,11,HEATING_RESISTANCE_BACKUP,Heating Coil Electricity Energy [J] !RunPeriod [Value,Min,Month,Day,Hour,Minute,Max,Month,Day,Hour,Minute]
1292,11,WATER HEATER,Water Heater Heat Loss Energy [J] !RunPeriod [Value,Min,Month,Day,Hour,Minute,Max,Month,Day,Hour,Minute]
1306,11,WATER HEATER,Water Heater Heating Energy [J] !RunPeriod [Value,Min,Month,Day,Hour,Minute,Max,Month,Day,Hour,Minute]
1307,11,WATER HEATER,Water Heater Unmet Demand Heat Transfer Energy [J] !RunPeriod [Value,Min,Month,Day,Hour,Minute,Max,Month,Day,Hour,Minute]
1308,11,WATER HEATER,Water Heater Electricity Energy [J] !RunPeriod [Value,Min,Month,Day,Hour,Minute,Max,Month,Day,Hour,Minute]
13,11,Electricity:Facility [J] !RunPeriod [Value,Min,Month,Day,Hour,Minute,Max,Month,Day,Hour,Minute]
1134,11,Heating:Electricity [J] !RunPeriod [Value,Min,Month,Day,Hour,Minute,Max,Month,Day,Hour,Minute]
1096,11,Cooling:Electricity [J] !RunPeriod [Value,Min,Month,Day,Hour,Minute,Max,Month,Day,Hour,Minute]
562,11,Fans:Electricity [J] !RunPeriod [Value,Min,Month,Day,Hour,Minute,Max,Month,Day,Hour,Minute]
1379,11,Pumps:Electricity [J] !RunPeriod [Value,Min,Month,Day,Hour,Minute,Max,Month,Day,Hour,Minute]
1326,11,WaterSystems:Electricity [J] !RunPeriod [Value,Min,Month,Day,Hour,Minute,Max,Month,Day,Hour,Minute]
61,11,InteriorLights:Electricity [J] !RunPeriod [Value,Min,Month,Day,Hour,Minute,Max,Month,Day,Hour,Minute]
1046,11,ExteriorLights:Electricity [J] !RunPeriod [Value,Min,Month,Day,Hour,Minute,Max,Month,Day,Hour,Minute]
134,11,InteriorEquipment:Electricity [J] !RunPeriod [Value,Min,Month,Day,Hour,Minute,Max,Month,Day,Hour,Minute]
170,11,gas_dryer:InteriorEquipment:Electricity [J] !RunPeriod [Value,Min,Month,Day,Hour,Minute,Max,Month,Day,Hour,Minute]
207,11,clotheswasher:InteriorEquipment:Electricity [J] !RunPeriod [Value,Min,Month,Day,Hour,Minute,Max,Month,Day,Hour,Minute]
244,11,dishwasher:InteriorEquipment:Electricity [J] !RunPeriod [Value,Min,Month,Day,Hour,Minute,Max,Month,Day,Hour,Minute]
281,11,refrigerator:InteriorEquipment:Electricity [J] !RunPeriod [Value,Min,Month,Day,Hour,Minute,Max,Month,Day,Hour,Minute]
318,11,electric_mels:InteriorEquipment:Electricity [J] !RunPeriod [Value,Min,Month,Day,Hour,Minute,Max,Month,Day,Hour,Minute]
355,11,NaturalGas:Facility [J] !RunPeriod [Value,Min,Month,Day,Hour,Minute,Max,Month,Day,Hour,Minute]
403,11,InteriorEquipment:NaturalGas [J] !RunPeriod [Value,Min,Month,Day,Hour,Minute,Max,Month,Day,Hour,Minute]
476,11,gas_dryer:InteriorEquipment:NaturalGas [J] !RunPeriod [Value,Min,Month,Day,Hour,Minute,Max,Month,Day,Hour,Minute]
513,11,gas_mels:InteriorEquipment:NaturalGas [J] !RunPeriod [Value,Min,Month,Day,Hour,Minute,Max,Month,Day,Hour,Minute]
End of Data Dictionary
1,EXTREME_WINTER,  41.15,-104.82,  -7.00,1872.00
5,7
1038,0.75,0.0,12,22, 1,15,0.25,12,26, 6,15
1039,0.0,0.0,12,22, 1,15,0.0,12,22, 1,15
581,0.4732313370223058,0.21839927420519045,12,22,23,22,0.9931152521750203,12,25,23,52
582,6.59875730884817,0.0,12,25, 7,60,24.997706295369433,12,23,24,60
583,0.06490143870222165,0.0006515036725466922,12,28,17,20,0.10014293214983808,12,25,23,52
1115,1851347336.640887,0.0,12,22,14,15,4325699.53817893,12,23, 8,45
1128,685917498.6164623,0.0,12,22,14,15,1485436.063478641,12,23, 8,45
1153,7423685.310590725,0.0,12,22,14,15,46758.68453843407,12,25,21,60
1154,32861498.948252816,0.0,12,22, 6, 5,180000.0,12,22,14,15
1155,743290022.6943445,0.0,12,22, 1,15,5815343.662014213,12,27, 6,45
1156,743290022.6943445,0.0,12,22, 1,15,5815343.662014213,12,27, 6,45
1292,-25374530.369427163,-39770.50656608863,12,22, 1,15,-6050.641286882367,12,27,11,12
1306,235476212.40945035,0.0,12,22, 1,15,4050000.0,12,22, 7,60
1307,42797771.75877516,0.0,12,22, 1,15,6526650.266854484,12,28,19,60
1308,235476212.40945035,0.0,12,22, 1,15,4050000.0,12,22, 7,60
13,2154347554.3738403,452017.0388981225,12,22,15,15,10825884.753617022,12,26, 7,15
61,301924526.02383536,88139.10953165221,12,22, 1,15,1282023.4113694867,12,22,20,15
134,70666020.44019976,63564.01800854099,12,22, 4,15,156554.22484006523,12,27,20,15
170,5241013.419656067,348.4159749238097,12,22, 4,15,17476.39704006126,12,27,12,15
207,6509451.13922267,815.2532113832032,12,22, 3,15,22990.642799023623,12,27,10,15
244,12749673.399825225,1521.856143006317,12,22, 4,15,53038.631142310165,12,27,20,15
281,46165882.481495745,59938.60262432081,12,22, 5,15,81951.81706819107,12,22,19,15
318,0.0,0.0,12,22, 1,15,0.0,12,22, 1,15
355,197687796.27748066,18561.32405820678,12,22, 4,15,724774.895203776,12,27,18,15
403,197687796.27748066,18561.32405820678,12,22, 4,15,724774.895203776,12,27,18,15
476,106772067.24485716,7098.072629279515,12,22, 4,15,356036.3026282215,12,27,12,15
513,0.0,0.0,12,22, 1,15,0.0,12,22, 1,15
562,76788089.9307069,0.0,12,22,14,15,157030.15671753834,12,23, 6,30
1046,0.0,0.0,12,22, 1,15,0.0,12,22, 1,15
1096,0.0,0.0,12,22, 1,15,0.0,12,22, 1,15
1134,1469492705.5696492,180000.0,12,22,14,15,7331360.735035287,12,26, 6,15
1326,235476212.4094503,0.0,12,22, 1,15,4050000.0,12,22, 7,60
1379,0.0,0.0,12,22, 1,15,0.0,12,22, 1,15
1,EXTREME_SUMMER,  41.15,-104.82,  -7.00,1872.00
5,7
1038,0.0,0.0, 7,27, 1,15,0.0, 7,27, 1,15
1039,0.0,0.0, 7,27, 1,15,0.0, 7,27, 1,15
581,0.2045424550886868,0.01951152257734513, 7,31, 7,46,0.50594536096431, 7,29,19,50
582,4.236969923809284,0.021233441623114187, 7,31, 3,40,10.600903442059773, 8, 1,18,48
583,0.02926518615500343,0.0002980092233061485, 8, 1, 3,60,0.0740076610389437, 7,30,17,18
1115,0.0,0.0, 7,27, 1,15,0.0, 7,27, 1,15
1128,0.0,0.0, 7,27, 1,15,0.0, 7,27, 1,15
1153,0.0,0.0, 7,27, 1,15,0.0, 7,27, 1,15
1154,0.0,0.0, 7,27, 1,15,0.0, 7,27, 1,15
1155,0.0,0.0, 7,27, 1,15,0.0, 7,27, 1,15
1156,0.0,0.0, 7,27, 1,15,0.0, 7,27, 1,15
1292,-22168878.651825275,-34342.221415642314, 8, 1,22,30,-2688.755504496485, 7,31, 8,60
1306,194825283.29655796,0.0, 7,27, 1,15,3246421.0434213486, 7,29, 6,45
1307,25377373.58489976,0.0, 7,27, 1,15,3296865.2925438927, 8, 2,19,55
1308,194825283.29655796,0.0, 7,27, 1,15,3246421.0434213486, 7,29, 6,45
13,930459731.6080588,151703.1275401932, 7,27, 4,15,6475359.402182154, 7,30,19,45
61,301924526.02383536,88139.10953165221, 7,27, 1,15,1282023.4113694867, 7,27,20,15
134,70666020.44019976,63564.01800854099, 7,27, 4,15,156554.22484006523, 8, 1,20,15
170,5241013.419656067,348.4159749238097, 7,27, 4,15,17476.39704006126, 8, 1,12,15
207,6509451.13922267,815.2532113832032, 7,27, 3,15,22990.642799023623, 8, 1,10,15
244,12749673.399825225,1521.856143006317, 7,27, 4,15,53038.631142310165, 8, 1,20,15
281,46165882.481495745,59938.60262432081, 7,27, 5,15,81951.81706819107, 7,27,19,15
318,0.0,0.0, 7,27, 1,15,0.0, 7,27, 1,15
355,197687796.27748066,18561.32405820678, 7,27, 4,15,724774.895203776, 8, 1,18,15
403,197687796.27748066,18561.32405820678, 7,27, 4,15,724774.895203776, 8, 1,18,15
476,106772067.24485716,7098.072629279515, 7,27, 4,15,356036.3026282215, 8, 1,12,15
513,0.0,0.0, 7,27, 1,15,0.0, 7,27, 1,15
562,37912036.851043604,0.0, 7,27, 1,60,153513.5729009567, 7,30,17,30
1046,0.0,0.0, 7,27, 1,15,0.0, 7,27, 1,15
1096,325131864.9964222,0.0, 7,27, 1,60,1493367.835748357, 7,30,17,15
1134,0.0,0.0, 7,27, 1,15,0.0, 7,27, 1,15
1326,194825283.29655796,0.0, 7,27, 1,15,4050000.0, 7,28,20,30
1379,0.0,0.0, 7,27, 1,15,0.0, 7,27, 1,15
1,ANNUAL,  41.15,-104.82,  -7.00,1872.00
5,365
1038,7.75,0.0, 1, 1, 1,15,0.25, 1, 5, 6,15
1039,8.5,0.0, 1, 1, 1,15,0.25, 6,10,10,30
581,0.3568510005914681,0.008056592560427935, 8,22,23,20,1.3882952798163954, 3,22,14,60
582,6.8748290181313045,0.0, 1, 2,23,52,43.022717508553555, 2, 7,14,60
583,0.030032094359776825,0.00004598547232265423, 5,30, 7,60,0.10731589093470616, 4,23,22,60
1115,34210475505.07046,0.0, 1, 1,23, 3,5279816.910139593, 1,12, 6,45
1128,11265627057.898067,0.0, 1, 1,23, 3,1554876.9706626188, 1,13, 8,45
1153,273132993.0797403,0.0, 1, 1,23, 3,139996.1404593436, 3,18, 6,30
1154,2168827303.7101693,0.0, 1, 1, 1, 5,180000.0, 1, 2,13,15
1155,4650046513.474033,0.0, 1, 1, 1, 5,5970326.959955029, 1, 5, 6,15
1156,4650046513.474033,0.0, 1, 1, 1, 5,5970326.959955029, 1, 5, 6,15
1292,-1247014789.4758837,-39805.86262907465, 3,18, 4,15,-2119.5697473809005, 9,17, 9,46
1306,11501382486.784346,0.0, 1, 1, 1, 5,4050000.0, 1, 1, 9,60
1307,1870666197.833822,0.0, 1, 1, 1, 5,13030902.873768533, 3, 5,19,60
1308,11501382486.784346,0.0, 1, 1, 1, 5,4050000.0, 1, 1, 9,60
13,56060896763.2526,151703.1275401932, 4,13, 4,15,12197175.459792688, 1, 5, 7,60
61,15743207428.383959,88139.10953165221, 1, 1, 1,15,1282023.4113694867, 1, 1,20,15
134,3685071073.4325233,63564.01800854099, 1, 2, 4,15,156554.22484006523, 1, 1,20,15
170,273393721.45532674,348.4159749238097, 1, 2, 4,15,17476.39704006126, 1, 1,12,15
207,339560869.0695816,815.2532113832032, 1, 2, 3,15,22990.642799023623, 1, 1,10,15
244,664895467.8009144,1521.856143006317, 1, 2, 4,15,53038.631142310165, 1, 1,20,15
281,2407221015.106824,59938.60262432081, 1, 1, 5,15,81951.81706819107, 1, 1,19,15
318,0.0,0.0, 1, 1, 1,15,0.0, 1, 1, 1,15
355,10310294493.051695,18561.32405820678, 1, 2, 4,15,724774.895203776, 1, 1,18,15
403,10310294493.051695,18561.32405820678, 1, 2, 4,15,724774.895203776, 1, 1,18,15
476,5569688622.066177,7098.072629279515, 1, 2, 4,15,356036.3026282215, 1, 1,12,15
513,0.0,0.0, 1, 1, 1,15,0.0, 1, 1, 1,15
562,1830826793.6247776,0.0, 1, 2,12,15,157030.15671753834, 1, 1, 6,45
1046,0.0,0.0, 1, 1, 1,15,0.0, 1, 1, 1,15
1096,4942775112.863296,0.0, 1, 1, 1,15,1549738.2131909458, 7,30,16,60
1134,18357633868.16203,0.0, 1, 3,14,60,7337568.637891923,12,26, 6,30
1326,11501382486.784357,0.0, 1, 1, 1,15,4050000.0000000014, 7,15, 9,60
1379,0.0,0.0, 1, 1, 1,15,0.0, 1, 1, 1,15
End of Data
 Number of Records Written=          99
