Program Version,EnergyPlus, Version 22.2.0-c249759bad, YMD=2023.09.01 20:55
1,5,Environment Title[],Latitude[deg],Longitude[deg],Time Zone[],Elevation[m]
2,8,Day of Simulation[],Month[],Day of Month[],DST Indicator[1=yes 0=no],Hour[],StartMinute[],EndMinute[],DayType
3,5,Cumulative Day of Simulation[],Month[],Day of Month[],DST Indicator[1=yes 0=no],DayType  ! When Daily Report Variables Requested
4,2,Cumulative Days of Simulation[],Month[]  ! When Monthly Report Variables Requested
5,1,Cumulative Days of Simulation[] ! When Run Period Report Variables Requested
6,1,Calendar Year of Simulation[] ! When Annual Report Variables Requested
581,11,LIVING,AFN Zone Infiltration Air Change Rate [ach] !RunPeriod [Value,Min,Month,Day,Hour,Minute,Max,Month,Day,Hour,Minute]
582,11,ATTIC,AFN Zone Infiltration Air Change Rate [ach] !RunPeriod [Value,Min,Month,Day,Hour,Minute,Max,Month,Day,Hour,Minute]
583,11,CRAWLSPACE,AFN Zone Infiltration Air Change Rate [ach] !RunPeriod [Value,Min,Month,Day,Hour,Minute,Max,Month,Day,Hour,Minute]
1038,11,Facility,Facility Heating Setpoint Not Met Time [hr] !RunPeriod [Value,Min,Month,Day,Hour,Minute,Max,Month,Day,Hour,Minute]
1039,11,Facility,Facility Cooling Setpoint Not Met Time [hr] !RunPeriod [Value,Min,Month,Day,Hour,Minute,Max,Month,Day,Hour,Minute]
1115,11,DX_HEATING_COIL,Heating Coil Heating Energy [J] !RunPeriod [Value,Min,Month,Day,Hour,Minute,Max,Month,Day,Hour,Minute]
1128,11,DX_HEATING_COIL,Heating Coil Electricity Energy [J] !RunPeriod [Value,Min,Month,Day,Hour,Minute,Max,Month,Day,Hour,Minute]
1153,11,DX_HEATING_COIL,Heating Coil Defrost Electricity Energy [J] !RunPeriod [Value,Min,Month,Day,Hour,Minute,Max,Month,Day,Hour,Minute]
1154,11,DX_HEATING_COIL,Heating Coil Crankcase Heater Electricity Energy [J] !RunPeriod [Value,Min,Month,Day,Hour,Minute,Max,Month,Day,Hour,Minute]
1155,11,HEATING_RESISTANCE_BACKUP,Heating Coil Heating Energy [J] !RunPeriod [Value,Min,Month,Day,Hour,Minute,Max,Month,Day,Hour,Minute]
1156,11,HEATING_RESISTANCE_BACKUP,Heating Coil Electricity Energy [J] !RunPeriod [Value,Min,Month,Day,Hour,Minute,Max,Month,Day,Hour,Minute]
1292,11,WATER HEATER,Water Heater Heat Loss Energy [J] !RunPeriod [Value,Min,Month,Day,Hour,Minute,Max,Month,Day,Hour,Minute]
1306,11,WATER HEATER,Water Heater Heating Energy [J] !RunPeriod [Value,Min,Month,Day,Hour,Minute,Max,Month,Day,Hour,Minute]
1307,11,WATER HEATER,Water Heater Unmet Demand Heat Transfer Energy [J] !RunPeriod [Value,Min,Month,Day,Hour,Minute,Max,Month,Day,Hour,Minute]
1308,11,WATER HEATER,Water Heater Electricity Energy [J] !RunPeriod [Value,Min,Month,Day,Hour,Minute,Max,Month,Day,Hour,Minute]
13,11,Electricity:Facility [J] !RunPeriod [Value,Min,Month,Day,Hour,Minute,Max,Month,Day,Hour,Minute]
1134,11,Heating:Electricity [J] !RunPeriod [Value,Min,Month,Day,Hour,Minute,Max,Month,Day,Hour,Minute]
1096,11,Cooling:Electricity [J] !RunPeriod [Value,Min,Month,Day,Hour,Minute,Max,Month,Day,Hour,Minute]
562,11,Fans:Electricity [J] !RunPeriod [Value,Min,Month,Day,Hour,Minute,Max,Month,Day,Hour,Minute]
1379,11,Pumps:Electricity [J] !RunPeriod [Value,Min,Month,Day,Hour,Minute,Max,Month,Day,Hour,Minute]
1326,11,WaterSystems:Electricity [J] !RunPeriod [Value,Min,Month,Day,Hour,Minute,Max,Month,Day,Hour,Minute]
61,11,InteriorLights:Electricity [J] !RunPeriod [Value,Min,Month,Day,Hour,Minute,Max,Month,Day,Hour,Minute]
1046,11,ExteriorLights:Electricity [J] !RunPeriod [Value,Min,Month,Day,Hour,Minute,Max,Month,Day,Hour,Minute]
134,11,InteriorEquipment:Electricity [J] !RunPeriod [Value,Min,Month,Day,Hour,Minute,Max,Month,Day,Hour,Minute]
170,11,gas_dryer:InteriorEquipment:Electricity [J] !RunPeriod [Value,Min,Month,Day,Hour,Minute,Max,Month,Day,Hour,Minute]
207,11,clotheswasher:InteriorEquipment:Electricity [J] !RunPeriod [Value,Min,Month,Day,Hour,Minute,Max,Month,Day,Hour,Minute]
244,11,dishwasher:InteriorEquipment:Electricity [J] !RunPeriod [Value,Min,Month,Day,Hour,Minute,Max,Month,Day,Hour,Minute]
281,11,refrigerator:InteriorEquipment:Electricity [J] !RunPeriod [Value,Min,Month,Day,Hour,Minute,Max,Month,Day,Hour,Minute]
318,11,electric_mels:InteriorEquipment:Electricity [J] !RunPeriod [Value,Min,Month,Day,Hour,Minute,Max,Month,Day,Hour,Minute]
355,11,NaturalGas:Facility [J] !RunPeriod [Value,Min,Month,Day,Hour,Minute,Max,Month,Day,Hour,Minute]
403,11,InteriorEquipment:NaturalGas [J] !RunPeriod [Value,Min,Month,Day,Hour,Minute,Max,Month,Day,Hour,Minute]
476,11,gas_dryer:InteriorEquipment:NaturalGas [J] !RunPeriod [Value,Min,Month,Day,Hour,Minute,Max,Month,Day,Hour,Minute]
513,11,gas_mels:InteriorEquipment:NaturalGas [J] !RunPeriod [Value,Min,Month,Day,Hour,Minute,Max,Month,Day,Hour,Minute]
End of Data Dictionary
1,EXTREME_WINTER,  36.90, -76.20,  -5.00,   9.00
5,7
1038,0.5,0.0, 1,15, 1,15,0.25, 1,17, 6,15
1039,0.0,0.0, 1,15, 1,15,0.0, 1,15, 1,15
581,0.28221647362715113,0.10779223653059626, 1,17,19,60,0.5779364373308987, 1,19,15,60
582,3.3606987930545706,0.0, 1,15, 3,52,12.454960270480953, 1,17,13,60
583,0.02085788966896699,0.0002778124518878304, 1,19, 2,60,0.07015527984371285, 1,21, 3,60
1115,769041476.843371,0.0, 1,15,10,52,3986163.1892140177, 1,21, 2,60
1128,239123576.25756052,0.0, 1,15,10,52,1274063.9786338883, 1,21, 6,30
1153,9537456.377698869,0.0, 1,15,10,52,101816.249824725, 1,20, 6,60
1154,80234355.8498041,0.0, 1,15, 6, 5,180000.0, 1,15,13,45
1155,22695935.79256512,0.0, 1,15, 1,15,1514047.8786593701, 1,21, 6,45
1156,22695935.79256512,0.0, 1,15, 1,15,1514047.8786593701, 1,21, 6,45
1292,-24742431.15892146,-39767.78550912161, 1,17, 2,45,-5965.35181717644, 1,21,18,17
1306,327661802.4243097,0.0, 1,15, 1,15,4050000.0, 1,15,21,45
1307,137394965.7011086,0.0, 1,15, 1,15,14778262.633897332, 1,19, 9,60
1308,327661802.4243097,0.0, 1,15, 1,15,4050000.0, 1,15,21,45
13,1078626534.0982502,279388.3603958448, 1,18,15,30,6324235.128536912, 1,19,20,15
61,301924526.02383536,88139.10953165221, 1,15, 1,15,1282023.4113694867, 1,15,20,15
134,70666020.44019976,63564.01800854099, 1,15, 4,15,156554.22484006523, 1,20,20,15
170,5241013.419656067,348.4159749238097, 1,15, 4,15,17476.39704006126, 1,20,12,15
207,6509451.13922267,815.2532113832032, 1,15, 3,15,22990.642799023623, 1,20,10,15
244,12749673.399825225,1521.856143006317, 1,15, 4,15,53038.631142310165, 1,20,20,15
281,46165882.481495745,59938.60262432081, 1,15, 5,15,81951.81706819107, 1,15,19,15
318,0.0,0.0, 1,15, 1,15,0.0, 1,15, 1,15
355,197687796.27748066,18561.32405820678, 1,15, 4,15,724774.895203776, 1,20,18,15
403,197687796.27748066,18561.32405820678, 1,15, 4,15,724774.895203776, 1,20,18,15
476,106772067.24485716,7098.072629279515, 1,15, 4,15,356036.3026282215, 1,20,12,15
513,0.0,0.0, 1,15, 1,15,0.0, 1,15, 1,15
562,24922723.17733498,0.0, 1,15,11,15,129539.8497758164, 1,21, 2,60
1046,0.0,0.0, 1,15, 1,15,0.0, 1,15, 1,15
1096,1860137.754944211,0.0, 1,15, 1,15,195154.21533904158, 1,18,17,15
1134,351591324.27762836,0.0, 1,17,19,30,3469020.9938806305, 1,21, 6,15
1326,327661802.4243096,0.0, 1,15, 1,15,4050000.0, 1,15, 9,60
1379,0.0,0.0, 1,15, 1,15,0.0, 1,15, 1,15
1,EXTREME_SUMMER,  36.90, -76.20,  -5.00,   9.00
5,7
1038,0.0,0.0, 7,15, 1,15,0.0, 7,15, 1,15
1039,69.0,0.0, 7,15, 1,15,0.25, 7,15,14,30
581,0.17221328952118573,0.0, 7,15, 6, 7,0.5404035840437209, 7,19,15,48
582,4.078076695668423,0.0831024766673161, 7,15, 8,34,11.363679693088546, 7,19,15,48
583,0.046869194271647034,0.0, 7,16,23, 3,0.07159702717843011, 7,20,22,60
1115,0.0,0.0, 7,15, 1, 7,0.0, 7,15, 1, 7
1128,0.0,0.0, 7,15, 1, 7,0.0, 7,15, 1, 7
1153,0.0,0.0, 7,15, 1, 7,0.0, 7,15, 1, 7
1154,0.0,0.0, 7,15, 1, 7,0.0, 7,15, 1, 7
1155,0.0,0.0, 7,15, 1, 7,0.0, 7,15, 1, 7
1156,0.0,0.0, 7,15, 1, 7,0.0, 7,15, 1, 7
1292,-21616126.59073255,-34221.76057647339, 7,21, 6,30,-3044.9095301278708, 7,18, 9,46
1306,238161816.38118753,0.0, 7,15, 1, 7,4050000.0, 7,15,16,60
1307,68120419.87326893,0.0, 7,15, 1, 7,2296263.419977009, 7,19,19,40
1308,238161816.38118753,0.0, 7,15, 1, 7,4050000.0, 7,15,16,60
13,1292779799.1928477,289026.3902840395, 7,15, 4,60,6870968.307566601, 7,20,21,45
61,301924526.02383536,88139.10953165221, 7,15, 1,15,1282023.4113694867, 7,15,20,15
134,70666020.44019976,63564.01800854099, 7,15, 4,15,156554.22484006523, 7,20,20,15
170,5241013.419656067,348.4159749238097, 7,15, 4,15,17476.39704006126, 7,20,12,15
207,6509451.13922267,815.2532113832032, 7,15, 3,15,22990.642799023623, 7,20,10,15
244,12749673.399825225,1521.856143006317, 7,15, 4,15,53038.631142310165, 7,20,20,15
281,46165882.481495745,59938.60262432081, 7,15, 5,15,81951.81706819107, 7,15,19,15
318,0.0,0.0, 7,15, 1,15,0.0, 7,15, 1,15
355,197687796.27748066,18561.32405820678, 7,15, 4,15,724774.895203776, 7,20,18,15
403,197687796.27748066,18561.32405820678, 7,15, 4,15,724774.895203776, 7,20,18,15
476,106772067.24485716,7098.072629279515, 7,15, 4,15,356036.3026282215, 7,20,12,15
513,0.0,0.0, 7,15, 1,15,0.0, 7,15, 1,15
562,63005144.9191359,13241.279490570752, 7,15, 5,60,129539.84977581642, 7,15,18,60
1046,0.0,0.0, 7,15, 1,15,0.0, 7,15, 1,15
1096,619022291.4284898,115789.36850861904, 7,15, 5,60,1378243.5986921242, 7,19,17,60
1134,0.0,0.0, 7,15, 1,15,0.0, 7,15, 1,15
1326,238161816.38118753,0.0, 7,15, 1,15,4050000.0, 7,15, 9,60
1379,0.0,0.0, 7,15, 1,15,0.0, 7,15, 1,15
1,ANNUAL,  36.90, -76.20,  -5.00,   9.00
5,365
1038,9.75,0.0, 1, 1, 1,15,0.25, 1, 3, 6,15
1039,849.25,0.0, 1, 1, 1,15,0.25, 1,11,14,45
581,0.25431761494270266,0.0, 6, 2,23, 3,1.102228648585165,10, 2,17,30
582,4.455767812527859,0.0, 1, 3,24,60,22.357951756412877,10, 2,16,60
583,0.026565002035382233,0.0, 6, 2,23, 3,0.08658528569250654, 3, 3, 3,60
1115,7497912609.092334,0.0, 1, 1, 1,15,4447906.560832162, 1,25, 1,15
1128,2267486990.3820424,0.0, 1, 1, 1,15,1304510.634520712, 2,17, 6,45
1153,72097503.61293899,0.0, 1, 1, 1,15,113887.31538581807, 3, 3,10,30
1154,1408807771.7613175,0.0, 1, 1, 6, 3,180000.0, 1, 1, 1,15
1155,122639397.2535418,0.0, 1, 1, 1,15,1737625.3749420338, 1, 4, 6,45
1156,122639397.2535418,0.0, 1, 1, 1,15,1737625.3749420338, 1, 4, 6,45
1292,-1184630830.0912626,-39783.516721149375, 4, 5, 3,15,-1631.4119053391144, 3,17,10, 1
1306,14745521243.813854,0.0, 1, 1, 1,15,4050000.0, 1, 1,21,15
1307,5315822087.509195,0.0, 1, 1, 1,15,14789936.484344343, 1,20, 9,60
1308,14745521243.813854,0.0, 1, 1, 1,15,4050000.0, 1, 1,21,15
13,52792799715.10086,151703.1275401932, 1, 9, 4,15,6911974.050739318, 6,13,20,15
61,15743207428.383959,88139.10953165221, 1, 1, 1,15,1282023.4113694867, 1, 1,20,15
134,3685071073.4325233,63564.01800854099, 1, 2, 4,15,156554.22484006523, 1, 1,20,15
170,273393721.45532674,348.4159749238097, 1, 2, 4,15,17476.39704006126, 1, 1,12,15
207,339560869.0695816,815.2532113832032, 1, 2, 3,15,22990.642799023623, 1, 1,10,15
244,664895467.8009144,1521.856143006317, 1, 2, 4,15,53038.631142310165, 1, 1,20,15
281,2407221015.106824,59938.60262432081, 1, 1, 5,15,81951.81706819107, 1, 1,19,15
318,0.0,0.0, 1, 1, 1,15,0.0, 1, 1, 1,15
355,10310294493.051695,18561.32405820678, 1, 2, 4,15,724774.895203776, 1, 1,18,15
403,10310294493.051695,18561.32405820678, 1, 2, 4,15,724774.895203776, 1, 1,18,15
476,5569688622.066177,7098.072629279515, 1, 2, 4,15,356036.3026282215, 1, 1,12,15
513,0.0,0.0, 1, 1, 1,15,0.0, 1, 1, 1,15
562,1680564893.3733294,0.0, 1, 1, 1,15,129539.84977581642, 6, 1,17,60
1046,0.0,0.0, 1, 1, 1,15,0.0, 1, 1, 1,15
1096,13067403413.084787,0.0, 1, 1, 1,15,1424518.0516853475, 9,24,14,60
1134,3871031663.0098457,0.0, 1, 1, 9,60,3756981.696252188, 1, 3, 6,15
1326,14745521243.813847,0.0, 1, 1, 1,15,4050000.0000000014, 3, 9, 9,60
1379,0.0,0.0, 1, 1, 1,15,0.0, 1, 1, 1,15
End of Data
 Number of Records Written=          99
