Program Version,EnergyPlus, Version 22.2.0-c249759bad, YMD=2023.09.01 14:31
1,5,Environment Title[],Latitude[deg],Longitude[deg],Time Zone[],Elevation[m]
2,8,Day of Simulation[],Month[],Day of Month[],DST Indicator[1=yes 0=no],Hour[],StartMinute[],EndMinute[],DayType
3,5,Cumulative Day of Simulation[],Month[],Day of Month[],DST Indicator[1=yes 0=no],DayType  ! When Daily Report Variables Requested
4,2,Cumulative Days of Simulation[],Month[]  ! When Monthly Report Variables Requested
5,1,Cumulative Days of Simulation[] ! When Run Period Report Variables Requested
6,1,Calendar Year of Simulation[] ! When Annual Report Variables Requested
7,1,Environment,Site Outdoor Air Drybulb Temperature [C] !Hourly
545,1,LIVING,Zone Mean Air Temperature [C] !Hourly
546,1,ATTIC,Zone Mean Air Temperature [C] !Hourly
547,1,CRAWLSPACE,Zone Mean Air Temperature [C] !Hourly
548,1,FAN,Fan Electricity Rate [W] !Hourly
720,1,LIVING,Zone Predicted Sensible Load to Heating Setpoint Heat Transfer Rate [W] !Hourly
721,1,LIVING,Zone System Predicted Sensible Load to Heating Setpoint Heat Transfer Rate [W] !Hourly
784,1,ATTIC,Zone Predicted Sensible Load to Heating Setpoint Heat Transfer Rate [W] !Hourly
785,1,ATTIC,Zone System Predicted Sensible Load to Heating Setpoint Heat Transfer Rate [W] !Hourly
848,1,CRAWLSPACE,Zone Predicted Sensible Load to Heating Setpoint Heat Transfer Rate [W] !Hourly
849,1,CRAWLSPACE,Zone System Predicted Sensible Load to Heating Setpoint Heat Transfer Rate [W] !Hourly
1121,1,DX_HEATING_COIL,Heating Coil Heating Rate [W] !Hourly
1135,1,DX_HEATING_COIL,Heating Coil Electricity Rate [W] !Hourly
1161,1,DX_HEATING_COIL,Heating Coil Defrost Electricity Rate [W] !Hourly
1163,1,DX_HEATING_COIL,Heating Coil Crankcase Heater Electricity Rate [W] !Hourly
1166,1,HEATING_RESISTANCE_BACKUP,Heating Coil Heating Rate [W] !Hourly
1168,1,HEATING_RESISTANCE_BACKUP,Heating Coil Electricity Rate [W] !Hourly
End of Data Dictionary
1,EXTREME_WINTER,  32.13, -81.20,  -5.00,  15.00
2,1, 1, 6, 0, 1, 0.00,60.00,Monday
7,3.9
545,23.86064000523211
546,5.402916868767958
547,20.835116394931877
548,0.0
720,-4160.795932720817
721,-4160.795932720817
784,0.0
785,0.0
848,0.0
849,0.0
1121,0.0
1135,0.0
1161,0.0
1163,200.0
1166,0.0
1168,0.0
2,1, 1, 6, 0, 2, 0.00,60.00,Monday
7,3.9
545,23.04710019921671
546,3.3869665666127546
547,20.702027269685075
548,0.0
720,-3648.8564163052524
721,-3648.8564163052524
784,0.0
785,0.0
848,0.0
849,0.0
1121,0.0
1135,0.0
1161,0.0
1163,200.0
1166,0.0
1168,0.0
2,1, 1, 6, 0, 3, 0.00,60.00,Monday
7,5.0
545,22.39188167636645
546,2.12147568524886
547,20.58057312525234
548,0.0
720,-2985.199334544437
721,-2985.199334544437
784,0.0
785,0.0
848,0.0
849,0.0
1121,0.0
1135,0.0
1161,0.0
1163,200.0
1166,0.0
1168,0.0
2,1, 1, 6, 0, 4, 0.00,60.00,Monday
7,3.3
545,21.468817823930298
546,1.0642113312431736
547,20.459009149284327
548,0.0
720,-2121.822229882113
721,-2121.822229882113
784,0.0
785,0.0
848,0.0
849,0.0
1121,0.0
1135,0.0
1161,0.0
1163,200.0
1166,0.0
1168,0.0
2,1, 1, 6, 0, 5, 0.00,60.00,Monday
7,3.9
545,20.921131155628068
546,0.21607102555925595
547,20.335244144670206
548,0.0
720,-1755.3595753596
721,-1755.3595753596
784,0.0
785,0.0
848,0.0
849,0.0
1121,0.0
1135,0.0
1161,0.0
1163,200.0
1166,0.0
1168,0.0
2,1, 1, 6, 0, 6, 0.00,60.00,Monday
7,2.8
545,20.36857144413937
546,-0.08296226708325766
547,20.21170730478338
548,0.0
720,-454.0094845008498
721,-454.0094845008498
784,0.0
785,0.0
848,0.0
849,0.0
1121,0.0
1135,0.0
1161,0.0
1163,200.0
1166,0.0
1168,0.0
2,1, 1, 6, 0, 7, 0.00,60.00,Monday
7,3.3
545,19.976589685818336
546,-0.19768434987084066
547,20.0896680084489
548,0.0
720,-174.7244432633688
721,-174.7244432633688
784,0.0
785,0.0
848,0.0
849,0.0
1121,0.0
1135,0.0
1161,0.0
1163,200.0
1166,0.0
1168,0.0
2,1, 1, 6, 0, 8, 0.00,60.00,Monday
7,3.3
545,21.090171067347583
546,1.0241457217878354
547,19.907077690452628
548,56.91196056175942
720,127.5760398422517
721,127.5760398422517
784,0.0
785,0.0
848,0.0
849,0.0
1121,1751.6108582308789
1135,551.6960904006166
1161,49.67639154088872
1163,126.66994753770729
1166,0.0
1168,0.0
2,1, 1, 6, 0, 9, 0.00,60.00,Monday
7,6.1
545,20.4054955904726
546,3.8781619400084715
547,19.855161965430277
548,0.0
720,-552.3313060975743
721,-552.3313060975743
784,0.0
785,0.0
848,0.0
849,0.0
1121,0.0
1135,0.0
1161,0.0
1163,200.0
1166,0.0
1168,0.0
2,1, 1, 6, 0,10, 0.00,60.00,Monday
7,9.4
545,21.609106294073484
546,8.93780971352659
547,19.744001941736066
548,0.0
720,-1339.800829747801
721,-1339.800829747801
784,0.0
785,0.0
848,0.0
849,0.0
1121,0.0
1135,0.0
1161,0.0
1163,200.0
1166,0.0
1168,0.0
2,1, 1, 6, 0,11, 0.00,60.00,Monday
7,12.2
545,22.39585807616535
546,14.429999320965312
547,19.673772633097197
548,0.0
720,-2293.3407383400117
721,-2293.3407383400117
784,0.0
785,0.0
848,0.0
849,0.0
1121,0.0
1135,0.0
1161,0.0
1163,0.0
1166,0.0
1168,0.0
2,1, 1, 6, 0,12, 0.00,60.00,Monday
7,14.4
545,23.392529502897453
546,18.298129262060808
547,19.639452492340123
548,0.0
720,-3063.069948427663
721,-3063.069948427663
784,0.0
785,0.0
848,0.0
849,0.0
1121,0.0
1135,0.0
1161,0.0
1163,0.0
1166,0.0
1168,0.0
2,1, 1, 6, 0,13, 0.00,60.00,Monday
7,16.1
545,24.205924798364567
546,21.249729216021272
547,19.63828662770731
548,0.0
720,-3738.4095838048033
721,-3738.4095838048033
784,0.0
785,0.0
848,0.0
849,0.0
1121,0.0
1135,0.0
1161,0.0
1163,0.0
1166,0.0
1168,0.0
2,1, 1, 6, 0,14, 0.00,60.00,Monday
7,16.1
545,25.136413687232317
546,22.389683362842394
547,19.660100409705393
548,0.0
720,-4274.524516660904
721,-4274.524516660904
784,0.0
785,0.0
848,0.0
849,0.0
1121,0.0
1135,0.0
1161,0.0
1163,0.0
1166,0.0
1168,0.0
2,1, 1, 6, 0,15, 0.00,60.00,Monday
7,17.2
545,26.285369610880515
546,22.911301340108206
547,19.718112830442436
548,0.0
720,-4551.939057110843
721,-4551.939057110843
784,0.0
785,0.0
848,0.0
849,0.0
1121,0.0
1135,0.0
1161,0.0
1163,0.0
1166,0.0
1168,0.0
2,1, 1, 6, 0,16, 0.00,60.00,Monday
7,17.2
545,27.433851486429877
546,22.20931698152546
547,19.801384915450196
548,0.0
720,-5687.155390184931
721,-5687.155390184931
784,0.0
785,0.0
848,0.0
849,0.0
1121,0.0
1135,0.0
1161,0.0
1163,0.0
1166,0.0
1168,0.0
2,1, 1, 6, 0,17, 0.00,60.00,Monday
7,16.1
545,28.592344593039765
546,21.44085224286382
547,19.903442126289697
548,0.0
720,-6480.104013372769
721,-6480.104013372769
784,0.0
785,0.0
848,0.0
849,0.0
1121,0.0
1135,0.0
1161,0.0
1163,0.0
1166,0.0
1168,0.0
2,1, 1, 6, 0,18, 0.00,60.00,Monday
7,12.2
545,27.792641556583675
546,18.018281170525086
547,20.013504296456063
548,0.0
720,-5545.232297014249
721,-5545.232297014249
784,0.0
785,0.0
848,0.0
849,0.0
1121,0.0
1135,0.0
1161,0.0
1163,0.0
1166,0.0
1168,0.0
2,1, 1, 6, 0,19, 0.00,60.00,Monday
7,11.7
545,27.654691921532034
546,15.048845141984293
547,20.100984836632495
548,0.0
720,-5615.84587949161
721,-5615.84587949161
784,0.0
785,0.0
848,0.0
849,0.0
1121,0.0
1135,0.0
1161,0.0
1163,0.0
1166,0.0
1168,0.0
2,1, 1, 6, 0,20, 0.00,60.00,Monday
7,11.7
545,27.56722888328514
546,12.892300462806727
547,20.15250031225107
548,0.0
720,-5496.411943673356
721,-5496.411943673356
784,0.0
785,0.0
848,0.0
849,0.0
1121,0.0
1135,0.0
1161,0.0
1163,0.0
1166,0.0
1168,0.0
2,1, 1, 6, 0,21, 0.00,60.00,Monday
7,9.4
545,27.10927704895945
546,10.871947927617404
547,20.166416248412748
548,0.0
720,-5028.620262119473
721,-5028.620262119473
784,0.0
785,0.0
848,0.0
849,0.0
1121,0.0
1135,0.0
1161,0.0
1163,200.0
1166,0.0
1168,0.0
2,1, 1, 6, 0,22, 0.00,60.00,Monday
7,9.4
545,26.621025840406094
546,9.653904483809251
547,20.153747295672645
548,0.0
720,-5120.850528358304
721,-5120.850528358304
784,0.0
785,0.0
848,0.0
849,0.0
1121,0.0
1135,0.0
1161,0.0
1163,200.0
1166,0.0
1168,0.0
2,1, 1, 6, 0,23, 0.00,60.00,Monday
7,8.3
545,25.794002813903305
546,8.568161374947108
547,20.121842955066874
548,0.0
720,-5305.5766221983995
721,-5305.5766221983995
784,0.0
785,0.0
848,0.0
849,0.0
1121,0.0
1135,0.0
1161,0.0
1163,200.0
1166,0.0
1168,0.0
2,1, 1, 6, 0,24, 0.00,60.00,Monday
7,7.2
545,24.83226658155546
546,7.5577852520654325
547,20.070203325302327
548,0.0
720,-4774.516514014071
721,-4774.516514014071
784,0.0
785,0.0
848,0.0
849,0.0
1121,0.0
1135,0.0
1161,0.0
1163,200.0
1166,0.0
1168,0.0
2,2, 1, 7, 0, 1, 0.00,60.00,Tuesday
7,8.3
545,23.980084563080997
546,7.681704520375007
547,20.003300789021765
548,0.0
720,-4225.299107801648
721,-4225.299107801648
784,0.0
785,0.0
848,0.0
849,0.0
1121,0.0
1135,0.0
1161,0.0
1163,200.0
1166,0.0
1168,0.0
2,2, 1, 7, 0, 2, 0.00,60.00,Tuesday
7,8.3
545,23.204052850824855
546,7.606908101486554
547,19.926950296215374
548,0.0
720,-3558.6366872006165
721,-3558.6366872006165
784,0.0
785,0.0
848,0.0
849,0.0
1121,0.0
1135,0.0
1161,0.0
1163,200.0
1166,0.0
1168,0.0
2,2, 1, 7, 0, 3, 0.00,60.00,Tuesday
7,7.2
545,22.22634129058617
546,6.998940627173977
547,19.839882038171005
548,0.0
720,-2766.7485540482594
721,-2766.7485540482594
784,0.0
785,0.0
848,0.0
849,0.0
1121,0.0
1135,0.0
1161,0.0
1163,200.0
1166,0.0
1168,0.0
2,2, 1, 7, 0, 4, 0.00,60.00,Tuesday
7,6.7
545,21.63849746314207
546,6.252205310085171
547,19.750578729568378
548,0.0
720,-2392.9002552779966
721,-2392.9002552779966
784,0.0
785,0.0
848,0.0
849,0.0
1121,0.0
1135,0.0
1161,0.0
1163,200.0
1166,0.0
1168,0.0
2,2, 1, 7, 0, 5, 0.00,60.00,Tuesday
7,5.0
545,20.880529445934762
546,5.1654000168739875
547,19.653612776844835
548,0.0
720,-1666.0479688411087
721,-1666.0479688411087
784,0.0
785,0.0
848,0.0
849,0.0
1121,0.0
1135,0.0
1161,0.0
1163,200.0
1166,0.0
1168,0.0
2,2, 1, 7, 0, 6, 0.00,60.00,Tuesday
7,5.0
545,20.547160399925346
546,4.46807898666786
547,19.556373178165373
548,0.0
720,-617.8811978394806
721,-617.8811978394806
784,0.0
785,0.0
848,0.0
849,0.0
1121,0.0
1135,0.0
1161,0.0
1163,200.0
1166,0.0
1168,0.0
2,2, 1, 7, 0, 7, 0.00,60.00,Tuesday
7,3.9
545,20.029011440595497
546,3.4685683291380407
547,19.455135619451454
548,0.0
720,-209.46020351867264
721,-209.46020351867264
784,0.0
785,0.0
848,0.0
849,0.0
1121,0.0
1135,0.0
1161,0.0
1163,200.0
1166,0.0
1168,0.0
2,2, 1, 7, 0, 8, 0.00,60.00,Tuesday
7,3.9
545,21.00868584233009
546,3.683522434997153
547,19.314002973252222
548,49.33391229956058
720,91.09937613587863
721,91.09937613587863
784,0.0
785,0.0
848,0.0
849,0.0
1121,1606.9312237672257
1135,502.7051497294643
1161,27.56125802659644
1163,136.64118554984321
1166,0.0
1168,0.0
2,2, 1, 7, 0, 9, 0.00,60.00,Tuesday
7,6.1
545,20.310060728174324
546,5.274067233257171
547,19.255741657961394
548,0.0
720,-512.8643845109746
721,-512.8643845109746
784,0.0
785,0.0
848,0.0
849,0.0
1121,0.0
1135,0.0
1161,0.0
1163,200.0
1166,0.0
1168,0.0
2,2, 1, 7, 0,10, 0.00,60.00,Tuesday
7,7.8
545,21.026363725943018
546,8.525441060318437
547,19.160656591029984
548,0.0
720,-965.3706253817309
721,-965.3706253817309
784,0.0
785,0.0
848,0.0
849,0.0
1121,0.0
1135,0.0
1161,0.0
1163,200.0
1166,0.0
1168,0.0
2,2, 1, 7, 0,11, 0.00,60.00,Tuesday
7,10.0
545,22.222952297873952
546,12.700485757810238
547,19.101906493773217
548,0.0
720,-1889.0408785414256
721,-1889.0408785414256
784,0.0
785,0.0
848,0.0
849,0.0
1121,0.0
1135,0.0
1161,0.0
1163,0.0
1166,0.0
1168,0.0
2,2, 1, 7, 0,12, 0.00,60.00,Tuesday
7,12.2
545,22.9269931469258
546,16.39005552398098
547,19.07120275227803
548,0.0
720,-2563.2711568982504
721,-2563.2711568982504
784,0.0
785,0.0
848,0.0
849,0.0
1121,0.0
1135,0.0
1161,0.0
1163,0.0
1166,0.0
1168,0.0
2,2, 1, 7, 0,13, 0.00,60.00,Tuesday
7,13.9
545,23.72676692028288
546,18.46747215530264
547,19.07269727762984
548,0.0
720,-2952.0882910826185
721,-2952.0882910826185
784,0.0
785,0.0
848,0.0
849,0.0
1121,0.0
1135,0.0
1161,0.0
1163,0.0
1166,0.0
1168,0.0
2,2, 1, 7, 0,14, 0.00,60.00,Tuesday
7,13.9
545,24.54979571812716
546,19.25429505392526
547,19.096475720344134
548,0.0
720,-3489.378457112505
721,-3489.378457112505
784,0.0
785,0.0
848,0.0
849,0.0
1121,0.0
1135,0.0
1161,0.0
1163,0.0
1166,0.0
1168,0.0
2,2, 1, 7, 0,15, 0.00,60.00,Tuesday
7,15.0
545,25.35866813908598
546,19.65764906712968
547,19.147551154148363
548,0.0
720,-4242.211380026469
721,-4242.211380026469
784,0.0
785,0.0
848,0.0
849,0.0
1121,0.0
1135,0.0
1161,0.0
1163,0.0
1166,0.0
1168,0.0
2,2, 1, 7, 0,16, 0.00,60.00,Tuesday
7,14.4
545,26.09324476654795
546,19.580072846849905
547,19.225455779765408
548,0.0
720,-5205.589895290857
721,-5205.589895290857
784,0.0
785,0.0
848,0.0
849,0.0
1121,0.0
1135,0.0
1161,0.0
1163,0.0
1166,0.0
1168,0.0
2,2, 1, 7, 0,17, 0.00,60.00,Tuesday
7,12.2
545,25.717353913582027
546,16.210631731798827
547,19.314791118974004
548,0.0
720,-5106.157915437139
721,-5106.157915437139
784,0.0
785,0.0
848,0.0
849,0.0
1121,0.0
1135,0.0
1161,0.0
1163,0.0
1166,0.0
1168,0.0
2,2, 1, 7, 0,18, 0.00,60.00,Tuesday
7,9.4
545,25.532354952270584
546,13.347548831394631
547,19.40861721890023
548,0.0
720,-5427.113577896474
721,-5427.113577896474
784,0.0
785,0.0
848,0.0
849,0.0
1121,0.0
1135,0.0
1161,0.0
1163,200.0
1166,0.0
1168,0.0
2,2, 1, 7, 0,19, 0.00,60.00,Tuesday
7,8.9
545,24.89676656432915
546,11.32191058666851
547,19.47288647477242
548,0.0
720,-4766.810490636179
721,-4766.810490636179
784,0.0
785,0.0
848,0.0
849,0.0
1121,0.0
1135,0.0
1161,0.0
1163,200.0
1166,0.0
1168,0.0
2,2, 1, 7, 0,20, 0.00,60.00,Tuesday
7,8.9
545,24.539477861810504
546,10.426454722475526
547,19.503809794728063
548,0.0
720,-4579.114027445788
721,-4579.114027445788
784,0.0
785,0.0
848,0.0
849,0.0
1121,0.0
1135,0.0
1161,0.0
1163,200.0
1166,0.0
1168,0.0
2,2, 1, 7, 0,21, 0.00,60.00,Tuesday
7,6.1
545,23.53410245832612
546,7.8435109444412445
547,19.495646859724243
548,0.0
720,-3618.2701618357805
721,-3618.2701618357805
784,0.0
785,0.0
848,0.0
849,0.0
1121,0.0
1135,0.0
1161,0.0
1163,200.0
1166,0.0
1168,0.0
2,2, 1, 7, 0,22, 0.00,60.00,Tuesday
7,5.0
545,22.517840104347865
546,6.765105386718513
547,19.461645547294324
548,0.0
720,-2869.3944090161567
721,-2869.3944090161567
784,0.0
785,0.0
848,0.0
849,0.0
1121,0.0
1135,0.0
1161,0.0
1163,200.0
1166,0.0
1168,0.0
2,2, 1, 7, 0,23, 0.00,60.00,Tuesday
7,3.9
545,21.50098936333779
546,5.8264070983494936
547,19.406514463803756
548,0.0
720,-3002.8950471488115
721,-3002.8950471488115
784,0.0
785,0.0
848,0.0
849,0.0
1121,0.0
1135,0.0
1161,0.0
1163,200.0
1166,0.0
1168,0.0
2,2, 1, 7, 0,24, 0.00,60.00,Tuesday
7,2.2
545,20.604511956889695
546,4.446542839902073
547,19.33633073236503
548,0.0
720,-2016.715360567856
721,-2016.715360567856
784,0.0
785,0.0
848,0.0
849,0.0
1121,0.0
1135,0.0
1161,0.0
1163,200.0
1166,0.0
1168,0.0
2,3, 1, 8, 0, 1, 0.00,60.00,Wednesday
7,0.6
545,18.690905706157896
546,2.8505413995557456
547,19.233024839052383
548,0.0
720,-81.3016020619907
721,-81.3016020619907
784,0.0
785,0.0
848,0.0
849,0.0
1121,0.0
1135,0.0
1161,0.0
1163,200.0
1166,0.0
1168,0.0
2,3, 1, 8, 0, 2, 0.00,60.00,Wednesday
7,0.6
545,19.329347945619308
546,3.000231511540129
547,18.981901585290956
548,89.14690689477497
720,1073.1058480203756
721,1073.1058480203756
784,0.0
785,0.0
848,0.0
849,0.0
1121,2984.530246243909
1135,925.2273596715339
1161,0.0452068460631118
1163,85.90022624835694
1166,0.0
1168,0.0
2,3, 1, 8, 0, 3, 0.00,60.00,Wednesday
7,-2.2
545,19.339695549942203
546,1.3552592169246047
547,18.91196362994505
548,82.57079039408441
720,1589.5568509834593
721,1589.5568509834593
784,0.0
785,0.0
848,0.0
849,0.0
1121,2539.431479720441
1135,846.9508789547565
1161,0.04187220549160078
1163,94.31668897219483
1166,0.0
1168,0.0
2,3, 1, 8, 0, 4, 0.00,60.00,Wednesday
7,-2.8
545,18.526663555698867
546,0.4243269908707048
547,18.74801238901384
548,93.37191021139233
720,2006.5650621675395
721,2006.5650621675395
784,0.0
785,0.0
848,0.0
849,0.0
1121,2846.642574353747
1135,952.9642342171547
1161,0.0473495634871987
1163,80.49211675625251
1166,0.0
1168,0.0
2,3, 1, 8, 0, 5, 0.00,60.00,Wednesday
7,-3.9
545,18.326244422045793
546,-0.21294881470878194
547,18.5465910605111
548,124.6519728222107
720,2768.2930113134207
721,2768.2930113134207
784,0.0
785,0.0
848,0.0
849,0.0
1121,3789.63531327601
1135,1239.9447452098432
1161,0.06321199875898333
1163,40.45613917148658
1166,0.0
1168,0.0
2,3, 1, 8, 0, 6, 0.00,60.00,Wednesday
7,-5.0
545,19.16060387723812
546,-0.6953506958133242
547,18.366042956710444
548,156.26229510531897
720,3809.538167049075
721,3809.538167049075
784,0.0
785,0.0
848,0.0
849,0.0
1121,4724.144901384583
1135,1533.5390385075707
1161,0.07924090395045295
1163,0.0
1166,485.6231871099453
1168,485.6231871099453
2,3, 1, 8, 0, 7, 0.00,60.00,Wednesday
7,-5.6
545,19.52060523889814
546,-1.0188014318572314
547,18.266227152963186
548,156.26229510531897
720,3783.014872544818
721,3783.014872544818
784,0.0
785,0.0
848,0.0
849,0.0
1121,4621.353280622867
1135,1550.8913400053307
1161,0.07924090395045295
1163,0.0
1166,696.5752391863834
1168,696.5752391863834
2,3, 1, 8, 0, 8, 0.00,60.00,Wednesday
7,-5.6
545,19.649777487095605
546,-1.208223220024981
547,18.133461676433416
548,156.26229510531897
720,3743.6091421953424
721,3743.6091421953424
784,0.0
785,0.0
848,0.0
849,0.0
1121,4612.044051221773
1135,1561.694502062155
1161,0.07924090395045295
1163,0.0
1166,722.3169671476398
1168,722.3169671476398
2,3, 1, 8, 0, 9, 0.00,60.00,Wednesday
7,-5.0
545,19.719515466055366
546,-0.239635606351475
547,18.008578624924752
548,154.28732714982866
720,3097.2444070764486
721,3097.2444070764486
784,0.0
785,0.0
848,0.0
849,0.0
1121,4623.4234564417175
1135,1553.5772287968036
1161,0.07824045135813129
1163,2.5250913163414213
1166,0.0
1168,0.0
2,3, 1, 8, 0,10, 0.00,60.00,Wednesday
7,-3.3
545,19.90190960780201
546,1.4569906044611272
547,17.939787862501372
548,103.66731242250978
720,2022.9686566312703
721,2022.9686566312703
784,0.0
785,0.0
848,0.0
849,0.0
1121,3134.9143476917184
1135,1060.5697296849778
1161,0.05257047204694591
1163,67.31480983655433
1166,0.0
1168,0.0
2,3, 1, 8, 0,11, 0.00,60.00,Wednesday
7,-2.2
545,20.0840979581054
546,4.851881314452891
547,17.8802591579224
548,54.41790037567023
720,1003.1595483446254
721,1003.1595483446254
784,0.0
785,0.0
848,0.0
849,0.0
1121,1634.5254717397236
1135,564.0674283274649
1161,0.027595685562631
1163,130.34989711907934
1166,0.0
1168,0.0
2,3, 1, 8, 0,12, 0.00,60.00,Wednesday
7,-0.6
545,20.171269564746964
546,9.069893875003183
547,17.839023593466756
548,19.652934351471437
720,340.47330302181217
721,340.47330302181217
784,0.0
785,0.0
848,0.0
849,0.0
1121,601.1726659597545
1135,207.2959784027252
1161,0.009966116326032006
1163,174.84603070085237
1166,0.0
1168,0.0
2,3, 1, 8, 0,13, 0.00,60.00,Wednesday
7,0.0
545,20.561753691359513
546,15.577692698741206
547,17.81641287136915
548,0.0
720,-329.10612165411476
721,-329.10612165411476
784,0.0
785,0.0
848,0.0
849,0.0
1121,0.0
1135,0.0
1161,0.0
1163,200.0
1166,0.0
1168,0.0
2,3, 1, 8, 0,14, 0.00,60.00,Wednesday
7,0.0
545,21.01689683015236
546,18.605629527786807
547,17.811317196986195
548,0.0
720,-1029.9094393824707
721,-1029.9094393824707
784,0.0
785,0.0
848,0.0
849,0.0
1121,0.0
1135,0.0
1161,0.0
1163,200.0
1166,0.0
1168,0.0
2,3, 1, 8, 0,15, 0.00,60.00,Wednesday
7,2.2
545,21.84975575356439
546,16.875151606168725
547,17.82753874981097
548,0.0
720,-1787.6769446120343
721,-1787.6769446120343
784,0.0
785,0.0
848,0.0
849,0.0
1121,0.0
1135,0.0
1161,0.0
1163,200.0
1166,0.0
1168,0.0
2,3, 1, 8, 0,16, 0.00,60.00,Wednesday
7,1.7
545,22.54690587534779
546,14.829209037582755
547,17.8636279282747
548,0.0
720,-2347.2488168948785
721,-2347.2488168948785
784,0.0
785,0.0
848,0.0
849,0.0
1121,0.0
1135,0.0
1161,0.0
1163,200.0
1166,0.0
1168,0.0
2,3, 1, 8, 0,17, 0.00,60.00,Wednesday
7,1.1
545,22.89633406808676
546,12.418152626154981
547,17.909241524646717
548,0.0
720,-2704.4047275790763
721,-2704.4047275790763
784,0.0
785,0.0
848,0.0
849,0.0
1121,0.0
1135,0.0
1161,0.0
1163,200.0
1166,0.0
1168,0.0
2,3, 1, 8, 0,18, 0.00,60.00,Wednesday
7,0.0
545,22.597436912086117
546,8.876846650898736
547,17.975286507222833
548,0.0
720,-2497.0954746230855
721,-2497.0954746230855
784,0.0
785,0.0
848,0.0
849,0.0
1121,0.0
1135,0.0
1161,0.0
1163,200.0
1166,0.0
1168,0.0
2,3, 1, 8, 0,19, 0.00,60.00,Wednesday
7,0.0
545,21.996602337445005
546,5.912979609778264
547,18.027385039834204
548,0.0
720,-2011.7156853670513
721,-2011.7156853670513
784,0.0
785,0.0
848,0.0
849,0.0
1121,0.0
1135,0.0
1161,0.0
1163,200.0
1166,0.0
1168,0.0
2,3, 1, 8, 0,20, 0.00,60.00,Wednesday
7,0.0
545,21.609338151206096
546,3.9115400016102053
547,18.051135462846705
548,0.0
720,-1678.717748432964
721,-1678.717748432964
784,0.0
785,0.0
848,0.0
849,0.0
1121,0.0
1135,0.0
1161,0.0
1163,200.0
1166,0.0
1168,0.0
2,3, 1, 8, 0,21, 0.00,60.00,Wednesday
7,-1.1
545,21.1134822741654
546,2.1375241165303516
547,18.043466246723206
548,0.0
720,-1212.2175329765469
721,-1212.2175329765469
784,0.0
785,0.0
848,0.0
849,0.0
1121,0.0
1135,0.0
1161,0.0
1163,200.0
1166,0.0
1168,0.0
2,3, 1, 8, 0,22, 0.00,60.00,Wednesday
7,-0.6
545,20.466198267306915
546,1.2274397528069514
547,18.008500146439356
548,0.0
720,-644.9911485011307
721,-644.9911485011307
784,0.0
785,0.0
848,0.0
849,0.0
1121,0.0
1135,0.0
1161,0.0
1163,200.0
1166,0.0
1168,0.0
2,3, 1, 8, 0,23, 0.00,60.00,Wednesday
7,-1.7
545,19.536574291705453
546,0.01127908737739419
547,17.955890595182733
548,0.0
720,-797.393208171703
721,-797.393208171703
784,0.0
785,0.0
848,0.0
849,0.0
1121,0.0
1135,0.0
1161,0.0
1163,200.0
1166,0.0
1168,0.0
2,3, 1, 8, 0,24, 0.00,60.00,Wednesday
7,-1.7
545,18.839073754382223
546,-1.6803673561501464
547,17.888129648048412
548,0.0
720,-195.67538710245935
721,-195.67538710245935
784,0.0
785,0.0
848,0.0
849,0.0
1121,0.0
1135,0.0
1161,0.0
1163,200.0
1166,0.0
1168,0.0
2,4, 1, 9, 0, 1, 0.00,60.00,Thursday
7,-1.0
545,18.605258621026167
546,-1.3250428642322387
547,17.787576694651786
548,21.084479909797917
720,436.81107151665674
721,436.81107151665674
784,0.0
785,0.0
848,0.0
849,0.0
1121,642.63077047874
1135,216.24714137184614
1161,0.010692065921042078
1163,173.0137709490858
1166,0.0
1168,0.0
2,4, 1, 9, 0, 2, 0.00,60.00,Thursday
7,-0.6
545,18.578703195172757
546,-1.0219379021355313
547,17.69054598333736
548,35.57968140458107
720,819.4490770292359
721,819.4490770292359
784,0.0
785,0.0
848,0.0
849,0.0
1121,1109.1871570465194
1135,364.4333701232804
1161,0.018042660553301088
1163,154.46124500401297
1166,0.0
1168,0.0
2,4, 1, 9, 0, 3, 0.00,60.00,Thursday
7,0.0
545,18.457160371080015
546,0.08615174106472082
547,17.592796489682183
548,50.27498022670827
720,1195.0625230941805
721,1195.0625230941805
784,0.0
785,0.0
848,0.0
849,0.0
1121,1610.4451153549585
1135,517.3109232514572
1161,0.025494713099365802
1163,135.65264445921287
1166,0.0
1168,0.0
2,4, 1, 9, 0, 4, 0.00,60.00,Thursday
7,0.0
545,18.473821808637993
546,0.9669798327803167
547,17.484235626003915
548,68.60639524486382
720,1667.35887620016
721,1667.35887620016
784,0.0
785,0.0
848,0.0
849,0.0
1121,2228.8765577470976
1135,704.1236904512479
1161,0.03479067217785146
1163,112.1901178724436
1166,0.0
1168,0.0
2,4, 1, 9, 0, 5, 0.00,60.00,Thursday
7,0.6
545,18.533670287634525
546,1.7549078773737767
547,17.392784308843858
548,76.9177777521901
720,1904.7199804542997
721,1904.7199804542997
784,0.0
785,0.0
848,0.0
849,0.0
1121,2555.2578160548705
1135,793.787407792622
1161,0.03900539266141385
1163,101.55237833782715
1166,0.0
1168,0.0
2,4, 1, 9, 0, 6, 0.00,60.00,Thursday
7,1.0
545,19.34056823155111
546,2.7098707719648294
547,17.289718058593664
548,109.48396097478906
720,2868.721346159249
721,2868.721346159249
784,0.0
785,0.0
848,0.0
849,0.0
1121,3766.795330209039
1135,1134.997402690132
1161,0.05551984399842935
1163,59.87074545958158
1166,0.0
1168,0.0
2,4, 1, 9, 0, 7, 0.00,60.00,Thursday
7,1.0
545,19.60585962701812
546,2.8783397484714484
547,17.2360372507474
548,108.0555002300362
720,2744.5879861119756
721,2744.5879861119756
784,0.0
785,0.0
848,0.0
849,0.0
1121,3699.2175375417096
1135,1137.960967149615
1161,0.05479546590709355
1163,61.699038816226604
1166,0.0
1168,0.0
2,4, 1, 9, 0, 8, 0.00,60.00,Thursday
7,0.6
545,19.690749823289053
546,3.0622123574388125
547,17.159358028998223
548,105.70353380917307
720,2619.5558414592706
721,2619.5558414592706
784,0.0
785,0.0
848,0.0
849,0.0
1121,3568.940850063751
1135,1114.9834674223666
1161,0.0536027964205826
1163,64.70927576974923
1166,0.0
1168,0.0
2,4, 1, 9, 0, 9, 0.00,60.00,Thursday
7,1.7
545,19.84085138224367
546,4.322180722674552
547,17.099967697906806
548,80.34029103380658
720,1937.1378278825268
721,1937.1378278825268
784,0.0
785,0.0
848,0.0
849,0.0
1121,2701.709831835734
1135,846.2299983088355
1161,8.266522783741298
1163,97.06536328389856
1166,0.0
1168,0.0
2,4, 1, 9, 0,10, 0.00,60.00,Thursday
7,2.0
545,19.82031016809523
546,5.335539307977018
547,17.03814050743417
548,68.48992397007044
720,1683.6311375300447
721,1683.6311375300447
784,0.0
785,0.0
848,0.0
849,0.0
1121,2305.2299303719606
1135,727.1221217147227
1161,5.830803196394303
1163,112.26899285322749
1166,0.0
1168,0.0
2,4, 1, 9, 0,11, 0.00,60.00,Thursday
7,5.0
545,19.77796656278128
546,7.692494832189886
547,16.98732964821493
548,32.47774269580848
720,776.3724502871428
721,776.3724502871428
784,0.0
785,0.0
848,0.0
849,0.0
1121,1119.3582406628686
1135,344.8876950044949
1161,9.351469902030356
1163,158.3858131143288
1166,0.0
1168,0.0
2,4, 1, 9, 0,12, 0.00,60.00,Thursday
7,7.8
545,20.064622314672196
546,11.709323423453464
547,16.94884978979297
548,2.5059811622390775
720,25.23376214833297
721,25.23376214833297
784,0.0
785,0.0
848,0.0
849,0.0
1121,107.93888005995196
1135,29.849856116111283
1161,0.0
1163,196.79259649866262
1166,0.0
1168,0.0
2,4, 1, 9, 0,13, 0.00,60.00,Thursday
7,8.9
545,20.678476531584845
546,15.352124594157901
547,16.944713226371356
548,0.0
720,-729.854548489122
721,-729.854548489122
784,0.0
785,0.0
848,0.0
849,0.0
1121,0.0
1135,0.0
1161,0.0
1163,200.0
1166,0.0
1168,0.0
2,4, 1, 9, 0,14, 0.00,60.00,Thursday
7,8.9
545,21.295114337700326
546,16.745685295190096
547,16.970776497553352
548,0.0
720,-1145.786564905662
721,-1145.786564905662
784,0.0
785,0.0
848,0.0
849,0.0
1121,0.0
1135,0.0
1161,0.0
1163,200.0
1166,0.0
1168,0.0
2,4, 1, 9, 0,15, 0.00,60.00,Thursday
7,11.1
545,22.428020565649245
546,17.292615750824645
547,17.022517294367482
548,0.0
720,-1964.5542854884316
721,-1964.5542854884316
784,0.0
785,0.0
848,0.0
849,0.0
1121,0.0
1135,0.0
1161,0.0
1163,0.0
1166,0.0
1168,0.0
2,4, 1, 9, 0,16, 0.00,60.00,Thursday
7,11.1
545,22.810623970200528
546,16.258860022173312
547,17.092700459791963
548,0.0
720,-2181.418038765165
721,-2181.418038765165
784,0.0
785,0.0
848,0.0
849,0.0
1121,0.0
1135,0.0
1161,0.0
1163,0.0
1166,0.0
1168,0.0
2,4, 1, 9, 0,17, 0.00,60.00,Thursday
7,10.0
545,23.337498616967473
546,14.924784430316738
547,17.178900683446972
548,2.0629162751025825
720,-2817.324278005475
721,-2817.324278005475
784,0.0
785,0.0
848,0.0
849,0.0
1121,0.0
1135,0.0
1161,0.0
1163,0.0
1166,0.0
1168,0.0
2,4, 1, 9, 0,18, 0.00,60.00,Thursday
7,9.4
545,23.238030364421856
546,12.999375349736862
547,17.272466859879668
548,4.632913834900267
720,-2674.977103987352
721,-2674.977103987352
784,0.0
785,0.0
848,0.0
849,0.0
1121,0.0
1135,0.0
1161,0.0
1163,194.0703368886554
1166,0.0
1168,0.0
2,4, 1, 9, 0,19, 0.00,60.00,Thursday
7,8.9
545,23.36382690288255
546,11.438279806144273
547,17.34677146651222
548,0.6997005250872139
720,-2713.8324546694457
721,-2713.8324546694457
784,0.0
785,0.0
848,0.0
849,0.0
1121,0.0
1135,0.0
1161,0.0
1163,199.1044537972316
1166,0.0
1168,0.0
2,4, 1, 9, 0,20, 0.00,60.00,Thursday
7,8.9
545,23.34270003826282
546,10.190520207341907
547,17.40885908435196
548,0.7590389714538773
720,-2357.9577219034472
721,-2357.9577219034472
784,0.0
785,0.0
848,0.0
849,0.0
1121,0.0
1135,0.0
1161,0.0
1163,199.0285065620695
1166,0.0
1168,0.0
2,4, 1, 9, 0,21, 0.00,60.00,Thursday
7,8.3
545,22.49406957207512
546,9.199773821838175
547,17.44209900846931
548,0.0
720,-2221.1544481207857
721,-2221.1544481207857
784,0.0
785,0.0
848,0.0
849,0.0
1121,0.0
1135,0.0
1161,0.0
1163,200.0
1166,0.0
1168,0.0
2,4, 1, 9, 0,22, 0.00,60.00,Thursday
7,7.2
545,22.48563409104816
546,8.523598808286723
547,17.4637227588463
548,0.0
720,-2289.607028262566
721,-2289.607028262566
784,0.0
785,0.0
848,0.0
849,0.0
1121,0.0
1135,0.0
1161,0.0
1163,200.0
1166,0.0
1168,0.0
2,4, 1, 9, 0,23, 0.00,60.00,Thursday
7,7.8
545,21.903684315347277
546,8.10563152753275
547,17.46387812486002
548,0.0
720,-2314.7352849297768
721,-2314.7352849297768
784,0.0
785,0.0
848,0.0
849,0.0
1121,0.0
1135,0.0
1161,0.0
1163,200.0
1166,0.0
1168,0.0
2,4, 1, 9, 0,24, 0.00,60.00,Thursday
7,6.7
545,21.12202143202568
546,7.605630065905804
547,17.44995725333002
548,0.0
720,-1817.4624088526016
721,-1817.4624088526016
784,0.0
785,0.0
848,0.0
849,0.0
1121,0.0
1135,0.0
1161,0.0
1163,200.0
1166,0.0
1168,0.0
2,5, 1,10, 0, 1, 0.00,60.00,Friday
7,6.7
545,20.27676519377549
546,7.0179145183913505
547,17.422528103415956
548,0.0
720,-1258.7208120629039
721,-1258.7208120629039
784,0.0
785,0.0
848,0.0
849,0.0
1121,0.0
1135,0.0
1161,0.0
1163,200.0
1166,0.0
1168,0.0
2,5, 1,10, 0, 2, 0.00,60.00,Friday
7,6.7
545,19.667520172518994
546,6.859750232632011
547,17.386223867399195
548,0.0
720,-820.3304408121639
721,-820.3304408121639
784,0.0
785,0.0
848,0.0
849,0.0
1121,0.0
1135,0.0
1161,0.0
1163,200.0
1166,0.0
1168,0.0
2,5, 1,10, 0, 3, 0.00,60.00,Friday
7,5.6
545,19.100732037954277
546,5.760703748633486
547,17.343224242685302
548,0.0
720,-364.2409203782081
721,-364.2409203782081
784,0.0
785,0.0
848,0.0
849,0.0
1121,0.0
1135,0.0
1161,0.0
1163,200.0
1166,0.0
1168,0.0
2,5, 1,10, 0, 4, 0.00,60.00,Friday
7,4.4
545,18.59455006233251
546,4.6688897441275605
547,17.29043246798299
548,7.866045410606353
720,226.01396007299445
721,226.01396007299445
784,0.0
785,0.0
848,0.0
849,0.0
1121,273.8539502300936
1135,85.17332109241815
1161,0.0039888960357446395
1163,189.93222985381698
1166,0.0
1168,0.0
2,5, 1,10, 0, 5, 0.00,60.00,Friday
7,3.3
545,18.562601074699987
546,3.5976431366971826
547,17.22781488051995
548,19.85120747325887
720,546.951516303634
721,546.951516303634
784,0.0
785,0.0
848,0.0
849,0.0
1121,679.0337308144494
1135,210.56632800576966
1161,0.010066619246549202
1163,174.59236645547716
1166,0.0
1168,0.0
2,5, 1,10, 0, 6, 0.00,60.00,Friday
7,1.1
545,19.236728804290454
546,3.1032523349360575
547,17.145290717420387
548,49.48740877996296
720,1295.6734963905192
721,1295.6734963905192
784,0.0
785,0.0
848,0.0
849,0.0
1121,1632.1904202965113
1135,513.846277087347
1161,0.02509530068329071
1163,136.66074102591745
1166,0.0
1168,0.0
2,5, 1,10, 0, 7, 0.00,60.00,Friday
7,0.6
545,19.507534692903075
546,2.7616566833268426
547,17.082946162043132
548,72.3557386688643