Program Version,EnergyPlus, Version 22.2.0-c249759bad, YMD=2023.08.02 11:55
1,5,Environment Title[],Latitude[deg],Longitude[deg],Time Zone[],Elevation[m]
2,8,Day of Simulation[],Month[],Day of Month[],DST Indicator[1=yes 0=no],Hour[],StartMinute[],EndMinute[],DayType
3,5,Cumulative Day of Simulation[],Month[],Day of Month[],DST Indicator[1=yes 0=no],DayType  ! When Daily Report Variables Requested
4,2,Cumulative Days of Simulation[],Month[]  ! When Monthly Report Variables Requested
5,1,Cumulative Days of Simulation[] ! When Run Period Report Variables Requested
6,1,Calendar Year of Simulation[] ! When Annual Report Variables Requested
7,1,Environment,Site Mains Water Temperature [C] !Hourly
1111,1,DX_HEATING_COIL,Heating Coil Heating Energy [J] !Hourly
1151,1,HEATING_RESISTANCE_BACKUP,Heating Coil Heating Energy [J] !Hourly
1288,1,WATER HEATER,Water Heater Tank Temperature [C] !Hourly
1302,1,WATER HEATER,Water Heater Heating Energy [J] !Hourly
1303,1,WATER HEATER,Water Heater Electricity Rate [W] !Hourly
1318,1,WaterSystems:Electricity [J] !Hourly
End of Data Dictionary
1,EXTREME_WINTER,  39.10, -84.42,  -5.00, 149.40
2,1, 1,15, 0, 1, 0.00,60.00,Monday
7,10.441413881398018
1111,12348079.854557527
1151,0.0
1288,53.1378902331418
1302,0.0
1303,0.0
1318,29880.0
2,1, 1,15, 0, 2, 0.00,60.00,Monday
7,10.441413881398018
1111,12239618.768811699
1151,0.0
1288,52.749990787920446
1302,0.0
1303,0.0
1318,29880.0
2,1, 1,15, 0, 3, 0.00,60.00,Monday
7,10.441413881398018
1111,12614936.128418308
1151,0.0
1288,52.366448838416716
1302,0.0
1303,0.0
1318,29880.0
2,1, 1,15, 0, 4, 0.00,60.00,Monday
7,10.441413881398018
1111,14313315.985626236
1151,112561.34470683447
1288,51.98722525349944
1302,0.0
1303,0.0
1318,29880.0
2,1, 1,15, 0, 5, 0.00,60.00,Monday
7,10.441413881398018
1111,15132397.03051877
1151,2121758.957768691
1288,51.612253469645424
1302,0.0
1303,0.0
1318,29880.0
2,1, 1,15, 0, 6, 0.00,60.00,Monday
7,10.441413881398018
1111,14644617.371809036
1151,8407413.007655486
1288,51.75919421148538
1302,747880.8411204597
1303,207.7446780890166
1318,777760.8411204597
2,1, 1,15, 0, 7, 0.00,60.00,Monday
7,10.441413881398018
1111,14145841.031200323
1151,7088608.003541873
1288,51.93133176974953
1302,0.0
1303,0.0
1318,29880.0
2,1, 1,15, 0, 8, 0.00,60.00,Monday
7,10.441413881398018
1111,14008927.099082828
1151,7269019.282704863
1288,52.24145690089713
1302,6744178.4553193
1303,1873.3829042553614
1318,6774058.4553193
2,1, 1,15, 0, 9, 0.00,60.00,Monday
7,10.441413881398018
1111,14171644.090892956
1151,6804111.590255299
1288,46.55856195513565
1302,10142043.485039033
1303,2817.234301399731
1318,10171923.485039033
2,1, 1,15, 0,10, 0.00,60.00,Monday
7,10.441413881398018
1111,14375257.626743976
1151,5236203.092866568
1288,47.60083173390819
1302,11567279.824183652
1303,3213.133284495459
1318,11597159.824183652
2,1, 1,15, 0,11, 0.00,60.00,Monday
7,10.441413881398018
1111,14444807.656923166
1151,2346667.559706554
1288,53.037996704564925
1302,0.0
1303,0.0
1318,29880.0
2,1, 1,15, 0,12, 0.00,60.00,Monday
7,10.441413881398018
1111,12345160.81036048
1151,27442.738714369716
1288,52.66371404978478
1302,0.0
1303,0.0
1318,29880.0
2,1, 1,15, 0,13, 0.00,60.00,Monday
7,10.441413881398018
1111,7852556.004254385
1151,0.0
1288,52.29365717799711
1302,0.0
1303,0.0
1318,29880.0
2,1, 1,15, 0,14, 0.00,60.00,Monday
7,10.441413881398018
1111,4885167.333145893
1151,0.0
1288,51.927748563242346
1302,0.0
1303,0.0
1318,29880.0
2,1, 1,15, 0,15, 0.00,60.00,Monday
7,10.441413881398018
1111,859047.1899654305
1151,0.0
1288,51.566046113858285
1302,0.0
1303,0.0
1318,29880.0
2,1, 1,15, 0,16, 0.00,60.00,Monday
7,10.441413881398018
1111,0.0
1151,0.0
1288,49.24519603912689
1302,8413103.273955237
1303,2336.9731316542325
1318,8442983.273955237
2,1, 1,15, 0,17, 0.00,60.00,Monday
7,10.441413881398018
1111,0.0
1151,0.0
1288,51.69970614701555
1302,6162672.036821032
1303,1711.8533435613979
1318,6192552.036821032
2,1, 1,15, 0,18, 0.00,60.00,Monday
7,10.441413881398018
1111,462570.01490596484
1151,0.0
1288,52.42700604540365
1302,0.0
1303,0.0
1318,29880.0
2,1, 1,15, 0,19, 0.00,60.00,Monday
7,10.441413881398018
1111,2898924.5592270736
1151,0.0
1288,51.67102151889393
1302,0.0
1303,0.0
1318,29880.000000000004
2,1, 1,15, 0,20, 0.00,60.00,Monday
7,10.441413881398018
1111,4261444.186487067
1151,0.0
1288,51.31321455907109
1302,0.0
1303,0.0
1318,29880.0
2,1, 1,15, 0,21, 0.00,60.00,Monday
7,10.441413881398018
1111,6318962.027799346
1151,0.0
1288,50.825525491976215
1302,13455000.0
1303,3737.5
1318,13484880.0
2,1, 1,15, 0,22, 0.00,60.00,Monday
7,10.441413881398018
1111,9001899.422288727
1151,0.0
1288,52.68902043010561
1302,2995088.1410635053
1303,831.9689280731959
1318,3024968.1410635053
2,1, 1,15, 0,23, 0.00,60.00,Monday
7,10.441413881398018
1111,5640431.286803315
1151,0.0
1288,52.59730393645625
1302,0.0
1303,0.0
1318,29880.0
2,1, 1,15, 0,24, 0.00,60.00,Monday
7,10.441413881398018
1111,11922662.887820803
1151,0.0
1288,52.21605057792565
1302,0.0
1303,0.0
1318,29880.0
2,2, 1,16, 0, 1, 0.00,60.00,Tuesday
7,10.399162799698386
1111,13581217.142087176
1151,2010951.19520362
1288,51.83886774189426
1302,0.0
1303,0.0
1318,29880.0
2,2, 1,16, 0, 2, 0.00,60.00,Tuesday
7,10.399162799698386
1111,13431152.445039952
1151,3863917.847815214
1288,51.46600693614044
1302,0.0
1303,0.0
1318,29880.0
2,2, 1,16, 0, 3, 0.00,60.00,Tuesday
7,10.399162799698386
1111,13463154.372936778
1151,4721098.241296611
1288,51.108428513245634
1302,506268.24720848
1303,140.63006866902222
1318,536148.24720848
2,2, 1,16, 0, 4, 0.00,60.00,Tuesday
7,10.399162799698386
1111,13355324.441067383
1151,5979777.879588598
1288,51.7420747459252
1302,218026.88194688893
1303,60.5630227630247
1318,247906.88194688893
2,2, 1,16, 0, 5, 0.00,60.00,Tuesday
7,10.399162799698386
1111,13360904.220630806
1151,6074087.682738272
1288,51.37235956751845
1302,0.0
1303,0.0
1318,29880.0
2,2, 1,16, 0, 6, 0.00,60.00,Tuesday
7,10.399162799698386
1111,13551984.016488612
1151,9895189.869904634
1288,51.01015747314732
1302,0.0
1303,0.0
1318,29880.0
2,2, 1,16, 0, 7, 0.00,60.00,Tuesday
7,10.399162799698386
1111,13655705.204538718
1151,7795751.041049768
1288,51.4726577779659
1302,1998004.0139528322
1303,555.0011149868978
1318,2027884.0139528322
2,2, 1,16, 0, 8, 0.00,60.00,Tuesday
7,10.399162799698386
1111,13681815.158757012
1151,6922062.316994941
1288,52.41334132995413
1302,1544726.031070462
1303,429.0905641862394
1318,1574606.031070462
2,2, 1,16, 0, 9, 0.00,60.00,Tuesday
7,10.399162799698386
1111,14066500.89668826
1151,5157524.802460449
1288,44.70982186184508
1302,10755000.0
1303,2987.5
1318,10784880.0
2,2, 1,16, 0,10, 0.00,60.00,Tuesday
7,10.399162799698386
1111,13918889.008308709
1151,844767.7649968686
1288,48.27218802852872
1302,15662268.236685222
1303,4350.630065745896
1318,15692148.236685222
2,2, 1,16, 0,11, 0.00,60.00,Tuesday
7,10.399162799698386
1111,8841321.723751351
1151,0.0
1288,43.46719165883899
1302,15766791.72880708
1303,4379.6643691130785
1318,15796671.72880708
2,2, 1,16, 0,12, 0.00,60.00,Tuesday
7,10.399162799698386
1111,4489986.128890077
1151,0.0
1288,53.1442350422055
1302,0.0
1303,0.0
1318,29880.000000000004
2,2, 1,16, 0,13, 0.00,60.00,Tuesday
7,10.399162799698386
1111,2222197.4873166173
1151,0.0
1288,52.76873837297506
1302,0.0
1303,0.0
1318,29880.0
2,2, 1,16, 0,14, 0.00,60.00,Tuesday
7,10.399162799698386
1111,602726.0576831608
1151,0.0
1288,52.397457457039195
1302,0.0
1303,0.0
1318,29880.0
2,2, 1,16, 0,15, 0.00,60.00,Tuesday
7,10.399162799698386
1111,0.0
1151,0.0
1288,52.03107845384496
1302,0.0
1303,0.0
1318,29880.0
2,2, 1,16, 0,16, 0.00,60.00,Tuesday
7,10.399162799698386
1111,0.0
1151,0.0
1288,51.674213960036134
1302,0.0
1303,0.0
1318,29880.0
2,2, 1,16, 0,17, 0.00,60.00,Tuesday
7,10.399162799698386
1111,0.0
1151,0.0
1288,51.60655814761364
1302,758651.6658322657
1303,210.73657384229602
1318,788531.6658322657
2,2, 1,16, 0,18, 0.00,60.00,Tuesday
7,10.399162799698386
1111,0.0
1151,0.0
1288,51.58079205375884
1302,5089123.590509672
1303,1413.6454418082433
1318,5119003.590509672
2,2, 1,16, 0,19, 0.00,60.00,Tuesday
7,10.399162799698386
1111,0.0
1151,0.0
1288,51.93244178057886
1302,5701688.831670777
1303,1583.8024532418824
1318,5731568.831670777
2,2, 1,16, 0,20, 0.00,60.00,Tuesday
7,10.399162799698386
1111,0.0
1151,0.0
1288,49.094197967422105
1302,12165975.029103039
1303,3379.437508084178
1318,12195855.029103039
2,2, 1,16, 0,21, 0.00,60.00,Tuesday
7,10.399162799698386
1111,31830.818203369083
1151,0.0
1288,52.3686598432389
1302,1571638.8189644697
1303,436.56633860124157
1318,1601518.8189644697
2,2, 1,16, 0,22, 0.00,60.00,Tuesday
7,10.399162799698386
1111,1614988.013703398
1151,0.0
1288,51.87390882001606
1302,0.0
1303,0.0
1318,29880.0
2,2, 1,16, 0,23, 0.00,60.00,Tuesday
7,10.399162799698386
1111,616475.2182441102
1151,0.0
1288,51.51149428344949
1302,0.0
1303,0.0
1318,29880.0
2,2, 1,16, 0,24, 0.00,60.00,Tuesday
7,10.399162799698386
1111,3274269.561165713
1151,0.0
1288,51.42806875923291
1302,1701389.8616921867
1303,472.6082949144963
1318,1731269.8616921867
2,3, 1,17, 0, 1, 0.00,60.00,Wednesday
7,10.358629861582711
1111,5489557.26457973
1151,0.0
1288,53.15177337147025
1302,0.0
1303,0.0
1318,29880.0
2,3, 1,17, 0, 2, 0.00,60.00,Wednesday
7,10.358629861582711
1111,7155272.893893092
1151,0.0
1288,52.76368767103372
1302,0.0
1303,0.0
1318,29880.0
2,3, 1,17, 0, 3, 0.00,60.00,Wednesday
7,10.358629861582711
1111,8387056.419796437
1151,0.0
1288,52.379963363103464
1302,0.0
1303,0.0
1318,29880.0
2,3, 1,17, 0, 4, 0.00,60.00,Wednesday
7,10.358629861582711
1111,9026188.907455977
1151,0.0
1288,52.00057907218879
1302,0.0
1303,0.0
1318,29880.0
2,3, 1,17, 0, 5, 0.00,60.00,Wednesday
7,10.358629861582711
1111,9570955.481916329
1151,0.0
1288,51.625469206867
1302,0.0
1303,0.0
1318,29880.0
2,3, 1,17, 0, 6, 0.00,60.00,Wednesday
7,10.358629861582711
1111,14210467.560373703
1151,889034.8439696479
1288,51.73784297708168
1302,762492.8413996967
1303,211.8035670554713
1318,792372.8413996967
2,3, 1,17, 0, 7, 0.00,60.00,Wednesday
7,10.358629861582711
1111,12304699.477167148
1151,0.0
1288,51.965301829463804
1302,0.0
1303,0.0
1318,29880.0
2,3, 1,17, 0, 8, 0.00,60.00,Wednesday
7,10.358629861582711
1111,11014661.693114672
1151,0.0
1288,52.19440380305635
1302,5901769.169499055
1303,1639.3803248608485
1318,5931649.169499055
2,3, 1,17, 0, 9, 0.00,60.00,Wednesday
7,10.358629861582711
1111,8958895.141443525
1151,0.0
1288,50.786730157645856
1302,9949989.67312121
1303,2763.8860203114473
1318,9979869.67312121
2,3, 1,17, 0,10, 0.00,60.00,Wednesday
7,10.358629861582711
1111,5243543.110833216
1151,0.0
1288,51.00508186676915
1302,11727092.272105504
1303,3257.525631140419
1318,11756972.272105504
2,3, 1,17, 0,11, 0.00,60.00,Wednesday
7,10.358629861582711
1111,3885832.505249318
1151,0.0
1288,53.13448120896664
1302,0.0
1303,0.0
1318,29880.0
2,3, 1,17, 0,12, 0.00,60.00,Wednesday
7,10.358629861582711
1111,3866763.7510946826
1151,0.0
1288,52.75908499069343
1302,0.0
1303,0.0
1318,29880.0
2,3, 1,17, 0,13, 0.00,60.00,Wednesday
7,10.358629861582711
1111,4362525.70022729
1151,0.0
1288,52.3879170015832
1302,0.0
1303,0.0
1318,29880.0
2,3, 1,17, 0,14, 0.00,60.00,Wednesday
7,10.358629861582711
1111,4094691.5948237358
1151,0.0
1288,52.0209265315922
1302,0.0
1303,0.0
1318,29880.0
2,3, 1,17, 0,15, 0.00,60.00,Wednesday
7,10.358629861582711
1111,898875.2415411334
1151,0.0
1288,51.54287310477171
1302,2094229.8747954585
1303,581.7305207765163
1318,2124109.8747954587
2,3, 1,17, 0,16, 0.00,60.00,Wednesday
7,10.358629861582711
1111,0.0
1151,0.0
1288,50.59446058269327
1302,13059473.17799992
1303,3627.6314383333115
1318,13089353.17799992
2,3, 1,17, 0,17, 0.00,60.00,Wednesday
7,10.358629861582711
1111,0.0
1151,0.0
1288,53.16312158690295
1302,486801.39649584703
1303,135.2226101377353
1318,516681.39649584703
2,3, 1,17, 0,18, 0.00,60.00,Wednesday
7,10.358629861582711
1111,0.0
1151,0.0
1288,52.80370738169794
1302,0.0
1303,0.0
1318,29880.0
2,3, 1,17, 0,19, 0.00,60.00,Wednesday
7,10.358629861582711
1111,0.0
1151,0.0
1288,52.43555758915132
1302,0.0
1303,0.0
1318,29880.0
2,3, 1,17, 0,20, 0.00,60.00,Wednesday
7,10.358629861582711
1111,434126.4471804817
1151,0.0
1288,52.06905265219232
1302,0.0
1303,0.0
1318,29880.0
2,3, 1,17, 0,21, 0.00,60.00,Wednesday
7,10.358629861582711
1111,1431042.040060528
1151,0.0
1288,52.08824058105324
1302,6585299.53744711
1303,1829.249871513086
1318,6615179.53744711
2,3, 1,17, 0,22, 0.00,60.00,Wednesday
7,10.358629861582711
1111,2342134.620395744
1151,0.0
1288,53.10590284616885
1302,1508741.9021806428
1303,419.0949728279564
1318,1538621.9021806428
2,3, 1,17, 0,23, 0.00,60.00,Wednesday
7,10.358629861582711
1111,1358917.4647714128
1151,0.0
1288,52.97871330347484
1302,0.0
1303,0.0
1318,29880.0
2,3, 1,17, 0,24, 0.00,60.00,Wednesday
7,10.358629861582711
1111,5425145.037914576
1151,0.0
1288,52.59329187735134
1302,0.0
1303,0.0
1318,29880.0
2,4, 1,18, 0, 1, 0.00,60.00,Thursday
7,10.319827070496707
1111,7931721.111001209
1151,0.0
1288,52.21145284619573
1302,0.0
1303,0.0
1318,29880.0
2,4, 1,18, 0, 2, 0.00,60.00,Thursday
7,10.319827070496707
1111,9816307.777992232
1151,0.0
1288,51.833982630093544
1302,0.0
1303,0.0
1318,29880.0
2,4, 1,18, 0, 3, 0.00,60.00,Thursday
7,10.319827070496707
1111,11852411.40782744
1151,0.0
1288,51.46068327784076
1302,0.0
1303,0.0
1318,29880.0
2,4, 1,18, 0, 4, 0.00,60.00,Thursday
7,10.319827070496707
1111,12545697.097850591
1151,0.0
1288,52.0611926947451
1302,762563.6832624408
1303,211.823245350678
1318,792443.6832624408
2,4, 1,18, 0, 5, 0.00,60.00,Thursday
7,10.319827070496707
1111,14824518.176853709
1151,110858.8734548659
1288,51.780766306727166
1302,0.0
1303,0.0
1318,29880.0
2,4, 1,18, 0, 6, 0.00,60.00,Thursday
7,10.319827070496707
1111,16328137.847158412
1151,3837565.776144467
1288,51.41366804941351
1302,0.0
1303,0.0
1318,29880.0
2,4, 1,18, 0, 7, 0.00,60.00,Thursday
7,10.319827070496707
1111,16310595.557360888
1151,710125.7926879481
1288,51.05769981828896
1302,0.0
1303,0.0
1318,29880.0
2,4, 1,18, 0, 8, 0.00,60.00,Thursday
7,10.319827070496707
1111,16331649.966529846
1151,1436742.0352224107
1288,50.70579335627077
1302,0.0
1303,0.0
1318,29880.0
2,4, 1,18, 0, 9, 0.00,60.00,Thursday
7,10.319827070496707
1111,15270993.651987188
1151,698887.2304134427
1288,43.88494349391484
1302,8055000.0
1303,2237.5
1318,8084880.0
2,4, 1,18, 0,10, 0.00,60.00,Thursday
7,10.319827070496707
1111,9327484.252471374
1151,0.0
1288,43.60465244078322
1302,16199999.999999998
1303,4499.999999999999
1318,16229879.999999998
2,4, 1,18, 0,11, 0.00,60.00,Thursday
7,10.319827070496707
1111,4750188.917720345
1151,0.0
1288,52.436525435047635
1302,4545000.0
1303,1262.4999999999998
1318,4574880.0
2,4, 1,18, 0,12, 0.00,60.00,Thursday
7,10.319827070496707
1111,2342021.272077142
1151,0.0
1288,52.483442894014864
1302,0.0
1303,0.0
1318,29880.0
2,4, 1,18, 0,13, 0.00,60.00,Thursday
7,10.319827070496707
1111,1202551.5035541146
1151,0.0
1288,51.56925674747595
1302,0.0
1303,0.0
1318,29880.0
2,4, 1,18, 0,14, 0.00,60.00,Thursday
7,10.319827070496707
1111,750402.3501065063
1151,0.0
1288,51.23180282051888
1302,664959.49649626
1303,184.7109712489611
1318,694839.49649626
2,4, 1,18, 0,15, 0.00,60.00,Thursday
7,10.319827070496707
1111,0.0
1151,0.0
1288,53.15144946829408
1302,1007348.3253191373
1303,279.8189792553159
1318,1037228.3253191373
2,4, 1,18, 0,16, 0.00,60.00,Thursday
7,10.319827070496707
1111,0.0
1151,0.0
1288,52.82595887247012
1302,0.0
1303,0.0
1318,29880.0
2,4, 1,18, 0,17, 0.00,60.00,Thursday
7,10.319827070496707
1111,0.0
1151,0.0
1288,52.31529617684887
1302,1920079.082096542
1303,533.3553005823728
1318,1949959.082096542
2,4, 1,18, 0,18, 0.00,60.00,Thursday
7,10.319827070496707
1111,0.0
1151,0.0
1288,53.117124153606994
1302,1530000.0
1303,425.0
1318,1559880.0
2,4, 1,18, 0,19, 0.00,60.00,Thursday
7,10.319827070496707
1111,1442456.3168331427
1151,0.0
1288,52.56223054912204
1302,3028612.790553782
1303,841.2813307093838
1318,3058492.790553782
2,4, 1,18, 0,20, 0.00,60.00,Thursday
7,10.319827070496707
1111,3093295.298606538
1151,0.0
1288,51.405296021805064
1302,2555338.053298723
1303,709.816125916312
1318,2585218.053298723
2,4, 1,18, 0,21, 0.00,60.00,Thursday
7,10.319827070496707
1111,3950206.5954994243
1151,0.0
1288,43.0471906855152
1302,15728527.118321814
1303,4369.035310644948
1318,15758407.118321814
2,4, 1,18, 0,22, 0.00,60.00,Thursday
7,10.319827070496707
1111,6111234.9019827
1151,0.0
1288,53.138728088276935
1302,0.0
1303,0.0
1318,29880.0
2,4, 1,18, 0,23, 0.00,60.00,Thursday
7,10.319827070496707
1111,3327677.784937041
1151,0.0
1288,52.759226822440326
1302,0.0
1303,0.0
1318,29880.0
2,4, 1,18, 0,24, 0.00,60.00,Thursday
7,10.319827070496707
1111,9484058.953548076
1151,0.0
1288,52.37590266544734
1302,0.0
1303,0.0
1318,29880.0
2,5, 1,19, 0, 1, 0.00,60.00,Friday
7,10.282765917519429
1111,13944369.235881247
1151,0.0
1288,51.996545672753165
1302,0.0
1303,0.0
1318,29880.0
2,5, 1,19, 0, 2, 0.00,60.00,Friday
7,10.282765917519429
1111,15887071.068065666
1151,465524.5754543948
1288,51.621440489324975
1302,0.0
1303,0.0
1318,29880.0
2,5, 1,19, 0, 3, 0.00,60.00,Friday
7,10.282765917519429
1111,15976718.290821163
1151,1597837.6411830464
1288,51.737112562328775
1302,725511.2178231466
1303,201.53089383976294
1318,755391.2178231466
2,5, 1,19, 0, 4, 0.00,60.00,Friday
7,10.282765917519429
1111,16113608.941279488
1151,1519858.9866337087
1288,51.89158041960983
1302,0.0
1303,0.0
1318,29880.0
2,5, 1,19, 0, 5, 0.00,60.00,Friday
7,10.282765917519429
1111,16181923.457957309
1151,267263.6425186589
1288,51.5177641138358
1302,0.0
1303,0.0
1318,29880.0
2,5, 1,19, 0, 6, 0.00,60.00,Friday
7,10.282765917519429
1111,16455286.758044232
1151,3447614.0947756786
1288,51.15370188959532
1302,0.0
1303,0.0
1318,29880.0
2,5, 1,19, 0, 7, 0.00,60.00,Friday
7,10.282765917519429
1111,16108298.105653442
1151,2808114.273789446
1288,50.800661596540586
1302,0.0
1303,0.0
1318,29880.0
2,5, 1,19, 0, 8, 0.00,60.00,Friday
7,10.282765917519429
1111,15554000.725765463
1151,4256807.457857243
1288,51.53521642056802
1302,5552999.741616525
1303,1542.499928226812
1318,5582879.741616525
2,5, 1,19, 0, 9, 0.00,60.00,Friday
7,10.282765917519429
1111,15129232.84775943
1151,4169814.13391569
1288,50.19155664116411
1302,8073027.225304259
1303,2242.5075625845166
1318,8102907.225304259
2,5, 1,19, 0,10, 0.00,60.00,Friday
7,10.282765917519429
1111,15116305.181116411
1151,2127421.552943013
1288,37.630274311160605
1302,16200000.0
1303,4500.0
1318,16229880.0
2,5, 1,19, 0,11, 0.00,60.00,Friday
7,10.282765917519429
1111,15168854.835015746
1151,1330048.501939252
1288,52.294560779692894
1302,4095000.0
1303,1137.5
1318,4124880.0
2,5, 1,19, 0,12, 0.00,60.00,Friday
7,10.282765917519429
1111,15062356.370374668
1151,1065359.7996809455
1288,52.41237534207084
1302,0.0
1303,0.0
1318,29880.0
2,5, 1,19, 0,13, 0.00,60.00,Friday
7,10.282765917519429
1111,12150883.183899157
1151,0.0
1288,52.04571331675171
1302,0.0
1303,0.0
1318,29880.0
2,5, 1,19, 0,14, 0.00,60.00,Friday
7,10.282765917519429
1111,9762618.655303635
1151,0.0
1288,51.683176634746154
1302,0.0
1303,0.0
1318,29880.0
2,5, 1,19, 0,15, 0.00,60.00,Friday
7,10.282765917519429
1111,7834727.56297734
1151,0.0
1288,51.32470141246349
1302,0.0
1303,0.0
1318,29880.0
2,5, 1,19, 0,16, 0.00,60.00,Friday
7,10.282765917519429
1111,6120052.342721604
1151,0.0
1288,51.098844031709696
1302,721689.952857961
1303,200.46943134943362
1318,751569.952857961
2,5, 1,19, 0,17, 0.00,60.00,Friday
7,10.282765917519429
1111,3731505.7262027375
1151,0.0
1288,51.626194384743705
1302,0.0
1303,0.0
1318,29880.0
2,5, 1,19, 0,18, 0.00,60.00,Friday
7,10.282765917519429
1111,9265376.996315392
1151,16533.942985876798
1288,51.517207805249235
1302,10421596.555075593
1303,2894.8879319654425
1318,10451476.555075593
2,5, 1,19, 0,19, 0.00,60.00,Friday
7,10.282765917519429
1111,13948811.463957364
1151,394355.109820619
1288,46.17074442823415
1302,9601233.112994494
1303,2667.009198054026
1318,9631113.112994494
2,5, 1,19, 0,20, 0.00,60.00,Friday
7,10.282765917519429
1111,13616883.332948662
1151,2154465.0789732398
1288,49.00963325938
1302,10596760.147546994
1303,2943.54448542972
1318,10626640.147546994
2,5, 1,19, 0,21, 0.00,60.00,Friday
7,10.282765917519429
1111,13377469.618643623
1151,4571024.246858487
1288,53.03216068287809
1302,0.0
1303,0.0
1318,29880.0
2,5, 1,19, 0,22, 0.00,60.00,Friday
7,10.282765917519429
1111,13159479.49167924
1151,7067191.082377866
1288,52.65786313833476
1302,0.0
1303,0.0
1318,29880.0
2,5, 1,19, 0,23, 0.00,60.00,Friday
7,10.282765917519429
1111,12209725.720841568
1151,5128979.634502359
1288,52.28255182039851
1302,0.0
1303,0.0
1318,29880.0
2,5, 1,19, 0,24, 0.00,60.00,Friday
7,10.282765917519429
1111,12904364.963017117
1151,7638363.40395385
1288,51.90426230859952
1302,0.0
1303,0.0
1318,29880.0
2,6, 1,20, 0, 1, 0.00,60.00,Saturday
7,10.247457377960314
1111,12778566.515358001
1151,9796304.860864626
1288,51.530149023457135
1302,0.0
1303,0.0
1318,29880.0
2,6, 1,20, 0, 2, 0.00,60.00,Saturday
7,10.247457377960314
1111,12711246.014032498
1151,12619545.441220827
1288,51.931916952822995
1302,762421.6521609208
1303,211.78379226692243
1318,792301.6521609208
2,6, 1,20, 0, 3, 0.00,60.00,Saturday
7,10.247457377960314
1111,12584809.591008808
1151,14993115.256878458
1288,51.85048205593381
1302,0.0
1303,0.0
1318,29880.0
2,6, 1,20, 0, 4, 0.00,60.00,Saturday
7,10.247457377960314
1111,12369467.907505134
1151,15672927.896179877
1288,51.47697748536864
1302,0.0
1303,0.0
1318,29880.0
2,6, 1,20, 0, 5, 0.00,60.00,Saturday
7,10.247457377960314
1111,12141204.94032957
1151,15318988.39409506
1288,51.107696617836545
1302,0.0
1303,0.0
1318,29880.0
2,6, 1,20, 0, 6, 0.00,60.00,Saturday
7,10.247457377960314
1111,11866651.606543642
1151,20383409.55833059
1288,50.746501272331066
1302,0.0
1303,0.0
1318,29880.0
2,6, 1,20, 0, 7, 0.00,60.00,Saturday
7,10.247457377960314
1111,11771120.546408039
1151,18797108.661974005
1288,50.52317294536121
1302,746529.84230385
1303,207.36940063995834
1318,776409.84230385
2,6, 1,20, 0, 8, 0.00,60.00,Saturday
7,10.247457377960314
1111,11893049.754381098
1151,18344466.326866914
1288,51.59590656268699
1302,5756950.227808353
1303,1599.1528410578758
1318,5786830.227808353
2,6, 1,20, 0, 9, 0.00,60.00,Saturday
7,10.247457377960314
1111,12204269.54495201
1151,14096979.37697791
1288,48.702020373349534
1302,9199196.559271444
1303,2555.3323775754016
1318,9229076.559271444
2,6, 1,20, 0,10, 0.00,60.00,Saturday
7,10.247457377960314
1111,12625787.430476766
1151,8449018.058237655
1288,51.355660957342955
1302,6778820.362863531
1303,1883.0056563509806
1318,6808700.362863531
2,6, 1,20, 0,11, 0.00,60.00,Saturday
7,10.247457377960314
1111,13228003.848172344
1151,3694708.5183613882
1288,52.97281037194737
1302,0.0
1303,0.0
1318,29880.0
2,6, 1,20, 0,12, 0.00,60.00,Saturday
7,10.247457377960314
1111,13665364.013866756
1151,578716.815678549
1288,52.599244722926464
1302,0.0
1303,0.0
1318,29880.0
2,6, 1,20, 0,13, 0.00,60.00,Saturday
7,10.247457377960314
1111,10900457.22845736
1151,0.0
1288,52.229906238918716
1302,0.0
1303,0.0
1318,29880.0
2,6, 1,20, 0,14, 0.00,60.00,Saturday
7,10.247457377960314
1111,7350000.281244862
1151,0.0
1288,52.35230973059069
1302,7876572.476904963
1303,2187.9367991402682
1318,7906452.476904963
2,6, 1,20, 0,15, 0.00,60.00,Saturday
7,10.247457377960314
1111,5612539.873591859
1151,0.0
1288,53.0994858212369
1302,0.0
1303,0.0
1318,29880.0
2,6, 1,20, 0,16, 0.00,60.00,Saturday
7,10.247457377960314
1111,1640107.8296604548
1151,0.0
1288,52.72467476299482
1302,0.0
1303,0.0
1318,29880.0
2,6, 1,20, 0,17, 0.00,60.00,Saturday
7,10.247457377960314
1111,940792.2578040591
1151,0.0
1288,52.353930219378725
1302,0.0
1303,0.0
1318,29880.0
2,6, 1,20, 0,18, 0.00,60.00,Saturday
7,10.247457377960314
1111,6054517.18937804
1151,0.0
1288,51.98727180002174
1302,0.0
1303,0.0
1318,29880.0
2,6, 1,20, 0,19, 0.00,60.00,Saturday
7,10.247457377960314
1111,11074098.196363939
1151,0.0
1288,51.62468456988986
1302,0.0
1303,0.0
1318,29880.0
2,6, 1,20, 0,20, 0.00,60.00,Saturday
7,10.247457377960314
1111,13383360.252504075
1151,443507.80969503976
1288,51.90896176297685
1302,4772320.485668599
1303,1325.6445793523887
1318,4802200.485668599
2,6, 1,20, 0,21, 0.00,60.00,Saturday
7,10.247457377960314
1111,13646579.17305104
1151,1468172.2659517226
1288,47.37459429576365
1302,10349505.933741227
1303,2874.862759372563
1318,10379385.933741227
2,6, 1,20, 0,22, 0.00,60.00,Saturday
7,10.247457377960314
1111,13289480.802367773
1151,3373505.1665458996
1288,51.844836521214695
1302,6327415.610124203
1303,1757.6154472567232
1318,6357295.610124203
2,6, 1,20, 0,23, 0.00,60.00,Saturday
7,10.247457377960314
1111,11863568.333367696
1151,2595647.6890754346
1288,52.960851459953595
1302,0.0
1303,0.0
1318,29880.0
2,6, 1,20, 0,24, 0.00,60.00,Saturday
7,10.247457377960314
1111,12630531.529375518
1151,6340387.970063189
1288,52.57491506114738
1302,0.0
1303,0.0
1318,29880.0
2,7, 1,21, 0, 1, 0.00,60.00,Sunday
7,10.21391190810892
1111,12504995.454869859
1151,8920471.792129016
1288,52.19326097491481
1302,0.0
1303,0.0
1318,29880.0
2,7, 1,21, 0, 2, 0.00,60.00,Sunday
7,10.21391190810892
1111,12351323.215123719
1151,10713858.876603268
1288,51.81588406377125
1302,0.0
1303,0.0
1318,29880.0
2,7, 1,21, 0, 3, 0.00,60.00,Sunday
7,10.21391190810892
1111,12195085.511740236
1151,12017864.35200907
1288,51.44273763692332
1302,0.0
1303,0.0
1318,29880.0
2,7, 1,21, 0, 4, 0.00,60.00,Sunday
7,10.21391190810892
1111,12086955.27918277
1151,13022349.789312191
1288,52.09131422379255
1302,762408.6323475589
1303,211.7801756520997
1318,792288.6323475589
2,7, 1,21, 0, 5, 0.00,60.00,Sunday
7,10.21391190810892
1111,12108636.091466473
1151,13052428.073401818
1288,51.762223281560686
1302,0.0
1303,0.0
1318,29880.0
2,7, 1,21, 0, 6, 0.00,60.00,Sunday
7,10.21391190810892
1111,12274904.134475498
1151,17334635.291108012
1288,51.39433606807997
1302,0.0
1303,0.0
1318,29880.0
2,7, 1,21, 0, 7, 0.00,60.00,Sunday
7,10.21391190810892
1111,12365285.503906632
1151,14776399.264941836
1288,51.03832011559857
1302,0.0
1303,0.0
1318,29880.0
2,7, 1,21, 0, 8, 0.00,60.00,Sunday
7,10.21391190810892
1111,12600088.110518474
1151,13375307.619233618
1288,50.68648159701659
1302,0.0
1303,0.0
1318,29880.0
2,7, 1,21, 0, 9, 0.00,60.00,Sunday
7,10.21391190810892
1111,13316661.436518498
1151,9642918.588425733
1288,43.846696822789795
1302,8055000.0
1303,2237.5000000000005
1318,8084880.0
2,7, 1,21, 0,10, 0.00,60.00,Sunday
7,10.21391190810892
1111,14596221.991263274
1151,3886217.946703455
1288,43.530169926030055
1302,16200000.0
1303,4500.000000000001
1318,16229880.0
2,7, 1,21, 0,11, 0.00,60.00,Sunday
7,10.21391190810892
1111,12767521.995227832
1151,138749.11791680916
1288,52.43354499651688
1302,4635000.0
1303,1287.5
1318,4664880.0
2,7, 1,21, 0,12, 0.00,60.00,Sunday
7,10.21391190810892
1111,7832090.3832972385
1151,0.0
1288,52.51459169155779
1302,0.0
1303,0.0
1318,29880.000000000004
2,7, 1,21, 0,13, 0.00,60.00,Sunday
7,10.21391190810892
1111,4725134.09616965
1151,0.0
1288,51.59820866172285
1302,0.0
1303,0.0
1318,29880.0
2,7, 1,21, 0,14, 0.00,60.00,Sunday
7,10.21391190810892
1111,1935986.970761118
1151,0.0
1288,51.241273814482696
1302,0.0
1303,0.0
1318,29880.0
2,7, 1,21, 0,15, 0.00,60.00,Sunday
7,10.21391190810892
1111,88573.64687744604
1151,0.0
1288,53.05703344291322
1302,1665322.951169901
1303,462.5897086583059
1318,1695202.951169901
2,7, 1,21, 0,16, 0.00,60.00,Sunday
7,10.21391190810892
1111,0.0
1151,0.0
1288,52.842640039107124
1302,0.0
1303,0.0
1318,29880.0
2,7, 1,21, 0,17, 0.00,60.00,Sunday
7,10.21391190810892
1111,0.0
1151,0.0
1288,52.33070569479719
1302,1918405.2295633564
1303,532.8903415453772
1318,1948285.2295633564
2,7, 1,21, 0,18, 0.00,60.00,Sunday
7,10.21391190810892
1111,0.0
1151,0.0
1288,53.089147388142834
1302,1503371.7190606552
1303,417.6032552946264
1318,1533251.7190606552
2,7, 1,21, 0,19, 0.00,60.00,Sunday
7,10.21391190810892
1111,0.0
1151,0.0
1288,52.56293334753379
1302,3060305.7121417453
1303,850.0849200393741
1318,3090185.7121417453
2,7, 1,21, 0,20, 0.00,60.00,Sunday
7,10.21391190810892
1111,938151.4002971736
1151,0.0
1288,51.410359579385364
1302,2554810.078688914
1303,709.669466302476
1318,2584690.078688914
2,7, 1,21, 0,21, 0.00,60.00,Sunday
7,10.21391190810892
1111,2526459.3810425084
1151,0.0
1288,42.99449425594205
1302,15802414.701607201
1303,4389.5596393353335
1318,15832294.701607201
2,7, 1,21, 0,22, 0.00,60.00,Sunday
7,10.21391190810892
1111,5974163.271005687
1151,0.0
1288,53.18596495838481
1302,0.0
1303,0.0
1318,29880.0
2,7, 1,21, 0,23, 0.00,60.00,Sunday
7,10.21391190810892
1111,5306426.364941277
1151,0.0
1288,52.80491461074063
1302,0.0
1303,0.0
1318,29880.0
2,7, 1,21, 0,24, 0.00,60.00,Sunday
7,10.21391190810892
1111,9260108.344580164
1151,0.0
1288,52.420893065107
1302,0.0
1303,0.0
1318,29880.0
1,EXTREME_SUMMER,  39.10, -84.42,  -5.00, 149.40
2,1, 7,15, 0, 1, 0.00,60.00,Monday
7,21.891361446761014
1111,0.0
1151,0.0
1288,53.17074210519605
1302,0.0
1303,0.0
1318,29880.0
2,1, 7,15, 0, 2, 0.00,60.00,Monday
7,21.891361446761014
1111,0.0
1151,0.0
1288,52.84801564849702
1302,0.0
1303,0.0
1318,29880.0
2,1, 7,15, 0, 3, 0.00,60.00,Monday
7,21.891361446761014
1111,0.0
1151,0.0
1288,52.52891837965682
1302,0.0
1303,0.0
1318,29880.0
2,1, 7,15, 0, 4, 0.00,60.00,Monday
7,21.891361446761014
1111,0.0
1151,0.0
1288,52.21340830422496
1302,0.0
1303,0.0
1318,29880.0
2,1, 7,15, 0, 5, 0.00,60.00,Monday
7,21.891361446761014
1111,0.0
1151,0.0
1288,51.90144857260767
1302,0.0
1303,0.0
1318,29880.0
2,1, 7,15, 0, 6, 0.00,60.00,Monday
7,21.891361446761014
1111,0.0
1151,0.0
1288,51.587447425201646
1302,0.0
1303,0.0
1318,29880.0
2,1, 7,15, 0, 7, 0.00,60.00,Monday
7,21.891361446761014
1111,0.0
1151,0.0
1288,51.69725052672457
1302,722285.814253769
1303,200.63494840382486
1318,752165.814253769
2,1, 7,15, 0, 8, 0.00,60.00,Monday
7,21.891361446761014
1111,0.0
1151,0.0
1288,52.51298462240175
1302,4998182.3758039735
1303,1388.3839932788815
1318,5028062.3758039735
2,1, 7,15, 0, 9, 0.00,60.00,Monday
7,21.891361446761014
1111,0.0
1151,0.0
1288,48.918867358676465
1302,9510105.332185451
1303,2641.69592560707
1318,9539985.332185451
2,1, 7,15, 0,10, 0.00,60.00,Monday
7,21.891361446761014
1111,0.0
1151,0.0
1288,51.413618148863016
1302,6642961.226566702
1303,1845.2670073796392
1318,6672841.226566702
2,1, 7,15, 0,11, 0.00,60.00,Monday