Program Version,EnergyPlus, Version 22.2.0-c249759bad, YMD=2023.09.01 15:56
1,5,Environment Title[],Latitude[deg],Longitude[deg],Time Zone[],Elevation[m]
2,8,Day of Simulation[],Month[],Day of Month[],DST Indicator[1=yes 0=no],Hour[],StartMinute[],EndMinute[],DayType
3,5,Cumulative Day of Simulation[],Month[],Day of Month[],DST Indicator[1=yes 0=no],DayType  ! When Daily Report Variables Requested
4,2,Cumulative Days of Simulation[],Month[]  ! When Monthly Report Variables Requested
5,1,Cumulative Days of Simulation[] ! When Run Period Report Variables Requested
6,1,Calendar Year of Simulation[] ! When Annual Report Variables Requested
581,11,LIVING,AFN Zone Infiltration Air Change Rate [ach] !RunPeriod [Value,Min,Month,Day,Hour,Minute,Max,Month,Day,Hour,Minute]
582,11,ATTIC,AFN Zone Infiltration Air Change Rate [ach] !RunPeriod [Value,Min,Month,Day,Hour,Minute,Max,Month,Day,Hour,Minute]
583,11,CRAWLSPACE,AFN Zone Infiltration Air Change Rate [ach] !RunPeriod [Value,Min,Month,Day,Hour,Minute,Max,Month,Day,Hour,Minute]
1038,11,Facility,Facility Heating Setpoint Not Met Time [hr] !RunPeriod [Value,Min,Month,Day,Hour,Minute,Max,Month,Day,Hour,Minute]
1039,11,Facility,Facility Cooling Setpoint Not Met Time [hr] !RunPeriod [Value,Min,Month,Day,Hour,Minute,Max,Month,Day,Hour,Minute]
1115,11,DX_HEATING_COIL,Heating Coil Heating Energy [J] !RunPeriod [Value,Min,Month,Day,Hour,Minute,Max,Month,Day,Hour,Minute]
1128,11,DX_HEATING_COIL,Heating Coil Electricity Energy [J] !RunPeriod [Value,Min,Month,Day,Hour,Minute,Max,Month,Day,Hour,Minute]
1153,11,DX_HEATING_COIL,Heating Coil Defrost Electricity Energy [J] !RunPeriod [Value,Min,Month,Day,Hour,Minute,Max,Month,Day,Hour,Minute]
1154,11,DX_HEATING_COIL,Heating Coil Crankcase Heater Electricity Energy [J] !RunPeriod [Value,Min,Month,Day,Hour,Minute,Max,Month,Day,Hour,Minute]
1155,11,HEATING_RESISTANCE_BACKUP,Heating Coil Heating Energy [J] !RunPeriod [Value,Min,Month,Day,Hour,Minute,Max,Month,Day,Hour,Minute]
1156,11,HEATING_RESISTANCE_BACKUP,Heating Coil Electricity Energy [J] !RunPeriod [Value,Min,Month,Day,Hour,Minute,Max,Month,Day,Hour,Minute]
1292,11,WATER HEATER,Water Heater Heat Loss Energy [J] !RunPeriod [Value,Min,Month,Day,Hour,Minute,Max,Month,Day,Hour,Minute]
1306,11,WATER HEATER,Water Heater Heating Energy [J] !RunPeriod [Value,Min,Month,Day,Hour,Minute,Max,Month,Day,Hour,Minute]
1307,11,WATER HEATER,Water Heater Unmet Demand Heat Transfer Energy [J] !RunPeriod [Value,Min,Month,Day,Hour,Minute,Max,Month,Day,Hour,Minute]
1308,11,WATER HEATER,Water Heater Electricity Energy [J] !RunPeriod [Value,Min,Month,Day,Hour,Minute,Max,Month,Day,Hour,Minute]
13,11,Electricity:Facility [J] !RunPeriod [Value,Min,Month,Day,Hour,Minute,Max,Month,Day,Hour,Minute]
1134,11,Heating:Electricity [J] !RunPeriod [Value,Min,Month,Day,Hour,Minute,Max,Month,Day,Hour,Minute]
1096,11,Cooling:Electricity [J] !RunPeriod [Value,Min,Month,Day,Hour,Minute,Max,Month,Day,Hour,Minute]
562,11,Fans:Electricity [J] !RunPeriod [Value,Min,Month,Day,Hour,Minute,Max,Month,Day,Hour,Minute]
1379,11,Pumps:Electricity [J] !RunPeriod [Value,Min,Month,Day,Hour,Minute,Max,Month,Day,Hour,Minute]
1326,11,WaterSystems:Electricity [J] !RunPeriod [Value,Min,Month,Day,Hour,Minute,Max,Month,Day,Hour,Minute]
61,11,InteriorLights:Electricity [J] !RunPeriod [Value,Min,Month,Day,Hour,Minute,Max,Month,Day,Hour,Minute]
1046,11,ExteriorLights:Electricity [J] !RunPeriod [Value,Min,Month,Day,Hour,Minute,Max,Month,Day,Hour,Minute]
134,11,InteriorEquipment:Electricity [J] !RunPeriod [Value,Min,Month,Day,Hour,Minute,Max,Month,Day,Hour,Minute]
170,11,gas_dryer:InteriorEquipment:Electricity [J] !RunPeriod [Value,Min,Month,Day,Hour,Minute,Max,Month,Day,Hour,Minute]
207,11,clotheswasher:InteriorEquipment:Electricity [J] !RunPeriod [Value,Min,Month,Day,Hour,Minute,Max,Month,Day,Hour,Minute]
244,11,dishwasher:InteriorEquipment:Electricity [J] !RunPeriod [Value,Min,Month,Day,Hour,Minute,Max,Month,Day,Hour,Minute]
281,11,refrigerator:InteriorEquipment:Electricity [J] !RunPeriod [Value,Min,Month,Day,Hour,Minute,Max,Month,Day,Hour,Minute]
318,11,electric_mels:InteriorEquipment:Electricity [J] !RunPeriod [Value,Min,Month,Day,Hour,Minute,Max,Month,Day,Hour,Minute]
355,11,NaturalGas:Facility [J] !RunPeriod [Value,Min,Month,Day,Hour,Minute,Max,Month,Day,Hour,Minute]
403,11,InteriorEquipment:NaturalGas [J] !RunPeriod [Value,Min,Month,Day,Hour,Minute,Max,Month,Day,Hour,Minute]
476,11,gas_dryer:InteriorEquipment:NaturalGas [J] !RunPeriod [Value,Min,Month,Day,Hour,Minute,Max,Month,Day,Hour,Minute]
513,11,gas_mels:InteriorEquipment:NaturalGas [J] !RunPeriod [Value,Min,Month,Day,Hour,Minute,Max,Month,Day,Hour,Minute]
End of Data Dictionary
1,EXTREME_WINTER,  42.95, -87.90,  -6.00, 211.00
5,7
1038,7.75,0.0, 1, 8, 1,15,0.25, 1, 8, 6,15
1039,0.0,0.0, 1, 8, 1,15,0.0, 1, 8, 1,15
581,0.494148104946305,0.24273011216182308, 1,11,23, 7,0.9308378009101509, 1, 8,12,60
582,6.174254705654433,0.09895200888663264, 1,11,22,60,15.605135783516564, 1, 8,22,60
583,0.07395991124420705,0.00040055630133902496, 1,11,23, 7,0.09196508003512842, 1, 8,12,60
1115,2180693747.2317905,0.0, 1,10,23, 5,4064294.786348987, 1,12, 2,15
1128,819457198.5377651,0.0, 1,10,23, 5,1337191.0153770335, 1,12,17,45
1153,5715137.450881392,0.0, 1,10,23, 5,26582.268058950485, 1,14,22,60
1154,5277242.678483563,0.0, 1, 8, 1, 5,139088.07015006244, 1,11,15,60
1155,1813045431.3639252,0.0, 1, 8,23, 5,7033311.171663914, 1, 8, 6,45
1156,1813045431.3639252,0.0, 1, 8,23, 5,7033311.171663914, 1, 8, 6,45
1292,-25427454.209774382,-39769.7726840347, 1,14, 5,60,-9235.342890775146, 1,11,23, 3
1306,246760252.79850543,0.0, 1, 8, 1, 5,9796781.787447207, 1,14,19,60
1307,7418746.081906272,0.0, 1, 8, 1, 5,6366888.438515057, 1,14,19,60
1308,246760252.79850543,0.0, 1, 8, 1, 5,9796781.787447207, 1,14,19,60
13,3351356201.6149573,764467.9145511822, 1,11,15,60,16738539.560112871, 1, 8, 7,45
61,301924526.02383536,88139.10953165221, 1, 8, 1,15,1282023.4113694867, 1, 8,20,15
134,70666020.44019976,63564.01800854099, 1, 8, 4,15,156554.22484006523, 1,13,20,15
170,5241013.419656067,348.4159749238097, 1, 8, 4,15,17476.39704006126, 1,13,12,15
207,6509451.13922267,815.2532113832032, 1, 8, 3,15,22990.642799023623, 1,13,10,15
244,12749673.399825225,1521.856143006317, 1, 8, 4,15,53038.631142310165, 1,13,20,15
281,46165882.481495745,59938.60262432081, 1, 8, 5,15,81951.81706819107, 1, 8,19,15
318,0.0,0.0, 1, 8, 1,15,0.0, 1, 8, 1,15
355,197687796.27748066,18561.32405820678, 1, 8, 4,15,724774.895203776, 1,13,18,15
403,197687796.27748066,18561.32405820678, 1, 8, 4,15,724774.895203776, 1,13,18,15
476,106772067.24485716,7098.072629279515, 1, 8, 4,15,356036.3026282215, 1,13,12,15
513,0.0,0.0, 1, 8, 1,15,0.0, 1, 8, 1,15
562,88510392.32136358,31306.19673026036, 1,11,15,60,137738.840987723, 1, 8, 1,15
1046,0.0,0.0, 1, 8, 1,15,0.0, 1, 8, 1,15
1096,0.0,0.0, 1, 8, 1,15,0.0, 1, 8, 1,15
1134,2643495010.031053,461144.6789227993, 1,11,15,60,8268926.463482817, 1, 8,15,15
1326,246760252.79850546,0.0, 1, 8, 1,15,10418649.592923775, 1,14, 9,45
1379,0.0,0.0, 1, 8, 1,15,0.0, 1, 8, 1,15
1,EXTREME_SUMMER,  42.95, -87.90,  -6.00, 211.00
5,7
1038,0.0,0.0, 7,15, 1,15,0.0, 7,15, 1,15
1039,37.0,0.0, 7,15, 1,15,0.25, 7,15,17,60
581,0.16081964272481153,0.0, 7,15, 6, 7,0.6034419235620648, 7,19,15,60
582,4.763199901828386,0.08956997267716513, 7,15, 7,60,19.51937862019971, 7,19,15,60
583,0.04218243396669662,0.0, 7,15, 6, 7,0.0752308264530682, 7,19,15,60
1115,0.0,0.0, 7,15, 1, 7,0.0, 7,15, 1, 7
1128,0.0,0.0, 7,15, 1, 7,0.0, 7,15, 1, 7
1153,0.0,0.0, 7,15, 1, 7,0.0, 7,15, 1, 7
1154,0.0,0.0, 7,15, 1, 7,0.0, 7,15, 1, 7
1155,0.0,0.0, 7,15, 1, 7,0.0, 7,15, 1, 7
1156,0.0,0.0, 7,15, 1, 7,0.0, 7,15, 1, 7
1292,-21896387.8448862,-34329.10004912455, 7,16,22,45,-3214.8774012400168, 7,20,11,60
1306,189049382.89401162,0.0, 7,15, 1, 7,10393766.13212937, 7,21,19,60
1307,2594647.7912875977,0.0, 7,15, 1, 7,2594647.7912875977, 7,21,19,60
1308,189049382.89401162,0.0, 7,15, 1, 7,10393766.13212937, 7,21,19,60
13,1177952094.1630204,152071.80019841267, 7,21, 4,15,12168784.292156376, 7,21,19,60
61,301924526.02383536,88139.10953165221, 7,15, 1,15,1282023.4113694867, 7,15,20,15
134,70666020.44019976,63564.01800854099, 7,15, 4,15,156554.22484006523, 7,20,20,15
170,5241013.419656067,348.4159749238097, 7,15, 4,15,17476.39704006126, 7,20,12,15
207,6509451.13922267,815.2532113832032, 7,15, 3,15,22990.642799023623, 7,20,10,15
244,12749673.399825225,1521.856143006317, 7,15, 4,15,53038.631142310165, 7,20,20,15
281,46165882.481495745,59938.60262432081, 7,15, 5,15,81951.81706819107, 7,15,19,15
318,0.0,0.0, 7,15, 1,15,0.0, 7,15, 1,15
355,197687796.27748066,18561.32405820678, 7,15, 4,15,724774.895203776, 7,20,18,15
403,197687796.27748066,18561.32405820678, 7,15, 4,15,724774.895203776, 7,20,18,15
476,106772067.24485716,7098.072629279515, 7,15, 4,15,356036.3026282215, 7,20,12,15
513,0.0,0.0, 7,15, 1,15,0.0, 7,15, 1,15
562,56128991.855389245,0.0, 7,21, 3,15,137738.84098772303, 7,17,11,30
1046,0.0,0.0, 7,15, 1,15,0.0, 7,15, 1,15
1096,560183172.9495852,0.0, 7,21, 3,15,1545783.4372061891, 7,18,14,60
1134,0.0,0.0, 7,15, 1,15,0.0, 7,15, 1,15
1326,189049382.8940116,0.0, 7,15, 1,15,10393766.13212937, 7,21,19,60
1379,0.0,0.0, 7,15, 1,15,0.0, 7,15, 1,15
1,ANNUAL,  42.95, -87.90,  -6.00, 211.00
5,365
1038,34.5,0.0, 1, 1, 1,15,0.25, 1, 5, 6,15
1039,119.5,0.0, 1, 1, 1,15,0.25, 4, 7,14,60
581,0.30272258915680583,0.0, 6, 1, 5,15,1.6784609070812517, 2, 2, 3,60
582,5.0594874412047846,0.0, 1,28, 3,45,31.284203381290716, 2, 2, 3,60
583,0.03022173381753474,0.0, 7,14, 6, 7,0.11228067673300457, 2, 2, 3,60
1115,34745603331.05666,0.0, 1, 1,23, 3,4727585.136543484, 4,14, 6,15
1128,11264959165.055857,0.0, 1, 1,23, 3,1403028.515384518,11,23, 6,45
1153,341462397.79466236,0.0, 1, 1,23, 3,138165.1313137139, 3, 8,16,60
1154,1582999566.3948164,0.0, 1, 1, 1,48,180000.0, 1,18,16,45
1155,7751603881.912507,0.0, 1, 1, 1, 7,7033311.171663914, 1, 5, 6,30
1156,7751603881.912507,0.0, 1, 1, 1, 7,7033311.171663914, 1, 5, 6,30
1292,-1241450712.6063118,-40128.33579236482, 1, 8,14,60,-2504.969797103062, 5,21, 9,14
1306,11458950639.300774,0.0, 1, 1, 1, 7,10540800.0, 5, 7,19,60
1307,261496229.67765075,0.0, 1, 1, 1, 7,6838124.5208133105, 2,12,19,60
1308,11458950639.300774,0.0, 1, 1, 1, 7,10540800.0, 5, 7,19,60
13,60180431022.04199,151703.1275401932, 4,18, 4,15,19127684.504450068, 1, 8, 9,45
61,15743207428.383959,88139.10953165221, 1, 1, 1,15,1282023.4113694867, 1, 1,20,15
134,3685071073.4325233,63564.01800854099, 1, 2, 4,15,156554.22484006523, 1, 1,20,15
170,273393721.45532674,348.4159749238097, 1, 2, 4,15,17476.39704006126, 1, 1,12,15
207,339560869.0695816,815.2532113832032, 1, 2, 3,15,22990.642799023623, 1, 1,10,15
244,664895467.8009144,1521.856143006317, 1, 2, 4,15,53038.631142310165, 1, 1,20,15
281,2407221015.106824,59938.60262432081, 1, 1, 5,15,81951.81706819107, 1, 1,19,15
318,0.0,0.0, 1, 1, 1,15,0.0, 1, 1, 1,15
355,10310294493.051695,18561.32405820678, 1, 2, 4,15,724774.895203776, 1, 1,18,15
403,10310294493.051695,18561.32405820678, 1, 2, 4,15,724774.895203776, 1, 1,18,15
476,5569688622.066177,7098.072629279515, 1, 2, 4,15,356036.3026282215, 1, 1,12,15
513,0.0,0.0, 1, 1, 1,15,0.0, 1, 1, 1,15
562,1900111646.9119382,0.0, 1,18,16,45,137738.84098772303, 2, 4,11,60
1046,0.0,0.0, 1, 1, 1,15,0.0, 1, 1, 1,15
1096,6452065222.853792,0.0, 1, 1, 1,15,1548233.8677890806, 7,18,14,60
1134,20941025011.157906,0.0, 2,17,23,15,8337522.026065701, 2, 2, 3,45
1326,11458950639.300789,0.0, 1, 1, 1,15,10540800.0, 5, 7,19,60
1379,0.0,0.0, 1, 1, 1,15,0.0, 1, 1, 1,15
End of Data
 Number of Records Written=          99
