Program Version,EnergyPlus, Version 22.2.0-c249759bad, YMD=2023.07.07 15:21
1,5,Environment Title[],Latitude[deg],Longitude[deg],Time Zone[],Elevation[m]
2,8,Day of Simulation[],Month[],Day of Month[],DST Indicator[1=yes 0=no],Hour[],StartMinute[],EndMinute[],DayType
3,5,Cumulative Day of Simulation[],Month[],Day of Month[],DST Indicator[1=yes 0=no],DayType  ! When Daily Report Variables Requested
4,2,Cumulative Days of Simulation[],Month[]  ! When Monthly Report Variables Requested
5,1,Cumulative Days of Simulation[] ! When Run Period Report Variables Requested
6,1,Calendar Year of Simulation[] ! When Annual Report Variables Requested
581,11,LIVING,AFN Zone Infiltration Air Change Rate [ach] !RunPeriod [Value,Min,Month,Day,Hour,Minute,Max,Month,Day,Hour,Minute]
582,11,ATTIC,AFN Zone Infiltration Air Change Rate [ach] !RunPeriod [Value,Min,Month,Day,Hour,Minute,Max,Month,Day,Hour,Minute]
583,11,CRAWLSPACE,AFN Zone Infiltration Air Change Rate [ach] !RunPeriod [Value,Min,Month,Day,Hour,Minute,Max,Month,Day,Hour,Minute]
1038,11,Facility,Facility Heating Setpoint Not Met Time [hr] !RunPeriod [Value,Min,Month,Day,Hour,Minute,Max,Month,Day,Hour,Minute]
1039,11,Facility,Facility Cooling Setpoint Not Met Time [hr] !RunPeriod [Value,Min,Month,Day,Hour,Minute,Max,Month,Day,Hour,Minute]
1115,11,DX_HEATING_COIL,Heating Coil Heating Energy [J] !RunPeriod [Value,Min,Month,Day,Hour,Minute,Max,Month,Day,Hour,Minute]
1128,11,DX_HEATING_COIL,Heating Coil Electricity Energy [J] !RunPeriod [Value,Min,Month,Day,Hour,Minute,Max,Month,Day,Hour,Minute]
1153,11,DX_HEATING_COIL,Heating Coil Defrost Electricity Energy [J] !RunPeriod [Value,Min,Month,Day,Hour,Minute,Max,Month,Day,Hour,Minute]
1154,11,DX_HEATING_COIL,Heating Coil Crankcase Heater Electricity Energy [J] !RunPeriod [Value,Min,Month,Day,Hour,Minute,Max,Month,Day,Hour,Minute]
1156,11,HEATING_RESISTANCE_BACKUP,Heating Coil Electricity Energy [J] !RunPeriod [Value,Min,Month,Day,Hour,Minute,Max,Month,Day,Hour,Minute]
13,11,Electricity:Facility [J] !RunPeriod [Value,Min,Month,Day,Hour,Minute,Max,Month,Day,Hour,Minute]
1134,11,Heating:Electricity [J] !RunPeriod [Value,Min,Month,Day,Hour,Minute,Max,Month,Day,Hour,Minute]
1096,11,Cooling:Electricity [J] !RunPeriod [Value,Min,Month,Day,Hour,Minute,Max,Month,Day,Hour,Minute]
562,11,Fans:Electricity [J] !RunPeriod [Value,Min,Month,Day,Hour,Minute,Max,Month,Day,Hour,Minute]
1388,11,Pumps:Electricity [J] !RunPeriod [Value,Min,Month,Day,Hour,Minute,Max,Month,Day,Hour,Minute]
1360,11,WaterSystems:Electricity [J] !RunPeriod [Value,Min,Month,Day,Hour,Minute,Max,Month,Day,Hour,Minute]
61,11,InteriorLights:Electricity [J] !RunPeriod [Value,Min,Month,Day,Hour,Minute,Max,Month,Day,Hour,Minute]
1046,11,ExteriorLights:Electricity [J] !RunPeriod [Value,Min,Month,Day,Hour,Minute,Max,Month,Day,Hour,Minute]
134,11,InteriorEquipment:Electricity [J] !RunPeriod [Value,Min,Month,Day,Hour,Minute,Max,Month,Day,Hour,Minute]
170,11,gas_dryer:InteriorEquipment:Electricity [J] !RunPeriod [Value,Min,Month,Day,Hour,Minute,Max,Month,Day,Hour,Minute]
207,11,clotheswasher:InteriorEquipment:Electricity [J] !RunPeriod [Value,Min,Month,Day,Hour,Minute,Max,Month,Day,Hour,Minute]
244,11,dishwasher:InteriorEquipment:Electricity [J] !RunPeriod [Value,Min,Month,Day,Hour,Minute,Max,Month,Day,Hour,Minute]
281,11,refrigerator:InteriorEquipment:Electricity [J] !RunPeriod [Value,Min,Month,Day,Hour,Minute,Max,Month,Day,Hour,Minute]
318,11,electric_mels:InteriorEquipment:Electricity [J] !RunPeriod [Value,Min,Month,Day,Hour,Minute,Max,Month,Day,Hour,Minute]
355,11,NaturalGas:Facility [J] !RunPeriod [Value,Min,Month,Day,Hour,Minute,Max,Month,Day,Hour,Minute]
1323,11,WaterSystems:NaturalGas [J] !RunPeriod [Value,Min,Month,Day,Hour,Minute,Max,Month,Day,Hour,Minute]
403,11,InteriorEquipment:NaturalGas [J] !RunPeriod [Value,Min,Month,Day,Hour,Minute,Max,Month,Day,Hour,Minute]
476,11,gas_dryer:InteriorEquipment:NaturalGas [J] !RunPeriod [Value,Min,Month,Day,Hour,Minute,Max,Month,Day,Hour,Minute]
513,11,gas_mels:InteriorEquipment:NaturalGas [J] !RunPeriod [Value,Min,Month,Day,Hour,Minute,Max,Month,Day,Hour,Minute]
End of Data Dictionary
1,EXTREME_WINTER,  30.32, -97.76,  -6.00, 204.20
5,7
1038,0.5,0.0, 1,29, 1,10,0.16666666666666666, 2, 2, 6,10
1039,0.0,0.0, 1,29, 1,10,0.0, 1,29, 1,10
581,0.2705277800430726,0.0857080858633806, 1,31, 9,42,0.5163401312509129, 2, 1,23,55
582,3.19397634253792,0.0, 1,30,20,13,9.019679772726127, 2, 1,15,55
583,4.252320991261337,0.00018843982674030994, 1,30,24,60,12.210541364875356, 2, 1,15,55
1115,906714168.879299,0.0, 1,29, 1, 5,2868679.2959633684, 2, 3,12,50
1128,299329044.70234036,0.0, 1,29, 1, 5,919667.9737910376, 2, 3,12,50
1153,3530696.1087450543,0.0, 1,29, 1, 5,42192.78588247024, 2, 4, 1,30
1154,39410492.44667715,0.0, 1,29, 1, 5,120000.0, 1,30, 7,30
1156,134754837.05222303,0.0, 1,29, 1, 5,1579282.7260991973, 2, 2, 6,40
13,952676555.0025178,106115.4183601288, 1,29, 4,10,3591234.390663185, 2, 2, 6,10
61,301924526.0238348,58759.40635443481, 1,29, 1,10,854682.2742463244, 1,29,20,10
134,70666020.44019979,42376.01200569399, 1,29, 4,10,104369.48322671017, 2, 3,20,10
170,5241013.419656074,232.27731661587313, 1,29, 4,10,11650.931360040839, 2, 3,12,10
207,6509451.13922266,543.5021409221355, 1,29, 3,10,15327.095199349082, 2, 3,10,10
244,12749673.39982522,1014.5707620042115, 1,29, 4,10,35359.08742820678, 2, 3,20,10
281,46165882.48149605,39959.06841621388, 1,29, 5,10,54634.54471212738, 1,29,19,10
318,0.0,0.0, 1,29, 1,10,0.0, 1,29, 1,10
355,741476057.6609081,12374.216038804521, 1,29, 4,10,3829218.154066982, 1,30,18,60
403,197687796.27748126,12374.216038804521, 1,29, 4,10,483183.26346918393, 2, 3,18,10
476,106772067.24485692,4732.048419519677, 1,29, 4,10,237357.535085481, 2, 3,12,10
513,0.0,0.0, 1,29, 1,10,0.0, 1,29, 1,10
562,40463364.67901923,0.0, 1,29, 1,10,98415.84878945551, 2, 1,23,60
1046,0.0,0.0, 1,29, 1,10,0.0, 1,29, 1,10
1096,57577733.549478784,0.0, 1,29, 1,10,706368.3945434816, 1,29,16,30
1134,477025070.3099852,0.0, 1,29, 1,10,3075259.218863077, 2, 2, 6,10
1323,543788261.3834238,0.0, 1,29, 1,10,3375000.000000001, 2, 1,10,30
1360,5019840.0,4979.999999999998, 1,31,10,30,4980.000000000001, 1,29, 1,40
1388,0.0,0.0, 1,29, 1,10,0.0, 1,29, 1,10
1,EXTREME_SUMMER,  30.32, -97.76,  -6.00, 204.20
5,7
1038,0.0,0.0, 8,12, 1,10,0.0, 8,12, 1,10
1039,74.83333333333333,0.0, 8,12, 1,10,0.16666666666666666, 8,12,12,40
581,0.06295194099791457,0.0, 8,12, 1,25,0.2176534551925608, 8,16,22,60
582,2.225494923048683,0.0, 8,14,20,12,5.463181480311536, 8,16,14,55
583,2.995900769103596,0.0, 8,12, 6, 7,7.231274643398538, 8,16,22,60
1115,0.0,0.0, 8,12, 1, 5,0.0, 8,12, 1, 5
1128,0.0,0.0, 8,12, 1, 5,0.0, 8,12, 1, 5
1153,0.0,0.0, 8,12, 1, 5,0.0, 8,12, 1, 5
1154,0.0,0.0, 8,12, 1, 5,0.0, 8,12, 1, 5
1156,0.0,0.0, 8,12, 1, 5,0.0, 8,12, 1, 5
13,1201722077.9338546,261027.9740871927, 8,12, 4,60,2096283.2107355236, 8,18,20,10
61,301924526.0238348,58759.40635443481, 8,12, 1,10,854682.2742463244, 8,12,20,10
134,70666020.44019979,42376.01200569399, 8,12, 4,10,104369.48322671017, 8,17,20,10
170,5241013.419656074,232.27731661587313, 8,12, 4,10,11650.931360040839, 8,17,12,10
207,6509451.13922266,543.5021409221355, 8,12, 3,10,15327.095199349082, 8,17,10,10
244,12749673.39982522,1014.5707620042115, 8,12, 4,10,35359.08742820678, 8,17,20,10
281,46165882.48149605,39959.06841621388, 8,12, 5,10,54634.54471212738, 8,12,19,10
318,0.0,0.0, 8,12, 1,10,0.0, 8,12, 1,10
355,622210300.9530319,12374.216038804521, 8,12, 4,10,3829218.154066982, 8,13,18,50
403,197687796.27748126,12374.216038804521, 8,12, 4,10,483183.26346918393, 8,17,18,10
476,106772067.24485692,4732.048419519677, 8,12, 4,10,237357.535085481, 8,17,12,10
513,0.0,0.0, 8,12, 1,10,0.0, 8,12, 1,10
562,72438229.70745553,14487.247532011836, 8,12, 5,60,98415.84878945551, 8,12,12,30
1046,0.0,0.0, 8,12, 1,10,0.0, 8,12, 1,10
1096,751673461.7623633,123625.20690098591, 8,12, 5,60,1151950.0519396723, 8,13,15,60
1134,0.0,0.0, 8,12, 1,10,0.0, 8,12, 1,10
1323,424522504.6755493,0.0, 8,12, 1,10,3375000.0, 8,12, 9,50
1360,5019840.0,4980.0, 8,12, 1,10,4980.000000000001, 8,12, 7,60
1388,0.0,0.0, 8,12, 1,10,0.0, 8,12, 1,10
1,ANNUAL,  30.32, -97.76,  -6.00, 204.20
5,365
1038,2.1666666666666665,0.0, 1, 1, 1,10,0.16666666666666666, 1, 2, 6,10
1039,1323.6666666666654,0.0, 1, 1, 1,10,0.16666666666666666, 1,11,12,10
581,0.11809776018138893,0.0, 1, 1, 1,53,0.6150236100051459, 2, 9, 6,51
582,2.1080439383211664,0.0, 1, 2, 7,60,12.283646135549002,12,22,11,60
583,2.7034503421115255,0.0, 1,20,10,55,16.310536350536072, 2, 9, 6,51
1115,2703198852.5025496,0.0, 1, 1, 1, 1,2864433.1755549624, 2, 5, 6,30
1128,855223741.1077669,0.0, 1, 1, 1, 1,921991.742529369, 2, 3,12,40
1153,26575697.275611095,0.0, 1, 1, 1, 1,54942.23515073804, 3,13, 6,40
1154,697132217.0200922,0.0, 1, 1, 1,45,120000.0, 1, 1, 5,10
1156,146159808.59804678,0.0, 1, 1, 1, 1,1479767.3550867669, 2, 2, 6,40
13,44190306108.31432,106115.4183601288, 1, 9, 4,10,3479810.3312863037, 2, 2, 6,10
61,15743207428.39043,58759.40635443481, 1, 1, 1,10,854682.2742463244, 1, 1,20,10
134,3685071073.433083,42376.01200569399, 1, 2, 4,10,104369.48322671017, 1, 1,20,10
170,273393721.45534325,232.27731661587313, 1, 2, 4,10,11650.931360040839, 1, 1,12,10
207,339560869.06955314,543.5021409221355, 1, 2, 3,10,15327.095199349082, 1, 1,10,10
244,664895467.8009839,1014.5707620042115, 1, 2, 4,10,35359.08742820678, 1, 1,20,10
281,2407221015.1057043,39959.06841621388, 1, 1, 5,10,54634.54471212738, 1, 1,19,10
318,0.0,0.0, 1, 1, 1,10,0.0, 1, 1, 1,10
355,35600714286.398315,12374.216038804521, 1, 2, 4,10,3829218.1540669827,10,13,18,30
403,10310294493.052883,12374.216038804521, 1, 2, 4,10,483183.26346918393, 1, 1,18,10
476,5569688622.065564,4732.048419519677, 1, 2, 4,10,237357.535085481, 1, 1,12,10
513,0.0,0.0, 1, 1, 1,10,0.0, 1, 1, 1,10
562,2304841183.604278,0.0, 1, 1, 1,10,98415.84878945551, 2, 1,24,10
1046,0.0,0.0, 1, 1, 1,10,0.0, 1, 1, 1,10
1096,20470346158.89049,0.0, 1, 1, 1,10,1178922.9349231946, 7,13,15,60
1134,1725091464.0015168,0.0, 1, 1, 1,50,2963835.1594861955, 2, 2, 6,10
1323,25290419793.349476,0.0, 1, 1, 1,10,3375000.0000000014, 1, 9,21,60
1360,261748800.0,4979.999999999998, 1,31,10,30,4980.000000000002, 1,28, 8,60
1388,0.0,0.0, 1, 1, 1,10,0.0, 1, 1, 1,10
End of Data
 Number of Records Written=          87
