Program Version,EnergyPlus, Version 22.2.0-c249759bad, YMD=2023.09.01 20:52
1,5,Environment Title[],Latitude[deg],Longitude[deg],Time Zone[],Elevation[m]
2,8,Day of Simulation[],Month[],Day of Month[],DST Indicator[1=yes 0=no],Hour[],StartMinute[],EndMinute[],DayType
3,5,Cumulative Day of Simulation[],Month[],Day of Month[],DST Indicator[1=yes 0=no],DayType  ! When Daily Report Variables Requested
4,2,Cumulative Days of Simulation[],Month[]  ! When Monthly Report Variables Requested
5,1,Cumulative Days of Simulation[] ! When Run Period Report Variables Requested
6,1,Calendar Year of Simulation[] ! When Annual Report Variables Requested
581,11,LIVING,AFN Zone Infiltration Air Change Rate [ach] !RunPeriod [Value,Min,Month,Day,Hour,Minute,Max,Month,Day,Hour,Minute]
582,11,ATTIC,AFN Zone Infiltration Air Change Rate [ach] !RunPeriod [Value,Min,Month,Day,Hour,Minute,Max,Month,Day,Hour,Minute]
583,11,CRAWLSPACE,AFN Zone Infiltration Air Change Rate [ach] !RunPeriod [Value,Min,Month,Day,Hour,Minute,Max,Month,Day,Hour,Minute]
1038,11,Facility,Facility Heating Setpoint Not Met Time [hr] !RunPeriod [Value,Min,Month,Day,Hour,Minute,Max,Month,Day,Hour,Minute]
1039,11,Facility,Facility Cooling Setpoint Not Met Time [hr] !RunPeriod [Value,Min,Month,Day,Hour,Minute,Max,Month,Day,Hour,Minute]
1115,11,DX_HEATING_COIL,Heating Coil Heating Energy [J] !RunPeriod [Value,Min,Month,Day,Hour,Minute,Max,Month,Day,Hour,Minute]
1128,11,DX_HEATING_COIL,Heating Coil Electricity Energy [J] !RunPeriod [Value,Min,Month,Day,Hour,Minute,Max,Month,Day,Hour,Minute]
1153,11,DX_HEATING_COIL,Heating Coil Defrost Electricity Energy [J] !RunPeriod [Value,Min,Month,Day,Hour,Minute,Max,Month,Day,Hour,Minute]
1154,11,DX_HEATING_COIL,Heating Coil Crankcase Heater Electricity Energy [J] !RunPeriod [Value,Min,Month,Day,Hour,Minute,Max,Month,Day,Hour,Minute]
1155,11,HEATING_RESISTANCE_BACKUP,Heating Coil Heating Energy [J] !RunPeriod [Value,Min,Month,Day,Hour,Minute,Max,Month,Day,Hour,Minute]
1156,11,HEATING_RESISTANCE_BACKUP,Heating Coil Electricity Energy [J] !RunPeriod [Value,Min,Month,Day,Hour,Minute,Max,Month,Day,Hour,Minute]
1292,11,WATER HEATER,Water Heater Heat Loss Energy [J] !RunPeriod [Value,Min,Month,Day,Hour,Minute,Max,Month,Day,Hour,Minute]
1306,11,WATER HEATER,Water Heater Heating Energy [J] !RunPeriod [Value,Min,Month,Day,Hour,Minute,Max,Month,Day,Hour,Minute]
1307,11,WATER HEATER,Water Heater Unmet Demand Heat Transfer Energy [J] !RunPeriod [Value,Min,Month,Day,Hour,Minute,Max,Month,Day,Hour,Minute]
1308,11,WATER HEATER,Water Heater Electricity Energy [J] !RunPeriod [Value,Min,Month,Day,Hour,Minute,Max,Month,Day,Hour,Minute]
13,11,Electricity:Facility [J] !RunPeriod [Value,Min,Month,Day,Hour,Minute,Max,Month,Day,Hour,Minute]
1134,11,Heating:Electricity [J] !RunPeriod [Value,Min,Month,Day,Hour,Minute,Max,Month,Day,Hour,Minute]
1096,11,Cooling:Electricity [J] !RunPeriod [Value,Min,Month,Day,Hour,Minute,Max,Month,Day,Hour,Minute]
562,11,Fans:Electricity [J] !RunPeriod [Value,Min,Month,Day,Hour,Minute,Max,Month,Day,Hour,Minute]
1379,11,Pumps:Electricity [J] !RunPeriod [Value,Min,Month,Day,Hour,Minute,Max,Month,Day,Hour,Minute]
1326,11,WaterSystems:Electricity [J] !RunPeriod [Value,Min,Month,Day,Hour,Minute,Max,Month,Day,Hour,Minute]
61,11,InteriorLights:Electricity [J] !RunPeriod [Value,Min,Month,Day,Hour,Minute,Max,Month,Day,Hour,Minute]
1046,11,ExteriorLights:Electricity [J] !RunPeriod [Value,Min,Month,Day,Hour,Minute,Max,Month,Day,Hour,Minute]
134,11,InteriorEquipment:Electricity [J] !RunPeriod [Value,Min,Month,Day,Hour,Minute,Max,Month,Day,Hour,Minute]
170,11,gas_dryer:InteriorEquipment:Electricity [J] !RunPeriod [Value,Min,Month,Day,Hour,Minute,Max,Month,Day,Hour,Minute]
207,11,clotheswasher:InteriorEquipment:Electricity [J] !RunPeriod [Value,Min,Month,Day,Hour,Minute,Max,Month,Day,Hour,Minute]
244,11,dishwasher:InteriorEquipment:Electricity [J] !RunPeriod [Value,Min,Month,Day,Hour,Minute,Max,Month,Day,Hour,Minute]
281,11,refrigerator:InteriorEquipment:Electricity [J] !RunPeriod [Value,Min,Month,Day,Hour,Minute,Max,Month,Day,Hour,Minute]
318,11,electric_mels:InteriorEquipment:Electricity [J] !RunPeriod [Value,Min,Month,Day,Hour,Minute,Max,Month,Day,Hour,Minute]
355,11,NaturalGas:Facility [J] !RunPeriod [Value,Min,Month,Day,Hour,Minute,Max,Month,Day,Hour,Minute]
403,11,InteriorEquipment:NaturalGas [J] !RunPeriod [Value,Min,Month,Day,Hour,Minute,Max,Month,Day,Hour,Minute]
476,11,gas_dryer:InteriorEquipment:NaturalGas [J] !RunPeriod [Value,Min,Month,Day,Hour,Minute,Max,Month,Day,Hour,Minute]
513,11,gas_mels:InteriorEquipment:NaturalGas [J] !RunPeriod [Value,Min,Month,Day,Hour,Minute,Max,Month,Day,Hour,Minute]
End of Data Dictionary
1,EXTREME_WINTER,  35.04,-106.62,  -7.00,1619.00
5,15
1038,0.0,0.0,12,22, 1,15,0.0,12,22, 1,15
1039,0.0,0.0,12,22, 1,15,0.0,12,22, 1,15
581,0.34926043376542715,0.18843918227270362,12,22, 5,60,1.0602072379245717,12,27, 7,60
582,3.7155401604167153,0.0,12,22, 5,60,26.18184394780583,12,31,22,50
583,0.033983229716822286,0.00033315038137589304, 1, 4,12,47,0.1160280229470662,12,27, 7,60
1115,2253589095.19408,0.0,12,22,23, 7,5095259.878519564,12,27, 8,30
1128,773059197.2267352,0.0,12,22,23, 7,1696883.1019727865, 1, 3, 6,45
1153,23246114.67103457,0.0,12,22,13, 7,96434.47694790694,12,27, 7,30
1154,170639533.9769141,0.0,12,23, 6, 5,180000.0,12,23,13,45
1155,81519494.46577075,0.0,12,22, 1,15,2227841.688150884, 1, 2, 6,45
1156,81519494.46577075,0.0,12,22, 1,15,2227841.688150884, 1, 2, 6,45
1292,-53094449.463730425,-39773.44460884544,12,24, 2,45,-4091.873928612008, 1, 4,15, 1
1306,722359132.3875697,0.0,12,22, 1,15,4050000.0,12,22, 9,60
1307,311121839.41894346,0.0,12,22, 1,15,15262320.073950632,12,26, 9,60
1308,722359132.3875697,0.0,12,22, 1,15,4050000.0,12,22, 9,60
13,2654633095.602635,272017.0388981225,12,25,15,30,6588963.972722253,12,26,20,15
61,646981127.1939323,88139.10953165221,12,22, 1,15,1282023.4113694867,12,22,20,15
134,151290040.75163814,63564.01800854099,12,22, 4,15,156554.22484006523,12,27,20,15
170,11185820.069951689,348.4159749238097,12,22, 4,15,17476.39704006126,12,27,12,15
207,13893028.5742839,815.2532113832032,12,22, 3,15,22990.642799023623,12,27,10,15
244,27284301.07562584,1521.856143006317,12,22, 4,15,53038.631142310165,12,27,20,15
281,98926891.03177746,59938.60262432081,12,22, 5,15,81951.81706819107,12,22,19,15
318,0.0,0.0,12,22, 1,15,0.0,12,22, 1,15
355,422701517.16107386,18561.32405820678,12,22, 4,15,724774.895203776,12,27,18,15
403,422701517.16107386,18561.32405820678,12,22, 4,15,724774.895203776,12,27,18,15
476,227882097.80545202,7098.072629279515,12,22, 4,15,356036.3026282215,12,27,12,15
513,0.0,0.0,12,22, 1,15,0.0,12,22, 1,15
562,84371715.82678021,0.0,12,22,23,15,181864.7474189135,12,27, 7,30
1046,0.0,0.0,12,22, 1,15,0.0,12,22, 1,15
1096,1166739.1022578941,0.0,12,22, 1,15,127432.19766435047,12,25,17,15
1134,1048464340.3404548,0.0,12,23,16,45,4473060.118374588, 1, 2, 6,15
1326,722359132.3875694,0.0,12,22, 1,15,4050000.0,12,22, 9,60
1379,0.0,0.0,12,22, 1,15,0.0,12,22, 1,15
1,EXTREME_SUMMER,  35.04,-106.62,  -7.00,1619.00
5,7
1038,0.0,0.0, 7,13, 1,15,0.0, 7,13, 1,15
1039,7.0,0.0, 7,13, 1,15,0.25, 7,18,16,30
581,0.15179973131521773,0.0, 7,13,23, 3,0.7887321322155828, 7,18,22,52
582,3.6559917490613287,0.013650971393156828, 7,17, 6, 3,20.08842763957624, 7,13,15,46
583,0.04975835186477059,0.0, 7,14, 6, 7,0.09755791995226118, 7,18,19,47
1115,0.0,0.0, 7,13, 1,15,0.0, 7,13, 1,15
1128,0.0,0.0, 7,13, 1,15,0.0, 7,13, 1,15
1153,0.0,0.0, 7,13, 1,15,0.0, 7,13, 1,15
1154,0.0,0.0, 7,13, 1,15,0.0, 7,13, 1,15
1155,0.0,0.0, 7,13, 1,15,0.0, 7,13, 1,15
1156,0.0,0.0, 7,13, 1,15,0.0, 7,13, 1,15
1292,-22021211.43577291,-34335.39004954769, 7,16,21,45,-2084.380230894984, 7,15,16,45
1306,251690177.97836235,0.0, 7,13, 1,15,2137961.0032796855, 7,14,18,45
1307,78800216.57946461,0.0, 7,13, 1,15,2230206.806217538, 7,16,20,55
1308,251690177.97836235,0.0, 7,13, 1,15,2137961.0032796855, 7,14,18,45
13,1311572355.5296965,243193.57970351336, 7,13, 4,60,7209146.1204701755, 7,17,19,60
61,301924526.02383536,88139.10953165221, 7,13, 1,15,1282023.4113694867, 7,13,20,15
134,70666020.44019976,63564.01800854099, 7,13, 4,15,156554.22484006523, 7,18,20,15
170,5241013.419656067,348.4159749238097, 7,13, 4,15,17476.39704006126, 7,18,12,15
207,6509451.13922267,815.2532113832032, 7,13, 3,15,22990.642799023623, 7,18,10,15
244,12749673.399825225,1521.856143006317, 7,13, 4,15,53038.631142310165, 7,18,20,15
281,46165882.481495745,59938.60262432081, 7,13, 5,15,81951.81706819107, 7,13,19,15
318,0.0,0.0, 7,13, 1,15,0.0, 7,13, 1,15
355,197687796.27748066,18561.32405820678, 7,13, 4,15,724774.895203776, 7,18,18,15
403,197687796.27748066,18561.32405820678, 7,13, 4,15,724774.895203776, 7,18,18,15
476,106772067.24485716,7098.072629279515, 7,13, 4,15,356036.3026282215, 7,18,12,15
513,0.0,0.0, 7,13, 1,15,0.0, 7,13, 1,15
562,63707705.25798398,10315.30084051605, 7,13, 4,60,181864.74741891352, 7,16,18,15
1046,0.0,0.0, 7,13, 1,15,0.0, 7,13, 1,15
1096,623583925.8293165,81175.15132280409, 7,13, 4,60,2077290.6841115602, 7,18,16,60
1134,0.0,0.0, 7,13, 1,15,0.0, 7,13, 1,15
1326,251690177.97836217,0.0, 7,13, 1,15,4050000.0, 7,13, 9,60
1379,0.0,0.0, 7,13, 1,15,0.0, 7,13, 1,15
1,ANNUAL,  35.04,-106.62,  -7.00,1619.00
5,365
1038,0.25,0.0, 1, 1, 1,15,0.25,12,12,22,45
1039,58.5,0.0, 1, 1, 1,15,0.25, 1,21,16,15
581,0.253769689608149,0.0, 7, 3, 6, 7,1.1644546593819225, 6, 6,23,52
582,4.225760566928597,0.0, 1, 1, 3,30,38.614810133699734, 4,29,17,52
583,0.02861102423872271,0.0, 7,14, 6, 7,0.11636350716399751,12,27, 7,60
1115,8313898207.157009,0.0, 1, 1,14,18,5094322.230413437,12,27, 8,30
1128,2785605555.562449,0.0, 1, 1,14,18,1720133.3138489963, 3, 3, 6,45
1153,63568819.254879095,0.0, 1, 1,14,18,99207.53717313132,12,13, 6,45
1154,1892601281.4036875,0.0, 1, 1, 2, 7,180000.0, 1, 1,15,15
1155,153988938.1382563,0.0, 1, 1, 1, 7,1988569.4055896027, 2,23, 6,45
1156,153988938.1382563,0.0, 1, 1, 1, 7,1988569.4055896027, 2,23, 6,45
1292,-1187917659.4379501,-39806.117190958634,12,19, 4,60,-1610.606466478672, 2,10,10, 1
1306,15504391664.17815,0.0, 1, 1, 1, 7,4050000.0, 1, 1,21,15
1307,5941738682.671582,0.0, 1, 1, 1, 7,15905104.64118071, 1,20, 9,60
1308,15504391664.17815,0.0, 1, 1, 1, 7,4050000.0, 1, 1,21,15
13,53807452301.56574,151703.1275401932, 3,14, 4,15,7503266.301345954, 7,18,20,15
61,15743207428.383959,88139.10953165221, 1, 1, 1,15,1282023.4113694867, 1, 1,20,15
134,3685071073.4325233,63564.01800854099, 1, 2, 4,15,156554.22484006523, 1, 1,20,15
170,273393721.45532674,348.4159749238097, 1, 2, 4,15,17476.39704006126, 1, 1,12,15
207,339560869.0695816,815.2532113832032, 1, 2, 3,15,22990.642799023623, 1, 1,10,15
244,664895467.8009144,1521.856143006317, 1, 2, 4,15,53038.631142310165, 1, 1,20,15
281,2407221015.106824,59938.60262432081, 1, 1, 5,15,81951.81706819107, 1, 1,19,15
318,0.0,0.0, 1, 1, 1,15,0.0, 1, 1, 1,15
355,10310294493.051695,18561.32405820678, 1, 2, 4,15,724774.895203776, 1, 1,18,15
403,10310294493.051695,18561.32405820678, 1, 2, 4,15,724774.895203776, 1, 1,18,15
476,5569688622.066177,7098.072629279515, 1, 2, 4,15,356036.3026282215, 1, 1,12,15
513,0.0,0.0, 1, 1, 1,15,0.0, 1, 1, 1,15
562,1749811931.9033737,0.0, 1, 1,14,30,181864.74741891358, 8, 1,16,15
1046,0.0,0.0, 1, 1, 1,15,0.0, 1, 1, 1,15
1096,12229205609.3062,0.0, 1, 1, 1,15,2075301.0635207691, 7,18,16,60
1134,4895764594.35927,0.0, 1, 9,15,60,4255679.9996710485, 2,23, 6,15
1326,15504391664.17818,0.0, 1, 1, 1,15,4050000.0000000014, 2,10,10,15
1379,0.0,0.0, 1, 1, 1,15,0.0, 1, 1, 1,15
End of Data
 Number of Records Written=          99
