Program Version,EnergyPlus, Version 22.2.0-c249759bad, YMD=2023.09.01 18:17
1,5,Environment Title[],Latitude[deg],Longitude[deg],Time Zone[],Elevation[m]
2,8,Day of Simulation[],Month[],Day of Month[],DST Indicator[1=yes 0=no],Hour[],StartMinute[],EndMinute[],DayType
3,5,Cumulative Day of Simulation[],Month[],Day of Month[],DST Indicator[1=yes 0=no],DayType  ! When Daily Report Variables Requested
4,2,Cumulative Days of Simulation[],Month[]  ! When Monthly Report Variables Requested
5,1,Cumulative Days of Simulation[] ! When Run Period Report Variables Requested
6,1,Calendar Year of Simulation[] ! When Annual Report Variables Requested
581,11,LIVING,AFN Zone Infiltration Air Change Rate [ach] !RunPeriod [Value,Min,Month,Day,Hour,Minute,Max,Month,Day,Hour,Minute]
582,11,ATTIC,AFN Zone Infiltration Air Change Rate [ach] !RunPeriod [Value,Min,Month,Day,Hour,Minute,Max,Month,Day,Hour,Minute]
583,11,CRAWLSPACE,AFN Zone Infiltration Air Change Rate [ach] !RunPeriod [Value,Min,Month,Day,Hour,Minute,Max,Month,Day,Hour,Minute]
1038,11,Facility,Facility Heating Setpoint Not Met Time [hr] !RunPeriod [Value,Min,Month,Day,Hour,Minute,Max,Month,Day,Hour,Minute]
1039,11,Facility,Facility Cooling Setpoint Not Met Time [hr] !RunPeriod [Value,Min,Month,Day,Hour,Minute,Max,Month,Day,Hour,Minute]
1115,11,DX_HEATING_COIL,Heating Coil Heating Energy [J] !RunPeriod [Value,Min,Month,Day,Hour,Minute,Max,Month,Day,Hour,Minute]
1128,11,DX_HEATING_COIL,Heating Coil Electricity Energy [J] !RunPeriod [Value,Min,Month,Day,Hour,Minute,Max,Month,Day,Hour,Minute]
1153,11,DX_HEATING_COIL,Heating Coil Defrost Electricity Energy [J] !RunPeriod [Value,Min,Month,Day,Hour,Minute,Max,Month,Day,Hour,Minute]
1154,11,DX_HEATING_COIL,Heating Coil Crankcase Heater Electricity Energy [J] !RunPeriod [Value,Min,Month,Day,Hour,Minute,Max,Month,Day,Hour,Minute]
1155,11,HEATING_RESISTANCE_BACKUP,Heating Coil Heating Energy [J] !RunPeriod [Value,Min,Month,Day,Hour,Minute,Max,Month,Day,Hour,Minute]
1156,11,HEATING_RESISTANCE_BACKUP,Heating Coil Electricity Energy [J] !RunPeriod [Value,Min,Month,Day,Hour,Minute,Max,Month,Day,Hour,Minute]
1292,11,WATER HEATER,Water Heater Heat Loss Energy [J] !RunPeriod [Value,Min,Month,Day,Hour,Minute,Max,Month,Day,Hour,Minute]
1306,11,WATER HEATER,Water Heater Heating Energy [J] !RunPeriod [Value,Min,Month,Day,Hour,Minute,Max,Month,Day,Hour,Minute]
1307,11,WATER HEATER,Water Heater Unmet Demand Heat Transfer Energy [J] !RunPeriod [Value,Min,Month,Day,Hour,Minute,Max,Month,Day,Hour,Minute]
1308,11,WATER HEATER,Water Heater Electricity Energy [J] !RunPeriod [Value,Min,Month,Day,Hour,Minute,Max,Month,Day,Hour,Minute]
13,11,Electricity:Facility [J] !RunPeriod [Value,Min,Month,Day,Hour,Minute,Max,Month,Day,Hour,Minute]
1134,11,Heating:Electricity [J] !RunPeriod [Value,Min,Month,Day,Hour,Minute,Max,Month,Day,Hour,Minute]
1096,11,Cooling:Electricity [J] !RunPeriod [Value,Min,Month,Day,Hour,Minute,Max,Month,Day,Hour,Minute]
562,11,Fans:Electricity [J] !RunPeriod [Value,Min,Month,Day,Hour,Minute,Max,Month,Day,Hour,Minute]
1379,11,Pumps:Electricity [J] !RunPeriod [Value,Min,Month,Day,Hour,Minute,Max,Month,Day,Hour,Minute]
1326,11,WaterSystems:Electricity [J] !RunPeriod [Value,Min,Month,Day,Hour,Minute,Max,Month,Day,Hour,Minute]
61,11,InteriorLights:Electricity [J] !RunPeriod [Value,Min,Month,Day,Hour,Minute,Max,Month,Day,Hour,Minute]
1046,11,ExteriorLights:Electricity [J] !RunPeriod [Value,Min,Month,Day,Hour,Minute,Max,Month,Day,Hour,Minute]
134,11,InteriorEquipment:Electricity [J] !RunPeriod [Value,Min,Month,Day,Hour,Minute,Max,Month,Day,Hour,Minute]
170,11,gas_dryer:InteriorEquipment:Electricity [J] !RunPeriod [Value,Min,Month,Day,Hour,Minute,Max,Month,Day,Hour,Minute]
207,11,clotheswasher:InteriorEquipment:Electricity [J] !RunPeriod [Value,Min,Month,Day,Hour,Minute,Max,Month,Day,Hour,Minute]
244,11,dishwasher:InteriorEquipment:Electricity [J] !RunPeriod [Value,Min,Month,Day,Hour,Minute,Max,Month,Day,Hour,Minute]
281,11,refrigerator:InteriorEquipment:Electricity [J] !RunPeriod [Value,Min,Month,Day,Hour,Minute,Max,Month,Day,Hour,Minute]
318,11,electric_mels:InteriorEquipment:Electricity [J] !RunPeriod [Value,Min,Month,Day,Hour,Minute,Max,Month,Day,Hour,Minute]
355,11,NaturalGas:Facility [J] !RunPeriod [Value,Min,Month,Day,Hour,Minute,Max,Month,Day,Hour,Minute]
403,11,InteriorEquipment:NaturalGas [J] !RunPeriod [Value,Min,Month,Day,Hour,Minute,Max,Month,Day,Hour,Minute]
476,11,gas_dryer:InteriorEquipment:NaturalGas [J] !RunPeriod [Value,Min,Month,Day,Hour,Minute,Max,Month,Day,Hour,Minute]
513,11,gas_mels:InteriorEquipment:NaturalGas [J] !RunPeriod [Value,Min,Month,Day,Hour,Minute,Max,Month,Day,Hour,Minute]
End of Data Dictionary
1,EXTREME_WINTER,  36.12, -86.69,  -6.00, 182.90
5,7
1038,0.75,0.0, 1,27, 1,15,0.25, 1,29, 6,15
1039,0.0,0.0, 1,27, 1,15,0.0, 1,27, 1,15
581,0.33534253908149897,0.16739831858215534, 2, 2,23,22,0.6017966563327545, 1,28,14,60
582,3.8437072569222357,0.0, 2, 1,20,37,13.847564555935566, 1,28,14,52
583,0.032412759084761614,0.00031330743140072615, 2, 2,23,15,0.07394833312212962, 2, 1, 1,60
1115,1097845424.4062912,0.0, 1,27, 1,15,4160733.690212688, 1,30, 6,45
1128,368176831.02206385,0.0, 1,27, 1,15,1270384.4288271354, 1,28, 9,30
1153,3161866.699692582,0.0, 1,27, 1,15,73318.25197541596, 2, 2, 9,60
1154,60456498.78479264,0.0, 1,27, 6, 5,180000.0, 1,27, 1,15
1155,203383253.16138923,0.0, 1,27, 1,15,3539914.806548669, 1,31, 6,45
1156,203383253.16138923,0.0, 1,27, 1,15,3539914.806548669, 1,31, 6,45
1292,-25098065.05394862,-39743.35732353569, 1,31, 5,30,-5290.729009526189, 1,31,12,45
1306,210700687.58785558,0.0, 1,27, 1,15,4050000.0, 1,28,20,30
1307,30844785.213785652,0.0, 1,27, 1,15,5767852.972196711, 2, 2, 9,45
1308,210700687.58785558,0.0, 1,27, 1,15,4050000.0, 1,28,20,30
13,1257619739.2423303,272017.0388981225, 1,27,15,15,8696455.591989268, 1,31, 6,60
61,301924526.02383536,88139.10953165221, 1,27, 1,15,1282023.4113694867, 1,27,20,15
134,70666020.44019976,63564.01800854099, 1,27, 4,15,156554.22484006523, 2, 1,20,15
170,5241013.419656067,348.4159749238097, 1,27, 4,15,17476.39704006126, 2, 1,12,15
207,6509451.13922267,815.2532113832032, 1,27, 3,15,22990.642799023623, 2, 1,10,15
244,12749673.399825225,1521.856143006317, 1,27, 4,15,53038.631142310165, 2, 1,20,15
281,46165882.481495745,59938.60262432081, 1,27, 5,15,81951.81706819107, 1,27,19,15
318,0.0,0.0, 1,27, 1,15,0.0, 1,27, 1,15
355,197687796.27748066,18561.32405820678, 1,27, 4,15,724774.895203776, 2, 1,18,15
403,197687796.27748066,18561.32405820678, 1,27, 4,15,724774.895203776, 2, 1,18,15
476,106772067.24485716,7098.072629279515, 1,27, 4,15,356036.3026282215, 2, 1,12,15
513,0.0,0.0, 1,27, 1,15,0.0, 1,27, 1,15
562,39150055.52250106,0.0, 1,27, 1,15,130077.58068673154, 1,28, 9,30
1046,0.0,0.0, 1,27, 1,15,0.0, 1,27, 1,15
1096,0.0,0.0, 1,27, 1,15,0.0, 1,27, 1,15
1134,635178449.6679375,0.0, 1,27,11,30,5208734.6826939015, 1,29, 6,15
1326,210700687.58785564,0.0, 1,27, 1,15,4050000.0, 1,28,20,30
1379,0.0,0.0, 1,27, 1,15,0.0, 1,27, 1,15
1,EXTREME_SUMMER,  36.12, -86.69,  -6.00, 182.90
5,7
1038,0.0,0.0, 6, 1, 1,15,0.0, 6, 1, 1,15
1039,52.25,0.0, 6, 1, 1,15,0.25, 6, 1,14,30
581,0.07023974050545854,0.0, 6, 1,23, 3,0.7772726684699012, 6, 5,14,46
582,1.845117022903491,0.014514126355337484, 6, 4, 7,45,14.711793086425153, 6, 5,14,46
583,0.03977358158108416,0.0, 6, 2, 6, 7,0.07159786893658796, 6, 5,14,46
1115,0.0,0.0, 6, 1, 1, 7,0.0, 6, 1, 1, 7
1128,0.0,0.0, 6, 1, 1, 7,0.0, 6, 1, 1, 7
1153,0.0,0.0, 6, 1, 1, 7,0.0, 6, 1, 1, 7
1154,0.0,0.0, 6, 1, 1, 7,0.0, 6, 1, 1, 7
1155,0.0,0.0, 6, 1, 1, 7,0.0, 6, 1, 1, 7
1156,0.0,0.0, 6, 1, 1, 7,0.0, 6, 1, 1, 7
1292,-21764701.471450362,-34301.1335449606, 6, 5,16,60,-2548.4883562951413, 6, 5,14,16
1306,164967265.5088042,0.0, 6, 1, 1, 7,2025000.0, 6, 1,14,30
1307,14977145.08673356,0.0, 6, 1, 1, 7,1497079.2924998763, 6, 7,19,51
1308,164967265.5088042,0.0, 6, 1, 1, 7,2025000.0, 6, 1,14,30
13,1129347143.7094522,159312.65340055048, 6, 6, 4,60,6928007.750886342, 6, 7,20,15
61,301924526.02383536,88139.10953165221, 6, 1, 1,15,1282023.4113694867, 6, 1,20,15
134,70666020.44019976,63564.01800854099, 6, 1, 4,15,156554.22484006523, 6, 6,20,15
170,5241013.419656067,348.4159749238097, 6, 1, 4,15,17476.39704006126, 6, 6,12,15
207,6509451.13922267,815.2532113832032, 6, 1, 3,15,22990.642799023623, 6, 6,10,15
244,12749673.399825225,1521.856143006317, 6, 1, 4,15,53038.631142310165, 6, 6,20,15
281,46165882.481495745,59938.60262432081, 6, 1, 5,15,81951.81706819107, 6, 1,19,15
318,0.0,0.0, 6, 1, 1,15,0.0, 6, 1, 1,15
355,197687796.27748066,18561.32405820678, 6, 1, 4,15,724774.895203776, 6, 6,18,15
403,197687796.27748066,18561.32405820678, 6, 1, 4,15,724774.895203776, 6, 6,18,15
476,106772067.24485716,7098.072629279515, 6, 1, 4,15,356036.3026282215, 6, 6,12,15
513,0.0,0.0, 6, 1, 1,15,0.0, 6, 1, 1,15
562,55718187.240396164,802.8146673238784, 6, 6, 4,60,130077.58068673157, 6, 7,11,60
1046,0.0,0.0, 6, 1, 1,15,0.0, 6, 1, 1,15
1096,536071144.4962178,6438.0385348139525, 6, 6, 4,60,1415077.8951065633, 6, 7,16,60
1134,0.0,0.0, 6, 1, 1,15,0.0, 6, 1, 1,15
1326,164967265.50880417,0.0, 6, 1, 1,15,4050000.0, 6, 2,20,30
1379,0.0,0.0, 6, 1, 1,15,0.0, 6, 1, 1,15
1,ANNUAL,  36.12, -86.69,  -6.00, 182.90
5,365
1038,5.75,0.0, 1, 1, 1,15,0.25, 1,11, 6,15
1039,865.25,0.0, 1, 1, 1,15,0.25, 1, 2,14,45
581,0.19952250579552724,0.0, 5, 9,23, 3,1.0455751940659743, 3,28,18,60
582,2.9938640487000603,0.0, 1, 2,20,52,21.244074420388447, 3,28,18,60
583,0.02595582406613752,0.0, 5,14,23, 3,0.08191553269241472, 6, 5,14,47
1115,9324691053.428185,0.0, 1, 1,23, 7,4278048.945358141, 1,30, 6,45
1128,2897001566.411401,0.0, 1, 1,23, 7,1281690.6073681957, 1,30, 6,45
1153,102131823.80568223,0.0, 1, 1, 1, 7,105650.37582290555, 3,14, 6,45
1154,1306618787.3517377,0.0, 1, 1, 1,52,180000.0, 1, 2,13,60
1155,489106996.1275339,0.0, 1, 1, 1, 7,3654988.760089011, 1,31, 6,45
1156,489106996.1275339,0.0, 1, 1, 1, 7,3654988.760089011, 1,31, 6,45
1292,-1195898743.0406203,-39812.20119699368, 2,20, 3,30,-2262.1366572600396, 4,29,12,30
1306,9495263392.3966,0.0, 1, 1, 1, 7,4050000.0, 1, 1, 9,60
1307,1068395690.9285228,0.0, 1, 1, 1, 7,10351359.07689119, 1,29,19,60
1308,9495263392.3966,0.0, 1, 1, 1, 7,4050000.0, 1, 1, 9,60
13,47833535905.54159,151703.1275401932, 1, 5, 4,15,8284686.398435732, 1,31, 7,60
61,15743207428.383959,88139.10953165221, 1, 1, 1,15,1282023.4113694867, 1, 1,20,15
134,3685071073.4325233,63564.01800854099, 1, 2, 4,15,156554.22484006523, 1, 1,20,15
170,273393721.45532674,348.4159749238097, 1, 2, 4,15,17476.39704006126, 1, 1,12,15
207,339560869.0695816,815.2532113832032, 1, 2, 3,15,22990.642799023623, 1, 1,10,15
244,664895467.8009144,1521.856143006317, 1, 2, 4,15,53038.631142310165, 1, 1,20,15
281,2407221015.106824,59938.60262432081, 1, 1, 5,15,81951.81706819107, 1, 1,19,15
318,0.0,0.0, 1, 1, 1,15,0.0, 1, 1, 1,15
355,10310294493.051695,18561.32405820678, 1, 2, 4,15,724774.895203776, 1, 1,18,15
403,10310294493.051695,18561.32405820678, 1, 2, 4,15,724774.895203776, 1, 1,18,15
476,5569688622.066177,7098.072629279515, 1, 2, 4,15,356036.3026282215, 1, 1,12,15
513,0.0,0.0, 1, 1, 1,15,0.0, 1, 1, 1,15
562,1702429796.9294293,0.0, 1, 1,23,15,130077.58068673157, 5, 6,17,60
1046,0.0,0.0, 1, 1, 1,15,0.0, 1, 1, 1,15
1096,12412705040.701067,0.0, 1, 1, 1,15,1420834.7241325479, 7,22,16,60
1134,4794859173.696346,0.0, 1, 2,14,45,5353039.047070599, 1,29, 6,15
1326,9495263392.396582,0.0, 1, 1, 1,15,4050000.0000000014, 3,18, 9,45
1379,0.0,0.0, 1, 1, 1,15,0.0, 1, 1, 1,15
End of Data
 Number of Records Written=          99
