Program Version,EnergyPlus, Version 22.2.0-c249759bad, YMD=2023.09.01 15:36
1,5,Environment Title[],Latitude[deg],Longitude[deg],Time Zone[],Elevation[m]
2,8,Day of Simulation[],Month[],Day of Month[],DST Indicator[1=yes 0=no],Hour[],StartMinute[],EndMinute[],DayType
3,5,Cumulative Day of Simulation[],Month[],Day of Month[],DST Indicator[1=yes 0=no],DayType  ! When Daily Report Variables Requested
4,2,Cumulative Days of Simulation[],Month[]  ! When Monthly Report Variables Requested
5,1,Cumulative Days of Simulation[] ! When Run Period Report Variables Requested
6,1,Calendar Year of Simulation[] ! When Annual Report Variables Requested
581,11,LIVING,AFN Zone Infiltration Air Change Rate [ach] !RunPeriod [Value,Min,Month,Day,Hour,Minute,Max,Month,Day,Hour,Minute]
582,11,ATTIC,AFN Zone Infiltration Air Change Rate [ach] !RunPeriod [Value,Min,Month,Day,Hour,Minute,Max,Month,Day,Hour,Minute]
583,11,CRAWLSPACE,AFN Zone Infiltration Air Change Rate [ach] !RunPeriod [Value,Min,Month,Day,Hour,Minute,Max,Month,Day,Hour,Minute]
1038,11,Facility,Facility Heating Setpoint Not Met Time [hr] !RunPeriod [Value,Min,Month,Day,Hour,Minute,Max,Month,Day,Hour,Minute]
1039,11,Facility,Facility Cooling Setpoint Not Met Time [hr] !RunPeriod [Value,Min,Month,Day,Hour,Minute,Max,Month,Day,Hour,Minute]
1115,11,DX_HEATING_COIL,Heating Coil Heating Energy [J] !RunPeriod [Value,Min,Month,Day,Hour,Minute,Max,Month,Day,Hour,Minute]
1128,11,DX_HEATING_COIL,Heating Coil Electricity Energy [J] !RunPeriod [Value,Min,Month,Day,Hour,Minute,Max,Month,Day,Hour,Minute]
1153,11,DX_HEATING_COIL,Heating Coil Defrost Electricity Energy [J] !RunPeriod [Value,Min,Month,Day,Hour,Minute,Max,Month,Day,Hour,Minute]
1154,11,DX_HEATING_COIL,Heating Coil Crankcase Heater Electricity Energy [J] !RunPeriod [Value,Min,Month,Day,Hour,Minute,Max,Month,Day,Hour,Minute]
1155,11,HEATING_RESISTANCE_BACKUP,Heating Coil Heating Energy [J] !RunPeriod [Value,Min,Month,Day,Hour,Minute,Max,Month,Day,Hour,Minute]
1156,11,HEATING_RESISTANCE_BACKUP,Heating Coil Electricity Energy [J] !RunPeriod [Value,Min,Month,Day,Hour,Minute,Max,Month,Day,Hour,Minute]
1292,11,WATER HEATER,Water Heater Heat Loss Energy [J] !RunPeriod [Value,Min,Month,Day,Hour,Minute,Max,Month,Day,Hour,Minute]
1306,11,WATER HEATER,Water Heater Heating Energy [J] !RunPeriod [Value,Min,Month,Day,Hour,Minute,Max,Month,Day,Hour,Minute]
1307,11,WATER HEATER,Water Heater Unmet Demand Heat Transfer Energy [J] !RunPeriod [Value,Min,Month,Day,Hour,Minute,Max,Month,Day,Hour,Minute]
1308,11,WATER HEATER,Water Heater Electricity Energy [J] !RunPeriod [Value,Min,Month,Day,Hour,Minute,Max,Month,Day,Hour,Minute]
13,11,Electricity:Facility [J] !RunPeriod [Value,Min,Month,Day,Hour,Minute,Max,Month,Day,Hour,Minute]
1134,11,Heating:Electricity [J] !RunPeriod [Value,Min,Month,Day,Hour,Minute,Max,Month,Day,Hour,Minute]
1096,11,Cooling:Electricity [J] !RunPeriod [Value,Min,Month,Day,Hour,Minute,Max,Month,Day,Hour,Minute]
562,11,Fans:Electricity [J] !RunPeriod [Value,Min,Month,Day,Hour,Minute,Max,Month,Day,Hour,Minute]
1379,11,Pumps:Electricity [J] !RunPeriod [Value,Min,Month,Day,Hour,Minute,Max,Month,Day,Hour,Minute]
1326,11,WaterSystems:Electricity [J] !RunPeriod [Value,Min,Month,Day,Hour,Minute,Max,Month,Day,Hour,Minute]
61,11,InteriorLights:Electricity [J] !RunPeriod [Value,Min,Month,Day,Hour,Minute,Max,Month,Day,Hour,Minute]
1046,11,ExteriorLights:Electricity [J] !RunPeriod [Value,Min,Month,Day,Hour,Minute,Max,Month,Day,Hour,Minute]
134,11,InteriorEquipment:Electricity [J] !RunPeriod [Value,Min,Month,Day,Hour,Minute,Max,Month,Day,Hour,Minute]
170,11,gas_dryer:InteriorEquipment:Electricity [J] !RunPeriod [Value,Min,Month,Day,Hour,Minute,Max,Month,Day,Hour,Minute]
207,11,clotheswasher:InteriorEquipment:Electricity [J] !RunPeriod [Value,Min,Month,Day,Hour,Minute,Max,Month,Day,Hour,Minute]
244,11,dishwasher:InteriorEquipment:Electricity [J] !RunPeriod [Value,Min,Month,Day,Hour,Minute,Max,Month,Day,Hour,Minute]
281,11,refrigerator:InteriorEquipment:Electricity [J] !RunPeriod [Value,Min,Month,Day,Hour,Minute,Max,Month,Day,Hour,Minute]
318,11,electric_mels:InteriorEquipment:Electricity [J] !RunPeriod [Value,Min,Month,Day,Hour,Minute,Max,Month,Day,Hour,Minute]
355,11,NaturalGas:Facility [J] !RunPeriod [Value,Min,Month,Day,Hour,Minute,Max,Month,Day,Hour,Minute]
403,11,InteriorEquipment:NaturalGas [J] !RunPeriod [Value,Min,Month,Day,Hour,Minute,Max,Month,Day,Hour,Minute]
476,11,gas_dryer:InteriorEquipment:NaturalGas [J] !RunPeriod [Value,Min,Month,Day,Hour,Minute,Max,Month,Day,Hour,Minute]
513,11,gas_mels:InteriorEquipment:NaturalGas [J] !RunPeriod [Value,Min,Month,Day,Hour,Minute,Max,Month,Day,Hour,Minute]
End of Data Dictionary
1,EXTREME_WINTER,  41.17, -73.13,  -5.00,   5.00
5,7
1038,1.0,0.0, 1, 8, 1,15,0.25, 1, 9, 6,15
1039,0.0,0.0, 1, 8, 1,15,0.0, 1, 8, 1,15
581,0.3589657246908868,0.1986197953908394, 1,14,23,22,0.6488524857397193, 1,12,20,45
582,3.345075094946806,0.0, 1, 8, 1,52,11.012296693198719, 1,12,19,52
583,0.045892111434521064,0.0003415546666306639, 1,14,17,60,0.06657953100526598, 1,12,20,45
1115,1661222493.5099385,0.0, 1, 8,23, 3,3666785.5711096562, 1,12, 3,30
1128,553787719.3406959,0.0, 1, 8,23, 3,1142339.6523216104, 1,12,20,60
1153,5215659.278487038,0.0, 1, 8,23, 3,62657.968207892125, 1, 8, 8,60
1154,30534555.70636569,0.0, 1, 8, 1, 7,180000.0, 1,12,16,30
1155,463434940.31628597,0.0, 1, 8, 1,22,3947778.891905395, 1,10, 6,45
1156,463434940.31628597,0.0, 1, 8, 1,22,3947778.891905395, 1,10, 6,45
1292,-25373703.47588887,-39760.79938200489, 1,14, 5,60,-5196.509431536921, 1,14,11,12
1306,236083219.31602007,0.0, 1, 8, 1, 7,7542374.941359485, 1,10, 7,60
1307,6354862.835887131,0.0, 1, 8, 1, 7,2015678.3878663962, 1,14,19,55
1308,236083219.31602007,0.0, 1, 8, 1, 7,7542374.941359485, 1,10, 7,60
13,1719286490.2715728,458150.8545527997, 1,14,15,15,13048937.948562276, 1,10, 7,60
61,301924526.02383536,88139.10953165221, 1, 8, 1,15,1282023.4113694867, 1, 8,20,15
134,70666020.44019976,63564.01800854099, 1, 8, 4,15,156554.22484006523, 1,13,20,15
170,5241013.419656067,348.4159749238097, 1, 8, 4,15,17476.39704006126, 1,13,12,15
207,6509451.13922267,815.2532113832032, 1, 8, 3,15,22990.642799023623, 1,13,10,15
244,12749673.399825225,1521.856143006317, 1, 8, 4,15,53038.631142310165, 1,13,20,15
281,46165882.481495745,59938.60262432081, 1, 8, 5,15,81951.81706819107, 1, 8,19,15
318,0.0,0.0, 1, 8, 1,15,0.0, 1, 8, 1,15
355,197687796.27748066,18561.32405820678, 1, 8, 4,15,724774.895203776, 1,13,18,15
403,197687796.27748066,18561.32405820678, 1, 8, 4,15,724774.895203776, 1,13,18,15
476,106772067.24485716,7098.072629279515, 1, 8, 4,15,356036.3026282215, 1,13,12,15
513,0.0,0.0, 1, 8, 1,15,0.0, 1, 8, 1,15
562,57639849.84968376,0.0, 1,12,16,30,114822.84744597114, 1, 8, 1,15
1046,0.0,0.0, 1, 8, 1,15,0.0, 1, 8, 1,15
1096,0.0,0.0, 1, 8, 1,15,0.0, 1, 8, 1,15
1134,1052972874.6418346,180000.0, 1,12,16,30,5417262.643241411, 1,10, 6,30
1326,236083219.31602013,0.0, 1, 8, 1,15,10377912.475012828, 1,14, 9,45
1379,0.0,0.0, 1, 8, 1,15,0.0, 1, 8, 1,15
1,EXTREME_SUMMER,  41.17, -73.13,  -5.00,   5.00
5,7
1038,0.0,0.0, 8, 5, 1,15,0.0, 8, 5, 1,15
1039,40.0,0.0, 8, 5, 1,15,0.25, 8, 5,13,30
581,0.1413448297898352,0.0, 8, 5, 4, 7,0.43757725182995644, 8, 6,18,52
582,3.166872280401465,0.029320210013224674, 8, 6,23,11,12.121778887500472, 8, 5,16,50
583,0.033904140536097124,0.0, 8,10,23, 3,0.0605378967456843, 8, 6,18,48
1115,0.0,0.0, 8, 5, 1,15,0.0, 8, 5, 1,15
1128,0.0,0.0, 8, 5, 1,15,0.0, 8, 5, 1,15
1153,0.0,0.0, 8, 5, 1,15,0.0, 8, 5, 1,15
1154,0.0,0.0, 8, 5, 1,15,0.0, 8, 5, 1,15
1155,0.0,0.0, 8, 5, 1,15,0.0, 8, 5, 1,15
1156,0.0,0.0, 8, 5, 1,15,0.0, 8, 5, 1,15
1292,-21895550.682421196,-34323.456814047015, 8, 8,22,60,-3310.872037690433, 8, 5, 9,59
1306,173321313.2379149,0.0, 8, 5, 1,15,3896680.08061492, 8, 5,14,30
1307,1436270.6896977546,0.0, 8, 5, 1,15,365453.4911910672, 8,11,19,52
1308,173321313.2379149,0.0, 8, 5, 1,15,3896680.08061492, 8, 5,14,30
13,1029293739.6150316,151703.1275401932, 8, 7, 4,60,12822807.852030085, 8,11,19,60
61,301924526.02383536,88139.10953165221, 8, 5, 1,15,1282023.4113694867, 8, 5,20,15
134,70666020.44019976,63564.01800854099, 8, 5, 4,15,156554.22484006523, 8,10,20,15
170,5241013.419656067,348.4159749238097, 8, 5, 4,15,17476.39704006126, 8,10,12,15
207,6509451.13922267,815.2532113832032, 8, 5, 3,15,22990.642799023623, 8,10,10,15
244,12749673.399825225,1521.856143006317, 8, 5, 4,15,53038.631142310165, 8,10,20,15
281,46165882.481495745,59938.60262432081, 8, 5, 5,15,81951.81706819107, 8, 5,19,15
318,0.0,0.0, 8, 5, 1,15,0.0, 8, 5, 1,15
355,197687796.27748066,18561.32405820678, 8, 5, 4,15,724774.895203776, 8,10,18,15
403,197687796.27748066,18561.32405820678, 8, 5, 4,15,724774.895203776, 8,10,18,15
476,106772067.24485716,7098.072629279515, 8, 5, 4,15,356036.3026282215, 8,10,12,15
513,0.0,0.0, 8, 5, 1,15,0.0, 8, 5, 1,15
562,46738146.42501205,0.0, 8, 7, 4,60,114822.84744597114, 8, 5,12,45
1046,0.0,0.0, 8, 5, 1,15,0.0, 8, 5, 1,15
1096,436643733.48806995,0.0, 8, 7, 4,60,1240345.0807296915, 8, 5,15,60
1134,0.0,0.0, 8, 5, 1,15,0.0, 8, 5, 1,15
1326,173321313.23791483,0.0, 8, 5, 1,15,10356104.855354393, 8,11,19,60
1379,0.0,0.0, 8, 5, 1,15,0.0, 8, 5, 1,15
1,ANNUAL,  41.17, -73.13,  -5.00,   5.00
5,365
1038,43.25,0.0, 1, 1, 1,15,0.25, 1, 3, 6,15
1039,417.0,0.0, 1, 1, 1,15,0.25, 4,10,15,60
581,0.26287663052963034,0.0, 6, 8,21,50,1.1542380642361671, 2,12,10,60
582,4.546051939181644,0.0, 1, 8, 1,60,29.920986356484946, 2,12,10,60
583,0.024154529707086262,0.0, 6,25,23, 7,0.07358943920194395, 6, 9,17,47
1115,22735419552.943634,0.0, 1, 1,23, 7,4012867.763767119,12,30, 6,45
1128,7025551074.103597,0.0, 1, 1,23, 7,1185276.8433379019,12,10, 6,45
1153,173140021.12971938,0.0, 1, 1,23, 7,120936.05594918824, 2,19, 6,60
1154,1604166694.0275846,0.0, 1, 1, 6, 5,180000.0, 1, 6,15,45
1155,3455294423.7166142,0.0, 1, 1, 1,15,4363400.400626328, 1, 3, 6,15
1156,3455294423.7166142,0.0, 1, 1, 1,15,4363400.400626328, 1, 3, 6,15
1292,-1228426413.2106247,-39802.175794063274, 1,18, 8,15,-2711.120858737544, 4,18,12,45
1306,10826391778.583973,0.0, 1, 1, 1,15,10540800.0, 9,10,19,60
1307,206210900.2256631,0.0, 1, 1, 1,15,6150665.139288441, 2,12,19,60
1308,10826391778.583973,0.0, 1, 1, 1,15,10540800.0, 9,10,19,60
13,51395916069.5171,151703.1275401932, 4,12, 4,15,15589655.41656997, 2, 5, 9,45
61,15743207428.383959,88139.10953165221, 1, 1, 1,15,1282023.4113694867, 1, 1,20,15
134,3685071073.4325233,63564.01800854099, 1, 2, 4,15,156554.22484006523, 1, 1,20,15
170,273393721.45532674,348.4159749238097, 1, 2, 4,15,17476.39704006126, 1, 1,12,15
207,339560869.0695816,815.2532113832032, 1, 2, 3,15,22990.642799023623, 1, 1,10,15
244,664895467.8009144,1521.856143006317, 1, 2, 4,15,53038.631142310165, 1, 1,20,15
281,2407221015.106824,59938.60262432081, 1, 1, 5,15,81951.81706819107, 1, 1,19,15
318,0.0,0.0, 1, 1, 1,15,0.0, 1, 1, 1,15
355,10310294493.051695,18561.32405820678, 1, 2, 4,15,724774.895203776, 1, 1,18,15
403,10310294493.051695,18561.32405820678, 1, 2, 4,15,724774.895203776, 1, 1,18,15
476,5569688622.066177,7098.072629279515, 1, 2, 4,15,356036.3026282215, 1, 1,12,15
513,0.0,0.0, 1, 1, 1,15,0.0, 1, 1, 1,15
562,1557968254.6495018,0.0, 1, 1,23,15,114822.84744597114, 1, 1, 6,45
1046,0.0,0.0, 1, 1, 1,15,0.0, 1, 1, 1,15
1096,7325125321.487777,0.0, 1, 1, 1,15,1255718.160166187, 8,31,15,60
1134,12258152212.977564,0.0, 2, 8,12,60,5460497.82865399, 1, 3, 8,15
1326,10826391778.583961,0.0, 1, 1, 1,15,10540800.0, 4, 9,19,60
1379,0.0,0.0, 1, 1, 1,15,0.0, 1, 1, 1,15
End of Data
 Number of Records Written=          99
