Program Version,EnergyPlus, Version 22.2.0-c249759bad, YMD=2023.09.01 14:30
1,5,Environment Title[],Latitude[deg],Longitude[deg],Time Zone[],Elevation[m]
2,8,Day of Simulation[],Month[],Day of Month[],DST Indicator[1=yes 0=no],Hour[],StartMinute[],EndMinute[],DayType
3,5,Cumulative Day of Simulation[],Month[],Day of Month[],DST Indicator[1=yes 0=no],DayType  ! When Daily Report Variables Requested
4,2,Cumulative Days of Simulation[],Month[]  ! When Monthly Report Variables Requested
5,1,Cumulative Days of Simulation[] ! When Run Period Report Variables Requested
6,1,Calendar Year of Simulation[] ! When Annual Report Variables Requested
7,1,Environment,Site Outdoor Air Drybulb Temperature [C] !Hourly
619,1,DX_HEATING_COIL,Heating Coil Heating Rate [W] !Hourly
633,1,DX_HEATING_COIL,Heating Coil Electricity Rate [W] !Hourly
659,1,DX_HEATING_COIL,Heating Coil Defrost Electricity Rate [W] !Hourly
661,1,DX_HEATING_COIL,Heating Coil Crankcase Heater Electricity Rate [W] !Hourly
690,1,FAN,Fan Electricity Rate [W] !Hourly
716,1,HEAT PUMP WATER HEATER FAN,Fan Electricity Rate [W] !Hourly
718,1,LIVING,Zone Mean Air Temperature [C] !Hourly
719,1,ATTIC,Zone Mean Air Temperature [C] !Hourly
720,1,CRAWLSPACE,Zone Mean Air Temperature [C] !Hourly
843,1,LIVING,Zone Predicted Sensible Load to Heating Setpoint Heat Transfer Rate [W] !Hourly
844,1,LIVING,Zone System Predicted Sensible Load to Heating Setpoint Heat Transfer Rate [W] !Hourly
907,1,ATTIC,Zone Predicted Sensible Load to Heating Setpoint Heat Transfer Rate [W] !Hourly
908,1,ATTIC,Zone System Predicted Sensible Load to Heating Setpoint Heat Transfer Rate [W] !Hourly
971,1,CRAWLSPACE,Zone Predicted Sensible Load to Heating Setpoint Heat Transfer Rate [W] !Hourly
972,1,CRAWLSPACE,Zone System Predicted Sensible Load to Heating Setpoint Heat Transfer Rate [W] !Hourly
1195,1,HEATING_RESISTANCE_BACKUP,Heating Coil Heating Rate [W] !Hourly
1197,1,HEATING_RESISTANCE_BACKUP,Heating Coil Electricity Rate [W] !Hourly
End of Data Dictionary
1,EXTREME_WINTER,  37.65, -97.43,  -6.00, 409.00
2,1, 2,17, 0, 1, 0.00,60.00,Monday
7,0.0
718,20.94349973514092
719,6.197157984603533
720,19.021425480002485
619,0.0
633,0.0
659,0.0
661,200.0
690,0.0
716,0.0
843,-2083.52388287553
844,-2083.52388287553
907,0.0
908,0.0
971,0.0
972,0.0
1195,0.0
1197,0.0
2,1, 2,17, 0, 2, 0.00,60.00,Monday
7,-0.6
718,20.302065874259696
719,4.385298678763267
720,18.721673231023754
619,0.0
633,0.0
659,0.0
661,200.0
690,0.0
716,0.0
843,-1469.6026591469708
844,-1469.6026591469708
907,0.0
908,0.0
971,0.0
972,0.0
1195,0.0
1197,0.0
2,1, 2,17, 0, 3, 0.00,60.00,Monday
7,-1.1
718,19.5048409434621
719,1.4884214748196705
720,18.525424624700996
619,0.0
633,0.0
659,0.0
661,200.0
690,0.0
716,0.0
843,-743.7430082894934
844,-743.7430082894934
907,0.0
908,0.0
971,0.0
972,0.0
1195,0.0
1197,0.0
2,1, 2,17, 0, 4, 0.00,60.00,Monday
7,-2.2
718,18.68166114118581
719,-0.204110296313878
720,18.322755764908724
619,0.0
633,0.0
659,0.0
661,200.0
690,0.0
716,0.0
843,-58.626003510373266
844,-58.626003510373266
907,0.0
908,0.0
971,0.0
972,0.0
1195,0.0
1197,0.0
2,1, 2,17, 0, 5, 0.00,60.00,Monday
7,-2.2
718,18.569007984215588
719,-1.1727093235856734
720,18.112101529203667
619,630.0913473311673
633,218.90067499233913
659,12.217256889591821
661,175.54272082541695
690,22.222025359676596
716,0.0
843,470.90009785784423
844,470.90009785784423
907,0.0
908,0.0
971,0.0
972,0.0
1195,0.0
1197,0.0
2,1, 2,17, 0, 6, 0.00,60.00,Monday
7,-2.8
718,19.232024856133826
719,-1.049034712713574
720,17.882212166194176
619,2018.9606171255534
633,687.3353743806402
659,40.762584787912786
661,122.31089059880813
690,70.48474480395687
716,0.0
843,1485.213054812648
844,1485.213054812648
907,0.0
908,0.0
971,0.0
972,0.0
1195,0.0
1197,0.0
2,1, 2,17, 0, 7, 0.00,60.00,Monday
7,-2.8
718,19.388535906248915
719,-0.35828915090206376
720,17.67789396349297
619,4052.4279776172016
633,1343.7871030287986
659,78.68920060609736
661,50.02683351934569
690,136.06012110727391
716,85.44000000000004
843,1928.0026412991083
844,1928.0026412991083
907,0.0
908,0.0
971,0.0
972,0.0
1195,0.0
1197,0.0
2,1, 2,17, 0, 8, 0.00,60.00,Monday
7,-2.2
718,19.590903974902993
719,-0.024446810879512233
720,17.528682456161203
619,3985.708270827634
633,1314.4962287864055
659,89.69560403502598
661,52.55807895593063
690,133.62387736510598
716,72.56712147967595
843,1985.8517799604742
844,1985.8517799604742
907,0.0
908,0.0
971,0.0
972,0.0
1195,0.0
1197,0.0
2,1, 2,17, 0, 9, 0.00,60.00,Monday
7,2.2
718,19.82217452294616
719,2.620121587441892
720,17.423735241570633
619,1882.6390801941745
633,600.2328723089804
659,43.583452894694396
661,134.8761725156543
690,59.389159947779575
716,0.0
843,1382.248887314352
844,1382.248887314352
907,0.0
908,0.0
971,0.0
972,0.0
1195,0.0
1197,0.0
2,1, 2,17, 0,10, 0.00,60.00,Monday
7,6.7
718,19.980202773373353
719,7.613096702669424
720,17.2905018156366
619,505.6868580652162
633,141.57849167580582
659,0.0
661,187.3833387260736
690,11.585912183543178
716,0.0
843,392.7535989063017
844,392.7535989063017
907,0.0
908,0.0
971,0.0
972,0.0
1195,0.0
1197,0.0
2,1, 2,17, 0,11, 0.00,60.00,Monday
7,11.1
718,20.78200008484994
719,13.32332521967268
720,17.184323980859567
619,0.0
633,0.0
659,0.0
661,0.0
690,0.0
716,0.0
843,-764.6914668437312
844,-764.6914668437312
907,0.0
908,0.0
971,0.0
972,0.0
1195,0.0
1197,0.0
2,1, 2,17, 0,12, 0.00,60.00,Monday
7,14.4
718,21.82640446353429
719,18.62035893102949
720,17.11974261364573
619,0.0
633,0.0
659,0.0
661,0.0
690,0.0
716,0.0
843,-1715.34129367867
844,-1715.34129367867
907,0.0
908,0.0
971,0.0
972,0.0
1195,0.0
1197,0.0
2,1, 2,17, 0,13, 0.00,60.00,Monday
7,14.4
718,22.501246761908885
719,21.629110779119713
720,17.090839424505706
619,0.0
633,0.0
659,0.0
661,0.0
690,0.0
716,0.0
843,-2298.926714566862
844,-2298.926714566862
907,0.0
908,0.0
971,0.0
972,0.0
1195,0.0
1197,0.0
2,1, 2,17, 0,14, 0.00,60.00,Monday
7,18.9
718,22.532510547146195
719,24.761042090982254
720,17.095169170287658
619,0.0
633,0.0
659,0.0
661,0.0
690,0.0
716,70.54989081476607
843,-3124.8262461847316
844,-3124.8262461847316
907,0.0
908,0.0
971,0.0
972,0.0
1195,0.0
1197,0.0
2,1, 2,17, 0,15, 0.00,60.00,Monday
7,18.9
718,23.281917163964298
719,23.980613462543026
720,17.15204527013027
619,0.0
633,0.0
659,0.0
661,0.0
690,16.535377443513013
716,0.0
843,-3781.9513655464907
844,-3781.9513655464907
907,0.0
908,0.0
971,0.0
972,0.0
1195,0.0
1197,0.0
2,1, 2,17, 0,16, 0.00,60.00,Monday
7,19.4
718,23.34329450029915
719,23.425179754444645
720,17.2473909198909
619,0.0
633,0.0
659,0.0
661,0.0
690,32.523490722606404
716,0.0
843,-4428.998109998625
844,-4428.998109998625
907,0.0
908,0.0
971,0.0
972,0.0
1195,0.0
1197,0.0
2,1, 2,17, 0,17, 0.00,60.00,Monday
7,20.6
718,23.384177388391265
719,22.846267080536542
720,17.370239921386982
619,0.0
633,0.0
659,0.0
661,0.0
690,51.333529707541025
716,0.0
843,-5809.970215184983
844,-5809.970215184983
907,0.0
908,0.0
971,0.0
972,0.0
1195,0.0
1197,0.0
2,1, 2,17, 0,18, 0.00,60.00,Monday
7,17.8
718,23.19502731081149
719,20.249108764024605
720,17.46288245897483
619,0.0
633,0.0
659,0.0
661,0.0
690,52.76649156442589
716,0.0
843,-6135.942131686152
844,-6135.942131686152
907,0.0
908,0.0
971,0.0
972,0.0
1195,0.0
1197,0.0
2,1, 2,17, 0,19, 0.00,60.00,Monday
7,17.8
718,23.32473508584311
719,18.97681393803039
720,17.46391889352135
619,0.0
633,0.0
659,0.0
661,0.0
690,4.474633516901781
716,85.44000000000004
843,-5205.663565311996
844,-5205.663565311996
907,0.0
908,0.0
971,0.0
972,0.0
1195,0.0
1197,0.0
2,1, 2,17, 0,20, 0.00,60.00,Monday
7,13.3
718,23.04595438953273
719,15.889520799181305
720,17.524944095692362
619,0.0
633,0.0
659,0.0
661,0.0
690,0.0
716,85.44000000000004
843,-4517.4527954401365
844,-4517.4527954401365
907,0.0
908,0.0
971,0.0
972,0.0
1195,0.0
1197,0.0
2,1, 2,17, 0,21, 0.00,60.00,Monday
7,12.8
718,23.303458303925073
719,14.53570335770801
720,17.582078765292934
619,0.0
633,0.0
659,0.0
661,0.0
690,12.80847965638316
716,8.754556241874106
843,-4079.540977096247
844,-4079.540977096247
907,0.0
908,0.0
971,0.0
972,0.0
1195,0.0
1197,0.0
2,1, 2,17, 0,22, 0.00,60.00,Monday
7,12.8
718,22.91797074984295
719,13.86453383826125
720,17.58241766919391
619,0.0
633,0.0
659,0.0
661,0.0
690,7.387134891244504
716,0.0
843,-3413.0431440298125
844,-3413.0431440298125
907,0.0
908,0.0
971,0.0
972,0.0
1195,0.0
1197,0.0
2,1, 2,17, 0,23, 0.00,60.00,Monday
7,11.7
718,22.678607102762207
719,12.818998875854039
720,17.56258589623749
619,0.0
633,0.0
659,0.0
661,0.0
690,0.0
716,0.0
843,-3704.6799191158807
844,-3704.6799191158807
907,0.0
908,0.0
971,0.0
972,0.0
1195,0.0
1197,0.0
2,1, 2,17, 0,24, 0.00,60.00,Monday
7,12.2
718,21.68730863837441
719,12.918151414929024
720,17.53760720976991
619,0.0
633,0.0
659,0.0
661,0.0
690,0.0
716,0.0
843,-2697.1173549430005
844,-2697.1173549430005
907,0.0
908,0.0
971,0.0
972,0.0
1195,0.0
1197,0.0
2,2, 2,18, 0, 1, 0.00,60.00,Tuesday
7,12.2
718,21.08713147411639
719,12.863901679065767
720,17.498070617270052
619,0.0
633,0.0
659,0.0
661,0.0
690,0.0
716,0.0
843,-2343.6358117576583
844,-2343.6358117576583
907,0.0
908,0.0
971,0.0
972,0.0
1195,0.0
1197,0.0
2,2, 2,18, 0, 2, 0.00,60.00,Tuesday
7,12.2
718,20.350753665694093
719,12.93711673639184
720,17.44801840165987
619,0.0
633,0.0
659,0.0
661,0.0
690,0.0
716,0.0
843,-1627.2641992588651
844,-1627.2641992588651
907,0.0
908,0.0
971,0.0
972,0.0
1195,0.0
1197,0.0
2,2, 2,18, 0, 3, 0.00,60.00,Tuesday
7,12.2
718,19.809973817679065
719,12.875895878608615
720,17.39123253407762
619,0.0
633,0.0
659,0.0
661,0.0
690,0.0
716,0.0
843,-1134.3944006228194
844,-1134.3944006228194
907,0.0
908,0.0
971,0.0
972,0.0
1195,0.0
1197,0.0
2,2, 2,18, 0, 4, 0.00,60.00,Tuesday
7,12.8
718,19.495990321556228
719,13.171237258622854
720,17.330375730393314
619,0.0
633,0.0
659,0.0
661,0.0
690,0.0
716,0.0
843,-806.4325305178209
844,-806.4325305178209
907,0.0
908,0.0
971,0.0
972,0.0
1195,0.0
1197,0.0
2,2, 2,18, 0, 5, 0.00,60.00,Tuesday
7,11.7
718,18.796946870129037
719,12.4497191569691
720,17.26447872111959
619,0.0
633,0.0
659,0.0
661,0.0
690,0.0
716,0.0
843,-164.70030634195246
844,-164.70030634195246
907,0.0
908,0.0
971,0.0
972,0.0
1195,0.0
1197,0.0
2,2, 2,18, 0, 6, 0.00,60.00,Tuesday
7,10.0
718,19.63790989727586
719,11.253906747506365
720,17.200798723909017
619,1264.8262785565105
633,328.43571818289206
659,0.0
661,0.0
690,26.363660286599345
716,0.0
843,1055.96895714309
844,1055.96895714309
907,0.0
908,0.0
971,0.0
972,0.0
1195,0.0
1197,0.0
2,2, 2,18, 0, 7, 0.00,60.00,Tuesday
7,10.0
718,19.659070080386744
719,11.251747154306608
720,17.15242869035895
619,2462.774379064083
633,641.5168658051899
659,0.0
661,0.0
690,50.74313864782375
716,85.44000000000004
843,899.4164263127304
844,899.4164263127304
907,0.0
908,0.0
971,0.0
972,0.0
1195,0.0
1197,0.0
2,2, 2,18, 0, 8, 0.00,60.00,Tuesday
7,6.1
718,20.08390567183224
719,8.203720408101324
720,17.076014004192032
619,2427.174425672195
633,664.7467963579804
659,0.0
661,140.17623780416503
690,54.936313200585
716,85.44000000000004
843,829.8299430331317
844,829.8299430331317
907,0.0
908,0.0
971,0.0
972,0.0
1195,0.0
1197,0.0
2,2, 2,18, 0, 9, 0.00,60.00,Tuesday
7,6.0
718,19.24534099208844
719,7.946458521360026
720,17.008600747379184
619,1384.584858440387
633,389.04056738099956
659,0.0
661,165.23385570420618
690,31.92583885911864
716,54.57680206027861
843,350.6689838388593
844,350.6689838388593
907,0.0
908,0.0
971,0.0
972,0.0
1195,0.0
1197,0.0
2,2, 2,18, 0,10, 0.00,60.00,Tuesday
7,7.0
718,19.287192657994645
719,9.046366758647325
720,16.94211153788679
619,666.001188831413
633,182.7222341290151
659,0.0
661,183.58562258938161
690,15.073364584969546
716,0.0
843,537.101668660207
844,537.101668660207
907,0.0
908,0.0
971,0.0
972,0.0
1195,0.0
1197,0.0
2,2, 2,18, 0,11, 0.00,60.00,Tuesday
7,8.0
718,19.60265810237568
719,10.439486638778822
720,16.89723837003354
619,525.5081274033473
633,142.6377297159529
659,0.0
661,187.3377877491584
690,11.627741761666558
716,0.0
843,415.3909282692548
844,415.3909282692548
907,0.0
908,0.0
971,0.0
972,0.0
1195,0.0
1197,0.0
2,2, 2,18, 0,12, 0.00,60.00,Tuesday
7,8.3
718,19.986945771500427
719,11.494981615250339
720,16.870083023572665
619,472.567459295648
633,128.76457837842523
659,0.0
661,188.67400855591148
690,10.400686791358495
716,0.0
843,386.92771065623674
844,386.92771065623674
907,0.0
908,0.0
971,0.0
972,0.0
1195,0.0
1197,0.0
2,2, 2,18, 0,13, 0.00,60.00,Tuesday
7,8.3
718,19.91709550313937
719,12.128341257211643
720,16.84665589268836
619,0.0
633,0.0
659,0.0
661,200.0
690,0.0
716,0.0
843,-188.17449681704602
844,-188.17449681704602
907,0.0
908,0.0
971,0.0
972,0.0
1195,0.0
1197,0.0
2,2, 2,18, 0,14, 0.00,60.00,Tuesday
7,11.1
718,21.278951106588742
719,15.389416393695212
720,16.849443246681535
619,0.0
633,0.0
659,0.0
661,0.0
690,0.0
716,0.0
843,-1579.539105617936
844,-1579.539105617936
907,0.0
908,0.0
971,0.0
972,0.0
1195,0.0
1197,0.0
2,2, 2,18, 0,15, 0.00,60.00,Tuesday
7,11.1
718,21.929976541626193
719,15.641678259039956
720,16.85870964023735
619,0.0
633,0.0
659,0.0
661,0.0
690,0.0
716,0.0
843,-1897.2703966075696
844,-1897.2703966075696
907,0.0
908,0.0
971,0.0
972,0.0
1195,0.0
1197,0.0
2,2, 2,18, 0,16, 0.00,60.00,Tuesday
7,10.6
718,22.496573384461268
719,15.312056078310643
720,16.890974556321694
619,0.0
633,0.0
659,0.0
661,0.0
690,0.0
716,0.0
843,-2600.4286649624482
844,-2600.4286649624482
907,0.0
908,0.0
971,0.0
972,0.0
1195,0.0
1197,0.0
2,2, 2,18, 0,17, 0.00,60.00,Tuesday
7,10.0
718,23.318709690180405
719,14.74796874584895
720,16.947570997315314
619,0.0
633,0.0
659,0.0
661,0.0
690,3.6778340186004908
716,0.0
843,-3611.3933073335484
844,-3611.3933073335484
907,0.0
908,0.0
971,0.0
972,0.0
1195,0.0
1197,0.0
2,2, 2,18, 0,18, 0.00,60.00,Tuesday
7,8.3
718,22.795273667558394
719,12.453088703173421
720,16.999081007297157
619,0.0
633,0.0
659,0.0
661,200.0
690,0.0
716,66.35260391747477
843,-3764.8897785559857
844,-3764.8897785559857
907,0.0
908,0.0
971,0.0
972,0.0
1195,0.0
1197,0.0
2,2, 2,18, 0,19, 0.00,60.00,Tuesday
7,8.3
718,22.830985905685946
719,10.714011020330618
720,17.052566346506914
619,0.0
633,0.0
659,0.0
661,200.0
690,0.0
716,0.0
843,-3263.691028300658
844,-3263.691028300658
907,0.0
908,0.0
971,0.0
972,0.0
1195,0.0
1197,0.0
2,2, 2,18, 0,20, 0.00,60.00,Tuesday
7,5.0
718,21.591880563588575
719,8.111570327791584
720,17.079378729664334
619,0.0
633,0.0
659,0.0
661,200.0
690,0.0
716,85.44000000000004
843,-2533.3222685957626
844,-2533.3222685957626
907,0.0
908,0.0
971,0.0
972,0.0
1195,0.0
1197,0.0
2,2, 2,18, 0,21, 0.00,60.00,Tuesday
7,3.3
718,21.107353464760525
719,5.915992884923017
720,17.077747764497563
619,0.0
633,0.0
659,0.0
661,200.0
690,0.0
716,85.44000000000004
843,-2375.9582761907386
844,-2375.9582761907386
907,0.0
908,0.0
971,0.0
972,0.0
1195,0.0
1197,0.0
2,2, 2,18, 0,22, 0.00,60.00,Tuesday
7,1.1
718,20.957184056745888
719,3.6572723714821973
720,17.04754667254539
619,0.0
633,0.0
659,0.0
661,200.0
690,0.0
716,32.47806316829027
843,-1525.1414395560132
844,-1525.1414395560132
907,0.0
908,0.0
971,0.0
972,0.0
1195,0.0
1197,0.0
2,2, 2,18, 0,23, 0.00,60.00,Tuesday
7,-2.2
718,20.25670043259379
719,1.0891618905490017
720,16.991461211636377
619,0.0
633,0.0
659,0.0
661,200.0
690,0.0
716,0.0
843,-1403.389172371788
844,-1403.389172371788
907,0.0
908,0.0
971,0.0
972,0.0
1195,0.0
1197,0.0
2,2, 2,18, 0,24, 0.00,60.00,Tuesday
7,0.6
718,19.541527857719345
719,0.6554239060651111
720,16.918275889161713
619,0.0
633,0.0
659,0.0
661,200.0
690,0.0
716,0.0
843,-776.5474553639124
844,-776.5474553639124
907,0.0
908,0.0
971,0.0
972,0.0
1195,0.0
1197,0.0
2,3, 2,19, 0, 1, 0.00,60.00,Wednesday
7,0.6
718,18.70118077946977
719,0.4597279320034053
720,16.832539176642886
619,0.0
633,0.0
659,0.0
661,200.0
690,0.0
716,0.0
843,-72.20332059870816
844,-72.20332059870816
907,0.0
908,0.0
971,0.0
972,0.0
1195,0.0
1197,0.0
2,3, 2,19, 0, 2, 0.00,60.00,Wednesday
7,-3.9
718,18.55830378041428
719,-0.7380058943916535
720,16.705539592696724
619,1147.613644143026
633,405.71813836300163
659,12.188674026751892
661,155.520542865292
690,40.56151274216952
716,0.0
843,830.6142103294769
844,830.6142103294769
907,0.0
908,0.0
971,0.0
972,0.0
1195,0.0
1197,0.0
2,3, 2,19, 0, 3, 0.00,60.00,Wednesday
7,-6.7
718,18.15227743224531
719,-2.9613721954937264
720,16.56269204942688
619,1870.524886393916
633,686.6319851104546
659,21.765479814148087
661,122.61357328686115
690,70.37727891685164
716,0.0
843,1352.3119238138288
844,1352.3119238138288
907,0.0
908,0.0
971,0.0
972,0.0
1195,0.0
1197,0.0
2,3, 2,19, 0, 4, 0.00,60.00,Wednesday
7,-3.3
718,18.720694311928078
719,-2.114371841024978
720,16.45249110854191
619,2674.6498430973943
633,891.7290092095817
659,20.59984303760731
661,102.53580233577841
690,89.05962283221322
716,0.0
843,1931.9625644599546
844,1931.9625644599546
907,0.0
908,0.0
971,0.0
972,0.0
1195,0.0
1197,0.0
2,3, 2,19, 0, 5, 0.00,60.00,Wednesday
7,-3.9
718,18.61374232590092
719,-3.0619752535351727
720,16.342919718336532
619,2855.627229601643
633,973.8507545188203
659,29.21618148234534
661,93.22173911576374
690,97.37386584310407
716,0.0
843,2046.6321629932154
844,2046.6321629932154
907,0.0
908,0.0
971,0.0
972,0.0
1195,0.0
1197,0.0
2,3, 2,19, 0, 6, 0.00,60.00,Wednesday
7,-3.3
718,19.10334353467272
719,-1.3748301654742696
720,16.178424289345823
619,5572.810997909087
633,1775.1315436450848
659,48.676500880303244
661,6.485633669797797
690,176.65271440756126
716,70.6572761423518
843,3197.311699775879
844,3197.311699775879
907,0.0
908,0.0
971,0.0
972,0.0
1195,0.0
1197,0.0
2,3, 2,19, 0, 7, 0.00,60.00,Wednesday
7,-3.3
718,19.437931117628807
719,-0.8415299600675556
720,16.095043876332053
619,5802.234868796755
633,1852.1380555228777
659,50.307893727377696
661,0.0
690,183.6605094168075
716,85.44000000000004
843,3456.9617580076265
844,3456.9617580076265
907,0.0
908,0.0
971,0.0
972,0.0
1195,375.56820071699894
1197,375.56820071699894
2,3, 2,19, 0, 8, 0.00,60.00,Wednesday
7,-2.8
718,19.612207935572613
719,-0.13195806506405044
720,15.995626368660956
619,5557.438258669123
633,1790.5485961601219
659,42.53849148055845
661,9.524317344182286
690,174.04990987738194
716,59.34579369726599
843,3280.1413257543827
844,3280.1413257543827
907,0.0
908,0.0
971,0.0
972,0.0
1195,0.0
1197,0.0
2,3, 2,19, 0, 9, 0.00,60.00,Wednesday
7,-1.1
718,19.740467345633057
719,1.7020139795682223
720,15.900779808725648
619,4306.448011617129
633,1384.2519255071581
659,12.7519320080956
661,58.174969466608076
690,130.03616568864132
716,0.0
843,3132.1966065863708
844,3132.1966065863708
907,0.0
908,0.0
971,0.0
972,0.0
1195,0.0
1197,0.0
2,3, 2,19, 0,10, 0.00,60.00,Wednesday
7,1.7
718,20.051167583841604
719,5.588347766350301
720,15.813542880861048
619,1992.339075834314
633,638.3590131486021
659,0.030321271069685105
661,137.18313836780283
690,57.68459157112609
716,0.0
843,1491.3856406560953
844,1491.3856406560953
907,0.0
908,0.0
971,0.0
972,0.0
1195,0.0
1197,0.0
2,3, 2,19, 0,11, 0.00,60.00,Wednesday
7,2.8
718,19.973614154913964
719,10.04417106366507
720,15.730136946768775
619,306.8277020432524
633,100.14831337947864
659,0.004679875299277989
661,190.3046584539592
690,8.903221673036496
716,0.0
843,234.89505946302415
844,234.89505946302415
907,0.0
908,0.0
971,0.0
972,0.0
1195,0.0
1197,0.0
2,3, 2,19, 0,12, 0.00,60.00,Wednesday
7,4.4
718,20.377233342753797
719,14.52656910146967
720,15.693682515154704
619,0.0
633,0.0
659,0.0
661,200.0
690,0.0
716,0.0
843,-404.3073327985967
844,-404.3073327985967
907,0.0
908,0.0
971,0.0
972,0.0
1195,0.0
1197,0.0
2,3, 2,19, 0,13, 0.00,60.00,Wednesday
7,5.6
718,20.956769367768946
719,19.09659455885109
720,15.691414706662375
619,0.0
633,0.0
659,0.0
661,200.0
690,0.0
716,0.0
843,-950.8095977450357
844,-950.8095977450357
907,0.0
908,0.0
971,0.0
972,0.0
1195,0.0
1197,0.0
2,3, 2,19, 0,14, 0.00,60.00,Wednesday
7,6.1
718,21.643381582563233
719,20.63022775216479
720,15.712670348187809
619,0.0
633,0.0
659,0.0
661,200.0
690,0.0
716,0.0
843,-1402.941955998258
844,-1402.941955998258
907,0.0
908,0.0
971,0.0
972,0.0
1195,0.0
1197,0.0
2,3, 2,19, 0,15, 0.00,60.00,Wednesday
7,7.2
718,21.730612816695828
719,25.543173727411787
720,15.757275624492786
619,0.0
633,0.0
659,0.0
661,200.0
690,0.0
716,66.36158207347148
843,-2338.6278134903587
844,-2338.6278134903587
907,0.0
908,0.0
971,0.0
972,0.0
1195,0.0
1197,0.0
2,3, 2,19, 0,16, 0.00,60.00,Wednesday
7,7.8
718,22.23039693141585
719,24.454682118809153
720,15.814430430619037
619,0.0
633,0.0
659,0.0
661,200.0
690,0.0
716,74.02717624306476
843,-3242.483227024766
844,-3242.483227024766
907,0.0
908,0.0
971,0.0
972,0.0
1195,0.0
1197,0.0
2,3, 2,19, 0,17, 0.00,60.00,Wednesday
7,7.2
718,23.30723930000683
719,20.534419982667945
720,15.9199955195247
619,0.0
633,0.0
659,0.0
661,193.70484136405636
690,5.780860209685107
716,0.0
843,-3555.3562157977904
844,-3555.3562157977904
907,0.0
908,0.0
971,0.0
972,0.0
1195,0.0
1197,0.0
2,3, 2,19, 0,18, 0.00,60.00,Wednesday
7,5.6
718,23.19951706302555
719,15.661427941794487
720,16.0303547191177
619,0.0
633,0.0
659,0.0
661,184.98098668179438
690,13.791998184797295
716,0.0
843,-3385.007959101209
844,-3385.007959101209
907,0.0
908,0.0
971,0.0
972,0.0
1195,0.0
1197,0.0
2,3, 2,19, 0,19, 0.00,60.00,Wednesday
7,5.6
718,23.392004216033627
719,11.659237636250177
720,16.09414327063818
619,0.0
633,0.0
659,0.0
661,197.40100818276127
690,2.386660805620904
716,0.0
843,-3414.1531476315413
844,-3414.1531476315413
907,0.0
908,0.0
971,0.0
972,0.0
1195,0.0
1197,0.0
2,3, 2,19, 0,20, 0.00,60.00,Wednesday
7,2.8
718,21.961118515479875
719,7.870471594107325
720,16.15159557929014
619,0.0
633,0.0
659,0.0
661,200.0
690,0.0
716,85.44000000000004
843,-2659.5945953796054
844,-2659.5945953796054
907,0.0
908,0.0
971,0.0
972,0.0
1195,0.0
1197,0.0
2,3, 2,19, 0,21, 0.00,60.00,Wednesday
7,2.8
718,21.406880586435644
719,5.668261392511375
720,16.17715538953608
619,0.0
633,0.0
659,0.0
661,200.0
690,0.0
716,79.70924894020206
843,-2550.208327541819
844,-2550.208327541819
907,0.0
908,0.0
971,0.0
972,0.0
1195,0.0
1197,0.0
2,3, 2,19, 0,22, 0.00,60.00,Wednesday
7,1.7
718,21.48846924320182
719,4.03321769807225
720,16.171865946128065
619,0.0
633,0.0
659,0.0
661,200.0
690,0.0
716,0.0
843,-1668.8572847233045
844,-1668.8572847233045
907,0.0
908,0.0
971,0.0
972,0.0
1195,0.0
1197,0.0
2,3, 2,19, 0,23, 0.00,60.00,Wednesday
7,1.1
718,20.60224358217388
719,2.922166711934241
720,16.140015068781757
619,0.0
633,0.0
659,0.0
661,200.0
690,0.0
716,0.0
843,-1611.336517989348
844,-1611.336517989348
907,0.0
908,0.0
971,0.0
972,0.0
1195,0.0
1197,0.0
2,3, 2,19, 0,24, 0.00,60.00,Wednesday
7,0.6
718,19.728191121675184
719,1.990565144596136
720,16.08725762794685
619,0.0
633,0.0
659,0.0
661,200.0
690,0.0
716,0.0
843,-946.9175754638472
844,-946.9175754638472
907,0.0
908,0.0
971,0.0
972,0.0
1195,0.0
1197,0.0
2,4, 2,20, 0, 1, 0.00,60.00,Thursday
7,0.6
718,18.838287367894775
719,1.5939428981876365
720,16.020487676061485
619,0.0
633,0.0
659,0.0
661,200.0
690,0.0
716,0.0
843,-189.78695681898353
844,-189.78695681898353
907,0.0
908,0.0
971,0.0
972,0.0
1195,0.0
1197,0.0
2,4, 2,20, 0, 2, 0.00,60.00,Thursday
7,0.0
718,18.618029779809984
719,1.3062347965421184
720,15.938728099511023
619,868.4119088878319
633,286.0547876460131
659,0.014038803422568845
661,170.91567929159766
690,26.708021212756893
716,0.0
843,642.7564498177653
844,642.7564498177653
907,0.0
908,0.0
971,0.0
972,0.0
1195,0.0
1197,0.0
2,4, 2,20, 0, 3, 0.00,60.00,Thursday
7,-0.6
718,18.668257322821002
719,0.8253386067555104
720,15.844094277127805
619,1389.8328263360174
633,455.7587039513344
659,0.022586216390084315
661,153.20792368795887
690,42.96895631792723
716,0.0
843,1055.2237664768563
844,1055.2237664768563
907,0.0
908,0.0
971,0.0
972,0.0
1195,0.0
1197,0.0
2,4, 2,20, 0, 4, 0.00,60.00,Thursday
7,-1.1
718,18.38181071387279
719,0.4741656492045858
720,15.747092181140186
619,1928.599690695954
633,632.4164947130955
659,0.03145080917716711
661,134.84306367756565
690,59.833290047092646
716,0.0
843,1433.935520571902
844,1433.935520571902
907,0.0
908,0.0
971,0.0
972,0.0
1195,0.0
1197,0.0
2,4, 2,20, 0, 5, 0.00,60.00,Thursday
7,-1.7
718,18.642432357114263
719,0.09159745753479454
720,15.639149349035215
619,2527.7754280641434
633,822.5206074576581
659,0.04135638854412875
661,114.32158200711935
690,78.67800745913897
716,0.0
843,1899.0835879713268
844,1899.0835879713268
907,0.0
908,0.0
971,0.0
972,0.0
1195,0.0
1197,0.0
2,4, 2,20, 0, 6, 0.00,60.00,Thursday
7,-1.7
718,19.452886663899907
719,1.1215098174093105
720,15.548730741366121
619,3867.6932808426186
633,1235.3251067797116
659,0.06180886146710396
661,71.9500020464335
690,117.58758876066808
716,0.0
843,2881.9490811373853
844,2881.9490811373853
907,0.0
908,0.0
971,0.0
972,0.0
1195,0.0
1197,0.0
2,4, 2,20, 0, 7, 0.00,60.00,Thursday
7,-1.7
718,19.573851439923892
719,1.366705473833542
720,15.486385697060545
619,5135.943698465819
633,1634.9759641627913
659,0.08052392206139997
661,33.177835500768715
690,153.19184433496497
716,85.44000000000004
843,2790.2316446919285
844,2790.2316446919285
907,0.0
908,0.0
971,0.0
972,0.0
1195,0.0
1197,0.0
2,4, 2,20, 0, 8, 0.00,60.00,Thursday
7,-1.7
718,19.57352631586335
719,0.7996154914933715
720,15.389661866863493
619,5858.112094574064
633,1846.1907944247212
659,0.09072416198023754
661,12.04590280163307
690,172.59717697253126
716,85.44000000000004
843,3301.641673506241
844,3301.641673506241
907,0.0
908,0.0
971,0.0
972,0.0
1195,0.0
1197,0.0
2,4, 2,20, 0, 9, 0.00,60.00,Thursday
7,-3.0
718,19.624761007334655
719,0.18968128015675498
720,15.28523204583675
619,5925.993610454877
633,1900.9914923232857
659,30.03682088160611
661,0.0
690,183.6605094168075
716,80.50776007600311
843,3816.014329876378
844,3816.014329876378
907,0.0
908,0.0
971,0.0
972,0.0
1195,432.6923007841351
1197,432.6923007841351
2,4, 2,20, 0,10, 0.00,60.00,Thursday
7,-4.0
718,19.70681284661134
719,-0.31833184258069974
720,15.185385218249328
619,4890.536516262312
633,1641.2408477597655
659,97.60550596802092
661,15.793986608288924
690,166.77017459682227
716,0.0
843,3476.7654881626095
844,3476.7654881626095
907,0.0
908,0.0
971,0.0
972,0.0
1195,0.0
1197,0.0
2,4, 2,20, 0,11, 0.00,60.00,Thursday
7,-4.0
718,19.737579642277158
719,-0.2959995080116358
720,15.094393937755083
619,4549.07874342945
633,1540.5530508928348
659,91.47416422791528
661,27.36536270521832
690,156.2931118242776
716,0.0
843,3208.14920536924
844,3208.14920536924
907,0.0
908,0.0
971,0.0
972,0.0
1195,0.0
1197,0.0
2,4, 2,20, 0,12, 0.00,60.00,Thursday
7,-2.8
718,19.75111436318864
719,0.5344308119317523
720,15.00962116886254
619,4169.74276617136
633,1392.975951821346
659,88.98155247906833
661,44.54512521622562
690,140.86129896679196
716,0.0
843,2956.19360938341
844,2956.19360938341
907,0.0
908,0.0
971,0.0
972,0.0
1195,0.0
1197,0.0
2,4, 2,20, 0,13, 0.00,60.00,Thursday
7,-2.8
718,19.73440641914397
719,0.7308529928402013
720,14.91954565142654
619,4018.843560933019
633,1347.0821854690842
659,86.03206816961048
661,49.698010294414566
690,136.19204775144516
716,0.0
843,2877.0185236112666
844,2877.0185236112666
907,0.0
908,0.0
971,0.0
972,0.0
1195,0.0
1197,0.0
2,4, 2,20, 0,14, 0.00,60.00,Thursday
7,-1.0
718,19.818532046248393
719,2.774597466564048
720,14.839397307841068
619,3236.837093295923
633,1066.3632962659092
659,82.47194611543709
661,80.59720775118
690,108.2521539029979
716,0.0
843,2327.914590256576
844,2327.914590256576
907,0.0
908,0.0
971,0.0
972,0.0
1195,0.0
1197,0.0
2,4, 2,20, 0,15, 0.00,60.00,Thursday
7,-1.0
718,19.676208434642206
719,1.946112109184018
720,14.760678239826136
619,2961.506010757371
633,983.1042773646665
659,75.91074186709982
661,90.0965119954344
690,99.63942957642729
716,0.0
843,2184.7472651488424
844,2184.7472651488424
907,0.0
908,0.0
971,0.0
972,0.0
1195,0.0
1197,0.0
2,4, 2,20, 0,16, 0.00,60.00,Thursday
7,-0.6
718,19.634902352446666
719,2.465697269624583
720,14.69326336478141
619,2920.3818407013828
633,958.5404554438851
659,60.60602121923568
661,94.81932031751852
690,95.63735781860319
716,0.0
843,2149.3921965405953
844,2149.3921965405953
907,0.0
908,0.0
971,0.0
972,0.0
1195,0.0
1197,0.0
2,4, 2,20, 0,17, 0.00,60.00,Thursday
7,-0.6
718,19.757770326329027
719,3.259313610794836
720,14.653166326467703
619,3404.957088347615
633,1106.265037626594
659,80.17382779615137
661,77.04002287346113
690,111.64435357638487
716,77.83015701679835
843,1641.0757975754514
844,1641.0757975754514
907,0.0
908,0.0
971,0.0
972,0.0
1195,0.0
1197,0.0
2,4, 2,20, 0,18, 0.00,60.00,Thursday
7,-1.0
718,19.85735908715953
719,2.2567836970589865
720,14.572846050698017
619,1292.3659617156734
633,443.5170372710015
659,34.28501394398608
661,150.36219478231274
690,45.00222115710769
716,0.0
843,952.6258484814716
844,952.6258484814716
907,0.0
908,0.0
971,0.0
972,0.0
1195,0.0
1197,0.0
2,4, 2,20, 0,19, 0.00,60.00,Thursday
7,-0.6
718,19.66529114387038
719,2.235123768779198
720,14.595329852370073
619,3026.0330341806484
633,996.3373543903866
659,77.40400490434776
661,88.94775868446362
690,100.74425582434942
716,85.44000000000004
843,1119.219613926156
844,1119.219613926156
907,0.0
908,0.0
971,0.0
972,0.0
1195,0.0
1197,0.0
2,4, 2,20, 0,20, 0.00,60.00,Thursday
7,-1.0
718,19.643778241064954
719,1.4384894871243912
720,14.556049650314224
619,3248.6088967687074
633,1066.8196582524795
659,69.26483832334881
661,82.26238118945284
690,106.96343054951035
716,80.67465019527428
843,1408.55119838483
844,1408.55119838483
907,0.0
908,0.0
971,0.0
972,0.0
1195,0.0
1197,0.0
2,4, 2,20, 0,21, 0.00,60.00,Thursday
7,-1.0
718,19.90173866933345
719,1.1415597844104153
720,14.497146246192662
619,1910.8877929976977
633,643.636922193321
659,33.73130803289065
661,130.10379141755442
690,63.63128029305364
716,0.0
843,1395.9931504181222
844,1395.9931504181222
907,0.0
908,0.0
971,0.0
972,0.0
1195,0.0
1197,0.0
2,4, 2,20, 0,22, 0.00,60.00,Thursday
7,-2.0
718,19.367837239566107
719,-0.05672486100946077
720,14.460284915320223
619,2336.546553232316
633,799.8301266189004
659,38.01117294508394
661,113.40759332525636
690,78.80151388067257
716,0.0
843,1693.4200198859435
844,1693.4200198859435
907,0.0
908,0.0
971,0.0
972,0.0
1195,0.0
1197,0.0
2,4, 2,20, 0,23, 0.00,60.00,Thursday
7,-3.3
718,18.767091179303414
719,-1.3077072967513157
720,14.382037750162768
619,2243.2161400908813
633,779.5004820522582
659,43.51147633450339
661,112.95512106135943
690,78.95969879976958
716,0.0
843,1603.5308018337291
844,1603.5308018337291