Program Version,EnergyPlus, Version 22.2.0-c249759bad, YMD=2023.09.01 20:30
1,5,Environment Title[],Latitude[deg],Longitude[deg],Time Zone[],Elevation[m]
2,8,Day of Simulation[],Month[],Day of Month[],DST Indicator[1=yes 0=no],Hour[],StartMinute[],EndMinute[],DayType
3,5,Cumulative Day of Simulation[],Month[],Day of Month[],DST Indicator[1=yes 0=no],DayType  ! When Daily Report Variables Requested
4,2,Cumulative Days of Simulation[],Month[]  ! When Monthly Report Variables Requested
5,1,Cumulative Days of Simulation[] ! When Run Period Report Variables Requested
6,1,Calendar Year of Simulation[] ! When Annual Report Variables Requested
581,11,LIVING,AFN Zone Infiltration Air Change Rate [ach] !RunPeriod [Value,Min,Month,Day,Hour,Minute,Max,Month,Day,Hour,Minute]
582,11,ATTIC,AFN Zone Infiltration Air Change Rate [ach] !RunPeriod [Value,Min,Month,Day,Hour,Minute,Max,Month,Day,Hour,Minute]
583,11,CRAWLSPACE,AFN Zone Infiltration Air Change Rate [ach] !RunPeriod [Value,Min,Month,Day,Hour,Minute,Max,Month,Day,Hour,Minute]
1038,11,Facility,Facility Heating Setpoint Not Met Time [hr] !RunPeriod [Value,Min,Month,Day,Hour,Minute,Max,Month,Day,Hour,Minute]
1039,11,Facility,Facility Cooling Setpoint Not Met Time [hr] !RunPeriod [Value,Min,Month,Day,Hour,Minute,Max,Month,Day,Hour,Minute]
1115,11,DX_HEATING_COIL,Heating Coil Heating Energy [J] !RunPeriod [Value,Min,Month,Day,Hour,Minute,Max,Month,Day,Hour,Minute]
1128,11,DX_HEATING_COIL,Heating Coil Electricity Energy [J] !RunPeriod [Value,Min,Month,Day,Hour,Minute,Max,Month,Day,Hour,Minute]
1153,11,DX_HEATING_COIL,Heating Coil Defrost Electricity Energy [J] !RunPeriod [Value,Min,Month,Day,Hour,Minute,Max,Month,Day,Hour,Minute]
1154,11,DX_HEATING_COIL,Heating Coil Crankcase Heater Electricity Energy [J] !RunPeriod [Value,Min,Month,Day,Hour,Minute,Max,Month,Day,Hour,Minute]
1155,11,HEATING_RESISTANCE_BACKUP,Heating Coil Heating Energy [J] !RunPeriod [Value,Min,Month,Day,Hour,Minute,Max,Month,Day,Hour,Minute]
1156,11,HEATING_RESISTANCE_BACKUP,Heating Coil Electricity Energy [J] !RunPeriod [Value,Min,Month,Day,Hour,Minute,Max,Month,Day,Hour,Minute]
1292,11,WATER HEATER,Water Heater Heat Loss Energy [J] !RunPeriod [Value,Min,Month,Day,Hour,Minute,Max,Month,Day,Hour,Minute]
1306,11,WATER HEATER,Water Heater Heating Energy [J] !RunPeriod [Value,Min,Month,Day,Hour,Minute,Max,Month,Day,Hour,Minute]
1307,11,WATER HEATER,Water Heater Unmet Demand Heat Transfer Energy [J] !RunPeriod [Value,Min,Month,Day,Hour,Minute,Max,Month,Day,Hour,Minute]
1308,11,WATER HEATER,Water Heater Electricity Energy [J] !RunPeriod [Value,Min,Month,Day,Hour,Minute,Max,Month,Day,Hour,Minute]
13,11,Electricity:Facility [J] !RunPeriod [Value,Min,Month,Day,Hour,Minute,Max,Month,Day,Hour,Minute]
1134,11,Heating:Electricity [J] !RunPeriod [Value,Min,Month,Day,Hour,Minute,Max,Month,Day,Hour,Minute]
1096,11,Cooling:Electricity [J] !RunPeriod [Value,Min,Month,Day,Hour,Minute,Max,Month,Day,Hour,Minute]
562,11,Fans:Electricity [J] !RunPeriod [Value,Min,Month,Day,Hour,Minute,Max,Month,Day,Hour,Minute]
1379,11,Pumps:Electricity [J] !RunPeriod [Value,Min,Month,Day,Hour,Minute,Max,Month,Day,Hour,Minute]
1326,11,WaterSystems:Electricity [J] !RunPeriod [Value,Min,Month,Day,Hour,Minute,Max,Month,Day,Hour,Minute]
61,11,InteriorLights:Electricity [J] !RunPeriod [Value,Min,Month,Day,Hour,Minute,Max,Month,Day,Hour,Minute]
1046,11,ExteriorLights:Electricity [J] !RunPeriod [Value,Min,Month,Day,Hour,Minute,Max,Month,Day,Hour,Minute]
134,11,InteriorEquipment:Electricity [J] !RunPeriod [Value,Min,Month,Day,Hour,Minute,Max,Month,Day,Hour,Minute]
170,11,gas_dryer:InteriorEquipment:Electricity [J] !RunPeriod [Value,Min,Month,Day,Hour,Minute,Max,Month,Day,Hour,Minute]
207,11,clotheswasher:InteriorEquipment:Electricity [J] !RunPeriod [Value,Min,Month,Day,Hour,Minute,Max,Month,Day,Hour,Minute]
244,11,dishwasher:InteriorEquipment:Electricity [J] !RunPeriod [Value,Min,Month,Day,Hour,Minute,Max,Month,Day,Hour,Minute]
281,11,refrigerator:InteriorEquipment:Electricity [J] !RunPeriod [Value,Min,Month,Day,Hour,Minute,Max,Month,Day,Hour,Minute]
318,11,electric_mels:InteriorEquipment:Electricity [J] !RunPeriod [Value,Min,Month,Day,Hour,Minute,Max,Month,Day,Hour,Minute]
355,11,NaturalGas:Facility [J] !RunPeriod [Value,Min,Month,Day,Hour,Minute,Max,Month,Day,Hour,Minute]
403,11,InteriorEquipment:NaturalGas [J] !RunPeriod [Value,Min,Month,Day,Hour,Minute,Max,Month,Day,Hour,Minute]
476,11,gas_dryer:InteriorEquipment:NaturalGas [J] !RunPeriod [Value,Min,Month,Day,Hour,Minute,Max,Month,Day,Hour,Minute]
513,11,gas_mels:InteriorEquipment:NaturalGas [J] !RunPeriod [Value,Min,Month,Day,Hour,Minute,Max,Month,Day,Hour,Minute]
End of Data Dictionary
1,EXTREME_WINTER,  43.58, -96.73,  -6.00, 435.30
5,7
1038,13.25,0.0, 1,27, 1,15,0.25, 1,28, 6,15
1039,0.0,0.0, 1,27, 1,15,0.0, 1,27, 1,15
581,0.6290805405332828,0.31088113735511846, 1,28,23, 5,1.1479144117232967, 2, 1,20,60
582,7.6727311079457,0.09054099160997389, 1,28,21,60,22.514545041409203, 1,29,11,52
583,0.08563649340239635,0.0009501516186429952, 1,28,23, 5,0.10060889018039532, 1,27,14,60
1115,2422883823.037625,0.0, 1,28,23, 5,4625710.569748607, 1,29, 9,60
1128,987004160.4664661,0.0, 1,28,23, 5,1595460.3919016845, 1,27, 6,45
1153,7173583.977045844,0.0, 1,28,23, 5,69664.91762783883, 1,29, 5,60
1154,903861.9922973891,0.0, 1,27, 1, 7,62106.00460467831, 1,31,14,15
1155,2502159065.294839,0.0, 1,27,23, 5,7750069.126499925, 1,30, 6,60
1156,2502159065.294839,0.0, 1,27,23, 5,7750069.126499925, 1,30, 6,60
1292,-25443614.90071958,-40326.107002323246, 2, 2, 5,15,-6199.849844607235, 1,28,11,32
1306,204344244.88848898,0.0, 1,27, 1, 7,4050000.0, 1,27, 8,45
1307,47338752.02266074,0.0, 1,27, 1, 7,11267127.307529142, 2, 1,10,30
1308,204344244.88848898,0.0, 1,27, 1, 7,4050000.0, 1,27, 8,45
13,4172848349.469829,1500537.1920207497, 1,31,14,15,14430281.307024848, 2, 1,19,30
61,301924526.02383536,88139.10953165221, 1,27, 1,15,1282023.4113694867, 1,27,20,15
134,70666020.44019976,63564.01800854099, 1,27, 4,15,156554.22484006523, 2, 1,20,15
170,5241013.419656067,348.4159749238097, 1,27, 4,15,17476.39704006126, 2, 1,12,15
207,6509451.13922267,815.2532113832032, 1,27, 3,15,22990.642799023623, 2, 1,10,15
244,12749673.399825225,1521.856143006317, 1,27, 4,15,53038.631142310165, 2, 1,20,15
281,46165882.481495745,59938.60262432081, 1,27, 5,15,81951.81706819107, 1,27,19,15
318,0.0,0.0, 1,27, 1,15,0.0, 1,27, 1,15
355,197687796.27748066,18561.32405820678, 1,27, 4,15,724774.895203776, 2, 1,18,15
403,197687796.27748066,18561.32405820678, 1,27, 4,15,724774.895203776, 2, 1,18,15
476,106772067.24485716,7098.072629279515, 1,27, 4,15,356036.3026282215, 2, 1,12,15
513,0.0,0.0, 1,27, 1,15,0.0, 1,27, 1,15
562,98672886.38665295,96344.27312574447, 1,31,14,15,147961.70126707375, 1,27, 1,60
1046,0.0,0.0, 1,27, 1,15,0.0, 1,27, 1,15
1096,0.0,0.0, 1,27, 1,15,0.0, 1,27, 1,15
1134,3497240671.7306495,1124626.4672899775, 1,31,14,15,9220416.141318187, 2, 1, 6,15
1326,204344244.88848892,0.0, 1,27, 1,15,4050000.0, 1,27, 8,45
1379,0.0,0.0, 1,27, 1,15,0.0, 1,27, 1,15
1,EXTREME_SUMMER,  43.58, -96.73,  -6.00, 435.30
5,7
1038,0.0,0.0, 7,27, 1,15,0.0, 7,27, 1,15
1039,6.5,0.0, 7,27, 1,15,0.25, 8, 1,15,15
581,0.20740913065169675,0.0, 7,30,23, 3,0.584861473009915, 7,29,24,60
582,4.354780832491033,0.0, 7,27, 2,25,14.04425535546806, 7,29,23,48
583,0.033852095088098076,0.0, 7,30,23, 7,0.08136275774966913, 8, 1,19,52
1115,0.0,0.0, 7,27, 1, 7,0.0, 7,27, 1, 7
1128,0.0,0.0, 7,27, 1, 7,0.0, 7,27, 1, 7
1153,0.0,0.0, 7,27, 1, 7,0.0, 7,27, 1, 7
1154,0.0,0.0, 7,27, 1, 7,0.0, 7,27, 1, 7
1155,0.0,0.0, 7,27, 1, 7,0.0, 7,27, 1, 7
1156,0.0,0.0, 7,27, 1, 7,0.0, 7,27, 1, 7
1292,-22058842.512350608,-34340.07535134699, 7,31,16,45,-3214.9824289299168, 7,30, 9,10
1306,153249382.47757104,0.0, 7,27, 1, 7,3912810.2257016767, 7,28, 7,15
1307,24420965.8743604,0.0, 7,27, 1, 7,2366876.4695693017, 8, 1,10,20
1308,153249382.47757104,0.0, 7,27, 1, 7,3912810.2257016767, 7,28, 7,15
13,1038785777.0479358,151703.1275401932, 7,27, 4,15,6970751.024016817, 8, 1,19,30
61,301924526.02383536,88139.10953165221, 7,27, 1,15,1282023.4113694867, 7,27,20,15
134,70666020.44019976,63564.01800854099, 7,27, 4,15,156554.22484006523, 8, 1,20,15
170,5241013.419656067,348.4159749238097, 7,27, 4,15,17476.39704006126, 8, 1,12,15
207,6509451.13922267,815.2532113832032, 7,27, 3,15,22990.642799023623, 8, 1,10,15
244,12749673.399825225,1521.856143006317, 7,27, 4,15,53038.631142310165, 8, 1,20,15
281,46165882.481495745,59938.60262432081, 7,27, 5,15,81951.81706819107, 7,27,19,15
318,0.0,0.0, 7,27, 1,15,0.0, 7,27, 1,15
355,197687796.27748066,18561.32405820678, 7,27, 4,15,724774.895203776, 8, 1,18,15
403,197687796.27748066,18561.32405820678, 7,27, 4,15,724774.895203776, 8, 1,18,15
476,106772067.24485716,7098.072629279515, 7,27, 4,15,356036.3026282215, 8, 1,12,15
513,0.0,0.0, 7,27, 1,15,0.0, 7,27, 1,15
562,42724669.60503088,0.0, 7,27, 4,15,147961.70126707372, 8, 1,14,30
1046,0.0,0.0, 7,27, 1,15,0.0, 7,27, 1,15
1096,470221178.5012988,0.0, 7,27, 4,15,1940943.4713196373, 8, 1,16,60
1134,0.0,0.0, 7,27, 1,15,0.0, 7,27, 1,15
1326,153249382.47757113,0.0, 7,27, 1,15,4050000.0, 7,27, 8,45
1379,0.0,0.0, 7,27, 1,15,0.0, 7,27, 1,15
1,ANNUAL,  43.58, -96.73,  -6.00, 435.30
5,365
1038,41.0,0.0, 1, 1, 1,15,0.25, 1, 4, 6,15
1039,24.5,0.0, 1, 1, 1,15,0.25, 4, 8,15,45
581,0.33617307881284875,0.0, 7, 1, 6,15,1.3233876649730936,10,27,13,15
582,5.000028427924621,0.0, 1, 1, 7,30,30.710432025326188, 4,26,16,60
583,0.033917682441885165,0.0, 7,20,23, 3,0.10256029347416153,12,10,17,60
1115,42689369541.78406,0.0, 1, 1,23, 5,5395582.899319509, 2,15, 7,45
1128,14886630236.563492,0.0, 1, 1,23, 5,1666793.3555638625, 4,13,22,15
1153,463380606.2568962,0.0, 1, 1,23, 5,138543.5285414578, 3, 9, 6,45
1154,1475791921.7606258,0.0, 1, 1, 1,52,180000.0, 1, 2,15,15
1155,14297187147.517603,0.0, 1, 1, 1,15,7750069.126499925, 1,12, 6,45
1156,14297187147.517603,0.0, 1, 1, 1,15,7750069.126499925, 1,12, 6,45
1292,-1244327309.2735507,-41483.96069541989, 2, 8, 6,30,-2487.042712847312, 8,17,10,30
1306,9357264246.715504,0.0, 1, 1, 1,15,4050000.0, 1, 1, 9,45
1307,1832020143.4774268,0.0, 1, 1, 1,15,11330581.82530195, 2,11,10,30
1308,9357264246.715504,0.0, 1, 1, 1,15,4050000.0, 1, 1, 9,45
13,68721855152.65471,151703.1275401932, 4,12, 4,15,13835884.318065403, 1,16, 8,45
61,15743207428.383959,88139.10953165221, 1, 1, 1,15,1282023.4113694867, 1, 1,20,15
134,3685071073.4325233,63564.01800854099, 1, 2, 4,15,156554.22484006523, 1, 1,20,15
170,273393721.45532674,348.4159749238097, 1, 2, 4,15,17476.39704006126, 1, 1,12,15
207,339560869.0695816,815.2532113832032, 1, 2, 3,15,22990.642799023623, 1, 1,10,15
244,664895467.8009144,1521.856143006317, 1, 2, 4,15,53038.631142310165, 1, 1,20,15
281,2407221015.106824,59938.60262432081, 1, 1, 5,15,81951.81706819107, 1, 1,19,15
318,0.0,0.0, 1, 1, 1,15,0.0, 1, 1, 1,15
355,10310294493.051695,18561.32405820678, 1, 2, 4,15,724774.895203776, 1, 1,18,15
403,10310294493.051695,18561.32405820678, 1, 2, 4,15,724774.895203776, 1, 1,18,15
476,5569688622.066177,7098.072629279515, 1, 2, 4,15,356036.3026282215, 1, 1,12,15
513,0.0,0.0, 1, 1, 1,15,0.0, 1, 1, 1,15
562,2090533471.1465404,0.0, 1, 2,14,60,147961.70126707377, 7,16,17,30
1046,0.0,0.0, 1, 1, 1,15,0.0, 1, 1, 1,15
1096,6722789020.875995,0.0, 1, 1, 1,15,1943424.3616021336, 8, 1,16,60
1134,31122989912.09846,0.0, 2,16,15,60,9221474.516603103, 2, 1, 6,30
1326,9357264246.715502,0.0, 1, 1, 1,15,4050000.0000000014, 9,17, 9,45
1379,0.0,0.0, 1, 1, 1,15,0.0, 1, 1, 1,15
End of Data
 Number of Records Written=          99
