Program Version,EnergyPlus, Version 22.2.0-c249759bad, YMD=2023.09.01 14:30
1,5,Environment Title[],Latitude[deg],Longitude[deg],Time Zone[],Elevation[m]
2,8,Day of Simulation[],Month[],Day of Month[],DST Indicator[1=yes 0=no],Hour[],StartMinute[],EndMinute[],DayType
3,5,Cumulative Day of Simulation[],Month[],Day of Month[],DST Indicator[1=yes 0=no],DayType  ! When Daily Report Variables Requested
4,2,Cumulative Days of Simulation[],Month[]  ! When Monthly Report Variables Requested
5,1,Cumulative Days of Simulation[] ! When Run Period Report Variables Requested
6,1,Calendar Year of Simulation[] ! When Annual Report Variables Requested
7,1,Environment,Site Outdoor Air Drybulb Temperature [C] !Hourly
619,1,DX_HEATING_COIL,Heating Coil Heating Rate [W] !Hourly
633,1,DX_HEATING_COIL,Heating Coil Electricity Rate [W] !Hourly
659,1,DX_HEATING_COIL,Heating Coil Defrost Electricity Rate [W] !Hourly
661,1,DX_HEATING_COIL,Heating Coil Crankcase Heater Electricity Rate [W] !Hourly
690,1,FAN,Fan Electricity Rate [W] !Hourly
716,1,HEAT PUMP WATER HEATER FAN,Fan Electricity Rate [W] !Hourly
718,1,LIVING,Zone Mean Air Temperature [C] !Hourly
719,1,ATTIC,Zone Mean Air Temperature [C] !Hourly
720,1,CRAWLSPACE,Zone Mean Air Temperature [C] !Hourly
843,1,LIVING,Zone Predicted Sensible Load to Heating Setpoint Heat Transfer Rate [W] !Hourly
844,1,LIVING,Zone System Predicted Sensible Load to Heating Setpoint Heat Transfer Rate [W] !Hourly
907,1,ATTIC,Zone Predicted Sensible Load to Heating Setpoint Heat Transfer Rate [W] !Hourly
908,1,ATTIC,Zone System Predicted Sensible Load to Heating Setpoint Heat Transfer Rate [W] !Hourly
971,1,CRAWLSPACE,Zone Predicted Sensible Load to Heating Setpoint Heat Transfer Rate [W] !Hourly
972,1,CRAWLSPACE,Zone System Predicted Sensible Load to Heating Setpoint Heat Transfer Rate [W] !Hourly
1195,1,HEATING_RESISTANCE_BACKUP,Heating Coil Heating Rate [W] !Hourly
1197,1,HEATING_RESISTANCE_BACKUP,Heating Coil Electricity Rate [W] !Hourly
End of Data Dictionary
1,EXTREME_WINTER,  41.78,-124.24,  -8.00,  17.00
2,1, 1, 1, 0, 1, 0.00,60.00,Monday
7,8.9
718,19.094332334544696
719,7.422499855248834
720,19.200119263242158
619,0.0
633,0.0
659,0.0
661,200.0
690,0.0
716,0.0
843,-344.78466895712154
844,-344.78466895712154
907,0.0
908,0.0
971,0.0
972,0.0
1195,0.0
1197,0.0
2,1, 1, 1, 0, 2, 0.00,60.00,Monday
7,8.3
718,18.657707334319966
719,8.5289733360352
720,18.914117608325455
619,663.228267790651
633,176.02472177751625
659,0.0
661,158.91570415008877
690,15.636974339158948
716,0.0
843,420.55239578995315
844,420.55239578995315
907,0.0
908,0.0
971,0.0
972,0.0
1195,0.0
1197,0.0
2,1, 1, 1, 0, 3, 0.00,60.00,Monday
7,8.3
718,18.877131058649123
719,8.992276920468234
720,18.737226963808396
619,1044.0771358680042
633,270.8346096470867
659,0.0
661,136.2678583121021
690,24.256905066451438
716,0.0
843,731.4460197590506
844,731.4460197590506
907,0.0
908,0.0
971,0.0
972,0.0
1195,0.0
1197,0.0
2,1, 1, 1, 0, 4, 0.00,60.00,Monday
7,8.9
718,18.400726586714846
719,9.577842688058778
720,18.567789444023646
619,1065.4810829436524
633,275.4779501267155
659,0.0
661,135.87105766856783
690,24.407930205189967
716,0.0
843,721.0895565335759
844,721.0895565335759
907,0.0
908,0.0
971,0.0
972,0.0
1195,0.0
1197,0.0
2,1, 1, 1, 0, 5, 0.00,60.00,Monday
7,8.9
718,18.953519258146102
719,9.589293770177973
720,18.416354067727667
619,1271.6240048232576
633,323.13998786904546
659,0.0
661,124.12627483661124
690,28.878077836129492
716,0.0
843,913.0908778324374
844,913.0908778324374
907,0.0
908,0.0
971,0.0
972,0.0
1195,0.0
1197,0.0
2,1, 1, 1, 0, 6, 0.00,60.00,Monday
7,8.3
718,19.607162895285885
719,9.623601336448555
720,18.281103886561578
619,2174.9997268668903
633,546.4878362731336
659,0.0
661,71.96995870727399
690,48.7291416080128
716,0.0
843,1531.5901673884891
844,1531.5901673884891
907,0.0
908,0.0
971,0.0
972,0.0
1195,0.0
1197,0.0
2,1, 1, 1, 0, 7, 0.00,60.00,Monday
7,8.9
718,19.6953504268836
719,10.273144176419235
720,18.182840379137755
619,3331.649744757048
633,812.733893945423
659,0.0
661,13.015383249510503
690,71.16767108839696
716,85.44000000000004
843,1232.071171804011
844,1232.071171804011
907,0.0
908,0.0
971,0.0
972,0.0
1195,0.0
1197,0.0
2,1, 1, 1, 0, 8, 0.00,60.00,Monday
7,8.9
718,19.711204478541227
719,10.093762747419595
720,18.065479130661494
619,2598.9968844587356
633,649.8804944269317
659,0.0
661,50.71126777447586
690,56.820350127556985
716,52.55297548110395
843,1106.1922063453476
844,1106.1922063453476
907,0.0
908,0.0
971,0.0
972,0.0
1195,0.0
1197,0.0
2,1, 1, 1, 0, 9, 0.00,60.00,Monday
7,8.9
718,19.843827056920677
719,9.873589779330269
720,17.9523529482743
619,772.6011962996449
633,205.13895983268094
659,0.0
661,152.8985654587595
690,17.927139994065246
716,0.0
843,535.443753930369
844,535.443753930369
907,0.0
908,0.0
971,0.0
972,0.0
1195,0.0
1197,0.0
2,1, 1, 1, 0,10, 0.00,60.00,Monday
7,9.4
718,20.091759378518095
719,11.29980254340734
720,17.855941190044117
619,0.0
633,0.0
659,0.0
661,200.0
690,0.0
716,0.0
843,-185.69712178729606
844,-185.69712178729606
907,0.0
908,0.0
971,0.0
972,0.0
1195,0.0
1197,0.0
2,1, 1, 1, 0,11, 0.00,60.00,Monday
7,10.0
718,20.234817900641563
719,12.716241153103184
720,17.78522216915658
619,0.0
633,0.0
659,0.0
661,0.0
690,0.0
716,0.0
843,-386.3687934108202
844,-386.3687934108202
907,0.0
908,0.0
971,0.0
972,0.0
1195,0.0
1197,0.0
2,1, 1, 1, 0,12, 0.00,60.00,Monday
7,10.6
718,20.37399702208463
719,14.134692731503126
720,17.730378462782454
619,0.0
633,0.0
659,0.0
661,0.0
690,0.0
716,0.0
843,-446.85464602673346
844,-446.85464602673346
907,0.0
908,0.0
971,0.0
972,0.0
1195,0.0
1197,0.0
2,1, 1, 1, 0,13, 0.00,60.00,Monday
7,10.0
718,20.243722251487092
719,13.723209571917566
720,17.68682765505585
619,0.0
633,0.0
659,0.0
661,0.0
690,0.0
716,0.0
843,-329.9085712445194
844,-329.9085712445194
907,0.0
908,0.0
971,0.0
972,0.0
1195,0.0
1197,0.0
2,1, 1, 1, 0,14, 0.00,60.00,Monday
7,10.6
718,19.372230171664295
719,14.324225845984143
720,17.650985816521214
619,0.0
633,0.0
659,0.0
661,0.0
690,0.0
716,68.08378258000297
843,-537.6444759212482
844,-537.6444759212482
907,0.0
908,0.0
971,0.0
972,0.0
1195,0.0
1197,0.0
2,1, 1, 1, 0,15, 0.00,60.00,Monday
7,10.0
718,20.654722782787086
719,14.721493511007903
720,17.621564942217862
619,0.0
633,0.0
659,0.0
661,0.0
690,0.0
716,0.0
843,-846.2398270940685
844,-846.2398270940685
907,0.0
908,0.0
971,0.0
972,0.0
1195,0.0
1197,0.0
2,1, 1, 1, 0,16, 0.00,60.00,Monday
7,9.4
718,20.8991777074685
719,14.3648890308812
720,17.599244629769082
619,0.0
633,0.0
659,0.0
661,200.0
690,0.0
716,0.0
843,-762.2034418065905
844,-762.2034418065905
907,0.0
908,0.0
971,0.0
972,0.0
1195,0.0
1197,0.0
2,1, 1, 1, 0,17, 0.00,60.00,Monday
7,8.9
718,21.673477194175266
719,14.824929882606959
720,17.583252410850427
619,0.0
633,0.0
659,0.0
661,200.0
690,0.0
716,0.0
843,-1245.0911910322593
844,-1245.0911910322593
907,0.0
908,0.0
971,0.0
972,0.0
1195,0.0
1197,0.0
2,1, 1, 1, 0,18, 0.00,60.00,Monday
7,8.3
718,21.567308742017957
719,12.459975330231583
720,17.567323262034353
619,0.0
633,0.0
659,0.0
661,200.0
690,0.0
716,0.0
843,-1108.1419925959726
844,-1108.1419925959726
907,0.0
908,0.0
971,0.0
972,0.0
1195,0.0
1197,0.0
2,1, 1, 1, 0,19, 0.00,60.00,Monday
7,7.8
718,20.177352138315932
719,10.019110069679785
720,17.55070191829264
619,0.0
633,0.0
659,0.0
661,200.0
690,0.0
716,80.31784633865563
843,-1061.440387921366
844,-1061.440387921366
907,0.0
908,0.0
971,0.0
972,0.0
1195,0.0
1197,0.0
2,1, 1, 1, 0,20, 0.00,60.00,Monday
7,8.3
718,20.12631483575322
719,9.194268500687887
720,17.524797397021196
619,0.0
633,0.0
659,0.0
661,200.0
690,0.0
716,75.33484386131379
843,-1377.752876746812
844,-1377.752876746812
907,0.0
908,0.0
971,0.0
972,0.0
1195,0.0
1197,0.0
2,1, 1, 1, 0,21, 0.00,60.00,Monday
7,8.3
718,21.057764434239044
719,8.76212102800381
720,17.488230374111946
619,0.0
633,0.0
659,0.0
661,200.0
690,0.0
716,0.0
843,-1132.7052006396516
844,-1132.7052006396516
907,0.0
908,0.0
971,0.0
972,0.0
1195,0.0
1197,0.0
2,1, 1, 1, 0,22, 0.00,60.00,Monday
7,6.7
718,20.883728836366235
719,7.9577993532946
720,17.44169373484465
619,0.0
633,0.0
659,0.0
661,200.0
690,0.0
716,0.0
843,-579.971853371816
844,-579.971853371816
907,0.0
908,0.0
971,0.0
972,0.0
1195,0.0
1197,0.0
2,1, 1, 1, 0,23, 0.00,60.00,Monday
7,6.7
718,20.4102868556366
719,6.146561731162912
720,17.3888082653361
619,0.0
633,0.0
659,0.0
661,200.0
690,0.0
716,0.0
843,-1027.7224984847871
844,-1027.7224984847871
907,0.0
908,0.0
971,0.0
972,0.0
1195,0.0
1197,0.0
2,1, 1, 1, 0,24, 0.00,60.00,Monday
7,5.0
718,19.611517108935413
719,4.002558403040672
720,17.330112481675812
619,0.0
633,0.0
659,0.0
661,200.0
690,0.0
716,0.0
843,-587.3602454920974
844,-587.3602454920974
907,0.0
908,0.0
971,0.0
972,0.0
1195,0.0
1197,0.0
2,2, 1, 2, 0, 1, 0.00,60.00,Tuesday
7,6.1
718,18.88461926503519
719,4.442543365880342
720,17.261903320293534
619,0.0
633,0.0
659,0.0
661,200.0
690,0.0
716,0.0
843,-184.46173793388516
844,-184.46173793388516
907,0.0
908,0.0
971,0.0
972,0.0
1195,0.0
1197,0.0
2,2, 1, 2, 0, 2, 0.00,60.00,Tuesday
7,7.2
718,18.607969649097896
719,5.622903489187851
720,17.189388829246887
619,337.8440093416046
633,91.28169358793606
659,0.0
661,178.29098558317455
690,8.262604830917773
716,0.0
843,222.7082972054468
844,222.7082972054468
907,0.0
908,0.0
971,0.0
972,0.0
1195,0.0
1197,0.0
2,2, 1, 2, 0, 3, 0.00,60.00,Tuesday
7,6.7
718,18.74487600145422
719,5.664380593879478
720,17.109221927491152
619,704.9833241736017
633,188.1062468434025
659,0.0
661,154.78425082382338
690,17.20943477227075
716,0.0
843,472.0877319084766
844,472.0877319084766
907,0.0
908,0.0
971,0.0
972,0.0
1195,0.0
1197,0.0
2,2, 1, 2, 0, 4, 0.00,60.00,Tuesday
7,6.7
718,18.585947169526538
719,5.82522544956642
720,17.02712496863656
619,955.494053720031
633,253.42121569189246
659,0.0
661,139.22305778372657
690,23.132135191516664
716,0.0
843,635.3441900886774
844,635.3441900886774
907,0.0
908,0.0
971,0.0
972,0.0
1195,0.0
1197,0.0
2,2, 1, 2, 0, 5, 0.00,60.00,Tuesday
7,5.0
718,18.607280441370044
719,4.995685329271024
720,16.94078411704345
619,1317.6546336271783
633,380.0461289840829
659,21.176143743363156
661,94.42726754694834
690,40.09339170818828
716,0.0
843,837.9916283984548
844,837.9916283984548
907,0.0
908,0.0
971,0.0
972,0.0
1195,0.0
1197,0.0
2,2, 1, 2, 0, 6, 0.00,60.00,Tuesday
7,5.6
718,19.51007814571746
719,5.03370397270099
720,16.863498406711585
619,2571.606158101865
633,651.9021699998535
659,0.0
661,41.312908909363784
690,60.3974321576554
716,0.0
843,1686.5922170371068
844,1686.5922170371068
907,0.0
908,0.0
971,0.0
972,0.0
1195,0.0
1197,0.0
2,2, 1, 2, 0, 7, 0.00,60.00,Tuesday
7,6.1
718,19.137963060322623
719,5.948854454307931
720,16.825780501826554
619,3353.575413310364
633,839.3833971718003
659,0.0
661,0.0
690,76.1214182483925
716,85.44000000000004
843,1680.1096092337048
844,1680.1096092337048
907,0.0
908,0.0
971,0.0
972,0.0
1195,0.0
1197,0.0
2,2, 1, 2, 0, 8, 0.00,60.00,Tuesday
7,5.6
718,19.009676950601893
719,6.047456449950247
720,16.718053376102954
619,3316.6546450228266
633,829.3154895139954
659,0.0
661,0.0
690,76.1214182483925
716,85.44000000000004
843,1662.5082205344715
844,1662.5082205344715
907,0.0
908,0.0
971,0.0
972,0.0
1195,0.0
1197,0.0
2,2, 1, 2, 0, 9, 0.00,60.00,Tuesday
7,7.2
718,19.51213170933308
719,7.120767086137787
720,16.63729582579071
619,2668.76881612267
633,666.9617951450485
659,0.0
661,41.53154444040999
690,60.31421792414177
716,51.46539666596185
843,1064.7404266184458
844,1064.7404266184458
907,0.0
908,0.0
971,0.0
972,0.0
1195,0.0
1197,0.0
2,2, 1, 2, 0,10, 0.00,60.00,Tuesday
7,9.4
718,19.752061585240348
719,9.134592812543415
720,16.532851070376648
619,506.51859363944726
633,133.9729032075036
659,0.0
661,169.2522281047288
690,11.702820023230537
716,0.0
843,321.8570720792759
844,321.8570720792759
907,0.0
908,0.0
971,0.0
972,0.0
1195,0.0
1197,0.0
2,2, 1, 2, 0,11, 0.00,60.00,Tuesday
7,11.1
718,20.52729280356258
719,12.071565884329493
720,16.475143365687906
619,0.0
633,0.0
659,0.0
661,0.0
690,0.0
716,0.0
843,-556.3968209379946
844,-556.3968209379946
907,0.0
908,0.0
971,0.0
972,0.0
1195,0.0
1197,0.0
2,2, 1, 2, 0,12, 0.00,60.00,Tuesday
7,10.6
718,21.31909737916181
719,15.704118408664739
720,16.45522495379397
619,0.0
633,0.0
659,0.0
661,0.0
690,0.0
716,0.0
843,-1339.4069857144696
844,-1339.4069857144696
907,0.0
908,0.0
971,0.0
972,0.0
1195,0.0
1197,0.0
2,2, 1, 2, 0,13, 0.00,60.00,Tuesday
7,10.6
718,21.866840045987836
719,16.949430182276878
720,16.460106621146814
619,0.0
633,0.0
659,0.0
661,0.0
690,0.0
716,0.0
843,-1793.8572793136427
844,-1793.8572793136427
907,0.0
908,0.0
971,0.0
972,0.0
1195,0.0
1197,0.0
2,2, 1, 2, 0,14, 0.00,60.00,Tuesday
7,10.6
718,22.832838894360183
719,18.681241737353147
720,16.48631153575312
619,0.0
633,0.0
659,0.0
661,0.0
690,0.0
716,0.0
843,-2147.654574164153
844,-2147.654574164153
907,0.0
908,0.0
971,0.0
972,0.0
1195,0.0
1197,0.0
2,2, 1, 2, 0,15, 0.00,60.00,Tuesday
7,10.0
718,23.30704152602089
719,19.201787922118516
720,16.549234396230762
619,0.0
633,0.0
659,0.0
661,0.0
690,8.045446357130345
716,0.0
843,-2788.233152791956
844,-2788.233152791956
907,0.0
908,0.0
971,0.0
972,0.0
1195,0.0
1197,0.0
2,2, 1, 2, 0,16, 0.00,60.00,Tuesday
7,10.6
718,23.372808655000878
719,19.348616500854696
720,16.678466795118887
619,0.0
633,0.0
659,0.0
661,0.0
690,23.72508722988501
716,0.0
843,-3730.0959607016084
844,-3730.0959607016084
907,0.0
908,0.0
971,0.0
972,0.0
1195,0.0
1197,0.0
2,2, 1, 2, 0,17, 0.00,60.00,Tuesday
7,8.3
718,23.22410908500881
719,15.847433446567711
720,16.754597602504735
619,0.0
633,0.0
659,0.0
661,134.68033683765447
690,24.861126997125094
716,0.0
843,-4104.601508413847
844,-4104.601508413847
907,0.0
908,0.0
971,0.0
972,0.0
1195,0.0
1197,0.0
2,2, 1, 2, 0,18, 0.00,60.00,Tuesday
7,6.7
718,22.686056876319185
719,12.375073991327664
720,16.731231291740112
619,0.0
633,0.0
659,0.0
661,200.0
690,0.0
716,56.84593778098238
843,-3496.43352665593
844,-3496.43352665593
907,0.0
908,0.0
971,0.0
972,0.0
1195,0.0
1197,0.0
2,2, 1, 2, 0,19, 0.00,60.00,Tuesday
7,5.6
718,23.13294465054558
719,9.262673976443594
720,16.786030295218698
619,0.0
633,0.0
659,0.0
661,200.0
690,0.0
716,0.0
843,-3041.781735217275
844,-3041.781735217275
907,0.0
908,0.0
971,0.0
972,0.0
1195,0.0
1197,0.0
2,2, 1, 2, 0,20, 0.00,60.00,Tuesday
7,6.0
718,21.769114503483397
719,7.392397128922062
720,16.79502431168178
619,0.0
633,0.0
659,0.0
661,200.0
690,0.0
716,85.44000000000004
843,-2481.4766005097335
844,-2481.4766005097335
907,0.0
908,0.0
971,0.0
972,0.0
1195,0.0
1197,0.0
2,2, 1, 2, 0,21, 0.00,60.00,Tuesday
7,4.4
718,21.332404159377262
719,5.618519845125855
720,16.78024086380735
619,0.0
633,0.0
659,0.0
661,200.0
690,0.0
716,74.05755683472188
843,-2527.0999583132034
844,-2527.0999583132034
907,0.0
908,0.0
971,0.0
972,0.0
1195,0.0
1197,0.0
2,2, 1, 2, 0,22, 0.00,60.00,Tuesday
7,6.1
718,21.869236872228942
719,4.7798015272305525
720,16.74540749798377
619,0.0
633,0.0
659,0.0
661,200.0
690,0.0
716,0.0
843,-1952.1619258617775
844,-1952.1619258617775
907,0.0
908,0.0
971,0.0
972,0.0
1195,0.0
1197,0.0
2,2, 1, 2, 0,23, 0.00,60.00,Tuesday
7,4.4
718,21.10227985445815
719,4.25719945889486
720,16.6925618658799
619,0.0
633,0.0
659,0.0
661,200.0
690,0.0
716,0.0
843,-1621.6692392765217
844,-1621.6692392765217
907,0.0
908,0.0
971,0.0
972,0.0
1195,0.0
1197,0.0
2,2, 1, 2, 0,24, 0.00,60.00,Tuesday
7,4.4
718,20.48229438846436
719,2.69874551900547
720,16.63121399998169
619,0.0
633,0.0
659,0.0
661,200.0
690,0.0
716,0.0
843,-1360.9741337216055
844,-1360.9741337216055
907,0.0
908,0.0
971,0.0
972,0.0
1195,0.0
1197,0.0
2,3, 1, 3, 0, 1, 0.00,60.00,Wednesday
7,2.2
718,19.460231139539378
719,1.7135779751535896
720,16.55803646237099
619,0.0
633,0.0
659,0.0
661,200.0
690,0.0
716,0.0
843,-586.9295575096694
844,-586.9295575096694
907,0.0
908,0.0
971,0.0
972,0.0
1195,0.0
1197,0.0
2,3, 1, 3, 0, 2, 0.00,60.00,Wednesday
7,4.4
718,18.953341728447178
719,2.163967322296816
720,16.477149406043388
619,0.0
633,0.0
659,0.0
661,200.0
690,0.0
716,0.0
843,-255.8756750772136
844,-255.8756750772136
907,0.0
908,0.0
971,0.0
972,0.0
1195,0.0
1197,0.0
2,3, 1, 3, 0, 3, 0.00,60.00,Wednesday
7,5.0
718,18.68219573028688
719,2.633512326424848
720,16.40044254215308
619,311.29208143412984
633,94.70886519293181
659,7.402184828990301
661,173.03888434018992
690,10.229734814532016
716,0.0
843,123.61108192879328
844,123.61108192879328
907,0.0
908,0.0
971,0.0
972,0.0
1195,0.0
1197,0.0
2,3, 1, 3, 0, 4, 0.00,60.00,Wednesday
7,3.3
718,18.44070300560578
719,2.3623236229836544
720,16.317109031735477
619,741.188441444904
633,225.79600381579294
659,19.10326177198516
661,133.8830493280981
690,25.01267569529269
716,0.0
843,422.9134834299639
844,422.9134834299639
907,0.0
908,0.0
971,0.0
972,0.0
1195,0.0
1197,0.0
2,3, 1, 3, 0, 5, 0.00,60.00,Wednesday
7,3.3
718,18.53271239108647
719,2.54310312933147
720,16.23583746924789
619,1485.6181363818398
633,433.9556218246885
659,40.90506067839139
661,70.79924553333186
690,48.846192515443285
716,0.0
843,847.0351179278678
844,847.0351179278678
907,0.0
908,0.0
971,0.0
972,0.0
1195,0.0
1197,0.0
2,3, 1, 3, 0, 6, 0.00,60.00,Wednesday
7,3.3
718,18.173445267777446
719,3.1383502972716224
720,16.16531447293717
619,2444.496184686749
633,680.6569862319045
659,57.756058670416365
661,0.0
690,76.1214182483925
716,67.33125949212699
843,1905.4039601695968
844,1905.4039601695968
907,0.0
908,0.0
971,0.0
972,0.0
1195,0.0
1197,0.0
2,3, 1, 3, 0, 7, 0.00,60.00,Wednesday
7,3.9
718,17.86390838090715
719,3.5570269786438447
720,16.063108265830934
619,2498.091112444033
633,683.1695007497775
659,55.60031255609139
661,0.0
690,76.1214182483925
716,85.44000000000004
843,1936.4835030892973
844,1936.4835030892973
907,0.0
908,0.0
971,0.0
972,0.0
1195,0.0
1197,0.0
2,3, 1, 3, 0, 8, 0.00,60.00,Wednesday
7,3.9
718,18.218080973160756
719,3.474905941453495
720,15.970911973241474
619,2501.6184002496243
633,679.2149935001324
659,55.58052249079818
661,0.0
690,76.1214182483925
716,34.817517757809405
843,2017.2208439994647
844,2017.2208439994647
907,0.0
908,0.0
971,0.0
972,0.0
1195,0.0
1197,0.0
2,3, 1, 3, 0, 9, 0.00,60.00,Wednesday
7,5.6
718,19.433167225292276
719,5.043268216610537
720,15.907238138432337
619,2859.7094235173113
633,710.5093644449959
659,0.0
661,25.557201859842806
690,66.39416598823406
716,0.0
843,1810.057413759654
844,1810.057413759654
907,0.0
908,0.0
971,0.0
972,0.0
1195,0.0
1197,0.0
2,3, 1, 3, 0,10, 0.00,60.00,Wednesday
7,7.8
718,19.76104996935478
719,7.649547900781069
720,15.831217001481575
619,1277.3209202461362
633,334.5800462529577
659,0.0
661,121.55466990169712
690,29.85684891023063
716,0.0
843,801.0295138980091
844,801.0295138980091
907,0.0
908,0.0
971,0.0
972,0.0
1195,0.0
1197,0.0
2,3, 1, 3, 0,11, 0.00,60.00,Wednesday
7,10.0
718,20.07645265814328
719,11.55368704272874
720,15.733413462802412
619,0.0
633,0.0
659,0.0
661,0.0
690,0.0
716,0.0
843,-211.09073458751118
844,-211.09073458751118
907,0.0
908,0.0
971,0.0
972,0.0
1195,0.0
1197,0.0
2,3, 1, 3, 0,12, 0.00,60.00,Wednesday
7,10.6
718,21.039418233710457
719,17.77186479357095
720,15.723276644348903
619,0.0
633,0.0
659,0.0
661,0.0
690,0.0
716,0.0
843,-1109.8561221638174
844,-1109.8561221638174
907,0.0
908,0.0
971,0.0
972,0.0
1195,0.0
1197,0.0
2,3, 1, 3, 0,13, 0.00,60.00,Wednesday
7,10.0
718,21.556283170684054
719,18.42002758387337
720,15.731383776188212
619,0.0
633,0.0
659,0.0
661,0.0
690,0.0
716,0.0
843,-1562.0252978701374
844,-1562.0252978701374
907,0.0
908,0.0
971,0.0
972,0.0
1195,0.0
1197,0.0
2,3, 1, 3, 0,14, 0.00,60.00,Wednesday
7,9.4
718,22.48683364207238
719,20.953267490251577
720,15.758904120646923
619,0.0
633,0.0
659,0.0
661,200.0
690,0.0
716,0.0
843,-2139.987866348227
844,-2139.987866348227
907,0.0
908,0.0
971,0.0
972,0.0
1195,0.0
1197,0.0
2,3, 1, 3, 0,15, 0.00,60.00,Wednesday
7,9.4
718,22.31808838861894
719,19.747888434928015
720,15.818732119348022
619,0.0
633,0.0
659,0.0
661,200.0
690,0.0
716,57.03669300371806
843,-2798.126196165642
844,-2798.126196165642
907,0.0
908,0.0
971,0.0
972,0.0
1195,0.0
1197,0.0
2,3, 1, 3, 0,16, 0.00,60.00,Wednesday
7,8.9
718,22.6056649012816
719,17.950974127391074
720,15.894493981188678
619,0.0
633,0.0
659,0.0
661,200.0
690,0.0
716,60.836299319462405
843,-3493.70221255891
844,-3493.70221255891
907,0.0
908,0.0
971,0.0
972,0.0
1195,0.0
1197,0.0
2,3, 1, 3, 0,17, 0.00,60.00,Wednesday
7,7.8
718,23.297669882183655
719,15.550073179104567
720,16.025095490101894
619,0.0
633,0.0
659,0.0
661,172.58604297066893
690,10.433946444365853
716,0.0
843,-3648.3500907119724
844,-3648.3500907119724
907,0.0
908,0.0
971,0.0
972,0.0
1195,0.0
1197,0.0
2,3, 1, 3, 0,18, 0.00,60.00,Wednesday
7,5.6
718,23.1577051221434
719,11.968997678833361
720,16.058134075016675
619,0.0
633,0.0
659,0.0
661,200.0
690,0.0
716,0.0
843,-2833.111011307383
844,-2833.111011307383
907,0.0
908,0.0
971,0.0
972,0.0
1195,0.0
1197,0.0
2,3, 1, 3, 0,19, 0.00,60.00,Wednesday
7,4.4
718,22.968005929254016
719,8.34778055742737
720,16.11385726653686
619,0.0
633,0.0
659,0.0
661,200.0
690,0.0
716,0.0
843,-2380.124693068634
844,-2380.124693068634
907,0.0
908,0.0
971,0.0
972,0.0
1195,0.0
1197,0.0
2,3, 1, 3, 0,20, 0.00,60.00,Wednesday
7,3.9
718,21.581961987031757
719,5.7566551912954225
720,16.13223098534983
619,0.0
633,0.0
659,0.0
661,200.0
690,0.0
716,85.44000000000004
843,-2337.8942408997245
844,-2337.8942408997245
907,0.0
908,0.0
971,0.0
972,0.0
1195,0.0
1197,0.0
2,3, 1, 3, 0,21, 0.00,60.00,Wednesday
7,4.4
718,21.474360488157096
719,4.487498681188133
720,16.123277385538017
619,0.0
633,0.0
659,0.0
661,200.0
690,0.0
716,49.572527624955384
843,-2365.080062805464
844,-2365.080062805464
907,0.0
908,0.0
971,0.0
972,0.0
1195,0.0
1197,0.0
2,3, 1, 3, 0,22, 0.00,60.00,Wednesday
7,2.2
718,21.349783897404425
719,3.215864660223898
720,16.091536725745335
619,0.0
633,0.0
659,0.0
661,200.0
690,0.0
716,0.0
843,-1410.251052115551
844,-1410.251052115551
907,0.0
908,0.0
971,0.0
972,0.0
1195,0.0
1197,0.0
2,3, 1, 3, 0,23, 0.00,60.00,Wednesday
7,3.3
718,20.795757425732045
719,2.7884871149382375
720,16.04267148249384
619,0.0
633,0.0
659,0.0
661,200.0
690,0.0
716,0.0
843,-1660.4948425488783
844,-1660.4948425488783
907,0.0
908,0.0
971,0.0
972,0.0
1195,0.0
1197,0.0
2,3, 1, 3, 0,24, 0.00,60.00,Wednesday
7,3.3
718,20.013816088417762
719,2.3792868591741096
720,15.978992361167801
619,0.0
633,0.0
659,0.0
661,200.0
690,0.0
716,0.0
843,-1023.6612049000523
844,-1023.6612049000523
907,0.0
908,0.0
971,0.0
972,0.0
1195,0.0
1197,0.0
2,4, 1, 4, 0, 1, 0.00,60.00,Thursday
7,3.3
718,19.20893396184372
719,2.4280255219783142
720,15.90463079585754
619,0.0
633,0.0
659,0.0
661,200.0
690,0.0
716,0.0
843,-433.4165954579803
844,-433.4165954579803
907,0.0
908,0.0
971,0.0
972,0.0
1195,0.0
1197,0.0
2,4, 1, 4, 0, 2, 0.00,60.00,Thursday
7,2.8
718,18.690848938076766
719,1.907977079760886
720,15.839428030475588
619,296.6028706337213
633,94.3340369735111
659,9.073691535683594
661,172.07333719905827
690,10.545363126354447
716,0.0
843,103.42343739379612
844,103.42343739379612
907,0.0
908,0.0
971,0.0
972,0.0
1195,0.0
1197,0.0
2,4, 1, 4, 0, 3, 0.00,60.00,Thursday
7,1.7
718,18.518954161942872
719,1.0491547992713526
720,15.77081337485989
619,979.9511346718067
633,302.9945558149716
659,24.93582359779393
661,110.2753259897292
690,33.86080133336996
716,0.0
843,539.648664078195
844,539.648664078195
907,0.0
908,0.0
971,0.0
972,0.0
1195,0.0
1197,0.0
2,4, 1, 4, 0, 4, 0.00,60.00,Thursday
7,2.8
718,18.553712735408613
719,2.0569111705942937
720,15.697962682012314
619,1635.1026778411242
633,478.43825099358185
659,43.40983269332709
661,57.65438704737327
690,53.78167068460103
716,0.0
843,882.6528534749259
844,882.6528534749259
907,0.0
908,0.0
971,0.0
972,0.0
1195,0.0
1197,0.0
2,4, 1, 4, 0, 5, 0.00,60.00,Thursday
7,2.2
718,18.550517260750713
719,2.5024928990874447
720,15.626780225576958
619,2246.068728168544
633,644.9885881914479
659,56.339698174975325
661,8.02053897494126
690,72.47896446349542
716,0.0
843,1227.130460094797
844,1227.130460094797
907,0.0
908,0.0
971,0.0
972,0.0
1195,0.0
1197,0.0
2,4, 1, 4, 0, 6, 0.00,60.00,Thursday
7,1.7
718,18.510452419203904
719,2.4472863265094773
720,15.539082554052456
619,2330.5629983117487
633,666.0975056417514
659,60.520848656416604
661,0.0
690,76.1214182483925
716,0.0
843,2307.5321108318767
844,2307.5321108318767
907,0.0
908,0.0
971,0.0
972,0.0
1195,0.0
1197,0.0
2,4, 1, 4, 0, 7, 0.00,60.00,Thursday
7,1.7
718,17.633895496214265
719,2.3595087767343217
720,15.454168541339241
619,2331.277510316848
633,665.5615218319457
659,60.47850441948287
661,0.0
690,76.1214182483925
716,85.44000000000004
843,2377.2376393335435
844,2377.2376393335435
907,0.0
908,0.0
971,0.0
972,0.0
1195,0.0
1197,0.0
2,4, 1, 4, 0, 8, 0.00,60.00,Thursday
7,1.7
718,17.13586221245135
719,2.2780861201522393
720,15.33127039210301
619,2340.7036844732456
633,654.6724469250888
659,60.452069347208244
661,0.0
690,76.1214182483925
716,85.44000000000004
843,2257.1664620446736
844,2257.1664620446736
907,0.0
908,0.0
971,0.0
972,0.0
1195,0.0
1197,0.0
2,4, 1, 4, 0, 9, 0.00,60.00,Thursday
7,2.0
718,17.547986514968503
719,3.46974047528577
720,15.235453388538739
619,2349.0820486450193
633,646.0712330364588
659,63.53568675132712
661,0.0
690,76.1214182483925
716,40.96795788948405
843,2089.017051349423
844,2089.017051349423
907,0.0
908,0.0
971,0.0
972,0.0
1195,0.0
1197,0.0
2,4, 1, 4, 0,10, 0.00,60.00,Thursday
7,4.0
718,18.70304867703077
719,5.9095657578875
720,15.190825737471677
619,2470.1732105380606
633,663.8247677890922
659,63.521812986571916
661,0.0
690,76.1214182483925
716,0.0
843,1914.1672348874527
844,1914.1672348874527
907,0.0
908,0.0
971,0.0
972,0.0
1195,0.0
1197,0.0
2,4, 1, 4, 0,11, 0.00,60.00,Thursday
7,7.0
718,19.626722150600163
719,9.046947135056655
720,15.143019504498863
619,1960.624473588409
633,498.16018149042975
659,0.0
661,80.46467749651765
690,45.49599139872032
716,0.0
843,1276.2574697996333
844,1276.2574697996333
907,0.0
908,0.0
971,0.0
972,0.0
1195,0.0
1197,0.0
2,4, 1, 4, 0,12, 0.00,60.00,Thursday
7,8.9
718,19.684610522991132
719,12.265215226081132
720,15.065246321897146
619,687.30326992272
633,181.69686605948218
659,0.0
661,158.0341917145384
690,15.972484223147394
716,0.0
843,457.0680698167089
844,457.0680698167089
907,0.0
908,0.0
971,0.0
972,0.0
1195,0.0
1197,0.0
2,4, 1, 4, 0,13, 0.00,60.00,Thursday
7,9.0
718,19.818298445727564
719,14.425972606107628
720,15.024327922173361
619,40.09544241390279
633,10.83562763662842
659,0.0
661,197.50293470314497
690,0.9504007592772419
716,0.0
843,25.23170235660473
844,25.23170235660473
907,0.0
908,0.0
971,0.0
972,0.0
1195,0.0
1197,0.0
2,4, 1, 4, 0,14, 0.00,60.00,Thursday
7,10.0
718,20.05088003381212
719,15.181965760723445
720,15.033608206902588
619,0.0
633,0.0
659,0.0
661,0.0
690,0.0
716,0.0
843,-189.41653563985346
844,-189.41653563985346
907,0.0
908,0.0
971,0.0
972,0.0
1195,0.0
1197,0.0
2,4, 1, 4, 0,15, 0.00,60.00,Thursday
7,9.4
718,20.641954689220377
719,15.957342336268706
720,15.049796660159966
619,0.0
633,0.0
659,0.0
661,200.0
690,0.0
716,0.0
843,-543.4642471551961
844,-543.4642471551961
907,0.0
908,0.0
971,0.0
972,0.0
1195,0.0
1197,0.0
2,4, 1, 4, 0,16, 0.00,60.00,Thursday
7,9.4
718,20.857850054434458
719,14.849288372500908
720,15.08493673878699
619,0.0
633,0.0
659,0.0
661,200.0
690,0.0
716,0.0
843,-742.0572376451582
844,-742.0572376451582
907,0.0
908,0.0
971,0.0
972,0.0
1195,0.0
1197,0.0
2,4, 1, 4, 0,17, 0.00,60.00,Thursday
7,9.0
718,19.98136975529795
719,13.346866020809944
720,15.124355730158891
619,0.0
633,0.0
659,0.0
661,200.0
690,0.0
716,66.40595497137657
843,-885.4250783566658
844,-885.4250783566658
907,0.0
908,0.0
971,0.0
972,0.0
1195,0.0
1197,0.0
2,4, 1, 4, 0,18, 0.00,60.00,Thursday
7,8.0
718,20.735468187193582
719,11.889586731632866
720,15.162886766981478
619,0.0
633,0.0
659,0.0
661,200.0
690,0.0
716,0.0
843,-884.7936334434726
844,-884.7936334434726
907,0.0
908,0.0
971,0.0
972,0.0
1195,0.0
1197,0.0
2,4, 1, 4, 0,19, 0.00,60.00,Thursday
7,8.3
718,19.43793584572671
719,10.096422439097724
720,15.188849720188154
619,0.0
633,0.0
659,0.0
661,200.0
690,0.0
716,85.44000000000004
843,-701.4233292776917
844,-701.4233292776917
907,0.0
908,0.0
971,0.0
972,0.0
1195,0.0
1197,0.0
2,4, 1, 4, 0,20, 0.00,60.00,Thursday
7,8.9
718,19.8574284439209
719,9.546706108635691
720,15.201862053838884
619,0.0
633,0.0
659,0.0
661,200.0
690,0.0
716,47.147091080009936
843,-800.3355815346076
844,-800.3355815346076
907,0.0
908,0.0
971,0.0
972,0.0
1195,0.0
1197,0.0
2,4, 1, 4, 0,21, 0.00,60.00,Thursday
7,8.9
718,20.63671655314628
719,9.177886412493093
720,15.203525127734032
619,0.0
633,0.0
659,0.0
661,200.0
690,0.0
716,0.0
843,-693.6667324147566
844,-693.6667324147566
907,0.0
908,0.0
971,0.0
972,0.0
1195,0.0
1197,0.0
2,4, 1, 4, 0,22, 0.00,60.00,Thursday
7,8.3
718,20.687954081452474
719,8.612824849207325
720,15.193763686813957
619,0.0
633,0.0
659,0.0
661,200.0
690,0.0
716,0.0
843,-435.13181314310077
844,-435.13181314310077
907,0.0
908,0.0
971,0.0
972,0.0
1195,0.0
1197,0.0
2,4, 1, 4, 0,23, 0.00,60.00,Thursday
7,8.3
718,20.259273544278205
719,8.305145876404113
720,15.176172627262353
619,0.0
633,0.0
659,0.0
661,200.0
690,0.0
716,0.0
843,-918.8696625707726
844,-918.8696625707726
907,0.0
908,0.0
971,0.0
972,0.0
1195,0.0
1197,0.0
2,4, 1, 4, 0,24, 0.00,60.00,Thursday
7,7.2
718,19.59688135806176
719,7.376393578613995
720,15.153984703963022
619,0.0
633,0.0
659,0.0
661,200.0
690,0.0
716,0.0
843,-469.1055591130498
844,-469.1055591130498
907,0.0
908,0.0
971,0.0
972,0.0
1195,0.0
1197,0.0
2,5, 1, 5, 0, 1, 0.00,60.00,Friday
7,6.0
718,18.72100733916817
719,6.290990861957673
720,15.12329172035948
619,0.0
633,0.0
659,0.0
661,200.0
690,0.0
716,0.0
843,-48.62407567200535
844,-48.62407567200535
907,0.0
908,0.0
971,0.0
972,0.0
1195,0.0
1197,0.0
2,5, 1, 5, 0, 2, 0.00,60.00,Friday
7,5.6
718,18.59515307531784
719,4.59988532108247
720,15.102705112455325
619,357.6081729951151
633,97.98479533288942
659,0.0
661,176.14162364965406
690,9.0806672244612
716,0.0
843,238.64162617024704
844,238.64162617024704
907,0.0
908,0.0
971,0.0
972,0.0
1195,0.0
1197,0.0
2,5, 1, 5, 0, 3, 0.00,60.00,Friday
7,5.0
718,18.563469198518273
719,4.397701869904535
720,15.076459419362678
619,665.0640312234003
633,196.83654686699015
659,19.62733779023271
661,141.9206348971631
690,22.01888162188436
716,0.0
843,400.0763229906115
844,400.0763229906115