Program Version,EnergyPlus, Version 22.2.0-c249759bad, YMD=2023.08.02 11:13
1,5,Environment Title[],Latitude[deg],Longitude[deg],Time Zone[],Elevation[m]
2,8,Day of Simulation[],Month[],Day of Month[],DST Indicator[1=yes 0=no],Hour[],StartMinute[],EndMinute[],DayType
3,5,Cumulative Day of Simulation[],Month[],Day of Month[],DST Indicator[1=yes 0=no],DayType  ! When Daily Report Variables Requested
4,2,Cumulative Days of Simulation[],Month[]  ! When Monthly Report Variables Requested
5,1,Cumulative Days of Simulation[] ! When Run Period Report Variables Requested
6,1,Calendar Year of Simulation[] ! When Annual Report Variables Requested
671,11,LIVING,AFN Zone Infiltration Air Change Rate [ach] !RunPeriod [Value,Min,Month,Day,Hour,Minute,Max,Month,Day,Hour,Minute]
672,11,ATTIC,AFN Zone Infiltration Air Change Rate [ach] !RunPeriod [Value,Min,Month,Day,Hour,Minute,Max,Month,Day,Hour,Minute]
673,11,CRAWLSPACE,AFN Zone Infiltration Air Change Rate [ach] !RunPeriod [Value,Min,Month,Day,Hour,Minute,Max,Month,Day,Hour,Minute]
1116,11,Facility,Facility Heating Setpoint Not Met Time [hr] !RunPeriod [Value,Min,Month,Day,Hour,Minute,Max,Month,Day,Hour,Minute]
1117,11,Facility,Facility Cooling Setpoint Not Met Time [hr] !RunPeriod [Value,Min,Month,Day,Hour,Minute,Max,Month,Day,Hour,Minute]
1143,11,HEATING_FUEL_MAIN,Heating Coil Heating Energy [J] !RunPeriod [Value,Min,Month,Day,Hour,Minute,Max,Month,Day,Hour,Minute]
1193,11,HEATING_FUEL_MAIN,Heating Coil Electricity Energy [J] !RunPeriod [Value,Min,Month,Day,Hour,Minute,Max,Month,Day,Hour,Minute]
13,11,Electricity:Facility [J] !RunPeriod [Value,Min,Month,Day,Hour,Minute,Max,Month,Day,Hour,Minute]
1199,11,Heating:Electricity [J] !RunPeriod [Value,Min,Month,Day,Hour,Minute,Max,Month,Day,Hour,Minute]
599,11,Cooling:Electricity [J] !RunPeriod [Value,Min,Month,Day,Hour,Minute,Max,Month,Day,Hour,Minute]
651,11,Fans:Electricity [J] !RunPeriod [Value,Min,Month,Day,Hour,Minute,Max,Month,Day,Hour,Minute]
1405,11,Pumps:Electricity [J] !RunPeriod [Value,Min,Month,Day,Hour,Minute,Max,Month,Day,Hour,Minute]
637,11,WaterSystems:Electricity [J] !RunPeriod [Value,Min,Month,Day,Hour,Minute,Max,Month,Day,Hour,Minute]
61,11,InteriorLights:Electricity [J] !RunPeriod [Value,Min,Month,Day,Hour,Minute,Max,Month,Day,Hour,Minute]
1124,11,ExteriorLights:Electricity [J] !RunPeriod [Value,Min,Month,Day,Hour,Minute,Max,Month,Day,Hour,Minute]
134,11,InteriorEquipment:Electricity [J] !RunPeriod [Value,Min,Month,Day,Hour,Minute,Max,Month,Day,Hour,Minute]
170,11,gas_dryer:InteriorEquipment:Electricity [J] !RunPeriod [Value,Min,Month,Day,Hour,Minute,Max,Month,Day,Hour,Minute]
207,11,clotheswasher:InteriorEquipment:Electricity [J] !RunPeriod [Value,Min,Month,Day,Hour,Minute,Max,Month,Day,Hour,Minute]
244,11,dishwasher:InteriorEquipment:Electricity [J] !RunPeriod [Value,Min,Month,Day,Hour,Minute,Max,Month,Day,Hour,Minute]
281,11,refrigerator:InteriorEquipment:Electricity [J] !RunPeriod [Value,Min,Month,Day,Hour,Minute,Max,Month,Day,Hour,Minute]
318,11,electric_mels:InteriorEquipment:Electricity [J] !RunPeriod [Value,Min,Month,Day,Hour,Minute,Max,Month,Day,Hour,Minute]
355,11,NaturalGas:Facility [J] !RunPeriod [Value,Min,Month,Day,Hour,Minute,Max,Month,Day,Hour,Minute]
1174,11,Heating:NaturalGas [J] !RunPeriod [Value,Min,Month,Day,Hour,Minute,Max,Month,Day,Hour,Minute]
403,11,InteriorEquipment:NaturalGas [J] !RunPeriod [Value,Min,Month,Day,Hour,Minute,Max,Month,Day,Hour,Minute]
476,11,gas_dryer:InteriorEquipment:NaturalGas [J] !RunPeriod [Value,Min,Month,Day,Hour,Minute,Max,Month,Day,Hour,Minute]
513,11,gas_mels:InteriorEquipment:NaturalGas [J] !RunPeriod [Value,Min,Month,Day,Hour,Minute,Max,Month,Day,Hour,Minute]
End of Data Dictionary
1,EXTREME_WINTER,  39.10, -84.42,  -5.00, 149.40
5,7
1116,36.5,0.0, 1,15, 1,10,0.16666666666666666, 1,15, 6,10
1117,0.0,0.0, 1,15, 1,10,0.0, 1,15, 1,10
671,0.2726707336549019,0.18208177274062087, 1,17, 4,60,0.4246415109608017, 1,17,24,15
672,3.021397461303249,0.0, 1,15, 3,60,12.1908652457607, 1,17,24,55
673,3.6437686914364895,0.00023658588773543184, 1,18,23, 5,11.438473953743317, 1,17,24,15
1143,2044425722.7742093,0.0, 1,15,16,15,3607136.3532874403, 1,15, 6,10
1193,0.0,0.0, 1,15, 1,10,0.0, 1,15, 1,10
13,484942400.4648892,138380.5705393697, 1,17, 1,10,1296487.656604542, 1,20,20,60
61,301924526.0238348,58759.40635443481, 1,15, 1,10,854682.2742463244, 1,15,20,10
134,70666020.44019979,42376.01200569399, 1,15, 4,10,104369.48322671017, 1,20,20,10
170,5241013.419656074,232.27731661587313, 1,15, 4,10,11650.931360040839, 1,20,12,10
207,6509451.13922266,543.5021409221355, 1,15, 3,10,15327.095199349082, 1,20,10,10
244,12749673.39982522,1014.5707620042115, 1,15, 4,10,35359.08742820678, 1,20,20,10
281,46165882.48149605,39959.06841621388, 1,15, 5,10,54634.54471212738, 1,15,19,10
318,0.0,0.0, 1,15, 1,10,0.0, 1,15, 1,10
355,2753219949.745234,137769.5713143841, 1,16,23,10,4853441.516965207, 1,20,12,10
403,197687796.27748126,12374.216038804521, 1,15, 4,10,483183.26346918393, 1,20,18,10
476,106772067.24485692,4732.048419519677, 1,15, 4,10,237357.535085481, 1,20,12,10
513,0.0,0.0, 1,15, 1,10,0.0, 1,15, 1,10
599,0.0,0.0, 1,15, 1,10,0.0, 1,15, 1,10
637,50939669.73984617,5100.0, 1,15, 1,10,230557.84918499808, 1,18,14,40
651,61412184.26100705,0.0, 1,15,16,30,138419.82887825574, 1,15, 8,40
1124,0.0,0.0, 1,15, 1,10,0.0, 1,15, 1,10
1174,2555532153.467769,0.0, 1,15,16,30,4508920.441609301, 1,15, 6,10
1199,0.0,0.0, 1,15, 1,10,0.0, 1,15, 1,10
1405,0.0,0.0, 1,15, 1,10,0.0, 1,15, 1,10
1,EXTREME_SUMMER,  39.10, -84.42,  -5.00, 149.40
5,7
1116,0.0,0.0, 7,15, 1,10,0.0, 7,15, 1,10
1117,34.166666666666664,0.0, 7,15, 1,10,0.16666666666666666, 7,15,14,30
671,0.039063965217617604,0.0, 7,15, 1,10,0.40467070690897494, 7,20,16,52
672,1.6918459602900415,0.0, 7,16,21,40,8.725204665642389, 7,20,16,52
673,1.7597594367023757,0.0, 7,15, 6, 7,10.142004104734234, 7,20,16,52
1143,0.0,0.0, 7,15, 1,10,0.0, 7,15, 1,10
1193,0.0,0.0, 7,15, 1,10,0.0, 7,15, 1,10
13,871679684.4697498,106235.4183601288, 7,16, 4,10,2045608.3747667389, 7,16,20,30
61,301924526.0238348,58759.40635443481, 7,15, 1,10,854682.2742463244, 7,15,20,10
134,70666020.44019979,42376.01200569399, 7,15, 4,10,104369.48322671017, 7,20,20,10
170,5241013.419656074,232.27731661587313, 7,15, 4,10,11650.931360040839, 7,20,12,10
207,6509451.13922266,543.5021409221355, 7,15, 3,10,15327.095199349082, 7,20,10,10
244,12749673.39982522,1014.5707620042115, 7,15, 4,10,35359.08742820678, 7,20,20,10
281,46165882.48149605,39959.06841621388, 7,15, 5,10,54634.54471212738, 7,15,19,10
318,0.0,0.0, 7,15, 1,10,0.0, 7,15, 1,10
355,197687796.27748126,12374.216038804521, 7,15, 4,10,483183.26346918393, 7,20,18,10
403,197687796.27748126,12374.216038804521, 7,15, 4,10,483183.26346918393, 7,20,18,10
476,106772067.24485692,4732.048419519677, 7,15, 4,10,237357.535085481, 7,20,12,10
513,0.0,0.0, 7,15, 1,10,0.0, 7,15, 1,10
599,410768679.37543,0.0, 7,16, 3,40,856213.8244356769, 7,16,15,60
637,34561610.58664612,5100.0, 7,15, 1,10,253168.89830113412, 7,18,12,40
651,53758848.04363861,0.0, 7,16, 4,10,138419.82887825574, 7,15,19,20
1124,0.0,0.0, 7,15, 1,10,0.0, 7,15, 1,10
1174,0.0,0.0, 7,15, 1,10,0.0, 7,15, 1,10
1199,0.0,0.0, 7,15, 1,10,0.0, 7,15, 1,10
1405,0.0,0.0, 7,15, 1,10,0.0, 7,15, 1,10
1,ANNUAL,  39.10, -84.42,  -5.00, 149.40
5,365
1116,292.16666666666623,0.0, 1, 1, 1,40,0.16666666666666666, 1, 1, 1,10
1117,472.8333333333334,0.0, 1, 1, 1,10,0.16666666666666666, 5,12,16,40
671,0.18517051855945285,0.0, 4,21, 9,22,1.224947975893167, 2,18,22,60
672,3.055737209027475,0.0, 1, 3,22,60,27.73681742996844, 1,29,21,60
673,3.5927170825333157,0.0, 4,21,10,11,34.16561787410629, 2,18,22,60
1143,28980169472.516052,0.0, 1, 1,23, 2,3607136.3532874403, 1, 1,14,40
1193,0.0,0.0, 1, 1, 1, 1,0.0, 1, 1, 1, 1
13,31364846786.632763,106235.4183601288, 3, 6, 4,10,2127443.867768592, 8, 5,20,20
61,15743207428.39043,58759.40635443481, 1, 1, 1,10,854682.2742463244, 1, 1,20,10
134,3685071073.433083,42376.01200569399, 1, 2, 4,10,104369.48322671017, 1, 1,20,10
170,273393721.45534325,232.27731661587313, 1, 2, 4,10,11650.931360040839, 1, 1,12,10
207,339560869.06955314,543.5021409221355, 1, 2, 3,10,15327.095199349082, 1, 1,10,10
244,664895467.8009839,1014.5707620042115, 1, 2, 4,10,35359.08742820678, 1, 1,20,10
281,2407221015.1057043,39959.06841621388, 1, 1, 5,10,54634.54471212738, 1, 1,19,10
318,0.0,0.0, 1, 1, 1,10,0.0, 1, 1, 1,10
355,46535506333.69404,12374.216038804521, 3, 6, 4,10,4884578.215954304, 1, 2,19,20
403,10310294493.052883,12374.216038804521, 1, 2, 4,10,483183.26346918393, 1, 1,18,10
476,5569688622.065564,4732.048419519677, 1, 2, 4,10,237357.535085481, 1, 1,12,10
513,0.0,0.0, 1, 1, 1,10,0.0, 1, 1, 1,10
599,7675459481.135171,0.0, 1, 1, 1,10,889469.1198955899, 8, 9,14,60
637,2161608507.654384,5100.0, 1, 1, 1,10,257114.03665590298, 4,29,12,60
651,2099500296.0247223,0.0, 1, 5,23,10,138419.82887825576, 8,31,19,50
1124,0.0,0.0, 1, 1, 1,10,0.0, 1, 1, 1,10
1174,36225211840.64441,0.0, 1, 5,23,10,4508920.441609301, 1, 1, 1,10
1199,0.0,0.0, 1, 1, 1,10,0.0, 1, 1, 1,10
1405,0.0,0.0, 1, 1, 1,10,0.0, 1, 1, 1,10
End of Data
 Number of Records Written=          78
