Program Version,EnergyPlus, Version 22.2.0-c249759bad, YMD=2023.08.02 10:54
1,5,Environment Title[],Latitude[deg],Longitude[deg],Time Zone[],Elevation[m]
2,8,Day of Simulation[],Month[],Day of Month[],DST Indicator[1=yes 0=no],Hour[],StartMinute[],EndMinute[],DayType
3,5,Cumulative Day of Simulation[],Month[],Day of Month[],DST Indicator[1=yes 0=no],DayType  ! When Daily Report Variables Requested
4,2,Cumulative Days of Simulation[],Month[]  ! When Monthly Report Variables Requested
5,1,Cumulative Days of Simulation[] ! When Run Period Report Variables Requested
6,1,Calendar Year of Simulation[] ! When Annual Report Variables Requested
581,11,LIVING,AFN Zone Infiltration Air Change Rate [ach] !RunPeriod [Value,Min,Month,Day,Hour,Minute,Max,Month,Day,Hour,Minute]
582,11,ATTIC,AFN Zone Infiltration Air Change Rate [ach] !RunPeriod [Value,Min,Month,Day,Hour,Minute,Max,Month,Day,Hour,Minute]
583,11,CRAWLSPACE,AFN Zone Infiltration Air Change Rate [ach] !RunPeriod [Value,Min,Month,Day,Hour,Minute,Max,Month,Day,Hour,Minute]
1038,11,Facility,Facility Heating Setpoint Not Met Time [hr] !RunPeriod [Value,Min,Month,Day,Hour,Minute,Max,Month,Day,Hour,Minute]
1039,11,Facility,Facility Cooling Setpoint Not Met Time [hr] !RunPeriod [Value,Min,Month,Day,Hour,Minute,Max,Month,Day,Hour,Minute]
1127,11,HEATING_FUEL_MAIN,Heating Coil Electricity Energy [J] !RunPeriod [Value,Min,Month,Day,Hour,Minute,Max,Month,Day,Hour,Minute]
13,11,Electricity:Facility [J] !RunPeriod [Value,Min,Month,Day,Hour,Minute,Max,Month,Day,Hour,Minute]
1133,11,Heating:Electricity [J] !RunPeriod [Value,Min,Month,Day,Hour,Minute,Max,Month,Day,Hour,Minute]
1172,11,Cooling:Electricity [J] !RunPeriod [Value,Min,Month,Day,Hour,Minute,Max,Month,Day,Hour,Minute]
562,11,Fans:Electricity [J] !RunPeriod [Value,Min,Month,Day,Hour,Minute,Max,Month,Day,Hour,Minute]
1422,11,Pumps:Electricity [J] !RunPeriod [Value,Min,Month,Day,Hour,Minute,Max,Month,Day,Hour,Minute]
61,11,InteriorLights:Electricity [J] !RunPeriod [Value,Min,Month,Day,Hour,Minute,Max,Month,Day,Hour,Minute]
1046,11,ExteriorLights:Electricity [J] !RunPeriod [Value,Min,Month,Day,Hour,Minute,Max,Month,Day,Hour,Minute]
134,11,InteriorEquipment:Electricity [J] !RunPeriod [Value,Min,Month,Day,Hour,Minute,Max,Month,Day,Hour,Minute]
170,11,gas_dryer:InteriorEquipment:Electricity [J] !RunPeriod [Value,Min,Month,Day,Hour,Minute,Max,Month,Day,Hour,Minute]
207,11,clotheswasher:InteriorEquipment:Electricity [J] !RunPeriod [Value,Min,Month,Day,Hour,Minute,Max,Month,Day,Hour,Minute]
244,11,dishwasher:InteriorEquipment:Electricity [J] !RunPeriod [Value,Min,Month,Day,Hour,Minute,Max,Month,Day,Hour,Minute]
281,11,refrigerator:InteriorEquipment:Electricity [J] !RunPeriod [Value,Min,Month,Day,Hour,Minute,Max,Month,Day,Hour,Minute]
318,11,electric_mels:InteriorEquipment:Electricity [J] !RunPeriod [Value,Min,Month,Day,Hour,Minute,Max,Month,Day,Hour,Minute]
355,11,NaturalGas:Facility [J] !RunPeriod [Value,Min,Month,Day,Hour,Minute,Max,Month,Day,Hour,Minute]
1108,11,Heating:NaturalGas [J] !RunPeriod [Value,Min,Month,Day,Hour,Minute,Max,Month,Day,Hour,Minute]
1357,11,WaterSystems:NaturalGas [J] !RunPeriod [Value,Min,Month,Day,Hour,Minute,Max,Month,Day,Hour,Minute]
403,11,InteriorEquipment:NaturalGas [J] !RunPeriod [Value,Min,Month,Day,Hour,Minute,Max,Month,Day,Hour,Minute]
476,11,gas_dryer:InteriorEquipment:NaturalGas [J] !RunPeriod [Value,Min,Month,Day,Hour,Minute,Max,Month,Day,Hour,Minute]
513,11,gas_mels:InteriorEquipment:NaturalGas [J] !RunPeriod [Value,Min,Month,Day,Hour,Minute,Max,Month,Day,Hour,Minute]
End of Data Dictionary
1,EXTREME_WINTER,  39.10, -84.42,  -5.00, 149.40
5,7
1038,30.0,0.0, 1,15, 1,10,0.16666666666666666, 1,15, 6,10
1039,0.0,0.0, 1,15, 1,10,0.0, 1,15, 1,10
581,0.2723541948866145,0.1784258183748441, 1,16,19,60,0.4245228627031965, 1,17,24,15
582,3.0201617724255105,0.0, 1,15, 3,60,12.182667512641727, 1,17,24,55
583,3.646661035736422,0.0002666849142832774, 1,16,17,55,11.445630238049368, 1,17,24,15
1127,0.0,0.0, 1,15, 1,10,0.0, 1,15, 1,10
13,418233574.17316985,132715.4835499508, 1,17, 1,10,1024647.5959516873, 1,19,21,60
61,301924526.0238348,58759.40635443481, 1,15, 1,10,854682.2742463244, 1,15,20,10
134,70666020.44019979,42376.01200569399, 1,15, 4,10,104369.48322671017, 1,20,20,10
170,5241013.419656074,232.27731661587313, 1,15, 4,10,11650.931360040839, 1,20,12,10
207,6509451.13922266,543.5021409221355, 1,15, 3,10,15327.095199349082, 1,20,10,10
244,12749673.39982522,1014.5707620042115, 1,15, 4,10,35359.08742820678, 1,20,20,10
281,46165882.48149605,39959.06841621388, 1,15, 5,10,54634.54471212738, 1,15,19,10
318,0.0,0.0, 1,15, 1,10,0.0, 1,15, 1,10
355,2779340466.6043296,137769.5713143841, 1,16,23,20,14097518.552560493, 1,20,10,30
403,197687796.27748126,12374.216038804521, 1,15, 4,10,483183.26346918393, 1,20,18,10
476,106772067.24485692,4732.048419519677, 1,15, 4,10,237357.535085481, 1,20,12,10
513,0.0,0.0, 1,15, 1,10,0.0, 1,15, 1,10
562,45643027.70913441,0.0, 1,15,16,10,88836.84508094499, 1,15, 6,10
1046,0.0,0.0, 1,15, 1,10,0.0, 1,15, 1,10
1108,2273325785.06464,0.0, 1,15,16,10,4424664.636037903, 1,15, 6,10
1133,0.0,0.0, 1,15, 1,10,0.0, 1,15, 1,10
1172,0.0,0.0, 1,15, 1,10,0.0, 1,15, 1,10
1357,308326885.2621911,0.0, 1,15, 1,10,9369600.0, 1,15, 6,60
1422,0.0,0.0, 1,15, 1,10,0.0, 1,15, 1,10
1,EXTREME_SUMMER,  39.10, -84.42,  -5.00, 149.40
5,7
1038,0.0,0.0, 7,15, 1,10,0.0, 7,15, 1,10
1039,33.333333333333336,0.0, 7,15, 1,10,0.16666666666666666, 7,15,14,40
581,0.03834996706669798,0.0, 7,15, 1,10,0.40435378841071623, 7,20,16,52
582,1.6797470338604925,0.0, 7,16,21,30,8.723336244451188, 7,20,16,52
583,1.777662922209007,0.0, 7,15, 6, 7,10.144292270737752, 7,20,16,52
1127,0.0,0.0, 7,15, 1,10,0.0, 7,15, 1,10
13,864802484.1873459,104022.92669249843, 7,19, 4,60,1816025.3544232342, 7,15,20,10
61,301924526.0238348,58759.40635443481, 7,15, 1,10,854682.2742463244, 7,15,20,10
134,70666020.44019979,42376.01200569399, 7,15, 4,10,104369.48322671017, 7,20,20,10
170,5241013.419656074,232.27731661587313, 7,15, 4,10,11650.931360040839, 7,20,12,10
207,6509451.13922266,543.5021409221355, 7,15, 3,10,15327.095199349082, 7,20,10,10
244,12749673.39982522,1014.5707620042115, 7,15, 4,10,35359.08742820678, 7,20,20,10
281,46165882.48149605,39959.06841621388, 7,15, 5,10,54634.54471212738, 7,15,19,10
318,0.0,0.0, 7,15, 1,10,0.0, 7,15, 1,10
355,442606683.694526,12374.216038804521, 7,15, 4,10,8301918.829702353, 7,20,10,30
403,197687796.27748126,12374.216038804521, 7,15, 4,10,483183.26346918393, 7,20,18,10
476,106772067.24485692,4732.048419519677, 7,15, 4,10,237357.535085481, 7,20,12,10
513,0.0,0.0, 7,15, 1,10,0.0, 7,15, 1,10
562,50705439.91293782,0.0, 7,16, 6,20,88836.845080945, 7,18,16,50
1046,0.0,0.0, 7,15, 1,10,0.0, 7,15, 1,10
1108,0.0,0.0, 7,15, 1,10,0.0, 7,15, 1,10
1133,0.0,0.0, 7,15, 1,10,0.0, 7,15, 1,10
1172,441506497.81037253,0.0, 7,16, 6,20,872274.5313769623, 7,16,15,60
1357,244918887.4170463,0.0, 7,15, 1,10,8140583.202339892, 7,16, 7,20
1422,0.0,0.0, 7,15, 1,10,0.0, 7,15, 1,10
1,ANNUAL,  39.10, -84.42,  -5.00, 149.40
5,365
1038,230.6666666666661,0.0, 1, 1, 1,40,0.16666666666666666, 1, 1, 1,10
1039,479.6666666666668,0.0, 1, 1, 1,10,0.16666666666666666, 4, 8,13,60
581,0.18459824788595744,0.0, 5, 7, 8,32,1.2403963796649682, 2,18,22,55
582,3.051228811124897,0.0, 1, 3,22,60,27.726733636437846, 1,29,21,60
583,3.5971317066432604,0.0, 6, 8,23, 3,33.730216757975285, 4,29,17,52
1127,0.0,0.0, 1, 1, 1, 1,0.0, 1, 1, 1, 1
13,29535548520.32691,101135.4183601288, 3, 6, 4,10,1847509.62265427, 8, 5,20,10
61,15743207428.39043,58759.40635443481, 1, 1, 1,10,854682.2742463244, 1, 1,20,10
134,3685071073.433083,42376.01200569399, 1, 2, 4,10,104369.48322671017, 1, 1,20,10
170,273393721.45534325,232.27731661587313, 1, 2, 4,10,11650.931360040839, 1, 1,12,10
207,339560869.06955314,543.5021409221355, 1, 2, 3,10,15327.095199349082, 1, 1,10,10
244,664895467.8009839,1014.5707620042115, 1, 2, 4,10,35359.08742820678, 1, 1,20,10
281,2407221015.1057043,39959.06841621388, 1, 1, 5,10,54634.54471212738, 1, 1,19,10
318,0.0,0.0, 1, 1, 1,10,0.0, 1, 1, 1,10
355,55082780734.77076,12374.216038804521, 3, 6, 4,10,14097518.552560493,12,16,10,30
403,10310294493.052883,12374.216038804521, 1, 2, 4,10,483183.26346918393, 1, 1,18,10
476,5569688622.065564,4732.048419519677, 1, 2, 4,10,237357.535085481, 1, 1,12,10
513,0.0,0.0, 1, 1, 1,10,0.0, 1, 1, 1,10
562,1651390213.2053401,0.0, 1, 4,15,30,88836.845080945, 1, 1, 1,10
1046,0.0,0.0, 1, 1, 1,10,0.0, 1, 1, 1,10
1108,30370644821.703373,0.0, 1, 4,15,30,4424664.636037903, 1, 1, 1,10
1133,0.0,0.0, 1, 1, 1,10,0.0, 1, 1, 1,10
1172,8455879805.303632,0.0, 1, 1, 1,10,906263.5268894989, 8, 9,14,60
1357,14401841420.015766,0.0, 1, 1, 1,10,9369600.0, 1, 3, 7,20
1422,0.0,0.0, 1, 1, 1,10,0.0, 1, 1, 1,10
End of Data
 Number of Records Written=          75
