Program Version,EnergyPlus, Version 22.2.0-c249759bad, YMD=2023.08.31 13:10
1,5,Environment Title[],Latitude[deg],Longitude[deg],Time Zone[],Elevation[m]
2,8,Day of Simulation[],Month[],Day of Month[],DST Indicator[1=yes 0=no],Hour[],StartMinute[],EndMinute[],DayType
3,5,Cumulative Day of Simulation[],Month[],Day of Month[],DST Indicator[1=yes 0=no],DayType  ! When Daily Report Variables Requested
4,2,Cumulative Days of Simulation[],Month[]  ! When Monthly Report Variables Requested
5,1,Cumulative Days of Simulation[] ! When Run Period Report Variables Requested
6,1,Calendar Year of Simulation[] ! When Annual Report Variables Requested
581,11,LIVING,AFN Zone Infiltration Air Change Rate [ach] !RunPeriod [Value,Min,Month,Day,Hour,Minute,Max,Month,Day,Hour,Minute]
582,11,ATTIC,AFN Zone Infiltration Air Change Rate [ach] !RunPeriod [Value,Min,Month,Day,Hour,Minute,Max,Month,Day,Hour,Minute]
583,11,CRAWLSPACE,AFN Zone Infiltration Air Change Rate [ach] !RunPeriod [Value,Min,Month,Day,Hour,Minute,Max,Month,Day,Hour,Minute]
1038,11,Facility,Facility Heating Setpoint Not Met Time [hr] !RunPeriod [Value,Min,Month,Day,Hour,Minute,Max,Month,Day,Hour,Minute]
1039,11,Facility,Facility Cooling Setpoint Not Met Time [hr] !RunPeriod [Value,Min,Month,Day,Hour,Minute,Max,Month,Day,Hour,Minute]
1115,11,DX_HEATING_COIL,Heating Coil Heating Energy [J] !RunPeriod [Value,Min,Month,Day,Hour,Minute,Max,Month,Day,Hour,Minute]
1128,11,DX_HEATING_COIL,Heating Coil Electricity Energy [J] !RunPeriod [Value,Min,Month,Day,Hour,Minute,Max,Month,Day,Hour,Minute]
1153,11,DX_HEATING_COIL,Heating Coil Defrost Electricity Energy [J] !RunPeriod [Value,Min,Month,Day,Hour,Minute,Max,Month,Day,Hour,Minute]
1154,11,DX_HEATING_COIL,Heating Coil Crankcase Heater Electricity Energy [J] !RunPeriod [Value,Min,Month,Day,Hour,Minute,Max,Month,Day,Hour,Minute]
1155,11,HEATING_RESISTANCE_BACKUP,Heating Coil Heating Energy [J] !RunPeriod [Value,Min,Month,Day,Hour,Minute,Max,Month,Day,Hour,Minute]
1156,11,HEATING_RESISTANCE_BACKUP,Heating Coil Electricity Energy [J] !RunPeriod [Value,Min,Month,Day,Hour,Minute,Max,Month,Day,Hour,Minute]
1305,11,WATER HEATER,Water Heater Heating Energy [J] !RunPeriod [Value,Min,Month,Day,Hour,Minute,Max,Month,Day,Hour,Minute]
13,11,Electricity:Facility [J] !RunPeriod [Value,Min,Month,Day,Hour,Minute,Max,Month,Day,Hour,Minute]
1134,11,Heating:Electricity [J] !RunPeriod [Value,Min,Month,Day,Hour,Minute,Max,Month,Day,Hour,Minute]
1096,11,Cooling:Electricity [J] !RunPeriod [Value,Min,Month,Day,Hour,Minute,Max,Month,Day,Hour,Minute]
562,11,Fans:Electricity [J] !RunPeriod [Value,Min,Month,Day,Hour,Minute,Max,Month,Day,Hour,Minute]
1353,11,Pumps:Electricity [J] !RunPeriod [Value,Min,Month,Day,Hour,Minute,Max,Month,Day,Hour,Minute]
1324,11,WaterSystems:Electricity [J] !RunPeriod [Value,Min,Month,Day,Hour,Minute,Max,Month,Day,Hour,Minute]
61,11,InteriorLights:Electricity [J] !RunPeriod [Value,Min,Month,Day,Hour,Minute,Max,Month,Day,Hour,Minute]
1046,11,ExteriorLights:Electricity [J] !RunPeriod [Value,Min,Month,Day,Hour,Minute,Max,Month,Day,Hour,Minute]
134,11,InteriorEquipment:Electricity [J] !RunPeriod [Value,Min,Month,Day,Hour,Minute,Max,Month,Day,Hour,Minute]
170,11,gas_dryer:InteriorEquipment:Electricity [J] !RunPeriod [Value,Min,Month,Day,Hour,Minute,Max,Month,Day,Hour,Minute]
207,11,clotheswasher:InteriorEquipment:Electricity [J] !RunPeriod [Value,Min,Month,Day,Hour,Minute,Max,Month,Day,Hour,Minute]
244,11,dishwasher:InteriorEquipment:Electricity [J] !RunPeriod [Value,Min,Month,Day,Hour,Minute,Max,Month,Day,Hour,Minute]
281,11,refrigerator:InteriorEquipment:Electricity [J] !RunPeriod [Value,Min,Month,Day,Hour,Minute,Max,Month,Day,Hour,Minute]
318,11,electric_mels:InteriorEquipment:Electricity [J] !RunPeriod [Value,Min,Month,Day,Hour,Minute,Max,Month,Day,Hour,Minute]
355,11,NaturalGas:Facility [J] !RunPeriod [Value,Min,Month,Day,Hour,Minute,Max,Month,Day,Hour,Minute]
403,11,InteriorEquipment:NaturalGas [J] !RunPeriod [Value,Min,Month,Day,Hour,Minute,Max,Month,Day,Hour,Minute]
476,11,gas_dryer:InteriorEquipment:NaturalGas [J] !RunPeriod [Value,Min,Month,Day,Hour,Minute,Max,Month,Day,Hour,Minute]
513,11,gas_mels:InteriorEquipment:NaturalGas [J] !RunPeriod [Value,Min,Month,Day,Hour,Minute,Max,Month,Day,Hour,Minute]
End of Data Dictionary
1,EXTREME_WINTER,  25.79, -80.32,  -5.00,   8.80
5,7
1038,0.0,0.0, 1,15, 1,15,0.0, 1,15, 1,15
1039,0.0,0.0, 1,15, 1,15,0.0, 1,15, 1,15
581,0.21128543773028702,0.0, 1,15,19,37,0.4044234496807315, 1,18, 8,60
582,3.984205917051107,0.07942040866814339, 1,15,19,60,8.326351658104306, 1,16,12,60
583,5.088678135181547,0.3066532979773386, 1,15,19,60,11.02262402533001, 1,16,12,60
1115,0.0,0.0, 1,15, 1,15,0.0, 1,15, 1,15
1128,0.0,0.0, 1,15, 1,15,0.0, 1,15, 1,15
1153,0.0,0.0, 1,15, 1,15,0.0, 1,15, 1,15
1154,0.0,0.0, 1,15, 1,15,0.0, 1,15, 1,15
1155,0.0,0.0, 1,15, 1,15,0.0, 1,15, 1,15
1156,0.0,0.0, 1,15, 1,15,0.0, 1,15, 1,15
1305,285111675.9827515,0.0, 1,15, 1,15,4050000.000000001, 1,15, 9,60
13,832334496.4296625,159173.1275401932, 1,17, 4,15,6034695.87729499, 1,21,21,15
61,301924526.02383536,88139.10953165221, 1,15, 1,15,1282023.4113694867, 1,15,20,15
134,70666020.44019976,63564.01800854099, 1,15, 4,15,156554.22484006523, 1,20,20,15
170,5241013.419656067,348.4159749238097, 1,15, 4,15,17476.39704006126, 1,20,12,15
207,6509451.13922267,815.2532113832032, 1,15, 3,15,22990.642799023623, 1,20,10,15
244,12749673.399825225,1521.856143006317, 1,15, 4,15,53038.631142310165, 1,20,20,15
281,46165882.481495745,59938.60262432081, 1,15, 5,15,81951.81706819107, 1,15,19,15
318,0.0,0.0, 1,15, 1,15,0.0, 1,15, 1,15
355,197687796.27748066,18561.32405820678, 1,15, 4,15,724774.895203776, 1,20,18,15
403,197687796.27748066,18561.32405820678, 1,15, 4,15,724774.895203776, 1,20,18,15
476,106772067.24485716,7098.072629279515, 1,15, 4,15,356036.3026282215, 1,20,12,15
513,0.0,0.0, 1,15, 1,15,0.0, 1,15, 1,15
562,18673977.913593426,0.0, 1,16, 4,60,118938.22023292352, 1,21,17,30
1046,0.0,0.0, 1,15, 1,15,0.0, 1,15, 1,15
1096,150938456.06928405,0.0, 1,16, 4,60,1030381.9005606303, 1,21,17,30
1134,0.0,0.0, 1,15, 1,15,0.0, 1,15, 1,15
1324,290131515.9827515,7469.999999999999, 1,19,11,30,4057470.000000001, 1,15, 9,60
1353,0.0,0.0, 1,15, 1,15,0.0, 1,15, 1,15
1,EXTREME_SUMMER,  25.79, -80.32,  -5.00,   8.80
5,7
1038,0.0,0.0, 7,23, 1,15,0.0, 7,23, 1,15
1039,80.0,0.0, 7,23, 1,15,0.25, 7,23,11,30
581,0.11832266645158968,0.0, 7,23, 1,37,0.30811880201089126, 7,27,11,60
582,5.212875695666933,0.055461220866168774, 7,26, 8,47,12.459366291944221, 7,29,13,50
583,5.225445963775077,0.212308356241671, 7,23, 3,60,11.440591940017997, 7,27,12,30
1115,0.0,0.0, 7,23, 1, 5,0.0, 7,23, 1, 5
1128,0.0,0.0, 7,23, 1, 5,0.0, 7,23, 1, 5
1153,0.0,0.0, 7,23, 1, 5,0.0, 7,23, 1, 5
1154,0.0,0.0, 7,23, 1, 5,0.0, 7,23, 1, 5
1155,0.0,0.0, 7,23, 1, 5,0.0, 7,23, 1, 5
1156,0.0,0.0, 7,23, 1, 5,0.0, 7,23, 1, 5
1305,225166646.34573847,0.0, 7,23, 1, 5,3477264.9408438113, 7,28,21,45
13,1398028074.7323887,528181.8296511623, 7,23, 4,60,6981886.310342169, 7,29,21,15
61,301924526.02383536,88139.10953165221, 7,23, 1,15,1282023.4113694867, 7,23,20,15
134,70666020.44019976,63564.01800854099, 7,23, 4,15,156554.22484006523, 7,28,20,15
170,5241013.419656067,348.4159749238097, 7,23, 4,15,17476.39704006126, 7,28,12,15
207,6509451.13922267,815.2532113832032, 7,23, 3,15,22990.642799023623, 7,28,10,15
244,12749673.399825225,1521.856143006317, 7,23, 4,15,53038.631142310165, 7,28,20,15
281,46165882.481495745,59938.60262432081, 7,23, 5,15,81951.81706819107, 7,23,19,15
318,0.0,0.0, 7,23, 1,15,0.0, 7,23, 1,15
355,197687796.27748066,18561.32405820678, 7,23, 4,15,724774.895203776, 7,28,18,15
403,197687796.27748066,18561.32405820678, 7,23, 4,15,724774.895203776, 7,28,18,15
476,106772067.24485716,7098.072629279515, 7,23, 4,15,356036.3026282215, 7,28,12,15
513,0.0,0.0, 7,23, 1,15,0.0, 7,23, 1,15
562,71310998.38152647,35277.658295705034, 7,23, 4,60,135263.8454886324, 7,23,10,60
1046,0.0,0.0, 7,23, 1,15,0.0, 7,23, 1,15
1096,723940043.5410904,333731.043815264, 7,23, 4,60,1451224.8197534413, 7,23,17,60
1134,0.0,0.0, 7,23, 1,15,0.0, 7,23, 1,15
1324,230186486.34573847,7469.999999999999, 7,25,10,60,4057470.000000001, 7,26,21,15
1353,0.0,0.0, 7,23, 1,15,0.0, 7,23, 1,15
1,ANNUAL,  25.79, -80.32,  -5.00,   8.80
5,365
1038,0.0,0.0, 1, 1, 1,15,0.0, 1, 1, 1,15
1039,1730.5,0.0, 1, 1, 1,15,0.25, 1, 6,14,45
581,0.12666837689620075,0.0, 1, 4, 7,52,0.7799811159376544, 5,26,15,48
582,4.0786091186707205,0.0, 1,25,20, 9,22.295681804268405, 5,26,15,46
583,4.480546990968135,0.0, 2, 7,23, 3,25.741449391739373, 5,26,15,46
1115,3857498.07757307,0.0, 1, 1, 1,15,653533.7346691055, 1,24, 6,15
1128,1072831.3571812464,0.0, 1, 1, 1,15,180906.82654403395, 1,24, 6,15
1153,0.0,0.0, 1, 1, 1,15,0.0, 1, 1, 1,15
1154,14634640.68834229,0.0, 1, 1, 1,15,180000.0, 1,24, 1,30
1155,0.0,0.0, 1, 1, 1,15,0.0, 1, 1, 1,15
1156,0.0,0.0, 1, 1, 1,15,0.0, 1, 1, 1,15
1305,13323015865.508722,0.0, 1, 1, 1,15,4050000.000000002, 3, 2,21,15
13,62298406843.51019,159173.1275401932, 1,17, 4,15,6996753.998985561, 7,23,21,15
61,15743207428.383959,88139.10953165221, 1, 1, 1,15,1282023.4113694867, 1, 1,20,15
134,3685071073.4325233,63564.01800854099, 1, 2, 4,15,156554.22484006523, 1, 1,20,15
170,273393721.45532674,348.4159749238097, 1, 2, 4,15,17476.39704006126, 1, 1,12,15
207,339560869.0695816,815.2532113832032, 1, 2, 3,15,22990.642799023623, 1, 1,10,15
244,664895467.8009144,1521.856143006317, 1, 2, 4,15,53038.631142310165, 1, 1,20,15
281,2407221015.106824,59938.60262432081, 1, 1, 5,15,81951.81706819107, 1, 1,19,15
318,0.0,0.0, 1, 1, 1,15,0.0, 1, 1, 1,15
355,10310294493.051695,18561.32405820678, 1, 2, 4,15,724774.895203776, 1, 1,18,15
403,10310294493.051695,18561.32405820678, 1, 2, 4,15,724774.895203776, 1, 1,18,15
476,5569688622.066177,7098.072629279515, 1, 2, 4,15,356036.3026282215, 1, 1,12,15
513,0.0,0.0, 1, 1, 1,15,0.0, 1, 1, 1,15
562,2817809281.1145253,0.0, 1,16,23,15,135263.84548863242, 5,25,15,30
1046,0.0,0.0, 1, 1, 1,15,0.0, 1, 1, 1,15
1096,26451846923.022358,0.0, 1,16,23,15,1484749.6571115695, 8,21,14,60
1134,15707472.045523535,0.0, 1, 1, 1,15,339653.39287094004, 1,24, 6,15
1324,13584764665.508694,7469.999999999999, 1,19,11,30,4057470.000000002, 3, 2,21,15
1353,0.0,0.0, 1, 1, 1,15,0.0, 1, 1, 1,15
End of Data
 Number of Records Written=          90
