Program Version,EnergyPlus, Version 22.2.0-c249759bad, YMD=2023.09.01 20:24
1,5,Environment Title[],Latitude[deg],Longitude[deg],Time Zone[],Elevation[m]
2,8,Day of Simulation[],Month[],Day of Month[],DST Indicator[1=yes 0=no],Hour[],StartMinute[],EndMinute[],DayType
3,5,Cumulative Day of Simulation[],Month[],Day of Month[],DST Indicator[1=yes 0=no],DayType  ! When Daily Report Variables Requested
4,2,Cumulative Days of Simulation[],Month[]  ! When Monthly Report Variables Requested
5,1,Cumulative Days of Simulation[] ! When Run Period Report Variables Requested
6,1,Calendar Year of Simulation[] ! When Annual Report Variables Requested
581,11,LIVING,AFN Zone Infiltration Air Change Rate [ach] !RunPeriod [Value,Min,Month,Day,Hour,Minute,Max,Month,Day,Hour,Minute]
582,11,ATTIC,AFN Zone Infiltration Air Change Rate [ach] !RunPeriod [Value,Min,Month,Day,Hour,Minute,Max,Month,Day,Hour,Minute]
583,11,CRAWLSPACE,AFN Zone Infiltration Air Change Rate [ach] !RunPeriod [Value,Min,Month,Day,Hour,Minute,Max,Month,Day,Hour,Minute]
1038,11,Facility,Facility Heating Setpoint Not Met Time [hr] !RunPeriod [Value,Min,Month,Day,Hour,Minute,Max,Month,Day,Hour,Minute]
1039,11,Facility,Facility Cooling Setpoint Not Met Time [hr] !RunPeriod [Value,Min,Month,Day,Hour,Minute,Max,Month,Day,Hour,Minute]
1115,11,DX_HEATING_COIL,Heating Coil Heating Energy [J] !RunPeriod [Value,Min,Month,Day,Hour,Minute,Max,Month,Day,Hour,Minute]
1128,11,DX_HEATING_COIL,Heating Coil Electricity Energy [J] !RunPeriod [Value,Min,Month,Day,Hour,Minute,Max,Month,Day,Hour,Minute]
1153,11,DX_HEATING_COIL,Heating Coil Defrost Electricity Energy [J] !RunPeriod [Value,Min,Month,Day,Hour,Minute,Max,Month,Day,Hour,Minute]
1154,11,DX_HEATING_COIL,Heating Coil Crankcase Heater Electricity Energy [J] !RunPeriod [Value,Min,Month,Day,Hour,Minute,Max,Month,Day,Hour,Minute]
1155,11,HEATING_RESISTANCE_BACKUP,Heating Coil Heating Energy [J] !RunPeriod [Value,Min,Month,Day,Hour,Minute,Max,Month,Day,Hour,Minute]
1156,11,HEATING_RESISTANCE_BACKUP,Heating Coil Electricity Energy [J] !RunPeriod [Value,Min,Month,Day,Hour,Minute,Max,Month,Day,Hour,Minute]
1292,11,WATER HEATER,Water Heater Heat Loss Energy [J] !RunPeriod [Value,Min,Month,Day,Hour,Minute,Max,Month,Day,Hour,Minute]
1306,11,WATER HEATER,Water Heater Heating Energy [J] !RunPeriod [Value,Min,Month,Day,Hour,Minute,Max,Month,Day,Hour,Minute]
1307,11,WATER HEATER,Water Heater Unmet Demand Heat Transfer Energy [J] !RunPeriod [Value,Min,Month,Day,Hour,Minute,Max,Month,Day,Hour,Minute]
1308,11,WATER HEATER,Water Heater Electricity Energy [J] !RunPeriod [Value,Min,Month,Day,Hour,Minute,Max,Month,Day,Hour,Minute]
13,11,Electricity:Facility [J] !RunPeriod [Value,Min,Month,Day,Hour,Minute,Max,Month,Day,Hour,Minute]
1134,11,Heating:Electricity [J] !RunPeriod [Value,Min,Month,Day,Hour,Minute,Max,Month,Day,Hour,Minute]
1096,11,Cooling:Electricity [J] !RunPeriod [Value,Min,Month,Day,Hour,Minute,Max,Month,Day,Hour,Minute]
562,11,Fans:Electricity [J] !RunPeriod [Value,Min,Month,Day,Hour,Minute,Max,Month,Day,Hour,Minute]
1379,11,Pumps:Electricity [J] !RunPeriod [Value,Min,Month,Day,Hour,Minute,Max,Month,Day,Hour,Minute]
1326,11,WaterSystems:Electricity [J] !RunPeriod [Value,Min,Month,Day,Hour,Minute,Max,Month,Day,Hour,Minute]
61,11,InteriorLights:Electricity [J] !RunPeriod [Value,Min,Month,Day,Hour,Minute,Max,Month,Day,Hour,Minute]
1046,11,ExteriorLights:Electricity [J] !RunPeriod [Value,Min,Month,Day,Hour,Minute,Max,Month,Day,Hour,Minute]
134,11,InteriorEquipment:Electricity [J] !RunPeriod [Value,Min,Month,Day,Hour,Minute,Max,Month,Day,Hour,Minute]
170,11,gas_dryer:InteriorEquipment:Electricity [J] !RunPeriod [Value,Min,Month,Day,Hour,Minute,Max,Month,Day,Hour,Minute]
207,11,clotheswasher:InteriorEquipment:Electricity [J] !RunPeriod [Value,Min,Month,Day,Hour,Minute,Max,Month,Day,Hour,Minute]
244,11,dishwasher:InteriorEquipment:Electricity [J] !RunPeriod [Value,Min,Month,Day,Hour,Minute,Max,Month,Day,Hour,Minute]
281,11,refrigerator:InteriorEquipment:Electricity [J] !RunPeriod [Value,Min,Month,Day,Hour,Minute,Max,Month,Day,Hour,Minute]
318,11,electric_mels:InteriorEquipment:Electricity [J] !RunPeriod [Value,Min,Month,Day,Hour,Minute,Max,Month,Day,Hour,Minute]
355,11,NaturalGas:Facility [J] !RunPeriod [Value,Min,Month,Day,Hour,Minute,Max,Month,Day,Hour,Minute]
403,11,InteriorEquipment:NaturalGas [J] !RunPeriod [Value,Min,Month,Day,Hour,Minute,Max,Month,Day,Hour,Minute]
476,11,gas_dryer:InteriorEquipment:NaturalGas [J] !RunPeriod [Value,Min,Month,Day,Hour,Minute,Max,Month,Day,Hour,Minute]
513,11,gas_mels:InteriorEquipment:NaturalGas [J] !RunPeriod [Value,Min,Month,Day,Hour,Minute,Max,Month,Day,Hour,Minute]
End of Data Dictionary
1,EXTREME_WINTER,  26.59, -81.86,  -5.00,   4.60
5,7
1038,0.0,0.0, 1,20, 1,15,0.0, 1,20, 1,15
1039,1.5,0.0, 1,20, 1,15,0.25, 1,20,17,15
581,0.2105383651643965,0.0, 1,26, 9,46,0.46870389285745767, 1,23,12,60
582,3.487468802833957,0.0, 1,20, 3,50,9.431577021413291, 1,23, 3,45
583,0.014128247475142672,0.00009919549724290592, 1,26, 9,46,0.06842920942738925, 1,24, 6, 5
1115,68676952.69747007,0.0, 1,20, 1, 7,2818242.0548715848, 1,24, 6,60
1128,20356469.770291287,0.0, 1,20, 1, 7,851950.1382343441, 1,24, 6,60
1153,121631.78016519154,0.0, 1,20, 1, 7,11959.489678899365, 1,24, 8,30
1154,27190466.66612215,0.0, 1,20, 1, 7,180000.0, 1,20, 5,60
1155,0.0,0.0, 1,20, 1, 7,0.0, 1,20, 1, 7
1156,0.0,0.0, 1,20, 1, 7,0.0, 1,20, 1, 7
1292,-23122137.499033578,-39724.34653287519, 1,24, 4,15,-2936.564690396941, 1,26,10,45
1306,134606380.9870883,0.0, 1,20, 1, 7,4050000.0, 1,20, 8,45
1307,16789105.332359888,0.0, 1,20, 1, 7,2725631.5200026548, 1,23,10,22
1308,134606380.9870883,0.0, 1,20, 1, 7,4050000.0, 1,20, 8,45
13,687848706.6365464,151703.1275401932, 1,21, 4,15,5740144.629896292, 1,26,20,60
61,301924526.02383536,88139.10953165221, 1,20, 1,15,1282023.4113694867, 1,20,20,15
134,70666020.44019976,63564.01800854099, 1,20, 4,15,156554.22484006523, 1,25,20,15
170,5241013.419656067,348.4159749238097, 1,20, 4,15,17476.39704006126, 1,25,12,15
207,6509451.13922267,815.2532113832032, 1,20, 3,15,22990.642799023623, 1,25,10,15
244,12749673.399825225,1521.856143006317, 1,20, 4,15,53038.631142310165, 1,25,20,15
281,46165882.481495745,59938.60262432081, 1,20, 5,15,81951.81706819107, 1,20,19,15
318,0.0,0.0, 1,20, 1,15,0.0, 1,20, 1,15
355,197687796.27748066,18561.32405820678, 1,20, 4,15,724774.895203776, 1,25,18,15
403,197687796.27748066,18561.32405820678, 1,20, 4,15,724774.895203776, 1,25,18,15
476,106772067.24485716,7098.072629279515, 1,20, 4,15,356036.3026282215, 1,25,12,15
513,0.0,0.0, 1,20, 1,15,0.0, 1,20, 1,15
562,17033339.1168339,0.0, 1,20, 1,15,100998.56636177501, 1,21,17,15
1046,0.0,0.0, 1,20, 1,15,0.0, 1,20, 1,15
1096,115949871.85201164,0.0, 1,20, 1,15,817175.927210161, 1,21,17,15
1134,47668568.21657865,0.0, 1,20, 1,15,1013280.5683104582, 1,24, 6,15
1326,134606380.9870883,0.0, 1,20, 1,15,4050000.0, 1,20, 8,45
1379,0.0,0.0, 1,20, 1,15,0.0, 1,20, 1,15
1,EXTREME_SUMMER,  26.59, -81.86,  -5.00,   4.60
5,7
1038,0.0,0.0, 6,29, 1,15,0.0, 6,29, 1,15
1039,56.75,0.0, 6,29, 1,15,0.25, 6,29,16,15
581,0.10562758088187663,0.0, 6,29, 1,60,0.5239558093485462, 7, 5,17,46
582,3.655334836699339,0.26155904100209393, 7, 5,24,45,15.155194561133758, 7, 5,11,46
583,0.04151210968399511,0.000564292414052652, 6,30,23, 3,0.0693241474706959, 7, 5,17,46
1115,0.0,0.0, 6,29, 1,15,0.0, 6,29, 1,15
1128,0.0,0.0, 6,29, 1,15,0.0, 6,29, 1,15
1153,0.0,0.0, 6,29, 1,15,0.0, 6,29, 1,15
1154,0.0,0.0, 6,29, 1,15,0.0, 6,29, 1,15
1155,0.0,0.0, 6,29, 1,15,0.0, 6,29, 1,15
1156,0.0,0.0, 6,29, 1,15,0.0, 6,29, 1,15
1292,-21773909.119438272,-34343.71255672963, 7, 4,11,60,-2551.986160228097, 7, 5,13,44
1306,106438919.70763014,0.0, 6,29, 1,15,2874913.2518990696, 7, 4,11,45
1307,6895910.142151934,0.0, 6,29, 1,15,640613.7318052455, 7, 4,10,18
1308,106438919.70763014,0.0, 6,29, 1,15,2874913.2518990696, 7, 4,11,45
13,1087066148.1645029,236365.4188614505, 6,30, 4,60,5604652.203755962, 7, 4,10,30
61,301924526.02383536,88139.10953165221, 6,29, 1,15,1282023.4113694867, 6,29,20,15
134,70666020.44019976,63564.01800854099, 6,29, 4,15,156554.22484006523, 7, 4,20,15
170,5241013.419656067,348.4159749238097, 6,29, 4,15,17476.39704006126, 7, 4,12,15
207,6509451.13922267,815.2532113832032, 6,29, 3,15,22990.642799023623, 7, 4,10,15
244,12749673.399825225,1521.856143006317, 6,29, 4,15,53038.631142310165, 7, 4,20,15
281,46165882.481495745,59938.60262432081, 6,29, 5,15,81951.81706819107, 6,29,19,15
318,0.0,0.0, 6,29, 1,15,0.0, 6,29, 1,15
355,197687796.27748066,18561.32405820678, 6,29, 4,15,724774.895203776, 7, 4,18,15
403,197687796.27748066,18561.32405820678, 6,29, 4,15,724774.895203776, 7, 4,18,15
476,106772067.24485716,7098.072629279515, 6,29, 4,15,356036.3026282215, 7, 4,12,15
513,0.0,0.0, 6,29, 1,15,0.0, 6,29, 1,15
562,56903322.31600757,8048.568315873525, 6,30, 5,60,124834.10599305404, 7, 5,17,15
1046,0.0,0.0, 6,29, 1,15,0.0, 6,29, 1,15
1096,551133359.6768304,68846.72089739818, 6,30, 5,60,1324609.001955882, 7, 1,14,60
1134,0.0,0.0, 6,29, 1,15,0.0, 6,29, 1,15
1326,106438919.70763014,0.0, 6,29, 1,15,4050000.0, 7, 3, 8,30
1379,0.0,0.0, 6,29, 1,15,0.0, 6,29, 1,15
1,ANNUAL,  26.59, -81.86,  -5.00,   4.60
5,365
1038,0.0,0.0, 1, 1, 1,15,0.0, 1, 1, 1,15
1039,1886.0,0.0, 1, 1, 1,15,0.25, 1, 6,16,30
581,0.14354371537956315,0.0, 1, 6,23, 5,0.7309418300046322, 2,16,16,50
582,3.5220030015492334,0.0, 1, 7, 2,50,25.550407230267652,10, 7,14,52
583,0.034744208974553055,0.0, 1, 6,23, 5,0.07827923441399667, 7,20,19,47
1115,144360244.40299127,0.0, 1, 1, 1,15,2720214.996448716, 1,24, 6,60
1128,41579915.269987985,0.0, 1, 1, 1,15,825417.6209820963, 1,24, 6,60
1153,250417.2087176887,0.0, 1, 1, 1,15,12517.581129623903,12,24, 8,15
1154,105635129.20534413,0.0, 1, 1, 1,15,180000.0, 1,17, 1,15
1155,0.0,0.0, 1, 1, 1,15,0.0, 1, 1, 1,15
1156,0.0,0.0, 1, 1, 1,15,0.0, 1, 1, 1,15
1292,-1144521002.604268,-39710.691042188686, 1,18, 4,15,-2097.605046320653, 8,11,16,31
1306,6276553519.461468,0.0, 1, 1, 1,15,4050000.0, 1, 2, 8,45
1307,582066643.81037,0.0, 1, 1, 1,15,5235077.258759037,12,14,10,30
1308,6276553519.461468,0.0, 1, 1, 1,15,4050000.0, 1, 2, 8,45
13,49455957436.11616,151703.1275401932, 1, 2, 4,15,6045071.4457862135, 2,12,20,60
61,15743207428.383959,88139.10953165221, 1, 1, 1,15,1282023.4113694867, 1, 1,20,15
134,3685071073.4325233,63564.01800854099, 1, 2, 4,15,156554.22484006523, 1, 1,20,15
170,273393721.45532674,348.4159749238097, 1, 2, 4,15,17476.39704006126, 1, 1,12,15
207,339560869.0695816,815.2532113832032, 1, 2, 3,15,22990.642799023623, 1, 1,10,15
244,664895467.8009144,1521.856143006317, 1, 2, 4,15,53038.631142310165, 1, 1,20,15
281,2407221015.106824,59938.60262432081, 1, 1, 5,15,81951.81706819107, 1, 1,19,15
318,0.0,0.0, 1, 1, 1,15,0.0, 1, 1, 1,15
355,10310294493.051695,18561.32405820678, 1, 2, 4,15,724774.895203776, 1, 1,18,15
403,10310294493.051695,18561.32405820678, 1, 2, 4,15,724774.895203776, 1, 1,18,15
476,5569688622.066177,7098.072629279515, 1, 2, 4,15,356036.3026282215, 1, 1,12,15
513,0.0,0.0, 1, 1, 1,15,0.0, 1, 1, 1,15
562,2348044391.672288,0.0, 1, 1, 2,30,124834.10599305404, 5,28,14,60
1046,0.0,0.0, 1, 1, 1,15,0.0, 1, 1, 1,15
1096,21255615561.480408,0.0, 1, 1, 2,30,1374643.7051389562, 6,18,10,60
1134,147465461.68404981,0.0, 1, 1, 1,15,984482.1384835365, 1,24, 6,15
1326,6276553519.461459,0.0, 1, 1, 1,15,4050000.0000000014, 2, 4,10,30
1379,0.0,0.0, 1, 1, 1,15,0.0, 1, 1, 1,15
End of Data
 Number of Records Written=          99
