Program Version,EnergyPlus, Version 22.2.0-c249759bad, YMD=2023.09.01 14:31
1,5,Environment Title[],Latitude[deg],Longitude[deg],Time Zone[],Elevation[m]
2,8,Day of Simulation[],Month[],Day of Month[],DST Indicator[1=yes 0=no],Hour[],StartMinute[],EndMinute[],DayType
3,5,Cumulative Day of Simulation[],Month[],Day of Month[],DST Indicator[1=yes 0=no],DayType  ! When Daily Report Variables Requested
4,2,Cumulative Days of Simulation[],Month[]  ! When Monthly Report Variables Requested
5,1,Cumulative Days of Simulation[] ! When Run Period Report Variables Requested
6,1,Calendar Year of Simulation[] ! When Annual Report Variables Requested
7,1,Environment,Site Outdoor Air Drybulb Temperature [C] !Hourly
619,1,DX_HEATING_COIL,Heating Coil Heating Rate [W] !Hourly
633,1,DX_HEATING_COIL,Heating Coil Electricity Rate [W] !Hourly
659,1,DX_HEATING_COIL,Heating Coil Defrost Electricity Rate [W] !Hourly
661,1,DX_HEATING_COIL,Heating Coil Crankcase Heater Electricity Rate [W] !Hourly
690,1,FAN,Fan Electricity Rate [W] !Hourly
716,1,HEAT PUMP WATER HEATER FAN,Fan Electricity Rate [W] !Hourly
718,1,LIVING,Zone Mean Air Temperature [C] !Hourly
719,1,ATTIC,Zone Mean Air Temperature [C] !Hourly
720,1,CRAWLSPACE,Zone Mean Air Temperature [C] !Hourly
843,1,LIVING,Zone Predicted Sensible Load to Heating Setpoint Heat Transfer Rate [W] !Hourly
844,1,LIVING,Zone System Predicted Sensible Load to Heating Setpoint Heat Transfer Rate [W] !Hourly
907,1,ATTIC,Zone Predicted Sensible Load to Heating Setpoint Heat Transfer Rate [W] !Hourly
908,1,ATTIC,Zone System Predicted Sensible Load to Heating Setpoint Heat Transfer Rate [W] !Hourly
971,1,CRAWLSPACE,Zone Predicted Sensible Load to Heating Setpoint Heat Transfer Rate [W] !Hourly
972,1,CRAWLSPACE,Zone System Predicted Sensible Load to Heating Setpoint Heat Transfer Rate [W] !Hourly
1195,1,HEATING_RESISTANCE_BACKUP,Heating Coil Heating Rate [W] !Hourly
1197,1,HEATING_RESISTANCE_BACKUP,Heating Coil Electricity Rate [W] !Hourly
End of Data Dictionary
1,EXTREME_WINTER,  43.58, -96.73,  -6.00, 435.30
2,1, 1,27, 0, 1, 0.00,60.00,Monday
7,-7.2
718,18.654597465136717
719,-7.66806789845163
720,17.231075317511344
619,5222.910575355143
633,1789.9717816909174
659,30.106142931873325
661,0.0
690,168.34326253266744
716,0.0
843,3353.3516486511
844,3353.3516486511
907,0.0
908,0.0
971,0.0
972,0.0
1195,167.44159052540317
1197,167.44159052540317
2,1, 1,27, 0, 2, 0.00,60.00,Monday
7,-8.3
718,18.625799126050854
719,-6.463492930100344
720,16.641831534845473
619,5043.288848813882
633,1767.3153518026395
659,33.37100481546791
661,0.0
690,168.34326253266744
716,0.0
843,3756.76265836516
844,3756.76265836516
907,0.0
908,0.0
971,0.0
972,0.0
1195,608.0782792094869
1197,608.0782792094869
2,1, 1,27, 0, 3, 0.00,60.00,Monday
7,-8.9
718,18.612880289935028
719,-5.900651046034426
720,16.402850368761165
619,4962.96419103363
633,1759.263569265248
659,31.04562428499971
661,0.0
690,168.34326253266744
716,0.0
843,4141.927680274601
844,4141.927680274601
907,0.0
908,0.0
971,0.0
972,0.0
1195,1086.1633559177008
1197,1086.1633559177008
2,1, 1,27, 0, 4, 0.00,60.00,Monday
7,-7.8
718,18.60944283022021
719,-4.906130105172078
720,16.126016301933802
619,5135.55761021139
633,1776.8677974905722
659,29.773724007034915
661,0.0
690,168.34326253266744
716,0.0
843,4571.022837592222
844,4571.022837592222
907,0.0
908,0.0
971,0.0
972,0.0
1195,1401.9278452055455
1197,1401.9278452055455
2,1, 1,27, 0, 5, 0.00,60.00,Monday
7,-6.1
718,18.605670388196607
719,-3.6580504372650187
720,15.900397971103091
619,5347.8729091248315
633,1784.415493072316
659,43.003111859728946
661,0.0
690,168.34326253266744
716,0.0
843,5328.665527663956
844,5328.665527663956
907,0.0
908,0.0
971,0.0
972,0.0
1195,2046.0257477120222
1197,2046.0257477120222
2,1, 1,27, 0, 6, 0.00,60.00,Monday
7,-7.2
718,19.373226131447293
719,-3.6510980272680333
720,15.673680920935809
619,5228.03628541936
633,1784.4608036848442
659,30.045331477903684
661,0.0
690,168.34326253266744
716,0.0
843,6875.254080098319
844,6875.254080098319
907,0.0
908,0.0
971,0.0
972,0.0
1195,3966.901647215238
1197,3966.901647215238
2,1, 1,27, 0, 7, 0.00,60.00,Monday
7,-7.2
718,19.5772720934909
719,-3.3567436430004456
720,15.515480394708925
619,5205.0774839586375
633,1810.6999176193078
659,30.045331477903684
661,0.0
690,168.34326253266744
716,85.44000000000004
843,6563.411205192007
844,6563.411205192007
907,0.0
908,0.0
971,0.0
972,0.0
1195,4766.159319771516
1197,4766.159319771516
2,1, 1,27, 0, 8, 0.00,60.00,Monday
7,-9.0
718,19.65135419621842
719,-4.382869405051286
720,15.325567596945188
619,4928.1721722751645
633,1790.4395954906738
659,29.07984231869733
661,0.0
690,168.34326253266744
716,85.44000000000004
843,6389.15595165917
844,6389.15595165917
907,0.0
908,0.0
971,0.0
972,0.0
1195,4939.749327126185
1197,4939.749327126185
2,1, 1,27, 0, 9, 0.00,60.00,Monday
7,-10.6
718,19.691076872870806
719,-5.53419326673705
720,15.1490798164725
619,4744.1937959153975
633,1787.5010692078051
659,13.201850555235087
661,0.0
690,168.34326253266744
716,30.611719516031975
843,6430.998974230326
844,6430.998974230326
907,0.0
908,0.0
971,0.0
972,0.0
1195,4442.609505500628
1197,4442.609505500628
2,1, 1,27, 0,10, 0.00,60.00,Monday
7,-12.0
718,19.70379173597335
719,-6.772678289901146
720,14.978953966342656
619,4547.959705857172
633,1768.5686176091835
659,10.491420220804343
661,0.0
690,168.34326253266744
716,0.0
843,7343.7966838330685
844,7343.7966838330685
907,0.0
908,0.0
971,0.0
972,0.0
1195,5456.483578836924
1197,5456.483578836924
2,1, 1,27, 0,11, 0.00,60.00,Monday
7,-13.0
718,19.710547435173474
719,-5.9896165010598
720,14.824157543200979
619,4387.009709232622
633,1744.4719203734587
659,16.03366678872755
661,0.0
690,168.34326253266744
716,0.0
843,6505.657713942701
844,6505.657713942701
907,0.0
908,0.0
971,0.0
972,0.0
1195,4696.853707776789
1197,4696.853707776789
2,1, 1,27, 0,12, 0.00,60.00,Monday
7,-13.3
718,19.720055391242525
719,-6.015924889666216
720,14.694036875821297
619,4384.816188849367
633,1755.2637577575883
659,3.440541944598832
661,0.0
690,168.34326253266744
716,0.0
843,5666.581105386595
844,5666.581105386595
907,0.0
908,0.0
971,0.0
972,0.0
1195,3664.3404468400995
1197,3664.3404468400995
2,1, 1,27, 0,13, 0.00,60.00,Monday
7,-13.3
718,19.715078360744197
719,-5.250191987468127
720,14.58494604737599
619,4384.7340294762
633,1755.3490792670898
659,3.440541944598832
661,0.0
690,168.34326253266744
716,0.0
843,5323.2980023535965
844,5323.2980023535965
907,0.0
908,0.0
971,0.0
972,0.0
1195,3244.3123626194233
1197,3244.3123626194233
2,1, 1,27, 0,14, 0.00,60.00,Monday
7,-12.8
718,19.701106141053653
719,-5.0225292015810865
720,14.49474591661311
619,4462.367030858099
633,1766.0751226371513
659,1.5560833889197188
661,0.0
690,168.34326253266744
716,85.2633967261682
843,5375.692083239941
844,5375.692083239941
907,0.0
908,0.0
971,0.0
972,0.0
1195,4268.251801126948
1197,4268.251801126948
2,1, 1,27, 0,15, 0.00,60.00,Monday
7,-12.8
718,19.714162012765335
719,-5.3452797261674
720,14.430201642850882
619,4450.852719521624
633,1760.804585090999
659,5.2751159953790605
661,0.0
690,168.34326253266744
716,0.0
843,4593.237319345479
844,4593.237319345479
907,0.0
908,0.0
971,0.0
972,0.0
1195,2240.567154415352
1197,2240.567154415352
2,1, 1,27, 0,16, 0.00,60.00,Monday
7,-12.8
718,19.724070867770298
719,-5.031428731557323
720,14.371885130743166
619,4450.547631036381
633,1761.1317251214134
659,5.273592572123009
661,0.0
690,168.34326253266744
716,0.0
843,3864.0639566567024
844,3864.0639566567024
907,0.0
908,0.0
971,0.0
972,0.0
1195,1404.8173967519806
1197,1404.8173967519806
2,1, 1,27, 0,17, 0.00,60.00,Monday
7,-13.0
718,19.721060543009173
719,-6.320142604182252
720,14.325297923060507
619,4410.655650051309
633,1753.5143841668682
659,8.74041350365371
661,0.0
690,168.34326253266744
716,0.0
843,3630.896500577186
844,3630.896500577186
907,0.0
908,0.0
971,0.0
972,0.0
1195,1129.8520906575995
1197,1129.8520906575995
2,1, 1,27, 0,18, 0.00,60.00,Monday
7,-14.4
718,19.709348736517324
719,-7.617424648604594
720,14.26312125396273
619,4211.697866064337
633,1727.4916787394047
659,9.7162995798119
661,0.0
690,168.34326253266744
716,0.0
843,4819.369926844407
844,4819.369926844407
907,0.0
908,0.0
971,0.0
972,0.0
1195,2835.782543970009
1197,2835.782543970009
2,1, 1,27, 0,19, 0.00,60.00,Monday
7,-14.4
718,19.70108408302996
719,-8.331594394448087
720,14.19884845463168
619,4212.144143389891
633,1727.0387129046728
659,9.7162995798119
661,0.0
690,168.34326253266744
716,85.44000000000004
843,5048.227057644695
844,5048.227057644695
907,0.0
908,0.0
971,0.0
972,0.0
1195,4311.374206850309
1197,4311.374206850309
2,1, 1,27, 0,20, 0.00,60.00,Monday
7,-16.1
718,19.701616097796148
719,-9.342990929245884
720,14.105260168631078
619,3970.4429279360834
633,1691.2450606314915
659,13.465804157645094
661,0.0
690,168.34326253266744
716,85.44000000000004
843,4328.011600068445
844,4328.011600068445
907,0.0
908,0.0
971,0.0
972,0.0
1195,3759.6847586245917
1197,3759.6847586245917
2,1, 1,27, 0,21, 0.00,60.00,Monday
7,-16.7
718,19.70337092573972
719,-10.04907306943134
720,13.990992209373657
619,3903.9383487357077
633,1685.5030734045458
659,8.924788798406404
661,0.0
690,168.34326253266744
716,85.44000000000004
843,4726.00128362744
844,4726.00128362744
907,0.0
908,0.0
971,0.0
972,0.0
1195,4295.875585975436
1197,4295.875585975436
2,1, 1,27, 0,22, 0.00,60.00,Monday
7,-16.7
718,19.711936545966946
719,-10.615207130805446
720,13.866619639283034
619,3921.1718110418465
633,1692.7522616129304
659,2.9048581388147987
661,0.0
690,168.34326253266744
716,8.73110307786058
843,5279.764952508476
844,5279.764952508476
907,0.0
908,0.0
971,0.0
972,0.0
1195,3975.113395885272
1197,3975.113395885272
2,1, 1,27, 0,23, 0.00,60.00,Monday
7,-17.8
718,18.964204916565638
719,-11.271307575319064
720,13.72539096301553
619,3779.2880204093817
633,1672.8888967019043
659,1.9369603849379426
661,0.0
690,168.34326253266744
716,0.0
843,4671.392584858153
844,4671.392584858153
907,0.0
908,0.0
971,0.0
972,0.0
1195,3310.9347204693495
1197,3310.9347204693495
2,1, 1,27, 0,24, 0.00,60.00,Monday
7,-18.9
718,18.726976139065503
719,-11.090448879762745
720,13.548551183933693
619,3662.050651044978
633,1632.1976052707748
659,1.1094167198526408
661,0.0
690,168.34326253266744
716,0.0
843,4869.779044036433
844,4869.779044036433
907,0.0
908,0.0
971,0.0
972,0.0
1195,3644.0657968277355
1197,3644.0657968277355
2,2, 1,28, 0, 1, 0.00,60.00,Tuesday
7,-18.9
718,18.638540826465974
719,-11.458018403121777
720,13.395429515350399
619,3669.1649807335316
633,1625.671356012934
659,1.1094167198526408
661,0.0
690,168.34326253266744
716,0.0
843,5474.70865071906
844,5474.70865071906
907,0.0
908,0.0
971,0.0
972,0.0
1195,4315.131708864354
1197,4315.131708864354
2,2, 1,28, 0, 2, 0.00,60.00,Tuesday
7,-20.0
718,18.61166098851724
719,-11.899709012512622
720,13.228382685767828
619,3536.0855877431964
633,1603.0710682272725
659,0.09567719540627945
661,0.0
690,168.34326253266744
716,0.0
843,6074.554796501654
844,6074.554796501654
907,0.0
908,0.0
971,0.0
972,0.0
1195,5196.887229765693
1197,5196.887229765693
2,2, 1,28, 0, 3, 0.00,60.00,Tuesday
7,-20.0
718,18.595406735076722
719,-13.040545298341852
720,13.067943928874739
619,3531.490064246425
633,1599.56809636225
659,2.3066349858711597
661,0.0
690,168.34326253266744
716,0.0
843,7004.673613098046
844,7004.673613098046
907,0.0
908,0.0
971,0.0
972,0.0
1195,6329.433006402846
1197,6329.433006402846
2,2, 1,28, 0, 4, 0.00,60.00,Tuesday
7,-21.1
718,18.603196481594694
719,-12.475576699822197
720,12.911091703643663
619,3394.7233848816613
633,1576.1789690668709
659,3.232981773463397
661,0.0
690,168.34326253266744
716,0.0
843,6550.774269766705
844,6550.774269766705
907,0.0
908,0.0
971,0.0
972,0.0
1195,6000.481378165694
1197,6000.481378165694
2,2, 1,28, 0, 5, 0.00,60.00,Tuesday
7,-21.7
718,18.597975949644958
719,-12.691722662919647
720,12.752520347713448
619,3323.547077443394
633,1564.5953475487672
659,2.7605749658218066
661,0.0
690,168.34326253266744
716,0.0
843,6520.920653529201
844,6520.920653529201
907,0.0
908,0.0
971,0.0
972,0.0
1195,5983.575400358599
1197,5983.575400358599
2,2, 1,28, 0, 6, 0.00,60.00,Tuesday
7,-22.2
718,19.36765180868958
719,-12.146810252704531
720,12.596482588782331
619,3270.067596769466
633,1556.7566277776814
659,0.34819343697338384
661,0.0
690,168.34326253266744
716,0.0
843,7673.250571176812
844,7673.250571176812
907,0.0
908,0.0
971,0.0
972,0.0
1195,7449.209557065162
1197,7449.209557065162
2,2, 1,28, 0, 7, 0.00,60.00,Tuesday
7,-22.2
718,19.568755661299917
719,-12.394375996565062
720,12.481717385684739
619,3248.4606141530917
633,1574.543221343385
659,0.34819343697338384
661,0.0
690,168.34326253266744
716,85.44000000000004
843,7467.885049839599
844,7467.885049839599
907,0.0
908,0.0
971,0.0
972,0.0
1195,8256.885882029568
1197,8256.885882029568
2,2, 1,28, 0, 8, 0.00,60.00,Tuesday
7,-23.3
718,19.644976176732452
719,-12.603476252826942
720,12.332368505960181
619,3111.140822358973
633,1553.524023029908
659,1.6782915445936304
661,0.0
690,168.34326253266744
716,85.44000000000004
843,7376.640329332586
844,7376.640329332586
907,0.0
908,0.0
971,0.0
972,0.0
1195,8474.446681655852
1197,8474.446681655852
2,2, 1,28, 0, 9, 0.00,60.00,Tuesday
7,-22.2
718,19.678344916686118
719,-13.219748148247684
720,12.209956279571003
619,3236.1221491804927
633,1578.33175867945
659,2.397966637748351
661,0.0
690,168.34326253266744
716,85.44000000000004
843,7275.380721172851
844,7275.380721172851
907,0.0
908,0.0
971,0.0
972,0.0
1195,8238.76305086587
1197,8238.76305086587
2,2, 1,28, 0,10, 0.00,60.00,Tuesday
7,-20.0
718,19.70717653083043
719,-10.49919331876983
720,12.09645541124115
619,3507.856501059379
633,1628.004253318223
659,0.09567719540627945
661,0.0
690,168.34326253266744
716,47.982849305860526
843,5715.732647756964
844,5715.732647756964
907,0.0
908,0.0
971,0.0
972,0.0
1195,5599.109046276265
1197,5599.109046276265
2,2, 1,28, 0,11, 0.00,60.00,Tuesday
7,-17.8
718,19.719076544623913
719,-5.343285238650687
720,12.002102435535548
619,3787.1046533316503
633,1672.5224199142951
659,0.09567719540627945
661,0.0
690,168.34326253266744
716,0.0
843,4271.60477511735
844,4271.60477511735
907,0.0
908,0.0
971,0.0
972,0.0
1195,2854.6812357399867
1197,2854.6812357399867
2,2, 1,28, 0,12, 0.00,60.00,Tuesday
7,-15.0
718,19.72400850129815
719,-3.614582111283736
720,11.94081640492957
619,4161.6911859917245
633,1725.223841543557
659,0.09567719540627945
661,0.0
690,168.34326253266744
716,0.0
843,4206.2304627362155
844,4206.2304627362155
907,0.0
908,0.0
971,0.0
972,0.0
1195,2122.4910906837226
1197,2122.4910906837226
2,2, 1,28, 0,13, 0.00,60.00,Tuesday
7,-15.0
718,19.717328063298208
719,-2.8706708538995063
720,11.876695212495266
619,4161.641123140681
633,1725.274039278086
659,0.09567719540627945
661,0.0
690,168.34326253266744
716,0.0
843,4543.067397980274
844,4543.067397980274
907,0.0
908,0.0
971,0.0
972,0.0
1195,2417.212434983496
1197,2417.212434983496
2,2, 1,28, 0,14, 0.00,60.00,Tuesday
7,-13.3
718,19.71484421301871
719,-3.691854986676913
720,11.830440572449795
619,4399.713636654466
633,1755.079831075676
659,0.09567719540627945
661,0.0
690,168.34326253266744
716,0.0
843,5220.693006772799
844,5220.693006772799
907,0.0
908,0.0
971,0.0
972,0.0
1195,2971.67279550273
1197,2971.67279550273
2,2, 1,28, 0,15, 0.00,60.00,Tuesday
7,-12.8
718,19.721791686237466
719,-1.3739777636654364
720,11.790384100196658
619,4471.1686718763385
633,1763.6529144931455
659,0.09567719540627945
661,0.0
690,168.34326253266744
716,0.0
843,3851.618406812104
844,3851.618406812104
907,0.0
908,0.0
971,0.0
972,0.0
1195,1305.2477373991833
1197,1305.2477373991833
2,2, 1,28, 0,16, 0.00,60.00,Tuesday
7,-12.2
718,19.719975535276625
719,-2.471512188287482
720,11.759604283823561
619,4557.58874793037
633,1774.0345437218562
659,0.09567719540627945
661,0.0
690,168.34326253266744
716,0.0
843,4283.302849746715
844,4283.302849746715
907,0.0
908,0.0
971,0.0
972,0.0
1195,1617.8167385500965
1197,1617.8167385500965
2,2, 1,28, 0,17, 0.00,60.00,Tuesday
7,-12.2
718,19.72265113342797
719,-2.4989273223298474
720,11.743154943879714
619,4557.651058999476
633,1773.9683746982873
659,0.09567719540627945
661,0.0
690,168.34326253266744
716,0.0
843,3493.139148082797
844,3493.139148082797
907,0.0
908,0.0
971,0.0
972,0.0
1195,731.9666523552655
1197,731.9666523552655
2,2, 1,28, 0,18, 0.00,60.00,Tuesday
7,-11.7
718,19.708221669266422
719,-3.0554067931499826
720,11.735354656796183
619,4607.592362218312
633,1773.7705184082945
659,6.905144038069205
661,0.0
690,168.34326253266744
716,71.12281907445161
843,3563.7138030692768
844,3563.7138030692768
907,0.0
908,0.0
971,0.0
972,0.0
1195,1606.36052597148
1197,1606.36052597148
2,2, 1,28, 0,19, 0.00,60.00,Tuesday
7,-11.7
718,19.716694629919097
719,-4.541589550196089
720,11.714467234377182
619,4608.041608380707
633,1773.289162641208
659,6.905144038069205
661,0.0
690,168.34326253266744
716,0.0
843,3822.363216035279
844,3822.363216035279
907,0.0
908,0.0
971,0.0
972,0.0
1195,1097.7187709355826
1197,1097.7187709355826
2,2, 1,28, 0,20, 0.00,60.00,Tuesday
7,-11.7
718,19.700544346179985
719,-4.855793557818431
720,11.6825662398405
619,4575.798292248681
633,1761.2108680522956
659,16.470403668160227
661,0.0
690,168.34326253266744
716,85.44000000000004
843,3870.6096242299773
844,3870.6096242299773
907,0.0
908,0.0
971,0.0
972,0.0
1195,2483.1685719777915
1197,2483.1685719777915
2,2, 1,28, 0,21, 0.00,60.00,Tuesday
7,-11.1
718,19.711010306899077
719,-4.768188281158013
720,11.64597046980004
619,4643.851204174387
633,1763.1896528866741
659,22.2280643336714
661,0.0
690,168.34326253266744
716,85.44000000000004
843,3223.2904810340824
844,3223.2904810340824
907,0.0
908,0.0
971,0.0
972,0.0
1195,1655.3576394580432
1197,1655.3576394580432
2,2, 1,28, 0,22, 0.00,60.00,Tuesday
7,-13.3
718,19.70363816603617
719,-5.781781746515462
720,11.575320309411177
619,4322.067171946446
633,1723.491429796502
659,24.64597275964997
661,0.0
690,168.34326253266744
716,85.44000000000004
843,3847.8936117305147
844,3847.8936117305147
907,0.0
908,0.0
971,0.0
972,0.0
1195,2550.8383313730055
1197,2550.8383313730055
2,2, 1,28, 0,23, 0.00,60.00,Tuesday
7,-11.1
718,18.998537773800535
719,-6.254948649399823
720,11.538508811254104
619,4624.693101945834
633,1755.7918381267955
659,27.869145864547868
661,0.0
690,168.34326253266744
716,14.763771700442696
843,2847.532225696621
844,2847.532225696621
907,0.0
908,0.0
971,0.0
972,0.0
1195,240.97260523376372
1197,240.97260523376372
2,2, 1,28, 0,24, 0.00,60.00,Tuesday
7,-11.1
718,18.743011558139003
719,-6.075740724169792
720,11.438799931787088
619,4645.685798647331
633,1732.9355124902552
659,27.88541670321758
661,0.0
690,168.34326253266744
716,0.0
843,3323.5401333534082
844,3323.5401333534082
907,0.0
908,0.0
971,0.0
972,0.0
1195,588.7577496881067
1197,588.7577496881067
2,3, 1,29, 0, 1, 0.00,60.00,Wednesday
7,-11.1
718,18.652028503278572
719,-5.709609723859046
720,11.365777865402597
619,4653.3903909453265
633,1724.5534659879154
659,27.88541670321758
661,0.0
690,168.34326253266744
716,0.0
843,3803.129078507236
844,3803.129078507236
907,0.0
908,0.0
971,0.0
972,0.0
1195,1116.112677235501
1197,1116.112677235501
2,3, 1,29, 0, 2, 0.00,60.00,Wednesday
7,-8.9
718,18.623219805012095
719,-5.410086858836644
720,11.306105755696302
619,4969.936674348549
633,1751.2287536027252
659,31.084647663095193
661,0.0
690,168.34326253266744
716,0.0
843,3990.197052576108
844,3990.197052576108
907,0.0
908,0.0
971,0.0
972,0.0
1195,999.3603717157448
1197,999.3603717157448
2,3, 1,29, 0, 3, 0.00,60.00,Wednesday
7,-7.8
718,18.61370390210413
719,-4.027553609149528
720,11.241662367776502
619,5093.154664842982
633,1751.408327535674
659,42.87044126130539
661,0.0
690,168.34326253266744
716,0.0
843,3949.133368684701
844,3949.133368684701
907,0.0
908,0.0
971,0.0
972,0.0
1195,804.7830559614217
1197,804.7830559614217
2,3, 1,29, 0, 4, 0.00,60.00,Wednesday
7,-7.2
718,18.611930155425412
719,-3.82853245454245
720,11.177739899611716
619,5121.796180149682
633,1738.401099026097
659,59.25947249428409
661,0.0
690,168.34326253266744
716,0.0
843,4046.4999422263954
844,4046.4999422263954
907,0.0
908,0.0
971,0.0
972,0.0
1195,817.5430158101672
1197,817.5430158101672
2,3, 1,29, 0, 5, 0.00,60.00,Wednesday
7,-7.0
718,18.610499855310366
719,-2.978504030306332
720,11.11651472990232
619,5073.222126745236
633,1714.4580232753497
659,79.58793136489278
661,0.0
690,168.34326253266744
716,0.0
843,3900.696135114864
844,3900.696135114864
907,0.0
908,0.0
971,0.0
972,0.0
1195,680.2722573813762
1197,680.2722573813762
2,3, 1,29, 0, 6, 0.00,60.00,Wednesday
7,-6.0
718,19.25926884391809
719,-2.110281032427877
720,11.066151369518296
619,5258.194252229579
633,1739.9612653808952
659,71.15492646854979
661,0.0
690,168.34326253266744
716,73.08950408250921
843,4837.407753078964
844,4837.407753078964
907,0.0
908,0.0
971,0.0
972,0.0
1195,2391.8904294812364
1197,2391.8904294812364
2,3, 1,29, 0, 7, 0.00,60.00,Wednesday
7,-6.7
718,19.52972607504076
719,-1.7629827249080543
720,11.037682429529886
619,5190.150269256616
633,1771.1817411512275
659,56.42890681210899
661,0.0
690,168.34326253266744
716,85.44000000000004
843,4664.848177608392
844,4664.848177608392
907,0.0
908,0.0
971,0.0
972,0.0
1195,2575.622861230139
1197,2575.622861230139
2,3, 1,29, 0, 8, 0.00,60.00,Wednesday
7,-6.0
718,19.632214537098932
719,-2.4498747000705814
720,11.004201019551633
619,5231.255403182759
633,1771.1027361444758
659,71.15492646854979
661,0.0
690,168.34326253266744
716,85.44000000000004
843,4755.815968976884
844,4755.815968976884
907,0.0
908,0.0
971,0.0
972,0.0
1195,2678.4699155264316
1197,2678.4699155264316
2,3, 1,29, 0, 9, 0.00,60.00,Wednesday
7,-6.0
718,19.690504813758025
719,-2.742105694912874
720,10.965224928969139
619,5286.786862581183
633,1794.299313459005
659,56.48527178848892
661,0.0
690,168.34326253266744
716,10.793023317329972
843,5121.2455220718675
844,5121.2455220718675
907,0.0
908,0.0
971,0.0
972,0.0
1195,2070.934156429869
1197,2070.934156429869
2,3, 1,29, 0,10, 0.00,60.00,Wednesday
7,-7.8
718,19.709263916703385
719,-3.449001538984504
720,10.91713414213904
619,5161.555954936774
633,1821.8074550637234
659,16.523693496783117
661,0.0
690,168.34326253266744
716,0.0
843,5399.373729477265
844,5399.373729477265
907,0.0
908,0.0
971,0.0
972,0.0
1195,2445.3401281286715
1197,2445.3401281286715
2,3, 1,29, 0,11, 0.00,60.00,Wednesday
7,-8.9
718,19.713366823268228
719,-4.690485278944927
720,10.894045218808468
619,5021.462312360904
633,1815.3798411821413
659,8.565590912917814
661,0.0
690,168.34326253266744
716,0.0
843,5262.688979367937
844,5262.688979367937
907,0.0
908,0.0
971,0.0
972,0.0
1195,2453.1157577123745
1197,2453.1157577123745
2,3, 1,29, 0,12, 0.00,60.00,Wednesday
7,-9.0
718,19.723903247934018
719,-3.3705963679829223
720,10.898096914135584
619,4968.6631752215535
633,1800.4695439608122
659,18.819852617223365
661,0.0
690,168.34326253266744
716,0.0
843,3844.524104930035
844,3844.524104930035
907,0.0
908,0.0
971,0.0
972,0.0
1195,887.4658128462361
1197,887.4658128462361
2,3, 1,29, 0,13, 0.00,60.00,Wednesday
7,-10.0
718,19.712951780201653
719,-4.371124891688838
720,10.894803461314593
619,4827.817950135081
633,1788.002922209511
659,16.170902778538565
661,0.0
690,168.34326253266744
716,0.0
843,5491.977636710129
844,5491.977636710129
907,0.0
908,0.0
971,0.0
972,0.0
1195,2934.5884177533476
1197,2934.5884177533476
2,3, 1,29, 0,14, 0.00,60.00,Wednesday
7,-9.0
718,19.71773834222309
719,-2.8639047817452394
720,10.920474095340811
619,4931.633259858387
633,1786.5728305348912
659,29.07984231869733
661,0.0
690,168.34326253266744
716,0.0
843,5029.937619286975
844,5029.937619286975
907,0.0
908,0.0
971,0.0
972,0.0
1195,2379.3126491050352
1197,2379.3126491050352
2,3, 1,29, 0,15, 0.00,60.00,Wednesday
7,-10.0
718,19.721330164994622
719,-1.8674531679109234
720,10.941831229620341
619,4861.342940278895
633,1800.4328715752401
659,6.672722260082984
661,0.0
690,168.34326253266744
716,71.36070205666782
843,3268.933207568354
844,3268.933207568354
907,0.0
908,0.0
971,0.0
972,0.0
1195,1116.482386095266
1197,1116.482386095266
2,3, 1,29, 0,16, 0.00,60.00,Wednesday
7,-11.0
718,19.710184178845687
719,-3.4251224596021417
720,10.961049993832175
619,4692.594536547217
633,1776.7055384275172
659,12.454508482666327
661,0.0
690,168.34326253266744
716,85.44000000000004
843,3051.2948985346156
844,3051.2948985346156
907,0.0
908,0.0
971,0.0
972,0.0
1195,1168.2269717714753
1197,1168.2269717714753
2,3, 1,29, 0,17, 0.00,60.00,Wednesday
7,-12.0
718,19.712473717364663
719,-5.823058162642887
720,10.977545768926763
619,4554.002181082632
633,1762.1307356838317
659,10.491420220804343
661,0.0
690,168.34326253266744
716,14.999655300537428
843,4207.511747694294
844,4207.511747694294
907,0.0
908,0.0
971,0.0
972,0.0
1195,1868.8714417699516
1197,1868.8714417699516
2,3, 1,29, 0,18, 0.00,60.00,Wednesday
7,-14.0
718,19.706873332508234
719,-8.322866277275182
720,10.98489870866466
619,4280.614875994021
633,1732.0804169293224
659,7.183742250196096
661,0.0
690,168.34326253266744
716,0.0
843,5561.107049617198
844,5561.107049617198
907,0.0
908,0.0
971,0.0
972,0.0
1195,3700.8613672008646
1197,3700.8613672008646
2,3, 1,29, 0,19, 0.00,60.00,Wednesday
7,-15.0
718,19.71068013693563
719,-8.865678099195419
720,10.983654374971321
619,4149.876585813598
633,1717.2746983095785
659,4.738805164977567
661,0.0
690,168.34326253266744
716,0.0
843,4882.725250842264
844,4882.725250842264
907,0.0
908,0.0
971,0.0
972,0.0
1195,3148.5918585442723
1197,3148.5918585442723
2,3, 1,29, 0,20, 0.00,60.00,Wednesday
7,-17.0
718,19.695739501099112
719,-10.587264505884125
720,10.938747950334069
619,3872.2421604213564
633,1676.889412535598
659,7.759952196612562
661,0.0
690,168.34326253266744
716,85.44000000000004
843,5056.252273525519
844,5056.252273525519
907,0.0
908,0.0
971,0.0
972,0.0
1195,4851.8853322470595
1197,4851.8853322470595
2,3, 1,29, 0,21, 0.00,60.00,Wednesday
7,-17.0
718,19.69296271041769
719,-10.396327239351628
720,10.878223698202214
619,3887.2076093265114
633,1682.5020692040569
659,2.66475238568113
661,0.0
690,168.34326253266744
716,85.44000000000004
843,6271.3626740048385
844,6271.3626740048385
907,0.0
908,0.0
971,0.0
972,0.0
1195,6409.584535273596
1197,6409.584535273596
2,3, 1,29, 0,22, 0.00,60.00,Wednesday
7,-17.2
718,19.69902434326553
719,-10.313720531358873
720,10.806735263111133
619,3861.622156908501
633,1678.7998872188896
659,2.452776683128443
661,0.0
690,168.34326253266744
716,51.03471115661688
843,6680.134484779212
844,6680.134484779212
907,0.0
908,0.0
971,0.0
972,0.0
1195,6387.465737699842
1197,6387.465737699842
2,3, 1,29, 0,23, 0.00,60.00,Wednesday
7,-17.8
718,18.956793793006383
719,-11.355545604358474
720,10.722300742811706
619,3775.8701293211457
633,1664.3258017965154
659,5.0583070265687935
661,0.0
690,168.34326253266744
716,0.0
843,4909.0570600571245
844,4909.0570600571245
907,0.0
908,0.0
971,0.0
972,0.0
1195,3662.3284495935654
1197,3662.3284495935654
2,3, 1,29, 0,24, 0.00,60.00,Wednesday
7,-18.3
718,18.71788011523955
719,-11.86957482672881
720,10.582415872285642
619,3736.4829647463994
633,1636.0428544095575
659,3.777920583665458
661,0.0
690,168.34326253266744
716,0.0
843,5635.890876131854
844,5635.890876131854
907,0.0
908,0.0
971,0.0
972,0.0
1195,4579.433520688593
1197,4579.433520688593
2,4, 1,30, 0, 1, 0.00,60.00,Thursday
7,-18.3
718,18.63340807476536
719,-12.027536743340711
720,10.47315093598938
619,3743.5767952633432
633,1629.4075895218098
659,3.777920583665458
661,0.0
690,168.34326253266744
716,0.0
843,6247.2964043846805
844,6247.2964043846805
907,0.0
908,0.0
971,0.0
972,0.0
1195,5294.964104541023
1197,5294.964104541023
2,4, 1,30, 0, 2, 0.00,60.00,Thursday
7,-19.4
718,18.612536958000117
719,-12.70877656972713
720,10.347233347602225
619,3603.532231478087
633,1605.1273613105357
659,4.7930192056857415
661,0.0
690,168.34326253266744
716,0.0
843,6422.179794116455
844,6422.179794116455
907,0.0
908,0.0
971,0.0
972,0.0
1195,5657.32867697461
1197,5657.32867697461
2,4, 1,30, 0, 3, 0.00,60.00,Thursday
7,-19.4
718,18.597491609841153
719,-13.257991033114202
720,10.226047857355663
619,3604.3536680604834
633,1604.3896616225607
659,4.790209114436325
661,0.0
690,168.34326253266744
716,0.0
843,7142.984025012152
844,7142.984025012152
907,0.0
908,0.0
971,0.0
972,0.0
1195,6537.797432884508
1197,6537.797432884508
2,4, 1,30, 0, 4, 0.00,60.00,Thursday
7,-19.0
718,18.599031472070756
719,-13.285498078024009
720,10.1080178080897
619,3654.1206909534453
633,1610.8356829220538
659,5.287460751252257
661,0.0
690,168.34326253266744
716,0.0
843,7453.568288554743
844,7453.568288554743
907,0.0
908,0.0
971,0.0
972,0.0
1195,6916.124644229698
1197,6916.124644229698
2,4, 1,30, 0, 5, 0.00,60.00,Thursday
7,-20.0
718,18.5961941629988
719,-13.388995353942283
720,9.983812634546876
619,3531.6552362053108
633,1592.9164080836315
659,4.1962552166084635
661,0.0
690,168.34326253266744
716,0.0
843,7039.9716629049035
844,7039.9716629049035
907,0.0
908,0.0
971,0.0
972,0.0
1195,6522.883603956715
1197,6522.883603956715
2,4, 1,30, 0, 6, 0.00,60.00,Thursday
7,-20.6
718,19.371940050678088
719,-13.993157956740916
720,9.858481507848923
619,3457.8185770147193
633,1580.9100675272211
659,4.242896409275415
661,0.0
690,168.34326253266744
716,0.0
843,8831.365680872566
844,8831.365680872566
907,0.0
908,0.0
971,0.0
972,0.0
1195,8778.908112554825
1197,8778.908112554825
2,4, 1,30, 0, 7, 0.00,60.00,Thursday
7,-20.6
718,19.24878523985583
719,-14.010899864311016
720,9.779452421662329
619,3435.942678192483
633,1599.9867647143947
659,4.242896409275415
661,0.0
690,168.34326253266744
716,85.44000000000004
843,8597.692130553303
844,8597.692130553303
907,0.0
908,0.0
971,0.0
972,0.0
1195,8961.841759228519
1197,8961.841759228519
2,4, 1,30, 0, 8, 0.00,60.00,Thursday
7,-21.7
718,19.521016646287983
719,-13.334533767963203
720,9.64910472634428
619,3304.849805155999
633,1573.593862012145
659,4.887708476420976
661,0.0
690,168.34326253266744
716,85.44000000000004
843,7775.827161785277
844,7775.827161785277
907,0.0
908,0.0
971,0.0
972,0.0
1195,8957.148579734627
1197,8957.148579734627
2,4, 1,30, 0, 9, 0.00,60.00,Thursday
7,-21.1
718,19.630961095508535
719,-13.418936163554275
720,9.560929379324872
619,3373.5237077582615