Program Version,EnergyPlus, Version 22.2.0-c249759bad, YMD=2023.07.07 15:20
1,5,Environment Title[],Latitude[deg],Longitude[deg],Time Zone[],Elevation[m]
2,8,Day of Simulation[],Month[],Day of Month[],DST Indicator[1=yes 0=no],Hour[],StartMinute[],EndMinute[],DayType
3,5,Cumulative Day of Simulation[],Month[],Day of Month[],DST Indicator[1=yes 0=no],DayType  ! When Daily Report Variables Requested
4,2,Cumulative Days of Simulation[],Month[]  ! When Monthly Report Variables Requested
5,1,Cumulative Days of Simulation[] ! When Run Period Report Variables Requested
6,1,Calendar Year of Simulation[] ! When Annual Report Variables Requested
581,11,LIVING,AFN Zone Infiltration Air Change Rate [ach] !RunPeriod [Value,Min,Month,Day,Hour,Minute,Max,Month,Day,Hour,Minute]
582,11,ATTIC,AFN Zone Infiltration Air Change Rate [ach] !RunPeriod [Value,Min,Month,Day,Hour,Minute,Max,Month,Day,Hour,Minute]
583,11,CRAWLSPACE,AFN Zone Infiltration Air Change Rate [ach] !RunPeriod [Value,Min,Month,Day,Hour,Minute,Max,Month,Day,Hour,Minute]
1038,11,Facility,Facility Heating Setpoint Not Met Time [hr] !RunPeriod [Value,Min,Month,Day,Hour,Minute,Max,Month,Day,Hour,Minute]
1039,11,Facility,Facility Cooling Setpoint Not Met Time [hr] !RunPeriod [Value,Min,Month,Day,Hour,Minute,Max,Month,Day,Hour,Minute]
1115,11,DX_HEATING_COIL,Heating Coil Heating Energy [J] !RunPeriod [Value,Min,Month,Day,Hour,Minute,Max,Month,Day,Hour,Minute]
1128,11,DX_HEATING_COIL,Heating Coil Electricity Energy [J] !RunPeriod [Value,Min,Month,Day,Hour,Minute,Max,Month,Day,Hour,Minute]
1153,11,DX_HEATING_COIL,Heating Coil Defrost Electricity Energy [J] !RunPeriod [Value,Min,Month,Day,Hour,Minute,Max,Month,Day,Hour,Minute]
1154,11,DX_HEATING_COIL,Heating Coil Crankcase Heater Electricity Energy [J] !RunPeriod [Value,Min,Month,Day,Hour,Minute,Max,Month,Day,Hour,Minute]
1156,11,HEATING_RESISTANCE_BACKUP,Heating Coil Electricity Energy [J] !RunPeriod [Value,Min,Month,Day,Hour,Minute,Max,Month,Day,Hour,Minute]
13,11,Electricity:Facility [J] !RunPeriod [Value,Min,Month,Day,Hour,Minute,Max,Month,Day,Hour,Minute]
1134,11,Heating:Electricity [J] !RunPeriod [Value,Min,Month,Day,Hour,Minute,Max,Month,Day,Hour,Minute]
1096,11,Cooling:Electricity [J] !RunPeriod [Value,Min,Month,Day,Hour,Minute,Max,Month,Day,Hour,Minute]
562,11,Fans:Electricity [J] !RunPeriod [Value,Min,Month,Day,Hour,Minute,Max,Month,Day,Hour,Minute]
1388,11,Pumps:Electricity [J] !RunPeriod [Value,Min,Month,Day,Hour,Minute,Max,Month,Day,Hour,Minute]
1360,11,WaterSystems:Electricity [J] !RunPeriod [Value,Min,Month,Day,Hour,Minute,Max,Month,Day,Hour,Minute]
61,11,InteriorLights:Electricity [J] !RunPeriod [Value,Min,Month,Day,Hour,Minute,Max,Month,Day,Hour,Minute]
1046,11,ExteriorLights:Electricity [J] !RunPeriod [Value,Min,Month,Day,Hour,Minute,Max,Month,Day,Hour,Minute]
134,11,InteriorEquipment:Electricity [J] !RunPeriod [Value,Min,Month,Day,Hour,Minute,Max,Month,Day,Hour,Minute]
170,11,gas_dryer:InteriorEquipment:Electricity [J] !RunPeriod [Value,Min,Month,Day,Hour,Minute,Max,Month,Day,Hour,Minute]
207,11,clotheswasher:InteriorEquipment:Electricity [J] !RunPeriod [Value,Min,Month,Day,Hour,Minute,Max,Month,Day,Hour,Minute]
244,11,dishwasher:InteriorEquipment:Electricity [J] !RunPeriod [Value,Min,Month,Day,Hour,Minute,Max,Month,Day,Hour,Minute]
281,11,refrigerator:InteriorEquipment:Electricity [J] !RunPeriod [Value,Min,Month,Day,Hour,Minute,Max,Month,Day,Hour,Minute]
318,11,electric_mels:InteriorEquipment:Electricity [J] !RunPeriod [Value,Min,Month,Day,Hour,Minute,Max,Month,Day,Hour,Minute]
355,11,NaturalGas:Facility [J] !RunPeriod [Value,Min,Month,Day,Hour,Minute,Max,Month,Day,Hour,Minute]
1323,11,WaterSystems:NaturalGas [J] !RunPeriod [Value,Min,Month,Day,Hour,Minute,Max,Month,Day,Hour,Minute]
403,11,InteriorEquipment:NaturalGas [J] !RunPeriod [Value,Min,Month,Day,Hour,Minute,Max,Month,Day,Hour,Minute]
476,11,gas_dryer:InteriorEquipment:NaturalGas [J] !RunPeriod [Value,Min,Month,Day,Hour,Minute,Max,Month,Day,Hour,Minute]
513,11,gas_mels:InteriorEquipment:NaturalGas [J] !RunPeriod [Value,Min,Month,Day,Hour,Minute,Max,Month,Day,Hour,Minute]
End of Data Dictionary
1,EXTREME_WINTER,  41.73, -71.43,  -5.00,  19.00
5,7
1038,1.8333333333333333,0.0, 1,27, 1,10,0.16666666666666666, 1,29, 6,10
1039,0.0,0.0, 1,27, 1,10,0.0, 1,27, 1,10
581,0.3500045670891988,0.18968587192236133, 1,27, 2,60,1.0250583115949314, 1,29,16,55
582,5.7217978297342444,0.0, 1,27,19,55,24.741801322558178, 1,29,13,60
583,6.246923045112446,0.00027231602252259814, 1,27,20,60,28.897305156090656, 1,29,16,55
1115,1619054356.0339432,0.0, 1,27, 1,10,2657390.0906333537, 2, 2, 3,20
1128,536613335.005041,0.0, 1,27, 1,10,820926.9480054189, 2, 2, 6,20
1153,3468346.9068553993,0.0, 1,27, 1,10,33253.44355944841, 1,28,14,50
1154,40228494.37793779,0.0, 1,27, 6, 2,120000.0, 1,27, 1,10
1156,660073144.7778028,0.0, 1,27, 1,10,3848805.3650110443, 1,30, 6,50
13,1676850223.8488884,234536.4257943999, 1,27, 1,10,5148534.762801257, 1,30, 7,30
61,301924526.0238348,58759.40635443481, 1,27, 1,10,854682.2742463244, 1,27,20,10
134,70666020.44019979,42376.01200569399, 1,27, 4,10,104369.48322671017, 2, 1,20,10
170,5241013.419656074,232.27731661587313, 1,27, 4,10,11650.931360040839, 2, 1,12,10
207,6509451.13922266,543.5021409221355, 1,27, 3,10,15327.095199349082, 2, 1,10,10
244,12749673.39982522,1014.5707620042115, 1,27, 4,10,35359.08742820678, 2, 1,20,10
281,46165882.48149605,39959.06841621388, 1,27, 5,10,54634.54471212738, 1,27,19,10
318,0.0,0.0, 1,27, 1,10,0.0, 1,27, 1,10
355,744338873.9343487,12374.216038804521, 1,27, 4,10,3829218.154066982, 1,28,18,60
403,197687796.27748126,12374.216038804521, 1,27, 4,10,483183.26346918393, 2, 1,18,10
476,106772067.24485692,4732.048419519677, 1,27, 4,10,237357.535085481, 2, 1,12,10
513,0.0,0.0, 1,27, 1,10,0.0, 1,27, 1,10
562,58642725.10490797,0.0, 1,27, 1,10,87233.63584129077, 1,28, 6,30
1046,0.0,0.0, 1,27, 1,10,0.0, 1,27, 1,10
1096,213791.21230869324,0.0, 1,27, 1,10,28293.952493430203, 1,27,16,20
1134,1240383321.0676372,113866.33188343831, 1,27,16,20,4616109.107685952, 1,29, 6,20
1323,546651077.6568643,0.0, 1,27, 1,10,3375000.0000000005, 1,27,21,40
1360,5019840.0,4980.0, 1,27, 1,10,4980.000000000001, 1,27, 6,40
1388,0.0,0.0, 1,27, 1,10,0.0, 1,27, 1,10
1,EXTREME_SUMMER,  41.73, -71.43,  -5.00,  19.00
5,7
1038,0.0,0.0, 7,13, 1,10,0.0, 7,13, 1,10
1039,40.333333333333336,0.0, 7,13, 1,10,0.16666666666666666, 7,13,16,20
581,0.12511225295184059,0.0, 7,16,11,44,0.8908802358839477, 7,19,16,54
582,3.756717806807644,0.0, 7,13, 6, 2,22.560282700654135, 7,19,16,52
583,4.401847111522152,0.00024549383522058513, 7,13, 6, 7,28.7474165612332, 7,19,16,52
1115,0.0,0.0, 7,13, 1, 5,0.0, 7,13, 1, 5
1128,0.0,0.0, 7,13, 1, 5,0.0, 7,13, 1, 5
1153,0.0,0.0, 7,13, 1, 5,0.0, 7,13, 1, 5
1154,0.0,0.0, 7,13, 1, 5,0.0, 7,13, 1, 5
1156,0.0,0.0, 7,13, 1, 5,0.0, 7,13, 1, 5
13,951255848.4031888,111575.24293425235, 7,14, 4,60,1900912.4108377183, 7,18,20,10
61,301924526.0238348,58759.40635443481, 7,13, 1,10,854682.2742463244, 7,13,20,10
134,70666020.44019979,42376.01200569399, 7,13, 4,10,104369.48322671017, 7,18,20,10
170,5241013.419656074,232.27731661587313, 7,13, 4,10,11650.931360040839, 7,18,12,10
207,6509451.13922266,543.5021409221355, 7,13, 3,10,15327.095199349082, 7,18,10,10
244,12749673.39982522,1014.5707620042115, 7,13, 4,10,35359.08742820678, 7,18,20,10
281,46165882.48149605,39959.06841621388, 7,13, 5,10,54634.54471212738, 7,13,19,10
318,0.0,0.0, 7,13, 1,10,0.0, 7,13, 1,10
355,642916271.2388194,12374.216038804521, 7,13, 4,10,3829218.154066982, 7,14,18,60
403,197687796.27748126,12374.216038804521, 7,13, 4,10,483183.26346918393, 7,18,18,10
476,106772067.24485692,4732.048419519677, 7,13, 4,10,237357.535085481, 7,18,12,10
513,0.0,0.0, 7,13, 1,10,0.0, 7,13, 1,10
562,54851518.56269572,490.61815145375726, 7,14, 6,20,87233.63584129079, 7,16,12,50
1046,0.0,0.0, 7,13, 1,10,0.0, 7,13, 1,10
1096,518793943.3764582,4012.2124156011937, 7,14, 6,20,954415.6124800191, 7,18,14,60
1134,0.0,0.0, 7,13, 1,10,0.0, 7,13, 1,10
1323,445228474.9613368,0.0, 7,13, 1,10,3375000.0000000005, 7,16,21,20
1360,5019840.0,4980.0, 7,13, 1,10,4980.000000000001, 7,13, 6,60
1388,0.0,0.0, 7,13, 1,10,0.0, 7,13, 1,10
1,ANNUAL,  41.73, -71.43,  -5.00,  19.00
5,365
1038,18.499999999999993,0.0, 1, 1, 1,10,0.16666666666666666, 1, 3, 6,10
1039,309.83333333333326,0.0, 1, 1, 1,10,0.16666666666666666, 5,14,11,40
581,0.24101571093586652,0.0, 4,26, 5,45,1.1768837129814165, 8,28,11,60
582,4.289166726753165,0.0, 1, 7,22,55,26.58349279320201, 8,28, 7,60
583,5.075808075855843,0.00002872298398507162, 7,28,23, 3,31.94326727719167, 8,28,11,60
1115,24787514229.59332,0.0, 1, 1,23, 5,3034097.060508711,12,24, 2,30
1128,7521348290.408586,0.0, 1, 1,23, 5,865995.4512977028,12,24, 6,60
1153,229416147.65135658,0.0, 1, 1,23, 5,88065.51644576818, 2,26, 2,10
1154,1640688947.4935083,0.0, 1, 1, 6, 2,120000.0, 1, 4,15,40
1156,3458787578.3026757,0.0, 1, 1, 1, 2,3848805.3650110443, 1,29, 6,10
13,42028997663.115234,106115.4183601288, 4,18, 4,10,5167632.371188173, 1,29, 7,60
61,15743207428.39043,58759.40635443481, 1, 1, 1,10,854682.2742463244, 1, 1,20,10
134,3685071073.433083,42376.01200569399, 1, 2, 4,10,104369.48322671017, 1, 1,20,10
170,273393721.45534325,232.27731661587313, 1, 2, 4,10,11650.931360040839, 1, 1,12,10
207,339560869.06955314,543.5021409221355, 1, 2, 3,10,15327.095199349082, 1, 1,10,10
244,664895467.8009839,1014.5707620042115, 1, 2, 4,10,35359.08742820678, 1, 1,20,10
281,2407221015.1057043,39959.06841621388, 1, 1, 5,10,54634.54471212738, 1, 1,19,10
318,0.0,0.0, 1, 1, 1,10,0.0, 1, 1, 1,10
355,35747164084.97708,12374.216038804521, 1, 2, 4,10,3829218.154066983,11, 7,18,60
403,10310294493.052883,12374.216038804521, 1, 2, 4,10,483183.26346918393, 1, 1,18,10
476,5569688622.065564,4732.048419519677, 1, 2, 4,10,237357.535085481, 1, 1,12,10
513,0.0,0.0, 1, 1, 1,10,0.0, 1, 1, 1,10
562,1708001937.3884163,0.0, 1, 1,23,10,87233.63584129079, 1,18, 9,10
1046,0.0,0.0, 1, 1, 1,10,0.0, 1, 1, 1,10
1096,7780727460.053967,0.0, 1, 1, 1,10,955538.3867392264, 7,18,14,60
1134,12850240963.856152,0.0, 1,25,23,10,4616940.608970117, 1, 3, 6,10
1323,25436869591.928223,0.0, 1, 1, 1,10,3375000.000000002, 1, 3,20,20
1360,261748800.0,4979.999999999998, 3,31,16,60,4980.000000000002, 1,18, 8,20
1388,0.0,0.0, 1, 1, 1,10,0.0, 1, 1, 1,10
End of Data
 Number of Records Written=          87
