Program Version,EnergyPlus, Version 22.2.0-c249759bad, YMD=2023.09.01 20:28
1,5,Environment Title[],Latitude[deg],Longitude[deg],Time Zone[],Elevation[m]
2,8,Day of Simulation[],Month[],Day of Month[],DST Indicator[1=yes 0=no],Hour[],StartMinute[],EndMinute[],DayType
3,5,Cumulative Day of Simulation[],Month[],Day of Month[],DST Indicator[1=yes 0=no],DayType  ! When Daily Report Variables Requested
4,2,Cumulative Days of Simulation[],Month[]  ! When Monthly Report Variables Requested
5,1,Cumulative Days of Simulation[] ! When Run Period Report Variables Requested
6,1,Calendar Year of Simulation[] ! When Annual Report Variables Requested
581,11,LIVING,AFN Zone Infiltration Air Change Rate [ach] !RunPeriod [Value,Min,Month,Day,Hour,Minute,Max,Month,Day,Hour,Minute]
582,11,ATTIC,AFN Zone Infiltration Air Change Rate [ach] !RunPeriod [Value,Min,Month,Day,Hour,Minute,Max,Month,Day,Hour,Minute]
583,11,CRAWLSPACE,AFN Zone Infiltration Air Change Rate [ach] !RunPeriod [Value,Min,Month,Day,Hour,Minute,Max,Month,Day,Hour,Minute]
1038,11,Facility,Facility Heating Setpoint Not Met Time [hr] !RunPeriod [Value,Min,Month,Day,Hour,Minute,Max,Month,Day,Hour,Minute]
1039,11,Facility,Facility Cooling Setpoint Not Met Time [hr] !RunPeriod [Value,Min,Month,Day,Hour,Minute,Max,Month,Day,Hour,Minute]
1115,11,DX_HEATING_COIL,Heating Coil Heating Energy [J] !RunPeriod [Value,Min,Month,Day,Hour,Minute,Max,Month,Day,Hour,Minute]
1128,11,DX_HEATING_COIL,Heating Coil Electricity Energy [J] !RunPeriod [Value,Min,Month,Day,Hour,Minute,Max,Month,Day,Hour,Minute]
1153,11,DX_HEATING_COIL,Heating Coil Defrost Electricity Energy [J] !RunPeriod [Value,Min,Month,Day,Hour,Minute,Max,Month,Day,Hour,Minute]
1154,11,DX_HEATING_COIL,Heating Coil Crankcase Heater Electricity Energy [J] !RunPeriod [Value,Min,Month,Day,Hour,Minute,Max,Month,Day,Hour,Minute]
1155,11,HEATING_RESISTANCE_BACKUP,Heating Coil Heating Energy [J] !RunPeriod [Value,Min,Month,Day,Hour,Minute,Max,Month,Day,Hour,Minute]
1156,11,HEATING_RESISTANCE_BACKUP,Heating Coil Electricity Energy [J] !RunPeriod [Value,Min,Month,Day,Hour,Minute,Max,Month,Day,Hour,Minute]
1292,11,WATER HEATER,Water Heater Heat Loss Energy [J] !RunPeriod [Value,Min,Month,Day,Hour,Minute,Max,Month,Day,Hour,Minute]
1306,11,WATER HEATER,Water Heater Heating Energy [J] !RunPeriod [Value,Min,Month,Day,Hour,Minute,Max,Month,Day,Hour,Minute]
1307,11,WATER HEATER,Water Heater Unmet Demand Heat Transfer Energy [J] !RunPeriod [Value,Min,Month,Day,Hour,Minute,Max,Month,Day,Hour,Minute]
1308,11,WATER HEATER,Water Heater Electricity Energy [J] !RunPeriod [Value,Min,Month,Day,Hour,Minute,Max,Month,Day,Hour,Minute]
13,11,Electricity:Facility [J] !RunPeriod [Value,Min,Month,Day,Hour,Minute,Max,Month,Day,Hour,Minute]
1134,11,Heating:Electricity [J] !RunPeriod [Value,Min,Month,Day,Hour,Minute,Max,Month,Day,Hour,Minute]
1096,11,Cooling:Electricity [J] !RunPeriod [Value,Min,Month,Day,Hour,Minute,Max,Month,Day,Hour,Minute]
562,11,Fans:Electricity [J] !RunPeriod [Value,Min,Month,Day,Hour,Minute,Max,Month,Day,Hour,Minute]
1379,11,Pumps:Electricity [J] !RunPeriod [Value,Min,Month,Day,Hour,Minute,Max,Month,Day,Hour,Minute]
1326,11,WaterSystems:Electricity [J] !RunPeriod [Value,Min,Month,Day,Hour,Minute,Max,Month,Day,Hour,Minute]
61,11,InteriorLights:Electricity [J] !RunPeriod [Value,Min,Month,Day,Hour,Minute,Max,Month,Day,Hour,Minute]
1046,11,ExteriorLights:Electricity [J] !RunPeriod [Value,Min,Month,Day,Hour,Minute,Max,Month,Day,Hour,Minute]
134,11,InteriorEquipment:Electricity [J] !RunPeriod [Value,Min,Month,Day,Hour,Minute,Max,Month,Day,Hour,Minute]
170,11,gas_dryer:InteriorEquipment:Electricity [J] !RunPeriod [Value,Min,Month,Day,Hour,Minute,Max,Month,Day,Hour,Minute]
207,11,clotheswasher:InteriorEquipment:Electricity [J] !RunPeriod [Value,Min,Month,Day,Hour,Minute,Max,Month,Day,Hour,Minute]
244,11,dishwasher:InteriorEquipment:Electricity [J] !RunPeriod [Value,Min,Month,Day,Hour,Minute,Max,Month,Day,Hour,Minute]
281,11,refrigerator:InteriorEquipment:Electricity [J] !RunPeriod [Value,Min,Month,Day,Hour,Minute,Max,Month,Day,Hour,Minute]
318,11,electric_mels:InteriorEquipment:Electricity [J] !RunPeriod [Value,Min,Month,Day,Hour,Minute,Max,Month,Day,Hour,Minute]
355,11,NaturalGas:Facility [J] !RunPeriod [Value,Min,Month,Day,Hour,Minute,Max,Month,Day,Hour,Minute]
403,11,InteriorEquipment:NaturalGas [J] !RunPeriod [Value,Min,Month,Day,Hour,Minute,Max,Month,Day,Hour,Minute]
476,11,gas_dryer:InteriorEquipment:NaturalGas [J] !RunPeriod [Value,Min,Month,Day,Hour,Minute,Max,Month,Day,Hour,Minute]
513,11,gas_mels:InteriorEquipment:NaturalGas [J] !RunPeriod [Value,Min,Month,Day,Hour,Minute,Max,Month,Day,Hour,Minute]
End of Data Dictionary
1,EXTREME_WINTER,  39.50,-119.77,  -8.00,1344.20
5,15
1038,0.5,0.0,12,22, 1,15,0.25, 1, 1, 4,30
1039,1.0,0.0,12,22, 1,15,0.25,12,29,15,30
581,0.3220920548005141,0.15351072553975265, 1, 1, 2, 5,1.5490371353989498, 1, 1, 4,60
582,2.6961688280251304,0.0,12,22,21,60,25.499926565843165, 1, 1, 4,60
583,0.03710186887965625,0.0001976291667993084,12,28,19,37,0.11515390713473667, 1, 1,11,60
1115,2595091993.037489,0.0,12,22,23, 5,5059535.196667413, 1, 1,12,15
1128,864628934.2721819,0.0,12,22,23, 5,1601196.8402713775,12,26, 8,60
1153,31941788.20583291,0.0,12,22,23, 5,153323.7195820132, 1, 1,11,60
1154,156695221.1827092,0.0,12,22, 6, 5,180000.0,12,23,14,30
1155,101416291.55115262,0.0,12,22, 1,15,2269559.5391794206, 1, 4, 6,45
1156,101416291.55115262,0.0,12,22, 1,15,2269559.5391794206, 1, 4, 6,45
1292,-53889935.72076689,-39776.11214344144,12,22, 1,15,-4379.881465757699,12,27,10,32
1306,385094725.3430526,0.0,12,22, 1,15,4050000.0,12,22, 8,45
1307,72184625.49068387,0.0,12,22, 1,15,9334731.202814626, 1, 1,10,30
1308,385094725.3430526,0.0,12,22, 1,15,4050000.0,12,22, 8,45
13,2434193723.77974,272017.0388981225,12,29,15,15,7237984.513130231, 1, 4, 9,45
61,646981127.1939323,88139.10953165221,12,22, 1,15,1282023.4113694867,12,22,20,15
134,151290040.75163814,63564.01800854099,12,22, 4,15,156554.22484006523,12,27,20,15
170,11185820.069951689,348.4159749238097,12,22, 4,15,17476.39704006126,12,27,12,15
207,13893028.5742839,815.2532113832032,12,22, 3,15,22990.642799023623,12,27,10,15
244,27284301.07562584,1521.856143006317,12,22, 4,15,53038.631142310165,12,27,20,15
281,98926891.03177746,59938.60262432081,12,22, 5,15,81951.81706819107,12,22,19,15
318,0.0,0.0,12,22, 1,15,0.0,12,22, 1,15
355,422701517.16107386,18561.32405820678,12,22, 4,15,724774.895203776,12,27,18,15
403,422701517.16107386,18561.32405820678,12,22, 4,15,724774.895203776,12,27,18,15
476,227882097.80545202,7098.072629279515,12,22, 4,15,356036.3026282215,12,27,12,15
513,0.0,0.0,12,22, 1,15,0.0,12,22, 1,15
562,94340543.01737471,0.0,12,22,23,15,174101.89738858913, 1, 4,10,15
1046,0.0,0.0,12,22, 1,15,0.0,12,22, 1,15
1096,1805052.2618666263,0.0,12,22, 1,15,177527.5040748847,12,29,16,45
1134,1154682235.2118754,0.0,12,29,14,60,4407555.45240229, 1, 4, 6,15
1326,385094725.34305245,0.0,12,22, 1,15,4050000.0,12,22, 8,45
1379,0.0,0.0,12,22, 1,15,0.0,12,22, 1,15
1,EXTREME_SUMMER,  39.50,-119.77,  -8.00,1344.20
5,7
1038,0.0,0.0, 7,20, 1,15,0.0, 7,20, 1,15
1039,2.5,0.0, 7,20, 1,15,0.25, 7,26,17,15
581,0.13414500239832003,0.0, 7,20, 6, 7,0.5235613936041493, 7,25,21,52
582,3.646245398608388,0.0, 7,22, 8,14,16.535300240680392, 7,24,18,48
583,0.040468768033997446,0.000024517147315265353, 7,20, 6,11,0.08931697920172013, 7,26,19,33
1115,0.0,0.0, 7,20, 1, 7,0.0, 7,20, 1, 7
1128,0.0,0.0, 7,20, 1, 7,0.0, 7,20, 1, 7
1153,0.0,0.0, 7,20, 1, 7,0.0, 7,20, 1, 7
1154,0.0,0.0, 7,20, 1, 7,0.0, 7,20, 1, 7
1155,0.0,0.0, 7,20, 1, 7,0.0, 7,20, 1, 7
1156,0.0,0.0, 7,20, 1, 7,0.0, 7,20, 1, 7
1292,-22108409.61838929,-34348.7054854163, 7,23,18,45,-2173.120444815463, 7,23,10,31
1306,139870952.70145077,0.0, 7,20, 1, 7,2773465.5309303263, 7,23,19,30
1307,19258788.629303236,0.0, 7,20, 1, 7,745831.1861156143, 7,25,10,16
1308,139870952.70145077,0.0, 7,20, 1, 7,2773465.5309303263, 7,23,19,30
13,1088483280.4061513,151703.1275401932, 7,21, 4,60,6746063.173588328, 7,26,20,60
61,301924526.02383536,88139.10953165221, 7,20, 1,15,1282023.4113694867, 7,20,20,15
134,70666020.44019976,63564.01800854099, 7,20, 4,15,156554.22484006523, 7,25,20,15
170,5241013.419656067,348.4159749238097, 7,20, 4,15,17476.39704006126, 7,25,12,15
207,6509451.13922267,815.2532113832032, 7,20, 3,15,22990.642799023623, 7,25,10,15
244,12749673.399825225,1521.856143006317, 7,20, 4,15,53038.631142310165, 7,25,20,15
281,46165882.481495745,59938.60262432081, 7,20, 5,15,81951.81706819107, 7,20,19,15
318,0.0,0.0, 7,20, 1,15,0.0, 7,20, 1,15
355,197687796.27748066,18561.32405820678, 7,20, 4,15,724774.895203776, 7,25,18,15
403,197687796.27748066,18561.32405820678, 7,20, 4,15,724774.895203776, 7,25,18,15
476,106772067.24485716,7098.072629279515, 7,20, 4,15,356036.3026282215, 7,25,12,15
513,0.0,0.0, 7,20, 1,15,0.0, 7,20, 1,15
562,52914751.9976794,0.0, 7,21, 4,60,174101.89738858913, 7,26,16,60
1046,0.0,0.0, 7,20, 1,15,0.0, 7,20, 1,15
1096,523107029.24298614,0.0, 7,21, 4,60,1961438.1572565292, 7,26,16,45
1134,0.0,0.0, 7,20, 1,15,0.0, 7,20, 1,15
1326,139870952.70145074,0.0, 7,20, 1,15,4050000.0, 7,20, 8,45
1379,0.0,0.0, 7,20, 1,15,0.0, 7,20, 1,15
1,ANNUAL,  39.50,-119.77,  -8.00,1344.20
5,365
1038,0.25,0.0, 1, 1, 1,15,0.25, 3,12,23,60
1039,61.75,0.0, 1, 1, 1,15,0.25, 1,17,15,30
581,0.23169192986762435,0.0, 6,27,23, 3,1.664856454343971, 3,29, 9,60
582,3.3260203819145544,0.0, 1, 3,19,30,32.12835252780784, 3,29, 9,60
583,0.023844421760538814,0.0, 6,27,23, 3,0.11557670152309195, 1, 1, 6, 5
1115,13525661438.38714,0.0, 1, 1,23, 5,4998216.665208273, 3,13, 6,60
1128,4385029972.329376,0.0, 1, 1,23, 5,1632306.2946380598, 3,13, 6,60
1153,160528132.0196778,0.0, 1, 1, 1,52,143843.74737572885, 1, 1,11,60
1154,2273407972.508941,0.0, 1, 1, 6, 5,180000.0, 1, 2,13,15
1155,206846022.09455383,0.0, 1, 1, 1, 5,2061299.303282671, 1, 4, 6,45
1156,206846022.09455383,0.0, 1, 1, 1, 5,2061299.303282671, 1, 4, 6,45
1292,-1219083085.8683898,-39778.09606438877,10,14, 4,60,-2030.0598519517077, 4, 6,10,31
1306,8507877333.213911,0.0, 1, 1, 1, 5,4050000.0, 1, 1, 9,45
1307,1448480973.509447,0.0, 1, 1, 1, 5,9074614.262405284, 3,30,10,30
1308,8507877333.213911,0.0, 1, 1, 1, 5,4050000.0, 1, 1, 9,45
13,45053534953.50649,151703.1275401932, 3,29, 4,15,7073707.433717516, 5,18,19,30
61,15743207428.383959,88139.10953165221, 1, 1, 1,15,1282023.4113694867, 1, 1,20,15
134,3685071073.4325233,63564.01800854099, 1, 2, 4,15,156554.22484006523, 1, 1,20,15
170,273393721.45532674,348.4159749238097, 1, 2, 4,15,17476.39704006126, 1, 1,12,15
207,339560869.0695816,815.2532113832032, 1, 2, 3,15,22990.642799023623, 1, 1,10,15
244,664895467.8009144,1521.856143006317, 1, 2, 4,15,53038.631142310165, 1, 1,20,15
281,2407221015.106824,59938.60262432081, 1, 1, 5,15,81951.81706819107, 1, 1,19,15
318,0.0,0.0, 1, 1, 1,15,0.0, 1, 1, 1,15
355,10310294493.051695,18561.32405820678, 1, 2, 4,15,724774.895203776, 1, 1,18,15
403,10310294493.051695,18561.32405820678, 1, 2, 4,15,724774.895203776, 1, 1,18,15
476,5569688622.066177,7098.072629279515, 1, 2, 4,15,356036.3026282215, 1, 1,12,15
513,0.0,0.0, 1, 1, 1,15,0.0, 1, 1, 1,15
562,1479654703.1317241,0.0, 1, 2,11,60,174101.89738858916, 7,31,15,30
1046,0.0,0.0, 1, 1, 1,15,0.0, 1, 1, 1,15
1096,8611912316.38936,0.0, 1, 1, 1,15,2042505.6136620736, 7,18,15,60
1134,7025812098.952575,0.0, 1, 7,17,60,4206270.663551916, 1, 4, 6,15
1326,8507877333.213907,0.0, 1, 1, 1,15,4050000.0000000014, 2,16,10,30
1379,0.0,0.0, 1, 1, 1,15,0.0, 1, 1, 1,15
End of Data
 Number of Records Written=          99
