Program Version,EnergyPlus, Version 22.2.0-c249759bad, YMD=2023.07.07 15:12
1,5,Environment Title[],Latitude[deg],Longitude[deg],Time Zone[],Elevation[m]
2,8,Day of Simulation[],Month[],Day of Month[],DST Indicator[1=yes 0=no],Hour[],StartMinute[],EndMinute[],DayType
3,5,Cumulative Day of Simulation[],Month[],Day of Month[],DST Indicator[1=yes 0=no],DayType  ! When Daily Report Variables Requested
4,2,Cumulative Days of Simulation[],Month[]  ! When Monthly Report Variables Requested
5,1,Cumulative Days of Simulation[] ! When Run Period Report Variables Requested
6,1,Calendar Year of Simulation[] ! When Annual Report Variables Requested
581,11,LIVING,AFN Zone Infiltration Air Change Rate [ach] !RunPeriod [Value,Min,Month,Day,Hour,Minute,Max,Month,Day,Hour,Minute]
582,11,ATTIC,AFN Zone Infiltration Air Change Rate [ach] !RunPeriod [Value,Min,Month,Day,Hour,Minute,Max,Month,Day,Hour,Minute]
583,11,CRAWLSPACE,AFN Zone Infiltration Air Change Rate [ach] !RunPeriod [Value,Min,Month,Day,Hour,Minute,Max,Month,Day,Hour,Minute]
1038,11,Facility,Facility Heating Setpoint Not Met Time [hr] !RunPeriod [Value,Min,Month,Day,Hour,Minute,Max,Month,Day,Hour,Minute]
1039,11,Facility,Facility Cooling Setpoint Not Met Time [hr] !RunPeriod [Value,Min,Month,Day,Hour,Minute,Max,Month,Day,Hour,Minute]
1115,11,DX_HEATING_COIL,Heating Coil Heating Energy [J] !RunPeriod [Value,Min,Month,Day,Hour,Minute,Max,Month,Day,Hour,Minute]
1128,11,DX_HEATING_COIL,Heating Coil Electricity Energy [J] !RunPeriod [Value,Min,Month,Day,Hour,Minute,Max,Month,Day,Hour,Minute]
1153,11,DX_HEATING_COIL,Heating Coil Defrost Electricity Energy [J] !RunPeriod [Value,Min,Month,Day,Hour,Minute,Max,Month,Day,Hour,Minute]
1154,11,DX_HEATING_COIL,Heating Coil Crankcase Heater Electricity Energy [J] !RunPeriod [Value,Min,Month,Day,Hour,Minute,Max,Month,Day,Hour,Minute]
1156,11,HEATING_RESISTANCE_BACKUP,Heating Coil Electricity Energy [J] !RunPeriod [Value,Min,Month,Day,Hour,Minute,Max,Month,Day,Hour,Minute]
13,11,Electricity:Facility [J] !RunPeriod [Value,Min,Month,Day,Hour,Minute,Max,Month,Day,Hour,Minute]
1134,11,Heating:Electricity [J] !RunPeriod [Value,Min,Month,Day,Hour,Minute,Max,Month,Day,Hour,Minute]
1096,11,Cooling:Electricity [J] !RunPeriod [Value,Min,Month,Day,Hour,Minute,Max,Month,Day,Hour,Minute]
562,11,Fans:Electricity [J] !RunPeriod [Value,Min,Month,Day,Hour,Minute,Max,Month,Day,Hour,Minute]
1388,11,Pumps:Electricity [J] !RunPeriod [Value,Min,Month,Day,Hour,Minute,Max,Month,Day,Hour,Minute]
1360,11,WaterSystems:Electricity [J] !RunPeriod [Value,Min,Month,Day,Hour,Minute,Max,Month,Day,Hour,Minute]
61,11,InteriorLights:Electricity [J] !RunPeriod [Value,Min,Month,Day,Hour,Minute,Max,Month,Day,Hour,Minute]
1046,11,ExteriorLights:Electricity [J] !RunPeriod [Value,Min,Month,Day,Hour,Minute,Max,Month,Day,Hour,Minute]
134,11,InteriorEquipment:Electricity [J] !RunPeriod [Value,Min,Month,Day,Hour,Minute,Max,Month,Day,Hour,Minute]
170,11,gas_dryer:InteriorEquipment:Electricity [J] !RunPeriod [Value,Min,Month,Day,Hour,Minute,Max,Month,Day,Hour,Minute]
207,11,clotheswasher:InteriorEquipment:Electricity [J] !RunPeriod [Value,Min,Month,Day,Hour,Minute,Max,Month,Day,Hour,Minute]
244,11,dishwasher:InteriorEquipment:Electricity [J] !RunPeriod [Value,Min,Month,Day,Hour,Minute,Max,Month,Day,Hour,Minute]
281,11,refrigerator:InteriorEquipment:Electricity [J] !RunPeriod [Value,Min,Month,Day,Hour,Minute,Max,Month,Day,Hour,Minute]
318,11,electric_mels:InteriorEquipment:Electricity [J] !RunPeriod [Value,Min,Month,Day,Hour,Minute,Max,Month,Day,Hour,Minute]
355,11,NaturalGas:Facility [J] !RunPeriod [Value,Min,Month,Day,Hour,Minute,Max,Month,Day,Hour,Minute]
1323,11,WaterSystems:NaturalGas [J] !RunPeriod [Value,Min,Month,Day,Hour,Minute,Max,Month,Day,Hour,Minute]
403,11,InteriorEquipment:NaturalGas [J] !RunPeriod [Value,Min,Month,Day,Hour,Minute,Max,Month,Day,Hour,Minute]
476,11,gas_dryer:InteriorEquipment:NaturalGas [J] !RunPeriod [Value,Min,Month,Day,Hour,Minute,Max,Month,Day,Hour,Minute]
513,11,gas_mels:InteriorEquipment:NaturalGas [J] !RunPeriod [Value,Min,Month,Day,Hour,Minute,Max,Month,Day,Hour,Minute]
End of Data Dictionary
1,EXTREME_WINTER,  38.05, -87.53,  -6.00, 121.90
5,7
1038,0.8333333333333333,0.0, 1, 8, 1,10,0.16666666666666666, 1, 8, 6,10
1039,0.0,0.0, 1, 8, 1,10,0.0, 1, 8, 1,10
581,0.3208061654182379,0.17089977540628487, 1,11,23,30,0.7318816850893992, 1, 8,21,60
582,3.4909455003815566,0.0, 1,10, 2,60,15.391852955403294, 1, 8,21,60
583,4.762681543016043,0.00024035349460960163, 1,14,23,10,20.068045478484027, 1, 8,21,60
1115,1853435445.731368,0.0, 1, 8,23, 2,2971189.7402284034, 1,11, 6,40
1128,606554696.0761865,0.0, 1, 8,23, 2,897765.8375189878, 1,11, 6,30
1153,10918212.452507488,0.0, 1, 8,23, 2,71210.93238822166, 1,12, 6,30
1154,34173302.037647925,0.0, 1, 8, 1, 1,120000.0, 1,10,15,30
1156,397625996.1893403,0.0, 1, 8,23, 2,2770404.6945468714, 1, 8, 6,40
13,1493900014.6876566,306324.6925987483, 1,10,15,30,4416520.6730322745, 1,10, 6,10
61,301924526.0238348,58759.40635443481, 1, 8, 1,10,854682.2742463244, 1, 8,20,10
134,70666020.44019979,42376.01200569399, 1, 8, 4,10,104369.48322671017, 1,13,20,10
170,5241013.419656074,232.27731661587313, 1, 8, 4,10,11650.931360040839, 1,13,12,10
207,6509451.13922266,543.5021409221355, 1, 8, 3,10,15327.095199349082, 1,13,10,10
244,12749673.39982522,1014.5707620042115, 1, 8, 4,10,35359.08742820678, 1,13,20,10
281,46165882.48149605,39959.06841621388, 1, 8, 5,10,54634.54471212738, 1, 8,19,10
318,0.0,0.0, 1, 8, 1,10,0.0, 1, 8, 1,10
355,739888905.2543308,12374.216038804521, 1, 8, 4,10,3829218.154066982, 1, 9,18,60
403,197687796.27748126,12374.216038804521, 1, 8, 4,10,483183.26346918393, 1,13,18,10
476,106772067.24485692,4732.048419519677, 1, 8, 4,10,237357.535085481, 1,13,12,10
513,0.0,0.0, 1, 8, 1,10,0.0, 1, 8, 1,10
562,67017421.467940845,0.0, 1, 9,17,10,92801.79186240524, 1, 8, 1,10
1046,0.0,0.0, 1, 8, 1,10,0.0, 1, 8, 1,10
1096,0.0,0.0, 1, 8, 1,10,0.0, 1, 8, 1,10
1134,1049272206.7556825,120000.0, 1, 9,17,10,3906159.558159217, 1,10, 6,10
1323,542201108.9768461,0.0, 1, 8, 1,10,3375000.000000001, 1,14,21,40
1360,5019840.0,4980.0, 1, 8, 1,20,4980.000000000001, 1, 8, 1,10
1388,0.0,0.0, 1, 8, 1,10,0.0, 1, 8, 1,10
1,EXTREME_SUMMER,  38.05, -87.53,  -6.00, 121.90
5,7
1038,0.0,0.0, 7,15, 1,10,0.0, 7,15, 1,10
1039,47.49999999999999,0.0, 7,15, 1,10,0.16666666666666666, 7,15,13,30
581,0.03480876076835463,0.0, 7,15, 1,10,0.29858979533966923, 7,21,15,55
582,1.7316260916689845,0.0, 7,15,20,42,7.667478585686987, 7,21, 9,59
583,1.934445049160951,0.0, 7,16, 6, 7,9.917927205212578, 7,21,15,52
1115,0.0,0.0, 7,15, 1,10,0.0, 7,15, 1,10
1128,0.0,0.0, 7,15, 1,10,0.0, 7,15, 1,10
1153,0.0,0.0, 7,15, 1,10,0.0, 7,15, 1,10
1154,0.0,0.0, 7,15, 1,10,0.0, 7,15, 1,10
1156,0.0,0.0, 7,15, 1,10,0.0, 7,15, 1,10
13,1033232817.3328286,179565.32389165068, 7,15, 4,60,1986792.0315848868, 7,19,20,10
61,301924526.0238348,58759.40635443481, 7,15, 1,10,854682.2742463244, 7,15,20,10
134,70666020.44019979,42376.01200569399, 7,15, 4,10,104369.48322671017, 7,20,20,10
170,5241013.419656074,232.27731661587313, 7,15, 4,10,11650.931360040839, 7,20,12,10
207,6509451.13922266,543.5021409221355, 7,15, 3,10,15327.095199349082, 7,20,10,10
244,12749673.39982522,1014.5707620042115, 7,15, 4,10,35359.08742820678, 7,20,20,10
281,46165882.48149605,39959.06841621388, 7,15, 5,10,54634.54471212738, 7,15,19,10
318,0.0,0.0, 7,15, 1,10,0.0, 7,15, 1,10
355,640986382.3524275,12374.216038804521, 7,15, 4,10,3829218.154066982, 7,16,18,60
403,197687796.27748126,12374.216038804521, 7,15, 4,10,483183.26346918393, 7,20,18,10
476,106772067.24485692,4732.048419519677, 7,15, 4,10,237357.535085481, 7,20,12,10
513,0.0,0.0, 7,15, 1,10,0.0, 7,15, 1,10
562,61946190.117283724,0.0, 7,21,23,10,92801.79186240524, 7,15,12,30
1046,0.0,0.0, 7,15, 1,10,0.0, 7,15, 1,10
1096,593676240.7515093,0.0, 7,21,23,10,986052.2398544018, 7,19,14,60
1134,0.0,0.0, 7,15, 1,10,0.0, 7,15, 1,10
1323,443298586.074945,0.0, 7,15, 1,10,3375000.0000000005, 7,20,10,10
1360,5019840.0,4980.0, 7,15, 1,10,4980.000000000001, 7,15, 7,20
1388,0.0,0.0, 7,15, 1,10,0.0, 7,15, 1,10
1,ANNUAL,  38.05, -87.53,  -6.00, 121.90
5,365
1038,10.999999999999995,0.0, 1, 1, 1,10,0.16666666666666666, 1, 2, 6,10
1039,623.4999999999997,0.0, 1, 1, 1,10,0.16666666666666666, 2, 1,14,60
581,0.1887863549416025,0.0, 5, 5,20,43,1.2169363729578402, 2,11,15,60
582,3.2225106918267983,0.0, 1, 3, 2,60,27.100543315091805, 2,11,15,60
583,3.9002280223952948,0.0, 5,29,23, 3,35.61075689514051, 2,11,15,60
1115,16364340591.18826,0.0, 1, 1,16,30,2997658.5523676556, 2, 6, 7,10
1128,5061319299.625552,0.0, 1, 1,16,30,891802.281570388, 1,11, 6,30
1153,176452004.40901813,0.0, 1, 1,16,30,70431.25246963071,12,16, 4,10
1154,1486080204.5596988,0.0, 1, 1, 6, 2,120000.0, 1, 1,16,30
1156,1621705019.1514788,0.0, 1, 1, 1, 1,3113138.20835936, 1, 8, 6,10
13,41389991825.051765,106115.4183601288, 2, 7, 4,10,4471119.416301869, 2, 4, 7,20
61,15743207428.39043,58759.40635443481, 1, 1, 1,10,854682.2742463244, 1, 1,20,10
134,3685071073.433083,42376.01200569399, 1, 2, 4,10,104369.48322671017, 1, 1,20,10
170,273393721.45534325,232.27731661587313, 1, 2, 4,10,11650.931360040839, 1, 1,12,10
207,339560869.06955314,543.5021409221355, 1, 2, 3,10,15327.095199349082, 1, 1,10,10
244,664895467.8009839,1014.5707620042115, 1, 2, 4,10,35359.08742820678, 1, 1,20,10
281,2407221015.1057043,39959.06841621388, 1, 1, 5,10,54634.54471212738, 1, 1,19,10
318,0.0,0.0, 1, 1, 1,10,0.0, 1, 1, 1,10
355,35705641106.77022,12374.216038804521, 1, 2, 4,10,3829218.154066983, 3,14,18,60
403,10310294493.052883,12374.216038804521, 1, 2, 4,10,483183.26346918393, 1, 1,18,10
476,5569688622.065564,4732.048419519677, 1, 2, 4,10,237357.535085481, 1, 1,12,10
513,0.0,0.0, 1, 1, 1,10,0.0, 1, 1, 1,10
562,1854352778.5106678,0.0, 1, 1,16,30,92801.79186240524, 1, 1, 6,30
1046,0.0,0.0, 1, 1, 1,10,0.0, 1, 1, 1,10
1096,11500055216.978096,0.0, 1, 1, 1,10,1016368.9377256851, 8,31,15,60
1134,8345556527.745741,0.0, 1, 3,17,10,3910129.234995059, 2, 4, 6,30
1323,25395346613.721336,0.0, 1, 1, 1,10,3375000.0000000023, 2, 6,21,60
1360,261748800.0,4979.999999999998, 4,18, 9,10,4980.000000000002, 1, 8,11,10
1388,0.0,0.0, 1, 1, 1,10,0.0, 1, 1, 1,10
End of Data
 Number of Records Written=          87
