Program Version,EnergyPlus, Version 22.2.0-c249759bad, YMD=2023.09.01 20:30
1,5,Environment Title[],Latitude[deg],Longitude[deg],Time Zone[],Elevation[m]
2,8,Day of Simulation[],Month[],Day of Month[],DST Indicator[1=yes 0=no],Hour[],StartMinute[],EndMinute[],DayType
3,5,Cumulative Day of Simulation[],Month[],Day of Month[],DST Indicator[1=yes 0=no],DayType  ! When Daily Report Variables Requested
4,2,Cumulative Days of Simulation[],Month[]  ! When Monthly Report Variables Requested
5,1,Cumulative Days of Simulation[] ! When Run Period Report Variables Requested
6,1,Calendar Year of Simulation[] ! When Annual Report Variables Requested
581,11,LIVING,AFN Zone Infiltration Air Change Rate [ach] !RunPeriod [Value,Min,Month,Day,Hour,Minute,Max,Month,Day,Hour,Minute]
582,11,ATTIC,AFN Zone Infiltration Air Change Rate [ach] !RunPeriod [Value,Min,Month,Day,Hour,Minute,Max,Month,Day,Hour,Minute]
583,11,CRAWLSPACE,AFN Zone Infiltration Air Change Rate [ach] !RunPeriod [Value,Min,Month,Day,Hour,Minute,Max,Month,Day,Hour,Minute]
1038,11,Facility,Facility Heating Setpoint Not Met Time [hr] !RunPeriod [Value,Min,Month,Day,Hour,Minute,Max,Month,Day,Hour,Minute]
1039,11,Facility,Facility Cooling Setpoint Not Met Time [hr] !RunPeriod [Value,Min,Month,Day,Hour,Minute,Max,Month,Day,Hour,Minute]
1115,11,DX_HEATING_COIL,Heating Coil Heating Energy [J] !RunPeriod [Value,Min,Month,Day,Hour,Minute,Max,Month,Day,Hour,Minute]
1128,11,DX_HEATING_COIL,Heating Coil Electricity Energy [J] !RunPeriod [Value,Min,Month,Day,Hour,Minute,Max,Month,Day,Hour,Minute]
1153,11,DX_HEATING_COIL,Heating Coil Defrost Electricity Energy [J] !RunPeriod [Value,Min,Month,Day,Hour,Minute,Max,Month,Day,Hour,Minute]
1154,11,DX_HEATING_COIL,Heating Coil Crankcase Heater Electricity Energy [J] !RunPeriod [Value,Min,Month,Day,Hour,Minute,Max,Month,Day,Hour,Minute]
1155,11,HEATING_RESISTANCE_BACKUP,Heating Coil Heating Energy [J] !RunPeriod [Value,Min,Month,Day,Hour,Minute,Max,Month,Day,Hour,Minute]
1156,11,HEATING_RESISTANCE_BACKUP,Heating Coil Electricity Energy [J] !RunPeriod [Value,Min,Month,Day,Hour,Minute,Max,Month,Day,Hour,Minute]
1292,11,WATER HEATER,Water Heater Heat Loss Energy [J] !RunPeriod [Value,Min,Month,Day,Hour,Minute,Max,Month,Day,Hour,Minute]
1306,11,WATER HEATER,Water Heater Heating Energy [J] !RunPeriod [Value,Min,Month,Day,Hour,Minute,Max,Month,Day,Hour,Minute]
1307,11,WATER HEATER,Water Heater Unmet Demand Heat Transfer Energy [J] !RunPeriod [Value,Min,Month,Day,Hour,Minute,Max,Month,Day,Hour,Minute]
1308,11,WATER HEATER,Water Heater Electricity Energy [J] !RunPeriod [Value,Min,Month,Day,Hour,Minute,Max,Month,Day,Hour,Minute]
13,11,Electricity:Facility [J] !RunPeriod [Value,Min,Month,Day,Hour,Minute,Max,Month,Day,Hour,Minute]
1134,11,Heating:Electricity [J] !RunPeriod [Value,Min,Month,Day,Hour,Minute,Max,Month,Day,Hour,Minute]
1096,11,Cooling:Electricity [J] !RunPeriod [Value,Min,Month,Day,Hour,Minute,Max,Month,Day,Hour,Minute]
562,11,Fans:Electricity [J] !RunPeriod [Value,Min,Month,Day,Hour,Minute,Max,Month,Day,Hour,Minute]
1379,11,Pumps:Electricity [J] !RunPeriod [Value,Min,Month,Day,Hour,Minute,Max,Month,Day,Hour,Minute]
1326,11,WaterSystems:Electricity [J] !RunPeriod [Value,Min,Month,Day,Hour,Minute,Max,Month,Day,Hour,Minute]
61,11,InteriorLights:Electricity [J] !RunPeriod [Value,Min,Month,Day,Hour,Minute,Max,Month,Day,Hour,Minute]
1046,11,ExteriorLights:Electricity [J] !RunPeriod [Value,Min,Month,Day,Hour,Minute,Max,Month,Day,Hour,Minute]
134,11,InteriorEquipment:Electricity [J] !RunPeriod [Value,Min,Month,Day,Hour,Minute,Max,Month,Day,Hour,Minute]
170,11,gas_dryer:InteriorEquipment:Electricity [J] !RunPeriod [Value,Min,Month,Day,Hour,Minute,Max,Month,Day,Hour,Minute]
207,11,clotheswasher:InteriorEquipment:Electricity [J] !RunPeriod [Value,Min,Month,Day,Hour,Minute,Max,Month,Day,Hour,Minute]
244,11,dishwasher:InteriorEquipment:Electricity [J] !RunPeriod [Value,Min,Month,Day,Hour,Minute,Max,Month,Day,Hour,Minute]
281,11,refrigerator:InteriorEquipment:Electricity [J] !RunPeriod [Value,Min,Month,Day,Hour,Minute,Max,Month,Day,Hour,Minute]
318,11,electric_mels:InteriorEquipment:Electricity [J] !RunPeriod [Value,Min,Month,Day,Hour,Minute,Max,Month,Day,Hour,Minute]
355,11,NaturalGas:Facility [J] !RunPeriod [Value,Min,Month,Day,Hour,Minute,Max,Month,Day,Hour,Minute]
403,11,InteriorEquipment:NaturalGas [J] !RunPeriod [Value,Min,Month,Day,Hour,Minute,Max,Month,Day,Hour,Minute]
476,11,gas_dryer:InteriorEquipment:NaturalGas [J] !RunPeriod [Value,Min,Month,Day,Hour,Minute,Max,Month,Day,Hour,Minute]
513,11,gas_mels:InteriorEquipment:NaturalGas [J] !RunPeriod [Value,Min,Month,Day,Hour,Minute,Max,Month,Day,Hour,Minute]
End of Data Dictionary
1,EXTREME_WINTER,  30.32, -97.76,  -6.00, 204.20
5,7
1038,0.5,0.0, 1,29, 1,15,0.25, 2, 2, 6,15
1039,1.25,0.0, 1,29, 1,15,0.25, 1,30,12,15
581,0.3136812780557801,0.08510660893801819, 1,31, 9,33,0.6483007960063404, 2, 1,23,60
582,3.2452196264344546,0.0, 1,30,20, 3,9.03335790966905, 1,29,17,32
583,0.03323955537523672,0.00015680629095831316, 1,31, 2,45,0.08302757192413612, 2, 1,23,60
1115,928738012.8106024,0.0, 1,29, 1,15,4001014.406170446, 2, 3,10,45
1128,314548522.7388715,0.0, 1,29, 1,15,1345716.8185274778, 2, 3,10,45
1153,3788077.183567296,0.0, 1,29, 1,15,60603.08125517095, 2, 4, 1,15
1154,36599087.08724133,0.0, 1,29, 1,15,180000.0, 1,30, 7,30
1155,163097189.29659447,0.0, 1,29, 1,15,2551359.8513850174, 2, 2, 6,45
1156,163097189.29659447,0.0, 1,29, 1,15,2551359.8513850174, 2, 2, 6,45
1292,-24174588.041103646,-39727.546324983006, 2, 3, 4,15,-3044.711623047994, 1,31,10,45
1306,154347936.03439736,0.0, 1,29, 1,15,4050000.0, 1,29, 8,45
1307,24225396.715558767,0.0, 1,29, 1,15,7043478.631213927, 2, 1,10,30
1308,154347936.03439736,0.0, 1,29, 1,15,4050000.0, 1,29, 8,45
13,1133020232.0275617,151703.1275401932, 1,29, 4,15,8169118.748212948, 2, 2, 8,30
61,301924526.02383536,88139.10953165221, 1,29, 1,15,1282023.4113694867, 1,29,20,15
134,70666020.44019976,63564.01800854099, 1,29, 4,15,156554.22484006523, 2, 3,20,15
170,5241013.419656067,348.4159749238097, 1,29, 4,15,17476.39704006126, 2, 3,12,15
207,6509451.13922267,815.2532113832032, 1,29, 3,15,22990.642799023623, 2, 3,10,15
244,12749673.399825225,1521.856143006317, 1,29, 4,15,53038.631142310165, 2, 3,20,15
281,46165882.481495745,59938.60262432081, 1,29, 5,15,81951.81706819107, 1,29,19,15
318,0.0,0.0, 1,29, 1,15,0.0, 1,29, 1,15
355,197687796.27748066,18561.32405820678, 1,29, 4,15,724774.895203776, 2, 3,18,15
403,197687796.27748066,18561.32405820678, 1,29, 4,15,724774.895203776, 2, 3,18,15
476,106772067.24485716,7098.072629279515, 1,29, 4,15,356036.3026282215, 2, 3,12,15
513,0.0,0.0, 1,29, 1,15,0.0, 1,29, 1,15
562,40026422.924388826,0.0, 1,29, 1,15,141358.37575641033, 2, 1,23,30
1046,0.0,0.0, 1,29, 1,15,0.0, 1,29, 1,15
1096,48022450.298467085,0.0, 1,29, 1,15,964253.097081186, 1,29,16,30
1134,518032876.3062744,0.0, 1,29, 1,15,4477377.699617538, 2, 2, 6,15
1326,154347936.0343974,0.0, 1,29, 1,15,4050000.0, 1,29, 8,45
1379,0.0,0.0, 1,29, 1,15,0.0, 1,29, 1,15
1,EXTREME_SUMMER,  30.32, -97.76,  -6.00, 204.20
5,7
1038,0.0,0.0, 8,12, 1,15,0.0, 8,12, 1,15
1039,69.75,0.0, 8,12, 1,15,0.25, 8,12,12,30
581,0.0930537815067729,0.0, 8,12, 6, 7,0.2601593507518177, 8,16,22,60
582,2.378871216804307,0.0, 8,14,20,25,5.677332251113167, 8,16,14,50
583,0.0495370835321661,0.0, 8,12, 6, 7,0.07354270671563626, 8,16,22, 7
1115,0.0,0.0, 8,12, 1, 7,0.0, 8,12, 1, 7
1128,0.0,0.0, 8,12, 1, 7,0.0, 8,12, 1, 7
1153,0.0,0.0, 8,12, 1, 7,0.0, 8,12, 1, 7
1154,0.0,0.0, 8,12, 1, 7,0.0, 8,12, 1, 7
1155,0.0,0.0, 8,12, 1, 7,0.0, 8,12, 1, 7
1156,0.0,0.0, 8,12, 1, 7,0.0, 8,12, 1, 7
1292,-21554442.74811119,-34315.19478436429, 8,18, 7,15,-3290.90770257133, 8,18,18,16
1306,108187326.3836255,0.0, 8,12, 1, 7,3151067.768505546, 8,13, 7,15
1307,7409320.168375189,0.0, 8,12, 1, 7,564057.8294371348, 8,17,10,17
1308,108187326.3836255,0.0, 8,12, 1, 7,3151067.768505546, 8,13, 7,15
13,1233787330.014532,312833.62339141907, 8,12, 4,60,5671500.597391185, 8,17,10,30
61,301924526.02383536,88139.10953165221, 8,12, 1,15,1282023.4113694867, 8,12,20,15
134,70666020.44019976,63564.01800854099, 8,12, 4,15,156554.22484006523, 8,17,20,15
170,5241013.419656067,348.4159749238097, 8,12, 4,15,17476.39704006126, 8,17,12,15
207,6509451.13922267,815.2532113832032, 8,12, 3,15,22990.642799023623, 8,17,10,15
244,12749673.399825225,1521.856143006317, 8,12, 4,15,53038.631142310165, 8,17,20,15
281,46165882.481495745,59938.60262432081, 8,12, 5,15,81951.81706819107, 8,12,19,15
318,0.0,0.0, 8,12, 1,15,0.0, 8,12, 1,15
355,197687796.27748066,18561.32405820678, 8,12, 4,15,724774.895203776, 8,17,18,15
403,197687796.27748066,18561.32405820678, 8,12, 4,15,724774.895203776, 8,17,18,15
476,106772067.24485716,7098.072629279515, 8,12, 4,15,356036.3026282215, 8,17,12,15
513,0.0,0.0, 8,12, 1,15,0.0, 8,12, 1,15
562,66035541.26196173,14323.089969811888, 8,12, 5,60,141358.37575641033, 8,12,11,60
1046,0.0,0.0, 8,12, 1,15,0.0, 8,12, 1,15
1096,686973915.9049089,121593.89833188916, 8,12, 5,60,1652265.309178117, 8,12,16,60
1134,0.0,0.0, 8,12, 1,15,0.0, 8,12, 1,15
1326,108187326.38362554,0.0, 8,12, 1,15,4050000.0, 8,16, 8,30
1379,0.0,0.0, 8,12, 1,15,0.0, 8,12, 1,15
1,ANNUAL,  30.32, -97.76,  -6.00, 204.20
5,365
1038,1.0,0.0, 1, 1, 1,15,0.25, 1, 2, 6,15
1039,1244.75,0.0, 1, 1, 1,15,0.25, 2,12,13,45
581,0.14359923380635045,0.0, 1, 1, 1,48,0.7094555893906234, 2, 9, 6,49
582,2.194476759421289,0.0, 1, 2, 7,52,12.404412799145003,12,22,11,60
583,0.031982823079731194,0.0, 5,15,23, 3,0.08392698259127007, 2, 1,23,60
1115,3268018720.1329646,0.0, 1, 1, 1,15,4435572.42270776, 2, 5, 6,45
1128,1034984327.4164586,0.0, 1, 1, 1,15,1385022.7419451536, 2, 5, 6,45
1153,32572451.18741937,0.0, 1, 1, 1,15,87122.25835478984, 3,13, 6,45
1154,670748508.1393938,0.0, 1, 1, 1,37,180000.0, 1, 1, 1,15
1155,185317565.3875203,0.0, 1, 1, 1,15,2393474.5446508834, 2, 2, 6,45
1156,185317565.3875203,0.0, 1, 1, 1,15,2393474.5446508834, 2, 2, 6,45
1292,-1164850688.165226,-39761.37684397952,12,24, 5,60,-1951.7389397923491, 3,16,10,31
1306,6820262921.855023,0.0, 1, 1, 1,15,4050000.0, 1, 1, 9,45
1307,792553484.4566681,0.0, 1, 1, 1,15,7058587.850948729, 1,26,10,30
1308,6820262921.855023,0.0, 1, 1, 1,15,4050000.0, 1, 1, 9,45
13,48769690205.94061,151703.1275401932, 1,12, 4,30,7493635.914541487, 2, 3, 8,30
61,15743207428.383959,88139.10953165221, 1, 1, 1,15,1282023.4113694867, 1, 1,20,15
134,3685071073.4325233,63564.01800854099, 1, 2, 4,15,156554.22484006523, 1, 1,20,15
170,273393721.45532674,348.4159749238097, 1, 2, 4,15,17476.39704006126, 1, 1,12,15
207,339560869.0695816,815.2532113832032, 1, 2, 3,15,22990.642799023623, 1, 1,10,15
244,664895467.8009144,1521.856143006317, 1, 2, 4,15,53038.631142310165, 1, 1,20,15
281,2407221015.106824,59938.60262432081, 1, 1, 5,15,81951.81706819107, 1, 1,19,15
318,0.0,0.0, 1, 1, 1,15,0.0, 1, 1, 1,15
355,10310294493.051695,18561.32405820678, 1, 2, 4,15,724774.895203776, 1, 1,18,15
403,10310294493.051695,18561.32405820678, 1, 2, 4,15,724774.895203776, 1, 1,18,15
476,5569688622.066177,7098.072629279515, 1, 2, 4,15,356036.3026282215, 1, 1,12,15
513,0.0,0.0, 1, 1, 1,15,0.0, 1, 1, 1,15
562,2106141158.4877505,0.0, 1, 1, 1,15,141358.37575641036, 4,27,18,60
1046,0.0,0.0, 1, 1, 1,15,0.0, 1, 1, 1,15
1096,18491384771.64911,0.0, 1, 1, 1,15,1692281.0409634789, 7,13,15,60
1134,1923622852.1307876,0.0, 1, 1, 1,45,4322314.043996854, 2, 2, 6,15
1326,6820262921.8550205,0.0, 1, 1, 1,15,4050000.0000000014, 1,21,10,45
1379,0.0,0.0, 1, 1, 1,15,0.0, 1, 1, 1,15
End of Data
 Number of Records Written=          99
