Program Version,EnergyPlus, Version 22.2.0-c249759bad, YMD=2023.09.01 15:53
1,5,Environment Title[],Latitude[deg],Longitude[deg],Time Zone[],Elevation[m]
2,8,Day of Simulation[],Month[],Day of Month[],DST Indicator[1=yes 0=no],Hour[],StartMinute[],EndMinute[],DayType
3,5,Cumulative Day of Simulation[],Month[],Day of Month[],DST Indicator[1=yes 0=no],DayType  ! When Daily Report Variables Requested
4,2,Cumulative Days of Simulation[],Month[]  ! When Monthly Report Variables Requested
5,1,Cumulative Days of Simulation[] ! When Run Period Report Variables Requested
6,1,Calendar Year of Simulation[] ! When Annual Report Variables Requested
581,11,LIVING,AFN Zone Infiltration Air Change Rate [ach] !RunPeriod [Value,Min,Month,Day,Hour,Minute,Max,Month,Day,Hour,Minute]
582,11,ATTIC,AFN Zone Infiltration Air Change Rate [ach] !RunPeriod [Value,Min,Month,Day,Hour,Minute,Max,Month,Day,Hour,Minute]
583,11,CRAWLSPACE,AFN Zone Infiltration Air Change Rate [ach] !RunPeriod [Value,Min,Month,Day,Hour,Minute,Max,Month,Day,Hour,Minute]
1038,11,Facility,Facility Heating Setpoint Not Met Time [hr] !RunPeriod [Value,Min,Month,Day,Hour,Minute,Max,Month,Day,Hour,Minute]
1039,11,Facility,Facility Cooling Setpoint Not Met Time [hr] !RunPeriod [Value,Min,Month,Day,Hour,Minute,Max,Month,Day,Hour,Minute]
1115,11,DX_HEATING_COIL,Heating Coil Heating Energy [J] !RunPeriod [Value,Min,Month,Day,Hour,Minute,Max,Month,Day,Hour,Minute]
1128,11,DX_HEATING_COIL,Heating Coil Electricity Energy [J] !RunPeriod [Value,Min,Month,Day,Hour,Minute,Max,Month,Day,Hour,Minute]
1153,11,DX_HEATING_COIL,Heating Coil Defrost Electricity Energy [J] !RunPeriod [Value,Min,Month,Day,Hour,Minute,Max,Month,Day,Hour,Minute]
1154,11,DX_HEATING_COIL,Heating Coil Crankcase Heater Electricity Energy [J] !RunPeriod [Value,Min,Month,Day,Hour,Minute,Max,Month,Day,Hour,Minute]
1155,11,HEATING_RESISTANCE_BACKUP,Heating Coil Heating Energy [J] !RunPeriod [Value,Min,Month,Day,Hour,Minute,Max,Month,Day,Hour,Minute]
1156,11,HEATING_RESISTANCE_BACKUP,Heating Coil Electricity Energy [J] !RunPeriod [Value,Min,Month,Day,Hour,Minute,Max,Month,Day,Hour,Minute]
1292,11,WATER HEATER,Water Heater Heat Loss Energy [J] !RunPeriod [Value,Min,Month,Day,Hour,Minute,Max,Month,Day,Hour,Minute]
1306,11,WATER HEATER,Water Heater Heating Energy [J] !RunPeriod [Value,Min,Month,Day,Hour,Minute,Max,Month,Day,Hour,Minute]
1307,11,WATER HEATER,Water Heater Unmet Demand Heat Transfer Energy [J] !RunPeriod [Value,Min,Month,Day,Hour,Minute,Max,Month,Day,Hour,Minute]
1308,11,WATER HEATER,Water Heater Electricity Energy [J] !RunPeriod [Value,Min,Month,Day,Hour,Minute,Max,Month,Day,Hour,Minute]
13,11,Electricity:Facility [J] !RunPeriod [Value,Min,Month,Day,Hour,Minute,Max,Month,Day,Hour,Minute]
1134,11,Heating:Electricity [J] !RunPeriod [Value,Min,Month,Day,Hour,Minute,Max,Month,Day,Hour,Minute]
1096,11,Cooling:Electricity [J] !RunPeriod [Value,Min,Month,Day,Hour,Minute,Max,Month,Day,Hour,Minute]
562,11,Fans:Electricity [J] !RunPeriod [Value,Min,Month,Day,Hour,Minute,Max,Month,Day,Hour,Minute]
1379,11,Pumps:Electricity [J] !RunPeriod [Value,Min,Month,Day,Hour,Minute,Max,Month,Day,Hour,Minute]
1326,11,WaterSystems:Electricity [J] !RunPeriod [Value,Min,Month,Day,Hour,Minute,Max,Month,Day,Hour,Minute]
61,11,InteriorLights:Electricity [J] !RunPeriod [Value,Min,Month,Day,Hour,Minute,Max,Month,Day,Hour,Minute]
1046,11,ExteriorLights:Electricity [J] !RunPeriod [Value,Min,Month,Day,Hour,Minute,Max,Month,Day,Hour,Minute]
134,11,InteriorEquipment:Electricity [J] !RunPeriod [Value,Min,Month,Day,Hour,Minute,Max,Month,Day,Hour,Minute]
170,11,gas_dryer:InteriorEquipment:Electricity [J] !RunPeriod [Value,Min,Month,Day,Hour,Minute,Max,Month,Day,Hour,Minute]
207,11,clotheswasher:InteriorEquipment:Electricity [J] !RunPeriod [Value,Min,Month,Day,Hour,Minute,Max,Month,Day,Hour,Minute]
244,11,dishwasher:InteriorEquipment:Electricity [J] !RunPeriod [Value,Min,Month,Day,Hour,Minute,Max,Month,Day,Hour,Minute]
281,11,refrigerator:InteriorEquipment:Electricity [J] !RunPeriod [Value,Min,Month,Day,Hour,Minute,Max,Month,Day,Hour,Minute]
318,11,electric_mels:InteriorEquipment:Electricity [J] !RunPeriod [Value,Min,Month,Day,Hour,Minute,Max,Month,Day,Hour,Minute]
355,11,NaturalGas:Facility [J] !RunPeriod [Value,Min,Month,Day,Hour,Minute,Max,Month,Day,Hour,Minute]
403,11,InteriorEquipment:NaturalGas [J] !RunPeriod [Value,Min,Month,Day,Hour,Minute,Max,Month,Day,Hour,Minute]
476,11,gas_dryer:InteriorEquipment:NaturalGas [J] !RunPeriod [Value,Min,Month,Day,Hour,Minute,Max,Month,Day,Hour,Minute]
513,11,gas_mels:InteriorEquipment:NaturalGas [J] !RunPeriod [Value,Min,Month,Day,Hour,Minute,Max,Month,Day,Hour,Minute]
End of Data Dictionary
1,EXTREME_WINTER,  40.44,-109.51,  -7.00,1609.00
5,15
1038,5.5,0.0,12,22, 1,15,0.25, 1, 1, 6,15
1039,0.0,0.0,12,22, 1,15,0.0,12,22, 1,15
581,0.3906800065064887,0.22573685177346442,12,29,18,26,0.9255700471478466,12,28,24,60
582,1.5543085488432047,0.0,12,23, 7,45,15.32206745571322,12,29,12,60
583,0.0745827284827447,0.00040673511335945147,12,27,23, 7,0.09393214878287716,12,22, 1,48
1115,4576867028.542946,0.0,12,22,23, 5,5147335.769963538,12,29, 6,60
1128,1708298222.3587117,0.0,12,22,23, 5,1590486.5066105886,12,29, 6,60
1153,50105759.68996769,0.0,12,22,23, 5,115188.7645490111, 1, 3, 3,60
1154,43110006.697311975,0.0,12,22, 1,30,180000.0,12,29,16,15
1155,1592113212.2901838,0.0,12,22, 1,15,6290983.056356209, 1, 4, 6,30
1156,1592113212.2901838,0.0,12,22, 1,15,6290983.056356209, 1, 4, 6,30
1292,-54493570.74735378,-39787.12898946656, 1, 4,24,60,-5248.577183321357,12,30,11,45
1306,528201882.9800687,0.0,12,22, 1,15,9801858.802022027,12,28,19,60
1307,15456440.096618326,0.0,12,22, 1,15,6401536.293609889,12,28,19,60
1308,528201882.9800687,0.0,12,22, 1,15,9801858.802022027,12,28,19,60
13,4916392614.34395,452017.0388981225,12,30,15,15,16412759.012939524, 1, 4, 9,45
61,646981127.1939323,88139.10953165221,12,22, 1,15,1282023.4113694867,12,22,20,15
134,151290040.75163814,63564.01800854099,12,22, 4,15,156554.22484006523,12,27,20,15
170,11185820.069951689,348.4159749238097,12,22, 4,15,17476.39704006126,12,27,12,15
207,13893028.5742839,815.2532113832032,12,22, 3,15,22990.642799023623,12,27,10,15
244,27284301.07562584,1521.856143006317,12,22, 4,15,53038.631142310165,12,27,20,15
281,98926891.03177746,59938.60262432081,12,22, 5,15,81951.81706819107,12,22,19,15
318,0.0,0.0,12,22, 1,15,0.0,12,22, 1,15
355,422701517.16107386,18561.32405820678,12,22, 4,15,724774.895203776,12,27,18,15
403,422701517.16107386,18561.32405820678,12,22, 4,15,724774.895203776,12,27,18,15
476,227882097.80545202,7098.072629279515,12,22, 4,15,356036.3026282215,12,27,12,15
513,0.0,0.0,12,22, 1,15,0.0,12,22, 1,15
562,196292362.3821313,0.0,12,29,16,15,164215.34854312986,12,22, 1,45
1046,0.0,0.0,12,22, 1,15,0.0,12,22, 1,15
1096,0.0,0.0,12,22, 1,15,0.0,12,22, 1,15
1134,3393627201.0361733,180000.0,12,29,16,15,7625507.397822796, 1, 5, 9,60
1326,528201882.9800687,0.0,12,22, 1,15,10435731.259156747, 1, 4, 9,45
1379,0.0,0.0,12,22, 1,15,0.0,12,22, 1,15
1,EXTREME_SUMMER,  40.44,-109.51,  -7.00,1609.00
5,7
1038,0.0,0.0, 6,22, 1,15,0.0, 6,22, 1,15
1039,2.5,0.0, 6,22, 1,15,0.25, 6,28,17,30
581,0.1454894162902989,0.007538161793803222, 6,24, 1,60,0.4649567882596579, 6,22,13,52
582,3.238381224310619,0.024916312860164918, 6,22,21,57,11.311200694448377, 6,22,15,50
583,0.037311713403518035,0.0001635748294251299, 6,27, 6,11,0.08165522590529052, 6,28,19,47
1115,0.0,0.0, 6,22, 1, 7,0.0, 6,22, 1, 7
1128,0.0,0.0, 6,22, 1, 7,0.0, 6,22, 1, 7
1153,0.0,0.0, 6,22, 1, 7,0.0, 6,22, 1, 7
1154,0.0,0.0, 6,22, 1, 7,0.0, 6,22, 1, 7
1155,0.0,0.0, 6,22, 1, 7,0.0, 6,22, 1, 7
1156,0.0,0.0, 6,22, 1, 7,0.0, 6,22, 1, 7
1292,-22111575.148516905,-34328.2233630312, 6,26,16,45,-2688.8374193407044, 6,23, 8,56
1306,199751976.7782533,0.0, 6,22, 1, 7,5834551.922165912, 6,26, 6,60
1307,3154031.3174140896,0.0, 6,22, 1, 7,484308.78521171276, 6,28,19,49
1308,199751976.7782533,0.0, 6,22, 1, 7,5834551.922165912, 6,26, 6,60
13,1094837032.3439019,151703.1275401932, 6,22, 4,15,12929658.561256582, 6,28,19,60
61,301924526.02383536,88139.10953165221, 6,22, 1,15,1282023.4113694867, 6,22,20,15
134,70666020.44019976,63564.01800854099, 6,22, 4,15,156554.22484006523, 6,27,20,15
170,5241013.419656067,348.4159749238097, 6,22, 4,15,17476.39704006126, 6,27,12,15
207,6509451.13922267,815.2532113832032, 6,22, 3,15,22990.642799023623, 6,27,10,15
244,12749673.399825225,1521.856143006317, 6,22, 4,15,53038.631142310165, 6,27,20,15
281,46165882.481495745,59938.60262432081, 6,22, 5,15,81951.81706819107, 6,22,19,15
318,0.0,0.0, 6,22, 1,15,0.0, 6,22, 1,15
355,197687796.27748066,18561.32405820678, 6,22, 4,15,724774.895203776, 6,27,18,15
403,197687796.27748066,18561.32405820678, 6,22, 4,15,724774.895203776, 6,27,18,15
476,106772067.24485716,7098.072629279515, 6,22, 4,15,356036.3026282215, 6,27,12,15
513,0.0,0.0, 6,22, 1,15,0.0, 6,22, 1,15
562,49862763.671344295,0.0, 6,22, 3,60,164215.34854312986, 6,28,16,15
1046,0.0,0.0, 6,22, 1,15,0.0, 6,22, 1,15
1096,472631745.43026966,0.0, 6,22, 3,60,1798042.5644641183, 6,28,17,60
1134,0.0,0.0, 6,22, 1,15,0.0, 6,22, 1,15
1326,199751976.77825323,0.0, 6,22, 1,15,9809253.756885855, 6,28,19,60
1379,0.0,0.0, 6,22, 1,15,0.0, 6,22, 1,15
1,ANNUAL,  40.44,-109.51,  -7.00,1609.00
5,365
1038,5.25,0.0, 1, 1, 1,15,0.25, 1, 4, 6,15
1039,60.25,0.0, 1, 1, 1,15,0.25, 4,11,13,15
581,0.23798147256369195,0.0, 8, 7, 6, 7,1.4009829036290773, 3,26,11,60
582,2.4215438760274384,0.0, 1, 1, 1,15,30.944159994261415, 8,11,18,60
583,0.032336997342033796,0.000035755355246454356, 8, 9,23, 3,0.1131607212973334, 3,26,11,60
1115,29852506919.62219,0.0, 1, 1,23, 3,5160133.62182893,12,29, 6,60
1128,10470841624.97986,0.0, 1, 1,23, 3,1591513.1587528714, 3,26,11,30
1153,339023242.80427927,0.0, 1, 1,23, 3,145843.2690965285, 1,25, 6,45
1154,2023605003.0504656,0.0, 1, 1, 1,15,180000.0, 1, 8,15,45
1155,5803987932.003758,0.0, 1, 1,12, 3,6290983.056356209, 1, 4, 6,45
1156,5803987932.003758,0.0, 1, 1,12, 3,6290983.056356209, 1, 4, 6,45
1292,-1233900565.1848714,-39805.53015082801, 1,15,24,60,-2189.8932425130492, 6,15,16,45
1306,11678801497.855055,0.0, 1, 1, 1,15,10534460.327052651,11,12,19,60
1307,287511851.8347721,0.0, 1, 1, 1,15,6027879.1747491155,12,10,19,60
1308,11678801497.855055,0.0, 1, 1, 1,15,10534460.327052651,11,12,19,60
13,59589118854.76376,151703.1275401932, 3,22, 4,15,16217406.403207503, 1, 4, 7,60
61,15743207428.383959,88139.10953165221, 1, 1, 1,15,1282023.4113694867, 1, 1,20,15
134,3685071073.4325233,63564.01800854099, 1, 2, 4,15,156554.22484006523, 1, 1,20,15
170,273393721.45532674,348.4159749238097, 1, 2, 4,15,17476.39704006126, 1, 1,12,15
207,339560869.0695816,815.2532113832032, 1, 2, 3,15,22990.642799023623, 1, 1,10,15
244,664895467.8009144,1521.856143006317, 1, 2, 4,15,53038.631142310165, 1, 1,20,15
281,2407221015.106824,59938.60262432081, 1, 1, 5,15,81951.81706819107, 1, 1,19,15
318,0.0,0.0, 1, 1, 1,15,0.0, 1, 1, 1,15
355,10310294493.051695,18561.32405820678, 1, 2, 4,15,724774.895203776, 1, 1,18,15
403,10310294493.051695,18561.32405820678, 1, 2, 4,15,724774.895203776, 1, 1,18,15
476,5569688622.066177,7098.072629279515, 1, 2, 4,15,356036.3026282215, 1, 1,12,15
513,0.0,0.0, 1, 1, 1,15,0.0, 1, 1, 1,15
562,2097208937.6429932,0.0, 1, 7,16,30,164215.34854312986, 1, 1, 6,15
1046,0.0,0.0, 1, 1, 1,15,0.0, 1, 1, 1,15
1096,7747372114.609387,0.0, 1, 1, 1,15,1798401.0531467097, 6,28,17,60
1134,18637457802.83837,0.0, 2,24,14,60,7619255.347216483, 1, 6, 6,30
1326,11678801497.855085,0.0, 1, 1, 1,15,10540800.0, 5,14,19,60
1379,0.0,0.0, 1, 1, 1,15,0.0, 1, 1, 1,15
End of Data
 Number of Records Written=          99
