Program Version,EnergyPlus, Version 22.2.0-c249759bad, YMD=2023.08.02 11:32
1,5,Environment Title[],Latitude[deg],Longitude[deg],Time Zone[],Elevation[m]
2,8,Day of Simulation[],Month[],Day of Month[],DST Indicator[1=yes 0=no],Hour[],StartMinute[],EndMinute[],DayType
3,5,Cumulative Day of Simulation[],Month[],Day of Month[],DST Indicator[1=yes 0=no],DayType  ! When Daily Report Variables Requested
4,2,Cumulative Days of Simulation[],Month[]  ! When Monthly Report Variables Requested
5,1,Cumulative Days of Simulation[] ! When Run Period Report Variables Requested
6,1,Calendar Year of Simulation[] ! When Annual Report Variables Requested
618,11,DX_HEATING_COIL,Heating Coil Heating Energy [J] !RunPeriod [Value,Min,Month,Day,Hour,Minute,Max,Month,Day,Hour,Minute]
631,11,DX_HEATING_COIL,Heating Coil Electricity Energy [J] !RunPeriod [Value,Min,Month,Day,Hour,Minute,Max,Month,Day,Hour,Minute]
656,11,DX_HEATING_COIL,Heating Coil Defrost Electricity Energy [J] !RunPeriod [Value,Min,Month,Day,Hour,Minute,Max,Month,Day,Hour,Minute]
657,11,DX_HEATING_COIL,Heating Coil Crankcase Heater Electricity Energy [J] !RunPeriod [Value,Min,Month,Day,Hour,Minute,Max,Month,Day,Hour,Minute]
711,11,LIVING,AFN Zone Infiltration Air Change Rate [ach] !RunPeriod [Value,Min,Month,Day,Hour,Minute,Max,Month,Day,Hour,Minute]
712,11,ATTIC,AFN Zone Infiltration Air Change Rate [ach] !RunPeriod [Value,Min,Month,Day,Hour,Minute,Max,Month,Day,Hour,Minute]
713,11,CRAWLSPACE,AFN Zone Infiltration Air Change Rate [ach] !RunPeriod [Value,Min,Month,Day,Hour,Minute,Max,Month,Day,Hour,Minute]
1156,11,Facility,Facility Heating Setpoint Not Met Time [hr] !RunPeriod [Value,Min,Month,Day,Hour,Minute,Max,Month,Day,Hour,Minute]
1157,11,Facility,Facility Cooling Setpoint Not Met Time [hr] !RunPeriod [Value,Min,Month,Day,Hour,Minute,Max,Month,Day,Hour,Minute]
1183,11,HEATING_RESISTANCE_BACKUP,Heating Coil Heating Energy [J] !RunPeriod [Value,Min,Month,Day,Hour,Minute,Max,Month,Day,Hour,Minute]
1184,11,HEATING_RESISTANCE_BACKUP,Heating Coil Electricity Energy [J] !RunPeriod [Value,Min,Month,Day,Hour,Minute,Max,Month,Day,Hour,Minute]
13,11,Electricity:Facility [J] !RunPeriod [Value,Min,Month,Day,Hour,Minute,Max,Month,Day,Hour,Minute]
637,11,Heating:Electricity [J] !RunPeriod [Value,Min,Month,Day,Hour,Minute,Max,Month,Day,Hour,Minute]
599,11,Cooling:Electricity [J] !RunPeriod [Value,Min,Month,Day,Hour,Minute,Max,Month,Day,Hour,Minute]
691,11,Fans:Electricity [J] !RunPeriod [Value,Min,Month,Day,Hour,Minute,Max,Month,Day,Hour,Minute]
1370,11,Pumps:Electricity [J] !RunPeriod [Value,Min,Month,Day,Hour,Minute,Max,Month,Day,Hour,Minute]
677,11,WaterSystems:Electricity [J] !RunPeriod [Value,Min,Month,Day,Hour,Minute,Max,Month,Day,Hour,Minute]
61,11,InteriorLights:Electricity [J] !RunPeriod [Value,Min,Month,Day,Hour,Minute,Max,Month,Day,Hour,Minute]
1164,11,ExteriorLights:Electricity [J] !RunPeriod [Value,Min,Month,Day,Hour,Minute,Max,Month,Day,Hour,Minute]
134,11,InteriorEquipment:Electricity [J] !RunPeriod [Value,Min,Month,Day,Hour,Minute,Max,Month,Day,Hour,Minute]
170,11,gas_dryer:InteriorEquipment:Electricity [J] !RunPeriod [Value,Min,Month,Day,Hour,Minute,Max,Month,Day,Hour,Minute]
207,11,clotheswasher:InteriorEquipment:Electricity [J] !RunPeriod [Value,Min,Month,Day,Hour,Minute,Max,Month,Day,Hour,Minute]
244,11,dishwasher:InteriorEquipment:Electricity [J] !RunPeriod [Value,Min,Month,Day,Hour,Minute,Max,Month,Day,Hour,Minute]
281,11,refrigerator:InteriorEquipment:Electricity [J] !RunPeriod [Value,Min,Month,Day,Hour,Minute,Max,Month,Day,Hour,Minute]
318,11,electric_mels:InteriorEquipment:Electricity [J] !RunPeriod [Value,Min,Month,Day,Hour,Minute,Max,Month,Day,Hour,Minute]
355,11,NaturalGas:Facility [J] !RunPeriod [Value,Min,Month,Day,Hour,Minute,Max,Month,Day,Hour,Minute]
403,11,InteriorEquipment:NaturalGas [J] !RunPeriod [Value,Min,Month,Day,Hour,Minute,Max,Month,Day,Hour,Minute]
476,11,gas_dryer:InteriorEquipment:NaturalGas [J] !RunPeriod [Value,Min,Month,Day,Hour,Minute,Max,Month,Day,Hour,Minute]
513,11,gas_mels:InteriorEquipment:NaturalGas [J] !RunPeriod [Value,Min,Month,Day,Hour,Minute,Max,Month,Day,Hour,Minute]
End of Data Dictionary
1,EXTREME_WINTER,  39.10, -84.42,  -5.00, 149.40
5,7
1156,0.6666666666666666,0.0, 1,15, 1,10,0.16666666666666666, 1,16, 6,10
1157,0.0,0.0, 1,15, 1,10,0.0, 1,15, 1,10
618,1640050071.6996753,0.0, 1,15,16,10,2704246.1714633964, 1,19, 5,60
631,546092897.481044,0.0, 1,15,16,10,815181.9491204352, 1,19, 6,20
656,9729655.722831214,0.0, 1,15,16,10,50698.29362422224, 1,17, 8,20
657,36897014.60637788,0.0, 1,15, 1,32,120000.0, 1,15,16,10
711,0.27590050154865703,0.17812975058383332, 1,17, 4,60,0.4304700410148421, 1,17,24,20
712,3.0454859404793884,0.0, 1,15,23, 8,12.31538304580533, 1,17,24,60
713,3.5668897019199926,0.00021793591554070067, 1,18,23,10,11.24231520461611, 1,17,24,20
1183,629395314.5276443,0.0, 1,15, 1,10,3607136.3532874403, 1,20, 6,30
1184,629395314.5276443,0.0, 1,15, 1,10,3607136.3532874403, 1,20, 6,30
13,1717613731.2775655,306444.6925987483, 1,16,15,30,4898042.794941268, 1,20, 7,10
61,301924526.0238348,58759.40635443481, 1,15, 1,10,854682.2742463244, 1,15,20,10
134,70666020.44019979,42376.01200569399, 1,15, 4,10,104369.48322671017, 1,20,20,10
170,5241013.419656074,232.27731661587313, 1,15, 4,10,11650.931360040839, 1,20,12,10
207,6509451.13922266,543.5021409221355, 1,15, 3,10,15327.095199349082, 1,20,10,10
244,12749673.39982522,1014.5707620042115, 1,15, 4,10,35359.08742820678, 1,20,20,10
281,46165882.48149605,39959.06841621388, 1,15, 5,10,54634.54471212738, 1,15,19,10
318,0.0,0.0, 1,15, 1,10,0.0, 1,15, 1,10
355,197687796.27748126,12374.216038804521, 1,15, 4,10,483183.26346918393, 1,20,18,10
403,197687796.27748126,12374.216038804521, 1,15, 4,10,483183.26346918393, 1,20,18,10
476,106772067.24485692,4732.048419519677, 1,15, 4,10,237357.535085481, 1,20,12,10
513,0.0,0.0, 1,15, 1,10,0.0, 1,15, 1,10
599,0.0,0.0, 1,15, 1,10,0.0, 1,15, 1,10
637,1222114882.3378973,120000.0, 1,15,16,10,4349075.594305911, 1,21, 6,10
677,50180792.53228202,5100.0, 1,15, 1,10,231543.04530498828, 1,17,12,10
691,72727509.94335285,0.0, 1,15,16,10,138419.82887825574, 1,15, 8,40
1164,0.0,0.0, 1,15, 1,10,0.0, 1,15, 1,10
1370,0.0,0.0, 1,15, 1,10,0.0, 1,15, 1,10
1,EXTREME_SUMMER,  39.10, -84.42,  -5.00, 149.40
5,7
1156,0.0,0.0, 7,15, 1,10,0.0, 7,15, 1,10
1157,33.666666666666664,0.0, 7,15, 1,10,0.16666666666666666, 7,15,14,30
618,0.0,0.0, 7,15, 1,10,0.0, 7,15, 1,10
631,0.0,0.0, 7,15, 1,10,0.0, 7,15, 1,10
656,0.0,0.0, 7,15, 1,10,0.0, 7,15, 1,10
657,0.0,0.0, 7,15, 1,10,0.0, 7,15, 1,10
711,0.03913037414699838,0.0, 7,15, 1,10,0.4048603155227089, 7,20,16,52
712,1.6916699687682661,0.0, 7,16,21,40,8.726074743045348, 7,20,16,52
713,1.759247199061842,0.0, 7,15, 6, 7,10.140299084966239, 7,20,16,52
1183,0.0,0.0, 7,15, 1,10,0.0, 7,15, 1,10
1184,0.0,0.0, 7,15, 1,10,0.0, 7,15, 1,10
13,902735427.2931954,106235.4183601288, 7,16, 4,10,2102846.079119549, 7,16,20,30
61,301924526.0238348,58759.40635443481, 7,15, 1,10,854682.2742463244, 7,15,20,10
134,70666020.44019979,42376.01200569399, 7,15, 4,10,104369.48322671017, 7,20,20,10
170,5241013.419656074,232.27731661587313, 7,15, 4,10,11650.931360040839, 7,20,12,10
207,6509451.13922266,543.5021409221355, 7,15, 3,10,15327.095199349082, 7,20,10,10
244,12749673.39982522,1014.5707620042115, 7,15, 4,10,35359.08742820678, 7,20,20,10
281,46165882.48149605,39959.06841621388, 7,15, 5,10,54634.54471212738, 7,15,19,10
318,0.0,0.0, 7,15, 1,10,0.0, 7,15, 1,10
355,197687796.27748126,12374.216038804521, 7,15, 4,10,483183.26346918393, 7,20,18,10
403,197687796.27748126,12374.216038804521, 7,15, 4,10,483183.26346918393, 7,20,18,10
476,106772067.24485692,4732.048419519677, 7,15, 4,10,237357.535085481, 7,20,12,10
513,0.0,0.0, 7,15, 1,10,0.0, 7,15, 1,10
599,441975922.39767104,0.0, 7,16, 3,40,923006.4374755428, 7,16,15,60
637,0.0,0.0, 7,15, 1,10,0.0, 7,15, 1,10
677,34525642.17633542,5100.0, 7,15, 1,10,253454.92602545506, 7,18,12,40
691,53643316.255154066,0.0, 7,16, 4,10,138419.82887825574, 7,15,19,20
1164,0.0,0.0, 7,15, 1,10,0.0, 7,15, 1,10
1370,0.0,0.0, 7,15, 1,10,0.0, 7,15, 1,10
1,ANNUAL,  39.10, -84.42,  -5.00, 149.40
5,365
1156,40.49999999999992,0.0, 1, 1, 1,10,0.16666666666666666, 1, 2, 6,10
1157,464.5000000000002,0.0, 1, 1, 1,10,0.16666666666666666, 5,12,16,40
618,26605945379.255886,0.0, 1, 1,23, 2,3125868.533634021, 1,22, 4,60
631,8060064328.828019,0.0, 1, 1,23, 2,858091.6240635226, 3,10, 8,50
656,280155580.68389577,0.0, 1, 1,23, 2,92083.32198550986, 2,22,11,60
657,1300589446.6639152,0.0, 1, 1, 1, 1,120000.0, 1, 4,15,30
711,0.18602080657940925,0.0, 4,21, 9,21,1.2366979515956065, 2,18,22,55
712,3.0735790977781474,0.0, 1, 3,19,50,27.97910711758863, 1,29,21,60
713,3.5440006071177694,0.0, 4,21,10,11,33.78171779209858, 2,18,22,55
1183,4875527098.658556,0.0, 1, 1, 1,52,3607136.3532874403, 1,20, 6,30
1184,4875527098.658556,0.0, 1, 1, 1,52,3607136.3532874403, 1,20, 6,30
13,46578950867.21726,106235.4183601288, 3, 6, 4,10,5124241.6670083385, 1,25, 8,60
61,15743207428.39043,58759.40635443481, 1, 1, 1,10,854682.2742463244, 1, 1,20,10
134,3685071073.433083,42376.01200569399, 1, 2, 4,10,104369.48322671017, 1, 1,20,10
170,273393721.45534325,232.27731661587313, 1, 2, 4,10,11650.931360040839, 1, 1,12,10
207,339560869.06955314,543.5021409221355, 1, 2, 3,10,15327.095199349082, 1, 1,10,10
244,664895467.8009839,1014.5707620042115, 1, 2, 4,10,35359.08742820678, 1, 1,20,10
281,2407221015.1057043,39959.06841621388, 1, 1, 5,10,54634.54471212738, 1, 1,19,10
318,0.0,0.0, 1, 1, 1,10,0.0, 1, 1, 1,10
355,10310294493.052883,12374.216038804521, 1, 2, 4,10,483183.26346918393, 1, 1,18,10
403,10310294493.052883,12374.216038804521, 1, 2, 4,10,483183.26346918393, 1, 1,18,10
476,5569688622.065564,4732.048419519677, 1, 2, 4,10,237357.535085481, 1, 1,12,10
513,0.0,0.0, 1, 1, 1,10,0.0, 1, 1, 1,10
599,8210783178.473303,0.0, 1, 1, 1,10,958804.880327196, 8, 9,14,60
637,14516336454.83443,0.0, 1, 6,18,20,4358445.620068304, 1, 2, 6,20
677,2156699578.8180118,5100.0, 1, 1, 1,10,257154.41832768562, 4,29,12,60
691,2266853153.2736974,0.0, 1, 4,15,30,138419.82887825576, 8,31,19,50
1164,0.0,0.0, 1, 1, 1,10,0.0, 1, 1, 1,10
1370,0.0,0.0, 1, 1, 1,10,0.0, 1, 1, 1,10
End of Data
 Number of Records Written=          87
