Program Version,EnergyPlus, Version 22.2.0-c249759bad, YMD=2023.09.01 20:43
1,5,Environment Title[],Latitude[deg],Longitude[deg],Time Zone[],Elevation[m]
2,8,Day of Simulation[],Month[],Day of Month[],DST Indicator[1=yes 0=no],Hour[],StartMinute[],EndMinute[],DayType
3,5,Cumulative Day of Simulation[],Month[],Day of Month[],DST Indicator[1=yes 0=no],DayType  ! When Daily Report Variables Requested
4,2,Cumulative Days of Simulation[],Month[]  ! When Monthly Report Variables Requested
5,1,Cumulative Days of Simulation[] ! When Run Period Report Variables Requested
6,1,Calendar Year of Simulation[] ! When Annual Report Variables Requested
581,11,LIVING,AFN Zone Infiltration Air Change Rate [ach] !RunPeriod [Value,Min,Month,Day,Hour,Minute,Max,Month,Day,Hour,Minute]
582,11,ATTIC,AFN Zone Infiltration Air Change Rate [ach] !RunPeriod [Value,Min,Month,Day,Hour,Minute,Max,Month,Day,Hour,Minute]
583,11,CRAWLSPACE,AFN Zone Infiltration Air Change Rate [ach] !RunPeriod [Value,Min,Month,Day,Hour,Minute,Max,Month,Day,Hour,Minute]
1038,11,Facility,Facility Heating Setpoint Not Met Time [hr] !RunPeriod [Value,Min,Month,Day,Hour,Minute,Max,Month,Day,Hour,Minute]
1039,11,Facility,Facility Cooling Setpoint Not Met Time [hr] !RunPeriod [Value,Min,Month,Day,Hour,Minute,Max,Month,Day,Hour,Minute]
1115,11,DX_HEATING_COIL,Heating Coil Heating Energy [J] !RunPeriod [Value,Min,Month,Day,Hour,Minute,Max,Month,Day,Hour,Minute]
1128,11,DX_HEATING_COIL,Heating Coil Electricity Energy [J] !RunPeriod [Value,Min,Month,Day,Hour,Minute,Max,Month,Day,Hour,Minute]
1153,11,DX_HEATING_COIL,Heating Coil Defrost Electricity Energy [J] !RunPeriod [Value,Min,Month,Day,Hour,Minute,Max,Month,Day,Hour,Minute]
1154,11,DX_HEATING_COIL,Heating Coil Crankcase Heater Electricity Energy [J] !RunPeriod [Value,Min,Month,Day,Hour,Minute,Max,Month,Day,Hour,Minute]
1155,11,HEATING_RESISTANCE_BACKUP,Heating Coil Heating Energy [J] !RunPeriod [Value,Min,Month,Day,Hour,Minute,Max,Month,Day,Hour,Minute]
1156,11,HEATING_RESISTANCE_BACKUP,Heating Coil Electricity Energy [J] !RunPeriod [Value,Min,Month,Day,Hour,Minute,Max,Month,Day,Hour,Minute]
1292,11,WATER HEATER,Water Heater Heat Loss Energy [J] !RunPeriod [Value,Min,Month,Day,Hour,Minute,Max,Month,Day,Hour,Minute]
1306,11,WATER HEATER,Water Heater Heating Energy [J] !RunPeriod [Value,Min,Month,Day,Hour,Minute,Max,Month,Day,Hour,Minute]
1307,11,WATER HEATER,Water Heater Unmet Demand Heat Transfer Energy [J] !RunPeriod [Value,Min,Month,Day,Hour,Minute,Max,Month,Day,Hour,Minute]
1308,11,WATER HEATER,Water Heater Electricity Energy [J] !RunPeriod [Value,Min,Month,Day,Hour,Minute,Max,Month,Day,Hour,Minute]
13,11,Electricity:Facility [J] !RunPeriod [Value,Min,Month,Day,Hour,Minute,Max,Month,Day,Hour,Minute]
1134,11,Heating:Electricity [J] !RunPeriod [Value,Min,Month,Day,Hour,Minute,Max,Month,Day,Hour,Minute]
1096,11,Cooling:Electricity [J] !RunPeriod [Value,Min,Month,Day,Hour,Minute,Max,Month,Day,Hour,Minute]
562,11,Fans:Electricity [J] !RunPeriod [Value,Min,Month,Day,Hour,Minute,Max,Month,Day,Hour,Minute]
1379,11,Pumps:Electricity [J] !RunPeriod [Value,Min,Month,Day,Hour,Minute,Max,Month,Day,Hour,Minute]
1326,11,WaterSystems:Electricity [J] !RunPeriod [Value,Min,Month,Day,Hour,Minute,Max,Month,Day,Hour,Minute]
61,11,InteriorLights:Electricity [J] !RunPeriod [Value,Min,Month,Day,Hour,Minute,Max,Month,Day,Hour,Minute]
1046,11,ExteriorLights:Electricity [J] !RunPeriod [Value,Min,Month,Day,Hour,Minute,Max,Month,Day,Hour,Minute]
134,11,InteriorEquipment:Electricity [J] !RunPeriod [Value,Min,Month,Day,Hour,Minute,Max,Month,Day,Hour,Minute]
170,11,gas_dryer:InteriorEquipment:Electricity [J] !RunPeriod [Value,Min,Month,Day,Hour,Minute,Max,Month,Day,Hour,Minute]
207,11,clotheswasher:InteriorEquipment:Electricity [J] !RunPeriod [Value,Min,Month,Day,Hour,Minute,Max,Month,Day,Hour,Minute]
244,11,dishwasher:InteriorEquipment:Electricity [J] !RunPeriod [Value,Min,Month,Day,Hour,Minute,Max,Month,Day,Hour,Minute]
281,11,refrigerator:InteriorEquipment:Electricity [J] !RunPeriod [Value,Min,Month,Day,Hour,Minute,Max,Month,Day,Hour,Minute]
318,11,electric_mels:InteriorEquipment:Electricity [J] !RunPeriod [Value,Min,Month,Day,Hour,Minute,Max,Month,Day,Hour,Minute]
355,11,NaturalGas:Facility [J] !RunPeriod [Value,Min,Month,Day,Hour,Minute,Max,Month,Day,Hour,Minute]
403,11,InteriorEquipment:NaturalGas [J] !RunPeriod [Value,Min,Month,Day,Hour,Minute,Max,Month,Day,Hour,Minute]
476,11,gas_dryer:InteriorEquipment:NaturalGas [J] !RunPeriod [Value,Min,Month,Day,Hour,Minute,Max,Month,Day,Hour,Minute]
513,11,gas_mels:InteriorEquipment:NaturalGas [J] !RunPeriod [Value,Min,Month,Day,Hour,Minute,Max,Month,Day,Hour,Minute]
End of Data Dictionary
1,EXTREME_WINTER,  44.36, -84.67,  -5.00, 351.00
5,7
1038,5.0,0.0,12,15, 1,15,0.25,12,15, 6,15
1039,0.0,0.0,12,15, 1,15,0.0,12,15, 1,15
581,0.4701529891182695,0.2814180528411299,12,21,23, 5,0.8003031805278181,12,21,13,22
582,5.9646792725766815,0.17172351374980377,12,18, 9,60,17.92885930246968,12,16,11,60
583,0.06975857185678261,0.0018118140306134663,12,16,23, 5,0.07783311739522801,12,16,11,60
1115,2003703218.1713808,0.0,12,16,23, 5,3909616.8733394844,12,21,13,60
1128,745219763.5907183,0.0,12,16,23, 5,1198531.5946949918,12,21,15,60
1153,13436322.095013779,0.0,12,16,23, 5,47636.86608903166,12,21,24,60
1154,1132702.426279627,0.0,12,15, 1,15,60000.0,12,16,23, 5
1155,1852082863.5985508,0.0,12,15,23, 5,5960950.877216587,12,20, 6,15
1156,1852082863.5985508,0.0,12,15,23, 5,5960950.877216587,12,20, 6,15
1292,-25288064.637190543,-39781.50294008923,12,15, 1,15,-9450.098497812034,12,20,12,60
1306,273371162.61385274,0.0,12,15, 1,15,4050000.0,12,15, 8,45
1307,93496279.08257449,0.0,12,15, 1,15,14689100.19865588,12,15, 8,30
1308,273371162.61385274,0.0,12,15, 1,15,4050000.0,12,15, 8,45
13,3342846610.5233603,1302155.4516607267,12,21,23,15,11576648.641372543,12,16, 7,15
61,301924526.02383536,88139.10953165221,12,15, 1,15,1282023.4113694867,12,15,20,15
134,70666020.44019976,63564.01800854099,12,15, 4,15,156554.22484006523,12,20,20,15
170,5241013.419656067,348.4159749238097,12,15, 4,15,17476.39704006126,12,20,12,15
207,6509451.13922267,815.2532113832032,12,15, 3,15,22990.642799023623,12,20,10,15
244,12749673.399825225,1521.856143006317,12,15, 4,15,53038.631142310165,12,20,20,15
281,46165882.481495745,59938.60262432081,12,15, 5,15,81951.81706819107,12,15,19,15
318,0.0,0.0,12,15, 1,15,0.0,12,15, 1,15
355,197687796.27748066,18561.32405820678,12,15, 4,15,724774.895203776,12,20,18,15
403,197687796.27748066,18561.32405820678,12,15, 4,15,724774.895203776,12,20,18,15
476,106772067.24485716,7098.072629279515,12,15, 4,15,356036.3026282215,12,20,12,15
513,0.0,0.0,12,15, 1,15,0.0,12,15, 1,15
562,85013249.73490603,52256.19927573777,12,21,23,15,127746.08828442157,12,15, 1,15
1046,0.0,0.0,12,15, 1,15,0.0,12,15, 1,15
1096,0.0,0.0,12,15, 1,15,0.0,12,15, 1,15
1134,2611871651.710561,598376.9585922895,12,21,23,15,7058878.390778993,12,16, 6,30
1326,273371162.6138529,0.0,12,15, 1,15,4050000.0,12,15, 8,45
1379,0.0,0.0,12,15, 1,15,0.0,12,15, 1,15
1,EXTREME_SUMMER,  44.36, -84.67,  -5.00, 351.00
5,7
1038,0.0,0.0, 7,27, 1,15,0.0, 7,27, 1,15
1039,18.75,0.0, 7,27, 1,15,0.25, 7,29,17,30
581,0.15798066100078206,0.0027059705876136654, 8, 1, 6,11,0.4176822982169516, 7,27,11,60
582,4.037589824556895,0.0, 7,28,22,60,15.964362822312047, 7,27,11,60
583,0.032403399510868396,0.00015152725564856944, 8, 1, 5,15,0.06402550118206184, 7,29,20,46
1115,0.0,0.0, 7,27, 1,15,0.0, 7,27, 1,15
1128,0.0,0.0, 7,27, 1,15,0.0, 7,27, 1,15
1153,0.0,0.0, 7,27, 1,15,0.0, 7,27, 1,15
1154,0.0,0.0, 7,27, 1,15,0.0, 7,27, 1,15
1155,0.0,0.0, 7,27, 1,15,0.0, 7,27, 1,15
1156,0.0,0.0, 7,27, 1,15,0.0, 7,27, 1,15
1292,-21979056.12499222,-34621.545336530995, 7,30, 6,15,-3036.565408387958, 8, 1, 9,30
1306,228823459.3323884,0.0, 7,27, 1,15,4050000.0, 7,28, 7,30
1307,66137679.81252094,0.0, 7,27, 1,15,5911759.802370452, 7,28, 7,15
1308,228823459.3323884,0.0, 7,27, 1,15,4050000.0, 7,28, 7,30
13,1026828755.036381,151703.1275401932, 7,27, 4,30,6118345.433004703, 7,27,18,30
61,301924526.02383536,88139.10953165221, 7,27, 1,15,1282023.4113694867, 7,27,20,15
134,70666020.44019976,63564.01800854099, 7,27, 4,15,156554.22484006523, 8, 1,20,15
170,5241013.419656067,348.4159749238097, 7,27, 4,15,17476.39704006126, 8, 1,12,15
207,6509451.13922267,815.2532113832032, 7,27, 3,15,22990.642799023623, 8, 1,10,15
244,12749673.399825225,1521.856143006317, 7,27, 4,15,53038.631142310165, 8, 1,20,15
281,46165882.481495745,59938.60262432081, 7,27, 5,15,81951.81706819107, 7,27,19,15
318,0.0,0.0, 7,27, 1,15,0.0, 7,27, 1,15
355,197687796.27748066,18561.32405820678, 7,27, 4,15,724774.895203776, 8, 1,18,15
403,197687796.27748066,18561.32405820678, 7,27, 4,15,724774.895203776, 8, 1,18,15
476,106772067.24485716,7098.072629279515, 7,27, 4,15,356036.3026282215, 8, 1,12,15
513,0.0,0.0, 7,27, 1,15,0.0, 7,27, 1,15
562,43569640.15394963,0.0, 7,27, 4,30,127746.08828442158, 7,29,20,30
1046,0.0,0.0, 7,27, 1,15,0.0, 7,27, 1,15
1096,381845109.08600783,0.0, 7,27, 4,30,1304763.4125644024, 8, 1,16,60
1134,0.0,0.0, 7,27, 1,15,0.0, 7,27, 1,15
1326,228823459.33238837,0.0, 7,27, 1,15,4050000.0, 7,27, 8,45
1379,0.0,0.0, 7,27, 1,15,0.0, 7,27, 1,15
1,ANNUAL,  44.36, -84.67,  -5.00, 351.00
5,365
1038,56.25,0.0, 1, 1, 1,15,0.25, 1, 4, 6,15
1039,173.25,0.0, 1, 1, 1,15,0.25, 4, 4,16,45
581,0.2851534597081761,0.0, 6,23,23, 3,0.9953772662474025, 2,19,13,52
582,4.240023907461095,0.0, 1, 5,21,60,23.9721623669961,11,23, 7,60
583,0.031521005215319024,0.0, 6,26,23, 3,0.0817830270422021, 2,19,13,52
1115,37400732615.63973,0.0, 1, 1,23, 5,4217092.978568027, 1,11,10,15
1128,12371870938.110289,0.0, 1, 1,23, 5,1265730.3246552218, 1,11,10,15
1153,484397244.3520823,0.0, 1, 1, 1,48,135789.9668751023, 2,10, 7,45
1154,1560961012.0287988,0.0, 1, 1, 6, 5,180000.0, 1, 2,16,15
1155,12927654201.74945,0.0, 1, 1, 1, 7,5960950.877216587, 2, 4, 2,60
1156,12927654201.74945,0.0, 1, 1, 1, 7,5960950.877216587, 2, 4, 2,60
1292,-1240188477.86172,-40913.979617708, 2, 4, 8,45,-1706.7324043410347, 6,19, 8,31
1306,13483427136.097527,0.0, 1, 1, 1, 7,4050000.0, 1, 1, 9,45
1307,4414671917.844831,0.0, 1, 1, 1, 7,15974738.437125491, 2,20, 8,30
1308,13483427136.097527,0.0, 1, 1, 1, 7,4050000.0, 1, 1, 9,45
13,67853613353.03781,151703.1275401932, 4,18, 4,15,11905089.03309476, 2,28, 7,45
61,15743207428.383959,88139.10953165221, 1, 1, 1,15,1282023.4113694867, 1, 1,20,15
134,3685071073.4325233,63564.01800854099, 1, 2, 4,15,156554.22484006523, 1, 1,20,15
170,273393721.45532674,348.4159749238097, 1, 2, 4,15,17476.39704006126, 1, 1,12,15
207,339560869.0695816,815.2532113832032, 1, 2, 3,15,22990.642799023623, 1, 1,10,15
244,664895467.8009144,1521.856143006317, 1, 2, 4,15,53038.631142310165, 1, 1,20,15
281,2407221015.106824,59938.60262432081, 1, 1, 5,15,81951.81706819107, 1, 1,19,15
318,0.0,0.0, 1, 1, 1,15,0.0, 1, 1, 1,15
355,10310294493.051695,18561.32405820678, 1, 2, 4,15,724774.895203776, 1, 1,18,15
403,10310294493.051695,18561.32405820678, 1, 2, 4,15,724774.895203776, 1, 1,18,15
476,5569688622.066177,7098.072629279515, 1, 2, 4,15,356036.3026282215, 1, 1,12,15
513,0.0,0.0, 1, 1, 1,15,0.0, 1, 1, 1,15
562,2048814481.0844915,0.0, 1, 1,23,15,127746.08828442158, 3, 2,11,30
1046,0.0,0.0, 1, 1, 1,15,0.0, 1, 1, 1,15
1096,5548209837.797406,0.0, 1, 1, 1,15,1307576.9940876313, 8, 1,16,60
1134,27344883396.240833,0.0, 2,10,14,30,7089320.081572734,12,15, 6,30
1326,13483427136.097528,0.0, 1, 1, 1,15,4050000.0000000014, 5, 8, 8,60
1379,0.0,0.0, 1, 1, 1,15,0.0, 1, 1, 1,15
End of Data
 Number of Records Written=          99
