Program Version,EnergyPlus, Version 22.2.0-c249759bad, YMD=2023.09.01 20:25
1,5,Environment Title[],Latitude[deg],Longitude[deg],Time Zone[],Elevation[m]
2,8,Day of Simulation[],Month[],Day of Month[],DST Indicator[1=yes 0=no],Hour[],StartMinute[],EndMinute[],DayType
3,5,Cumulative Day of Simulation[],Month[],Day of Month[],DST Indicator[1=yes 0=no],DayType  ! When Daily Report Variables Requested
4,2,Cumulative Days of Simulation[],Month[]  ! When Monthly Report Variables Requested
5,1,Cumulative Days of Simulation[] ! When Run Period Report Variables Requested
6,1,Calendar Year of Simulation[] ! When Annual Report Variables Requested
581,11,LIVING,AFN Zone Infiltration Air Change Rate [ach] !RunPeriod [Value,Min,Month,Day,Hour,Minute,Max,Month,Day,Hour,Minute]
582,11,ATTIC,AFN Zone Infiltration Air Change Rate [ach] !RunPeriod [Value,Min,Month,Day,Hour,Minute,Max,Month,Day,Hour,Minute]
583,11,CRAWLSPACE,AFN Zone Infiltration Air Change Rate [ach] !RunPeriod [Value,Min,Month,Day,Hour,Minute,Max,Month,Day,Hour,Minute]
1038,11,Facility,Facility Heating Setpoint Not Met Time [hr] !RunPeriod [Value,Min,Month,Day,Hour,Minute,Max,Month,Day,Hour,Minute]
1039,11,Facility,Facility Cooling Setpoint Not Met Time [hr] !RunPeriod [Value,Min,Month,Day,Hour,Minute,Max,Month,Day,Hour,Minute]
1115,11,DX_HEATING_COIL,Heating Coil Heating Energy [J] !RunPeriod [Value,Min,Month,Day,Hour,Minute,Max,Month,Day,Hour,Minute]
1128,11,DX_HEATING_COIL,Heating Coil Electricity Energy [J] !RunPeriod [Value,Min,Month,Day,Hour,Minute,Max,Month,Day,Hour,Minute]
1153,11,DX_HEATING_COIL,Heating Coil Defrost Electricity Energy [J] !RunPeriod [Value,Min,Month,Day,Hour,Minute,Max,Month,Day,Hour,Minute]
1154,11,DX_HEATING_COIL,Heating Coil Crankcase Heater Electricity Energy [J] !RunPeriod [Value,Min,Month,Day,Hour,Minute,Max,Month,Day,Hour,Minute]
1155,11,HEATING_RESISTANCE_BACKUP,Heating Coil Heating Energy [J] !RunPeriod [Value,Min,Month,Day,Hour,Minute,Max,Month,Day,Hour,Minute]
1156,11,HEATING_RESISTANCE_BACKUP,Heating Coil Electricity Energy [J] !RunPeriod [Value,Min,Month,Day,Hour,Minute,Max,Month,Day,Hour,Minute]
1292,11,WATER HEATER,Water Heater Heat Loss Energy [J] !RunPeriod [Value,Min,Month,Day,Hour,Minute,Max,Month,Day,Hour,Minute]
1306,11,WATER HEATER,Water Heater Heating Energy [J] !RunPeriod [Value,Min,Month,Day,Hour,Minute,Max,Month,Day,Hour,Minute]
1307,11,WATER HEATER,Water Heater Unmet Demand Heat Transfer Energy [J] !RunPeriod [Value,Min,Month,Day,Hour,Minute,Max,Month,Day,Hour,Minute]
1308,11,WATER HEATER,Water Heater Electricity Energy [J] !RunPeriod [Value,Min,Month,Day,Hour,Minute,Max,Month,Day,Hour,Minute]
13,11,Electricity:Facility [J] !RunPeriod [Value,Min,Month,Day,Hour,Minute,Max,Month,Day,Hour,Minute]
1134,11,Heating:Electricity [J] !RunPeriod [Value,Min,Month,Day,Hour,Minute,Max,Month,Day,Hour,Minute]
1096,11,Cooling:Electricity [J] !RunPeriod [Value,Min,Month,Day,Hour,Minute,Max,Month,Day,Hour,Minute]
562,11,Fans:Electricity [J] !RunPeriod [Value,Min,Month,Day,Hour,Minute,Max,Month,Day,Hour,Minute]
1379,11,Pumps:Electricity [J] !RunPeriod [Value,Min,Month,Day,Hour,Minute,Max,Month,Day,Hour,Minute]
1326,11,WaterSystems:Electricity [J] !RunPeriod [Value,Min,Month,Day,Hour,Minute,Max,Month,Day,Hour,Minute]
61,11,InteriorLights:Electricity [J] !RunPeriod [Value,Min,Month,Day,Hour,Minute,Max,Month,Day,Hour,Minute]
1046,11,ExteriorLights:Electricity [J] !RunPeriod [Value,Min,Month,Day,Hour,Minute,Max,Month,Day,Hour,Minute]
134,11,InteriorEquipment:Electricity [J] !RunPeriod [Value,Min,Month,Day,Hour,Minute,Max,Month,Day,Hour,Minute]
170,11,gas_dryer:InteriorEquipment:Electricity [J] !RunPeriod [Value,Min,Month,Day,Hour,Minute,Max,Month,Day,Hour,Minute]
207,11,clotheswasher:InteriorEquipment:Electricity [J] !RunPeriod [Value,Min,Month,Day,Hour,Minute,Max,Month,Day,Hour,Minute]
244,11,dishwasher:InteriorEquipment:Electricity [J] !RunPeriod [Value,Min,Month,Day,Hour,Minute,Max,Month,Day,Hour,Minute]
281,11,refrigerator:InteriorEquipment:Electricity [J] !RunPeriod [Value,Min,Month,Day,Hour,Minute,Max,Month,Day,Hour,Minute]
318,11,electric_mels:InteriorEquipment:Electricity [J] !RunPeriod [Value,Min,Month,Day,Hour,Minute,Max,Month,Day,Hour,Minute]
355,11,NaturalGas:Facility [J] !RunPeriod [Value,Min,Month,Day,Hour,Minute,Max,Month,Day,Hour,Minute]
403,11,InteriorEquipment:NaturalGas [J] !RunPeriod [Value,Min,Month,Day,Hour,Minute,Max,Month,Day,Hour,Minute]
476,11,gas_dryer:InteriorEquipment:NaturalGas [J] !RunPeriod [Value,Min,Month,Day,Hour,Minute,Max,Month,Day,Hour,Minute]
513,11,gas_mels:InteriorEquipment:NaturalGas [J] !RunPeriod [Value,Min,Month,Day,Hour,Minute,Max,Month,Day,Hour,Minute]
End of Data Dictionary
1,EXTREME_WINTER,  30.48, -81.70,  -5.00,   7.90
5,7
1038,0.0,0.0, 1,27, 1,15,0.0, 1,27, 1,15
1039,3.5,0.0, 1,27, 1,15,0.25, 1,29,14,15
581,0.2357666870486066,0.12662102560536526, 1,29,10,46,0.5437009516643775, 1,27,15,55
582,3.19778035293231,0.0, 1,27,24,52,13.802073300498634, 1,27,15,50
583,0.012875558898248183,0.00022552049647975327, 2, 2,10,31,0.06971203283482455, 1,27, 6, 5
1115,238945333.53365827,0.0, 1,27, 1, 7,3284313.95554574, 1,29, 6,60
1128,74708423.52182262,0.0, 1,27, 1, 7,1029701.4980597589, 1,29, 6,60
1153,4824699.231576599,0.0, 1,27, 1, 7,87614.18690356903, 1,29, 6,45
1154,59423479.224963605,0.0, 1,27, 6, 5,180000.0, 1,27, 1,30
1155,1938719.029841079,0.0, 1,27, 1, 7,638535.1202506061, 2, 1, 6, 5
1156,1938719.029841079,0.0, 1,27, 1, 7,638535.1202506061, 2, 1, 6, 5
1292,-23714859.665172208,-39747.34549311508, 2, 1, 4,60,-2865.922222039049, 2, 2,10,59
1306,154580814.20265755,0.0, 1,27, 1, 7,4050000.0, 1,27, 8,45
1307,24487705.07476563,0.0, 1,27, 1, 7,2103342.5795856356, 1,27, 8,45
1308,154580814.20265755,0.0, 1,27, 1, 7,4050000.0, 1,27, 8,45
13,734340618.3074418,278150.8545527997, 2, 1,15,15,5623225.231737841, 1,28, 7,15
61,301924526.02383536,88139.10953165221, 1,27, 1,15,1282023.4113694867, 1,27,20,15
134,70666020.44019976,63564.01800854099, 1,27, 4,15,156554.22484006523, 2, 1,20,15
170,5241013.419656067,348.4159749238097, 1,27, 4,15,17476.39704006126, 2, 1,12,15
207,6509451.13922267,815.2532113832032, 1,27, 3,15,22990.642799023623, 2, 1,10,15
244,12749673.399825225,1521.856143006317, 1,27, 4,15,53038.631142310165, 2, 1,20,15
281,46165882.481495745,59938.60262432081, 1,27, 5,15,81951.81706819107, 1,27,19,15
318,0.0,0.0, 1,27, 1,15,0.0, 1,27, 1,15
355,197687796.27748066,18561.32405820678, 1,27, 4,15,724774.895203776, 2, 1,18,15
403,197687796.27748066,18561.32405820678, 1,27, 4,15,724774.895203776, 2, 1,18,15
476,106772067.24485716,7098.072629279515, 1,27, 4,15,356036.3026282215, 2, 1,12,15
513,0.0,0.0, 1,27, 1,15,0.0, 1,27, 1,15
562,15005021.660008745,0.0, 1,27, 1,15,112016.4326827471, 1,29, 6,60
1046,0.0,0.0, 1,27, 1,15,0.0, 1,27, 1,15
1096,51268914.97253723,0.0, 1,27, 1,15,553498.5166642548, 2, 2,17,30
1134,140895321.00820377,0.0, 1,27,12,15,1757878.9960785855, 1,29, 6,15
1326,154580814.20265755,0.0, 1,27, 1,15,4050000.0, 1,27, 8,45
1379,0.0,0.0, 1,27, 1,15,0.0, 1,27, 1,15
1,EXTREME_SUMMER,  30.48, -81.70,  -5.00,   7.90
5,7
1038,0.0,0.0, 8,17, 1,15,0.0, 8,17, 1,15
1039,62.75,0.0, 8,17, 1,15,0.25, 8,17,14,30
581,0.08320746411351748,0.0, 8,17, 5,15,0.34785243369549135, 8,19,18,52
582,3.1051362886788354,0.0, 8,20,20,37,10.57764383100389, 8,17,16,52
583,0.04321469798150322,0.0005203592255871565, 8,23,23, 3,0.06800748824767636, 8,20,18,48
1115,0.0,0.0, 8,17, 1, 7,0.0, 8,17, 1, 7
1128,0.0,0.0, 8,17, 1, 7,0.0, 8,17, 1, 7
1153,0.0,0.0, 8,17, 1, 7,0.0, 8,17, 1, 7
1154,0.0,0.0, 8,17, 1, 7,0.0, 8,17, 1, 7
1155,0.0,0.0, 8,17, 1, 7,0.0, 8,17, 1, 7
1156,0.0,0.0, 8,17, 1, 7,0.0, 8,17, 1, 7
1292,-21663945.309798148,-34245.2963020081, 8,23, 6,30,-3382.8031272806206, 8,23,10,60
1306,115167484.77634168,0.0, 8,17, 1, 7,2025000.0, 8,18, 7,15
1307,9125843.349354047,0.0, 8,17, 1, 7,661496.680688911, 8,22,10,20
1308,115167484.77634168,0.0, 8,17, 1, 7,2025000.0, 8,18, 7,15
13,1132088576.6824276,229492.20186413458, 8,18, 4,60,5836856.486379099, 8,23,20,60
61,301924526.02383536,88139.10953165221, 8,17, 1,15,1282023.4113694867, 8,17,20,15
134,70666020.44019976,63564.01800854099, 8,17, 4,15,156554.22484006523, 8,22,20,15
170,5241013.419656067,348.4159749238097, 8,17, 4,15,17476.39704006126, 8,22,12,15
207,6509451.13922267,815.2532113832032, 8,17, 3,15,22990.642799023623, 8,22,10,15
244,12749673.399825225,1521.856143006317, 8,17, 4,15,53038.631142310165, 8,22,20,15
281,46165882.481495745,59938.60262432081, 8,17, 5,15,81951.81706819107, 8,17,19,15
318,0.0,0.0, 8,17, 1,15,0.0, 8,17, 1,15
355,197687796.27748066,18561.32405820678, 8,17, 4,15,724774.895203776, 8,22,18,15
403,197687796.27748066,18561.32405820678, 8,17, 4,15,724774.895203776, 8,22,18,15
476,106772067.24485716,7098.072629279515, 8,17, 4,15,356036.3026282215, 8,22,12,15
513,0.0,0.0, 8,17, 1,15,0.0, 8,17, 1,15
562,58847095.120510526,7392.862111999747, 8,18, 5,60,131384.01435847746, 8,18,16,45
1046,0.0,0.0, 8,17, 1,15,0.0, 8,17, 1,15
1096,585483450.32154,63974.09301385801, 8,18, 5,60,1475046.810506529, 8,22,15,60
1134,0.0,0.0, 8,17, 1,15,0.0, 8,17, 1,15
1326,115167484.7763417,0.0, 8,17, 1,15,4050000.0, 8,21, 8,30
1379,0.0,0.0, 8,17, 1,15,0.0, 8,17, 1,15
1,ANNUAL,  30.48, -81.70,  -5.00,   7.90
5,365
1038,0.75,0.0, 1, 1, 1,15,0.25, 1, 9, 6,15
1039,960.25,0.0, 1, 1, 1,15,0.25, 1,28,14,60
581,0.1655303187291381,0.0, 2,10, 9,46,0.9097397351226271, 7,26,14,47
582,3.355636733609969,0.0, 1, 1, 6,60,25.61186030003073, 4, 6,15,52
583,0.02807008853070076,0.0, 5,25,23, 7,0.08523359376937042, 6,14,16,46
1115,1643475316.4971259,0.0, 1, 1, 1,15,4094246.269042883, 1, 8, 7,45
1128,504800970.14813167,0.0, 1, 1, 1,15,1310190.9770957043, 1, 8, 7,45
1153,27578779.113651846,0.0, 1, 1, 1,15,88401.03085566057, 1,29, 6,45
1154,561840921.6985489,0.0, 1, 1, 1,15,180000.0, 1, 1, 2,30
1155,10529931.640514417,0.0, 1, 1, 1,15,638535.1202506061, 1, 8, 6, 5
1156,10529931.640514417,0.0, 1, 1, 1,15,638535.1202506061, 1, 8, 6, 5
1292,-1167009916.9876513,-39785.26450848226, 3, 2, 3,45,-1999.5416963500027,11,16,10,29
1306,7011805497.616986,0.0, 1, 1, 1,15,4050000.0, 1, 1, 9,45
1307,855668111.2011727,0.0, 1, 1, 1,15,7072717.283491567, 1,14,10,30
1308,7011805497.616986,0.0, 1, 1, 1,15,4050000.0, 1, 1, 9,45
13,45681181107.07001,151703.1275401932, 1, 2, 4,15,6367121.341877723, 5, 7,20,60
61,15743207428.383959,88139.10953165221, 1, 1, 1,15,1282023.4113694867, 1, 1,20,15
134,3685071073.4325233,63564.01800854099, 1, 2, 4,15,156554.22484006523, 1, 1,20,15
170,273393721.45532674,348.4159749238097, 1, 2, 4,15,17476.39704006126, 1, 1,12,15
207,339560869.0695816,815.2532113832032, 1, 2, 3,15,22990.642799023623, 1, 1,10,15
244,664895467.8009144,1521.856143006317, 1, 2, 4,15,53038.631142310165, 1, 1,20,15
281,2407221015.106824,59938.60262432081, 1, 1, 5,15,81951.81706819107, 1, 1,19,15
318,0.0,0.0, 1, 1, 1,15,0.0, 1, 1, 1,15
355,10310294493.051695,18561.32405820678, 1, 2, 4,15,724774.895203776, 1, 1,18,15
403,10310294493.051695,18561.32405820678, 1, 2, 4,15,724774.895203776, 1, 1,18,15
476,5569688622.066177,7098.072629279515, 1, 2, 4,15,356036.3026282215, 1, 1,12,15
513,0.0,0.0, 1, 1, 1,15,0.0, 1, 1, 1,15
562,1846343307.9676688,0.0, 1, 1, 1,15,131384.01435847746, 3, 9,17,15
1046,0.0,0.0, 1, 1, 1,15,0.0, 1, 1, 1,15
1096,16290003197.065979,0.0, 1, 1, 1,15,1477916.6978227687, 8,22,15,60
1134,1104750602.6008465,0.0, 1, 1, 1,15,2448444.062740571, 2,18, 6,15
1326,7011805497.616999,0.0, 1, 1, 1,15,4050000.0000000014, 1,19,10,30
1379,0.0,0.0, 1, 1, 1,15,0.0, 1, 1, 1,15
End of Data
 Number of Records Written=          99
