Program Version,EnergyPlus, Version 22.2.0-c249759bad, YMD=2023.09.01 18:20
1,5,Environment Title[],Latitude[deg],Longitude[deg],Time Zone[],Elevation[m]
2,8,Day of Simulation[],Month[],Day of Month[],DST Indicator[1=yes 0=no],Hour[],StartMinute[],EndMinute[],DayType
3,5,Cumulative Day of Simulation[],Month[],Day of Month[],DST Indicator[1=yes 0=no],DayType  ! When Daily Report Variables Requested
4,2,Cumulative Days of Simulation[],Month[]  ! When Monthly Report Variables Requested
5,1,Cumulative Days of Simulation[] ! When Run Period Report Variables Requested
6,1,Calendar Year of Simulation[] ! When Annual Report Variables Requested
581,11,LIVING,AFN Zone Infiltration Air Change Rate [ach] !RunPeriod [Value,Min,Month,Day,Hour,Minute,Max,Month,Day,Hour,Minute]
582,11,ATTIC,AFN Zone Infiltration Air Change Rate [ach] !RunPeriod [Value,Min,Month,Day,Hour,Minute,Max,Month,Day,Hour,Minute]
583,11,CRAWLSPACE,AFN Zone Infiltration Air Change Rate [ach] !RunPeriod [Value,Min,Month,Day,Hour,Minute,Max,Month,Day,Hour,Minute]
1038,11,Facility,Facility Heating Setpoint Not Met Time [hr] !RunPeriod [Value,Min,Month,Day,Hour,Minute,Max,Month,Day,Hour,Minute]
1039,11,Facility,Facility Cooling Setpoint Not Met Time [hr] !RunPeriod [Value,Min,Month,Day,Hour,Minute,Max,Month,Day,Hour,Minute]
1115,11,DX_HEATING_COIL,Heating Coil Heating Energy [J] !RunPeriod [Value,Min,Month,Day,Hour,Minute,Max,Month,Day,Hour,Minute]
1128,11,DX_HEATING_COIL,Heating Coil Electricity Energy [J] !RunPeriod [Value,Min,Month,Day,Hour,Minute,Max,Month,Day,Hour,Minute]
1153,11,DX_HEATING_COIL,Heating Coil Defrost Electricity Energy [J] !RunPeriod [Value,Min,Month,Day,Hour,Minute,Max,Month,Day,Hour,Minute]
1154,11,DX_HEATING_COIL,Heating Coil Crankcase Heater Electricity Energy [J] !RunPeriod [Value,Min,Month,Day,Hour,Minute,Max,Month,Day,Hour,Minute]
1155,11,HEATING_RESISTANCE_BACKUP,Heating Coil Heating Energy [J] !RunPeriod [Value,Min,Month,Day,Hour,Minute,Max,Month,Day,Hour,Minute]
1156,11,HEATING_RESISTANCE_BACKUP,Heating Coil Electricity Energy [J] !RunPeriod [Value,Min,Month,Day,Hour,Minute,Max,Month,Day,Hour,Minute]
1292,11,WATER HEATER,Water Heater Heat Loss Energy [J] !RunPeriod [Value,Min,Month,Day,Hour,Minute,Max,Month,Day,Hour,Minute]
1306,11,WATER HEATER,Water Heater Heating Energy [J] !RunPeriod [Value,Min,Month,Day,Hour,Minute,Max,Month,Day,Hour,Minute]
1307,11,WATER HEATER,Water Heater Unmet Demand Heat Transfer Energy [J] !RunPeriod [Value,Min,Month,Day,Hour,Minute,Max,Month,Day,Hour,Minute]
1308,11,WATER HEATER,Water Heater Electricity Energy [J] !RunPeriod [Value,Min,Month,Day,Hour,Minute,Max,Month,Day,Hour,Minute]
13,11,Electricity:Facility [J] !RunPeriod [Value,Min,Month,Day,Hour,Minute,Max,Month,Day,Hour,Minute]
1134,11,Heating:Electricity [J] !RunPeriod [Value,Min,Month,Day,Hour,Minute,Max,Month,Day,Hour,Minute]
1096,11,Cooling:Electricity [J] !RunPeriod [Value,Min,Month,Day,Hour,Minute,Max,Month,Day,Hour,Minute]
562,11,Fans:Electricity [J] !RunPeriod [Value,Min,Month,Day,Hour,Minute,Max,Month,Day,Hour,Minute]
1379,11,Pumps:Electricity [J] !RunPeriod [Value,Min,Month,Day,Hour,Minute,Max,Month,Day,Hour,Minute]
1326,11,WaterSystems:Electricity [J] !RunPeriod [Value,Min,Month,Day,Hour,Minute,Max,Month,Day,Hour,Minute]
61,11,InteriorLights:Electricity [J] !RunPeriod [Value,Min,Month,Day,Hour,Minute,Max,Month,Day,Hour,Minute]
1046,11,ExteriorLights:Electricity [J] !RunPeriod [Value,Min,Month,Day,Hour,Minute,Max,Month,Day,Hour,Minute]
134,11,InteriorEquipment:Electricity [J] !RunPeriod [Value,Min,Month,Day,Hour,Minute,Max,Month,Day,Hour,Minute]
170,11,gas_dryer:InteriorEquipment:Electricity [J] !RunPeriod [Value,Min,Month,Day,Hour,Minute,Max,Month,Day,Hour,Minute]
207,11,clotheswasher:InteriorEquipment:Electricity [J] !RunPeriod [Value,Min,Month,Day,Hour,Minute,Max,Month,Day,Hour,Minute]
244,11,dishwasher:InteriorEquipment:Electricity [J] !RunPeriod [Value,Min,Month,Day,Hour,Minute,Max,Month,Day,Hour,Minute]
281,11,refrigerator:InteriorEquipment:Electricity [J] !RunPeriod [Value,Min,Month,Day,Hour,Minute,Max,Month,Day,Hour,Minute]
318,11,electric_mels:InteriorEquipment:Electricity [J] !RunPeriod [Value,Min,Month,Day,Hour,Minute,Max,Month,Day,Hour,Minute]
355,11,NaturalGas:Facility [J] !RunPeriod [Value,Min,Month,Day,Hour,Minute,Max,Month,Day,Hour,Minute]
403,11,InteriorEquipment:NaturalGas [J] !RunPeriod [Value,Min,Month,Day,Hour,Minute,Max,Month,Day,Hour,Minute]
476,11,gas_dryer:InteriorEquipment:NaturalGas [J] !RunPeriod [Value,Min,Month,Day,Hour,Minute,Max,Month,Day,Hour,Minute]
513,11,gas_mels:InteriorEquipment:NaturalGas [J] !RunPeriod [Value,Min,Month,Day,Hour,Minute,Max,Month,Day,Hour,Minute]
End of Data Dictionary
1,EXTREME_WINTER,  47.63,-117.53,  -8.00, 717.20
5,7
1038,1.0,0.0, 1, 1, 1,15,0.25, 1, 1, 6,15
1039,0.0,0.0, 1, 1, 1,15,0.0, 1, 1, 1,15
581,0.3753157199679923,0.22276844862680922, 1, 6,20,60,0.6616794921228707, 1, 7,21,60
582,1.653693469546661,0.0, 1, 3,23,11,10.100385555889723, 1, 7,21,60
583,0.06735389024771485,0.00042489246530312265, 1, 3,23, 3,0.08382739731915781, 1, 1, 1,52
1115,2121945305.598871,0.0, 1, 1,23, 5,4123363.0011076485, 1, 5,15,60
1128,734047882.9243368,0.0, 1, 1,23, 5,1310932.6411009885, 1, 4,16,15
1153,37580944.12484261,0.0, 1, 1,23, 5,118277.19129658533, 1, 7, 6,60
1154,16051928.438824639,0.0, 1, 1, 1,15,114984.61153587658, 1, 6,23,60
1155,558792672.9666245,0.0, 1, 1,13,18,4425979.412801721, 1, 1, 7,60
1156,558792672.9666245,0.0, 1, 1,13,18,4425979.412801721, 1, 1, 7,60
1292,-25379762.607964896,-39771.076313280464, 1, 2, 3,45,-7301.018072586597, 1, 2,17,30
1306,237221183.24720317,0.0, 1, 1, 1,15,4050000.0, 1, 1, 7,60
1307,43763016.1984837,0.0, 1, 1, 1,15,12568902.835947255, 1, 7,19,60
1308,237221183.24720317,0.0, 1, 1, 1,15,4050000.0, 1, 1, 7,60
13,2040020217.6320243,1017593.0851121501, 1, 7, 1,15,10542493.734705271, 1, 1, 7,60
61,301924526.02383536,88139.10953165221, 1, 1, 1,15,1282023.4113694867, 1, 1,20,15
134,70666020.44019976,63564.01800854099, 1, 1, 4,15,156554.22484006523, 1, 6,20,15
170,5241013.419656067,348.4159749238097, 1, 1, 4,15,17476.39704006126, 1, 6,12,15
207,6509451.13922267,815.2532113832032, 1, 1, 3,15,22990.642799023623, 1, 6,10,15
244,12749673.399825225,1521.856143006317, 1, 1, 4,15,53038.631142310165, 1, 6,20,15
281,46165882.481495745,59938.60262432081, 1, 1, 5,15,81951.81706819107, 1, 1,19,15
318,0.0,0.0, 1, 1, 1,15,0.0, 1, 1, 1,15
355,197687796.27748066,18561.32405820678, 1, 1, 4,15,724774.895203776, 1, 6,18,15
403,197687796.27748066,18561.32405820678, 1, 1, 4,15,724774.895203776, 1, 6,18,15
476,106772067.24485716,7098.072629279515, 1, 1, 4,15,356036.3026282215, 1, 6,12,15
513,0.0,0.0, 1, 1, 1,15,0.0, 1, 1, 1,15
562,83735059.46615717,21407.01730945491, 1, 6,23,15,144225.26316323804, 1, 1,17,45
1046,0.0,0.0, 1, 1, 1,15,0.0, 1, 1, 1,15
1096,0.0,0.0, 1, 1, 1,15,0.0, 1, 1, 1,15
1134,1346473428.4546287,359053.83569624135, 1, 6,23,15,5962495.652133612, 1, 1, 6,15
1326,237221183.24720317,0.0, 1, 1, 1,15,4050000.0, 1, 1, 7,60
1379,0.0,0.0, 1, 1, 1,15,0.0, 1, 1, 1,15
1,EXTREME_SUMMER,  47.63,-117.53,  -8.00, 717.20
5,7
1038,0.0,0.0, 7,29, 1,15,0.0, 7,29, 1,15
1039,23.25,0.0, 7,29, 1,15,0.25, 7,30,15,60
581,0.14136064298058454,0.012420758059444337, 8, 3,23, 3,0.38732728905334274, 8, 2,19,48
582,3.3227898320985387,0.04601544576335173, 8, 4,21,33,10.039149734378249, 7,29,11,52
583,0.03935026735737176,0.00009579859159746408, 7,30, 6,11,0.07487059029231989, 8, 4, 6, 3
1115,0.0,0.0, 7,29, 1,15,0.0, 7,29, 1,15
1128,0.0,0.0, 7,29, 1,15,0.0, 7,29, 1,15
1153,0.0,0.0, 7,29, 1,15,0.0, 7,29, 1,15
1154,0.0,0.0, 7,29, 1,15,0.0, 7,29, 1,15
1155,0.0,0.0, 7,29, 1,15,0.0, 7,29, 1,15
1156,0.0,0.0, 7,29, 1,15,0.0, 7,29, 1,15
1292,-22034082.927337267,-34295.52099022704, 7,29,14,60,-3019.3159981581284, 7,30,12,60
1306,186738115.85037753,0.0, 7,29, 1,15,3489272.585010001, 7,29,14,30
1307,22247939.824910298,0.0, 7,29, 1,15,2310271.738530955, 8, 4,19,52
1308,186738115.85037753,0.0, 7,29, 1,15,3489272.585010001, 7,29,14,30
13,1107480474.6336606,166108.03230517235, 8, 3, 4,15,7096440.8779411465, 8, 4,20,15
61,301924526.02383536,88139.10953165221, 7,29, 1,15,1282023.4113694867, 7,29,20,15
134,70666020.44019976,63564.01800854099, 7,29, 4,15,156554.22484006523, 8, 3,20,15
170,5241013.419656067,348.4159749238097, 7,29, 4,15,17476.39704006126, 8, 3,12,15
207,6509451.13922267,815.2532113832032, 7,29, 3,15,22990.642799023623, 8, 3,10,15
244,12749673.399825225,1521.856143006317, 7,29, 4,15,53038.631142310165, 8, 3,20,15
281,46165882.481495745,59938.60262432081, 7,29, 5,15,81951.81706819107, 7,29,19,15
318,0.0,0.0, 7,29, 1,15,0.0, 7,29, 1,15
355,197687796.27748066,18561.32405820678, 7,29, 4,15,724774.895203776, 8, 3,18,15
403,197687796.27748066,18561.32405820678, 7,29, 4,15,724774.895203776, 8, 3,18,15
476,106772067.24485716,7098.072629279515, 7,29, 4,15,356036.3026282215, 8, 3,12,15
513,0.0,0.0, 7,29, 1,15,0.0, 7,29, 1,15
562,52862133.489903934,1591.4151284317015, 8, 3, 4,15,144225.26316323804, 7,30,15,45
1046,0.0,0.0, 7,29, 1,15,0.0, 7,29, 1,15
1096,495289678.8293439,12444.816978328003, 8, 3, 4,15,1540728.8615269642, 8, 4,17,60
1134,0.0,0.0, 7,29, 1,15,0.0, 7,29, 1,15
1326,186738115.8503774,0.0, 7,29, 1,15,4050000.0, 7,30,20,30
1379,0.0,0.0, 7,29, 1,15,0.0, 7,29, 1,15
1,ANNUAL,  47.63,-117.53,  -8.00, 717.20
5,365
1038,26.5,0.0, 1, 1, 1,15,0.25, 1, 1, 6,15
1039,153.75,0.0, 1, 1, 1,15,0.25, 5, 5,10,60
581,0.290607776501572,0.0, 7,25,23, 3,1.0137543674910823, 3,16,22,60
582,3.989751867913368,0.0, 1, 3,23,11,32.27842013311648, 4, 9,16,50
583,0.030176251465275968,0.0, 7,25,23, 3,0.0888881613584273,12, 3, 9,60
1115,33995666010.374043,0.0, 1, 1,23, 5,4542159.387723381, 2,23, 1,45
1128,10815228734.181131,0.0, 1, 1,23, 5,1379120.205072859, 3, 5, 6,45
1153,606620799.9541264,0.0, 1, 1,23, 5,149444.11511555492, 1,21,17,60
1154,1959206084.9969556,0.0, 1, 1, 1,15,180000.0, 1,19,15,30
1155,3463777200.857374,0.0, 1, 1,13,18,4730648.955922522,12, 7, 1,60
1156,3463777200.857374,0.0, 1, 1,13,18,4730648.955922522,12, 7, 1,60
1292,-1243806909.9889305,-41344.3870358372,12, 7, 6,60,-2435.8122792413137, 5,18, 9,59
1306,11272857915.038078,0.0, 1, 1, 1,15,4050000.0, 1, 1,20,15
1307,1773806142.864775,0.0, 1, 1, 1,15,13031108.903131995, 2,12,19,60
1308,11272857915.038078,0.0, 1, 1, 1,15,4050000.0, 1, 1,20,15
13,55576777466.67271,151703.1275401932, 4,28, 4,15,10788125.34812145,12, 7, 7,60
61,15743207428.383959,88139.10953165221, 1, 1, 1,15,1282023.4113694867, 1, 1,20,15
134,3685071073.4325233,63564.01800854099, 1, 2, 4,15,156554.22484006523, 1, 1,20,15
170,273393721.45532674,348.4159749238097, 1, 2, 4,15,17476.39704006126, 1, 1,12,15
207,339560869.0695816,815.2532113832032, 1, 2, 3,15,22990.642799023623, 1, 1,10,15
244,664895467.8009144,1521.856143006317, 1, 2, 4,15,53038.631142310165, 1, 1,20,15
281,2407221015.106824,59938.60262432081, 1, 1, 5,15,81951.81706819107, 1, 1,19,15
318,0.0,0.0, 1, 1, 1,15,0.0, 1, 1, 1,15
355,10310294493.051695,18561.32405820678, 1, 2, 4,15,724774.895203776, 1, 1,18,15
403,10310294493.051695,18561.32405820678, 1, 2, 4,15,724774.895203776, 1, 1,18,15
476,5569688622.066177,7098.072629279515, 1, 2, 4,15,356036.3026282215, 1, 1,12,15
513,0.0,0.0, 1, 1, 1,15,0.0, 1, 1, 1,15
562,1922445090.1567698,0.0, 1,15,23,15,144225.26316323804, 1, 1,12,30
1046,0.0,0.0, 1, 1, 1,15,0.0, 1, 1, 1,15
1096,6108363139.670173,0.0, 1, 1, 1,15,1603157.149289682, 8,11,17,60
1134,16844832819.989565,0.0, 3, 2,13,45,5994396.040823314, 1,11, 6,30
1326,11272857915.038073,0.0, 1, 1, 1,15,4050000.0000000014, 7, 1, 9,45
1379,0.0,0.0, 1, 1, 1,15,0.0, 1, 1, 1,15
End of Data
 Number of Records Written=          99
