Program Version,EnergyPlus, Version 22.2.0-c249759bad, YMD=2023.09.01 20:31
1,5,Environment Title[],Latitude[deg],Longitude[deg],Time Zone[],Elevation[m]
2,8,Day of Simulation[],Month[],Day of Month[],DST Indicator[1=yes 0=no],Hour[],StartMinute[],EndMinute[],DayType
3,5,Cumulative Day of Simulation[],Month[],Day of Month[],DST Indicator[1=yes 0=no],DayType  ! When Daily Report Variables Requested
4,2,Cumulative Days of Simulation[],Month[]  ! When Monthly Report Variables Requested
5,1,Cumulative Days of Simulation[] ! When Run Period Report Variables Requested
6,1,Calendar Year of Simulation[] ! When Annual Report Variables Requested
581,11,LIVING,AFN Zone Infiltration Air Change Rate [ach] !RunPeriod [Value,Min,Month,Day,Hour,Minute,Max,Month,Day,Hour,Minute]
582,11,ATTIC,AFN Zone Infiltration Air Change Rate [ach] !RunPeriod [Value,Min,Month,Day,Hour,Minute,Max,Month,Day,Hour,Minute]
583,11,CRAWLSPACE,AFN Zone Infiltration Air Change Rate [ach] !RunPeriod [Value,Min,Month,Day,Hour,Minute,Max,Month,Day,Hour,Minute]
1038,11,Facility,Facility Heating Setpoint Not Met Time [hr] !RunPeriod [Value,Min,Month,Day,Hour,Minute,Max,Month,Day,Hour,Minute]
1039,11,Facility,Facility Cooling Setpoint Not Met Time [hr] !RunPeriod [Value,Min,Month,Day,Hour,Minute,Max,Month,Day,Hour,Minute]
1115,11,DX_HEATING_COIL,Heating Coil Heating Energy [J] !RunPeriod [Value,Min,Month,Day,Hour,Minute,Max,Month,Day,Hour,Minute]
1128,11,DX_HEATING_COIL,Heating Coil Electricity Energy [J] !RunPeriod [Value,Min,Month,Day,Hour,Minute,Max,Month,Day,Hour,Minute]
1153,11,DX_HEATING_COIL,Heating Coil Defrost Electricity Energy [J] !RunPeriod [Value,Min,Month,Day,Hour,Minute,Max,Month,Day,Hour,Minute]
1154,11,DX_HEATING_COIL,Heating Coil Crankcase Heater Electricity Energy [J] !RunPeriod [Value,Min,Month,Day,Hour,Minute,Max,Month,Day,Hour,Minute]
1155,11,HEATING_RESISTANCE_BACKUP,Heating Coil Heating Energy [J] !RunPeriod [Value,Min,Month,Day,Hour,Minute,Max,Month,Day,Hour,Minute]
1156,11,HEATING_RESISTANCE_BACKUP,Heating Coil Electricity Energy [J] !RunPeriod [Value,Min,Month,Day,Hour,Minute,Max,Month,Day,Hour,Minute]
1292,11,WATER HEATER,Water Heater Heat Loss Energy [J] !RunPeriod [Value,Min,Month,Day,Hour,Minute,Max,Month,Day,Hour,Minute]
1306,11,WATER HEATER,Water Heater Heating Energy [J] !RunPeriod [Value,Min,Month,Day,Hour,Minute,Max,Month,Day,Hour,Minute]
1307,11,WATER HEATER,Water Heater Unmet Demand Heat Transfer Energy [J] !RunPeriod [Value,Min,Month,Day,Hour,Minute,Max,Month,Day,Hour,Minute]
1308,11,WATER HEATER,Water Heater Electricity Energy [J] !RunPeriod [Value,Min,Month,Day,Hour,Minute,Max,Month,Day,Hour,Minute]
13,11,Electricity:Facility [J] !RunPeriod [Value,Min,Month,Day,Hour,Minute,Max,Month,Day,Hour,Minute]
1134,11,Heating:Electricity [J] !RunPeriod [Value,Min,Month,Day,Hour,Minute,Max,Month,Day,Hour,Minute]
1096,11,Cooling:Electricity [J] !RunPeriod [Value,Min,Month,Day,Hour,Minute,Max,Month,Day,Hour,Minute]
562,11,Fans:Electricity [J] !RunPeriod [Value,Min,Month,Day,Hour,Minute,Max,Month,Day,Hour,Minute]
1379,11,Pumps:Electricity [J] !RunPeriod [Value,Min,Month,Day,Hour,Minute,Max,Month,Day,Hour,Minute]
1326,11,WaterSystems:Electricity [J] !RunPeriod [Value,Min,Month,Day,Hour,Minute,Max,Month,Day,Hour,Minute]
61,11,InteriorLights:Electricity [J] !RunPeriod [Value,Min,Month,Day,Hour,Minute,Max,Month,Day,Hour,Minute]
1046,11,ExteriorLights:Electricity [J] !RunPeriod [Value,Min,Month,Day,Hour,Minute,Max,Month,Day,Hour,Minute]
134,11,InteriorEquipment:Electricity [J] !RunPeriod [Value,Min,Month,Day,Hour,Minute,Max,Month,Day,Hour,Minute]
170,11,gas_dryer:InteriorEquipment:Electricity [J] !RunPeriod [Value,Min,Month,Day,Hour,Minute,Max,Month,Day,Hour,Minute]
207,11,clotheswasher:InteriorEquipment:Electricity [J] !RunPeriod [Value,Min,Month,Day,Hour,Minute,Max,Month,Day,Hour,Minute]
244,11,dishwasher:InteriorEquipment:Electricity [J] !RunPeriod [Value,Min,Month,Day,Hour,Minute,Max,Month,Day,Hour,Minute]
281,11,refrigerator:InteriorEquipment:Electricity [J] !RunPeriod [Value,Min,Month,Day,Hour,Minute,Max,Month,Day,Hour,Minute]
318,11,electric_mels:InteriorEquipment:Electricity [J] !RunPeriod [Value,Min,Month,Day,Hour,Minute,Max,Month,Day,Hour,Minute]
355,11,NaturalGas:Facility [J] !RunPeriod [Value,Min,Month,Day,Hour,Minute,Max,Month,Day,Hour,Minute]
403,11,InteriorEquipment:NaturalGas [J] !RunPeriod [Value,Min,Month,Day,Hour,Minute,Max,Month,Day,Hour,Minute]
476,11,gas_dryer:InteriorEquipment:NaturalGas [J] !RunPeriod [Value,Min,Month,Day,Hour,Minute,Max,Month,Day,Hour,Minute]
513,11,gas_mels:InteriorEquipment:NaturalGas [J] !RunPeriod [Value,Min,Month,Day,Hour,Minute,Max,Month,Day,Hour,Minute]
End of Data Dictionary
1,EXTREME_WINTER,  44.47, -73.15,  -5.00, 104.00
5,7
1038,13.0,0.0, 1,20, 1,15,0.25, 1,21, 6,15
1039,0.0,0.0, 1,20, 1,15,0.0, 1,20, 1,15
581,0.4762955512602543,0.3051698551360989, 1,22,23, 5,0.7920549398257879, 1,20,10,60
582,3.918637582717101,0.05783601770444089, 1,23, 5,60,15.79323051012136, 1,20, 7,48
583,0.06488316980249492,0.0004910937150472808, 1,22,23, 5,0.07731902137062534, 1,20,10,60
1115,1778248527.7033315,0.0, 1,21,23, 5,3560265.7803296535, 1,24, 3,60
1128,681716816.7002976,0.0, 1,21,23, 5,1145935.3676219517, 1,24,11,60
1153,5613917.641951033,0.0, 1,21,23, 5,49064.610269310804, 1,24, 8,60
1154,5099986.564671029,0.0, 1,20, 1, 5,143240.43863825218, 1,24,14,60
1155,1972076010.4287395,0.0, 1,20,23, 5,6415609.345239673, 1,25, 6,15
1156,1972076010.4287395,0.0, 1,20,23, 5,6415609.345239673, 1,25, 6,15
1292,-25443707.283102393,-40242.50425727505, 1,26, 3,60,-4110.442674022326, 1,21,12,16
1306,199117541.33750287,0.0, 1,20, 1, 5,4050000.0, 1,20, 8,45
1307,44471081.66457148,0.0, 1,20, 1, 5,4108737.9747965117, 1,20, 8,45
1308,199117541.33750287,0.0, 1,20, 1, 5,4050000.0, 1,20, 8,45
13,3314184914.659853,666271.9406731183, 1,24,15,15,11943908.365854755, 1,26, 9,45
61,301924526.02383536,88139.10953165221, 1,20, 1,15,1282023.4113694867, 1,20,20,15
134,70666020.44019976,63564.01800854099, 1,20, 4,15,156554.22484006523, 1,25,20,15
170,5241013.419656067,348.4159749238097, 1,20, 4,15,17476.39704006126, 1,25,12,15
207,6509451.13922267,815.2532113832032, 1,20, 3,15,22990.642799023623, 1,25,10,15
244,12749673.399825225,1521.856143006317, 1,20, 4,15,53038.631142310165, 1,25,20,15
281,46165882.481495745,59938.60262432081, 1,20, 5,15,81951.81706819107, 1,20,19,15
318,0.0,0.0, 1,20, 1,15,0.0, 1,20, 1,15
355,197687796.27748066,18561.32405820678, 1,20, 4,15,724774.895203776, 1,25,18,15
403,197687796.27748066,18561.32405820678, 1,20, 4,15,724774.895203776, 1,25,18,15
476,106772067.24485716,7098.072629279515, 1,20, 4,15,356036.3026282215, 1,25,12,15
513,0.0,0.0, 1,20, 1,15,0.0, 1,20, 1,15
562,77970095.52265365,23640.08606337757, 1,24,15,15,121138.60039186629, 1,20, 1,15
1046,0.0,0.0, 1,20, 1,15,0.0, 1,20, 1,15
1096,0.0,0.0, 1,20, 1,15,0.0, 1,20, 1,15
1134,2664506731.335659,370614.8157116183, 1,24,15,15,7438302.576466243, 1,21, 6,15
1326,199117541.3375029,0.0, 1,20, 1,15,4050000.0, 1,20, 8,45
1379,0.0,0.0, 1,20, 1,15,0.0, 1,20, 1,15
1,EXTREME_SUMMER,  44.47, -73.15,  -5.00, 104.00
5,7
1038,0.0,0.0, 7,27, 1,15,0.0, 7,27, 1,15
1039,28.5,0.0, 7,27, 1,15,0.25, 7,27,14,45
581,0.12254907472887375,0.0, 7,27,23, 3,0.46101967864993654, 7,30,15,55
582,2.451749129671542,0.0, 7,27, 1,50,9.433045483340436, 7,31, 8,60
583,0.03209776692378148,0.0, 7,27,23, 3,0.060783720970962296, 7,31, 6, 3
1115,0.0,0.0, 7,27, 1,15,0.0, 7,27, 1,15
1128,0.0,0.0, 7,27, 1,15,0.0, 7,27, 1,15
1153,0.0,0.0, 7,27, 1,15,0.0, 7,27, 1,15
1154,0.0,0.0, 7,27, 1,15,0.0, 7,27, 1,15
1155,0.0,0.0, 7,27, 1,15,0.0, 7,27, 1,15
1156,0.0,0.0, 7,27, 1,15,0.0, 7,27, 1,15
1292,-21931793.258636717,-34332.27603638571, 8, 2,14,15,-3527.6531572803888, 8, 2, 9,30
1306,154016030.55809814,0.0, 7,27, 1,15,4050000.0, 7,30,10,30
1307,24784546.654944357,0.0, 7,27, 1,15,7198154.728364818, 7,30,10,30
1308,154016030.55809814,0.0, 7,27, 1,15,4050000.0, 7,30,10,30
13,962706569.1007562,151703.1275401932, 7,27, 4,60,6379054.620807953, 8, 1,19,30
61,301924526.02383536,88139.10953165221, 7,27, 1,15,1282023.4113694867, 7,27,20,15
134,70666020.44019976,63564.01800854099, 7,27, 4,15,156554.22484006523, 8, 1,20,15
170,5241013.419656067,348.4159749238097, 7,27, 4,15,17476.39704006126, 8, 1,12,15
207,6509451.13922267,815.2532113832032, 7,27, 3,15,22990.642799023623, 8, 1,10,15
244,12749673.399825225,1521.856143006317, 7,27, 4,15,53038.631142310165, 8, 1,20,15
281,46165882.481495745,59938.60262432081, 7,27, 5,15,81951.81706819107, 7,27,19,15
318,0.0,0.0, 7,27, 1,15,0.0, 7,27, 1,15
355,197687796.27748066,18561.32405820678, 7,27, 4,15,724774.895203776, 8, 1,18,15
403,197687796.27748066,18561.32405820678, 7,27, 4,15,724774.895203776, 8, 1,18,15
476,106772067.24485716,7098.072629279515, 7,27, 4,15,356036.3026282215, 8, 1,12,15
513,0.0,0.0, 7,27, 1,15,0.0, 7,27, 1,15
562,43921581.927319266,0.0, 7,27, 4,60,121138.60039186629, 7,27,13,60
1046,0.0,0.0, 7,27, 1,15,0.0, 7,27, 1,15
1096,392178410.1513047,0.0, 7,27, 4,60,1252163.2951989705, 7,29,15,60
1134,0.0,0.0, 7,27, 1,15,0.0, 7,27, 1,15
1326,154016030.5580981,0.0, 7,27, 1,15,4050000.0, 7,27, 8,45
1379,0.0,0.0, 7,27, 1,15,0.0, 7,27, 1,15
1,ANNUAL,  44.47, -73.15,  -5.00, 104.00
5,365
1038,108.25,0.0, 1, 1, 1,15,0.25, 1, 1, 6,15
1039,269.0,0.0, 1, 1, 1,15,0.25, 4,10,15,45
581,0.2867037073962728,0.0, 6,22, 6,50,1.0443015745897348,12,22,19,55
582,3.5734005414932057,0.0, 1, 1,19,22,28.517709457950897,12,22,12,60
583,0.030189525697839652,0.0, 7,11,23, 3,0.07902050243274197, 1,16,24,52
1115,36718561528.10934,0.0, 1, 1,14,37,4439712.294441725,11,22, 7,30
1128,11879804135.09411,0.0, 1, 1,14,37,1218063.9484320257,12, 8, 7,45
1153,330144416.2474531,0.0, 1, 1,14,37,123271.7348451759,11, 9, 7,60
1154,1352021804.377811,0.0, 1, 1, 6,15,180000.0, 1, 1,14,60
1155,12962155619.713718,0.0, 1, 1, 1,15,6415609.345239673, 1,17, 1,15
1156,12962155619.713718,0.0, 1, 1, 1,15,6415609.345239673, 1,17, 1,15
1292,-1246853423.3562293,-42627.91597854006, 1,17, 6,15,-2512.8390154598837, 6, 4,15,59
1306,9270777723.456745,0.0, 1, 1, 1,15,4050000.0, 1, 1, 9,45
1307,1780259212.7750618,0.0, 1, 1, 1,15,10943438.719508179, 2,16,10,30
1308,9270777723.456745,0.0, 1, 1, 1,15,4050000.0, 1, 1, 9,45
13,62938809100.70845,151703.1275401932, 4,18, 4,15,12183172.266943503, 1,27, 8,45
61,15743207428.383959,88139.10953165221, 1, 1, 1,15,1282023.4113694867, 1, 1,20,15
134,3685071073.4325233,63564.01800854099, 1, 2, 4,15,156554.22484006523, 1, 1,20,15
170,273393721.45532674,348.4159749238097, 1, 2, 4,15,17476.39704006126, 1, 1,12,15
207,339560869.0695816,815.2532113832032, 1, 2, 3,15,22990.642799023623, 1, 1,10,15
244,664895467.8009144,1521.856143006317, 1, 2, 4,15,53038.631142310165, 1, 1,20,15
281,2407221015.106824,59938.60262432081, 1, 1, 5,15,81951.81706819107, 1, 1,19,15
318,0.0,0.0, 1, 1, 1,15,0.0, 1, 1, 1,15
355,10310294493.051695,18561.32405820678, 1, 2, 4,15,724774.895203776, 1, 1,18,15
403,10310294493.051695,18561.32405820678, 1, 2, 4,15,724774.895203776, 1, 1,18,15
476,5569688622.066177,7098.072629279515, 1, 2, 4,15,356036.3026282215, 1, 1,12,15
513,0.0,0.0, 1, 1, 1,15,0.0, 1, 1, 1,15
562,1971301879.358803,0.0, 1, 1,14,45,121138.60039186629, 1, 1, 6,15
1046,0.0,0.0, 1, 1, 1,15,0.0, 1, 1, 1,15
1096,5744325020.642297,0.0, 1, 1, 1,15,1323335.9397316908, 6,22,17,60
1134,26524125975.4329,0.0, 1, 4,15,60,7488198.466381406, 1,18, 6,15
1326,9270777723.456749,0.0, 1, 1, 1,15,4050000.0000000014, 5,19, 8,30
1379,0.0,0.0, 1, 1, 1,15,0.0, 1, 1, 1,15
End of Data
 Number of Records Written=          99
