Program Version,EnergyPlus, Version 22.2.0-c249759bad, YMD=2023.09.01 20:23
1,5,Environment Title[],Latitude[deg],Longitude[deg],Time Zone[],Elevation[m]
2,8,Day of Simulation[],Month[],Day of Month[],DST Indicator[1=yes 0=no],Hour[],StartMinute[],EndMinute[],DayType
3,5,Cumulative Day of Simulation[],Month[],Day of Month[],DST Indicator[1=yes 0=no],DayType  ! When Daily Report Variables Requested
4,2,Cumulative Days of Simulation[],Month[]  ! When Monthly Report Variables Requested
5,1,Cumulative Days of Simulation[] ! When Run Period Report Variables Requested
6,1,Calendar Year of Simulation[] ! When Annual Report Variables Requested
581,11,LIVING,AFN Zone Infiltration Air Change Rate [ach] !RunPeriod [Value,Min,Month,Day,Hour,Minute,Max,Month,Day,Hour,Minute]
582,11,ATTIC,AFN Zone Infiltration Air Change Rate [ach] !RunPeriod [Value,Min,Month,Day,Hour,Minute,Max,Month,Day,Hour,Minute]
583,11,CRAWLSPACE,AFN Zone Infiltration Air Change Rate [ach] !RunPeriod [Value,Min,Month,Day,Hour,Minute,Max,Month,Day,Hour,Minute]
1038,11,Facility,Facility Heating Setpoint Not Met Time [hr] !RunPeriod [Value,Min,Month,Day,Hour,Minute,Max,Month,Day,Hour,Minute]
1039,11,Facility,Facility Cooling Setpoint Not Met Time [hr] !RunPeriod [Value,Min,Month,Day,Hour,Minute,Max,Month,Day,Hour,Minute]
1115,11,DX_HEATING_COIL,Heating Coil Heating Energy [J] !RunPeriod [Value,Min,Month,Day,Hour,Minute,Max,Month,Day,Hour,Minute]
1128,11,DX_HEATING_COIL,Heating Coil Electricity Energy [J] !RunPeriod [Value,Min,Month,Day,Hour,Minute,Max,Month,Day,Hour,Minute]
1153,11,DX_HEATING_COIL,Heating Coil Defrost Electricity Energy [J] !RunPeriod [Value,Min,Month,Day,Hour,Minute,Max,Month,Day,Hour,Minute]
1154,11,DX_HEATING_COIL,Heating Coil Crankcase Heater Electricity Energy [J] !RunPeriod [Value,Min,Month,Day,Hour,Minute,Max,Month,Day,Hour,Minute]
1155,11,HEATING_RESISTANCE_BACKUP,Heating Coil Heating Energy [J] !RunPeriod [Value,Min,Month,Day,Hour,Minute,Max,Month,Day,Hour,Minute]
1156,11,HEATING_RESISTANCE_BACKUP,Heating Coil Electricity Energy [J] !RunPeriod [Value,Min,Month,Day,Hour,Minute,Max,Month,Day,Hour,Minute]
1292,11,WATER HEATER,Water Heater Heat Loss Energy [J] !RunPeriod [Value,Min,Month,Day,Hour,Minute,Max,Month,Day,Hour,Minute]
1306,11,WATER HEATER,Water Heater Heating Energy [J] !RunPeriod [Value,Min,Month,Day,Hour,Minute,Max,Month,Day,Hour,Minute]
1307,11,WATER HEATER,Water Heater Unmet Demand Heat Transfer Energy [J] !RunPeriod [Value,Min,Month,Day,Hour,Minute,Max,Month,Day,Hour,Minute]
1308,11,WATER HEATER,Water Heater Electricity Energy [J] !RunPeriod [Value,Min,Month,Day,Hour,Minute,Max,Month,Day,Hour,Minute]
13,11,Electricity:Facility [J] !RunPeriod [Value,Min,Month,Day,Hour,Minute,Max,Month,Day,Hour,Minute]
1134,11,Heating:Electricity [J] !RunPeriod [Value,Min,Month,Day,Hour,Minute,Max,Month,Day,Hour,Minute]
1096,11,Cooling:Electricity [J] !RunPeriod [Value,Min,Month,Day,Hour,Minute,Max,Month,Day,Hour,Minute]
562,11,Fans:Electricity [J] !RunPeriod [Value,Min,Month,Day,Hour,Minute,Max,Month,Day,Hour,Minute]
1379,11,Pumps:Electricity [J] !RunPeriod [Value,Min,Month,Day,Hour,Minute,Max,Month,Day,Hour,Minute]
1326,11,WaterSystems:Electricity [J] !RunPeriod [Value,Min,Month,Day,Hour,Minute,Max,Month,Day,Hour,Minute]
61,11,InteriorLights:Electricity [J] !RunPeriod [Value,Min,Month,Day,Hour,Minute,Max,Month,Day,Hour,Minute]
1046,11,ExteriorLights:Electricity [J] !RunPeriod [Value,Min,Month,Day,Hour,Minute,Max,Month,Day,Hour,Minute]
134,11,InteriorEquipment:Electricity [J] !RunPeriod [Value,Min,Month,Day,Hour,Minute,Max,Month,Day,Hour,Minute]
170,11,gas_dryer:InteriorEquipment:Electricity [J] !RunPeriod [Value,Min,Month,Day,Hour,Minute,Max,Month,Day,Hour,Minute]
207,11,clotheswasher:InteriorEquipment:Electricity [J] !RunPeriod [Value,Min,Month,Day,Hour,Minute,Max,Month,Day,Hour,Minute]
244,11,dishwasher:InteriorEquipment:Electricity [J] !RunPeriod [Value,Min,Month,Day,Hour,Minute,Max,Month,Day,Hour,Minute]
281,11,refrigerator:InteriorEquipment:Electricity [J] !RunPeriod [Value,Min,Month,Day,Hour,Minute,Max,Month,Day,Hour,Minute]
318,11,electric_mels:InteriorEquipment:Electricity [J] !RunPeriod [Value,Min,Month,Day,Hour,Minute,Max,Month,Day,Hour,Minute]
355,11,NaturalGas:Facility [J] !RunPeriod [Value,Min,Month,Day,Hour,Minute,Max,Month,Day,Hour,Minute]
403,11,InteriorEquipment:NaturalGas [J] !RunPeriod [Value,Min,Month,Day,Hour,Minute,Max,Month,Day,Hour,Minute]
476,11,gas_dryer:InteriorEquipment:NaturalGas [J] !RunPeriod [Value,Min,Month,Day,Hour,Minute,Max,Month,Day,Hour,Minute]
513,11,gas_mels:InteriorEquipment:NaturalGas [J] !RunPeriod [Value,Min,Month,Day,Hour,Minute,Max,Month,Day,Hour,Minute]
End of Data Dictionary
1,EXTREME_WINTER,  41.78,-124.24,  -8.00,  17.00
5,7
1038,15.25,0.0, 1, 1, 1,15,0.25, 1, 1, 6,15
1039,0.0,0.0, 1, 1, 1,15,0.0, 1, 1, 1,15
581,0.20778464799014423,0.13689903579549664, 1, 6,11, 2,0.6720186244522077, 1, 1, 4,60
582,2.0181678265962915,0.0, 1, 1,22,60,13.028067566919306, 1, 1, 4,60
583,0.009633804598278306,0.00013084018198528273, 1, 6,11, 5,0.03800809251580908, 1, 1, 6,10
1115,413022299.13680804,0.0, 1, 1, 1,15,2528677.8307541907, 1, 5, 6,60
1128,113719597.7396307,0.0, 1, 1, 1,15,645928.9794745859, 1, 5, 6,60
1153,6310766.980843395,0.0, 1, 1, 1,15,61739.73886193135, 1, 6, 4,30
1154,76375578.66381939,0.0, 1, 1, 6, 5,180000.0, 1, 1, 1,15
1155,32786051.692749865,0.0, 1, 1, 1,15,1774295.8626671066, 1, 6, 7,15
1156,32786051.692749865,0.0, 1, 1, 1,15,1774295.8626671066, 1, 6, 7,15
1292,-24516390.181806955,-40266.69241891902, 1, 4, 7,30,-4509.575929475761, 1, 6,11,31
1306,172916842.72797886,0.0, 1, 1, 1,15,4050000.0, 1, 1, 8,45
1307,31193858.936569415,0.0, 1, 1, 1,15,4302409.175010901, 1, 6,10,22
1308,172916842.72797886,0.0, 1, 1, 1,15,4050000.0, 1, 1, 8,45
13,790841390.6824961,272017.0388981225, 1, 1,15,15,5534468.104330816, 1, 6,19,30
61,301924526.02383536,88139.10953165221, 1, 1, 1,15,1282023.4113694867, 1, 1,20,15
134,70666020.44019976,63564.01800854099, 1, 1, 4,15,156554.22484006523, 1, 6,20,15
170,5241013.419656067,348.4159749238097, 1, 1, 4,15,17476.39704006126, 1, 6,12,15
207,6509451.13922267,815.2532113832032, 1, 1, 3,15,22990.642799023623, 1, 6,10,15
244,12749673.399825225,1521.856143006317, 1, 1, 4,15,53038.631142310165, 1, 6,20,15
281,46165882.481495745,59938.60262432081, 1, 1, 5,15,81951.81706819107, 1, 1,19,15
318,0.0,0.0, 1, 1, 1,15,0.0, 1, 1, 1,15
355,197687796.27748066,18561.32405820678, 1, 1, 4,15,724774.895203776, 1, 6,18,15
403,197687796.27748066,18561.32405820678, 1, 1, 4,15,724774.895203776, 1, 6,18,15
476,106772067.24485716,7098.072629279515, 1, 1, 4,15,356036.3026282215, 1, 6,12,15
513,0.0,0.0, 1, 1, 1,15,0.0, 1, 1, 1,15
562,12405337.312954819,0.0, 1, 1, 1,15,68062.00890381678, 1, 2, 6,15
1046,0.0,0.0, 1, 1, 1,15,0.0, 1, 1, 1,15
1096,3736669.1004857845,0.0, 1, 1, 1,15,180848.36123140255, 1, 2,17,15
1134,229191995.07704324,0.0, 1, 1,11,60,2853732.60171061, 1, 6, 6,30
1326,172916842.72797886,0.0, 1, 1, 1,15,4050000.0, 1, 1, 8,45
1379,0.0,0.0, 1, 1, 1,15,0.0, 1, 1, 1,15
1,EXTREME_SUMMER,  41.78,-124.24,  -8.00,  17.00
5,7
1038,0.0,0.0, 8,19, 1,15,0.0, 8,19, 1,15
1039,6.5,0.0, 8,19, 1,15,0.25, 8,22,16,30
581,0.2262057171114389,0.0847246356006552, 8,25,23, 7,0.5189320125544996, 8,20,23,60
582,3.198090714231273,0.0, 8,22, 3,60,9.570781967591422, 8,20,23,60
583,0.007677909864415654,0.00002851098706074627, 8,24, 2,30,0.03367704193429851, 8,22,15,50
1115,0.0,0.0, 8,19, 1,15,0.0, 8,19, 1,15
1128,0.0,0.0, 8,19, 1,15,0.0, 8,19, 1,15
1153,0.0,0.0, 8,19, 1,15,0.0, 8,19, 1,15
1154,0.0,0.0, 8,19, 1,15,0.0, 8,19, 1,15
1155,0.0,0.0, 8,19, 1,15,0.0, 8,19, 1,15
1156,0.0,0.0, 8,19, 1,15,0.0, 8,19, 1,15
1292,-23078385.846514575,-37696.02419087638, 8,21, 7,30,-2664.5073969378823, 8,25,18,31
1306,163786105.94896725,0.0, 8,19, 1,15,4050000.0, 8,19, 8,45
1307,27661546.68946447,0.0, 8,19, 1,15,2818581.7007677993, 8,21, 9,30
1308,163786105.94896725,0.0, 8,19, 1,15,4050000.0, 8,19, 8,45
13,612392738.6091812,151703.1275401932, 8,19, 4,15,5917353.916350041, 8,22,19,30
61,301924526.02383536,88139.10953165221, 8,19, 1,15,1282023.4113694867, 8,19,20,15
134,70666020.44019976,63564.01800854099, 8,19, 4,15,156554.22484006523, 8,24,20,15
170,5241013.419656067,348.4159749238097, 8,19, 4,15,17476.39704006126, 8,24,12,15
207,6509451.13922267,815.2532113832032, 8,19, 3,15,22990.642799023623, 8,24,10,15
244,12749673.399825225,1521.856143006317, 8,19, 4,15,53038.631142310165, 8,24,20,15
281,46165882.481495745,59938.60262432081, 8,19, 5,15,81951.81706819107, 8,19,19,15
318,0.0,0.0, 8,19, 1,15,0.0, 8,19, 1,15
355,197687796.27748066,18561.32405820678, 8,19, 4,15,724774.895203776, 8,24,18,15
403,197687796.27748066,18561.32405820678, 8,19, 4,15,724774.895203776, 8,24,18,15
476,106772067.24485716,7098.072629279515, 8,19, 4,15,356036.3026282215, 8,24,12,15
513,0.0,0.0, 8,19, 1,15,0.0, 8,19, 1,15
562,8940363.384495296,0.0, 8,19, 1,15,68062.0089038168, 8,25,18,30
1046,0.0,0.0, 8,19, 1,15,0.0, 8,19, 1,15
1096,67075722.811683,0.0, 8,19, 1,15,520795.50829898403, 8,22,15,15
1134,0.0,0.0, 8,19, 1,15,0.0, 8,19, 1,15
1326,163786105.9489673,0.0, 8,19, 1,15,4050000.0, 8,19, 8,45
1379,0.0,0.0, 8,19, 1,15,0.0, 8,19, 1,15
1,ANNUAL,  41.78,-124.24,  -8.00,  17.00
5,365
1038,190.0,0.0, 1, 1, 1,15,0.25, 1, 1, 6,15
1039,199.5,0.0, 1, 1, 1,15,0.25, 1,19,15,60
581,0.2616139384856496,0.0, 5,15, 8,16,1.3546863942326293, 3,29, 6,60
582,3.7264749967071022,0.0, 1, 1,22,60,27.12799833813589, 3,30, 2,60
583,0.0094745233890766,0.000010048100365673215, 5,15, 8,46,0.0704661224062013, 3,29, 6,22
1115,9227115311.754194,0.0, 1, 1, 1,15,3298855.880177361, 3,29, 6,60
1128,2415149497.386643,0.0, 1, 1, 1,15,771149.2570985797, 3,29, 6,60
1153,60605962.973754756,0.0, 1, 1, 1,15,77407.00654938808, 1,18, 8,60
1154,1360364906.4885182,0.0, 1, 1, 6, 5,180000.0, 1, 1, 1,15
1155,130195678.62990463,0.0, 1, 1, 1,15,2205853.9672504724, 1, 9, 6,60
1156,130195678.62990463,0.0, 1, 1, 1,15,2205853.9672504724, 1, 9, 6,60
1292,-1236772917.6557338,-41023.94923746237, 1,10, 8,60,-2338.4417490379424, 6, 8,18, 7
1306,8825632926.69794,0.0, 1, 1, 1,15,4050000.0, 1, 1, 9,45
1307,1550031670.066113,0.0, 1, 1, 1,15,8670991.249431929, 2,18,10,30
1308,8825632926.69794,0.0, 1, 1, 1,15,4050000.0, 1, 1, 9,45
13,35145262202.58703,151703.1275401932, 1,23, 4,30,7022190.839465713, 1, 6, 8,45
61,15743207428.383959,88139.10953165221, 1, 1, 1,15,1282023.4113694867, 1, 1,20,15
134,3685071073.4325233,63564.01800854099, 1, 2, 4,15,156554.22484006523, 1, 1,20,15
170,273393721.45532674,348.4159749238097, 1, 2, 4,15,17476.39704006126, 1, 1,12,15
207,339560869.0695816,815.2532113832032, 1, 2, 3,15,22990.642799023623, 1, 1,10,15
244,664895467.8009144,1521.856143006317, 1, 2, 4,15,53038.631142310165, 1, 1,20,15
281,2407221015.106824,59938.60262432081, 1, 1, 5,15,81951.81706819107, 1, 1,19,15
318,0.0,0.0, 1, 1, 1,15,0.0, 1, 1, 1,15
355,10310294493.051695,18561.32405820678, 1, 2, 4,15,724774.895203776, 1, 1,18,15
403,10310294493.051695,18561.32405820678, 1, 2, 4,15,724774.895203776, 1, 1,18,15
476,5569688622.066177,7098.072629279515, 1, 2, 4,15,356036.3026282215, 1, 1,12,15
513,0.0,0.0, 1, 1, 1,15,0.0, 1, 1, 1,15
562,551706228.1609559,0.0, 1, 1, 1,15,68062.0089038168, 6,25,18,60
1046,0.0,0.0, 1, 1, 1,15,0.0, 1, 1, 1,15
1096,2373328500.431656,0.0, 1, 1, 1,15,588890.8720243416, 4,30,17,60
1134,3966316045.478825,0.0, 1, 1,11,60,2866701.50464116,12,19, 8,30
1326,8825632926.697926,0.0, 1, 1, 1,15,4050000.0000000014, 4,12, 9,45
1379,0.0,0.0, 1, 1, 1,15,0.0, 1, 1, 1,15
End of Data
 Number of Records Written=          99
