Program Version,EnergyPlus, Version 22.2.0-c249759bad, YMD=2023.09.01 14:11
1,5,Environment Title[],Latitude[deg],Longitude[deg],Time Zone[],Elevation[m]
2,8,Day of Simulation[],Month[],Day of Month[],DST Indicator[1=yes 0=no],Hour[],StartMinute[],EndMinute[],DayType
3,5,Cumulative Day of Simulation[],Month[],Day of Month[],DST Indicator[1=yes 0=no],DayType  ! When Daily Report Variables Requested
4,2,Cumulative Days of Simulation[],Month[]  ! When Monthly Report Variables Requested
5,1,Cumulative Days of Simulation[] ! When Run Period Report Variables Requested
6,1,Calendar Year of Simulation[] ! When Annual Report Variables Requested
581,11,LIVING,AFN Zone Infiltration Air Change Rate [ach] !RunPeriod [Value,Min,Month,Day,Hour,Minute,Max,Month,Day,Hour,Minute]
582,11,ATTIC,AFN Zone Infiltration Air Change Rate [ach] !RunPeriod [Value,Min,Month,Day,Hour,Minute,Max,Month,Day,Hour,Minute]
583,11,CRAWLSPACE,AFN Zone Infiltration Air Change Rate [ach] !RunPeriod [Value,Min,Month,Day,Hour,Minute,Max,Month,Day,Hour,Minute]
1038,11,Facility,Facility Heating Setpoint Not Met Time [hr] !RunPeriod [Value,Min,Month,Day,Hour,Minute,Max,Month,Day,Hour,Minute]
1039,11,Facility,Facility Cooling Setpoint Not Met Time [hr] !RunPeriod [Value,Min,Month,Day,Hour,Minute,Max,Month,Day,Hour,Minute]
1115,11,DX_HEATING_COIL,Heating Coil Heating Energy [J] !RunPeriod [Value,Min,Month,Day,Hour,Minute,Max,Month,Day,Hour,Minute]
1128,11,DX_HEATING_COIL,Heating Coil Electricity Energy [J] !RunPeriod [Value,Min,Month,Day,Hour,Minute,Max,Month,Day,Hour,Minute]
1153,11,DX_HEATING_COIL,Heating Coil Defrost Electricity Energy [J] !RunPeriod [Value,Min,Month,Day,Hour,Minute,Max,Month,Day,Hour,Minute]
1154,11,DX_HEATING_COIL,Heating Coil Crankcase Heater Electricity Energy [J] !RunPeriod [Value,Min,Month,Day,Hour,Minute,Max,Month,Day,Hour,Minute]
1155,11,HEATING_RESISTANCE_BACKUP,Heating Coil Heating Energy [J] !RunPeriod [Value,Min,Month,Day,Hour,Minute,Max,Month,Day,Hour,Minute]
1156,11,HEATING_RESISTANCE_BACKUP,Heating Coil Electricity Energy [J] !RunPeriod [Value,Min,Month,Day,Hour,Minute,Max,Month,Day,Hour,Minute]
1292,11,WATER HEATER,Water Heater Heat Loss Energy [J] !RunPeriod [Value,Min,Month,Day,Hour,Minute,Max,Month,Day,Hour,Minute]
1306,11,WATER HEATER,Water Heater Heating Energy [J] !RunPeriod [Value,Min,Month,Day,Hour,Minute,Max,Month,Day,Hour,Minute]
1307,11,WATER HEATER,Water Heater Unmet Demand Heat Transfer Energy [J] !RunPeriod [Value,Min,Month,Day,Hour,Minute,Max,Month,Day,Hour,Minute]
1308,11,WATER HEATER,Water Heater Electricity Energy [J] !RunPeriod [Value,Min,Month,Day,Hour,Minute,Max,Month,Day,Hour,Minute]
13,11,Electricity:Facility [J] !RunPeriod [Value,Min,Month,Day,Hour,Minute,Max,Month,Day,Hour,Minute]
1134,11,Heating:Electricity [J] !RunPeriod [Value,Min,Month,Day,Hour,Minute,Max,Month,Day,Hour,Minute]
1096,11,Cooling:Electricity [J] !RunPeriod [Value,Min,Month,Day,Hour,Minute,Max,Month,Day,Hour,Minute]
562,11,Fans:Electricity [J] !RunPeriod [Value,Min,Month,Day,Hour,Minute,Max,Month,Day,Hour,Minute]
1379,11,Pumps:Electricity [J] !RunPeriod [Value,Min,Month,Day,Hour,Minute,Max,Month,Day,Hour,Minute]
1326,11,WaterSystems:Electricity [J] !RunPeriod [Value,Min,Month,Day,Hour,Minute,Max,Month,Day,Hour,Minute]
61,11,InteriorLights:Electricity [J] !RunPeriod [Value,Min,Month,Day,Hour,Minute,Max,Month,Day,Hour,Minute]
1046,11,ExteriorLights:Electricity [J] !RunPeriod [Value,Min,Month,Day,Hour,Minute,Max,Month,Day,Hour,Minute]
134,11,InteriorEquipment:Electricity [J] !RunPeriod [Value,Min,Month,Day,Hour,Minute,Max,Month,Day,Hour,Minute]
170,11,gas_dryer:InteriorEquipment:Electricity [J] !RunPeriod [Value,Min,Month,Day,Hour,Minute,Max,Month,Day,Hour,Minute]
207,11,clotheswasher:InteriorEquipment:Electricity [J] !RunPeriod [Value,Min,Month,Day,Hour,Minute,Max,Month,Day,Hour,Minute]
244,11,dishwasher:InteriorEquipment:Electricity [J] !RunPeriod [Value,Min,Month,Day,Hour,Minute,Max,Month,Day,Hour,Minute]
281,11,refrigerator:InteriorEquipment:Electricity [J] !RunPeriod [Value,Min,Month,Day,Hour,Minute,Max,Month,Day,Hour,Minute]
318,11,electric_mels:InteriorEquipment:Electricity [J] !RunPeriod [Value,Min,Month,Day,Hour,Minute,Max,Month,Day,Hour,Minute]
355,11,NaturalGas:Facility [J] !RunPeriod [Value,Min,Month,Day,Hour,Minute,Max,Month,Day,Hour,Minute]
403,11,InteriorEquipment:NaturalGas [J] !RunPeriod [Value,Min,Month,Day,Hour,Minute,Max,Month,Day,Hour,Minute]
476,11,gas_dryer:InteriorEquipment:NaturalGas [J] !RunPeriod [Value,Min,Month,Day,Hour,Minute,Max,Month,Day,Hour,Minute]
513,11,gas_mels:InteriorEquipment:NaturalGas [J] !RunPeriod [Value,Min,Month,Day,Hour,Minute,Max,Month,Day,Hour,Minute]
End of Data Dictionary
1,EXTREME_WINTER,  39.88, -75.25,  -5.00,   3.10
5,7
1038,0.75,0.0, 1, 6, 1,15,0.25, 1, 9, 6,15
1039,0.0,0.0, 1, 6, 1,15,0.0, 1, 6, 1,15
581,0.4105401259445764,0.21215993222792862, 1, 7,18,52,0.675916263231543, 1, 6,13,60
582,6.319103300919189,0.05772983750647561, 1, 8, 4,60,16.554768734677584, 1, 8,13,60
583,0.045120179023222,0.0012909440036430718, 1, 7,18,60,0.07392992352137163, 1, 9,22,60
1115,1579008892.7399802,0.0, 1, 6,23, 3,4130650.701303026, 1, 6,12,15
1128,514337934.507599,0.0, 1, 6,23, 3,1251622.4257039998, 1, 6,12,15
1153,5180637.930275537,0.0, 1, 6,23, 3,76566.2009310732, 1, 8, 8,45
1154,43656285.309068404,0.0, 1, 6, 6, 5,180000.0, 1, 7,14,30
1155,259111851.43636975,0.0, 1, 6, 1,15,3773399.6094675716, 1,10, 6,45
1156,259111851.43636975,0.0, 1, 6, 1,15,3773399.6094675716, 1,10, 6,45
1292,-28909603.493559122,-46441.982690121935, 1,12,16,15,-10124.145291540724, 1, 6,23, 7
1306,232510451.7958907,0.0, 1, 6, 1,15,10079878.501117993, 1,12,19,60
1307,5387752.902133595,0.0, 1, 6, 1,15,5247555.684915285, 1,12,19,60
1308,232510451.7958907,0.0, 1, 6, 1,15,10079878.501117993, 1,12,19,60
13,1481487918.7327552,452017.0388981225, 1, 7,15,15,13019734.083039785, 1,10, 6,60
61,301924526.02383536,88139.10953165221, 1, 6, 1,15,1282023.4113694867, 1, 6,20,15
134,70666020.44019976,63564.01800854099, 1, 6, 4,15,156554.22484006523, 1,11,20,15
170,5241013.419656067,348.4159749238097, 1, 6, 4,15,17476.39704006126, 1,11,12,15
207,6509451.13922267,815.2532113832032, 1, 6, 3,15,22990.642799023623, 1,11,10,15
244,12749673.399825225,1521.856143006317, 1, 6, 4,15,53038.631142310165, 1,11,20,15
281,46165882.481495745,59938.60262432081, 1, 6, 5,15,81951.81706819107, 1, 6,19,15
318,0.0,0.0, 1, 6, 1,15,0.0, 1, 6, 1,15
355,197687796.27748066,18561.32405820678, 1, 6, 4,15,724774.895203776, 1,11,18,15
403,197687796.27748066,18561.32405820678, 1, 6, 4,15,724774.895203776, 1,11,18,15
476,106772067.24485716,7098.072629279515, 1, 6, 4,15,356036.3026282215, 1,11,12,15
513,0.0,0.0, 1, 6, 1,15,0.0, 1, 6, 1,15
562,54100211.28951597,0.0, 1, 7,13,30,126105.69645796591, 1, 6, 6,45
1046,0.0,0.0, 1, 6, 1,15,0.0, 1, 6, 1,15
1096,0.0,0.0, 1, 6, 1,15,0.0, 1, 6, 1,15
1134,822286709.1833127,180000.0, 1, 7,13,30,5577350.405470529, 1,10, 6,15
1326,232510451.7958907,0.0, 1, 6, 1,15,10079878.501117993, 1,12,19,60
1379,0.0,0.0, 1, 6, 1,15,0.0, 1, 6, 1,15
1,EXTREME_SUMMER,  39.88, -75.25,  -5.00,   3.10
5,7
1038,0.0,0.0, 7,20, 1,15,0.0, 7,20, 1,15
1039,34.75,0.0, 7,20, 1,15,0.25, 7,20,13,30
581,0.1740440717257895,0.0, 7,21, 7,48,0.41903934267159787, 7,26,10,60
582,4.074564493209786,0.04467077579264055, 7,25, 8, 5,11.480778086060898, 7,26,10,52
583,0.04024444589562258,0.00024619343205690123, 7,24, 6, 7,0.0667615750770154, 7,26,18,48
1115,0.0,0.0, 7,20, 1,15,0.0, 7,20, 1,15
1128,0.0,0.0, 7,20, 1,15,0.0, 7,20, 1,15
1153,0.0,0.0, 7,20, 1,15,0.0, 7,20, 1,15
1154,0.0,0.0, 7,20, 1,15,0.0, 7,20, 1,15
1155,0.0,0.0, 7,20, 1,15,0.0, 7,20, 1,15
1156,0.0,0.0, 7,20, 1,15,0.0, 7,20, 1,15
1292,-22482857.09598506,-36336.21409703464, 7,20, 1,15,-3572.7419703390565, 7,25, 8,44
1306,162628418.0378435,0.0, 7,20, 1,15,5270400.0, 7,26,19,60
1307,493841.1162572318,0.0, 7,20, 1,15,279890.48355438345, 7,26,19,60
1308,162628418.0378435,0.0, 7,20, 1,15,5270400.0, 7,26,19,60
13,1093399410.8718941,196335.04385232893, 7,24, 4,60,11892429.278067071, 7,26,19,60
61,301924526.02383536,88139.10953165221, 7,20, 1,15,1282023.4113694867, 7,20,20,15
134,70666020.44019976,63564.01800854099, 7,20, 4,15,156554.22484006523, 7,25,20,15
170,5241013.419656067,348.4159749238097, 7,20, 4,15,17476.39704006126, 7,25,12,15
207,6509451.13922267,815.2532113832032, 7,20, 3,15,22990.642799023623, 7,25,10,15
244,12749673.399825225,1521.856143006317, 7,20, 4,15,53038.631142310165, 7,25,20,15
281,46165882.481495745,59938.60262432081, 7,20, 5,15,81951.81706819107, 7,20,19,15
318,0.0,0.0, 7,20, 1,15,0.0, 7,20, 1,15
355,197687796.27748066,18561.32405820678, 7,20, 4,15,724774.895203776, 7,25,18,15
403,197687796.27748066,18561.32405820678, 7,20, 4,15,724774.895203776, 7,25,18,15
476,106772067.24485716,7098.072629279515, 7,20, 4,15,356036.3026282215, 7,25,12,15
513,0.0,0.0, 7,20, 1,15,0.0, 7,20, 1,15
562,54051522.42674584,4902.268137278808, 7,24, 4,60,126105.69645796591, 7,20,11,15
1046,0.0,0.0, 7,20, 1,15,0.0, 7,20, 1,15
1096,504128923.94326997,39729.64817485691, 7,24, 4,60,1339712.41516011, 7,20,16,60
1134,0.0,0.0, 7,20, 1,15,0.0, 7,20, 1,15
1326,162628418.03784353,0.0, 7,20, 1,15,9286196.09218112, 7,26,19,60
1379,0.0,0.0, 7,20, 1,15,0.0, 7,20, 1,15
1,ANNUAL,  39.88, -75.25,  -5.00,   3.10
5,365
1038,11.0,0.0, 1, 1, 1,15,0.25, 1, 3, 6,15
1039,647.25,0.0, 1, 1, 1,15,0.25, 3,15,15,60
581,0.2567435199072995,0.0, 5,21,23, 3,1.6749841319255858, 3, 9,18,52
582,4.753806563995011,0.0, 1, 1, 6, 5,45.24194527801965, 3, 9,18,48
583,0.026423318898113474,0.0, 5,21,23, 3,0.08491563181839328, 1, 2,13,60
1115,18581070647.348934,0.0, 1, 1,23, 3,4171016.9378994633, 1, 6,12,30
1128,5739490525.291915,0.0, 1, 1,23, 3,1252010.5538286068, 3,18, 6,45
1153,108818588.4159182,0.0, 1, 1,14,37,117301.74922791064, 1,18, 6,60
1154,1463691654.265853,0.0, 1, 1, 6, 5,180000.0, 1, 7,14,30
1155,2072581533.8514163,0.0, 1, 1, 1, 5,4007203.1279171472, 1,31, 7,60
1156,2072581533.8514163,0.0, 1, 1, 1, 5,4007203.1279171472, 1,31, 7,60
1292,-1237378350.0576077,-50049.24838095261, 2, 6,14,45,-2409.563163490685, 6,21,17,30
1306,10316800035.873882,0.0, 1, 1, 1, 5,10540800.0,12,17, 9,45
1307,160499618.23405674,0.0, 1, 1, 1, 5,5563489.5068051405, 2, 5,19,60
1308,10316800035.873882,0.0, 1, 1, 1, 5,10540800.0,12,17, 9,45
13,50427077766.308784,151703.1275401932, 3, 6, 4,15,14135857.542859226,12,17, 9,45
61,15743207428.383959,88139.10953165221, 1, 1, 1,15,1282023.4113694867, 1, 1,20,15
134,3685071073.4325233,63564.01800854099, 1, 2, 4,15,156554.22484006523, 1, 1,20,15
170,273393721.45532674,348.4159749238097, 1, 2, 4,15,17476.39704006126, 1, 1,12,15
207,339560869.0695816,815.2532113832032, 1, 2, 3,15,22990.642799023623, 1, 1,10,15
244,664895467.8009144,1521.856143006317, 1, 2, 4,15,53038.631142310165, 1, 1,20,15
281,2407221015.106824,59938.60262432081, 1, 1, 5,15,81951.81706819107, 1, 1,19,15
318,0.0,0.0, 1, 1, 1,15,0.0, 1, 1, 1,15
355,10310294493.051695,18561.32405820678, 1, 2, 4,15,724774.895203776, 1, 1,18,15
403,10310294493.051695,18561.32405820678, 1, 2, 4,15,724774.895203776, 1, 1,18,15
476,5569688622.066177,7098.072629279515, 1, 2, 4,15,356036.3026282215, 1, 1,12,15
513,0.0,0.0, 1, 1, 1,15,0.0, 1, 1, 1,15
562,1687926175.6723745,0.0, 1, 7,13,45,126105.69645796594, 6, 5,18,45
1046,0.0,0.0, 1, 1, 1,15,0.0, 1, 1, 1,15
1096,9609490751.1191,0.0, 1, 1, 1,15,1362327.1578587643, 7,19,16,60
1134,9384582301.825092,0.0, 1,15,15,30,5685520.619069657, 1,10, 6,15
1326,10316800035.873875,0.0, 1, 1, 1,15,10540800.0, 6, 4,19,60
1379,0.0,0.0, 1, 1, 1,15,0.0, 1, 1, 1,15
End of Data
 Number of Records Written=          99
