Program Version,EnergyPlus, Version 22.2.0-c249759bad, YMD=2023.09.01 14:31
1,5,Environment Title[],Latitude[deg],Longitude[deg],Time Zone[],Elevation[m]
2,8,Day of Simulation[],Month[],Day of Month[],DST Indicator[1=yes 0=no],Hour[],StartMinute[],EndMinute[],DayType
3,5,Cumulative Day of Simulation[],Month[],Day of Month[],DST Indicator[1=yes 0=no],DayType  ! When Daily Report Variables Requested
4,2,Cumulative Days of Simulation[],Month[]  ! When Monthly Report Variables Requested
5,1,Cumulative Days of Simulation[] ! When Run Period Report Variables Requested
6,1,Calendar Year of Simulation[] ! When Annual Report Variables Requested
7,1,Environment,Site Outdoor Air Drybulb Temperature [C] !Hourly
545,1,LIVING,Zone Mean Air Temperature [C] !Hourly
546,1,ATTIC,Zone Mean Air Temperature [C] !Hourly
547,1,CRAWLSPACE,Zone Mean Air Temperature [C] !Hourly
548,1,FAN,Fan Electricity Rate [W] !Hourly
720,1,LIVING,Zone Predicted Sensible Load to Heating Setpoint Heat Transfer Rate [W] !Hourly
721,1,LIVING,Zone System Predicted Sensible Load to Heating Setpoint Heat Transfer Rate [W] !Hourly
784,1,ATTIC,Zone Predicted Sensible Load to Heating Setpoint Heat Transfer Rate [W] !Hourly
785,1,ATTIC,Zone System Predicted Sensible Load to Heating Setpoint Heat Transfer Rate [W] !Hourly
848,1,CRAWLSPACE,Zone Predicted Sensible Load to Heating Setpoint Heat Transfer Rate [W] !Hourly
849,1,CRAWLSPACE,Zone System Predicted Sensible Load to Heating Setpoint Heat Transfer Rate [W] !Hourly
1121,1,DX_HEATING_COIL,Heating Coil Heating Rate [W] !Hourly
1135,1,DX_HEATING_COIL,Heating Coil Electricity Rate [W] !Hourly
1161,1,DX_HEATING_COIL,Heating Coil Defrost Electricity Rate [W] !Hourly
1163,1,DX_HEATING_COIL,Heating Coil Crankcase Heater Electricity Rate [W] !Hourly
1166,1,HEATING_RESISTANCE_BACKUP,Heating Coil Heating Rate [W] !Hourly
1168,1,HEATING_RESISTANCE_BACKUP,Heating Coil Electricity Rate [W] !Hourly
End of Data Dictionary
1,EXTREME_WINTER,  32.28,-106.92,  -7.00,1358.00
2,1, 1,13, 0, 1, 0.00,60.00,Monday
7,2.0
545,20.247313016051574
546,3.7176450139847503
547,18.94152077439463
548,0.0
720,-1252.5404213441288
721,-1252.5404213441288
784,0.0
785,0.0
848,0.0
849,0.0
1121,0.0
1135,0.0
1161,0.0
1163,200.0
1166,0.0
1168,0.0
2,1, 1,13, 0, 2, 0.00,60.00,Monday
7,4.0
545,19.724297603410427
546,3.129696018730057
547,18.610989454415137
548,0.0
720,-866.9366415756358
721,-866.9366415756358
784,0.0
785,0.0
848,0.0
849,0.0
1121,0.0
1135,0.0
1161,0.0
1163,200.0
1166,0.0
1168,0.0
2,1, 1,13, 0, 3, 0.00,60.00,Monday
7,4.0
545,19.225595252644826
546,1.9631848830880558
547,18.423365556585523
548,0.0
720,-432.03827320821983
721,-432.03827320821983
784,0.0
785,0.0
848,0.0
849,0.0
1121,0.0
1135,0.0
1161,0.0
1163,200.0
1166,0.0
1168,0.0
2,1, 1,13, 0, 4, 0.00,60.00,Monday
7,2.0
545,18.60174741221777
546,-0.10244784242945756
547,18.223122621528972
548,3.164781720560291
720,82.33149032491383
721,82.33149032491383
784,0.0
785,0.0
848,0.0
849,0.0
1121,97.82708418411102
1135,31.965412804648956
1161,0.001524544266329292
1163,196.7274546332937
1166,0.0
1168,0.0
2,1, 1,13, 0, 5, 0.00,60.00,Monday
7,2.0
545,18.60024943440751
546,-1.587195429273352
547,18.037584294285594
548,14.879212185516803
720,375.5198850374818
721,375.5198850374818
784,0.0
785,0.0
848,0.0
849,0.0
1121,464.42950976005835
1135,148.42226557057194
1161,0.007167640394155719
1163,184.614137562179
1166,0.0
1168,0.0
2,1, 1,13, 0, 6, 0.00,60.00,Monday
7,4.0
545,19.27991285988087
546,1.0480101977871377
547,17.854933516045737
548,42.47150531368941
720,1130.4241878839302
721,1130.4241878839302
784,0.0
785,0.0
848,0.0
849,0.0
1121,1419.3869961146268
1135,431.6891724275976
1161,0.020459408466746164
1163,156.08238877536132
1166,0.0
1168,0.0
2,1, 1,13, 0, 7, 0.00,60.00,Monday
7,3.0
545,19.712209287438238
546,0.3269667372880367
547,17.698997003518798
548,59.46170333349155
720,1523.6503247083547
721,1523.6503247083547
784,0.0
785,0.0
848,0.0
849,0.0
1121,1949.5036599768719
1135,606.3942129352449
1161,0.028643968345111737
1163,138.51363455809914
1166,0.0
1168,0.0
2,1, 1,13, 0, 8, 0.00,60.00,Monday
7,-1.0
545,19.569081698685636
546,0.11421108243678331
547,17.545050888976313
548,60.697764175590194
720,1330.2826477476447
721,1330.2826477476447
784,0.0
785,0.0
848,0.0
849,0.0
1121,1784.8177902299158
1135,602.225713011347
1161,0.029239533418365507
1163,137.23521072738848
1166,0.0
1168,0.0
2,1, 1,13, 0, 9, 0.00,60.00,Monday
7,3.0
545,19.966663541360514
546,2.4089831076599877
547,17.425751341205086
548,32.80241449008204
720,750.4792256422625
721,750.4792256422625
784,0.0
785,0.0
848,0.0
849,0.0
1121,1057.439652546246
1135,336.36371854092374
1161,0.015801621451708728
1163,166.08066803285135
1166,0.0
1168,0.0
2,1, 1,13, 0,10, 0.00,60.00,Monday
7,6.0
545,19.655623982703965
546,7.085402181378997
547,17.313369137074325
548,0.0
720,-4.4076188799535885
721,-4.4076188799535885
784,0.0
785,0.0
848,0.0
849,0.0
1121,0.0
1135,0.0
1161,0.0
1163,200.0
1166,0.0
1168,0.0
2,1, 1,13, 0,11, 0.00,60.00,Monday
7,7.0
545,19.79225771256899
546,9.839389550359627
547,17.228794072540182
548,2.14567617041353
720,15.530663802086565
721,15.530663802086565
784,0.0
785,0.0
848,0.0
849,0.0
1121,86.02821606803478
1135,24.048869048242153
1161,0.0
1163,197.78127217409184
1166,0.0
1168,0.0
2,1, 1,13, 0,12, 0.00,60.00,Monday
7,9.0
545,20.523044884064777
546,14.280672382171355
547,17.163141309502727
548,0.0
720,-334.00668022567515
721,-334.00668022567515
784,0.0
785,0.0
848,0.0
849,0.0
1121,0.0
1135,0.0
1161,0.0
1163,200.0
1166,0.0
1168,0.0
2,1, 1,13, 0,13, 0.00,60.00,Monday
7,11.0
545,20.558539749891523
546,15.54671264293571
547,17.115030091842225
548,0.0
720,-602.027920266908
721,-602.027920266908
784,0.0
785,0.0
848,0.0
849,0.0
1121,0.0
1135,0.0
1161,0.0
1163,0.0
1166,0.0
1168,0.0
2,1, 1,13, 0,14, 0.00,60.00,Monday
7,12.0
545,21.712319640508742
546,18.708888127108878
547,17.085992413598163
548,0.0
720,-1116.0105092379945
721,-1116.0105092379945
784,0.0
785,0.0
848,0.0
849,0.0
1121,0.0
1135,0.0
1161,0.0
1163,0.0
1166,0.0
1168,0.0
2,1, 1,13, 0,15, 0.00,60.00,Monday
7,12.0
545,23.08376863224552
546,21.241667209740136
547,17.07733154163325
548,0.0
720,-2280.6806830964815
721,-2280.6806830964815
784,0.0
785,0.0
848,0.0
849,0.0
1121,0.0
1135,0.0
1161,0.0
1163,0.0
1166,0.0
1168,0.0
2,1, 1,13, 0,16, 0.00,60.00,Monday
7,13.0
545,23.331589353176525
546,21.334307865117005
547,17.120889384427777
548,18.79335067698545
720,-3554.40756422495
721,-3554.40756422495
784,0.0
785,0.0
848,0.0
849,0.0
1121,0.0
1135,0.0
1161,0.0
1163,0.0
1166,0.0
1168,0.0
2,1, 1,13, 0,17, 0.00,60.00,Monday
7,13.0
545,23.3729565013922
546,20.490528891392774
547,17.187268128465824
548,32.22462621011373
720,-4114.981367565853
721,-4114.981367565853
784,0.0
785,0.0
848,0.0
849,0.0
1121,0.0
1135,0.0
1161,0.0
1163,0.0
1166,0.0
1168,0.0
2,1, 1,13, 0,18, 0.00,60.00,Monday
7,12.0
545,23.185994123847884
546,16.333826525600077
547,17.22443134148081
548,17.031029374665852
720,-3887.9984590172917
721,-3887.9984590172917
784,0.0
785,0.0
848,0.0
849,0.0
1121,0.0
1135,0.0
1161,0.0
1163,0.0
1166,0.0
1168,0.0
2,1, 1,13, 0,19, 0.00,60.00,Monday
7,8.0
545,23.10635774429668
546,12.524809523946997
547,17.26123791113754
548,7.176610974962928
720,-3214.360142697642
721,-3214.360142697642
784,0.0
785,0.0
848,0.0
849,0.0
1121,0.0
1135,0.0
1161,0.0
1163,192.5790542461963
1166,0.0
1168,0.0
2,1, 1,13, 0,20, 0.00,60.00,Monday
7,7.0
545,23.307492750410148
546,9.722693799847102
547,17.27541249346712
548,0.0
720,-2835.271235730552
721,-2835.271235730552
784,0.0
785,0.0
848,0.0
849,0.0
1121,0.0
1135,0.0
1161,0.0
1163,200.0
1166,0.0
1168,0.0
2,1, 1,13, 0,21, 0.00,60.00,Monday
7,7.0
545,22.994741004704213
546,8.231567846717258
547,17.273576613175052
548,0.0
720,-2294.5277937105
721,-2294.5277937105
784,0.0
785,0.0
848,0.0
849,0.0
1121,0.0
1135,0.0
1161,0.0
1163,200.0
1166,0.0
1168,0.0
2,1, 1,13, 0,22, 0.00,60.00,Monday
7,7.0
545,22.654544031244697
546,7.7382206242716105
547,17.251837500331515
548,0.0
720,-2175.9477034082865
721,-2175.9477034082865
784,0.0
785,0.0
848,0.0
849,0.0
1121,0.0
1135,0.0
1161,0.0
1163,200.0
1166,0.0
1168,0.0
2,1, 1,13, 0,23, 0.00,60.00,Monday
7,6.0
545,21.762601873705094
546,7.005704836967392
547,17.21430559762197
548,0.0
720,-2303.7285614362263
721,-2303.7285614362263
784,0.0
785,0.0
848,0.0
849,0.0
1121,0.0
1135,0.0
1161,0.0
1163,200.0
1166,0.0
1168,0.0
2,1, 1,13, 0,24, 0.00,60.00,Monday
7,4.0
545,21.01167372874026
546,5.685563742201789
547,17.163719780239187
548,0.0
720,-1875.0525363175711
721,-1875.0525363175711
784,0.0
785,0.0
848,0.0
849,0.0
1121,0.0
1135,0.0
1161,0.0
1163,200.0
1166,0.0
1168,0.0
2,2, 1,14, 0, 1, 0.00,60.00,Tuesday
7,4.0
545,20.278892461636804
546,4.737144554419755
547,17.0990623734465
548,0.0
720,-1260.5381534020016
721,-1260.5381534020016
784,0.0
785,0.0
848,0.0
849,0.0
1121,0.0
1135,0.0
1161,0.0
1163,200.0
1166,0.0
1168,0.0
2,2, 1,14, 0, 2, 0.00,60.00,Tuesday
7,3.0
545,19.473447419913768
546,3.6438466944781713
547,17.02006598389811
548,0.0
720,-631.2926443435135
721,-631.2926443435135
784,0.0
785,0.0
848,0.0
849,0.0
1121,0.0
1135,0.0
1161,0.0
1163,200.0
1166,0.0
1168,0.0
2,2, 1,14, 0, 3, 0.00,60.00,Tuesday
7,2.0
545,20.10740624570975
546,3.318391319265715
547,16.928478605474158
548,52.36446974338609
720,23.788195550203454
721,23.788195550203454
784,0.0
785,0.0
848,0.0
849,0.0
1121,1663.9412032639707
1135,530.706950275345
1161,0.025225105385345562
1163,145.85247304609226
1166,0.0
1168,0.0
2,2, 1,14, 0, 4, 0.00,60.00,Tuesday
7,2.0
545,19.18318664887747
546,2.4401361231039416
547,16.84441573631104
548,22.025751791359173
720,221.73151910553497
721,221.73151910553497
784,0.0
785,0.0
848,0.0
849,0.0
1121,685.5540478573577
1135,226.03665376671276
1161,0.010610284434815388
1163,177.224251251035
1166,0.0
1168,0.0
2,2, 1,14, 0, 5, 0.00,60.00,Tuesday
7,2.0
545,18.712125426214115
546,2.5647340888410883
547,16.741408487013025
548,22.758068220917067
720,487.09601174643376
721,487.09601174643376
784,0.0
785,0.0
848,0.0
849,0.0
1121,711.8192741146614
1135,229.3364291027434
1161,0.010963056978355099
1163,176.46699927852148
1166,0.0
1168,0.0
2,2, 1,14, 0, 6, 0.00,60.00,Tuesday
7,1.0
545,19.41347011675455
546,2.2963459459670834
547,16.633507506699647
548,57.21173283143134
720,1415.2302923343814
721,1415.2302923343814
784,0.0
785,0.0
848,0.0
849,0.0
1121,1781.8317490458433
1135,565.92130084488
1161,0.02756016627201946
1163,140.84009468855152
1166,0.0
1168,0.0
2,2, 1,14, 0, 7, 0.00,60.00,Tuesday
7,1.0
545,19.636675016663794
546,2.1378184453473144
547,16.54681037600871
548,72.46482531192015
720,1763.2536453327339
721,1763.2536453327339
784,0.0
785,0.0
848,0.0
849,0.0
1121,2269.6430306795473
1135,726.6345335836747
1161,0.0349079214118473
1163,125.0676028235352
1166,0.0
1168,0.0
2,2, 1,14, 0, 8, 0.00,60.00,Tuesday
7,1.0
545,19.668484813196898
546,1.928836946831618
547,16.44982191955914
548,73.5220170080484
720,1752.060589865161
721,1752.060589865161
784,0.0
785,0.0
848,0.0
849,0.0
1121,2301.7293937056093
1135,740.4186339722663
1161,0.03541719443501576
1163,123.97441116674503
1166,0.0
1168,0.0
2,2, 1,14, 0, 9, 0.00,60.00,Tuesday
7,4.0
545,19.908959195260113
546,4.276876869330876
547,16.360890206824582
548,42.54019477977387
720,1031.3793625957242
721,1031.3793625957242
784,0.0
785,0.0
848,0.0
849,0.0
1121,1415.2674928996985
1135,440.7944132683644
1161,0.020492497872610416
1163,156.01135995432952
1166,0.0
1168,0.0
2,2, 1,14, 0,10, 0.00,60.00,Tuesday
7,8.0
545,20.034970933497824
546,8.908860864391247
547,16.271957865997283
548,2.8868584948919462
720,23.99180945307853
721,23.99180945307853
784,0.0
785,0.0
848,0.0
849,0.0
1121,118.60678394421161
1135,32.84169550306458
1161,0.0
1163,197.01485556842363
1166,0.0
1168,0.0
2,2, 1,14, 0,11, 0.00,60.00,Tuesday
7,9.0
545,21.04467950503315
546,14.80550874023256
547,16.22187192711462
548,0.0
720,-1011.9295621793426
721,-1011.9295621793426
784,0.0
785,0.0
848,0.0
849,0.0
1121,0.0
1135,0.0
1161,0.0
1163,200.0
1166,0.0
1168,0.0
2,2, 1,14, 0,12, 0.00,60.00,Tuesday
7,11.0
545,21.857042037942755
546,19.857131130836375
547,16.206797879752255
548,0.0
720,-1735.5321027409009
721,-1735.5321027409009
784,0.0
785,0.0
848,0.0
849,0.0
1121,0.0
1135,0.0
1161,0.0
1163,0.0
1166,0.0
1168,0.0
2,2, 1,14, 0,13, 0.00,60.00,Tuesday
7,13.0
545,22.728491362150745
546,22.440321908220326
547,16.223689466496207
548,0.0
720,-2378.56267764282
721,-2378.56267764282
784,0.0
785,0.0
848,0.0
849,0.0
1121,0.0
1135,0.0
1161,0.0
1163,0.0
1166,0.0
1168,0.0
2,2, 1,14, 0,14, 0.00,60.00,Tuesday
7,12.0
545,23.327217518110295
546,27.085533683793525
547,16.282946628541257
548,10.710226069088797
720,-3177.211059262034
721,-3177.211059262034
784,0.0
785,0.0
848,0.0
849,0.0
1121,0.0
1135,0.0
1161,0.0
1163,0.0
1166,0.0
1168,0.0
2,2, 1,14, 0,15, 0.00,60.00,Tuesday
7,13.0
545,23.363039560714757
546,30.18173655259456
547,16.383052284136397
548,30.20444889966907
720,-3823.3969979602643
721,-3823.3969979602643
784,0.0
785,0.0
848,0.0
849,0.0
1121,0.0
1135,0.0
1161,0.0
1163,0.0
1166,0.0
1168,0.0
2,2, 1,14, 0,16, 0.00,60.00,Tuesday
7,13.0
545,23.334386520102502
546,27.236939011473382
547,16.519549803595925
548,49.30726468875569
720,-5157.652258992512
721,-5157.652258992512
784,0.0
785,0.0
848,0.0
849,0.0
1121,0.0
1135,0.0
1161,0.0
1163,0.0
1166,0.0
1168,0.0
2,2, 1,14, 0,17, 0.00,60.00,Tuesday
7,13.0
545,23.332731457230775
546,21.0802218018248
547,16.64299756082182
548,56.72390073831388
720,-5799.013732134397
721,-5799.013732134397
784,0.0
785,0.0
848,0.0
849,0.0
1121,0.0
1135,0.0
1161,0.0
1163,0.0
1166,0.0
1168,0.0
2,2, 1,14, 0,18, 0.00,60.00,Tuesday
7,11.0
545,23.30704273040998
546,17.73018917044419
547,16.70374863679545
548,31.53692298483487
720,-4873.758916488696
721,-4873.758916488696
784,0.0
785,0.0
848,0.0
849,0.0
1121,0.0
1135,0.0
1161,0.0
1163,0.0
1166,0.0
1168,0.0
2,2, 1,14, 0,19, 0.00,60.00,Tuesday
7,8.0
545,23.216358200899524
546,12.719724935637903
547,16.771185613902706
548,20.697037741817184
720,-4046.0258721572172
721,-4046.0258721572172
784,0.0
785,0.0
848,0.0
849,0.0
1121,0.0
1135,0.0
1161,0.0
1163,178.5983112527224
1166,0.0
1168,0.0
2,2, 1,14, 0,20, 0.00,60.00,Tuesday
7,7.0
545,23.32943907390295
546,9.89203703792739
547,16.80262941153506
548,12.514920548420827
720,-3639.20923108623
721,-3639.20923108623
784,0.0
785,0.0
848,0.0
849,0.0
1121,0.0
1135,0.0
1161,0.0
1163,187.05899667308162
1166,0.0
1168,0.0
2,2, 1,14, 0,21, 0.00,60.00,Tuesday
7,6.0
545,23.2924345311057
546,7.648679612845446
547,16.814196151423374
548,6.766240774689662
720,-3152.290217687678
721,-3152.290217687678
784,0.0
785,0.0
848,0.0
849,0.0
1121,0.0
1135,0.0
1161,0.0
1163,193.00339590353704
1166,0.0
1168,0.0
2,2, 1,14, 0,22, 0.00,60.00,Tuesday
7,6.0
545,23.27784112283205
546,6.811945374805127
547,16.79742986117245
548,0.0
720,-2633.9463172723244
721,-2633.9463172723244
784,0.0
785,0.0
848,0.0
849,0.0
1121,0.0
1135,0.0
1161,0.0
1163,200.0
1166,0.0
1168,0.0
2,2, 1,14, 0,23, 0.00,60.00,Tuesday
7,4.0
545,22.497707470632758
546,4.9653340166576605
547,16.773001779417896
548,0.0
720,-2462.180334755185
721,-2462.180334755185
784,0.0
785,0.0
848,0.0
849,0.0
1121,0.0
1135,0.0
1161,0.0
1163,200.0
1166,0.0
1168,0.0
2,2, 1,14, 0,24, 0.00,60.00,Tuesday
7,-1.0
545,21.140102919079908
546,1.768162704116669
547,16.730071225940844
548,0.0
720,-1783.4847100725656
721,-1783.4847100725656
784,0.0
785,0.0
848,0.0
849,0.0
1121,0.0
1135,0.0
1161,0.0
1163,200.0
1166,0.0
1168,0.0
2,3, 1,15, 0, 1, 0.00,60.00,Wednesday
7,2.0
545,20.421535868567265
546,1.167214162166031
547,16.670806982270314
548,0.0
720,-1462.7956497447685
721,-1462.7956497447685
784,0.0
785,0.0
848,0.0
849,0.0
1121,0.0
1135,0.0
1161,0.0
1163,200.0
1166,0.0
1168,0.0
2,3, 1,15, 0, 2, 0.00,60.00,Wednesday
7,-1.0
545,19.303052410637957
546,-0.1111805933621153
547,16.59952307152898
548,0.0
720,-522.0468656089142
721,-522.0468656089142
784,0.0
785,0.0
848,0.0
849,0.0
1121,0.0
1135,0.0
1161,0.0
1163,200.0
1166,0.0
1168,0.0
2,3, 1,15, 0, 3, 0.00,60.00,Wednesday
7,0.0
545,18.59702912531968
546,-0.10991591550551447
547,16.511856781084177
548,3.6699821658133307
720,92.07919052641046
721,92.07919052641046
784,0.0
785,0.0
848,0.0
849,0.0
1121,107.5479941685764
1135,36.40683692143917
1161,0.0017679141765183334
1163,196.2050433858312
1166,0.0
1168,0.0
2,3, 1,15, 0, 4, 0.00,60.00,Wednesday
7,1.0
545,18.64808371360235
546,0.05294348839065141
547,16.41063690003567
548,27.453494723130454
720,677.2772291885867
721,677.2772291885867
784,0.0
785,0.0
848,0.0
849,0.0
1121,840.807496613135
1135,270.9287355585725
1161,0.013224959975148658
1163,171.61165966288775
1166,0.0
1168,0.0
2,3, 1,15, 0, 5, 0.00,60.00,Wednesday
7,-1.0
545,18.219229362312294
546,-0.24245529530899249
547,16.30222658868477
548,38.10474325954017
720,857.6212332364667
721,857.6212332364667
784,0.0
785,0.0
848,0.0
849,0.0
1121,1112.0717201229656
1135,369.7957354444589
1161,0.018355945686517407
1163,160.59762492002955
1166,0.0
1168,0.0
2,3, 1,15, 0, 6, 0.00,60.00,Wednesday
7,1.0
545,19.284809433182147
546,0.9467037283233055
547,16.18571332886092
548,81.18623237507744
720,2024.877805142387
721,2024.877805142387
784,0.0
785,0.0
848,0.0
849,0.0
1121,2571.0500742681866
1135,794.9424700918372
1161,0.03910921624385406
1163,116.04921730314967
1166,0.0
1168,0.0
2,3, 1,15, 0, 7, 0.00,60.00,Wednesday
7,2.0
545,19.64341548490348
546,1.6301431649620388
547,16.11745641674173
548,92.16270898925794
720,2299.8013247558793
721,2299.8013247558793
784,0.0
785,0.0
848,0.0
849,0.0
1121,3001.925658676123
1135,929.7369868103377
1161,0.04439678365396583
1163,104.69906853326738
1166,0.0
1168,0.0
2,3, 1,15, 0, 8, 0.00,60.00,Wednesday
7,2.0
545,19.72200925231188
546,2.4637989176467743
547,16.02172634992859
548,75.43399144420518
720,1805.7153454220643
721,1805.7153454220643
784,0.0
785,0.0
848,0.0
849,0.0
1121,2428.434033106363
1135,766.3496175453155
1161,0.036338196461367586
1163,121.9974132004467
1166,0.0
1168,0.0
2,3, 1,15, 0, 9, 0.00,60.00,Wednesday
7,4.0
545,20.02335897719453
546,4.677961279362566
547,15.927616738234653
548,37.31929214546896
720,874.8734251733677
721,874.8734251733677
784,0.0
785,0.0
848,0.0
849,0.0
1121,1237.6090526795851
1135,386.95600374470223
1161,0.01797748033825835
1163,161.4100283702004
1166,0.0
1168,0.0
2,3, 1,15, 0,10, 0.00,60.00,Wednesday
7,4.0
545,19.98037857776642
546,9.034549183089009
547,15.844188707779294
548,0.0
720,-114.55493652118821
721,-114.55493652118821
784,0.0
785,0.0
848,0.0
849,0.0
1121,0.0
1135,0.0
1161,0.0
1163,200.0
1166,0.0
1168,0.0
2,3, 1,15, 0,11, 0.00,60.00,Wednesday
7,7.0
545,21.347479454441473
546,18.14253554494488
547,15.81238904596497
548,0.0
720,-1202.4730651902446
721,-1202.4730651902446
784,0.0
785,0.0
848,0.0
849,0.0
1121,0.0
1135,0.0
1161,0.0
1163,200.0
1166,0.0
1168,0.0
2,3, 1,15, 0,12, 0.00,60.00,Wednesday
7,10.0
545,21.972007562213175
546,19.5477109289927
547,15.809221338768719
548,0.0
720,-1857.4364392258285
721,-1857.4364392258285
784,0.0
785,0.0
848,0.0
849,0.0
1121,0.0
1135,0.0
1161,0.0
1163,0.0
1166,0.0
1168,0.0
2,3, 1,15, 0,13, 0.00,60.00,Wednesday
7,11.0
545,22.75220543066241
546,21.60036961337624
547,15.836332992761207
548,0.0
720,-2312.036748638042
721,-2312.036748638042
784,0.0
785,0.0
848,0.0
849,0.0
1121,0.0
1135,0.0
1161,0.0
1163,0.0
1166,0.0
1168,0.0
2,3, 1,15, 0,14, 0.00,60.00,Wednesday
7,12.0
545,23.918528952293382
546,22.891326829440075
547,15.88586784334371
548,0.0
720,-2688.3516742398515
721,-2688.3516742398515
784,0.0
785,0.0
848,0.0
849,0.0
1121,0.0
1135,0.0
1161,0.0
1163,0.0
1166,0.0
1168,0.0
2,3, 1,15, 0,15, 0.00,60.00,Wednesday
7,12.0
545,25.144266861528315
546,23.308938895045518
547,15.973518247379968
548,0.0
720,-3507.526909300899
721,-3507.526909300899
784,0.0
785,0.0
848,0.0
849,0.0
1121,0.0
1135,0.0
1161,0.0
1163,0.0
1166,0.0
1168,0.0
2,3, 1,15, 0,16, 0.00,60.00,Wednesday
7,12.0
545,25.66223341499435
546,19.258060871666466
547,16.077562508378886
548,0.0
720,-4206.491660969945
721,-4206.491660969945
784,0.0
785,0.0
848,0.0
849,0.0
1121,0.0
1135,0.0
1161,0.0
1163,0.0
1166,0.0
1168,0.0
2,3, 1,15, 0,17, 0.00,60.00,Wednesday
7,12.0
545,26.267171972081456
546,16.898912696904848
547,16.196487498790752
548,0.0
720,-5187.802668895882
721,-5187.802668895882
784,0.0
785,0.0
848,0.0
849,0.0
1121,0.0
1135,0.0
1161,0.0
1163,0.0
1166,0.0
1168,0.0
2,3, 1,15, 0,18, 0.00,60.00,Wednesday
7,11.0
545,25.806773505566376
546,14.222542797847751
547,16.308820976893667
548,0.0
720,-4321.220667656084
721,-4321.220667656084
784,0.0
785,0.0
848,0.0
849,0.0
1121,0.0
1135,0.0
1161,0.0
1163,0.0
1166,0.0
1168,0.0
2,3, 1,15, 0,19, 0.00,60.00,Wednesday
7,9.0
545,25.50371516149167
546,11.412721788365571
547,16.39389751132556
548,0.0
720,-3882.249054789574
721,-3882.249054789574
784,0.0
785,0.0
848,0.0
849,0.0
1121,0.0
1135,0.0
1161,0.0
1163,200.0
1166,0.0
1168,0.0
2,3, 1,15, 0,20, 0.00,60.00,Wednesday
7,8.0
545,25.2021856820267
546,9.83172791580313
547,16.44478078941055
548,0.0
720,-3905.9405083122383
721,-3905.9405083122383
784,0.0
785,0.0
848,0.0
849,0.0
1121,0.0
1135,0.0
1161,0.0
1163,200.0
1166,0.0
1168,0.0
2,3, 1,15, 0,21, 0.00,60.00,Wednesday
7,9.0
545,24.766055538386283
546,9.418177914031023
547,16.462846815394222
548,0.0
720,-3673.8731156373287
721,-3673.8731156373287
784,0.0
785,0.0
848,0.0
849,0.0
1121,0.0
1135,0.0
1161,0.0
1163,200.0
1166,0.0
1168,0.0
2,3, 1,15, 0,22, 0.00,60.00,Wednesday
7,8.0
545,24.353199628137197
546,8.506011794399345
547,16.460903294489995
548,0.0
720,-3444.5892771781637
721,-3444.5892771781637
784,0.0
785,0.0
848,0.0
849,0.0
1121,0.0
1135,0.0
1161,0.0
1163,200.0
1166,0.0
1168,0.0
2,3, 1,15, 0,23, 0.00,60.00,Wednesday
7,8.0
545,23.661006050829922
546,7.612854020170344
547,16.439825383267173
548,0.0
720,-3529.245375349241
721,-3529.245375349241
784,0.0
785,0.0
848,0.0
849,0.0
1121,0.0
1135,0.0
1161,0.0
1163,200.0
1166,0.0
1168,0.0
2,3, 1,15, 0,24, 0.00,60.00,Wednesday
7,7.0
545,22.845765554415227
546,6.579696934769846
547,16.404553953300308
548,0.0
720,-2919.4822452811695
721,-2919.4822452811695
784,0.0
785,0.0
848,0.0
849,0.0
1121,0.0
1135,0.0
1161,0.0
1163,200.0
1166,0.0
1168,0.0
2,4, 1,16, 0, 1, 0.00,60.00,Thursday
7,7.0
545,22.103366096687783
546,6.403175066561302
547,16.355360283893944
548,0.0
720,-2367.411578461719
721,-2367.411578461719
784,0.0
785,0.0
848,0.0
849,0.0
1121,0.0
1135,0.0
1161,0.0
1163,200.0
1166,0.0
1168,0.0
2,4, 1,16, 0, 2, 0.00,60.00,Thursday
7,6.0
545,21.036357721246397
546,5.976749751022179
547,16.295982516601867
548,0.0
720,-1594.1253828866538
721,-1594.1253828866538
784,0.0
785,0.0
848,0.0
849,0.0
1121,0.0
1135,0.0
1161,0.0
1163,200.0
1166,0.0
1168,0.0
2,4, 1,16, 0, 3, 0.00,60.00,Thursday
7,4.0
545,20.107750574501008
546,4.656793741876008
547,16.230294028797214
548,0.0
720,-1098.5818064809118
721,-1098.5818064809118
784,0.0
785,0.0
848,0.0
849,0.0
1121,0.0
1135,0.0
1161,0.0
1163,200.0
1166,0.0
1168,0.0
2,4, 1,16, 0, 4, 0.00,60.00,Thursday
7,4.0
545,19.50826535956154
546,3.97230078555321
547,16.15698615175239
548,0.0
720,-664.357095610454
721,-664.357095610454
784,0.0
785,0.0
848,0.0
849,0.0
1121,0.0
1135,0.0
1161,0.0
1163,200.0
1166,0.0
1168,0.0
2,4, 1,16, 0, 5, 0.00,60.00,Thursday
7,2.0
545,18.67921461277539
546,2.4514001615052714
547,16.0772627791504
548,0.0
720,-46.524308903532074
721,-46.524308903532074
784,0.0
785,0.0
848,0.0
849,0.0
1121,0.0
1135,0.0
1161,0.0
1163,200.0
1166,0.0
1168,0.0
2,4, 1,16, 0, 6, 0.00,60.00,Thursday
7,4.0
545,20.681173439659258
546,3.7391478705806462
547,16.00121029904616
548,73.35789657138588
720,797.965799828824
721,797.965799828824
784,0.0
785,0.0
848,0.0
849,0.0
1121,2496.7105787564433
1135,745.4112185504047
1161,0.03533802625664328
1163,124.1443514308918
1166,0.0
1168,0.0
2,4, 1,16, 0, 7, 0.00,60.00,Thursday
7,1.0
545,20.011934483074242
546,2.2276530413393316
547,15.933517433065697
548,48.05389256696805
720,834.6038454818045
721,834.6038454818045
784,0.0
785,0.0
848,0.0
849,0.0
1121,1474.4960146571725
1135,493.8074551822343
1161,0.02314863188063536
1163,150.30977474405424
1166,0.0
1168,0.0
2,4, 1,16, 0, 8, 0.00,60.00,Thursday
7,3.0
545,19.975470974816474
546,2.452389978038727
547,15.835847633237684
548,32.93016021150473
720,723.4182543420011
721,723.4182543420011
784,0.0
785,0.0
848,0.0
849,0.0
1121,1059.7962751069526
1135,340.1038383959168
1161,0.015863159388670448
1163,165.94857236667195
1166,0.0
1168,0.0
2,4, 1,16, 0, 9, 0.00,60.00,Thursday
7,4.0
545,19.80857109646183
546,4.10383121732553
547,15.751056024309623
548,10.005052466044315
720,193.85896300706918
721,193.85896300706918
784,0.0
785,0.0
848,0.0
849,0.0
1121,326.23298437179506
1135,104.24490877751428
1161,0.004819642180535292
1163,189.65428683480005
1166,0.0
1168,0.0
2,4, 1,16, 0,10, 0.00,60.00,Thursday
7,7.0
545,20.36803031330734
546,7.812254635677475
547,15.686130163200463
548,0.0
720,-401.2894552343387
721,-401.2894552343387
784,0.0
785,0.0
848,0.0
849,0.0
1121,0.0
1135,0.0
1161,0.0
1163,200.0
1166,0.0
1168,0.0
2,4, 1,16, 0,11, 0.00,60.00,Thursday
7,8.0
545,21.606771950588303
546,13.556557786917109
547,15.651261635923829
548,0.0
720,-1230.8291223945544
721,-1230.8291223945544
784,0.0
785,0.0
848,0.0
849,0.0
1121,0.0
1135,0.0
1161,0.0
1163,200.0
1166,0.0
1168,0.0
2,4, 1,16, 0,12, 0.00,60.00,Thursday
7,9.0
545,22.431287534632013
546,21.255042297811382
547,15.646322829070758
548,0.0
720,-2136.21339313104
721,-2136.21339313104
784,0.0
785,0.0
848,0.0
849,0.0
1121,0.0
1135,0.0
1161,0.0
1163,200.0
1166,0.0
1168,0.0
2,4, 1,16, 0,13, 0.00,60.00,Thursday
7,11.0
545,23.377874579332666
546,29.053245503695855
547,15.673416555127371
548,0.0
720,-2822.2821566926305
721,-2822.2821566926305
784,0.0
785,0.0
848,0.0
849,0.0
1121,0.0
1135,0.0
1161,0.0
1163,0.0
1166,0.0
1168,0.0
2,4, 1,16, 0,14, 0.00,60.00,Thursday
7,12.0
545,24.395998571638735
546,28.85688415341606
547,15.72652191172276
548,0.0
720,-3601.222885121426
721,-3601.222885121426
784,0.0
785,0.0
848,0.0
849,0.0
1121,0.0
1135,0.0
1161,0.0
1163,0.0
1166,0.0
1168,0.0
2,4, 1,16, 0,15, 0.00,60.00,Thursday
7,13.0
545,25.61047837480287
546,30.416312879202128
547,15.813726913248784
548,0.0
720,-4327.667050563641
721,-4327.667050563641
784,0.0
785,0.0
848,0.0
849,0.0
1121,0.0
1135,0.0
1161,0.0
1163,0.0
1166,0.0
1168,0.0
2,4, 1,16, 0,16, 0.00,60.00,Thursday
7,14.0
545,26.491397655697693
546,25.434791714622847
547,15.925062543894066
548,0.0
720,-5048.354283225737
721,-5048.354283225737
784,0.0
785,0.0
848,0.0
849,0.0
1121,0.0
1135,0.0
1161,0.0
1163,0.0
1166,0.0
1168,0.0
2,4, 1,16, 0,17, 0.00,60.00,Thursday
7,13.0
545,26.82671250764045
546,20.035864133069783
547,16.05198212051341
548,0.0
720,-4997.480672283449
721,-4997.480672283449
784,0.0
785,0.0
848,0.0
849,0.0
1121,0.0
1135,0.0
1161,0.0
1163,0.0
1166,0.0
1168,0.0
2,4, 1,16, 0,18, 0.00,60.00,Thursday
7,12.0
545,26.459317298846514
546,16.296555898047593
547,16.180667525116025
548,0.0
720,-4921.925907005363
721,-4921.925907005363
784,0.0
785,0.0
848,0.0
849,0.0
1121,0.0
1135,0.0
1161,0.0
1163,0.0
1166,0.0
1168,0.0
2,4, 1,16, 0,19, 0.00,60.00,Thursday
7,9.0
545,26.24373380526914
546,12.792422676192436
547,16.272581120249725
548,0.0
720,-4310.660204097678
721,-4310.660204097678
784,0.0
785,0.0
848,0.0
849,0.0
1121,0.0
1135,0.0
1161,0.0
1163,200.0
1166,0.0
1168,0.0
2,4, 1,16, 0,20, 0.00,60.00,Thursday
7,7.0
545,25.21371954005521
546,10.054829387325213
547,16.322611120158246
548,0.0
720,-3897.5957832320273
721,-3897.5957832320273
784,0.0
785,0.0
848,0.0
849,0.0
1121,0.0
1135,0.0
1161,0.0
1163,200.0
1166,0.0
1168,0.0
2,4, 1,16, 0,21, 0.00,60.00,Thursday
7,6.0
545,24.561833862984894
546,8.181267589975295
547,16.341030285271017
548,0.0
720,-4270.2727783007795
721,-4270.2727783007795
784,0.0
785,0.0
848,0.0
849,0.0
1121,0.0
1135,0.0
1161,0.0
1163,200.0
1166,0.0
1168,0.0
2,4, 1,16, 0,22, 0.00,60.00,Thursday
7,5.0
545,23.883774207555547
546,7.175745831869951
547,16.336376001331196
548,0.0
720,-3660.151676193638
721,-3660.151676193638
784,0.0
785,0.0
848,0.0
849,0.0
1121,0.0
1135,0.0
1161,0.0
1163,200.0
1166,0.0
1168,0.0
2,4, 1,16, 0,23, 0.00,60.00,Thursday
7,4.0
545,22.8539846660141
546,6.153979251372713
547,16.304636117891825
548,0.0
720,-3676.9985691425227
721,-3676.9985691425227
784,0.0
785,0.0
848,0.0
849,0.0
1121,0.0
1135,0.0
1161,0.0
1163,200.0
1166,0.0
1168,0.0
2,4, 1,16, 0,24, 0.00,60.00,Thursday
7,2.0
545,21.698963423014035
546,4.608513790260373
547,16.25679629088821
548,0.0
720,-2718.6181057603644
721,-2718.6181057603644
784,0.0
785,0.0
848,0.0
849,0.0
1121,0.0
1135,0.0
1161,0.0
1163,200.0
1166,0.0
1168,0.0
2,5, 1,17, 0, 1, 0.00,60.00,Friday
7,1.0
545,20.375694770605392
546,3.391990566989191
547,16.18694190445346
548,0.0
720,-1581.8483989727847
721,-1581.8483989727847
784,0.0
785,0.0
848,0.0
849,0.0
1121,0.0
1135,0.0
1161,0.0
1163,200.0
1166,0.0
1168,0.0
2,5, 1,17, 0, 2, 0.00,60.00,Friday
7,0.0
545,18.757637241577108
546,2.2500446503817995
547,16.098272119016077
548,0.0
720,-138.7492347215848
721,-138.7492347215848
784,0.0
785,0.0
848,0.0
849,0.0
1121,0.0
1135,0.0
1161,0.0
1163,200.0
1166,0.0
1168,0.0
2,5, 1,17, 0, 3, 0.00,60.00,Friday
7,-1.0
545,19.599867571569593
546,2.1254932529373907
547,15.988444093291555
548,90.90596451687038
720,720.9116987734942
721,720.9116987734942
784,0.0
785,0.0
848,0.0
849,0.0
1121,2735.92834685471
1135,883.6576039067395
1161,0.043791528563863605
1163,105.99829269128969
1166,0.0
1168,0.0
2,5, 1,17, 0, 4, 0.00,60.00,Friday
7,0.0
545,19.83564779414833
546,2.2048363851404678
547,15.92081107567488
548,62.86571581686452
720,1104.8570982982828
721,1104.8570982982828
784,0.0
785,0.0
848,0.0
849,0.0
1121,1904.1592821273305
1135,626.7823577161138
1161,0.03028385048489694
1163,134.9935080409336
1166,0.0
1168,0.0
2,5, 1,17, 0, 5, 0.00,60.00,Friday
7,-1.0
545,18.838109340197192
546,1.2615626545194523
547,15.803047395358785
548,46.75846147871844
720,920.2044601370017
721,920.2044601370017
784,0.0
785,0.0
848,0.0
849,0.0
1121,1363.4307451281015
1135,464.3212470835782
1161,0.022524645150361487
1163,151.64920773274707
1166,0.0
1168,0.0
2,5, 1,17, 0, 6, 0.00,60.00,Friday
7,-2.0
545,19.269962153501748
546,1.0719265421732442
547,15.675792884045759
548,87.50183069038935
720,1959.8566000437477
721,1959.8566000437477
784,0.0
785,0.0
848,0.0
849,0.0
1121,2555.653959647296