Program Version,EnergyPlus, Version 22.2.0-c249759bad, YMD=2023.09.01 20:55
1,5,Environment Title[],Latitude[deg],Longitude[deg],Time Zone[],Elevation[m]
2,8,Day of Simulation[],Month[],Day of Month[],DST Indicator[1=yes 0=no],Hour[],StartMinute[],EndMinute[],DayType
3,5,Cumulative Day of Simulation[],Month[],Day of Month[],DST Indicator[1=yes 0=no],DayType  ! When Daily Report Variables Requested
4,2,Cumulative Days of Simulation[],Month[]  ! When Monthly Report Variables Requested
5,1,Cumulative Days of Simulation[] ! When Run Period Report Variables Requested
6,1,Calendar Year of Simulation[] ! When Annual Report Variables Requested
581,11,LIVING,AFN Zone Infiltration Air Change Rate [ach] !RunPeriod [Value,Min,Month,Day,Hour,Minute,Max,Month,Day,Hour,Minute]
582,11,ATTIC,AFN Zone Infiltration Air Change Rate [ach] !RunPeriod [Value,Min,Month,Day,Hour,Minute,Max,Month,Day,Hour,Minute]
583,11,CRAWLSPACE,AFN Zone Infiltration Air Change Rate [ach] !RunPeriod [Value,Min,Month,Day,Hour,Minute,Max,Month,Day,Hour,Minute]
1038,11,Facility,Facility Heating Setpoint Not Met Time [hr] !RunPeriod [Value,Min,Month,Day,Hour,Minute,Max,Month,Day,Hour,Minute]
1039,11,Facility,Facility Cooling Setpoint Not Met Time [hr] !RunPeriod [Value,Min,Month,Day,Hour,Minute,Max,Month,Day,Hour,Minute]
1115,11,DX_HEATING_COIL,Heating Coil Heating Energy [J] !RunPeriod [Value,Min,Month,Day,Hour,Minute,Max,Month,Day,Hour,Minute]
1128,11,DX_HEATING_COIL,Heating Coil Electricity Energy [J] !RunPeriod [Value,Min,Month,Day,Hour,Minute,Max,Month,Day,Hour,Minute]
1153,11,DX_HEATING_COIL,Heating Coil Defrost Electricity Energy [J] !RunPeriod [Value,Min,Month,Day,Hour,Minute,Max,Month,Day,Hour,Minute]
1154,11,DX_HEATING_COIL,Heating Coil Crankcase Heater Electricity Energy [J] !RunPeriod [Value,Min,Month,Day,Hour,Minute,Max,Month,Day,Hour,Minute]
1155,11,HEATING_RESISTANCE_BACKUP,Heating Coil Heating Energy [J] !RunPeriod [Value,Min,Month,Day,Hour,Minute,Max,Month,Day,Hour,Minute]
1156,11,HEATING_RESISTANCE_BACKUP,Heating Coil Electricity Energy [J] !RunPeriod [Value,Min,Month,Day,Hour,Minute,Max,Month,Day,Hour,Minute]
1292,11,WATER HEATER,Water Heater Heat Loss Energy [J] !RunPeriod [Value,Min,Month,Day,Hour,Minute,Max,Month,Day,Hour,Minute]
1306,11,WATER HEATER,Water Heater Heating Energy [J] !RunPeriod [Value,Min,Month,Day,Hour,Minute,Max,Month,Day,Hour,Minute]
1307,11,WATER HEATER,Water Heater Unmet Demand Heat Transfer Energy [J] !RunPeriod [Value,Min,Month,Day,Hour,Minute,Max,Month,Day,Hour,Minute]
1308,11,WATER HEATER,Water Heater Electricity Energy [J] !RunPeriod [Value,Min,Month,Day,Hour,Minute,Max,Month,Day,Hour,Minute]
13,11,Electricity:Facility [J] !RunPeriod [Value,Min,Month,Day,Hour,Minute,Max,Month,Day,Hour,Minute]
1134,11,Heating:Electricity [J] !RunPeriod [Value,Min,Month,Day,Hour,Minute,Max,Month,Day,Hour,Minute]
1096,11,Cooling:Electricity [J] !RunPeriod [Value,Min,Month,Day,Hour,Minute,Max,Month,Day,Hour,Minute]
562,11,Fans:Electricity [J] !RunPeriod [Value,Min,Month,Day,Hour,Minute,Max,Month,Day,Hour,Minute]
1379,11,Pumps:Electricity [J] !RunPeriod [Value,Min,Month,Day,Hour,Minute,Max,Month,Day,Hour,Minute]
1326,11,WaterSystems:Electricity [J] !RunPeriod [Value,Min,Month,Day,Hour,Minute,Max,Month,Day,Hour,Minute]
61,11,InteriorLights:Electricity [J] !RunPeriod [Value,Min,Month,Day,Hour,Minute,Max,Month,Day,Hour,Minute]
1046,11,ExteriorLights:Electricity [J] !RunPeriod [Value,Min,Month,Day,Hour,Minute,Max,Month,Day,Hour,Minute]
134,11,InteriorEquipment:Electricity [J] !RunPeriod [Value,Min,Month,Day,Hour,Minute,Max,Month,Day,Hour,Minute]
170,11,gas_dryer:InteriorEquipment:Electricity [J] !RunPeriod [Value,Min,Month,Day,Hour,Minute,Max,Month,Day,Hour,Minute]
207,11,clotheswasher:InteriorEquipment:Electricity [J] !RunPeriod [Value,Min,Month,Day,Hour,Minute,Max,Month,Day,Hour,Minute]
244,11,dishwasher:InteriorEquipment:Electricity [J] !RunPeriod [Value,Min,Month,Day,Hour,Minute,Max,Month,Day,Hour,Minute]
281,11,refrigerator:InteriorEquipment:Electricity [J] !RunPeriod [Value,Min,Month,Day,Hour,Minute,Max,Month,Day,Hour,Minute]
318,11,electric_mels:InteriorEquipment:Electricity [J] !RunPeriod [Value,Min,Month,Day,Hour,Minute,Max,Month,Day,Hour,Minute]
355,11,NaturalGas:Facility [J] !RunPeriod [Value,Min,Month,Day,Hour,Minute,Max,Month,Day,Hour,Minute]
403,11,InteriorEquipment:NaturalGas [J] !RunPeriod [Value,Min,Month,Day,Hour,Minute,Max,Month,Day,Hour,Minute]
476,11,gas_dryer:InteriorEquipment:NaturalGas [J] !RunPeriod [Value,Min,Month,Day,Hour,Minute,Max,Month,Day,Hour,Minute]
513,11,gas_mels:InteriorEquipment:NaturalGas [J] !RunPeriod [Value,Min,Month,Day,Hour,Minute,Max,Month,Day,Hour,Minute]
End of Data Dictionary
1,EXTREME_WINTER,  45.63, -89.48,  -6.00, 495.00
5,7
1038,25.25,0.0, 1,18, 1,15,0.25, 1,18, 6,15
1039,0.0,0.0, 1,18, 1,15,0.0, 1,18, 1,15
581,0.4844058493344754,0.39655842171635836, 1,21,23, 5,0.7204854200040236, 1,22,15,60
582,4.597977564751288,0.28849321830160995, 1,21, 7,60,13.660488011075133, 1,22,15,52
583,0.07166277784893607,0.04623199613866594, 1,21,23, 5,0.07671799492871156, 1,19, 7,52
1115,1470251942.18073,367428.2472611408, 1,23,10,35,2847818.2801174065, 1,22,13,60
1128,678594430.9745939,170490.19304754116, 1,23,10,32,1119794.7481137034, 1,18,13,15
1153,1627225.52684079,10.204431463999832, 1,21,11,32,13116.88656160095, 1,21,19,60
1154,19881.846399318165,0.0, 1,18, 1, 7,19881.846399318165, 1,21,23, 5
1155,3620914676.411376,0.0, 1,21,23, 5,8171094.075254081, 1,19, 4,30
1156,3620914676.411376,0.0, 1,21,23, 5,8171094.075254081, 1,19, 4,30
1292,-25130879.56163084,-42852.629181385244, 1,20, 8,30,-5788.9574332047305, 1,24,10, 3
1306,400451190.076359,0.0, 1,18, 1, 7,4050000.0, 1,18,17,15
1307,198813592.12864056,0.0, 1,18, 1, 7,15397528.759244006, 1,22,19,45
1308,400451190.076359,0.0, 1,18, 1, 7,4050000.0, 1,18,17,15
13,5159594933.695873,2728423.2863504817, 1,23,15,60,13821275.001303192, 1,20, 8,60
61,301924526.02383536,88139.10953165221, 1,18, 1,15,1282023.4113694867, 1,18,20,15
134,70666020.44019976,63564.01800854099, 1,18, 4,15,156554.22484006523, 1,23,20,15
170,5241013.419656067,348.4159749238097, 1,18, 4,15,17476.39704006126, 1,23,12,15
207,6509451.13922267,815.2532113832032, 1,18, 3,15,22990.642799023623, 1,23,10,15
244,12749673.399825225,1521.856143006317, 1,18, 4,15,53038.631142310165, 1,23,20,15
281,46165882.481495745,59938.60262432081, 1,18, 5,15,81951.81706819107, 1,18,19,15
318,0.0,0.0, 1,18, 1,15,0.0, 1,18, 1,15
355,197687796.27748066,18561.32405820678, 1,18, 4,15,724774.895203776, 1,23,18,15
403,197687796.27748066,18561.32405820678, 1,18, 4,15,724774.895203776, 1,23,18,15
476,106772067.24485716,7098.072629279515, 1,18, 4,15,356036.3026282215, 1,23,12,15
513,0.0,0.0, 1,18, 1,15,0.0, 1,18, 1,15
562,85396982.3962744,112823.91416605722, 1,21,23,15,127100.08715664563, 1,18, 1,15
1046,0.0,0.0, 1,18, 1,15,0.0, 1,18, 1,15
1096,0.0,0.0, 1,18, 1,15,0.0, 1,18, 1,15
1134,4301156214.759209,2323172.3446410364, 1,23,15,60,9158856.719640581, 1,21, 8,30
1326,400451190.07635903,0.0, 1,18, 1,15,4050000.0, 1,18, 9,60
1379,0.0,0.0, 1,18, 1,15,0.0, 1,18, 1,15
1,EXTREME_SUMMER,  45.63, -89.48,  -6.00, 495.00
5,7
1038,0.0,0.0, 7,24, 1,15,0.0, 7,24, 1,15
1039,41.5,0.0, 7,24, 1,15,0.25, 7,24,14,60
581,0.10144684996873622,0.0, 7,24,23, 3,0.8927892041164461, 7,26,16,46
582,2.1390520792382857,0.0, 7,24, 6, 3,27.032111221125607, 7,26,16,46
583,0.03510738737510298,0.0, 7,24,23, 3,0.07709609850651951, 7,26,16,46
1115,0.0,0.0, 7,24, 1,15,0.0, 7,24, 1,15
1128,0.0,0.0, 7,24, 1,15,0.0, 7,24, 1,15
1153,0.0,0.0, 7,24, 1,15,0.0, 7,24, 1,15
1154,0.0,0.0, 7,24, 1,15,0.0, 7,24, 1,15
1155,0.0,0.0, 7,24, 1,15,0.0, 7,24, 1,15
1156,0.0,0.0, 7,24, 1,15,0.0, 7,24, 1,15
1292,-21669528.790556557,-34299.311376779275, 7,29,14,30,-1931.2616948606392, 7,26,16,45
1306,321198783.6882954,0.0, 7,24, 1,15,3084171.3381415047, 7,26,21,15
1307,133422030.62379885,0.0, 7,24, 1,15,3380772.8312664563, 7,24, 9,40
1308,321198783.6882954,0.0, 7,24, 1,15,3084171.3381415047, 7,26,21,15
13,1175649693.2903895,151703.1275401932, 7,28, 4,15,6794789.151888658, 7,25,20,15
61,301924526.02383536,88139.10953165221, 7,24, 1,15,1282023.4113694867, 7,24,20,15
134,70666020.44019976,63564.01800854099, 7,24, 4,15,156554.22484006523, 7,29,20,15
170,5241013.419656067,348.4159749238097, 7,24, 4,15,17476.39704006126, 7,29,12,15
207,6509451.13922267,815.2532113832032, 7,24, 3,15,22990.642799023623, 7,29,10,15
244,12749673.399825225,1521.856143006317, 7,24, 4,15,53038.631142310165, 7,29,20,15
281,46165882.481495745,59938.60262432081, 7,24, 5,15,81951.81706819107, 7,24,19,15
318,0.0,0.0, 7,24, 1,15,0.0, 7,24, 1,15
355,197687796.27748066,18561.32405820678, 7,24, 4,15,724774.895203776, 7,29,18,15
403,197687796.27748066,18561.32405820678, 7,24, 4,15,724774.895203776, 7,29,18,15
476,106772067.24485716,7098.072629279515, 7,24, 4,15,356036.3026282215, 7,29,12,15
513,0.0,0.0, 7,24, 1,15,0.0, 7,24, 1,15
562,48671482.383536324,0.0, 7,28, 3,45,127100.08715664566, 7,26,16,15
1046,0.0,0.0, 7,24, 1,15,0.0, 7,24, 1,15
1096,433188880.75452423,0.0, 7,28, 3,45,1282494.3273454607, 7,25,15,60
1134,0.0,0.0, 7,24, 1,15,0.0, 7,24, 1,15
1326,321198783.6882953,0.0, 7,24, 1,15,4050000.0, 7,24, 8,30
1379,0.0,0.0, 7,24, 1,15,0.0, 7,24, 1,15
1,ANNUAL,  45.63, -89.48,  -6.00, 495.00
5,365
1038,87.25,0.0, 1, 1, 1,15,0.25, 1, 3, 6,15
1039,189.0,0.0, 1, 1, 1,15,0.25, 3,16,16,60
581,0.28124059760131953,0.0, 7,24,23, 3,1.1060231433786925, 3, 7, 7,50
582,3.5642497521741157,0.0, 1, 7, 6, 5,33.605007274530884, 3, 8, 1,52
583,0.032776288555775586,0.0, 7,24,23, 3,0.08278882856278172, 3, 8,17,60
1115,38380952441.76039,0.0, 1, 1,23, 5,4362637.618847618, 3, 8, 1,45
1128,13184313617.400873,0.0, 1, 1,23, 5,1242203.1692849125, 3, 8, 1,45
1153,465209673.4891368,0.0, 1, 1,23, 5,130905.72036592221,12,14, 6,45
1154,1551186416.5743325,0.0, 1, 1, 1, 7,180000.0, 2,14,15,45
1155,19626538812.57989,0.0, 1, 1,12,45,8171094.075254081, 1,19, 3,15
1156,19626538812.57989,0.0, 1, 1,12,45,8171094.075254081, 1,19, 3,15
1292,-1229616594.7484262,-44018.12950590332, 1,30, 6,60,-1422.9121850452489, 6,30, 9,60
1306,18871336470.836697,0.0, 1, 1, 1, 7,4050000.0, 1, 1, 9,60
1307,8729750305.266897,0.0, 1, 1, 1, 7,19762778.908453222, 3,17, 9,60
1308,18871336470.836697,0.0, 1, 1, 1, 7,4050000.0, 1, 1, 9,60
13,80701579634.11858,151703.1275401932, 4,24, 4,15,14277081.55081835, 1,19,21,45
61,15743207428.383959,88139.10953165221, 1, 1, 1,15,1282023.4113694867, 1, 1,20,15
134,3685071073.4325233,63564.01800854099, 1, 2, 4,15,156554.22484006523, 1, 1,20,15
170,273393721.45532674,348.4159749238097, 1, 2, 4,15,17476.39704006126, 1, 1,12,15
207,339560869.0695816,815.2532113832032, 1, 2, 3,15,22990.642799023623, 1, 1,10,15
244,664895467.8009144,1521.856143006317, 1, 2, 4,15,53038.631142310165, 1, 1,20,15
281,2407221015.106824,59938.60262432081, 1, 1, 5,15,81951.81706819107, 1, 1,19,15
318,0.0,0.0, 1, 1, 1,15,0.0, 1, 1, 1,15
355,10310294493.051695,18561.32405820678, 1, 2, 4,15,724774.895203776, 1, 1,18,15
403,10310294493.051695,18561.32405820678, 1, 2, 4,15,724774.895203776, 1, 1,18,15
476,5569688622.066177,7098.072629279515, 1, 2, 4,15,356036.3026282215, 1, 1,12,15
513,0.0,0.0, 1, 1, 1,15,0.0, 1, 1, 1,15
562,2157384967.6604123,0.0, 1, 6,23,15,127100.08715664566, 7,26,16,15
1046,0.0,0.0, 1, 1, 1,15,0.0, 1, 1, 1,15
1096,5417331173.758036,0.0, 1, 1, 1,15,1301673.4228259493, 7, 8,14,60
1134,34827248520.0442,0.0, 2,16,14,30,9227853.273658779,12,31,13,30
1326,18871336470.836727,0.0, 1, 1, 1,15,4050000.0000000014, 5,20, 9,45
1379,0.0,0.0, 1, 1, 1,15,0.0, 1, 1, 1,15
End of Data
 Number of Records Written=          99
