Program Version,EnergyPlus, Version 22.2.0-c249759bad, YMD=2023.09.01 14:30
1,5,Environment Title[],Latitude[deg],Longitude[deg],Time Zone[],Elevation[m]
2,8,Day of Simulation[],Month[],Day of Month[],DST Indicator[1=yes 0=no],Hour[],StartMinute[],EndMinute[],DayType
3,5,Cumulative Day of Simulation[],Month[],Day of Month[],DST Indicator[1=yes 0=no],DayType  ! When Daily Report Variables Requested
4,2,Cumulative Days of Simulation[],Month[]  ! When Monthly Report Variables Requested
5,1,Cumulative Days of Simulation[] ! When Run Period Report Variables Requested
6,1,Calendar Year of Simulation[] ! When Annual Report Variables Requested
7,1,Environment,Site Outdoor Air Drybulb Temperature [C] !Hourly
619,1,DX_HEATING_COIL,Heating Coil Heating Rate [W] !Hourly
633,1,DX_HEATING_COIL,Heating Coil Electricity Rate [W] !Hourly
659,1,DX_HEATING_COIL,Heating Coil Defrost Electricity Rate [W] !Hourly
661,1,DX_HEATING_COIL,Heating Coil Crankcase Heater Electricity Rate [W] !Hourly
690,1,FAN,Fan Electricity Rate [W] !Hourly
716,1,HEAT PUMP WATER HEATER FAN,Fan Electricity Rate [W] !Hourly
718,1,LIVING,Zone Mean Air Temperature [C] !Hourly
719,1,ATTIC,Zone Mean Air Temperature [C] !Hourly
720,1,CRAWLSPACE,Zone Mean Air Temperature [C] !Hourly
843,1,LIVING,Zone Predicted Sensible Load to Heating Setpoint Heat Transfer Rate [W] !Hourly
844,1,LIVING,Zone System Predicted Sensible Load to Heating Setpoint Heat Transfer Rate [W] !Hourly
907,1,ATTIC,Zone Predicted Sensible Load to Heating Setpoint Heat Transfer Rate [W] !Hourly
908,1,ATTIC,Zone System Predicted Sensible Load to Heating Setpoint Heat Transfer Rate [W] !Hourly
971,1,CRAWLSPACE,Zone Predicted Sensible Load to Heating Setpoint Heat Transfer Rate [W] !Hourly
972,1,CRAWLSPACE,Zone System Predicted Sensible Load to Heating Setpoint Heat Transfer Rate [W] !Hourly
1195,1,HEATING_RESISTANCE_BACKUP,Heating Coil Heating Rate [W] !Hourly
1197,1,HEATING_RESISTANCE_BACKUP,Heating Coil Electricity Rate [W] !Hourly
End of Data Dictionary
1,EXTREME_WINTER,  43.65, -70.32,  -5.00,  13.70
2,1,12,22, 0, 1, 0.00,60.00,Monday
7,2.2
718,18.649804177669754
719,3.77941074318312
720,18.310065428029425
619,2898.8832939359404
633,857.8821008125244
659,36.94436952972853
661,57.03257938605406
690,89.66050627323055
716,0.0
843,2025.7451973718853
844,2025.7451973718853
907,0.0
908,0.0
971,0.0
972,0.0
1195,0.0
1197,0.0
2,1,12,22, 0, 2, 0.00,60.00,Monday
7,2.2
718,18.611951275020125
719,4.113634397180033
720,17.908613317683873
619,3089.8623373182586
633,912.499939180995
659,39.19728430484528
661,48.31424372729269
690,95.12788582076927
716,0.0
843,2202.109635534631
844,2202.109635534631
907,0.0
908,0.0
971,0.0
972,0.0
1195,0.0
1197,0.0
2,1,12,22, 0, 3, 0.00,60.00,Monday
7,2.8
718,18.646257272750102
719,4.666488961146386
720,17.722929089385254
619,3111.093605649463
633,908.652604135787
659,34.45008108237512
661,50.623364861568156
690,93.7670171358256
716,0.0
843,2227.200448344651
844,2227.200448344651
907,0.0
908,0.0
971,0.0
972,0.0
1195,0.0
1197,0.0
2,1,12,22, 0, 4, 0.00,60.00,Monday
7,2.2
718,18.62249511015289
719,4.572174468160079
720,17.51349061938503
619,3167.8935442709994
633,932.8139134615681
659,40.09673514063516
661,44.83354646276201
690,97.31082605322295
716,0.0
843,2282.668149241661
844,2282.668149241661
907,0.0
908,0.0
971,0.0
972,0.0
1195,0.0
1197,0.0
2,1,12,22, 0, 5, 0.00,60.00,Monday
7,2.2
718,18.620313095621494
719,4.567812140199561
720,17.342300996917132
619,3130.1173211669475
633,921.872392205592
659,39.65305180033771
661,46.550513446882924
690,96.23411284240197
716,0.0
843,2244.427835003553
844,2244.427835003553
907,0.0
908,0.0
971,0.0
972,0.0
1195,0.0
1197,0.0
2,1,12,22, 0, 6, 0.00,60.00,Monday
7,1.1
718,19.33738951913886
719,4.386057358651432
720,17.16868414854829
619,3981.927057384684
633,1156.7208282768045
659,74.46662373559681
661,0.0
690,125.933332076268
716,0.0
843,3295.8534968740423
844,3295.8534968740423
907,0.0
908,0.0
971,0.0
972,0.0
1195,559.4141581252961
1197,559.4141581252961
2,1,12,22, 0, 7, 0.00,60.00,Monday
7,1.0
718,19.564191378160174
719,4.474928947337865
720,17.060764233522683
619,3902.36495195628
633,1155.2749886626982
659,85.90902274012652
661,0.0
690,125.933332076268
716,85.44000000000004
843,2899.7664905214806
844,2899.7664905214806
907,0.0
908,0.0
971,0.0
972,0.0
1195,1499.390912731138
1197,1499.390912731138
2,1,12,22, 0, 8, 0.00,60.00,Monday
7,0.6
718,19.645807961633764
719,4.018034641874024
720,16.928347316631303
619,3854.5171966833723
633,1155.5351401139803
659,86.31464909383881
661,0.0
690,125.933332076268
716,76.87431643949178
843,2905.53977314616
844,2905.53977314616
907,0.0
908,0.0
971,0.0
972,0.0
1195,1513.8092068469718
1197,1513.8092068469718
2,1,12,22, 0, 9, 0.00,60.00,Monday
7,1.1
718,19.70459540485501
719,4.50639229502928
720,16.81724353637783
619,3908.2483892568694
633,1172.831318102921
659,74.06070157427366
661,1.1268691581973522
690,124.28784911676303
716,0.0
843,2682.2601248244773
844,2682.2601248244773
907,0.0
908,0.0
971,0.0
972,0.0
1195,0.0
1197,0.0
2,1,12,22, 0,10, 0.00,60.00,Monday
7,1.0
718,19.728431973787387
719,4.930781869830279
720,16.703837544524777
619,3609.5465351919497
633,1095.2245911773123
659,80.89164716946742
661,11.680671972806822
690,117.52310475031537
716,0.0
843,2481.918118682195
844,2481.918118682195
907,0.0
908,0.0
971,0.0
972,0.0
1195,0.0
1197,0.0
2,1,12,22, 0,11, 0.00,60.00,Monday
7,1.1
718,19.72625927210126
719,5.494511099757108
720,16.598238182252732
619,3495.053797166003
633,1062.5241038504107
659,83.94270109916212
661,16.281771412949443
690,114.59967273159096
716,0.0
843,2415.1683479400654
844,2415.1683479400654
907,0.0
908,0.0
971,0.0
972,0.0
1195,0.0
1197,0.0
2,1,12,22, 0,12, 0.00,60.00,Monday
7,1.7
718,19.755763348368397
719,6.050261966110361
720,16.499744088318714
619,3062.1825054578503
633,933.1933123272819
659,68.97355205022149
661,40.48170629660257
690,99.65811965414461
716,0.0
843,2142.2979405826118
844,2142.2979405826118
907,0.0
908,0.0
971,0.0
972,0.0
1195,0.0
1197,0.0
2,1,12,22, 0,13, 0.00,60.00,Monday
7,1.7
718,19.767989129865438
719,6.283974544352849
720,16.40674529918282
619,2586.9575215123273
633,799.7956108583636
659,59.110470531522346
661,63.353485286138
690,85.36868887240672
716,0.0
843,1828.5550356343829
844,1828.5550356343829
907,0.0
908,0.0
971,0.0
972,0.0
1195,0.0
1197,0.0
2,1,12,22, 0,14, 0.00,60.00,Monday
7,1.7
718,19.702522855540124
719,7.273427913290084
720,16.339173593415897
619,3571.7091833778263
633,1073.4763785482521
659,79.3408379500096
661,16.586657442279893
690,114.58585622456434
716,77.13712280819108
843,1584.2427453921755
844,1584.2427453921755
907,0.0
908,0.0
971,0.0
972,0.0
1195,0.0
1197,0.0
2,1,12,22, 0,15, 0.00,60.00,Monday
7,1.0
718,19.73167862723611
719,5.790467229007957
720,16.246968501256937
619,2584.545280004394
633,807.5879075837148
659,60.340874846829976
661,60.93264983501352
690,86.77818257308755
716,0.0
843,1854.1719126669432
844,1854.1719126669432
907,0.0
908,0.0
971,0.0
972,0.0
1195,0.0
1197,0.0
2,1,12,22, 0,16, 0.00,60.00,Monday
7,0.6
718,19.712657758691282
719,5.292802098316812
720,16.18549811258828
619,2653.4693817968746
633,833.7926717247501
659,68.72919499190816
661,54.57165055246283
690,90.59803946660526
716,0.0
843,1853.7177542987301
844,1853.7177542987301
907,0.0
908,0.0
971,0.0
972,0.0
1195,0.0
1197,0.0
2,1,12,22, 0,17, 0.00,60.00,Monday
7,0.6
718,19.719371887482616
719,4.3918785402821285
720,16.12066735462846
619,2674.421684629389
633,839.3847173385834
659,69.2209744531133
661,53.53106401069287
690,91.24640603203383
716,0.0
843,1851.861206135658
844,1851.861206135658
907,0.0
908,0.0
971,0.0
972,0.0
1195,0.0
1197,0.0
2,1,12,22, 0,18, 0.00,60.00,Monday
7,0.6
718,19.652757154433306
719,3.5865341458670685
720,16.057328927278004
619,2859.078993499876
633,892.3303841018155
659,66.7276471675508
661,45.83302219728955
690,96.1373279282024
716,0.0
843,1940.8749170910341
844,1940.8749170910341
907,0.0
908,0.0
971,0.0
972,0.0
1195,0.0
1197,0.0
2,1,12,22, 0,19, 0.00,60.00,Monday
7,0.0
718,19.623746314862125
719,3.4527016276726084
720,15.999823747795222
619,3770.371866617237
633,1143.586559762565
659,90.86971049500187
661,0.0
690,125.933332076268
716,85.44000000000004
843,1927.8754275273568
844,1927.8754275273568
907,0.0
908,0.0
971,0.0
972,0.0
1195,643.6289813022677
1197,643.6289813022677
2,1,12,22, 0,20, 0.00,60.00,Monday
7,0.0
718,19.67762701322806
719,3.2697596366035273
720,15.930316223680675
619,3770.9767462470177
633,1142.8635018451714
659,90.86971049500187
661,0.0
690,125.933332076268
716,85.44000000000004
843,1918.660347488958
844,1918.660347488958
907,0.0
908,0.0
971,0.0
972,0.0
1195,657.1492560596453
1197,657.1492560596453
2,1,12,22, 0,21, 0.00,60.00,Monday
7,0.0
718,19.716146281587474
719,3.0521358382176773
720,15.857387667812285
619,3332.658777834994
633,1034.93294214462
659,82.22672372139513
661,19.071993775273643
690,112.64069788131158
716,30.455375795349816
843,1813.5708944542585
844,1813.5708944542585
907,0.0
908,0.0
971,0.0
972,0.0
1195,0.0
1197,0.0
2,1,12,22, 0,22, 0.00,60.00,Monday
7,0.0
718,19.73558992151727
719,2.8540452256385884
720,15.778869511959314
619,2964.300251734872
633,931.5307997236545
659,67.053448832797
661,38.81903179207076
690,100.4521989601852
716,0.0
843,1961.9152708502206
844,1961.9152708502206
907,0.0
908,0.0
971,0.0
972,0.0
1195,0.0
1197,0.0
2,1,12,22, 0,23, 0.00,60.00,Monday
7,0.0
718,18.859867022795715
719,2.3944060172116584
720,15.683811575776216
619,1888.1830959850192
633,613.4680584091938
659,44.13683929478501
661,93.90525595617632
690,66.12093704612964
716,0.0
843,1237.3387007207893
844,1237.3387007207893
907,0.0
908,0.0
971,0.0
972,0.0
1195,0.0
1197,0.0
2,1,12,22, 0,24, 0.00,60.00,Monday
7,0.0
718,18.555740888125662
719,2.439540216861381
720,15.592595533680084
619,2657.7371487100454
633,825.5875538950493
659,60.48522038010678
661,54.7139457365752
690,90.5492501175903
716,0.0
843,1785.173176152175
844,1785.173176152175
907,0.0
908,0.0
971,0.0
972,0.0
1195,0.0
1197,0.0
2,2,12,23, 0, 1, 0.00,60.00,Tuesday
7,0.0
718,18.623464998344268
719,2.6618988803592587
720,15.508650503441526
619,3228.0476375754342
633,978.446225760941
659,67.50558998284338
661,27.794603131631447
690,107.39834278157288
716,0.0
843,2183.7770341734777
844,2183.7770341734777
907,0.0
908,0.0
971,0.0
972,0.0
1195,0.0
1197,0.0
2,2,12,23, 0, 2, 0.00,60.00,Tuesday
7,0.0
718,18.568385911495454
719,2.9555792821847455
720,15.429438918284477
619,3825.958428206799
633,1130.791834826667
659,83.28650456940056
661,0.0
690,125.933332076268
716,0.0
843,2651.9661518213743
844,2651.9661518213743
907,0.0
908,0.0
971,0.0
972,0.0
1195,88.965187340581
1197,88.965187340581
2,2,12,23, 0, 3, 0.00,60.00,Tuesday
7,0.0
718,18.598638121188607
719,2.8712790657135274
720,15.345435570635507
619,3850.2076014958284
633,1136.3206717890432
659,78.40124782435677
661,0.0
690,125.933332076268
716,0.0
843,2625.223791348013
844,2625.223791348013
907,0.0
908,0.0
971,0.0
972,0.0
1195,8.27219540904207
1197,8.27219540904207
2,2,12,23, 0, 4, 0.00,60.00,Tuesday
7,1.0
718,18.605694103577687
719,3.7343364136668096
720,15.269761788900562
619,3985.2272727951545
633,1155.8992445062172
659,72.1356597711622
661,0.0
690,125.933332076268
716,0.0
843,2870.1892358195037
844,2870.1892358195037
907,0.0
908,0.0
971,0.0
972,0.0
1195,185.50607822382244
1197,185.50607822382244
2,2,12,23, 0, 5, 0.00,60.00,Tuesday
7,0.6
718,18.608910020363957
719,3.6533625320949237
720,15.187393958014225
619,3941.8616397021274
633,1151.573794389936
659,72.30411471997014
661,0.0
690,125.933332076268
716,0.0
843,2907.907502713346
844,2907.907502713346
907,0.0
908,0.0
971,0.0
972,0.0
1195,229.92514680755585
1197,229.92514680755585
2,2,12,23, 0, 6, 0.00,60.00,Tuesday
7,0.0
718,19.400279731353212
719,3.5565683156935344
720,15.107299089856248
619,3849.7441095831227
633,1136.869979947393
659,78.40124782435677
661,0.0
690,125.933332076268
716,0.0
843,4104.504803636732
844,4104.504803636732
907,0.0
908,0.0
971,0.0
972,0.0
1195,1784.9555559830528
1197,1784.9555559830528
2,2,12,23, 0, 7, 0.00,60.00,Tuesday
7,0.0
718,19.59035561627988
719,3.868318312258369
720,15.073609671778456
619,3771.737775987328
633,1135.3740864235644
659,91.80229073925896
661,0.0
690,125.933332076268
716,85.44000000000004
843,3670.980861814729
844,3670.980861814729
907,0.0
908,0.0
971,0.0
972,0.0
1195,2690.180090764318
1197,2690.180090764318
2,2,12,23, 0, 8, 0.00,60.00,Tuesday
7,0.0
718,19.651876631797318
719,3.4386085529109995
720,15.004199203934526
619,3772.6814428598127
633,1140.826668875164
659,90.86971049500187
661,0.0
690,125.933332076268
716,85.44000000000004
843,3753.527455883508
844,3753.527455883508
907,0.0
908,0.0
971,0.0
972,0.0
1195,2890.3480277404547
1197,2890.3480277404547
2,2,12,23, 0, 9, 0.00,60.00,Tuesday
7,0.0
718,19.690733328840874
719,4.088961787819494
720,14.949753258770649
619,3767.1840814786187
633,1140.8106197189131
659,91.80229073925896
661,0.0
690,125.933332076268
716,76.15587665720908
843,3282.4562742650014
844,3282.4562742650014
907,0.0
908,0.0
971,0.0
972,0.0
1195,2183.193659559759
1197,2183.193659559759
2,2,12,23, 0,10, 0.00,60.00,Tuesday
7,1.0
718,19.72076365604061
719,4.333013101402622
720,14.897202223283964
619,3898.198132711084
633,1160.2550215610033
659,85.90902274012652
661,0.0
690,125.933332076268
716,0.0
843,2799.948005439428
844,2799.948005439428
907,0.0
908,0.0
971,0.0
972,0.0
1195,211.40230494086518
1197,211.40230494086518
2,2,12,23, 0,11, 0.00,60.00,Tuesday
7,1.1
718,19.74831003359256
719,5.552362206772703
720,14.821414684281121
619,3194.034481753966
633,977.1349134220304
659,61.83724751049044
661,34.16441570092958
690,103.63974284635489
716,0.0
843,2163.145981725256
844,2163.145981725256
907,0.0
908,0.0
971,0.0
972,0.0
1195,0.0
1197,0.0
2,2,12,23, 0,12, 0.00,60.00,Tuesday
7,3.9
718,19.725358052963486
719,7.303842977012087
720,14.762987938713344
619,2648.757207406913
633,787.4011958034641
659,33.31519373232785
661,73.28077242686348
690,79.58322317488422
716,0.0
843,1857.9522202286116
844,1857.9522202286116
907,0.0
908,0.0
971,0.0
972,0.0
1195,0.0
1197,0.0
2,2,12,23, 0,13, 0.00,60.00,Tuesday
7,4.4
718,19.61493502511672
719,7.7550307462351915
720,14.717529677662851
619,2281.846258350375
633,679.4364706505935
659,24.679377375139183
661,92.01931830890537
690,67.8638141815705
716,0.0
843,1641.6491807780021
844,1641.6491807780021
907,0.0
908,0.0
971,0.0
972,0.0
1195,0.0
1197,0.0
2,2,12,23, 0,14, 0.00,60.00,Tuesday
7,4.4
718,19.723405975201306
719,8.151116390584034
720,14.684586161402123
619,1736.5267639097035
633,523.185221518915
659,19.042990523858276
661,116.68043050896964
690,52.36482005898823
716,0.0
843,1259.56926181786
844,1259.56926181786
907,0.0
908,0.0
971,0.0
972,0.0
1195,0.0
1197,0.0
2,2,12,23, 0,15, 0.00,60.00,Tuesday
7,4.4
718,20.070973212373268
719,8.092748139854235
720,14.678918671128518
619,1285.8683869193121
633,393.1120391264419
659,9.47037710298725
661,138.6100453760237
690,38.60689813342328
716,0.0
843,942.7544617136609
844,942.7544617136609
907,0.0
908,0.0
971,0.0
972,0.0
1195,0.0
1197,0.0
2,2,12,23, 0,16, 0.00,60.00,Tuesday
7,3.3
718,19.522302287780807
719,6.676843658369706
720,14.6908921718512
619,1104.7257818455669
633,348.3154348565831
659,11.714883547486888
661,144.65042708069396
690,34.76513505228949
716,0.0
843,798.0956850456951
844,798.0956850456951
907,0.0
908,0.0
971,0.0
972,0.0
1195,0.0
1197,0.0
2,2,12,23, 0,17, 0.00,60.00,Tuesday
7,3.3
718,19.66404462869844
719,5.850290048702869
720,14.72680432895434
619,1981.41023532039
633,602.0591709022428
659,20.466101691976057
661,103.3033505299358
690,60.73567108698409
716,0.0
843,1408.2978675049144
844,1408.2978675049144
907,0.0
908,0.0
971,0.0
972,0.0
1195,0.0
1197,0.0
2,2,12,23, 0,18, 0.00,60.00,Tuesday
7,1.7
718,19.597508932374875
719,4.617542088413846
720,14.770100374493408
619,3326.0117963181265
633,1002.7394466171131
659,38.92304035741788
661,35.958517833156954
690,102.8676103250324
716,69.52970104515433
843,1490.4096109758984
844,1490.4096109758984
907,0.0
908,0.0
971,0.0
972,0.0
1195,0.0
1197,0.0
2,2,12,23, 0,19, 0.00,60.00,Tuesday
7,1.1
718,19.766843541371234
719,3.526547515352614
720,14.712521144790147
619,2270.276099188345
633,710.8190524451876
659,26.560308763904928
661,83.2320243975747
690,73.20001622721921
716,0.0
843,1554.4010147316803
844,1554.4010147316803
907,0.0
908,0.0
971,0.0
972,0.0
1195,0.0
1197,0.0
2,2,12,23, 0,20, 0.00,60.00,Tuesday
7,1.1
718,19.655538545868
719,3.7748220610954477
720,14.754081488745193
619,3953.4528773356756
633,1185.7990597352527
659,44.1787050147117
661,5.775678469704348
690,121.75579567219245
716,85.44000000000004
843,1504.798156349012
844,1504.798156349012
907,0.0
908,0.0
971,0.0
972,0.0
1195,0.0
1197,0.0
2,2,12,23, 0,21, 0.00,60.00,Tuesday
7,0.6
718,19.644603135937153
719,3.3330781397879328
720,14.697728280215188
619,4069.4133856398525
633,1218.509622904423
659,41.659203259563085
661,0.0
690,125.933332076268
716,85.44000000000004
843,1936.4808733466507
844,1936.4808733466507
907,0.0
908,0.0
971,0.0
972,0.0
1195,424.5794927163165
1197,424.5794927163165
2,2,12,23, 0,22, 0.00,60.00,Tuesday
7,0.0
718,19.691806219114564
719,2.8893214210174594
720,14.653146962382413
619,4012.4268741806904
633,1214.278365243586
659,39.89369018949983
661,0.0
690,125.933332076268
716,44.55110452188661
843,2193.6733608054383
844,2193.6733608054383
907,0.0
908,0.0
971,0.0
972,0.0
1195,56.93658585096273
1197,56.93658585096273
2,2,12,23, 0,23, 0.00,60.00,Tuesday
7,0.0
718,18.924168083783957
719,2.234086126153382
720,14.549705647311535
619,2403.2776762438393
633,765.2779325829994
659,25.11356451903512
661,74.09756079348556
690,78.90566121923227
716,0.0
843,1575.3847883968065
844,1575.3847883968065
907,0.0
908,0.0
971,0.0
972,0.0
1195,0.0
1197,0.0
2,2,12,23, 0,24, 0.00,60.00,Tuesday
7,-0.6
718,18.60839449826903
719,1.9135518756332701
720,14.48706229262479
619,3153.990136776076
633,974.5388216714368
659,30.509378696522894
661,36.836148308131136
690,102.24617275098929
716,0.0
843,2098.8335479705493
844,2098.8335479705493
907,0.0
908,0.0
971,0.0
972,0.0
1195,0.0
1197,0.0
2,3,12,24, 0, 1, 0.00,60.00,Wednesday
7,-1.1
718,18.527781189204507
719,1.4125493340407533
720,14.415771864361396
619,3934.5384636247036
633,1184.5684846642519
659,35.42151893066852
661,0.0
690,125.933332076268
716,0.0
843,2947.890172153242
844,2947.890172153242
907,0.0
908,0.0
971,0.0
972,0.0
1195,410.88925842969275
1197,410.88925842969275
2,3,12,24, 0, 2, 0.00,60.00,Wednesday
7,-1.1
718,18.583235741069597
719,1.378702514380936
720,14.338843980655255
619,3936.1885116494277
633,1182.6158476090363
659,35.42151893066852
661,0.0
690,125.933332076268
716,0.0
843,3364.8151617111016
844,3364.8151617111016
907,0.0
908,0.0
971,0.0
972,0.0
1195,933.6325388238488
1197,933.6325388238488
2,3,12,24, 0, 3, 0.00,60.00,Wednesday
7,-2.2
718,18.602951243155868
719,0.785998575517411
720,14.261364869341037
619,3868.2356621719296
633,1188.3400271946014
659,24.03642388900272
661,0.0
690,125.933332076268
716,0.0
843,3245.2800755916924
844,3245.2800755916924
907,0.0
908,0.0
971,0.0
972,0.0
1195,858.6564756961011
1197,858.6564756961011
2,3,12,24, 0, 4, 0.00,60.00,Wednesday
7,-2.2
718,18.606318733583727
719,0.6310112597580501
720,14.184831897374517
619,3867.973204566367
633,1188.7117394605093
659,24.027104117973426
661,0.0
690,125.933332076268
716,0.0
843,3261.6400637280076
844,3261.6400637280076
907,0.0
908,0.0
971,0.0
972,0.0
1195,907.6287537304825
1197,907.6287537304825
2,3,12,24, 0, 5, 0.00,60.00,Wednesday
7,-2.2
718,18.608666730003808
719,0.492737310479864
720,14.105703382621778
619,3867.997790573871
633,1188.6827135969772
659,24.027104117973426
661,0.0
690,125.933332076268
716,0.0
843,3271.6335952717873
844,3271.6335952717873
907,0.0
908,0.0
971,0.0
972,0.0
1195,934.4976158568388
1197,934.4976158568388
2,3,12,24, 0, 6, 0.00,60.00,Wednesday
7,-2.0
718,19.28726320270762
719,1.122618270213313
720,14.032033051316978
619,3946.5746509218216
633,1208.1299812154957
659,11.32082175024502
661,0.0
690,125.933332076268
716,71.63308647745538
843,4055.849499738535
844,4055.849499738535
907,0.0
908,0.0
971,0.0
972,0.0
1195,2741.5325476948274
1197,2741.5325476948274
2,3,12,24, 0, 7, 0.00,60.00,Wednesday
7,-2.8
718,19.53704112412303
719,0.8089389526931438
720,13.981382755876734
619,3860.567267927759
633,1220.372871957296
659,8.017758405078993
661,0.0
690,125.933332076268
716,85.44000000000004
843,4099.227543115845
844,4099.227543115845
907,0.0
908,0.0
971,0.0
972,0.0
1195,3246.8014687553614
1197,3246.8014687553614
2,3,12,24, 0, 8, 0.00,60.00,Wednesday
7,-2.8
718,19.649553908582238
719,0.7530405912259215
720,13.91622878500385
619,3855.598882505524
633,1226.2472860118116
659,8.017758405078993
661,0.0
690,125.933332076268
716,65.82561134564638
843,3853.9399540011054
844,3853.9399540011054
907,0.0
908,0.0
971,0.0
972,0.0
1195,2703.1632414325813
1197,2703.1632414325813
2,3,12,24, 0, 9, 0.00,60.00,Wednesday
7,-1.7
718,19.70824148994208
719,1.4390484807791712
720,13.858651673843442
619,4009.493817120131
633,1251.5529692635869
659,0.061607783698140975
661,0.0
690,125.933332076268
716,0.0
843,3470.570834458402
844,3470.570834458402
907,0.0
908,0.0
971,0.0
972,0.0
1195,1123.254662482787
1197,1123.254662482787
2,3,12,24, 0,10, 0.00,60.00,Wednesday
7,-0.6
718,19.73296318567653
719,3.118295914378575
720,13.797189898281458
619,3882.548547207807
633,1196.5556987597936
659,0.05827957067037159
661,10.804521208153183
690,119.12917596621514
716,0.0
843,2509.7243482006797
844,2509.7243482006797
907,0.0
908,0.0
971,0.0
972,0.0
1195,0.0
1197,0.0
2,3,12,24, 0,11, 0.00,60.00,Wednesday
7,-0.6
718,19.772819074439546
719,4.351732072706066
720,13.716200940096392
619,2998.524797562483
633,947.1859262448821
659,0.04610812755027026
661,50.31720090375016
690,94.2495487055316
716,0.0
843,1986.1468090438557
844,1986.1468090438557
907,0.0
908,0.0
971,0.0
972,0.0
1195,0.0
1197,0.0
2,3,12,24, 0,12, 0.00,60.00,Wednesday
7,1.1
718,19.822868857668517
719,6.140924272769122
720,13.647954102245121
619,1896.7720076711043
633,601.0329484857671
659,0.028797686066210342
661,106.51283218591317
690,58.86541678778109
716,0.0
843,1290.4859344128708
844,1290.4859344128708
907,0.0
908,0.0
971,0.0
972,0.0
1195,0.0
1197,0.0
2,3,12,24, 0,13, 0.00,60.00,Wednesday
7,1.7
718,19.73573445723075
719,6.9415764088898735
720,13.592168503225512
619,760.760979221845
633,246.51305069108918
659,0.011734706164636509
661,161.9051182813752
690,23.98695539907894
716,0.0
843,530.8185570338173
844,530.8185570338173
907,0.0
908,0.0
971,0.0
972,0.0
1195,0.0
1197,0.0
2,3,12,24, 0,14, 0.00,60.00,Wednesday
7,1.7
718,19.74264636725111
719,6.930178113320605
720,13.587351154402448
619,255.65133534182115
633,83.83535638059995
659,0.003997423044350474
661,187.02299351024666
690,8.171146948976835
716,0.0
843,180.54603528717234
844,180.54603528717234
907,0.0
908,0.0
971,0.0
972,0.0
1195,0.0
1197,0.0
2,3,12,24, 0,15, 0.00,60.00,Wednesday
7,2.2
718,19.46172970292887
719,7.507456033142655
720,13.61183477537553
619,0.0
633,0.0
659,0.0
661,200.0
690,0.0
716,71.38484684792918
843,-137.77472106748428
844,-137.77472106748428
907,0.0
908,0.0
971,0.0
972,0.0
1195,0.0
1197,0.0
2,3,12,24, 0,16, 0.00,60.00,Wednesday
7,1.7
718,19.106871784373777
719,6.281075279143083
720,13.6584740420244
619,0.0
633,0.0
659,0.0
661,200.0
690,0.0
716,82.02350392427628
843,-275.7614316808067
844,-275.7614316808067
907,0.0
908,0.0
971,0.0
972,0.0
1195,0.0
1197,0.0
2,3,12,24, 0,17, 0.00,60.00,Wednesday
7,1.7
718,19.612960338076157
719,4.699504712942393
720,13.746515936977458
619,1026.2717884184344
633,324.524760867857
659,0.015663603679937944
661,149.15056916611468
690,32.01802959776807
716,0.0
843,742.8886485951771
844,742.8886485951771
907,0.0
908,0.0
971,0.0
972,0.0
1195,0.0
1197,0.0
2,3,12,24, 0,18, 0.00,60.00,Wednesday
7,-0.6
718,19.687405069653927
719,2.565798597806878
720,13.778699726367877
619,1220.730779927886
633,404.36649819180076
659,0.01972437729689102
661,135.967904985726
690,40.31856778662839
716,0.0
843,841.3183802031454
844,841.3183802031454
907,0.0
908,0.0
971,0.0
972,0.0
1195,0.0
1197,0.0
2,3,12,24, 0,19, 0.00,60.00,Wednesday
7,-1.1
718,19.551838893682476
719,1.3167705478162783
720,13.790346758348468
619,1331.7315546310695
633,444.4553396449311
659,0.021742084074553237
661,129.41773662535013
690,44.442932152047575
716,0.0
843,881.1802463897893
844,881.1802463897893
907,0.0
908,0.0
971,0.0
972,0.0
1195,0.0
1197,0.0
2,3,12,24, 0,20, 0.00,60.00,Wednesday
7,-1.1
718,19.502329986757072
719,1.5161369000943115
720,13.857656002363804
619,3227.852604643042
633,1017.105856081878
659,0.04990331310917295
661,37.996726667903836
690,102.00722088586195
716,85.44000000000004
843,1049.9951001440704
844,1049.9951001440704
907,0.0
908,0.0
971,0.0
972,0.0
1195,0.0
1197,0.0
2,3,12,24, 0,21, 0.00,60.00,Wednesday
7,-2.2
718,19.535409537935873
719,1.1673873218476463
720,13.840333749848924
619,3826.235368510425
633,1205.9489956877846
659,0.059788388705946376
661,5.906380275288159
690,122.21310806804954
716,85.44000000000004
843,1435.1176301545302
844,1435.1176301545302
907,0.0
908,0.0
971,0.0
972,0.0
1195,0.0
1197,0.0
2,3,12,24, 0,22, 0.00,60.00,Wednesday
7,-2.8
718,19.67659394283372
719,0.1268374990977963
720,13.783043703929254
619,3229.644870451239
633,1046.6604430821194
659,0.052118357521230764
661,30.805932650995715
690,106.53475681271586
716,29.1909921638653
843,1730.283929513902
844,1730.283929513902
907,0.0
908,0.0
971,0.0
972,0.0
1195,0.0
1197,0.0
2,3,12,24, 0,23, 0.00,60.00,Wednesday
7,-2.8
718,18.890039671973913
719,-0.7829791066846313
720,13.69145263735315
619,1907.128515454552
633,644.9066709817236
659,0.032019258779112124
661,96.05450202202839
690,65.45033423294483
716,0.0
843,1174.5420447276374
844,1174.5420447276374
907,0.0
908,0.0
971,0.0
972,0.0
1195,0.0
1197,0.0
2,3,12,24, 0,24, 0.00,60.00,Wednesday
7,-4.4
718,18.57631536215739
719,-0.9668383561450936
720,13.648678048344426
619,2808.2448537940386
633,933.4130605998123
659,6.860167832578409
661,43.58649726331885
690,98.31081337276287
716,0.0
843,1738.5442750726306
844,1738.5442750726306
907,0.0
908,0.0
971,0.0
972,0.0
1195,0.0
1197,0.0
2,4,12,25, 0, 1, 0.00,60.00,Thursday
7,-3.9
718,18.512528676515053
719,-0.8736613308681204
720,13.593780157096294
619,3785.3845610498765
633,1201.0348348667346
659,1.32091508327752
661,0.0
690,125.933332076268
716,0.0
843,2514.754560904874
844,2514.754560904874
907,0.0
908,0.0
971,0.0
972,0.0
1195,194.66410823459137
1197,194.66410823459137
2,4,12,25, 0, 2, 0.00,60.00,Thursday
7,-3.9
718,18.578455973085447
719,-0.7601862925643611
720,13.51701742463753
619,3786.7210359778423
633,1199.4687692589964
659,1.32091508327752
661,0.0
690,125.933332076268
716,0.0
843,2998.0431902649307
844,2998.0431902649307
907,0.0
908,0.0
971,0.0
972,0.0
1195,767.7467261607298
1197,767.7467261607298
2,4,12,25, 0, 3, 0.00,60.00,Thursday
7,-5.0
718,18.599778764703615
719,-1.297714041223036
720,13.439041870867651
619,3641.464252114067
633,1181.2082648730154
659,7.829153140473239
661,0.0
690,125.933332076268
716,0.0
843,3157.042751177205
844,3157.042751177205
907,0.0
908,0.0
971,0.0
972,0.0
1195,1105.250258868983
1197,1105.250258868983
2,4,12,25, 0, 4, 0.00,60.00,Thursday
7,-5.6
718,18.603921614864493
719,-1.5882778263849355
720,13.358875215429057
619,3564.8299797544223
633,1171.1737070622776
659,11.213029266974104
661,0.0
690,125.933332076268
716,0.0
843,3290.980165424271
844,3290.980165424271
907,0.0
908,0.0
971,0.0
972,0.0
1195,1369.0621302673603
1197,1369.0621302673603
2,4,12,25, 0, 5, 0.00,60.00,Thursday
7,-5.6
718,18.6073129404336
719,-1.9816738514756496
720,13.280747949108502
619,3564.8443146832847
633,1171.15708898149
659,11.213029266974104
661,0.0
690,125.933332076268
716,0.0
843,3309.189824154617
844,3309.189824154617
907,0.0
908,0.0
971,0.0
972,0.0
1195,1415.4847519140687
1197,1415.4847519140687
2,4,12,25, 0, 6, 0.00,60.00,Thursday
7,-6.1
718,19.40232947813057
719,-2.2129650367275024
720,13.199444393249019
619,3506.024277906942
633,1163.7945804483402
659,13.052728414761457
661,0.0
690,125.933332076268
716,0.0
843,4303.125980171404
844,4303.125980171404
907,0.0
908,0.0
971,0.0
972,0.0
1195,2685.5721010740554
1197,2685.5721010740554
2,4,12,25, 0, 7, 0.00,60.00,Thursday
7,-7.2
718,19.577532339244787
719,-2.436159712356746
720,13.154730728416661
619,3340.0041051498674
633,1157.0509589185388
659,23.211256856392314
661,0.0
690,125.933332076268
716,85.44000000000004
843,4195.6569269887095
844,4195.6569269887095
907,0.0
908,0.0
971,0.0
972,0.0
1195,4076.6157770312893
1197,4076.6157770312893
2,4,12,25, 0, 8, 0.00,60.00,Thursday
7,-7.2
718,19.658107862712406
719,-2.9981270464019425
720,13.08335124959012
619,3336.669935082949
633,1160.8603187823346
659,23.211256856392314
661,0.0
690,125.933332076268
716,85.44000000000004
843,3937.5160940667356
844,3937.5160940667356
907,0.0
908,0.0
971,0.0
972,0.0
1195,3824.2629875750636
1197,3824.2629875750636
2,4,12,25, 0, 9, 0.00,60.00,Thursday
7,-3.9
718,19.688855299775142
719,-1.5637005796064607
720,13.039411515583424
619,3708.623216807755
633,1207.6113871592006
659,14.485708240064696
661,0.0
690,125.933332076268
716,76.48117494529147
843,3093.1189311567705
844,3093.1189311567705
907,0.0
908,0.0
971,0.0
972,0.0
1195,2225.823394425167
1197,2225.823394425167
2,4,12,25, 0,10, 0.00,60.00,Thursday
7,-2.2
718,19.71641416256638
719,1.3839205769018441
720,12.984995448255841
619,3940.017466636783
633,1241.426453469275
659,3.285301963705148
661,0.0
690,125.933332076268
716,0.0
843,2473.4136478900837
844,2473.4136478900837
907,0.0
908,0.0
971,0.0
972,0.0
1195,124.69092484570228
1197,124.69092484570228
2,4,12,25, 0,11, 0.00,60.00,Thursday
7,-2.2
718,19.777050333936376
719,4.288525287890064
720,12.893018890277107
619,2966.088148014176
633,961.8962302623597
659,2.543930138537388
661,45.13264432665085
690,97.46468986504232
716,0.0
843,1868.82160847271
844,1868.82160847271
907,0.0
908,0.0
971,0.0
972,0.0
1195,0.0
1197,0.0
2,4,12,25, 0,12, 0.00,60.00,Thursday
7,-0.6
718,19.848981749753392
719,5.982914959623706
720,12.829030260438437
619,2017.8234277400602
633,655.0304777343276
659,0.03188645903914999
661,96.48561553395997
690,65.17905918029595
716,0.0