Program Version,EnergyPlus, Version 22.2.0-c249759bad, YMD=2023.09.01 15:32
1,5,Environment Title[],Latitude[deg],Longitude[deg],Time Zone[],Elevation[m]
2,8,Day of Simulation[],Month[],Day of Month[],DST Indicator[1=yes 0=no],Hour[],StartMinute[],EndMinute[],DayType
3,5,Cumulative Day of Simulation[],Month[],Day of Month[],DST Indicator[1=yes 0=no],DayType  ! When Daily Report Variables Requested
4,2,Cumulative Days of Simulation[],Month[]  ! When Monthly Report Variables Requested
5,1,Cumulative Days of Simulation[] ! When Run Period Report Variables Requested
6,1,Calendar Year of Simulation[] ! When Annual Report Variables Requested
581,11,LIVING,AFN Zone Infiltration Air Change Rate [ach] !RunPeriod [Value,Min,Month,Day,Hour,Minute,Max,Month,Day,Hour,Minute]
582,11,ATTIC,AFN Zone Infiltration Air Change Rate [ach] !RunPeriod [Value,Min,Month,Day,Hour,Minute,Max,Month,Day,Hour,Minute]
583,11,CRAWLSPACE,AFN Zone Infiltration Air Change Rate [ach] !RunPeriod [Value,Min,Month,Day,Hour,Minute,Max,Month,Day,Hour,Minute]
1038,11,Facility,Facility Heating Setpoint Not Met Time [hr] !RunPeriod [Value,Min,Month,Day,Hour,Minute,Max,Month,Day,Hour,Minute]
1039,11,Facility,Facility Cooling Setpoint Not Met Time [hr] !RunPeriod [Value,Min,Month,Day,Hour,Minute,Max,Month,Day,Hour,Minute]
1115,11,DX_HEATING_COIL,Heating Coil Heating Energy [J] !RunPeriod [Value,Min,Month,Day,Hour,Minute,Max,Month,Day,Hour,Minute]
1128,11,DX_HEATING_COIL,Heating Coil Electricity Energy [J] !RunPeriod [Value,Min,Month,Day,Hour,Minute,Max,Month,Day,Hour,Minute]
1153,11,DX_HEATING_COIL,Heating Coil Defrost Electricity Energy [J] !RunPeriod [Value,Min,Month,Day,Hour,Minute,Max,Month,Day,Hour,Minute]
1154,11,DX_HEATING_COIL,Heating Coil Crankcase Heater Electricity Energy [J] !RunPeriod [Value,Min,Month,Day,Hour,Minute,Max,Month,Day,Hour,Minute]
1155,11,HEATING_RESISTANCE_BACKUP,Heating Coil Heating Energy [J] !RunPeriod [Value,Min,Month,Day,Hour,Minute,Max,Month,Day,Hour,Minute]
1156,11,HEATING_RESISTANCE_BACKUP,Heating Coil Electricity Energy [J] !RunPeriod [Value,Min,Month,Day,Hour,Minute,Max,Month,Day,Hour,Minute]
1292,11,WATER HEATER,Water Heater Heat Loss Energy [J] !RunPeriod [Value,Min,Month,Day,Hour,Minute,Max,Month,Day,Hour,Minute]
1306,11,WATER HEATER,Water Heater Heating Energy [J] !RunPeriod [Value,Min,Month,Day,Hour,Minute,Max,Month,Day,Hour,Minute]
1307,11,WATER HEATER,Water Heater Unmet Demand Heat Transfer Energy [J] !RunPeriod [Value,Min,Month,Day,Hour,Minute,Max,Month,Day,Hour,Minute]
1308,11,WATER HEATER,Water Heater Electricity Energy [J] !RunPeriod [Value,Min,Month,Day,Hour,Minute,Max,Month,Day,Hour,Minute]
13,11,Electricity:Facility [J] !RunPeriod [Value,Min,Month,Day,Hour,Minute,Max,Month,Day,Hour,Minute]
1134,11,Heating:Electricity [J] !RunPeriod [Value,Min,Month,Day,Hour,Minute,Max,Month,Day,Hour,Minute]
1096,11,Cooling:Electricity [J] !RunPeriod [Value,Min,Month,Day,Hour,Minute,Max,Month,Day,Hour,Minute]
562,11,Fans:Electricity [J] !RunPeriod [Value,Min,Month,Day,Hour,Minute,Max,Month,Day,Hour,Minute]
1379,11,Pumps:Electricity [J] !RunPeriod [Value,Min,Month,Day,Hour,Minute,Max,Month,Day,Hour,Minute]
1326,11,WaterSystems:Electricity [J] !RunPeriod [Value,Min,Month,Day,Hour,Minute,Max,Month,Day,Hour,Minute]
61,11,InteriorLights:Electricity [J] !RunPeriod [Value,Min,Month,Day,Hour,Minute,Max,Month,Day,Hour,Minute]
1046,11,ExteriorLights:Electricity [J] !RunPeriod [Value,Min,Month,Day,Hour,Minute,Max,Month,Day,Hour,Minute]
134,11,InteriorEquipment:Electricity [J] !RunPeriod [Value,Min,Month,Day,Hour,Minute,Max,Month,Day,Hour,Minute]
170,11,gas_dryer:InteriorEquipment:Electricity [J] !RunPeriod [Value,Min,Month,Day,Hour,Minute,Max,Month,Day,Hour,Minute]
207,11,clotheswasher:InteriorEquipment:Electricity [J] !RunPeriod [Value,Min,Month,Day,Hour,Minute,Max,Month,Day,Hour,Minute]
244,11,dishwasher:InteriorEquipment:Electricity [J] !RunPeriod [Value,Min,Month,Day,Hour,Minute,Max,Month,Day,Hour,Minute]
281,11,refrigerator:InteriorEquipment:Electricity [J] !RunPeriod [Value,Min,Month,Day,Hour,Minute,Max,Month,Day,Hour,Minute]
318,11,electric_mels:InteriorEquipment:Electricity [J] !RunPeriod [Value,Min,Month,Day,Hour,Minute,Max,Month,Day,Hour,Minute]
355,11,NaturalGas:Facility [J] !RunPeriod [Value,Min,Month,Day,Hour,Minute,Max,Month,Day,Hour,Minute]
403,11,InteriorEquipment:NaturalGas [J] !RunPeriod [Value,Min,Month,Day,Hour,Minute,Max,Month,Day,Hour,Minute]
476,11,gas_dryer:InteriorEquipment:NaturalGas [J] !RunPeriod [Value,Min,Month,Day,Hour,Minute,Max,Month,Day,Hour,Minute]
513,11,gas_mels:InteriorEquipment:NaturalGas [J] !RunPeriod [Value,Min,Month,Day,Hour,Minute,Max,Month,Day,Hour,Minute]
End of Data Dictionary
1,EXTREME_WINTER,  34.92, -92.15,  -6.00,  95.00
5,7
1038,0.0,0.0, 1,29, 1,15,0.0, 1,29, 1,15
1039,0.0,0.0, 1,29, 1,15,0.0, 1,29, 1,15
581,0.2587202460186623,0.11865592499703118, 2, 4, 3,50,0.48600029747566414, 1,30, 8,60
582,2.633235809967285,0.0, 2, 1,20,50,8.78618070700604, 2, 3,14,60
583,0.02095833946254806,0.00018782123511655246, 2, 4,23,15,0.07612818011806455, 1,30, 8,60
1115,709192746.5844904,0.0, 1,29,19,30,4100914.5577070583, 2, 2, 6,60
1128,227055941.60739914,0.0, 1,29,19,30,1335329.107804492, 2, 1, 6,30
1153,8785020.711252138,0.0, 1,29,11,35,73817.36950557231, 1,30, 6,45
1154,73811947.12907825,0.0, 1,29, 6, 5,180000.0, 1,29,19,30
1155,18150122.96017607,0.0, 1,29, 1,15,1023416.2625800838, 1,29, 6, 5
1156,18150122.96017607,0.0, 1,29, 1,15,1023416.2625800838, 1,29, 6, 5
1292,-24711030.106004212,-39769.44355984573, 1,29, 1,15,-4644.879037039623, 2, 3,19, 6
1306,216089347.1240047,0.0, 1,29, 1,15,10126846.407157278, 2, 4,19,60
1307,4386546.514758146,0.0, 1,29, 1,15,4386546.514758146, 2, 4,19,60
1308,216089347.1240047,0.0, 1,29, 1,15,10126846.407157278, 2, 4,19,60
13,949804034.5394155,279566.45160502766, 2, 2,14,15,11611314.511488095, 2, 4,19,60
61,301924526.02383536,88139.10953165221, 1,29, 1,15,1282023.4113694867, 1,29,20,15
134,70666020.44019976,63564.01800854099, 1,29, 4,15,156554.22484006523, 2, 3,20,15
170,5241013.419656067,348.4159749238097, 1,29, 4,15,17476.39704006126, 2, 3,12,15
207,6509451.13922267,815.2532113832032, 1,29, 3,15,22990.642799023623, 2, 3,10,15
244,12749673.399825225,1521.856143006317, 1,29, 4,15,53038.631142310165, 2, 3,20,15
281,46165882.481495745,59938.60262432081, 1,29, 5,15,81951.81706819107, 1,29,19,15
318,0.0,0.0, 1,29, 1,15,0.0, 1,29, 1,15
355,197687796.27748066,18561.32405820678, 1,29, 4,15,724774.895203776, 2, 3,18,15
403,197687796.27748066,18561.32405820678, 1,29, 4,15,724774.895203776, 2, 3,18,15
476,106772067.24485716,7098.072629279515, 1,29, 4,15,356036.3026282215, 2, 3,12,15
513,0.0,0.0, 1,29, 1,15,0.0, 1,29, 1,15
562,25127691.303836018,0.0, 1,29,19,30,136912.46804160235, 1,29, 6,30
1046,0.0,0.0, 1,29, 1,15,0.0, 1,29, 1,15
1096,8193417.2396348035,0.0, 1,29, 1,15,308844.1149688822, 2, 3,16,45
1134,327803032.40790546,0.0, 2, 2,12,60,2911007.0266752155, 2, 1, 6,15
1326,216089347.12400475,0.0, 1,29, 1,15,10439902.450902402, 2, 4, 9,45
1379,0.0,0.0, 1,29, 1,15,0.0, 1,29, 1,15
1,EXTREME_SUMMER,  34.92, -92.15,  -6.00,  95.00
5,7
1038,0.0,0.0, 9, 2, 1,15,0.0, 9, 2, 1,15
1039,66.0,0.0, 9, 2, 1,15,0.25, 9, 2,14,30
581,0.10389058477854198,0.0, 9, 3,23,52,0.6223016884558001, 9, 7,22,60
582,3.0142258129139643,0.0, 9, 7,19,57,13.410198221088203, 9, 7,22,55
583,0.045459263422430216,0.00005805735331414462, 9, 4,23, 3,0.07463141933962887, 9, 7,22,60
1115,0.0,0.0, 9, 2, 1,15,0.0, 9, 2, 1,15
1128,0.0,0.0, 9, 2, 1,15,0.0, 9, 2, 1,15
1153,0.0,0.0, 9, 2, 1,15,0.0, 9, 2, 1,15
1154,0.0,0.0, 9, 2, 1,15,0.0, 9, 2, 1,15
1155,0.0,0.0, 9, 2, 1,15,0.0, 9, 2, 1,15
1156,0.0,0.0, 9, 2, 1,15,0.0, 9, 2, 1,15
1292,-21518672.916783188,-34101.1330783086, 9, 7,22,15,-3230.074642075812, 9, 7, 9,53
1306,154497055.8022768,0.0, 9, 2, 1,15,5042028.2360559795, 9, 2, 7,45
1307,102633.12280234823,0.0, 9, 2, 1,15,26421.625343350162, 9, 8,19,60
1308,154497055.8022768,0.0, 9, 2, 1,15,5042028.2360559795, 9, 2, 7,45
13,1207929137.2302153,289062.6559888064, 9, 4, 4,60,13116343.127255123, 9, 8,19,60
61,301924526.02383536,88139.10953165221, 9, 2, 1,15,1282023.4113694867, 9, 2,20,15
134,70666020.44019976,63564.01800854099, 9, 2, 4,15,156554.22484006523, 9, 7,20,15
170,5241013.419656067,348.4159749238097, 9, 2, 4,15,17476.39704006126, 9, 7,12,15
207,6509451.13922267,815.2532113832032, 9, 2, 3,15,22990.642799023623, 9, 7,10,15
244,12749673.399825225,1521.856143006317, 9, 2, 4,15,53038.631142310165, 9, 7,20,15
281,46165882.481495745,59938.60262432081, 9, 2, 5,15,81951.81706819107, 9, 2,19,15
318,0.0,0.0, 9, 2, 1,15,0.0, 9, 2, 1,15
355,197687796.27748066,18561.32405820678, 9, 2, 4,15,724774.895203776, 9, 7,18,15
403,197687796.27748066,18561.32405820678, 9, 2, 4,15,724774.895203776, 9, 7,18,15
476,106772067.24485716,7098.072629279515, 9, 2, 4,15,356036.3026282215, 9, 7,12,15
513,0.0,0.0, 9, 2, 1,15,0.0, 9, 2, 1,15
562,60684335.04502659,13020.254392096642, 9, 4, 5,60,136912.46804160235, 9, 2,13,45
1046,0.0,0.0, 9, 2, 1,15,0.0, 9, 2, 1,15
1096,620157199.9188768,113077.44714611098, 9, 4, 5,60,1609490.3582858366, 9, 4,15,60
1134,0.0,0.0, 9, 2, 1,15,0.0, 9, 2, 1,15
1326,154497055.8022768,0.0, 9, 2, 1,15,10266234.34041437, 9, 8,19,60
1379,0.0,0.0, 9, 2, 1,15,0.0, 9, 2, 1,15
1,ANNUAL,  34.92, -92.15,  -6.00,  95.00
5,365
1038,5.0,0.0, 1, 1, 1,15,0.25, 1, 7, 6,15
1039,899.0,0.0, 1, 1, 1,15,0.25, 3, 3,13,45
581,0.16782395840072198,0.0, 4, 1, 6,30,0.6822412732667785,12,18,17,60
582,2.6642200107264413,0.0, 1,11, 5,60,24.352717345594716, 3, 6,14,60
583,0.02717119227503566,0.0, 5,23,23, 3,0.0812671171458285, 9, 7,22,50
1115,8521623711.566126,0.0, 1, 1, 1,37,4237726.008431216, 2,21, 6,60
1128,2672142651.2661266,0.0, 1, 1, 1,37,1335826.5088715432, 1, 2,11,45
1153,107666673.18186387,0.0, 1, 1, 1,37,115360.64658794281, 1,11, 6,60
1154,1326002158.5280402,0.0, 1, 1, 6, 5,180000.0, 1, 3,20,15
1155,368785547.0355921,0.0, 1, 1, 1,15,3070248.7877402515,12,20, 6,45
1156,368785547.0355921,0.0, 1, 1, 1,15,3070248.7877402515,12,20, 6,45
1292,-1192019151.2941978,-39791.23197667386, 1, 1, 1,15,-2003.4710298937637, 7,20,16,17
1306,9591227040.591444,0.0, 1, 1, 1,15,10177429.023729986, 1, 8, 9,45
1307,109108998.45678957,0.0, 1, 1, 1,15,4388106.721768151, 1,29,19,60
1308,9591227040.591444,0.0, 1, 1, 1,15,10177429.023729986, 1, 8, 9,45
13,49053132971.238,151703.1275401932, 1,13, 4,15,13127910.124222826, 6,25,19,60
61,15743207428.383959,88139.10953165221, 1, 1, 1,15,1282023.4113694867, 1, 1,20,15
134,3685071073.4325233,63564.01800854099, 1, 2, 4,15,156554.22484006523, 1, 1,20,15
170,273393721.45532674,348.4159749238097, 1, 2, 4,15,17476.39704006126, 1, 1,12,15
207,339560869.0695816,815.2532113832032, 1, 2, 3,15,22990.642799023623, 1, 1,10,15
244,664895467.8009144,1521.856143006317, 1, 2, 4,15,53038.631142310165, 1, 1,20,15
281,2407221015.106824,59938.60262432081, 1, 1, 5,15,81951.81706819107, 1, 1,19,15
318,0.0,0.0, 1, 1, 1,15,0.0, 1, 1, 1,15
355,10310294493.051695,18561.32405820678, 1, 2, 4,15,724774.895203776, 1, 1,18,15
403,10310294493.051695,18561.32405820678, 1, 2, 4,15,724774.895203776, 1, 1,18,15
476,5569688622.066177,7098.072629279515, 1, 2, 4,15,356036.3026282215, 1, 1,12,15
513,0.0,0.0, 1, 1, 1,15,0.0, 1, 1, 1,15
562,1780113011.40806,0.0, 1, 1,14,30,136912.46804160238, 5,24,18,15
1046,0.0,0.0, 1, 1, 1,15,0.0, 1, 1, 1,15
1096,13778917387.408737,0.0, 1, 1, 1,15,1613152.503462918, 7,30,15,60
1134,4474597030.01163,0.0, 1, 1,14,30,4336054.27477423,12,20, 6,45
1326,9591227040.591438,0.0, 1, 1, 1,15,10540800.0, 6,18,19,60
1379,0.0,0.0, 1, 1, 1,15,0.0, 1, 1, 1,15
End of Data
 Number of Records Written=          99
