Program Version,EnergyPlus, Version 22.2.0-c249759bad, YMD=2023.09.01 20:29
1,5,Environment Title[],Latitude[deg],Longitude[deg],Time Zone[],Elevation[m]
2,8,Day of Simulation[],Month[],Day of Month[],DST Indicator[1=yes 0=no],Hour[],StartMinute[],EndMinute[],DayType
3,5,Cumulative Day of Simulation[],Month[],Day of Month[],DST Indicator[1=yes 0=no],DayType  ! When Daily Report Variables Requested
4,2,Cumulative Days of Simulation[],Month[]  ! When Monthly Report Variables Requested
5,1,Cumulative Days of Simulation[] ! When Run Period Report Variables Requested
6,1,Calendar Year of Simulation[] ! When Annual Report Variables Requested
581,11,LIVING,AFN Zone Infiltration Air Change Rate [ach] !RunPeriod [Value,Min,Month,Day,Hour,Minute,Max,Month,Day,Hour,Minute]
582,11,ATTIC,AFN Zone Infiltration Air Change Rate [ach] !RunPeriod [Value,Min,Month,Day,Hour,Minute,Max,Month,Day,Hour,Minute]
583,11,CRAWLSPACE,AFN Zone Infiltration Air Change Rate [ach] !RunPeriod [Value,Min,Month,Day,Hour,Minute,Max,Month,Day,Hour,Minute]
1038,11,Facility,Facility Heating Setpoint Not Met Time [hr] !RunPeriod [Value,Min,Month,Day,Hour,Minute,Max,Month,Day,Hour,Minute]
1039,11,Facility,Facility Cooling Setpoint Not Met Time [hr] !RunPeriod [Value,Min,Month,Day,Hour,Minute,Max,Month,Day,Hour,Minute]
1115,11,DX_HEATING_COIL,Heating Coil Heating Energy [J] !RunPeriod [Value,Min,Month,Day,Hour,Minute,Max,Month,Day,Hour,Minute]
1128,11,DX_HEATING_COIL,Heating Coil Electricity Energy [J] !RunPeriod [Value,Min,Month,Day,Hour,Minute,Max,Month,Day,Hour,Minute]
1153,11,DX_HEATING_COIL,Heating Coil Defrost Electricity Energy [J] !RunPeriod [Value,Min,Month,Day,Hour,Minute,Max,Month,Day,Hour,Minute]
1154,11,DX_HEATING_COIL,Heating Coil Crankcase Heater Electricity Energy [J] !RunPeriod [Value,Min,Month,Day,Hour,Minute,Max,Month,Day,Hour,Minute]
1155,11,HEATING_RESISTANCE_BACKUP,Heating Coil Heating Energy [J] !RunPeriod [Value,Min,Month,Day,Hour,Minute,Max,Month,Day,Hour,Minute]
1156,11,HEATING_RESISTANCE_BACKUP,Heating Coil Electricity Energy [J] !RunPeriod [Value,Min,Month,Day,Hour,Minute,Max,Month,Day,Hour,Minute]
1292,11,WATER HEATER,Water Heater Heat Loss Energy [J] !RunPeriod [Value,Min,Month,Day,Hour,Minute,Max,Month,Day,Hour,Minute]
1306,11,WATER HEATER,Water Heater Heating Energy [J] !RunPeriod [Value,Min,Month,Day,Hour,Minute,Max,Month,Day,Hour,Minute]
1307,11,WATER HEATER,Water Heater Unmet Demand Heat Transfer Energy [J] !RunPeriod [Value,Min,Month,Day,Hour,Minute,Max,Month,Day,Hour,Minute]
1308,11,WATER HEATER,Water Heater Electricity Energy [J] !RunPeriod [Value,Min,Month,Day,Hour,Minute,Max,Month,Day,Hour,Minute]
13,11,Electricity:Facility [J] !RunPeriod [Value,Min,Month,Day,Hour,Minute,Max,Month,Day,Hour,Minute]
1134,11,Heating:Electricity [J] !RunPeriod [Value,Min,Month,Day,Hour,Minute,Max,Month,Day,Hour,Minute]
1096,11,Cooling:Electricity [J] !RunPeriod [Value,Min,Month,Day,Hour,Minute,Max,Month,Day,Hour,Minute]
562,11,Fans:Electricity [J] !RunPeriod [Value,Min,Month,Day,Hour,Minute,Max,Month,Day,Hour,Minute]
1379,11,Pumps:Electricity [J] !RunPeriod [Value,Min,Month,Day,Hour,Minute,Max,Month,Day,Hour,Minute]
1326,11,WaterSystems:Electricity [J] !RunPeriod [Value,Min,Month,Day,Hour,Minute,Max,Month,Day,Hour,Minute]
61,11,InteriorLights:Electricity [J] !RunPeriod [Value,Min,Month,Day,Hour,Minute,Max,Month,Day,Hour,Minute]
1046,11,ExteriorLights:Electricity [J] !RunPeriod [Value,Min,Month,Day,Hour,Minute,Max,Month,Day,Hour,Minute]
134,11,InteriorEquipment:Electricity [J] !RunPeriod [Value,Min,Month,Day,Hour,Minute,Max,Month,Day,Hour,Minute]
170,11,gas_dryer:InteriorEquipment:Electricity [J] !RunPeriod [Value,Min,Month,Day,Hour,Minute,Max,Month,Day,Hour,Minute]
207,11,clotheswasher:InteriorEquipment:Electricity [J] !RunPeriod [Value,Min,Month,Day,Hour,Minute,Max,Month,Day,Hour,Minute]
244,11,dishwasher:InteriorEquipment:Electricity [J] !RunPeriod [Value,Min,Month,Day,Hour,Minute,Max,Month,Day,Hour,Minute]
281,11,refrigerator:InteriorEquipment:Electricity [J] !RunPeriod [Value,Min,Month,Day,Hour,Minute,Max,Month,Day,Hour,Minute]
318,11,electric_mels:InteriorEquipment:Electricity [J] !RunPeriod [Value,Min,Month,Day,Hour,Minute,Max,Month,Day,Hour,Minute]
355,11,NaturalGas:Facility [J] !RunPeriod [Value,Min,Month,Day,Hour,Minute,Max,Month,Day,Hour,Minute]
403,11,InteriorEquipment:NaturalGas [J] !RunPeriod [Value,Min,Month,Day,Hour,Minute,Max,Month,Day,Hour,Minute]
476,11,gas_dryer:InteriorEquipment:NaturalGas [J] !RunPeriod [Value,Min,Month,Day,Hour,Minute,Max,Month,Day,Hour,Minute]
513,11,gas_mels:InteriorEquipment:NaturalGas [J] !RunPeriod [Value,Min,Month,Day,Hour,Minute,Max,Month,Day,Hour,Minute]
End of Data Dictionary
1,EXTREME_WINTER,  43.12, -76.12,  -5.00, 124.00
5,7
1038,4.0,0.0, 1,20, 1,15,0.25, 1,23, 6,15
1039,0.0,0.0, 1,20, 1,15,0.0, 1,20, 1,15
581,0.48286476634962705,0.30322514126753464, 1,26,23, 5,0.9850982982037975, 1,20, 9,30
582,6.673852850303602,0.1349010183774526, 1,21, 9,50,35.508240301739725, 1,20,13,52
583,0.0689224892180659,0.00048539018056453103, 1,26,23, 5,0.08334828377838724, 1,22,10,60
1115,2082780182.4803298,0.0, 1,20,23, 5,4045102.3981507397, 1,20, 9,15
1128,775639525.6321852,0.0, 1,20,23, 5,1320968.4955918395, 1,20,22,30
1153,4981771.06957962,0.0, 1,20, 1,46,69059.44901046612, 1,20, 8,60
1154,7233682.09756026,0.0, 1,20, 6, 5,119713.25577900151, 1,20,12,60
1155,1464446486.1495123,0.0, 1,20, 1, 5,6274490.6171945585, 1,24, 4,45
1156,1464446486.1495123,0.0, 1,20, 1, 5,6274490.6171945585, 1,24, 4,45
1292,-25401401.676278394,-39759.10792433665, 1,24, 1,30,-4786.257858638532, 1,23,12,45
1306,195855084.5320735,0.0, 1,20, 1, 5,4050000.0, 1,20, 8,45
1307,42836548.169974275,0.0, 1,20, 1, 5,4522147.50643956, 1,22, 9,30
1308,195855084.5320735,0.0, 1,20, 1, 5,4050000.0, 1,20, 8,45
13,2903589438.592689,883298.7781198822, 1,20, 2,15,12212992.62523024, 1,24, 8,30
61,301924526.02383536,88139.10953165221, 1,20, 1,15,1282023.4113694867, 1,20,20,15
134,70666020.44019976,63564.01800854099, 1,20, 4,15,156554.22484006523, 1,25,20,15
170,5241013.419656067,348.4159749238097, 1,20, 4,15,17476.39704006126, 1,25,12,15
207,6509451.13922267,815.2532113832032, 1,20, 3,15,22990.642799023623, 1,25,10,15
244,12749673.399825225,1521.856143006317, 1,20, 4,15,53038.631142310165, 1,25,20,15
281,46165882.481495745,59938.60262432081, 1,20, 5,15,81951.81706819107, 1,20,19,15
318,0.0,0.0, 1,20, 1,15,0.0, 1,20, 1,15
355,197687796.27748066,18561.32405820678, 1,20, 4,15,724774.895203776, 1,25,18,15
403,197687796.27748066,18561.32405820678, 1,20, 4,15,724774.895203776, 1,25,18,15
476,106772067.24485716,7098.072629279515, 1,20, 4,15,356036.3026282215, 1,25,12,15
513,0.0,0.0, 1,20, 1,15,0.0, 1,20, 1,15
562,82842342.64774165,43929.40173790914, 1,20,12,60,131162.12503312086, 1,20,22,30
1046,0.0,0.0, 1,20, 1,15,0.0, 1,20, 1,15
1096,0.0,0.0, 1,20, 1,15,0.0, 1,20, 1,15
1134,2252301464.948837,586138.2338147052, 1,20,12,60,7432048.768335521, 1,22, 6,60
1326,195855084.5320735,0.0, 1,20, 1,15,4050000.0, 1,20, 8,45
1379,0.0,0.0, 1,20, 1,15,0.0, 1,20, 1,15
1,EXTREME_SUMMER,  43.12, -76.12,  -5.00, 124.00
5,7
1038,0.0,0.0, 7,13, 1,15,0.0, 7,13, 1,15
1039,45.0,0.0, 7,13, 1,15,0.25, 7,14,15,15
581,0.12310626077937178,0.0, 7,14, 6, 7,0.448542777866817, 7,19,21,48
582,3.7680087100653994,0.0, 7,13, 2,22,12.904191791295393, 7,19,21,46
583,0.03889860222258751,0.0, 7,14, 6, 7,0.07104900407797442, 7,19,21,46
1115,0.0,0.0, 7,13, 1, 7,0.0, 7,13, 1, 7
1128,0.0,0.0, 7,13, 1, 7,0.0, 7,13, 1, 7
1153,0.0,0.0, 7,13, 1, 7,0.0, 7,13, 1, 7
1154,0.0,0.0, 7,13, 1, 7,0.0, 7,13, 1, 7
1155,0.0,0.0, 7,13, 1, 7,0.0, 7,13, 1, 7
1156,0.0,0.0, 7,13, 1, 7,0.0, 7,13, 1, 7
1292,-21834861.943725124,-34250.71546181582, 7,18, 6,30,-4020.8186477091085, 7,15, 8,41
1306,151753951.24199286,0.0, 7,13, 1, 7,2401125.623014402, 7,19,13,60
1307,23923279.500468317,0.0, 7,13, 1, 7,1746829.1215344316, 7,18,10,18
1308,151753951.24199286,0.0, 7,13, 1, 7,2401125.623014402, 7,19,13,60
13,1109289273.1294267,151703.1275401932, 7,13, 4,45,6877017.6928624455, 7,19,20,60
61,301924526.02383536,88139.10953165221, 7,13, 1,15,1282023.4113694867, 7,13,20,15
134,70666020.44019976,63564.01800854099, 7,13, 4,15,156554.22484006523, 7,18,20,15
170,5241013.419656067,348.4159749238097, 7,13, 4,15,17476.39704006126, 7,18,12,15
207,6509451.13922267,815.2532113832032, 7,13, 3,15,22990.642799023623, 7,18,10,15
244,12749673.399825225,1521.856143006317, 7,13, 4,15,53038.631142310165, 7,18,20,15
281,46165882.481495745,59938.60262432081, 7,13, 5,15,81951.81706819107, 7,13,19,15
318,0.0,0.0, 7,13, 1,15,0.0, 7,13, 1,15
355,197687796.27748066,18561.32405820678, 7,13, 4,15,724774.895203776, 7,18,18,15
403,197687796.27748066,18561.32405820678, 7,13, 4,15,724774.895203776, 7,18,18,15
476,106772067.24485716,7098.072629279515, 7,13, 4,15,356036.3026282215, 7,18,12,15
513,0.0,0.0, 7,13, 1,15,0.0, 7,13, 1,15
562,53021811.91393386,0.0, 7,13, 4,45,131162.12503312086, 7,14,14,30
1046,0.0,0.0, 7,13, 1,15,0.0, 7,13, 1,15
1096,531922963.509466,0.0, 7,13, 4,45,1469770.3706669323, 7,19,17,60
1134,0.0,0.0, 7,13, 1,15,0.0, 7,13, 1,15
1326,151753951.24199283,0.0, 7,13, 1,15,4050000.0, 7,13, 8,45
1379,0.0,0.0, 7,13, 1,15,0.0, 7,13, 1,15
1,ANNUAL,  43.12, -76.12,  -5.00, 124.00
5,365
1038,18.75,0.0, 1, 1, 1,15,0.25, 1, 3, 6,15
1039,183.75,0.0, 1, 1, 1,15,0.25, 5, 1,12,45
581,0.270548138793238,0.0, 5,31,24,52,1.1490099184998308,12,16,16,52
582,4.5581216307622565,0.0, 1, 8, 3,30,39.47536216709325, 5, 9,19,52
583,0.030108907164939042,0.0, 6, 7,23, 3,0.08780784172322058, 3,14,14,30
1115,36681979452.24306,0.0, 1, 1,23, 5,5041640.376507096, 1,19, 6,60
1128,11800434380.829468,0.0, 1, 1,23, 5,1406560.8717774039, 1,19, 7,30
1153,371965936.30840224,0.0, 1, 1,23, 5,128636.59677284962,12,19, 9,60
1154,1483611345.8215652,0.0, 1, 1, 6, 5,180000.0, 1,12,19,45
1155,7063687416.395549,0.0, 1, 1, 1,15,6274490.6171945585, 1,24, 4,15
1156,7063687416.395549,0.0, 1, 1, 1,15,6274490.6171945585, 1,24, 4,15
1292,-1241195806.714405,-39913.80795153753, 1,24, 6,30,-2013.6194141041644, 4,15,10,30
1306,9071460940.947502,0.0, 1, 1, 1,15,4050000.0, 1, 2, 8,45
1307,1691334908.2517488,0.0, 1, 1, 1,15,10641235.845133003, 2,11,10,30
1308,9071460940.947502,0.0, 1, 1, 1,15,4050000.0, 1, 2, 8,45
13,57658609094.71173,151703.1275401932, 4,17, 4,15,11849525.718545899, 1,24, 7,30
61,15743207428.383959,88139.10953165221, 1, 1, 1,15,1282023.4113694867, 1, 1,20,15
134,3685071073.4325233,63564.01800854099, 1, 2, 4,15,156554.22484006523, 1, 1,20,15
170,273393721.45532674,348.4159749238097, 1, 2, 4,15,17476.39704006126, 1, 1,12,15
207,339560869.0695816,815.2532113832032, 1, 2, 3,15,22990.642799023623, 1, 1,10,15
244,664895467.8009144,1521.856143006317, 1, 2, 4,15,53038.631142310165, 1, 1,20,15
281,2407221015.106824,59938.60262432081, 1, 1, 5,15,81951.81706819107, 1, 1,19,15
318,0.0,0.0, 1, 1, 1,15,0.0, 1, 1, 1,15
355,10310294493.051695,18561.32405820678, 1, 2, 4,15,724774.895203776, 1, 1,18,15
403,10310294493.051695,18561.32405820678, 1, 2, 4,15,724774.895203776, 1, 1,18,15
476,5569688622.066177,7098.072629279515, 1, 2, 4,15,356036.3026282215, 1, 1,12,15
513,0.0,0.0, 1, 1, 1,15,0.0, 1, 1, 1,15
562,1936531722.7999878,0.0, 1,12,12,60,131162.12503312086, 1, 1, 6,45
1046,0.0,0.0, 1, 1, 1,15,0.0, 1, 1, 1,15
1096,6502638849.791136,0.0, 1, 1, 1,15,1520065.365353749, 6, 8,15,60
1134,20719699079.355015,0.0, 1,12,13,60,7522657.013852432,12,16,16,45
1326,9071460940.9475,0.0, 1, 1, 1,15,4050000.0000000014, 4,15,10,45
1379,0.0,0.0, 1, 1, 1,15,0.0, 1, 1, 1,15
End of Data
 Number of Records Written=          99
