Program Version,EnergyPlus, Version 22.2.0-c249759bad, YMD=2023.09.01 20:20
1,5,Environment Title[],Latitude[deg],Longitude[deg],Time Zone[],Elevation[m]
2,8,Day of Simulation[],Month[],Day of Month[],DST Indicator[1=yes 0=no],Hour[],StartMinute[],EndMinute[],DayType
3,5,Cumulative Day of Simulation[],Month[],Day of Month[],DST Indicator[1=yes 0=no],DayType  ! When Daily Report Variables Requested
4,2,Cumulative Days of Simulation[],Month[]  ! When Monthly Report Variables Requested
5,1,Cumulative Days of Simulation[] ! When Run Period Report Variables Requested
6,1,Calendar Year of Simulation[] ! When Annual Report Variables Requested
581,11,LIVING,AFN Zone Infiltration Air Change Rate [ach] !RunPeriod [Value,Min,Month,Day,Hour,Minute,Max,Month,Day,Hour,Minute]
582,11,ATTIC,AFN Zone Infiltration Air Change Rate [ach] !RunPeriod [Value,Min,Month,Day,Hour,Minute,Max,Month,Day,Hour,Minute]
583,11,CRAWLSPACE,AFN Zone Infiltration Air Change Rate [ach] !RunPeriod [Value,Min,Month,Day,Hour,Minute,Max,Month,Day,Hour,Minute]
1038,11,Facility,Facility Heating Setpoint Not Met Time [hr] !RunPeriod [Value,Min,Month,Day,Hour,Minute,Max,Month,Day,Hour,Minute]
1039,11,Facility,Facility Cooling Setpoint Not Met Time [hr] !RunPeriod [Value,Min,Month,Day,Hour,Minute,Max,Month,Day,Hour,Minute]
1115,11,DX_HEATING_COIL,Heating Coil Heating Energy [J] !RunPeriod [Value,Min,Month,Day,Hour,Minute,Max,Month,Day,Hour,Minute]
1128,11,DX_HEATING_COIL,Heating Coil Electricity Energy [J] !RunPeriod [Value,Min,Month,Day,Hour,Minute,Max,Month,Day,Hour,Minute]
1153,11,DX_HEATING_COIL,Heating Coil Defrost Electricity Energy [J] !RunPeriod [Value,Min,Month,Day,Hour,Minute,Max,Month,Day,Hour,Minute]
1154,11,DX_HEATING_COIL,Heating Coil Crankcase Heater Electricity Energy [J] !RunPeriod [Value,Min,Month,Day,Hour,Minute,Max,Month,Day,Hour,Minute]
1155,11,HEATING_RESISTANCE_BACKUP,Heating Coil Heating Energy [J] !RunPeriod [Value,Min,Month,Day,Hour,Minute,Max,Month,Day,Hour,Minute]
1156,11,HEATING_RESISTANCE_BACKUP,Heating Coil Electricity Energy [J] !RunPeriod [Value,Min,Month,Day,Hour,Minute,Max,Month,Day,Hour,Minute]
1292,11,WATER HEATER,Water Heater Heat Loss Energy [J] !RunPeriod [Value,Min,Month,Day,Hour,Minute,Max,Month,Day,Hour,Minute]
1306,11,WATER HEATER,Water Heater Heating Energy [J] !RunPeriod [Value,Min,Month,Day,Hour,Minute,Max,Month,Day,Hour,Minute]
1307,11,WATER HEATER,Water Heater Unmet Demand Heat Transfer Energy [J] !RunPeriod [Value,Min,Month,Day,Hour,Minute,Max,Month,Day,Hour,Minute]
1308,11,WATER HEATER,Water Heater Electricity Energy [J] !RunPeriod [Value,Min,Month,Day,Hour,Minute,Max,Month,Day,Hour,Minute]
13,11,Electricity:Facility [J] !RunPeriod [Value,Min,Month,Day,Hour,Minute,Max,Month,Day,Hour,Minute]
1134,11,Heating:Electricity [J] !RunPeriod [Value,Min,Month,Day,Hour,Minute,Max,Month,Day,Hour,Minute]
1096,11,Cooling:Electricity [J] !RunPeriod [Value,Min,Month,Day,Hour,Minute,Max,Month,Day,Hour,Minute]
562,11,Fans:Electricity [J] !RunPeriod [Value,Min,Month,Day,Hour,Minute,Max,Month,Day,Hour,Minute]
1379,11,Pumps:Electricity [J] !RunPeriod [Value,Min,Month,Day,Hour,Minute,Max,Month,Day,Hour,Minute]
1326,11,WaterSystems:Electricity [J] !RunPeriod [Value,Min,Month,Day,Hour,Minute,Max,Month,Day,Hour,Minute]
61,11,InteriorLights:Electricity [J] !RunPeriod [Value,Min,Month,Day,Hour,Minute,Max,Month,Day,Hour,Minute]
1046,11,ExteriorLights:Electricity [J] !RunPeriod [Value,Min,Month,Day,Hour,Minute,Max,Month,Day,Hour,Minute]
134,11,InteriorEquipment:Electricity [J] !RunPeriod [Value,Min,Month,Day,Hour,Minute,Max,Month,Day,Hour,Minute]
170,11,gas_dryer:InteriorEquipment:Electricity [J] !RunPeriod [Value,Min,Month,Day,Hour,Minute,Max,Month,Day,Hour,Minute]
207,11,clotheswasher:InteriorEquipment:Electricity [J] !RunPeriod [Value,Min,Month,Day,Hour,Minute,Max,Month,Day,Hour,Minute]
244,11,dishwasher:InteriorEquipment:Electricity [J] !RunPeriod [Value,Min,Month,Day,Hour,Minute,Max,Month,Day,Hour,Minute]
281,11,refrigerator:InteriorEquipment:Electricity [J] !RunPeriod [Value,Min,Month,Day,Hour,Minute,Max,Month,Day,Hour,Minute]
318,11,electric_mels:InteriorEquipment:Electricity [J] !RunPeriod [Value,Min,Month,Day,Hour,Minute,Max,Month,Day,Hour,Minute]
355,11,NaturalGas:Facility [J] !RunPeriod [Value,Min,Month,Day,Hour,Minute,Max,Month,Day,Hour,Minute]
403,11,InteriorEquipment:NaturalGas [J] !RunPeriod [Value,Min,Month,Day,Hour,Minute,Max,Month,Day,Hour,Minute]
476,11,gas_dryer:InteriorEquipment:NaturalGas [J] !RunPeriod [Value,Min,Month,Day,Hour,Minute,Max,Month,Day,Hour,Minute]
513,11,gas_mels:InteriorEquipment:NaturalGas [J] !RunPeriod [Value,Min,Month,Day,Hour,Minute,Max,Month,Day,Hour,Minute]
End of Data Dictionary
1,EXTREME_WINTER,  42.94, -78.72,  -5.00, 218.20
5,7
1038,0.75,0.0, 2, 3, 1,15,0.25, 2, 3, 6,15
1039,0.0,0.0, 2, 3, 1,15,0.0, 2, 3, 1,15
581,0.38589371295742075,0.25436043427571264, 2, 8,10,60,0.8432830203585545, 2, 8,18,55
582,4.482201376956787,0.14063607192457003, 2, 5, 2,60,12.97646513488581, 2, 4, 3,60
583,0.05904316121111675,0.0007212176255973146, 2, 4,23, 5,0.07922450691944297, 2, 8,18,50
1115,2266263307.904768,0.0, 2, 3,23, 5,4567965.579010794, 2, 8, 6,60
1128,777201690.4457427,0.0, 2, 3,23, 5,1405432.0873406073, 2, 8, 6,60
1153,21126259.3846888,0.0, 2, 3,23, 5,100093.2340400499, 2, 8,15,60
1154,17393680.487656534,0.0, 2, 3, 1,15,180000.0, 2, 6,15,30
1155,526341756.87915474,0.0, 2, 3,12,48,3139144.4376156745, 2, 3, 6,45
1156,526341756.87915474,0.0, 2, 3,12,48,3139144.4376156745, 2, 3, 6,45
1292,-25397387.812182333,-39760.80251930981, 2, 3, 1,15,-6265.511767251852, 2, 3,15,60
1306,133901977.13739552,0.0, 2, 3, 1,15,4050000.0, 2, 3, 7,15
1307,28562618.790625773,0.0, 2, 3, 1,15,8142032.456182974, 2, 3, 6,60
1308,133901977.13739552,0.0, 2, 3, 1,15,4050000.0, 2, 3, 7,15
13,1922160906.035467,452017.0388981225, 2, 6,15,30,9238756.551514465, 2, 3, 6,15
61,301924526.02383536,88139.10953165221, 2, 3, 1,15,1282023.4113694867, 2, 3,20,15
134,70666020.44019976,63564.01800854099, 2, 3, 4,15,156554.22484006523, 2, 8,20,15
170,5241013.419656067,348.4159749238097, 2, 3, 4,15,17476.39704006126, 2, 8,12,15
207,6509451.13922267,815.2532113832032, 2, 3, 3,15,22990.642799023623, 2, 8,10,15
244,12749673.399825225,1521.856143006317, 2, 3, 4,15,53038.631142310165, 2, 8,20,15
281,46165882.481495745,59938.60262432081, 2, 3, 5,15,81951.81706819107, 2, 3,19,15
318,0.0,0.0, 2, 3, 1,15,0.0, 2, 3, 1,15
355,197687796.27748066,18561.32405820678, 2, 3, 4,15,724774.895203776, 2, 8,18,15
403,197687796.27748066,18561.32405820678, 2, 3, 4,15,724774.895203776, 2, 8,18,15
476,106772067.24485716,7098.072629279515, 2, 3, 4,15,356036.3026282215, 2, 8,12,15
513,0.0,0.0, 2, 3, 1,15,0.0, 2, 3, 1,15
562,73604995.23679443,0.0, 2, 6,15,30,128176.50642086344, 2, 3, 1,15
1046,0.0,0.0, 2, 3, 1,15,0.0, 2, 3, 1,15
1096,0.0,0.0, 2, 3, 1,15,0.0, 2, 3, 1,15
1134,1342063387.1972425,180000.0, 2, 6,15,30,5171187.7854252225, 2, 4, 6,15
1326,133901977.13739552,0.0, 2, 3, 1,15,4050000.0, 2, 3, 7,15
1379,0.0,0.0, 2, 3, 1,15,0.0, 2, 3, 1,15
1,EXTREME_SUMMER,  42.94, -78.72,  -5.00, 218.20
5,7
1038,0.0,0.0, 7,13, 1,15,0.0, 7,13, 1,15
1039,24.0,0.0, 7,13, 1,15,0.25, 7,14,16,30
581,0.1978702810073932,0.003069165410647525, 7,15, 2,60,0.9977380504837329, 7,19,22,52
582,5.082383061745247,0.0, 7,13, 4,60,23.347983769953082, 7,19,22,52
583,0.03663788506762513,0.00007644334370610865, 7,13, 4,45,0.07276792652068108, 7,19,17, 7
1115,0.0,0.0, 7,13, 1, 7,0.0, 7,13, 1, 7
1128,0.0,0.0, 7,13, 1, 7,0.0, 7,13, 1, 7
1153,0.0,0.0, 7,13, 1, 7,0.0, 7,13, 1, 7
1154,0.0,0.0, 7,13, 1, 7,0.0, 7,13, 1, 7
1155,0.0,0.0, 7,13, 1, 7,0.0, 7,13, 1, 7
1156,0.0,0.0, 7,13, 1, 7,0.0, 7,13, 1, 7
1292,-22035175.54879612,-34473.16857076785, 7,13, 6,30,-3696.3140329317616, 7,14, 9,59
1306,104997434.7604751,0.0, 7,13, 1, 7,3533952.636745996, 7,19,15,60
1307,15434671.246916672,0.0, 7,13, 1, 7,3025764.3235365357, 7,13, 6,60
1308,104997434.7604751,0.0, 7,13, 1, 7,3533952.636745996, 7,19,15,60
13,1055576409.3265673,151703.1275401932, 7,13, 4,15,5434610.198143186, 7,18,10,30
61,301924526.02383536,88139.10953165221, 7,13, 1,15,1282023.4113694867, 7,13,20,15
134,70666020.44019976,63564.01800854099, 7,13, 4,15,156554.22484006523, 7,18,20,15
170,5241013.419656067,348.4159749238097, 7,13, 4,15,17476.39704006126, 7,18,12,15
207,6509451.13922267,815.2532113832032, 7,13, 3,15,22990.642799023623, 7,18,10,15
244,12749673.399825225,1521.856143006317, 7,13, 4,15,53038.631142310165, 7,18,20,15
281,46165882.481495745,59938.60262432081, 7,13, 5,15,81951.81706819107, 7,13,19,15
318,0.0,0.0, 7,13, 1,15,0.0, 7,13, 1,15
355,197687796.27748066,18561.32405820678, 7,13, 4,15,724774.895203776, 7,18,18,15
403,197687796.27748066,18561.32405820678, 7,13, 4,15,724774.895203776, 7,18,18,15
476,106772067.24485716,7098.072629279515, 7,13, 4,15,356036.3026282215, 7,18,12,15
513,0.0,0.0, 7,13, 1,15,0.0, 7,13, 1,15
562,48542064.62412058,0.0, 7,13, 3,45,128176.50642086344, 7,14,15,45
1046,0.0,0.0, 7,13, 1,15,0.0, 7,13, 1,15
1096,529446363.4779377,0.0, 7,13, 3,45,1528846.438416128, 7,16,17,60
1134,0.0,0.0, 7,13, 1,15,0.0, 7,13, 1,15
1326,104997434.76047513,0.0, 7,13, 1,15,4050000.0, 7,13, 7,15
1379,0.0,0.0, 7,13, 1,15,0.0, 7,13, 1,15
1,ANNUAL,  42.94, -78.72,  -5.00, 218.20
5,365
1038,29.5,0.0, 1, 1, 1,15,0.25, 1, 4, 6,15
1039,45.5,0.0, 1, 1, 1,15,0.25, 4, 9,15,60
581,0.3016182873200416,0.0, 5,25,23, 3,1.340964983857404,12,25, 2,60
582,5.475609688988433,0.0, 1, 8, 2,45,35.02654089894702, 5, 8,12,60
583,0.02868381975321783,0.0, 5,25,23, 3,0.08369510343849255, 1,12,13,60
1115,41599916108.05328,0.0, 1, 1,23, 5,4992159.437735337, 2,19, 6,60
1128,13260046609.49234,0.0, 1, 1,23, 5,1454490.3355404476, 3, 1,11,15
1153,451224433.05342513,0.0, 1, 1,23, 5,152915.75647181243, 3, 2, 6,45
1154,1430042055.451033,0.0, 1, 1, 6, 5,180000.0, 1, 6,17,15
1155,5884513681.619907,0.0, 1, 1, 1,15,4628876.478966083, 2,10, 6,45
1156,5884513681.619907,0.0, 1, 1, 1,15,4628876.478966083, 2,10, 6,45
1292,-1247136744.3881247,-44354.79041802319, 3, 6, 6,45,-2674.3921716037894, 5,25,18,46
1306,6260502358.676167,0.0, 1, 1, 1,15,4050000.0, 1, 2, 7,15
1307,1121981608.0234027,0.0, 1, 1, 1,15,8167997.716794251, 2,13, 6,60
1308,6260502358.676167,0.0, 1, 1, 1,15,4050000.0, 1, 2, 7,15
13,54415409729.862144,151703.1275401932, 4,19, 4,15,10809391.28280092, 3, 7, 7,30
61,15743207428.383959,88139.10953165221, 1, 1, 1,15,1282023.4113694867, 1, 1,20,15
134,3685071073.4325233,63564.01800854099, 1, 2, 4,15,156554.22484006523, 1, 1,20,15
170,273393721.45532674,348.4159749238097, 1, 2, 4,15,17476.39704006126, 1, 1,12,15
207,339560869.0695816,815.2532113832032, 1, 2, 3,15,22990.642799023623, 1, 1,10,15
244,664895467.8009144,1521.856143006317, 1, 2, 4,15,53038.631142310165, 1, 1,20,15
281,2407221015.106824,59938.60262432081, 1, 1, 5,15,81951.81706819107, 1, 1,19,15
318,0.0,0.0, 1, 1, 1,15,0.0, 1, 1, 1,15
355,10310294493.051695,18561.32405820678, 1, 2, 4,15,724774.895203776, 1, 1,18,15
403,10310294493.051695,18561.32405820678, 1, 2, 4,15,724774.895203776, 1, 1,18,15
476,5569688622.066177,7098.072629279515, 1, 2, 4,15,356036.3026282215, 1, 1,12,15
513,0.0,0.0, 1, 1, 1,15,0.0, 1, 1, 1,15
562,1818203786.266412,0.0, 1, 6,17,15,128176.50642086347, 6,16,19,15
1046,0.0,0.0, 1, 1, 1,15,0.0, 1, 1, 1,15
1096,5882598303.4850645,0.0, 1, 1, 1,15,1531772.7062750014, 7,16,17,60
1134,21025826779.6168,0.0, 3,13,12,45,5981472.942656116, 1,13, 6,15
1326,6260502358.676152,0.0, 1, 1, 1,15,4050000.0000000014,10, 7,10,30
1379,0.0,0.0, 1, 1, 1,15,0.0, 1, 1, 1,15
End of Data
 Number of Records Written=          99
