Program Version,EnergyPlus, Version 22.2.0-c249759bad, YMD=2023.09.01 20:55
1,5,Environment Title[],Latitude[deg],Longitude[deg],Time Zone[],Elevation[m]
2,8,Day of Simulation[],Month[],Day of Month[],DST Indicator[1=yes 0=no],Hour[],StartMinute[],EndMinute[],DayType
3,5,Cumulative Day of Simulation[],Month[],Day of Month[],DST Indicator[1=yes 0=no],DayType  ! When Daily Report Variables Requested
4,2,Cumulative Days of Simulation[],Month[]  ! When Monthly Report Variables Requested
5,1,Cumulative Days of Simulation[] ! When Run Period Report Variables Requested
6,1,Calendar Year of Simulation[] ! When Annual Report Variables Requested
581,11,LIVING,AFN Zone Infiltration Air Change Rate [ach] !RunPeriod [Value,Min,Month,Day,Hour,Minute,Max,Month,Day,Hour,Minute]
582,11,ATTIC,AFN Zone Infiltration Air Change Rate [ach] !RunPeriod [Value,Min,Month,Day,Hour,Minute,Max,Month,Day,Hour,Minute]
583,11,CRAWLSPACE,AFN Zone Infiltration Air Change Rate [ach] !RunPeriod [Value,Min,Month,Day,Hour,Minute,Max,Month,Day,Hour,Minute]
1038,11,Facility,Facility Heating Setpoint Not Met Time [hr] !RunPeriod [Value,Min,Month,Day,Hour,Minute,Max,Month,Day,Hour,Minute]
1039,11,Facility,Facility Cooling Setpoint Not Met Time [hr] !RunPeriod [Value,Min,Month,Day,Hour,Minute,Max,Month,Day,Hour,Minute]
1115,11,DX_HEATING_COIL,Heating Coil Heating Energy [J] !RunPeriod [Value,Min,Month,Day,Hour,Minute,Max,Month,Day,Hour,Minute]
1128,11,DX_HEATING_COIL,Heating Coil Electricity Energy [J] !RunPeriod [Value,Min,Month,Day,Hour,Minute,Max,Month,Day,Hour,Minute]
1153,11,DX_HEATING_COIL,Heating Coil Defrost Electricity Energy [J] !RunPeriod [Value,Min,Month,Day,Hour,Minute,Max,Month,Day,Hour,Minute]
1154,11,DX_HEATING_COIL,Heating Coil Crankcase Heater Electricity Energy [J] !RunPeriod [Value,Min,Month,Day,Hour,Minute,Max,Month,Day,Hour,Minute]
1155,11,HEATING_RESISTANCE_BACKUP,Heating Coil Heating Energy [J] !RunPeriod [Value,Min,Month,Day,Hour,Minute,Max,Month,Day,Hour,Minute]
1156,11,HEATING_RESISTANCE_BACKUP,Heating Coil Electricity Energy [J] !RunPeriod [Value,Min,Month,Day,Hour,Minute,Max,Month,Day,Hour,Minute]
1292,11,WATER HEATER,Water Heater Heat Loss Energy [J] !RunPeriod [Value,Min,Month,Day,Hour,Minute,Max,Month,Day,Hour,Minute]
1306,11,WATER HEATER,Water Heater Heating Energy [J] !RunPeriod [Value,Min,Month,Day,Hour,Minute,Max,Month,Day,Hour,Minute]
1307,11,WATER HEATER,Water Heater Unmet Demand Heat Transfer Energy [J] !RunPeriod [Value,Min,Month,Day,Hour,Minute,Max,Month,Day,Hour,Minute]
1308,11,WATER HEATER,Water Heater Electricity Energy [J] !RunPeriod [Value,Min,Month,Day,Hour,Minute,Max,Month,Day,Hour,Minute]
13,11,Electricity:Facility [J] !RunPeriod [Value,Min,Month,Day,Hour,Minute,Max,Month,Day,Hour,Minute]
1134,11,Heating:Electricity [J] !RunPeriod [Value,Min,Month,Day,Hour,Minute,Max,Month,Day,Hour,Minute]
1096,11,Cooling:Electricity [J] !RunPeriod [Value,Min,Month,Day,Hour,Minute,Max,Month,Day,Hour,Minute]
562,11,Fans:Electricity [J] !RunPeriod [Value,Min,Month,Day,Hour,Minute,Max,Month,Day,Hour,Minute]
1379,11,Pumps:Electricity [J] !RunPeriod [Value,Min,Month,Day,Hour,Minute,Max,Month,Day,Hour,Minute]
1326,11,WaterSystems:Electricity [J] !RunPeriod [Value,Min,Month,Day,Hour,Minute,Max,Month,Day,Hour,Minute]
61,11,InteriorLights:Electricity [J] !RunPeriod [Value,Min,Month,Day,Hour,Minute,Max,Month,Day,Hour,Minute]
1046,11,ExteriorLights:Electricity [J] !RunPeriod [Value,Min,Month,Day,Hour,Minute,Max,Month,Day,Hour,Minute]
134,11,InteriorEquipment:Electricity [J] !RunPeriod [Value,Min,Month,Day,Hour,Minute,Max,Month,Day,Hour,Minute]
170,11,gas_dryer:InteriorEquipment:Electricity [J] !RunPeriod [Value,Min,Month,Day,Hour,Minute,Max,Month,Day,Hour,Minute]
207,11,clotheswasher:InteriorEquipment:Electricity [J] !RunPeriod [Value,Min,Month,Day,Hour,Minute,Max,Month,Day,Hour,Minute]
244,11,dishwasher:InteriorEquipment:Electricity [J] !RunPeriod [Value,Min,Month,Day,Hour,Minute,Max,Month,Day,Hour,Minute]
281,11,refrigerator:InteriorEquipment:Electricity [J] !RunPeriod [Value,Min,Month,Day,Hour,Minute,Max,Month,Day,Hour,Minute]
318,11,electric_mels:InteriorEquipment:Electricity [J] !RunPeriod [Value,Min,Month,Day,Hour,Minute,Max,Month,Day,Hour,Minute]
355,11,NaturalGas:Facility [J] !RunPeriod [Value,Min,Month,Day,Hour,Minute,Max,Month,Day,Hour,Minute]
403,11,InteriorEquipment:NaturalGas [J] !RunPeriod [Value,Min,Month,Day,Hour,Minute,Max,Month,Day,Hour,Minute]
476,11,gas_dryer:InteriorEquipment:NaturalGas [J] !RunPeriod [Value,Min,Month,Day,Hour,Minute,Max,Month,Day,Hour,Minute]
513,11,gas_mels:InteriorEquipment:NaturalGas [J] !RunPeriod [Value,Min,Month,Day,Hour,Minute,Max,Month,Day,Hour,Minute]
End of Data Dictionary
1,EXTREME_WINTER,  44.47, -73.15,  -5.00, 104.00
5,7
1038,11.25,0.0, 1,20, 1,15,0.25, 1,21, 6,15
1039,0.0,0.0, 1,20, 1,15,0.0, 1,20, 1,15
581,0.47860816928894745,0.3068422343718667, 1,22,23, 3,0.7942613748264683, 1,20,10,60
582,3.9149830518982163,0.05778078657535714, 1,23, 5,60,15.77865478818893, 1,20, 7,50
583,0.06663865841045828,0.000493310425591135, 1,22,23, 3,0.08018736196596014, 1,20,10,60
1115,1812651597.854814,0.0, 1,20,23, 5,3708668.1353730764, 1,24, 3,60
1128,697179161.5364527,0.0, 1,20,23, 5,1194086.6598383617, 1,24,11,45
1153,5809792.385568145,0.0, 1,20,23, 5,51113.32589262349, 1,24, 8,60
1154,7146963.030358448,0.0, 1,20, 1, 5,164479.8360147086, 1,24,14,60
1155,1743310051.1236277,0.0, 1,20,23, 5,6180007.787909946, 1,25, 6,15
1156,1743310051.1236277,0.0, 1,20,23, 5,6180007.787909946, 1,25, 6,15
1292,-25020337.825655192,-39957.43357132442, 1,26, 3,15,-4260.995766707341, 1,21,12,30
1306,384004060.2504689,0.0, 1,20, 1, 5,4050000.0, 1,20, 9,60
1307,186355742.06391102,0.0, 1,20, 1, 5,18539481.504491813, 1,24, 9,60
1308,384004060.2504689,0.0, 1,20, 1, 5,4050000.0, 1,20, 9,60
13,3289826218.1712093,539598.8270138782, 1,24,15,15,11761880.379574321, 1,26, 9,60
61,301924526.02383536,88139.10953165221, 1,20, 1,15,1282023.4113694867, 1,20,20,15
134,70666020.44019976,63564.01800854099, 1,20, 4,15,156554.22484006523, 1,25,20,15
170,5241013.419656067,348.4159749238097, 1,20, 4,15,17476.39704006126, 1,25,12,15
207,6509451.13922267,815.2532113832032, 1,20, 3,15,22990.642799023623, 1,25,10,15
244,12749673.399825225,1521.856143006317, 1,20, 4,15,53038.631142310165, 1,25,20,15
281,46165882.481495745,59938.60262432081, 1,20, 5,15,81951.81706819107, 1,20,19,15
318,0.0,0.0, 1,20, 1,15,0.0, 1,20, 1,15
355,197687796.27748066,18561.32405820678, 1,20, 4,15,724774.895203776, 1,25,18,15
403,197687796.27748066,18561.32405820678, 1,20, 4,15,724774.895203776, 1,25,18,15
476,106772067.24485716,7098.072629279515, 1,20, 4,15,356036.3026282215, 1,25,12,15
513,0.0,0.0, 1,20, 1,15,0.0, 1,20, 1,15
562,79785643.38069716,9597.317654269067, 1,24,15,15,126196.79899666153, 1,20, 1,15
1046,0.0,0.0, 1,20, 1,15,0.0, 1,20, 1,15
1096,0.0,0.0, 1,20, 1,15,0.0, 1,20, 1,15
1134,2453445968.0760055,257984.47046148658, 1,24,15,15,7248395.383636391, 1,21, 6,15
1326,384004060.2504689,0.0, 1,20, 1,15,4050000.0, 1,20, 9,60
1379,0.0,0.0, 1,20, 1,15,0.0, 1,20, 1,15
1,EXTREME_SUMMER,  44.47, -73.15,  -5.00, 104.00
5,7
1038,0.0,0.0, 7,27, 1,15,0.0, 7,27, 1,15
1039,30.0,0.0, 7,27, 1,15,0.25, 7,27,14,30
581,0.1275505172754264,0.0, 7,27,23, 3,0.466567642983006, 7,30,15,55
582,2.440565005276457,0.0, 7,27, 1,50,9.421123860362213, 7,31, 8,60
583,0.03591291534680861,0.0, 7,27,23, 3,0.06406892328562067, 7,31, 6, 3
1115,0.0,0.0, 7,27, 1,15,0.0, 7,27, 1,15
1128,0.0,0.0, 7,27, 1,15,0.0, 7,27, 1,15
1153,0.0,0.0, 7,27, 1,15,0.0, 7,27, 1,15
1154,0.0,0.0, 7,27, 1,15,0.0, 7,27, 1,15
1155,0.0,0.0, 7,27, 1,15,0.0, 7,27, 1,15
1156,0.0,0.0, 7,27, 1,15,0.0, 7,27, 1,15
1292,-21761541.611916214,-34308.41635418711, 8, 2,18,15,-2901.854090186974, 8, 2, 9,45
1306,296830608.52461344,0.0, 7,27, 1,15,3896099.231526819, 7,29,10,45
1307,112581811.4366205,0.0, 7,27, 1,15,4437568.791787379, 7,30,20,60
1308,296830608.52461344,0.0, 7,27, 1,15,3896099.231526819, 7,29,10,45
13,1151710788.8823586,181961.19439215845, 8, 1, 4,60,6782973.115651552, 7,28,20,15
61,301924526.02383536,88139.10953165221, 7,27, 1,15,1282023.4113694867, 7,27,20,15
134,70666020.44019976,63564.01800854099, 7,27, 4,15,156554.22484006523, 8, 1,20,15
170,5241013.419656067,348.4159749238097, 7,27, 4,15,17476.39704006126, 8, 1,12,15
207,6509451.13922267,815.2532113832032, 7,27, 3,15,22990.642799023623, 8, 1,10,15
244,12749673.399825225,1521.856143006317, 7,27, 4,15,53038.631142310165, 8, 1,20,15
281,46165882.481495745,59938.60262432081, 7,27, 5,15,81951.81706819107, 7,27,19,15
318,0.0,0.0, 7,27, 1,15,0.0, 7,27, 1,15
355,197687796.27748066,18561.32405820678, 7,27, 4,15,724774.895203776, 8, 1,18,15
403,197687796.27748066,18561.32405820678, 7,27, 4,15,724774.895203776, 8, 1,18,15
476,106772067.24485716,7098.072629279515, 7,27, 4,15,356036.3026282215, 8, 1,12,15
513,0.0,0.0, 7,27, 1,15,0.0, 7,27, 1,15
562,48613090.839137234,2987.000792322192, 8, 2,23,15,126196.79899666153, 7,27,16,45
1046,0.0,0.0, 7,27, 1,15,0.0, 7,27, 1,15
1096,433676543.0545726,22720.581710515205, 8, 2,23,15,1306237.4885737915, 7,29,15,60
1134,0.0,0.0, 7,27, 1,15,0.0, 7,27, 1,15
1326,296830608.52461344,0.0, 7,27, 1,15,4050000.0, 7,27, 8,30
1379,0.0,0.0, 7,27, 1,15,0.0, 7,27, 1,15
1,ANNUAL,  44.47, -73.15,  -5.00, 104.00
5,365
1038,71.5,0.0, 1, 1, 1,15,0.25, 1, 1, 6,15
1039,294.5,0.0, 1, 1, 1,15,0.25, 5, 8,11,15
581,0.2891796948808688,0.0, 7,11,23, 3,1.034970875767116,12,22,19,55
582,3.5681947663599836,0.0, 1, 1,19,22,28.532811814849577,12,22,12,52
583,0.03057220340379424,0.0, 7,11,23, 3,0.08171388933236592, 1,16,24,52
1115,33530777817.15647,0.0, 1, 1,14, 5,4491897.524561021,11,22, 6,45
1128,11031069395.245369,0.0, 1, 1,14, 5,1271005.0005388039,12, 8, 7,60
1153,297941086.9787567,0.0, 1, 1,14, 5,118992.15697518527,11, 9, 7,15
1154,1542946978.008772,0.0, 1, 1, 6, 7,180000.0, 1, 1,14,60
1155,10662863110.953026,0.0, 1, 1, 1,15,6180007.787909946, 1,17, 1,15
1156,10662863110.953026,0.0, 1, 1, 1,15,6180007.787909946, 1,17, 1,15
1292,-1226051926.9691513,-42254.71192620155, 1,27, 6,60,-1233.5549106141268, 6, 2, 9,59
1306,17789069952.75984,0.0, 1, 1, 1,15,4050000.0, 1, 1, 9,60
1307,7812457929.010567,0.0, 1, 1, 1,15,18755662.308141883, 2,17, 9,60
1308,17789069952.75984,0.0, 1, 1, 1,15,4050000.0, 1, 1, 9,60
13,69273107756.58614,151703.1275401932, 1, 6, 4,15,12177176.875249738, 2,26,21,45
61,15743207428.383959,88139.10953165221, 1, 1, 1,15,1282023.4113694867, 1, 1,20,15
134,3685071073.4325233,63564.01800854099, 1, 2, 4,15,156554.22484006523, 1, 1,20,15
170,273393721.45532674,348.4159749238097, 1, 2, 4,15,17476.39704006126, 1, 1,12,15
207,339560869.0695816,815.2532113832032, 1, 2, 3,15,22990.642799023623, 1, 1,10,15
244,664895467.8009144,1521.856143006317, 1, 2, 4,15,53038.631142310165, 1, 1,20,15
281,2407221015.106824,59938.60262432081, 1, 1, 5,15,81951.81706819107, 1, 1,19,15
318,0.0,0.0, 1, 1, 1,15,0.0, 1, 1, 1,15
355,10310294493.051695,18561.32405820678, 1, 2, 4,15,724774.895203776, 1, 1,18,15
403,10310294493.051695,18561.32405820678, 1, 2, 4,15,724774.895203776, 1, 1,18,15
476,5569688622.066177,7098.072629279515, 1, 2, 4,15,356036.3026282215, 1, 1,12,15
513,0.0,0.0, 1, 1, 1,15,0.0, 1, 1, 1,15
562,1980736490.6944768,0.0, 1, 1,14,15,126196.79899666153, 1, 3, 2,15
1046,0.0,0.0, 1, 1, 1,15,0.0, 1, 1, 1,15
1096,6540202240.127879,0.0, 1, 1, 1,15,1379966.5872654673, 6,22,17,60
1134,23534820571.18574,0.0, 1, 4,15,60,7298344.090783792, 1,18, 6,15
1326,17789069952.75984,0.0, 1, 1, 1,15,4050000.0000000014, 6, 2,10,15
1379,0.0,0.0, 1, 1, 1,15,0.0, 1, 1, 1,15
End of Data
 Number of Records Written=          99
