Program Version,EnergyPlus, Version 22.2.0-c249759bad, YMD=2023.07.07 15:16
1,5,Environment Title[],Latitude[deg],Longitude[deg],Time Zone[],Elevation[m]
2,8,Day of Simulation[],Month[],Day of Month[],DST Indicator[1=yes 0=no],Hour[],StartMinute[],EndMinute[],DayType
3,5,Cumulative Day of Simulation[],Month[],Day of Month[],DST Indicator[1=yes 0=no],DayType  ! When Daily Report Variables Requested
4,2,Cumulative Days of Simulation[],Month[]  ! When Monthly Report Variables Requested
5,1,Cumulative Days of Simulation[] ! When Run Period Report Variables Requested
6,1,Calendar Year of Simulation[] ! When Annual Report Variables Requested
581,11,LIVING,AFN Zone Infiltration Air Change Rate [ach] !RunPeriod [Value,Min,Month,Day,Hour,Minute,Max,Month,Day,Hour,Minute]
582,11,ATTIC,AFN Zone Infiltration Air Change Rate [ach] !RunPeriod [Value,Min,Month,Day,Hour,Minute,Max,Month,Day,Hour,Minute]
583,11,CRAWLSPACE,AFN Zone Infiltration Air Change Rate [ach] !RunPeriod [Value,Min,Month,Day,Hour,Minute,Max,Month,Day,Hour,Minute]
1038,11,Facility,Facility Heating Setpoint Not Met Time [hr] !RunPeriod [Value,Min,Month,Day,Hour,Minute,Max,Month,Day,Hour,Minute]
1039,11,Facility,Facility Cooling Setpoint Not Met Time [hr] !RunPeriod [Value,Min,Month,Day,Hour,Minute,Max,Month,Day,Hour,Minute]
1115,11,DX_HEATING_COIL,Heating Coil Heating Energy [J] !RunPeriod [Value,Min,Month,Day,Hour,Minute,Max,Month,Day,Hour,Minute]
1128,11,DX_HEATING_COIL,Heating Coil Electricity Energy [J] !RunPeriod [Value,Min,Month,Day,Hour,Minute,Max,Month,Day,Hour,Minute]
1153,11,DX_HEATING_COIL,Heating Coil Defrost Electricity Energy [J] !RunPeriod [Value,Min,Month,Day,Hour,Minute,Max,Month,Day,Hour,Minute]
1154,11,DX_HEATING_COIL,Heating Coil Crankcase Heater Electricity Energy [J] !RunPeriod [Value,Min,Month,Day,Hour,Minute,Max,Month,Day,Hour,Minute]
1156,11,HEATING_RESISTANCE_BACKUP,Heating Coil Electricity Energy [J] !RunPeriod [Value,Min,Month,Day,Hour,Minute,Max,Month,Day,Hour,Minute]
13,11,Electricity:Facility [J] !RunPeriod [Value,Min,Month,Day,Hour,Minute,Max,Month,Day,Hour,Minute]
1134,11,Heating:Electricity [J] !RunPeriod [Value,Min,Month,Day,Hour,Minute,Max,Month,Day,Hour,Minute]
1096,11,Cooling:Electricity [J] !RunPeriod [Value,Min,Month,Day,Hour,Minute,Max,Month,Day,Hour,Minute]
562,11,Fans:Electricity [J] !RunPeriod [Value,Min,Month,Day,Hour,Minute,Max,Month,Day,Hour,Minute]
1388,11,Pumps:Electricity [J] !RunPeriod [Value,Min,Month,Day,Hour,Minute,Max,Month,Day,Hour,Minute]
1360,11,WaterSystems:Electricity [J] !RunPeriod [Value,Min,Month,Day,Hour,Minute,Max,Month,Day,Hour,Minute]
61,11,InteriorLights:Electricity [J] !RunPeriod [Value,Min,Month,Day,Hour,Minute,Max,Month,Day,Hour,Minute]
1046,11,ExteriorLights:Electricity [J] !RunPeriod [Value,Min,Month,Day,Hour,Minute,Max,Month,Day,Hour,Minute]
134,11,InteriorEquipment:Electricity [J] !RunPeriod [Value,Min,Month,Day,Hour,Minute,Max,Month,Day,Hour,Minute]
170,11,gas_dryer:InteriorEquipment:Electricity [J] !RunPeriod [Value,Min,Month,Day,Hour,Minute,Max,Month,Day,Hour,Minute]
207,11,clotheswasher:InteriorEquipment:Electricity [J] !RunPeriod [Value,Min,Month,Day,Hour,Minute,Max,Month,Day,Hour,Minute]
244,11,dishwasher:InteriorEquipment:Electricity [J] !RunPeriod [Value,Min,Month,Day,Hour,Minute,Max,Month,Day,Hour,Minute]
281,11,refrigerator:InteriorEquipment:Electricity [J] !RunPeriod [Value,Min,Month,Day,Hour,Minute,Max,Month,Day,Hour,Minute]
318,11,electric_mels:InteriorEquipment:Electricity [J] !RunPeriod [Value,Min,Month,Day,Hour,Minute,Max,Month,Day,Hour,Minute]
355,11,NaturalGas:Facility [J] !RunPeriod [Value,Min,Month,Day,Hour,Minute,Max,Month,Day,Hour,Minute]
1323,11,WaterSystems:NaturalGas [J] !RunPeriod [Value,Min,Month,Day,Hour,Minute,Max,Month,Day,Hour,Minute]
403,11,InteriorEquipment:NaturalGas [J] !RunPeriod [Value,Min,Month,Day,Hour,Minute,Max,Month,Day,Hour,Minute]
476,11,gas_dryer:InteriorEquipment:NaturalGas [J] !RunPeriod [Value,Min,Month,Day,Hour,Minute,Max,Month,Day,Hour,Minute]
513,11,gas_mels:InteriorEquipment:NaturalGas [J] !RunPeriod [Value,Min,Month,Day,Hour,Minute,Max,Month,Day,Hour,Minute]
End of Data Dictionary
1,EXTREME_WINTER,  38.23, -85.66,  -5.00, 166.00
5,7
1038,0.9999999999999999,0.0, 1, 6, 1,10,0.16666666666666666, 1, 8, 6,10
1039,0.0,0.0, 1, 6, 1,10,0.0, 1, 6, 1,10
581,0.3196254294556059,0.16777796048713944, 1,12, 6, 5,0.655675827239222, 1, 7, 9,60
582,4.120903526394367,0.0, 1, 6, 1,53,12.694814339119246, 1, 7, 9,60
583,5.062983839623903,0.0003170064629404201, 1,10,18,57,16.697374796199664, 1, 7, 9,60
1115,1875211502.5624683,0.0, 1, 6,23, 2,2979882.5127584487, 1,11, 8,10
1128,626915395.8099068,0.0, 1, 6,23, 2,910890.4660026215, 1,11, 8,10
1153,7292052.27961244,0.0, 1, 6,23, 2,71297.88695554844, 1,12, 6,40
1154,32797356.646491524,0.0, 1, 6, 6, 2,120000.0, 1, 9,16,20
1156,643065960.3186651,0.0, 1, 6, 1, 1,3666722.442794157, 1, 8, 8,10
13,1757665032.6965818,306324.6925987483, 1,10,15,40,5117882.8657409875, 1, 8, 6,40
61,301924526.0238348,58759.40635443481, 1, 6, 1,10,854682.2742463244, 1, 6,20,10
134,70666020.44019979,42376.01200569399, 1, 6, 4,10,104369.48322671017, 1,11,20,10
170,5241013.419656074,232.27731661587313, 1, 6, 4,10,11650.931360040839, 1,11,12,10
207,6509451.13922266,543.5021409221355, 1, 6, 3,10,15327.095199349082, 1,11,10,10
244,12749673.39982522,1014.5707620042115, 1, 6, 4,10,35359.08742820678, 1,11,20,10
281,46165882.48149605,39959.06841621388, 1, 6, 5,10,54634.54471212738, 1, 6,19,10
318,0.0,0.0, 1, 6, 1,10,0.0, 1, 6, 1,10
355,739119171.0166522,12374.216038804521, 1, 6, 4,10,3829218.1540669827, 1, 7,18,60
403,197687796.27748126,12374.216038804521, 1, 6, 4,10,483183.26346918393, 1,11,18,10
476,106772067.24485692,4732.048419519677, 1, 6, 4,10,237357.535085481, 1,11,12,10
513,0.0,0.0, 1, 6, 1,10,0.0, 1, 6, 1,10
562,69983881.17787205,0.0, 1, 9,16,10,95354.13525983313, 1, 6, 6,30
1046,0.0,0.0, 1, 6, 1,10,0.0, 1, 6, 1,10
1096,0.0,0.0, 1, 6, 1,10,0.0, 1, 6, 1,10
1134,1310070765.054677,120000.0, 1, 9,16,10,4604969.407470502, 1, 8, 6,40
1323,541431374.7391678,0.0, 1, 6, 1,10,3375000.0000000005, 1, 6, 8,40
1360,5019840.0,4980.0, 1, 6, 1,10,4980.000000000001, 1, 6, 1,20
1388,0.0,0.0, 1, 6, 1,10,0.0, 1, 6, 1,10
1,EXTREME_SUMMER,  38.23, -85.66,  -5.00, 166.00
5,7
1038,0.0,0.0, 7,13, 1,10,0.0, 7,13, 1,10
1039,49.0,0.0, 7,13, 1,10,0.16666666666666666, 7,13,18,20
581,0.037253770553781033,0.0, 7,13, 5,40,0.1884861308488861, 7,14,11,55
582,1.6430427178843319,0.0, 7,13, 6, 2,6.901463031594774, 7,14,17,52
583,1.9175740369069862,0.0, 7,13,23, 2,6.87042869249811, 7,14,18,23
1115,0.0,0.0, 7,13, 1,10,0.0, 7,13, 1,10
1128,0.0,0.0, 7,13, 1,10,0.0, 7,13, 1,10
1153,0.0,0.0, 7,13, 1,10,0.0, 7,13, 1,10
1154,0.0,0.0, 7,13, 1,10,0.0, 7,13, 1,10
1156,0.0,0.0, 7,13, 1,10,0.0, 7,13, 1,10
13,1044795190.8459214,187609.61964578868, 7,15, 4,60,2015225.306386521, 7,19,20,10
61,301924526.0238348,58759.40635443481, 7,13, 1,10,854682.2742463244, 7,13,20,10
134,70666020.44019979,42376.01200569399, 7,13, 4,10,104369.48322671017, 7,18,20,10
170,5241013.419656074,232.27731661587313, 7,13, 4,10,11650.931360040839, 7,18,12,10
207,6509451.13922266,543.5021409221355, 7,13, 3,10,15327.095199349082, 7,18,10,10
244,12749673.39982522,1014.5707620042115, 7,13, 4,10,35359.08742820678, 7,18,20,10
281,46165882.48149605,39959.06841621388, 7,13, 5,10,54634.54471212738, 7,13,19,10
318,0.0,0.0, 7,13, 1,10,0.0, 7,13, 1,10
355,642763929.3707048,12374.216038804521, 7,13, 4,10,3829218.154066982, 7,17,18,20
403,197687796.27748126,12374.216038804521, 7,13, 4,10,483183.26346918393, 7,18,18,10
476,106772067.24485692,4732.048419519677, 7,13, 4,10,237357.535085481, 7,18,12,10
513,0.0,0.0, 7,13, 1,10,0.0, 7,13, 1,10
562,62408267.63977622,7134.491482778558, 7,15, 6,20,95354.13525983314, 7,14,19,20
1046,0.0,0.0, 7,13, 1,10,0.0, 7,13, 1,10
1096,604776536.7421088,60008.40144588086, 7,15, 6,20,1063809.2506458885, 7,15,14,60
1134,0.0,0.0, 7,13, 1,10,0.0, 7,13, 1,10
1323,445076133.0932222,0.0, 7,13, 1,10,3375000.0000000005, 7,13,10,30
1360,5019840.0,4980.0, 7,13, 1,10,4980.000000000002, 7,17,18,30
1388,0.0,0.0, 7,13, 1,10,0.0, 7,13, 1,10
1,ANNUAL,  38.23, -85.66,  -5.00, 166.00
5,365
1038,6.500000000000003,0.0, 1, 1, 1,10,0.16666666666666666, 1, 2, 6,10
1039,535.3333333333334,0.0, 1, 1, 1,10,0.16666666666666666, 3, 4,19,20
581,0.16123371335656272,0.0, 3,20,19,53,0.8382841962956445,12,23,11,60
582,2.692512510843043,0.0, 1, 2, 6, 3,24.41844271100027,12, 2,21,55
583,3.10281021859024,0.0, 4, 4,23, 3,23.14753308649029,12,23,11,60
1115,15905112635.40653,0.0, 1, 1,15,20,3041745.97839045, 1, 6,10,40
1128,4890703351.360528,0.0, 1, 1,15,20,911319.2033250787, 1, 6,10,10
1153,168976173.76267645,0.0, 1, 1,15,20,76023.54809752636, 2,22, 6,40
1154,1581499666.6916149,0.0, 1, 1, 6, 2,120000.0, 1, 1,15,20
1156,1252500694.9500098,0.0, 1, 1, 1, 2,3817931.985627124, 1, 8, 6,60
13,41138389371.24961,106115.4183601288, 1, 4, 4,10,5167295.9779810775, 1, 8, 7,60
61,15743207428.39043,58759.40635443481, 1, 1, 1,10,854682.2742463244, 1, 1,20,10
134,3685071073.433083,42376.01200569399, 1, 2, 4,10,104369.48322671017, 1, 1,20,10
170,273393721.45534325,232.27731661587313, 1, 2, 4,10,11650.931360040839, 1, 1,12,10
207,339560869.06955314,543.5021409221355, 1, 2, 3,10,15327.095199349082, 1, 1,10,10
244,664895467.8009839,1014.5707620042115, 1, 2, 4,10,35359.08742820678, 1, 1,20,10
281,2407221015.1057043,39959.06841621388, 1, 1, 5,10,54634.54471212738, 1, 1,19,10
318,0.0,0.0, 1, 1, 1,10,0.0, 1, 1, 1,10
355,35704081705.37748,12374.216038804521, 1, 2, 4,10,3829218.154066984,12,12,18,60
403,10310294493.052883,12374.216038804521, 1, 2, 4,10,483183.26346918393, 1, 1,18,10
476,5569688622.065564,4732.048419519677, 1, 2, 4,10,237357.535085481, 1, 1,12,10
513,0.0,0.0, 1, 1, 1,10,0.0, 1, 1, 1,10
562,1861257587.103474,0.0, 1, 1,15,20,95354.13525983314, 2,16, 8,30
1046,0.0,0.0, 1, 1, 1,10,0.0, 1, 1, 1,10
1096,11693424595.563707,0.0, 1, 1, 1,10,1065770.9074455625, 7,15,14,60
1134,7893679886.7648115,0.0, 1, 3,16,20,4604575.483886689, 1, 8, 6,60
1323,25393787212.3287,0.0, 1, 1, 1,10,3375000.000000002,10,31, 9,60
1360,261748800.0,4979.999999999998, 4,20, 9,60,4980.000000000002, 1,15,22,10
1388,0.0,0.0, 1, 1, 1,10,0.0, 1, 1, 1,10
End of Data
 Number of Records Written=          87
