Program Version,EnergyPlus, Version 22.2.0-c249759bad, YMD=2023.09.01 14:30
1,5,Environment Title[],Latitude[deg],Longitude[deg],Time Zone[],Elevation[m]
2,8,Day of Simulation[],Month[],Day of Month[],DST Indicator[1=yes 0=no],Hour[],StartMinute[],EndMinute[],DayType
3,5,Cumulative Day of Simulation[],Month[],Day of Month[],DST Indicator[1=yes 0=no],DayType  ! When Daily Report Variables Requested
4,2,Cumulative Days of Simulation[],Month[]  ! When Monthly Report Variables Requested
5,1,Cumulative Days of Simulation[] ! When Run Period Report Variables Requested
6,1,Calendar Year of Simulation[] ! When Annual Report Variables Requested
7,1,Environment,Site Outdoor Air Drybulb Temperature [C] !Hourly
619,1,DX_HEATING_COIL,Heating Coil Heating Rate [W] !Hourly
633,1,DX_HEATING_COIL,Heating Coil Electricity Rate [W] !Hourly
659,1,DX_HEATING_COIL,Heating Coil Defrost Electricity Rate [W] !Hourly
661,1,DX_HEATING_COIL,Heating Coil Crankcase Heater Electricity Rate [W] !Hourly
690,1,FAN,Fan Electricity Rate [W] !Hourly
716,1,HEAT PUMP WATER HEATER FAN,Fan Electricity Rate [W] !Hourly
718,1,LIVING,Zone Mean Air Temperature [C] !Hourly
719,1,ATTIC,Zone Mean Air Temperature [C] !Hourly
720,1,CRAWLSPACE,Zone Mean Air Temperature [C] !Hourly
843,1,LIVING,Zone Predicted Sensible Load to Heating Setpoint Heat Transfer Rate [W] !Hourly
844,1,LIVING,Zone System Predicted Sensible Load to Heating Setpoint Heat Transfer Rate [W] !Hourly
907,1,ATTIC,Zone Predicted Sensible Load to Heating Setpoint Heat Transfer Rate [W] !Hourly
908,1,ATTIC,Zone System Predicted Sensible Load to Heating Setpoint Heat Transfer Rate [W] !Hourly
971,1,CRAWLSPACE,Zone Predicted Sensible Load to Heating Setpoint Heat Transfer Rate [W] !Hourly
972,1,CRAWLSPACE,Zone System Predicted Sensible Load to Heating Setpoint Heat Transfer Rate [W] !Hourly
1195,1,HEATING_RESISTANCE_BACKUP,Heating Coil Heating Rate [W] !Hourly
1197,1,HEATING_RESISTANCE_BACKUP,Heating Coil Electricity Rate [W] !Hourly
End of Data Dictionary
1,EXTREME_WINTER,  41.53, -93.65,  -6.00, 294.00
2,1,12,15, 0, 1, 0.00,60.00,Monday
7,-10.6
718,18.654292549811377
719,-6.670465834617972
720,18.88220061735206
619,4060.747651243174
633,1501.0324967399342
659,0.9382908343366049
661,0.0
690,161.64692642207817
716,0.0
843,3498.2998807484273
844,3498.2998807484273
907,0.0
908,0.0
971,0.0
972,0.0
1195,1279.9179328851583
1197,1279.9179328851583
2,1,12,15, 0, 2, 0.00,60.00,Monday
7,-10.6
718,18.62200252200825
719,-6.3940037611959255
720,18.492148514338652
619,4062.6062527618365
633,1498.9940278639497
659,0.9388433566387644
661,0.0
690,161.64692642207817
716,0.0
843,3725.772200954929
844,3725.772200954929
907,0.0
908,0.0
971,0.0
972,0.0
1195,1473.379769578356
1197,1473.379769578356
2,1,12,15, 0, 3, 0.00,60.00,Monday
7,-10.0
718,18.61204593191209
719,-5.523561219648553
720,18.31589913525079
619,4142.490801726275
633,1506.727723971577
659,0.18518313266163497
661,0.0
690,161.64692642207817
716,0.0
843,4023.699484241035
844,4023.699484241035
907,0.0
908,0.0
971,0.0
972,0.0
1195,1743.0447490369047
1197,1743.0447490369047
2,1,12,15, 0, 4, 0.00,60.00,Monday
7,-8.9
718,18.609547965423697
719,-4.734569468281895
720,18.112523018963888
619,4275.270885455309
633,1517.642099249891
659,2.6903586738961236
661,0.0
690,161.64692642207817
716,0.0
843,3819.1372041528466
844,3819.1372041528466
907,0.0
908,0.0
971,0.0
972,0.0
1195,1313.372257545675
1197,1313.372257545675
2,1,12,15, 0, 5, 0.00,60.00,Monday
7,-7.8
718,18.609071276922673
719,-4.623202982651561
720,17.931097173910317
619,4429.382521412547
633,1535.2270626362076
659,0.08078381283120702
661,0.0
690,161.64692642207817
716,0.0
843,4095.508969727596
844,4095.508969727596
907,0.0
908,0.0
971,0.0
972,0.0
1195,1452.3353170587802
1197,1452.3353170587802
2,1,12,15, 0, 6, 0.00,60.00,Monday
7,-7.8
718,19.363122562751574
719,-3.52765528920462
720,17.759438642730963
619,4429.602244678011
633,1534.97745436588
659,0.08078381283120702
661,0.0
690,161.64692642207817
716,0.0
843,4797.8462357665685
844,4797.8462357665685
907,0.0
908,0.0
971,0.0
972,0.0
1195,2274.886844917309
1197,2274.886844917309
2,1,12,15, 0, 7, 0.00,60.00,Monday
7,-7.8
718,19.563122918164265
719,-3.134807904693944
720,17.627136651671186
619,4410.0207424124665
633,1557.2083372217464
659,0.08078381283120702
661,0.0
690,161.64692642207817
716,85.44000000000004
843,4562.491476429883
844,4562.491476429883
907,0.0
908,0.0
971,0.0
972,0.0
1195,3084.4633037505705
1197,3084.4633037505705
2,1,12,15, 0, 8, 0.00,60.00,Monday
7,-6.7
718,19.65022432137504
719,-2.551793632537112
720,17.477765600503773
619,4543.870253551687
633,1575.1850793796473
659,2.0998714990820972
661,0.0
690,161.64692642207817
716,85.44000000000004
843,5155.296494497734
844,5155.296494497734
907,0.0
908,0.0
971,0.0
972,0.0
1195,3739.248612716486
1197,3739.248612716486
2,1,12,15, 0, 9, 0.00,60.00,Monday
7,-6.1
718,19.70241912114928
719,-1.5771438975730114
720,17.340925325630277
619,4630.84204332228
633,1588.4714010989571
659,0.08078381283120702
661,0.0
690,161.64692642207817
716,13.34579046620761
843,4690.176530152248
844,4690.176530152248
907,0.0
908,0.0
971,0.0
972,0.0
1195,2128.4023248064204
1197,2128.4023248064204
2,1,12,15, 0,10, 0.00,60.00,Monday
7,-6.1
718,19.714295790059328
719,-1.5932002990969296
720,17.212622964104757
619,4629.647219093438
633,1589.851560100022
659,0.08078381283120702
661,0.0
690,161.64692642207817
716,0.0
843,4228.492718063942
844,4228.492718063942
907,0.0
908,0.0
971,0.0
972,0.0
1195,1364.349628256885
1197,1364.349628256885
2,1,12,15, 0,11, 0.00,60.00,Monday
7,-5.0
718,19.76026282872787
719,0.5460249210469087
720,17.1351312786669
619,4239.3505563121125
633,1441.439941464883
659,0.07254561531925502
661,20.395663990669078
690,145.1604822834916
716,0.0
843,2831.6241329112854
844,2831.6241329112854
907,0.0
908,0.0
971,0.0
972,0.0
1195,0.0
1197,0.0
2,1,12,15, 0,12, 0.00,60.00,Monday
7,-5.6
718,19.745981975601836
719,1.058900790633573
720,17.055264089095
619,3672.5684102153195
633,1280.6510055889537
659,0.06472523281412877
661,39.75692519151504
690,129.51213322928032
716,0.0
843,2519.331646116256
844,2519.331646116256
907,0.0
908,0.0
971,0.0
972,0.0
1195,0.0
1197,0.0
2,1,12,15, 0,13, 0.00,60.00,Monday
7,-5.6
718,19.760421025816502
719,1.6368664319495232
720,17.00646573896928
619,3183.209469224199
633,1122.7993364907422
659,0.056763142691681936
661,59.46901810568126
690,113.58036715926814
716,0.0
843,2201.878023829875
844,2201.878023829875
907,0.0
908,0.0
971,0.0
972,0.0
1195,0.0
1197,0.0
2,1,12,15, 0,14, 0.00,60.00,Monday
7,-5.6
718,19.490909636369185
719,0.1311141747136081
720,16.942151969284506
619,4696.839552537277
633,1597.912611371434
659,0.08078381283120702
661,0.0
690,161.64692642207817
716,79.73004379507913
843,2514.2693656991796
844,2514.2693656991796
907,0.0
908,0.0
971,0.0
972,0.0
1195,42.96632480997687
1197,42.96632480997687
2,1,12,15, 0,15, 0.00,60.00,Monday
7,-6.1
718,19.756963201583982
719,-0.20594655009928656
720,16.934983577475887
619,2784.2325179352288
633,994.6548811835905
659,0.05075265450560799
661,74.3494451997391
690,101.55358688834775
716,0.0
843,1899.286012238519
844,1899.286012238519
907,0.0
908,0.0
971,0.0
972,0.0
1195,0.0
1197,0.0
2,1,12,15, 0,16, 0.00,60.00,Monday
7,-7.2
718,19.929408542988718
719,-0.80227486121267
720,16.92373581639825
619,2092.446169797973
633,782.2416445019725
659,0.04008224329294083
661,100.76664646495384
690,80.20246794972134
716,0.0
843,1406.371695848551
844,1406.371695848551
907,0.0
908,0.0
971,0.0
972,0.0
1195,0.0
1197,0.0
2,1,12,15, 0,17, 0.00,60.00,Monday
7,-8.3
718,19.696265275654596
719,-2.538449796489961
720,16.89626045455685
619,2404.5914930248487
633,914.6978981127255
659,0.04717077092184261
661,83.2172702211936
690,94.38605777806684
716,0.0
843,1589.5944294132241
844,1589.5944294132241
907,0.0
908,0.0
971,0.0
972,0.0
1195,0.0
1197,0.0
2,1,12,15, 0,18, 0.00,60.00,Monday
7,-8.9
718,19.55178920889035
719,-3.686902684935149
720,16.828610093326446
619,3981.599688406302
633,1460.5452035408978
659,0.07608072831724721
661,11.643630943210415
690,152.23309346238452
716,0.0
843,2565.461673282134
844,2565.461673282134
907,0.0
908,0.0
971,0.0
972,0.0
1195,0.0
1197,0.0
2,1,12,15, 0,19, 0.00,60.00,Monday
7,-8.9
718,19.60216970720349
719,-4.2813114772353025
720,16.77286487759635
619,4262.176409215933
633,1546.4264525319397
659,0.08078381283120702
661,0.0
690,161.64692642207817
716,85.44000000000004
843,2951.1141904549677
844,2951.1141904549677
907,0.0
908,0.0
971,0.0
972,0.0
1195,1434.3942596577544
1197,1434.3942596577544
2,1,12,15, 0,20, 0.00,60.00,Monday
7,-10.6
718,19.655914014422116
719,-5.93038658956467
720,16.69117123977914
619,4040.5786235185055
633,1523.0947710868772
659,0.9340071513634712
661,0.0
690,161.64692642207817
716,85.44000000000004
843,2964.5208463317867
844,2964.5208463317867
907,0.0
908,0.0
971,0.0
972,0.0
1195,1726.483778307625
1197,1726.483778307625
2,1,12,15, 0,21, 0.00,60.00,Monday
7,-11.1
718,19.679644287173435
719,-6.382698338146207
720,16.594140359351268
619,3979.55082237396
633,1518.5239532141024
659,0.08078381283120702
661,0.0
690,161.64692642207817
716,59.040155471109706
843,3547.703514834975
844,3547.703514834975
907,0.0
908,0.0
971,0.0
972,0.0
1195,2214.6948297553445
1197,2214.6948297553445
2,1,12,15, 0,22, 0.00,60.00,Monday
7,-12.2
718,19.704955750007958
719,-6.9179909104069335
720,16.482897088319593
619,3837.4102740940198
633,1501.0447216607138
659,1.8023990366604596
661,0.0
690,161.64692642207817
716,0.0
843,3535.7976851535823
844,3535.7976851535823
907,0.0
908,0.0
971,0.0
972,0.0
1195,1598.8152527323757
1197,1598.8152527323757
2,1,12,15, 0,23, 0.00,60.00,Monday
7,-12.2
718,18.97963076080436
719,-7.098792975906887
720,16.363962936902276
619,3842.5745697665766
633,1503.7900237951187
659,0.08078381283120702
661,0.0
690,161.64692642207817
716,0.0
843,3236.0572917671416
844,3236.0572917671416
907,0.0
908,0.0
971,0.0
972,0.0
1195,1283.9065472491861
1197,1283.9065472491861
2,1,12,15, 0,24, 0.00,60.00,Monday
7,-13.3
718,18.736885538959985
719,-7.589749506479877
720,16.199208922981256
619,3727.9320282383837
633,1468.235773252527
659,0.08078381283120702
661,0.0
690,161.64692642207817
716,0.0
843,3551.275973077756
844,3551.275973077756
907,0.0
908,0.0
971,0.0
972,0.0
1195,1714.178120197104
1197,1714.178120197104
2,2,12,16, 0, 1, 0.00,60.00,Tuesday
7,-13.3
718,18.64818575446137
719,-7.777199028325545
720,16.06154998905112
619,3734.279591160339
633,1461.5977760872515
659,0.08078381283120702
661,0.0
690,161.64692642207817
716,0.0
843,4101.281161121569
844,4101.281161121569
907,0.0
908,0.0
971,0.0
972,0.0
1195,2378.7739802542287
1197,2378.7739802542287
2,2,12,16, 0, 2, 0.00,60.00,Tuesday
7,-13.9
718,18.612324065581813
719,-8.623295292195923
720,15.903548364277418
619,3665.072061155955
633,1450.5072809459775
659,0.08078381283120702
661,0.0
690,161.64692642207817
716,0.0
843,5373.8022368639595
844,5373.8022368639595
907,0.0
908,0.0
971,0.0
972,0.0
1195,3968.72688687912
1197,3968.72688687912
2,2,12,16, 0, 3, 0.00,60.00,Tuesday
7,-14.4
718,18.603983618988252
719,-8.455404529569192
720,15.759293870019327
619,3607.077597816332
633,1442.1847992464366
659,0.08078381283120702
661,0.0
690,161.64692642207817
716,0.0
843,5846.466648801676
844,5846.466648801676
907,0.0
908,0.0
971,0.0
972,0.0
1195,4661.462680338616
1197,4661.462680338616
2,2,12,16, 0, 4, 0.00,60.00,Tuesday
7,-15.6
718,18.602483876372112
719,-8.415543257790889
720,15.611827017944934
619,3465.3133443540064
633,1423.174487498167
659,0.9530269176686854
661,0.0
690,161.64692642207817
716,0.0
843,5379.92861469058
844,5379.92861469058
907,0.0
908,0.0
971,0.0
972,0.0
1195,4206.562652138971
1197,4206.562652138971
2,2,12,16, 0, 5, 0.00,60.00,Tuesday
7,-15.6
718,18.59928329203629
719,-9.313401871027212
720,15.459776070466472
619,3468.1455721634948
633,1423.9952383116631
659,0.08078381283120702
661,0.0
690,161.64692642207817
716,0.0
843,6162.517258363976
844,6162.517258363976
907,0.0
908,0.0
971,0.0
972,0.0
1195,5170.455162018918
1197,5170.455162018918
2,2,12,16, 0, 6, 0.00,60.00,Tuesday
7,-16.1
718,19.366985094777682
719,-8.91346321520317
720,15.317593624281475
619,3411.2076251680655
633,1416.277603696488
659,0.08078381283120702
661,0.0
690,161.64692642207817
716,0.0
843,6929.719635059477
844,6929.719635059477
907,0.0
908,0.0
971,0.0
972,0.0
1195,6165.149380825151
1197,6165.149380825151
2,2,12,16, 0, 7, 0.00,60.00,Tuesday
7,-16.1
718,19.565014822576984
719,-8.82010743418616
720,15.208585011274838
619,3392.273284375546
633,1434.9099490636966
659,0.08078381283120702
661,0.0
690,161.64692642207817
716,85.44000000000004
843,6734.056790888926
844,6734.056790888926
907,0.0
908,0.0
971,0.0
972,0.0
1195,7060.436539796967
1197,7060.436539796967
2,2,12,16, 0, 8, 0.00,60.00,Tuesday
7,-16.1
718,19.651212324093862
719,-7.825646427050462
720,15.077992705638971
619,3387.430952265771
633,1439.6463214619941
659,0.08078381283120702
661,0.0
690,161.64692642207817
716,85.44000000000004
843,5977.440456694869
844,5977.440456694869
907,0.0
908,0.0
971,0.0
972,0.0
1195,6235.977396671213
1197,6235.977396671213
2,2,12,16, 0, 9, 0.00,60.00,Tuesday
7,-15.0
718,19.684664274936633
719,-6.684129594888928
720,14.962197301052464
619,3511.8280032756197
633,1458.717769549657
659,0.08078381283120702
661,0.0
690,161.64692642207817
716,85.44000000000004
843,5108.070426550665
844,5108.070426550665
907,0.0
908,0.0
971,0.0
972,0.0
1195,5047.018710950973
1197,5047.018710950973
2,2,12,16, 0,10, 0.00,60.00,Tuesday
7,-14.4
718,19.70822264734802
719,-2.6981918811481536
720,14.849916637938222
619,3581.213826735267
633,1468.5770192171863
659,0.08078381283120702
661,0.0
690,161.64692642207817
716,25.586290659247503
843,4290.732352961035
844,4290.732352961035
907,0.0
908,0.0
971,0.0
972,0.0
1195,3110.034071489169
1197,3110.034071489169
2,2,12,16, 0,11, 0.00,60.00,Tuesday
7,-13.3
718,19.723327396518865
719,-1.1360214022279955
720,14.762116477435283
619,3711.339806412971
633,1485.5183833446097
659,0.08078381283120702
661,0.0
690,161.64692642207817
716,0.0
843,3818.107794091802
844,3818.107794091802
907,0.0
908,0.0
971,0.0
972,0.0
1195,1904.4267597043147
1197,1904.4267597043147
2,2,12,16, 0,12, 0.00,60.00,Tuesday
7,-11.7
718,19.721397662525842
719,0.06579599973961145
720,14.699873035205323
619,3905.8178889616242
633,1509.1230250665724
659,0.08078381283120702
661,0.0
690,161.64692642207817
716,0.0
843,3484.9369958420393
844,3484.9369958420393
907,0.0
908,0.0
971,0.0
972,0.0
1195,1224.2317058406206
1197,1224.2317058406206
2,2,12,16, 0,13, 0.00,60.00,Tuesday
7,-11.7
718,19.723180663999678
719,1.2631578723392825
720,14.640982432167123
619,3905.951556407047
633,1508.979958096978
659,0.08078381283120702
661,0.0
690,161.64692642207817
716,0.0
843,3306.9398940022056
844,3306.9398940022056
907,0.0
908,0.0
971,0.0
972,0.0
1195,952.3314167056151
1197,952.3314167056151
2,2,12,16, 0,14, 0.00,60.00,Tuesday
7,-11.1
718,19.721344240833083
719,3.2621912656483065
720,14.602088355334669
619,3980.489157716688
633,1517.5093060839677
659,0.08078381283120702
661,0.0
690,161.64692642207817
716,0.0
843,3252.2575504183733
844,3252.2575504183733
907,0.0
908,0.0
971,0.0
972,0.0
1195,745.5052158856033
1197,745.5052158856033
2,2,12,16, 0,15, 0.00,60.00,Tuesday
7,-10.6
718,19.721552934675408
719,0.19223825527705657
720,14.566882082679085
619,4043.3086490112178
633,1524.4517092604517
659,0.08078381283120702
661,0.0
690,161.64692642207817
716,0.0
843,3479.8142679979483
844,3479.8142679979483
907,0.0
908,0.0
971,0.0
972,0.0
1195,849.0993824746247
1197,849.0993824746247
2,2,12,16, 0,16, 0.00,60.00,Tuesday
7,-10.6
718,19.720157599896716
719,0.24564857442890128
720,14.53591980557362
619,4043.3462333845437
633,1524.4107280123276
659,0.08078381283120702
661,0.0
690,161.64692642207817
716,0.0
843,3413.649904132806
844,3413.649904132806
907,0.0
908,0.0
971,0.0
972,0.0
1195,937.4034025847131
1197,937.4034025847131
2,2,12,16, 0,17, 0.00,60.00,Tuesday
7,-10.0
718,19.719158332911903
719,-1.8637053908405423
720,14.506546038999423
619,4119.426948743857
633,1532.7103270546763
659,0.08078381283120702
661,0.0
690,161.64692642207817
716,0.0
843,3666.2549272134293
844,3666.2549272134293
907,0.0
908,0.0
971,0.0
972,0.0
1195,1167.1827287142255
1197,1167.1827287142255
2,2,12,16, 0,18, 0.00,60.00,Tuesday
7,-10.0
718,19.718658872806376
719,-3.042661871171667
720,14.47250625854073
619,4119.482242494236
633,1532.6494682312255
659,0.08078381283120702
661,0.0
690,161.64692642207817
716,0.0
843,3631.708882059984
844,3631.708882059984
907,0.0
908,0.0
971,0.0
972,0.0
1195,1237.5861155267817
1197,1237.5861155267817
2,2,12,16, 0,19, 0.00,60.00,Tuesday
7,-10.0
718,19.703710048003988
719,-3.60729830330498
720,14.429856408272267
619,4119.541055333052
633,1532.5847354274035
659,0.08078381283120702
661,0.0
690,161.64692642207817
716,85.44000000000004
843,3591.4877551603404
844,3591.4877551603404
907,0.0
908,0.0
971,0.0
972,0.0
1195,2333.722327381359
1197,2333.722327381359
2,2,12,16, 0,20, 0.00,60.00,Tuesday
7,-9.4
718,19.707518405036712
719,-3.9854544033402735
720,14.37936414600371
619,4196.804305378246
633,1540.390854937713
659,0.08078381283120702
661,0.0
690,161.64692642207817
716,85.44000000000004
843,3928.7248175586665
844,3928.7248175586665
907,0.0
908,0.0
971,0.0
972,0.0
1195,2770.479886990694
1197,2770.479886990694
2,2,12,16, 0,21, 0.00,60.00,Tuesday
7,-8.9
718,19.703092029940045
719,-3.423798185920099
720,14.326296225169884
619,4261.367948633894
633,1547.3305483273195
659,0.08078381283120702
661,0.0
690,161.64692642207817
716,85.44000000000004
843,3805.18552565143
844,3805.18552565143
907,0.0
908,0.0
971,0.0
972,0.0
1195,2587.0502658918936
1197,2587.0502658918936
2,2,12,16, 0,22, 0.00,60.00,Tuesday
7,-8.9
718,19.7108732037501
719,-3.8050719886403583
720,14.259161216117107
619,4261.565513622204
633,1547.1096221424687
659,0.08078381283120702
661,0.0
690,161.64692642207817
716,41.40874242689876
843,4165.134865879361
844,4165.134865879361
907,0.0
908,0.0
971,0.0
972,0.0
1195,2316.5101766378957
1197,2316.5101766378957
2,2,12,16, 0,23, 0.00,60.00,Tuesday
7,-8.9
718,18.977748784105234
719,-4.177335948227132
720,14.192550453904316
619,4261.436373814857
633,1547.2540328541234
659,0.08078381283120702
661,0.0
690,161.64692642207817
716,0.0
843,3021.342987120506
844,3021.342987120506
907,0.0
908,0.0
971,0.0
972,0.0
1195,490.2751081698857
1197,490.2751081698857
2,2,12,16, 0,24, 0.00,60.00,Tuesday
7,-8.9
718,18.73393478879426
719,-4.112860728606286
720,14.086819678936036
619,4280.591841147664
633,1525.8067028850187
659,0.08078381283120702
661,0.0
690,161.64692642207817
716,0.0
843,3409.795731717115
844,3409.795731717115
907,0.0
908,0.0
971,0.0
972,0.0
1195,887.5698014798327
1197,887.5698014798327
2,3,12,17, 0, 1, 0.00,60.00,Wednesday
7,-8.9
718,18.648538124589653
719,-4.128380875743911
720,14.00400607829504
619,4287.029977044972
633,1518.5871741455874
659,0.08078381283120702
661,0.0
690,161.64692642207817
716,0.0
843,3882.183214870636
844,3882.183214870636
907,0.0
908,0.0
971,0.0
972,0.0
1195,1423.7085166174197
1197,1423.7085166174197
2,3,12,17, 0, 2, 0.00,60.00,Wednesday
7,-8.3
718,18.618700863841177
719,-3.608357015839356
720,13.924065567355372
619,4367.69750028655
633,1523.8786062827742
659,0.08078381283120702
661,0.0
690,161.64692642207817
716,0.0
843,4255.772498273704
844,4255.772498273704
907,0.0
908,0.0
971,0.0
972,0.0
1195,1778.7204830502224
1197,1778.7204830502224
2,3,12,17, 0, 3, 0.00,60.00,Wednesday
7,-8.3
718,18.61243793104762
719,-3.717753836320713
720,13.842929888997181
619,4368.5701680905095
633,1522.8924531062628
659,0.08078381283120702
661,0.0
690,161.64692642207817
716,0.0
843,4296.467581613491
844,4296.467581613491
907,0.0
908,0.0
971,0.0
972,0.0
1195,1799.9960010460727
1197,1799.9960010460727
2,3,12,17, 0, 4, 0.00,60.00,Wednesday
7,-7.8
718,18.609799547988228
719,-3.252030480150736
720,13.771447332653624
619,4434.72679843449
633,1529.1550623783608
659,0.08078381283120702
661,0.0
690,161.64692642207817
716,0.0
843,3993.580012980421
844,3993.580012980421
907,0.0
908,0.0
971,0.0
972,0.0
1195,1369.107556072704
1197,1369.107556072704
2,3,12,17, 0, 5, 0.00,60.00,Wednesday
7,-7.2
718,18.6103932680806
719,-3.114536651200578
720,13.699765894115155
619,4514.735349682734
633,1536.7813316900038
659,0.08078381283120702
661,0.0
690,161.64692642207817
716,0.0
843,3943.137332497414
844,3943.137332497414
907,0.0
908,0.0
971,0.0
972,0.0
1195,1211.0871896709305
1197,1211.0871896709305
2,3,12,17, 0, 6, 0.00,60.00,Wednesday
7,-7.2
718,19.25790583362241
719,-2.427322980550377
720,13.628423297026258
619,4514.8180062491265
633,1536.6868281563093
659,0.08078381283120702
661,0.0
690,161.64692642207817
716,80.93771263671806
843,5112.901877099275
844,5112.901877099275
907,0.0
908,0.0
971,0.0
972,0.0
1195,3502.597755879884
1197,3502.597755879884
2,3,12,17, 0, 7, 0.00,60.00,Wednesday
7,-7.2
718,19.523324491231232
719,-2.248048338337715
720,13.591621172518193
619,4498.023849416066
633,1555.88356975243
659,0.08078381283120702
661,0.0
690,161.64692642207817
716,85.44000000000004
843,4899.750945675902
844,4899.750945675902
907,0.0
908,0.0
971,0.0
972,0.0
1195,3479.571093662557
1197,3479.571093662557
2,3,12,17, 0, 8, 0.00,60.00,Wednesday
7,-6.7
718,19.64027987077301
719,-2.1553979301584603
720,13.54327676473067
619,4558.168415120711
633,1570.5282997449717
659,0.08078381283120702
661,0.0
690,161.64692642207817
716,75.82224652141281
843,4259.467273849143
844,4259.467273849143
907,0.0
908,0.0
971,0.0
972,0.0
1195,2546.1883887870754
1197,2546.1883887870754
2,3,12,17, 0, 9, 0.00,60.00,Wednesday
7,-6.7
718,19.69922145495594
719,-1.9956520513683738
720,13.492697366332392
619,4555.148891701696
633,1573.9957638311541
659,0.08078381283120702
661,0.0
690,161.64692642207817
716,0.0
843,4285.674070616735
844,4285.674070616735
907,0.0
908,0.0
971,0.0
972,0.0
1195,1606.6893963283524
1197,1606.6893963283524
2,3,12,17, 0,10, 0.00,60.00,Wednesday
7,-6.1
718,19.71299663436879
719,-1.9718140735170042
720,13.447613348817093
619,4634.88132476944
633,1583.805426385025
659,0.08078381283120702
661,0.0
690,161.64692642207817
716,0.0
843,4078.167697894154
844,4078.167697894154
907,0.0
908,0.0
971,0.0
972,0.0
1195,1270.5303036441105
1197,1270.5303036441105
2,3,12,17, 0,11, 0.00,60.00,Wednesday
7,-6.1
718,19.718040843039315
719,-1.7339273305031524
720,13.39592363510718
619,4564.504342243303
633,1560.1895307044408
659,17.74507512704513
661,0.0
690,161.64692642207817
716,0.0
843,4142.61310292161
844,4142.61310292161
907,0.0
908,0.0
971,0.0
972,0.0
1195,1425.5004238094962
1197,1425.5004238094962
2,3,12,17, 0,12, 0.00,60.00,Wednesday
7,-5.6
718,19.718852220672805
719,-1.3394602424049524
720,13.352512023241749
619,4595.609934947525
633,1554.7046700160083
659,26.71031898765603
661,0.0
690,161.64692642207817
716,0.0
843,4002.7124570865435
844,4002.7124570865435
907,0.0
908,0.0
971,0.0
972,0.0
1195,1211.8129607577034
1197,1211.8129607577034
2,3,12,17, 0,13, 0.00,60.00,Wednesday
7,-5.6
718,19.72078968719142
719,-1.170828486572183
720,13.305908269097044
619,4595.648556805876
633,1554.6598470500228
659,26.71031898765603
661,0.0
690,161.64692642207817
716,0.0
843,3952.076574803983
844,3952.076574803983
907,0.0
908,0.0
971,0.0
972,0.0
1195,1135.2112449503584
1197,1135.2112449503584
2,3,12,17, 0,14, 0.00,60.00,Wednesday
7,-5.6
718,19.72008355213642
719,-0.8303775604695903
720,13.263506268559485
619,4543.247375364104
633,1536.92482841861
659,39.72751539085187
661,0.0
690,161.64692642207817
716,0.0
843,3850.444651164529
844,3850.444651164529
907,0.0
908,0.0
971,0.0
972,0.0
1195,1055.1531647628176
1197,1055.1531647628176
2,3,12,17, 0,15, 0.00,60.00,Wednesday
7,-6.1
718,19.708940708819256
719,-0.7912791566186972
720,13.218507553090706
619,4443.997868642696
633,1518.928860325166
659,48.13023245945026
661,0.0
690,161.64692642207817
716,73.2978867584707
843,3750.90240723251
844,3750.90240723251
907,0.0
908,0.0
971,0.0
972,0.0
1195,1936.240858063171
1197,1936.240858063171
2,3,12,17, 0,16, 0.00,60.00,Wednesday
7,-6.1
718,19.712442952680785
719,-1.6968525742390212
720,13.177275731560533
619,4388.150758771006
633,1499.322736413731
659,62.293388155701
661,0.0
690,161.64692642207817
716,82.48099199990757
843,3765.8191834603713
844,3765.8191834603713
907,0.0
908,0.0
971,0.0
972,0.0
1195,2135.0071700146427
1197,2135.0071700146427
2,3,12,17, 0,17, 0.00,60.00,Wednesday
7,-6.1
718,19.723664150587783
719,-0.5681757073907272
720,13.14069919640996
619,4356.254630045457
633,1488.5039111350866
659,70.31864203362409
661,0.0
690,161.64692642207817
716,0.0
843,3377.90858886945
844,3377.90858886945
907,0.0
908,0.0
971,0.0
972,0.0
1195,715.2176874570814
1197,715.2176874570814
2,3,12,17, 0,18, 0.00,60.00,Wednesday
7,-6.1
718,19.72229228334292
719,-1.4865744562271463
720,13.101954002048947
619,4356.034354795718
633,1488.7583666940961
659,70.31864203362409
661,0.0
690,161.64692642207817
716,0.0
843,3210.4619337630447
844,3210.4619337630447
907,0.0
908,0.0
971,0.0
972,0.0
1195,455.44646403210163
1197,455.44646403210163
2,3,12,17, 0,19, 0.00,60.00,Wednesday
7,-6.1
718,19.72254689504597
719,-1.7634141848079254
720,13.065089621142358
619,4354.376252342241
633,1488.0699795494754
659,70.75704109740761
661,0.0
690,161.64692642207817
716,0.0
843,2966.760899053146
844,2966.760899053146
907,0.0
908,0.0
971,0.0
972,0.0
1195,221.1158328863212
1197,221.1158328863212
2,3,12,17, 0,20, 0.00,60.00,Wednesday
7,-5.6
718,19.71956797066091
719,-1.3046535738074478
720,13.034055136095448
619,4434.766288941131
633,1499.8337760495722
659,66.73805960496566
661,0.0
690,161.64692642207817
716,85.44000000000004
843,2748.7439784453672
844,2748.7439784453672
907,0.0
908,0.0
971,0.0
972,0.0
1195,1122.3098343253723
1197,1122.3098343253723
2,3,12,17, 0,21, 0.00,60.00,Wednesday
7,-5.6
718,19.70963590545978
719,-1.160903986945906
720,12.99792830878317
619,4406.729840808346
633,1490.185942811002
659,73.72905757334841
661,0.0
690,161.64692642207817
716,85.44000000000004
843,2688.555555656223
844,2688.555555656223
907,0.0
908,0.0
971,0.0
972,0.0
1195,1037.3171279686653
1197,1037.3171279686653
2,3,12,17, 0,22, 0.00,60.00,Wednesday
7,-5.6
718,19.71737096811172
719,-1.2578361117886232
720,12.96091099842903
619,4433.270211891057
633,1498.706256237146
659,67.21264797375768
661,0.0
690,161.64692642207817
716,28.357159194277976
843,3006.971228948538
844,3006.971228948538
907,0.0
908,0.0
971,0.0
972,0.0
1195,537.8600602272172
1197,537.8600602272172
2,3,12,17, 0,23, 0.00,60.00,Wednesday
7,-5.6
718,18.980492499677542
719,-1.5053739095183967
720,12.887464963681705
619,3247.5861133164335
633,1144.7768353203492
659,51.3243481029737
661,47.27770843662451
690,121.88467740588136
716,0.0
843,2079.539166832312
844,2079.539166832312
907,0.0
908,0.0
971,0.0
972,0.0
1195,0.0
1197,0.0
2,3,12,17, 0,24, 0.00,60.00,Wednesday
7,-5.6
718,18.673709100422062
719,-1.3654220344992551
720,12.845202897488269
619,3896.056555295833
633,1326.169049011622
659,60.32024588342575
661,20.493440003613216
690,143.26837277239704
716,0.0
843,2549.7266972229136
844,2549.7266972229136
907,0.0
908,0.0
971,0.0
972,0.0
1195,0.0
1197,0.0
2,4,12,18, 0, 1, 0.00,60.00,Thursday
7,-5.6
718,18.603982144384414
719,-1.1923257497962645
720,12.80233696810486
619,4459.261362392253
633,1468.5897548838395
659,67.20673148060986
661,0.0
690,161.64692642207817
716,0.0
843,3057.93870921087
844,3057.93870921087
907,0.0
908,0.0
971,0.0
972,0.0
1195,137.5744606756425
1197,137.5744606756425
2,4,12,18, 0, 2, 0.00,60.00,Thursday
7,-6.1
718,18.605680525677265
719,-1.0827981197012266
720,12.750371619452029
619,4417.851905992838
633,1467.429824039637
659,61.886917503720575
661,0.0
690,161.64692642207817
716,0.0
843,3655.2725200581244
844,3655.2725200581244
907,0.0
908,0.0
971,0.0
972,0.0
1195,874.9409313682963
1197,874.9409313682963
2,4,12,18, 0, 3, 0.00,60.00,Thursday
7,-7.2
718,18.60441950195892
719,-1.8081328356231388
720,12.69454916333938
619,4325.145584040213
633,1470.0955582767617
659,49.5099494979552
661,0.0
690,161.64692642207817
716,0.0
843,4379.100996284658
844,4379.100996284658
907,0.0
908,0.0
971,0.0
972,0.0
1195,1832.7799070369729
1197,1832.7799070369729
2,4,12,18, 0, 4, 0.00,60.00,Thursday
7,-7.8
718,18.604761431158163
719,-1.9971571636871823
720,12.645139021373648
619,4260.422756791504
633,1466.514923605381
659,46.44481519116663
661,0.0
690,161.64692642207817
716,0.0
843,4494.9871189509795
844,4494.9871189509795
907,0.0
908,0.0
971,0.0
972,0.0
1195,2068.7846273032264
1197,2068.7846273032264
2,4,12,18, 0, 5, 0.00,60.00,Thursday
7,-8.3
718,18.60588102634591
719,-2.537670411481492
720,12.591212363031689
619,4227.930205747289
633,1470.86900886137
659,38.22896743620872
661,0.0
690,161.64692642207817
716,0.0
843,4735.5919610240635
844,4735.5919610240635
907,0.0
908,0.0
971,0.0
972,0.0
1195,2411.39257298104
1197,2411.39257298104
2,4,12,18, 0, 6, 0.00,60.00,Thursday
7,-9.0
718,19.36525810259012
719,-3.0239783079834934
720,12.535087910918028
619,4155.489321895416
633,1467.5496069700748
659,33.89696527599034
661,0.0
690,161.64692642207817
716,0.0
843,6022.077086254443
844,6022.077086254443
907,0.0
908,0.0
971,0.0
972,0.0
1195,4037.7669689506265
1197,4037.7669689506265
2,4,12,18, 0, 7, 0.00,60.00,Thursday
7,-9.4
718,19.559366979295277
719,-3.433669720238865
720,12.512233145111873
619,4086.4005020961768
633,1483.4612389960005
659,33.89913681750437
661,0.0
690,161.64692642207817
716,85.44000000000004
843,6345.276116415214
844,6345.276116415214
907,0.0
908,0.0
971,0.0
972,0.0
1195,5827.143770172743
1197,5827.143770172743
2,4,12,18, 0, 8, 0.00,60.00,Thursday
7,-9.4
718,19.650584576182847
719,-3.2052495156907157
720,12.46889138934846
619,4101.282903189399
633,1496.1460337536062
659,28.397668202732977
661,0.0
690,161.64692642207817
716,85.44000000000004
843,5462.1587918588375
844,5462.1587918588375
907,0.0
908,0.0
971,0.0
972,0.0
1195,4797.598875670731
1197,4797.598875670731
2,4,12,18, 0, 9, 0.00,60.00,Thursday
7,-9.4
718,19.68550324527947
719,-2.91395930364627
720,12.421039045181105
619,4099.103501067078
633,1498.6787997994657
659,28.37685948536435
661,0.0
690,161.64692642207817
716,72.7317645358311
843,5051.45869868591
844,5051.45869868591
907,0.0
908,0.0