Program Version,EnergyPlus, Version 22.2.0-c249759bad, YMD=2023.09.01 14:24
1,5,Environment Title[],Latitude[deg],Longitude[deg],Time Zone[],Elevation[m]
2,8,Day of Simulation[],Month[],Day of Month[],DST Indicator[1=yes 0=no],Hour[],StartMinute[],EndMinute[],DayType
3,5,Cumulative Day of Simulation[],Month[],Day of Month[],DST Indicator[1=yes 0=no],DayType  ! When Daily Report Variables Requested
4,2,Cumulative Days of Simulation[],Month[]  ! When Monthly Report Variables Requested
5,1,Cumulative Days of Simulation[] ! When Run Period Report Variables Requested
6,1,Calendar Year of Simulation[] ! When Annual Report Variables Requested
618,11,DX_HEATING_COIL,Heating Coil Heating Energy [J] !RunPeriod [Value,Min,Month,Day,Hour,Minute,Max,Month,Day,Hour,Minute]
631,11,DX_HEATING_COIL,Heating Coil Electricity Energy [J] !RunPeriod [Value,Min,Month,Day,Hour,Minute,Max,Month,Day,Hour,Minute]
656,11,DX_HEATING_COIL,Heating Coil Defrost Electricity Energy [J] !RunPeriod [Value,Min,Month,Day,Hour,Minute,Max,Month,Day,Hour,Minute]
657,11,DX_HEATING_COIL,Heating Coil Crankcase Heater Electricity Energy [J] !RunPeriod [Value,Min,Month,Day,Hour,Minute,Max,Month,Day,Hour,Minute]
684,11,HEAT PUMP WATER HEATER EVAPORATOR,Cooling Coil Total Water Heating Energy [J] !RunPeriod [Value,Min,Month,Day,Hour,Minute,Max,Month,Day,Hour,Minute]
685,11,HEAT PUMP WATER HEATER EVAPORATOR,Cooling Coil Water Heating Electricity Energy [J] !RunPeriod [Value,Min,Month,Day,Hour,Minute,Max,Month,Day,Hour,Minute]
712,11,LIVING,AFN Zone Infiltration Air Change Rate [ach] !RunPeriod [Value,Min,Month,Day,Hour,Minute,Max,Month,Day,Hour,Minute]
713,11,ATTIC,AFN Zone Infiltration Air Change Rate [ach] !RunPeriod [Value,Min,Month,Day,Hour,Minute,Max,Month,Day,Hour,Minute]
714,11,CRAWLSPACE,AFN Zone Infiltration Air Change Rate [ach] !RunPeriod [Value,Min,Month,Day,Hour,Minute,Max,Month,Day,Hour,Minute]
1157,11,Facility,Facility Heating Setpoint Not Met Time [hr] !RunPeriod [Value,Min,Month,Day,Hour,Minute,Max,Month,Day,Hour,Minute]
1158,11,Facility,Facility Cooling Setpoint Not Met Time [hr] !RunPeriod [Value,Min,Month,Day,Hour,Minute,Max,Month,Day,Hour,Minute]
1184,11,HEATING_RESISTANCE_BACKUP,Heating Coil Heating Energy [J] !RunPeriod [Value,Min,Month,Day,Hour,Minute,Max,Month,Day,Hour,Minute]
1185,11,HEATING_RESISTANCE_BACKUP,Heating Coil Electricity Energy [J] !RunPeriod [Value,Min,Month,Day,Hour,Minute,Max,Month,Day,Hour,Minute]
1321,11,WATER HEATER TANK,Water Heater Heat Loss Energy [J] !RunPeriod [Value,Min,Month,Day,Hour,Minute,Max,Month,Day,Hour,Minute]
1335,11,WATER HEATER TANK,Water Heater Heating Energy [J] !RunPeriod [Value,Min,Month,Day,Hour,Minute,Max,Month,Day,Hour,Minute]
1336,11,WATER HEATER TANK,Water Heater Unmet Demand Heat Transfer Energy [J] !RunPeriod [Value,Min,Month,Day,Hour,Minute,Max,Month,Day,Hour,Minute]
1337,11,WATER HEATER TANK,Water Heater Electricity Energy [J] !RunPeriod [Value,Min,Month,Day,Hour,Minute,Max,Month,Day,Hour,Minute]
13,11,Electricity:Facility [J] !RunPeriod [Value,Min,Month,Day,Hour,Minute,Max,Month,Day,Hour,Minute]
637,11,Heating:Electricity [J] !RunPeriod [Value,Min,Month,Day,Hour,Minute,Max,Month,Day,Hour,Minute]
599,11,Cooling:Electricity [J] !RunPeriod [Value,Min,Month,Day,Hour,Minute,Max,Month,Day,Hour,Minute]
692,11,Fans:Electricity [J] !RunPeriod [Value,Min,Month,Day,Hour,Minute,Max,Month,Day,Hour,Minute]
1374,11,Pumps:Electricity [J] !RunPeriod [Value,Min,Month,Day,Hour,Minute,Max,Month,Day,Hour,Minute]
677,11,WaterSystems:Electricity [J] !RunPeriod [Value,Min,Month,Day,Hour,Minute,Max,Month,Day,Hour,Minute]
61,11,InteriorLights:Electricity [J] !RunPeriod [Value,Min,Month,Day,Hour,Minute,Max,Month,Day,Hour,Minute]
1165,11,ExteriorLights:Electricity [J] !RunPeriod [Value,Min,Month,Day,Hour,Minute,Max,Month,Day,Hour,Minute]
134,11,InteriorEquipment:Electricity [J] !RunPeriod [Value,Min,Month,Day,Hour,Minute,Max,Month,Day,Hour,Minute]
170,11,gas_dryer:InteriorEquipment:Electricity [J] !RunPeriod [Value,Min,Month,Day,Hour,Minute,Max,Month,Day,Hour,Minute]
207,11,clotheswasher:InteriorEquipment:Electricity [J] !RunPeriod [Value,Min,Month,Day,Hour,Minute,Max,Month,Day,Hour,Minute]
244,11,dishwasher:InteriorEquipment:Electricity [J] !RunPeriod [Value,Min,Month,Day,Hour,Minute,Max,Month,Day,Hour,Minute]
281,11,refrigerator:InteriorEquipment:Electricity [J] !RunPeriod [Value,Min,Month,Day,Hour,Minute,Max,Month,Day,Hour,Minute]
318,11,electric_mels:InteriorEquipment:Electricity [J] !RunPeriod [Value,Min,Month,Day,Hour,Minute,Max,Month,Day,Hour,Minute]
355,11,NaturalGas:Facility [J] !RunPeriod [Value,Min,Month,Day,Hour,Minute,Max,Month,Day,Hour,Minute]
403,11,InteriorEquipment:NaturalGas [J] !RunPeriod [Value,Min,Month,Day,Hour,Minute,Max,Month,Day,Hour,Minute]
476,11,gas_dryer:InteriorEquipment:NaturalGas [J] !RunPeriod [Value,Min,Month,Day,Hour,Minute,Max,Month,Day,Hour,Minute]
513,11,gas_mels:InteriorEquipment:NaturalGas [J] !RunPeriod [Value,Min,Month,Day,Hour,Minute,Max,Month,Day,Hour,Minute]
End of Data Dictionary
1,EXTREME_WINTER,  33.95,-117.43,  -8.00, 249.00
5,7
1157,0.0,0.0, 2,15, 1,15,0.0, 2,15, 1,15
1158,0.0,0.0, 2,15, 1,15,0.0, 2,15, 1,15
618,141729427.01954374,0.0, 2,15, 6, 7,2324844.1939815804, 2,15, 7,45
631,37506285.46612791,0.0, 2,15, 6, 7,611684.3836256089, 2,15, 7,45
656,64024.28098652501,0.0, 2,15, 1,15,20087.70244693477, 2,18, 7, 7
657,35493691.37740194,0.0, 2,15, 6, 3,180000.0, 2,15,18,60
684,204898960.94362032,0.0, 2,15, 1,15,1591303.9269673217, 2,19,16,60
685,43626818.08154391,0.0, 2,15, 1,15,342058.37861854647, 2,19, 8,30
712,0.17280003208315323,0.07223812823191278, 2,17, 7,50,0.5681520862490078, 2,16,11,60
713,1.9472894902539186,0.0, 2,15, 1,15,10.65736303406853, 2,16,11,60
714,0.010159973786731353,0.0000664579195509472, 2,17, 9,46,0.07863283966964137, 2,15, 6, 3
1184,0.0,0.0, 2,15, 1,15,0.0, 2,15, 1,15
1185,0.0,0.0, 2,15, 1,15,0.0, 2,15, 1,15
1321,-35848708.94131077,-62425.28564849957, 2,21,13,30,-4194.470527077609, 2,21,10,16
1335,0.0,0.0, 2,15, 1,15,0.0, 2,15, 1,15
1336,52421919.84469632,2710.749709607501, 2,21,10,30,1287848.6760317036, 2,15, 7,15
1337,0.0,0.0, 2,15, 1,15,0.0, 2,15, 1,15
13,583218640.7096412,159353.1275401932, 2,17, 4,15,2428216.7975726887, 2,15,21,30
61,301924526.02383536,88139.10953165221, 2,15, 1,15,1282023.4113694867, 2,15,20,15
134,70666020.44019976,63564.01800854099, 2,15, 4,15,156554.22484006523, 2,20,20,15
170,5241013.419656067,348.4159749238097, 2,15, 4,15,17476.39704006126, 2,20,12,15
207,6509451.13922267,815.2532113832032, 2,15, 3,15,22990.642799023623, 2,20,10,15
244,12749673.399825225,1521.856143006317, 2,15, 4,15,53038.631142310165, 2,20,20,15
281,46165882.481495745,59938.60262432081, 2,15, 5,15,81951.81706819107, 2,15,19,15
318,0.0,0.0, 2,15, 1,15,0.0, 2,15, 1,15
355,197687796.27748066,18561.32405820678, 2,15, 4,15,724774.895203776, 2,20,18,15
403,197687796.27748066,18561.32405820678, 2,15, 4,15,724774.895203776, 2,20,18,15
476,106772067.24485716,7098.072629279515, 2,15, 4,15,356036.3026282215, 2,20,12,15
513,0.0,0.0, 2,15, 1,15,0.0, 2,15, 1,15
599,66178144.30803318,0.0, 2,15, 1,15,737843.1769622242, 2,17,15,45
637,73064001.12451634,0.0, 2,16, 9,60,764312.4272903568, 2,18, 7,15
677,48767618.0815439,7650.0, 2,15, 1,15,370657.43097421934, 2,21,22,30
692,22618330.731512096,0.0, 2,15,18,60,146967.95569383065, 2,17,16,30
1165,0.0,0.0, 2,15, 1,15,0.0, 2,15, 1,15
1374,0.0,0.0, 2,15, 1,15,0.0, 2,15, 1,15
1,EXTREME_SUMMER,  33.95,-117.43,  -8.00, 249.00
5,7
1157,0.0,0.0, 9,26, 1,15,0.0, 9,26, 1,15
1158,28.75,0.0, 9,26, 1,15,0.25, 9,26,14,30
618,0.0,0.0, 9,26, 1, 7,0.0, 9,26, 1, 7
631,0.0,0.0, 9,26, 1, 7,0.0, 9,26, 1, 7
656,0.0,0.0, 9,26, 1, 7,0.0, 9,26, 1, 7
657,0.0,0.0, 9,26, 1, 7,0.0, 9,26, 1, 7
684,171302044.2448438,0.0, 9,26, 1, 7,1697033.5060040352, 9,30, 7,15
685,36059988.90044276,0.0, 9,26, 1, 7,343544.8559736204, 9,28, 6,60
712,0.07127637645619644,0.0, 9,26, 7,48,0.36166039571423575, 9,30,16,50
713,2.50505076086466,0.02802010778039235, 9,26, 8,55,11.951727644727287, 9,30,16,47
714,0.035029572881717576,0.0, 9,26,23, 3,0.07790960335301626, 9,30,16,50
1184,0.0,0.0, 9,26, 1, 7,0.0, 9,26, 1, 7
1185,0.0,0.0, 9,26, 1, 7,0.0, 9,26, 1, 7
1321,-31163998.052904677,-58097.5658104728, 9,26, 2,60,-2588.1345350677047,10, 2, 9,46
1335,0.0,0.0, 9,26, 1, 7,0.0, 9,26, 1, 7
1336,45507134.775699586,1818.0330588055147,10, 2, 9,60,1047017.5070857119, 9,26, 7,15
1337,0.0,0.0, 9,26, 1, 7,0.0, 9,26, 1, 7
13,942217630.5224204,159353.1275401932, 9,26, 4,60,3435562.772524443,10, 2,19,15
61,301924526.02383536,88139.10953165221, 9,26, 1,15,1282023.4113694867, 9,26,20,15
134,70666020.44019976,63564.01800854099, 9,26, 4,15,156554.22484006523,10, 1,20,15
170,5241013.419656067,348.4159749238097, 9,26, 4,15,17476.39704006126,10, 1,12,15
207,6509451.13922267,815.2532113832032, 9,26, 3,15,22990.642799023623,10, 1,10,15
244,12749673.399825225,1521.856143006317, 9,26, 4,15,53038.631142310165,10, 1,20,15
281,46165882.481495745,59938.60262432081, 9,26, 5,15,81951.81706819107, 9,26,19,15
318,0.0,0.0, 9,26, 1,15,0.0, 9,26, 1,15
355,197687796.27748066,18561.32405820678, 9,26, 4,15,724774.895203776,10, 1,18,15
403,197687796.27748066,18561.32405820678, 9,26, 4,15,724774.895203776,10, 1,18,15
476,106772067.24485716,7098.072629279515, 9,26, 4,15,356036.3026282215,10, 1,12,15
513,0.0,0.0, 9,26, 1,15,0.0, 9,26, 1,15
599,473548602.16067207,0.0, 9,26, 4,60,1848762.5135796198,10, 2,13,60
637,0.0,0.0, 9,26, 1,15,0.0, 9,26, 1,15
677,41200788.90044276,7650.0, 9,26, 1,15,379891.14458914206,10, 2,21,60
692,54877692.99727049,0.0, 9,26, 4,60,227691.0898540074,10, 2,18,60
1165,0.0,0.0, 9,26, 1,15,0.0, 9,26, 1,15
1374,0.0,0.0, 9,26, 1,15,0.0, 9,26, 1,15
1,ANNUAL,  33.95,-117.43,  -8.00, 249.00
