Program Version,EnergyPlus, Version 22.2.0-c249759bad, YMD=2023.09.01 20:25
1,5,Environment Title[],Latitude[deg],Longitude[deg],Time Zone[],Elevation[m]
2,8,Day of Simulation[],Month[],Day of Month[],DST Indicator[1=yes 0=no],Hour[],StartMinute[],EndMinute[],DayType
3,5,Cumulative Day of Simulation[],Month[],Day of Month[],DST Indicator[1=yes 0=no],DayType  ! When Daily Report Variables Requested
4,2,Cumulative Days of Simulation[],Month[]  ! When Monthly Report Variables Requested
5,1,Cumulative Days of Simulation[] ! When Run Period Report Variables Requested
6,1,Calendar Year of Simulation[] ! When Annual Report Variables Requested
581,11,LIVING,AFN Zone Infiltration Air Change Rate [ach] !RunPeriod [Value,Min,Month,Day,Hour,Minute,Max,Month,Day,Hour,Minute]
582,11,ATTIC,AFN Zone Infiltration Air Change Rate [ach] !RunPeriod [Value,Min,Month,Day,Hour,Minute,Max,Month,Day,Hour,Minute]
583,11,CRAWLSPACE,AFN Zone Infiltration Air Change Rate [ach] !RunPeriod [Value,Min,Month,Day,Hour,Minute,Max,Month,Day,Hour,Minute]
1038,11,Facility,Facility Heating Setpoint Not Met Time [hr] !RunPeriod [Value,Min,Month,Day,Hour,Minute,Max,Month,Day,Hour,Minute]
1039,11,Facility,Facility Cooling Setpoint Not Met Time [hr] !RunPeriod [Value,Min,Month,Day,Hour,Minute,Max,Month,Day,Hour,Minute]
1115,11,DX_HEATING_COIL,Heating Coil Heating Energy [J] !RunPeriod [Value,Min,Month,Day,Hour,Minute,Max,Month,Day,Hour,Minute]
1128,11,DX_HEATING_COIL,Heating Coil Electricity Energy [J] !RunPeriod [Value,Min,Month,Day,Hour,Minute,Max,Month,Day,Hour,Minute]
1153,11,DX_HEATING_COIL,Heating Coil Defrost Electricity Energy [J] !RunPeriod [Value,Min,Month,Day,Hour,Minute,Max,Month,Day,Hour,Minute]
1154,11,DX_HEATING_COIL,Heating Coil Crankcase Heater Electricity Energy [J] !RunPeriod [Value,Min,Month,Day,Hour,Minute,Max,Month,Day,Hour,Minute]
1155,11,HEATING_RESISTANCE_BACKUP,Heating Coil Heating Energy [J] !RunPeriod [Value,Min,Month,Day,Hour,Minute,Max,Month,Day,Hour,Minute]
1156,11,HEATING_RESISTANCE_BACKUP,Heating Coil Electricity Energy [J] !RunPeriod [Value,Min,Month,Day,Hour,Minute,Max,Month,Day,Hour,Minute]
1292,11,WATER HEATER,Water Heater Heat Loss Energy [J] !RunPeriod [Value,Min,Month,Day,Hour,Minute,Max,Month,Day,Hour,Minute]
1306,11,WATER HEATER,Water Heater Heating Energy [J] !RunPeriod [Value,Min,Month,Day,Hour,Minute,Max,Month,Day,Hour,Minute]
1307,11,WATER HEATER,Water Heater Unmet Demand Heat Transfer Energy [J] !RunPeriod [Value,Min,Month,Day,Hour,Minute,Max,Month,Day,Hour,Minute]
1308,11,WATER HEATER,Water Heater Electricity Energy [J] !RunPeriod [Value,Min,Month,Day,Hour,Minute,Max,Month,Day,Hour,Minute]
13,11,Electricity:Facility [J] !RunPeriod [Value,Min,Month,Day,Hour,Minute,Max,Month,Day,Hour,Minute]
1134,11,Heating:Electricity [J] !RunPeriod [Value,Min,Month,Day,Hour,Minute,Max,Month,Day,Hour,Minute]
1096,11,Cooling:Electricity [J] !RunPeriod [Value,Min,Month,Day,Hour,Minute,Max,Month,Day,Hour,Minute]
562,11,Fans:Electricity [J] !RunPeriod [Value,Min,Month,Day,Hour,Minute,Max,Month,Day,Hour,Minute]
1379,11,Pumps:Electricity [J] !RunPeriod [Value,Min,Month,Day,Hour,Minute,Max,Month,Day,Hour,Minute]
1326,11,WaterSystems:Electricity [J] !RunPeriod [Value,Min,Month,Day,Hour,Minute,Max,Month,Day,Hour,Minute]
61,11,InteriorLights:Electricity [J] !RunPeriod [Value,Min,Month,Day,Hour,Minute,Max,Month,Day,Hour,Minute]
1046,11,ExteriorLights:Electricity [J] !RunPeriod [Value,Min,Month,Day,Hour,Minute,Max,Month,Day,Hour,Minute]
134,11,InteriorEquipment:Electricity [J] !RunPeriod [Value,Min,Month,Day,Hour,Minute,Max,Month,Day,Hour,Minute]
170,11,gas_dryer:InteriorEquipment:Electricity [J] !RunPeriod [Value,Min,Month,Day,Hour,Minute,Max,Month,Day,Hour,Minute]
207,11,clotheswasher:InteriorEquipment:Electricity [J] !RunPeriod [Value,Min,Month,Day,Hour,Minute,Max,Month,Day,Hour,Minute]
244,11,dishwasher:InteriorEquipment:Electricity [J] !RunPeriod [Value,Min,Month,Day,Hour,Minute,Max,Month,Day,Hour,Minute]
281,11,refrigerator:InteriorEquipment:Electricity [J] !RunPeriod [Value,Min,Month,Day,Hour,Minute,Max,Month,Day,Hour,Minute]
318,11,electric_mels:InteriorEquipment:Electricity [J] !RunPeriod [Value,Min,Month,Day,Hour,Minute,Max,Month,Day,Hour,Minute]
355,11,NaturalGas:Facility [J] !RunPeriod [Value,Min,Month,Day,Hour,Minute,Max,Month,Day,Hour,Minute]
403,11,InteriorEquipment:NaturalGas [J] !RunPeriod [Value,Min,Month,Day,Hour,Minute,Max,Month,Day,Hour,Minute]
476,11,gas_dryer:InteriorEquipment:NaturalGas [J] !RunPeriod [Value,Min,Month,Day,Hour,Minute,Max,Month,Day,Hour,Minute]
513,11,gas_mels:InteriorEquipment:NaturalGas [J] !RunPeriod [Value,Min,Month,Day,Hour,Minute,Max,Month,Day,Hour,Minute]
End of Data Dictionary
1,EXTREME_WINTER,  25.79, -80.32,  -5.00,   8.80
5,7
1038,0.0,0.0, 1,15, 1,15,0.0, 1,15, 1,15
1039,0.0,0.0, 1,15, 1,15,0.0, 1,15, 1,15
581,0.22379733055628714,0.021915333047674443, 1,15,20, 7,0.4336965582006635, 1,17,14,60
582,4.017092554097329,0.06798290952605104, 1,15,19,52,8.333364183901676, 1,16,12,60
583,0.01372094676591165,0.0006521847839753197, 1,19,10,18,0.06657409380781103, 1,15, 6, 3
1115,2068509.7852559024,0.0, 1,15, 1,15,300835.00359543104, 1,18, 7,60
1128,550639.9623955179,0.0, 1,15, 1,15,79786.22077747383, 1,18, 7,60
1153,0.0,0.0, 1,15, 1,15,0.0, 1,15, 1,15
1154,0.0,0.0, 1,15, 1,15,0.0, 1,15, 1,15
1155,0.0,0.0, 1,15, 1,15,0.0, 1,15, 1,15
1156,0.0,0.0, 1,15, 1,15,0.0, 1,15, 1,15
1292,-22700192.67109964,-38430.50154788359, 1,17, 7,30,-3593.367102417364, 1,19,10,59
1306,128027134.68660337,0.0, 1,15, 1,15,4050000.0, 1,19, 8,30
1307,13734022.308729153,0.0, 1,15, 1,15,1236295.8997003308, 1,18,10,18
1308,128027134.68660337,0.0, 1,15, 1,15,4050000.0, 1,19, 8,30
13,641490555.8424954,151703.1275401932, 1,15, 4,15,5632460.510407517, 1,21,20,60
61,301924526.02383536,88139.10953165221, 1,15, 1,15,1282023.4113694867, 1,15,20,15
134,70666020.44019976,63564.01800854099, 1,15, 4,15,156554.22484006523, 1,20,20,15
170,5241013.419656067,348.4159749238097, 1,15, 4,15,17476.39704006126, 1,20,12,15
207,6509451.13922267,815.2532113832032, 1,15, 3,15,22990.642799023623, 1,20,10,15
244,12749673.399825225,1521.856143006317, 1,15, 4,15,53038.631142310165, 1,20,20,15
281,46165882.481495745,59938.60262432081, 1,15, 5,15,81951.81706819107, 1,15,19,15
318,0.0,0.0, 1,15, 1,15,0.0, 1,15, 1,15
355,197687796.27748066,18561.32405820678, 1,15, 4,15,724774.895203776, 1,20,18,15
403,197687796.27748066,18561.32405820678, 1,15, 4,15,724774.895203776, 1,20,18,15
476,106772067.24485716,7098.072629279515, 1,15, 4,15,356036.3026282215, 1,20,12,15
513,0.0,0.0, 1,15, 1,15,0.0, 1,15, 1,15
562,15727731.24584322,0.0, 1,15, 3,45,113719.70854027444, 1,21,17,30
1046,0.0,0.0, 1,15, 1,15,0.0, 1,15, 1,15
1096,124594503.48361827,0.0, 1,15, 3,45,967617.2859914629, 1,21,17,15
1134,550639.9623955179,0.0, 1,15, 1,15,79786.22077747383, 1,18, 7,60
1326,128027134.68660338,0.0, 1,15, 1,15,4050000.0, 1,17, 9,45
1379,0.0,0.0, 1,15, 1,15,0.0, 1,15, 1,15
1,EXTREME_SUMMER,  25.79, -80.32,  -5.00,   8.80
5,7
1038,0.0,0.0, 7,23, 1,15,0.0, 7,23, 1,15
1039,68.25,0.0, 7,23, 1,15,0.25, 7,23,12,45
581,0.14318136920570185,0.0, 7,23, 3,15,0.3556338412453156, 7,27,11,60
582,5.398567971575893,0.10852691254237064, 7,26, 8,42,12.77147718216033, 7,29,13,50
583,0.04830200914079469,0.0005080504401179566, 7,26,23, 3,0.0678598180047588, 7,28,18,50
1115,0.0,0.0, 7,23, 1, 7,0.0, 7,23, 1, 7
1128,0.0,0.0, 7,23, 1, 7,0.0, 7,23, 1, 7
1153,0.0,0.0, 7,23, 1, 7,0.0, 7,23, 1, 7
1154,0.0,0.0, 7,23, 1, 7,0.0, 7,23, 1, 7
1155,0.0,0.0, 7,23, 1, 7,0.0, 7,23, 1, 7
1156,0.0,0.0, 7,23, 1, 7,0.0, 7,23, 1, 7
1292,-21735738.53867147,-34334.79186687338, 7,27, 6,60,-4238.210761906254, 7,25,10,60
1306,101634189.6834761,0.0, 7,23, 1, 7,2569930.623117649, 7,24, 7,15
1307,5959313.283978589,0.0, 7,23, 1, 7,707256.1804145697, 7,28,10,18
1308,101634189.6834761,0.0, 7,23, 1, 7,2569930.623117649, 7,24, 7,15
13,1187807978.7864375,423573.2998921357, 7,23, 4,60,5762773.153333548, 7,28,10,30
61,301924526.02383536,88139.10953165221, 7,23, 1,15,1282023.4113694867, 7,23,20,15
134,70666020.44019976,63564.01800854099, 7,23, 4,15,156554.22484006523, 7,28,20,15
170,5241013.419656067,348.4159749238097, 7,23, 4,15,17476.39704006126, 7,28,12,15
207,6509451.13922267,815.2532113832032, 7,23, 3,15,22990.642799023623, 7,28,10,15
244,12749673.399825225,1521.856143006317, 7,23, 4,15,53038.631142310165, 7,28,20,15
281,46165882.481495745,59938.60262432081, 7,23, 5,15,81951.81706819107, 7,23,19,15
318,0.0,0.0, 7,23, 1,15,0.0, 7,23, 1,15
355,197687796.27748066,18561.32405820678, 7,23, 4,15,724774.895203776, 7,28,18,15
403,197687796.27748066,18561.32405820678, 7,23, 4,15,724774.895203776, 7,28,18,15
476,106772067.24485716,7098.072629279515, 7,23, 4,15,356036.3026282215, 7,28,12,15
513,0.0,0.0, 7,23, 1,15,0.0, 7,23, 1,15
562,64856360.40114783,26309.011347478874, 7,23, 5,60,129317.17333654739, 7,24,18,30
1046,0.0,0.0, 7,23, 1,15,0.0, 7,23, 1,15
1096,648726882.2377799,245343.49208863435, 7,23, 5,60,1365529.7643984752, 7,23,17,60
1134,0.0,0.0, 7,23, 1,15,0.0, 7,23, 1,15
1326,101634189.68347612,0.0, 7,23, 1,15,4050000.0, 7,25, 9,30
1379,0.0,0.0, 7,23, 1,15,0.0, 7,23, 1,15
1,ANNUAL,  25.79, -80.32,  -5.00,   8.80
5,365
1038,0.0,0.0, 1, 1, 1,15,0.0, 1, 1, 1,15
1039,1596.5,0.0, 1, 1, 1,15,0.25, 1, 6,15,45
581,0.1528474811039269,0.0, 1, 9, 6,11,0.8477795778196925, 5,26,15,47
582,4.191877269559774,0.0, 1,25,20, 9,22.64927058264353, 5,26,15,46
583,0.038757948460008684,0.0, 2, 7,23, 3,0.0818091641056408, 6,24,19,52
1115,8295436.341480558,0.0, 1, 1, 1,15,1194705.7205644362, 1,24, 6, 5
1128,2293144.749527213,0.0, 1, 1, 1,15,311370.01162253047, 1,24, 6, 5
1153,0.0,0.0, 1, 1, 1,15,0.0, 1, 1, 1,15
1154,14496153.841556717,0.0, 1, 1, 1,15,180000.0, 1,24, 1,30
1155,0.0,0.0, 1, 1, 1,15,0.0, 1, 1, 1,15
1156,0.0,0.0, 1, 1, 1,15,0.0, 1, 1, 1,15
1292,-1143314065.08776,-38456.25035774888, 1,18, 8,60,-2189.0572022032575, 6,16,16, 1
1306,6010389579.674542,0.0, 1, 1, 1,15,4050000.0, 1, 2, 8,45
1307,486225435.49672794,0.0, 1, 1, 1,15,3440501.857530389, 9,23,10,30
1308,6010389579.674542,0.0, 1, 1, 1,15,4050000.0, 1, 2, 8,45
13,51860390133.93813,151703.1275401932, 1, 2, 4,15,5896680.8148843935, 7,31, 8,45
61,15743207428.383959,88139.10953165221, 1, 1, 1,15,1282023.4113694867, 1, 1,20,15
134,3685071073.4325233,63564.01800854099, 1, 2, 4,15,156554.22484006523, 1, 1,20,15
170,273393721.45532674,348.4159749238097, 1, 2, 4,15,17476.39704006126, 1, 1,12,15
207,339560869.0695816,815.2532113832032, 1, 2, 3,15,22990.642799023623, 1, 1,10,15
244,664895467.8009144,1521.856143006317, 1, 2, 4,15,53038.631142310165, 1, 1,20,15
281,2407221015.106824,59938.60262432081, 1, 1, 5,15,81951.81706819107, 1, 1,19,15
318,0.0,0.0, 1, 1, 1,15,0.0, 1, 1, 1,15
355,10310294493.051695,18561.32405820678, 1, 2, 4,15,724774.895203776, 1, 1,18,15
403,10310294493.051695,18561.32405820678, 1, 2, 4,15,724774.895203776, 1, 1,18,15
476,5569688622.066177,7098.072629279515, 1, 2, 4,15,356036.3026282215, 1, 1,12,15
513,0.0,0.0, 1, 1, 1,15,0.0, 1, 1, 1,15
562,2578588606.6036716,0.0, 1, 1, 3,45,129317.17333654742, 5,25,15,30
1046,0.0,0.0, 1, 1, 1,15,0.0, 1, 1, 1,15
1096,23826344147.25035,0.0, 1, 1, 3,45,1398099.1305893268, 8,21,14,60
1134,16789298.59108393,0.0, 1, 1, 1,15,452605.1219632448, 1,24, 6,15
1326,6010389579.674546,0.0, 1, 1, 1,15,4050000.0, 1, 2, 8,45
1379,0.0,0.0, 1, 1, 1,15,0.0, 1, 1, 1,15
End of Data
 Number of Records Written=          99
