Program Version,EnergyPlus, Version 22.2.0-c249759bad, YMD=2023.09.01 20:22
1,5,Environment Title[],Latitude[deg],Longitude[deg],Time Zone[],Elevation[m]
2,8,Day of Simulation[],Month[],Day of Month[],DST Indicator[1=yes 0=no],Hour[],StartMinute[],EndMinute[],DayType
3,5,Cumulative Day of Simulation[],Month[],Day of Month[],DST Indicator[1=yes 0=no],DayType  ! When Daily Report Variables Requested
4,2,Cumulative Days of Simulation[],Month[]  ! When Monthly Report Variables Requested
5,1,Cumulative Days of Simulation[] ! When Run Period Report Variables Requested
6,1,Calendar Year of Simulation[] ! When Annual Report Variables Requested
581,11,LIVING,AFN Zone Infiltration Air Change Rate [ach] !RunPeriod [Value,Min,Month,Day,Hour,Minute,Max,Month,Day,Hour,Minute]
582,11,ATTIC,AFN Zone Infiltration Air Change Rate [ach] !RunPeriod [Value,Min,Month,Day,Hour,Minute,Max,Month,Day,Hour,Minute]
583,11,CRAWLSPACE,AFN Zone Infiltration Air Change Rate [ach] !RunPeriod [Value,Min,Month,Day,Hour,Minute,Max,Month,Day,Hour,Minute]
1038,11,Facility,Facility Heating Setpoint Not Met Time [hr] !RunPeriod [Value,Min,Month,Day,Hour,Minute,Max,Month,Day,Hour,Minute]
1039,11,Facility,Facility Cooling Setpoint Not Met Time [hr] !RunPeriod [Value,Min,Month,Day,Hour,Minute,Max,Month,Day,Hour,Minute]
1115,11,DX_HEATING_COIL,Heating Coil Heating Energy [J] !RunPeriod [Value,Min,Month,Day,Hour,Minute,Max,Month,Day,Hour,Minute]
1128,11,DX_HEATING_COIL,Heating Coil Electricity Energy [J] !RunPeriod [Value,Min,Month,Day,Hour,Minute,Max,Month,Day,Hour,Minute]
1153,11,DX_HEATING_COIL,Heating Coil Defrost Electricity Energy [J] !RunPeriod [Value,Min,Month,Day,Hour,Minute,Max,Month,Day,Hour,Minute]
1154,11,DX_HEATING_COIL,Heating Coil Crankcase Heater Electricity Energy [J] !RunPeriod [Value,Min,Month,Day,Hour,Minute,Max,Month,Day,Hour,Minute]
1155,11,HEATING_RESISTANCE_BACKUP,Heating Coil Heating Energy [J] !RunPeriod [Value,Min,Month,Day,Hour,Minute,Max,Month,Day,Hour,Minute]
1156,11,HEATING_RESISTANCE_BACKUP,Heating Coil Electricity Energy [J] !RunPeriod [Value,Min,Month,Day,Hour,Minute,Max,Month,Day,Hour,Minute]
1292,11,WATER HEATER,Water Heater Heat Loss Energy [J] !RunPeriod [Value,Min,Month,Day,Hour,Minute,Max,Month,Day,Hour,Minute]
1306,11,WATER HEATER,Water Heater Heating Energy [J] !RunPeriod [Value,Min,Month,Day,Hour,Minute,Max,Month,Day,Hour,Minute]
1307,11,WATER HEATER,Water Heater Unmet Demand Heat Transfer Energy [J] !RunPeriod [Value,Min,Month,Day,Hour,Minute,Max,Month,Day,Hour,Minute]
1308,11,WATER HEATER,Water Heater Electricity Energy [J] !RunPeriod [Value,Min,Month,Day,Hour,Minute,Max,Month,Day,Hour,Minute]
13,11,Electricity:Facility [J] !RunPeriod [Value,Min,Month,Day,Hour,Minute,Max,Month,Day,Hour,Minute]
1134,11,Heating:Electricity [J] !RunPeriod [Value,Min,Month,Day,Hour,Minute,Max,Month,Day,Hour,Minute]
1096,11,Cooling:Electricity [J] !RunPeriod [Value,Min,Month,Day,Hour,Minute,Max,Month,Day,Hour,Minute]
562,11,Fans:Electricity [J] !RunPeriod [Value,Min,Month,Day,Hour,Minute,Max,Month,Day,Hour,Minute]
1379,11,Pumps:Electricity [J] !RunPeriod [Value,Min,Month,Day,Hour,Minute,Max,Month,Day,Hour,Minute]
1326,11,WaterSystems:Electricity [J] !RunPeriod [Value,Min,Month,Day,Hour,Minute,Max,Month,Day,Hour,Minute]
61,11,InteriorLights:Electricity [J] !RunPeriod [Value,Min,Month,Day,Hour,Minute,Max,Month,Day,Hour,Minute]
1046,11,ExteriorLights:Electricity [J] !RunPeriod [Value,Min,Month,Day,Hour,Minute,Max,Month,Day,Hour,Minute]
134,11,InteriorEquipment:Electricity [J] !RunPeriod [Value,Min,Month,Day,Hour,Minute,Max,Month,Day,Hour,Minute]
170,11,gas_dryer:InteriorEquipment:Electricity [J] !RunPeriod [Value,Min,Month,Day,Hour,Minute,Max,Month,Day,Hour,Minute]
207,11,clotheswasher:InteriorEquipment:Electricity [J] !RunPeriod [Value,Min,Month,Day,Hour,Minute,Max,Month,Day,Hour,Minute]
244,11,dishwasher:InteriorEquipment:Electricity [J] !RunPeriod [Value,Min,Month,Day,Hour,Minute,Max,Month,Day,Hour,Minute]
281,11,refrigerator:InteriorEquipment:Electricity [J] !RunPeriod [Value,Min,Month,Day,Hour,Minute,Max,Month,Day,Hour,Minute]
318,11,electric_mels:InteriorEquipment:Electricity [J] !RunPeriod [Value,Min,Month,Day,Hour,Minute,Max,Month,Day,Hour,Minute]
355,11,NaturalGas:Facility [J] !RunPeriod [Value,Min,Month,Day,Hour,Minute,Max,Month,Day,Hour,Minute]
403,11,InteriorEquipment:NaturalGas [J] !RunPeriod [Value,Min,Month,Day,Hour,Minute,Max,Month,Day,Hour,Minute]
476,11,gas_dryer:InteriorEquipment:NaturalGas [J] !RunPeriod [Value,Min,Month,Day,Hour,Minute,Max,Month,Day,Hour,Minute]
513,11,gas_mels:InteriorEquipment:NaturalGas [J] !RunPeriod [Value,Min,Month,Day,Hour,Minute,Max,Month,Day,Hour,Minute]
End of Data Dictionary
1,EXTREME_WINTER,  39.64, -79.92,  -5.00, 378.00
5,7
1038,4.5,0.0, 1, 6, 1,15,0.25, 1, 8, 6,15
1039,0.0,0.0, 1, 6, 1,15,0.0, 1, 6, 1,15
581,0.3723730525910202,0.17936339799216738, 1,11,23,15,0.5602478092368656, 1, 7,20,60
582,2.7832618456520546,0.0, 1,10,23,10,8.935638947852713, 1, 9,15,60
583,0.05983191604509954,0.00030075043162440627, 1,11,23,15,0.0752627688654921, 1, 7,20,52
1115,1884961541.3882618,0.0, 1, 6,23, 5,3994135.7942948174, 1,12, 6,45
1128,675008251.5944456,0.0, 1, 6,23, 5,1218366.487802793, 1, 9, 8,60
1153,9158742.56747167,0.0, 1, 6,23, 5,94143.08654439203, 1,12, 6,60
1154,15477111.381805005,0.0, 1, 6, 1,15,151949.05599580004, 1,11,15,15
1155,1034229358.1533182,0.0, 1, 6,14,60,6004408.122037842, 1, 8, 6,15
1156,1034229358.1533182,0.0, 1, 6,14,60,6004408.122037842, 1, 8, 6,15
1292,-25422019.999645963,-39764.832777258496, 1, 9, 4,30,-5174.137791184682, 1,11,11, 2
1306,127434352.47883579,0.0, 1, 6, 1,15,4050000.0, 1, 6, 7,15
1307,24725250.505537275,0.0, 1, 6, 1,15,7363296.9668077715, 1, 6, 6,60
1308,127434352.47883579,0.0, 1, 6, 1,15,4050000.0, 1, 6, 7,15
13,2308940185.8212104,640707.2189604437, 1,11,14,60,11783517.066496935, 1, 8, 8,60
61,301924526.02383536,88139.10953165221, 1, 6, 1,15,1282023.4113694867, 1, 6,20,15
134,70666020.44019976,63564.01800854099, 1, 6, 4,15,156554.22484006523, 1,11,20,15
170,5241013.419656067,348.4159749238097, 1, 6, 4,15,17476.39704006126, 1,11,12,15
207,6509451.13922267,815.2532113832032, 1, 6, 3,15,22990.642799023623, 1,11,10,15
244,12749673.399825225,1521.856143006317, 1, 6, 4,15,53038.631142310165, 1,11,20,15
281,46165882.481495745,59938.60262432081, 1, 6, 5,15,81951.81706819107, 1, 6,19,15
318,0.0,0.0, 1, 6, 1,15,0.0, 1, 6, 1,15
355,197687796.27748066,18561.32405820678, 1, 6, 4,15,724774.895203776, 1,11,18,15
403,197687796.27748066,18561.32405820678, 1, 6, 4,15,724774.895203776, 1,11,18,15
476,106772067.24485716,7098.072629279515, 1, 6, 4,15,356036.3026282215, 1,11,12,15
513,0.0,0.0, 1, 6, 1,15,0.0, 1, 6, 1,15
562,75041823.1812969,0.0, 1,11,23,15,128203.80749123498, 1, 8,12,45
1046,0.0,0.0, 1, 6, 1,15,0.0, 1, 6, 1,15
1096,0.0,0.0, 1, 6, 1,15,0.0, 1, 6, 1,15
1134,1733873463.69704,180000.0, 1,11,23,15,7091529.066395346, 1,10, 6,30
1326,127434352.47883578,0.0, 1, 6, 1,15,4050000.0, 1, 6, 7,15
1379,0.0,0.0, 1, 6, 1,15,0.0, 1, 6, 1,15
1,EXTREME_SUMMER,  39.64, -79.92,  -5.00, 378.00
5,7
1038,0.0,0.0, 7,27, 1,15,0.0, 7,27, 1,15
1039,23.25,0.0, 7,27, 1,15,0.25, 7,27,15,15
581,0.0773758854178851,0.0, 7,27, 6, 7,0.3985551028888993, 8, 2,18,46
582,1.6284130196623188,0.0, 7,30,20,60,8.811030313196289, 8, 2,18,46
583,0.03230430668448246,0.0, 7,28, 6, 7,0.06305084911758478, 8, 2, 6, 3
1115,0.0,0.0, 7,27, 1, 7,0.0, 7,27, 1, 7
1128,0.0,0.0, 7,27, 1, 7,0.0, 7,27, 1, 7
1153,0.0,0.0, 7,27, 1, 7,0.0, 7,27, 1, 7
1154,0.0,0.0, 7,27, 1, 7,0.0, 7,27, 1, 7
1155,0.0,0.0, 7,27, 1, 7,0.0, 7,27, 1, 7
1156,0.0,0.0, 7,27, 1, 7,0.0, 7,27, 1, 7
1292,-22022719.65119271,-34687.68290733105, 8, 1, 6,45,-3079.7246488414794, 8, 1,10,29
1306,96505180.12405059,0.0, 7,27, 1, 7,4050000.0, 7,27, 7,15
1307,11166333.936927065,0.0, 7,27, 1, 7,4239809.172163692, 7,27, 6,60
1308,96505180.12405059,0.0, 7,27, 1, 7,4050000.0, 7,27, 7,15
13,926821508.3597952,151703.1275401932, 7,31, 4,30,5457222.45188868, 8, 2,13,60
61,301924526.02383536,88139.10953165221, 7,27, 1,15,1282023.4113694867, 7,27,20,15
134,70666020.44019976,63564.01800854099, 7,27, 4,15,156554.22484006523, 8, 1,20,15
170,5241013.419656067,348.4159749238097, 7,27, 4,15,17476.39704006126, 8, 1,12,15
207,6509451.13922267,815.2532113832032, 7,27, 3,15,22990.642799023623, 8, 1,10,15
244,12749673.399825225,1521.856143006317, 7,27, 4,15,53038.631142310165, 8, 1,20,15
281,46165882.481495745,59938.60262432081, 7,27, 5,15,81951.81706819107, 7,27,19,15
318,0.0,0.0, 7,27, 1,15,0.0, 7,27, 1,15
355,197687796.27748066,18561.32405820678, 7,27, 4,15,724774.895203776, 8, 1,18,15
403,197687796.27748066,18561.32405820678, 7,27, 4,15,724774.895203776, 8, 1,18,15
476,106772067.24485716,7098.072629279515, 7,27, 4,15,356036.3026282215, 8, 1,12,15
513,0.0,0.0, 7,27, 1,15,0.0, 7,27, 1,15
562,45201392.99103798,0.0, 7,28, 6,30,128203.80749123498, 7,27,17,15
1046,0.0,0.0, 7,27, 1,15,0.0, 7,27, 1,15
1096,412524388.780671,0.0, 7,28, 6,30,1339164.5197175252, 7,29,15,60
1134,0.0,0.0, 7,27, 1,15,0.0, 7,27, 1,15
1326,96505180.12405059,0.0, 7,27, 1,15,4050000.0, 7,27, 7,15
1379,0.0,0.0, 7,27, 1,15,0.0, 7,27, 1,15
1,ANNUAL,  39.64, -79.92,  -5.00, 378.00
5,365
1038,14.0,0.0, 1, 1, 1,15,0.25, 1, 8, 6,15
1039,306.0,0.0, 1, 1, 1,15,0.25, 2, 8,17,15
581,0.1895028988992448,0.0, 4,26, 1,60,0.771380102282142,11,17, 2,60
582,2.1083280535573103,0.0, 1, 2,18,48,17.22313647796606, 2,12,15,50
583,0.02533524553010547,0.0, 5,29,23, 3,0.07509529875706526, 1, 7,20,52
1115,23415320929.81679,0.0, 1, 1,15,30,4268738.546202607, 2, 1, 6,45
1128,7508423822.215565,0.0, 1, 1,15,30,1264810.876214369, 1, 2, 6,45
1153,234059368.15782496,0.0, 1, 1,15,30,101349.25284813755,12, 9, 6,45
1154,1415201142.0679953,0.0, 1, 1, 2,22,180000.0, 1, 1,15,30
1155,3683476379.388158,0.0, 1, 1, 1,15,6004408.122037842, 1, 8, 6,15
1156,3683476379.388158,0.0, 1, 1, 1,15,6004408.122037842, 1, 8, 6,15
1292,-1225956524.6410537,-39810.701750390916, 1, 1, 1,15,-2414.9424176420152, 3, 6,12,23
1306,5939786966.926067,0.0, 1, 1, 1,15,4050000.0, 1, 2, 7,15
1307,967997773.397067,0.0, 1, 1, 1,15,7654508.235199985, 2, 6, 6,60
1308,5939786966.926067,0.0, 1, 1, 1,15,4050000.0, 1, 2, 7,15
13,47445777395.73014,151703.1275401932, 1, 4, 4,15,11936087.980730014, 3, 6, 7,15
61,15743207428.383959,88139.10953165221, 1, 1, 1,15,1282023.4113694867, 1, 1,20,15
134,3685071073.4325233,63564.01800854099, 1, 2, 4,15,156554.22484006523, 1, 1,20,15
170,273393721.45532674,348.4159749238097, 1, 2, 4,15,17476.39704006126, 1, 1,12,15
207,339560869.0695816,815.2532113832032, 1, 2, 3,15,22990.642799023623, 1, 1,10,15
244,664895467.8009144,1521.856143006317, 1, 2, 4,15,53038.631142310165, 1, 1,20,15
281,2407221015.106824,59938.60262432081, 1, 1, 5,15,81951.81706819107, 1, 1,19,15
318,0.0,0.0, 1, 1, 1,15,0.0, 1, 1, 1,15
355,10310294493.051695,18561.32405820678, 1, 2, 4,15,724774.895203776, 1, 1,18,15
403,10310294493.051695,18561.32405820678, 1, 2, 4,15,724774.895203776, 1, 1,18,15
476,5569688622.066177,7098.072629279515, 1, 2, 4,15,356036.3026282215, 1, 1,12,15
513,0.0,0.0, 1, 1, 1,15,0.0, 1, 1, 1,15
562,1697257818.6697059,0.0, 1, 1,15,30,128203.80749123498, 1, 8,12,45
1046,0.0,0.0, 1, 1, 1,15,0.0, 1, 1, 1,15
1096,7539293396.485998,0.0, 1, 1, 1,15,1342918.649592924, 7,29,15,60
1134,12841160711.829576,0.0, 1, 3,19,15,7092665.441091031, 1,10, 6,30
1326,5939786966.9260645,0.0, 1, 1, 1,15,4050000.0, 1, 2, 7,15
1379,0.0,0.0, 1, 1, 1,15,0.0, 1, 1, 1,15
End of Data
 Number of Records Written=          99
