Program Version,EnergyPlus, Version 22.2.0-c249759bad, YMD=2023.09.01 20:23
1,5,Environment Title[],Latitude[deg],Longitude[deg],Time Zone[],Elevation[m]
2,8,Day of Simulation[],Month[],Day of Month[],DST Indicator[1=yes 0=no],Hour[],StartMinute[],EndMinute[],DayType
3,5,Cumulative Day of Simulation[],Month[],Day of Month[],DST Indicator[1=yes 0=no],DayType  ! When Daily Report Variables Requested
4,2,Cumulative Days of Simulation[],Month[]  ! When Monthly Report Variables Requested
5,1,Cumulative Days of Simulation[] ! When Run Period Report Variables Requested
6,1,Calendar Year of Simulation[] ! When Annual Report Variables Requested
581,11,LIVING,AFN Zone Infiltration Air Change Rate [ach] !RunPeriod [Value,Min,Month,Day,Hour,Minute,Max,Month,Day,Hour,Minute]
582,11,ATTIC,AFN Zone Infiltration Air Change Rate [ach] !RunPeriod [Value,Min,Month,Day,Hour,Minute,Max,Month,Day,Hour,Minute]
583,11,CRAWLSPACE,AFN Zone Infiltration Air Change Rate [ach] !RunPeriod [Value,Min,Month,Day,Hour,Minute,Max,Month,Day,Hour,Minute]
1038,11,Facility,Facility Heating Setpoint Not Met Time [hr] !RunPeriod [Value,Min,Month,Day,Hour,Minute,Max,Month,Day,Hour,Minute]
1039,11,Facility,Facility Cooling Setpoint Not Met Time [hr] !RunPeriod [Value,Min,Month,Day,Hour,Minute,Max,Month,Day,Hour,Minute]
1115,11,DX_HEATING_COIL,Heating Coil Heating Energy [J] !RunPeriod [Value,Min,Month,Day,Hour,Minute,Max,Month,Day,Hour,Minute]
1128,11,DX_HEATING_COIL,Heating Coil Electricity Energy [J] !RunPeriod [Value,Min,Month,Day,Hour,Minute,Max,Month,Day,Hour,Minute]
1153,11,DX_HEATING_COIL,Heating Coil Defrost Electricity Energy [J] !RunPeriod [Value,Min,Month,Day,Hour,Minute,Max,Month,Day,Hour,Minute]
1154,11,DX_HEATING_COIL,Heating Coil Crankcase Heater Electricity Energy [J] !RunPeriod [Value,Min,Month,Day,Hour,Minute,Max,Month,Day,Hour,Minute]
1155,11,HEATING_RESISTANCE_BACKUP,Heating Coil Heating Energy [J] !RunPeriod [Value,Min,Month,Day,Hour,Minute,Max,Month,Day,Hour,Minute]
1156,11,HEATING_RESISTANCE_BACKUP,Heating Coil Electricity Energy [J] !RunPeriod [Value,Min,Month,Day,Hour,Minute,Max,Month,Day,Hour,Minute]
1292,11,WATER HEATER,Water Heater Heat Loss Energy [J] !RunPeriod [Value,Min,Month,Day,Hour,Minute,Max,Month,Day,Hour,Minute]
1306,11,WATER HEATER,Water Heater Heating Energy [J] !RunPeriod [Value,Min,Month,Day,Hour,Minute,Max,Month,Day,Hour,Minute]
1307,11,WATER HEATER,Water Heater Unmet Demand Heat Transfer Energy [J] !RunPeriod [Value,Min,Month,Day,Hour,Minute,Max,Month,Day,Hour,Minute]
1308,11,WATER HEATER,Water Heater Electricity Energy [J] !RunPeriod [Value,Min,Month,Day,Hour,Minute,Max,Month,Day,Hour,Minute]
13,11,Electricity:Facility [J] !RunPeriod [Value,Min,Month,Day,Hour,Minute,Max,Month,Day,Hour,Minute]
1134,11,Heating:Electricity [J] !RunPeriod [Value,Min,Month,Day,Hour,Minute,Max,Month,Day,Hour,Minute]
1096,11,Cooling:Electricity [J] !RunPeriod [Value,Min,Month,Day,Hour,Minute,Max,Month,Day,Hour,Minute]
562,11,Fans:Electricity [J] !RunPeriod [Value,Min,Month,Day,Hour,Minute,Max,Month,Day,Hour,Minute]
1379,11,Pumps:Electricity [J] !RunPeriod [Value,Min,Month,Day,Hour,Minute,Max,Month,Day,Hour,Minute]
1326,11,WaterSystems:Electricity [J] !RunPeriod [Value,Min,Month,Day,Hour,Minute,Max,Month,Day,Hour,Minute]
61,11,InteriorLights:Electricity [J] !RunPeriod [Value,Min,Month,Day,Hour,Minute,Max,Month,Day,Hour,Minute]
1046,11,ExteriorLights:Electricity [J] !RunPeriod [Value,Min,Month,Day,Hour,Minute,Max,Month,Day,Hour,Minute]
134,11,InteriorEquipment:Electricity [J] !RunPeriod [Value,Min,Month,Day,Hour,Minute,Max,Month,Day,Hour,Minute]
170,11,gas_dryer:InteriorEquipment:Electricity [J] !RunPeriod [Value,Min,Month,Day,Hour,Minute,Max,Month,Day,Hour,Minute]
207,11,clotheswasher:InteriorEquipment:Electricity [J] !RunPeriod [Value,Min,Month,Day,Hour,Minute,Max,Month,Day,Hour,Minute]
244,11,dishwasher:InteriorEquipment:Electricity [J] !RunPeriod [Value,Min,Month,Day,Hour,Minute,Max,Month,Day,Hour,Minute]
281,11,refrigerator:InteriorEquipment:Electricity [J] !RunPeriod [Value,Min,Month,Day,Hour,Minute,Max,Month,Day,Hour,Minute]
318,11,electric_mels:InteriorEquipment:Electricity [J] !RunPeriod [Value,Min,Month,Day,Hour,Minute,Max,Month,Day,Hour,Minute]
355,11,NaturalGas:Facility [J] !RunPeriod [Value,Min,Month,Day,Hour,Minute,Max,Month,Day,Hour,Minute]
403,11,InteriorEquipment:NaturalGas [J] !RunPeriod [Value,Min,Month,Day,Hour,Minute,Max,Month,Day,Hour,Minute]
476,11,gas_dryer:InteriorEquipment:NaturalGas [J] !RunPeriod [Value,Min,Month,Day,Hour,Minute,Max,Month,Day,Hour,Minute]
513,11,gas_mels:InteriorEquipment:NaturalGas [J] !RunPeriod [Value,Min,Month,Day,Hour,Minute,Max,Month,Day,Hour,Minute]
End of Data Dictionary
1,EXTREME_WINTER,  33.43,-112.02,  -7.00, 337.40
5,7
1038,0.0,0.0,12,15, 1,15,0.0,12,15, 1,15
1039,2.25,0.0,12,15, 1,15,0.25,12,21,13,30
581,0.20605674456416975,0.11187414972717462,12,19,21,60,0.5634279601307293,12,20, 3,52
582,3.497547483838443,0.0,12,16,21,60,21.45968806193782,12,20, 3,52
583,0.007763850570457869,0.00018180925035846907,12,16,14,50,0.08958421354503568,12,21,15,22
1115,45451432.3579782,0.0,12,15, 1,15,1604260.997364462,12,21, 6, 3
1128,12503190.382960938,0.0,12,15, 1,15,404004.0241098479,12,21, 6, 3
1153,9.858565193404115,0.0,12,15, 1,15,9.858565193404115,12,21, 8,60
1154,35183955.8145788,0.0,12,15, 1,15,180000.0,12,17, 2,15
1155,0.0,0.0,12,15, 1,15,0.0,12,15, 1,15
1156,0.0,0.0,12,15, 1,15,0.0,12,15, 1,15
1292,-23535004.69030975,-39738.51821271424,12,21, 5,30,-3764.1188895548707,12,20,13,59
1306,143333927.93342587,0.0,12,15, 1,15,4050000.0,12,15, 8,45
1307,19818110.326696284,0.0,12,15, 1,15,2063170.9406909707,12,20,10,20
1308,143333927.93342587,0.0,12,15, 1,15,4050000.0,12,15, 8,45
13,617812489.380135,151703.1275401932,12,15, 4,15,5651300.769558566,12,21,20,60
61,301924526.02383536,88139.10953165221,12,15, 1,15,1282023.4113694867,12,15,20,15
134,70666020.44019976,63564.01800854099,12,15, 4,15,156554.22484006523,12,20,20,15
170,5241013.419656067,348.4159749238097,12,15, 4,15,17476.39704006126,12,20,12,15
207,6509451.13922267,815.2532113832032,12,15, 3,15,22990.642799023623,12,20,10,15
244,12749673.399825225,1521.856143006317,12,15, 4,15,53038.631142310165,12,20,20,15
281,46165882.481495745,59938.60262432081,12,15, 5,15,81951.81706819107,12,15,19,15
318,0.0,0.0,12,15, 1,15,0.0,12,15, 1,15
355,197687796.27748066,18561.32405820678,12,15, 4,15,724774.895203776,12,20,18,15
403,197687796.27748066,18561.32405820678,12,15, 4,15,724774.895203776,12,20,18,15
476,106772067.24485716,7098.072629279515,12,15, 4,15,356036.3026282215,12,20,12,15
513,0.0,0.0,12,15, 1,15,0.0,12,15, 1,15
562,7694900.718182315,0.0,12,15, 1,15,86592.04406806047,12,21,15,30
1046,0.0,0.0,12,15, 1,15,0.0,12,15, 1,15
1096,46505958.20838695,0.0,12,15, 1,15,624113.6829411386,12,21,15,30
1134,47687156.05610495,0.0,12,15, 1,15,581572.2050682381,12,21, 6,15
1326,143333927.93342584,0.0,12,15, 1,15,4050000.0,12,15, 8,45
1379,0.0,0.0,12,15, 1,15,0.0,12,15, 1,15
1,EXTREME_SUMMER,  33.43,-112.02,  -7.00, 337.40
5,7
1038,0.0,0.0, 7,13, 1,15,0.0, 7,13, 1,15
1039,66.0,0.0, 7,13, 1,15,0.25, 7,13,14,60
581,0.11156177975302346,0.0, 7,13, 6,15,0.6300384933377486, 7,16,19,52
582,4.137870629695999,0.3389174090404002, 7,14,19,60,14.928807223059415, 7,16,19,48
583,0.07340373942394207,0.0013585051831957403, 7,13,23, 3,0.1010728258431559, 7,16,19,48
1115,0.0,0.0, 7,13, 1,15,0.0, 7,13, 1,15
1128,0.0,0.0, 7,13, 1,15,0.0, 7,13, 1,15
1153,0.0,0.0, 7,13, 1,15,0.0, 7,13, 1,15
1154,0.0,0.0, 7,13, 1,15,0.0, 7,13, 1,15
1155,0.0,0.0, 7,13, 1,15,0.0, 7,13, 1,15
1156,0.0,0.0, 7,13, 1,15,0.0, 7,13, 1,15
1292,-21513494.063557953,-34346.63730780813, 7,14, 7,30,-3706.0806047393653, 7,16,16,60
1306,84880923.34329711,0.0, 7,13, 1,15,3856311.0588065893, 7,14, 7,15
1307,2880422.324718017,0.0, 7,13, 1,15,287738.7928078166, 7,18,10,18
1308,84880923.34329711,0.0, 7,13, 1,15,3856311.0588065893, 7,14, 7,15
13,1650940033.081659,710041.319937745, 7,13, 4,60,6395767.67331742, 7,16,10,30
61,301924526.02383536,88139.10953165221, 7,13, 1,15,1282023.4113694867, 7,13,20,15
134,70666020.44019976,63564.01800854099, 7,13, 4,15,156554.22484006523, 7,18,20,15
170,5241013.419656067,348.4159749238097, 7,13, 4,15,17476.39704006126, 7,18,12,15
207,6509451.13922267,815.2532113832032, 7,13, 3,15,22990.642799023623, 7,18,10,15
244,12749673.399825225,1521.856143006317, 7,13, 4,15,53038.631142310165, 7,18,20,15
281,46165882.481495745,59938.60262432081, 7,13, 5,15,81951.81706819107, 7,13,19,15
318,0.0,0.0, 7,13, 1,15,0.0, 7,13, 1,15
355,197687796.27748066,18561.32405820678, 7,13, 4,15,724774.895203776, 7,18,18,15
403,197687796.27748066,18561.32405820678, 7,13, 4,15,724774.895203776, 7,18,18,15
476,106772067.24485716,7098.072629279515, 7,13, 4,15,356036.3026282215, 7,18,12,15
513,0.0,0.0, 7,13, 1,15,0.0, 7,13, 1,15
562,92513654.6237108,44770.66506399277, 7,13, 5,60,177656.06328740538, 7,13,14,15
1046,0.0,0.0, 7,13, 1,15,0.0, 7,13, 1,15
1096,1100954908.6506183,466704.39485109306, 7,13, 5,60,2352694.030060801, 7,15,18,60
1134,0.0,0.0, 7,13, 1,15,0.0, 7,13, 1,15
1326,84880923.3432971,0.0, 7,13, 1,15,4050000.0, 7,16,10,30
1379,0.0,0.0, 7,13, 1,15,0.0, 7,13, 1,15
1,ANNUAL,  33.43,-112.02,  -7.00, 337.40
5,365
1038,0.0,0.0, 1, 1, 1,15,0.0, 1, 1, 1,15
1039,1088.25,0.0, 1, 1, 1,15,0.25, 1, 8,12,15
581,0.15149775705083046,0.0, 3,12,23, 3,1.198110993154661, 1,21,19,60
582,3.524105270600785,0.0, 1, 1, 1,37,26.915705055146315, 2,14,20,48
583,0.04304924726973768,0.0, 4,19,23, 3,0.11656362996435371, 8,17,19,32
1115,126741891.55961373,0.0, 1, 1, 1,15,1652189.3040876067,12,29, 6, 5
1128,36015820.368915156,0.0, 1, 1, 1,15,467690.7102797609,12,29, 6, 5
1153,516375.08755929227,0.0, 1, 1, 1,15,33052.6468891004,12,29, 6, 5
1154,302982297.9090663,0.0, 1, 1, 1,15,180000.0, 1, 1, 2,60
1155,0.0,0.0, 1, 1, 1,15,0.0, 1, 1, 1,15
1156,0.0,0.0, 1, 1, 1,15,0.0, 1, 1, 1,15
1292,-1153945959.9929886,-39588.08253477228,12,29, 5,45,-2115.8535191260116, 7,29,16,31
1306,6067307460.763749,0.0, 1, 1, 1,15,4050000.0, 1, 6, 8,30
1307,566068933.6120572,0.0, 1, 1, 1,15,6480349.606901519, 1,21,10,30
1308,6067307460.763749,0.0, 1, 1, 1,15,4050000.0, 1, 6, 8,30
13,55490448023.43181,151703.1275401932, 1, 2, 4,15,6587556.695971689, 7, 1,10,30
61,15743207428.383959,88139.10953165221, 1, 1, 1,15,1282023.4113694867, 1, 1,20,15
134,3685071073.4325233,63564.01800854099, 1, 2, 4,15,156554.22484006523, 1, 1,20,15
170,273393721.45532674,348.4159749238097, 1, 2, 4,15,17476.39704006126, 1, 1,12,15
207,339560869.0695816,815.2532113832032, 1, 2, 3,15,22990.642799023623, 1, 1,10,15
244,664895467.8009144,1521.856143006317, 1, 2, 4,15,53038.631142310165, 1, 1,20,15
281,2407221015.106824,59938.60262432081, 1, 1, 5,15,81951.81706819107, 1, 1,19,15
318,0.0,0.0, 1, 1, 1,15,0.0, 1, 1, 1,15
355,10310294493.051695,18561.32405820678, 1, 2, 4,15,724774.895203776, 1, 1,18,15
403,10310294493.051695,18561.32405820678, 1, 2, 4,15,724774.895203776, 1, 1,18,15
476,5569688622.066177,7098.072629279515, 1, 2, 4,15,356036.3026282215, 1, 1,12,15
513,0.0,0.0, 1, 1, 1,15,0.0, 1, 1, 1,15
562,2666114576.0851946,0.0, 1, 1, 1,15,177656.06328740538, 4, 1,15,60
1046,0.0,0.0, 1, 1, 1,15,0.0, 1, 1, 1,15
1096,26989232991.39932,0.0, 1, 1, 1,15,2419757.2443233645, 6,22,15,60
1134,339514493.36554074,0.0, 1, 1, 1,15,630193.73440628,12,29, 6,15
1326,6067307460.763754,0.0, 1, 1, 1,15,4050000.0000000014, 3, 9,10,45
1379,0.0,0.0, 1, 1, 1,15,0.0, 1, 1, 1,15
End of Data
 Number of Records Written=          99
