Program Version,EnergyPlus, Version 22.2.0-c249759bad, YMD=2023.09.01 20:24
1,5,Environment Title[],Latitude[deg],Longitude[deg],Time Zone[],Elevation[m]
2,8,Day of Simulation[],Month[],Day of Month[],DST Indicator[1=yes 0=no],Hour[],StartMinute[],EndMinute[],DayType
3,5,Cumulative Day of Simulation[],Month[],Day of Month[],DST Indicator[1=yes 0=no],DayType  ! When Daily Report Variables Requested
4,2,Cumulative Days of Simulation[],Month[]  ! When Monthly Report Variables Requested
5,1,Cumulative Days of Simulation[] ! When Run Period Report Variables Requested
6,1,Calendar Year of Simulation[] ! When Annual Report Variables Requested
581,11,LIVING,AFN Zone Infiltration Air Change Rate [ach] !RunPeriod [Value,Min,Month,Day,Hour,Minute,Max,Month,Day,Hour,Minute]
582,11,ATTIC,AFN Zone Infiltration Air Change Rate [ach] !RunPeriod [Value,Min,Month,Day,Hour,Minute,Max,Month,Day,Hour,Minute]
583,11,CRAWLSPACE,AFN Zone Infiltration Air Change Rate [ach] !RunPeriod [Value,Min,Month,Day,Hour,Minute,Max,Month,Day,Hour,Minute]
1038,11,Facility,Facility Heating Setpoint Not Met Time [hr] !RunPeriod [Value,Min,Month,Day,Hour,Minute,Max,Month,Day,Hour,Minute]
1039,11,Facility,Facility Cooling Setpoint Not Met Time [hr] !RunPeriod [Value,Min,Month,Day,Hour,Minute,Max,Month,Day,Hour,Minute]
1115,11,DX_HEATING_COIL,Heating Coil Heating Energy [J] !RunPeriod [Value,Min,Month,Day,Hour,Minute,Max,Month,Day,Hour,Minute]
1128,11,DX_HEATING_COIL,Heating Coil Electricity Energy [J] !RunPeriod [Value,Min,Month,Day,Hour,Minute,Max,Month,Day,Hour,Minute]
1153,11,DX_HEATING_COIL,Heating Coil Defrost Electricity Energy [J] !RunPeriod [Value,Min,Month,Day,Hour,Minute,Max,Month,Day,Hour,Minute]
1154,11,DX_HEATING_COIL,Heating Coil Crankcase Heater Electricity Energy [J] !RunPeriod [Value,Min,Month,Day,Hour,Minute,Max,Month,Day,Hour,Minute]
1155,11,HEATING_RESISTANCE_BACKUP,Heating Coil Heating Energy [J] !RunPeriod [Value,Min,Month,Day,Hour,Minute,Max,Month,Day,Hour,Minute]
1156,11,HEATING_RESISTANCE_BACKUP,Heating Coil Electricity Energy [J] !RunPeriod [Value,Min,Month,Day,Hour,Minute,Max,Month,Day,Hour,Minute]
1292,11,WATER HEATER,Water Heater Heat Loss Energy [J] !RunPeriod [Value,Min,Month,Day,Hour,Minute,Max,Month,Day,Hour,Minute]
1306,11,WATER HEATER,Water Heater Heating Energy [J] !RunPeriod [Value,Min,Month,Day,Hour,Minute,Max,Month,Day,Hour,Minute]
1307,11,WATER HEATER,Water Heater Unmet Demand Heat Transfer Energy [J] !RunPeriod [Value,Min,Month,Day,Hour,Minute,Max,Month,Day,Hour,Minute]
1308,11,WATER HEATER,Water Heater Electricity Energy [J] !RunPeriod [Value,Min,Month,Day,Hour,Minute,Max,Month,Day,Hour,Minute]
13,11,Electricity:Facility [J] !RunPeriod [Value,Min,Month,Day,Hour,Minute,Max,Month,Day,Hour,Minute]
1134,11,Heating:Electricity [J] !RunPeriod [Value,Min,Month,Day,Hour,Minute,Max,Month,Day,Hour,Minute]
1096,11,Cooling:Electricity [J] !RunPeriod [Value,Min,Month,Day,Hour,Minute,Max,Month,Day,Hour,Minute]
562,11,Fans:Electricity [J] !RunPeriod [Value,Min,Month,Day,Hour,Minute,Max,Month,Day,Hour,Minute]
1379,11,Pumps:Electricity [J] !RunPeriod [Value,Min,Month,Day,Hour,Minute,Max,Month,Day,Hour,Minute]
1326,11,WaterSystems:Electricity [J] !RunPeriod [Value,Min,Month,Day,Hour,Minute,Max,Month,Day,Hour,Minute]
61,11,InteriorLights:Electricity [J] !RunPeriod [Value,Min,Month,Day,Hour,Minute,Max,Month,Day,Hour,Minute]
1046,11,ExteriorLights:Electricity [J] !RunPeriod [Value,Min,Month,Day,Hour,Minute,Max,Month,Day,Hour,Minute]
134,11,InteriorEquipment:Electricity [J] !RunPeriod [Value,Min,Month,Day,Hour,Minute,Max,Month,Day,Hour,Minute]
170,11,gas_dryer:InteriorEquipment:Electricity [J] !RunPeriod [Value,Min,Month,Day,Hour,Minute,Max,Month,Day,Hour,Minute]
207,11,clotheswasher:InteriorEquipment:Electricity [J] !RunPeriod [Value,Min,Month,Day,Hour,Minute,Max,Month,Day,Hour,Minute]
244,11,dishwasher:InteriorEquipment:Electricity [J] !RunPeriod [Value,Min,Month,Day,Hour,Minute,Max,Month,Day,Hour,Minute]
281,11,refrigerator:InteriorEquipment:Electricity [J] !RunPeriod [Value,Min,Month,Day,Hour,Minute,Max,Month,Day,Hour,Minute]
318,11,electric_mels:InteriorEquipment:Electricity [J] !RunPeriod [Value,Min,Month,Day,Hour,Minute,Max,Month,Day,Hour,Minute]
355,11,NaturalGas:Facility [J] !RunPeriod [Value,Min,Month,Day,Hour,Minute,Max,Month,Day,Hour,Minute]
403,11,InteriorEquipment:NaturalGas [J] !RunPeriod [Value,Min,Month,Day,Hour,Minute,Max,Month,Day,Hour,Minute]
476,11,gas_dryer:InteriorEquipment:NaturalGas [J] !RunPeriod [Value,Min,Month,Day,Hour,Minute,Max,Month,Day,Hour,Minute]
513,11,gas_mels:InteriorEquipment:NaturalGas [J] !RunPeriod [Value,Min,Month,Day,Hour,Minute,Max,Month,Day,Hour,Minute]
End of Data Dictionary
1,EXTREME_WINTER,  39.22,-106.87,  -7.00,2384.00
5,15
1038,5.5,0.0,12,22, 1,15,0.25,12,24, 6,15
1039,0.0,0.0,12,22, 1,15,0.0,12,22, 1,15
581,0.40165307553426416,0.21481843282221172, 1, 5,23, 7,0.733650586655517,12,23,17,55
582,1.8929148925595083,0.0,12,25, 7,45,10.16570800123432,12,23,17,50
583,0.06786024942037558,0.00033297016518473853, 1, 5,16,60,0.09708279633384087,12,23,18,50
1115,3978882790.972703,0.0,12,22,23, 3,4594549.7843864905,12,23, 4,60
1128,1543549882.387463,0.0,12,22,23, 3,1481809.5570297719,12,23, 6,60
1153,31964552.570962895,0.0,12,22,23, 3,86397.00917185709,12,22,24,60
1154,63729709.254760556,0.0,12,22, 6, 5,180000.0, 1, 3,15,45
1155,1910615867.177563,0.0,12,22, 1,15,6431255.530968905,12,27, 6,45
1156,1910615867.177563,0.0,12,22, 1,15,6431255.530968905,12,27, 6,45
1292,-54419692.0988278,-39812.833395857124,12,22, 1,15,-2978.304724793064,12,27,10,31
1306,426866232.49062467,0.0,12,22, 1,15,4050000.0,12,22, 8,45
1307,95128383.9948055,0.0,12,22, 1,15,6011840.5736335125,12,28, 9,30
1308,426866232.49062467,0.0,12,22, 1,15,4050000.0,12,22, 8,45
13,4953988533.870727,458150.8545527997, 1, 3,15,45,12219234.954482548, 1, 2, 8,30
61,646981127.1939323,88139.10953165221,12,22, 1,15,1282023.4113694867,12,22,20,15
134,151290040.75163814,63564.01800854099,12,22, 4,15,156554.22484006523,12,27,20,15
170,11185820.069951689,348.4159749238097,12,22, 4,15,17476.39704006126,12,27,12,15
207,13893028.5742839,815.2532113832032,12,22, 3,15,22990.642799023623,12,27,10,15
244,27284301.07562584,1521.856143006317,12,22, 4,15,53038.631142310165,12,27,20,15
281,98926891.03177746,59938.60262432081,12,22, 5,15,81951.81706819107,12,22,19,15
318,0.0,0.0,12,22, 1,15,0.0,12,22, 1,15
355,422701517.16107386,18561.32405820678,12,22, 4,15,724774.895203776,12,27,18,15
403,422701517.16107386,18561.32405820678,12,22, 4,15,724774.895203776,12,27,18,15
476,227882097.80545202,7098.072629279515,12,22, 4,15,356036.3026282215,12,27,12,15
513,0.0,0.0,12,22, 1,15,0.0,12,22, 1,15
562,178991122.04376388,0.0,12,27,16,15,165220.90933330168,12,23, 4,60
1046,0.0,0.0,12,22, 1,15,0.0,12,22, 1,15
1096,0.0,0.0,12,22, 1,15,0.0,12,22, 1,15
1134,3549860011.3907533,180000.0,12,27,16,15,7761133.226923905, 1, 2, 7,15
1326,426866232.4906245,0.0,12,22, 1,15,4050000.0,12,22, 8,45
1379,0.0,0.0,12,22, 1,15,0.0,12,22, 1,15
1,EXTREME_SUMMER,  39.22,-106.87,  -7.00,2384.00
5,7
1038,0.0,0.0, 6,29, 1,15,0.0, 6,29, 1,15
1039,0.0,0.0, 6,29, 1,15,0.0, 6,29, 1,15
581,0.1991197134244938,0.07345846288106746, 7, 1, 6,50,0.4698203582517591, 7, 5,16,50
582,3.079402294811943,0.0, 6,29, 7,53,10.00473178544722, 7, 5,17,52
583,0.024425087723017616,0.0001907250449008602, 6,29, 7,18,0.06683028395950406, 7, 2,18,33
1115,0.0,0.0, 6,29, 1,15,0.0, 6,29, 1,15
1128,0.0,0.0, 6,29, 1,15,0.0, 6,29, 1,15
1153,0.0,0.0, 6,29, 1,15,0.0, 6,29, 1,15
1154,2340000.0,0.0, 6,29, 1,15,180000.0, 7, 3, 4,60
1155,0.0,0.0, 6,29, 1,15,0.0, 6,29, 1,15
1156,0.0,0.0, 6,29, 1,15,0.0, 6,29, 1,15
1292,-22339445.905710414,-34730.451861694855, 6,29, 6,15,-2611.238654345221, 6,29, 8,45
1306,176751579.18448406,0.0, 6,29, 1,15,2663614.1685276413, 7, 5,13,60
1307,33857815.986799456,0.0, 6,29, 1,15,1295557.8515423508, 7, 4,10,17
1308,176751579.18448406,0.0, 6,29, 1,15,2663614.1685276413, 7, 5,13,60
13,842861647.3550879,151703.1275401932, 6,29, 4,15,6585084.538226085, 7, 2,19,30
61,301924526.02383536,88139.10953165221, 6,29, 1,15,1282023.4113694867, 6,29,20,15
134,70666020.44019976,63564.01800854099, 6,29, 4,15,156554.22484006523, 7, 4,20,15
170,5241013.419656067,348.4159749238097, 6,29, 4,15,17476.39704006126, 7, 4,12,15
207,6509451.13922267,815.2532113832032, 6,29, 3,15,22990.642799023623, 7, 4,10,15
244,12749673.399825225,1521.856143006317, 6,29, 4,15,53038.631142310165, 7, 4,20,15
281,46165882.481495745,59938.60262432081, 6,29, 5,15,81951.81706819107, 6,29,19,15
318,0.0,0.0, 6,29, 1,15,0.0, 6,29, 1,15
355,197687796.27748066,18561.32405820678, 6,29, 4,15,724774.895203776, 7, 4,18,15
403,197687796.27748066,18561.32405820678, 6,29, 4,15,724774.895203776, 7, 4,18,15
476,106772067.24485716,7098.072629279515, 6,29, 4,15,356036.3026282215, 7, 4,12,15
513,0.0,0.0, 6,29, 1,15,0.0, 6,29, 1,15
562,32021251.693342347,0.0, 6,29, 1,15,135493.81915244923, 7, 2,18,45
1046,0.0,0.0, 6,29, 1,15,0.0, 6,29, 1,15
1096,259158270.0132265,0.0, 6,29, 1,15,1210370.6462087645, 7, 2,18,30
1134,2340000.0,0.0, 6,29, 1,15,180000.0, 7, 2, 5,45
1326,176751579.18448406,0.0, 6,29, 1,15,4050000.0000000014, 6,29, 8,45
1379,0.0,0.0, 6,29, 1,15,0.0, 6,29, 1,15
1,ANNUAL,  39.22,-106.87,  -7.00,2384.00
5,365
1038,5.75,0.0, 1, 1, 1,15,0.25, 1, 1, 6,15
1039,12.0,0.0, 1, 1, 1,15,0.25, 4,22,15,45
581,0.27214882888446446,0.03978006765971599, 9, 2, 8,46,1.0255020016823075, 4,28,13,48
582,2.5138070689199816,0.0, 1, 3,20,52,19.48033744743069, 4,28,13,46
583,0.02911907481005171,0.00002888380011593848, 9,27, 9, 1,0.09635872423051543, 1, 1, 6,60
1115,35327877584.398636,0.0, 1, 2,23, 5,4999582.386187435, 3,21, 6,45
1128,12358990585.163471,0.0, 1, 2,23, 5,1588494.3486325832, 3,21, 6,45
1153,435221910.7892444,0.0, 1, 2,23, 5,141408.36977145428,11,21, 6,45
1154,2524651141.016654,0.0, 1, 1, 1, 7,180000.0, 1, 3,15,60
1155,6192545539.176075,0.0, 1, 1,12,12,6431255.530968905, 1, 1, 6,30
1156,6192545539.176075,0.0, 1, 1,12,12,6431255.530968905, 1, 1, 6,30
1292,-1252813151.7498713,-39837.50671364606, 4,16, 5,60,-2063.9327765972653, 9,16,10,29
1306,9898866153.090515,0.0, 1, 1, 1, 7,4050000.0, 1, 2, 8,45
1307,2076453479.0859616,0.0, 1, 1, 1, 7,11570258.281403882, 2,23,10,30
1308,9898866153.090515,0.0, 1, 1, 1, 7,4050000.0, 1, 2, 8,45
13,56322239940.11987,151703.1275401932, 5,29, 4,15,11479007.609595038, 1, 2, 8,45
61,15743207428.383959,88139.10953165221, 1, 1, 1,15,1282023.4113694867, 1, 1,20,15
134,3685071073.4325233,63564.01800854099, 1, 2, 4,15,156554.22484006523, 1, 1,20,15
170,273393721.45532674,348.4159749238097, 1, 2, 4,15,17476.39704006126, 1, 1,12,15
207,339560869.0695816,815.2532113832032, 1, 2, 3,15,22990.642799023623, 1, 1,10,15
244,664895467.8009144,1521.856143006317, 1, 2, 4,15,53038.631142310165, 1, 1,20,15
281,2407221015.106824,59938.60262432081, 1, 1, 5,15,81951.81706819107, 1, 1,19,15
318,0.0,0.0, 1, 1, 1,15,0.0, 1, 1, 1,15
355,10310294493.051695,18561.32405820678, 1, 2, 4,15,724774.895203776, 1, 1,18,15
403,10310294493.051695,18561.32405820678, 1, 2, 4,15,724774.895203776, 1, 1,18,15
476,5569688622.066177,7098.072629279515, 1, 2, 4,15,356036.3026282215, 1, 1,12,15
513,0.0,0.0, 1, 1, 1,15,0.0, 1, 1, 1,15
562,1875891740.5470567,0.0, 1, 3,15,30,165220.9093333017,12,28,11,45
1046,0.0,0.0, 1, 1, 1,15,0.0, 1, 1, 1,15
1096,3607794368.518552,0.0, 1, 1, 1,15,1309144.9432536578, 7, 2,18,30
1134,21511409176.1454,0.0, 3, 2,13,60,7788423.916093226, 1,12, 6,30
1326,9898866153.090534,0.0, 1, 1, 1,15,4050000.0000000014, 5, 3, 9,45
1379,0.0,0.0, 1, 1, 1,15,0.0, 1, 1, 1,15
End of Data
 Number of Records Written=          99
