Program Version,EnergyPlus, Version 22.2.0-c249759bad, YMD=2023.09.01 14:31
1,5,Environment Title[],Latitude[deg],Longitude[deg],Time Zone[],Elevation[m]
2,8,Day of Simulation[],Month[],Day of Month[],DST Indicator[1=yes 0=no],Hour[],StartMinute[],EndMinute[],DayType
3,5,Cumulative Day of Simulation[],Month[],Day of Month[],DST Indicator[1=yes 0=no],DayType  ! When Daily Report Variables Requested
4,2,Cumulative Days of Simulation[],Month[]  ! When Monthly Report Variables Requested
5,1,Cumulative Days of Simulation[] ! When Run Period Report Variables Requested
6,1,Calendar Year of Simulation[] ! When Annual Report Variables Requested
7,1,Environment,Site Outdoor Air Drybulb Temperature [C] !Hourly
619,1,DX_HEATING_COIL,Heating Coil Heating Rate [W] !Hourly
633,1,DX_HEATING_COIL,Heating Coil Electricity Rate [W] !Hourly
659,1,DX_HEATING_COIL,Heating Coil Defrost Electricity Rate [W] !Hourly
661,1,DX_HEATING_COIL,Heating Coil Crankcase Heater Electricity Rate [W] !Hourly
690,1,FAN,Fan Electricity Rate [W] !Hourly
716,1,HEAT PUMP WATER HEATER FAN,Fan Electricity Rate [W] !Hourly
718,1,LIVING,Zone Mean Air Temperature [C] !Hourly
719,1,ATTIC,Zone Mean Air Temperature [C] !Hourly
720,1,CRAWLSPACE,Zone Mean Air Temperature [C] !Hourly
843,1,LIVING,Zone Predicted Sensible Load to Heating Setpoint Heat Transfer Rate [W] !Hourly
844,1,LIVING,Zone System Predicted Sensible Load to Heating Setpoint Heat Transfer Rate [W] !Hourly
907,1,ATTIC,Zone Predicted Sensible Load to Heating Setpoint Heat Transfer Rate [W] !Hourly
908,1,ATTIC,Zone System Predicted Sensible Load to Heating Setpoint Heat Transfer Rate [W] !Hourly
971,1,CRAWLSPACE,Zone Predicted Sensible Load to Heating Setpoint Heat Transfer Rate [W] !Hourly
972,1,CRAWLSPACE,Zone System Predicted Sensible Load to Heating Setpoint Heat Transfer Rate [W] !Hourly
1195,1,HEATING_RESISTANCE_BACKUP,Heating Coil Heating Rate [W] !Hourly
1197,1,HEATING_RESISTANCE_BACKUP,Heating Coil Electricity Rate [W] !Hourly
End of Data Dictionary
1,EXTREME_WINTER,  38.38, -81.59,  -5.00, 277.40
2,1, 1,15, 0, 1, 0.00,60.00,Monday
7,-1.7
718,18.62902137851084
719,-2.1816797685838694
720,18.454992045909858
619,2419.625128277041
633,782.919571435924
659,26.47287967162506
661,85.44792700916935
690,84.66589726625709
716,0.0
843,1589.8096587303808
844,1589.8096587303808
907,0.0
908,0.0
971,0.0
972,0.0
1195,0.0
1197,0.0
2,1, 1,15, 0, 2, 0.00,60.00,Monday
7,-1.7
718,18.587062955927276
719,-0.7709917121241764
720,18.068937115748728
619,2850.0683512716973
633,915.0990569040288
659,30.857166576124303
661,66.47646792626291
690,98.68735746918485
716,0.0
843,1924.8094417019056
844,1924.8094417019056
907,0.0
908,0.0
971,0.0
972,0.0
1195,0.0
1197,0.0
2,1, 1,15, 0, 3, 0.00,60.00,Monday
7,-1.7
718,18.553837466574585
719,0.03911145595357027
720,17.8503822872337
619,3244.271986069381
633,1029.8957284000169
659,40.02188373514257
661,48.52640166974906
690,111.85317498549492
716,0.0
843,2230.472914276146
844,2230.472914276146
907,0.0
908,0.0
971,0.0
972,0.0
1195,0.0
1197,0.0
2,1, 1,15, 0, 4, 0.00,60.00,Monday
7,-2.2
718,18.561505282553167
719,0.11652665427327635
720,17.619785775716064
619,3713.9104132725092
633,1173.676913185577
659,43.47942516503493
661,26.93626476727793
690,127.78262070666095
716,0.0
843,2573.368109620562
844,2573.368109620562
907,0.0
908,0.0
971,0.0
972,0.0
1195,0.0
1197,0.0
2,1, 1,15, 0, 5, 0.00,60.00,Monday
7,-2.2
718,18.594832178058294
719,0.25924417066593836
720,17.433372500141456
619,3817.8778608149705
633,1203.2019854416392
659,44.57692341539244
661,22.567827376551097
690,131.00810202900362
716,0.0
843,2641.8930830312474
844,2641.8930830312474
907,0.0
908,0.0
971,0.0
972,0.0
1195,0.0
1197,0.0
2,1, 1,15, 0, 6, 0.00,60.00,Monday
7,-4.0
718,19.28532468342579
719,-0.3846135187087491
720,17.227467055544178
619,4173.8735999445325
633,1335.3869674812647
659,50.940529905244
661,0.0
690,148.71239911384012
716,0.0
843,4525.740724223548
844,4525.740724223548
907,0.0
908,0.0
971,0.0
972,0.0
1195,1993.319859802039
1197,1993.319859802039
2,1, 1,15, 0, 7, 0.00,60.00,Monday
7,-3.9
718,19.531055426668306
719,0.9217004935838341
720,17.106747203910196
619,4312.584338443259
633,1400.640566015893
659,17.371344067438883
661,0.0
690,148.71239911384012
716,85.44000000000005
843,3669.5155703832024
844,3669.5155703832024
907,0.0
908,0.0
971,0.0
972,0.0
1195,2090.3777342821986
1197,2090.3777342821986
2,1, 1,15, 0, 8, 0.00,60.00,Monday
7,-3.9
718,19.642377469289947
719,0.5429724818271904
720,16.952872991692818
619,4306.9826807968675
633,1407.226823226655
659,17.371344067438883
661,0.0
690,148.71239911384012
716,78.97320365992242
843,3449.176877898657
844,3449.176877898657
907,0.0
908,0.0
971,0.0
972,0.0
1195,1752.3434597718033
1197,1752.3434597718033
2,1, 1,15, 0, 9, 0.00,60.00,Monday
7,-4.0
718,19.704459583491047
719,0.327859267567868
720,16.811213795479556
619,4244.568623111488
633,1393.226225321341
659,28.69332000220256
661,0.0
690,148.71239911384012
716,0.0
843,3075.9161269949836
844,3075.9161269949836
907,0.0
908,0.0
971,0.0
972,0.0
1195,271.6485840600626
1197,271.6485840600626
2,1, 1,15, 0,10, 0.00,60.00,Monday
7,-3.9
718,19.739397330086895
719,0.9808975476729818
720,16.67948623297374
619,3663.3577437613285
633,1225.9088632665075
659,25.33255611267639
661,24.344268008094172
690,129.96960138670943
716,0.0
843,2438.268595534608
844,2438.268595534608
907,0.0
908,0.0
971,0.0
972,0.0
1195,0.0
1197,0.0
2,1, 1,15, 0,11, 0.00,60.00,Monday
7,-3.9
718,19.730800497653536
719,1.3470519801530945
720,16.558641800070635
619,3610.881745045263
633,1210.8658938891683
659,25.00780479056808
661,26.59609095665678
690,128.30335526602582
716,0.0
843,2428.825711252135
844,2428.825711252135
907,0.0
908,0.0
971,0.0
972,0.0
1195,0.0
1197,0.0
2,1, 1,15, 0,12, 0.00,60.00,Monday
7,-2.2
718,19.74884249992609
719,2.2729124613801885
720,16.459529004587637
619,2832.4451888598146
633,938.7366512539431
659,2.5416125367999824
661,70.67151984266178
690,96.11281507449799
716,0.0
843,1938.2650791663073
844,1938.2650791663073
907,0.0
908,0.0
971,0.0
972,0.0
1195,0.0
1197,0.0
2,1, 1,15, 0,13, 0.00,60.00,Monday
7,-1.7
718,19.777136296756982
719,4.198217709051203
720,16.367808851281918
619,2084.5448556936303
633,697.956952958495
659,0.03415472383787049
661,104.64589841277427
690,70.90104895454448
716,0.0
843,1454.5796453371713
844,1454.5796453371713
907,0.0
908,0.0
971,0.0
972,0.0
1195,0.0
1197,0.0
2,1, 1,15, 0,14, 0.00,60.00,Monday
7,-1.7
718,19.709215109546463
719,5.159382380577559
720,16.30235363420892
619,2631.780337702672
633,869.6171152566644
659,0.04253928414585449
661,81.23765130859934
690,88.30637540493244
716,80.04421651892014
843,1004.0684046756833
844,1004.0684046756833
907,0.0
908,0.0
971,0.0
972,0.0
1195,0.0
1197,0.0
2,1, 1,15, 0,15, 0.00,60.00,Monday
7,-0.6
718,19.956069929472534
719,6.6188436118624665
720,16.24640249858444
619,812.1614327227551
633,275.0469476308729
659,0.013342138773435151
661,162.75104837526567
690,27.696693170664354
716,0.0
843,587.4463999390719
844,587.4463999390719
907,0.0
908,0.0
971,0.0
972,0.0
1195,0.0
1197,0.0
2,1, 1,15, 0,16, 0.00,60.00,Monday
7,0.0
718,19.694968259965073
719,5.059943034107501
720,16.208530473068787
619,0.0
633,0.0
659,0.0
661,200.0
690,0.0
716,0.0
843,-38.85124509954039
844,-38.85124509954039
907,0.0
908,0.0
971,0.0
972,0.0
1195,0.0
1197,0.0
2,1, 1,15, 0,17, 0.00,60.00,Monday
7,0.0
718,19.977428650871616
719,3.959498032378687
720,16.191977674843397
619,0.0
633,0.0
659,0.0
661,200.0
690,0.0
716,0.0
843,-227.60786062740772
844,-227.60786062740772
907,0.0
908,0.0
971,0.0
972,0.0
1195,0.0
1197,0.0
2,1, 1,15, 0,18, 0.00,60.00,Monday
7,-0.6
718,19.716349064192745
719,3.0678538864284977
720,16.184879237347946
619,117.66893470396711
633,40.83087572658082
659,0.0019702050795959757
661,194.49952702884522
690,4.089911365048313
716,0.0
843,85.16728355516898
844,85.16728355516898
907,0.0
908,0.0
971,0.0
972,0.0
1195,0.0
1197,0.0
2,1, 1,15, 0,19, 0.00,60.00,Monday
7,-1.1
718,19.629197057171524
719,1.8296221070392122
720,16.176701650855925
619,1924.1339075218527
633,639.3018468255272
659,0.031150995188297326
661,113.03179103926601
690,64.66572205379327
716,85.44000000000005
843,332.41629901469423
844,332.41629901469423
907,0.0
908,0.0
971,0.0
972,0.0
1195,0.0
1197,0.0
2,1, 1,15, 0,20, 0.00,60.00,Monday
7,-1.1
718,19.653573571085204
719,0.798314496983186
720,16.138170164248518
619,2282.6697381318513
633,750.0625346953121
659,0.03661308740398442
661,97.78257109283138
690,76.00436930870212
716,85.44000000000005
843,591.5473313142465
844,591.5473313142465
907,0.0
908,0.0
971,0.0
972,0.0
1195,0.0
1197,0.0
2,1, 1,15, 0,21, 0.00,60.00,Monday
7,-2.2
718,19.703320950295026
719,-0.7303386565568395
720,16.079632460745746
619,1767.659230100737
633,601.1941827209315
659,6.39053710693498
661,116.10968625805675
690,62.24844040330186
716,38.37334688397736
843,759.1914747665714
844,759.1914747665714
907,0.0
908,0.0
971,0.0
972,0.0
1195,0.0
1197,0.0
2,1, 1,15, 0,22, 0.00,60.00,Monday
7,-3.3
718,19.679869198143983
719,-2.225576655840151
720,16.009644373309715
619,1589.3740376983858
633,556.0131096162792
659,12.24360140721349
661,120.54676631008819
690,58.78958611772099
716,0.0
843,1044.554862979223
844,1044.554862979223
907,0.0
908,0.0
971,0.0
972,0.0
1195,0.0
1197,0.0
2,1, 1,15, 0,23, 0.00,60.00,Monday
7,-3.3
718,18.850755607001712
719,-3.6004947462328802
720,15.928785329095057
619,1130.548203951645
633,400.3280942833249
659,8.819297943997066
661,142.76833121074017
690,42.34727747942234
716,0.0
843,686.7511571797695
844,686.7511571797695
907,0.0
908,0.0
971,0.0
972,0.0
1195,0.0
1197,0.0
2,1, 1,15, 0,24, 0.00,60.00,Monday
7,-5.0
718,18.505725578032376
719,-4.075694254679758
720,15.819985704200308
619,1960.73073108808
633,688.3329006298837
659,25.215635345543177
661,96.66827604395837
690,76.10187845354262
716,0.0
843,1238.6005053515291
844,1238.6005053515291
907,0.0
908,0.0
971,0.0
972,0.0
1195,0.0
1197,0.0
2,2, 1,16, 0, 1, 0.00,60.00,Tuesday
7,-5.6
718,18.469485574691497
719,-4.168421025590386
720,15.70447482460338
619,3145.1941732405357
633,1069.8032884054649
659,37.192665318330604
661,37.925614901513846
690,119.36601986338337
716,0.0
843,1974.1088430716973
844,1974.1088430716973
907,0.0
908,0.0
971,0.0
972,0.0
1195,0.0
1197,0.0
2,2, 1,16, 0, 2, 0.00,60.00,Tuesday
7,-6.1
718,18.503493861322024
719,-4.1650866705375424
720,15.591606618597131
619,3968.6708733615646
633,1318.4043588685558
659,42.0799485092584
661,0.0
690,148.71239911384012
716,0.0
843,2580.7864768013897
844,2580.7864768013897
907,0.0
908,0.0
971,0.0
972,0.0
1195,151.5926836474573
1197,151.5926836474573
2,2, 1,16, 0, 3, 0.00,60.00,Tuesday
7,-6.7
718,18.57362249694405
719,-4.367747464299171
720,15.480956213543104
619,3858.285829111231
633,1298.8213644644536
659,52.42404011335776
661,0.0
690,148.71239911384012
716,0.0
843,3020.0171664883364
844,3020.0171664883364
907,0.0
908,0.0
971,0.0
972,0.0
1195,790.6197364425088
1197,790.6197364425088
2,2, 1,16, 0, 4, 0.00,60.00,Tuesday
7,-7.2
718,18.596810091551813
719,-4.566666692331385
720,15.370052373059247
619,3836.6308815984394
633,1307.3122689519357
659,43.03386308127377
661,0.0
690,148.71239911384012
716,0.0
843,3283.589477896836
844,3283.589477896836
907,0.0
908,0.0
971,0.0
972,0.0
1195,1149.3102302076395
1197,1149.3102302076395
2,2, 1,16, 0, 5, 0.00,60.00,Tuesday
7,-7.2
718,18.604050474878782
719,-4.781273405198322
720,15.260131683902253
619,3836.2488536629103
633,1307.749039623739
659,43.03386308127377
661,0.0
690,148.71239911384012
716,0.0
843,3323.057132221429
844,3323.057132221429
907,0.0
908,0.0
971,0.0
972,0.0
1195,1208.1277605795594
1197,1208.1277605795594
2,2, 1,16, 0, 6, 0.00,60.00,Tuesday
7,-7.8
718,19.371461361276538
719,-4.723206215176279
720,15.144342447680614
619,3753.560129379516
633,1296.0094051964293
659,46.9340329749176
661,0.0
690,148.71239911384012
716,0.0
843,4467.056903737917
844,4467.056903737917
907,0.0
908,0.0
971,0.0
972,0.0
1195,2676.449945764879
1197,2676.449945764879
2,2, 1,16, 0, 7, 0.00,60.00,Tuesday
7,-7.8
718,19.574115856568273
719,-4.568198163796203
720,15.071692682024453
619,3736.850782145886
633,1315.0580726312967
659,46.920873549456566
661,0.0
690,148.71239911384012
716,85.44000000000005
843,4294.960257973951
844,4294.960257973951
907,0.0
908,0.0
971,0.0
972,0.0
1195,3699.1823425754123
1197,3699.1823425754123
2,2, 1,16, 0, 8, 0.00,60.00,Tuesday
7,-7.8
718,19.649086709574767
719,-4.605227449272896
720,14.967325748658494
619,3732.4448562828015
633,1320.056907341022
659,46.920873549456566
661,0.0
690,148.71239911384012
716,85.44000000000005
843,4053.5114604298815
844,4053.5114604298815
907,0.0
908,0.0
971,0.0
972,0.0
1195,3515.3785869742205
1197,3515.3785869742205
2,2, 1,16, 0, 9, 0.00,60.00,Tuesday
7,-6.7
718,19.688869045344735
719,-3.3952052371814396
720,14.87671178486987
619,3856.2006460386733
633,1334.7662753285485
659,46.66580003943274
661,0.0
690,148.71239911384012
716,81.04158756158273
843,3526.1729535607265
844,3526.1729535607265
907,0.0
908,0.0
971,0.0
972,0.0
1195,2691.4692113226074
1197,2691.4692113226074
2,2, 1,16, 0,10, 0.00,60.00,Tuesday
7,-5.0
718,19.72273999668015
719,1.0476295938441185
720,14.795272576286836
619,4043.7691915021296
633,1352.3650119417327
659,48.69167087842058
661,0.0
690,148.71239911384012
716,0.0
843,2488.5618491736695
844,2488.5618491736695
907,0.0
908,0.0
971,0.0
972,0.0
1195,48.08957488305805
1197,48.08957488305805
2,2, 1,16, 0,11, 0.00,60.00,Tuesday
7,-5.0
718,19.804975145410552
719,5.86769045272918
720,14.695061853329678
619,2756.8137816803446
633,964.8599582285575
659,34.71216093482214
661,57.420539042516005
690,105.00509810836061
716,0.0
843,1797.4980439264546
844,1797.4980439264546
907,0.0
908,0.0
971,0.0
972,0.0
1195,0.0
1197,0.0
2,2, 1,16, 0,12, 0.00,60.00,Tuesday
7,0.6
718,19.952721284333595
719,8.67793821170067
720,14.621762616653365
619,1203.5601794355025
633,395.2736917479344
659,0.6513910999520302
661,146.91308228291467
690,39.46493015572511
716,0.0
843,875.2649419999325
844,875.2649419999325
907,0.0
908,0.0
971,0.0
972,0.0
1195,0.0
1197,0.0
2,2, 1,16, 0,13, 0.00,60.00,Tuesday
7,1.7
718,19.852966248704625
719,15.150751795737946
720,14.569991677553157
619,136.55251515205393
633,45.306309827849134
659,0.0021467490495483267
661,194.00664669623416
690,4.456407134746656
716,0.0
843,100.7309688944988
844,100.7309688944988
907,0.0
908,0.0
971,0.0
972,0.0
1195,0.0
1197,0.0
2,2, 1,16, 0,14, 0.00,60.00,Tuesday
7,1.7
718,20.103974719844306
719,18.364466254904897
720,14.56905039141613
619,0.0
633,0.0
659,0.0
661,200.0
690,0.0
716,0.0
843,-331.7069329462138
844,-331.7069329462138
907,0.0
908,0.0
971,0.0
972,0.0
1195,0.0
1197,0.0
2,2, 1,16, 0,15, 0.00,60.00,Tuesday
7,2.2
718,20.63015094343377
719,19.344680345971167
720,14.590538913843922
619,0.0
633,0.0
659,0.0
661,200.0
690,0.0
716,0.0
843,-692.8494407559228
844,-692.8494407559228
907,0.0
908,0.0
971,0.0
972,0.0
1195,0.0
1197,0.0
2,2, 1,16, 0,16, 0.00,60.00,Tuesday
7,2.2
718,20.960921002399417
719,15.590567048530485
720,14.628170070269231
619,0.0
633,0.0
659,0.0
661,200.0
690,0.0
716,0.0
843,-954.9075302936562
844,-954.9075302936562
907,0.0
908,0.0
971,0.0
972,0.0
1195,0.0
1197,0.0
2,2, 1,16, 0,17, 0.00,60.00,Tuesday
7,2.2
718,21.113162229744493
719,12.429666000014015
720,14.67461369803056
619,0.0
633,0.0
659,0.0
661,200.0
690,0.0
716,0.0
843,-1088.6863713051061
844,-1088.6863713051061
907,0.0
908,0.0
971,0.0
972,0.0
1195,0.0
1197,0.0
2,2, 1,16, 0,18, 0.00,60.00,Tuesday
7,1.1
718,19.775649770529373
719,7.377729445560828
720,14.720379274863358
619,0.0
633,0.0
659,0.0
661,200.0
690,0.0
716,67.353654204754
843,-574.1325307704537
844,-574.1325307704537
907,0.0
908,0.0
971,0.0
972,0.0
1195,0.0
1197,0.0
2,2, 1,16, 0,19, 0.00,60.00,Tuesday
7,1.1
718,20.25253964372768
719,5.163911141272113
720,14.756686610820479
619,0.0
633,0.0
659,0.0
661,200.0
690,0.0
716,0.0
843,-482.2674888264919
844,-482.2674888264919
907,0.0
908,0.0
971,0.0
972,0.0
1195,0.0
1197,0.0
2,2, 1,16, 0,20, 0.00,60.00,Tuesday
7,1.1
718,18.99261338049049
719,2.694195507781328
720,14.764208256689187
619,0.0
633,0.0
659,0.0
661,200.0
690,0.0
716,85.44000000000005
843,-296.2648324713082
844,-296.2648324713082
907,0.0
908,0.0
971,0.0
972,0.0
1195,0.0
1197,0.0
2,2, 1,16, 0,21, 0.00,60.00,Tuesday
7,0.6
718,19.43220923668809
719,2.2747645761370086
720,14.79137134297944
619,1852.0457282115387
633,587.4838009602294
659,6.77378236384747
661,118.71473882108478
690,60.35163964598761
716,85.44000000000005
843,215.8611669865404
844,215.8611669865404
907,0.0
908,0.0
971,0.0
972,0.0
1195,0.0
1197,0.0
2,2, 1,16, 0,22, 0.00,60.00,Tuesday
7,0.0
718,19.643430527001993
719,1.197882114728577
720,14.758377013252176
619,1450.7390689281397
633,475.2803017165363
659,12.359562078229125
661,133.1298922740963
690,49.53843923541353
716,38.374059976569654
843,588.8123246479809
844,588.8123246479809
907,0.0
908,0.0
971,0.0
972,0.0
1195,0.0
1197,0.0
2,2, 1,16, 0,23, 0.00,60.00,Tuesday
7,0.0
718,18.82536828513435
719,0.08353895802495859
720,14.692353837125644
619,365.93067842062567
633,123.93829642625059
659,3.209173847326729
661,182.6371031980254
690,12.862658382230093
716,0.0
843,244.38313421908606
844,244.38313421908606
907,0.0
908,0.0
971,0.0
972,0.0
1195,0.0
1197,0.0
2,2, 1,16, 0,24, 0.00,60.00,Tuesday
7,0.0
718,18.6302378021396
719,-0.05493532761021566
720,14.65204389424056
619,849.2873064238863
633,278.39329857356796
659,7.336130782317805
661,160.3612257115053
690,29.365208949962764
716,0.0
843,588.3593290157814
844,588.3593290157814
907,0.0
908,0.0
971,0.0
972,0.0
1195,0.0
1197,0.0
2,3, 1,17, 0, 1, 0.00,60.00,Wednesday
7,0.0
718,18.580676257045845
719,-0.011655966238272543
720,14.60170944991661
619,1383.2848383077885
633,445.4115966865565
659,15.204628451060858
661,135.6689222074975
690,47.60703406086407
716,0.0
843,956.0954487597419
844,956.0954487597419
907,0.0
908,0.0
971,0.0
972,0.0
1195,0.0
1197,0.0
2,3, 1,17, 0, 2, 0.00,60.00,Wednesday
7,0.0
718,18.570445679015226
719,0.48039927689805656
720,14.550348110136108
619,1988.6062197469007
633,629.6823741523937
659,21.519101396889585
661,108.95226473676416
690,67.37829597861435
716,0.0
843,1374.188570599219
844,1374.188570599219
907,0.0
908,0.0
971,0.0
972,0.0
1195,0.0
1197,0.0
2,3, 1,17, 0, 3, 0.00,60.00,Wednesday
7,0.0
718,18.554649234248686
719,1.0343263901595658
720,14.49649498702072
619,2494.5416382788767
633,779.8311477250958
659,31.16602491523701
661,86.33313275897613
690,84.0497936749421
716,0.0
843,1729.5431400632351
844,1729.5431400632351
907,0.0
908,0.0
971,0.0
972,0.0
1195,0.0
1197,0.0
2,3, 1,17, 0, 4, 0.00,60.00,Wednesday
7,0.0
718,18.597808859450282
719,1.4249454977648621
720,14.436822574037254
619,2768.9964020420666
633,859.7134333930891
659,46.00701563086063
661,72.39142820642712
690,94.18218484101318
716,0.0
843,1925.6235846516593
844,1925.6235846516593
907,0.0
908,0.0
971,0.0
972,0.0
1195,0.0
1197,0.0
2,3, 1,17, 0, 5, 0.00,60.00,Wednesday
7,0.0
718,18.603135848561656
719,1.3516667514397935
720,14.375037290656214
619,2830.889255453638
633,878.386717194096
659,46.97012011016999
661,69.72008807693999
690,96.15364504368104
716,0.0
843,1975.4079295855354
844,1975.4079295855354
907,0.0
908,0.0
971,0.0
972,0.0
1195,0.0
1197,0.0
2,3, 1,17, 0, 6, 0.00,60.00,Wednesday
7,1.7
718,19.236238810922497
719,2.59127342420043
720,14.359752574537623
619,5024.520337779249
633,1441.545485983371
659,15.044243554774685
661,1.1475571486372793
690,147.6995859266602
716,68.94848572453942
843,2799.9953592153706
844,2799.9953592153706
907,0.0
908,0.0
971,0.0
972,0.0
1195,0.0
1197,0.0
2,3, 1,17, 0, 7, 0.00,60.00,Wednesday
7,2.8
718,19.510907949128438
719,3.7535762124826273
720,14.335326989648395
619,5219.883795210483
633,1491.2097728432543
659,0.0709960531728063
661,1.7912573772419726
690,147.37990874198616
716,85.44000000000005
843,2703.668318508342
844,2703.668318508342
907,0.0
908,0.0
971,0.0
972,0.0
1195,0.0
1197,0.0
2,3, 1,17, 0, 8, 0.00,60.00,Wednesday
7,2.8
718,19.664596244970614
719,4.326336987027733
720,14.266520573032448
619,4361.791469194703
633,1277.1746276949932
659,0.06047879650435013
661,31.15362509959285
690,125.54725320330537
716,54.36251632419425
843,2477.21558514806
844,2477.21558514806
907,0.0
908,0.0
971,0.0
972,0.0
1195,0.0
1197,0.0
2,3, 1,17, 0, 9, 0.00,60.00,Wednesday
7,1.0
718,19.717016098000755
719,4.007957458643927
720,14.20503058081379
619,3495.6492873493903
633,1075.6692958004555
659,67.09185995976877
661,42.91767998772167
690,115.92447961709804
716,0.0
843,2481.635692063106
844,2481.635692063106
907,0.0
908,0.0
971,0.0
972,0.0
1195,0.0
1197,0.0
2,3, 1,17, 0,10, 0.00,60.00,Wednesday
7,1.0
718,19.72826767799379
719,4.392773971391717
720,14.155650908317378
619,3257.631193997587
633,1009.6296440015835
659,77.21643546143282
661,49.94507144843008
690,110.54958580697223
716,0.0
843,2293.3243049751272
844,2293.3243049751272
907,0.0
908,0.0
971,0.0
972,0.0
1195,0.0
1197,0.0
2,3, 1,17, 0,11, 0.00,60.00,Wednesday
7,1.1
718,19.75398151301928
719,6.428008898984782
720,14.091698899416333
619,2726.4508430222154
633,855.3538205157153
659,68.94822641549693
661,72.32353098169601
690,94.032073963259
716,0.0
843,1919.8288014735572
844,1919.8288014735572
907,0.0
908,0.0
971,0.0
972,0.0
1195,0.0
1197,0.0
2,3, 1,17, 0,12, 0.00,60.00,Wednesday
7,3.3
718,19.75575428160338
719,8.343138257621279
720,14.034975109030206
619,2154.14671873863
633,660.5510858830694
659,47.39963339902432
661,104.34848031043155
690,70.74942893500028
716,0.0
843,1580.7251348498903
844,1580.7251348498903
907,0.0
908,0.0
971,0.0
972,0.0
1195,0.0
1197,0.0
2,3, 1,17, 0,13, 0.00,60.00,Wednesday
7,3.9
718,19.814713447537766
719,11.44942769621549
720,13.976590129615062
619,1443.2340143642211
633,445.80837836153256
659,25.69507302664667
661,137.00061664802436
690,46.677963769131985
716,0.0
843,1090.0405127114082
844,1090.0405127114082
907,0.0
908,0.0
971,0.0
972,0.0
1195,0.0
1197,0.0
2,3, 1,17, 0,14, 0.00,60.00,Wednesday
7,3.9
718,19.709121195069084
719,13.106716811461483
720,13.937993182060367
619,854.7680815477019
633,268.2019849112278
659,15.440418131899984
661,162.14306065611873
690,28.04921279145652
716,0.0
843,668.9630165190629
844,668.9630165190629
907,0.0
908,0.0
971,0.0
972,0.0
1195,0.0
1197,0.0
2,3, 1,17, 0,15, 0.00,60.00,Wednesday
7,5.6
718,18.989207580798332
719,15.756801577402031
720,13.900656808682799
619,0.0
633,0.0
659,0.0
661,200.0
690,0.0
716,65.948951894622
843,-94.62776949436739
844,-94.62776949436739
907,0.0
908,0.0
971,0.0
972,0.0
1195,0.0
1197,0.0
2,3, 1,17, 0,16, 0.00,60.00,Wednesday
7,6.1
718,19.471525768502197
719,16.674729171316276
720,13.931234730192573
619,0.0
633,0.0
659,0.0
661,200.0
690,0.0
716,73.73975514773971
843,-802.0572995275797
844,-802.0572995275797
907,0.0
908,0.0
971,0.0
972,0.0
1195,0.0
1197,0.0
2,3, 1,17, 0,17, 0.00,60.00,Wednesday
7,6.1
718,20.90842868472789
719,15.24905992916594
720,13.979202701648816
619,0.0
633,0.0
659,0.0
661,200.0
690,0.0
716,0.0
843,-1053.3294433594383
844,-1053.3294433594383
907,0.0
908,0.0
971,0.0
972,0.0
1195,0.0
1197,0.0
2,3, 1,17, 0,18, 0.00,60.00,Wednesday
7,5.6
718,20.539279704936092
719,12.205627427422938
720,14.037957312166068
619,0.0
633,0.0
659,0.0
661,200.0
690,0.0
716,0.0
843,-573.1076268897868
844,-573.1076268897868
907,0.0
908,0.0
971,0.0
972,0.0
1195,0.0
1197,0.0
2,3, 1,17, 0,19, 0.00,60.00,Wednesday
7,5.6
718,20.730692330777078
719,10.238501681852293
720,14.087525776709528
619,0.0
633,0.0
659,0.0
661,200.0
690,0.0
716,0.0
843,-651.5182537830678
844,-651.5182537830678
907,0.0
908,0.0
971,0.0
972,0.0
1195,0.0
1197,0.0
2,3, 1,17, 0,20, 0.00,60.00,Wednesday
7,5.6
718,19.372610308523495
719,8.242813728523029
720,14.121654457359222
619,0.0
633,0.0
659,0.0
661,200.0
690,0.0
716,85.44000000000005
843,-659.3796364591126
844,-659.3796364591126
907,0.0
908,0.0
971,0.0
972,0.0
1195,0.0
1197,0.0
2,3, 1,17, 0,21, 0.00,60.00,Wednesday
7,5.0
718,19.040677361886384
719,6.926858384368101
720,14.141901446791124
619,0.0
633,0.0
659,0.0
661,200.0
690,0.0
716,76.00209303113313
843,-344.9830420491435
844,-344.9830420491435
907,0.0
908,0.0
971,0.0
972,0.0
1195,0.0
1197,0.0
2,3, 1,17, 0,22, 0.00,60.00,Wednesday
7,5.6
718,19.721745340063343
719,6.598040313803079
720,14.153134186904067
619,185.09324539352448
633,51.67173534546151
659,0.0
661,193.6066777854272
690,4.753831424184657
716,0.0
843,129.11124852360808
844,129.11124852360808
907,0.0
908,0.0
971,0.0
972,0.0
1195,0.0
1197,0.0
2,3, 1,17, 0,23, 0.00,60.00,Wednesday
7,5.6
718,19.16487778404004
719,6.340570091889558
720,14.138192833190184
619,0.0
633,0.0
659,0.0
661,200.0
690,0.0
716,0.0
843,-306.2680873483432
844,-306.2680873483432
907,0.0
908,0.0
971,0.0
972,0.0
1195,0.0
1197,0.0
2,3, 1,17, 0,24, 0.00,60.00,Wednesday
7,6.1
718,18.65322062198457
719,6.219224028562059
720,14.120710968936963
619,0.0
633,0.0
659,0.0
661,200.0
690,0.0
716,0.0
843,-26.086127251885046
844,-26.086127251885046
907,0.0
908,0.0
971,0.0
972,0.0
1195,0.0
1197,0.0
2,4, 1,18, 0, 1, 0.00,60.00,Thursday
7,6.7
718,18.598515189049852
719,6.852565372973436
720,14.111681602728172
619,567.6221102807731
633,153.49866370386783
659,0.0
661,181.09315730057793
690,14.05840968749525
716,0.0
843,441.570722545388
844,441.570722545388
907,0.0
908,0.0
971,0.0
972,0.0
1195,0.0
1197,0.0
2,4, 1,18, 0, 2, 0.00,60.00,Thursday
7,6.7
718,18.617404436783684
719,7.058329790346815
720,14.088176646499301
619,852.9072261529411
633,229.15260170019755
659,0.0
661,171.74506504475633
690,21.00929581999894
716,0.0
843,653.7362635529198
844,653.7362635529198
907,0.0
908,0.0
971,0.0
972,0.0
1195,0.0
1197,0.0
2,4, 1,18, 0, 3, 0.00,60.00,Thursday
7,6.0
718,18.762694956980813
719,6.813622064604266
720,14.064774511134424
619,1182.7518209058746
633,319.03282195403915
659,0.0
661,160.3738396391757
690,29.464506874639664
716,0.0
843,923.7687896423431
844,923.7687896423431
907,0.0
908,0.0
971,0.0
972,0.0
1195,0.0
1197,0.0
2,4, 1,18, 0, 4, 0.00,60.00,Thursday
7,6.1
718,18.561242225624806
719,6.740348476601057
720,14.030646474505485
619,1236.8218328369992
633,333.908071760372
659,0.0
661,158.680578630486
690,30.7235514092805
716,0.0
843,949.9879145373907
844,949.9879145373907
907,0.0
908,0.0
971,0.0
972,0.0
1195,0.0
1197,0.0
2,4, 1,18, 0, 5, 0.00,60.00,Thursday
7,6.1
718,18.605637493675076
719,6.733617378779951
720,13.995310618753532
619,1363.528759319
633,365.56158263355144
659,0.0
661,154.5921525630856
690,33.76354965469389
716,0.0
843,1062.0624026132682
844,1062.0624026132682
907,0.0
908,0.0
971,0.0
972,0.0
1195,0.0
1197,0.0
2,4, 1,18, 0, 6, 0.00,60.00,Thursday
7,6.0
718,19.359977270174692
719,6.857087848296249
720,13.994284527086823
619,2602.179963216052
633,683.5935734307789
659,0.0
661,115.0498647580823
690,63.16569208435381
716,0.0
843,2014.3692503506136
844,2014.3692503506136
907,0.0
908,0.0
971,0.0
972,0.0
1195,0.0
1197,0.0
2,4, 1,18, 0, 7, 0.00,60.00,Thursday
7,3.0
718,19.485331996989885
719,6.387909384095015
720,14.07897147962097
619,4600.1405693605175
633,1322.4496289853391
659,118.69642662750503
661,1.999819152546456
690,146.19172548266778
716,85.44000000000005
843,2212.714745341831
844,2212.714745341831
907,0.0
908,0.0
971,0.0
972,0.0
1195,0.0
1197,0.0
2,4, 1,18, 0, 8, 0.00,60.00,Thursday
7,2.8
718,19.46368122290507
719,5.609790637834209
720,14.036880483224664
619,4737.371865606494
633,1359.4017863167405
659,104.2756681044875
661,0.0
690,148.71239911384012
716,85.44000000000005
843,2366.817523764723
844,2366.817523764723
907,0.0
908,0.0
971,0.0
972,0.0
1195,0.0
1197,0.0
2,4, 1,18, 0, 9, 0.00,60.00,Thursday
7,2.8
718,19.650709654434877
719,5.38215290373402
720,13.968741277116024
619,3997.0983661465652
633,1175.147763915947
659,52.76350948629894
661,34.27230646953192
690,122.77123863352821
716,46.59579311990559
843,2317.9173276541787
844,2317.9173276541787
907,0.0
908,0.0
971,0.0
972,0.0
1195,0.0
1197,0.0
2,4, 1,18, 0,10, 0.00,60.00,Thursday
7,1.1
718,19.787967418839678
719,6.054588770708644
720,13.873013955574772
619,2359.7689902681504
633,744.8279426480326
659,28.364561724573093
661,94.77085918467789
690,77.89162385773052
716,0.0
843,1701.4761424793578
844,1701.4761424793578
907,0.0
908,0.0
971,0.0
972,0.0
1195,0.0
1197,0.0
2,4, 1,18, 0,11, 0.00,60.00,Thursday
7,1.1
718,19.794079616181236
719,7.007145818592485
720,13.80819081138942
619,1278.2063941651102
633,415.86277025467734
659,15.793293824921635
661,141.40876365451936
690,43.36966363205332
716,0.0
843,926.5152383030036
844,926.5152383030036
907,0.0
908,0.0
971,0.0
972,0.0
1195,0.0
1197,0.0
2,4, 1,18, 0,12, 0.00,60.00,Thursday
7,1.7
718,19.612146575727653
719,7.8408524723183985
720,13.762392679619879
619,579.837251164543
633,189.61155170506612
659,2.723155667744028
661,174.29056024709251
690,19.087361427049533
716,0.0
843,428.0549763397685
844,428.0549763397685
907,0.0
908,0.0
971,0.0
972,0.0
1195,0.0
1197,0.0
2,4, 1,18, 0,13, 0.00,60.00,Thursday
7,1.7
718,19.76368887073537
719,8.692709999996902
720,13.759996516906279
619,350.0667246792232
633,114.56892330899639
659,1.171623084407734
661,184.50305800317705
690,11.510453531490528
716,0.0
843,263.17308915311514
844,263.17308915311514
907,0.0
908,0.0
971,0.0
972,0.0
1195,0.0
1197,0.0
2,4, 1,18, 0,14, 0.00,60.00,Thursday
7,1.7
718,19.901620942330986
719,9.255164745045127
720,13.763710914359692
619,0.0
633,0.0
659,0.0
661,200.0
690,0.0
716,0.0
843,-133.03305289238233
844,-133.03305289238233
907,0.0
908,0.0
971,0.0
972,0.0
1195,0.0
1197,0.0
2,4, 1,18, 0,15, 0.00,60.00,Thursday
7,2.2
718,20.86774198451051
719,10.902533371935945
720,13.799009884148292
619,0.0
633,0.0
659,0.0
661,200.0
690,0.0
716,0.0
843,-988.5678940970065
844,-988.5678940970065
907,0.0
908,0.0
971,0.0
972,0.0
1195,0.0
1197,0.0
2,4, 1,18, 0,16, 0.00,60.00,Thursday
7,2.8
718,21.571622838827746
719,10.71569886834093
720,13.838504486302773
619,0.0
633,0.0
659,0.0
661,200.0
690,0.0
716,0.0
843,-1476.9277280848455
844,-1476.9277280848455
907,0.0
908,0.0
971,0.0
972,0.0
1195,0.0
1197,0.0
2,4, 1,18, 0,17, 0.00,60.00,Thursday
7,2.8
718,21.080359743858835
719,9.051425150790116
720,13.904076808837125
619,0.0
633,0.0
659,0.0
661,200.0
690,0.0
716,75.32389843389461
843,-1894.0377676662192
844,-1894.0377676662192
907,0.0
908,0.0
971,0.0
972,0.0
1195,0.0
1197,0.0