Program Version,EnergyPlus, Version 22.2.0-c249759bad, YMD=2023.09.01 14:30
1,5,Environment Title[],Latitude[deg],Longitude[deg],Time Zone[],Elevation[m]
2,8,Day of Simulation[],Month[],Day of Month[],DST Indicator[1=yes 0=no],Hour[],StartMinute[],EndMinute[],DayType
3,5,Cumulative Day of Simulation[],Month[],Day of Month[],DST Indicator[1=yes 0=no],DayType  ! When Daily Report Variables Requested
4,2,Cumulative Days of Simulation[],Month[]  ! When Monthly Report Variables Requested
5,1,Cumulative Days of Simulation[] ! When Run Period Report Variables Requested
6,1,Calendar Year of Simulation[] ! When Annual Report Variables Requested
7,1,Environment,Site Outdoor Air Drybulb Temperature [C] !Hourly
619,1,DX_HEATING_COIL,Heating Coil Heating Rate [W] !Hourly
633,1,DX_HEATING_COIL,Heating Coil Electricity Rate [W] !Hourly
659,1,DX_HEATING_COIL,Heating Coil Defrost Electricity Rate [W] !Hourly
661,1,DX_HEATING_COIL,Heating Coil Crankcase Heater Electricity Rate [W] !Hourly
690,1,FAN,Fan Electricity Rate [W] !Hourly
716,1,HEAT PUMP WATER HEATER FAN,Fan Electricity Rate [W] !Hourly
718,1,LIVING,Zone Mean Air Temperature [C] !Hourly
719,1,ATTIC,Zone Mean Air Temperature [C] !Hourly
720,1,CRAWLSPACE,Zone Mean Air Temperature [C] !Hourly
843,1,LIVING,Zone Predicted Sensible Load to Heating Setpoint Heat Transfer Rate [W] !Hourly
844,1,LIVING,Zone System Predicted Sensible Load to Heating Setpoint Heat Transfer Rate [W] !Hourly
907,1,ATTIC,Zone Predicted Sensible Load to Heating Setpoint Heat Transfer Rate [W] !Hourly
908,1,ATTIC,Zone System Predicted Sensible Load to Heating Setpoint Heat Transfer Rate [W] !Hourly
971,1,CRAWLSPACE,Zone Predicted Sensible Load to Heating Setpoint Heat Transfer Rate [W] !Hourly
972,1,CRAWLSPACE,Zone System Predicted Sensible Load to Heating Setpoint Heat Transfer Rate [W] !Hourly
1195,1,HEATING_RESISTANCE_BACKUP,Heating Coil Heating Rate [W] !Hourly
1197,1,HEATING_RESISTANCE_BACKUP,Heating Coil Electricity Rate [W] !Hourly
End of Data Dictionary
1,EXTREME_WINTER,  33.67,-117.87,  -8.00,  17.00
2,1, 1,15, 0, 1, 0.00,60.00,Monday
7,7.8
718,21.748137372289484
719,9.732855630864943
720,19.939954702449235
619,0.0
633,0.0
659,0.0
661,200.0
690,0.0
716,0.0
843,-1929.698978052128
844,-1929.698978052128
907,0.0
908,0.0
971,0.0
972,0.0
1195,0.0
1197,0.0
2,1, 1,15, 0, 2, 0.00,60.00,Monday
7,8.9
718,21.48703274080645
719,8.506155739122876
720,19.743616084225525
619,0.0
633,0.0
659,0.0
661,200.0
690,0.0
716,0.0
843,-2009.2060198221589
844,-2009.2060198221589
907,0.0
908,0.0
971,0.0
972,0.0
1195,0.0
1197,0.0
2,1, 1,15, 0, 3, 0.00,60.00,Monday
7,8.9
718,21.061922674215218
719,7.755456226743487
720,19.60664661248414
619,0.0
633,0.0
659,0.0
661,200.0
690,0.0
716,0.0
843,-1472.9989422250046
844,-1472.9989422250046
907,0.0
908,0.0
971,0.0
972,0.0
1195,0.0
1197,0.0
2,1, 1,15, 0, 4, 0.00,60.00,Monday
7,9.4
718,20.73569563335695
719,7.203752269043302
720,19.473260272691448
619,0.0
633,0.0
659,0.0
661,200.0
690,0.0
716,0.0
843,-1190.6291184953652
844,-1190.6291184953652
907,0.0
908,0.0
971,0.0
972,0.0
1195,0.0
1197,0.0
2,1, 1,15, 0, 5, 0.00,60.00,Monday
7,9.4
718,20.462169095934613
719,6.2967453560164435
720,19.34954517322109
619,0.0
633,0.0
659,0.0
661,200.0
690,0.0
716,0.0
843,-956.6444218725574
844,-956.6444218725574
907,0.0
908,0.0
971,0.0
972,0.0
1195,0.0
1197,0.0
2,1, 1,15, 0, 6, 0.00,60.00,Monday
7,10.0
718,20.381973967993005
719,6.972266886983631
720,19.231547692178037
619,0.0
633,0.0
659,0.0
661,0.0
690,0.0
716,0.0
843,-347.64675973163776
844,-347.64675973163776
907,0.0
908,0.0
971,0.0
972,0.0
1195,0.0
1197,0.0
2,1, 1,15, 0, 7, 0.00,60.00,Monday
7,10.6
718,19.108688741815563
719,6.908793150854636
720,19.120897084381017
619,0.0
633,0.0
659,0.0
661,0.0
690,0.0
716,85.44000000000004
843,-384.1914545834579
844,-384.1914545834579
907,0.0
908,0.0
971,0.0
972,0.0
1195,0.0
1197,0.0
2,1, 1,15, 0, 8, 0.00,60.00,Monday
7,11.1
718,19.36326475786524
719,7.00061940268173
720,19.01581113727709
619,0.0
633,0.0
659,0.0
661,0.0
690,0.0
716,26.011727712081456
843,-61.28917378555525
844,-61.28917378555525
907,0.0
908,0.0
971,0.0
972,0.0
1195,0.0
1197,0.0
2,1, 1,15, 0, 9, 0.00,60.00,Monday
7,12.8
718,19.832527045782346
719,7.857247753247517
720,18.916168529388944
619,0.0
633,0.0
659,0.0
661,0.0
690,0.0
716,0.0
843,-61.344440323343406
844,-61.344440323343406
907,0.0
908,0.0
971,0.0
972,0.0
1195,0.0
1197,0.0
2,1, 1,15, 0,10, 0.00,60.00,Monday
7,13.3
718,19.88314038208337
719,10.13240194652635
720,18.82251352294675
619,0.0
633,0.0
659,0.0
661,0.0
690,0.0
716,0.0
843,-106.39398549946418
844,-106.39398549946418
907,0.0
908,0.0
971,0.0
972,0.0
1195,0.0
1197,0.0
2,1, 1,15, 0,11, 0.00,60.00,Monday
7,17.2
718,20.56102393601334
719,15.71445985239427
720,18.739751167879774
619,0.0
633,0.0
659,0.0
661,0.0
690,0.0
716,0.0
843,-546.5206502292913
844,-546.5206502292913
907,0.0
908,0.0
971,0.0
972,0.0
1195,0.0
1197,0.0
2,1, 1,15, 0,12, 0.00,60.00,Monday
7,17.8
718,21.535475708257728
719,21.718276645377106
720,18.676803033142704
619,0.0
633,0.0
659,0.0
661,0.0
690,0.0
716,0.0
843,-1213.3206488049
844,-1213.3206488049
907,0.0
908,0.0
971,0.0
972,0.0
1195,0.0
1197,0.0
2,1, 1,15, 0,13, 0.00,60.00,Monday
7,16.1
718,21.523208783511027
719,20.21791528075667
720,18.641096943472846
619,0.0
633,0.0
659,0.0
661,0.0
690,0.0
716,0.0
843,-1447.6770687869575
844,-1447.6770687869575
907,0.0
908,0.0
971,0.0
972,0.0
1195,0.0
1197,0.0
2,1, 1,15, 0,14, 0.00,60.00,Monday
7,16.7
718,21.00914728207426
719,22.90108576086978
720,18.62967536930584
619,0.0
633,0.0
659,0.0
661,0.0
690,0.0
716,60.449692323768964
843,-1460.3992903551662
844,-1460.3992903551662
907,0.0
908,0.0
971,0.0
972,0.0
1195,0.0
1197,0.0
2,1, 1,15, 0,15, 0.00,60.00,Monday
7,16.7
718,22.134954066150097
719,21.47012297992599
720,18.627022377877417
619,0.0
633,0.0
659,0.0
661,0.0
690,0.0
716,0.0
843,-1809.652271945528
844,-1809.652271945528
907,0.0
908,0.0
971,0.0
972,0.0
1195,0.0
1197,0.0
2,1, 1,15, 0,16, 0.00,60.00,Monday
7,16.1
718,22.824635211181775
719,21.335956205045548
720,18.631561081302884
619,0.0
633,0.0
659,0.0
661,0.0
690,0.0
716,0.0
843,-1652.4113891541729
844,-1652.4113891541729
907,0.0
908,0.0
971,0.0
972,0.0
1195,0.0
1197,0.0
2,1, 1,15, 0,17, 0.00,60.00,Monday
7,15.6
718,23.096240075745293
719,19.595608397736676
720,18.642309658725846
619,0.0
633,0.0
659,0.0
661,0.0
690,0.0
716,0.0
843,-2047.2117843729884
844,-2047.2117843729884
907,0.0
908,0.0
971,0.0
972,0.0
1195,0.0
1197,0.0
2,1, 1,15, 0,18, 0.00,60.00,Monday
7,15.0
718,23.326195549578106
719,18.073264270535127
720,18.6620627294003
619,0.0
633,0.0
659,0.0
661,0.0
690,3.213815080669566
716,0.0
843,-2092.368058553324
844,-2092.368058553324
907,0.0
908,0.0
971,0.0
972,0.0
1195,0.0
1197,0.0
2,1, 1,15, 0,19, 0.00,60.00,Monday
7,15.0
718,22.495978052831095
719,16.416243004582526
720,18.66466978012828
619,0.0
633,0.0
659,0.0
661,0.0
690,0.0
716,65.20949900136272
843,-2182.9282830703505
844,-2182.9282830703505
907,0.0
908,0.0
971,0.0
972,0.0
1195,0.0
1197,0.0
2,1, 1,15, 0,20, 0.00,60.00,Monday
7,15.0
718,22.70486606463245
719,15.707592438928211
720,18.66918572411293
619,0.0
633,0.0
659,0.0
661,0.0
690,0.0
716,58.598771498471756
843,-3161.4300156980553
844,-3161.4300156980553
907,0.0
908,0.0
971,0.0
972,0.0
1195,0.0
1197,0.0
2,1, 1,15, 0,21, 0.00,60.00,Monday
7,13.0
718,23.31792551287218
719,14.399805402574808
720,18.66840319565665
619,0.0
633,0.0
659,0.0
661,0.0
690,4.314213559641425
716,0.0
843,-2839.493854873899
844,-2839.493854873899
907,0.0
908,0.0
971,0.0
972,0.0
1195,0.0
1197,0.0
2,1, 1,15, 0,22, 0.00,60.00,Monday
7,12.8
718,23.355571239828187
719,13.63585343156921
720,18.653322691947565
619,0.0
633,0.0
659,0.0
661,0.0
690,3.9328435557883474
716,0.0
843,-1896.4933556976212
844,-1896.4933556976212
907,0.0
908,0.0
971,0.0
972,0.0
1195,0.0
1197,0.0
2,1, 1,15, 0,23, 0.00,60.00,Monday
7,11.7
718,23.138102564179196
719,12.708729292607362
720,18.624454412231167
619,0.0
633,0.0
659,0.0
661,0.0
690,0.0
716,0.0
843,-2191.571539431754
844,-2191.571539431754
907,0.0
908,0.0
971,0.0
972,0.0
1195,0.0
1197,0.0
2,1, 1,15, 0,24, 0.00,60.00,Monday
7,11.7
718,22.409606890912645
719,12.161138365574981
720,18.59481027560533
619,0.0
633,0.0
659,0.0
661,0.0
690,0.0
716,0.0
843,-1554.0655505286613
844,-1554.0655505286613
907,0.0
908,0.0
971,0.0
972,0.0
1195,0.0
1197,0.0
2,2, 1,16, 0, 1, 0.00,60.00,Tuesday
7,11.7
718,22.124127335797496
719,11.934612527245331
720,18.559542634666034
619,0.0
633,0.0
659,0.0
661,0.0
690,0.0
716,0.0
843,-2063.6317745805172
844,-2063.6317745805172
907,0.0
908,0.0
971,0.0
972,0.0
1195,0.0
1197,0.0
2,2, 1,16, 0, 2, 0.00,60.00,Tuesday
7,11.7
718,21.832374550679052
719,11.49714240266992
720,18.51707996192971
619,0.0
633,0.0
659,0.0
661,0.0
690,0.0
716,0.0
843,-1418.8056463406092
844,-1418.8056463406092
907,0.0
908,0.0
971,0.0
972,0.0
1195,0.0
1197,0.0
2,2, 1,16, 0, 3, 0.00,60.00,Tuesday
7,12.2
718,21.563462444231597
719,11.183620428881948
720,18.470072684704075
619,0.0
633,0.0
659,0.0
661,0.0
690,0.0
716,0.0
843,-1414.1561375477304
844,-1414.1561375477304
907,0.0
908,0.0
971,0.0
972,0.0
1195,0.0
1197,0.0
2,2, 1,16, 0, 4, 0.00,60.00,Tuesday
7,11.1
718,21.062218444813055
719,9.730422420523867
720,18.421010573804462
619,0.0
633,0.0
659,0.0
661,0.0
690,0.0
716,0.0
843,-1416.7634047468864
844,-1416.7634047468864
907,0.0
908,0.0
971,0.0
972,0.0
1195,0.0
1197,0.0
2,2, 1,16, 0, 5, 0.00,60.00,Tuesday
7,11.1
718,20.900050357706693
719,9.06320845636003
720,18.36853911208518
619,0.0
633,0.0
659,0.0
661,0.0
690,0.0
716,0.0
843,-1127.6632479960163
844,-1127.6632479960163
907,0.0
908,0.0
971,0.0
972,0.0
1195,0.0
1197,0.0
2,2, 1,16, 0, 6, 0.00,60.00,Tuesday
7,10.6
718,20.73893262445362
719,9.3580231905521
720,18.313724098279483
619,0.0
633,0.0
659,0.0
661,0.0
690,0.0
716,0.0
843,-602.0143597163751
844,-602.0143597163751
907,0.0
908,0.0
971,0.0
972,0.0
1195,0.0
1197,0.0
2,2, 1,16, 0, 7, 0.00,60.00,Tuesday
7,11.0
718,19.754751242939577
719,8.986582664732321
720,18.25937524102165
619,0.0
633,0.0
659,0.0
661,0.0
690,0.0
716,70.33238391985559
843,-592.1704073046976
844,-592.1704073046976
907,0.0
908,0.0
971,0.0
972,0.0
1195,0.0
1197,0.0
2,2, 1,16, 0, 8, 0.00,60.00,Tuesday
7,12.2
718,19.30355756320454
719,9.571448215904576
720,18.20479825037208
619,0.0
633,0.0
659,0.0
661,0.0
690,0.0
716,83.55834957691249
843,-490.60243074471873
844,-490.60243074471873
907,0.0
908,0.0
971,0.0
972,0.0
1195,0.0
1197,0.0
2,2, 1,16, 0, 9, 0.00,60.00,Tuesday
7,13.3
718,19.939997826507984
719,11.6597215955634
720,18.150211349408497
619,0.0
633,0.0
659,0.0
661,0.0
690,0.0
716,0.0
843,-165.36844580804973
844,-165.36844580804973
907,0.0
908,0.0
971,0.0
972,0.0
1195,0.0
1197,0.0
2,2, 1,16, 0,10, 0.00,60.00,Tuesday
7,13.0
718,20.156407106727784
719,13.196597538062349
720,18.097968389204446
619,0.0
633,0.0
659,0.0
661,0.0
690,0.0
716,0.0
843,-225.98970714117058
844,-225.98970714117058
907,0.0
908,0.0
971,0.0
972,0.0
1195,0.0
1197,0.0
2,2, 1,16, 0,11, 0.00,60.00,Tuesday
7,13.3
718,20.30274489662203
719,14.7497046940278
720,18.05104981421821
619,0.0
633,0.0
659,0.0
661,0.0
690,0.0
716,0.0
843,-350.9954982069048
844,-350.9954982069048
907,0.0
908,0.0
971,0.0
972,0.0
1195,0.0
1197,0.0
2,2, 1,16, 0,12, 0.00,60.00,Tuesday
7,13.3
718,20.611914021226003
719,16.55559992650369
720,18.014791689165254
619,0.0
633,0.0
659,0.0
661,0.0
690,0.0
716,0.0
843,-477.2051845700971
844,-477.2051845700971
907,0.0
908,0.0
971,0.0
972,0.0
1195,0.0
1197,0.0
2,2, 1,16, 0,13, 0.00,60.00,Tuesday
7,13.0
718,21.264401225632092
719,18.723906036658498
720,17.99312420721133
619,0.0
633,0.0
659,0.0
661,0.0
690,0.0
716,0.0
843,-906.970826437826
844,-906.970826437826
907,0.0
908,0.0
971,0.0
972,0.0
1195,0.0
1197,0.0
2,2, 1,16, 0,14, 0.00,60.00,Tuesday
7,14.0
718,21.949768030168883
719,19.958747392715793
720,17.988212386950455
619,0.0
633,0.0
659,0.0
661,0.0
690,0.0
716,0.0
843,-1348.4640657601303
844,-1348.4640657601303
907,0.0
908,0.0
971,0.0
972,0.0
1195,0.0
1197,0.0
2,2, 1,16, 0,15, 0.00,60.00,Tuesday
7,13.3
718,22.38623886627851
719,21.0998846954076
720,18.00284428722566
619,0.0
633,0.0
659,0.0
661,0.0
690,0.0
716,0.0
843,-1642.177190849572
844,-1642.177190849572
907,0.0
908,0.0
971,0.0
972,0.0
1195,0.0
1197,0.0
2,2, 1,16, 0,16, 0.00,60.00,Tuesday
7,13.3
718,23.232606540147682
719,19.202871061142677
720,18.027202101716906
619,0.0
633,0.0
659,0.0
661,0.0
690,0.0
716,0.0
843,-2136.7814854697663
844,-2136.7814854697663
907,0.0
908,0.0
971,0.0
972,0.0
1195,0.0
1197,0.0
2,2, 1,16, 0,17, 0.00,60.00,Tuesday
7,12.2
718,23.31183146260791
719,17.492414126527592
720,18.0866275390022
619,0.0
633,0.0
659,0.0
661,0.0
690,12.490649317510927
716,0.0
843,-3009.09518756499
844,-3009.09518756499
907,0.0
908,0.0
971,0.0
972,0.0
1195,0.0
1197,0.0
2,2, 1,16, 0,18, 0.00,60.00,Tuesday
7,11.7
718,22.616727981575867
719,15.316925305211265
720,18.102492588825925
619,0.0
633,0.0
659,0.0
661,0.0
690,0.0
716,68.21599429082697
843,-3139.389023167907
844,-3139.389023167907
907,0.0
908,0.0
971,0.0
972,0.0
1195,0.0
1197,0.0
2,2, 1,16, 0,19, 0.00,60.00,Tuesday
7,11.1
718,23.326265737046825
719,12.910603988025695
720,18.13853416092639
619,0.0
633,0.0
659,0.0
661,0.0
690,1.9977361160745062
716,0.0
843,-3193.6529456884164
844,-3193.6529456884164
907,0.0
908,0.0
971,0.0
972,0.0
1195,0.0
1197,0.0
2,2, 1,16, 0,20, 0.00,60.00,Tuesday
7,10.6
718,22.119906866009323
719,11.406276572217669
720,18.148392705771915
619,0.0
633,0.0
659,0.0
661,0.0
690,0.0
716,85.44000000000004
843,-2475.478937268039
844,-2475.478937268039
907,0.0
908,0.0
971,0.0
972,0.0
1195,0.0
1197,0.0
2,2, 1,16, 0,21, 0.00,60.00,Tuesday
7,10.6
718,22.342158155084405
719,10.726159830031705
720,18.14441954924581
619,0.0
633,0.0
659,0.0
661,0.0
690,0.0
716,47.759742506108594
843,-3103.553617466094
844,-3103.553617466094
907,0.0
908,0.0
971,0.0
972,0.0
1195,0.0
1197,0.0
2,2, 1,16, 0,22, 0.00,60.00,Tuesday
7,11.1
718,22.9654121015477
719,10.070665685482426
720,18.126806449782396
619,0.0
633,0.0
659,0.0
661,0.0
690,0.0
716,0.0
843,-2563.764857688502
844,-2563.764857688502
907,0.0
908,0.0
971,0.0
972,0.0
1195,0.0
1197,0.0
2,2, 1,16, 0,23, 0.00,60.00,Tuesday
7,10.6
718,22.50999173720881
719,9.88195888954874
720,18.095606818605816
619,0.0
633,0.0
659,0.0
661,0.0
690,0.0
716,0.0
843,-1707.9739598039105
844,-1707.9739598039105
907,0.0
908,0.0
971,0.0
972,0.0
1195,0.0
1197,0.0
2,2, 1,16, 0,24, 0.00,60.00,Tuesday
7,9.4
718,21.92619590503826
719,8.345847829392321
720,18.059413683687946
619,0.0
633,0.0
659,0.0
661,200.0
690,0.0
716,0.0
843,-1793.847117514004
844,-1793.847117514004
907,0.0
908,0.0
971,0.0
972,0.0
1195,0.0
1197,0.0
2,3, 1,17, 0, 1, 0.00,60.00,Wednesday
7,8.9
718,21.28039679320322
719,7.921768085172013
720,18.01385890605643
619,0.0
633,0.0
659,0.0
661,200.0
690,0.0
716,0.0
843,-1485.6490411370642
844,-1485.6490411370642
907,0.0
908,0.0
971,0.0
972,0.0
1195,0.0
1197,0.0
2,3, 1,17, 0, 2, 0.00,60.00,Wednesday
7,8.3
718,20.720110726686382
719,6.108395936050809
720,17.96474975751291
619,0.0
633,0.0
659,0.0
661,200.0
690,0.0
716,0.0
843,-1211.66635607239
844,-1211.66635607239
907,0.0
908,0.0
971,0.0
972,0.0
1195,0.0
1197,0.0
2,3, 1,17, 0, 3, 0.00,60.00,Wednesday
7,7.8
718,20.17937553010864
719,4.496116575628935
720,17.907535048461707
619,0.0
633,0.0
659,0.0
661,200.0
690,0.0
716,0.0
843,-872.8474657462602
844,-872.8474657462602
907,0.0
908,0.0
971,0.0
972,0.0
1195,0.0
1197,0.0
2,3, 1,17, 0, 4, 0.00,60.00,Wednesday
7,7.8
718,19.796890908101208
719,4.453788184536403
720,17.845223051623694
619,0.0
633,0.0
659,0.0
661,200.0
690,0.0
716,0.0
843,-648.2311886837842
844,-648.2311886837842
907,0.0
908,0.0
971,0.0
972,0.0
1195,0.0
1197,0.0
2,3, 1,17, 0, 5, 0.00,60.00,Wednesday
7,7.2
718,19.41335147760992
719,4.561541641324462
720,17.776965358581847
619,0.0
633,0.0
659,0.0
661,200.0
690,0.0
716,0.0
843,-398.7038440873457
844,-398.7038440873457
907,0.0
908,0.0
971,0.0
972,0.0
1195,0.0
1197,0.0
2,3, 1,17, 0, 6, 0.00,60.00,Wednesday
7,7.8
718,19.560225059768275
719,5.48056824736392
720,17.708685038758507
619,1241.2296507519668
633,332.8350987659682
659,0.0
661,155.51096698230276
690,29.60224730628871
716,61.40374330565729
843,200.43496713192053
844,200.43496713192053
907,0.0
908,0.0
971,0.0
972,0.0
1195,0.0
1197,0.0
2,3, 1,17, 0, 7, 0.00,60.00,Wednesday
7,7.8
718,19.570469179079822
719,6.761566936664751
720,17.642978408794583
619,1929.9756960774848
633,512.177243082886
659,0.0
661,131.71261045443453
690,45.43726972947668
716,85.44000000000004
843,403.30870863129894
844,403.30870863129894
907,0.0
908,0.0
971,0.0
972,0.0
1195,0.0
1197,0.0
2,3, 1,17, 0, 8, 0.00,60.00,Wednesday
7,8.9
718,19.853768811768667
719,7.202605230205227
720,17.571842770704265
619,394.84695786141197
633,106.52311681539943
659,0.0
661,185.98020958721057
690,9.328530535079048
716,10.084452978731655
843,171.3113775111251
844,171.3113775111251
907,0.0
908,0.0
971,0.0
972,0.0
1195,0.0
1197,0.0
2,3, 1,17, 0, 9, 0.00,60.00,Wednesday
7,11.1
718,19.800773207699475
719,9.313183070072684
720,17.51033242324531
619,32.55243697970108
633,8.669411108417174
659,0.0
661,0.0
690,0.7352637674997332
716,0.0
843,24.230525908216805
844,24.230525908216805
907,0.0
908,0.0
971,0.0
972,0.0
1195,0.0
1197,0.0
2,3, 1,17, 0,10, 0.00,60.00,Wednesday
7,13.3
718,21.069053040163013
719,17.100221166177064
720,17.464471972809772
619,0.0
633,0.0
659,0.0
661,0.0
690,0.0
716,0.0
843,-699.3912884122419
844,-699.3912884122419
907,0.0
908,0.0
971,0.0
972,0.0
1195,0.0
1197,0.0
2,3, 1,17, 0,11, 0.00,60.00,Wednesday
7,13.9
718,22.277700749964797
719,23.488245939438553
720,17.44451038187568
619,0.0
633,0.0
659,0.0
661,0.0
690,0.0
716,0.0
843,-2163.9163131707683
844,-2163.9163131707683
907,0.0
908,0.0
971,0.0
972,0.0
1195,0.0
1197,0.0
2,3, 1,17, 0,12, 0.00,60.00,Wednesday
7,15.0
718,23.28413270527692
719,28.160788993242868
720,17.459674592195903
619,0.0
633,0.0
659,0.0
661,0.0
690,0.0
716,0.0
843,-2998.071057487272
844,-2998.071057487272
907,0.0
908,0.0
971,0.0
972,0.0
1195,0.0
1197,0.0
2,3, 1,17, 0,13, 0.00,60.00,Wednesday
7,15.0
718,23.3143594849593
719,29.707692512442435
720,17.56213273340073
619,0.0
633,0.0
659,0.0
661,0.0
690,23.509134030314573
716,0.0
843,-3748.4215966031643
844,-3748.4215966031643
907,0.0
908,0.0
971,0.0
972,0.0
1195,0.0
1197,0.0
2,3, 1,17, 0,14, 0.00,60.00,Wednesday
7,15.6
718,23.339361802570636
719,31.262230998717385
720,17.680007517526903
619,0.0
633,0.0
659,0.0
661,0.0
690,44.56935968853938
716,0.0
843,-4316.284123005298
844,-4316.284123005298
907,0.0
908,0.0
971,0.0
972,0.0
1195,0.0
1197,0.0
2,3, 1,17, 0,15, 0.00,60.00,Wednesday
7,15.0
718,23.298413592884117
719,28.434545137591993
720,17.83218143882077
619,0.0
633,0.0
659,0.0
661,0.0
690,65.69480126276275
716,0.0
843,-5647.465516213018
844,-5647.465516213018
907,0.0
908,0.0
971,0.0
972,0.0
1195,0.0
1197,0.0
2,3, 1,17, 0,16, 0.00,60.00,Wednesday
7,14.4
718,23.332213810289417
719,25.70710338496676
720,17.86630259388223
619,0.0
633,0.0
659,0.0
661,0.0
690,35.837623827890056
716,85.44000000000004
843,-6309.034206263841
844,-6309.034206263841
907,0.0
908,0.0
971,0.0
972,0.0
1195,0.0
1197,0.0
2,3, 1,17, 0,17, 0.00,60.00,Wednesday
7,13.3
718,23.300261994784844
719,21.078527814787694
720,18.038494447312658
619,0.0
633,0.0
659,0.0
661,0.0
690,54.46006247162017
716,38.316296098437086
843,-6352.38647554132
844,-6352.38647554132
907,0.0
908,0.0
971,0.0
972,0.0
1195,0.0
1197,0.0
2,3, 1,17, 0,18, 0.00,60.00,Wednesday
7,12.8
718,23.355265235668465
719,18.061317191867996
720,18.104572092283522
619,0.0
633,0.0
659,0.0
661,0.0
690,42.33803567841717
716,0.0
843,-5367.686606421383
844,-5367.686606421383
907,0.0
908,0.0
971,0.0
972,0.0
1195,0.0
1197,0.0
2,3, 1,17, 0,19, 0.00,60.00,Wednesday
7,12.2
718,23.336826186749445
719,14.455468071790916
720,18.154005776109557
619,0.0
633,0.0
659,0.0
661,0.0
690,34.492335729954114
716,0.0
843,-4721.988235869987
844,-4721.988235869987
907,0.0
908,0.0
971,0.0
972,0.0
1195,0.0
1197,0.0
2,3, 1,17, 0,20, 0.00,60.00,Wednesday
7,11.1
718,23.293881795149698
719,11.89768672951889
720,18.082523741104467
619,0.0
633,0.0
659,0.0
661,0.0
690,0.0
716,79.87839447099604
843,-4418.024354051806
844,-4418.024354051806
907,0.0
908,0.0
971,0.0
972,0.0
1195,0.0
1197,0.0
2,3, 1,17, 0,21, 0.00,60.00,Wednesday
7,11.7
718,23.309683031798336
719,10.551667576129791
720,18.175635660186582
619,0.0
633,0.0
659,0.0
661,0.0
690,23.175705207317005
716,0.0
843,-4107.2350066763975
844,-4107.2350066763975
907,0.0
908,0.0
971,0.0
972,0.0
1195,0.0
1197,0.0
2,3, 1,17, 0,22, 0.00,60.00,Wednesday
7,10.6
718,23.314044888445014
719,8.827148186486541
720,18.11949255841155
619,0.0
633,0.0
659,0.0
661,0.0
690,12.530934592296479
716,0.0
843,-3536.3955280114988
844,-3536.3955280114988
907,0.0
908,0.0
971,0.0
972,0.0
1195,0.0
1197,0.0
2,3, 1,17, 0,23, 0.00,60.00,Wednesday
7,8.9
718,23.259844864038076
719,7.1743357116905155
720,18.051007740581923
619,0.0
633,0.0
659,0.0
661,200.0
690,0.0
716,0.0
843,-3614.9352043618746
844,-3614.9352043618746
907,0.0
908,0.0
971,0.0
972,0.0
1195,0.0
1197,0.0
2,3, 1,17, 0,24, 0.00,60.00,Wednesday
7,8.9
718,22.697276095183092
719,5.82281056822286
720,18.027116590123978
619,0.0
633,0.0
659,0.0
661,200.0
690,0.0
716,0.0
843,-2545.523157351661
844,-2545.523157351661
907,0.0
908,0.0
971,0.0
972,0.0
1195,0.0
1197,0.0
2,4, 1,18, 0, 1, 0.00,60.00,Thursday
7,8.3
718,22.03647077321784
719,4.750123795658345
720,17.983779408141395
619,0.0
633,0.0
659,0.0
661,200.0
690,0.0
716,0.0
843,-2116.0635879728125
844,-2116.0635879728125
907,0.0
908,0.0
971,0.0
972,0.0
1195,0.0
1197,0.0
2,4, 1,18, 0, 2, 0.00,60.00,Thursday
7,7.2
718,21.341362867150732
719,3.707670066223459
720,17.93178468784297
619,0.0
633,0.0
659,0.0
661,200.0
690,0.0
716,0.0
843,-1689.8566116653801
844,-1689.8566116653801
907,0.0
908,0.0
971,0.0
972,0.0
1195,0.0
1197,0.0
2,4, 1,18, 0, 3, 0.00,60.00,Thursday
7,7.2
718,20.771196074813215
719,2.910717586625783
720,17.869584012406346
619,0.0
633,0.0
659,0.0
661,200.0
690,0.0
716,0.0
843,-1358.655079228638
844,-1358.655079228638
907,0.0
908,0.0
971,0.0
972,0.0
1195,0.0
1197,0.0
2,4, 1,18, 0, 4, 0.00,60.00,Thursday
7,6.1
718,20.06890580414
719,2.065697619433828
720,17.79986801090874
619,0.0
633,0.0
659,0.0
661,200.0
690,0.0
716,0.0
843,-842.9843438352473
844,-842.9843438352473
907,0.0
908,0.0
971,0.0
972,0.0
1195,0.0
1197,0.0
2,4, 1,18, 0, 5, 0.00,60.00,Thursday
7,6.1
718,19.629305683600638
719,1.386905686557908
720,17.72476770482732
619,0.0
633,0.0
659,0.0
661,200.0
690,0.0
716,0.0
843,-603.6585845078844
844,-603.6585845078844
907,0.0
908,0.0
971,0.0
972,0.0
1195,0.0
1197,0.0
2,4, 1,18, 0, 6, 0.00,60.00,Thursday
7,6.1
718,19.622916449670477
719,2.7057697099145437
720,17.648555563592865
619,1325.5462241462862
633,364.864467782758
659,0.0
661,150.51762569480115
690,32.92473183002572
716,57.271421345180386
843,250.88966826962314
844,250.88966826962314
907,0.0
908,0.0
971,0.0
972,0.0
1195,0.0
1197,0.0
2,4, 1,18, 0, 7, 0.00,60.00,Thursday
7,5.6
718,19.650076243720225
719,2.7889392499349546
720,17.568657618684792
619,2052.233031461541
633,560.2795622664275
659,0.0
661,123.59891018670052
690,50.83598814619344
716,85.44000000000004
843,436.9341849127359
844,436.9341849127359
907,0.0
908,0.0
971,0.0
972,0.0
1195,0.0
1197,0.0
2,4, 1,18, 0, 8, 0.00,60.00,Thursday
7,7.8
718,19.803186798693318
719,3.7348530192190004
720,17.491438756498088
619,995.9536132901861
633,269.73773764299915
659,0.0
661,164.09505217032967
690,23.890542749052297
716,43.40373001291395
843,172.20946469591036
844,172.20946469591036
907,0.0
908,0.0
971,0.0
972,0.0
1195,0.0
1197,0.0
2,4, 1,18, 0, 9, 0.00,60.00,Thursday
7,10.6
718,20.50872443565427
719,8.023271372596286
720,17.414553990242467
619,0.0
633,0.0
659,0.0
661,0.0
690,0.0
716,0.0
843,-432.8816809078562
844,-432.8816809078562
907,0.0
908,0.0
971,0.0
972,0.0
1195,0.0
1197,0.0
2,4, 1,18, 0,10, 0.00,60.00,Thursday
7,13.3
718,21.78641177012238
719,16.310712945956656
720,17.36996257906583
619,0.0
633,0.0
659,0.0
661,0.0
690,0.0
716,0.0
843,-1677.2393754044388
844,-1677.2393754044388
907,0.0
908,0.0
971,0.0
972,0.0
1195,0.0
1197,0.0
2,4, 1,18, 0,11, 0.00,60.00,Thursday
7,15.0
718,22.837068467030882
719,23.26075632174834
720,17.357488525175008
619,0.0
633,0.0
659,0.0
661,0.0
690,0.0
716,0.0
843,-2680.999317682372
844,-2680.999317682372
907,0.0
908,0.0
971,0.0
972,0.0
1195,0.0
1197,0.0
2,4, 1,18, 0,12, 0.00,60.00,Thursday
7,16.7
718,23.302704882397396
719,28.087999658443188
720,17.413074077424344
619,0.0
633,0.0
659,0.0
661,0.0
690,12.580748189772883
716,0.0
843,-3482.7327386948873
844,-3482.7327386948873
907,0.0
908,0.0
971,0.0
972,0.0
1195,0.0
1197,0.0
2,4, 1,18, 0,13, 0.00,60.00,Thursday
7,18.3
718,23.404038068590644
719,32.12376251412756
720,17.52690238755898
619,0.0
633,0.0
659,0.0
661,0.0
690,31.78458614252957
716,0.0
843,-3492.7314931843375
844,-3492.7314931843375
907,0.0
908,0.0
971,0.0
972,0.0
1195,0.0
1197,0.0
2,4, 1,18, 0,14, 0.00,60.00,Thursday
7,18.9
718,23.335321974033885
719,31.58241202510471
720,17.71134700162726
619,0.0
633,0.0
659,0.0
661,0.0
690,61.35978106515415
716,0.0
843,-5073.0238109640595
844,-5073.0238109640595
907,0.0
908,0.0
971,0.0
972,0.0
1195,0.0
1197,0.0
2,4, 1,18, 0,15, 0.00,60.00,Thursday
7,17.2
718,23.31066250416183
719,30.99152519833591
720,17.870066717470326
619,0.0
633,0.0
659,0.0
661,0.0
690,78.48212763595046
716,0.0
843,-6244.916736121131
844,-6244.916736121131
907,0.0
908,0.0
971,0.0
972,0.0
1195,0.0
1197,0.0
2,4, 1,18, 0,16, 0.00,60.00,Thursday
7,16.1
718,23.289736276672425
719,26.418283512700484
720,18.02100665342955
619,0.0
633,0.0
659,0.0
661,0.0
690,83.84911002133677
716,0.0
843,-6709.120749443249
844,-6709.120749443249
907,0.0
908,0.0
971,0.0
972,0.0
1195,0.0
1197,0.0
2,4, 1,18, 0,17, 0.00,60.00,Thursday
7,14.4
718,23.338931371932482
719,22.57116182949622
720,18.031709311431914
619,0.0
633,0.0
659,0.0
661,0.0
690,45.95052010974804
716,71.7259858763398
843,-6591.2644617576625
844,-6591.2644617576625
907,0.0
908,0.0
971,0.0
972,0.0
1195,0.0
1197,0.0
2,4, 1,18, 0,18, 0.00,60.00,Thursday
7,13.3
718,23.335412829295336
719,19.298044692961195
720,18.16548165255411
619,0.0
633,0.0
659,0.0
661,0.0
690,48.346740592211006
716,0.0
843,-5577.93813043581
844,-5577.93813043581
907,0.0
908,0.0
971,0.0
972,0.0
1195,0.0
1197,0.0
2,4, 1,18, 0,19, 0.00,60.00,Thursday
7,12.8
718,23.3431542463234
719,15.894537572595071
720,18.137028042720267
619,0.0
633,0.0
659,0.0
661,0.0
690,3.264239170997112
716,85.44000000000004
843,-4919.868079517104
844,-4919.868079517104
907,0.0
908,0.0
971,0.0
972,0.0
1195,0.0
1197,0.0
2,4, 1,18, 0,20, 0.00,60.00,Thursday
7,12.2
718,23.349258958054655
719,13.185920654011042
720,18.24669007616716
619,0.0
633,0.0
659,0.0
661,0.0
690,22.983535479595428
716,25.322650556268037
843,-4617.1663461653225
844,-4617.1663461653225
907,0.0
908,0.0
971,0.0
972,0.0
1195,0.0
1197,0.0
2,4, 1,18, 0,21, 0.00,60.00,Thursday
7,11.1
718,23.307911078002927
719,10.878049826863922
720,18.268757389260134
619,0.0
633,0.0
659,0.0
661,0.0
690,25.84074300688489
716,0.0
843,-4241.8568538881445
844,-4241.8568538881445
907,0.0
908,0.0
971,0.0
972,0.0
1195,0.0
1197,0.0
2,4, 1,18, 0,22, 0.00,60.00,Thursday
7,10.0
718,23.312119611020524
719,9.00036552632796
720,18.234178385422293
619,0.0
633,0.0
659,0.0
661,0.0
690,14.135545905976631
716,0.0
843,-3672.9498292932985
844,-3672.9498292932985
907,0.0
908,0.0
971,0.0
972,0.0
1195,0.0
1197,0.0
2,4, 1,18, 0,23, 0.00,60.00,Thursday
7,10.0
718,23.46755541041787
719,7.541524117072418
720,18.161887662867503
619,0.0
633,0.0
659,0.0
661,0.0
690,0.0
716,0.0
843,-3800.658417941153
844,-3800.658417941153
907,0.0
908,0.0
971,0.0
972,0.0
1195,0.0
1197,0.0
2,4, 1,18, 0,24, 0.00,60.00,Thursday
7,8.9
718,22.83495461627099
719,6.289962685525536
720,18.10692440486559
619,0.0
633,0.0
659,0.0
661,200.0
690,0.0
716,0.0
843,-2430.110423973252
844,-2430.110423973252
907,0.0
908,0.0
971,0.0
972,0.0
1195,0.0
1197,0.0
2,5, 1,19, 0, 1, 0.00,60.00,Friday
7,8.3
718,22.179488436554617
719,5.146667799072421
720,18.035702511240682
619,0.0
633,0.0
659,0.0
661,200.0
690,0.0
716,0.0
843,-2225.6909968218197
844,-2225.6909968218197
907,0.0
908,0.0
971,0.0
972,0.0
1195,0.0
1197,0.0
2,5, 1,19, 0, 2, 0.00,60.00,Friday
7,7.8
718,21.556982330787537
719,4.136963826858347
720,17.949014023659956
619,0.0
633,0.0
659,0.0
661,200.0
690,0.0
716,0.0
843,-1840.1872872572585
844,-1840.1872872572585
907,0.0
908,0.0
971,0.0
972,0.0
1195,0.0
1197,0.0
2,5, 1,19, 0, 3, 0.00,60.00,Friday
7,7.2
718,20.83270347858176
719,4.178348443499486
720,17.876822271846308
619,0.0
633,0.0
659,0.0
661,200.0
690,0.0
716,0.0
843,-1360.681494578651
844,-1360.681494578651
907,0.0
908,0.0
971,0.0
972,0.0
1195,0.0
1197,0.0
2,5, 1,19, 0, 4, 0.00,60.00,Friday
7,6.7
718,20.269962714647995
719,3.0933252530219915
720,17.803669303658058
619,0.0
633,0.0
659,0.0
661,200.0
690,0.0
716,0.0
843,-1053.84506404684
844,-1053.84506404684
907,0.0
908,0.0
971,0.0
972,0.0
1195,0.0
1197,0.0
2,5, 1,19, 0, 5, 0.00,60.00,Friday
7,6.1
718,19.774356243616324
719,2.148985675615202
720,17.731364305869498
619,0.0
633,0.0
659,0.0
661,200.0
690,0.0
716,0.0
843,-675.3702011378837
844,-675.3702011378837
907,0.0
908,0.0
971,0.0
972,0.0
1195,0.0
1197,0.0
2,5, 1,19, 0, 6, 0.00,60.00,Friday
7,6.1
718,19.669087961231376
719,3.4508185294177074
720,17.65946921969175
619,1663.5653608258976
633,456.2521317689273
659,0.0
661,138.29005519421122
690,41.06074966097203
716,85.44000000000004
843,171.06500433942983
844,171.06500433942983
907,0.0
908,0.0
971,0.0
972,0.0
1195,0.0
1197,0.0
2,5, 1,19, 0, 7, 0.00,60.00,Friday
7,6.7
718,19.752414444540584
719,3.0677901203450615
720,17.57714931088819
619,1379.1397359678126
633,376.356373300424
659,0.0
661,149.3161511653754
690,33.72417258519162
716,58.434220299600966
843,298.7755599614202
844,298.7755599614202
907,0.0
908,0.0
971,0.0
972,0.0
1195,0.0
1197,0.0
2,5, 1,19, 0, 8, 0.00,60.00,Friday
7,8.9
718,19.887293880004812
719,3.913700391577443
720,17.488553142062802
619,41.513487924462275
633,11.3227810903461
659,0.0
661,198.51463056942654
690,0.9883396028757454
716,0.0
843,25.534246711293235
844,25.534246711293235
907,0.0
908,0.0
971,0.0
972,0.0
1195,0.0
1197,0.0
2,5, 1,19, 0, 9, 0.00,60.00,Friday
7,11.7
718,20.700274491784782