Program Version,EnergyPlus, Version 22.2.0-c249759bad, YMD=2023.09.01 20:40
1,5,Environment Title[],Latitude[deg],Longitude[deg],Time Zone[],Elevation[m]
2,8,Day of Simulation[],Month[],Day of Month[],DST Indicator[1=yes 0=no],Hour[],StartMinute[],EndMinute[],DayType
3,5,Cumulative Day of Simulation[],Month[],Day of Month[],DST Indicator[1=yes 0=no],DayType  ! When Daily Report Variables Requested
4,2,Cumulative Days of Simulation[],Month[]  ! When Monthly Report Variables Requested
5,1,Cumulative Days of Simulation[] ! When Run Period Report Variables Requested
6,1,Calendar Year of Simulation[] ! When Annual Report Variables Requested
581,11,LIVING,AFN Zone Infiltration Air Change Rate [ach] !RunPeriod [Value,Min,Month,Day,Hour,Minute,Max,Month,Day,Hour,Minute]
582,11,ATTIC,AFN Zone Infiltration Air Change Rate [ach] !RunPeriod [Value,Min,Month,Day,Hour,Minute,Max,Month,Day,Hour,Minute]
583,11,CRAWLSPACE,AFN Zone Infiltration Air Change Rate [ach] !RunPeriod [Value,Min,Month,Day,Hour,Minute,Max,Month,Day,Hour,Minute]
1038,11,Facility,Facility Heating Setpoint Not Met Time [hr] !RunPeriod [Value,Min,Month,Day,Hour,Minute,Max,Month,Day,Hour,Minute]
1039,11,Facility,Facility Cooling Setpoint Not Met Time [hr] !RunPeriod [Value,Min,Month,Day,Hour,Minute,Max,Month,Day,Hour,Minute]
1115,11,DX_HEATING_COIL,Heating Coil Heating Energy [J] !RunPeriod [Value,Min,Month,Day,Hour,Minute,Max,Month,Day,Hour,Minute]
1128,11,DX_HEATING_COIL,Heating Coil Electricity Energy [J] !RunPeriod [Value,Min,Month,Day,Hour,Minute,Max,Month,Day,Hour,Minute]
1153,11,DX_HEATING_COIL,Heating Coil Defrost Electricity Energy [J] !RunPeriod [Value,Min,Month,Day,Hour,Minute,Max,Month,Day,Hour,Minute]
1154,11,DX_HEATING_COIL,Heating Coil Crankcase Heater Electricity Energy [J] !RunPeriod [Value,Min,Month,Day,Hour,Minute,Max,Month,Day,Hour,Minute]
1155,11,HEATING_RESISTANCE_BACKUP,Heating Coil Heating Energy [J] !RunPeriod [Value,Min,Month,Day,Hour,Minute,Max,Month,Day,Hour,Minute]
1156,11,HEATING_RESISTANCE_BACKUP,Heating Coil Electricity Energy [J] !RunPeriod [Value,Min,Month,Day,Hour,Minute,Max,Month,Day,Hour,Minute]
1292,11,WATER HEATER,Water Heater Heat Loss Energy [J] !RunPeriod [Value,Min,Month,Day,Hour,Minute,Max,Month,Day,Hour,Minute]
1306,11,WATER HEATER,Water Heater Heating Energy [J] !RunPeriod [Value,Min,Month,Day,Hour,Minute,Max,Month,Day,Hour,Minute]
1307,11,WATER HEATER,Water Heater Unmet Demand Heat Transfer Energy [J] !RunPeriod [Value,Min,Month,Day,Hour,Minute,Max,Month,Day,Hour,Minute]
1308,11,WATER HEATER,Water Heater Electricity Energy [J] !RunPeriod [Value,Min,Month,Day,Hour,Minute,Max,Month,Day,Hour,Minute]
13,11,Electricity:Facility [J] !RunPeriod [Value,Min,Month,Day,Hour,Minute,Max,Month,Day,Hour,Minute]
1134,11,Heating:Electricity [J] !RunPeriod [Value,Min,Month,Day,Hour,Minute,Max,Month,Day,Hour,Minute]
1096,11,Cooling:Electricity [J] !RunPeriod [Value,Min,Month,Day,Hour,Minute,Max,Month,Day,Hour,Minute]
562,11,Fans:Electricity [J] !RunPeriod [Value,Min,Month,Day,Hour,Minute,Max,Month,Day,Hour,Minute]
1379,11,Pumps:Electricity [J] !RunPeriod [Value,Min,Month,Day,Hour,Minute,Max,Month,Day,Hour,Minute]
1326,11,WaterSystems:Electricity [J] !RunPeriod [Value,Min,Month,Day,Hour,Minute,Max,Month,Day,Hour,Minute]
61,11,InteriorLights:Electricity [J] !RunPeriod [Value,Min,Month,Day,Hour,Minute,Max,Month,Day,Hour,Minute]
1046,11,ExteriorLights:Electricity [J] !RunPeriod [Value,Min,Month,Day,Hour,Minute,Max,Month,Day,Hour,Minute]
134,11,InteriorEquipment:Electricity [J] !RunPeriod [Value,Min,Month,Day,Hour,Minute,Max,Month,Day,Hour,Minute]
170,11,gas_dryer:InteriorEquipment:Electricity [J] !RunPeriod [Value,Min,Month,Day,Hour,Minute,Max,Month,Day,Hour,Minute]
207,11,clotheswasher:InteriorEquipment:Electricity [J] !RunPeriod [Value,Min,Month,Day,Hour,Minute,Max,Month,Day,Hour,Minute]
244,11,dishwasher:InteriorEquipment:Electricity [J] !RunPeriod [Value,Min,Month,Day,Hour,Minute,Max,Month,Day,Hour,Minute]
281,11,refrigerator:InteriorEquipment:Electricity [J] !RunPeriod [Value,Min,Month,Day,Hour,Minute,Max,Month,Day,Hour,Minute]
318,11,electric_mels:InteriorEquipment:Electricity [J] !RunPeriod [Value,Min,Month,Day,Hour,Minute,Max,Month,Day,Hour,Minute]
355,11,NaturalGas:Facility [J] !RunPeriod [Value,Min,Month,Day,Hour,Minute,Max,Month,Day,Hour,Minute]
403,11,InteriorEquipment:NaturalGas [J] !RunPeriod [Value,Min,Month,Day,Hour,Minute,Max,Month,Day,Hour,Minute]
476,11,gas_dryer:InteriorEquipment:NaturalGas [J] !RunPeriod [Value,Min,Month,Day,Hour,Minute,Max,Month,Day,Hour,Minute]
513,11,gas_mels:InteriorEquipment:NaturalGas [J] !RunPeriod [Value,Min,Month,Day,Hour,Minute,Max,Month,Day,Hour,Minute]
End of Data Dictionary
1,EXTREME_WINTER,  37.36,-121.92,  -8.00,  15.50
5,7
1038,0.25,0.0, 1,15, 1,15,0.25, 1,20, 6,15
1039,0.0,0.0, 1,15, 1,15,0.0, 1,15, 1,15
581,0.20874139443906,0.12411233893672728, 1,18,10,51,0.6517835990290648, 1,18,14,50
582,2.2857695530859328,0.0, 1,15, 4,50,12.961749510133153, 1,18,14,50
583,0.005968864162516539,0.00011999890454553201, 1,18, 2,60,0.06490565387766595, 1,20, 6, 7
1115,116220633.0627125,0.0, 1,15, 1,15,2228976.3876408366, 1,20, 6,60
1128,33211378.81793324,0.0, 1,15, 1,15,681934.4783293225, 1,20, 6,60
1153,1322115.089942499,0.0, 1,15, 1,15,54352.06455012545, 1,20, 6,60
1154,63211351.49113274,0.0, 1,15,11,52,180000.0, 1,15, 1,15
1155,0.0,0.0, 1,15, 1,15,0.0, 1,15, 1,15
1156,0.0,0.0, 1,15, 1,15,0.0, 1,15, 1,15
1292,-23758478.910642967,-39368.08958599189, 1,20, 4,30,-3931.7099655608845, 1,20,12,14
1306,229428650.59035343,0.0, 1,15, 1,15,4050000.0, 1,15, 8,45
1307,65919347.63078278,0.0, 1,15, 1,15,11362292.981464464, 1,15, 8,30
1308,229428650.59035343,0.0, 1,15, 1,15,4050000.0, 1,15, 8,45
13,727646586.7755101,151703.1275401932, 1,18, 4,15,5474024.410886669, 1,20, 8,15
61,301924526.02383536,88139.10953165221, 1,15, 1,15,1282023.4113694867, 1,15,20,15
134,70666020.44019976,63564.01800854099, 1,15, 4,15,156554.22484006523, 1,20,20,15
170,5241013.419656067,348.4159749238097, 1,15, 4,15,17476.39704006126, 1,20,12,15
207,6509451.13922267,815.2532113832032, 1,15, 3,15,22990.642799023623, 1,20,10,15
244,12749673.399825225,1521.856143006317, 1,15, 4,15,53038.631142310165, 1,20,20,15
281,46165882.481495745,59938.60262432081, 1,15, 5,15,81951.81706819107, 1,15,19,15
318,0.0,0.0, 1,15, 1,15,0.0, 1,15, 1,15
355,197687796.27748066,18561.32405820678, 1,15, 4,15,724774.895203776, 1,20,18,15
403,197687796.27748066,18561.32405820678, 1,15, 4,15,724774.895203776, 1,20,18,15
476,106772067.24485716,7098.072629279515, 1,15, 4,15,356036.3026282215, 1,20,12,15
513,0.0,0.0, 1,15, 1,15,0.0, 1,15, 1,15
562,6317181.849074846,0.0, 1,15, 1,15,89297.0283724149, 1,20, 6,15
1046,0.0,0.0, 1,15, 1,15,0.0, 1,15, 1,15
1096,21565362.47303949,0.0, 1,15, 1,15,296751.6364651651, 1,19,17,15
1134,97744845.39900853,0.0, 1,15,11,60,927673.0577140477, 1,20, 6,15
1326,229428650.5903534,0.0, 1,15, 1,15,4050000.0, 1,15, 8,45
1379,0.0,0.0, 1,15, 1,15,0.0, 1,15, 1,15
1,EXTREME_SUMMER,  37.36,-121.92,  -8.00,  15.50
5,7
1038,0.0,0.0, 9, 2, 1,15,0.0, 9, 2, 1,15
1039,13.75,0.0, 9, 2, 1,15,0.25, 9, 6,15,15
581,0.19249186315848257,0.0, 9, 6,23, 3,0.5701444940112889, 9, 4,14,52
582,3.702672238035707,0.0, 9, 6, 8,44,12.569420570703018, 9, 5,15,52
583,0.02871641191871747,0.0, 9, 6,23, 3,0.06532479121973192, 9, 6,19,18
1115,0.0,0.0, 9, 2, 1,15,0.0, 9, 2, 1,15
1128,0.0,0.0, 9, 2, 1,15,0.0, 9, 2, 1,15
1153,0.0,0.0, 9, 2, 1,15,0.0, 9, 2, 1,15
1154,0.0,0.0, 9, 2, 1,15,0.0, 9, 2, 1,15
1155,0.0,0.0, 9, 2, 1,15,0.0, 9, 2, 1,15
1156,0.0,0.0, 9, 2, 1,15,0.0, 9, 2, 1,15
1292,-22076931.303979423,-34447.62248976977, 9, 7, 6,45,-2373.9369699098233, 9, 7, 9,29
1306,200236798.00687695,0.0, 9, 2, 1,15,4050000.0, 9, 5, 6,60
1307,49610295.66114283,0.0, 9, 2, 1,15,5085921.66768398, 9, 2, 8,30
1308,200236798.00687695,0.0, 9, 2, 1,15,4050000.0, 9, 5, 6,60
13,934930817.364376,151703.1275401932, 9, 2, 4,15,5861958.165026647, 9, 4,17,30
61,301924526.02383536,88139.10953165221, 9, 2, 1,15,1282023.4113694867, 9, 2,20,15
134,70666020.44019976,63564.01800854099, 9, 2, 4,15,156554.22484006523, 9, 7,20,15
170,5241013.419656067,348.4159749238097, 9, 2, 4,15,17476.39704006126, 9, 7,12,15
207,6509451.13922267,815.2532113832032, 9, 2, 3,15,22990.642799023623, 9, 7,10,15
244,12749673.399825225,1521.856143006317, 9, 2, 4,15,53038.631142310165, 9, 7,20,15
281,46165882.481495745,59938.60262432081, 9, 2, 5,15,81951.81706819107, 9, 2,19,15
318,0.0,0.0, 9, 2, 1,15,0.0, 9, 2, 1,15
355,197687796.27748066,18561.32405820678, 9, 2, 4,15,724774.895203776, 9, 7,18,15
403,197687796.27748066,18561.32405820678, 9, 2, 4,15,724774.895203776, 9, 7,18,15
476,106772067.24485716,7098.072629279515, 9, 2, 4,15,356036.3026282215, 9, 7,12,15
513,0.0,0.0, 9, 2, 1,15,0.0, 9, 2, 1,15
562,37473623.5306426,0.0, 9, 2, 3,15,127519.76876548787, 9, 6,14,30
1046,0.0,0.0, 9, 2, 1,15,0.0, 9, 2, 1,15
1096,324629849.36282116,0.0, 9, 2, 3,15,1345776.6789604896, 9, 7,15,60
1134,0.0,0.0, 9, 2, 1,15,0.0, 9, 2, 1,15
1326,200236798.00687698,0.0, 9, 2, 1,15,4050000.0000000014, 9, 7, 9,45
1379,0.0,0.0, 9, 2, 1,15,0.0, 9, 2, 1,15
1,ANNUAL,  37.36,-121.92,  -8.00,  15.50
5,365
1038,1.5,0.0, 1, 1, 1,15,0.25, 1,20, 6,15
1039,235.75,0.0, 1, 1, 1,15,0.25, 2,14,11,60
581,0.2108053912947728,0.0, 4,22,23, 3,1.3154191115721479, 1, 1, 9,60
582,3.302471288072926,0.0, 1, 2, 4,60,26.297394154900527, 1, 1, 9,60
583,0.019581621935438852,0.0, 4,22,23, 3,0.08829521073850202, 2,27, 6, 3
1115,1388855675.3836074,0.0, 1, 1, 1,15,3243751.920518034, 2,18, 6,45
1128,400600480.2260689,0.0, 1, 1, 1,15,986693.1754070936,12,27, 6,60
1153,17252355.859256413,0.0, 1, 1, 1,15,91137.75834729886, 2,18, 6,45
1154,875763343.5805337,0.0, 1, 1, 1,15,180000.0, 1, 2,23,45
1155,1458817.5695215678,0.0, 1, 1, 1,15,465295.8661971488,12,27, 6, 5
1156,1458817.5695215678,0.0, 1, 1, 1,15,465295.8661971488,12,27, 6, 5
1292,-1182680026.4158366,-39802.53690190988, 2,27, 5,30,-1726.0052427386488, 5,22, 8,31
1306,11193696086.941925,0.0, 1, 1, 1,15,4050000.0, 1, 1,10,30
1307,2997284500.04171,0.0, 1, 1, 1,15,12393135.869905123, 1,23, 8,30
1308,11193696086.941925,0.0, 1, 1, 1,15,4050000.0, 1, 1,10,30
13,43008074244.369545,151703.1275401932, 1, 2, 4,15,6327884.410304807,10, 2,18,30
61,15743207428.383959,88139.10953165221, 1, 1, 1,15,1282023.4113694867, 1, 1,20,15
134,3685071073.4325233,63564.01800854099, 1, 2, 4,15,156554.22484006523, 1, 1,20,15
170,273393721.45532674,348.4159749238097, 1, 2, 4,15,17476.39704006126, 1, 1,12,15
207,339560869.0695816,815.2532113832032, 1, 2, 3,15,22990.642799023623, 1, 1,10,15
244,664895467.8009144,1521.856143006317, 1, 2, 4,15,53038.631142310165, 1, 1,20,15
281,2407221015.106824,59938.60262432081, 1, 1, 5,15,81951.81706819107, 1, 1,19,15
318,0.0,0.0, 1, 1, 1,15,0.0, 1, 1, 1,15
355,10310294493.051695,18561.32405820678, 1, 2, 4,15,724774.895203776, 1, 1,18,15
403,10310294493.051695,18561.32405820678, 1, 2, 4,15,724774.895203776, 1, 1,18,15
476,5569688622.066177,7098.072629279515, 1, 2, 4,15,356036.3026282215, 1, 1,12,15
513,0.0,0.0, 1, 1, 1,15,0.0, 1, 1, 1,15
562,1251611541.3770497,0.0, 1, 1, 1,15,127519.76876548787, 4,21,14,60
1046,0.0,0.0, 1, 1, 1,15,0.0, 1, 1, 1,15
1096,9839413116.996162,0.0, 1, 1, 1,15,1348313.286777223, 9, 7,15,60
1134,1295074997.2353797,0.0, 1, 1, 1,15,1638562.0328830737,12,27, 6,15
1326,11193696086.941916,0.0, 1, 1, 1,15,4050000.0000000014, 4,21, 8,60
1379,0.0,0.0, 1, 1, 1,15,0.0, 1, 1, 1,15
End of Data
 Number of Records Written=          99
