Program Version,EnergyPlus, Version 22.2.0-c249759bad, YMD=2023.08.31 13:04
1,5,Environment Title[],Latitude[deg],Longitude[deg],Time Zone[],Elevation[m]
2,8,Day of Simulation[],Month[],Day of Month[],DST Indicator[1=yes 0=no],Hour[],StartMinute[],EndMinute[],DayType
3,5,Cumulative Day of Simulation[],Month[],Day of Month[],DST Indicator[1=yes 0=no],DayType  ! When Daily Report Variables Requested
4,2,Cumulative Days of Simulation[],Month[]  ! When Monthly Report Variables Requested
5,1,Cumulative Days of Simulation[] ! When Run Period Report Variables Requested
6,1,Calendar Year of Simulation[] ! When Annual Report Variables Requested
618,11,DX_HEATING_COIL,Heating Coil Heating Energy [J] !RunPeriod [Value,Min,Month,Day,Hour,Minute,Max,Month,Day,Hour,Minute]
631,11,DX_HEATING_COIL,Heating Coil Electricity Energy [J] !RunPeriod [Value,Min,Month,Day,Hour,Minute,Max,Month,Day,Hour,Minute]
656,11,DX_HEATING_COIL,Heating Coil Defrost Electricity Energy [J] !RunPeriod [Value,Min,Month,Day,Hour,Minute,Max,Month,Day,Hour,Minute]
657,11,DX_HEATING_COIL,Heating Coil Crankcase Heater Electricity Energy [J] !RunPeriod [Value,Min,Month,Day,Hour,Minute,Max,Month,Day,Hour,Minute]
684,11,HEAT PUMP WATER HEATER EVAPORATOR,Cooling Coil Total Water Heating Energy [J] !RunPeriod [Value,Min,Month,Day,Hour,Minute,Max,Month,Day,Hour,Minute]
685,11,HEAT PUMP WATER HEATER EVAPORATOR,Cooling Coil Water Heating Electricity Energy [J] !RunPeriod [Value,Min,Month,Day,Hour,Minute,Max,Month,Day,Hour,Minute]
712,11,LIVING,AFN Zone Infiltration Air Change Rate [ach] !RunPeriod [Value,Min,Month,Day,Hour,Minute,Max,Month,Day,Hour,Minute]
713,11,ATTIC,AFN Zone Infiltration Air Change Rate [ach] !RunPeriod [Value,Min,Month,Day,Hour,Minute,Max,Month,Day,Hour,Minute]
714,11,CRAWLSPACE,AFN Zone Infiltration Air Change Rate [ach] !RunPeriod [Value,Min,Month,Day,Hour,Minute,Max,Month,Day,Hour,Minute]
1157,11,Facility,Facility Heating Setpoint Not Met Time [hr] !RunPeriod [Value,Min,Month,Day,Hour,Minute,Max,Month,Day,Hour,Minute]
1158,11,Facility,Facility Cooling Setpoint Not Met Time [hr] !RunPeriod [Value,Min,Month,Day,Hour,Minute,Max,Month,Day,Hour,Minute]
1184,11,HEATING_RESISTANCE_BACKUP,Heating Coil Heating Energy [J] !RunPeriod [Value,Min,Month,Day,Hour,Minute,Max,Month,Day,Hour,Minute]
1185,11,HEATING_RESISTANCE_BACKUP,Heating Coil Electricity Energy [J] !RunPeriod [Value,Min,Month,Day,Hour,Minute,Max,Month,Day,Hour,Minute]
1334,11,WATER HEATER TANK,Water Heater Heating Energy [J] !RunPeriod [Value,Min,Month,Day,Hour,Minute,Max,Month,Day,Hour,Minute]
13,11,Electricity:Facility [J] !RunPeriod [Value,Min,Month,Day,Hour,Minute,Max,Month,Day,Hour,Minute]
637,11,Heating:Electricity [J] !RunPeriod [Value,Min,Month,Day,Hour,Minute,Max,Month,Day,Hour,Minute]
599,11,Cooling:Electricity [J] !RunPeriod [Value,Min,Month,Day,Hour,Minute,Max,Month,Day,Hour,Minute]
692,11,Fans:Electricity [J] !RunPeriod [Value,Min,Month,Day,Hour,Minute,Max,Month,Day,Hour,Minute]
1372,11,Pumps:Electricity [J] !RunPeriod [Value,Min,Month,Day,Hour,Minute,Max,Month,Day,Hour,Minute]
677,11,WaterSystems:Electricity [J] !RunPeriod [Value,Min,Month,Day,Hour,Minute,Max,Month,Day,Hour,Minute]
61,11,InteriorLights:Electricity [J] !RunPeriod [Value,Min,Month,Day,Hour,Minute,Max,Month,Day,Hour,Minute]
1165,11,ExteriorLights:Electricity [J] !RunPeriod [Value,Min,Month,Day,Hour,Minute,Max,Month,Day,Hour,Minute]
134,11,InteriorEquipment:Electricity [J] !RunPeriod [Value,Min,Month,Day,Hour,Minute,Max,Month,Day,Hour,Minute]
170,11,gas_dryer:InteriorEquipment:Electricity [J] !RunPeriod [Value,Min,Month,Day,Hour,Minute,Max,Month,Day,Hour,Minute]
207,11,clotheswasher:InteriorEquipment:Electricity [J] !RunPeriod [Value,Min,Month,Day,Hour,Minute,Max,Month,Day,Hour,Minute]
244,11,dishwasher:InteriorEquipment:Electricity [J] !RunPeriod [Value,Min,Month,Day,Hour,Minute,Max,Month,Day,Hour,Minute]
281,11,refrigerator:InteriorEquipment:Electricity [J] !RunPeriod [Value,Min,Month,Day,Hour,Minute,Max,Month,Day,Hour,Minute]
318,11,electric_mels:InteriorEquipment:Electricity [J] !RunPeriod [Value,Min,Month,Day,Hour,Minute,Max,Month,Day,Hour,Minute]
355,11,NaturalGas:Facility [J] !RunPeriod [Value,Min,Month,Day,Hour,Minute,Max,Month,Day,Hour,Minute]
403,11,InteriorEquipment:NaturalGas [J] !RunPeriod [Value,Min,Month,Day,Hour,Minute,Max,Month,Day,Hour,Minute]
476,11,gas_dryer:InteriorEquipment:NaturalGas [J] !RunPeriod [Value,Min,Month,Day,Hour,Minute,Max,Month,Day,Hour,Minute]
513,11,gas_mels:InteriorEquipment:NaturalGas [J] !RunPeriod [Value,Min,Month,Day,Hour,Minute,Max,Month,Day,Hour,Minute]
End of Data Dictionary
1,EXTREME_WINTER,  41.78, -87.75,  -6.00, 190.00
5,7
1157,6.75,0.0, 1,20, 1,15,0.25, 1,20, 6,15
1158,0.0,0.0, 1,20, 1,15,0.0, 1,20, 1,15
618,2438843410.0303283,0.0, 1,20,23, 5,4672299.504953667, 1,22, 7,60
631,871191663.7872117,0.0, 1,20,23, 5,1419939.4953730444, 1,26,20,15
656,12051837.614768177,0.0, 1,20,23, 5,97393.83619281414, 1,22, 5,60
657,4435851.560598702,0.0, 1,20, 1, 3,93905.45342503935, 1,21,17,15
684,384707366.69082856,0.0, 1,20, 1, 3,1460255.759365151, 1,26,21,15
685,87030522.30479427,0.0, 1,20, 1, 3,339516.54138698406, 1,26,24,60
712,0.35908755410988363,0.24705421045589782, 1,26,23,30,0.5808390969573657, 1,26,15,52
713,5.149527612597455,0.033889234250006464, 1,21, 5,52,13.388059830357388, 1,26,15,52
714,6.0116520342391455,0.7032996549178062, 1,21, 5,35,15.786678239569557, 1,26,15,52
1184,1716672400.932304,0.0, 1,20,15,37,6572832.854215586, 1,24, 6,30
1185,1716672400.932304,0.0, 1,20,15,37,6572832.854215586, 1,24, 6,30
1334,8991808.254231514,0.0, 1,20, 1, 3,2025000.0000000005, 1,21,11,22
13,3191939893.8912225,1192634.1812883203, 1,21,16,15,11508560.722873807, 1,24,10,15
61,301924526.02383536,88139.10953165221, 1,20, 1,15,1282023.4113694867, 1,20,20,15
134,70666020.44019976,63564.01800854099, 1,20, 4,15,156554.22484006523, 1,25,20,15
170,5241013.419656067,348.4159749238097, 1,20, 4,15,17476.39704006126, 1,25,12,15
207,6509451.13922267,815.2532113832032, 1,20, 3,15,22990.642799023623, 1,25,10,15
244,12749673.399825225,1521.856143006317, 1,20, 4,15,53038.631142310165, 1,25,20,15
281,46165882.481495745,59938.60262432081, 1,20, 5,15,81951.81706819107, 1,20,19,15
318,0.0,0.0, 1,20, 1,15,0.0, 1,20, 1,15
355,197687796.27748066,18561.32405820678, 1,20, 4,15,724774.895203776, 1,25,18,15
403,197687796.27748066,18561.32405820678, 1,20, 4,15,724774.895203776, 1,25,18,15
476,106772067.24485716,7098.072629279515, 1,20, 4,15,356036.3026282215, 1,25,12,15
513,0.0,0.0, 1,20, 1,15,0.0, 1,20, 1,15
599,0.0,0.0, 1,20, 1,15,0.0, 1,20, 1,15
637,2604351753.8948812,733644.1787266384, 1,21,16,15,7870939.786739286, 1,25, 9,60
677,101163130.55902581,7650.0, 1,20, 1,15,3208988.270307582, 1,24,10,15
692,113834462.97327596,59148.10185023315, 1,21,17,45,216477.7777326156, 1,20,11,45
1165,0.0,0.0, 1,20, 1,15,0.0, 1,20, 1,15
1372,0.0,0.0, 1,20, 1,15,0.0, 1,20, 1,15
1,EXTREME_SUMMER,  41.78, -87.75,  -6.00, 190.00
5,7
1157,0.0,0.0, 7,27, 1,15,0.0, 7,27, 1,15
1158,10.75,0.0, 7,27, 1,15,0.25, 7,28,14,60
618,0.0,0.0, 7,27, 1,15,0.0, 7,27, 1,15
631,0.0,0.0, 7,27, 1,15,0.0, 7,27, 1,15
656,0.0,0.0, 7,27, 1,15,0.0, 7,27, 1,15
657,0.0,0.0, 7,27, 1,15,0.0, 7,27, 1,15
684,293861686.0035829,0.0, 7,27, 1,15,1868330.620882215, 8, 2,21,15
685,58163948.800384946,0.0, 7,27, 1,15,385480.8080237924, 8, 2,22,60
712,0.17469924047527258,0.0, 7,27, 1,45,0.9620399282006596, 8, 2,23,48
713,6.11897770453515,0.13811205047783445, 7,27, 1,60,18.919487850514326, 8, 2,23,48
714,6.361431195382093,0.0739237242753696, 7,27, 4,60,23.88362787978058, 8, 2,23,33
1184,0.0,0.0, 7,27, 1,15,0.0, 7,27, 1,15
1185,0.0,0.0, 7,27, 1,15,0.0, 7,27, 1,15
1334,0.0,0.0, 7,27, 1,15,0.0, 7,27, 1,15
13,1038063180.4904776,239028.74892790706, 8, 1, 4,60,3524419.461841065, 8, 2,20,60
61,301924526.02383536,88139.10953165221, 7,27, 1,15,1282023.4113694867, 7,27,20,15
134,70666020.44019976,63564.01800854099, 7,27, 4,15,156554.22484006523, 8, 1,20,15
170,5241013.419656067,348.4159749238097, 7,27, 4,15,17476.39704006126, 8, 1,12,15
207,6509451.13922267,815.2532113832032, 7,27, 3,15,22990.642799023623, 8, 1,10,15
244,12749673.399825225,1521.856143006317, 7,27, 4,15,53038.631142310165, 8, 1,20,15
281,46165882.481495745,59938.60262432081, 7,27, 5,15,81951.81706819107, 7,27,19,15
318,0.0,0.0, 7,27, 1,15,0.0, 7,27, 1,15
355,197687796.27748066,18561.32405820678, 7,27, 4,15,724774.895203776, 8, 1,18,15
403,197687796.27748066,18561.32405820678, 7,27, 4,15,724774.895203776, 8, 1,18,15
476,106772067.24485716,7098.072629279515, 7,27, 4,15,356036.3026282215, 8, 1,12,15
513,0.0,0.0, 7,27, 1,15,0.0, 7,27, 1,15
599,538502543.4208944,0.0, 8, 1,23,15,1677367.9305779948, 8, 2,13,60
637,0.0,0.0, 7,27, 1,15,0.0, 7,27, 1,15
677,63304748.800384924,7650.0, 7,27, 1,15,393130.8080237924, 8, 2,22,60
692,63665341.80516225,7788.721734370766, 8, 1, 4,60,216477.77773261553, 8, 2,19,60
1165,0.0,0.0, 7,27, 1,15,0.0, 7,27, 1,15
1372,0.0,0.0, 7,27, 1,15,0.0, 7,27, 1,15
1,ANNUAL,  41.78, -87.75,  -6.00, 190.00
5,365
1157,57.5,0.0, 1, 1, 1,15,0.25, 1, 2, 6,15
1158,107.5,0.0, 1, 1, 1,15,0.25, 5,23,16,30
618,39397033008.19118,0.0, 1, 2,23, 5,5191510.19868917, 2,20, 9,15
631,12334398632.808798,0.0, 1, 2,23, 5,1500774.2926002094, 3, 4, 6,60
656,350375950.70161855,0.0, 1, 2,23, 5,166696.71860639498, 4, 3, 9,45
657,1240305253.792918,0.0, 1, 1, 1, 1,180000.0, 1, 9,14,60
684,17944550338.68649,0.0, 1, 1, 1, 1,2001592.444400267,10,13,10,15
685,3680527437.0992093,0.0, 1, 1, 1, 1,392329.69611440704,10,13,21,60
712,0.26600316365893584,0.0, 5,26, 1,45,1.8038022754023892, 2, 1,21,50
713,5.321148109726998,0.0, 1,27, 3,60,40.595192020239715, 2, 1,21,50
714,6.014223063511407,0.0, 6, 4,23, 7,51.5213329761716, 2, 1,21,50
1184,10737447481.900368,0.0, 1, 1, 6,10,6572832.854215586, 1,19, 6,15
1185,10737447481.900368,0.0, 1, 1, 6,10,6572832.854215586, 1,19, 6,15
1334,132009399.61662005,0.0, 1, 1, 1, 1,3393264.580486418, 3,28,11,30
13,58087942928.46035,159353.1275401932, 3, 6, 4,15,11806289.147907974, 1,24,11,15
61,15743207428.383959,88139.10953165221, 1, 1, 1,15,1282023.4113694867, 1, 1,20,15
134,3685071073.4325233,63564.01800854099, 1, 2, 4,15,156554.22484006523, 1, 1,20,15
170,273393721.45532674,348.4159749238097, 1, 2, 4,15,17476.39704006126, 1, 1,12,15
207,339560869.0695816,815.2532113832032, 1, 2, 3,15,22990.642799023623, 1, 1,10,15
244,664895467.8009144,1521.856143006317, 1, 2, 4,15,53038.631142310165, 1, 1,20,15
281,2407221015.106824,59938.60262432081, 1, 1, 5,15,81951.81706819107, 1, 1,19,15
318,0.0,0.0, 1, 1, 1,15,0.0, 1, 1, 1,15
355,10310294493.051695,18561.32405820678, 1, 2, 4,15,724774.895203776, 1, 1,18,15
403,10310294493.051695,18561.32405820678, 1, 2, 4,15,724774.895203776, 1, 1,18,15
476,5569688622.066177,7098.072629279515, 1, 2, 4,15,356036.3026282215, 1, 1,12,15
513,0.0,0.0, 1, 1, 1,15,0.0, 1, 1, 1,15
599,7072729733.66979,0.0, 1, 1, 1,15,1721956.6979982806, 6, 7,16,30
637,24662527319.203682,0.0, 1, 6,15,60,7962465.52955763, 2, 1,20,45
677,4080592836.715832,7650.0, 1, 1, 1,15,4109428.067426346, 3, 3,10,15
692,2843814537.0530496,0.0, 1, 6,15,60,216477.7777326156, 1,23,12,30
1165,0.0,0.0, 1, 1, 1,15,0.0, 1, 1, 1,15
1372,0.0,0.0, 1, 1, 1,15,0.0, 1, 1, 1,15
End of Data
 Number of Records Written=          96
