Program Version,EnergyPlus, Version 22.2.0-c249759bad, YMD=2023.09.01 18:17
1,5,Environment Title[],Latitude[deg],Longitude[deg],Time Zone[],Elevation[m]
2,8,Day of Simulation[],Month[],Day of Month[],DST Indicator[1=yes 0=no],Hour[],StartMinute[],EndMinute[],DayType
3,5,Cumulative Day of Simulation[],Month[],Day of Month[],DST Indicator[1=yes 0=no],DayType  ! When Daily Report Variables Requested
4,2,Cumulative Days of Simulation[],Month[]  ! When Monthly Report Variables Requested
5,1,Cumulative Days of Simulation[] ! When Run Period Report Variables Requested
6,1,Calendar Year of Simulation[] ! When Annual Report Variables Requested
581,11,LIVING,AFN Zone Infiltration Air Change Rate [ach] !RunPeriod [Value,Min,Month,Day,Hour,Minute,Max,Month,Day,Hour,Minute]
582,11,ATTIC,AFN Zone Infiltration Air Change Rate [ach] !RunPeriod [Value,Min,Month,Day,Hour,Minute,Max,Month,Day,Hour,Minute]
583,11,CRAWLSPACE,AFN Zone Infiltration Air Change Rate [ach] !RunPeriod [Value,Min,Month,Day,Hour,Minute,Max,Month,Day,Hour,Minute]
1038,11,Facility,Facility Heating Setpoint Not Met Time [hr] !RunPeriod [Value,Min,Month,Day,Hour,Minute,Max,Month,Day,Hour,Minute]
1039,11,Facility,Facility Cooling Setpoint Not Met Time [hr] !RunPeriod [Value,Min,Month,Day,Hour,Minute,Max,Month,Day,Hour,Minute]
1115,11,DX_HEATING_COIL,Heating Coil Heating Energy [J] !RunPeriod [Value,Min,Month,Day,Hour,Minute,Max,Month,Day,Hour,Minute]
1128,11,DX_HEATING_COIL,Heating Coil Electricity Energy [J] !RunPeriod [Value,Min,Month,Day,Hour,Minute,Max,Month,Day,Hour,Minute]
1153,11,DX_HEATING_COIL,Heating Coil Defrost Electricity Energy [J] !RunPeriod [Value,Min,Month,Day,Hour,Minute,Max,Month,Day,Hour,Minute]
1154,11,DX_HEATING_COIL,Heating Coil Crankcase Heater Electricity Energy [J] !RunPeriod [Value,Min,Month,Day,Hour,Minute,Max,Month,Day,Hour,Minute]
1155,11,HEATING_RESISTANCE_BACKUP,Heating Coil Heating Energy [J] !RunPeriod [Value,Min,Month,Day,Hour,Minute,Max,Month,Day,Hour,Minute]
1156,11,HEATING_RESISTANCE_BACKUP,Heating Coil Electricity Energy [J] !RunPeriod [Value,Min,Month,Day,Hour,Minute,Max,Month,Day,Hour,Minute]
1292,11,WATER HEATER,Water Heater Heat Loss Energy [J] !RunPeriod [Value,Min,Month,Day,Hour,Minute,Max,Month,Day,Hour,Minute]
1306,11,WATER HEATER,Water Heater Heating Energy [J] !RunPeriod [Value,Min,Month,Day,Hour,Minute,Max,Month,Day,Hour,Minute]
1307,11,WATER HEATER,Water Heater Unmet Demand Heat Transfer Energy [J] !RunPeriod [Value,Min,Month,Day,Hour,Minute,Max,Month,Day,Hour,Minute]
1308,11,WATER HEATER,Water Heater Electricity Energy [J] !RunPeriod [Value,Min,Month,Day,Hour,Minute,Max,Month,Day,Hour,Minute]
13,11,Electricity:Facility [J] !RunPeriod [Value,Min,Month,Day,Hour,Minute,Max,Month,Day,Hour,Minute]
1134,11,Heating:Electricity [J] !RunPeriod [Value,Min,Month,Day,Hour,Minute,Max,Month,Day,Hour,Minute]
1096,11,Cooling:Electricity [J] !RunPeriod [Value,Min,Month,Day,Hour,Minute,Max,Month,Day,Hour,Minute]
562,11,Fans:Electricity [J] !RunPeriod [Value,Min,Month,Day,Hour,Minute,Max,Month,Day,Hour,Minute]
1379,11,Pumps:Electricity [J] !RunPeriod [Value,Min,Month,Day,Hour,Minute,Max,Month,Day,Hour,Minute]
1326,11,WaterSystems:Electricity [J] !RunPeriod [Value,Min,Month,Day,Hour,Minute,Max,Month,Day,Hour,Minute]
61,11,InteriorLights:Electricity [J] !RunPeriod [Value,Min,Month,Day,Hour,Minute,Max,Month,Day,Hour,Minute]
1046,11,ExteriorLights:Electricity [J] !RunPeriod [Value,Min,Month,Day,Hour,Minute,Max,Month,Day,Hour,Minute]
134,11,InteriorEquipment:Electricity [J] !RunPeriod [Value,Min,Month,Day,Hour,Minute,Max,Month,Day,Hour,Minute]
170,11,gas_dryer:InteriorEquipment:Electricity [J] !RunPeriod [Value,Min,Month,Day,Hour,Minute,Max,Month,Day,Hour,Minute]
207,11,clotheswasher:InteriorEquipment:Electricity [J] !RunPeriod [Value,Min,Month,Day,Hour,Minute,Max,Month,Day,Hour,Minute]
244,11,dishwasher:InteriorEquipment:Electricity [J] !RunPeriod [Value,Min,Month,Day,Hour,Minute,Max,Month,Day,Hour,Minute]
281,11,refrigerator:InteriorEquipment:Electricity [J] !RunPeriod [Value,Min,Month,Day,Hour,Minute,Max,Month,Day,Hour,Minute]
318,11,electric_mels:InteriorEquipment:Electricity [J] !RunPeriod [Value,Min,Month,Day,Hour,Minute,Max,Month,Day,Hour,Minute]
355,11,NaturalGas:Facility [J] !RunPeriod [Value,Min,Month,Day,Hour,Minute,Max,Month,Day,Hour,Minute]
403,11,InteriorEquipment:NaturalGas [J] !RunPeriod [Value,Min,Month,Day,Hour,Minute,Max,Month,Day,Hour,Minute]
476,11,gas_dryer:InteriorEquipment:NaturalGas [J] !RunPeriod [Value,Min,Month,Day,Hour,Minute,Max,Month,Day,Hour,Minute]
513,11,gas_mels:InteriorEquipment:NaturalGas [J] !RunPeriod [Value,Min,Month,Day,Hour,Minute,Max,Month,Day,Hour,Minute]
End of Data Dictionary
1,EXTREME_WINTER,  29.54, -98.48,  -6.00, 240.50
5,7
1038,0.25,0.0, 1,29, 1,15,0.25, 2, 2, 6,15
1039,0.0,0.0, 1,29, 1,15,0.0, 1,29, 1,15
581,0.4364090986391462,0.10524809062351305, 1,31, 8,48,0.925966141913231, 1,29,18,50
582,6.335237624483601,0.0, 2, 4,23,52,18.672183643395343, 1,29,18,47
583,0.03832760221982078,0.00032274223878915386, 2, 4,24, 5,0.09537352630018178, 2, 2, 6,15
1115,1040344494.7547116,0.0, 1,29, 1, 7,4510625.92872638, 2, 3,12,30
1128,347199822.2909022,0.0, 1,29, 1, 7,1492325.3937884811, 2, 3,10,60
1153,4115177.2595181703,0.0, 1,29, 1, 7,64116.92985240435, 2, 1, 7,60
1154,36689394.264362745,0.0, 1,29, 1, 7,180000.0, 1,30,24,15
1155,139488527.27641675,0.0, 1,29, 1, 7,3244888.3976011225, 2, 2, 6,45
1156,139488527.27641675,0.0, 1,29, 1, 7,3244888.3976011225, 2, 2, 6,45
1292,-24215271.3106291,-39751.19779542259, 2, 3, 5,60,-4474.696833737019, 2, 4,14,60
1306,186795811.24463415,0.0, 1,29, 1, 7,3907419.768613325, 2, 3, 9,45
1307,21216144.980614617,0.0, 1,29, 1, 7,3036621.18212797, 2, 4,19,55
1308,186795811.24463415,0.0, 1,29, 1, 7,3907419.768613325, 2, 3, 9,45
13,1177896882.4671385,151703.1275401932, 1,29, 4,15,8622071.535235686, 2, 2, 6,60
61,301924526.02383536,88139.10953165221, 1,29, 1,15,1282023.4113694867, 1,29,20,15
134,70666020.44019976,63564.01800854099, 1,29, 4,15,156554.22484006523, 2, 3,20,15
170,5241013.419656067,348.4159749238097, 1,29, 4,15,17476.39704006126, 2, 3,12,15
207,6509451.13922267,815.2532113832032, 1,29, 3,15,22990.642799023623, 2, 3,10,15
244,12749673.399825225,1521.856143006317, 1,29, 4,15,53038.631142310165, 2, 3,20,15
281,46165882.481495745,59938.60262432081, 1,29, 5,15,81951.81706819107, 1,29,19,15
318,0.0,0.0, 1,29, 1,15,0.0, 1,29, 1,15
355,197687796.27748066,18561.32405820678, 1,29, 4,15,724774.895203776, 2, 3,18,15
403,197687796.27748066,18561.32405820678, 1,29, 4,15,724774.895203776, 2, 3,18,15
476,106772067.24485716,7098.072629279515, 1,29, 4,15,356036.3026282215, 2, 3,12,15
513,0.0,0.0, 1,29, 1,15,0.0, 1,29, 1,15
562,43102469.689952135,0.0, 1,29, 1,15,156312.12401883258, 2, 2, 1,30
1046,0.0,0.0, 1,29, 1,15,0.0, 1,29, 1,15
1096,47915133.97731782,0.0, 1,29, 1,15,1133285.5856433664, 1,29,17,15
1134,527492921.0912002,0.0, 1,29, 1,15,5407139.04699355, 2, 2, 6,15
1326,186795811.24463415,0.0, 1,29, 1,15,4050000.0, 1,30,20,30
1379,0.0,0.0, 1,29, 1,15,0.0, 1,29, 1,15
1,EXTREME_SUMMER,  29.54, -98.48,  -6.00, 240.50
5,7
1038,0.0,0.0, 8, 5, 1,15,0.0, 8, 5, 1,15
1039,57.75,0.0, 8, 5, 1,15,0.25, 8, 5,14,60
581,0.22373281329605882,0.0, 8,11, 8,47,0.7133412939075904, 8, 6,19,48
582,4.75896984893049,0.12418159949837056, 8,11, 9,18,15.354407028398501, 8, 6,19,48
583,0.05772638365416662,0.002962956476226865, 8,10,23, 3,0.0917190750182481, 8, 6,20,18
1115,0.0,0.0, 8, 5, 1,15,0.0, 8, 5, 1,15
1128,0.0,0.0, 8, 5, 1,15,0.0, 8, 5, 1,15
1153,0.0,0.0, 8, 5, 1,15,0.0, 8, 5, 1,15
1154,0.0,0.0, 8, 5, 1,15,0.0, 8, 5, 1,15
1155,0.0,0.0, 8, 5, 1,15,0.0, 8, 5, 1,15
1156,0.0,0.0, 8, 5, 1,15,0.0, 8, 5, 1,15
1292,-21693304.688077983,-34337.81440624557, 8, 8, 7,30,-3042.408685847409, 8,11, 9,45
1306,128041548.99750945,0.0, 8, 5, 1,15,4050000.0, 8, 9, 6,60
1307,6164373.928849616,0.0, 8, 5, 1,15,780263.4612326173, 8,11,19,50
1308,128041548.99750945,0.0, 8, 5, 1,15,4050000.0, 8, 9, 6,60
13,1322742470.9779832,453338.1098267996, 8,11, 4,60,7258782.4942432605, 8,11,20,15
61,301924526.02383536,88139.10953165221, 8, 5, 1,15,1282023.4113694867, 8, 5,20,15
134,70666020.44019976,63564.01800854099, 8, 5, 4,15,156554.22484006523, 8,10,20,15
170,5241013.419656067,348.4159749238097, 8, 5, 4,15,17476.39704006126, 8,10,12,15
207,6509451.13922267,815.2532113832032, 8, 5, 3,15,22990.642799023623, 8,10,10,15
244,12749673.399825225,1521.856143006317, 8, 5, 4,15,53038.631142310165, 8,10,20,15
281,46165882.481495745,59938.60262432081, 8, 5, 5,15,81951.81706819107, 8, 5,19,15
318,0.0,0.0, 8, 5, 1,15,0.0, 8, 5, 1,15
355,197687796.27748066,18561.32405820678, 8, 5, 4,15,724774.895203776, 8,10,18,15
403,197687796.27748066,18561.32405820678, 8, 5, 4,15,724774.895203776, 8,10,18,15
476,106772067.24485716,7098.072629279515, 8, 5, 4,15,356036.3026282215, 8,10,12,15
513,0.0,0.0, 8, 5, 1,15,0.0, 8, 5, 1,15
562,72918796.70427555,29860.138531658336, 8,11, 5,60,156312.1240188326, 8, 5,16,30
1046,0.0,0.0, 8, 5, 1,15,0.0, 8, 5, 1,15
1096,749191578.8121637,267333.86678338057, 8,11, 5,60,1827459.4511914782, 8,11,16,60
1134,0.0,0.0, 8, 5, 1,15,0.0, 8, 5, 1,15
1326,128041548.99750942,0.0, 8, 5, 1,15,4050000.0, 8, 9, 6,60
1379,0.0,0.0, 8, 5, 1,15,0.0, 8, 5, 1,15
1,ANNUAL,  29.54, -98.48,  -6.00, 240.50
5,365
1038,0.0,0.0, 1, 1, 1,15,0.0, 1, 1, 1,15
1039,986.75,0.0, 1, 1, 1,15,0.25, 1, 9,18,15
581,0.22975203706732947,0.0, 5,16, 6,11,1.0788400641299019, 9,25,15,46
582,4.259889540324963,0.0, 1, 2,22,52,24.422013111531005, 5,12,19,48
583,0.03739060608125823,0.0, 5,16,23, 3,0.10815847164706235, 9,25,15,46
1115,3089514922.5490785,0.0, 1, 1, 1, 7,4543720.221717408, 2,10, 8,45
1128,983633507.4192184,0.0, 1, 1, 1, 7,1504273.3435678591, 2,10, 8,45
1153,25338011.989420127,0.0, 1, 1, 1, 7,87530.92231949259, 1, 6, 6,60
1154,604751653.497299,0.0, 1, 1, 1,20,180000.0, 1, 1,20,60
1155,145589950.09007278,0.0, 1, 1, 1, 7,3064147.0414161836, 2, 2, 6,45
1156,145589950.09007278,0.0, 1, 1, 1, 7,3064147.0414161836, 2, 2, 6,45
1292,-1167120081.1161432,-39785.48645188094, 1, 6, 5,60,-2144.841552926523, 5,15,14,18
1306,8243567740.325402,0.0, 1, 1, 1, 7,4050000.0, 1, 1, 9,60
1307,677734736.9118145,0.0, 1, 1, 1, 7,8397567.780376868, 1, 8,19,60
1308,8243567740.325402,0.0, 1, 1, 1, 7,4050000.0, 1, 1, 9,60
13,52231007341.42235,151703.1275401932, 1, 9, 4,15,8690511.15929411, 2, 2, 7,15
61,15743207428.383959,88139.10953165221, 1, 1, 1,15,1282023.4113694867, 1, 1,20,15
134,3685071073.4325233,63564.01800854099, 1, 2, 4,15,156554.22484006523, 1, 1,20,15
170,273393721.45532674,348.4159749238097, 1, 2, 4,15,17476.39704006126, 1, 1,12,15
207,339560869.0695816,815.2532113832032, 1, 2, 3,15,22990.642799023623, 1, 1,10,15
244,664895467.8009144,1521.856143006317, 1, 2, 4,15,53038.631142310165, 1, 1,20,15
281,2407221015.106824,59938.60262432081, 1, 1, 5,15,81951.81706819107, 1, 1,19,15
318,0.0,0.0, 1, 1, 1,15,0.0, 1, 1, 1,15
355,10310294493.051695,18561.32405820678, 1, 2, 4,15,724774.895203776, 1, 1,18,15
403,10310294493.051695,18561.32405820678, 1, 2, 4,15,724774.895203776, 1, 1,18,15
476,5569688622.066177,7098.072629279515, 1, 2, 4,15,356036.3026282215, 1, 1,12,15
513,0.0,0.0, 1, 1, 1,15,0.0, 1, 1, 1,15
562,2322136418.8303766,0.0, 1, 1, 1,15,156312.1240188326, 4, 4,16,45
1046,0.0,0.0, 1, 1, 1,15,0.0, 1, 1, 1,15
1096,20477711557.452637,0.0, 1, 1, 1,15,1831339.53504826, 8,11,16,60
1134,1759313122.9960132,0.0, 1, 1, 1,30,5230144.300649114, 2, 2, 6,15
1326,8243567740.325395,0.0, 1, 1, 1,15,4050000.0, 1, 1, 9,60
1379,0.0,0.0, 1, 1, 1,15,0.0, 1, 1, 1,15
End of Data
 Number of Records Written=          99
