Program Version,EnergyPlus, Version 22.2.0-c249759bad, YMD=2023.09.01 20:46
1,5,Environment Title[],Latitude[deg],Longitude[deg],Time Zone[],Elevation[m]
2,8,Day of Simulation[],Month[],Day of Month[],DST Indicator[1=yes 0=no],Hour[],StartMinute[],EndMinute[],DayType
3,5,Cumulative Day of Simulation[],Month[],Day of Month[],DST Indicator[1=yes 0=no],DayType  ! When Daily Report Variables Requested
4,2,Cumulative Days of Simulation[],Month[]  ! When Monthly Report Variables Requested
5,1,Cumulative Days of Simulation[] ! When Run Period Report Variables Requested
6,1,Calendar Year of Simulation[] ! When Annual Report Variables Requested
581,11,LIVING,AFN Zone Infiltration Air Change Rate [ach] !RunPeriod [Value,Min,Month,Day,Hour,Minute,Max,Month,Day,Hour,Minute]
582,11,ATTIC,AFN Zone Infiltration Air Change Rate [ach] !RunPeriod [Value,Min,Month,Day,Hour,Minute,Max,Month,Day,Hour,Minute]
583,11,CRAWLSPACE,AFN Zone Infiltration Air Change Rate [ach] !RunPeriod [Value,Min,Month,Day,Hour,Minute,Max,Month,Day,Hour,Minute]
1038,11,Facility,Facility Heating Setpoint Not Met Time [hr] !RunPeriod [Value,Min,Month,Day,Hour,Minute,Max,Month,Day,Hour,Minute]
1039,11,Facility,Facility Cooling Setpoint Not Met Time [hr] !RunPeriod [Value,Min,Month,Day,Hour,Minute,Max,Month,Day,Hour,Minute]
1115,11,DX_HEATING_COIL,Heating Coil Heating Energy [J] !RunPeriod [Value,Min,Month,Day,Hour,Minute,Max,Month,Day,Hour,Minute]
1128,11,DX_HEATING_COIL,Heating Coil Electricity Energy [J] !RunPeriod [Value,Min,Month,Day,Hour,Minute,Max,Month,Day,Hour,Minute]
1153,11,DX_HEATING_COIL,Heating Coil Defrost Electricity Energy [J] !RunPeriod [Value,Min,Month,Day,Hour,Minute,Max,Month,Day,Hour,Minute]
1154,11,DX_HEATING_COIL,Heating Coil Crankcase Heater Electricity Energy [J] !RunPeriod [Value,Min,Month,Day,Hour,Minute,Max,Month,Day,Hour,Minute]
1155,11,HEATING_RESISTANCE_BACKUP,Heating Coil Heating Energy [J] !RunPeriod [Value,Min,Month,Day,Hour,Minute,Max,Month,Day,Hour,Minute]
1156,11,HEATING_RESISTANCE_BACKUP,Heating Coil Electricity Energy [J] !RunPeriod [Value,Min,Month,Day,Hour,Minute,Max,Month,Day,Hour,Minute]
1292,11,WATER HEATER,Water Heater Heat Loss Energy [J] !RunPeriod [Value,Min,Month,Day,Hour,Minute,Max,Month,Day,Hour,Minute]
1306,11,WATER HEATER,Water Heater Heating Energy [J] !RunPeriod [Value,Min,Month,Day,Hour,Minute,Max,Month,Day,Hour,Minute]
1307,11,WATER HEATER,Water Heater Unmet Demand Heat Transfer Energy [J] !RunPeriod [Value,Min,Month,Day,Hour,Minute,Max,Month,Day,Hour,Minute]
1308,11,WATER HEATER,Water Heater Electricity Energy [J] !RunPeriod [Value,Min,Month,Day,Hour,Minute,Max,Month,Day,Hour,Minute]
13,11,Electricity:Facility [J] !RunPeriod [Value,Min,Month,Day,Hour,Minute,Max,Month,Day,Hour,Minute]
1134,11,Heating:Electricity [J] !RunPeriod [Value,Min,Month,Day,Hour,Minute,Max,Month,Day,Hour,Minute]
1096,11,Cooling:Electricity [J] !RunPeriod [Value,Min,Month,Day,Hour,Minute,Max,Month,Day,Hour,Minute]
562,11,Fans:Electricity [J] !RunPeriod [Value,Min,Month,Day,Hour,Minute,Max,Month,Day,Hour,Minute]
1379,11,Pumps:Electricity [J] !RunPeriod [Value,Min,Month,Day,Hour,Minute,Max,Month,Day,Hour,Minute]
1326,11,WaterSystems:Electricity [J] !RunPeriod [Value,Min,Month,Day,Hour,Minute,Max,Month,Day,Hour,Minute]
61,11,InteriorLights:Electricity [J] !RunPeriod [Value,Min,Month,Day,Hour,Minute,Max,Month,Day,Hour,Minute]
1046,11,ExteriorLights:Electricity [J] !RunPeriod [Value,Min,Month,Day,Hour,Minute,Max,Month,Day,Hour,Minute]
134,11,InteriorEquipment:Electricity [J] !RunPeriod [Value,Min,Month,Day,Hour,Minute,Max,Month,Day,Hour,Minute]
170,11,gas_dryer:InteriorEquipment:Electricity [J] !RunPeriod [Value,Min,Month,Day,Hour,Minute,Max,Month,Day,Hour,Minute]
207,11,clotheswasher:InteriorEquipment:Electricity [J] !RunPeriod [Value,Min,Month,Day,Hour,Minute,Max,Month,Day,Hour,Minute]
244,11,dishwasher:InteriorEquipment:Electricity [J] !RunPeriod [Value,Min,Month,Day,Hour,Minute,Max,Month,Day,Hour,Minute]
281,11,refrigerator:InteriorEquipment:Electricity [J] !RunPeriod [Value,Min,Month,Day,Hour,Minute,Max,Month,Day,Hour,Minute]
318,11,electric_mels:InteriorEquipment:Electricity [J] !RunPeriod [Value,Min,Month,Day,Hour,Minute,Max,Month,Day,Hour,Minute]
355,11,NaturalGas:Facility [J] !RunPeriod [Value,Min,Month,Day,Hour,Minute,Max,Month,Day,Hour,Minute]
403,11,InteriorEquipment:NaturalGas [J] !RunPeriod [Value,Min,Month,Day,Hour,Minute,Max,Month,Day,Hour,Minute]
476,11,gas_dryer:InteriorEquipment:NaturalGas [J] !RunPeriod [Value,Min,Month,Day,Hour,Minute,Max,Month,Day,Hour,Minute]
513,11,gas_mels:InteriorEquipment:NaturalGas [J] !RunPeriod [Value,Min,Month,Day,Hour,Minute,Max,Month,Day,Hour,Minute]
End of Data Dictionary
1,EXTREME_WINTER,  36.12, -86.69,  -6.00, 182.90
5,7
1038,0.75,0.0, 1,27, 1,15,0.25, 1,29, 6,15
1039,0.0,0.0, 1,27, 1,15,0.0, 1,27, 1,15
581,0.3345934450454702,0.1686571962823983, 2, 2,23,30,0.599702221682589, 1,28,14,52
582,3.843359848100666,0.0, 2, 1,20,37,13.845956345695036, 1,28,14,52
583,0.031263945152863314,0.0003148883196458796, 2, 2,23,15,0.07493940544764971, 2, 1, 1,60
1115,1047333914.4630935,0.0, 1,27, 1,15,4052228.5881962646, 1,30, 6,45
1128,352642028.69333744,0.0, 1,27, 1,15,1275977.11926748, 1,28, 9,30
1153,3034986.668663102,0.0, 1,27, 1,15,74266.89299528742, 2, 2, 9,60
1154,63324155.73438189,0.0, 1,27, 6, 5,180000.0, 1,27, 1,15
1155,183799203.6516257,0.0, 1,27, 1,15,3394164.5768152233, 1,31, 6,45
1156,183799203.6516257,0.0, 1,27, 1,15,3394164.5768152233, 1,31, 6,45
1292,-25007288.62970454,-39732.58783508585, 1,31,24,45,-5377.514366831794, 1,31,12,45
1306,243612514.3736574,0.0, 1,27, 1,15,4050000.0, 1,27, 8,45
1307,74461902.82822654,0.0, 1,27, 1,15,12412527.037031371, 1,27, 8,30
1308,243612514.3736574,0.0, 1,27, 1,15,4050000.0, 1,27, 8,45
13,1256559262.5943108,272017.0388981225, 1,27,15,15,8579084.876759347, 1,31, 7,45
61,301924526.02383536,88139.10953165221, 1,27, 1,15,1282023.4113694867, 1,27,20,15
134,70666020.44019976,63564.01800854099, 1,27, 4,15,156554.22484006523, 2, 1,20,15
170,5241013.419656067,348.4159749238097, 1,27, 4,15,17476.39704006126, 2, 1,12,15
207,6509451.13922267,815.2532113832032, 1,27, 3,15,22990.642799023623, 2, 1,10,15
244,12749673.399825225,1521.856143006317, 1,27, 4,15,53038.631142310165, 2, 1,20,15
281,46165882.481495745,59938.60262432081, 1,27, 5,15,81951.81706819107, 1,27,19,15
318,0.0,0.0, 1,27, 1,15,0.0, 1,27, 1,15
355,197687796.27748066,18561.32405820678, 1,27, 4,15,724774.895203776, 2, 1,18,15
403,197687796.27748066,18561.32405820678, 1,27, 4,15,724774.895203776, 2, 1,18,15
476,106772067.24485716,7098.072629279515, 1,27, 4,15,356036.3026282215, 2, 1,12,15
513,0.0,0.0, 1,27, 1,15,0.0, 1,27, 1,15
562,37555827.00861077,0.0, 1,27, 1,15,131760.61220317366, 1,28,24,45
1046,0.0,0.0, 1,27, 1,15,0.0, 1,27, 1,15
1096,0.0,0.0, 1,27, 1,15,0.0, 1,27, 1,15
1134,602800374.7480079,0.0, 1,27,11,30,5089460.086332849, 1,29, 6,15
1326,243612514.3736575,0.0, 1,27, 1,15,4050000.0, 1,27, 8,45
1379,0.0,0.0, 1,27, 1,15,0.0, 1,27, 1,15
1,EXTREME_SUMMER,  36.12, -86.69,  -6.00, 182.90
5,7
1038,0.0,0.0, 6, 1, 1,15,0.0, 6, 1, 1,15
1039,54.5,0.0, 6, 1, 1,15,0.25, 6, 1,14,30
581,0.07169968206687842,0.0, 6, 1,23, 3,0.7788788913104899, 6, 5,14,46
582,1.8405961962960888,0.007070546136602242, 6, 7,20,45,14.703842181923301, 6, 5,14,46
583,0.041083401222696825,0.0, 6, 2, 6, 7,0.07456200969876692, 6, 5,14,31
1115,0.0,0.0, 6, 1, 1, 7,0.0, 6, 1, 1, 7
1128,0.0,0.0, 6, 1, 1, 7,0.0, 6, 1, 1, 7
1153,0.0,0.0, 6, 1, 1, 7,0.0, 6, 1, 1, 7
1154,0.0,0.0, 6, 1, 1, 7,0.0, 6, 1, 1, 7
1155,0.0,0.0, 6, 1, 1, 7,0.0, 6, 1, 1, 7
1156,0.0,0.0, 6, 1, 1, 7,0.0, 6, 1, 1, 7
1292,-21716923.628817998,-34253.113896293966, 6, 3,22,45,-2508.123497178478, 6, 5,14,16
1306,191433885.279426,0.0, 6, 1, 1, 7,2025000.0, 6, 5,18,22
1307,44383261.94572397,0.0, 6, 1, 1, 7,1376982.721953736, 6, 1, 8,19
1308,191433885.279426,0.0, 6, 1, 1, 7,2025000.0, 6, 5,18,22
13,1172202109.0955389,177139.8247718561, 6, 6, 4,60,6258329.264334928, 6, 3,17,30
61,301924526.02383536,88139.10953165221, 6, 1, 1,15,1282023.4113694867, 6, 1,20,15
134,70666020.44019976,63564.01800854099, 6, 1, 4,15,156554.22484006523, 6, 6,20,15
170,5241013.419656067,348.4159749238097, 6, 1, 4,15,17476.39704006126, 6, 6,12,15
207,6509451.13922267,815.2532113832032, 6, 1, 3,15,22990.642799023623, 6, 6,10,15
244,12749673.399825225,1521.856143006317, 6, 1, 4,15,53038.631142310165, 6, 6,20,15
281,46165882.481495745,59938.60262432081, 6, 1, 5,15,81951.81706819107, 6, 1,19,15
318,0.0,0.0, 6, 1, 1,15,0.0, 6, 1, 1,15
355,197687796.27748066,18561.32405820678, 6, 1, 4,15,724774.895203776, 6, 6,18,15
403,197687796.27748066,18561.32405820678, 6, 1, 4,15,724774.895203776, 6, 6,18,15
476,106772067.24485716,7098.072629279515, 6, 1, 4,15,356036.3026282215, 6, 6,12,15
513,0.0,0.0, 6, 1, 1,15,0.0, 6, 1, 1,15
562,57297904.47125037,2772.0332871465807, 6, 6, 4,60,131760.6122031737, 6, 1,18,45
1046,0.0,0.0, 6, 1, 1,15,0.0, 6, 1, 1,15
1096,550879772.880829,22295.99128629683, 6, 6, 4,60,1433947.0325029609, 6, 7,16,60
1134,0.0,0.0, 6, 1, 1,15,0.0, 6, 1, 1,15
1326,191433885.27942604,0.0, 6, 1, 1,15,4050000.0, 6, 1, 8,45
1379,0.0,0.0, 6, 1, 1,15,0.0, 6, 1, 1,15
1,ANNUAL,  36.12, -86.69,  -6.00, 182.90
5,365
1038,5.0,0.0, 1, 1, 1,15,0.25, 1,11, 6,15
1039,880.25,0.0, 1, 1, 1,15,0.25, 3,21,14,45
581,0.20080334459304286,0.0, 5, 9,23, 3,1.04603779088652, 3,28,18,60
582,2.9912207373537365,0.0, 1, 2,20,52,21.242566896729024, 3,28,18,60
583,0.026481638611151215,0.0, 5,14,23, 3,0.08292015356655492, 6, 5,14,47
1115,8585844648.399585,0.0, 1, 1,23, 7,4184625.510476654, 1,30, 6,45
1128,2683827870.7805095,0.0, 1, 1,23, 7,1283120.1446981886, 1,28, 9,30
1153,95160466.97109142,0.0, 1, 1, 1, 7,100386.2125406834, 3,14, 6,45
1154,1339243293.1505582,0.0, 1, 1, 1,52,180000.0, 1, 2,22,45
1155,423512010.92108744,0.0, 1, 1, 1, 7,3511406.1105028843, 1,31, 6,45
1156,423512010.92108744,0.0, 1, 1, 1, 7,3511406.1105028843, 1,31, 6,45
1292,-1191326424.9477563,-39800.94579421903,12, 9, 1,30,-1912.3021511968022, 5, 8, 8,31
1306,10958816422.883142,0.0, 1, 1, 1, 7,4050000.0, 1, 1,10,30
1307,2832466874.897912,0.0, 1, 1, 1, 7,12419815.190207914, 1,30, 8,30
1308,10958816422.883142,0.0, 1, 1, 1, 7,4050000.0, 1, 1,10,30
13,49524654281.40128,151703.1275401932, 1, 5, 4,15,9248345.342523385, 1,31, 7,30
61,15743207428.383959,88139.10953165221, 1, 1, 1,15,1282023.4113694867, 1, 1,20,15
134,3685071073.4325233,63564.01800854099, 1, 2, 4,15,156554.22484006523, 1, 1,20,15
170,273393721.45532674,348.4159749238097, 1, 2, 4,15,17476.39704006126, 1, 1,12,15
207,339560869.0695816,815.2532113832032, 1, 2, 3,15,22990.642799023623, 1, 1,10,15
244,664895467.8009144,1521.856143006317, 1, 2, 4,15,53038.631142310165, 1, 1,20,15
281,2407221015.106824,59938.60262432081, 1, 1, 5,15,81951.81706819107, 1, 1,19,15
318,0.0,0.0, 1, 1, 1,15,0.0, 1, 1, 1,15
355,10310294493.051695,18561.32405820678, 1, 2, 4,15,724774.895203776, 1, 1,18,15
403,10310294493.051695,18561.32405820678, 1, 2, 4,15,724774.895203776, 1, 1,18,15
476,5569688622.066177,7098.072629279515, 1, 2, 4,15,356036.3026282215, 1, 1,12,15
513,0.0,0.0, 1, 1, 1,15,0.0, 1, 1, 1,15
562,1732949280.7377129,0.0, 1, 1,23,15,131760.6122031737, 5, 5,15,60
1046,0.0,0.0, 1, 1, 1,15,0.0, 1, 1, 1,15
1096,12862866434.138245,0.0, 1, 1, 1,15,1439701.6495053652, 7,22,16,60
1134,4541743641.823226,0.0, 1, 2,14,45,5250037.834967034, 1,29, 6,15
1326,10958816422.883133,0.0, 1, 1, 1,15,4050000.0000000014, 3,18, 9,45
1379,0.0,0.0, 1, 1, 1,15,0.0, 1, 1, 1,15
End of Data
 Number of Records Written=          99
