Program Version,EnergyPlus, Version 22.2.0-c249759bad, YMD=2023.09.01 18:00
1,5,Environment Title[],Latitude[deg],Longitude[deg],Time Zone[],Elevation[m]
2,8,Day of Simulation[],Month[],Day of Month[],DST Indicator[1=yes 0=no],Hour[],StartMinute[],EndMinute[],DayType
3,5,Cumulative Day of Simulation[],Month[],Day of Month[],DST Indicator[1=yes 0=no],DayType  ! When Daily Report Variables Requested
4,2,Cumulative Days of Simulation[],Month[]  ! When Monthly Report Variables Requested
5,1,Cumulative Days of Simulation[] ! When Run Period Report Variables Requested
6,1,Calendar Year of Simulation[] ! When Annual Report Variables Requested
581,11,LIVING,AFN Zone Infiltration Air Change Rate [ach] !RunPeriod [Value,Min,Month,Day,Hour,Minute,Max,Month,Day,Hour,Minute]
582,11,ATTIC,AFN Zone Infiltration Air Change Rate [ach] !RunPeriod [Value,Min,Month,Day,Hour,Minute,Max,Month,Day,Hour,Minute]
583,11,CRAWLSPACE,AFN Zone Infiltration Air Change Rate [ach] !RunPeriod [Value,Min,Month,Day,Hour,Minute,Max,Month,Day,Hour,Minute]
1038,11,Facility,Facility Heating Setpoint Not Met Time [hr] !RunPeriod [Value,Min,Month,Day,Hour,Minute,Max,Month,Day,Hour,Minute]
1039,11,Facility,Facility Cooling Setpoint Not Met Time [hr] !RunPeriod [Value,Min,Month,Day,Hour,Minute,Max,Month,Day,Hour,Minute]
1115,11,DX_HEATING_COIL,Heating Coil Heating Energy [J] !RunPeriod [Value,Min,Month,Day,Hour,Minute,Max,Month,Day,Hour,Minute]
1128,11,DX_HEATING_COIL,Heating Coil Electricity Energy [J] !RunPeriod [Value,Min,Month,Day,Hour,Minute,Max,Month,Day,Hour,Minute]
1153,11,DX_HEATING_COIL,Heating Coil Defrost Electricity Energy [J] !RunPeriod [Value,Min,Month,Day,Hour,Minute,Max,Month,Day,Hour,Minute]
1154,11,DX_HEATING_COIL,Heating Coil Crankcase Heater Electricity Energy [J] !RunPeriod [Value,Min,Month,Day,Hour,Minute,Max,Month,Day,Hour,Minute]
1155,11,HEATING_RESISTANCE_BACKUP,Heating Coil Heating Energy [J] !RunPeriod [Value,Min,Month,Day,Hour,Minute,Max,Month,Day,Hour,Minute]
1156,11,HEATING_RESISTANCE_BACKUP,Heating Coil Electricity Energy [J] !RunPeriod [Value,Min,Month,Day,Hour,Minute,Max,Month,Day,Hour,Minute]
1292,11,WATER HEATER,Water Heater Heat Loss Energy [J] !RunPeriod [Value,Min,Month,Day,Hour,Minute,Max,Month,Day,Hour,Minute]
1306,11,WATER HEATER,Water Heater Heating Energy [J] !RunPeriod [Value,Min,Month,Day,Hour,Minute,Max,Month,Day,Hour,Minute]
1307,11,WATER HEATER,Water Heater Unmet Demand Heat Transfer Energy [J] !RunPeriod [Value,Min,Month,Day,Hour,Minute,Max,Month,Day,Hour,Minute]
1308,11,WATER HEATER,Water Heater Electricity Energy [J] !RunPeriod [Value,Min,Month,Day,Hour,Minute,Max,Month,Day,Hour,Minute]
13,11,Electricity:Facility [J] !RunPeriod [Value,Min,Month,Day,Hour,Minute,Max,Month,Day,Hour,Minute]
1134,11,Heating:Electricity [J] !RunPeriod [Value,Min,Month,Day,Hour,Minute,Max,Month,Day,Hour,Minute]
1096,11,Cooling:Electricity [J] !RunPeriod [Value,Min,Month,Day,Hour,Minute,Max,Month,Day,Hour,Minute]
562,11,Fans:Electricity [J] !RunPeriod [Value,Min,Month,Day,Hour,Minute,Max,Month,Day,Hour,Minute]
1379,11,Pumps:Electricity [J] !RunPeriod [Value,Min,Month,Day,Hour,Minute,Max,Month,Day,Hour,Minute]
1326,11,WaterSystems:Electricity [J] !RunPeriod [Value,Min,Month,Day,Hour,Minute,Max,Month,Day,Hour,Minute]
61,11,InteriorLights:Electricity [J] !RunPeriod [Value,Min,Month,Day,Hour,Minute,Max,Month,Day,Hour,Minute]
1046,11,ExteriorLights:Electricity [J] !RunPeriod [Value,Min,Month,Day,Hour,Minute,Max,Month,Day,Hour,Minute]
134,11,InteriorEquipment:Electricity [J] !RunPeriod [Value,Min,Month,Day,Hour,Minute,Max,Month,Day,Hour,Minute]
170,11,gas_dryer:InteriorEquipment:Electricity [J] !RunPeriod [Value,Min,Month,Day,Hour,Minute,Max,Month,Day,Hour,Minute]
207,11,clotheswasher:InteriorEquipment:Electricity [J] !RunPeriod [Value,Min,Month,Day,Hour,Minute,Max,Month,Day,Hour,Minute]
244,11,dishwasher:InteriorEquipment:Electricity [J] !RunPeriod [Value,Min,Month,Day,Hour,Minute,Max,Month,Day,Hour,Minute]
281,11,refrigerator:InteriorEquipment:Electricity [J] !RunPeriod [Value,Min,Month,Day,Hour,Minute,Max,Month,Day,Hour,Minute]
318,11,electric_mels:InteriorEquipment:Electricity [J] !RunPeriod [Value,Min,Month,Day,Hour,Minute,Max,Month,Day,Hour,Minute]
355,11,NaturalGas:Facility [J] !RunPeriod [Value,Min,Month,Day,Hour,Minute,Max,Month,Day,Hour,Minute]
403,11,InteriorEquipment:NaturalGas [J] !RunPeriod [Value,Min,Month,Day,Hour,Minute,Max,Month,Day,Hour,Minute]
476,11,gas_dryer:InteriorEquipment:NaturalGas [J] !RunPeriod [Value,Min,Month,Day,Hour,Minute,Max,Month,Day,Hour,Minute]
513,11,gas_mels:InteriorEquipment:NaturalGas [J] !RunPeriod [Value,Min,Month,Day,Hour,Minute,Max,Month,Day,Hour,Minute]
End of Data Dictionary
1,EXTREME_WINTER,  25.79, -80.32,  -5.00,   8.80
5,7
1038,0.0,0.0, 1,15, 1,15,0.0, 1,15, 1,15
1039,0.0,0.0, 1,15, 1,15,0.0, 1,15, 1,15
581,0.22529667950782098,0.02308181885037596, 1,15,20, 7,0.43559810270481286, 1,17,14,60
582,4.015020722786612,0.06702352692089163, 1,15,19,52,8.332463751447264, 1,16,12,60
583,0.014526987954430855,0.0006532311967662732, 1,19,10,18,0.06765850223253217, 1,15, 6, 3
1115,502634.1544053385,0.0, 1,15, 1,15,147545.7993630048, 1,18, 7,60
1128,133893.76358391327,0.0, 1,15, 1,15,39246.93119190049, 1,18, 7,60
1153,0.0,0.0, 1,15, 1,15,0.0, 1,15, 1,15
1154,0.0,0.0, 1,15, 1,15,0.0, 1,15, 1,15
1155,0.0,0.0, 1,15, 1,15,0.0, 1,15, 1,15
1156,0.0,0.0, 1,15, 1,15,0.0, 1,15, 1,15
1292,-22639566.51221841,-38453.81012806242, 1,18, 7,30,-4241.874607645013, 1,19,11,15
1306,155410175.38645667,0.0, 1,15, 1,15,4030157.5863868464, 1,17, 7,60
1307,11818409.377451137,0.0, 1,15, 1,15,2243072.674999807, 1,21,19,55
1308,155410175.38645667,0.0, 1,15, 1,15,4030157.5863868464, 1,17, 7,60
13,678838461.4946537,151703.1275401932, 1,15, 4,60,6052297.555252203, 1,21,20,15
61,301924526.02383536,88139.10953165221, 1,15, 1,15,1282023.4113694867, 1,15,20,15
134,70666020.44019976,63564.01800854099, 1,15, 4,15,156554.22484006523, 1,20,20,15
170,5241013.419656067,348.4159749238097, 1,15, 4,15,17476.39704006126, 1,20,12,15
207,6509451.13922267,815.2532113832032, 1,15, 3,15,22990.642799023623, 1,20,10,15
244,12749673.399825225,1521.856143006317, 1,15, 4,15,53038.631142310165, 1,20,20,15
281,46165882.481495745,59938.60262432081, 1,15, 5,15,81951.81706819107, 1,15,19,15
318,0.0,0.0, 1,15, 1,15,0.0, 1,15, 1,15
355,197687796.27748066,18561.32405820678, 1,15, 4,15,724774.895203776, 1,20,18,15
403,197687796.27748066,18561.32405820678, 1,15, 4,15,724774.895203776, 1,20,18,15
476,106772067.24485716,7098.072629279515, 1,15, 4,15,356036.3026282215, 1,20,12,15
513,0.0,0.0, 1,15, 1,15,0.0, 1,15, 1,15
562,16761735.54262435,0.0, 1,15, 4,60,115751.05977096103, 1,21,17,30
1046,0.0,0.0, 1,15, 1,15,0.0, 1,15, 1,15
1096,133942110.33795457,0.0, 1,15, 4,60,990707.1306042317, 1,21,17,15
1134,133893.76358391327,0.0, 1,15, 1,15,39246.93119190049, 1,18, 7,60
1326,155410175.3864566,0.0, 1,15, 1,15,4050000.0, 1,20, 9,60
1379,0.0,0.0, 1,15, 1,15,0.0, 1,15, 1,15
1,EXTREME_SUMMER,  25.79, -80.32,  -5.00,   8.80
5,7
1038,0.0,0.0, 7,23, 1,15,0.0, 7,23, 1,15
1039,69.25,0.0, 7,23, 1,15,0.25, 7,23,12,45
581,0.14384067716217835,0.0, 7,23, 3,15,0.3564000020367413, 7,27,11,60
582,5.3952980301819045,0.09293067101198595, 7,26, 8,42,12.768377019289682, 7,29,13,50
583,0.04945885593367725,0.0005082322722466715, 7,26,23, 3,0.06891623897114672, 7,28,18,50
1115,0.0,0.0, 7,23, 1, 7,0.0, 7,23, 1, 7
1128,0.0,0.0, 7,23, 1, 7,0.0, 7,23, 1, 7
1153,0.0,0.0, 7,23, 1, 7,0.0, 7,23, 1, 7
1154,0.0,0.0, 7,23, 1, 7,0.0, 7,23, 1, 7
1155,0.0,0.0, 7,23, 1, 7,0.0, 7,23, 1, 7
1156,0.0,0.0, 7,23, 1, 7,0.0, 7,23, 1, 7
1292,-21742145.89163919,-34345.136063363, 7,27, 7,60,-4212.934662938662, 7,25,10,60
1306,122460441.34974869,0.0, 7,23, 1, 7,3651702.327865836, 7,27, 6,60
1307,5148959.347076698,0.0, 7,23, 1, 7,1399182.0344321462, 7,29,19,55
1308,122460441.34974869,0.0, 7,23, 1, 7,3651702.327865836, 7,27, 6,60
13,1226393381.366173,447409.64342194074, 7,23, 4,60,6735664.941302238, 7,29,20,15
61,301924526.02383536,88139.10953165221, 7,23, 1,15,1282023.4113694867, 7,23,20,15
134,70666020.44019976,63564.01800854099, 7,23, 4,15,156554.22484006523, 7,28,20,15
170,5241013.419656067,348.4159749238097, 7,23, 4,15,17476.39704006126, 7,28,12,15
207,6509451.13922267,815.2532113832032, 7,23, 3,15,22990.642799023623, 7,28,10,15
244,12749673.399825225,1521.856143006317, 7,23, 4,15,53038.631142310165, 7,28,20,15
281,46165882.481495745,59938.60262432081, 7,23, 5,15,81951.81706819107, 7,23,19,15
318,0.0,0.0, 7,23, 1,15,0.0, 7,23, 1,15
355,197687796.27748066,18561.32405820678, 7,23, 4,15,724774.895203776, 7,28,18,15
403,197687796.27748066,18561.32405820678, 7,23, 4,15,724774.895203776, 7,28,18,15
476,106772067.24485716,7098.072629279515, 7,23, 4,15,356036.3026282215, 7,28,12,15
513,0.0,0.0, 7,23, 1,15,0.0, 7,23, 1,15
562,66179512.714963205,28512.37966280301, 7,23, 4,60,130981.86857215842, 7,23,11,30
1046,0.0,0.0, 7,23, 1,15,0.0, 7,23, 1,15
1096,665162880.837427,267194.1362189445, 7,23, 4,60,1390162.3427026586, 7,23,17,60
1134,0.0,0.0, 7,23, 1,15,0.0, 7,23, 1,15
1326,122460441.3497487,0.0, 7,23, 1,15,3964716.717479515, 7,29, 9,45
1379,0.0,0.0, 7,23, 1,15,0.0, 7,23, 1,15
1,ANNUAL,  25.79, -80.32,  -5.00,   8.80
5,365
1038,0.0,0.0, 1, 1, 1,15,0.0, 1, 1, 1,15
1039,1607.0,0.0, 1, 1, 1,15,0.25, 1, 6,15,45
581,0.153841793737033,0.0, 2, 7,23, 3,0.8487870686210707, 5,26,15,47
582,4.188996534917877,0.0, 1,25,20, 9,22.64552362206959, 5,26,15,46
583,0.039885953349867075,0.0, 2, 7,23, 3,0.08279933579414234, 6,24,19,52
1115,5720533.389240112,0.0, 1, 1, 1,15,876667.586014839, 1,24, 6, 7
1128,1600749.2118046826,0.0, 1, 1, 1,15,238626.04885075137, 1,24, 6, 7
1153,0.0,0.0, 1, 1, 1,15,0.0, 1, 1, 1,15
1154,14567274.123573786,0.0, 1, 1, 1,15,180000.0, 1,24, 1,30
1155,0.0,0.0, 1, 1, 1,15,0.0, 1, 1, 1,15
1156,0.0,0.0, 1, 1, 1,15,0.0, 1, 1, 1,15
1292,-1143708635.334374,-38356.10294492997, 1,18, 8,30,-2175.144304270126, 6,16,16, 1
1306,7284054422.993736,0.0, 1, 1, 1,15,4050000.0, 1, 1,20,15
1307,425224401.5426435,0.0, 1, 1, 1,15,5996427.852422985,12,31,19,60
1308,7284054422.993736,0.0, 1, 1, 1,15,4050000.0, 1, 1,20,15
13,53949255585.44435,151703.1275401932, 1, 3, 4,45,6931333.761656277,10, 1,20,15
61,15743207428.383959,88139.10953165221, 1, 1, 1,15,1282023.4113694867, 1, 1,20,15
134,3685071073.4325233,63564.01800854099, 1, 2, 4,15,156554.22484006523, 1, 1,20,15
170,273393721.45532674,348.4159749238097, 1, 2, 4,15,17476.39704006126, 1, 1,12,15
207,339560869.0695816,815.2532113832032, 1, 2, 3,15,22990.642799023623, 1, 1,10,15
244,664895467.8009144,1521.856143006317, 1, 2, 4,15,53038.631142310165, 1, 1,20,15
281,2407221015.106824,59938.60262432081, 1, 1, 5,15,81951.81706819107, 1, 1,19,15
318,0.0,0.0, 1, 1, 1,15,0.0, 1, 1, 1,15
355,10310294493.051695,18561.32405820678, 1, 2, 4,15,724774.895203776, 1, 1,18,15
403,10310294493.051695,18561.32405820678, 1, 2, 4,15,724774.895203776, 1, 1,18,15
476,5569688622.066177,7098.072629279515, 1, 2, 4,15,356036.3026282215, 1, 1,12,15
513,0.0,0.0, 1, 1, 1,15,0.0, 1, 1, 1,15
562,2647083018.2574306,0.0, 1, 1, 4,60,130981.86857215848, 5,26,15,30
1046,0.0,0.0, 1, 1, 1,15,0.0, 1, 1, 1,15
1096,24573671619.04026,0.0, 1, 1, 4,60,1423319.6838076657, 8,21,14,60
1134,16168023.335378468,0.0, 1, 1, 1,15,389576.2515369605, 1,24, 6,15
1326,7284054422.993711,0.0, 1, 1, 1,15,4050000.0, 1, 1,20,15
1379,0.0,0.0, 1, 1, 1,15,0.0, 1, 1, 1,15
End of Data
 Number of Records Written=          99
