Program Version,EnergyPlus, Version 22.2.0-c249759bad, YMD=2023.09.01 20:23
1,5,Environment Title[],Latitude[deg],Longitude[deg],Time Zone[],Elevation[m]
2,8,Day of Simulation[],Month[],Day of Month[],DST Indicator[1=yes 0=no],Hour[],StartMinute[],EndMinute[],DayType
3,5,Cumulative Day of Simulation[],Month[],Day of Month[],DST Indicator[1=yes 0=no],DayType  ! When Daily Report Variables Requested
4,2,Cumulative Days of Simulation[],Month[]  ! When Monthly Report Variables Requested
5,1,Cumulative Days of Simulation[] ! When Run Period Report Variables Requested
6,1,Calendar Year of Simulation[] ! When Annual Report Variables Requested
581,11,LIVING,AFN Zone Infiltration Air Change Rate [ach] !RunPeriod [Value,Min,Month,Day,Hour,Minute,Max,Month,Day,Hour,Minute]
582,11,ATTIC,AFN Zone Infiltration Air Change Rate [ach] !RunPeriod [Value,Min,Month,Day,Hour,Minute,Max,Month,Day,Hour,Minute]
583,11,CRAWLSPACE,AFN Zone Infiltration Air Change Rate [ach] !RunPeriod [Value,Min,Month,Day,Hour,Minute,Max,Month,Day,Hour,Minute]
1038,11,Facility,Facility Heating Setpoint Not Met Time [hr] !RunPeriod [Value,Min,Month,Day,Hour,Minute,Max,Month,Day,Hour,Minute]
1039,11,Facility,Facility Cooling Setpoint Not Met Time [hr] !RunPeriod [Value,Min,Month,Day,Hour,Minute,Max,Month,Day,Hour,Minute]
1115,11,DX_HEATING_COIL,Heating Coil Heating Energy [J] !RunPeriod [Value,Min,Month,Day,Hour,Minute,Max,Month,Day,Hour,Minute]
1128,11,DX_HEATING_COIL,Heating Coil Electricity Energy [J] !RunPeriod [Value,Min,Month,Day,Hour,Minute,Max,Month,Day,Hour,Minute]
1153,11,DX_HEATING_COIL,Heating Coil Defrost Electricity Energy [J] !RunPeriod [Value,Min,Month,Day,Hour,Minute,Max,Month,Day,Hour,Minute]
1154,11,DX_HEATING_COIL,Heating Coil Crankcase Heater Electricity Energy [J] !RunPeriod [Value,Min,Month,Day,Hour,Minute,Max,Month,Day,Hour,Minute]
1155,11,HEATING_RESISTANCE_BACKUP,Heating Coil Heating Energy [J] !RunPeriod [Value,Min,Month,Day,Hour,Minute,Max,Month,Day,Hour,Minute]
1156,11,HEATING_RESISTANCE_BACKUP,Heating Coil Electricity Energy [J] !RunPeriod [Value,Min,Month,Day,Hour,Minute,Max,Month,Day,Hour,Minute]
1292,11,WATER HEATER,Water Heater Heat Loss Energy [J] !RunPeriod [Value,Min,Month,Day,Hour,Minute,Max,Month,Day,Hour,Minute]
1306,11,WATER HEATER,Water Heater Heating Energy [J] !RunPeriod [Value,Min,Month,Day,Hour,Minute,Max,Month,Day,Hour,Minute]
1307,11,WATER HEATER,Water Heater Unmet Demand Heat Transfer Energy [J] !RunPeriod [Value,Min,Month,Day,Hour,Minute,Max,Month,Day,Hour,Minute]
1308,11,WATER HEATER,Water Heater Electricity Energy [J] !RunPeriod [Value,Min,Month,Day,Hour,Minute,Max,Month,Day,Hour,Minute]
13,11,Electricity:Facility [J] !RunPeriod [Value,Min,Month,Day,Hour,Minute,Max,Month,Day,Hour,Minute]
1134,11,Heating:Electricity [J] !RunPeriod [Value,Min,Month,Day,Hour,Minute,Max,Month,Day,Hour,Minute]
1096,11,Cooling:Electricity [J] !RunPeriod [Value,Min,Month,Day,Hour,Minute,Max,Month,Day,Hour,Minute]
562,11,Fans:Electricity [J] !RunPeriod [Value,Min,Month,Day,Hour,Minute,Max,Month,Day,Hour,Minute]
1379,11,Pumps:Electricity [J] !RunPeriod [Value,Min,Month,Day,Hour,Minute,Max,Month,Day,Hour,Minute]
1326,11,WaterSystems:Electricity [J] !RunPeriod [Value,Min,Month,Day,Hour,Minute,Max,Month,Day,Hour,Minute]
61,11,InteriorLights:Electricity [J] !RunPeriod [Value,Min,Month,Day,Hour,Minute,Max,Month,Day,Hour,Minute]
1046,11,ExteriorLights:Electricity [J] !RunPeriod [Value,Min,Month,Day,Hour,Minute,Max,Month,Day,Hour,Minute]
134,11,InteriorEquipment:Electricity [J] !RunPeriod [Value,Min,Month,Day,Hour,Minute,Max,Month,Day,Hour,Minute]
170,11,gas_dryer:InteriorEquipment:Electricity [J] !RunPeriod [Value,Min,Month,Day,Hour,Minute,Max,Month,Day,Hour,Minute]
207,11,clotheswasher:InteriorEquipment:Electricity [J] !RunPeriod [Value,Min,Month,Day,Hour,Minute,Max,Month,Day,Hour,Minute]
244,11,dishwasher:InteriorEquipment:Electricity [J] !RunPeriod [Value,Min,Month,Day,Hour,Minute,Max,Month,Day,Hour,Minute]
281,11,refrigerator:InteriorEquipment:Electricity [J] !RunPeriod [Value,Min,Month,Day,Hour,Minute,Max,Month,Day,Hour,Minute]
318,11,electric_mels:InteriorEquipment:Electricity [J] !RunPeriod [Value,Min,Month,Day,Hour,Minute,Max,Month,Day,Hour,Minute]
355,11,NaturalGas:Facility [J] !RunPeriod [Value,Min,Month,Day,Hour,Minute,Max,Month,Day,Hour,Minute]
403,11,InteriorEquipment:NaturalGas [J] !RunPeriod [Value,Min,Month,Day,Hour,Minute,Max,Month,Day,Hour,Minute]
476,11,gas_dryer:InteriorEquipment:NaturalGas [J] !RunPeriod [Value,Min,Month,Day,Hour,Minute,Max,Month,Day,Hour,Minute]
513,11,gas_mels:InteriorEquipment:NaturalGas [J] !RunPeriod [Value,Min,Month,Day,Hour,Minute,Max,Month,Day,Hour,Minute]
End of Data Dictionary
1,EXTREME_WINTER,  35.43,-119.05,  -8.00, 149.10
5,15
1038,0.5,0.0,12,22, 1,15,0.25,12,26, 6,15
1039,0.0,0.0,12,22, 1,15,0.0,12,22, 1,15
581,0.20075213741927872,0.11087099153838387,12,31, 2,60,0.49418019071856595,12,25, 1,60
582,1.8946264153955301,0.0,12,23, 1,52,10.832265486049401,12,24,20,52
583,0.010353032160930769,0.0001328035361401729, 1, 4,20,55,0.08159518044095819, 1, 1, 6, 5
1115,660489928.5699731,0.0,12,22, 1, 7,3465614.3592181522, 1, 1, 6,60
1128,197574476.82416275,0.0,12,22, 1, 7,1101050.6781457171, 1, 1, 6,60
1153,8762632.928824259,0.0,12,22, 1, 7,78818.15247662115,12,26, 6,60
1154,156138530.6057103,0.0,12,22, 6, 3,180000.0,12,22,24,30
1155,2411673.661595404,0.0,12,22, 1, 7,806592.0162536803, 1, 2, 6, 5
1156,2411673.661595404,0.0,12,22, 1, 7,806592.0162536803, 1, 2, 6, 5
1292,-52006675.65442224,-39758.60797265791, 1, 2, 5,45,-3996.983776101539, 1, 5,11,14
1306,338859053.4602931,0.0,12,22, 1, 7,4050000.0,12,29, 8,45
1307,53817055.39857992,0.0,12,22, 1, 7,2557455.8189111003,12,31, 9,30
1308,338859053.4602931,0.0,12,22, 1, 7,4050000.0,12,29, 8,45
13,1565038812.2571168,158004.1357532369,12,31, 2,60,5579173.228424842, 1, 3,19,30
61,646981127.1939323,88139.10953165221,12,22, 1,15,1282023.4113694867,12,22,20,15
134,151290040.75163814,63564.01800854099,12,22, 4,15,156554.22484006523,12,27,20,15
170,11185820.069951689,348.4159749238097,12,22, 4,15,17476.39704006126,12,27,12,15
207,13893028.5742839,815.2532113832032,12,22, 3,15,22990.642799023623,12,27,10,15
244,27284301.07562584,1521.856143006317,12,22, 4,15,53038.631142310165,12,27,20,15
281,98926891.03177746,59938.60262432081,12,22, 5,15,81951.81706819107,12,22,19,15
318,0.0,0.0,12,22, 1,15,0.0,12,22, 1,15
355,422701517.16107386,18561.32405820678,12,22, 4,15,724774.895203776,12,27,18,15
403,422701517.16107386,18561.32405820678,12,22, 4,15,724774.895203776,12,27,18,15
476,227882097.80545202,7098.072629279515,12,22, 4,15,356036.3026282215,12,27,12,15
513,0.0,0.0,12,22, 1,15,0.0,12,22, 1,15
562,25679381.53831406,0.0,12,22, 1,15,122264.36506967605,12,26, 6,15
1046,0.0,0.0,12,22, 1,15,0.0,12,22, 1,15
1096,37341895.292646624,0.0,12,22, 1,15,371178.257615294,12,23,16,30
1134,364887314.0202926,0.0,12,22,13,60,1869314.264239355, 1, 2, 6,15
1326,338859053.46029305,0.0,12,22, 1,15,4050000.0,12,22, 8,45
1379,0.0,0.0,12,22, 1,15,0.0,12,22, 1,15
1,EXTREME_SUMMER,  35.43,-119.05,  -8.00, 149.10
5,7
1038,0.0,0.0, 7,13, 1,15,0.0, 7,13, 1,15
1039,47.25,0.0, 7,13, 1,15,0.25, 7,13,18,15
581,0.09800573610933337,0.0, 7,13, 6, 7,0.3541091841991363, 7,19,14,52
582,2.944308647530928,0.12908591963655533, 7,16, 8,33,10.157779068216342, 7,14,15,52
583,0.05022725002998964,0.0, 7,13,23, 3,0.0798765919795982, 7,19,14,52
1115,0.0,0.0, 7,13, 1,15,0.0, 7,13, 1,15
1128,0.0,0.0, 7,13, 1,15,0.0, 7,13, 1,15
1153,0.0,0.0, 7,13, 1,15,0.0, 7,13, 1,15
1154,0.0,0.0, 7,13, 1,15,0.0, 7,13, 1,15
1155,0.0,0.0, 7,13, 1,15,0.0, 7,13, 1,15
1156,0.0,0.0, 7,13, 1,15,0.0, 7,13, 1,15
1292,-21774730.643373296,-34338.211256386414, 7,16,10,60,-3209.7163065704103, 7,13, 8,34
1306,111279598.15783782,0.0, 7,13, 1,15,2146510.7612219164, 7,19,13,60
1307,8259905.101113548,0.0, 7,13, 1,15,719758.9617610095, 7,16,10,21
1308,111279598.15783782,0.0, 7,13, 1,15,2146510.7612219164, 7,19,13,60
13,1264891062.7749116,200932.3277236192, 7,13, 4,60,5894291.095769443, 7,19,20,60
61,301924526.02383536,88139.10953165221, 7,13, 1,15,1282023.4113694867, 7,13,20,15
134,70666020.44019976,63564.01800854099, 7,13, 4,15,156554.22484006523, 7,18,20,15
170,5241013.419656067,348.4159749238097, 7,13, 4,15,17476.39704006126, 7,18,12,15
207,6509451.13922267,815.2532113832032, 7,13, 3,15,22990.642799023623, 7,18,10,15
244,12749673.399825225,1521.856143006317, 7,13, 4,15,53038.631142310165, 7,18,20,15
281,46165882.481495745,59938.60262432081, 7,13, 5,15,81951.81706819107, 7,13,19,15
318,0.0,0.0, 7,13, 1,15,0.0, 7,13, 1,15
355,197687796.27748066,18561.32405820678, 7,13, 4,15,724774.895203776, 7,18,18,15
403,197687796.27748066,18561.32405820678, 7,13, 4,15,724774.895203776, 7,18,18,15
476,106772067.24485716,7098.072629279515, 7,13, 4,15,356036.3026282215, 7,18,12,15
513,0.0,0.0, 7,13, 1,15,0.0, 7,13, 1,15
562,66526014.2664852,4984.931359661345, 7,13, 5,45,153073.11171848144, 7,14,19,45
1046,0.0,0.0, 7,13, 1,15,0.0, 7,13, 1,15
1096,714494903.8865523,40600.67701661023, 7,13, 5,45,1960893.4499838683, 7,19,16,60
1134,0.0,0.0, 7,13, 1,15,0.0, 7,13, 1,15
1326,111279598.15783776,0.0, 7,13, 1,15,4050000.0, 7,17, 8,30
1379,0.0,0.0, 7,13, 1,15,0.0, 7,13, 1,15
1,ANNUAL,  35.43,-119.05,  -8.00, 149.10
5,365
1038,0.25,0.0, 1, 1, 1,15,0.25,12,26, 6,15
1039,691.0,0.0, 1, 1, 1,15,0.25, 1,10,16,15
581,0.1622744671508267,0.0, 5, 5, 6,15,0.8855746058765696,12,17, 7,52
582,2.628040939620112,0.0, 1, 1, 1, 7,20.725896518393657, 3,12,13,47
583,0.02799155201592944,0.0, 5,17,23, 3,0.08848630750179347, 5,14,19,33
1115,1737835475.4128654,0.0, 1, 1, 1, 7,3121244.5708128507, 1, 3, 6,45
1128,507675808.53850055,0.0, 1, 1, 1, 7,1000618.8687881222, 1, 1, 6,60
1153,20494676.398838196,0.0, 1, 1, 1, 7,90748.14521501887, 1,25, 6,60
1154,877981793.8883035,0.0, 1, 1, 6, 5,180000.0, 1, 1,21,30
1155,4412437.201007375,0.0, 1, 1, 1, 7,806592.0162536803, 1, 2, 6, 5
1156,4412437.201007375,0.0, 1, 1, 1, 7,806592.0162536803, 1, 2, 6, 5
1292,-1177585500.3048315,-39764.53645561738,12,21, 3,30,-2218.5376930987677, 4, 8,16,45
1306,7128019787.441185,0.0, 1, 1, 1, 7,4050000.0, 1, 2, 8,45
1307,902494648.1433489,0.0, 1, 1, 1, 7,6949459.4148862045, 2,11,10,30
1308,7128019787.441185,0.0, 1, 1, 1, 7,4050000.0, 1, 2, 8,45
13,45860788946.04206,151703.1275401932, 1, 9, 4,15,6152620.768160863, 5,14,20,60
61,15743207428.383959,88139.10953165221, 1, 1, 1,15,1282023.4113694867, 1, 1,20,15
134,3685071073.4325233,63564.01800854099, 1, 2, 4,15,156554.22484006523, 1, 1,20,15
170,273393721.45532674,348.4159749238097, 1, 2, 4,15,17476.39704006126, 1, 1,12,15
207,339560869.0695816,815.2532113832032, 1, 2, 3,15,22990.642799023623, 1, 1,10,15
244,664895467.8009144,1521.856143006317, 1, 2, 4,15,53038.631142310165, 1, 1,20,15
281,2407221015.106824,59938.60262432081, 1, 1, 5,15,81951.81706819107, 1, 1,19,15
318,0.0,0.0, 1, 1, 1,15,0.0, 1, 1, 1,15
355,10310294493.051695,18561.32405820678, 1, 2, 4,15,724774.895203776, 1, 1,18,15
403,10310294493.051695,18561.32405820678, 1, 2, 4,15,724774.895203776, 1, 1,18,15
476,5569688622.066177,7098.072629279515, 1, 2, 4,15,356036.3026282215, 1, 1,12,15
513,0.0,0.0, 1, 1, 1,15,0.0, 1, 1, 1,15
562,1797439678.2488925,0.0, 1, 1, 1,15,153073.11171848144, 5, 3,17,45
1046,0.0,0.0, 1, 1, 1,15,0.0, 1, 1, 1,15
1096,16096486262.506624,0.0, 1, 1, 1,15,1961248.7873133144, 7,19,17,60
1134,1410564716.0266511,0.0, 1, 1,12,60,1805436.829320218, 1, 2, 6,15
1326,7128019787.441196,0.0, 1, 1, 1,15,4050000.0000000014, 3,18,10,30
1379,0.0,0.0, 1, 1, 1,15,0.0, 1, 1, 1,15
End of Data
 Number of Records Written=          99
