Program Version,EnergyPlus, Version 22.2.0-c249759bad, YMD=2023.09.01 14:31
1,5,Environment Title[],Latitude[deg],Longitude[deg],Time Zone[],Elevation[m]
2,8,Day of Simulation[],Month[],Day of Month[],DST Indicator[1=yes 0=no],Hour[],StartMinute[],EndMinute[],DayType
3,5,Cumulative Day of Simulation[],Month[],Day of Month[],DST Indicator[1=yes 0=no],DayType  ! When Daily Report Variables Requested
4,2,Cumulative Days of Simulation[],Month[]  ! When Monthly Report Variables Requested
5,1,Cumulative Days of Simulation[] ! When Run Period Report Variables Requested
6,1,Calendar Year of Simulation[] ! When Annual Report Variables Requested
7,1,Environment,Site Outdoor Air Drybulb Temperature [C] !Hourly
545,1,LIVING,Zone Mean Air Temperature [C] !Hourly
546,1,ATTIC,Zone Mean Air Temperature [C] !Hourly
547,1,CRAWLSPACE,Zone Mean Air Temperature [C] !Hourly
548,1,FAN,Fan Electricity Rate [W] !Hourly
720,1,LIVING,Zone Predicted Sensible Load to Heating Setpoint Heat Transfer Rate [W] !Hourly
721,1,LIVING,Zone System Predicted Sensible Load to Heating Setpoint Heat Transfer Rate [W] !Hourly
784,1,ATTIC,Zone Predicted Sensible Load to Heating Setpoint Heat Transfer Rate [W] !Hourly
785,1,ATTIC,Zone System Predicted Sensible Load to Heating Setpoint Heat Transfer Rate [W] !Hourly
848,1,CRAWLSPACE,Zone Predicted Sensible Load to Heating Setpoint Heat Transfer Rate [W] !Hourly
849,1,CRAWLSPACE,Zone System Predicted Sensible Load to Heating Setpoint Heat Transfer Rate [W] !Hourly
1121,1,DX_HEATING_COIL,Heating Coil Heating Rate [W] !Hourly
1135,1,DX_HEATING_COIL,Heating Coil Electricity Rate [W] !Hourly
1161,1,DX_HEATING_COIL,Heating Coil Defrost Electricity Rate [W] !Hourly
1163,1,DX_HEATING_COIL,Heating Coil Crankcase Heater Electricity Rate [W] !Hourly
1166,1,HEATING_RESISTANCE_BACKUP,Heating Coil Heating Rate [W] !Hourly
1168,1,HEATING_RESISTANCE_BACKUP,Heating Coil Electricity Rate [W] !Hourly
End of Data Dictionary
1,EXTREME_WINTER,  41.53, -93.65,  -6.00, 294.00
2,1,12,15, 0, 1, 0.00,60.00,Monday
7,-10.6
545,18.643206278342525
546,-6.673125117713184
547,18.880519889030342
548,162.40206366845644
720,3528.4343646624548
721,3528.4343646624548
784,0.0
785,0.0
848,0.0
849,0.0
1121,4077.5373791095126
1135,1506.8228339202358
1161,0.9421047214511682
1163,0.0
1166,1281.4826336994515
1168,1281.4826336994515
2,1,12,15, 0, 2, 0.00,60.00,Monday
7,-10.6
545,18.614403859013994
546,-6.390399674281065
547,18.490220520103307
548,162.40206366845644
720,3768.0653836815454
721,3768.0653836815454
784,0.0
785,0.0
848,0.0
849,0.0
1121,4079.4099866684855
1135,1504.7688981195527
1161,0.9426594896003632
1163,0.0
1166,1497.733324406075
1168,1497.733324406075
2,1,12,15, 0, 3, 0.00,60.00,Monday
7,-10.0
545,18.599625728992777
546,-5.521296497240712
547,18.314209550823303
548,162.40206366845644
720,4063.789210137995
721,4063.789210137995
784,0.0
785,0.0
848,0.0
849,0.0
1121,4159.528879661418
1135,1512.6310674476154
1161,0.18593584976985655
1163,0.0
1166,1749.3218485339657
1168,1749.3218485339657
2,1,12,15, 0, 4, 0.00,60.00,Monday
7,-8.9
545,18.60725988405743
546,-4.726205123717026
547,18.110640329245715
548,162.40206366845644
720,3857.7581747704608
721,3857.7581747704608
784,0.0
785,0.0
848,0.0
849,0.0
1121,4292.97405850721
1135,1523.4459376700358
1161,2.7012942217075655
1163,0.0
1166,1342.9244148754065
1168,1342.9244148754065
2,1,12,15, 0, 5, 0.00,60.00,Monday
7,-7.8
545,18.602475639148498
546,-4.618124546322879
547,17.92969512205864
548,162.40206366845644
720,4131.081468260998
721,4131.081468260998
784,0.0
785,0.0
848,0.0
849,0.0
1121,4447.447463951688
1135,1541.3983096845925
1161,0.08111217620378548
1163,0.0
1166,1461.038505173729
1168,1461.038505173729
2,1,12,15, 0, 6, 0.00,60.00,Monday
7,-7.8
545,19.343369883681696
546,-3.5263826946892665
547,17.75778460763728
548,162.40206366845644
720,4831.812102869133
721,4831.812102869133
784,0.0
785,0.0
848,0.0
849,0.0
1121,4447.779890158892
1135,1541.020667058112
1161,0.08111217620378548
1163,0.0
1166,2262.361017851854
1168,2262.361017851854
2,1,12,15, 0, 7, 0.00,60.00,Monday
7,-7.8
545,19.598422025927846
546,-3.2964324905199955
547,17.62504912324663
548,162.40206366845644
720,4599.111472181288
721,4599.111472181288
784,0.0
785,0.0
848,0.0
849,0.0
1121,4428.4652844662905
1135,1562.9490769276183
1161,0.08111217620378548
1163,0.0
1166,2034.4255884983131
1168,2034.4255884983131
2,1,12,15, 0, 8, 0.00,60.00,Monday
7,-6.7
545,19.660951808376414
546,-2.7004880269495457
547,17.478216426511594
548,162.40206366845644
720,5162.023612549861
721,5162.023612549861
784,0.0
785,0.0
848,0.0
849,0.0
1121,4561.394302142987
1135,1582.6733234930587
1161,2.108406883378215
1163,0.0
1166,2573.5962456587463
1168,2573.5962456587463
2,1,12,15, 0, 9, 0.00,60.00,Monday
7,-6.1
545,19.70087919033253
546,-1.6166412272167916
547,17.339934621962534
548,162.40206366845644
720,4686.707686287005
721,4686.707686287005
784,0.0
785,0.0
848,0.0
849,0.0
1121,4649.368473071115
1135,1595.2707376125823
1161,0.08111217620378548
1163,0.0
1166,1944.272287929245
1168,1944.272287929245
2,1,12,15, 0,10, 0.00,60.00,Monday
7,-6.1
545,19.720792597308016
546,-1.6002956649672322
547,17.211569019138903
548,162.40206366845644
720,4241.755451790586
721,4241.755451790586
784,0.0
785,0.0
848,0.0
849,0.0
1121,4648.498393041864
1135,1596.27577805305
1161,0.08111217620378548
1163,0.0
1166,1376.5234865658667
1168,1376.5234865658667
2,1,12,15, 0,11, 0.00,60.00,Monday
7,-5.0
545,19.81575475049152
546,0.5886487169479693
547,17.133111754045444
548,149.56419748090428
720,2847.325004764032
721,2847.325004764032
784,0.0
785,0.0
848,0.0
849,0.0
1121,4377.433262865571
1135,1484.4430175402624
1161,0.07470127690680017
1163,15.807489324114865
1166,0.0
1168,0.0
2,1,12,15, 0,12, 0.00,60.00,Monday
7,-5.6
545,19.823246936603045
546,1.0997979299255856
547,17.055097724689748
548,134.24358459998922
720,2538.1397769300165
721,2538.1397769300165
784,0.0
785,0.0
848,0.0
849,0.0
1121,3814.9433080369463
1135,1328.0487706694068
1161,0.06704931120315165
1163,34.67510220734906
1166,0.0
1168,0.0
2,1,12,15, 0,13, 0.00,60.00,Monday
7,-5.6
545,19.83487387410647
546,1.6761862481910916
547,17.00724119810178
548,116.64549650053205
720,2198.534171710715
721,2198.534171710715
784,0.0
785,0.0
848,0.0
849,0.0
1121,3271.790364381471
1135,1154.1305135768189
1161,0.05825976879036645
1163,56.34766192440666
1166,0.0
1168,0.0
2,1,12,15, 0,14, 0.00,60.00,Monday
7,-5.6
545,19.50963044927224
546,-0.0678429101672409
547,16.956281023906634
548,127.54468597536008
720,2522.5341619774626
721,2522.5341619774626
784,0.0
785,0.0
848,0.0
849,0.0
1121,3606.2968422753834
1135,1262.105675318783
1161,0.0637034788453892
1163,42.924991470229656
1166,0.0
1168,0.0
2,1,12,15, 0,15, 0.00,60.00,Monday
7,-6.1
545,19.85805748888591
546,-0.18813844318719286
547,16.931172510218833
548,107.81757545520698
720,1994.86032544937
721,1994.86032544937
784,0.0
785,0.0
848,0.0
849,0.0
1121,2966.367246399813
1135,1055.7461100869284
1161,0.053850615407716525
1163,67.21940421762883
1166,0.0
1168,0.0
2,1,12,15, 0,16, 0.00,60.00,Monday
7,-7.2
545,20.001310005370666
546,-0.7860379332560787
547,16.926782446546913
548,82.58537171618536
720,1379.6657493516395
721,1379.6657493516395
784,0.0
785,0.0
848,0.0
849,0.0
1121,2155.1266496768517
1135,806.5580226543186
1161,0.041248203072299504
1163,98.29343755081138
1166,0.0
1168,0.0
2,1,12,15, 0,17, 0.00,60.00,Monday
7,-8.3
545,19.71503681275212
546,-2.5463329399975785
547,16.899021726517677
548,92.98013645286937
720,1567.0417627756378
721,1567.0417627756378
784,0.0
785,0.0
848,0.0
849,0.0
1121,2363.128291649279
1135,901.7786965270227
1161,0.04644007620341281
1163,85.49172670022516
1166,0.0
1168,0.0
2,1,12,15, 0,18, 0.00,60.00,Monday
7,-8.9
545,19.45887005796597
546,-3.771260664415143
547,16.834121499882777
548,143.87813727371199
720,2547.1644720805307
721,2547.1644720805307
784,0.0
785,0.0
848,0.0
849,0.0
1121,3734.7209589276163
1135,1380.1159042528916
1161,0.07186178666013755
1163,22.808880186884252
1166,0.0
1168,0.0
2,1,12,15, 0,19, 0.00,60.00,Monday
7,-8.9
545,19.52029159228349
546,-4.444424021080894
547,16.768464733010923
548,162.40206366845644
720,2958.7892556623065
721,2958.7892556623065
784,0.0
785,0.0
848,0.0
849,0.0
1121,4281.926307213854
1135,1549.9993806116663
1161,0.08111217620378548
1163,0.0
1166,201.79307217363385
1168,201.79307217363385
2,1,12,15, 0,20, 0.00,60.00,Monday
7,-10.6
545,19.619218467623536
546,-6.111301363728055
547,16.688765564021775
548,162.40206366845644
720,2957.5182195292346
721,2957.5182195292346
784,0.0
785,0.0
848,0.0
849,0.0
1121,4059.1306725283403
1135,1526.9644822569082
1161,0.9378036265171624
1163,0.0
1166,541.2179207759082
1168,541.2179207759082
2,1,12,15, 0,21, 0.00,60.00,Monday
7,-11.1
545,19.653607260084666
546,-6.505440131261101
547,16.592651631593977
548,162.40206366845644
720,3565.1171388194325
721,3565.1171388194325
784,0.0
785,0.0
848,0.0
849,0.0
1121,3996.6729085188563
1135,1523.673024448442
1161,0.08111217620378548
1163,0.0
1166,1411.1976212777581
1168,1411.1976212777581
2,1,12,15, 0,22, 0.00,60.00,Monday
7,-12.2
545,19.6842213113848
546,-6.946671056752416
547,16.481252972884764
548,162.40206366845644
720,3560.3177180757066
721,3560.3177180757066
784,0.0
785,0.0
848,0.0
849,0.0
1121,3853.6708546219966
1135,1506.4434401915212
1161,1.8097252794517802
1163,0.0
1166,1597.887662900076
1168,1597.887662900076
2,1,12,15, 0,23, 0.00,60.00,Monday
7,-12.2
545,18.968634050170998
546,-7.1150037280039475
547,16.362328473211026
548,162.40206366845644
720,3269.27174016579
721,3269.27174016579
784,0.0
785,0.0
848,0.0
849,0.0
1121,3858.719507830878
1135,1509.3448827334796
1161,0.08111217620378548
1163,0.0
1166,1295.8376495716348
1168,1295.8376495716348
2,1,12,15, 0,24, 0.00,60.00,Monday
7,-13.3
545,18.726067566241085
546,-7.595195919043158
547,16.197756949907713
548,162.40206366845644
720,3581.39195553052
721,3581.39195553052
784,0.0
785,0.0
848,0.0
849,0.0
1121,3743.3569231271103
1135,1473.9196845876802
1161,0.08111217620378548
1163,0.0
1166,1720.9904989105185
1168,1720.9904989105185
2,2,12,16, 0, 1, 0.00,60.00,Tuesday
7,-13.3
545,18.626361045723744
546,-7.783863295279898
547,16.059969423612547
548,162.40206366845644
720,4130.362530083725
721,4130.362530083725
784,0.0
785,0.0
848,0.0
849,0.0
1121,3749.7247663063094
1135,1467.2598751266237
1161,0.08111217620378548
1163,0.0
1166,2356.482682562552
1168,2356.482682562552
2,2,12,16, 0, 2, 0.00,60.00,Tuesday
7,-13.9
545,18.571195948650995
546,-8.633262460389863
547,15.901473585552683
548,162.40206366845644
720,5402.023575643745
721,5402.023575643745
784,0.0
785,0.0
848,0.0
849,0.0
1121,3680.511746540044
1135,1455.8415770288823
1161,0.08111217620378548
1163,0.0
1166,3917.282241869991
1168,3917.282241869991
2,2,12,16, 0, 3, 0.00,60.00,Tuesday
7,-14.4
545,18.556969481801392
546,-8.468228179753092
547,15.756370157721264
548,162.40206366845644
720,5880.9763868333885
721,5880.9763868333885
784,0.0
785,0.0
848,0.0
849,0.0
1121,3622.764412121675
1135,1446.9952073592572
1161,0.08111217620378548
1163,0.0
1166,4604.071002165319
1168,4604.071002165319
2,2,12,16, 0, 4, 0.00,60.00,Tuesday
7,-15.6
545,18.57739518379723
546,-8.418334666205578
547,15.608544695733944
548,162.40206366845644
720,5422.50231348257
721,5422.50231348257
784,0.0
785,0.0
848,0.0
849,0.0
1121,3480.5633848864304
1135,1427.7946547726106
1161,0.95690070279811
1163,0.0
1166,4219.165910675132
1168,4219.165910675132
2,2,12,16, 0, 5, 0.00,60.00,Tuesday
7,-15.6
545,18.557785058879894
546,-9.322515542095848
547,15.45731664729744
548,162.40206366845644
720,6205.916251184819
721,6205.916251184819
784,0.0
785,0.0
848,0.0
849,0.0
1121,3482.8606036988936
1135,1429.1653248408295
1161,0.08111217620378548
1163,0.0
1166,5123.51728984528
1168,5123.51728984528
2,2,12,16, 0, 6, 0.00,60.00,Tuesday
7,-16.1
545,19.312415820185205
546,-8.926758126325597
547,15.31407564311099
548,162.40206366845644
720,6971.088558505016
721,6971.088558505016
784,0.0
785,0.0
848,0.0
849,0.0
1121,3426.095515721999
1135,1421.0233723824867
1161,0.08111217620378548
1163,0.0
1166,6114.002818418699
1168,6114.002818418699
2,2,12,16, 0, 7, 0.00,60.00,Tuesday
7,-16.1
545,19.5639939139985
546,-8.984317322699086
547,15.20461421047848
548,162.40206366845644
720,6785.153334190962
721,6785.153334190962
784,0.0
785,0.0
848,0.0
849,0.0
1121,3407.422185880477
1135,1439.409822475587
1161,0.08111217620378548
1163,0.0
1166,5985.3990849043375
1168,5985.3990849043375
2,2,12,16, 0, 8, 0.00,60.00,Tuesday
7,-16.1
545,19.65592812676374
546,-8.029654447178682
547,15.076278734438066
548,162.40206366845644
720,6012.5577342540855
721,6012.5577342540855
784,0.0
785,0.0
848,0.0
849,0.0
1121,3401.213254955741
1135,1445.4850324487868
1161,0.08111217620378548
1163,0.0
1166,5122.0255997615695
1168,5122.0255997615695
2,2,12,16, 0, 9, 0.00,60.00,Tuesday
7,-15.0
545,19.699011292294827
546,-6.925669065345728
547,14.960305340412383
548,162.40206366845644
720,5121.561639615524
721,5121.561639615524
784,0.0
785,0.0
848,0.0
849,0.0
1121,3525.9663679146065
1135,1464.7835061739124
1161,0.08111217620378548
1163,0.0
1166,3920.0345440682245
1168,3920.0345440682245
2,2,12,16, 0,10, 0.00,60.00,Tuesday
7,-14.4
545,19.719517661745666
546,-2.796760665610275
547,14.848651642711959
548,162.40206366845644
720,4294.550413620742
721,4294.550413620742
784,0.0
785,0.0
848,0.0
849,0.0
1121,3595.387668535944
1135,1474.9348606791755
1161,0.08111217620378548
1163,0.0
1166,2824.7117245577856
1168,2824.7117245577856
2,2,12,16, 0,11, 0.00,60.00,Tuesday
7,-13.3
545,19.7386920196998
546,-1.180543780491441
547,14.760796466813824
548,162.40206366845644
720,3831.0415861168767
721,3831.0415861168767
784,0.0
785,0.0
848,0.0
849,0.0
1121,3726.1171968445447
1135,1491.8766115927042
1161,0.08111217620378548
1163,0.0
1166,1941.6155765326528
1168,1941.6155765326528
2,2,12,16, 0,12, 0.00,60.00,Tuesday
7,-11.7
545,19.73767330080719
546,0.050584332754842885
547,14.69898955552718
548,162.40206366845644
720,3499.6752068708374
721,3499.6752068708374
784,0.0
785,0.0
848,0.0
849,0.0
1121,3921.277198334007
1135,1515.7031914260106
1161,0.08111217620378548
1163,0.0
1166,1250.585283489173
1168,1250.585283489173
2,2,12,16, 0,13, 0.00,60.00,Tuesday
7,-11.7
545,19.733199389331098
546,1.2584179433560314
547,14.640213514629567
548,162.40206366845644
720,3319.618033014607
721,3319.618033014607
784,0.0
785,0.0
848,0.0
849,0.0
1121,3921.3870045692624
1135,1515.585677558562
1161,0.08111217620378548
1163,0.0
1166,962.784513400361
1168,962.784513400361
2,2,12,16, 0,14, 0.00,60.00,Tuesday
7,-11.1
545,19.729887128455257
546,3.2626495598473295
547,14.601194197838488
548,162.40206366845644
720,3264.8360232652685
721,3264.8360232652685
784,0.0
785,0.0
848,0.0
849,0.0
1121,3996.3883556362466
1135,1523.9807443904522
1161,0.08111217620378548
1163,0.0
1166,753.9764592198735
1168,753.9764592198735
2,2,12,16, 0,15, 0.00,60.00,Tuesday
7,-10.6
545,19.72619187579577
546,0.19728859930372147
547,14.566072176929016
548,162.40206366845644
720,3492.853733546968
721,3492.853733546968
784,0.0
785,0.0
848,0.0
849,0.0
1121,4059.5008259063634
1135,1530.9128347113563
1161,0.08111217620378548
1163,0.0
1166,851.4935293465251
1168,851.4935293465251
2,2,12,16, 0,16, 0.00,60.00,Tuesday
7,-10.6
545,19.707310036191345
546,0.24356830614501315
547,14.534981624261448
548,162.40206366845644
720,3427.373310399691
721,3427.373310399691
784,0.0
785,0.0
848,0.0
849,0.0
1121,4059.640014506688
1135,1530.7610727019894
1161,0.08111217620378548
1163,0.0
1166,909.4456811873952
1168,909.4456811873952
2,2,12,16, 0,17, 0.00,60.00,Tuesday
7,-10.0
545,19.704752094595325
546,-1.8663098183050704
547,14.504901449406102
548,162.40206366845644
720,3681.2910045047356
721,3681.2910045047356
784,0.0
785,0.0
848,0.0
849,0.0
1121,4136.486390148666
1135,1538.5935010164121
1161,0.08111217620378548
1163,0.0
1166,1144.8007689163155
1168,1144.8007689163155
2,2,12,16, 0,18, 0.00,60.00,Tuesday
7,-10.0
545,19.700207183728637
546,-3.046433409665011
547,14.47086109537088
548,162.40206366845644
720,3649.4621483262636
721,3649.4621483262636
784,0.0
785,0.0
848,0.0
849,0.0
1121,4136.583536773292
1135,1538.4865701278281
1161,0.08111217620378548
1163,0.0
1166,1214.330347875156
1168,1214.330347875156
2,2,12,16, 0,19, 0.00,60.00,Tuesday
7,-10.0
545,19.702305197454514
546,-3.775502480486205
547,14.427928050299649
548,162.40206366845644
720,3609.5035569636475
721,3609.5035569636475
784,0.0
785,0.0
848,0.0
849,0.0
1121,4136.747964109333
1135,1538.3055777240256
1161,0.08111217620378548
1163,0.0
1166,1239.474091637754
1168,1239.474091637754
2,2,12,16, 0,20, 0.00,60.00,Tuesday
7,-9.4
545,19.69658016247407
546,-4.151711914151596
547,14.378160015481239
548,162.40206366845644
720,3940.9976812890764
721,3940.9976812890764
784,0.0
785,0.0
848,0.0
849,0.0
1121,4213.87991896931
1135,1546.6334632754426
1161,0.08111217620378548
1163,0.0
1166,1595.592430711717
1168,1595.592430711717
2,2,12,16, 0,21, 0.00,60.00,Tuesday
7,-8.9
545,19.705480511900937
546,-3.615808793023817
547,14.324504252176169
548,162.40206366845644
720,3811.946332481224
721,3811.946332481224
784,0.0
785,0.0
848,0.0
849,0.0
1121,4278.955385791507
1135,1553.3223531488875
1161,0.08111217620378548
1163,0.0
1166,1413.6342007424314
1168,1413.6342007424314
2,2,12,16, 0,22, 0.00,60.00,Tuesday
7,-8.9
545,19.7028249242201
546,-3.9025601747766228
547,14.258131906926772
548,162.40206366845644
720,4171.234222428082
721,4171.234222428082
784,0.0
785,0.0
848,0.0
849,0.0
1121,4278.804205224129
1135,1553.491412295019
1161,0.08111217620378548
1163,0.0
1166,1807.6459109409248
1168,1807.6459109409248
2,2,12,16, 0,23, 0.00,60.00,Tuesday
7,-8.9
545,18.98336112362843
546,-4.199479427300014
547,14.19088024034693
548,162.40206366845644
720,3040.983113723336
721,3040.983113723336
784,0.0
785,0.0
848,0.0
849,0.0
1121,4278.947613091821
1135,1553.3310451323732
1161,0.08111217620378548
1163,0.0
1166,521.7831979195212
1168,521.7831979195212
2,2,12,16, 0,24, 0.00,60.00,Tuesday
7,-8.9
545,18.73197526332174
546,-4.1262992867136825
547,14.085883490517128
548,162.40206366845644
720,3433.7945880515763
721,3433.7945880515763
784,0.0
785,0.0
848,0.0
849,0.0
1121,4297.827826131362
1135,1532.1918526109305
1161,0.08111217620378548
1163,0.0
1166,891.7834148986308
1168,891.7834148986308
2,3,12,17, 0, 1, 0.00,60.00,Wednesday
7,-8.9
545,18.63743454200116
546,-4.135454372244641
547,14.002586934170015
548,162.40206366845644
720,3903.277851163497
721,3903.277851163497
784,0.0
785,0.0
848,0.0
849,0.0
1121,4304.488407737535
1135,1524.7229348512326
1161,0.08111217620378548
1163,0.0
1166,1407.2769086006247
1168,1407.2769086006247
2,3,12,17, 0, 2, 0.00,60.00,Wednesday
7,-8.3
545,18.603692816210305
546,-3.6136299060870187
547,13.922364385262476
548,162.40206366845644
720,4278.653379582189
721,4278.653379582189
784,0.0
785,0.0
848,0.0
849,0.0
1121,4385.721667464344
1135,1529.7668336700763
1161,0.08111217620378548
1163,0.0
1166,1763.8123028686714
1168,1763.8123028686714
2,3,12,17, 0, 3, 0.00,60.00,Wednesday
7,-8.3
545,18.60032834678005
546,-3.7194826372727654
547,13.8410649239542
548,162.40206366845644
720,4322.715304484522
721,4322.715304484522
784,0.0
785,0.0
848,0.0
849,0.0
1121,4386.699104413427
1135,1528.6622606776166
1161,0.08111217620378548
1163,0.0
1166,1795.0082095793223
1168,1795.0082095793223
2,3,12,17, 0, 4, 0.00,60.00,Wednesday
7,-7.8
545,18.60547970757991
546,-3.2491530034721645
547,13.769690417378227
548,162.40206366845644
720,4021.118606589778
721,4021.118606589778
784,0.0
785,0.0
848,0.0
849,0.0
1121,4453.050421161804
1135,1535.0323462461413
1161,0.08111217620378548
1163,0.0
1166,1380.8565918674212
1168,1380.8565918674212
2,3,12,17, 0, 5, 0.00,60.00,Wednesday
7,-7.2
545,18.6063518815199
546,-3.1109909632307255
547,13.698306998405588
548,162.40206366845644
720,3969.1189866992845
721,3969.1189866992845
784,0.0
785,0.0
848,0.0
849,0.0
1121,4533.181524407554
1135,1542.9192388576762
1161,0.08111217620378548
1163,0.0
1166,1215.845874845084
1168,1215.845874845084
2,3,12,17, 0, 6, 0.00,60.00,Wednesday
7,-7.2
545,19.339778124509323
546,-2.5769577059044093
547,13.6269237140763
548,162.40206366845644
720,5136.805350473574
721,5136.805350473574
784,0.0
785,0.0
848,0.0
849,0.0
1121,4533.256398721665
1135,1542.8336328308374
1161,0.08111217620378548
1163,0.0
1166,2548.4437634151973
1168,2548.4437634151973
2,3,12,17, 0, 7, 0.00,60.00,Wednesday
7,-7.2
545,19.59358724393932
546,-2.417248873065111
547,13.5941263737043
548,162.40206366845644
720,4897.373464677163
721,4897.373464677163
784,0.0
785,0.0
848,0.0
849,0.0
1121,4514.128610469851
1135,1564.6970201091049
1161,0.08111217620378548
1163,0.0
1166,2348.134292731976
1168,2348.134292731976
2,3,12,17, 0, 8, 0.00,60.00,Wednesday
7,-6.7
545,19.684560557927874
546,-2.338133482374807
547,13.544959441389818
548,162.40206366845644
720,4226.198270036639
721,4226.198270036639
784,0.0
785,0.0
848,0.0
849,0.0
1121,4574.80416855685
1135,1579.0846668870197
1161,0.08111217620378548
1163,0.0
1166,1524.5023248411908
1168,1524.5023248411908
2,3,12,17, 0, 9, 0.00,60.00,Wednesday
7,-6.7
545,19.7031446816863
546,-2.0352814034492055
547,13.493756017262807
548,162.40206366845644
720,4252.968366417303
721,4252.968366417303
784,0.0
785,0.0
848,0.0
849,0.0
1121,4572.460018247931
1135,1581.7764353679074
1161,0.08111217620378548
1163,0.0
1166,1548.7307015191118
1168,1548.7307015191118
2,3,12,17, 0,10, 0.00,60.00,Wednesday
7,-6.1
545,19.713991584887502
546,-2.0023808340412637
547,13.447185350507421
548,162.40206366845644
720,4067.4801199339945
721,4067.4801199339945
784,0.0
785,0.0
848,0.0
849,0.0
1121,4653.588186270577
1135,1590.3963483240277
1161,0.08111217620378548
1163,0.0
1166,1240.2422743300012
1168,1240.2422743300012
2,3,12,17, 0,11, 0.00,60.00,Wednesday
7,-6.1
545,19.711956937534875
546,-1.7474643860743855
547,13.395810178720598
548,162.40206366845644
720,4143.234181741573
721,4143.234181741573
784,0.0
785,0.0
848,0.0
849,0.0
1121,4583.005690798677
1135,1566.5914120344348
1161,17.817203843320872
1163,0.0
1166,1393.6067023605328
1168,1393.6067023605328
2,3,12,17, 0,12, 0.00,60.00,Wednesday
7,-5.6
545,19.715820697987503
546,-1.3454125306633122
547,13.351974594529569
548,162.40206366845644
720,4010.921908813967
721,4010.921908813967
784,0.0
785,0.0
848,0.0
849,0.0
1121,4614.422226575919
1135,1560.8704056788695
1161,26.818888886971866
1163,0.0
1166,1199.6839770179067
1168,1199.6839770179067
2,3,12,17, 0,13, 0.00,60.00,Wednesday
7,-5.6
545,19.717236709799643
546,-1.1723079685652023
547,13.305496721114983
548,162.40206366845644
720,3964.135363518286
721,3964.135363518286
784,0.0
785,0.0
848,0.0
849,0.0
1121,4614.381652073319
1135,1560.9174947390786
1161,26.818888886971866
1163,0.0
1166,1123.849602466952
1168,1123.849602466952
2,3,12,17, 0,14, 0.00,60.00,Wednesday
7,-5.6
545,19.717987525427223
546,-0.829055921904859
547,13.26292971648812
548,162.40206366845644
720,3865.1181357318783
721,3865.1181357318783
784,0.0
785,0.0
848,0.0
849,0.0
1121,4561.780013354162
1135,1543.0958363629445
1161,39.888996515358336
1163,0.0
1166,1050.8731111037832
1168,1050.8731111037832
2,3,12,17, 0,15, 0.00,60.00,Wednesday
7,-6.1
545,19.71925447687624
546,-0.9366713123456732
547,13.217930388575322
548,162.40206366845644
720,3766.252560972269
721,3766.252560972269
784,0.0
785,0.0
848,0.0
849,0.0
1121,4462.089152976062
1135,1525.070891799364
1161,48.32586825453699
1163,0.0
1166,1015.4876370373672
1168,1015.4876370373672
2,3,12,17, 0,16, 0.00,60.00,Wednesday
7,-6.1
545,19.715758870143496
546,-1.8509404318576388
547,13.177221409099673
548,162.40206366845644
720,3774.5078182533816
721,3774.5078182533816
784,0.0
785,0.0
848,0.0
849,0.0
1121,4405.701293466395
1135,1505.7475058565622
1161,62.54659317669803
1163,0.0
1166,1081.8809093105228
1168,1081.8809093105228
2,3,12,17, 0,17, 0.00,60.00,Wednesday
7,-6.1
545,19.71887494300193
546,-0.5727120060770242
547,13.140198128135774
548,162.40206366845644
720,3384.4124336473433
721,3384.4124336473433
784,0.0
785,0.0
848,0.0
849,0.0
1121,4373.852348973371
1135,1494.6804327931768
1161,70.60446744398871
1163,0.0
1166,708.4819367400391
1168,708.4819367400391
2,3,12,17, 0,18, 0.00,60.00,Wednesday
7,-6.1
545,19.726821927882582
546,-1.500308026264251
547,13.101170353652888
548,162.40206366845644
720,3224.3479134213867
721,3224.3479134213867
784,0.0
785,0.0
848,0.0
849,0.0
1121,4373.834609336379
1135,1494.7009251044683
1161,70.60446744398871
1163,0.0
1166,464.74888377334355
1168,464.74888377334355
2,3,12,17, 0,19, 0.00,60.00,Wednesday
7,-6.1
545,19.723731631938982
546,-1.765249549815749
547,13.064770184020281
548,162.40206366845644
720,2979.344984319081
721,2979.344984319081
784,0.0
785,0.0
848,0.0
849,0.0
1121,4371.936553474646
1135,1494.2791413461866
1161,71.04464847609081
1163,0.0
1166,217.3486826535709
1168,217.3486826535709
2,3,12,17, 0,20, 0.00,60.00,Wednesday
7,-5.6
545,19.735521019173873
546,-1.516148454418236
547,13.031465312708859
548,158.28595128149598
720,2759.5354182967185
721,2759.5354182967185
784,0.0
785,0.0
848,0.0
849,0.0
1121,4332.886044912097
1135,1486.3769137888612
1161,66.13572728156923
1163,2.6074090441508435
1166,0.0
1168,0.0
2,3,12,17, 0,21, 0.00,60.00,Wednesday
7,-5.6
545,19.742871925264684
546,-1.404425499131815
547,12.993487402611954
548,155.16977962626663
720,2682.822118171951
721,2682.822118171951
784,0.0
785,0.0
848,0.0
849,0.0
1121,4210.96940115993
1135,1450.1943407954693
1161,71.72515909564802
1163,6.223491300294137
1166,0.0
1168,0.0
2,3,12,17, 0,22, 0.00,60.00,Wednesday
7,-5.6
545,19.710837762085085
546,-1.3568705600478825
547,12.962405517103718
548,162.40206366845644
720,2984.235962185321
721,2984.235962185321
784,0.0
785,0.0
848,0.0
849,0.0
1121,4450.431642375809
1135,1505.794479619622
1161,67.4858483959104
1163,0.0
1166,132.10433293949063
1168,132.10433293949063
2,3,12,17, 0,23, 0.00,60.00,Wednesday
7,-5.6
545,19.043792076879576
546,-1.4884784392525106
547,12.890891315228407
548,127.08015520862702
720,2088.228871364792
721,2088.228871364792
784,0.0
785,0.0
848,0.0
849,0.0
1121,3395.861972601076
1135,1192.7018638207232
1161,53.47976362603901
1163,41.50821276693068
1166,0.0
1168,0.0
2,3,12,17, 0,24, 0.00,60.00,Wednesday
7,-5.6
545,18.696182777004253
546,-1.3771946097407743
547,12.846674299055618
548,143.81535335522312
720,2566.7855530131983
721,2566.7855530131983
784,0.0
785,0.0
848,0.0
849,0.0
1121,3906.802605942084
1135,1332.1051133416408
1161,60.51424163406208
1163,20.64515628832806
1166,0.0
1168,0.0
2,4,12,18, 0, 1, 0.00,60.00,Thursday
7,-5.6
545,18.587301578401444
546,-1.200548025466587
547,12.802863875061703
548,162.40206366845644
720,3055.257273631849
721,3055.257273631849
784,0.0
785,0.0
848,0.0
849,0.0
1121,4476.805178255699
1135,1475.233754301235
1161,67.47990785388973
1163,0.0
1166,69.35424963209152
1168,69.35424963209152
2,4,12,18, 0, 2, 0.00,60.00,Thursday
7,-6.1
545,18.58665975544432
546,-1.0924301393145732
547,12.749322878999484
548,162.40206366845644
720,3662.3163240941394
721,3662.3163240941394
784,0.0
785,0.0
848,0.0
849,0.0
1121,4436.199488189355
1135,1472.943865512956
1161,62.13847033637119
1163,0.0
1166,836.6503212225707
1168,836.6503212225707
2,4,12,18, 0, 3, 0.00,60.00,Thursday
7,-7.2
545,18.58064739418512
546,-1.8159879524186333
547,12.693580595267097
548,162.40206366845644
720,4398.025469871247
721,4398.025469871247
784,0.0
785,0.0
848,0.0
849,0.0
1121,4343.178125076458
1135,1475.5542273788978
1161,49.71119345294537
1163,0.0
1166,1794.6630205902875
1168,1794.6630205902875
2,4,12,18, 0, 4, 0.00,60.00,Thursday
7,-7.8
545,18.584114801377197
546,-2.0018520686422367
547,12.643711733512399
548,162.40206366845644
720,4520.715331272813
721,4520.715331272813
784,0.0
785,0.0
848,0.0
849,0.0
1121,4278.309952235629
1135,1471.828371985354
1161,46.63360024129568
1163,0.0
1166,2052.8529408371814
1168,2052.8529408371814
2,4,12,18, 0, 5, 0.00,60.00,Thursday
7,-8.3
545,18.58401420629502
546,-2.5418769775742196
547,12.589806116084384
548,162.40206366845644
720,4765.070710362839
721,4765.070710362839
784,0.0
785,0.0
848,0.0
849,0.0
1121,4245.609883768478
1135,1476.2889416213413
1161,38.38435738671495
1163,0.0
1166,2390.771556001345
1168,2390.771556001345
2,4,12,18, 0, 6, 0.00,60.00,Thursday
7,-9.0
545,19.321729980891305
546,-3.034660478884872
547,12.53340805102516
548,162.40206366845644
720,6052.383382754075
721,6052.383382754075
784,0.0
785,0.0
848,0.0
849,0.0
1121,4172.904573917237
1135,1472.9269457015675
1161,34.03474686178224
1163,0.0
1166,3982.016843546967
1168,3982.016843546967
2,4,12,18, 0, 7, 0.00,60.00,Thursday
7,-9.4
545,19.562436213603014
546,-3.596884618097408
547,12.509456690599347
548,162.40206366845644
720,6383.515054010262
721,6383.515054010262
784,0.0
785,0.0
848,0.0
849,0.0
1121,4104.082462079324
1135,1488.2985319029465
1161,34.03692722999892
1163,0.0
1166,4559.264543748956
1168,4559.264543748956
2,4,12,18, 0, 8, 0.00,60.00,Thursday
7,-9.4
545,19.663654562849604
546,-3.3871922212402037
547,12.468350364835269
548,162.40206366845644
720,5480.268814040959
721,5480.268814040959
784,0.0
785,0.0
848,0.0
849,0.0
1121,4117.8492294014695
1135,1502.3433079800293
1161,28.51309669982431
1163,0.0
1166,3559.380428990039
1168,3559.380428990039
2,4,12,18, 0, 9, 0.00,60.00,Thursday
7,-9.4
545,19.695773991056637
546,-3.075466093095926
547,12.420473557098681
548,162.40206366845644
720,5053.682369872091
721,5053.682369872091
784,0.0
785,0.0
848,0.0
849,0.0
1121,4115.402257211819
1135,1505.173801724748
1161,28.492203400899367
1163,0.0
1166,3056.7533666396216
1168,3056.7533666396216
2,4,12,18, 0,10, 0.00,60.00,Thursday
7,-9.4
545,19.6935209160484
546,-2.896935611633965
547,12.370643243037595
548,162.40206366845644
720,5270.520621033769
721,5270.520621033769
784,0.0
785,0.0
848,0.0
849,0.0
1121,4114.693999704341
1135,1505.9607408257293
1161,28.492203400899367
1163,0.0
1166,3294.3334866854434
1168,3294.3334866854434
2,4,12,18, 0,11, 0.00,60.00,Thursday
7,-9.4
545,19.69671249094091
546,-2.495653858647471
547,12.328110189092424
548,162.40206366845644
720,5194.772470849521
721,5194.772470849521
784,0.0
785,0.0
848,0.0
849,0.0
1121,4114.836690216987
1135,1505.8022058400293
1161,28.492203400899367
1163,0.0
1166,3206.3587453886266
1168,3206.3587453886266