Program Version,EnergyPlus, Version 22.2.0-c249759bad, YMD=2023.09.01 20:21
1,5,Environment Title[],Latitude[deg],Longitude[deg],Time Zone[],Elevation[m]
2,8,Day of Simulation[],Month[],Day of Month[],DST Indicator[1=yes 0=no],Hour[],StartMinute[],EndMinute[],DayType
3,5,Cumulative Day of Simulation[],Month[],Day of Month[],DST Indicator[1=yes 0=no],DayType  ! When Daily Report Variables Requested
4,2,Cumulative Days of Simulation[],Month[]  ! When Monthly Report Variables Requested
5,1,Cumulative Days of Simulation[] ! When Run Period Report Variables Requested
6,1,Calendar Year of Simulation[] ! When Annual Report Variables Requested
581,11,LIVING,AFN Zone Infiltration Air Change Rate [ach] !RunPeriod [Value,Min,Month,Day,Hour,Minute,Max,Month,Day,Hour,Minute]
582,11,ATTIC,AFN Zone Infiltration Air Change Rate [ach] !RunPeriod [Value,Min,Month,Day,Hour,Minute,Max,Month,Day,Hour,Minute]
583,11,CRAWLSPACE,AFN Zone Infiltration Air Change Rate [ach] !RunPeriod [Value,Min,Month,Day,Hour,Minute,Max,Month,Day,Hour,Minute]
1038,11,Facility,Facility Heating Setpoint Not Met Time [hr] !RunPeriod [Value,Min,Month,Day,Hour,Minute,Max,Month,Day,Hour,Minute]
1039,11,Facility,Facility Cooling Setpoint Not Met Time [hr] !RunPeriod [Value,Min,Month,Day,Hour,Minute,Max,Month,Day,Hour,Minute]
1115,11,DX_HEATING_COIL,Heating Coil Heating Energy [J] !RunPeriod [Value,Min,Month,Day,Hour,Minute,Max,Month,Day,Hour,Minute]
1128,11,DX_HEATING_COIL,Heating Coil Electricity Energy [J] !RunPeriod [Value,Min,Month,Day,Hour,Minute,Max,Month,Day,Hour,Minute]
1153,11,DX_HEATING_COIL,Heating Coil Defrost Electricity Energy [J] !RunPeriod [Value,Min,Month,Day,Hour,Minute,Max,Month,Day,Hour,Minute]
1154,11,DX_HEATING_COIL,Heating Coil Crankcase Heater Electricity Energy [J] !RunPeriod [Value,Min,Month,Day,Hour,Minute,Max,Month,Day,Hour,Minute]
1155,11,HEATING_RESISTANCE_BACKUP,Heating Coil Heating Energy [J] !RunPeriod [Value,Min,Month,Day,Hour,Minute,Max,Month,Day,Hour,Minute]
1156,11,HEATING_RESISTANCE_BACKUP,Heating Coil Electricity Energy [J] !RunPeriod [Value,Min,Month,Day,Hour,Minute,Max,Month,Day,Hour,Minute]
1292,11,WATER HEATER,Water Heater Heat Loss Energy [J] !RunPeriod [Value,Min,Month,Day,Hour,Minute,Max,Month,Day,Hour,Minute]
1306,11,WATER HEATER,Water Heater Heating Energy [J] !RunPeriod [Value,Min,Month,Day,Hour,Minute,Max,Month,Day,Hour,Minute]
1307,11,WATER HEATER,Water Heater Unmet Demand Heat Transfer Energy [J] !RunPeriod [Value,Min,Month,Day,Hour,Minute,Max,Month,Day,Hour,Minute]
1308,11,WATER HEATER,Water Heater Electricity Energy [J] !RunPeriod [Value,Min,Month,Day,Hour,Minute,Max,Month,Day,Hour,Minute]
13,11,Electricity:Facility [J] !RunPeriod [Value,Min,Month,Day,Hour,Minute,Max,Month,Day,Hour,Minute]
1134,11,Heating:Electricity [J] !RunPeriod [Value,Min,Month,Day,Hour,Minute,Max,Month,Day,Hour,Minute]
1096,11,Cooling:Electricity [J] !RunPeriod [Value,Min,Month,Day,Hour,Minute,Max,Month,Day,Hour,Minute]
562,11,Fans:Electricity [J] !RunPeriod [Value,Min,Month,Day,Hour,Minute,Max,Month,Day,Hour,Minute]
1379,11,Pumps:Electricity [J] !RunPeriod [Value,Min,Month,Day,Hour,Minute,Max,Month,Day,Hour,Minute]
1326,11,WaterSystems:Electricity [J] !RunPeriod [Value,Min,Month,Day,Hour,Minute,Max,Month,Day,Hour,Minute]
61,11,InteriorLights:Electricity [J] !RunPeriod [Value,Min,Month,Day,Hour,Minute,Max,Month,Day,Hour,Minute]
1046,11,ExteriorLights:Electricity [J] !RunPeriod [Value,Min,Month,Day,Hour,Minute,Max,Month,Day,Hour,Minute]
134,11,InteriorEquipment:Electricity [J] !RunPeriod [Value,Min,Month,Day,Hour,Minute,Max,Month,Day,Hour,Minute]
170,11,gas_dryer:InteriorEquipment:Electricity [J] !RunPeriod [Value,Min,Month,Day,Hour,Minute,Max,Month,Day,Hour,Minute]
207,11,clotheswasher:InteriorEquipment:Electricity [J] !RunPeriod [Value,Min,Month,Day,Hour,Minute,Max,Month,Day,Hour,Minute]
244,11,dishwasher:InteriorEquipment:Electricity [J] !RunPeriod [Value,Min,Month,Day,Hour,Minute,Max,Month,Day,Hour,Minute]
281,11,refrigerator:InteriorEquipment:Electricity [J] !RunPeriod [Value,Min,Month,Day,Hour,Minute,Max,Month,Day,Hour,Minute]
318,11,electric_mels:InteriorEquipment:Electricity [J] !RunPeriod [Value,Min,Month,Day,Hour,Minute,Max,Month,Day,Hour,Minute]
355,11,NaturalGas:Facility [J] !RunPeriod [Value,Min,Month,Day,Hour,Minute,Max,Month,Day,Hour,Minute]
403,11,InteriorEquipment:NaturalGas [J] !RunPeriod [Value,Min,Month,Day,Hour,Minute,Max,Month,Day,Hour,Minute]
476,11,gas_dryer:InteriorEquipment:NaturalGas [J] !RunPeriod [Value,Min,Month,Day,Hour,Minute,Max,Month,Day,Hour,Minute]
513,11,gas_mels:InteriorEquipment:NaturalGas [J] !RunPeriod [Value,Min,Month,Day,Hour,Minute,Max,Month,Day,Hour,Minute]
End of Data Dictionary
1,EXTREME_WINTER,  40.78,-111.97,  -7.00,1287.80
5,7
1038,0.25,0.0, 1, 6, 1,15,0.25, 1,11, 6,15
1039,0.0,0.0, 1, 6, 1,15,0.0, 1, 6, 1,15
581,0.3640566622982836,0.22458801149532925, 1,12,23, 5,0.514641780406461, 1,11, 3,60
582,1.7837237323633823,0.0, 1,11,23,15,5.555578878415607, 1,11, 7,52
583,0.0679673199534038,0.0003717696245375338, 1,12,23, 5,0.09784443491382734, 1, 6, 8,60
1115,2056724802.1639748,0.0, 1, 6,15,52,4553701.287440121, 1,12,10,45
1128,736065710.0859164,0.0, 1, 6,15,52,1557930.6681214678, 1,12, 6,45
1153,24188508.107284416,0.0, 1, 6,15,52,90575.69246558666, 1, 9, 7,60
1154,32750146.172338933,0.0, 1, 6, 2,30,174516.46951536296, 1, 7,15,15
1155,283133648.15923244,0.0, 1, 6, 1,15,3488615.822295726, 1,11, 6,45
1156,283133648.15923244,0.0, 1, 6, 1,15,3488615.822295726, 1,11, 6,45
1292,-25399867.921147354,-39777.97178730758, 1, 6, 1,15,-5327.480370618432, 1,11,16,60
1306,129761355.95560127,0.0, 1, 6, 1,15,4050000.0, 1, 6, 7,15
1307,26102421.598381534,0.0, 1, 6, 1,15,7625570.681860772, 1, 6, 6,60
1308,129761355.95560127,0.0, 1, 6, 1,15,4050000.0, 1, 6, 7,15
13,1661141886.3586898,452017.0388981225, 1, 6,15,60,8398123.337329011, 1, 6, 6,15
61,301924526.02383536,88139.10953165221, 1, 6, 1,15,1282023.4113694867, 1, 6,20,15
134,70666020.44019976,63564.01800854099, 1, 6, 4,15,156554.22484006523, 1,11,20,15
170,5241013.419656067,348.4159749238097, 1, 6, 4,15,17476.39704006126, 1,11,12,15
207,6509451.13922267,815.2532113832032, 1, 6, 3,15,22990.642799023623, 1,11,10,15
244,12749673.399825225,1521.856143006317, 1, 6, 4,15,53038.631142310165, 1,11,20,15
281,46165882.481495745,59938.60262432081, 1, 6, 5,15,81951.81706819107, 1, 6,19,15
318,0.0,0.0, 1, 6, 1,15,0.0, 1, 6, 1,15
355,197687796.27748066,18561.32405820678, 1, 6, 4,15,724774.895203776, 1,11,18,15
403,197687796.27748066,18561.32405820678, 1, 6, 4,15,724774.895203776, 1,11,18,15
476,106772067.24485716,7098.072629279515, 1, 6, 4,15,356036.3026282215, 1,11,12,15
513,0.0,0.0, 1, 6, 1,15,0.0, 1, 6, 1,15
562,82651971.41428366,0.0, 1, 6,15,60,169481.91340645566, 1, 6,10,30
1046,0.0,0.0, 1, 6, 1,15,0.0, 1, 6, 1,15
1096,0.0,0.0, 1, 6, 1,15,0.0, 1, 6, 1,15
1134,1076138012.524771,180000.0, 1, 6,15,60,5623887.853399222, 1,11, 6,15
1326,129761355.95560126,0.0, 1, 6, 1,15,4050000.0, 1, 6, 7,15
1379,0.0,0.0, 1, 6, 1,15,0.0, 1, 6, 1,15
1,EXTREME_SUMMER,  40.78,-111.97,  -7.00,1287.80
5,7
1038,0.0,0.0, 7,13, 1,15,0.0, 7,13, 1,15
1039,8.0,0.0, 7,13, 1,15,0.25, 7,13,18,45
581,0.1747576905990533,0.0, 7,13, 6, 7,1.3284881052506725, 7,14,19,47
582,3.7625527236001335,0.10515089809385891, 7,14, 2,22,23.113140280938, 7,14,19,47
583,0.04642833413349562,0.0, 7,13, 6, 7,0.11372123940237785, 7,14,19,47
1115,0.0,0.0, 7,13, 1, 7,0.0, 7,13, 1, 7
1128,0.0,0.0, 7,13, 1, 7,0.0, 7,13, 1, 7
1153,0.0,0.0, 7,13, 1, 7,0.0, 7,13, 1, 7
1154,0.0,0.0, 7,13, 1, 7,0.0, 7,13, 1, 7
1155,0.0,0.0, 7,13, 1, 7,0.0, 7,13, 1, 7
1156,0.0,0.0, 7,13, 1, 7,0.0, 7,13, 1, 7
1292,-22095026.79871225,-34357.173578444905, 7,18, 6,45,-2686.546281469242, 7,17,10,60
1306,94904157.21403688,0.0, 7,13, 1, 7,4050000.0, 7,13, 7,15
1307,10380385.45165601,0.0, 7,13, 1, 7,4094103.796391029, 7,13, 6,60
1308,94904157.21403688,0.0, 7,13, 1, 7,4050000.0, 7,13, 7,15
13,1119461824.796566,188570.24303560305, 7,17, 4,60,5689583.443619603, 7,19,13,60
61,301924526.02383536,88139.10953165221, 7,13, 1,15,1282023.4113694867, 7,13,20,15
134,70666020.44019976,63564.01800854099, 7,13, 4,15,156554.22484006523, 7,18,20,15
170,5241013.419656067,348.4159749238097, 7,13, 4,15,17476.39704006126, 7,18,12,15
207,6509451.13922267,815.2532113832032, 7,13, 3,15,22990.642799023623, 7,18,10,15
244,12749673.399825225,1521.856143006317, 7,13, 4,15,53038.631142310165, 7,18,20,15
281,46165882.481495745,59938.60262432081, 7,13, 5,15,81951.81706819107, 7,13,19,15
318,0.0,0.0, 7,13, 1,15,0.0, 7,13, 1,15
355,197687796.27748066,18561.32405820678, 7,13, 4,15,724774.895203776, 7,18,18,15
403,197687796.27748066,18561.32405820678, 7,13, 4,15,724774.895203776, 7,18,18,15
476,106772067.24485716,7098.072629279515, 7,13, 4,15,356036.3026282215, 7,18,12,15
513,0.0,0.0, 7,13, 1,15,0.0, 7,13, 1,15
562,59875289.606305294,0.0, 7,17, 6,30,169481.91340645566, 7,13,20,15
1046,0.0,0.0, 7,13, 1,15,0.0, 7,13, 1,15
1096,592091831.5121897,0.0, 7,17, 6,30,1990087.912018703, 7,14,14,60
1134,0.0,0.0, 7,13, 1,15,0.0, 7,13, 1,15
1326,94904157.21403687,0.0, 7,13, 1,15,4050000.0, 7,13, 7,15
1379,0.0,0.0, 7,13, 1,15,0.0, 7,13, 1,15
1,ANNUAL,  40.78,-111.97,  -7.00,1287.80
5,365
1038,2.0,0.0, 1, 1, 1,15,0.25, 1, 1, 6,15
1039,98.25,0.0, 1, 1, 1,15,0.25, 3, 6,16,45
581,0.25909254202028903,0.0, 7, 6,23, 3,1.3368972886707644, 7,14,19,46
582,3.5098145208055187,0.0, 1, 3, 7,30,36.94639132778415, 8, 7,19,46
583,0.030984145911903394,0.0, 7, 6,23, 3,0.11815062002005927, 7,14,19,46
1115,24967168983.92082,0.0, 1, 1,17, 7,5100296.478267051, 2,15, 9,45
1128,8181393906.271723,0.0, 1, 1,17, 7,1624699.2937124276, 2,15, 9,15
1153,351734908.773776,0.0, 1, 1,17, 7,142747.3061021922, 1,31, 6,45
1154,1918456801.4060726,0.0, 1, 1, 1, 7,180000.0, 1,17,16,15
1155,1259882312.937438,0.0, 1, 1,12,35,3681254.1478762776,12,28, 6,45
1156,1259882312.937438,0.0, 1, 1,12,35,3681254.1478762776,12,28, 6,45
1292,-1228226477.1663868,-39838.39192750663, 4,17, 2,15,-2142.3719685486167, 8,11,17,26
1306,5935964978.210299,0.0, 1, 1, 1, 7,4050000.0, 1, 2, 7,15
1307,967218600.4186362,0.0, 1, 1, 1, 7,7970357.045803355, 2, 6, 6,60
1308,5935964978.210299,0.0, 1, 1, 1, 7,4050000.0, 1, 2, 7,15
13,48185252014.63011,151703.1275401932, 3,15, 4,60,9425794.569281265,12,28, 8,45
61,15743207428.383959,88139.10953165221, 1, 1, 1,15,1282023.4113694867, 1, 1,20,15
134,3685071073.4325233,63564.01800854099, 1, 2, 4,15,156554.22484006523, 1, 1,20,15
170,273393721.45532674,348.4159749238097, 1, 2, 4,15,17476.39704006126, 1, 1,12,15
207,339560869.0695816,815.2532113832032, 1, 2, 3,15,22990.642799023623, 1, 1,10,15
244,664895467.8009144,1521.856143006317, 1, 2, 4,15,53038.631142310165, 1, 1,20,15
281,2407221015.106824,59938.60262432081, 1, 1, 5,15,81951.81706819107, 1, 1,19,15
318,0.0,0.0, 1, 1, 1,15,0.0, 1, 1, 1,15
355,10310294493.051695,18561.32405820678, 1, 2, 4,15,724774.895203776, 1, 1,18,15
403,10310294493.051695,18561.32405820678, 1, 2, 4,15,724774.895203776, 1, 1,18,15
476,5569688622.066177,7098.072629279515, 1, 2, 4,15,356036.3026282215, 1, 1,12,15
513,0.0,0.0, 1, 1, 1,15,0.0, 1, 1, 1,15
562,1936614384.8625314,0.0, 1, 5,16,15,169481.9134064557, 7,14,19,30
1046,0.0,0.0, 1, 1, 1,15,0.0, 1, 1, 1,15
1096,9172926220.349516,0.0, 1, 1, 1,15,1991131.249390627, 7,23,17,60
1134,11711467929.389093,0.0, 2,21,14,60,5797856.838310827,12,28, 6,15
1326,5935964978.210294,0.0, 1, 1, 1,15,4050000.0, 1, 2, 7,15
1379,0.0,0.0, 1, 1, 1,15,0.0, 1, 1, 1,15
End of Data
 Number of Records Written=          99
