Program Version,EnergyPlus, Version 22.2.0-c249759bad, YMD=2023.09.01 14:31
1,5,Environment Title[],Latitude[deg],Longitude[deg],Time Zone[],Elevation[m]
2,8,Day of Simulation[],Month[],Day of Month[],DST Indicator[1=yes 0=no],Hour[],StartMinute[],EndMinute[],DayType
3,5,Cumulative Day of Simulation[],Month[],Day of Month[],DST Indicator[1=yes 0=no],DayType  ! When Daily Report Variables Requested
4,2,Cumulative Days of Simulation[],Month[]  ! When Monthly Report Variables Requested
5,1,Cumulative Days of Simulation[] ! When Run Period Report Variables Requested
6,1,Calendar Year of Simulation[] ! When Annual Report Variables Requested
7,1,Environment,Site Outdoor Air Drybulb Temperature [C] !Hourly
545,1,LIVING,Zone Mean Air Temperature [C] !Hourly
546,1,ATTIC,Zone Mean Air Temperature [C] !Hourly
547,1,CRAWLSPACE,Zone Mean Air Temperature [C] !Hourly
548,1,FAN,Fan Electricity Rate [W] !Hourly
720,1,LIVING,Zone Predicted Sensible Load to Heating Setpoint Heat Transfer Rate [W] !Hourly
721,1,LIVING,Zone System Predicted Sensible Load to Heating Setpoint Heat Transfer Rate [W] !Hourly
784,1,ATTIC,Zone Predicted Sensible Load to Heating Setpoint Heat Transfer Rate [W] !Hourly
785,1,ATTIC,Zone System Predicted Sensible Load to Heating Setpoint Heat Transfer Rate [W] !Hourly
848,1,CRAWLSPACE,Zone Predicted Sensible Load to Heating Setpoint Heat Transfer Rate [W] !Hourly
849,1,CRAWLSPACE,Zone System Predicted Sensible Load to Heating Setpoint Heat Transfer Rate [W] !Hourly
1121,1,DX_HEATING_COIL,Heating Coil Heating Rate [W] !Hourly
1135,1,DX_HEATING_COIL,Heating Coil Electricity Rate [W] !Hourly
1161,1,DX_HEATING_COIL,Heating Coil Defrost Electricity Rate [W] !Hourly
1163,1,DX_HEATING_COIL,Heating Coil Crankcase Heater Electricity Rate [W] !Hourly
1166,1,HEATING_RESISTANCE_BACKUP,Heating Coil Heating Rate [W] !Hourly
1168,1,HEATING_RESISTANCE_BACKUP,Heating Coil Electricity Rate [W] !Hourly
End of Data Dictionary
1,EXTREME_WINTER,  33.43,-112.02,  -7.00, 337.40
2,1,12,15, 0, 1, 0.00,60.00,Monday
7,13.9
545,22.837805486550927
546,13.150572923481054
547,21.51715718215711
548,0.0
720,-2504.8948346223433
721,-2504.8948346223433
784,0.0
785,0.0
848,0.0
849,0.0
1121,0.0
1135,0.0
1161,0.0
1163,0.0
1166,0.0
1168,0.0
2,1,12,15, 0, 2, 0.00,60.00,Monday
7,14.0
545,22.142217957973592
546,13.760125555386821
547,21.442107129828898
548,0.0
720,-1988.5630823841166
721,-1988.5630823841166
784,0.0
785,0.0
848,0.0
849,0.0
1121,0.0
1135,0.0
1161,0.0
1163,0.0
1166,0.0
1168,0.0
2,1,12,15, 0, 3, 0.00,60.00,Monday
7,13.3
545,21.992121901504127
546,13.559140696067278
547,21.393762021123997
548,0.0
720,-2214.897616972352
721,-2214.897616972352
784,0.0
785,0.0
848,0.0
849,0.0
1121,0.0
1135,0.0
1161,0.0
1163,0.0
1166,0.0
1168,0.0
2,1,12,15, 0, 4, 0.00,60.00,Monday
7,12.8
545,21.135525039694475
546,13.427517102899918
547,21.338279408793362
548,0.0
720,-1401.9467211553683
721,-1401.9467211553683
784,0.0
785,0.0
848,0.0
849,0.0
1121,0.0
1135,0.0
1161,0.0
1163,0.0
1166,0.0
1168,0.0
2,1,12,15, 0, 5, 0.00,60.00,Monday
7,12.2
545,21.273446865748063
546,12.71013926054009
547,21.29199271397748
548,0.0
720,-1894.3464596754711
721,-1894.3464596754711
784,0.0
785,0.0
848,0.0
849,0.0
1121,0.0
1135,0.0
1161,0.0
1163,0.0
1166,0.0
1168,0.0
2,1,12,15, 0, 6, 0.00,60.00,Monday
7,12.2
545,21.32783834997234
546,12.321059464618086
547,21.242480729424546
548,0.0
720,-831.3869646175435
721,-831.3869646175435
784,0.0
785,0.0
848,0.0
849,0.0
1121,0.0
1135,0.0
1161,0.0
1163,0.0
1166,0.0
1168,0.0
2,1,12,15, 0, 7, 0.00,60.00,Monday
7,11.7
545,21.09536752962628
546,11.88301803016527
547,21.191786226254646
548,0.0
720,-769.1205626983337
721,-769.1205626983337
784,0.0
785,0.0
848,0.0
849,0.0
1121,0.0
1135,0.0
1161,0.0
1163,0.0
1166,0.0
1168,0.0
2,1,12,15, 0, 8, 0.00,60.00,Monday
7,11.1
545,20.70607893955516
546,11.494266763895823
547,21.14172782212314
548,0.0
720,-559.3491661757398
721,-559.3491661757398
784,0.0
785,0.0
848,0.0
849,0.0
1121,0.0
1135,0.0
1161,0.0
1163,0.0
1166,0.0
1168,0.0
2,1,12,15, 0, 9, 0.00,60.00,Monday
7,11.1
545,21.501095847973332
546,11.922005042583816
547,21.09660286702663
548,0.0
720,-1124.5345074008928
721,-1124.5345074008928
784,0.0
785,0.0
848,0.0
849,0.0
1121,0.0
1135,0.0
1161,0.0
1163,0.0
1166,0.0
1168,0.0
2,1,12,15, 0,10, 0.00,60.00,Monday
7,11.7
545,22.62365888113478
546,14.829587962306706
547,21.059179870693516
548,0.0
720,-1852.9116411335071
721,-1852.9116411335071
784,0.0
785,0.0
848,0.0
849,0.0
1121,0.0
1135,0.0
1161,0.0
1163,0.0
1166,0.0
1168,0.0
2,1,12,15, 0,11, 0.00,60.00,Monday
7,12.2
545,23.301463776177695
546,21.589566529577404
547,21.042886985596017
548,8.337464170698011
720,-2962.4061848199017
721,-2962.4061848199017
784,0.0
785,0.0
848,0.0
849,0.0
1121,0.0
1135,0.0
1161,0.0
1163,0.0
1166,0.0
1168,0.0
2,1,12,15, 0,12, 0.00,60.00,Monday
7,12.2
545,23.25999651988305
546,25.498583676610302
547,21.054175694303733
548,17.04020466870715
720,-3085.471577264745
721,-3085.471577264745
784,0.0
785,0.0
848,0.0
849,0.0
1121,0.0
1135,0.0
1161,0.0
1163,0.0
1166,0.0
1168,0.0
2,1,12,15, 0,13, 0.00,60.00,Monday
7,14.4
545,23.26495884564855
546,21.26551847503811
547,21.08369072704482
548,21.722449418165336
720,-3494.6156859108396
721,-3494.6156859108396
784,0.0
785,0.0
848,0.0
849,0.0
1121,0.0
1135,0.0
1161,0.0
1163,0.0
1166,0.0
1168,0.0
2,1,12,15, 0,14, 0.00,60.00,Monday
7,16.1
545,23.41377175432998
546,22.058465893764822
547,21.12573442423251
548,29.076260949795213
720,-4099.627254913681
721,-4099.627254913681
784,0.0
785,0.0
848,0.0
849,0.0
1121,0.0
1135,0.0
1161,0.0
1163,0.0
1166,0.0
1168,0.0
2,1,12,15, 0,15, 0.00,60.00,Monday
7,15.0
545,23.38599398404802
546,20.1453519983865
547,21.167510285048927
548,17.730496970824667
720,-3804.962747787322
721,-3804.962747787322
784,0.0
785,0.0
848,0.0
849,0.0
1121,0.0
1135,0.0
1161,0.0
1163,0.0
1166,0.0
1168,0.0
2,1,12,15, 0,16, 0.00,60.00,Monday
7,15.6
545,23.392329429123862
546,21.50950348593776
547,21.224830815319578
548,39.05470769319561
720,-4267.8426768068
721,-4267.8426768068
784,0.0
785,0.0
848,0.0
849,0.0
1121,0.0
1135,0.0
1161,0.0
1163,0.0
1166,0.0
1168,0.0
2,1,12,15, 0,17, 0.00,60.00,Monday
7,15.0
545,23.29965288749453
546,19.877177581699456
547,21.281334661681218
548,59.27765103008332
720,-5630.242936717437
721,-5630.242936717437
784,0.0
785,0.0
848,0.0
849,0.0
1121,0.0
1135,0.0
1161,0.0
1163,0.0
1166,0.0
1168,0.0
2,1,12,15, 0,18, 0.00,60.00,Monday
7,15.0
545,23.333413445166464
546,17.839966541326064
547,21.331959280612367
548,38.14006168861218
720,-5032.2984560361965
721,-5032.2984560361965
784,0.0
785,0.0
848,0.0
849,0.0
1121,0.0
1135,0.0
1161,0.0
1163,0.0
1166,0.0
1168,0.0
2,1,12,15, 0,19, 0.00,60.00,Monday
7,13.3
545,23.200288576236883
546,15.534013555546428
547,21.374360633497933
548,30.197984863227695
720,-4413.294139250362
721,-4413.294139250362
784,0.0
785,0.0
848,0.0
849,0.0
1121,0.0
1135,0.0
1161,0.0
1163,0.0
1166,0.0
1168,0.0
2,1,12,15, 0,20, 0.00,60.00,Monday
7,11.7
545,23.18549574236868
546,13.855707962322015
547,21.39722110448404
548,21.058424534755773
720,-4115.066975812439
721,-4115.066975812439
784,0.0
785,0.0
848,0.0
849,0.0
1121,0.0
1135,0.0
1161,0.0
1163,0.0
1166,0.0
1168,0.0
2,1,12,15, 0,21, 0.00,60.00,Monday
7,11.7
545,23.507673701133704
546,13.163378196632117
547,21.408095113107183
548,13.953938599949455
720,-3746.4597594237694
721,-3746.4597594237694
784,0.0
785,0.0
848,0.0
849,0.0
1121,0.0
1135,0.0
1161,0.0
1163,0.0
1166,0.0
1168,0.0
2,1,12,15, 0,22, 0.00,60.00,Monday
7,11.1
545,23.421199843192998
546,12.535743112978055
547,21.40257857202882
548,12.180651933409912
720,-3307.9054474081913
721,-3307.9054474081913
784,0.0
785,0.0
848,0.0
849,0.0
1121,0.0
1135,0.0
1161,0.0
1163,0.0
1166,0.0
1168,0.0
2,1,12,15, 0,23, 0.00,60.00,Monday
7,11.1
545,23.54673172500356
546,11.937229001617625
547,21.382555210201875
548,0.0
720,-3747.897660802164
721,-3747.897660802164
784,0.0
785,0.0
848,0.0
849,0.0
1121,0.0
1135,0.0
1161,0.0
1163,0.0
1166,0.0
1168,0.0
2,1,12,15, 0,24, 0.00,60.00,Monday
7,11.1
545,23.10790358355729
546,11.681351289738032
547,21.355045539601218
548,0.0
720,-2622.78407042705
721,-2622.78407042705
784,0.0
785,0.0
848,0.0
849,0.0
1121,0.0
1135,0.0
1161,0.0
1163,0.0
1166,0.0
1168,0.0
2,2,12,16, 0, 1, 0.00,60.00,Tuesday
7,17.8
545,23.200085945550107
546,14.893347500855896
547,21.322611388292074
548,0.0
720,-2669.8773079661187
721,-2669.8773079661187
784,0.0
785,0.0
848,0.0
849,0.0
1121,0.0
1135,0.0
1161,0.0
1163,0.0
1166,0.0
1168,0.0
2,2,12,16, 0, 2, 0.00,60.00,Tuesday
7,14.4
545,22.28540284547971
546,14.696476511903173
547,21.284331809425712
548,0.0
720,-2147.7819884505025
721,-2147.7819884505025
784,0.0
785,0.0
848,0.0
849,0.0
1121,0.0
1135,0.0
1161,0.0
1163,0.0
1166,0.0
1168,0.0
2,2,12,16, 0, 3, 0.00,60.00,Tuesday
7,10.6
545,21.663760995102606
546,12.726773315817917
547,21.24967613659238
548,0.0
720,-2002.2218737045114
721,-2002.2218737045114
784,0.0
785,0.0
848,0.0
849,0.0
1121,0.0
1135,0.0
1161,0.0
1163,0.0
1166,0.0
1168,0.0
2,2,12,16, 0, 4, 0.00,60.00,Tuesday
7,10.6
545,21.26208558666252
546,11.952796489283942
547,21.212498759784697
548,0.0
720,-1845.3628932174015
721,-1845.3628932174015
784,0.0
785,0.0
848,0.0
849,0.0
1121,0.0
1135,0.0
1161,0.0
1163,0.0
1166,0.0
1168,0.0
2,2,12,16, 0, 5, 0.00,60.00,Tuesday
7,10.6
545,21.169189037487193
546,11.40449969713393
547,21.17238225965635
548,0.0
720,-1695.9945231670936
721,-1695.9945231670936
784,0.0
785,0.0
848,0.0
849,0.0
1121,0.0
1135,0.0
1161,0.0
1163,0.0
1166,0.0
1168,0.0
2,2,12,16, 0, 6, 0.00,60.00,Tuesday
7,10.6
545,21.140752882202897
546,11.107876953868198
547,21.127679289087396
548,0.0
720,-767.791306521056
721,-767.791306521056
784,0.0
785,0.0
848,0.0
849,0.0
1121,0.0
1135,0.0
1161,0.0
1163,0.0
1166,0.0
1168,0.0
2,2,12,16, 0, 7, 0.00,60.00,Tuesday
7,16.7
545,21.73279547705989
546,13.603719379038845
547,21.081708535713215
548,0.0
720,-1024.4207337572334
721,-1024.4207337572334
784,0.0
785,0.0
848,0.0
849,0.0
1121,0.0
1135,0.0
1161,0.0
1163,0.0
1166,0.0
1168,0.0
2,2,12,16, 0, 8, 0.00,60.00,Tuesday
7,11.7
545,21.170945901107775
546,12.639113232449821
547,21.035095808157436
548,0.0
720,-1026.0550531981917
721,-1026.0550531981917
784,0.0
785,0.0
848,0.0
849,0.0
1121,0.0
1135,0.0
1161,0.0
1163,0.0
1166,0.0
1168,0.0
2,2,12,16, 0, 9, 0.00,60.00,Tuesday
7,12.1
545,20.95363179255218
546,12.636167481100207
547,20.99541515627685
548,0.0
720,-670.0609304891732
721,-670.0609304891732
784,0.0
785,0.0
848,0.0
849,0.0
1121,0.0
1135,0.0
1161,0.0
1163,0.0
1166,0.0
1168,0.0
2,2,12,16, 0,10, 0.00,60.00,Tuesday
7,12.2
545,20.74607275103044
546,12.860620835756903
547,20.956128671411086
548,0.0
720,-567.4551110111643
721,-567.4551110111643
784,0.0
785,0.0
848,0.0
849,0.0
1121,0.0
1135,0.0
1161,0.0
1163,0.0
1166,0.0
1168,0.0
2,2,12,16, 0,11, 0.00,60.00,Tuesday
7,12.1
545,20.626185804280315
546,12.94792330734775
547,20.91911785423722
548,0.0
720,-511.1555423044074
721,-511.1555423044074
784,0.0
785,0.0
848,0.0
849,0.0
1121,0.0
1135,0.0
1161,0.0
1163,0.0
1166,0.0
1168,0.0
2,2,12,16, 0,12, 0.00,60.00,Tuesday
7,12.1
545,20.554822853687803
546,13.190588419713414
547,20.88271730863448
548,0.0
720,-454.3996907984365
721,-454.3996907984365
784,0.0
785,0.0
848,0.0
849,0.0
1121,0.0
1135,0.0
1161,0.0
1163,0.0
1166,0.0
1168,0.0
2,2,12,16, 0,13, 0.00,60.00,Tuesday
7,12.2
545,20.722749105160297
546,14.021751750903245
547,20.849260349667166
548,0.0
720,-539.9091760316169
721,-539.9091760316169
784,0.0
785,0.0
848,0.0
849,0.0
1121,0.0
1135,0.0
1161,0.0
1163,0.0
1166,0.0
1168,0.0
2,2,12,16, 0,14, 0.00,60.00,Tuesday
7,13.9
545,21.55376167051815
546,18.77872303333104
547,20.821511597233236
548,0.0
720,-989.0742708452435
721,-989.0742708452435
784,0.0
785,0.0
848,0.0
849,0.0
1121,0.0
1135,0.0
1161,0.0
1163,0.0
1166,0.0
1168,0.0
2,2,12,16, 0,15, 0.00,60.00,Tuesday
7,14.4
545,21.81546058543219
546,18.834821071818645
547,20.803352546217535
548,0.0
720,-1364.7940223786318
721,-1364.7940223786318
784,0.0
785,0.0
848,0.0
849,0.0
1121,0.0
1135,0.0
1161,0.0
1163,0.0
1166,0.0
1168,0.0
2,2,12,16, 0,16, 0.00,60.00,Tuesday
7,12.8
545,22.094488270717918
546,17.50732126129158
547,20.803580742723373
548,0.0
720,-1375.7804513061083
721,-1375.7804513061083
784,0.0
785,0.0
848,0.0
849,0.0
1121,0.0
1135,0.0
1161,0.0
1163,0.0
1166,0.0
1168,0.0
2,2,12,16, 0,17, 0.00,60.00,Tuesday
7,12.0
545,22.06451583984547
546,15.086416481813579
547,20.813216315706164
548,0.0
720,-1395.9109396601089
721,-1395.9109396601089
784,0.0
785,0.0
848,0.0
849,0.0
1121,0.0
1135,0.0
1161,0.0
1163,0.0
1166,0.0
1168,0.0
2,2,12,16, 0,18, 0.00,60.00,Tuesday
7,10.6
545,21.88572403987744
546,13.350615210108185
547,20.824706562332416
548,0.0
720,-1353.86979947293
721,-1353.86979947293
784,0.0
785,0.0
848,0.0
849,0.0
1121,0.0
1135,0.0
1161,0.0
1163,0.0
1166,0.0
1168,0.0
2,2,12,16, 0,19, 0.00,60.00,Tuesday
7,10.0
545,22.390601406348342
546,12.157894250557238
547,20.83271532082843
548,0.0
720,-1852.2947054704036
721,-1852.2947054704036
784,0.0
785,0.0
848,0.0
849,0.0
1121,0.0
1135,0.0
1161,0.0
1163,0.0
1166,0.0
1168,0.0
2,2,12,16, 0,20, 0.00,60.00,Tuesday
7,10.0
545,22.61151556497006
546,11.525168256533378
547,20.82847971586425
548,0.0
720,-1571.8671811383201
721,-1571.8671811383201
784,0.0
785,0.0
848,0.0
849,0.0
1121,0.0
1135,0.0
1161,0.0
1163,0.0
1166,0.0
1168,0.0
2,2,12,16, 0,21, 0.00,60.00,Tuesday
7,10.0
545,22.893276955675997
546,10.869696472782579
547,20.8166973551976
548,0.0
720,-1640.9396752716384
721,-1640.9396752716384
784,0.0
785,0.0
848,0.0
849,0.0
1121,0.0
1135,0.0
1161,0.0
1163,0.0
1166,0.0
1168,0.0
2,2,12,16, 0,22, 0.00,60.00,Tuesday
7,10.0
545,22.738417261526298
546,10.017316204343663
547,20.798015091226357
548,0.0
720,-1451.8741869074547
721,-1451.8741869074547
784,0.0
785,0.0
848,0.0
849,0.0
1121,0.0
1135,0.0
1161,0.0
1163,0.0
1166,0.0
1168,0.0
2,2,12,16, 0,23, 0.00,60.00,Tuesday
7,10.0
545,22.343478905108434
546,9.310477864491817
547,20.774476140724683
548,0.0
720,-1836.612621247994
721,-1836.612621247994
784,0.0
785,0.0
848,0.0
849,0.0
1121,0.0
1135,0.0
1161,0.0
1163,0.0
1166,0.0
1168,0.0
2,2,12,16, 0,24, 0.00,60.00,Tuesday
7,10.0
545,21.801224871797384
546,8.231721526360124
547,20.745694231317337
548,0.0
720,-1605.1269421496654
721,-1605.1269421496654
784,0.0
785,0.0
848,0.0
849,0.0
1121,0.0
1135,0.0
1161,0.0
1163,0.0
1166,0.0
1168,0.0
2,3,12,17, 0, 1, 0.00,60.00,Wednesday
7,8.9
545,21.17203954165152
546,7.09790646287639
547,20.710395139505888
548,0.0
720,-1344.388683029938
721,-1344.388683029938
784,0.0
785,0.0
848,0.0
849,0.0
1121,0.0
1135,0.0
1161,0.0
1163,200.0
1166,0.0
1168,0.0
2,3,12,17, 0, 2, 0.00,60.00,Wednesday
7,8.9
545,20.73429878293289
546,6.222598446731534
547,20.668993062531023
548,0.0
720,-1137.4037428561533
721,-1137.4037428561533
784,0.0
785,0.0
848,0.0
849,0.0
1121,0.0
1135,0.0
1161,0.0
1163,200.0
1166,0.0
1168,0.0
2,3,12,17, 0, 3, 0.00,60.00,Wednesday
7,8.9
545,20.286607811675385
546,6.840157863916803
547,20.622047289577
548,0.0
720,-902.5749061458537
721,-902.5749061458537
784,0.0
785,0.0
848,0.0
849,0.0
1121,0.0
1135,0.0
1161,0.0
1163,200.0
1166,0.0
1168,0.0
2,3,12,17, 0, 4, 0.00,60.00,Wednesday
7,8.3
545,19.82406335807686
546,7.078352305846019
547,20.572470145518746
548,0.0
720,-647.5320941248829
721,-647.5320941248829
784,0.0
785,0.0
848,0.0
849,0.0
1121,0.0
1135,0.0
1161,0.0
1163,200.0
1166,0.0
1168,0.0
2,3,12,17, 0, 5, 0.00,60.00,Wednesday
7,8.3
545,19.46050456688873
546,7.356798099320286
547,20.51949436257322
548,0.0
720,-455.6722410953071
721,-455.6722410953071
784,0.0
785,0.0
848,0.0
849,0.0
1121,0.0
1135,0.0
1161,0.0
1163,200.0
1166,0.0
1168,0.0
2,3,12,17, 0, 6, 0.00,60.00,Wednesday
7,8.3
545,19.682438535626577
546,7.52926201380522
547,20.460267284537082
548,5.364154231554438
720,200.84042768917516
721,200.84042768917516
784,0.0
785,0.0
848,0.0
849,0.0
1121,226.19519641364008
1135,61.83950775315612
1161,0.0
1163,194.6190204352234
1166,0.0
1168,0.0
2,3,12,17, 0, 7, 0.00,60.00,Wednesday
7,7.8
545,19.696953303194935
546,7.3523384088501285
547,20.404773864984094
548,8.02107184428538
720,281.9862090380393
721,281.9862090380393
784,0.0
785,0.0
848,0.0
849,0.0
1121,334.2520255335792
1135,92.32414953337934
1161,0.0
1163,191.9537690717746
1166,0.0
1168,0.0
2,3,12,17, 0, 8, 0.00,60.00,Wednesday
7,7.8
545,19.76538850116758
546,6.224087190593327
547,20.349242590217806
548,10.32485726901981
720,359.66325762730594
721,359.66325762730594
784,0.0
785,0.0
848,0.0
849,0.0
1121,430.78239022535445
1135,118.86794798129438
1161,0.0
1163,189.64275753910772
1166,0.0
1168,0.0
2,3,12,17, 0, 9, 0.00,60.00,Wednesday
7,8.3
545,19.72402476851008
546,7.8769744284650365
547,20.305058480874962
548,0.0
720,-76.02171926635128
721,-76.02171926635128
784,0.0
785,0.0
848,0.0
849,0.0
1121,0.0
1135,0.0
1161,0.0
1163,200.0
1166,0.0
1168,0.0
2,3,12,17, 0,10, 0.00,60.00,Wednesday
7,9.4
545,20.87807086857508
546,11.000015374576718
547,20.26484069001807
548,0.0
720,-763.4614390993665
721,-763.4614390993665
784,0.0
785,0.0
848,0.0
849,0.0
1121,0.0
1135,0.0
1161,0.0
1163,200.0
1166,0.0
1168,0.0
2,3,12,17, 0,11, 0.00,60.00,Wednesday
7,11.1
545,22.014269172906747
546,16.164869147583854
547,20.248549774780397
548,0.0
720,-1816.1698038829254
721,-1816.1698038829254
784,0.0
785,0.0
848,0.0
849,0.0
1121,0.0
1135,0.0
1161,0.0
1163,0.0
1166,0.0
1168,0.0
2,3,12,17, 0,12, 0.00,60.00,Wednesday
7,11.1
545,22.894928578462235
546,20.41059407387936
547,20.26120856116284
548,0.0
720,-2631.561328262049
721,-2631.561328262049
784,0.0
785,0.0
848,0.0
849,0.0
1121,0.0
1135,0.0
1161,0.0
1163,0.0
1166,0.0
1168,0.0
2,3,12,17, 0,13, 0.00,60.00,Wednesday
7,13.3
545,23.31644982873211
546,25.751937225858004
547,20.30863825639691
548,14.56540381041428
720,-3341.2240108237347
721,-3341.2240108237347
784,0.0
785,0.0
848,0.0
849,0.0
1121,0.0
1135,0.0
1161,0.0
1163,0.0
1166,0.0
1168,0.0
2,3,12,17, 0,14, 0.00,60.00,Wednesday
7,13.9
545,23.253128626195725
546,27.041447582963567
547,20.38484095369508
548,33.54523724543022
720,-3769.1788755230627
721,-3769.1788755230627
784,0.0
785,0.0
848,0.0
849,0.0
1121,0.0
1135,0.0
1161,0.0
1163,0.0
1166,0.0
1168,0.0
2,3,12,17, 0,15, 0.00,60.00,Wednesday
7,15.0
545,23.37815196130836
546,28.35178307064204
547,20.477848613441314
548,54.468142332965705
720,-5157.703445489917
721,-5157.703445489917
784,0.0
785,0.0
848,0.0
849,0.0
1121,0.0
1135,0.0
1161,0.0
1163,0.0
1166,0.0
1168,0.0
2,3,12,17, 0,16, 0.00,60.00,Wednesday
7,14.4
545,23.355948204772687
546,26.20468790140299
547,20.582107113653997
548,69.1944254734904
720,-5974.166378301576
721,-5974.166378301576
784,0.0
785,0.0
848,0.0
849,0.0
1121,0.0
1135,0.0
1161,0.0
1163,0.0
1166,0.0
1168,0.0
2,3,12,17, 0,17, 0.00,60.00,Wednesday
7,14.4
545,23.32499687008313
546,23.614270135345922
547,20.698448899163633
548,64.10193520907553
720,-6040.418909159165
721,-6040.418909159165
784,0.0
785,0.0
848,0.0
849,0.0
1121,0.0
1135,0.0
1161,0.0
1163,0.0
1166,0.0
1168,0.0
2,3,12,17, 0,18, 0.00,60.00,Wednesday
7,14.4
545,23.33872750800751
546,19.927552231543533
547,20.807383479673224
548,42.57185112526066
720,-5218.452809117085
721,-5218.452809117085
784,0.0
785,0.0
848,0.0
849,0.0
1121,0.0
1135,0.0
1161,0.0
1163,0.0
1166,0.0
1168,0.0
2,3,12,17, 0,19, 0.00,60.00,Wednesday
7,12.2
545,23.321284685721388
546,17.219132952100683
547,20.893757270356016
548,35.25146187543576
720,-4709.111102805213
721,-4709.111102805213
784,0.0
785,0.0
848,0.0
849,0.0
1121,0.0
1135,0.0
1161,0.0
1163,0.0
1166,0.0
1168,0.0
2,3,12,17, 0,20, 0.00,60.00,Wednesday
7,11.7
545,23.330212863313303
546,14.709017063714771
547,20.955035354142726
548,30.806703206557795
720,-4482.892823960765
721,-4482.892823960765
784,0.0
785,0.0
848,0.0
849,0.0
1121,0.0
1135,0.0
1161,0.0
1163,0.0
1166,0.0
1168,0.0
2,3,12,17, 0,21, 0.00,60.00,Wednesday
7,11.1
545,23.324175610330183
546,12.469033358682157
547,20.989946592556816
548,24.736954212788365
720,-4169.297120415113
721,-4169.297120415113
784,0.0
785,0.0
848,0.0
849,0.0
1121,0.0
1135,0.0
1161,0.0
1163,0.0
1166,0.0
1168,0.0
2,3,12,17, 0,22, 0.00,60.00,Wednesday
7,11.1
545,23.352630164215086
546,10.513791204848673
547,21.003093611562523
548,15.786562222699263
720,-3703.1336197937544
721,-3703.1336197937544
784,0.0
785,0.0
848,0.0
849,0.0
1121,0.0
1135,0.0
1161,0.0
1163,0.0
1166,0.0
1168,0.0
2,3,12,17, 0,23, 0.00,60.00,Wednesday
7,10.0
545,23.523946300599878
546,9.519917106231231
547,20.9970691781335
548,0.0
720,-3908.034865909931
721,-3908.034865909931
784,0.0
785,0.0
848,0.0
849,0.0
1121,0.0
1135,0.0
1161,0.0
1163,0.0
1166,0.0
1168,0.0
2,3,12,17, 0,24, 0.00,60.00,Wednesday
7,10.0
545,23.055190100346046
546,8.890948326196659
547,20.978564466901044
548,0.0
720,-2693.498161236943
721,-2693.498161236943
784,0.0
785,0.0
848,0.0
849,0.0
1121,0.0
1135,0.0
1161,0.0
1163,0.0
1166,0.0
1168,0.0
2,4,12,18, 0, 1, 0.00,60.00,Thursday
7,8.3
545,22.334768629154343
546,8.098146455824835
547,20.94719019680415
548,0.0
720,-2282.093308107138
721,-2282.093308107138
784,0.0
785,0.0
848,0.0
849,0.0
1121,0.0
1135,0.0
1161,0.0
1163,200.0
1166,0.0
1168,0.0
2,4,12,18, 0, 2, 0.00,60.00,Thursday
7,8.3
545,21.830761029893374
546,7.386743974429232
547,20.90716562602606
548,0.0
720,-2145.778458682171
721,-2145.778458682171
784,0.0
785,0.0
848,0.0
849,0.0
1121,0.0
1135,0.0
1161,0.0
1163,200.0
1166,0.0
1168,0.0
2,4,12,18, 0, 3, 0.00,60.00,Thursday
7,7.8
545,21.253395035849536
546,6.942371584617134
547,20.857148182627682
548,0.0
720,-1672.7921135239667
721,-1672.7921135239667
784,0.0
785,0.0
848,0.0
849,0.0
1121,0.0
1135,0.0
1161,0.0
1163,200.0
1166,0.0
1168,0.0
2,4,12,18, 0, 4, 0.00,60.00,Thursday
7,7.8
545,20.759244384457535
546,6.61285869565917
547,20.800992215705815
548,0.0
720,-1349.981805155643
721,-1349.981805155643
784,0.0
785,0.0
848,0.0
849,0.0
1121,0.0
1135,0.0
1161,0.0
1163,200.0
1166,0.0
1168,0.0
2,4,12,18, 0, 5, 0.00,60.00,Thursday
7,7.2
545,20.318873605969568
546,6.203648429168688
547,20.74038587196295
548,0.0
720,-995.8312487178855
721,-995.8312487178855
784,0.0
785,0.0
848,0.0
849,0.0
1121,0.0
1135,0.0
1161,0.0
1163,200.0
1166,0.0
1168,0.0
2,4,12,18, 0, 6, 0.00,60.00,Thursday
7,7.2
545,20.120117174878665
546,6.001828378007537
547,20.676125016945786
548,0.0
720,-230.73153261231528
721,-230.73153261231528
784,0.0
785,0.0
848,0.0
849,0.0
1121,0.0
1135,0.0
1161,0.0
1163,200.0
1166,0.0
1168,0.0
2,4,12,18, 0, 7, 0.00,60.00,Thursday
7,7.2
545,19.894086959968686
546,5.81864317990143
547,20.61168203044218
548,0.0
720,-97.38683584648334
721,-97.38683584648334
784,0.0
785,0.0
848,0.0
849,0.0
1121,0.0
1135,0.0
1161,0.0
1163,200.0
1166,0.0
1168,0.0
2,4,12,18, 0, 8, 0.00,60.00,Thursday
7,7.8
545,21.941935775081234
546,6.762286137595873
547,20.5004298040278
548,45.002815951338675
720,15.91574201790445
721,15.91574201790445
784,0.0
785,0.0
848,0.0
849,0.0
1121,1912.836338835672
1135,520.0437022837472
1161,0.0
1163,154.85602715017723
1166,0.0
1168,0.0
2,4,12,18, 0, 9, 0.00,60.00,Thursday
7,8.9
545,20.797694459171208
546,8.208961706180709
547,20.484083430486184
548,0.0
720,-1157.5167935269292
721,-1157.5167935269292
784,0.0
785,0.0
848,0.0
849,0.0
1121,0.0
1135,0.0
1161,0.0
1163,200.0
1166,0.0
1168,0.0
2,4,12,18, 0,10, 0.00,60.00,Thursday
7,10.6
545,21.845034491399144
546,11.246028746636641
547,20.427848928070965
548,0.0
720,-1360.6007165518913
721,-1360.6007165518913
784,0.0
785,0.0
848,0.0
849,0.0
1121,0.0
1135,0.0
1161,0.0
1163,0.0
1166,0.0
1168,0.0
2,4,12,18, 0,11, 0.00,60.00,Thursday
7,12.8
545,22.930457184107574
546,16.899995886933812
547,20.404601115271138
548,0.0
720,-2547.7568698448504
721,-2547.7568698448504
784,0.0
785,0.0
848,0.0
849,0.0
1121,0.0
1135,0.0
1161,0.0
1163,0.0
1166,0.0
1168,0.0
2,4,12,18, 0,12, 0.00,60.00,Thursday
7,12.8
545,23.783923599151574
546,21.556752438070177
547,20.410076862649376
548,0.0
720,-3373.7756661937456
721,-3373.7756661937456
784,0.0
785,0.0
848,0.0
849,0.0
1121,0.0
1135,0.0
1161,0.0
1163,0.0
1166,0.0
1168,0.0
2,4,12,18, 0,13, 0.00,60.00,Thursday
7,15.0
545,24.882541059898173
546,28.959767640585508
547,20.447115813392667
548,0.0
720,-4079.6689148384467
721,-4079.6689148384467
784,0.0
785,0.0
848,0.0
849,0.0
1121,0.0
1135,0.0
1161,0.0
1163,0.0
1166,0.0
1168,0.0
2,4,12,18, 0,14, 0.00,60.00,Thursday
7,15.6
545,25.959108146722663
546,32.870193319771026
547,20.50272001446021
548,0.0
720,-5007.1661884591995
721,-5007.1661884591995
784,0.0
785,0.0
848,0.0
849,0.0
1121,0.0
1135,0.0
1161,0.0
1163,0.0
1166,0.0
1168,0.0
2,4,12,18, 0,15, 0.00,60.00,Thursday
7,16.1
545,27.12647139939968
546,34.02008140231399
547,20.594541896724817
548,0.0
720,-5798.5669442285
721,-5798.5669442285
784,0.0
785,0.0
848,0.0
849,0.0
1121,0.0
1135,0.0
1161,0.0
1163,0.0
1166,0.0
1168,0.0
2,4,12,18, 0,16, 0.00,60.00,Thursday
7,16.7
545,28.268210261480434
546,32.415322467333816
547,20.713958917173652
548,0.0
720,-6628.801587756658
721,-6628.801587756658
784,0.0
785,0.0
848,0.0
849,0.0
1121,0.0
1135,0.0
1161,0.0
1163,0.0
1166,0.0
1168,0.0
2,4,12,18, 0,17, 0.00,60.00,Thursday
7,16.1
545,29.053863539961295
546,26.82507412356541
547,20.852881540259812
548,0.0
720,-6642.688723070447
721,-6642.688723070447
784,0.0
785,0.0
848,0.0
849,0.0
1121,0.0
1135,0.0
1161,0.0
1163,0.0
1166,0.0
1168,0.0
2,4,12,18, 0,18, 0.00,60.00,Thursday
7,16.1
545,28.818842226552945
546,22.291278637892045
547,20.99847528960676
548,0.0
720,-6459.924045985483
721,-6459.924045985483
784,0.0
785,0.0
848,0.0
849,0.0
1121,0.0
1135,0.0
1161,0.0
1163,0.0
1166,0.0
1168,0.0
2,4,12,18, 0,19, 0.00,60.00,Thursday
7,14.4
545,28.80227336075919
546,18.516175617645658
547,21.125445291996268
548,0.0
720,-5766.355271941024
721,-5766.355271941024
784,0.0
785,0.0
848,0.0
849,0.0
1121,0.0
1135,0.0
1161,0.0
1163,0.0
1166,0.0
1168,0.0
2,4,12,18, 0,20, 0.00,60.00,Thursday
7,13.3
545,28.769294742442586
546,15.149102384124012
547,21.214181153839757
548,0.0
720,-5876.552378559798
721,-5876.552378559798
784,0.0
785,0.0
848,0.0
849,0.0
1121,0.0
1135,0.0
1161,0.0
1163,0.0
1166,0.0
1168,0.0
2,4,12,18, 0,21, 0.00,60.00,Thursday
7,12.8
545,28.54512741343076
546,13.291777256057378
547,21.261252516641708
548,0.0
720,-5688.298840825064
721,-5688.298840825064
784,0.0
785,0.0
848,0.0
849,0.0
1121,0.0
1135,0.0
1161,0.0
1163,0.0
1166,0.0
1168,0.0
2,4,12,18, 0,22, 0.00,60.00,Thursday
7,11.7
545,28.12740020372148
546,11.26110868235885
547,21.280985645417395
548,0.0
720,-5542.742379968298
721,-5542.742379968298
784,0.0
785,0.0
848,0.0
849,0.0
1121,0.0
1135,0.0
1161,0.0
1163,0.0
1166,0.0
1168,0.0
2,4,12,18, 0,23, 0.00,60.00,Thursday
7,10.0
545,27.29981122791471
546,9.332117857927118
547,21.27932153101016
548,0.0
720,-5872.1498280022915
721,-5872.1498280022915
784,0.0
785,0.0
848,0.0
849,0.0
1121,0.0
1135,0.0
1161,0.0
1163,0.0
1166,0.0
1168,0.0
2,4,12,18, 0,24, 0.00,60.00,Thursday
7,10.0
545,26.535711524416637
546,7.766283086309585
547,21.260292128218527
548,0.0
720,-5771.928941426639
721,-5771.928941426639
784,0.0
785,0.0
848,0.0
849,0.0
1121,0.0
1135,0.0
1161,0.0
1163,0.0
1166,0.0
1168,0.0
2,5,12,19, 0, 1, 0.00,60.00,Friday
7,8.9
545,25.63980964304216
546,6.461121749054477
547,21.225551993103814
548,0.0
720,-5031.877060334096
721,-5031.877060334096
784,0.0
785,0.0
848,0.0
849,0.0
1121,0.0
1135,0.0
1161,0.0
1163,200.0
1166,0.0
1168,0.0
2,5,12,19, 0, 2, 0.00,60.00,Friday
7,8.9
545,24.914838231657228
546,5.410218634395938
547,21.17977345571936
548,0.0
720,-4570.424253546556
721,-4570.424253546556
784,0.0
785,0.0
848,0.0
849,0.0
1121,0.0
1135,0.0
1161,0.0
1163,200.0
1166,0.0
1168,0.0
2,5,12,19, 0, 3, 0.00,60.00,Friday
7,7.8
545,24.113464541829085
546,4.867243447918571
547,21.12410501790478
548,0.0
720,-3827.352663051004
721,-3827.352663051004
784,0.0
785,0.0
848,0.0
849,0.0
1121,0.0
1135,0.0
1161,0.0
1163,200.0
1166,0.0
1168,0.0
2,5,12,19, 0, 4, 0.00,60.00,Friday
7,8.3
545,23.424462984760858
546,5.436412355033718
547,21.061184102657343
548,0.0
720,-3344.155898203733
721,-3344.155898203733
784,0.0
785,0.0
848,0.0
849,0.0
1121,0.0
1135,0.0
1161,0.0
1163,200.0
1166,0.0
1168,0.0
2,5,12,19, 0, 5, 0.00,60.00,Friday
7,7.8
545,22.849214091664166
546,4.7528012341098735
547,20.99535962219321
548,0.0
720,-2810.388601783008
721,-2810.388601783008
784,0.0
785,0.0
848,0.0
849,0.0
1121,0.0
1135,0.0
1161,0.0
1163,200.0
1166,0.0
1168,0.0
2,5,12,19, 0, 6, 0.00,60.00,Friday
7,7.8
545,22.487237560382784
546,4.242213311344761
547,20.92601019224975
548,0.0
720,-1732.8077631755077
721,-1732.8077631755077
784,0.0
785,0.0
848,0.0
849,0.0
1121,0.0
1135,0.0
1161,0.0
1163,200.0
1166,0.0
1168,0.0
2,5,12,19, 0, 7, 0.00,60.00,Friday
7,7.2
545,21.883817591105785
546,5.657977778008905
547,20.853958693648405
548,0.0
720,-1233.929790134789
721,-1233.929790134789
784,0.0
785,0.0
848,0.0
849,0.0
1121,0.0
1135,0.0
1161,0.0
1163,200.0
1166,0.0
1168,0.0
2,5,12,19, 0, 8, 0.00,60.00,Friday
7,8.3
545,21.438081578909465
546,6.852292354680356
547,20.78427134715436
548,0.0
720,-1080.8837663006834
721,-1080.8837663006834
784,0.0
785,0.0
848,0.0
849,0.0
1121,0.0
1135,0.0
1161,0.0
1163,200.0
1166,0.0
1168,0.0
2,5,12,19, 0, 9, 0.00,60.00,Friday
7,8.9
545,21.22482988380606
546,8.052318246542937
547,20.718381190693734
548,0.0
720,-913.0152241122596
721,-913.0152241122596
784,0.0
785,0.0
848,0.0
849,0.0
1121,0.0
1135,0.0
1161,0.0
1163,200.0
1166,0.0
1168,0.0
2,5,12,19, 0,10, 0.00,60.00,Friday
7,10.6
545,21.661591283488136
546,10.972154438394172
547,20.653988170712406
548,0.0
720,-1167.0331858108948
721,-1167.0331858108948
784,0.0
785,0.0
848,0.0
849,0.0
1121,0.0
1135,0.0
1161,0.0
1163,0.0
1166,0.0
1168,0.0
2,5,12,19, 0,11, 0.00,60.00,Friday
7,12.8
545,22.388596901560742
546,14.951896589880395
547,20.60547830051109
548,0.0
720,-1805.3132897374217
721,-1805.3132897374217
784,0.0
785,0.0
848,0.0
849,0.0
1121,0.0
1135,0.0
1161,0.0
1163,0.0
1166,0.0
1168,0.0
2,5,12,19, 0,12, 0.00,60.00,Friday
7,12.8
545,22.98716752390193
546,18.777855232942407
547,20.577641002749473
548,0.0
720,-2285.3464719341773
721,-2285.3464719341773
784,0.0
785,0.0
848,0.0
849,0.0
1121,0.0
1135,0.0
1161,0.0
1163,0.0
1166,0.0
1168,0.0
2,5,12,19, 0,13, 0.00,60.00,Friday
7,16.1
545,24.058862935211252
546,23.346759433278244
547,20.576871650261882
548,0.0
720,-2965.5854782874303
721,-2965.5854782874303
784,0.0
785,0.0
848,0.0
849,0.0
1121,0.0
1135,0.0
1161,0.0
1163,0.0
1166,0.0