Program Version,EnergyPlus, Version 22.2.0-c249759bad, YMD=2023.09.01 14:32
1,5,Environment Title[],Latitude[deg],Longitude[deg],Time Zone[],Elevation[m]
2,8,Day of Simulation[],Month[],Day of Month[],DST Indicator[1=yes 0=no],Hour[],StartMinute[],EndMinute[],DayType
3,5,Cumulative Day of Simulation[],Month[],Day of Month[],DST Indicator[1=yes 0=no],DayType  ! When Daily Report Variables Requested
4,2,Cumulative Days of Simulation[],Month[]  ! When Monthly Report Variables Requested
5,1,Cumulative Days of Simulation[] ! When Run Period Report Variables Requested
6,1,Calendar Year of Simulation[] ! When Annual Report Variables Requested
7,1,Environment,Site Outdoor Air Drybulb Temperature [C] !Hourly
545,1,LIVING,Zone Mean Air Temperature [C] !Hourly
546,1,ATTIC,Zone Mean Air Temperature [C] !Hourly
547,1,CRAWLSPACE,Zone Mean Air Temperature [C] !Hourly
548,1,FAN,Fan Electricity Rate [W] !Hourly
720,1,LIVING,Zone Predicted Sensible Load to Heating Setpoint Heat Transfer Rate [W] !Hourly
721,1,LIVING,Zone System Predicted Sensible Load to Heating Setpoint Heat Transfer Rate [W] !Hourly
784,1,ATTIC,Zone Predicted Sensible Load to Heating Setpoint Heat Transfer Rate [W] !Hourly
785,1,ATTIC,Zone System Predicted Sensible Load to Heating Setpoint Heat Transfer Rate [W] !Hourly
848,1,CRAWLSPACE,Zone Predicted Sensible Load to Heating Setpoint Heat Transfer Rate [W] !Hourly
849,1,CRAWLSPACE,Zone System Predicted Sensible Load to Heating Setpoint Heat Transfer Rate [W] !Hourly
1121,1,DX_HEATING_COIL,Heating Coil Heating Rate [W] !Hourly
1135,1,DX_HEATING_COIL,Heating Coil Electricity Rate [W] !Hourly
1161,1,DX_HEATING_COIL,Heating Coil Defrost Electricity Rate [W] !Hourly
1163,1,DX_HEATING_COIL,Heating Coil Crankcase Heater Electricity Rate [W] !Hourly
1166,1,HEATING_RESISTANCE_BACKUP,Heating Coil Heating Rate [W] !Hourly
1168,1,HEATING_RESISTANCE_BACKUP,Heating Coil Electricity Rate [W] !Hourly
End of Data Dictionary
1,EXTREME_WINTER,  40.78,-111.97,  -7.00,1287.80
2,1, 1, 6, 0, 1, 0.00,60.00,Monday
7,-8.3
545,18.334131635338657
546,-3.771405765406965
547,18.357735517608617
548,124.37872253121209
720,2162.1783258269334
721,2162.1783258269334
784,0.0
785,0.0
848,0.0
849,0.0
1121,2944.6059769426374
1135,1095.1588526208727
1161,41.280250756806616
1163,76.74399668132853
1166,0.0
1168,0.0
2,1, 1, 6, 0, 2, 0.00,60.00,Monday
7,-8.9
545,18.390643349550555
546,-4.149025810116462
547,17.89722321988007
548,160.9604792986414
720,2807.9597072097204
721,2807.9597072097204
784,0.0
785,0.0
848,0.0
849,0.0
1121,3860.692779432114
1135,1413.1671498765968
1161,44.26639643133386
1163,40.76817095610477
1166,0.0
1168,0.0
2,1, 1, 6, 0, 3, 0.00,60.00,Monday
7,-8.9
545,18.44230123965844
546,-4.3052359108614855
547,17.674025560160786
548,185.31157233107749
720,3213.803255134748
721,3213.803255134748
784,0.0
785,0.0
848,0.0
849,0.0
1121,4509.296039874588
1135,1628.0656294937598
1161,50.96341480700167
1163,16.678148477036924
1166,0.0
1168,0.0
2,1, 1, 6, 0, 4, 0.00,60.00,Monday
7,-9.4
545,18.488191237398922
546,-4.21469301854854
547,17.419776058696534
548,204.52944131962843
720,3584.993848089891
721,3584.993848089891
784,0.0
785,0.0
848,0.0
849,0.0
1121,4968.07631809103
1135,1775.8042552672966
1161,50.93964641970737
1163,0.0
1166,128.7294223035069
1168,128.7294223035069
2,1, 1, 6, 0, 5, 0.00,60.00,Monday
7,-10.0
545,18.558763718561682
546,-4.569852131719573
547,17.212812690818694
548,204.52944131962843
720,3756.402405109664
721,3756.402405109664
784,0.0
785,0.0
848,0.0
849,0.0
1121,4857.921003875276
1135,1760.858971526083
1161,56.19583583468845
1163,0.0
1166,491.05023054985577
1168,491.05023054985577
2,1, 1, 6, 0, 6, 0.00,60.00,Monday
7,-10.0
545,19.288454487403985
546,-4.513520720062493
547,17.0174309479074
548,204.52944131962843
720,4803.475937040197
721,4803.475937040197
784,0.0
785,0.0
848,0.0
849,0.0
1121,4856.04661168012
1135,1762.931557735456
1161,56.19583583468845
1163,0.0
1166,1725.4253774050853
1168,1725.4253774050853
2,1, 1, 6, 0, 7, 0.00,60.00,Monday
7,-8.9
545,19.567314711455552
546,-4.337011805000114
547,16.8720331415348
548,204.52944131962843
720,4561.829273157275
721,4561.829273157275
784,0.0
785,0.0
848,0.0
849,0.0
1121,4975.081309887176
1135,1795.9054530948008
1161,62.96055348524247
1163,0.0
1166,1412.872854138036
1168,1412.872854138036
2,1, 1, 6, 0, 8, 0.00,60.00,Monday
7,-11.0
545,19.657872273285687
546,-5.411789544574059
547,16.677855492944076
548,204.52944131962843
720,4731.482922686246
721,4731.482922686246
784,0.0
785,0.0
848,0.0
849,0.0
1121,4666.46734572243
1135,1775.547357926371
1161,59.53756517713539
1163,0.0
1166,1930.5577717639462
1168,1930.5577717639462
2,1, 1, 6, 0, 9, 0.00,60.00,Monday
7,-10.6
545,19.691480707421118
546,-4.434126687613791
547,16.524352684124896
548,204.52944131962843
720,4452.2090888517905
721,4452.2090888517905
784,0.0
785,0.0
848,0.0
849,0.0
1121,4718.7104295406
1135,1783.3809172130327
1161,60.67743843253751
1163,0.0
1166,1629.3869418792979
1168,1629.3869418792979
2,1, 1, 6, 0,10, 0.00,60.00,Monday
7,-8.0
545,19.780856626523182
546,-0.9672863292048479
547,16.38998338184675
548,193.45399070249636
720,3075.914235649985
721,3075.914235649985
784,0.0
785,0.0
848,0.0
849,0.0
1121,4732.841961159792
1135,1727.9183549369397
1161,79.19846447360986
1163,7.742089006153874
1166,0.0
1168,0.0
2,1, 1, 6, 0,11, 0.00,60.00,Monday
7,-7.0
545,19.943720771201097
546,2.3540425808202374
547,16.271078563474454
548,140.0481602870791
720,2228.2088339853053
721,2228.2088339853053
784,0.0
785,0.0
848,0.0
849,0.0
1121,3400.531711656368
1135,1257.7765509833202
1161,61.748409881053774
1163,60.85783241941345
1166,0.0
1168,0.0
2,1, 1, 6, 0,12, 0.00,60.00,Monday
7,-7.2
545,19.91762817678511
546,5.686053965569213
547,16.1647856462541
548,108.77552202277589
720,1776.3650091237505
721,1776.3650091237505
784,0.0
785,0.0
848,0.0
849,0.0
1121,2582.418055796345
1135,980.6745687063677
1161,45.92492163411593
1163,91.97003675218951
1166,0.0
1168,0.0
2,1, 1, 6, 0,13, 0.00,60.00,Monday
7,-6.0
545,19.974983123058422
546,9.702342127132043
547,16.090814461106397
548,69.48172338808384
720,1175.2776431001112
721,1175.2776431001112
784,0.0
785,0.0
848,0.0
849,0.0
1121,1653.08994194174
1135,626.229975525943
1161,34.408221309777446
1163,130.94314079084705
1166,0.0
1168,0.0
2,1, 1, 6, 0,14, 0.00,60.00,Monday
7,-5.0
545,19.92437934296427
546,8.716949634248149
547,16.038187081650765
548,22.50563261407783
720,363.8609747391274
721,363.8609747391274
784,0.0
785,0.0
848,0.0
849,0.0
1121,542.6205991908446
1135,206.26937112800022
1161,9.487752292031557
1163,177.7188494178338
1166,0.0
1168,0.0
2,1, 1, 6, 0,15, 0.00,60.00,Monday
7,-5.0
545,19.879697799932035
546,8.36683293013681
547,16.005566205574397
548,0.0
720,-64.26917247054553
721,-64.26917247054553
784,0.0
785,0.0
848,0.0
849,0.0
1121,0.0
1135,0.0
1161,0.0
1163,200.0
1166,0.0
1168,0.0
2,1, 1, 6, 0,16, 0.00,60.00,Monday
7,-5.0
545,20.128390547032684
546,7.334679520768608
547,15.990705484891032
548,0.0
720,-340.5399787111437
721,-340.5399787111437
784,0.0
785,0.0
848,0.0
849,0.0
1121,0.0
1135,0.0
1161,0.0
1163,200.0
1166,0.0
1168,0.0
2,1, 1, 6, 0,17, 0.00,60.00,Monday
7,-7.2
545,20.172460474129085
546,5.177201548386292
547,15.98966534291717
548,0.0
720,-374.0712678465188
721,-374.0712678465188
784,0.0
785,0.0
848,0.0
849,0.0
1121,0.0
1135,0.0
1161,0.0
1163,200.0
1166,0.0
1168,0.0
2,1, 1, 6, 0,18, 0.00,60.00,Monday
7,-7.2
545,19.698020881226274
546,1.957903823542532
547,15.983771757105407
548,26.988360272256003
720,454.7528639313059
721,454.7528639313059
784,0.0
785,0.0
848,0.0
849,0.0
1121,610.7154026976741
1135,244.38785248944978
1161,11.425367028761588
1163,173.19487911600453
1166,0.0
1168,0.0
2,1, 1, 6, 0,19, 0.00,60.00,Monday
7,-7.8
545,19.703369343746328
546,-0.7264533225155253
547,15.953760428369016
548,49.64032126479669
720,849.6747168474121
721,849.6747168474121
784,0.0
785,0.0
848,0.0
849,0.0
1121,1116.432175302098
1135,442.24282731321273
1161,22.29038394857462
1163,150.6024441519354
1166,0.0
1168,0.0
2,1, 1, 6, 0,20, 0.00,60.00,Monday
7,-7.0
545,19.75688157601735
546,-1.9271045803067532
547,15.913852271166322
548,57.80946531709345
720,976.2361245286775
721,976.2361245286775
784,0.0
785,0.0
848,0.0
849,0.0
1121,1337.2463964959359
1135,517.8320026568555
1161,26.053607243186462
1163,142.54385073473918
1166,0.0
1168,0.0
2,1, 1, 6, 0,21, 0.00,60.00,Monday
7,-6.7
545,19.70963433198628
546,-2.5884645617852695
547,15.855053607538991
548,63.32693896471653
720,1054.8738059580255
721,1054.8738059580255
784,0.0
785,0.0
848,0.0
849,0.0
1121,1483.478290446598
1135,569.3987051018839
1161,28.134989585549434
1163,137.10423707506166
1166,0.0
1168,0.0
2,1, 1, 6, 0,22, 0.00,60.00,Monday
7,-7.0
545,19.654533677191733
546,-2.46250536869726
547,15.778952457369723
548,79.83713843983881
720,1328.672333601853
721,1328.672333601853
784,0.0
785,0.0
848,0.0
849,0.0
1121,1870.0752103045336
1135,715.1045705827082
1161,35.98104290842493
1163,120.65082762745396
1166,0.0
1168,0.0
2,1, 1, 6, 0,23, 0.00,60.00,Monday
7,-7.0
545,18.854363959322125
546,-3.2636596272125
547,15.700583896384355
548,64.10472074225804
720,1006.5510092487257
721,1006.5510092487257
784,0.0
785,0.0
848,0.0
849,0.0
1121,1488.6675005345796
1135,573.5738655411266
1161,28.89059686031082
1163,136.2874234621541
1166,0.0
1168,0.0
2,1, 1, 6, 0,24, 0.00,60.00,Monday
7,-6.7
545,18.56280386127506
546,-3.3414326063750535
547,15.586937855680047
548,90.4620264355787
720,1538.1171340633755
721,1538.1171340633755
784,0.0
785,0.0
848,0.0
849,0.0
1121,2146.370551508154
1135,794.0401798395326
1161,45.14670715777107
1163,109.98143607380197
1166,0.0
1168,0.0
2,2, 1, 7, 0, 1, 0.00,60.00,Tuesday
7,-7.0
545,18.417989251104718
546,-2.8009538339097606
547,15.471317884455914
548,126.11813927657296
720,2213.882592013433
721,2213.882592013433
784,0.0
785,0.0
848,0.0
849,0.0
1121,3058.532799555929
1135,1105.097543198115
1161,55.88964460988393
1163,74.70144008574422
1166,0.0
1168,0.0
2,2, 1, 7, 0, 2, 0.00,60.00,Tuesday
7,-7.0
545,18.484718329186684
546,-2.5377478179102297
547,15.35660132441341
548,151.8582851315137
720,2697.470209431138
721,2697.470209431138
784,0.0
785,0.0
848,0.0
849,0.0
1121,3742.442837464796
1135,1326.5589806718417
1161,67.3397161079301
1163,49.12906044569703
1166,0.0
1168,0.0
2,2, 1, 7, 0, 3, 0.00,60.00,Tuesday
7,-7.2
545,18.503910958775645
546,-2.3125641475746304
547,15.246922558091645
548,170.7993137541228
720,3032.1034530798825
721,3032.1034530798825
784,0.0
785,0.0
848,0.0
849,0.0
1121,4242.4853260853815
1135,1494.7571807055365
1161,72.52467193607114
1163,30.37861764701997
1166,0.0
1168,0.0
2,2, 1, 7, 0, 4, 0.00,60.00,Tuesday
7,-7.0
545,18.557598769597185
546,-2.0097847797872355
547,15.142748971411033
548,176.6521609369083
720,3178.555278260268
721,3178.555278260268
784,0.0
785,0.0
848,0.0
849,0.0
1121,4467.798962185248
1135,1558.9699975634321
1161,64.28205213430611
1163,25.011134010189508
1166,0.0
1168,0.0
2,2, 1, 7, 0, 5, 0.00,60.00,Tuesday
7,-8.0
545,18.525204054136946
546,-2.5924467645299853
547,15.025541581979903
548,196.73887272167806
720,3449.577321357343
721,3449.577321357343
784,0.0
785,0.0
848,0.0
849,0.0
1121,4857.519927828807
1135,1717.0178609693455
1161,80.53402725662261
1163,4.499948992836833
1166,0.0
1168,0.0
2,2, 1, 7, 0, 6, 0.00,60.00,Tuesday
7,-8.3
545,19.261975944073342
546,-2.1051688258224663
547,14.92139980128689
548,204.52944131962843
720,4598.303343051082
721,4598.303343051082
784,0.0
785,0.0
848,0.0
849,0.0
1121,5040.13726759398
1135,1757.8267085290113
1161,76.92509535112772
1163,0.0
1166,1230.9308642541791
1168,1230.9308642541791
2,2, 1, 7, 0, 7, 0.00,60.00,Tuesday
7,-7.8
545,19.562390240546232
546,-1.7471196027655167
547,14.862314477496792
548,204.52944131962843
720,4216.848757632009
721,4216.848757632009
784,0.0
785,0.0
848,0.0
849,0.0
1121,5079.417844422584
1135,1785.3494238056326
1161,80.80164485651783
1163,0.0
1166,827.392724420155
1168,827.392724420155
2,2, 1, 7, 0, 8, 0.00,60.00,Tuesday
7,-7.8
545,19.66748330083788
546,-2.280440209601449
547,14.772202382891464
548,204.52944131962843
720,4023.765645705309
721,4023.765645705309
784,0.0
785,0.0
848,0.0
849,0.0
1121,5070.269546534496
1135,1795.5612975698828
1161,80.83146067594079
1163,0.0
1166,622.9742781339073
1168,622.9742781339073
2,2, 1, 7, 0, 9, 0.00,60.00,Tuesday
7,-7.8
545,19.707967336942474
546,-1.519034656274411
547,14.686115212179944
548,204.52944131962843
720,3497.6950951272884
721,3497.6950951272884
784,0.0
785,0.0
848,0.0
849,0.0
1121,5067.196369441262
1135,1799.0464862695308
1161,80.83146067594079
1163,0.0
1166,56.84677557545592
1168,56.84677557545592
2,2, 1, 7, 0,10, 0.00,60.00,Tuesday
7,-8.0
545,19.786975315566657
546,0.2964116662144723
547,14.599577234820165
548,182.7829313195433
720,2949.2480373957424
721,2949.2480373957424
784,0.0
785,0.0
848,0.0
849,0.0
1121,4394.494560479545
1135,1616.8468555412194
1161,89.29200230669966
1163,17.755161513765884
1166,0.0
1168,0.0
2,2, 1, 7, 0,11, 0.00,60.00,Tuesday
7,-7.0
545,19.948810397887744
546,4.745432115662558
547,14.531135765063782
548,125.35840886482514
720,1997.7525070268002
721,1997.7525070268002
784,0.0
785,0.0
848,0.0
849,0.0
1121,3014.6217046619736
1135,1123.0476272973226
1161,56.496643843084115
1163,75.40767113991733
1166,0.0
1168,0.0
2,2, 1, 7, 0,12, 0.00,60.00,Tuesday
7,-5.6
545,20.01501619645034
546,9.391038617214686
547,14.476012740836541
548,68.01693288685209
720,1128.2255104647102
721,1128.2255104647102
784,0.0
785,0.0
848,0.0
849,0.0
1121,1671.2133533920305
1135,624.4697241714258
1161,23.9237536142791
1163,132.7589927795125
1166,0.0
1168,0.0
2,2, 1, 7, 0,13, 0.00,60.00,Tuesday
7,-4.4
545,19.85117679966754
546,10.98088704334265
547,14.442448899810413
548,30.89444290774096
720,539.8113842146358
721,539.8113842146358
784,0.0
785,0.0
848,0.0
849,0.0
1121,770.349020886325
1135,286.824273602367
1161,10.622890752420824
1163,169.50559198578875
1166,0.0
1168,0.0
2,2, 1, 7, 0,14, 0.00,60.00,Tuesday
7,-4.4
545,19.805902587902782
546,12.183937916062641
547,14.43574868006151
548,11.08143434960295
720,189.72705584654432
721,189.72705584654432
784,0.0
785,0.0
848,0.0
849,0.0
1121,273.55652797077914
1135,102.55068662385038
1161,3.8138510951485056
1163,189.06204451853569
1166,0.0
1168,0.0
2,2, 1, 7, 0,15, 0.00,60.00,Tuesday
7,-4.4
545,20.01778678662942
546,11.768369722972501
547,14.450094524098665
548,0.0
720,-224.26275092626383
721,-224.26275092626383
784,0.0
785,0.0
848,0.0
849,0.0
1121,0.0
1135,0.0
1161,0.0
1163,200.0
1166,0.0
1168,0.0
2,2, 1, 7, 0,16, 0.00,60.00,Tuesday
7,-6.0
545,20.257526473014014
546,7.663811515034646
547,14.4793571729425
548,0.0
720,-443.5935500080741
721,-443.5935500080741
784,0.0
785,0.0
848,0.0
849,0.0
1121,0.0
1135,0.0
1161,0.0
1163,200.0
1166,0.0
1168,0.0
2,2, 1, 7, 0,17, 0.00,60.00,Tuesday
7,-7.0
545,20.2713677476001
546,3.4934036043884804
547,14.514184393618761
548,0.0
720,-449.9308637576869
721,-449.9308637576869
784,0.0
785,0.0
848,0.0
849,0.0
1121,0.0
1135,0.0
1161,0.0
1163,200.0
1166,0.0
1168,0.0
2,2, 1, 7, 0,18, 0.00,60.00,Tuesday
7,-6.7
545,19.705026515325606
546,0.3138816279526236
547,14.553204411521875
548,15.85184453355293
720,271.1892510839589
721,271.1892510839589
784,0.0
785,0.0
848,0.0
849,0.0
1121,365.14488548343337
1135,145.16510770731222
1161,5.711182825904894
1163,184.3033675254967
1166,0.0
1168,0.0
2,2, 1, 7, 0,19, 0.00,60.00,Tuesday
7,-7.0
545,19.688528181101777
546,-1.2608054454440385
547,14.571228505058828
548,37.30784857346342
720,644.5749473133619
721,644.5749473133619
784,0.0
785,0.0
848,0.0
849,0.0
1121,853.4252193619808
1135,333.8085099584192
1161,16.813831716269664
1163,162.92037352855968
1166,0.0
1168,0.0
2,2, 1, 7, 0,20, 0.00,60.00,Tuesday
7,-6.0
545,19.73899592830126
546,-1.853669549497128
547,14.560134767936557
548,45.772538855564974
720,794.8553767091089
721,794.8553767091089
784,0.0
785,0.0
848,0.0
849,0.0
1121,1091.354330645419
1135,414.56818580212826
1161,18.389873101870762
1163,154.6531521747418
1166,0.0
1168,0.0
2,2, 1, 7, 0,21, 0.00,60.00,Tuesday
7,-6.1
545,19.639969237207527
546,-2.105104809819303
547,14.527906875822842
548,56.07150563173525
720,947.1885316361268
721,947.1885316361268
784,0.0
785,0.0
848,0.0
849,0.0
1121,1325.9566502845475
1135,503.72316188139376
1161,26.635086328780734
1163,144.3023372593506
1166,0.0
1168,0.0
2,2, 1, 7, 0,22, 0.00,60.00,Tuesday
7,-7.0
545,19.566609527221065
546,-2.598386245234527
547,14.479095579820314
548,78.04085060627807
720,1307.6368642876678
721,1307.6368642876678
784,0.0
785,0.0
848,0.0
849,0.0
1121,1827.5318887616972
1135,697.2446732890674
1161,35.17105377298172
1163,122.43710068495676
1166,0.0
1168,0.0
2,2, 1, 7, 0,23, 0.00,60.00,Tuesday
7,-6.1
545,18.851725089730664
546,-2.834962384244399
547,14.418083413968452
548,64.11423981089987
720,1049.3981544588096
721,1049.3981544588096
784,0.0
785,0.0
848,0.0
849,0.0
1121,1537.4254874145324
1135,577.7131405317897
1161,26.816186620630994
1163,136.43834094110395
1166,0.0
1168,0.0
2,2, 1, 7, 0,24, 0.00,60.00,Tuesday
7,-6.1
545,18.587385048342192
546,-2.6642393081941647
547,14.341444605118609
548,87.47618257063539
720,1530.9983652635874
721,1530.9983652635874
784,0.0
785,0.0
848,0.0
849,0.0
1121,2134.487021251104
1135,777.146614146235
1161,36.585408442885
1163,113.28262698664066
1166,0.0
1168,0.0
2,3, 1, 8, 0, 1, 0.00,60.00,Wednesday
7,-6.7
545,18.488595907447365
546,-2.4057410323856807
547,14.265338375311705
548,119.94753674310549
720,2112.1017787036926
721,2112.1017787036926
784,0.0
785,0.0
848,0.0
849,0.0
1121,2921.640700234558
1135,1051.770246669894
1161,53.95424886824504
1163,80.85837052606315
1166,0.0
1168,0.0
2,3, 1, 8, 0, 2, 0.00,60.00,Wednesday
7,-6.7
545,18.48500108687755
546,-2.3602049650017998
547,14.182815567756615
548,145.0152822561145
720,2581.644311961727
721,2581.644311961727
784,0.0
785,0.0
848,0.0
849,0.0
1121,3586.8172724307833
1135,1268.8575160346265
1161,65.27273861963826
1163,55.95887120975933
1166,0.0
1168,0.0
2,3, 1, 8, 0, 3, 0.00,60.00,Wednesday
7,-6.7
545,18.5082358486773
546,-2.1829806858027805
547,14.102778979361634
548,163.09864790869582
720,2912.502992843325
721,2912.502992843325
784,0.0
785,0.0
848,0.0
849,0.0
1121,4078.1075432768234
1135,1426.766635154983
1161,73.41215720558104
1163,37.997145294635494
1166,0.0
1168,0.0
2,3, 1, 8, 0, 4, 0.00,60.00,Wednesday
7,-7.2
545,18.507815345651284
546,-2.430070919654644
547,14.017311389142309
548,182.96953228641394
720,3252.44304698594
721,3252.44304698594
784,0.0
785,0.0
848,0.0
849,0.0
1121,4576.299348306494
1135,1599.3328572858336
1161,78.52697437699722
1163,18.261522959388433
1166,0.0
1168,0.0
2,3, 1, 8, 0, 5, 0.00,60.00,Wednesday
7,-7.0
545,18.551376451220243
546,-2.29816390173308
547,13.937443146810613
548,188.98885268603127
720,3346.4397749549644
721,3346.4397749549644
784,0.0
785,0.0
848,0.0
849,0.0
1121,4757.521718398518
1135,1650.105430716196
1161,85.16313269183333
1163,12.1893211114233
1166,0.0
1168,0.0
2,3, 1, 8, 0, 6, 0.00,60.00,Wednesday
7,-7.2
545,19.260200058410227
546,-2.0773960966026737
547,13.856223204541672
548,204.52944131962843
720,4505.227790108431
721,4505.227790108431
784,0.0
785,0.0
848,0.0
849,0.0
1121,5172.14715751681
1135,1761.045479072847
1161,86.46566170680788
1163,0.0
1166,1004.236966610104
1168,1004.236966610104
2,3, 1, 8, 0, 7, 0.00,60.00,Wednesday
7,-7.0
545,19.560697628896943
546,-1.4937837059568895
547,13.814448210186159
548,204.52944131962843
720,4176.121806429821
721,4176.121806429821
784,0.0
785,0.0
848,0.0
849,0.0
1121,5165.252610719856
1135,1782.7018422450647
1161,90.69040503533715
1163,0.0
1166,715.3081768491584
1168,715.3081768491584
2,3, 1, 8, 0, 8, 0.00,60.00,Wednesday
7,-7.2
545,19.668813136346238
546,-1.5164623832386062
547,13.743138326388358
548,204.52944131962843
720,3936.392260385983
721,3936.392260385983
784,0.0
785,0.0
848,0.0
849,0.0
1121,5141.7782035992095
1135,1795.5679090542594
1161,86.49776246350602
1163,0.0
1166,463.7590564005159
1168,463.7590564005159
2,3, 1, 8, 0, 9, 0.00,60.00,Wednesday
7,-7.0
545,19.703810678601705
546,-1.2127422946928634
547,13.676656404307023
548,204.52944131962843
720,3822.4353832031156
721,3822.4353832031156
784,0.0
785,0.0
848,0.0
849,0.0
1121,5154.593829872336
1135,1797.1993983532006
1161,90.2924516423522
1163,0.0
1166,325.68429036089674
1168,325.68429036089674
2,3, 1, 8, 0,10, 0.00,60.00,Wednesday
7,-7.0
545,19.71634516123504
546,-0.6038295724129306
547,13.605220328881668
548,204.52944131962843
720,3787.432476171987
721,3787.432476171987
784,0.0
785,0.0
848,0.0
849,0.0
1121,5152.085620290123
1135,1797.7748336388781
1161,90.69040503533715
1163,0.0
1166,275.5376894505439
1168,275.5376894505439
2,3, 1, 8, 0,11, 0.00,60.00,Wednesday
7,-5.6
545,19.921760596972046
546,5.7130421315353015
547,13.515804489037762
548,135.63621704421016
720,2275.0136703322187
721,2275.0136703322187
784,0.0
785,0.0
848,0.0
849,0.0
1121,3444.3020519327956
1135,1230.7360323846358
1161,54.82154851622449
1163,65.68648387099039
1166,0.0
1168,0.0
2,3, 1, 8, 0,12, 0.00,60.00,Wednesday
7,-5.6
545,19.917305532150582
546,8.880630884799302
547,13.452077713714418
548,95.70467804851127
720,1670.8325460714914
721,1670.8325460714914
784,0.0
785,0.0
848,0.0
849,0.0
1121,2371.6901305248957
1135,871.9788143980289
1161,38.682569600402466
1163,105.22719484296302
1166,0.0
1168,0.0
2,3, 1, 8, 0,13, 0.00,60.00,Wednesday
7,-4.4
545,19.86244692478685
546,10.539099304323763
547,13.424428680147914
548,81.38416015326258
720,1579.839135973616
721,1579.839135973616
784,0.0
785,0.0
848,0.0
849,0.0
1121,2071.738120426334
1135,748.0751785663267
1161,32.65636719292656
1163,119.5393620392117
1166,0.0
1168,0.0
2,3, 1, 8, 0,14, 0.00,60.00,Wednesday
7,-4.0
545,19.764697527121225
546,9.239595518065864
547,13.411422262090426
548,77.43163584246122
720,1578.9613168061678
721,1578.9613168061678
784,0.0
785,0.0
848,0.0
849,0.0
1121,1993.1554193206339
1135,713.9710742062229
1161,30.2130596417058
1163,123.50791824570923
1166,0.0
1168,0.0
2,3, 1, 8, 0,15, 0.00,60.00,Wednesday
7,-3.9
545,19.73443404835587
546,7.836303888588462
547,13.408916050125168
548,82.84716493257405
720,1711.4664387462126
721,1711.4664387462126
784,0.0
785,0.0
848,0.0
849,0.0
1121,2154.2166378914803
1135,765.256298629486
1161,30.282073038585402
1163,118.22229510832707
1166,0.0
1168,0.0
2,3, 1, 8, 0,16, 0.00,60.00,Wednesday
7,-4.0
545,19.714382085438736
546,5.162135443886935
547,13.400495359929696
548,81.15594056325843
720,1637.2880424823907
721,1637.2880424823907
784,0.0
785,0.0
848,0.0
849,0.0
1121,2094.936197996316
1135,746.4019836772129
1161,31.666017913225165
1163,119.8293830622942
1166,0.0
1168,0.0
2,3, 1, 8, 0,17, 0.00,60.00,Wednesday
7,-5.0
545,19.68214483499059
546,4.6862727436913865
547,13.393422618376974
548,85.86669892412998
720,1635.3523646643425
721,1635.3523646643425
784,0.0
785,0.0
848,0.0
849,0.0
1121,2147.514007860118
1135,780.1071596984845
1161,36.88493197443645
1163,114.97133424418426
1166,0.0
1168,0.0
2,3, 1, 8, 0,18, 0.00,60.00,Wednesday
7,-5.0
545,19.699111142046586
546,2.264677136910056
547,13.384402954836363
548,89.88366283872757
720,1703.1122419756448
721,1703.1122419756448
784,0.0
785,0.0
848,0.0
849,0.0
1121,2253.5720100195795
1135,816.06525353404
1161,38.61036979830061
1163,110.9937838420453
1166,0.0
1168,0.0
2,3, 1, 8, 0,19, 0.00,60.00,Wednesday
7,-4.0
545,19.80211250930453
546,1.1451470094476837
547,13.364180907924641
548,80.09410169757055
720,1517.6059944161061
721,1517.6059944161061
784,0.0
785,0.0
848,0.0
849,0.0
1121,2066.6871275831254
1135,736.1136484424551
1161,31.25163935351909
1163,120.8784882850737
1166,0.0
1168,0.0
2,3, 1, 8, 0,20, 0.00,60.00,Wednesday
7,-4.4
545,19.701014635205283
546,-0.007318527776341139
547,13.338819520242001
548,79.9330902317459
720,1462.0222669859104
721,1462.0222669859104
784,0.0
785,0.0
848,0.0
849,0.0
1121,2022.2293838009823
1135,729.4234462985152
1161,35.33603906989719
1163,120.88212489283596
1166,0.0
1168,0.0
2,3, 1, 8, 0,21, 0.00,60.00,Wednesday
7,-4.0
545,19.735205184564755
546,-0.40066851472581855
547,13.307387874615566
548,82.18843305622387
720,1529.8227645150255
721,1529.8227645150255
784,0.0
785,0.0
848,0.0
849,0.0
1121,2123.2802226651606
1135,755.3556372679828
1161,32.064174526116076
1163,118.80971671465387
1166,0.0
1168,0.0
2,3, 1, 8, 0,22, 0.00,60.00,Wednesday
7,-5.0
545,19.51024469285999
546,-0.6827644561399601
547,13.282007265346435
548,106.4509629519585
720,1909.5333582131498
721,1909.5333582131498
784,0.0
785,0.0
848,0.0
849,0.0
1121,2649.013210881469
1135,954.3835929109562
1161,57.81374927404793
1163,94.21672858114334
1166,0.0
1168,0.0
2,3, 1, 8, 0,23, 0.00,60.00,Wednesday
7,-5.0
545,18.850790931589803
546,-1.258865065602893
547,13.21752635146609
548,89.5848399449144
720,1536.857767206273
721,1536.857767206273
784,0.0
785,0.0
848,0.0
849,0.0
1121,2210.447005841236
1135,799.6653561755656
1161,48.65275271927562
1163,110.9788344329377
1166,0.0
1168,0.0
2,3, 1, 8, 0,24, 0.00,60.00,Wednesday
7,-4.4
545,18.601342510372724
546,-0.9642337819927652
547,13.16612281076797
548,107.84515648664546
720,1998.678264043021
721,1998.678264043021
784,0.0
785,0.0
848,0.0
849,0.0
1121,2765.3298427592517
1135,959.406211990914
1161,53.400452638764285
1163,93.09828365637989
1166,0.0
1168,0.0
2,4, 1, 9, 0, 1, 0.00,60.00,Thursday
7,-5.0
545,18.602105206450588
546,-0.914619472788388
547,13.108684030126819
548,130.95686258910672
720,2419.2879796452125
721,2419.2879796452125
784,0.0
785,0.0
848,0.0
849,0.0
1121,3326.961201454199
1135,1147.9115242704188
1161,71.10561434510845
1163,69.87803301657507
1166,0.0
1168,0.0
2,4, 1, 9, 0, 2, 0.00,60.00,Thursday
7,-5.0
545,18.59382827650935
546,-0.73580106309197
547,13.052064475237868
548,141.2034146021635
720,2605.389539028298
721,2605.389539028298
784,0.0
785,0.0
848,0.0
849,0.0
1121,3609.201167045427
1135,1237.6522875283472
1161,76.64814306456798
1163,59.69750523764239
1166,0.0
1168,0.0
2,4, 1, 9, 0, 3, 0.00,60.00,Thursday
7,-5.0
545,18.577681798480253
546,-0.8888029834112756
547,12.992315368616598
548,149.95391121804192
720,2783.268823432345
721,2783.268823432345
784,0.0
785,0.0
848,0.0
849,0.0
1121,3860.172873206048
1135,1315.966235166494
1161,79.5351147019114
1163,51.06052651550552
1166,0.0
1168,0.0
2,4, 1, 9, 0, 4, 0.00,60.00,Thursday
7,-5.0
545,18.576875385715887
546,-0.8751608663640933
547,12.933830908223607
548,157.69163577522704
720,2925.597085048843
721,2925.597085048843
784,0.0
785,0.0
848,0.0
849,0.0
1121,4070.9991205679407
1135,1381.222812468675
1161,85.63371514625804
1163,43.31383718114956
1166,0.0
1168,0.0
2,4, 1, 9, 0, 5, 0.00,60.00,Thursday
7,-6.0
545,18.562531420020115
546,-1.1921352612164082
547,12.870573317957506
548,167.7188154021634
720,3048.317552737548
721,3048.317552737548
784,0.0
785,0.0
848,0.0
849,0.0
1121,4262.792727165644
1135,1467.502303355781
1161,83.04495236914818
1163,33.32984486014485
1166,0.0
1168,0.0
2,4, 1, 9, 0, 6, 0.00,60.00,Thursday
7,-5.6
545,19.22891892974423
546,-0.848303367536637
547,12.832881575148342
548,204.52944131962843
720,4105.822627100682
721,4105.822627100682
784,0.0
785,0.0
848,0.0
849,0.0
1121,5363.281300677762
1135,1764.3742349684928
1161,100.8898851946963
1163,0.0
1166,293.2378759231997
1168,293.2378759231997
2,4, 1, 9, 0, 7, 0.00,60.00,Thursday
7,-5.0
545,19.547788142724492
546,-0.9226968458606024
547,12.813334613631094
548,204.52944131962843
720,3955.932218812657
721,3955.932218812657
784,0.0
785,0.0
848,0.0
849,0.0
1121,5402.570922109198
1135,1785.1088892627106
1161,109.30603392880549
1163,0.0
1166,174.06383249699093
1168,174.06383249699093
2,4, 1, 9, 0, 8, 0.00,60.00,Thursday
7,-7.8
545,19.657957884981887
546,-0.714421227611731
547,12.742336364852143
548,204.52944131962843
720,3945.2995597383015
721,3945.2995597383015
784,0.0
785,0.0
848,0.0
849,0.0
1121,5070.151839252868
1135,1790.5331839084556
1161,81.75063629079128
1163,0.0
1166,527.9102310596345
1168,527.9102310596345
2,4, 1, 9, 0, 9, 0.00,60.00,Thursday
7,-7.8
545,19.69857470824702
546,-1.4711587903792371
547,12.6997589156901
548,204.52944131962843
720,3893.880514334469
721,3893.880514334469
784,0.0
785,0.0
848,0.0
849,0.0
1121,5066.9103292517675
1135,1794.2101643952496
1161,81.75063629079128
1163,0.0
1166,475.98806512246074
1168,475.98806512246074
2,4, 1, 9, 0,10, 0.00,60.00,Thursday
7,-11.0
545,19.70962074379957
546,-1.277667373284845
547,12.612788828061214
548,204.52944131962843
720,3759.4601103978093
721,3759.4601103978093
784,0.0
785,0.0
848,0.0
849,0.0
1121,4668.373176945407
1135,1773.4825695601974
1161,59.53756517713539
1163,0.0
1166,760.1893850061051
1168,760.1893850061051
2,4, 1, 9, 0,11, 0.00,60.00,Thursday
7,-10.0
545,19.82841610636516
546,1.791113294890413
547,12.568307959390292
548,173.79676540453693
720,2632.209936416126
721,2632.209936416126
784,0.0
785,0.0
848,0.0
849,0.0
1121,4038.9066201330925
1135,1546.7397087635843
1161,46.434124561286644
1163,27.914155551666408
1166,0.0
1168,0.0
2,4, 1, 9, 0,12, 0.00,60.00,Thursday
7,-9.4
545,20.01086992457427
546,7.807087668777145
547,12.509347927841612
548,115.2749762735828
720,1687.0839239854358
721,1687.0839239854358
784,0.0
785,0.0
848,0.0
849,0.0
1121,2607.555271371766
1135,1026.1090278614188
1161,38.856459580385646
1163,85.56830994809923
1166,0.0
1168,0.0
2,4, 1, 9, 0,13, 0.00,60.00,Thursday
7,-6.7
545,19.91809650850914
546,8.501511011796136
547,12.486836818834902
548,67.18598206580856
720,1115.1325229914182
721,1115.1325229914182
784,0.0
785,0.0
848,0.0
849,0.0
1121,1595.4640779683168
1135,610.7503993268699
1161,24.354845543398845
1163,133.46834217082812
1166,0.0
1168,0.0
2,4, 1, 9, 0,14, 0.00,60.00,Thursday
7,-5.6
545,20.017605465344175
546,10.225009785658758
547,12.47926846342583
548,33.45667738832502
720,569.8009452447332
721,569.8009452447332
784,0.0
785,0.0
848,0.0
849,0.0
1121,806.4321729616184
1135,306.32026738062905
1161,11.890631840105883
1163,166.9213326901555
1166,0.0
1168,0.0
2,4, 1, 9, 0,15, 0.00,60.00,Thursday
7,-5.6
545,19.83863862400092
546,9.897346155503648
547,12.49073004971291
548,2.5617123977482095
720,7.4558707816595415
721,7.4558707816595415
784,0.0
785,0.0
848,0.0
849,0.0
1121,60.67135123259611
1135,23.50292183379832
1161,0.9104484944439946
1163,197.46721425274626
1166,0.0
1168,0.0
2,4, 1, 9, 0,16, 0.00,60.00,Thursday
7,-6.7