Program Version,EnergyPlus, Version 22.2.0-c249759bad, YMD=2023.09.01 14:31
1,5,Environment Title[],Latitude[deg],Longitude[deg],Time Zone[],Elevation[m]
2,8,Day of Simulation[],Month[],Day of Month[],DST Indicator[1=yes 0=no],Hour[],StartMinute[],EndMinute[],DayType
3,5,Cumulative Day of Simulation[],Month[],Day of Month[],DST Indicator[1=yes 0=no],DayType  ! When Daily Report Variables Requested
4,2,Cumulative Days of Simulation[],Month[]  ! When Monthly Report Variables Requested
5,1,Cumulative Days of Simulation[] ! When Run Period Report Variables Requested
6,1,Calendar Year of Simulation[] ! When Annual Report Variables Requested
7,1,Environment,Site Outdoor Air Drybulb Temperature [C] !Hourly
545,1,LIVING,Zone Mean Air Temperature [C] !Hourly
546,1,ATTIC,Zone Mean Air Temperature [C] !Hourly
547,1,CRAWLSPACE,Zone Mean Air Temperature [C] !Hourly
548,1,FAN,Fan Electricity Rate [W] !Hourly
720,1,LIVING,Zone Predicted Sensible Load to Heating Setpoint Heat Transfer Rate [W] !Hourly
721,1,LIVING,Zone System Predicted Sensible Load to Heating Setpoint Heat Transfer Rate [W] !Hourly
784,1,ATTIC,Zone Predicted Sensible Load to Heating Setpoint Heat Transfer Rate [W] !Hourly
785,1,ATTIC,Zone System Predicted Sensible Load to Heating Setpoint Heat Transfer Rate [W] !Hourly
848,1,CRAWLSPACE,Zone Predicted Sensible Load to Heating Setpoint Heat Transfer Rate [W] !Hourly
849,1,CRAWLSPACE,Zone System Predicted Sensible Load to Heating Setpoint Heat Transfer Rate [W] !Hourly
1121,1,DX_HEATING_COIL,Heating Coil Heating Rate [W] !Hourly
1135,1,DX_HEATING_COIL,Heating Coil Electricity Rate [W] !Hourly
1161,1,DX_HEATING_COIL,Heating Coil Defrost Electricity Rate [W] !Hourly
1163,1,DX_HEATING_COIL,Heating Coil Crankcase Heater Electricity Rate [W] !Hourly
1166,1,HEATING_RESISTANCE_BACKUP,Heating Coil Heating Rate [W] !Hourly
1168,1,HEATING_RESISTANCE_BACKUP,Heating Coil Electricity Rate [W] !Hourly
End of Data Dictionary
1,EXTREME_WINTER,  40.70, -74.17,  -5.00,   9.00
2,1, 1,27, 0, 1, 0.00,60.00,Monday
7,0.6
545,18.47321957261494
546,0.9325657176988428
547,19.638326256042536
548,51.01915225376366
720,1196.5238858772436
721,1196.5238858772436
784,0.0
785,0.0
848,0.0
849,0.0
1121,1600.9632131565595
1135,508.31716398940404
1161,0.02487576757029747
1163,130.56611756182144
1166,0.0
1168,0.0
2,1, 1,27, 0, 2, 0.00,60.00,Monday
7,0.6
545,18.51444809930489
546,1.1500518005126057
547,19.342543284781513
548,69.24438465570508
720,1654.1819455720615
721,1654.1819455720615
784,0.0
785,0.0
848,0.0
849,0.0
1121,2205.354264395304
1135,688.3478129525628
1161,0.03376197243934849
1163,105.7627139098279
1166,0.0
1168,0.0
2,1, 1,27, 0, 3, 0.00,60.00,Monday
7,-0.6
545,18.556745506546026
546,0.7901299031845819
547,19.1683851773219
548,84.67727598998138
720,1956.101611815233
721,1956.101611815233
784,0.0
785,0.0
848,0.0
849,0.0
1121,2642.5319095051227
1135,833.292375037197
1161,0.041286752649672104
1163,84.75935379158193
1166,0.0
1168,0.0
2,1, 1,27, 0, 4, 0.00,60.00,Monday
7,-0.6
545,18.590270015548455
546,0.651437091731843
547,18.993855992924367
548,92.87128478479035
720,2125.1007556736167
721,2125.1007556736167
784,0.0
785,0.0
848,0.0
849,0.0
1121,2913.278681882877
1135,913.4921649657426
1161,0.8607918731110084
1163,73.59048134350084
1166,0.0
1168,0.0
2,1, 1,27, 0, 5, 0.00,60.00,Monday
7,-1.1
545,18.583480894444953
546,0.36440419779093747
547,18.836072830782516
548,96.42475896952249
720,2141.4528051484613
721,2141.4528051484613
784,0.0
785,0.0
848,0.0
849,0.0
1121,2979.7221915382306
1135,941.4201443828752
1161,3.6667788531037364
1163,68.68842312606482
1166,0.0
1168,0.0
2,1, 1,27, 0, 6, 0.00,60.00,Monday
7,-1.1
545,19.24456665961952
546,0.6471531829031638
547,18.647690442113895
548,134.1363027434411
720,3136.197876436514
721,3136.197876436514
784,0.0
785,0.0
848,0.0
849,0.0
1121,4275.76657633975
1135,1309.0065147051118
1161,5.096822561357159
1163,17.332816676328733
1166,0.0
1168,0.0
2,1, 1,27, 0, 7, 0.00,60.00,Monday
7,-1.7
545,19.538586587238857
546,0.5549305137298274
547,18.526593882173184
548,140.92877095168453
720,3119.3087082419297
721,3119.3087082419297
784,0.0
785,0.0
848,0.0
849,0.0
1121,4403.765726433348
1135,1379.1986571754737
1161,11.051430781386975
1163,7.926668729880526
1166,0.0
1168,0.0
2,1, 1,27, 0, 8, 0.00,60.00,Monday
7,-1.7
545,19.70745351321699
546,0.5205228288932942
547,18.409737932953405
548,127.38392738957724
720,2697.3447064540433
721,2697.3447064540433
784,0.0
785,0.0
848,0.0
849,0.0
1121,3929.87874269899
1135,1253.853186871313
1161,9.989285709167646
1163,26.38669859831215
1166,0.0
1168,0.0
2,1, 1,27, 0, 9, 0.00,60.00,Monday
7,1.1
545,19.87970868509551
546,2.3343446750220647
547,18.333703740213753
548,77.23512275001897
720,1626.5022659324004
721,1626.5022659324004
784,0.0
785,0.0
848,0.0
849,0.0
1121,2494.550040373545
1135,789.3112610482276
1161,0.03765805353913761
1163,94.88787210694107
1166,0.0
1168,0.0
2,1, 1,27, 0,10, 0.00,60.00,Monday
7,2.2
545,19.854828541171436
546,4.397057966948899
547,18.241813502064684
548,39.18726481515166
720,787.0990375800993
721,787.0990375800993
784,0.0
785,0.0
848,0.0
849,0.0
1121,1264.0363070235394
1135,405.89802531799234
1161,0.01910677881766777
1163,146.66866739089892
1166,0.0
1168,0.0
2,1, 1,27, 0,11, 0.00,60.00,Monday
7,3.3
545,20.007040857546976
546,7.590680268661963
547,18.176608015097038
548,4.699656315398948
720,13.112987623237132
721,13.112987623237132
784,0.0
785,0.0
848,0.0
849,0.0
1121,152.02151400092092
1135,49.15953317120411
1161,0.002291438185809842
1163,193.60407878236293
1166,0.0
1168,0.0
2,1, 1,27, 0,12, 0.00,60.00,Monday
7,5.0
545,19.93386131345346
546,8.795664880280716
547,18.127552627102574
548,0.0
720,-459.82892643062587
721,-459.82892643062587
784,0.0
785,0.0
848,0.0
849,0.0
1121,0.0
1135,0.0
1161,0.0
1163,200.0
1166,0.0
1168,0.0
2,1, 1,27, 0,13, 0.00,60.00,Monday
7,4.4
545,19.74808934135563
546,8.122219349801123
547,18.104918673960984
548,4.315808107100001
720,91.69641353450788
721,91.69641353450788
784,0.0
785,0.0
848,0.0
849,0.0
1121,143.5647518457117
1135,45.688176092397214
1161,0.0021042809444327187
1163,194.1264768896177
1166,0.0
1168,0.0
2,1, 1,27, 0,14, 0.00,60.00,Monday
7,4.4
545,19.711035926864444
546,7.302229373468834
547,18.087328624520204
548,12.45206030543731
720,333.84155427496444
721,333.84155427496444
784,0.0
785,0.0
848,0.0
849,0.0
1121,417.12291495928747
1135,131.34153842302038
1161,0.0060713156179981005
1163,183.05358764613524
1166,0.0
1168,0.0
2,1, 1,27, 0,15, 0.00,60.00,Monday
7,3.9
545,19.644746713875843
546,7.094718600040067
547,18.073368796091657
548,0.0
720,-18.32978631480364
721,-18.32978631480364
784,0.0
785,0.0
848,0.0
849,0.0
1121,0.0
1135,0.0
1161,0.0
1163,200.0
1166,0.0
1168,0.0
2,1, 1,27, 0,16, 0.00,60.00,Monday
7,2.8
545,19.752536203898316
546,6.320345709944613
547,18.056863641412523
548,0.0
720,-26.57985842283597
721,-26.57985842283597
784,0.0
785,0.0
848,0.0
849,0.0
1121,0.0
1135,0.0
1161,0.0
1163,200.0
1166,0.0
1168,0.0
2,1, 1,27, 0,17, 0.00,60.00,Monday
7,2.8
545,20.178578040095072
546,5.558769288852282
547,18.051562583180573
548,0.0
720,-406.8536986948857
721,-406.8536986948857
784,0.0
785,0.0
848,0.0
849,0.0
1121,0.0
1135,0.0
1161,0.0
1163,200.0
1166,0.0
1168,0.0
2,1, 1,27, 0,18, 0.00,60.00,Monday
7,2.2
545,19.730971796796496
546,4.1478438346114075
547,18.044183760726803
548,0.0
720,-7.251321583977187
721,-7.251321583977187
784,0.0
785,0.0
848,0.0
849,0.0
1121,0.0
1135,0.0
1161,0.0
1163,200.0
1166,0.0
1168,0.0
2,1, 1,27, 0,19, 0.00,60.00,Monday
7,1.7
545,19.72155278073231
546,3.028414995739606
547,18.022386948331985
548,7.2149623736711845
720,159.2333829273357
721,159.2333829273357
784,0.0
785,0.0
848,0.0
849,0.0
1121,224.2963924691242
1135,74.16718095468002
1161,0.003517845966998535
1163,190.1808978308734
1166,0.0
1168,0.0
2,1, 1,27, 0,20, 0.00,60.00,Monday
7,1.7
545,19.71224866830407
546,2.4007255020774227
547,17.98412669112858
548,12.230439660587995
720,287.4340981663736
721,287.4340981663736
784,0.0
785,0.0
848,0.0
849,0.0
1121,381.6783126126248
1135,125.6953277501466
1161,0.005963274732956067
1163,183.35515414410665
1166,0.0
1168,0.0
2,1, 1,27, 0,21, 0.00,60.00,Monday
7,0.6
545,19.833182769995776
546,1.7057939340139296
547,17.931219796427367
548,18.9436689209356
720,431.4539162300207
721,431.4539162300207
784,0.0
785,0.0
848,0.0
849,0.0
1121,576.9474178167293
1135,192.7333576416539
1161,0.009236498443500298
1163,174.21884791076016
1166,0.0
1168,0.0
2,1, 1,27, 0,22, 0.00,60.00,Monday
7,-1.1
545,19.38545910492
546,1.0534183363585707
547,17.861375410734258
548,28.630665973791128
720,606.7847451093248
721,606.7847451093248
784,0.0
785,0.0
848,0.0
849,0.0
1121,827.8580506397221
1135,284.5534818168072
1161,2.4924876352611314
1163,160.97766812370637
1166,0.0
1168,0.0
2,1, 1,27, 0,23, 0.00,60.00,Monday
7,-1.1
545,18.722292064995823
546,0.6300183259350557
547,17.786340352255113
548,26.258599747425393
720,529.6479266376282
721,529.6479266376282
784,0.0
785,0.0
848,0.0
849,0.0
1121,754.3639948630889
1135,257.0842735387256
1161,3.565234999029211
1163,164.18058909825695
1166,0.0
1168,0.0
2,1, 1,27, 0,24, 0.00,60.00,Monday
7,-0.6
545,18.59934068295415
546,0.7955136796248602
547,17.688164015428136
548,42.767552433176455
720,932.8299026732129
721,932.8299026732129
784,0.0
785,0.0
848,0.0
849,0.0
1121,1264.0047239310315
1135,414.40261843517027
1161,6.231343328314649
1163,141.66164341272017
1166,0.0
1168,0.0
2,2, 1,28, 0, 1, 0.00,60.00,Tuesday
7,-1.7
545,18.396766887365864
546,0.6639350363696931
547,17.578610736688375
548,65.32228603728223
720,1411.3368286244386
721,1411.3368286244386
784,0.0
785,0.0
848,0.0
849,0.0
1121,1913.598986234153
1135,627.2487258054109
1161,8.131036947267194
1163,110.89505985681112
1166,0.0
1168,0.0
2,2, 1,28, 0, 2, 0.00,60.00,Tuesday
7,-1.7
545,18.45865098523034
546,0.8206894915538322
547,17.46492155359642
548,88.1232860939298
720,1929.656750296368
721,1929.656750296368
784,0.0
785,0.0
848,0.0
849,0.0
1121,2631.695326202268
1135,842.6311728265231
1161,10.969179718641898
1163,79.79293310455682
1166,0.0
1168,0.0
2,2, 1,28, 0, 3, 0.00,60.00,Tuesday
7,-2.8
545,18.468025140261734
546,0.41974386782153333
547,17.348867788370164
548,110.5946733567086
720,2339.181653698046
721,2339.181653698046
784,0.0
785,0.0
848,0.0
849,0.0
1121,3237.820943380351
1135,1042.5861368562082
1161,19.415953187344154
1163,48.916056421811135
1166,0.0
1168,0.0
2,2, 1,28, 0, 4, 0.00,60.00,Tuesday
7,-1.1
545,18.62831700847111
546,0.4613808099499812
547,17.270686544609568
548,103.83603686566427
720,2254.1900339548847
721,2254.1900339548847
784,0.0
785,0.0
848,0.0
849,0.0
1121,3186.742359978272
1135,997.4799780415585
1161,14.110385859393467
1163,58.35835389985582
1166,0.0
1168,0.0
2,2, 1,28, 0, 5, 0.00,60.00,Tuesday
7,-1.1
545,18.598068120045895
546,0.6658338377336702
547,17.17391329053306
548,104.52765080672391
720,2237.6437047679683
721,2237.6437047679683
784,0.0
785,0.0
848,0.0
849,0.0
1121,3185.254902947494
1135,1001.0799141646778
1161,19.24269338110392
1163,57.29465892465419
1166,0.0
1168,0.0
2,2, 1,28, 0, 6, 0.00,60.00,Tuesday
7,0.0
545,19.304441880955284
546,1.8259489656693293
547,17.07242072900191
548,132.809723989126
720,3135.381577345848
721,3135.381577345848
784,0.0
785,0.0
848,0.0
849,0.0
1121,4317.480182769196
1135,1295.609859784364
1161,13.993428131142545
1163,18.982122024012504
1166,0.0
1168,0.0
2,2, 1,28, 0, 7, 0.00,60.00,Tuesday
7,0.0
545,19.589991217488784
546,2.1156331392922363
547,17.013353050635118
548,131.60973223105918
720,3027.604833220257
721,3027.604833220257
784,0.0
785,0.0
848,0.0
849,0.0
1121,4259.421417989032
1135,1301.7114566240086
1161,13.872474220431382
1163,20.616649195542113
1166,0.0
1168,0.0
2,2, 1,28, 0, 8, 0.00,60.00,Tuesday
7,0.0
545,19.70861737877444
546,2.4180134158988738
547,16.937684627985234
548,122.99140347450154
720,2769.025492402432
721,2769.025492402432
784,0.0
785,0.0
848,0.0
849,0.0
1121,3946.575782725187
1135,1223.2981664600807
1161,12.964077275077031
1163,32.36302445124113
1166,0.0
1168,0.0
2,2, 1,28, 0, 9, 0.00,60.00,Tuesday
7,-1.0
545,19.7090829109803
546,2.9525774124193553
547,16.857281049991396
548,132.00432216625583
720,2747.3676128438183
721,2747.3676128438183
784,0.0
785,0.0
848,0.0
849,0.0
1121,3937.9012891369243
1135,1245.2482725269542
1161,61.906736211375765
1163,18.861663246040372
1166,0.0
1168,0.0
2,2, 1,28, 0,10, 0.00,60.00,Tuesday
7,-1.0
545,19.73264297857895
546,3.3655965027457984
547,16.783462629765683
548,129.6448010885502
720,2646.6129419210465
721,2646.6129419210465
784,0.0
785,0.0
848,0.0
849,0.0
1121,3800.796403310513
1135,1206.288387288322
1161,74.3177160546867
1163,21.74950603298875
1166,0.0
1168,0.0
2,2, 1,28, 0,11, 0.00,60.00,Tuesday
7,0.0
545,19.783196525324936
546,4.830952735604614
547,16.71925689064373
548,115.3222954888848
720,2319.4302789127632
721,2319.4302789127632
784,0.0
785,0.0
848,0.0
849,0.0
1121,3349.415453832157
1135,1057.6719679335322
1161,84.70685564636003
1163,41.246001132640984
1166,0.0
1168,0.0
2,2, 1,28, 0,12, 0.00,60.00,Tuesday
7,1.0
545,19.763615241677414
546,5.451497284325967
547,16.653351374939273
548,92.89599219207729
720,1961.327301396197
721,1961.327301396197
784,0.0
785,0.0
848,0.0
849,0.0
1121,2789.6816981416687
1135,878.8653069459186
1161,52.74986124013791
1163,72.65029819337052
1166,0.0
1168,0.0
2,2, 1,28, 0,13, 0.00,60.00,Tuesday
7,3.3
545,19.935340711895556
546,9.013247454112387
547,16.599579994058843
548,55.950999808805314
720,1206.7302031024756
721,1206.7302031024756
784,0.0
785,0.0
848,0.0
849,0.0
1121,1745.7529788701518
1135,542.4226673416526
1161,29.145251166183538
1163,123.55270238429748
1166,0.0
1168,0.0
2,2, 1,28, 0,14, 0.00,60.00,Tuesday
7,3.3
545,19.86398958118145
546,11.699043746667666
547,16.553931712150572
548,20.40165034838815
720,395.488774310159
721,395.488774310159
784,0.0
785,0.0
848,0.0
849,0.0
1121,618.7767368482998
1135,198.47022256561468
1161,10.627391429824204
1163,172.12460613628252
1166,0.0
1168,0.0
2,2, 1,28, 0,15, 0.00,60.00,Tuesday
7,5.6
545,19.973892195968087
546,10.92729635610434
547,16.53705743486386
548,0.0
720,-293.82370993153927
721,-293.82370993153927
784,0.0
785,0.0
848,0.0
849,0.0
1121,0.0
1135,0.0
1161,0.0
1163,200.0
1166,0.0
1168,0.0
2,2, 1,28, 0,16, 0.00,60.00,Tuesday
7,5.6
545,19.760499238745904
546,8.782357553505333
547,16.55397974605331
548,4.915797605204558
720,120.48593996825366
721,120.48593996825366
784,0.0
785,0.0
848,0.0
849,0.0
1121,192.86295426173658
1135,55.163515824960115
1161,0.0
1163,193.30994790859754
1166,0.0
1168,0.0
2,2, 1,28, 0,17, 0.00,60.00,Tuesday
7,3.9
545,20.03982138378783
546,6.602684740863871
547,16.590483212189234
548,6.391160563002607
720,158.7735733087302
721,158.7735733087302
784,0.0
785,0.0
848,0.0
849,0.0
1121,210.44090093089386
1135,66.99948575437149
1161,0.0031161727454869993
1163,191.30205846087935
1166,0.0
1168,0.0
2,2, 1,28, 0,18, 0.00,60.00,Tuesday
7,2.8
545,19.220776703925655
546,4.439634203883425
547,16.625320493674543
548,17.743061488107063
720,449.13103827459236
721,449.13103827459236
784,0.0
785,0.0
848,0.0
849,0.0
1121,571.8124469318388
1135,185.06473252835687
1161,0.008651089775863825
1163,175.8528556450781
1166,0.0
1168,0.0
2,2, 1,28, 0,19, 0.00,60.00,Tuesday
7,0.0
545,19.13064813978547
546,2.8668769477284837
547,16.626650716521514
548,57.00515830047703
720,1374.168565415237
721,1374.168565415237
784,0.0
785,0.0
848,0.0
849,0.0
1121,1763.9966091718004
1135,570.4543857828029
1161,0.027794425963165836
1163,122.41948316531736
1166,0.0
1168,0.0
2,2, 1,28, 0,20, 0.00,60.00,Tuesday
7,0.0
545,19.476775500149795
546,2.3450793757936963
547,16.613350607945545
548,86.73681337764687
720,2066.131631804983
721,2066.131631804983
784,0.0
785,0.0
848,0.0
849,0.0
1121,2749.2337734821745
1135,866.3200887944051
1161,0.042290908428777134
1163,81.95652834633829
1166,0.0
1168,0.0
2,2, 1,28, 0,21, 0.00,60.00,Tuesday
7,-4.4
545,19.012212815926727
546,-1.0868496443605689
547,16.545424977811795
548,142.6164904169779
720,3032.3963731075364
721,3032.3963731075364
784,0.0
785,0.0
848,0.0
849,0.0
1121,4178.068834529719
1135,1380.84044870172
1161,0.06953697093974501
1163,5.906617687553917
1166,0.0
1168,0.0
2,2, 1,28, 0,22, 0.00,60.00,Tuesday
7,-5.6
545,19.419153761693845
546,-2.2352658645739307
547,16.475866114383823
548,146.95842537674537
720,3270.1316396155144
721,3270.1316396155144
784,0.0
785,0.0
848,0.0
849,0.0
1121,4184.5314366116045
1135,1395.7699352420577
1161,0.07165310853082703
1163,0.0
1166,559.1091749618463
1168,559.1091749618463
2,2, 1,28, 0,23, 0.00,60.00,Tuesday
7,-6.1
545,18.895696358520624
546,-3.6743098888215067
547,16.413008340978294
548,146.95842537674537
720,2919.7162359561044
721,2919.7162359561044
784,0.0
785,0.0
848,0.0
849,0.0
1121,4114.507488170746
1135,1400.7618101260473
1161,0.07165310853082703
1163,0.0
1166,365.47526268752245
1168,365.47526268752245
2,2, 1,28, 0,24, 0.00,60.00,Tuesday
7,-6.7
545,18.70407303076542
546,-3.5784183952538053
547,16.302096941697563
548,146.95842537674537
720,3078.3686210950855
721,3078.3686210950855
784,0.0
785,0.0
848,0.0
849,0.0
1121,4054.693347871159
1135,1379.5577164577678
1161,0.07165310853082703
1163,0.0
1166,644.3205866427893
1168,644.3205866427893
2,3, 1,29, 0, 1, 0.00,60.00,Wednesday
7,-7.2
545,18.60163098707123
546,-4.364379110891354
547,16.18099568770196
548,146.95842537674537
720,4512.468493112259
721,4512.468493112259
784,0.0
785,0.0
848,0.0
849,0.0
1121,3999.748984510681
1135,1368.460097825153
1161,0.07165310853082703
1163,0.0
1166,2356.741846366967
1168,2356.741846366967
2,3, 1,29, 0, 2, 0.00,60.00,Wednesday
7,-7.2
545,18.577020998388583
546,-4.444468941058281
547,16.065208333021623
548,146.95842537674537
720,4916.707435349748
721,4916.707435349748
784,0.0
785,0.0
848,0.0
849,0.0
1121,4002.256663710253
1135,1365.5932594216595
1161,0.07165310853082703
1163,0.0
1166,2888.1319154495995
1168,2888.1319154495995
2,3, 1,29, 0, 3, 0.00,60.00,Wednesday
7,-7.8
545,18.599264056925065
546,-4.986808219981019
547,15.945140516633602
548,146.95842537674537
720,4165.634915861325
721,4165.634915861325
784,0.0
785,0.0
848,0.0
849,0.0
1121,3932.137063648754
1135,1357.8524192643201
1161,0.07165310853082703
1163,0.0
1166,2106.783727962952
1168,2106.783727962952
2,3, 1,29, 0, 4, 0.00,60.00,Wednesday
7,-7.8
545,18.585969164631162
546,-4.686568822577417
547,15.826808666746967
548,146.95842537674537
720,4524.53228182394
721,4524.53228182394
784,0.0
785,0.0
848,0.0
849,0.0
1121,3931.762124504016
1135,1358.2784349304152
1161,0.07165310853082703
1163,0.0
1166,2534.641732613417
1168,2534.641732613417
2,3, 1,29, 0, 5, 0.00,60.00,Wednesday
7,-8.3
545,18.589580723720353
546,-5.2061668818501765
547,15.698611289423132
548,146.95842537674537
720,4495.542640485553
721,4495.542640485553
784,0.0
785,0.0
848,0.0
849,0.0
1121,3873.7488112836772
1135,1351.9604587332838
1161,0.07165310853082703
1163,0.0
1166,2556.406922072741
1168,2556.406922072741
2,3, 1,29, 0, 6, 0.00,60.00,Wednesday
7,-8.3
545,19.33593369113041
546,-4.574778970725132
547,15.578390829001567
548,146.95842537674537
720,5722.6431865251325
721,5722.6431865251325
784,0.0
785,0.0
848,0.0
849,0.0
1121,3873.8234162749163
1135,1351.8761562729158
1161,0.07165310853082703
1163,0.0
1166,4002.494193618551
1168,4002.494193618551
2,3, 1,29, 0, 7, 0.00,60.00,Wednesday
7,-8.9
545,19.589894366615766
546,-5.2538289329406975
547,15.490586154155254
548,146.95842537674537
720,5390.072534676519
721,5390.072534676519
784,0.0
785,0.0
848,0.0
849,0.0
1121,3787.348065229777
1135,1363.9073563931988
1161,0.07165310853082703
1163,0.0
1166,3760.2501035325868
1168,3760.2501035325868
2,3, 1,29, 0, 8, 0.00,60.00,Wednesday
7,-8.9
545,19.669675510789386
546,-5.195310331873487
547,15.382647263556896
548,146.95842537674537
720,4848.220905035887
721,4848.220905035887
784,0.0
785,0.0
848,0.0
849,0.0
1121,3781.5907593718975
1135,1370.3500164811785
1161,0.07165310853082703
1163,0.0
1166,3191.733829151733
1168,3191.733829151733
2,3, 1,29, 0, 9, 0.00,60.00,Wednesday
7,-7.8
545,19.6977665051536
546,-3.749461324323604
547,15.286386896147816
548,146.95842537674537
720,4446.219583553355
721,4446.219583553355
784,0.0
785,0.0
848,0.0
849,0.0
1121,3907.7182696014524
1135,1385.5738079905861
1161,0.07165310853082703
1163,0.0
1166,2611.667096845957
1168,2611.667096845957
2,3, 1,29, 0,10, 0.00,60.00,Wednesday
7,-6.7
545,19.707008835638096
546,-1.755288168453844
547,15.195988516587613
548,146.95842537674537
720,4357.623272212202
721,4357.623272212202
784,0.0
785,0.0
848,0.0
849,0.0
1121,4037.469768772666
1135,1399.338721345207
1161,0.07165310853082703
1163,0.0
1166,2338.5455704333312
1168,2338.5455704333312
2,3, 1,29, 0,11, 0.00,60.00,Wednesday
7,-7.0
545,19.734739332266773
546,-2.6676284847830476
547,15.1353442881189
548,146.95842537674537
720,3673.6128714041424
721,3673.6128714041424
784,0.0
785,0.0
848,0.0
849,0.0
1121,4001.5525655665874
1135,1395.925003237674
1161,0.07165310853082703
1163,0.0
1166,1451.6449960514842
1168,1451.6449960514842
2,3, 1,29, 0,12, 0.00,60.00,Wednesday
7,-6.1
545,19.72173457798468
546,-1.188141477207801
547,15.095587625808356
548,146.95842537674537
720,3504.6353975551137
721,3504.6353975551137
784,0.0
785,0.0
848,0.0
849,0.0
1121,4108.761397139587
1135,1407.399547150411
1161,0.07165310853082703
1163,0.0
1166,1160.5210519665725
1168,1160.5210519665725
2,3, 1,29, 0,13, 0.00,60.00,Wednesday
7,-5.0
545,19.79784714231379
546,-0.29559748912322414
547,15.065939583542596
548,140.2591299827561
720,2490.6551818620264
721,2490.6551818620264
784,0.0
785,0.0
848,0.0
849,0.0
1121,4026.878960686056
1135,1355.5326512422316
1161,0.06838762997182551
1163,9.114687767095585
1166,0.0
1168,0.0
2,3, 1,29, 0,14, 0.00,60.00,Wednesday
7,-5.0
545,19.877040864661836
546,0.2405143290910261
547,15.034995542995246
548,111.82965416899113
720,1915.5268513311348
721,1915.5268513311348
784,0.0
785,0.0
848,0.0
849,0.0
1121,3134.661681609112
1135,1082.4993160579843
1161,0.05452596959212365
1163,47.8057108473803
1166,0.0
1168,0.0
2,3, 1,29, 0,15, 0.00,60.00,Wednesday
7,-3.9
545,19.76201737840967
546,0.6476438533385205
547,15.030139175226862
548,94.12944908390098
720,1686.4028697519116
721,1686.4028697519116
784,0.0
785,0.0
848,0.0
849,0.0
1121,2683.304772573531
1135,921.1465605233221
1161,0.04589561986898051
1163,71.89496503355461
1166,0.0
1168,0.0
2,3, 1,29, 0,16, 0.00,60.00,Wednesday
7,-3.9
545,19.90006272711078
546,0.34053959758768
547,15.033024387061344
548,76.62274189729608
720,1362.9773466875467
721,1362.9773466875467
784,0.0
785,0.0
848,0.0
849,0.0
1121,2155.175300128224
1135,748.2186577635024
1161,0.03735970245832834
1163,95.72063731957915
1166,0.0
1168,0.0
2,3, 1,29, 0,17, 0.00,60.00,Wednesday
7,-5.0
545,19.923487798597336
546,-0.522202489359982
547,15.053768096179907
548,66.90457756339408
720,1139.0681362330397
721,1139.0681362330397
784,0.0
785,0.0
848,0.0
849,0.0
1121,1807.8446992964882
1135,649.058368028783
1161,0.03262137418018499
1163,108.94638111576018
1166,0.0
1168,0.0
2,3, 1,29, 0,18, 0.00,60.00,Wednesday
7,-5.6
545,19.774400548555537
546,-1.7178525880787012
547,15.087208590695399
548,94.89931571829771
720,1721.7705076519542
721,1721.7705076519542
784,0.0
785,0.0
848,0.0
849,0.0
1121,2576.5155294647407
1135,916.2720784457168
1161,0.04627110779219499
1163,70.84689348184257
1166,0.0
1168,0.0
2,3, 1,29, 0,19, 0.00,60.00,Wednesday
7,-6.1
545,19.840698258701643
546,-2.504914597792938
547,15.08389309622248
548,95.2575381006756
720,1628.7851888199475
721,1628.7851888199475
784,0.0
785,0.0
848,0.0
849,0.0
1121,2551.517763449858
1135,913.2226237877379
1161,0.046445806070614944
1163,70.35927115253415
1166,0.0
1168,0.0
2,3, 1,29, 0,20, 0.00,60.00,Wednesday
7,-6.1
545,19.73492832715202
546,-3.0864887821049853
547,15.069209172235432
548,97.4910618254665
720,1636.472247751879
721,1636.472247751879
784,0.0
785,0.0
848,0.0
849,0.0
1121,2615.0695079927646
1135,935.8186756300347
1161,0.04753483102074763
1163,67.31955669363063
1166,0.0
1168,0.0
2,3, 1,29, 0,21, 0.00,60.00,Wednesday
7,-6.7
545,19.3109307809684
546,-3.7436794318004485
547,15.034297194858478
548,140.2682316731973
720,2476.475801645416
721,2476.475801645416
784,0.0
785,0.0
848,0.0
849,0.0
1121,3831.41709706432
1135,1336.458507736909
1161,0.06839225003981919
1163,9.101792114447992
1166,0.0
1168,0.0
2,3, 1,29, 0,22, 0.00,60.00,Wednesday
7,-7.2
545,19.480405676240274
546,-3.5190282573986615
547,14.952280791811598
548,146.95842537674537
720,3737.1294886565884
721,3737.1294886565884
784,0.0
785,0.0
848,0.0
849,0.0
1121,3987.268326062147
1135,1382.7243419242404
1161,0.07165310853082703
1163,0.0
1166,1513.452774752539
1168,1513.452774752539
2,3, 1,29, 0,23, 0.00,60.00,Wednesday
7,-7.8
545,18.916079989679613
546,-3.584669426912099
547,14.902705862447418
548,146.95842537674537
720,2560.9177172593245
721,2560.9177172593245
784,0.0
785,0.0
848,0.0
849,0.0
1121,3912.638398584664
1135,1379.9927195467142
1161,0.07165310853082703
1163,0.0
1166,289.6462207559666
1168,289.6462207559666
2,3, 1,29, 0,24, 0.00,60.00,Wednesday
7,-8.3
545,18.677690951600766
546,-4.264377147772817
547,14.782156234504823
548,146.95842537674537
720,4042.6817214697985
721,4042.6817214697985
784,0.0
785,0.0
848,0.0
849,0.0
1121,3867.350588337694
1135,1359.1882890193992
1161,0.07165310853082703
1163,0.0
1166,1998.61544163798
1168,1998.61544163798
2,4, 1,30, 0, 1, 0.00,60.00,Thursday
7,-8.3
545,18.607828144903927
546,-4.938246683976759
547,14.698481901855832
548,146.95842537674537
720,4401.527663230003
721,4401.527663230003
784,0.0
785,0.0
848,0.0
849,0.0
1121,3872.936381354832
1135,1352.8784571261394
1161,0.07165310853082703
1163,0.0
1166,2441.9276591076627
1168,2441.9276591076627
2,4, 1,30, 0, 2, 0.00,60.00,Thursday
7,-8.3
545,18.58279172805154
546,-4.9800913820404995
547,14.601404489121428
548,146.95842537674537
720,4759.002726414279
721,4759.002726414279
784,0.0
785,0.0
848,0.0
849,0.0
1121,3874.636104858835
1135,1350.9577968136568
1161,0.07165310853082703
1163,0.0
1166,2895.648682547387
1168,2895.648682547387
2,4, 1,30, 0, 3, 0.00,60.00,Thursday
7,-8.9
545,18.590521715399483
546,-4.990692325757224
547,14.50472956185458
548,146.95842537674537
720,4469.952351275097
721,4469.952351275097
784,0.0
785,0.0
848,0.0
849,0.0
1121,3805.8008230577643
1135,1343.2234687216685
1161,0.07165310853082703
1163,0.0
1166,2642.8541526456984
1168,2642.8541526456984
2,4, 1,30, 0, 4, 0.00,60.00,Thursday
7,-8.9
545,18.577466800031477
546,-4.194168055484759
547,14.405231386898844
548,146.95842537674537
720,4909.487049561536
721,4909.487049561536
784,0.0
785,0.0
848,0.0
849,0.0
1121,3805.7600357535903
1135,1343.2692401637867
1161,0.07165310853082703
1163,0.0
1166,3164.25979639397
1168,3164.25979639397
2,4, 1,30, 0, 5, 0.00,60.00,Thursday
7,-8.9
545,18.58929027485994
546,-4.54240923383264
547,14.309024288202547
548,146.95842537674537
720,4745.65783869675
721,4745.65783869675
784,0.0
785,0.0
848,0.0
849,0.0
1121,3806.1763987256545
1135,1342.8019883233526
1161,0.07165310853082703
1163,0.0
1166,2944.14550337572
1168,2944.14550337572
2,4, 1,30, 0, 6, 0.00,60.00,Thursday
7,-9.4
545,19.336077159825347
546,-3.8835187394140145
547,14.211151454270142
548,146.95842537674537
720,6031.461089083483
721,6031.461089083483
784,0.0
785,0.0
848,0.0
849,0.0
1121,3748.6465986348476
1135,1337.1350299416392
1161,0.07165310853082703
1163,0.0
1166,4500.803554038834
1168,4500.803554038834
2,4, 1,30, 0, 7, 0.00,60.00,Thursday
7,-9.4
545,19.584955241011993
546,-3.898350291837418
547,14.15406897978541
548,146.95842537674537
720,5830.074442260047
721,5830.074442260047
784,0.0
785,0.0
848,0.0
849,0.0
1121,3731.731857346607
1135,1355.9750677823893
1161,0.07165310853082703
1163,0.0
1166,4344.873882938731
1168,4344.873882938731
2,4, 1,30, 0, 8, 0.00,60.00,Thursday
7,-9.4
545,19.662205801124955
546,-3.787773864396106
547,14.07155711767872
548,146.95842537674537
720,5517.168452396749
721,5517.168452396749
784,0.0
785,0.0
848,0.0
849,0.0
1121,3726.0839139422756
1135,1362.2543158014712
1161,0.07165310853082703
1163,0.0
1166,4010.9600805965933
1168,4010.9600805965933
2,4, 1,30, 0, 9, 0.00,60.00,Thursday
7,-8.9
545,19.696082261039813
546,-3.091519008030945
547,13.99868508835868
548,146.95842537674537
720,4934.698261109668
721,4934.698261109668
784,0.0
785,0.0
848,0.0
849,0.0
1121,3781.6954663074152
1135,1370.2328950664273
1161,0.07165310853082703
1163,0.0
1166,3273.139827995089
1168,3273.139827995089
2,4, 1,30, 0,10, 0.00,60.00,Thursday
7,-8.3
545,19.722437453257537
546,-0.9219099150589708
547,13.927942743331114
548,146.95842537674537
720,4022.409008649958
721,4022.409008649958
784,0.0
785,0.0
848,0.0
849,0.0
1121,3850.4131061520457
1135,1378.2993808314113
1161,0.07165310853082703
1163,0.0
1166,2103.916299335681
1168,2103.916299335681
2,4, 1,30, 0,11, 0.00,60.00,Thursday
7,-8.3
545,19.721674653672153
546,-0.09906131390871036
547,13.860887774673614
548,146.95842537674537
720,4061.068476032591
721,4061.068476032591
784,0.0
785,0.0
848,0.0
849,0.0
1121,3849.917199485704
1135,1378.8583720036715
1161,0.07165310853082703
1163,0.0
1166,2028.3009482004761
1168,2028.3009482004761
2,4, 1,30, 0,12, 0.00,60.00,Thursday
7,-7.8
545,19.724774681737205
546,1.2365126860366609
547,13.816910525957185
548,146.95842537674537
720,3736.582561377343
721,3736.582561377343
784,0.0
785,0.0
848,0.0
849,0.0
1121,3908.40246996036
1135,1384.7978501220778
1161,0.07165310853082703
1163,0.0
1166,1537.3375368808497
1168,1537.3375368808497
2,4, 1,30, 0,13, 0.00,60.00,Thursday
7,-7.8
545,19.725741495884982
546,1.8257658552432734
547,13.778387080250072
548,146.95842537674537
720,3605.4068214109775
721,3605.4068214109775
784,0.0
785,0.0
848,0.0
849,0.0
1121,3908.3795887671217
1135,1384.823800728541
1161,0.07165310853082703
1163,0.0
1166,1306.7762091512277
1168,1306.7762091512277
2,4, 1,30, 0,14, 0.00,60.00,Thursday
7,-7.8
545,19.718713067179035
546,1.5921276882053474
547,13.747978693582033
548,146.95842537674537
720,3671.9081652940313
721,3671.9081652940313
784,0.0
785,0.0
848,0.0
849,0.0
1121,3908.406887159749
1135,1384.7928403678297
1161,0.07165310853082703
1163,0.0
1166,1341.7795561607559
1168,1341.7795561607559
2,4, 1,30, 0,15, 0.00,60.00,Thursday
7,-6.7
545,19.71323970023714
546,0.7290577664461293
547,13.7294150058107