Program Version,EnergyPlus, Version 22.2.0-c249759bad, YMD=2023.09.01 20:43
1,5,Environment Title[],Latitude[deg],Longitude[deg],Time Zone[],Elevation[m]
2,8,Day of Simulation[],Month[],Day of Month[],DST Indicator[1=yes 0=no],Hour[],StartMinute[],EndMinute[],DayType
3,5,Cumulative Day of Simulation[],Month[],Day of Month[],DST Indicator[1=yes 0=no],DayType  ! When Daily Report Variables Requested
4,2,Cumulative Days of Simulation[],Month[]  ! When Monthly Report Variables Requested
5,1,Cumulative Days of Simulation[] ! When Run Period Report Variables Requested
6,1,Calendar Year of Simulation[] ! When Annual Report Variables Requested
581,11,LIVING,AFN Zone Infiltration Air Change Rate [ach] !RunPeriod [Value,Min,Month,Day,Hour,Minute,Max,Month,Day,Hour,Minute]
582,11,ATTIC,AFN Zone Infiltration Air Change Rate [ach] !RunPeriod [Value,Min,Month,Day,Hour,Minute,Max,Month,Day,Hour,Minute]
583,11,CRAWLSPACE,AFN Zone Infiltration Air Change Rate [ach] !RunPeriod [Value,Min,Month,Day,Hour,Minute,Max,Month,Day,Hour,Minute]
1038,11,Facility,Facility Heating Setpoint Not Met Time [hr] !RunPeriod [Value,Min,Month,Day,Hour,Minute,Max,Month,Day,Hour,Minute]
1039,11,Facility,Facility Cooling Setpoint Not Met Time [hr] !RunPeriod [Value,Min,Month,Day,Hour,Minute,Max,Month,Day,Hour,Minute]
1115,11,DX_HEATING_COIL,Heating Coil Heating Energy [J] !RunPeriod [Value,Min,Month,Day,Hour,Minute,Max,Month,Day,Hour,Minute]
1128,11,DX_HEATING_COIL,Heating Coil Electricity Energy [J] !RunPeriod [Value,Min,Month,Day,Hour,Minute,Max,Month,Day,Hour,Minute]
1153,11,DX_HEATING_COIL,Heating Coil Defrost Electricity Energy [J] !RunPeriod [Value,Min,Month,Day,Hour,Minute,Max,Month,Day,Hour,Minute]
1154,11,DX_HEATING_COIL,Heating Coil Crankcase Heater Electricity Energy [J] !RunPeriod [Value,Min,Month,Day,Hour,Minute,Max,Month,Day,Hour,Minute]
1155,11,HEATING_RESISTANCE_BACKUP,Heating Coil Heating Energy [J] !RunPeriod [Value,Min,Month,Day,Hour,Minute,Max,Month,Day,Hour,Minute]
1156,11,HEATING_RESISTANCE_BACKUP,Heating Coil Electricity Energy [J] !RunPeriod [Value,Min,Month,Day,Hour,Minute,Max,Month,Day,Hour,Minute]
1292,11,WATER HEATER,Water Heater Heat Loss Energy [J] !RunPeriod [Value,Min,Month,Day,Hour,Minute,Max,Month,Day,Hour,Minute]
1306,11,WATER HEATER,Water Heater Heating Energy [J] !RunPeriod [Value,Min,Month,Day,Hour,Minute,Max,Month,Day,Hour,Minute]
1307,11,WATER HEATER,Water Heater Unmet Demand Heat Transfer Energy [J] !RunPeriod [Value,Min,Month,Day,Hour,Minute,Max,Month,Day,Hour,Minute]
1308,11,WATER HEATER,Water Heater Electricity Energy [J] !RunPeriod [Value,Min,Month,Day,Hour,Minute,Max,Month,Day,Hour,Minute]
13,11,Electricity:Facility [J] !RunPeriod [Value,Min,Month,Day,Hour,Minute,Max,Month,Day,Hour,Minute]
1134,11,Heating:Electricity [J] !RunPeriod [Value,Min,Month,Day,Hour,Minute,Max,Month,Day,Hour,Minute]
1096,11,Cooling:Electricity [J] !RunPeriod [Value,Min,Month,Day,Hour,Minute,Max,Month,Day,Hour,Minute]
562,11,Fans:Electricity [J] !RunPeriod [Value,Min,Month,Day,Hour,Minute,Max,Month,Day,Hour,Minute]
1379,11,Pumps:Electricity [J] !RunPeriod [Value,Min,Month,Day,Hour,Minute,Max,Month,Day,Hour,Minute]
1326,11,WaterSystems:Electricity [J] !RunPeriod [Value,Min,Month,Day,Hour,Minute,Max,Month,Day,Hour,Minute]
61,11,InteriorLights:Electricity [J] !RunPeriod [Value,Min,Month,Day,Hour,Minute,Max,Month,Day,Hour,Minute]
1046,11,ExteriorLights:Electricity [J] !RunPeriod [Value,Min,Month,Day,Hour,Minute,Max,Month,Day,Hour,Minute]
134,11,InteriorEquipment:Electricity [J] !RunPeriod [Value,Min,Month,Day,Hour,Minute,Max,Month,Day,Hour,Minute]
170,11,gas_dryer:InteriorEquipment:Electricity [J] !RunPeriod [Value,Min,Month,Day,Hour,Minute,Max,Month,Day,Hour,Minute]
207,11,clotheswasher:InteriorEquipment:Electricity [J] !RunPeriod [Value,Min,Month,Day,Hour,Minute,Max,Month,Day,Hour,Minute]
244,11,dishwasher:InteriorEquipment:Electricity [J] !RunPeriod [Value,Min,Month,Day,Hour,Minute,Max,Month,Day,Hour,Minute]
281,11,refrigerator:InteriorEquipment:Electricity [J] !RunPeriod [Value,Min,Month,Day,Hour,Minute,Max,Month,Day,Hour,Minute]
318,11,electric_mels:InteriorEquipment:Electricity [J] !RunPeriod [Value,Min,Month,Day,Hour,Minute,Max,Month,Day,Hour,Minute]
355,11,NaturalGas:Facility [J] !RunPeriod [Value,Min,Month,Day,Hour,Minute,Max,Month,Day,Hour,Minute]
403,11,InteriorEquipment:NaturalGas [J] !RunPeriod [Value,Min,Month,Day,Hour,Minute,Max,Month,Day,Hour,Minute]
476,11,gas_dryer:InteriorEquipment:NaturalGas [J] !RunPeriod [Value,Min,Month,Day,Hour,Minute,Max,Month,Day,Hour,Minute]
513,11,gas_mels:InteriorEquipment:NaturalGas [J] !RunPeriod [Value,Min,Month,Day,Hour,Minute,Max,Month,Day,Hour,Minute]
End of Data Dictionary
1,EXTREME_WINTER,  46.84, -92.18,  -6.00, 432.00
5,7
1038,34.5,0.0, 1,20, 1,15,0.25, 1,20, 6,15
1039,0.0,0.0, 1,20, 1,15,0.0, 1,20, 1,15
581,0.5239737166756905,0.31537640101002007, 1,26,23, 5,0.8857176779222703, 1,23,15,60
582,5.454223481030203,0.43677251864372324, 1,26, 9,15,16.25469464736792, 1,21,14,50
583,0.07453019705921696,0.0015858825881736537, 1,26,23, 5,0.08358652119859444, 1,23,15,52
1115,1624528061.4102201,0.0, 1,26,23, 5,3475470.7812912245, 1,26,18,60
1128,726960821.3815346,0.0, 1,26,23, 5,1229866.6393946907, 1,26,20,60
1153,2397341.040067329,0.0, 1,26,23, 5,22227.747505931948, 1,25, 8,60
1154,66002.58736526514,0.0, 1,20, 1, 7,60000.0, 1,26,23, 5
1155,3778511795.352927,0.0, 1,25,23, 5,7928088.507598367, 1,20, 6,45
1156,3778511795.352927,0.0, 1,25,23, 5,7928088.507598367, 1,20, 6,45
1292,-25508402.113808528,-41857.30426630701, 1,22, 5,15,-4315.46551595479, 1,26,10,33
1306,298627110.45557016,0.0, 1,20, 1, 7,4050000.0, 1,20, 8,45
1307,112231294.16868621,0.0, 1,20, 1, 7,16779710.261353295, 1,20, 8,30
1308,298627110.45557016,0.0, 1,20, 1, 7,4050000.0, 1,20, 8,45
13,5267251767.63979,2611763.3170718746, 1,26,23,15,13764747.655409245, 1,21, 7,30
61,301924526.02383536,88139.10953165221, 1,20, 1,15,1282023.4113694867, 1,20,20,15
134,70666020.44019976,63564.01800854099, 1,20, 4,15,156554.22484006523, 1,25,20,15
170,5241013.419656067,348.4159749238097, 1,20, 4,15,17476.39704006126, 1,25,12,15
207,6509451.13922267,815.2532113832032, 1,20, 3,15,22990.642799023623, 1,25,10,15
244,12749673.399825225,1521.856143006317, 1,20, 4,15,53038.631142310165, 1,25,20,15
281,46165882.481495745,59938.60262432081, 1,20, 5,15,81951.81706819107, 1,20,19,15
318,0.0,0.0, 1,20, 1,15,0.0, 1,20, 1,15
355,197687796.27748066,18561.32405820678, 1,20, 4,15,724774.895203776, 1,25,18,15
403,197687796.27748066,18561.32405820678, 1,20, 4,15,724774.895203776, 1,25,18,15
476,106772067.24485716,7098.072629279515, 1,20, 4,15,356036.3026282215, 1,25,12,15
513,0.0,0.0, 1,20, 1,15,0.0, 1,20, 1,15
562,88098150.35829286,87446.86722989572, 1,26,23,15,131170.3008448436, 1,20, 1,15
1046,0.0,0.0, 1,20, 1,15,0.0, 1,20, 1,15
1096,0.0,0.0, 1,20, 1,15,0.0, 1,20, 1,15
1134,4507935960.361889,1872794.1560492795, 1,26,23,15,9016520.88345328, 1,23, 6,15
1326,298627110.4555703,0.0, 1,20, 1,15,4050000.0, 1,20, 8,45
1379,0.0,0.0, 1,20, 1,15,0.0, 1,20, 1,15
1,EXTREME_SUMMER,  46.84, -92.18,  -6.00, 432.00
5,7
1038,0.0,0.0, 7,13, 1,15,0.0, 7,13, 1,15
1039,22.5,0.0, 7,13, 1,15,0.25, 7,16,14,45
581,0.19289279684660965,0.0, 7,14,23, 5,0.5656086298901133, 7,18,17,37
582,4.82919191427053,0.0, 7,15, 6, 3,15.4861705300328, 7,18,16,52
583,0.03242506635376978,0.0, 7,14,23, 5,0.0697775498859328, 7,18,17,52
1115,0.0,0.0, 7,13, 1,15,0.0, 7,13, 1,15
1128,0.0,0.0, 7,13, 1,15,0.0, 7,13, 1,15
1153,0.0,0.0, 7,13, 1,15,0.0, 7,13, 1,15
1154,0.0,0.0, 7,13, 1,15,0.0, 7,13, 1,15
1155,0.0,0.0, 7,13, 1,15,0.0, 7,13, 1,15
1156,0.0,0.0, 7,13, 1,15,0.0, 7,13, 1,15
1292,-21915568.046686273,-34423.85000578667, 7,16, 6,30,-3725.981742550238, 7,19,10,33
1306,243837107.6021519,0.0, 7,13, 1,15,4050000.0, 7,14, 7,30
1307,75758598.95260495,0.0, 7,13, 1,15,6904472.093648019, 7,13, 8,30
1308,243837107.6021519,0.0, 7,13, 1,15,4050000.0, 7,14, 7,30
13,1064416981.814763,151703.1275401932, 7,13, 4,45,6492254.401444735, 7,17,18,30
61,301924526.02383536,88139.10953165221, 7,13, 1,15,1282023.4113694867, 7,13,20,15
134,70666020.44019976,63564.01800854099, 7,13, 4,15,156554.22484006523, 7,18,20,15
170,5241013.419656067,348.4159749238097, 7,13, 4,15,17476.39704006126, 7,18,12,15
207,6509451.13922267,815.2532113832032, 7,13, 3,15,22990.642799023623, 7,18,10,15
244,12749673.399825225,1521.856143006317, 7,13, 4,15,53038.631142310165, 7,18,20,15
281,46165882.481495745,59938.60262432081, 7,13, 5,15,81951.81706819107, 7,13,19,15
318,0.0,0.0, 7,13, 1,15,0.0, 7,13, 1,15
355,197687796.27748066,18561.32405820678, 7,13, 4,15,724774.895203776, 7,18,18,15
403,197687796.27748066,18561.32405820678, 7,13, 4,15,724774.895203776, 7,18,18,15
476,106772067.24485716,7098.072629279515, 7,13, 4,15,356036.3026282215, 7,18,12,15
513,0.0,0.0, 7,13, 1,15,0.0, 7,13, 1,15
562,43319052.76498682,0.0, 7,13, 4,45,131170.3008448436, 7,16,14,15
1046,0.0,0.0, 7,13, 1,15,0.0, 7,13, 1,15
1096,404670274.9835893,0.0, 7,13, 4,45,1416867.371407492, 7,18,15,60
1134,0.0,0.0, 7,13, 1,15,0.0, 7,13, 1,15
1326,243837107.60215187,0.0, 7,13, 1,15,4050000.0, 7,13, 8,45
1379,0.0,0.0, 7,13, 1,15,0.0, 7,13, 1,15
1,ANNUAL,  46.84, -92.18,  -6.00, 432.00
5,365
1038,79.25,0.0, 1, 1, 1,15,0.25, 1, 1, 6,15
1039,92.75,0.0, 1, 1, 1,15,0.25, 3,12,18,15
581,0.33444004654545506,0.0, 7,14,23, 5,1.4209742193591193, 3, 1,20,60
582,5.540173034505952,0.0, 1, 8, 7,45,39.12194575492005, 3, 1,20,60
583,0.034305063157898635,0.0, 7,14,23, 5,0.09132784758551075, 3, 1,20,60
1115,44524196897.05409,0.0, 1, 1,23, 5,4496627.448164197, 3,21, 6,60
1128,15245287763.959215,0.0, 1, 1,23, 5,1299745.1452740775, 1,10, 9,45
1153,472035252.60563415,0.0, 1, 1,23, 5,143444.98320810733, 2,10, 7,60
1154,1616385430.575068,0.0, 1, 1, 1, 7,180000.0, 1, 9,14,60
1155,23405427633.602413,0.0, 1, 1,23, 5,7928088.507598367, 1,20, 6,15
1156,23405427633.602413,0.0, 1, 1,23, 5,7928088.507598367, 1,20, 6,15
1292,-1252096830.740848,-43317.71636798682, 1,22, 8,15,-1734.962062132585, 7, 3, 8,31
1306,14145650265.307043,0.0, 1, 1, 1, 7,4050000.0, 1, 1, 9,45
1307,4848368580.006511,0.0, 1, 1, 1, 7,17156956.213138316, 2,20, 8,30
1308,14145650265.307043,0.0, 1, 1, 1, 7,4050000.0, 1, 1, 9,45
13,80868486868.47926,151703.1275401932, 5,24, 4,30,13871995.457233261,12,26, 7,30
61,15743207428.383959,88139.10953165221, 1, 1, 1,15,1282023.4113694867, 1, 1,20,15
134,3685071073.4325233,63564.01800854099, 1, 2, 4,15,156554.22484006523, 1, 1,20,15
170,273393721.45532674,348.4159749238097, 1, 2, 4,15,17476.39704006126, 1, 1,12,15
207,339560869.0695816,815.2532113832032, 1, 2, 3,15,22990.642799023623, 1, 1,10,15
244,664895467.8009144,1521.856143006317, 1, 2, 4,15,53038.631142310165, 1, 1,20,15
281,2407221015.106824,59938.60262432081, 1, 1, 5,15,81951.81706819107, 1, 1,19,15
318,0.0,0.0, 1, 1, 1,15,0.0, 1, 1, 1,15
355,10310294493.051695,18561.32405820678, 1, 2, 4,15,724774.895203776, 1, 1,18,15
403,10310294493.051695,18561.32405820678, 1, 2, 4,15,724774.895203776, 1, 1,18,15
476,5569688622.066177,7098.072629279515, 1, 2, 4,15,356036.3026282215, 1, 1,12,15
513,0.0,0.0, 1, 1, 1,15,0.0, 1, 1, 1,15
562,2183663713.4589567,0.0, 1, 9,14,60,131170.3008448436, 1, 1, 1,15
1046,0.0,0.0, 1, 1, 1,15,0.0, 1, 1, 1,15
1096,4371758307.152556,0.0, 1, 1, 1,15,1418916.0968748082, 7,18,15,60
1134,40739136080.74262,0.0, 3,12,16,60,9076129.63384738,12,22, 6,60
1326,14145650265.307093,0.0, 1, 1, 1,15,4050000.0, 1, 1, 9,45
1379,0.0,0.0, 1, 1, 1,15,0.0, 1, 1, 1,15
End of Data
 Number of Records Written=          99
