Program Version,EnergyPlus, Version 22.2.0-c249759bad, YMD=2023.09.01 14:31
1,5,Environment Title[],Latitude[deg],Longitude[deg],Time Zone[],Elevation[m]
2,8,Day of Simulation[],Month[],Day of Month[],DST Indicator[1=yes 0=no],Hour[],StartMinute[],EndMinute[],DayType
3,5,Cumulative Day of Simulation[],Month[],Day of Month[],DST Indicator[1=yes 0=no],DayType  ! When Daily Report Variables Requested
4,2,Cumulative Days of Simulation[],Month[]  ! When Monthly Report Variables Requested
5,1,Cumulative Days of Simulation[] ! When Run Period Report Variables Requested
6,1,Calendar Year of Simulation[] ! When Annual Report Variables Requested
7,1,Environment,Site Outdoor Air Drybulb Temperature [C] !Hourly
619,1,DX_HEATING_COIL,Heating Coil Heating Rate [W] !Hourly
633,1,DX_HEATING_COIL,Heating Coil Electricity Rate [W] !Hourly
659,1,DX_HEATING_COIL,Heating Coil Defrost Electricity Rate [W] !Hourly
661,1,DX_HEATING_COIL,Heating Coil Crankcase Heater Electricity Rate [W] !Hourly
690,1,FAN,Fan Electricity Rate [W] !Hourly
716,1,HEAT PUMP WATER HEATER FAN,Fan Electricity Rate [W] !Hourly
718,1,LIVING,Zone Mean Air Temperature [C] !Hourly
719,1,ATTIC,Zone Mean Air Temperature [C] !Hourly
720,1,CRAWLSPACE,Zone Mean Air Temperature [C] !Hourly
843,1,LIVING,Zone Predicted Sensible Load to Heating Setpoint Heat Transfer Rate [W] !Hourly
844,1,LIVING,Zone System Predicted Sensible Load to Heating Setpoint Heat Transfer Rate [W] !Hourly
907,1,ATTIC,Zone Predicted Sensible Load to Heating Setpoint Heat Transfer Rate [W] !Hourly
908,1,ATTIC,Zone System Predicted Sensible Load to Heating Setpoint Heat Transfer Rate [W] !Hourly
971,1,CRAWLSPACE,Zone Predicted Sensible Load to Heating Setpoint Heat Transfer Rate [W] !Hourly
972,1,CRAWLSPACE,Zone System Predicted Sensible Load to Heating Setpoint Heat Transfer Rate [W] !Hourly
1195,1,HEATING_RESISTANCE_BACKUP,Heating Coil Heating Rate [W] !Hourly
1197,1,HEATING_RESISTANCE_BACKUP,Heating Coil Electricity Rate [W] !Hourly
End of Data Dictionary
1,EXTREME_WINTER,  41.15,-104.82,  -7.00,1872.00
2,1,12,22, 0, 1, 0.00,60.00,Monday
7,-5.6
718,18.240953268588672
719,-2.0744544069010664
720,18.45842082531432
619,2015.390524525787
633,720.8896122351944
659,31.270866188528295
661,105.75063733873877
690,80.65900894468754
716,0.0
843,1424.64515151882
844,1424.64515151882
907,0.0
908,0.0
971,0.0
972,0.0
1195,0.0
1197,0.0
2,1,12,22, 0, 2, 0.00,60.00,Monday
7,-0.6
718,18.650003596910608
719,-0.9287563019566066
720,18.090323077980244
619,2616.637095835577
633,829.8671529695782
659,21.9272135625522
661,97.37921645987464
690,88.52705523489072
716,0.0
843,1879.2214875399168
844,1879.2214875399168
907,0.0
908,0.0
971,0.0
972,0.0
1195,0.0
1197,0.0
2,1,12,22, 0, 3, 0.00,60.00,Monday
7,2.2
718,18.51749085986896
719,1.4794496537871573
720,17.88892827258824
619,2769.516993833234
633,843.053715526311
659,11.041809654472951
661,100.8676657240569
690,85.75669367178784
716,0.0
843,2022.3938115077926
844,2022.3938115077926
907,0.0
908,0.0
971,0.0
972,0.0
1195,0.0
1197,0.0
2,1,12,22, 0, 4, 0.00,60.00,Monday
7,1.7
718,18.663891736730996
719,1.7939497126588324
720,17.65808910200023
619,2917.807814751049
633,889.723197562744
659,16.24735875275407
661,93.85440854621561
690,91.7625916612057
716,0.0
843,2171.495933922415
844,2171.495933922415
907,0.0
908,0.0
971,0.0
972,0.0
1195,0.0
1197,0.0
2,1,12,22, 0, 5, 0.00,60.00,Monday
7,0.6
718,18.68990441197058
719,1.5232479053216552
720,17.469683547086643
619,2781.6924925201165
633,869.126228487463
659,19.015695870498504
661,95.05185451867084
690,90.64669812291606
716,0.0
843,2072.693895375094
844,2072.693895375094
907,0.0
908,0.0
971,0.0
972,0.0
1195,0.0
1197,0.0
2,1,12,22, 0, 6, 0.00,60.00,Monday
7,0.6
718,19.440848614210633
719,1.6288037251093357
720,17.278918012420625
619,3881.4147168048567
633,1185.893539750559
659,25.94233865601853
661,56.823523580766675
690,123.66558187993769
716,0.0
843,2870.947459439345
844,2870.947459439345
907,0.0
908,0.0
971,0.0
972,0.0
1195,0.0
1197,0.0
2,1,12,22, 0, 7, 0.00,60.00,Monday
7,0.6
718,19.526618025589247
719,1.9641636394753261
720,17.13419335935438
619,5191.940101177364
633,1572.226292592143
659,45.40607222397324
661,10.972961832383232
690,163.1118641137319
716,85.44000000000004
843,2868.4899173757276
844,2868.4899173757276
907,0.0
908,0.0
971,0.0
972,0.0
1195,0.0
1197,0.0
2,1,12,22, 0, 8, 0.00,60.00,Monday
7,-1.1
718,19.62702135970012
719,2.1159811335415464
720,16.971872263088052
619,5302.301769762319
633,1642.8354152761171
659,47.062842512704115
661,0.0
690,173.22772117863246
716,85.44000000000004
843,2879.9540468298346
844,2879.9540468298346
907,0.0
908,0.0
971,0.0
972,0.0
1195,20.27899493898076
1197,20.27899493898076
2,1,12,22, 0, 9, 0.00,60.00,Monday
7,0.0
718,19.794736107138405
719,2.773896021292617
720,16.851014147321752
619,2874.338969920675
633,927.7289902631842
659,51.664479522757894
661,84.16717572579593
690,99.52991956946131
716,12.524961475694369
843,1944.251588881316
844,1944.251588881316
907,0.0
908,0.0
971,0.0
972,0.0
1195,0.0
1197,0.0
2,1,12,22, 0,10, 0.00,60.00,Monday
7,1.1
718,19.826507721651673
719,4.443247589623662
720,16.727561736317742
619,1533.2882568645482
633,501.3753347314523
659,19.85723975658974
661,139.49377270181483
690,52.158796711996196
716,0.0
843,1121.0831206786697
844,1121.0831206786697
907,0.0
908,0.0
971,0.0
972,0.0
1195,0.0
1197,0.0
2,1,12,22, 0,11, 0.00,60.00,Monday
7,2.2
718,19.58121810993706
719,5.559497911047878
720,16.62405123111694
619,723.4632461416169
633,235.79278496164196
659,3.0763200257003764
661,172.86565385093417
690,23.472504132373693
716,0.0
843,542.1291267250708
844,542.1291267250708
907,0.0
908,0.0
971,0.0
972,0.0
1195,0.0
1197,0.0
2,1,12,22, 0,12, 0.00,60.00,Monday
7,2.2
718,19.717755717060513
719,6.9033385477244895
720,16.547853406744455
619,575.9811097738411
633,187.1644627132416
659,2.453779610765447
661,178.35670386182557
690,18.722511896210097
716,0.0
843,440.02842093170693
844,440.02842093170693
907,0.0
908,0.0
971,0.0
972,0.0
1195,0.0
1197,0.0
2,1,12,22, 0,13, 0.00,60.00,Monday
7,3.3
718,19.775972543883253
719,8.116317125743995
720,16.492445674782154
619,332.8463661282262
633,106.95642980558227
659,0.2751714794218485
661,187.97376936625884
690,10.414403079074237
716,0.0
843,242.94672122200973
844,242.94672122200973
907,0.0
908,0.0
971,0.0
972,0.0
1195,0.0
1197,0.0
2,1,12,22, 0,14, 0.00,60.00,Monday
7,2.8
718,19.07725684856254
719,8.886218212180237
720,16.452031278827018
619,0.0
633,0.0
659,0.0
661,200.0
690,0.0
716,78.53588354871303
843,-103.96502130516637
844,-103.96502130516637
907,0.0
908,0.0
971,0.0
972,0.0
1195,0.0
1197,0.0
2,1,12,22, 0,15, 0.00,60.00,Monday
7,1.7
718,19.92850598100688
719,8.436182364318036
720,16.424955348329934
619,0.0
633,0.0
659,0.0
661,200.0
690,0.0
716,0.0
843,-188.8486335669404
844,-188.8486335669404
907,0.0
908,0.0
971,0.0
972,0.0
1195,0.0
1197,0.0
2,1,12,22, 0,16, 0.00,60.00,Monday
7,1.1
718,19.699135556104473
719,6.736539831838256
720,16.408542076727347
619,519.0485716084805
633,173.5233512271856
659,1.6755007526354395
661,179.96705466039938
690,17.331159378186694
716,0.0
843,406.19967247763634
844,406.19967247763634
907,0.0
908,0.0
971,0.0
972,0.0
1195,0.0
1197,0.0
2,1,12,22, 0,17, 0.00,60.00,Monday
7,0.0
718,19.650259337172002
719,4.322779305142962
720,16.378713554165564
619,1083.1317083121507
633,362.4926568137938
659,0.7039556378510305
661,158.01840833406712
690,36.35170690603577
716,0.0
843,818.6084075332328
844,818.6084075332328
907,0.0
908,0.0
971,0.0
972,0.0
1195,0.0
1197,0.0
2,1,12,22, 0,18, 0.00,60.00,Monday
7,0.0
718,19.708453077087903
719,3.133448299270395
720,16.33484962102944
619,1239.1233901279056
633,412.8001720240082
659,0.8024673471126975
661,152.14349501543612
690,41.438775890903685
716,0.0
843,929.3799874279293
844,929.3799874279293
907,0.0
908,0.0
971,0.0
972,0.0
1195,0.0
1197,0.0
2,1,12,22, 0,19, 0.00,60.00,Monday
7,-0.6
718,20.0051301200555
719,3.199847505164867
720,16.290145402020165
619,2431.3128044363093
633,801.7275007295657
659,36.83174350969763
661,100.80494631434365
690,85.29845610310934
716,85.44000000000004
843,775.656862870971
844,775.656862870971
907,0.0
908,0.0
971,0.0
972,0.0
1195,0.0
1197,0.0
2,1,12,22, 0,20, 0.00,60.00,Monday
7,-1.7
718,19.743443541714107
719,2.046565830834122
720,16.22391112070705
619,2295.3674576438816
633,781.9505619950907
659,49.632719709038554
661,100.64399332885306
690,85.05679432456634
716,85.44000000000004
843,650.6671800038293
844,650.6671800038293
907,0.0
908,0.0
971,0.0
972,0.0
1195,0.0
1197,0.0
2,1,12,22, 0,21, 0.00,60.00,Monday
7,-1.7
718,19.824162606140295
719,0.8282057299400896
720,16.144877601687938
619,1994.0951022673319
633,679.2011203777281
659,37.74082008071995
661,114.18156880843837
690,73.57880812365354
716,57.83989563207751
843,770.7317151393427
844,770.7317151393427
907,0.0
908,0.0
971,0.0
972,0.0
1195,0.0
1197,0.0
2,1,12,22, 0,22, 0.00,60.00,Monday
7,-1.1
718,19.8140466085492
719,0.4411085491223272
720,16.061186354492083
619,1227.9489468244842
633,420.22588616878625
659,10.183304143600918
661,149.4202990444947
690,43.62937231498032
716,0.0
843,871.8228858504117
844,871.8228858504117
907,0.0
908,0.0
971,0.0
972,0.0
1195,0.0
1197,0.0
2,1,12,22, 0,23, 0.00,60.00,Monday
7,-1.7
718,18.724950589508722
719,-0.2731344280335502
720,15.965360326169876
619,515.4184921318134
633,181.22713012100155
659,3.711409545463857
661,178.18766756055163
690,18.82148533435268
716,0.0
843,361.0369995699748
844,361.0369995699748
907,0.0
908,0.0
971,0.0
972,0.0
1195,0.0
1197,0.0
2,1,12,22, 0,24, 0.00,60.00,Monday
7,-1.7
718,18.608796377161394
719,-0.7507620023291713
720,15.866273633668506
619,1104.51054135196
633,372.84609831576
659,7.8024241440827025
661,154.14435750635013
690,39.568882211032424
716,0.0
843,794.6826559593192
844,794.6826559593192
907,0.0
908,0.0
971,0.0
972,0.0
1195,0.0
1197,0.0
2,2,12,23, 0, 1, 0.00,60.00,Tuesday
7,-2.2
718,18.50759269423843
719,-1.1424357804185041
720,15.763504334786768
619,2003.1763612530547
633,665.2167002149566
659,2.298506767836804
661,119.56930673144856
690,69.61829075726519
716,0.0
843,1435.8265797677886
844,1435.8265797677886
907,0.0
908,0.0
971,0.0
972,0.0
1195,0.0
1197,0.0
2,2,12,23, 0, 2, 0.00,60.00,Tuesday
7,-5.6
718,18.39338733490585
719,-2.397691820534627
720,15.637218897549353
619,3018.8593461762935
633,1042.98023238669
659,22.632822151363097
661,66.80020098940798
690,114.68075596204474
716,0.0
843,2104.65494228263
844,2104.65494228263
907,0.0
908,0.0
971,0.0
972,0.0
1195,0.0
1197,0.0
2,2,12,23, 0, 3, 0.00,60.00,Tuesday
7,-6.7
718,18.474777010973582
719,-2.8579902702902134
720,15.515994326134834
619,3955.646030920554
633,1359.8384482076071
659,31.771303611242608
661,23.957804322031006
690,151.39296427042842
716,0.0
843,2687.1297445319287
844,2687.1297445319287
907,0.0
908,0.0
971,0.0
972,0.0
1195,0.0
1197,0.0
2,2,12,23, 0, 4, 0.00,60.00,Tuesday
7,-5.6
718,18.5417102746878
719,-3.0932244562761864
720,15.412295431257256
619,4464.773635845525
633,1488.0570039026586
659,32.298961167165444
661,9.742807882029346
690,163.80656270132212
716,0.0
843,3022.844254500311
844,3022.844254500311
907,0.0
908,0.0
971,0.0
972,0.0
1195,0.0
1197,0.0
2,2,12,23, 0, 5, 0.00,60.00,Tuesday
7,-5.6
718,18.607007954416567
719,-2.72854999449132
720,15.298446494642718
619,4360.128616152928
633,1458.2224845415496
659,24.739726190443655
661,14.925738776095997
690,159.55075044447193
716,0.0
843,2935.978675002618
844,2935.978675002618
907,0.0
908,0.0
971,0.0
972,0.0
1195,0.0
1197,0.0
2,2,12,23, 0, 6, 0.00,60.00,Tuesday
7,-5.6
718,19.357516192105486
719,-2.6204774560456294
720,15.181892593906444
619,4776.076461695676
633,1577.5337859927981
659,26.734918218058834
661,0.0
690,173.22772117863246
716,0.0
843,3907.7582534347966
844,3907.7582534347966
907,0.0
908,0.0
971,0.0
972,0.0
1195,810.3720245020822
1197,810.3720245020822
2,2,12,23, 0, 7, 0.00,60.00,Tuesday
7,-7.8
718,19.56355864710971
719,-2.9070326036225556
720,15.083868144549186
619,4468.832872994582
633,1574.8961477843545
659,23.56555922889775
661,0.0
690,173.22772117863246
716,85.44000000000004
843,3892.6395784338783
844,3892.6395784338783
907,0.0
908,0.0
971,0.0
972,0.0
1195,2250.661478902073
1197,2250.661478902073
2,2,12,23, 0, 8, 0.00,60.00,Tuesday
7,-5.6
718,19.65608223772874
719,-2.8740268970801495
720,14.990352959344843
619,4858.2187508337065
633,1643.0160613961584
659,0.08344716898204586
661,0.0
690,173.22772117863246
716,85.44000000000004
843,3891.894388412995
844,3891.894388412995
907,0.0
908,0.0
971,0.0
972,0.0
1195,1993.4387292029778
1197,1993.4387292029778
2,2,12,23, 0, 9, 0.00,60.00,Tuesday
7,-4.4
718,19.68582556166267
719,-0.8383776283887721
720,14.894493647209899
619,5027.4632563715395
633,1662.6341942708766
659,0.08344716898204586
661,0.0
690,173.22772117863246
716,85.44000000000004
843,2879.015707073082
844,2879.015707073082
907,0.0
908,0.0
971,0.0
972,0.0
1195,617.9469742453839
1197,617.9469742453839
2,2,12,23, 0,10, 0.00,60.00,Tuesday
7,-3.3
718,19.810250827403046
719,1.6114002917338772
720,14.776403748429038
619,3139.637304375782
633,1062.8430981324327
659,0.05280687497215881
661,73.4363894753086
690,109.62041467664456
716,26.876209698741775
843,1869.1410901186791
844,1869.1410901186791
907,0.0
908,0.0
971,0.0
972,0.0
1195,0.0
1197,0.0
2,2,12,23, 0,11, 0.00,60.00,Tuesday
7,-1.7
718,19.56058661540943
719,2.8834122605587003
720,14.692828617082515
619,2090.936130377582
633,705.9924566705895
659,0.034518291864966154
661,117.26911221543546
690,71.65577177476298
716,0.0
843,1481.5525006558073
844,1481.5525006558073
907,0.0
908,0.0
971,0.0
972,0.0
1195,0.0
1197,0.0
2,2,12,23, 0,12, 0.00,60.00,Tuesday
7,-1.7
718,19.719432605075284
719,4.260276672788968
720,14.640914233713435
619,1729.9258424007353
633,585.1059053707543
659,0.028748794659854995
661,131.09701620664816
690,59.67899863047792
716,0.0
843,1253.1819802830832
844,1253.1819802830832
907,0.0
908,0.0
971,0.0
972,0.0
1195,0.0
1197,0.0
2,2,12,23, 0,13, 0.00,60.00,Tuesday
7,0.0
718,20.21962395739713
719,6.531475212412364
720,14.617830812030343
619,1115.367666963422
633,372.261122458527
659,0.017966067062265903
661,156.9402598519995
690,37.29544446812765
716,0.0
843,824.8118644129445
844,824.8118644129445
907,0.0
908,0.0
971,0.0
972,0.0
1195,0.0
1197,0.0
2,2,12,23, 0,14, 0.00,60.00,Tuesday
7,0.0
718,20.386650869563233
719,7.719781679294612
720,14.59940673485368
619,369.46483279445107
633,126.86836288808098
659,0.006062287626777182
661,185.47035759096508
690,12.584596659760605
716,0.0
843,276.8848608156313
844,276.8848608156313
907,0.0
908,0.0
971,0.0
972,0.0
1195,0.0
1197,0.0
2,2,12,23, 0,15, 0.00,60.00,Tuesday
7,-1.7
718,19.73190745757385
719,6.83804487087408
720,14.59268962580428
619,0.0
633,0.0
659,0.0
661,200.0
690,0.0
716,0.0
843,-84.42750458931732
844,-84.42750458931732
907,0.0
908,0.0
971,0.0
972,0.0
1195,0.0
1197,0.0
2,2,12,23, 0,16, 0.00,60.00,Tuesday
7,-3.0
718,19.65625285230699
719,4.47762662865363
720,14.620608465130795
619,1079.0915265002964
633,383.64647106008874
659,14.99701384374653
661,151.99093658482178
690,41.23497388511064
716,0.0
843,796.1084839389005
844,796.1084839389005
907,0.0
908,0.0
971,0.0
972,0.0
1195,0.0
1197,0.0
2,2,12,23, 0,17, 0.00,60.00,Tuesday
7,-3.3
718,19.808045944113125
719,2.7710617656035335
720,14.626966366816415
619,1682.7962499837108
633,591.2701446903579
659,19.264164299121628
661,126.35887684028644
690,63.323729843154766
716,0.0
843,1233.2767399992626
844,1233.2767399992626
907,0.0
908,0.0
971,0.0
972,0.0
1195,0.0
1197,0.0
2,2,12,23, 0,18, 0.00,60.00,Tuesday
7,-4.4
718,19.923091107252315
719,0.6187350582732557
720,14.608554333986103
619,1577.6550601295435
633,572.3100428479148
659,30.17554343496564
661,126.37788818306915
690,62.92894695412366
716,0.0
843,1116.7091697999404
844,1116.7091697999404
907,0.0
908,0.0
971,0.0
972,0.0
1195,0.0
1197,0.0
2,2,12,23, 0,19, 0.00,60.00,Tuesday
7,-5.0
718,19.696445270429855
719,-1.0345507214582692
720,14.603725565364561
619,2961.536611936692
633,1048.2428536649627
659,28.306343002186043
661,69.2243540059338
690,112.45135511733626
716,85.44000000000004
843,1067.6577002300837
844,1067.6577002300837
907,0.0
908,0.0
971,0.0
972,0.0
1195,0.0
1197,0.0
2,2,12,23, 0,20, 0.00,60.00,Tuesday
7,-6.7
718,19.472041254582205
719,-3.1026699954988004
720,14.549361448453118
619,4020.955456937812
633,1420.6704766280645
659,18.261126638053224
661,22.793269716329824
690,152.86436831399593
716,85.44000000000004
843,1709.3257866575477
844,1709.3257866575477
907,0.0
908,0.0
971,0.0
972,0.0
1195,0.0
1197,0.0
2,2,12,23, 0,21, 0.00,60.00,Tuesday
7,-7.2
718,19.386453280885483
719,-3.693853489428175
720,14.486979532449839
619,4630.655423650028
633,1614.432013135881
659,1.9404402415271198
661,0.0
690,173.22772117863246
716,85.44000000000004
843,2165.3824279937817
844,2165.3824279937817
907,0.0
908,0.0
971,0.0
972,0.0
1195,168.20816306791494
1197,168.20816306791494
2,2,12,23, 0,22, 0.00,60.00,Tuesday
7,-6.7
718,19.58213132210303
719,-4.204207097107217
720,14.404891874973066
619,4672.873120445181
633,1608.4058669311585
659,9.482133350302618
661,0.0
690,173.22772117863246
716,45.21289141976069
843,3174.65768946927
844,3174.65768946927
907,0.0
908,0.0
971,0.0
972,0.0
1195,736.6791294007162
1197,736.6791294007162
2,2,12,23, 0,23, 0.00,60.00,Tuesday
7,-6.7
718,18.92368330262585
719,-4.724322581641337
720,14.319273773059427
619,4574.856363695482
633,1588.8510511390896
659,13.797929931036487
661,2.4110705133656873
690,170.67237014994228
716,0.0
843,2910.942606545792
844,2910.942606545792
907,0.0
908,0.0
971,0.0
972,0.0
1195,0.0
1197,0.0
2,2,12,23, 0,24, 0.00,60.00,Tuesday
7,-6.7
718,18.711806273405955
719,-4.713787643758601
720,14.184599705181574
619,4668.042239211062
633,1587.8280716371373
659,13.966298584526552
661,0.0
690,173.22772117863246
716,0.0
843,3417.732209796319
844,3417.732209796319
907,0.0
908,0.0
971,0.0
972,0.0
1195,504.3347243506596
1197,504.3347243506596
2,3,12,24, 0, 1, 0.00,60.00,Wednesday
7,-7.2
718,18.64287417533202
719,-4.469282341591003
720,14.074835815106553
619,4658.853544381606
633,1592.852531863305
659,0.08344716898204586
661,0.0
690,173.22772117863246
716,0.0
843,3346.7286499719266
844,3346.7286499719266
907,0.0
908,0.0
971,0.0
972,0.0
1195,409.42031631482087
1197,409.42031631482087
2,3,12,24, 0, 2, 0.00,60.00,Wednesday
7,-7.2
718,18.618540067172706
719,-4.42441525747111
720,13.952286140790639
619,4660.853101956136
633,1590.5665733670849
659,0.08344716898204586
661,0.0
690,173.22772117863246
716,0.0
843,3773.3453155418247
844,3773.3453155418247
907,0.0
908,0.0
971,0.0
972,0.0
1195,902.9564107465767
1197,902.9564107465767
2,3,12,24, 0, 3, 0.00,60.00,Wednesday
7,-7.8
718,18.60819771951914
719,-5.560821762061719
720,13.817128642523118
619,4579.3030956092425
633,1581.4239876035194
659,0.08344716898204586
661,0.0
690,173.22772117863246
716,0.0
843,4542.44896873455
844,4542.44896873455
907,0.0
908,0.0
971,0.0
972,0.0
1195,1901.0768249632838
1197,1901.0768249632838
2,3,12,24, 0, 4, 0.00,60.00,Wednesday
7,-8.3
718,18.60566008994193
719,-5.643094761144262
720,13.697667961073817
619,4511.674963144095
633,1574.1428367778599
659,0.08344716898204586
661,0.0
690,173.22772117863246
716,0.0
843,4826.874412292702
844,4826.874412292702
907,0.0
908,0.0
971,0.0
972,0.0
1195,2387.952572844485
1197,2387.952572844485
2,3,12,24, 0, 5, 0.00,60.00,Wednesday
7,-8.9
718,18.606177331703
719,-6.12658650473705
720,13.57599409356044
619,4430.941138743213
633,1565.7674187495152
659,0.08344716898204586
661,0.0
690,173.22772117863246
716,0.0
843,4214.357072722893
844,4214.357072722893
907,0.0
908,0.0
971,0.0
972,0.0
1195,1724.694776067343
1197,1724.694776067343
2,3,12,24, 0, 6, 0.00,60.00,Wednesday
7,-8.9
718,19.272618094049097
719,-5.9619619761471
720,13.456280145273361
619,4431.106053885589
633,1565.5823730186905
659,0.08344716898204586
661,0.0
690,173.22772117863246
716,84.72158484369491
843,5277.380826791503
844,5277.380826791503
907,0.0
908,0.0
971,0.0
972,0.0
1195,3973.215722389357
1197,3973.215722389357
2,3,12,24, 0, 7, 0.00,60.00,Wednesday
7,-8.3
718,19.54592523682341
719,-5.330430390535699
720,13.3763345629889
619,4494.416339198321
633,1593.6318431299503
659,0.08344716898204586
661,0.0
690,173.22772117863246
716,85.44000000000004
843,5163.811918376128
844,5163.811918376128
907,0.0
908,0.0
971,0.0
972,0.0
1195,3958.710708667879
1197,3958.710708667879
2,3,12,24, 0, 8, 0.00,60.00,Wednesday
7,-7.8
718,19.6442712652029
719,-4.8364962055045275
720,13.274904825719323
619,4555.178498999558
633,1608.8154853449437
659,0.08344716898204586
661,0.0
690,173.22772117863246
716,85.44000000000004
843,4553.279308076018
844,4553.279308076018
907,0.0
908,0.0
971,0.0
972,0.0
1195,3174.2146333319374
1197,3174.2146333319374
2,3,12,24, 0, 9, 0.00,60.00,Wednesday
7,-6.7
718,19.698454405051027
719,-4.183012488463043
720,13.177966167259994
619,4704.391258387639
633,1626.9635508949632
659,0.08344716898204586
661,0.0
690,173.22772117863246
716,8.943729197974207
843,3971.2151692886146
844,3971.2151692886146
907,0.0
908,0.0
971,0.0
972,0.0
1195,1322.6483323346856
1197,1322.6483323346856
2,3,12,24, 0,10, 0.00,60.00,Wednesday
7,-5.0
718,19.73456095908424
719,-2.7378084083513334
720,13.087985359717573
619,4369.441457486737
633,1479.5665688474944
659,0.07472144389188777
661,20.913172242033706
690,155.11192072974526
716,0.0
843,2793.958004597398
844,2793.958004597398
907,0.0
908,0.0
971,0.0
972,0.0
1195,0.0
1197,0.0
2,3,12,24, 0,11, 0.00,60.00,Wednesday
7,-3.3
718,19.857194131894015
719,0.19864775301473986
720,12.982290465384025
619,2578.9393006074038
633,882.9809608506115
659,0.043911648711692765
661,94.7558095802133
690,91.15504670833833
716,0.0
843,1697.7165069135317
844,1697.7165069135317
907,0.0
908,0.0
971,0.0
972,0.0
1195,0.0
1197,0.0
2,3,12,24, 0,12, 0.00,60.00,Wednesday
7,-3.3
718,19.773752677223133
719,1.7871685216960072
720,12.929559305429722
619,1612.2248914308843
633,565.9928832797627
659,0.028078437766390314
661,132.70367800630467
690,58.28729647108974
716,0.0
843,1103.588935221058
844,1103.588935221058
907,0.0
908,0.0
971,0.0
972,0.0
1195,0.0
1197,0.0
2,3,12,24, 0,13, 0.00,60.00,Wednesday
7,-2.8
718,19.503313458524634
719,0.7703804809486818
720,12.911963222847257
619,1284.8672870598896
633,449.2394554364485
659,0.022229712322519895
661,146.72147037773624
690,46.14611125790558
716,0.0
843,904.7449452624514
844,904.7449452624514
907,0.0
908,0.0
971,0.0
972,0.0
1195,0.0
1197,0.0
2,3,12,24, 0,14, 0.00,60.00,Wednesday
7,-2.8
718,19.77886585102247
719,0.4984939884933253
720,12.918478821740662
619,1127.8213683047625
633,393.1245767422706
659,0.01955567919111853
661,153.1303951238273
690,40.59515246610885
716,0.0
843,790.0050459397826
844,790.0050459397826
907,0.0
908,0.0
971,0.0
972,0.0
1195,0.0
1197,0.0
2,3,12,24, 0,15, 0.00,60.00,Wednesday
7,-2.8
718,19.744805044145025
719,0.13915418234411017
720,12.930551537308572
619,699.9947119300017
633,248.1223199786048
659,0.012275167425551918
661,170.57978700705115
690,25.48171713443495
716,0.0
843,457.2481378753455
844,457.2481378753455
907,0.0
908,0.0
971,0.0
972,0.0
1195,0.0
1197,0.0
2,3,12,24, 0,16, 0.00,60.00,Wednesday
7,-3.9
718,20.15145037871022
719,0.5851880599630014
720,13.008175124915708
619,1698.9334812152574
633,600.3168549288893
659,0.03000009622492447
661,128.0979892046927
690,62.276365675616674
716,85.44000000000004
843,248.7464565357859
844,248.7464565357859
907,0.0
908,0.0
971,0.0
972,0.0
1195,0.0
1197,0.0
2,3,12,24, 0,17, 0.00,60.00,Wednesday
7,-6.1
718,19.56825399118254
719,-1.4247801371457274
720,13.082313042901319
619,2811.4287779395345
633,1018.6444873522465
659,0.051468257193368984
661,76.64468951740551
690,106.84116850796673
716,85.44000000000004
843,1029.8151180096047
844,1029.8151180096047
907,0.0
908,0.0
971,0.0
972,0.0
1195,0.0
1197,0.0
2,3,12,24, 0,18, 0.00,60.00,Wednesday
7,-6.1
718,19.66494535040614
719,-2.608048104999026
720,13.078076693607544
619,2918.786849561436
633,1039.87493475717
659,0.05313120695473873
661,72.65905457818415
690,110.2932337655892
716,24.07699322279409
843,1727.626858762822
844,1727.626858762822
907,0.0
908,0.0
971,0.0
972,0.0
1195,0.0
1197,0.0
2,3,12,24, 0,19, 0.00,60.00,Wednesday
7,-7.8
718,19.945481472231677
719,-3.8365349563093125
720,13.05980461536996
619,2488.891621509471
633,928.0549564950466
659,0.04802304652050609
661,84.90191553211703
690,99.68909770663038
716,0.0
843,1600.506207628774
844,1600.506207628774
907,0.0
908,0.0
971,0.0
972,0.0
1195,0.0
1197,0.0
2,3,12,24, 0,20, 0.00,60.00,Wednesday
7,-7.8
718,19.708451966702743
719,-4.024363732401405
720,13.085374329852108
619,3845.4496248392074
633,1395.0847793039063
659,0.07182603167523287
661,27.85268199886648
690,149.1007464899737
716,85.44000000000004
843,1575.7025030703771
844,1575.7025030703771
907,0.0
908,0.0
971,0.0
972,0.0
1195,0.0
1197,0.0
2,3,12,24, 0,21, 0.00,60.00,Wednesday
7,-11.7
718,19.60443309237157
719,-5.3235864666396235
720,13.00780360735945
619,4036.054502725153
633,1557.3078713642485
659,0.08344716898204586
661,0.0
690,173.22772117863246
716,85.44000000000004
843,2508.9194703574685
844,2508.9194703574685
907,0.0
908,0.0
971,0.0
972,0.0
1195,1168.966926965646
1197,1168.966926965646
2,3,12,24, 0,22, 0.00,60.00,Wednesday
7,-11.7
718,19.681322900687327
719,-6.433313113628962
720,12.949520942173276
619,4029.443836686337
633,1550.5958819312946
659,2.913693793025551
661,0.0
690,173.22772117863246
716,7.690025234353627
843,2813.336531543653
844,2813.336531543653
907,0.0
908,0.0
971,0.0
972,0.0
1195,623.3566417945794
1197,623.3566417945794
2,3,12,24, 0,23, 0.00,60.00,Wednesday
7,-12.2
718,18.954367828790627
719,-6.297172655775052
720,12.869859911253393
619,3938.951418977329
633,1535.454475884983
659,10.564324435712868
661,0.0
690,173.22772117863246
716,0.0
843,2594.4918060773853
844,2594.4918060773853
907,0.0
908,0.0
971,0.0
972,0.0
1195,435.077330568648
1197,435.077330568648
2,3,12,24, 0,24, 0.00,60.00,Wednesday
7,-12.2
718,18.72124478606263
719,-6.67593808025419
720,12.7458645638279
619,3957.9989550626224
633,1515.1815249398267
659,10.564324435712868
661,0.0
690,173.22772117863246
716,0.0
843,3171.2528790943725
844,3171.2528790943725
907,0.0
908,0.0
971,0.0
972,0.0
1195,1037.9915930144598
1197,1037.9915930144598
2,4,12,25, 0, 1, 0.00,60.00,Thursday
7,-10.6
718,18.64531065770486
719,-6.467133517424377
720,12.65911013370865
619,4167.272645433658
633,1530.6939407356642
659,10.737783535489667
661,0.0
690,173.22772117863246
716,0.0
843,3217.553252401094
844,3217.553252401094
907,0.0
908,0.0
971,0.0
972,0.0
1195,888.3148582016065
1197,888.3148582016065
2,4,12,25, 0, 2, 0.00,60.00,Thursday
7,-10.0
718,18.616452604567137
719,-6.241408780039949
720,12.552711605314643
619,4266.614479381224
633,1543.5749654439217
659,5.29423150617928
661,0.0
690,173.22772117863246
716,0.0
843,3818.773751067927
844,3818.773751067927
907,0.0
908,0.0
971,0.0
972,0.0
1195,1490.935870928618
1197,1490.935870928618
2,4,12,25, 0, 3, 0.00,60.00,Thursday
7,-8.9
718,18.611369457890444
719,-5.6374490459593805
720,12.458641993008076
619,4399.605683098882
633,1552.7494786675284
659,8.97575862404976
661,0.0
690,173.22772117863246
716,0.0
843,3877.693960827435
844,3877.693960827435
907,0.0
908,0.0
971,0.0
972,0.0
1195,1420.9004869623514
1197,1420.9004869623514
2,4,12,25, 0, 4, 0.00,60.00,Thursday
7,-9.4
718,18.607967077577403
719,-5.401020473228224
720,12.35352325308611
619,4324.201350214264
633,1542.3808632868838
659,11.555635771893389
661,0.0
690,173.22772117863246
716,0.0
843,3882.038110960162
844,3882.038110960162
907,0.0
908,0.0
971,0.0
972,0.0
1195,1461.4506375099072
1197,1461.4506375099072
2,4,12,25, 0, 5, 0.00,60.00,Thursday
7,-8.9
718,18.60890326975244
719,-5.3173534959160325
720,12.260985191417351
619,4359.867593761734
633,1537.9864971162142
659,19.930345803015374
661,0.0
690,173.22772117863246
716,0.0
843,3912.3471519013074
844,3912.3471519013074
907,0.0
908,0.0
971,0.0
972,0.0
1195,1458.259015817825
1197,1458.259015817825
2,4,12,25, 0, 6, 0.00,60.00,Thursday
7,-8.9
718,19.38542223010325
719,-4.402648063620168
720,12.167564034903009
619,4359.978261948098
633,1537.8622978693243
659,19.930345803015374
661,0.0
690,173.22772117863246
716,0.0
843,4920.724619028082
844,4920.724619028082
907,0.0
908,0.0
971,0.0
972,0.0
1195,2653.2293891273366
1197,2653.2293891273366
2,4,12,25, 0, 7, 0.00,60.00,Thursday
7,-7.2
718,19.580624411988946
719,-3.23639476697791
720,12.131790621823864
619,4571.033108966586
633,1585.009611959963
659,18.95962025785084
661,0.0
690,173.22772117863246
716,85.44000000000004
843,4301.371872844722
844,4301.371872844722
907,0.0
908,0.0
971,0.0
972,0.0
1195,2842.4925533966357
1197,2842.4925533966357
2,4,12,25, 0, 8, 0.00,60.00,Thursday
7,-7.2
718,19.66284207006981
719,-3.131150845679684
720,12.052028891143248
619,4565.879295116662
633,1590.8653363246797
659,18.965247455512955
661,0.0
690,173.22772117863246
716,85.44000000000004
843,4187.759182599984
844,4187.759182599984
907,0.0
908,0.0
971,0.0
972,0.0
1195,2702.3296289091086
1197,2702.3296289091086
2,4,12,25, 0, 9, 0.00,60.00,Thursday
7,-5.6
718,19.69210856758877
719,-1.5883902448300449
720,12.001038520751129
619,4842.155998783486
633,1634.7976627716898
659,4.534701831730356
661,0.0
690,173.22772117863246
716,85.44000000000004
843,3216.292414821779
844,3216.292414821779
907,0.0
908,0.0
971,0.0
972,0.0
1195,1156.4361768056083
1197,1156.4361768056083
2,4,12,25, 0,10, 0.00,60.00,Thursday
7,-4.4
718,19.723995543002157
719,0.2453170127419137
720,11.940605059535008
619,4780.999404851871
633,1584.7665641098642
659,0.07973736965865671
661,8.891372514236728
690,165.524471957743
716,39.284368854590916
843,2822.6486956483313
844,2822.6486956483313
907,0.0
908,0.0
971,0.0
972,0.0
1195,0.0
1197,0.0
2,4,12,25, 0,11, 0.00,60.00,Thursday
7,-2.8
718,19.782202295853953
719,2.3165699184215733
720,11.85056069436467
619,3596.376516532981
633,1190.92427148624
659,0.05907066155024534
661,58.423809289552466
690,122.6233294715508
716,0.0
843,2467.500060766526
844,2467.500060766526
907,0.0
908,0.0
971,0.0
972,0.0
1195,0.0
1197,0.0
2,4,12,25, 0,12, 0.00,60.00,Thursday
7,-2.8
718,19.77007029261845
719,4.238687099876948
720,11.797856616414887
619,2802.943094177932