Program Version,EnergyPlus, Version 22.2.0-c249759bad, YMD=2023.08.31 13:04
1,5,Environment Title[],Latitude[deg],Longitude[deg],Time Zone[],Elevation[m]
2,8,Day of Simulation[],Month[],Day of Month[],DST Indicator[1=yes 0=no],Hour[],StartMinute[],EndMinute[],DayType
3,5,Cumulative Day of Simulation[],Month[],Day of Month[],DST Indicator[1=yes 0=no],DayType  ! When Daily Report Variables Requested
4,2,Cumulative Days of Simulation[],Month[]  ! When Monthly Report Variables Requested
5,1,Cumulative Days of Simulation[] ! When Run Period Report Variables Requested
6,1,Calendar Year of Simulation[] ! When Annual Report Variables Requested
618,11,DX_HEATING_COIL,Heating Coil Heating Energy [J] !RunPeriod [Value,Min,Month,Day,Hour,Minute,Max,Month,Day,Hour,Minute]
631,11,DX_HEATING_COIL,Heating Coil Electricity Energy [J] !RunPeriod [Value,Min,Month,Day,Hour,Minute,Max,Month,Day,Hour,Minute]
656,11,DX_HEATING_COIL,Heating Coil Defrost Electricity Energy [J] !RunPeriod [Value,Min,Month,Day,Hour,Minute,Max,Month,Day,Hour,Minute]
657,11,DX_HEATING_COIL,Heating Coil Crankcase Heater Electricity Energy [J] !RunPeriod [Value,Min,Month,Day,Hour,Minute,Max,Month,Day,Hour,Minute]
684,11,HEAT PUMP WATER HEATER EVAPORATOR,Cooling Coil Total Water Heating Energy [J] !RunPeriod [Value,Min,Month,Day,Hour,Minute,Max,Month,Day,Hour,Minute]
685,11,HEAT PUMP WATER HEATER EVAPORATOR,Cooling Coil Water Heating Electricity Energy [J] !RunPeriod [Value,Min,Month,Day,Hour,Minute,Max,Month,Day,Hour,Minute]
712,11,LIVING,AFN Zone Infiltration Air Change Rate [ach] !RunPeriod [Value,Min,Month,Day,Hour,Minute,Max,Month,Day,Hour,Minute]
713,11,ATTIC,AFN Zone Infiltration Air Change Rate [ach] !RunPeriod [Value,Min,Month,Day,Hour,Minute,Max,Month,Day,Hour,Minute]
714,11,CRAWLSPACE,AFN Zone Infiltration Air Change Rate [ach] !RunPeriod [Value,Min,Month,Day,Hour,Minute,Max,Month,Day,Hour,Minute]
1157,11,Facility,Facility Heating Setpoint Not Met Time [hr] !RunPeriod [Value,Min,Month,Day,Hour,Minute,Max,Month,Day,Hour,Minute]
1158,11,Facility,Facility Cooling Setpoint Not Met Time [hr] !RunPeriod [Value,Min,Month,Day,Hour,Minute,Max,Month,Day,Hour,Minute]
1184,11,HEATING_RESISTANCE_BACKUP,Heating Coil Heating Energy [J] !RunPeriod [Value,Min,Month,Day,Hour,Minute,Max,Month,Day,Hour,Minute]
1185,11,HEATING_RESISTANCE_BACKUP,Heating Coil Electricity Energy [J] !RunPeriod [Value,Min,Month,Day,Hour,Minute,Max,Month,Day,Hour,Minute]
1334,11,WATER HEATER TANK,Water Heater Heating Energy [J] !RunPeriod [Value,Min,Month,Day,Hour,Minute,Max,Month,Day,Hour,Minute]
13,11,Electricity:Facility [J] !RunPeriod [Value,Min,Month,Day,Hour,Minute,Max,Month,Day,Hour,Minute]
637,11,Heating:Electricity [J] !RunPeriod [Value,Min,Month,Day,Hour,Minute,Max,Month,Day,Hour,Minute]
599,11,Cooling:Electricity [J] !RunPeriod [Value,Min,Month,Day,Hour,Minute,Max,Month,Day,Hour,Minute]
692,11,Fans:Electricity [J] !RunPeriod [Value,Min,Month,Day,Hour,Minute,Max,Month,Day,Hour,Minute]
1372,11,Pumps:Electricity [J] !RunPeriod [Value,Min,Month,Day,Hour,Minute,Max,Month,Day,Hour,Minute]
677,11,WaterSystems:Electricity [J] !RunPeriod [Value,Min,Month,Day,Hour,Minute,Max,Month,Day,Hour,Minute]
61,11,InteriorLights:Electricity [J] !RunPeriod [Value,Min,Month,Day,Hour,Minute,Max,Month,Day,Hour,Minute]
1165,11,ExteriorLights:Electricity [J] !RunPeriod [Value,Min,Month,Day,Hour,Minute,Max,Month,Day,Hour,Minute]
134,11,InteriorEquipment:Electricity [J] !RunPeriod [Value,Min,Month,Day,Hour,Minute,Max,Month,Day,Hour,Minute]
170,11,gas_dryer:InteriorEquipment:Electricity [J] !RunPeriod [Value,Min,Month,Day,Hour,Minute,Max,Month,Day,Hour,Minute]
207,11,clotheswasher:InteriorEquipment:Electricity [J] !RunPeriod [Value,Min,Month,Day,Hour,Minute,Max,Month,Day,Hour,Minute]
244,11,dishwasher:InteriorEquipment:Electricity [J] !RunPeriod [Value,Min,Month,Day,Hour,Minute,Max,Month,Day,Hour,Minute]
281,11,refrigerator:InteriorEquipment:Electricity [J] !RunPeriod [Value,Min,Month,Day,Hour,Minute,Max,Month,Day,Hour,Minute]
318,11,electric_mels:InteriorEquipment:Electricity [J] !RunPeriod [Value,Min,Month,Day,Hour,Minute,Max,Month,Day,Hour,Minute]
355,11,NaturalGas:Facility [J] !RunPeriod [Value,Min,Month,Day,Hour,Minute,Max,Month,Day,Hour,Minute]
403,11,InteriorEquipment:NaturalGas [J] !RunPeriod [Value,Min,Month,Day,Hour,Minute,Max,Month,Day,Hour,Minute]
476,11,gas_dryer:InteriorEquipment:NaturalGas [J] !RunPeriod [Value,Min,Month,Day,Hour,Minute,Max,Month,Day,Hour,Minute]
513,11,gas_mels:InteriorEquipment:NaturalGas [J] !RunPeriod [Value,Min,Month,Day,Hour,Minute,Max,Month,Day,Hour,Minute]
End of Data Dictionary
1,EXTREME_WINTER,  46.84, -92.18,  -6.00, 432.00
5,7
1157,45.5,0.0, 1,20, 1,15,0.25, 1,20, 6,15
1158,0.0,0.0, 1,20, 1,15,0.0, 1,20, 1,15
618,1667625505.8532724,0.0, 1,24,23, 3,3542901.8290777723, 1,26,18,60
631,701645642.1588452,0.0, 1,24,23, 3,1190892.8863375215, 1,26,20,60
656,2408445.390888752,0.0, 1,24,23, 3,22376.230103857706, 1,25, 8,60
657,150000.0,0.0, 1,20, 1, 1,60000.0, 1,26,23, 5
684,272944456.3671584,0.0, 1,20, 1, 1,1349729.2382589094, 1,26,20,30
685,64699873.04562755,0.0, 1,20, 1, 1,327728.7999474283, 1,26,15,15
712,0.43025537264551417,0.29105400536922144, 1,26,23,15,0.8019625490187869, 1,23,15,55
713,5.396646437088888,0.3193293902777667, 1,26, 9,15,16.07618149746129, 1,21,14,50
714,6.693483930802738,0.6480311020206891, 1,24,10,48,19.12770309131318, 1,23,15,50
1184,4474138098.781488,0.0, 1,24,23, 3,8507619.786300894, 1,20, 8,15
1185,4474138098.781488,0.0, 1,24,23, 3,8507619.786300894, 1,20, 8,15
1334,0.0,0.0, 1,20, 1, 1,0.0, 1,20, 1, 1
13,5728038670.212403,4203741.4374435395, 1,26,16,60,11450639.642120965, 1,23,21,15
61,301924526.02383536,88139.10953165221, 1,20, 1,15,1282023.4113694867, 1,20,20,15
134,70666020.44019976,63564.01800854099, 1,20, 4,15,156554.22484006523, 1,25,20,15
170,5241013.419656067,348.4159749238097, 1,20, 4,15,17476.39704006126, 1,25,12,15
207,6509451.13922267,815.2532113832032, 1,20, 3,15,22990.642799023623, 1,25,10,15
244,12749673.399825225,1521.856143006317, 1,20, 4,15,53038.631142310165, 1,25,20,15
281,46165882.481495745,59938.60262432081, 1,20, 5,15,81951.81706819107, 1,20,19,15
318,0.0,0.0, 1,20, 1,15,0.0, 1,20, 1,15
355,197687796.27748066,18561.32405820678, 1,20, 4,15,724774.895203776, 1,25,18,15
403,197687796.27748066,18561.32405820678, 1,20, 4,15,724774.895203776, 1,25,18,15
476,106772067.24485716,7098.072629279515, 1,20, 4,15,356036.3026282215, 1,25,12,15
513,0.0,0.0, 1,20, 1,15,0.0, 1,20, 1,15
599,0.0,0.0, 1,20, 1,15,0.0, 1,20, 1,15
637,5178342186.331229,3126450.1328337174, 1,26,23,15,9583603.083317742, 1,23, 7,30
677,69840673.04562756,7650.0, 1,20, 1,15,335378.7999474283, 1,26,15,15
692,107265264.37151276,99806.20990545067, 1,24,23,15,209970.94654060097, 1,21,11,30
1165,0.0,0.0, 1,20, 1,15,0.0, 1,20, 1,15
1372,0.0,0.0, 1,20, 1,15,0.0, 1,20, 1,15
1,EXTREME_SUMMER,  46.84, -92.18,  -6.00, 432.00
5,7
1157,0.0,0.0, 7,13, 1,15,0.0, 7,13, 1,15
1158,24.0,0.0, 7,13, 1,15,0.25, 7,16,14,30
618,0.0,0.0, 7,13, 1,15,0.0, 7,13, 1,15
631,0.0,0.0, 7,13, 1,15,0.0, 7,13, 1,15
656,0.0,0.0, 7,13, 1,15,0.0, 7,13, 1,15
657,0.0,0.0, 7,13, 1,15,0.0, 7,13, 1,15
684,224215763.97817358,0.0, 7,13, 1,15,1738146.83442529, 7,15, 8,45
685,42609359.563481286,0.0, 7,13, 1,15,348601.2670121224, 7,14,21,45
712,0.16545316374646446,0.0, 7,14,21,45,0.49130726491567944, 7,18,17,52
713,4.752932962023725,0.0, 7,15, 6, 3,15.192801965549686, 7,18,16,52
714,5.2640452816175625,0.0, 7,14,23, 5,17.526791005542442, 7,18,16,52
1184,0.0,0.0, 7,13, 1,15,0.0, 7,13, 1,15
1185,0.0,0.0, 7,13, 1,15,0.0, 7,13, 1,15
1334,0.0,0.0, 7,13, 1,15,0.0, 7,13, 1,15
13,845718015.9084913,159353.1275401932, 7,13, 4,30,3336579.3008120754, 7,18,20,15
61,301924526.02383536,88139.10953165221, 7,13, 1,15,1282023.4113694867, 7,13,20,15
134,70666020.44019976,63564.01800854099, 7,13, 4,15,156554.22484006523, 7,18,20,15
170,5241013.419656067,348.4159749238097, 7,13, 4,15,17476.39704006126, 7,18,12,15
207,6509451.13922267,815.2532113832032, 7,13, 3,15,22990.642799023623, 7,18,10,15
244,12749673.399825225,1521.856143006317, 7,13, 4,15,53038.631142310165, 7,18,20,15
281,46165882.481495745,59938.60262432081, 7,13, 5,15,81951.81706819107, 7,13,19,15
318,0.0,0.0, 7,13, 1,15,0.0, 7,13, 1,15
355,197687796.27748066,18561.32405820678, 7,13, 4,15,724774.895203776, 7,18,18,15
403,197687796.27748066,18561.32405820678, 7,13, 4,15,724774.895203776, 7,18,18,15
476,106772067.24485716,7098.072629279515, 7,13, 4,15,356036.3026282215, 7,18,12,15
513,0.0,0.0, 7,13, 1,15,0.0, 7,13, 1,15
599,375185814.4808311,0.0, 7,13, 4,30,1430854.5283573375, 7,18,15,60
637,0.0,0.0, 7,13, 1,15,0.0, 7,13, 1,15
677,47750159.563481286,7650.0, 7,13, 1,15,381221.97592155717, 7,19,22,45
692,50191495.40014459,0.0, 7,13, 4,30,209970.94654060097, 7,16,19,45
1165,0.0,0.0, 7,13, 1,15,0.0, 7,13, 1,15
1372,0.0,0.0, 7,13, 1,15,0.0, 7,13, 1,15
1,ANNUAL,  46.84, -92.18,  -6.00, 432.00
5,365
1157,184.0,0.0, 1, 1, 1,15,0.25, 1,11,15,60
1158,69.25,0.0, 1, 1, 1,15,0.25, 6,20,13,45
618,53220967391.91286,0.0, 1, 1,23, 5,4904824.269102788, 3,29, 7,30
631,17048245511.15455,0.0, 1, 1,23, 5,1355295.0814505613, 3,29, 8,15
656,555855634.570489,0.0, 1, 1,23, 5,151866.08436474128, 4,19, 8,60
657,1328642921.4866452,0.0, 1, 1, 1, 1,180000.0, 3, 9,14,30
684,12983706586.43319,0.0, 1, 1, 1, 1,1894512.312330184, 8,30, 7,60
685,2725071025.505388,0.0, 1, 1, 1, 1,378917.29085491603, 8,27,22,45
712,0.29287023010779534,0.0, 7, 6,17,50,1.3274602597971694, 3, 1,20,60
713,5.491833742391625,0.0, 1, 4,22,60,38.87419376283815, 3, 1,20,60
714,6.05083216935057,0.0, 7,14,23, 5,36.156677168977644, 3, 1,20,60
1184,31991250462.758133,0.0, 1, 1,23, 5,8507619.786300894, 1,20, 6,15
1185,31991250462.758133,0.0, 1, 1,23, 5,8507619.786300894, 1,20, 6,15
1334,0.0,0.0, 1, 1, 1, 1,0.0, 1, 1, 1, 1
13,79872927490.72672,159353.1275401932, 5,24, 4,30,11453652.90867498, 1,23,20,30
61,15743207428.383959,88139.10953165221, 1, 1, 1,15,1282023.4113694867, 1, 1,20,15
134,3685071073.4325233,63564.01800854099, 1, 2, 4,15,156554.22484006523, 1, 1,20,15
170,273393721.45532674,348.4159749238097, 1, 2, 4,15,17476.39704006126, 1, 1,12,15
207,339560869.0695816,815.2532113832032, 1, 2, 3,15,22990.642799023623, 1, 1,10,15
244,664895467.8009144,1521.856143006317, 1, 2, 4,15,53038.631142310165, 1, 1,20,15
281,2407221015.106824,59938.60262432081, 1, 1, 5,15,81951.81706819107, 1, 1,19,15
318,0.0,0.0, 1, 1, 1,15,0.0, 1, 1, 1,15
355,10310294493.051695,18561.32405820678, 1, 2, 4,15,724774.895203776, 1, 1,18,15
403,10310294493.051695,18561.32405820678, 1, 2, 4,15,724774.895203776, 1, 1,18,15
476,5569688622.066177,7098.072629279515, 1, 2, 4,15,356036.3026282215, 1, 1,12,15
513,0.0,0.0, 1, 1, 1,15,0.0, 1, 1, 1,15
599,3502681853.3228726,0.0, 1, 1, 1,15,1431746.6200936981, 7,18,15,60
637,50923994529.969955,0.0, 3,12,16,60,9613511.42911428, 1,19,19,45
677,2993127025.5053825,7650.0, 1, 1, 1,30,387597.95743568835, 7, 9,22,45
692,3024845580.111706,0.0, 3, 9,14,30,209970.94654060097, 1, 1,10,15
1165,0.0,0.0, 1, 1, 1,15,0.0, 1, 1, 1,15
1372,0.0,0.0, 1, 1, 1,15,0.0, 1, 1, 1,15
End of Data
 Number of Records Written=          96
